/*--------------------------------*- C++ -*----------------------------------*\
| =========                 |                                                 |
| \\      /  F ield         | OpenFOAM: The Open Source CFD Toolbox           |
|  \\    /   O peration     | Version:  2412                                  |
|   \\  /    A nd           | Website:  www.openfoam.com                      |
|    \\/     M anipulation  |                                                 |
\*---------------------------------------------------------------------------*/
FoamFile
{
    version     2.0;
    format      ascii;
    arch        "LSB;label=32;scalar=64";
    class       volScalarField;
    location    "420";
    object      nut;
}
// * * * * * * * * * * * * * * * * * * * * * * * * * * * * * * * * * * * * * //

dimensions      [0 2 -1 0 0 0 0];

internalField   nonuniform List<scalar> 
8553
(
7.08672e-13
1.86011e-12
6.12263e-13
8.9707e-14
2.08342e-13
4.01593e-13
5.20385e-12
9.60397e-12
7.94479e-12
5.9393e-12
5.22505e-12
4.82146e-12
4.77067e-12
4.9163e-12
5.07996e-12
5.10814e-12
5.04052e-12
4.8944e-12
4.71218e-12
4.56755e-12
4.48188e-12
4.43398e-12
4.41048e-12
4.38322e-12
4.34194e-12
4.2926e-12
4.24249e-12
4.20016e-12
4.16599e-12
4.13697e-12
4.10957e-12
4.08346e-12
4.05981e-12
4.03882e-12
4.02119e-12
4.00687e-12
3.99522e-12
3.98547e-12
3.97817e-12
3.97362e-12
3.97107e-12
3.97063e-12
3.97196e-12
3.97539e-12
3.98083e-12
3.9879e-12
3.99668e-12
4.00733e-12
4.01949e-12
4.03296e-12
4.04792e-12
4.06446e-12
4.08239e-12
4.10159e-12
4.1222e-12
4.14407e-12
4.16725e-12
4.1915e-12
4.21659e-12
4.24327e-12
4.27131e-12
4.30028e-12
4.33064e-12
4.36194e-12
4.39458e-12
4.4284e-12
4.46297e-12
4.49882e-12
4.53614e-12
4.57452e-12
4.61395e-12
4.65471e-12
4.6965e-12
4.73958e-12
4.78385e-12
4.82952e-12
4.87676e-12
4.92503e-12
2.58762e-12
2.54511e-12
2.51703e-12
2.58705e-12
2.82609e-12
3.26287e-12
4.35017e-12
5.32658e-12
3.40877e-12
4.29585e-13
1.33223e-13
3.75903e-14
7.62338e-14
1.25125e-12
2.45483e-12
6.42051e-11
1.47342e-10
5.78302e-11
8.95331e-12
1.78178e-11
3.87341e-11
4.83257e-10
8.44881e-10
7.12518e-10
5.4905e-10
4.86841e-10
4.52644e-10
4.4864e-10
4.61338e-10
4.74979e-10
4.76911e-10
4.70435e-10
4.57181e-10
4.41012e-10
4.28171e-10
4.20464e-10
4.161e-10
4.13819e-10
4.11175e-10
4.07294e-10
4.02731e-10
3.9813e-10
3.94223e-10
3.9104e-10
3.88319e-10
3.85775e-10
3.83358e-10
3.81176e-10
3.79273e-10
3.77684e-10
3.76398e-10
3.75361e-10
3.74531e-10
3.73944e-10
3.73598e-10
3.73462e-10
3.73539e-10
3.73802e-10
3.74259e-10
3.74908e-10
3.7573e-10
3.76722e-10
3.77881e-10
3.79188e-10
3.80648e-10
3.82255e-10
3.8401e-10
3.85913e-10
3.8794e-10
3.90097e-10
3.92387e-10
3.94806e-10
3.97337e-10
3.99972e-10
4.02745e-10
4.05644e-10
4.08655e-10
4.11788e-10
4.15026e-10
4.18399e-10
4.21874e-10
4.25445e-10
4.29143e-10
4.32966e-10
4.36901e-10
4.40944e-10
4.45116e-10
4.49386e-10
4.53776e-10
4.5829e-10
4.62928e-10
4.67708e-10
4.72589e-10
2.40031e-10
2.36605e-10
2.34277e-10
2.40368e-10
2.61e-10
2.98997e-10
3.88596e-10
4.67012e-10
3.10995e-10
4.41033e-11
1.14307e-11
3.61311e-12
6.93205e-12
9.99012e-11
1.90345e-10
5.95175e-10
1.11602e-09
5.32485e-10
9.53681e-11
1.48402e-10
4.33733e-10
4.43869e-09
7.23458e-09
6.28157e-09
5.05553e-09
4.53893e-09
4.26953e-09
4.24144e-09
4.34512e-09
4.44841e-09
4.4565e-09
4.39438e-09
4.27746e-09
4.13956e-09
4.02997e-09
3.96287e-09
3.92381e-09
3.90125e-09
3.87526e-09
3.8389e-09
3.79702e-09
3.75528e-09
3.71956e-09
3.69004e-09
3.66459e-09
3.64098e-09
3.61875e-09
3.59876e-09
3.58161e-09
3.56749e-09
3.55618e-09
3.54733e-09
3.54067e-09
3.53638e-09
3.53442e-09
3.53464e-09
3.53705e-09
3.54142e-09
3.54769e-09
3.55589e-09
3.56589e-09
3.57763e-09
3.59107e-09
3.60611e-09
3.62275e-09
3.6409e-09
3.66052e-09
3.68164e-09
3.70412e-09
3.72795e-09
3.75313e-09
3.77965e-09
3.80741e-09
3.83631e-09
3.86656e-09
3.89813e-09
3.93093e-09
3.9649e-09
4.00004e-09
4.03648e-09
4.07401e-09
4.11266e-09
4.15257e-09
4.19364e-09
4.23593e-09
4.27938e-09
4.32405e-09
4.36979e-09
4.41668e-09
4.46474e-09
4.51399e-09
4.56463e-09
4.61621e-09
2.22174e-09
2.19745e-09
2.18015e-09
2.23061e-09
2.39868e-09
2.71361e-09
3.39775e-09
3.97183e-09
2.78562e-09
4.99016e-10
9.58467e-11
3.68157e-11
7.03664e-11
7.5126e-10
1.40761e-09
2.94385e-09
4.1158e-09
2.32701e-09
5.26567e-10
6.05393e-10
2.8689e-09
1.97493e-08
3.02594e-08
2.72439e-08
2.30083e-08
2.09705e-08
1.99881e-08
1.98966e-08
2.02828e-08
2.06293e-08
2.06166e-08
2.03277e-08
1.98333e-08
1.92726e-08
1.88252e-08
1.85428e-08
1.83713e-08
1.82596e-08
1.81325e-08
1.7965e-08
1.77765e-08
1.7591e-08
1.74309e-08
1.72966e-08
1.718e-08
1.70724e-08
1.69725e-08
1.68838e-08
1.68089e-08
1.67487e-08
1.67018e-08
1.66673e-08
1.66442e-08
1.66329e-08
1.66335e-08
1.66453e-08
1.66681e-08
1.67013e-08
1.67444e-08
1.67973e-08
1.68596e-08
1.69312e-08
1.70117e-08
1.71007e-08
1.71981e-08
1.73035e-08
1.74168e-08
1.75376e-08
1.7666e-08
1.78016e-08
1.79442e-08
1.8094e-08
1.82507e-08
1.84137e-08
1.85836e-08
1.87606e-08
1.8944e-08
1.91337e-08
1.93299e-08
1.95328e-08
1.97417e-08
1.99566e-08
2.0178e-08
2.04054e-08
2.06391e-08
2.0879e-08
2.11251e-08
2.13768e-08
2.1634e-08
2.18968e-08
2.21655e-08
2.2441e-08
2.27208e-08
1.01384e-08
1.00673e-08
1.00145e-08
1.02162e-08
1.08616e-08
1.21029e-08
1.45308e-08
1.64235e-08
1.20669e-08
2.92749e-09
3.94584e-10
2.02395e-10
3.94726e-10
2.68833e-09
5.06874e-09
1.22261e-08
1.0692e-08
6.89283e-09
2.04191e-09
1.74526e-09
1.38206e-08
6.02473e-08
8.86033e-08
8.31412e-08
7.36459e-08
6.82249e-08
6.5874e-08
6.56437e-08
6.65329e-08
6.72237e-08
6.70385e-08
6.61323e-08
6.47234e-08
6.31897e-08
6.19503e-08
6.11327e-08
6.06053e-08
6.02164e-08
5.97832e-08
5.92467e-08
5.86591e-08
5.80874e-08
5.7589e-08
5.71654e-08
5.67946e-08
5.64561e-08
5.61475e-08
5.58786e-08
5.56579e-08
5.54872e-08
5.53633e-08
5.52833e-08
5.52455e-08
5.52505e-08
5.52984e-08
5.53876e-08
5.55169e-08
5.56846e-08
5.58897e-08
5.61315e-08
5.64088e-08
5.67208e-08
5.70664e-08
5.74441e-08
5.78533e-08
5.8294e-08
5.87645e-08
5.92642e-08
5.97926e-08
6.03488e-08
6.09321e-08
6.15429e-08
6.21802e-08
6.28427e-08
6.35319e-08
6.42473e-08
6.49881e-08
6.57538e-08
6.65439e-08
6.73596e-08
6.8199e-08
6.90616e-08
6.99479e-08
7.08575e-08
7.17902e-08
7.27459e-08
7.37242e-08
7.47226e-08
7.57408e-08
7.6779e-08
7.78372e-08
7.89175e-08
8.00111e-08
3.23964e-08
3.22981e-08
3.22298e-08
3.27955e-08
3.44643e-08
3.77794e-08
4.34736e-08
4.73222e-08
3.59162e-08
1.19813e-08
1.15209e-09
8.27009e-10
1.66628e-09
6.8287e-09
1.35013e-08
4.30032e-08
2.27033e-08
1.60396e-08
6.02157e-09
4.15246e-09
5.13622e-08
1.44602e-07
2.09538e-07
2.05496e-07
1.90109e-07
1.78995e-07
1.74757e-07
1.74108e-07
1.75384e-07
1.76158e-07
1.75421e-07
1.73273e-07
1.70229e-07
1.67036e-07
1.64381e-07
1.62516e-07
1.61215e-07
1.60139e-07
1.58974e-07
1.57616e-07
1.5617e-07
1.5478e-07
1.53553e-07
1.52497e-07
1.5157e-07
1.50737e-07
1.49998e-07
1.49375e-07
1.48888e-07
1.48541e-07
1.48328e-07
1.48243e-07
1.48284e-07
1.48452e-07
1.48748e-07
1.49167e-07
1.49707e-07
1.50364e-07
1.51135e-07
1.52018e-07
1.53011e-07
1.54109e-07
1.55312e-07
1.56614e-07
1.58015e-07
1.59513e-07
1.61105e-07
1.6279e-07
1.64564e-07
1.66427e-07
1.68376e-07
1.70411e-07
1.7253e-07
1.74732e-07
1.77017e-07
1.79385e-07
1.81834e-07
1.84361e-07
1.86966e-07
1.89651e-07
1.9241e-07
1.95243e-07
1.98149e-07
2.01126e-07
2.04173e-07
2.0729e-07
2.10475e-07
2.13717e-07
2.17017e-07
2.20373e-07
2.23785e-07
2.27253e-07
2.30751e-07
8.30699e-08
8.31136e-08
8.32201e-08
8.45301e-08
8.78796e-08
9.47609e-08
1.04789e-07
1.09622e-07
8.44082e-08
3.74753e-08
2.84946e-09
2.83034e-09
5.86398e-09
1.46464e-08
3.94447e-08
1.30904e-07
4.26e-08
3.18221e-08
1.45175e-08
1.02204e-08
1.4664e-07
2.93033e-07
4.30206e-07
4.40904e-07
4.22968e-07
4.0421e-07
3.97892e-07
3.95821e-07
3.96389e-07
3.96313e-07
3.94489e-07
3.90509e-07
3.85334e-07
3.80039e-07
3.75377e-07
3.71799e-07
3.69053e-07
3.66556e-07
3.63945e-07
3.61077e-07
3.58111e-07
3.55286e-07
3.5276e-07
3.50563e-07
3.48645e-07
3.46966e-07
3.45541e-07
3.44413e-07
3.43615e-07
3.43157e-07
3.43036e-07
3.43244e-07
3.43775e-07
3.44636e-07
3.45825e-07
3.47336e-07
3.49165e-07
3.51301e-07
3.5374e-07
3.56475e-07
3.59501e-07
3.62811e-07
3.66398e-07
3.70258e-07
3.74384e-07
3.78773e-07
3.83418e-07
3.88317e-07
3.93462e-07
3.98849e-07
4.04475e-07
4.10338e-07
4.16435e-07
4.22761e-07
4.29318e-07
4.36102e-07
4.43107e-07
4.50329e-07
4.57768e-07
4.65422e-07
4.7328e-07
4.81336e-07
4.89589e-07
4.98032e-07
5.0666e-07
5.15468e-07
5.24448e-07
5.33575e-07
5.42841e-07
5.52243e-07
5.61773e-07
5.71423e-07
5.81123e-07
1.82765e-07
1.83362e-07
1.84206e-07
1.86937e-07
1.92592e-07
2.04472e-07
2.18355e-07
2.19505e-07
1.68102e-07
9.42395e-08
7.61025e-09
8.45923e-09
1.82539e-08
2.94394e-08
1.14351e-07
3.48249e-07
9.0028e-08
5.69613e-08
2.99507e-08
2.66287e-08
3.38526e-07
5.28784e-07
7.99169e-07
8.5272e-07
8.40795e-07
8.13559e-07
8.04826e-07
7.988e-07
7.9605e-07
7.93631e-07
7.90551e-07
7.84925e-07
7.78158e-07
7.71185e-07
7.64291e-07
7.58305e-07
7.5319e-07
7.48216e-07
7.43235e-07
7.38066e-07
7.3287e-07
7.27962e-07
7.23521e-07
7.19648e-07
7.16329e-07
7.13566e-07
7.11406e-07
7.0992e-07
7.0916e-07
7.09151e-07
7.09902e-07
7.11406e-07
7.13664e-07
7.16683e-07
7.20462e-07
7.24992e-07
7.30262e-07
7.36257e-07
7.42967e-07
7.5038e-07
7.58486e-07
7.67272e-07
7.76723e-07
7.8683e-07
7.97585e-07
8.08974e-07
8.20987e-07
8.33615e-07
8.46849e-07
8.6068e-07
8.75098e-07
8.90098e-07
9.05672e-07
9.21816e-07
9.38526e-07
9.55789e-07
9.73597e-07
9.91942e-07
1.01082e-06
1.03021e-06
1.0501e-06
1.07046e-06
1.09129e-06
1.11258e-06
1.13429e-06
1.15642e-06
1.17893e-06
1.20177e-06
1.22491e-06
1.24832e-06
1.27199e-06
1.29586e-06
1.31979e-06
3.58283e-07
3.60033e-07
3.6272e-07
3.68044e-07
3.76568e-07
3.9432e-07
4.09279e-07
3.96299e-07
2.97182e-07
1.99717e-07
2.0712e-08
2.1191e-08
4.8856e-08
6.55052e-08
3.09417e-07
8.22194e-07
2.05083e-07
9.53642e-08
5.49274e-08
7.04019e-08
6.67272e-07
8.84429e-07
1.37672e-06
1.5178e-06
1.52435e-06
1.48893e-06
1.47621e-06
1.4617e-06
1.4518e-06
1.44593e-06
1.44287e-06
1.4377e-06
1.43188e-06
1.42513e-06
1.41649e-06
1.40759e-06
1.3991e-06
1.39054e-06
1.3824e-06
1.37443e-06
1.36666e-06
1.35938e-06
1.35276e-06
1.34706e-06
1.34242e-06
1.33895e-06
1.33679e-06
1.33601e-06
1.3367e-06
1.33892e-06
1.34271e-06
1.34807e-06
1.35503e-06
1.36359e-06
1.37375e-06
1.3855e-06
1.39881e-06
1.41367e-06
1.43007e-06
1.44797e-06
1.46737e-06
1.48824e-06
1.51055e-06
1.53429e-06
1.55944e-06
1.58597e-06
1.61388e-06
1.64313e-06
1.67372e-06
1.70562e-06
1.73882e-06
1.7733e-06
1.80905e-06
1.84605e-06
1.8843e-06
1.92375e-06
1.96441e-06
2.00623e-06
2.0492e-06
2.09328e-06
2.13843e-06
2.1846e-06
2.23176e-06
2.27985e-06
2.32883e-06
2.37864e-06
2.42919e-06
2.48039e-06
2.53214e-06
2.58439e-06
2.63703e-06
2.68994e-06
2.7428e-06
6.40561e-07
6.43886e-07
6.50007e-07
6.59712e-07
6.71783e-07
6.95393e-07
7.06504e-07
6.62341e-07
4.8512e-07
3.71742e-07
5.52536e-08
4.35392e-08
1.08864e-07
1.49439e-07
7.6901e-07
1.74691e-06
4.62387e-07
1.52641e-07
9.28846e-08
1.82902e-07
1.17191e-06
1.40564e-06
2.23059e-06
2.51447e-06
2.55201e-06
2.50909e-06
2.48888e-06
2.46018e-06
2.43968e-06
2.43133e-06
2.43237e-06
2.4327e-06
2.43296e-06
2.43005e-06
2.42111e-06
2.40929e-06
2.39682e-06
2.3841e-06
2.37283e-06
2.36256e-06
2.35293e-06
2.34407e-06
2.33609e-06
2.3296e-06
2.32508e-06
2.32288e-06
2.32321e-06
2.32619e-06
2.33194e-06
2.34059e-06
2.35222e-06
2.3669e-06
2.38465e-06
2.4055e-06
2.42943e-06
2.45641e-06
2.48644e-06
2.51949e-06
2.55551e-06
2.5945e-06
2.6364e-06
2.68118e-06
2.72882e-06
2.77926e-06
2.83246e-06
2.88841e-06
2.94705e-06
3.00836e-06
3.07229e-06
3.13882e-06
3.2079e-06
3.27951e-06
3.35359e-06
3.43011e-06
3.50905e-06
3.59034e-06
3.67394e-06
3.75977e-06
3.84777e-06
3.93786e-06
4.02994e-06
4.12392e-06
4.21968e-06
4.31711e-06
4.4161e-06
4.5165e-06
4.61815e-06
4.72081e-06
4.8243e-06
4.92846e-06
5.03306e-06
5.1378e-06
5.24205e-06
1.06507e-06
1.07619e-06
1.09246e-06
1.10907e-06
1.13764e-06
1.13899e-06
1.04196e-06
7.51217e-07
6.25788e-07
1.42356e-07
7.68591e-08
2.0941e-07
3.38298e-07
1.75691e-06
3.37907e-06
9.96495e-07
2.44728e-07
1.46499e-07
4.62704e-07
1.8857e-06
2.15609e-06
3.42339e-06
3.90117e-06
3.97807e-06
3.92829e-06
3.89614e-06
3.84883e-06
3.81732e-06
3.81144e-06
3.82431e-06
3.83838e-06
3.85217e-06
3.85812e-06
3.85138e-06
3.83766e-06
3.82173e-06
3.80585e-06
3.79325e-06
3.7831e-06
3.77434e-06
3.76675e-06
3.76046e-06
3.75668e-06
3.75643e-06
3.76044e-06
3.76903e-06
3.78233e-06
3.80051e-06
3.8238e-06
3.85239e-06
3.8864e-06
3.9259e-06
3.97088e-06
4.0213e-06
4.07715e-06
4.13841e-06
4.20505e-06
4.27701e-06
4.35423e-06
4.43665e-06
4.52423e-06
4.61687e-06
4.71451e-06
4.81707e-06
4.92448e-06
5.03667e-06
5.15357e-06
5.2751e-06
5.40117e-06
5.53169e-06
5.6666e-06
5.80579e-06
5.94917e-06
6.09664e-06
6.24807e-06
6.40335e-06
6.56232e-06
6.72482e-06
6.89069e-06
7.0597e-06
7.23163e-06
7.40624e-06
7.58334e-06
7.76266e-06
7.94389e-06
8.1267e-06
8.31067e-06
8.49544e-06
8.68069e-06
8.86594e-06
9.05063e-06
9.23363e-06
9.35724e-06
9.54152e-06
9.72517e-06
1.64688e-06
1.6638e-06
1.68842e-06
1.71067e-06
1.74262e-06
1.72886e-06
1.55812e-06
1.12159e-06
9.73142e-07
3.55533e-07
1.35236e-07
3.63323e-07
7.46094e-07
3.70572e-06
6.00202e-06
2.02838e-06
4.35227e-07
2.16079e-07
1.10334e-06
2.83432e-06
3.21368e-06
4.99237e-06
5.69174e-06
5.81079e-06
5.75572e-06
5.70918e-06
5.64369e-06
5.60652e-06
5.61295e-06
5.6487e-06
5.68693e-06
5.72277e-06
5.74334e-06
5.74246e-06
5.72958e-06
5.71303e-06
5.69769e-06
5.68847e-06
5.68385e-06
5.68183e-06
5.68172e-06
5.68385e-06
5.69031e-06
5.70288e-06
5.72275e-06
5.75034e-06
5.78579e-06
5.82931e-06
5.88127e-06
5.942e-06
6.01172e-06
6.09044e-06
6.17812e-06
6.27472e-06
6.3802e-06
6.49455e-06
6.61769e-06
6.74951e-06
6.88992e-06
7.03879e-06
7.19601e-06
7.36142e-06
7.5349e-06
7.71628e-06
7.9054e-06
8.10211e-06
8.30626e-06
8.51766e-06
8.73615e-06
8.9615e-06
9.19355e-06
9.43209e-06
9.67688e-06
9.92771e-06
1.01843e-05
1.04464e-05
1.07136e-05
1.09857e-05
1.12624e-05
1.15431e-05
1.18274e-05
1.2115e-05
1.24054e-05
1.26982e-05
1.29928e-05
1.32885e-05
1.35848e-05
1.3881e-05
1.41765e-05
1.44706e-05
1.47623e-05
1.50499e-05
1.52849e-05
1.55723e-05
1.58571e-05
2.39986e-06
2.42119e-06
2.45415e-06
2.48231e-06
2.5153e-06
2.48262e-06
2.22571e-06
1.61804e-06
1.41928e-06
7.74431e-07
2.26906e-07
5.87262e-07
1.59316e-06
7.25525e-06
9.85582e-06
3.89223e-06
8.15226e-07
3.28051e-07
2.17843e-06
4.03552e-06
4.64655e-06
6.92758e-06
7.83796e-06
7.9988e-06
7.94363e-06
7.8863e-06
7.81104e-06
7.78054e-06
7.81324e-06
7.88428e-06
7.95727e-06
8.02324e-06
8.06438e-06
8.07461e-06
8.06808e-06
8.05724e-06
8.05008e-06
8.05297e-06
8.0634e-06
8.07836e-06
8.09674e-06
8.11934e-06
8.14935e-06
8.18944e-06
8.24126e-06
8.3053e-06
8.38165e-06
8.47059e-06
8.57261e-06
8.68825e-06
8.8177e-06
8.96082e-06
9.11756e-06
9.28787e-06
9.47166e-06
9.66886e-06
9.87929e-06
1.01028e-05
1.03391e-05
1.0588e-05
1.08493e-05
1.11226e-05
1.14077e-05
1.17043e-05
1.2012e-05
1.23306e-05
1.26596e-05
1.29988e-05
1.33478e-05
1.37061e-05
1.40735e-05
1.44493e-05
1.48333e-05
1.52249e-05
1.56237e-05
1.60291e-05
1.64405e-05
1.68573e-05
1.72791e-05
1.77049e-05
1.81341e-05
1.85661e-05
1.9e-05
1.94352e-05
1.98708e-05
2.03058e-05
2.07393e-05
2.11703e-05
2.15981e-05
2.20213e-05
2.24387e-05
2.28479e-05
2.32098e-05
2.3615e-05
2.40144e-05
3.31643e-06
3.33755e-06
3.3755e-06
3.40745e-06
3.43775e-06
3.38387e-06
3.04265e-06
2.2556e-06
1.96296e-06
1.4111e-06
3.54596e-07
9.07114e-07
3.2799e-06
1.32286e-05
1.50696e-05
7.04478e-06
1.54786e-06
5.53047e-07
3.71665e-06
5.49313e-06
6.46303e-06
9.157e-06
1.02276e-05
1.04319e-05
1.03889e-05
1.03337e-05
1.0266e-05
1.02601e-05
1.03345e-05
1.0452e-05
1.05685e-05
1.06714e-05
1.07395e-05
1.07686e-05
1.07779e-05
1.07839e-05
1.07976e-05
1.08264e-05
1.08667e-05
1.09146e-05
1.09687e-05
1.10307e-05
1.11049e-05
1.11949e-05
1.13026e-05
1.14285e-05
1.15727e-05
1.17353e-05
1.19172e-05
1.21187e-05
1.234e-05
1.25807e-05
1.28408e-05
1.31201e-05
1.34184e-05
1.37355e-05
1.4071e-05
1.44246e-05
1.47959e-05
1.51844e-05
1.55897e-05
1.60111e-05
1.64482e-05
1.69003e-05
1.7367e-05
1.78475e-05
1.83412e-05
1.88476e-05
1.93658e-05
1.98953e-05
2.04352e-05
2.09848e-05
2.15434e-05
2.21101e-05
2.26841e-05
2.32646e-05
2.38505e-05
2.4441e-05
2.5035e-05
2.56316e-05
2.62296e-05
2.6828e-05
2.74258e-05
2.8022e-05
2.86152e-05
2.92043e-05
2.97879e-05
3.03648e-05
3.0934e-05
3.14937e-05
3.20422e-05
3.2577e-05
3.30678e-05
3.35921e-05
3.41054e-05
4.36888e-06
4.38159e-06
4.4169e-06
4.44646e-06
4.46792e-06
4.39104e-06
3.98262e-06
3.03436e-06
2.60112e-06
2.231e-06
5.94867e-07
1.53818e-06
6.48558e-06
2.24617e-05
2.1597e-05
1.20459e-05
2.91938e-06
1.01146e-06
5.65621e-06
7.18514e-06
8.60961e-06
1.15461e-05
1.26988e-05
1.29552e-05
1.29462e-05
1.29157e-05
1.28799e-05
1.29189e-05
1.30485e-05
1.32198e-05
1.33863e-05
1.35321e-05
1.36355e-05
1.36955e-05
1.37354e-05
1.37753e-05
1.38288e-05
1.39035e-05
1.39948e-05
1.40985e-05
1.42134e-05
1.43419e-05
1.44895e-05
1.46603e-05
1.48566e-05
1.50785e-05
1.5326e-05
1.55992e-05
1.58989e-05
1.62252e-05
1.65779e-05
1.69568e-05
1.73615e-05
1.77915e-05
1.82466e-05
1.87261e-05
1.92296e-05
1.97562e-05
2.03053e-05
2.0876e-05
2.14675e-05
2.20788e-05
2.2709e-05
2.3357e-05
2.4022e-05
2.47029e-05
2.53987e-05
2.61081e-05
2.68302e-05
2.75638e-05
2.83076e-05
2.90607e-05
2.98216e-05
3.05893e-05
3.13623e-05
3.21396e-05
3.29196e-05
3.37012e-05
3.44829e-05
3.52633e-05
3.6041e-05
3.68145e-05
3.75828e-05
3.83443e-05
3.90975e-05
3.98409e-05
4.05729e-05
4.12921e-05
4.19971e-05
4.26861e-05
4.3357e-05
4.40072e-05
4.46152e-05
4.52455e-05
4.58584e-05
5.51162e-06
5.50475e-06
5.52571e-06
5.5419e-06
5.54521e-06
5.44285e-06
4.99459e-06
3.93188e-06
3.32471e-06
3.17452e-06
1.04808e-06
2.73401e-06
1.22341e-05
3.55391e-05
2.92076e-05
1.95012e-05
5.43649e-06
1.95962e-06
7.8492e-06
9.05206e-06
1.09577e-05
1.39135e-05
1.50646e-05
1.53904e-05
1.54461e-05
1.54698e-05
1.54931e-05
1.55952e-05
1.57894e-05
1.60187e-05
1.62404e-05
1.64369e-05
1.65884e-05
1.66971e-05
1.67892e-05
1.68873e-05
1.70065e-05
1.71542e-05
1.73256e-05
1.75164e-05
1.77257e-05
1.79569e-05
1.82161e-05
1.85079e-05
1.88341e-05
1.91946e-05
1.95891e-05
2.00176e-05
2.04803e-05
2.09768e-05
2.1507e-05
2.20702e-05
2.26657e-05
2.32927e-05
2.39504e-05
2.4638e-05
2.53543e-05
2.60981e-05
2.68682e-05
2.76633e-05
2.84819e-05
2.93226e-05
3.01839e-05
3.10642e-05
3.19621e-05
3.28759e-05
3.3804e-05
3.47449e-05
3.56968e-05
3.66581e-05
3.76271e-05
3.86022e-05
3.95818e-05
4.0564e-05
4.15473e-05
4.25299e-05
4.35102e-05
4.44864e-05
4.54568e-05
4.64197e-05
4.73734e-05
4.83162e-05
4.92469e-05
5.01637e-05
5.10648e-05
5.19486e-05
5.28134e-05
5.36577e-05
5.44799e-05
5.52781e-05
5.60503e-05
5.67941e-05
5.7496e-05
5.82081e-05
5.88952e-05
6.68824e-06
6.64871e-06
6.64136e-06
6.62909e-06
6.60263e-06
6.47127e-06
6.01165e-06
4.9011e-06
4.1157e-06
4.17349e-06
1.89917e-06
4.94441e-06
2.19178e-05
5.25674e-05
3.75292e-05
2.99771e-05
9.98215e-06
3.90901e-06
1.01582e-05
1.09972e-05
1.32925e-05
1.60571e-05
1.71381e-05
1.75566e-05
1.77128e-05
1.78222e-05
1.79297e-05
1.81089e-05
1.83739e-05
1.86639e-05
1.89487e-05
1.9209e-05
1.94282e-05
1.96114e-05
1.97856e-05
1.99742e-05
2.01931e-05
2.04495e-05
2.07389e-05
2.10572e-05
2.1404e-05
2.17832e-05
2.22013e-05
2.26624e-05
2.3168e-05
2.37172e-05
2.43094e-05
2.49439e-05
2.56197e-05
2.63368e-05
2.70945e-05
2.78915e-05
2.87264e-05
2.95982e-05
3.05053e-05
3.14462e-05
3.24191e-05
3.34223e-05
3.44537e-05
3.55113e-05
3.65931e-05
3.76968e-05
3.88204e-05
3.99616e-05
4.11182e-05
4.2288e-05
4.34689e-05
4.46586e-05
4.58549e-05
4.70555e-05
4.82583e-05
4.94613e-05
5.06623e-05
5.18591e-05
5.30499e-05
5.42326e-05
5.54051e-05
5.65655e-05
5.77119e-05
5.88423e-05
5.99549e-05
6.10481e-05
6.21205e-05
6.31703e-05
6.41955e-05
6.51945e-05
6.61656e-05
6.71075e-05
6.80185e-05
6.88967e-05
6.97404e-05
7.05481e-05
7.13128e-05
7.20754e-05
7.28048e-05
7.756e-06
7.70779e-06
7.64996e-06
7.58332e-06
7.41997e-06
6.96893e-06
5.87687e-06
4.94044e-06
5.16376e-06
3.15128e-06
8.88666e-06
3.71379e-05
7.29402e-05
4.61121e-05
4.39207e-05
1.74972e-05
6.80505e-06
1.24281e-05
1.28345e-05
1.53311e-05
1.77813e-05
1.87532e-05
1.92878e-05
1.95791e-05
1.98024e-05
2.00148e-05
2.0281e-05
2.06208e-05
2.09812e-05
2.13437e-05
2.16894e-05
2.20056e-05
2.22985e-05
2.25934e-05
2.29137e-05
2.32754e-05
2.36854e-05
2.41399e-05
2.46354e-05
2.51717e-05
2.57529e-05
2.63848e-05
2.70708e-05
2.78113e-05
2.8605e-05
2.945e-05
3.03439e-05
3.12863e-05
3.22765e-05
3.33128e-05
3.43933e-05
3.55159e-05
3.66786e-05
3.78793e-05
3.91154e-05
4.03844e-05
4.16836e-05
4.30102e-05
4.43614e-05
4.57342e-05
4.71258e-05
4.85332e-05
4.99534e-05
5.13837e-05
5.28212e-05
5.42631e-05
5.57066e-05
5.71488e-05
5.85872e-05
6.00192e-05
6.14424e-05
6.28544e-05
6.42528e-05
6.56354e-05
6.7e-05
6.83445e-05
6.96667e-05
7.09647e-05
7.22366e-05
7.34806e-05
7.46954e-05
7.58794e-05
7.70311e-05
7.81484e-05
7.92298e-05
8.02738e-05
8.12794e-05
8.2245e-05
8.31687e-05
8.40495e-05
8.48871e-05
8.56799e-05
8.64582e-05
8.71949e-05
8.56806e-06
8.45961e-06
8.26522e-06
7.82691e-06
6.79238e-06
5.73438e-06
6.08474e-06
4.71507e-06
1.5622e-05
5.62237e-05
9.15703e-05
5.4538e-05
6.13852e-05
2.69071e-05
1.03889e-05
1.44799e-05
1.43969e-05
1.69003e-05
1.89208e-05
1.97781e-05
2.04482e-05
2.0901e-05
2.12604e-05
2.15944e-05
2.19582e-05
2.23825e-05
2.28322e-05
2.32974e-05
2.37615e-05
2.42145e-05
2.46617e-05
2.51253e-05
2.56275e-05
2.61839e-05
2.68013e-05
2.7477e-05
2.82077e-05
2.89931e-05
2.98366e-05
3.07427e-05
3.17136e-05
3.27485e-05
3.38446e-05
3.49975e-05
3.62056e-05
3.74677e-05
3.87822e-05
4.01464e-05
4.15573e-05
4.30119e-05
4.45071e-05
4.60398e-05
4.76064e-05
4.92034e-05
5.0827e-05
5.24737e-05
5.41396e-05
5.5821e-05
5.75141e-05
5.92152e-05
6.09208e-05
6.26273e-05
6.43314e-05
6.60297e-05
6.7719e-05
6.93962e-05
7.10581e-05
7.27023e-05
7.43261e-05
7.5927e-05
7.75026e-05
7.90505e-05
8.05687e-05
8.2055e-05
8.35076e-05
8.49244e-05
8.63039e-05
8.76447e-05
8.89457e-05
9.02057e-05
9.14229e-05
9.25955e-05
9.37223e-05
9.48023e-05
9.58346e-05
9.68178e-05
9.77504e-05
9.86322e-05
9.94644e-05
0.000100249
0.000101008
0.000101716
9.40776e-06
9.25468e-06
9.03612e-06
8.59554e-06
7.60876e-06
6.46053e-06
6.87493e-06
6.44143e-06
2.3908e-05
7.54375e-05
0.000107441
6.24464e-05
7.70555e-05
3.67231e-05
1.40045e-05
1.6154e-05
1.56116e-05
1.78588e-05
1.93674e-05
2.01328e-05
2.09477e-05
2.15746e-05
2.20876e-05
2.2558e-05
2.30378e-05
2.35678e-05
2.41375e-05
2.4743e-05
2.53696e-05
2.60088e-05
2.66637e-05
2.73518e-05
2.80938e-05
2.89046e-05
2.97908e-05
3.07505e-05
3.17802e-05
3.28788e-05
3.40483e-05
3.52912e-05
3.6608e-05
3.79962e-05
3.94495e-05
4.09644e-05
4.25386e-05
4.41701e-05
4.58558e-05
4.7592e-05
4.93741e-05
5.1198e-05
5.30594e-05
5.49539e-05
5.68769e-05
5.88237e-05
6.07897e-05
6.27701e-05
6.47603e-05
6.67556e-05
6.87516e-05
7.07439e-05
7.27284e-05
7.47011e-05
7.66583e-05
7.85962e-05
8.05114e-05
8.24006e-05
8.42608e-05
8.60895e-05
8.78842e-05
8.96423e-05
9.13617e-05
9.30403e-05
9.46762e-05
9.62676e-05
9.78127e-05
9.93102e-05
0.000100759
0.000102157
0.000103506
0.000104803
0.000106047
0.000107236
0.000108369
0.000109447
0.000110468
0.000111431
0.000112336
0.000113182
0.000113974
0.000114714
0.000115418
0.000116064
1.02282e-05
1.00525e-05
9.82965e-06
9.3541e-06
8.35569e-06
7.12826e-06
7.52558e-06
8.12368e-06
3.18261e-05
9.3377e-05
0.00012085
6.95944e-05
9.06013e-05
4.50647e-05
1.73346e-05
1.73345e-05
1.63967e-05
1.81059e-05
1.90917e-05
1.98007e-05
2.07569e-05
2.1561e-05
2.2242e-05
2.2867e-05
2.34909e-05
2.41614e-05
2.48941e-05
2.56881e-05
2.65302e-05
2.7412e-05
2.83334e-05
2.93074e-05
3.03523e-05
3.14819e-05
3.27025e-05
3.40121e-05
3.54065e-05
3.68828e-05
3.84409e-05
4.0081e-05
4.18013e-05
4.35947e-05
4.54562e-05
4.73819e-05
4.93683e-05
5.14121e-05
5.35086e-05
5.56523e-05
5.78374e-05
6.00582e-05
6.2309e-05
6.45843e-05
6.68782e-05
6.91849e-05
7.14987e-05
7.38139e-05
7.61252e-05
7.84271e-05
8.07146e-05
8.29829e-05
8.52276e-05
8.74443e-05
8.96293e-05
9.17788e-05
9.38894e-05
9.59579e-05
9.79817e-05
9.99585e-05
0.000101886
0.000103763
0.000105587
0.000107355
0.000109068
0.000110723
0.000112319
0.000113855
0.000115332
0.000116748
0.000118103
0.000119397
0.000120627
0.000121793
0.000122894
0.000123931
0.000124903
0.000125809
0.000126649
0.000127424
0.00012814
0.000128801
0.000129416
0.000129964
1.1172e-05
1.10255e-05
1.08291e-05
1.02665e-05
9.1021e-06
7.78891e-06
8.06781e-06
9.60701e-06
3.77023e-05
0.000109106
0.000132034
7.57576e-05
0.000102016
5.10342e-05
1.99678e-05
1.79354e-05
1.66516e-05
1.76188e-05
1.8156e-05
1.88498e-05
1.99341e-05
2.09113e-05
2.17705e-05
2.25738e-05
2.33775e-05
2.42354e-05
2.51821e-05
2.62185e-05
2.73327e-05
2.85157e-05
2.97641e-05
3.10863e-05
3.24981e-05
3.40115e-05
3.56316e-05
3.73554e-05
3.91768e-05
4.10908e-05
4.30941e-05
4.51846e-05
4.73543e-05
4.95988e-05
5.19122e-05
5.42892e-05
5.6725e-05
5.92144e-05
6.1751e-05
6.43272e-05
6.69356e-05
6.95691e-05
7.22204e-05
7.48827e-05
7.7549e-05
8.02125e-05
8.28664e-05
8.55044e-05
8.81205e-05
9.07087e-05
9.32637e-05
9.57806e-05
9.82548e-05
0.000100682
0.000103059
0.000105383
0.000107649
0.000109855
0.000112
0.000114082
0.0001161
0.00011805
0.000119934
0.000121748
0.000123492
0.000125166
0.000126769
0.000128301
0.000129763
0.000131154
0.000132475
0.000133725
0.000134902
0.000136005
0.000137034
0.000137991
0.000138876
0.000139688
0.000140427
0.000141097
0.000141702
0.000142249
0.000142741
0.000143158
1.16579e-05
1.01942e-05
8.62766e-06
8.57908e-06
1.07795e-05
4.07147e-05
0.000122043
0.000140838
7.97774e-05
0.000111291
5.40975e-05
2.16545e-05
1.7874e-05
1.62984e-05
1.64852e-05
1.67191e-05
1.74419e-05
1.8635e-05
1.97739e-05
2.082e-05
2.18274e-05
2.285e-05
2.39459e-05
2.51581e-05
2.64897e-05
2.793e-05
2.94692e-05
3.11012e-05
3.28301e-05
3.46687e-05
3.6626e-05
3.87047e-05
4.08994e-05
4.32015e-05
4.56027e-05
4.80968e-05
5.0675e-05
5.33324e-05
5.60645e-05
5.88633e-05
6.17216e-05
6.46327e-05
6.75895e-05
7.05831e-05
7.36042e-05
7.66433e-05
7.96917e-05
8.2741e-05
8.57827e-05
8.8809e-05
9.18121e-05
9.47847e-05
9.77198e-05
0.000100611
0.000103452
0.000106238
0.000108965
0.000111627
0.000114221
0.000116745
0.000119195
0.000121569
0.000123866
0.000126084
0.000128222
0.00013028
0.000132256
0.000134151
0.000135962
0.000137691
0.000139338
0.000140902
0.000142384
0.000143788
0.000145112
0.000146357
0.000147522
0.000148604
0.000149604
0.000150523
0.000151362
0.000152122
0.000152802
0.000153405
0.000153933
0.000154395
0.000154793
0.000155127
0.00015538
1.5502e-05
1.31109e-05
1.01193e-05
9.21281e-06
1.16634e-05
4.08075e-05
0.000131326
0.000146575
8.1781e-05
0.000118323
5.40659e-05
2.22626e-05
1.71406e-05
1.53319e-05
1.49054e-05
1.50279e-05
1.58239e-05
1.71049e-05
1.83898e-05
1.96279e-05
2.08605e-05
2.21376e-05
2.35148e-05
2.5037e-05
2.67087e-05
2.85204e-05
3.04621e-05
3.25254e-05
3.47106e-05
3.7026e-05
3.94766e-05
4.20609e-05
4.47703e-05
4.75924e-05
5.05154e-05
5.35274e-05
5.66201e-05
5.97931e-05
6.3038e-05
6.63437e-05
6.97009e-05
7.31005e-05
7.6533e-05
7.99871e-05
8.34511e-05
8.69139e-05
9.03648e-05
9.37943e-05
9.71928e-05
0.000100552
0.000103863
0.000107118
0.00011031
0.000113433
0.000116481
0.00011945
0.000122334
0.000125132
0.00012784
0.000130456
0.000132978
0.000135405
0.000137737
0.000139973
0.000142114
0.00014416
0.000146109
0.000147963
0.000149722
0.000151385
0.000152955
0.000154432
0.000155821
0.000157121
0.000158336
0.000159464
0.000160501
0.000161448
0.000162304
0.000163073
0.000163755
0.000164353
0.000164866
0.000165296
0.000165649
0.000165931
0.000166146
0.000166289
0.000166344
2.28652e-05
1.89711e-05
1.32325e-05
1.04262e-05
1.242e-05
3.95262e-05
0.000134684
0.000149458
8.48021e-05
0.000121441
5.21144e-05
2.18263e-05
1.58919e-05
1.38957e-05
1.31767e-05
1.33821e-05
1.42932e-05
1.56439e-05
1.70587e-05
1.84872e-05
1.99587e-05
2.15149e-05
2.32047e-05
2.50689e-05
2.7113e-05
2.93287e-05
3.17062e-05
3.42351e-05
3.69119e-05
3.97392e-05
4.27162e-05
4.58363e-05
4.90861e-05
5.24492e-05
5.5909e-05
5.94507e-05
6.30768e-05
6.67811e-05
7.05508e-05
7.43717e-05
7.82315e-05
8.21184e-05
8.60199e-05
8.99223e-05
9.38114e-05
9.76741e-05
0.000101498
0.000105274
0.000108989
0.000112637
0.000116207
0.000119692
0.000123087
0.000126384
0.000129578
0.000132667
0.000135648
0.000138518
0.000141276
0.000143921
0.000146453
0.000148871
0.000151177
0.000153373
0.000155458
0.000157434
0.0001593
0.000161059
0.00016271
0.000164256
0.000165699
0.000167042
0.000168289
0.000169444
0.000170506
0.000171473
0.000172342
0.000173111
0.000173784
0.000174363
0.000174851
0.000175249
0.000175558
0.000175781
0.000175924
0.000175993
0.00017599
0.000175908
0.000175732
3.76076e-05
0.000131584
0.000149335
8.80414e-05
0.000120058
4.87534e-05
2.05143e-05
1.43073e-05
1.22719e-05
1.1622e-05
1.20789e-05
1.31438e-05
1.45587e-05
1.60932e-05
1.77086e-05
1.94245e-05
2.12733e-05
2.32937e-05
2.55188e-05
2.79536e-05
3.05914e-05
3.34221e-05
3.64341e-05
3.96196e-05
4.29745e-05
4.64909e-05
5.01559e-05
5.39509e-05
5.78549e-05
6.18472e-05
6.59273e-05
7.00923e-05
7.43296e-05
7.86218e-05
8.29506e-05
8.73005e-05
9.16563e-05
9.60024e-05
0.000100322
0.000104599
0.000108818
0.000112967
0.000117033
0.000121006
0.000124878
0.000128641
0.000132287
0.00013581
0.000139207
0.000142473
0.000145608
0.000148609
0.000151477
0.000154211
0.000156813
0.000159284
0.000161626
0.000163841
0.000165931
0.000167898
0.000169743
0.000171467
0.000173073
0.000174561
0.000175936
0.000177201
0.000178361
0.000179422
0.000180386
0.000181252
0.000182017
0.000182675
0.000183227
0.000183677
0.000184028
0.000184285
0.000184448
0.000184518
0.000184499
0.000184399
0.000184222
0.000183967
0.000183627
0.000183188
3.55619e-05
0.0001235
0.000145868
9.07833e-05
0.00011423
4.42519e-05
1.85589e-05
1.25929e-05
1.07791e-05
1.0526e-05
1.13681e-05
1.26275e-05
1.41225e-05
1.57816e-05
1.7586e-05
1.95507e-05
2.16995e-05
2.40595e-05
2.66534e-05
2.94847e-05
3.25478e-05
3.58327e-05
3.93264e-05
4.3017e-05
4.68929e-05
5.09391e-05
5.51355e-05
5.94569e-05
6.3883e-05
6.8405e-05
7.3018e-05
7.77114e-05
8.24666e-05
8.72606e-05
9.20709e-05
9.68776e-05
0.000101662
0.000106405
0.000111087
0.000115689
0.000120197
0.000124595
0.000128872
0.00013302
0.00013703
0.000140895
0.000144611
0.000148172
0.000151576
0.000154823
0.000157913
0.000160847
0.000163628
0.000166256
0.000168736