/*--------------------------------*- C++ -*----------------------------------*\
| =========                 |                                                 |
| \\      /  F ield         | OpenFOAM: The Open Source CFD Toolbox           |
|  \\    /   O peration     | Version:  2412                                  |
|   \\  /    A nd           | Website:  www.openfoam.com                      |
|    \\/     M anipulation  |                                                 |
\*---------------------------------------------------------------------------*/
FoamFile
{
    version     2.0;
    format      ascii;
    arch        "LSB;label=32;scalar=64";
    class       volScalarField;
    location    "420";
    object      nuTilda;
}
// * * * * * * * * * * * * * * * * * * * * * * * * * * * * * * * * * * * * * //

dimensions      [0 2 -1 0 0 0 0];

internalField   nonuniform List<scalar> 
8553
(
9.52251e-07
1.21206e-06
9.18068e-07
5.67998e-07
7.01188e-07
8.26203e-07
1.56755e-06
1.82706e-06
1.74245e-06
1.62022e-06
1.56914e-06
1.53792e-06
1.53386e-06
1.54543e-06
1.55814e-06
1.56029e-06
1.5551e-06
1.54371e-06
1.52914e-06
1.51726e-06
1.5101e-06
1.50605e-06
1.50405e-06
1.50172e-06
1.49817e-06
1.4939e-06
1.48952e-06
1.48579e-06
1.48276e-06
1.48017e-06
1.47771e-06
1.47536e-06
1.47322e-06
1.47131e-06
1.4697e-06
1.46839e-06
1.46732e-06
1.46643e-06
1.46575e-06
1.46534e-06
1.4651e-06
1.46506e-06
1.46518e-06
1.4655e-06
1.466e-06
1.46665e-06
1.46746e-06
1.46843e-06
1.46955e-06
1.47078e-06
1.47214e-06
1.47364e-06
1.47526e-06
1.47699e-06
1.47885e-06
1.4808e-06
1.48287e-06
1.48502e-06
1.48724e-06
1.48959e-06
1.49204e-06
1.49456e-06
1.4972e-06
1.49989e-06
1.50269e-06
1.50557e-06
1.5085e-06
1.51152e-06
1.51465e-06
1.51784e-06
1.5211e-06
1.52445e-06
1.52786e-06
1.53135e-06
1.53492e-06
1.53857e-06
1.54232e-06
1.54612e-06
1.31633e-06
1.31089e-06
1.30726e-06
1.31626e-06
1.34566e-06
1.39489e-06
1.49888e-06
1.57671e-06
1.41023e-06
8.40238e-07
6.27025e-07
4.56992e-07
5.45352e-07
1.09768e-06
1.29911e-06
2.93789e-06
3.61598e-06
2.86207e-06
1.7953e-06
2.13233e-06
2.5892e-06
4.86626e-06
5.59571e-06
5.36233e-06
5.02406e-06
4.87526e-06
4.78729e-06
4.77666e-06
4.81011e-06
4.84528e-06
4.85021e-06
4.83365e-06
4.79924e-06
4.75623e-06
4.72122e-06
4.69983e-06
4.68758e-06
4.68115e-06
4.67365e-06
4.66258e-06
4.64947e-06
4.63613e-06
4.62471e-06
4.61535e-06
4.6073e-06
4.59973e-06
4.59251e-06
4.58596e-06
4.58023e-06
4.57542e-06
4.57152e-06
4.56837e-06
4.56584e-06
4.56405e-06
4.563e-06
4.56258e-06
4.56282e-06
4.56362e-06
4.56501e-06
4.56699e-06
4.56949e-06
4.5725e-06
4.57602e-06
4.57997e-06
4.58437e-06
4.5892e-06
4.59446e-06
4.60015e-06
4.60617e-06
4.61256e-06
4.61932e-06
4.62642e-06
4.63382e-06
4.64148e-06
4.64951e-06
4.65785e-06
4.66647e-06
4.67539e-06
4.68456e-06
4.69405e-06
4.70376e-06
4.71369e-06
4.7239e-06
4.73438e-06
4.74511e-06
4.75605e-06
4.76726e-06
4.77865e-06
4.79028e-06
4.80215e-06
4.81425e-06
4.82663e-06
4.83918e-06
4.0852e-06
4.07054e-06
4.06049e-06
4.08663e-06
4.17164e-06
4.31583e-06
4.60812e-06
4.82484e-06
4.35849e-06
2.6746e-06
1.90836e-06
1.4309e-06
1.68405e-06
3.28122e-06
3.85506e-06
5.12642e-06
5.99899e-06
4.98573e-06
3.24335e-06
3.62247e-06
4.73648e-06
8.47248e-06
9.5736e-06
9.24125e-06
8.75275e-06
8.51994e-06
8.39055e-06
8.37671e-06
8.42746e-06
8.47712e-06
8.48097e-06
8.45125e-06
8.39444e-06
8.32593e-06
8.27025e-06
8.23559e-06
8.21521e-06
8.20338e-06
8.18967e-06
8.17039e-06
8.14801e-06
8.12551e-06
8.10611e-06
8.08998e-06
8.07599e-06
8.06294e-06
8.0506e-06
8.03946e-06
8.02986e-06
8.02194e-06
8.01557e-06
8.01057e-06
8.00681e-06
8.00438e-06
8.00327e-06
8.00339e-06
8.00476e-06
8.00723e-06
8.01078e-06
8.0154e-06
8.02103e-06
8.02763e-06
8.03516e-06
8.04356e-06
8.05283e-06
8.0629e-06
8.07374e-06
8.08537e-06
8.09769e-06
8.11068e-06
8.12435e-06
8.13867e-06
8.15358e-06
8.16901e-06
8.18507e-06
8.20173e-06
8.21894e-06
8.23665e-06
8.25484e-06
8.27358e-06
8.29276e-06
8.31236e-06
8.33246e-06
8.353e-06
8.37399e-06
8.39538e-06
8.41722e-06
8.4394e-06
8.46196e-06
8.48489e-06
8.5082e-06
8.53198e-06
8.55599e-06
7.12602e-06
7.10646e-06
7.09243e-06
7.13313e-06
7.26389e-06
7.49146e-06
7.92473e-06
8.24024e-06
7.54068e-06
4.90546e-06
3.24741e-06
2.55652e-06
3.00596e-06
5.43379e-06
6.35747e-06
7.64558e-06
8.31395e-06
7.209e-06
4.97181e-06
5.14828e-06
7.59643e-06
1.23084e-05
1.36961e-05
1.33407e-05
1.27881e-05
1.24947e-05
1.23455e-05
1.23313e-05
1.23908e-05
1.24435e-05
1.24416e-05
1.23977e-05
1.23215e-05
1.22334e-05
1.21617e-05
1.21158e-05
1.20876e-05
1.20692e-05
1.20481e-05
1.20201e-05
1.19884e-05
1.1957e-05
1.19297e-05
1.19066e-05
1.18865e-05
1.18678e-05
1.18504e-05
1.18348e-05
1.18217e-05
1.18111e-05
1.18028e-05
1.17967e-05
1.17926e-05
1.17906e-05
1.17907e-05
1.17928e-05
1.17968e-05
1.18027e-05
1.18103e-05
1.18196e-05
1.18306e-05
1.18431e-05
1.18572e-05
1.18727e-05
1.18896e-05
1.19078e-05
1.19273e-05
1.19479e-05
1.19697e-05
1.19927e-05
1.20167e-05
1.20417e-05
1.20677e-05
1.20946e-05
1.21224e-05
1.21512e-05
1.21808e-05
1.22112e-05
1.22425e-05
1.22745e-05
1.23072e-05
1.23406e-05
1.23748e-05
1.24095e-05
1.24449e-05
1.2481e-05
1.25177e-05
1.25548e-05
1.25925e-05
1.26306e-05
1.26692e-05
1.27085e-05
1.27479e-05
1.04169e-05
1.03986e-05
1.03849e-05
1.04368e-05
1.0598e-05
1.08889e-05
1.13986e-05
1.17533e-05
1.08808e-05
7.63494e-06
4.62577e-06
3.91468e-06
4.62619e-06
7.47394e-06
8.75846e-06
1.09165e-05
1.05564e-05
9.45842e-06
6.9772e-06
6.70862e-06
1.12566e-05
1.62752e-05
1.79284e-05
1.76444e-05
1.71157e-05
1.67907e-05
1.66437e-05
1.66291e-05
1.66853e-05
1.67285e-05
1.6717e-05
1.666e-05
1.65703e-05
1.6471e-05
1.63894e-05
1.63349e-05
1.62994e-05
1.62731e-05
1.62437e-05
1.6207e-05
1.61666e-05
1.6127e-05
1.60922e-05
1.60624e-05
1.60362e-05
1.60122e-05
1.59902e-05
1.5971e-05
1.59552e-05
1.59429e-05
1.5934e-05
1.59282e-05
1.59254e-05
1.59258e-05
1.59293e-05
1.59357e-05
1.5945e-05
1.59571e-05
1.59718e-05
1.59891e-05
1.60088e-05
1.6031e-05
1.60554e-05
1.6082e-05
1.61106e-05
1.61413e-05
1.61739e-05
1.62082e-05
1.62443e-05
1.62821e-05
1.63214e-05
1.63623e-05
1.64046e-05
1.64482e-05
1.64933e-05
1.65397e-05
1.65873e-05
1.6636e-05
1.6686e-05
1.6737e-05
1.67891e-05
1.68421e-05
1.6896e-05
1.69508e-05
1.70065e-05
1.7063e-05
1.71203e-05
1.71781e-05
1.72366e-05
1.72955e-05
1.7355e-05
1.74151e-05
1.74753e-05
1.39321e-05
1.39215e-05
1.39141e-05
1.39749e-05
1.41497e-05
1.4479e-05
1.49973e-05
1.53194e-05
1.42967e-05
1.08614e-05
6.04689e-06
5.56588e-06
6.63139e-06
9.43633e-06
1.11909e-05
1.49564e-05
1.27455e-05
1.16839e-05
9.14406e-06
8.33241e-06
1.56372e-05
2.0275e-05
2.22578e-05
2.21489e-05
2.17193e-05
2.13926e-05
2.1264e-05
2.12441e-05
2.12832e-05
2.13067e-05
2.12843e-05
2.12184e-05
2.1124e-05
2.10237e-05
2.09391e-05
2.08791e-05
2.0837e-05
2.08019e-05
2.07637e-05
2.0719e-05
2.06711e-05
2.06247e-05
2.05834e-05
2.05478e-05
2.05163e-05
2.04879e-05
2.04626e-05
2.04412e-05
2.04244e-05
2.04124e-05
2.0405e-05
2.04021e-05
2.04035e-05
2.04094e-05
2.04196e-05
2.0434e-05
2.04526e-05
2.04751e-05
2.05015e-05
2.05315e-05
2.05651e-05
2.06022e-05
2.06424e-05
2.06858e-05
2.07322e-05
2.07814e-05
2.08334e-05
2.0888e-05
2.0945e-05
2.10044e-05
2.1066e-05
2.11297e-05
2.11955e-05
2.12632e-05
2.13328e-05
2.14043e-05
2.14774e-05
2.15521e-05
2.16284e-05
2.17061e-05
2.17851e-05
2.18654e-05
2.19469e-05
2.20294e-05
2.2113e-05
2.21975e-05
2.22828e-05
2.23688e-05
2.24552e-05
2.25422e-05
2.26296e-05
2.27174e-05
2.2805e-05
1.76406e-05
1.76429e-05
1.76486e-05
1.77179e-05
1.78915e-05
1.82332e-05
1.86995e-05
1.89123e-05
1.77115e-05
1.44497e-05
7.58353e-06
7.57077e-06
9.0836e-06
1.14212e-05
1.46363e-05
1.97742e-05
1.49212e-05
1.38698e-05
1.1396e-05
1.04379e-05
2.03464e-05
2.42209e-05
2.66885e-05
2.68549e-05
2.65741e-05
2.62709e-05
2.61665e-05
2.6132e-05
2.61414e-05
2.61402e-05
2.61097e-05
2.60428e-05
2.59551e-05
2.58645e-05
2.57839e-05
2.57216e-05
2.56734e-05
2.56294e-05
2.55832e-05
2.55321e-05
2.54789e-05
2.5428e-05
2.53822e-05
2.53422e-05
2.53071e-05
2.52763e-05
2.525e-05
2.52291e-05
2.52144e-05
2.52059e-05
2.52036e-05
2.52075e-05
2.52173e-05
2.52333e-05
2.52552e-05
2.52831e-05
2.53166e-05
2.53557e-05
2.54e-05
2.54495e-05
2.55039e-05
2.5563e-05
2.56267e-05
2.56946e-05
2.57667e-05
2.58427e-05
2.59225e-05
2.60058e-05
2.60925e-05
2.61824e-05
2.62753e-05
2.63711e-05
2.64697e-05
2.65708e-05
2.66745e-05
2.67806e-05
2.68888e-05
2.69991e-05
2.71113e-05
2.72254e-05
2.73411e-05
2.74582e-05
2.75767e-05
2.76965e-05
2.78173e-05
2.79391e-05
2.80617e-05
2.81847e-05
2.83081e-05
2.84317e-05
2.85554e-05
2.8679e-05
2.88018e-05
2.1505e-05
2.15227e-05
2.15476e-05
2.16275e-05
2.17903e-05
2.21211e-05
2.249e-05
2.25198e-05
2.10573e-05
1.8208e-05
9.69561e-06
9.95555e-06
1.20682e-05
1.36021e-05
1.9114e-05
2.52998e-05
1.80003e-05
1.6048e-05
1.36609e-05
1.32646e-05
2.51195e-05
2.81204e-05
3.1233e-05
3.17539e-05
3.164e-05
3.13754e-05
3.12892e-05
3.12293e-05
3.12019e-05
3.11777e-05
3.11468e-05
3.10902e-05
3.10217e-05
3.09506e-05
3.08799e-05
3.08181e-05
3.0765e-05
3.07132e-05
3.0661e-05
3.06065e-05
3.05515e-05
3.04993e-05
3.04519e-05
3.04103e-05
3.03745e-05
3.03447e-05
3.03213e-05
3.03051e-05
3.02969e-05
3.02968e-05
3.03049e-05
3.03213e-05
3.03457e-05
3.03783e-05
3.0419e-05
3.04676e-05
3.05238e-05
3.05874e-05
3.06582e-05
3.07358e-05
3.082e-05
3.09105e-05
3.10071e-05
3.11094e-05
3.12172e-05
3.13303e-05
3.14482e-05
3.15709e-05
3.1698e-05
3.18293e-05
3.19645e-05
3.21035e-05
3.2246e-05
3.23918e-05
3.25409e-05
3.26928e-05
3.28475e-05
3.30046e-05
3.31641e-05
3.33258e-05
3.34893e-05
3.36545e-05
3.3821e-05
3.39888e-05
3.41577e-05
3.43273e-05
3.44975e-05
3.46678e-05
3.48379e-05
3.50077e-05
3.5177e-05
3.53456e-05
3.55122e-05
2.5482e-05
2.55134e-05
2.55614e-05
2.56557e-05
2.58046e-05
2.61069e-05
2.63539e-05
2.61399e-05
2.4307e-05
2.19905e-05
1.24559e-05
1.25274e-05
1.54424e-05
1.66203e-05
2.45557e-05
3.146e-05
2.21377e-05
1.82623e-05
1.59024e-05
1.69234e-05
2.98313e-05
3.20512e-05
3.59002e-05
3.68142e-05
3.68551e-05
3.66323e-05
3.65513e-05
3.64584e-05
3.63946e-05
3.63566e-05
3.63368e-05
3.63031e-05
3.62652e-05
3.62211e-05
3.61645e-05
3.61058e-05
3.60496e-05
3.59926e-05
3.59383e-05
3.58848e-05
3.58325e-05
3.57833e-05
3.57384e-05
3.56996e-05
3.56679e-05
3.56442e-05
3.56293e-05
3.5624e-05
3.56287e-05
3.56439e-05
3.56698e-05
3.57065e-05
3.57538e-05
3.58118e-05
3.58803e-05
3.5959e-05
3.60477e-05
3.61459e-05
3.62534e-05
3.63698e-05
3.64948e-05
3.66279e-05
3.67687e-05
3.69169e-05
3.70722e-05
3.7234e-05
3.74022e-05
3.75762e-05
3.77558e-05
3.79406e-05
3.81304e-05
3.83248e-05
3.85234e-05
3.87261e-05
3.89326e-05
3.91426e-05
3.93557e-05
3.95717e-05
3.97902e-05
4.00112e-05
4.0234e-05
4.04585e-05
4.06843e-05
4.09112e-05
4.11388e-05
4.13668e-05
4.15948e-05
4.18223e-05
4.2049e-05
4.22745e-05
4.24985e-05
4.27206e-05
4.29393e-05
2.95231e-05
2.9562e-05
2.96331e-05
2.9745e-05
2.98824e-05
3.01461e-05
3.0268e-05
2.97751e-05
2.75127e-05
2.57206e-05
1.5926e-05
1.50029e-05
1.88794e-05
2.04434e-05
3.09283e-05
3.81763e-05
2.71803e-05
2.05526e-05
1.81419e-05
2.15091e-05
3.44446e-05
3.60929e-05
4.06788e-05
4.19719e-05
4.21351e-05
4.19484e-05
4.18597e-05
4.17329e-05
4.16417e-05
4.16044e-05
4.1609e-05
4.16105e-05
4.16117e-05
4.15986e-05
4.15586e-05
4.15055e-05
4.14492e-05
4.13916e-05
4.13404e-05
4.12936e-05
4.12495e-05
4.12089e-05
4.11722e-05
4.11424e-05
4.11215e-05
4.11113e-05
4.11129e-05
4.11266e-05
4.11531e-05
4.11929e-05
4.12463e-05
4.13134e-05
4.13941e-05
4.14884e-05
4.15959e-05
4.17162e-05
4.1849e-05
4.19939e-05
4.21503e-05
4.23178e-05
4.24958e-05
4.2684e-05
4.28817e-05
4.30885e-05
4.33038e-05
4.35271e-05
4.3758e-05
4.39959e-05
4.42405e-05
4.44913e-05
4.47478e-05
4.50097e-05
4.52765e-05
4.55479e-05
4.58234e-05
4.61028e-05
4.63855e-05
4.66712e-05
4.69596e-05
4.72501e-05
4.75425e-05
4.78361e-05
4.81307e-05
4.84258e-05
4.8721e-05
4.90158e-05
4.93099e-05
4.96024e-05
4.9893e-05
5.01813e-05
5.04667e-05
5.07485e-05
5.10252e-05
3.36109e-05
3.37004e-05
3.38302e-05
3.39613e-05
3.41835e-05
3.41939e-05
3.34227e-05
3.07445e-05
2.93486e-05
2.01954e-05
1.73e-05
2.22544e-05
2.51152e-05
3.82327e-05
4.53673e-05
3.30433e-05
2.31454e-05
2.03415e-05
2.7185e-05
3.89402e-05
4.03203e-05
4.55242e-05
4.71324e-05
4.73783e-05
4.72195e-05
4.71162e-05
4.6963e-05
4.68603e-05
4.68411e-05
4.68832e-05
4.6929e-05
4.69739e-05
4.69932e-05
4.69713e-05
4.69267e-05
4.68748e-05
4.68228e-05
4.67815e-05
4.67481e-05
4.67193e-05
4.66943e-05
4.66735e-05
4.6661e-05
4.66602e-05
4.66735e-05
4.67018e-05
4.67456e-05
4.68053e-05
4.68815e-05
4.69746e-05
4.70848e-05
4.72118e-05
4.73555e-05
4.75152e-05
4.76905e-05
4.7881e-05
4.8086e-05
4.83049e-05
4.8537e-05
4.87817e-05
4.90383e-05
4.93062e-05
4.95846e-05
4.98729e-05
5.01704e-05
5.04765e-05
5.07906e-05
5.11122e-05
5.14406e-05
5.17753e-05
5.21157e-05
5.24613e-05
5.28117e-05
5.31663e-05
5.35246e-05
5.38861e-05
5.42504e-05
5.46168e-05
5.49849e-05
5.53541e-05
5.57239e-05
5.60937e-05
5.6463e-05
5.68314e-05
5.71983e-05
5.7563e-05
5.79247e-05
5.8283e-05
5.86373e-05
5.89869e-05
5.93308e-05
5.96674e-05
5.98924e-05
6.02244e-05
6.05513e-05
3.75984e-05
3.76978e-05
3.78413e-05
3.79697e-05
3.81519e-05
3.80737e-05
3.70641e-05
3.40592e-05
3.28435e-05
2.54325e-05
1.99366e-05
2.55721e-05
3.0691e-05
4.64918e-05
5.29394e-05
3.96847e-05
2.6767e-05
2.24308e-05
3.39163e-05
4.33113e-05
4.47691e-05
5.03562e-05
5.21785e-05
5.24737e-05
5.23377e-05
5.2222e-05
5.20583e-05
5.19648e-05
5.1981e-05
5.20708e-05
5.21665e-05
5.22558e-05
5.23069e-05
5.23048e-05
5.22728e-05
5.22316e-05
5.21934e-05
5.21704e-05
5.21588e-05
5.21538e-05
5.21535e-05
5.21588e-05
5.2175e-05
5.22063e-05
5.22558e-05
5.23243e-05
5.2412e-05
5.25192e-05
5.26465e-05
5.27943e-05
5.29628e-05
5.31515e-05
5.33598e-05
5.35871e-05
5.38326e-05
5.40958e-05
5.43759e-05
5.4672e-05
5.49832e-05
5.53087e-05
5.56477e-05
5.59993e-05
5.63625e-05
5.67367e-05
5.71208e-05
5.75142e-05
5.79161e-05
5.83257e-05
5.87424e-05
5.91654e-05
5.9594e-05
6.00277e-05
6.04657e-05
6.09075e-05
6.13523e-05
6.17996e-05
6.22488e-05
6.26992e-05
6.31502e-05
6.36011e-05
6.40512e-05
6.44999e-05
6.49467e-05
6.53909e-05
6.58318e-05
6.62686e-05
6.67006e-05
6.71271e-05
6.75474e-05
6.79607e-05
6.83659e-05
6.87611e-05
6.90808e-05
6.94681e-05
6.98481e-05
4.14629e-05
4.15589e-05
4.17061e-05
4.18308e-05
4.19756e-05
4.18322e-05
4.06556e-05
3.7427e-05
3.61828e-05
3.09838e-05
2.27087e-05
2.88788e-05
3.72775e-05
5.57742e-05
6.07816e-05
4.71036e-05
3.13918e-05
2.49209e-05
4.04287e-05
4.756e-05
4.93912e-05
5.5066e-05
5.69845e-05
5.73084e-05
5.71977e-05
5.70823e-05
5.69299e-05
5.68678e-05
5.69344e-05
5.70782e-05
5.72251e-05
5.73572e-05
5.74392e-05
5.74596e-05
5.74466e-05
5.7425e-05
5.74107e-05
5.74165e-05
5.74373e-05
5.7467e-05
5.75035e-05
5.75484e-05
5.76078e-05
5.76869e-05
5.77888e-05
5.79142e-05
5.80629e-05
5.82351e-05
5.84312e-05
5.86516e-05
5.88963e-05
5.91641e-05
5.94544e-05
5.97663e-05
6.0099e-05
6.04515e-05
6.08227e-05
6.12117e-05
6.16173e-05
6.20385e-05
6.24742e-05
6.29232e-05
6.33845e-05
6.38571e-05
6.434e-05
6.48321e-05
6.53327e-05
6.58408e-05
6.63555e-05
6.6876e-05
6.74014e-05
6.7931e-05
6.84639e-05
6.89995e-05
6.9537e-05
7.00756e-05
7.06146e-05
7.11532e-05
7.16907e-05
7.22263e-05
7.27592e-05
7.32888e-05
7.38143e-05
7.43349e-05
7.485e-05
7.53587e-05
7.586e-05
7.63533e-05
7.68378e-05
7.73124e-05
7.77761e-05
7.82266e-05
7.86217e-05
7.90607e-05
7.94897e-05
4.51432e-05
4.52191e-05
4.53546e-05
4.54679e-05
4.55747e-05
4.53844e-05
4.41276e-05
4.07972e-05
3.93482e-05
3.61289e-05
2.54155e-05
3.22591e-05
4.50111e-05
6.61805e-05
6.8788e-05
5.53217e-05
3.70009e-05
2.84422e-05
4.65283e-05
5.16769e-05
5.40236e-05
5.9527e-05
6.14267e-05
6.17751e-05
6.17021e-05
6.16081e-05
6.14925e-05
6.14825e-05
6.16096e-05
6.18091e-05
6.20058e-05
6.21782e-05
6.22919e-05
6.23404e-05
6.23558e-05
6.23658e-05
6.23886e-05
6.24363e-05
6.2503e-05
6.2582e-05
6.26713e-05
6.2773e-05
6.28943e-05
6.30408e-05
6.32152e-05
6.34179e-05
6.36483e-05
6.39062e-05
6.41919e-05
6.45057e-05
6.48465e-05
6.52134e-05
6.56051e-05
6.60205e-05
6.64587e-05
6.69182e-05
6.73979e-05
6.78964e-05
6.84124e-05
6.89445e-05
6.94915e-05
7.00519e-05
7.06246e-05
7.12083e-05
7.18018e-05
7.24041e-05
7.3014e-05
7.36304e-05
7.42523e-05
7.48788e-05
7.55089e-05
7.61416e-05
7.67761e-05
7.74115e-05
7.80468e-05
7.86813e-05
7.9314e-05
7.99442e-05
8.05709e-05
8.11933e-05
8.18105e-05
8.24217e-05
8.30261e-05
8.36229e-05
8.42114e-05
8.47904e-05
8.53591e-05
8.59167e-05
8.64623e-05
8.69949e-05
8.75131e-05
8.80148e-05
8.84722e-05
8.8958e-05
8.94307e-05
4.85807e-05
4.86186e-05
4.87233e-05
4.88106e-05
4.88737e-05
4.86467e-05
4.73928e-05
4.40958e-05
4.2346e-05
4.06807e-05
2.89733e-05
3.69411e-05
5.40753e-05
7.78016e-05
7.68366e-05
6.43927e-05
4.36494e-05
3.31696e-05
5.20897e-05
5.56245e-05
5.85019e-05
6.3606e-05
6.53919e-05
6.57758e-05
6.57625e-05
6.5717e-05
6.56636e-05
6.57218e-05
6.59145e-05
6.61677e-05
6.64118e-05
6.66242e-05
6.67741e-05
6.68606e-05
6.69181e-05
6.69756e-05
6.70524e-05
6.71592e-05
6.72896e-05
6.7437e-05
6.75995e-05
6.77805e-05
6.79871e-05
6.82248e-05
6.8496e-05
6.88002e-05
6.91364e-05
6.95042e-05
6.99035e-05
7.03335e-05
7.0793e-05
7.12806e-05
7.17949e-05
7.23344e-05
7.28977e-05
7.34834e-05
7.40897e-05
7.47152e-05
7.53581e-05
7.6017e-05
7.66903e-05
7.73765e-05
7.80741e-05
7.87817e-05
7.94979e-05
8.02214e-05
8.09511e-05
8.16856e-05
8.24239e-05
8.31647e-05
8.3907e-05
8.46497e-05
8.53918e-05
8.61324e-05
8.68703e-05
8.76046e-05
8.83344e-05
8.90587e-05
8.97766e-05
9.0487e-05
9.1189e-05
9.18817e-05
9.25644e-05
9.32361e-05
9.3896e-05
9.45429e-05
9.51758e-05
9.5794e-05
9.63966e-05
9.69823e-05
9.75498e-05
9.80971e-05
9.86067e-05
9.91327e-05
9.96421e-05
5.17241e-05
5.17066e-05
5.176e-05
5.18012e-05
5.18096e-05
5.15481e-05
5.03622e-05
4.7231e-05
4.5173e-05
4.46243e-05
3.34728e-05
4.29032e-05
6.46839e-05
9.07366e-05
8.47937e-05
7.44133e-05
5.15317e-05
3.93308e-05
5.70073e-05
5.93335e-05
6.26531e-05
6.71735e-05
6.87812e-05
6.92235e-05
6.92986e-05
6.93306e-05
6.93618e-05
6.94988e-05
6.97581e-05
7.00619e-05
7.03534e-05
7.061e-05
7.08065e-05
7.09469e-05
7.10657e-05
7.11916e-05
7.13441e-05
7.15323e-05
7.17496e-05
7.19901e-05
7.22524e-05
7.25401e-05
7.28603e-05
7.32178e-05
7.36141e-05
7.40479e-05
7.45176e-05
7.50224e-05
7.55611e-05
7.61325e-05
7.6735e-05
7.7367e-05
7.80265e-05
7.87118e-05
7.94212e-05
8.01528e-05
8.09048e-05
8.16753e-05
8.24625e-05
8.32645e-05
8.40796e-05
8.49061e-05
8.57423e-05
8.65866e-05
8.74375e-05
8.82936e-05
8.91535e-05
9.00157e-05
9.0879e-05
9.1742e-05
9.26036e-05
9.34626e-05
9.43179e-05
9.51682e-05
9.60125e-05
9.68498e-05
9.76789e-05
9.84988e-05
9.93085e-05
0.000100107
0.000100893
0.000101666
0.000102424
0.000103168
0.000103896
0.000104606
0.000105299
0.000105972
0.000106625
0.000107257
0.000107867
0.000108453
0.000109004
0.000109562
0.000110098
5.45348e-05
5.44459e-05
5.44293e-05
5.44016e-05
5.43418e-05
5.40425e-05
5.29626e-05
5.0106e-05
4.78106e-05
4.79892e-05
3.90121e-05
5.02251e-05
7.71967e-05
0.000105102
9.25169e-05
8.55425e-05
6.10024e-05
4.71576e-05
6.13075e-05
6.2718e-05
6.62745e-05
7.01125e-05
7.15118e-05
7.20406e-05
7.22362e-05
7.23727e-05
7.25062e-05
7.27281e-05
7.3054e-05
7.34078e-05
7.37525e-05
7.4065e-05
7.43266e-05
7.4544e-05
7.47497e-05
7.49715e-05
7.52275e-05
7.55255e-05
7.58596e-05
7.62243e-05
7.66185e-05
7.7046e-05
7.75129e-05
7.80229e-05
7.85762e-05
7.91708e-05
7.98044e-05
8.04752e-05
8.1181e-05
8.19205e-05
8.26918e-05
8.34928e-05
8.43211e-05
8.51748e-05
8.60517e-05
8.69499e-05
8.7867e-05
8.8801e-05
8.97498e-05
9.07114e-05
9.16839e-05
9.26653e-05
9.36537e-05
9.46475e-05
9.56449e-05
9.66443e-05
9.76441e-05
9.86429e-05
9.96392e-05
0.000100631
0.000101618
0.000102599
0.000103571
0.000104534
0.000105487
0.000106429
0.000107358
0.000108273
0.000109173
0.000110057
0.000110924
0.000111773
0.000112603
0.000113414
0.000114203
0.00011497
0.000115714
0.000116435
0.00011713
0.000117799
0.000118441
0.000119055
0.000119635
0.000120213
0.000120766
5.68178e-05
5.67193e-05
5.66005e-05
5.6463e-05
5.61225e-05
5.51565e-05
5.26357e-05
5.02142e-05
5.08178e-05
4.45378e-05
5.90257e-05
9.21696e-05
0.000120868
9.98524e-05
9.80244e-05
7.1966e-05
5.47956e-05
6.49813e-05
6.55957e-05
6.91435e-05
7.23217e-05
7.35162e-05
7.41593e-05
7.45058e-05
7.47696e-05
7.5019e-05
7.53299e-05
7.57235e-05
7.61375e-05
7.65502e-05
7.69406e-05
7.72949e-05
7.76208e-05
7.79469e-05
7.82987e-05
7.86931e-05
7.91365e-05
7.96238e-05
8.01501e-05
8.07141e-05
8.13191e-05
8.19696e-05
8.26678e-05
8.34127e-05
8.42013e-05
8.50304e-05
8.58966e-05
8.67981e-05
8.77332e-05
8.86996e-05
8.96946e-05
9.07156e-05
9.17604e-05
9.28265e-05
9.39116e-05
9.50132e-05
9.6129e-05
9.72568e-05
9.83942e-05
9.9539e-05
0.000100689
0.000101843
0.000102998
0.000104153
0.000105305
0.000106453
0.000107596
0.000108731
0.000109858
0.000110974
0.000112079
0.00011317
0.000114247
0.000115308
0.000116352
0.000117379
0.000118385
0.000119371
0.000120336
0.000121277
0.000122195
0.000123089
0.000123957
0.000124799
0.000125612
0.000126397
0.000127153
0.000127878
0.000128572
0.000129233
0.000129861
0.000130456
0.00013104
0.000131592
5.84225e-05
5.82139e-05
5.78358e-05
5.69621e-05
5.47674e-05
5.22847e-05
5.31379e-05
4.95862e-05
6.95347e-05
0.000108004
0.000134874
0.000106671
0.000112034
8.2502e-05
6.17021e-05
6.79736e-05
6.78576e-05
7.12083e-05
7.37188e-05
7.47409e-05
7.55239e-05
7.60457e-05
7.64558e-05
7.68336e-05
7.7242e-05
7.7714e-05
7.82094e-05
7.8717e-05
7.92184e-05
7.97033e-05
8.01779e-05
8.06655e-05
8.1189e-05
8.17635e-05
8.23945e-05
8.30775e-05
8.38077e-05
8.45835e-05
8.54064e-05
8.62795e-05
8.72031e-05
8.81749e-05
8.91909e-05
9.02457e-05
9.13368e-05
9.24624e-05
9.36203e-05
9.48075e-05
9.60211e-05
9.72582e-05
9.85162e-05
9.97925e-05
0.000101084
0.000102389
0.000103704
0.000105027
0.000106355
0.000107686
0.000109018
0.000110348
0.000111674
0.000112995
0.000114307
0.00011561
0.000116902
0.000118179
0.000119442
0.000120688
0.000121916
0.000123125
0.000124312
0.000125477
0.000126619
0.000127735
0.000128826
0.000129889
0.000130924
0.00013193
0.000132906
0.000133851
0.000134764
0.000135644
0.000136489
0.0001373
0.000138075
0.000138814
0.000139515
0.000140179
0.000140805
0.000141396
0.000141967
0.000142501
5.99838e-05
5.97058e-05
5.9304e-05
5.8475e-05
5.65156e-05
5.40178e-05
5.49502e-05
5.39739e-05
7.93757e-05
0.000122755
0.000146826
0.000112855
0.000123975
9.18001e-05
6.73033e-05
7.02401e-05
6.95208e-05
7.24182e-05
7.42542e-05
7.51571e-05
7.60992e-05
7.68113e-05
7.73864e-05
7.79079e-05
7.84343e-05
7.90097e-05
7.96213e-05
8.02637e-05
8.09208e-05
8.15834e-05
8.22544e-05
8.29516e-05
8.36945e-05
8.44965e-05
8.5362e-05
8.62869e-05
8.7266e-05
8.82964e-05
8.93782e-05
9.05122e-05
9.16973e-05
9.29297e-05
9.42028e-05
9.55128e-05
9.68571e-05
9.82338e-05
9.964e-05
0.000101072
0.000102528
0.000104003
0.000105495
0.000107001
0.000108518
0.000110043
0.000111573
0.000113105
0.000114637
0.000116166
0.000117689
0.000119204
0.000120708
0.0001222
0.000123676
0.000125136
0.000126576
0.000127995
0.000129391
0.000130763
0.000132109
0.000133428
0.000134718
0.000135977
0.000137205
0.000138401
0.000139562
0.000140689
0.000141779
0.000142834
0.000143851
0.00014483
0.00014577
0.00014667
0.000147529
0.000148346
0.000149121
0.000149853
0.000150541
0.000151185
0.000151788
0.000152353
0.00015289
0.000153382
6.14278e-05
6.11247e-05
6.07356e-05
5.98867e-05
5.80125e-05
5.55023e-05
5.63432e-05
5.7557e-05
8.73093e-05
0.00013623
0.000157049
0.00011833
0.000134147
9.8982e-05
7.17609e-05
7.17608e-05
7.05576e-05
7.27245e-05
7.39245e-05
7.47676e-05
7.58803e-05
7.67959e-05
7.75582e-05
7.82476e-05
7.89266e-05
7.96467e-05
8.04229e-05
8.12519e-05
8.21182e-05
8.30122e-05
8.39325e-05
8.48912e-05
8.59046e-05
8.69837e-05
8.8132e-05
8.9345e-05
9.06166e-05
9.19426e-05
9.3321e-05
9.47509e-05
9.62296e-05
9.77501e-05
9.93081e-05
0.0001009
0.000102523
0.000104175
0.000105853
0.000107553
0.000109271
0.000111004
0.000112749
0.000114502
0.000116259
0.000118019
0.000119776
0.000121529
0.000123274
0.000125008
0.000126729
0.000128432
0.000130117
0.00013178
0.000133418
0.000135031
0.000136615
0.000138168
0.000139689
0.000141177
0.000142629
0.000144045
0.000145422
0.000146761
0.000148058
0.000149314
0.000150528
0.000151698
0.000152823
0.000153905
0.000154942
0.000155934
0.000156878
0.000157774
0.000158622
0.000159421
0.000160171
0.000160871
0.000161521
0.000162121
0.000162676
0.000163189
0.000163666
0.000164093
6.30036e-05
6.27644e-05
6.24407e-05
6.14934e-05
5.94259e-05
5.68849e-05
5.7446e-05
6.03414e-05
9.26701e-05
0.000148087
0.000165704
0.000122997
0.000142727
0.000103871
7.4964e-05
7.25133e-05
7.08882e-05
7.21186e-05
7.27862e-05
7.36331e-05
7.49244e-05
7.60575e-05
7.70317e-05
7.79253e-05
7.88038e-05
7.97256e-05
8.0725e-05
8.17991e-05
8.29323e-05
8.4113e-05
8.5336e-05
8.66076e-05
8.79409e-05
8.93444e-05
9.08202e-05
9.23628e-05
9.39652e-05
9.56213e-05
9.73277e-05
9.90819e-05
0.000100877
0.00010271
0.000104577
0.000106474
0.000108398
0.000110347
0.000112317
0.000114304
0.000116303
0.000118311
0.000120323
0.000122337
0.000124347
0.000126351
0.000128345
0.000130324
0.000132287
0.000134228
0.000136145
0.000138035
0.000139895
0.000141722
0.000143514
0.000145268
0.000146983
0.000148656
0.000150285
0.000151871
0.00015341
0.000154902
0.000156346
0.000157739
0.000159083
0.000160374
0.000161614
0.000162801
0.000163936
0.000165019
0.000166048
0.000167024
0.000167945
0.000168809
0.000169617
0.000170369
0.000171065
0.000171704
0.000172287
0.000172816
0.000173295
0.000173727
0.000174116
0.000174447
6.37836e-05
6.13694e-05
5.85364e-05
5.84435e-05
6.23584e-05
9.5298e-05
0.000157966
0.000172612
0.000126024
0.000149746
0.000106322
7.69014e-05
7.24371e-05
7.04293e-05
7.06728e-05
7.09754e-05
7.18964e-05
7.33726e-05
7.4736e-05
7.59528e-05
7.70955e-05
7.8229e-05
7.94163e-05
8.06998e-05
8.20769e-05
8.35312e-05
8.50492e-05
8.66218e-05
8.8251e-05
8.99463e-05
9.17134e-05
9.35524e-05
9.5457e-05
9.74185e-05
9.94298e-05
0.000101486
0.000103581
0.000105713
0.000107878
0.000110074
0.000112295
0.000114539
0.000116803
0.000119082
0.000121371
0.000123665
0.00012596
0.000128251
0.000130533
0.000132803
0.000135056
0.000137287
0.000139492
0.000141668
0.00014381
0.000145915
0.00014798
0.000150001
0.000151977
0.000153903
0.000155779
0.000157602
0.000159371
0.000161083
0.00016274
0.000164338
0.000165878
0.000167357
0.000168776
0.000170133
0.000171428
0.000172662
0.000173834
0.000174946
0.000175997
0.000176987
0.000177915
0.000178779
0.000179578
0.000180313
0.000180986
0.000181596
0.000182142
0.000182626
0.000183052
0.000183423
0.000183744
0.000184014
0.000184218
6.93738e-05
6.60069e-05
6.12402e-05
5.96293e-05
6.37924e-05
9.53779e-05
0.000165153
0.00017716
0.00012753
0.000155111
0.000106297
7.7581e-05
7.1515e-05
6.91445e-05
6.85631e-05
6.87311e-05
6.98039e-05
7.14695e-05
7.30735e-05
7.45635e-05
7.59992e-05
7.7442e-05
7.89525e-05
8.0573e-05
8.23003e-05
8.41177e-05
8.60103e-05
8.79665e-05
8.99845e-05
9.20701e-05
9.42263e-05
9.6451e-05
9.87363e-05
0.000101073
0.000103453
0.000105868
0.000108316
0.000110798
0.000113312
0.000115851
0.000118411
0.00012099
0.000123582
0.000126182
0.000128784
0.000131382
0.00013397
0.000136543
0.000139096
0.000141623
0.00014412
0.000146581
0.000149001
0.000151376
0.000153702
0.000155974
0.000158191
0.000160348
0.000162444
0.000164475
0.000166441
0.000168339
0.000170169
0.00017193
0.000173621
0.000175241
0.00017679
0.000178267
0.000179672
0.000181004
0.000182265
0.000183454
0.000184573
0.000185624
0.000186608
0.000187522
0.000188365
0.000189135
0.000189832
0.000190459
0.000191017
0.000191505
0.000191924
0.000192276
0.000192565
0.000192796
0.000192972
0.00019309
0.000193135
7.82456e-05
7.37795e-05
6.61863e-05
6.17654e-05
6.4969e-05
9.42696e-05
0.000167774
0.000179461
0.000129797
0.000157503
0.000104739
7.70943e-05
6.98942e-05
6.71481e-05
6.61041e-05
6.64057e-05
6.7712e-05
6.95641e-05
7.14107e-05
7.31926e-05
7.49533e-05
7.67439e-05
7.86162e-05
8.06065e-05
8.27105e-05
8.49121e-05
8.7196e-05
8.95497e-05
9.19685e-05
9.44546e-05
9.70078e-05
9.96238e-05
0.000102294
0.000105007
0.000107756
0.000110532
0.000113342
0.000116185
0.000119057
0.000121951
0.000124861
0.000127783
0.000130711
0.000133638
0.000136556
0.000139458
0.000142337
0.000145186
0.000147999
0.00015077
0.000153492
0.000156161
0.00015877
0.000161315
0.000163793
0.000166198
0.000168529
0.000170783
0.000172958
0.000175052
0.000177063
0.000178992
0.000180838
0.000182601
0.000184281
0.000185877
0.00018739
0.000188818
0.000190163
0.000191426
0.000192606
0.000193707
0.000194732
0.000195682
0.000196557
0.000197355
0.000198073
0.00019871
0.000199267
0.000199748
0.000200153
0.000200483
0.000200739
0.000200924
0.000201043
0.000201101
0.000201098
0.00020103
0.000200884
9.25864e-05
0.000165354
0.000179363
0.000132227
0.000156441
0.000102023
7.56005e-05
6.77318e-05
6.4742e-05
6.37267e-05
6.4444e-05
6.60555e-05
6.80836e-05
7.01602e-05
7.22309e-05
7.43222e-05
7.64703e-05
7.8713e-05
8.10762e-05
8.35548e-05
8.61344e-05
8.88008e-05
9.15417e-05
9.43507e-05
9.72265e-05
0.000100166
0.000103162
0.000106205
0.000109285
0.000112392
0.000115532
0.000118709
0.000121919
0.000125155
0.000128408
0.000131672
0.000134939
0.000138202
0.000141451
0.000144676
0.000147869
0.000151021
0.000154123
0.000157169
0.000160152
0.000163065
0.000165901
0.000168656
0.000171325
0.000173904
0.000176391
0.000178783
0.000181078
0.000183276
0.000185375
0.000187377
0.00018928
0.000191086
0.000192797
0.00019441
0.000195928
0.000197351
0.000198678
0.000199912
0.000201054
0.000202106
0.000203073
0.000203958
0.000204764
0.000205489
0.00020613
0.000206682
0.000207145
0.000207523
0.000207818
0.000208034
0.000208171
0.00020823
0.000208214
0.00020813
0.000207981
0.000207767
0.000207481
0.000207112
9.07572e-05
0.000159088
0.000176598
0.000134284
0.000151983
9.83024e-05
7.32801e-05
6.52319e-05
6.23577e-05
6.19342e-05
6.33208e-05
6.52842e-05
6.7471e-05
6.97477e-05
7.20775e-05
7.44721e-05
7.69519e-05
7.95379e-05
8.22439e-05
8.50643e-05
8.79874e-05
9.10015e-05
9.40956e-05
9.72625e-05
0.000100497
0.000103794
0.000107145
0.000110536
0.000113963
0.000117425
0.000120927
0.000124469
0.000128045
0.000131642
0.00013525
0.000138859
0.00014246
0.000146041
0.000149591
0.000153097
0.000156547
0.000159933
0.000163244
0.000166474
0.000169614
0.000172657
0.000175599
0.000178434
0.000181158
0.000183769
0.000186265
0.000188646
0.000190912
0.000193063
0.0001951