/*--------------------------------*- C++ -*----------------------------------*\
| =========                 |                                                 |
| \\      /  F ield         | OpenFOAM: The Open Source CFD Toolbox           |
|  \\    /   O peration     | Version:  2412                                  |
|   \\  /    A nd           | Website:  www.openfoam.com                      |
|    \\/     M anipulation  |                                                 |
\*---------------------------------------------------------------------------*/
FoamFile
{
    version     2.0;
    format      ascii;
    arch        "LSB;label=32;scalar=64";
    class       surfaceScalarField;
    location    "420";
    object      phi;
}
// * * * * * * * * * * * * * * * * * * * * * * * * * * * * * * * * * * * * * //

dimensions      [0 3 -1 0 0 0 0];

oriented        oriented;

internalField   nonuniform List<scalar> 
16910
(
1.96806e-06
1.24218e-06
-3.21024e-06
1.74193e-06
2.26129e-07
3.37962e-07
1.40397e-06
5.87825e-07
-2.49864e-07
9.10068e-07
-3.22243e-07
-7.13065e-07
1.62313e-06
-2.73929e-06
2.02623e-06
-3.22127e-06
4.81973e-07
-2.67319e-06
-5.48077e-07
-2.25933e-06
-4.13856e-07
-2.08043e-06
-1.789e-07
-1.99357e-06
-8.68658e-08
-2.00376e-06
1.01921e-08
-2.06216e-06
5.83979e-08
-2.10586e-06
4.37004e-08
-2.11185e-06
5.9997e-09
-2.08946e-06
-2.23946e-08
-2.04404e-06
-4.54164e-08
-1.99374e-06
-5.02982e-08
-1.95801e-06
-3.57292e-08
-1.93795e-06
-2.0058e-08
-1.92903e-06
-8.91843e-09
-1.92502e-06
-4.01524e-09
-1.91837e-06
-6.64977e-09
-1.90793e-06
-1.04296e-08
-1.89559e-06
-1.23431e-08
-1.88405e-06
-1.1538e-08
-1.87506e-06
-8.9935e-09
-1.86829e-06
-6.76552e-09
-1.86258e-06
-5.70373e-09
-1.85714e-06
-5.44075e-09
-1.85207e-06
-5.07074e-09
-1.8475e-06
-4.56042e-09
-1.84355e-06
-3.94649e-09
-1.84039e-06
-3.15893e-09
-1.83778e-06
-2.60665e-09
-1.83561e-06
-2.17092e-09
-1.83368e-06
-1.92239e-09
-1.83235e-06
-1.32475e-09
-1.83136e-06
-9.94208e-10
-1.83073e-06
-6.23173e-10
-1.8304e-06
-3.32246e-10
-1.83033e-06
-5.79104e-11
-1.83064e-06
3.09575e-10
-1.8312e-06
5.63166e-10
-1.832e-06
8.06175e-10
-1.83308e-06
1.08363e-09
-1.83446e-06
1.38003e-09
-1.836e-06
1.5396e-09
-1.83777e-06
1.77212e-09
-1.83974e-06
1.97803e-09
-1.84199e-06
2.25182e-09
-1.84439e-06
2.40389e-09
-1.84703e-06
2.64032e-09
-1.84984e-06
2.81806e-09
-1.85286e-06
3.03658e-09
-1.85606e-06
3.18896e-09
-1.85937e-06
3.33357e-09
-1.86282e-06
3.43507e-09
-1.86661e-06
3.81523e-09
-1.87046e-06
3.84204e-09
-1.87455e-06
4.08428e-09
-1.8788e-06
4.25478e-09
-1.88317e-06
4.37722e-09
-1.88781e-06
4.64785e-09
-1.89252e-06
4.71184e-09
-1.89738e-06
4.86891e-09
-1.90247e-06
5.09457e-09
-1.90778e-06
5.31808e-09
-1.91319e-06
5.41819e-09
-1.91882e-06
5.6736e-09
-1.92463e-06
5.79387e-09
-1.9306e-06
6.0137e-09
-1.93682e-06
6.20652e-09
-1.9432e-06
6.4277e-09
-1.9499e-06
6.68086e-09
-1.9568e-06
6.96596e-09
6.92021e-09
1.52803e-06
1.69223e-08
1.50496e-06
2.30775e-08
1.51633e-06
-1.1375e-08
1.59456e-06
-7.82302e-08
1.74602e-06
-1.51458e-07
2.0759e-06
-3.29884e-07
2.50898e-06
-4.33075e-07
2.25367e-06
2.55302e-07
8.78359e-07
1.37532e-06
-5.58327e-07
1.43669e-06
-4.94355e-07
-6.39718e-08
2.90337e-07
-7.84692e-07
-8.56137e-07
1.14647e-06
-2.83785e-06
1.98172e-06
-1.59567e-06
6.29708e-06
3.96564e-06
-1.3473e-05
5.99225e-06
5.30961e-07
1.4147e-06
5.98152e-06
2.00918e-06
-8.44348e-07
2.76426e-06
-1.07733e-06
-2.88437e-06
7.27177e-06
-9.56159e-06
8.70345e-06
-1.10399e-05
1.96033e-06
-9.26592e-06
-2.3221e-06
-7.91525e-06
-1.76453e-06
-7.33008e-06
-7.64071e-07
-7.05061e-06
-3.6634e-07
-7.0906e-06
5.01853e-08
-7.28094e-06
2.48737e-07
-7.42041e-06
1.83175e-07
-7.43482e-06
2.04142e-08
-7.3541e-06
-1.03116e-07
-7.19902e-06
-2.00493e-07
-7.03055e-06
-2.18769e-07
-6.91052e-06
-1.55763e-07
-6.84311e-06
-8.74657e-08
-6.81259e-06
-3.94323e-08
-6.79765e-06
-1.89537e-08
-6.77347e-06
-3.0834e-08
-6.73668e-06
-4.72114e-08
-6.69407e-06
-5.49532e-08
-6.654e-06
-5.16009e-08
-6.62257e-06
-4.04213e-08
-6.59818e-06
-3.11538e-08
-6.57769e-06
-2.61903e-08
-6.55838e-06
-2.47449e-08
-6.53998e-06
-2.34709e-08
-6.52381e-06
-2.07299e-08
-6.51006e-06
-1.76895e-08
-6.49872e-06
-1.4495e-08
-6.48938e-06
-1.19376e-08
-6.48139e-06
-1.01559e-08
-6.47514e-06
-8.1692e-09
-6.47025e-06
-6.20811e-09
-6.46671e-06
-4.53435e-09
-6.46468e-06
-2.64884e-09
-6.46381e-06
-1.2031e-09
-6.46407e-06
2.15872e-10
-6.46523e-06
1.47033e-09
-6.46762e-06
2.9687e-09
-6.47087e-06
4.05118e-09
-6.47515e-06
5.37591e-09
-6.47999e-06
6.2211e-09
-6.48592e-06
7.47005e-09
-6.49272e-06
8.57819e-09
-6.50029e-06
9.54852e-09
-6.50859e-06
1.05642e-08
-6.51793e-06
1.17403e-08
-6.52753e-06
1.22527e-08
-6.53812e-06
1.3409e-08
-6.54929e-06
1.42349e-08
-6.56123e-06
1.51171e-08
-6.5736e-06
1.57308e-08
-6.5869e-06
1.67213e-08
-6.60052e-06
1.7475e-08
-6.61505e-06
1.8354e-08
-6.63017e-06
1.92005e-08
-6.64574e-06
1.98312e-08
-6.66216e-06
2.0807e-08
-6.67917e-06
2.1674e-08
-6.69648e-06
2.20246e-08
-6.71476e-06
2.31605e-08
-6.73349e-06
2.38389e-08
-6.75287e-06
2.47061e-08
-6.77295e-06
2.55123e-08
-6.79361e-06
2.63841e-08
-6.8151e-06
2.72698e-08
-6.83693e-06
2.78948e-08
-6.85975e-06
2.90197e-08
-6.88325e-06
2.9993e-08
-6.90756e-06
3.09651e-08
-6.93276e-06
3.22515e-08
3.21865e-08
5.39058e-06
7.01435e-08
5.31577e-06
9.78928e-08
5.35074e-06
-4.63453e-08
5.6075e-06
-3.34991e-07
6.10839e-06
-6.52353e-07
7.19335e-06
-1.41484e-06
8.61138e-06
-1.8511e-06
7.84345e-06
1.02323e-06
3.31043e-06
5.90833e-06
-1.65401e-06
6.40112e-06
-1.62585e-06
-9.21271e-08
7.41203e-07
-3.15175e-06
-3.19451e-06
5.08219e-06
-9.2998e-06
8.08701e-06
-6.92983e-06
1.152e-05
7.26091e-06
-3.22538e-05
1.15816e-05
4.69288e-07
3.20596e-06
1.43572e-05
3.88153e-06
-1.51992e-06
4.71634e-06
-1.91214e-06
-6.38002e-06
1.83681e-05
-1.88398e-05
2.11633e-05
-2.13963e-05
4.51684e-06
-1.81289e-05
-5.58954e-06
-1.56489e-05
-4.24456e-06
-1.45659e-05
-1.847e-06
-1.40614e-05
-8.70889e-07
-1.4147e-05
1.35793e-07
-1.44999e-05
6.01681e-07
-1.47511e-05
4.34338e-07
-1.47668e-05
3.61067e-08
-1.46035e-05
-2.664e-07
-1.43042e-05
-4.99767e-07
-1.39842e-05
-5.38752e-07
-1.37574e-05
-3.82576e-07
-1.36293e-05
-2.15552e-07
-1.35698e-05
-9.89717e-08
-1.35384e-05
-5.03182e-08
-1.34893e-05
-7.99982e-08
-1.34162e-05
-1.20267e-07
-1.33322e-05
-1.38952e-07
-1.32543e-05
-1.2955e-07
-1.31919e-05
-1.02761e-07
-1.31436e-05
-7.94466e-08
-1.31023e-05
-6.7472e-08
-1.30638e-05
-6.32445e-08
-1.30275e-05
-5.97522e-08
-1.29948e-05
-5.34703e-08
-1.29679e-05
-4.46071e-08
-1.29455e-05
-3.68657e-08
-1.29271e-05
-3.03483e-08
-1.2912e-05
-2.52855e-08
-1.28996e-05
-2.05561e-08
-1.28903e-05
-1.55097e-08
-1.28841e-05
-1.07017e-08
-1.28805e-05
-6.2249e-09
-1.28798e-05
-1.91927e-09
-1.2881e-05
1.43303e-09
-1.28845e-05
4.97698e-09
-1.28901e-05
8.55678e-09
-1.28975e-05
1.15112e-08
-1.29071e-05
1.4971e-08
-1.29187e-05
1.77575e-08
-1.29322e-05
2.10267e-08
-1.2947e-05
2.33991e-08
-1.29637e-05
2.61821e-08
-1.29817e-05
2.85615e-08
-1.30013e-05
3.14213e-08
-1.30227e-05
3.35981e-08
-1.30454e-05
3.61123e-08
-1.30693e-05
3.82214e-08
-1.3095e-05
4.07318e-08
-1.31218e-05
4.25919e-08
-1.31496e-05
4.45209e-08
-1.31792e-05
4.7102e-08
-1.32103e-05
4.94857e-08
-1.32424e-05
5.12647e-08
-1.32759e-05
5.33573e-08
-1.33105e-05
5.53746e-08
-1.33463e-05
5.75455e-08
-1.33836e-05
5.93063e-08
-1.34221e-05
6.16109e-08
-1.34616e-05
6.34348e-08
-1.35026e-05
6.56846e-08
-1.35451e-05
6.80464e-08
-1.35889e-05
7.01818e-08
-1.36339e-05
7.22728e-08
-1.36805e-05
7.45856e-08
-1.37282e-05
7.67195e-08
-1.37773e-05
7.9081e-08
-1.38282e-05
8.19221e-08
-1.38812e-05
8.52829e-08
8.48907e-08
1.07181e-05
1.63963e-07
1.05798e-05
2.36159e-07
1.06406e-05
-1.07101e-07
1.1115e-05
-8.0936e-07
1.20514e-05
-1.58882e-06
1.40614e-05
-3.4248e-06
1.66984e-05
-4.48812e-06
1.54083e-05
2.3133e-06
6.95309e-06
1.43636e-05
-2.71766e-06
1.60719e-05
-3.03483e-06
2.25047e-07
9.79663e-07
-7.16624e-06
-6.55176e-06
1.26136e-05
-1.73127e-05
1.8848e-05
-1.69816e-05
1.7539e-05
1.11636e-05
-6.09564e-05
1.86484e-05
-6.40037e-07
5.99494e-06
2.70106e-05
6.28533e-06
-1.8103e-06
6.50433e-06
-2.13114e-06
-1.1764e-05
3.66365e-05
-3.11453e-05
4.05445e-05
-3.47761e-05
8.14769e-06
-2.97562e-05
-1.06095e-05
-2.5989e-05
-8.01178e-06
-2.43216e-05
-3.51438e-06
-2.35703e-05
-1.62218e-06
-2.37232e-05
2.88723e-07
-2.42677e-05
1.14617e-06
-2.46399e-05
8.0657e-07
-2.4643e-05
3.92212e-08
-2.43659e-05
-5.43506e-07
-2.38829e-05
-9.82812e-07
-2.33751e-05
-1.04656e-06
-2.30161e-05
-7.41525e-07
-2.28116e-05
-4.20054e-07
-2.27148e-05
-1.95746e-07
-2.26589e-05
-1.0626e-07
-2.25744e-05
-1.6449e-07
-2.24531e-05
-2.41591e-07
-2.23147e-05
-2.77332e-07
-2.21869e-05
-2.57348e-07
-2.20844e-05
-2.05239e-07
-2.20037e-05
-1.60133e-07
-2.19351e-05
-1.36083e-07
-2.18704e-05
-1.27975e-07
-2.18099e-05
-1.20183e-07
-2.17566e-05
-1.06821e-07
-2.17117e-05
-8.94775e-08
-2.16752e-05
-7.33744e-08
-2.16448e-05
-6.07536e-08
-2.16205e-05
-4.95843e-08
-2.16015e-05
-3.9549e-08
-2.15876e-05
-2.9425e-08
-2.15791e-05
-1.91824e-08
-2.15754e-05
-9.90525e-09
-2.15754e-05
-1.90834e-09
-2.15802e-05
6.21863e-09
-2.15886e-05
1.34041e-08
-2.16004e-05
2.04152e-08
-2.16164e-05
2.75109e-08
-2.16354e-05
3.39979e-08
-2.1658e-05
4.03518e-08
-2.16832e-05
4.61354e-08
-2.17117e-05
5.19955e-08
-2.17435e-05
5.79893e-08
-2.17782e-05
6.32206e-08
-2.18148e-05
6.79939e-08
-2.18549e-05
7.37302e-08
-2.18969e-05
7.81215e-08
-2.19417e-05
8.30375e-08
-2.19888e-05
8.78635e-08
-2.20385e-05
9.22579e-08
-2.20908e-05
9.68275e-08
-2.21451e-05
1.01512e-07
-2.22016e-05
1.05943e-07
-2.22603e-05
1.09995e-07
-2.23214e-05
1.14378e-07
-2.23853e-05
1.19307e-07
-2.24512e-05
1.23485e-07
-2.2519e-05
1.27121e-07
-2.25892e-05
1.31823e-07
-2.26618e-05
1.36003e-07
-2.27362e-05
1.4013e-07
-2.2813e-05
1.44886e-07
-2.28925e-05
1.49762e-07
-2.29742e-05
1.53873e-07
-2.3058e-05
1.58507e-07
-2.31438e-05
1.62443e-07
-2.32324e-05
1.67799e-07
-2.33236e-05
1.73112e-07
-2.34185e-05
1.80248e-07
1.7899e-07
1.78899e-05
2.98446e-07
1.76785e-05
4.47541e-07
1.77659e-05
-1.94477e-07
1.84941e-05
-1.53758e-06
1.9952e-05
-3.04665e-06
2.30406e-05
-6.51338e-06
2.71312e-05
-8.57875e-06
2.53813e-05
4.06322e-06
1.22474e-05
2.74974e-05
-3.51208e-06
3.18314e-05
-4.73915e-06
1.45212e-06
7.80479e-07
-1.26859e-05
-1.10876e-05
2.44817e-05
-2.67959e-05
3.45563e-05
-3.2614e-05
2.40914e-05
1.56815e-05
-0.000100729
2.72465e-05
-3.79516e-06
1.00903e-05
4.41668e-05
9.30687e-06
-1.02689e-06
7.70748e-06
-5.31747e-07
-1.97694e-05
6.41134e-05
-4.71014e-05
6.78764e-05
-5.17066e-05
1.27529e-05
-4.47291e-05
-1.7587e-05
-3.95673e-05
-1.31735e-05
-3.72464e-05
-5.83529e-06
-3.62425e-05
-2.62614e-06
-3.64866e-05
5.32899e-07
-3.72458e-05
1.90537e-06
-3.77392e-05
1.29996e-06
-3.77073e-05
7.26572e-09
-3.72787e-05
-9.72072e-07
-3.65666e-05
-1.69493e-06
-3.58341e-05
-1.779e-06
-3.53154e-05
-1.26025e-06
-3.50193e-05
-7.16207e-07
-3.48724e-05
-3.42616e-07
-3.47814e-05
-1.97268e-07
-3.46481e-05
-2.97716e-07
-3.44626e-05
-4.27153e-07
-3.42547e-05
-4.85186e-07
-3.40617e-05
-4.50343e-07
-3.39082e-05
-3.58779e-07
-3.37858e-05
-2.82508e-07
-3.36803e-05
-2.41615e-07
-3.35831e-05
-2.2516e-07
-3.34913e-05
-2.11966e-07
-3.34105e-05
-1.87618e-07
-3.33437e-05
-1.56259e-07
-3.32898e-05
-1.27312e-07
-3.32469e-05
-1.03631e-07
-3.32117e-05
-8.4709e-08
-3.3186e-05
-6.52633e-08
-3.31685e-05
-4.69914e-08
-3.31594e-05
-2.82166e-08
-3.31575e-05
-1.18227e-08
-3.31633e-05
3.86064e-09
-3.31749e-05
1.78767e-08
-3.31936e-05
3.20628e-08
-3.32182e-05
4.50801e-08
-3.32486e-05
5.79317e-08
-3.32845e-05
6.98985e-08
-3.33258e-05
8.16595e-08
-3.33722e-05
9.24629e-08
-3.34239e-05
1.0377e-07
-3.34802e-05
1.14264e-07
-3.35408e-05
1.23808e-07
-3.36073e-05
1.34472e-07
-3.36766e-05
1.43103e-07
-3.37508e-05
1.52289e-07
-3.38289e-05
1.61165e-07
-3.39113e-05
1.70262e-07
-3.3997e-05
1.78042e-07
-3.40866e-05
1.86325e-07
-3.41802e-05
1.95241e-07
-3.42778e-05
2.03498e-07
-3.43799e-05
2.12109e-07
-3.44852e-05
2.1961e-07
-3.4593e-05
2.27211e-07
-3.47054e-05
2.35893e-07
-3.48218e-05
2.4348e-07
-3.49409e-05
2.50988e-07
-3.50635e-05
2.5858e-07
-3.51906e-05
2.67275e-07
-3.53202e-05
2.74498e-07
-3.54546e-05
2.84222e-07
-3.5592e-05
2.91224e-07
-3.57331e-05
2.99648e-07
-3.58777e-05
3.07002e-07
-3.60265e-05
3.1672e-07
-3.61789e-05
3.25504e-07
-3.63357e-05
3.37148e-07
3.35335e-07
2.73593e-05
4.68472e-07
2.70686e-05
7.38299e-07
2.71818e-05
-3.07738e-07
2.81924e-05
-2.54813e-06
3.025e-05
-5.10429e-06
3.45405e-05
-1.08039e-05
4.0292e-05
-1.43303e-05
3.82239e-05
6.13138e-06
1.97498e-05
4.59715e-05
-3.67818e-06
5.52594e-05
-6.73441e-06
4.50836e-06
-1.36106e-07
-1.92842e-05
-1.68966e-05
4.12421e-05
-3.74367e-05
5.50964e-05
-5.43692e-05
3.09266e-05
2.05756e-05
-0.000152232
3.7312e-05
-1.01806e-05
1.57576e-05
6.57212e-05
1.30171e-05
1.7136e-06
7.72251e-06
4.76286e-06
-3.13038e-05
0.00010314
-6.73842e-05
0.000103957
-7.27589e-05
1.81277e-05
-6.37214e-05
-2.66246e-05
-5.7129e-05
-1.97658e-05
-5.41137e-05
-8.85061e-06
-5.28732e-05
-3.86668e-06
-5.3232e-05
8.91744e-07
-5.42147e-05
2.88803e-06
-5.48128e-05
1.89806e-06
-5.47124e-05
-9.31561e-08
-5.40851e-05
-1.59938e-06
-5.31009e-05
-2.67911e-06
-5.21059e-05
-2.77397e-06
-5.14023e-05
-1.96381e-06
-5.09957e-05
-1.12284e-06
-5.07858e-05
-5.52497e-07
-5.06444e-05
-3.38682e-07
-5.04446e-05
-4.97497e-07
-5.01758e-05
-6.95994e-07
-4.98797e-05
-7.81289e-07
-4.96087e-05
-7.21317e-07
-4.93886e-05
-5.78864e-07
-4.92131e-05
-4.57969e-07
-4.90622e-05
-3.92514e-07
-4.89215e-05
-3.65893e-07
-4.87921e-05
-3.4133e-07
-4.86799e-05
-2.99798e-07
-4.85875e-05
-2.48724e-07
-4.85136e-05
-2.0116e-07
-4.8456e-05
-1.61274e-07
-4.8412e-05
-1.28649e-07
-4.83803e-05
-9.70108e-08
-4.8363e-05
-6.42147e-08
-4.83567e-05
-3.45173e-08
-4.83643e-05
-4.25604e-09
-4.83809e-05
2.04991e-08
-4.84095e-05
4.64532e-08
-4.84471e-05
6.96584e-08
-4.8495e-05
9.30424e-08
-4.85516e-05
1.14516e-07
-4.86162e-05
1.34478e-07
-4.86897e-05
1.55195e-07
-4.87715e-05
1.7428e-07
-4.88608e-05
1.9304e-07
-4.89574e-05
2.10901e-07
-4.90622e-05
2.28589e-07
-4.91734e-05
2.45687e-07
-4.92915e-05
2.61241e-07
-4.94163e-05
2.77094e-07
-4.95476e-05
2.92479e-07
-4.96846e-05
3.07234e-07
-4.98285e-05
3.2198e-07
-4.99791e-05
3.36926e-07
-5.01346e-05
3.50821e-07
-5.02967e-05
3.65549e-07
-5.04634e-05
3.78826e-07
-5.06362e-05
3.92354e-07
-5.08157e-05
4.06739e-07
-5.10002e-05
4.20444e-07
-5.11893e-05
4.32537e-07
-5.13848e-05
4.46514e-07
-5.15857e-05
4.59497e-07
-5.17909e-05
4.72484e-07
-5.20024e-05
4.86061e-07
-5.22195e-05
5.01348e-07
-5.24422e-05
5.13937e-07
-5.26685e-05
5.26064e-07
-5.29013e-05
5.3972e-07
-5.31383e-05
5.53806e-07
-5.33829e-05
5.70116e-07
-5.36323e-05
5.86639e-07
5.82798e-07
3.96543e-05
6.58358e-07
3.92865e-05
1.10615e-06
3.94243e-05
-4.45525e-07
4.07352e-05
-3.85901e-06
4.34536e-05
-7.82271e-06
4.90222e-05
-1.63724e-05
5.6579e-05
-2.18871e-05
5.4421e-05
8.28932e-06
3.01394e-05
7.02531e-05
-2.70474e-06
8.81035e-05
-8.98859e-06
1.07922e-05
-2.06564e-06
-2.62071e-05
-2.40433e-05
6.32198e-05
-4.88523e-05
7.99054e-05
-8.26459e-05
3.77113e-05
2.54853e-05
-0.000215428
4.86151e-05
-2.10844e-05
2.31252e-05
9.12112e-05
1.74321e-05
7.40661e-06
5.70562e-06
1.64894e-05
-4.74619e-05
0.000156307
-9.26839e-05
0.000149179
-9.85733e-05
2.40171e-05
-8.74989e-05
-3.7699e-05
-7.95275e-05
-2.77373e-05
-7.58175e-05
-1.25606e-05
-7.43732e-05
-5.31096e-06
-7.48624e-05
1.38093e-06
-7.60567e-05
4.08235e-06
-7.67261e-05
2.56753e-06
-7.65133e-05
-3.05993e-07
-7.56389e-05
-2.47382e-06
-7.43374e-05
-3.98054e-06
-7.30488e-05
-4.06257e-06
-7.2138e-05
-2.87462e-06
-7.16009e-05
-1.65997e-06
-7.13103e-05
-8.43108e-07
-7.10972e-05
-5.51732e-07
-7.08089e-05
-7.85779e-07
-7.04359e-05
-1.06902e-06
-7.00325e-05
-1.18466e-06
-6.96623e-05
-1.09152e-06
-6.9364e-05
-8.77144e-07
-6.91226e-05
-6.99445e-07
-6.89158e-05
-5.99226e-07
-6.87246e-05
-5.571e-07
-6.85512e-05
-5.14795e-07
-6.84028e-05
-4.48164e-07
-6.82815e-05
-3.70047e-07
-6.8189e-05
-2.93633e-07
-6.81192e-05
-2.31048e-07
-6.80685e-05
-1.79306e-07
-6.80391e-05
-1.26394e-07
-6.80275e-05
-7.58485e-08
-6.80366e-05
-2.53922e-08
-6.80611e-05
2.02106e-08
-6.81052e-05
6.46392e-08
-6.81626e-05
1.03824e-07
-6.82354e-05
1.42466e-07
-6.83214e-05
1.79059e-07
-6.84221e-05
2.15245e-07
-6.85367e-05
2.49067e-07
-6.86626e-05
2.81097e-07
-6.88019e-05
3.13634e-07
-6.89524e-05
3.43508e-07
-6.91153e-05
3.73775e-07
-6.92881e-05
4.01436e-07
-6.94722e-05
4.29744e-07
-6.96667e-05
4.55806e-07
-6.98704e-05
4.80732e-07
-7.00845e-05
5.06601e-07
-7.03075e-05
5.30316e-07
-7.05401e-05
5.5453e-07
-7.0781e-05
5.77819e-07
-7.10326e-05
6.02515e-07
-7.12917e-05
6.24574e-07
-7.15594e-05
6.46533e-07
-7.18362e-05
6.69235e-07
-7.21211e-05
6.91621e-07
-7.24134e-05
7.12742e-07
-7.27145e-05
7.33702e-07
-7.30224e-05
7.54333e-07
-7.33376e-05
7.74796e-07
-7.36619e-05
7.96776e-07
-7.39926e-05
8.16772e-07
-7.43313e-05
8.40041e-07
-7.46774e-05
8.60071e-07
-7.50313e-05
8.80067e-07
-7.53896e-05
8.98021e-07
-7.5757e-05
9.21183e-07
-7.61316e-05
9.44804e-07
-7.65142e-05
9.69269e-07
9.5798e-07
5.53792e-05
8.4216e-07
5.49457e-05
1.53969e-06
5.51106e-05
-6.10474e-07
5.67251e-05
-5.47351e-06
6.01429e-05
-1.12405e-05
6.70054e-05
-2.32349e-05
7.64208e-05
-3.13025e-05
7.44487e-05
1.02614e-05
4.41953e-05
0.000100507
1.39952e-07
0.000132159
-1.1395e-05
2.23271e-05
-5.32109e-06
-3.2281e-05
-3.25812e-05
9.04799e-05
-6.03146e-05
0.000107639
-0.000117475
4.44225e-05
2.99014e-05
-0.000289752
6.07655e-05
-3.74274e-05
3.21451e-05
0.000119832
2.23735e-05
1.71782e-05
5.09411e-07
3.83535e-05
-6.94223e-05
0.000226239
-0.00012367
0.000203427
-0.000129864
3.02108e-05
-0.000116916
-5.06472e-05
-0.000107698
-3.69552e-05
-0.000103339
-1.6919e-05
-0.000101738
-6.91223e-06
-0.000102355
1.99742e-06
-0.000103721
5.44842e-06
-0.000104406
3.25248e-06
-0.000104026
-6.85573e-07
-0.000102857
-3.64337e-06
-0.000101205
-5.63191e-06
-9.95997e-05
-5.66803e-06
-9.84607e-05
-4.01363e-06
-9.77749e-05
-2.34572e-06
-9.73785e-05
-1.23951e-06
-9.70707e-05
-8.59599e-07
-9.66694e-05
-1.18704e-06
-9.61667e-05
-1.57165e-06
-9.56337e-05
-1.71771e-06
-9.51514e-05
-1.57384e-06
-9.47585e-05
-1.26997e-06
-9.44404e-05
-1.01756e-06
-9.41666e-05
-8.73048e-07
-9.39201e-05
-8.0362e-07
-9.36984e-05
-7.3643e-07
-9.35112e-05
-6.35407e-07
-9.33657e-05
-5.15522e-07
-9.32581e-05
-4.01218e-07
-9.31818e-05
-3.07274e-07
-9.31376e-05
-2.23517e-07
-9.31203e-05
-1.43738e-07
-9.31319e-05
-6.42447e-08
-9.3169e-05
1.16937e-08
-9.3233e-05
8.42481e-08
-9.33189e-05
1.5057e-07
-9.34289e-05
2.1383e-07
-9.35617e-05
2.75219e-07
-9.37155e-05
3.32956e-07
-9.38889e-05
3.88568e-07
-9.40804e-05
4.40582e-07
-9.42907e-05
4.91415e-07
-9.45193e-05
5.42279e-07
-9.47662e-05
5.90393e-07
-9.5028e-05
6.35619e-07
-9.53072e-05
6.80664e-07
-9.56e-05
7.2247e-07
-9.59091e-05
7.64921e-07
-9.62335e-05
8.05204e-07
-9.65706e-05
8.43712e-07
-9.69212e-05
8.80871e-07
-9.72848e-05
9.18218e-07
-9.76634e-05
9.56341e-07
-9.80518e-05
9.91035e-07
-9.84536e-05
1.02631e-06
-9.88675e-05
1.06048e-06
-9.92927e-05
1.09443e-06
-9.97301e-05
1.12903e-06
-0.000100179
1.16118e-06
-0.000100637
1.19265e-06
-0.000101107
1.22417e-06
-0.000101586
1.25345e-06
-0.000102075
1.28606e-06
-0.000102575
1.31631e-06
-0.000103083
1.34869e-06
-0.000103601
1.37807e-06
-0.000104127
1.40554e-06
-0.000104662
1.43285e-06
-0.000105203
1.46303e-06
-0.000105755
1.4966e-06
-0.000106315
1.52934e-06
1.50737e-06
7.52023e-05
9.83204e-07
7.47321e-05
2.00986e-06
7.4934e-05
-8.12397e-07
7.68434e-05
-7.38292e-06
8.09637e-05
-1.53608e-05
8.90718e-05
-3.1343e-05
0.000100296
-4.25268e-05
9.87643e-05
1.17931e-05
6.26992e-05
0.000136572
5.83403e-06
0.000189024
-1.36766e-05
4.18378e-05
-1.02332e-05
-3.57244e-05
-4.27683e-05
0.000123015
-7.15473e-05
0.000136418
-0.000159121
5.08552e-05
3.3229e-05
-0.000373836
7.32509e-05
-5.98231e-05
4.26726e-05
0.00015041
2.72638e-05
3.2587e-05
-9.29627e-06
7.49136e-05
-9.82954e-05
0.000315238
-0.000161007
0.000266138
-0.00016742
3.66244e-05
-0.00015288
-6.51878e-05
-0.000142607
-4.72277e-05
-0.000137687
-2.18391e-05
-0.00013597
-8.62897e-06
-0.000136689
2.71606e-06
-0.00013816
6.91989e-06
-0.00013879
3.88174e-06
-0.000138183
-1.29173e-06
-0.000136677
-5.15027e-06
-0.000134651
-7.65748e-06
-0.000132714
-7.60512e-06
-0.000131331
-5.39608e-06
-0.000130475
-3.20169e-06
-0.00012995
-1.7647e-06
-0.000129518
-1.29173e-06
-0.000128974
-1.73134e-06
-0.00012832
-2.22546e-06
-0.00012764
-2.39723e-06
-0.000127028
-2.18645e-06
-0.000126529
-1.76926e-06
-0.000126126
-1.42047e-06
-0.000125782
-1.21679e-06
-0.000125474
-1.11157e-06
-0.000125207
-1.00371e-06
-0.000124988
-8.5381e-07
-0.000124826
-6.78207e-07
-0.000124716
-5.1088e-07
-0.000124651
-3.71841e-07
-0.000124627
-2.47869e-07
-0.000124642
-1.28497e-07
-0.000124699
-7.01342e-09
-0.000124793
1.0494e-07
-0.000124924
2.1539e-07
-0.000125087
3.13998e-07
-0.000125284
4.10459e-07
-0.000125509
5.00708e-07
-0.000125764
5.88115e-07
-0.000126047
6.70617e-07
-0.000126358
7.52504e-07
-0.000126695
8.27857e-07
-0.000127057
9.04752e-07
-0.000127442
9.74627e-07
-0.00012785
1.04442e-06
-0.00012828
1.11064e-06
-0.000128733
1.17557e-06
-0.000129206
1.23772e-06
-0.000129698
1.29705e-06
-0.000130209
1.35513e-06
-0.000130739
1.4105e-06
-0.000131286
1.46475e-06
-0.000131848
1.51915e-06
-0.000132431
1.57325e-06
-0.000133027
1.62264e-06
-0.00013364
1.67402e-06
-0.000134268
1.72195e-06
-0.000134909
1.77017e-06
-0.000135564
1.81561e-06
-0.000136231
1.86052e-06
-0.000136913
1.90576e-06
-0.000137606
1.9464e-06
-0.000138309
1.98873e-06
-0.000139025
2.03281e-06
-0.000139752
2.0758e-06
-0.000140487
2.11319e-06
-0.000141233
2.15114e-06
-0.000141986
2.18656e-06
-0.000142748
2.22506e-06
-0.000143521
2.2688e-06
-0.000144298
2.30673e-06
2.26675e-06
9.98417e-05
9.9378e-05
2.47356e-06
9.96345e-05
-1.06889e-06
0.000101827
-9.57586e-06
0.000106621
-2.01541e-05
0.000115877
-4.05996e-05
0.000128744
-5.53936e-05
0.000127801
1.27361e-05
8.64453e-05
0.000177928
1.54792e-05
0.00025999
-1.54775e-05
7.27944e-05
-1.71286e-05
-3.40733e-05
-5.50246e-05
0.000160911
-8.23286e-05
0.000163722
-0.000208221
5.70007e-05
3.58884e-05
-0.000466725
8.55195e-05
-8.83419e-05
5.44606e-05
0.000181469
3.14071e-05
5.56405e-05
-2.51539e-05
0.000131475
-0.00013519
0.000425274
-0.000205416
0.000336364
-0.000212078
4.32864e-05
-0.000196284
-8.09815e-05
-0.000185196
-5.83158e-05
-0.000179818
-2.72176e-05
-0.000178015
-1.04314e-05
-0.000178781
3.48204e-06
-0.00018027
8.40886e-06
-0.000180756
4.3677e-06
-0.00017987
-2.1782e-06
-0.000177992
-7.02819e-06
-0.000175579
-1.00698e-05
-0.000173307
-9.87732e-06
-0.00017167
-7.03356e-06
-0.000170621
-4.25071e-06
-0.000169939
-2.44638e-06
-0.000169349
-1.88125e-06
-0.000168637
-2.4433e-06
-0.000167809
-3.05365e-06
-0.000166965
-3.24179e-06
-0.000166214
-2.93712e-06
-0.000165603
-2.37992e-06
-0.000165111
-1.91315e-06
-0.000164696
-1.63164e-06
-0.000164335
-1.47214e-06
-0.00016403
-1.30878e-06
-0.000163794
-1.08965e-06
-0.000163634
-8.38148e-07
-0.000163544
-6.01556e-07
-0.000163514
-4.01263e-07
-0.000163542
-2.19959e-07
-0.000163625
-4.53309e-08
-0.000163758
1.2595e-07
-0.000163947
2.93168e-07
-0.00016418
4.49012e-07
-0.000164462
5.96079e-07
-0.000164785
7.3299e-07
-0.000165149
8.65457e-07
-0.000165555
9.93672e-07
-0.000165997
1.11295e-06
-0.000166474
1.22887e-06
-0.000166986
1.34032e-06
-0.00016753
1.44826e-06
-0.000168106
1.55119e-06
-0.000168713
1.65078e-06
-0.000169347
1.74519e-06
-0.000170009
1.83767e-06
-0.000170697
1.92552e-06
-0.00017141
2.01011e-06
-0.000172146
2.09121e-06
-0.000172906
2.17021e-06
-0.000173686
2.24465e-06
-0.000174488
2.32156e-06
-0.000175308
2.39356e-06
-0.000176149
2.46373e-06
-0.000177006
2.53031e-06
-0.000177881
2.59744e-06
-0.000178772
2.66121e-06
-0.000179678
2.72171e-06
-0.000180599
2.78104e-06
-0.000181529
2.8357e-06
-0.000182472
2.88976e-06
-0.000183427
2.94407e-06
-0.000184392
2.99706e-06
-0.000185366
3.05032e-06
-0.000186351
3.09853e-06
-0.000187342
3.1417e-06
-0.000188338
3.18217e-06
-0.000189339
3.22689e-06
-0.000190351
3.2801e-06
-0.000191368
3.3243e-06
3.26087e-06
0.000129636
2.87311e-06
0.000129986
-1.41919e-06
0.000132447
-1.20373e-05
0.000137865
-2.55716e-05
0.000148124
-5.08585e-05
0.000162391
-6.96614e-05
0.000162063
1.30648e-05
0.000116222
0.000223769
3.02517e-05
0.00034596
-1.62457e-05
0.000119292
-2.61731e-05
-2.41459e-05
-6.92175e-05
0.000203955
-9.32313e-05
0.000187736
-0.000265564
6.28716e-05
3.88355e-05
-0.000568432
9.73704e-05
-0.000122841
6.70567e-05
0.000211782
3.38404e-05
8.88568e-05
-4.86435e-05
0.000213958
-0.00018121
0.00055784
-0.000257712
0.000412867
-0.000264706
5.02797e-05
-0.000248009
-9.76777e-05
-0.000236332
-6.99936e-05
-0.000230601
-3.29484e-05
-0.000228715
-1.23171e-05
-0.000229454
4.22049e-06
-0.000230856
9.81116e-06
-0.000231117
4.62899e-06
-0.000229892
-3.40295e-06
-0.000227619
-9.30141e-06
-0.000224816
-1.28725e-05
-0.000222204
-1.24896e-05
-0.0002203
-8.93782e-06
-0.000219037
-5.5141e-06
-0.000218163
-3.32027e-06
-0.000217386
-2.65791e-06
-0.000216479
-3.3502e-06
-0.000215462
-4.07058e-06
-0.000214448
-4.25547e-06
-0.000213552
-3.83341e-06
-0.000212829
-3.10344e-06
-0.000212252
-2.49013e-06
-0.000211779
-2.10411e-06
-0.00021138
-1.87174e-06
-0.000211061
-1.62732e-06
-0.000210834
-1.31619e-06
-0.000210706
-9.66657e-07
-0.000210667
-6.40174e-07
-0.000210712
-3.57008e-07
-0.000210827
-1.04346e-07
-0.000211016
1.43571e-07
-0.000211277
3.87186e-07
-0.000211602
6.17434e-07
-0.000211989
8.36291e-07
-0.000212433
1.04068e-06
-0.000212936
1.23587e-06
-0.000213491
1.42008e-06
-0.000214092
1.59454e-06
-0.000214741
1.76249e-06
-0.000215437
1.92429e-06
-0.000216174
2.07731e-06
-0.000216952
2.2267e-06
-0.000217768
2.3675e-06
-0.000218619
2.50119e-06
-0.000219505
2.63111e-06
-0.000220424
2.75678e-06
-0.000221372
2.87409e-06
-0.000222348
2.98567e-06
-0.000223351
3.09458e-06
-0.000224379
3.19772e-06
-0.000225433
3.29836e-06
-0.000226504
3.39341e-06
-0.000227599
3.48809e-06
-0.000228712
3.57687e-06
-0.000229844
3.66187e-06
-0.000230989
3.74296e-06
-0.00023215
3.82241e-06
-0.000233326
3.89714e-06
-0.00023451
3.96572e-06
-0.000235706
4.03117e-06
-0.00023691
4.09362e-06
-0.000238122
4.15623e-06
-0.000239343
4.21835e-06
-0.000240569
4.27637e-06
-0.000241798
4.32783e-06
-0.00024303
4.37292e-06
-0.000244262
4.41493e-06
-0.000245499
4.46396e-06
-0.000246736
4.51691e-06
-0.000247977
4.56536e-06
-0.000249199
4.48268e-06
-0.000250411
4.47402e-06
-0.000251621
4.57258e-06
4.70755e-06
0.000166259
3.14466e-06
0.000166749
-1.90934e-06
0.000169476
-1.47647e-05
0.000175451
-3.15467e-05
0.000186559
-6.19662e-05
0.000201941
-8.50438e-05
0.000202178
1.28283e-05
0.000152797
0.00027315
5.12946e-05
0.000447462
-1.53808e-05
0.000185967
-3.71383e-05
-2.38829e-06
-8.47672e-05
0.000251584
-0.000104843
0.000207812
-0.000331571
6.8834e-05
4.27921e-05
-0.000680058
0.000108901
-0.000162908
7.9559e-05
0.000241125
3.29379e-05
0.000135478
-8.15136e-05
0.00032841
-0.000237441
0.000713767
-0.0003188
0.000494226
-0.000326189
5.76692e-05
-0.000308913
-0.000114954
-0.000296851
-8.20559e-05
-0.000290844
-3.89553e-05
-0.000288844
-1.43169e-05
-0.000289469
4.84502e-06
-0.000290677
1.10187e-05
-0.00029063
4.58251e-06
-0.000289018
-5.01517e-06
-0.000286329
-1.199e-05
-0.00028313
-1.60716e-05
-0.000280172
-1.54477e-05
-0.000277984
-1.11264e-05
-0.000276478
-7.02e-06
-0.000275385
-4.41307e-06
-0.000274391
-3.65158e-06
-0.000273271
-4.47013e-06
-0.000272053
-5.28841e-06
-0.000270861
-5.44791e-06
-0.000269829
-4.86553e-06
-0.000269006
-3.926e-06
-0.000268364
-3.13226e-06
-0.000267849
-2.6189e-06
-0.000267442
-2.27911e-06
-0.00026714
-1.92938e-06
-0.000266961
-1.49481e-06
-0.000266905
-1.02278e-06
-0.000266965
-5.80009e-07
-0.000267125
-1.97241e-07
-0.00026738
1.5111e-07
-0.000267728
4.90761e-07
-0.00026816
8.19248e-07
-0.000268674
1.13215e-06
-0.000269266
1.42829e-06
-0.000269928
1.70273e-06
-0.000270656
1.9634e-06
-0.000271448
2.21194e-06
-0.000272299
2.44608e-06
-0.000273205
2.66782e-06
-0.000274159
2.87894e-06
-0.000275163
3.08121e-06
-0.000276216
3.2793e-06
-0.000277311
3.46228e-06
-0.000278443
3.63382e-06
-0.000279615
3.80295e-06
-0.000280818
3.9596e-06
-0.000282055
4.11098e-06
-0.00028332
4.25085e-06
-0.00028461
4.38495e-06
-0.000285925
4.51218e-06
-0.00028726
4.63413e-06
-0.00028862
4.75256e-06
-0.000289993
4.86168e-06
-0.000291384
4.96813e-06
-0.000292789
5.06622e-06
-0.000294205
5.1592e-06
-0.000295634
5.25108e-06
-0.000297066
5.32973e-06
-0.000298507
5.40643e-06
-0.000299954
5.47798e-06
-0.000301402
5.5424e-06
-0.000302852
5.60579e-06
-0.000304301
5.66775e-06
-0.000305754
5.7287e-06
-0.000307203
5.77705e-06
-0.000308648
5.81821e-06
-0.000310087
5.85418e-06
-0.00031152
5.89694e-06
-0.000312952
5.94856e-06
-0.000314381
5.99449e-06
-0.000315806
5.90747e-06
-0.000317206
5.87424e-06
-0.000318577
5.94328e-06
6.06055e-06
0.000209989
3.22513e-06
0.000210673
-2.59316e-06
0.000213677
-1.77685e-05
0.000220146
-3.80157e-05
0.000231944
-7.37637e-05
0.000248152
-0.000101252
0.00024887
1.21101e-05
0.000197011
0.000325009
7.97846e-05
0.000564688
-1.19748e-05
0.000277727
-4.92543e-05
3.48913e-05
-0.000100733
0.000303063
-0.000117533
0.000224612
-0.000406312
7.54908e-05
4.7214e-05
-0.000802763
0.000120146
-0.000207563
9.08824e-05
0.000270388
2.63892e-05
0.000199971
-0.000125911
0.00048071
-0.00030492
0.000892776
-0.000389744
0.000579049
-0.000397487
6.5413e-05
-0.000379925
-0.000132516
-0.000367621
-9.43599e-05
-0.000361366
-4.52101e-05
-0.000359205
-1.64786e-05
-0.000359611
5.25159e-06
-0.000360531
1.19384e-05
-0.000360099
4.15057e-06
-0.000358059
-7.05521e-06
-0.000354932
-1.51166e-05
-0.000351319
-1.96846e-05
-0.000348001
-1.87656e-05
-0.000345507
-1.36211e-05
-0.00034373
-8.79653e-06
-0.00034238
-5.76324e-06
-0.000341148
-4.8833e-06
-0.000339797
-5.8209e-06
-0.000338376
-6.70957e-06
-0.00033702
-6.80444e-06
-0.000335865
-6.02039e-06
-0.000334963
-4.82768e-06
-0.000334282
-3.81402e-06
-0.000333769
-3.13169e-06
-0.000333389
-2.65878e-06
-0.000333152
-2.16594e-06
-0.000333069
-1.57855e-06
-0.000333139
-9.52111e-07
-0.000333347
-3.72369e-07
-0.000333686
1.41758e-07
-0.000334136
6.0094e-07
-0.000334692
1.04663e-06
-0.000335353
1.48094e-06
-0.00033611
1.88872e-06
-0.000336954
2.27268e-06
-0.000337884
2.63223e-06
-0.000338885
2.96476e-06
-0.000339957
3.28403e-06
-0.000341097
3.58534e-06
-0.000342295
3.86591e-06
-0.000343546
4.13004e-06
-0.000344852
4.38794e-06