/*--------------------------------*- C++ -*----------------------------------*\
| =========                 |                                                 |
| \\      /  F ield         | OpenFOAM: The Open Source CFD Toolbox           |
|  \\    /   O peration     | Version:  2412                                  |
|   \\  /    A nd           | Website:  www.openfoam.com                      |
|    \\/     M anipulation  |                                                 |
\*---------------------------------------------------------------------------*/
FoamFile
{
    version     2.0;
    format      ascii;
    arch        "LSB;label=32;scalar=64";
    class       volVectorField;
    location    "420";
    object      U;
}
// * * * * * * * * * * * * * * * * * * * * * * * * * * * * * * * * * * * * * //

dimensions      [0 1 -1 0 0 0 0];

internalField   nonuniform List<vector> 
8553
(
(-0.0405677 -0.16929 0)
(-0.208711 -0.474103 -6.15571e-21)
(-0.0740977 -0.0971344 1.29904e-20)
(-0.00060435 -0.000204436 -1.39003e-25)
(-0.192344 -0.108088 0)
(-0.0977862 -0.0320103 -1.06643e-24)
(0.375319 0.0422527 7.91827e-25)
(0.619159 -0.0074157 2.3868e-22)
(0.541255 -0.0307076 2.52119e-25)
(0.426774 -0.0207546 0)
(0.39013 -0.0150883 2.26634e-21)
(0.363365 -0.0114419 -1.07808e-21)
(0.358862 -0.00991539 0)
(0.367674 -0.0101333 0)
(0.379633 -0.0117871 2.19697e-25)
(0.383299 -0.0132825 -2.09305e-25)
(0.381624 -0.0141873 -1.64512e-21)
(0.374979 -0.0144112 1.57872e-21)
(0.365088 -0.0139572 1.89575e-25)
(0.356915 -0.0132513 -1.42847e-21)
(0.352218 -0.0127859 -2.69092e-21)
(0.349727 -0.0125641 5.0466e-21)
(0.349034 -0.0125916 1.45137e-25)
(0.34824 -0.0127348 2.21272e-21)
(0.346593 -0.0128152 2.07167e-21)
(0.344434 -0.0128213 -1.93924e-21)
(0.342133 -0.0127628 -1.81226e-21)
(0.340273 -0.0127088 3.38276e-21)
(0.338884 -0.0126921 0)
(0.337801 -0.0127098 0)
(0.336808 -0.0127434 -2.74486e-21)
(0.335841 -0.0127756 7.75768e-26)
(0.334954 -0.0128076 -2.39206e-21)
(0.334182 -0.0128435 4.46923e-21)
(0.333549 -0.0128893 6.26591e-26)
(0.33303 -0.0129451 -6.05447e-26)
(0.332595 -0.0130082 -5.53283e-26)
(0.332222 -0.0130772 3.42036e-21)
(0.331927 -0.013152 1.5284e-28)
(0.331713 -0.0132342 6.00484e-21)
(0.331562 -0.0133233 4.26296e-26)
(0.331474 -0.0134192 5.28442e-21)
(0.331437 -0.0135215 0)
(0.331457 -0.0136304 0)
(0.331532 -0.0137465 -4.38031e-21)
(0.331652 -0.0138692 3.10534e-26)
(0.331817 -0.0139987 -2.98204e-26)
(0.332032 -0.0141351 7.29136e-21)
(0.33229 -0.0142789 -2.59599e-26)
(0.332586 -0.0144294 7.44793e-28)
(0.332921 -0.014587 -6.09507e-21)
(0.333298 -0.014752 0)
(0.333712 -0.0149244 5.42087e-21)
(0.334162 -0.0151039 0)
(0.334648 -0.0152911 -9.66216e-21)
(0.335167 -0.0154856 9.12795e-21)
(0.335721 -0.0156876 -8.62752e-21)
(0.336304 -0.0158969 0)
(0.336911 -0.0161136 -1.45781e-26)
(0.337558 -0.016338 2.84927e-28)
(0.33824 -0.0165709 -6.92282e-21)
(0.338947 -0.0168112 -1.23896e-26)
(0.33969 -0.0170597 -1.24467e-20)
(0.340459 -0.0173162 -1.18126e-20)
(0.341263 -0.0175809 1.08123e-26)
(0.342097 -0.0178541 1.06627e-20)
(0.342953 -0.0181352 -1.84337e-26)
(0.343842 -0.0184245 9.30273e-27)
(0.344767 -0.0187227 8.6869e-27)
(0.345722 -0.0190293 8.77089e-21)
(0.346707 -0.0193448 -1.55051e-28)
(0.347729 -0.0196698 -7.70189e-27)
(0.348781 -0.0200038 -1.52963e-20)
(0.349867 -0.0203472 1.46444e-20)
(0.350987 -0.0206998 -2.8072e-20)
(0.352148 -0.0210623 -1.34678e-20)
(0.353358 -0.021436 -1.29386e-20)
(0.354609 -0.0218204 0)
(0.265611 -0.0874435 -1.85229e-24)
(0.260238 -0.0866803 -1.59702e-20)
(0.257535 -0.0857614 -2.07984e-24)
(0.264168 -0.0868383 -8.04788e-26)
(0.285355 -0.0915396 -9.35917e-21)
(0.317486 -0.0983744 1.91618e-20)
(0.402005 -0.121002 1.93891e-20)
(0.458315 -0.160715 2.06095e-24)
(0.298508 -0.14868 -4.39275e-24)
(-0.00198466 0.00211789 -2.06304e-20)
(-0.126455 0.148214 -5.66761e-24)
(0.00519415 -0.0120604 0)
(0.0267527 -0.0858511 -6.53299e-21)
(-0.0253318 0.406753 -1.294e-21)
(0.0814952 0.600725 0)
(-0.130794 -0.46897 0)
(-0.611757 -1.37617 1.01397e-20)
(-0.247926 -0.345898 -2.13421e-20)
(-0.0215849 -0.0164256 4.53958e-20)
(-0.55582 -0.312629 0)
(-0.218513 -0.0805185 -3.51568e-24)
(1.19428 0.125675 -2.95591e-21)
(1.87671 -0.024547 3.92837e-22)
(1.64444 -0.0907757 -9.48959e-25)
(1.31915 -0.0622207 9.11629e-25)
(1.21145 -0.046058 -1.87504e-21)
(1.13489 -0.0353696 -4.3256e-25)
(1.12295 -0.0310757 1.68264e-21)
(1.14913 -0.0319053 1.57082e-21)
(1.18322 -0.036895 -7.28363e-25)
(1.19309 -0.0413617 3.46606e-25)
(1.18712 -0.0440529 2.72419e-21)
(1.16666 -0.0446891 -2.61488e-21)
(1.13719 -0.0433203 4.9982e-21)
(1.113 -0.0412186 2.8942e-25)
(1.09904 -0.0398406 4.45854e-21)
(1.09161 -0.0391927 -4.18118e-21)
(1.08934 -0.0392875 -2.37528e-25)
(1.08667 -0.0397219 -7.3345e-21)
(1.08148 -0.039963 -6.86801e-21)
(1.07479 -0.0399811 3.21467e-21)
(1.06773 -0.0398065 1.82052e-25)
(1.06199 -0.0396462 5.60901e-21)
(1.05763 -0.0395982 1.60994e-25)
(1.05418 -0.0396529 1.47775e-25)
(1.05101 -0.0397565 4.55289e-21)
(1.04794 -0.0398561 0)
(1.04512 -0.0399546 0)
(1.04268 -0.0400671 0)
(1.04067 -0.0402101 -1.07157e-25)
(1.03901 -0.0403837 -6.48279e-21)
(1.03762 -0.0405801 1.85139e-25)
(1.03645 -0.040795 -8.82642e-26)
(1.03553 -0.0410293 1.06363e-20)
(1.03485 -0.0412858 -9.96864e-21)
(1.03438 -0.041564 -7.19159e-26)
(1.03412 -0.0418641 -1.75477e-20)
(1.03403 -0.0421847 -6.2352e-26)
(1.03412 -0.0425263 7.73898e-21)
(1.03438 -0.0428897 0)
(1.0348 -0.0432744 5.11208e-26)
(1.03536 -0.0436807 -4.95207e-26)
(1.03608 -0.0441087 1.21085e-20)
(1.03693 -0.0445588 -4.31118e-26)
(1.03791 -0.0450311 -2.14816e-20)
(1.03902 -0.0455262 -1.01227e-20)
(1.04026 -0.0460441 -3.60736e-26)
(1.04163 -0.0465854 6.52977e-28)
(1.04311 -0.0471495 3.27345e-26)
(1.0447 -0.047737 1.6048e-20)
(1.0464 -0.0483479 -1.51611e-20)
(1.04821 -0.0489824 1.43301e-20)
(1.05012 -0.0496402 -1.35518e-20)
(1.05212 -0.0503214 1.28226e-20)
(1.05423 -0.0510275 0)
(1.05645 -0.0517588 2.29985e-20)
(1.05877 -0.0525146 1.08996e-20)
(1.06118 -0.0532959 2.06754e-20)
(1.06369 -0.0541025 1.96223e-20)
(1.06631 -0.0549355 3.59218e-26)
(1.06902 -0.0557944 -2.85349e-26)
(1.07182 -0.0566788 -1.68475e-20)
(1.07472 -0.0575898 1.6038e-20)
(1.07772 -0.0585278 0)
(1.08082 -0.0594927 -2.91416e-20)
(1.08402 -0.0604858 0)
(1.08734 -0.0615088 0)
(1.09075 -0.0625605 0)
(1.09427 -0.0636412 -2.30007e-26)
(1.0979 -0.0647515 3.62554e-26)
(1.10165 -0.065893 -2.1528e-26)
(1.10556 -0.0670692 2.14971e-20)
(1.10959 -0.068279 0)
(0.827611 -0.272399 -2.50589e-20)
(0.812269 -0.270459 -3.38462e-24)
(0.80413 -0.267829 -3.81099e-26)
(0.823043 -0.270905 3.34676e-24)
(0.884653 -0.284501 0)
(0.979203 -0.305029 -3.17213e-20)
(1.22224 -0.370002 -1.60212e-20)
(1.39072 -0.486497 -1.45235e-20)
(0.941293 -0.462155 0)
(0.0413922 -0.0198346 3.40035e-20)
(-0.363685 0.426697 9.35814e-24)
(0.00881592 -0.0291013 2.28686e-20)
(0.0669692 -0.190627 1.0746e-20)
(-0.0701379 1.22853 0)
(0.221619 1.7099 0)
(-0.244931 -0.726763 1.48213e-23)
(-1.00662 -2.26232 -1.13682e-20)
(-0.466177 -0.670206 0)
(-0.0708331 -0.0558738 -2.54911e-20)
(-0.908258 -0.509273 -2.43659e-20)
(-0.244534 -0.115565 0)
(2.13684 0.207423 6.59891e-21)
(3.2143 -0.0456185 -4.39687e-22)
(2.82326 -0.151312 5.96513e-25)
(2.30108 -0.10529 -1.02353e-24)
(2.12245 -0.0793434 5.13241e-25)
(1.99899 -0.0617002 -4.91871e-25)
(1.98142 -0.0549269 3.28604e-27)
(2.02538 -0.0566063 2.57975e-26)
(2.08025 -0.0651244 0)
(2.09511 -0.072648 3.92067e-25)
(2.08344 -0.0771613 -3.73377e-25)
(2.04788 -0.0781773 0)
(1.99821 -0.0758493 -5.63456e-21)
(1.95775 -0.0723199 0)
(1.93427 -0.07002 5.02858e-21)
(1.92173 -0.0689535 3.61585e-27)
(1.91752 -0.0691342 2.71394e-25)
(1.91253 -0.0698777 8.27716e-21)
(1.9033 -0.070286 7.75143e-21)
(1.89161 -0.0703163 -6.47635e-27)
(1.8794 -0.0700229 -3.39225e-21)
(1.8694 -0.0697558 -8.00385e-27)
(1.86174 -0.06968 5.90919e-21)
(1.85558 -0.0697782 -3.39223e-25)
(1.84995 -0.0699598 0)
(1.84449 -0.0701357 2.90776e-25)
(1.83949 -0.07031 -5.47482e-25)
(1.83519 -0.0705097 5.11568e-25)
(1.83164 -0.070764 -7.83348e-21)
(1.82872 -0.0710706 7.32636e-21)
(1.82627 -0.071418 -2.10907e-25)
(1.82424 -0.0717982 -6.41671e-21)
(1.82265 -0.0722136 -1.85422e-25)
(1.82149 -0.0726675 -1.12688e-20)
(1.82073 -0.0731603 1.60022e-25)
(1.82035 -0.0736921 9.91913e-21)
(1.82029 -0.0742612 1.43313e-25)
(1.82055 -0.0748675 -8.75034e-21)
(1.82113 -0.0755121 8.22462e-21)
(1.82199 -0.0761952 1.15809e-25)
(1.82312 -0.0769166 -2.22065e-25)
(1.82452 -0.0776772 -1.36933e-20)
(1.82618 -0.0784767 -1.28939e-20)
(1.82809 -0.0793167 2.42955e-20)
(1.83023 -0.0801969 1.14492e-20)
(1.8326 -0.0811176 8.16042e-26)
(1.8352 -0.0820797 -1.47717e-27)
(1.83802 -0.0830835 -7.40548e-26)
(1.84103 -0.0841283 1.81533e-20)
(1.84425 -0.0852152 6.47915e-26)
(1.84767 -0.0863441 -6.24704e-26)
(1.85128 -0.0875151 1.53306e-20)
(1.85505 -0.0887282 -1.45061e-20)
(1.85903 -0.0899856 0)
(1.86321 -0.0912876 -1.30097e-20)
(1.86757 -0.0926344 -2.46628e-20)
(1.8721 -0.0940261 0)
(1.87681 -0.0954632 -2.22008e-20)
(1.88171 -0.0969475 -2.10852e-20)
(1.88677 -0.098478 -2.00405e-20)
(1.89201 -0.100055 3.59988e-26)
(1.89743 -0.101679 7.03176e-27)
(1.90302 -0.103351 -3.33159e-26)
(1.90881 -0.105072 3.29735e-20)
(1.91478 -0.106844 -1.57358e-20)
(1.92095 -0.108668 1.50336e-20)
(1.92729 -0.110544 5.48643e-26)
(1.93383 -0.112473 -5.25274e-26)
(1.94055 -0.114453 -1.31613e-26)
(1.9475 -0.116489 2.436e-26)
(1.95471 -0.118587 0)
(1.96214 -0.120745 0)
(1.45336 -0.478257 5.65075e-20)
(1.42868 -0.475546 2.98607e-20)
(1.41486 -0.471315 0)
(1.44525 -0.4763 -1.67015e-20)
(1.54636 -0.498532 1.74572e-20)
(1.70338 -0.533374 1.78404e-20)
(2.09805 -0.638949 0)
(2.38313 -0.83177 5.434e-24)
(1.67164 -0.807457 -7.9169e-24)
(0.150871 -0.0765337 2.2218e-23)
(-0.590032 0.692577 2.29937e-20)
(0.000735102 -0.0374451 5.93749e-24)
(0.0949556 -0.216013 -1.2031e-20)
(-0.100392 2.08712 0)
(0.335166 2.7575 0)
(-0.381357 -0.914891 -2.48603e-23)
(-1.38004 -3.09419 1.58974e-23)
(-0.726695 -1.07551 0)
(-0.157263 -0.128697 0)
(-1.23216 -0.690087 5.46662e-20)
(-0.140688 -0.129086 2.02822e-20)
(3.20777 0.285421 -3.63272e-21)
(4.61336 -0.070287 -1.81889e-24)
(4.06547 -0.210937 4.76574e-21)
(3.37074 -0.149415 -1.1791e-24)
(3.1242 -0.114766 2.36118e-21)
(2.95934 -0.0904839 2.2516e-21)
(2.93861 -0.0816335 -2.1248e-21)
(3.00017 -0.0844174 -1.98353e-21)
(3.07329 -0.0965804 1.88252e-21)
(3.09133 -0.107188 3.64296e-27)
(3.07227 -0.113523 -1.68393e-24)
(3.02048 -0.11488 3.3116e-21)
(2.95051 -0.111575 3.16745e-21)
(2.89394 -0.10662 -1.46368e-24)
(2.86092 -0.103411 6.70103e-25)
(2.84314 -0.101944 5.30884e-21)
(2.83655 -0.102229 -6.10983e-25)
(2.82865 -0.103294 -4.65993e-21)
(2.81487 -0.103874 -4.36446e-21)
(2.79773 -0.103919 -4.08828e-21)
(2.78 -0.103506 1.34759e-26)
(2.76544 -0.103137 -3.12731e-27)
(2.75414 -0.10304 -6.66029e-21)
(2.74499 -0.103191 -6.21346e-21)
(2.7366 -0.103461 0)
(2.72852 -0.103724 5.41361e-21)
(2.72114 -0.103987 4.85514e-27)
(2.71481 -0.104288 2.90821e-25)
(2.70962 -0.10467 -2.67657e-25)
(2.70534 -0.105129 -8.26659e-21)
(2.7018 -0.105648 0)
(2.69891 -0.106217 -7.24251e-21)
(2.69669 -0.106839 -6.78547e-21)
(2.69514 -0.107518 1.27213e-20)
(2.6942 -0.108257 1.19327e-20)
(2.69384 -0.109053 1.11998e-20)
(2.694 -0.109906 0)
(2.69465 -0.110815 -9.88139e-21)
(2.69578 -0.111782 2.69e-27)
(2.69736 -0.112806 -2.71973e-27)
(2.69937 -0.113889 -1.64344e-20)
(2.70181 -0.11503 -1.16988e-25)
(2.70464 -0.116231 2.91302e-20)
(2.70787 -0.117493 -2.74454e-20)
(2.71146 -0.118815 0)
(2.71541 -0.120199 -1.21957e-20)
(2.71971 -0.121645 0)
(2.72434 -0.123153 0)
(2.72931 -0.124725 1.03127e-26)
(2.73458 -0.126359 -1.93782e-20)
(2.74016 -0.128057 -1.8317e-20)
(2.74604 -0.129819 0)
(2.7522 -0.131646 0)
(2.75867 -0.133538 1.5519e-20)
(2.76545 -0.135499 5.66716e-26)
(2.7725 -0.137527 4.436e-26)
(2.77982 -0.139623 2.64341e-20)
(2.78743 -0.141789 0)
(2.79533 -0.144025 2.38281e-20)
(2.8035 -0.146332 4.36527e-26)
(2.81193 -0.14871 0)
(2.82064 -0.151159 -4.10155e-20)
(2.82962 -0.153681 3.69067e-26)
(2.83889 -0.156276 -1.86322e-20)
(2.84844 -0.158949 1.77834e-20)
(2.8583 -0.161701 -5.11246e-26)
(2.86843 -0.164532 3.24974e-20)
(2.87884 -0.167442 0)
(2.88952 -0.17043 2.98209e-20)
(2.90054 -0.173502 -5.41312e-26)
(2.91195 -0.176668 -2.749e-20)
(2.92369 -0.179923 0)
(2.14251 -0.704895 -3.17844e-20)
(2.10971 -0.702 -8.16808e-24)
(2.09023 -0.696393 0)
(2.13072 -0.703092 1.8789e-20)
(2.26867 -0.733273 -1.96291e-20)
(2.48586 -0.782564 9.85213e-24)
(3.01791 -0.925023 0)
(3.41998 -1.1913 1.81773e-20)
(2.4902 -1.18302 -1.72965e-20)
(0.347236 -0.179448 -2.1129e-20)
(-0.790383 0.932395 3.26304e-24)
(-0.0229253 -0.0287095 -2.86782e-20)
(0.108211 -0.140446 -8.03494e-24)
(-0.112297 2.93956 2.60821e-21)
(0.413829 3.69867 8.03865e-24)
(-0.538177 -1.00617 1.0648e-20)
(-1.71727 -3.83197 -4.65931e-23)
(-1.02205 -1.55213 -2.89673e-20)
(-0.289383 -0.24559 -3.12515e-23)
(-1.50704 -0.848653 2.76267e-23)
(0.130949 -0.114608 -2.21909e-20)
(4.40578 0.356726 -3.96134e-21)
(6.05246 -0.0979784 2.15405e-24)
(5.35863 -0.268282 -1.05022e-20)
(4.5251 -0.194131 4.01547e-26)
(4.21699 -0.15215 -5.25229e-21)
(4.01882 -0.121784 -2.50865e-21)
(3.99784 -0.111336 0)
(4.0758 -0.115449 2.2135e-21)
(4.16338 -0.131301 -2.09965e-21)
(4.18214 -0.144958 -9.83258e-25)
(4.15383 -0.15308 -3.85016e-21)
(4.08503 -0.154745 -3.08357e-26)
(3.99532 -0.150484 -3.54173e-21)
(3.92334 -0.144142 -8.16721e-25)
(3.88097 -0.140062 -6.33494e-21)
(3.85787 -0.138222 -5.9477e-21)
(3.84833 -0.138628 -6.76305e-25)
(3.83686 -0.140021 6.41725e-25)
(3.81799 -0.140774 0)
(3.79497 -0.140838 0)
(3.77143 -0.140314 8.09739e-27)
(3.75203 -0.13985 -1.60304e-20)
(3.73685 -0.139743 -4.53067e-25)
(3.72442 -0.139958 6.98235e-21)
(3.71303 -0.140331 6.51748e-21)
(3.70214 -0.140695 -1.21721e-20)
(3.69225 -0.141063 5.68644e-21)
(3.68381 -0.141485 0)
(3.67693 -0.142015 9.94216e-21)
(3.67132 -0.14265 9.30094e-21)
(3.66674 -0.143367 0)
(3.6631 -0.144154 8.15118e-21)
(3.66041 -0.145014 2.35009e-25)
(3.65867 -0.145953 0)
(3.6578 -0.146974 -1.34357e-20)
(3.65775 -0.148075 -2.52241e-20)
(3.65845 -0.149254 1.79299e-25)
(3.65987 -0.150512 1.11293e-20)
(3.66197 -0.15185 5.8836e-27)
(3.66473 -0.153268 9.83961e-21)
(3.66812 -0.154768 1.85151e-20)
(3.67211 -0.156349 -1.34158e-25)
(3.67669 -0.158013 -1.64108e-20)
(3.68182 -0.159761 1.54624e-20)
(3.68751 -0.161594 -1.45744e-20)
(3.69371 -0.163513 1.37429e-20)
(3.70041 -0.165519 1.29659e-20)
(3.70761 -0.167612 -1.88583e-25)
(3.71527 -0.169793 -4.62304e-20)
(3.72339 -0.172061 -1.94977e-26)
(3.73196 -0.174419 2.06436e-20)
(3.74096 -0.176865 1.95235e-20)
(3.75038 -0.179403 0)
(3.76024 -0.182032 1.72576e-26)
(3.77053 -0.184757 0)
(3.78123 -0.187576 1.57053e-20)
(3.79233 -0.19049 -5.95838e-20)
(3.80384 -0.193502 -1.09005e-25)
(3.81576 -0.196612 0)
(3.82807 -0.199822 0)
(3.84076 -0.203131 2.42774e-20)
(3.85384 -0.20654 2.31105e-20)
(3.8673 -0.21005 0)
(3.88117 -0.213663 0)
(3.89544 -0.217385 0)
(3.91014 -0.221218 -3.82878e-20)
(3.92521 -0.22516 -3.66156e-20)
(3.94065 -0.229212 0)
(3.95648 -0.233373 0)
(3.97275 -0.237651 -6.09839e-26)
(3.98955 -0.242057 1.46401e-26)
(4.00677 -0.246587 -5.63899e-26)
(2.89355 -0.951826 0)
(2.85451 -0.949523 0)
(2.8298 -0.942916 1.99654e-20)
(2.8785 -0.951049 -4.20242e-20)
(3.04883 -0.988054 -1.0592e-23)
(3.32133 -1.05131 1.09703e-23)
(3.9694 -1.22513 1.01437e-23)
(4.48305 -1.55915 -2.01703e-20)
(3.39329 -1.58483 1.89455e-20)
(0.652638 -0.340416 -2.32628e-20)
(-0.950975 1.13029 5.47012e-23)
(-0.06567 0.00554001 3.19241e-20)
(0.101361 0.0471436 1.4747e-20)
(-0.101437 3.73141 -2.84085e-21)
(0.448298 4.48319 0)
(-0.715156 -0.988314 -1.10763e-20)
(-2.0086 -4.44048 0)
(-1.33391 -2.07591 3.13733e-20)
(-0.472918 -0.414224 0)
(-1.71361 -0.975745 -3.43134e-20)
(0.607839 -0.0672619 -2.38803e-20)
(5.72084 0.417896 4.22564e-21)
(7.50881 -0.12787 4.36813e-24)
(6.69101 -0.322204 5.70773e-21)
(5.75936 -0.238998 -2.88134e-21)
(5.39957 -0.191298 1.73317e-24)
(5.17828 -0.155635 2.76558e-21)
(5.15984 -0.144112 0)
(5.25165 -0.149722 -2.44666e-21)
(5.34862 -0.169211 2.72044e-27)
(5.36513 -0.185818 -1.09291e-24)
(5.32576 -0.195661 4.26722e-21)
(5.2397 -0.197617 -4.1014e-21)
(5.13164 -0.192468 3.92907e-21)
(5.04553 -0.184825 1.81391e-24)
(4.99427 -0.179937 7.042e-21)
(4.96583 -0.177764 -3.23e-24)
(4.95264 -0.178302 1.52457e-24)
(4.93682 -0.180025 0)
(4.91231 -0.180953 -5.45576e-21)
(4.88308 -0.181044 0)
(4.85355 -0.180421 4.78683e-21)
(4.82914 -0.179879 1.78875e-20)
(4.80986 -0.179778 -8.35299e-21)
(4.79395 -0.180075 9.59947e-25)
(4.77939 -0.180567 -2.40608e-27)
(4.76561 -0.181053 6.80336e-21)
(4.7532 -0.181549 -1.14013e-27)
(4.7427 -0.182116 1.1892e-20)
(4.73423 -0.182823 -1.11238e-20)
(4.72744 -0.183663 -1.04098e-20)
(4.72203 -0.184611 0)
(4.7179 -0.185652 0)
(4.71507 -0.186789 0)
(4.71351 -0.18803 1.60424e-20)
(4.71315 -0.189379 1.5052e-20)
(4.7139 -0.190834 1.4132e-20)
(4.71568 -0.192392 -4.08462e-25)
(4.71846 -0.194055 0)
(4.72219 -0.195823 -1.17266e-20)
(4.72683 -0.197699 1.10298e-20)
(4.73232 -0.199682 -2.07558e-20)
(4.73865 -0.201773 -2.95528e-25)
(4.74579 -0.203975 -1.83983e-20)
(4.75371 -0.206288 -2.62171e-25)
(4.76238 -0.208714 1.63408e-20)
(4.77178 -0.211255 2.37379e-25)
(4.78187 -0.21391 -1.45372e-20)
(4.79265 -0.216682 0)
(4.80408 -0.219571 -3.84344e-26)
(4.81614 -0.222577 2.44847e-20)
(4.82882 -0.225701 1.78375e-25)
(4.84211 -0.228944 3.44993e-26)
(4.85598 -0.232309 -2.07092e-20)
(4.87045 -0.235797 -1.9606e-20)
(4.88551 -0.23941 1.43181e-25)
(4.90114 -0.24315 1.32944e-25)
(4.91732 -0.247018 6.67743e-20)
(4.93404 -0.251015 0)
(4.95133 -0.255144 1.13633e-25)
(4.96915 -0.259405 -1.10233e-25)
(4.98749 -0.263799 5.29698e-26)
(5.00635 -0.268326 0)
(5.02572 -0.272988 2.46601e-20)
(5.04561 -0.277786 -2.35118e-20)
(5.06606 -0.282729 8.6448e-26)
(5.08704 -0.287821 2.14322e-20)
(5.10851 -0.293057 4.09868e-20)
(5.13046 -0.298437 7.5533e-26)
(5.1529 -0.303963 0)
(5.1759 -0.309642 -3.60687e-20)
(5.19954 -0.31549 -8.38633e-26)
(5.22367 -0.321497 -3.33192e-20)
(3.70341 -1.21806 0)
(3.66068 -1.2173 4.19287e-20)
(3.63169 -1.21026 -4.45185e-20)
(3.68641 -1.21952 2.34145e-20)
(3.88301 -1.26184 -2.37144e-23)
(4.2033 -1.33789 2.36206e-23)
(4.94022 -1.53611 -2.42371e-23)
(5.55265 -1.92906 4.43388e-20)
(4.37099 -2.00658 -2.05553e-20)
(1.08928 -0.570708 2.51446e-20)
(-1.05615 1.27231 2.21602e-23)
(-0.128915 0.0723607 -7.36115e-23)
(0.0790225 0.346832 -1.59704e-20)
(-0.0675474 4.42046 0)
(0.427605 5.05558 -2.05106e-23)
(-0.91491 -0.869467 1.1206e-20)
(-2.24744 -4.90169 1.68662e-20)
(-1.63278 -2.60481 -3.35125e-20)
(-0.706703 -0.637101 -1.50818e-22)
(-1.82932 -1.06746 3.80831e-20)
(1.32633 0.0177396 2.49756e-20)
(7.13206 0.465306 0)
(8.96063 -0.158684 0)
(8.05206 -0.371948 6.08875e-21)
(7.06564 -0.283643 3.09701e-21)
(6.66746 -0.231977 3.1261e-21)
(6.43426 -0.191986 -2.20273e-25)
(6.42041 -0.179891 2.75522e-24)
(6.52196 -0.187075 2.66144e-21)
(6.62225 -0.210048 2.47496e-24)
(6.63325 -0.229442 9.73984e-27)
(6.58131 -0.240922 -2.26872e-24)
(6.47864 -0.243187 4.48757e-21)
(6.35448 -0.237275 2.09797e-24)
(6.2561 -0.228463 -4.0914e-21)
(6.19669 -0.222855 -7.73741e-21)
(6.16288 -0.220395 7.27499e-21)
(6.14527 -0.221073 1.65701e-24)
(6.12432 -0.223123 -1.57439e-24)
(6.09371 -0.22423 6.01425e-21)
(6.05806 -0.224364 -5.6417e-21)
(6.02256 -0.223665 -1.28051e-24)
(5.99311 -0.223071 -9.88273e-21)
(5.96965 -0.222999 2.27219e-26)
(5.95017 -0.2234 8.62738e-21)
(5.93243 -0.224036 -8.06016e-21)
(5.91582 -0.224672 -7.53445e-21)
(5.90106 -0.225326 -7.04577e-21)
(5.88875 -0.226072 -2.63641e-20)
(5.87898 -0.226992 -1.23355e-20)
(5.87136 -0.228077 0)
(5.86556 -0.229299 0)
(5.86143 -0.230638 -6.13608e-25)
(5.85901 -0.2321 -9.49633e-21)
(5.85826 -0.233697 -1.78158e-20)
(5.85909 -0.235429 -1.67183e-20)
(5.86139 -0.237297 1.56979e-20)
(5.86507 -0.239298 1.47479e-20)
(5.87006 -0.241432 -4.26534e-25)
(5.87632 -0.243703 -1.30308e-20)
(5.88379 -0.24611 2.31275e-26)
(5.89241 -0.248656 3.03966e-25)
(5.90215 -0.25134 -5.86289e-27)
(5.91296 -0.254166 2.04446e-20)
(5.92483 -0.257136 -1.92634e-20)
(5.9377 -0.260252 0)
(5.95154 -0.263514 0)
(5.96631 -0.266924 -1.61495e-20)
(5.982 -0.270484 -1.52412e-20)
(5.99855 -0.274195 -6.9899e-26)
(6.01594 -0.278056 2.71885e-20)
(6.03416 -0.28207 3.92161e-25)
(6.05319 -0.286238 5.97342e-26)
(6.073 -0.290562 2.29827e-20)
(6.09361 -0.295046 1.67704e-25)
(6.11498 -0.299691 -1.55599e-25)
(6.13709 -0.304499 -1.95207e-20)
(6.15992 -0.309471 -3.70169e-20)
(6.18348 -0.31461 -3.51197e-20)
(6.20775 -0.319919 0)
(6.23271 -0.325398 0)
(6.25833 -0.331047 -6.02352e-20)
(6.28461 -0.336868 2.86573e-20)
(6.31153 -0.342861 -2.72905e-20)
(6.33911 -0.34903 2.60111e-20)
(6.36736 -0.355384 -1.91206e-25)
(6.39627 -0.361926 0)
(6.42577 -0.368653 -4.52938e-20)
(6.45583 -0.375563 1.66876e-25)
(6.48646 -0.382658 0)
(6.51775 -0.389947 -3.08033e-25)
(6.54979 -0.397448 3.82248e-20)
(6.58233 -0.405145 3.67474e-20)
(4.56688 -1.50193 4.39383e-20)
(4.52349 -1.50379 -4.63201e-20)
(4.49186 -1.49707 4.91561e-20)
(4.55045 -1.50721 1.19347e-25)
(4.76598 -1.55308 -2.41285e-25)
(5.12411 -1.64006 -6.53222e-25)
(5.91932 -1.85498 -2.62598e-23)
(6.60959 -2.29528 2.91092e-23)
(5.40558 -2.43932 2.17142e-20)
(1.67536 -0.878823 2.67213e-20)
(-1.07952 1.34291 -3.58559e-20)
(-0.212766 0.17989 -3.92256e-20)
(0.0445917 0.745485 0)
(-0.0125774 4.98503 3.25696e-21)
(0.346666 5.36902 9.6953e-21)
(-1.14206 -0.68902 -1.1075e-20)
(-2.43317 -5.20364 -1.80302e-20)
(-1.88832 -3.09339 7.07782e-20)
(-0.977829 -0.907842 0)
(-1.81885 -1.1218 -4.15448e-20)
(2.31101 0.139725 -2.19287e-23)
(8.60254 0.496164 -4.46907e-21)
(10.3898 -0.189214 6.60783e-22)
(9.43133 -0.417163 -6.35135e-21)
(8.43122 -0.327683 0)
(8.01054 -0.27385 0)
(7.77615 -0.2306 -3.20564e-21)
(7.76759 -0.218358 3.04813e-21)
(7.87333 -0.227082 -2.84664e-21)
(7.97045 -0.253282 0)
(7.97276 -0.275251 0)
(7.90746 -0.288278 -2.45405e-24)
(7.78979 -0.290916 2.31863e-24)
(7.65262 -0.284425 0)
(7.54433 -0.274618 8.82147e-21)
(7.47776 -0.268404 -8.35305e-21)
(7.43856 -0.265707 -7.871e-21)
(7.41574 -0.266529 -7.39323e-21)
(7.38894 -0.268901 1.70692e-24)
(7.35197 -0.270194 6.52731e-21)
(7.30996 -0.270398 7.323e-27)
(7.26871 -0.269662 5.74616e-21)
(7.23441 -0.269052 1.30321e-24)
(7.20692 -0.269044 1.00611e-20)
(7.18399 -0.269581 -9.40798e-21)
(7.16328 -0.270395 8.79819e-21)
(7.14419 -0.271218 8.22598e-21)
(7.12751 -0.272072 -7.6991e-21)
(7.11388 -0.273042 8.68263e-25)
(7.10338 -0.274221 1.34937e-20)
(7.09557 -0.275601 -1.26375e-20)
(7.09006 -0.277148 0)
(7.08671 -0.278842 0)
(7.08556 -0.28069 1.04037e-20)
(7.08652 -0.282703 0)
(7.0895 -0.284886 -1.83195e-20)
(7.09437 -0.287236 -4.83386e-25)
(7.10102 -0.289753 -1.6162e-20)
(7.10936 -0.292436 -4.598e-25)
(7.11934 -0.295288 8.2946e-25)
(7.13087 -0.298312 -3.72196e-25)
(7.1439 -0.301509 5.05444e-20)
(7.15835 -0.304879 -7.32397e-25)
(7.17421 -0.308426 2.23934e-20)
(7.19143 -0.312153 2.10941e-20)
(7.20993 -0.316062 0)
(7.22967 -0.320154 0)
(7.25061 -0.324432 1.76672e-20)
(7.27272 -0.328897 1.66688e-20)
(7.29595 -0.33355 6.29285e-20)
(7.32025 -0.338393 1.18044e-25)
(7.3456 -0.343426 -2.80637e-20)
(7.37197 -0.348651 -2.65219e-20)
(7.39934 -0.354072 2.50768e-20)
(7.4277 -0.359692 2.37218e-20)
(7.457 -0.365514 -3.39157e-25)
(7.48722 -0.371538 2.12625e-20)
(7.51834 -0.377768 -3.1067e-25)
(7.55035 -0.384206 3.82032e-20)
(7.58323 -0.390855 -2.79451e-25)
(7.61693 -0.397715 -2.59916e-25)
(7.65142 -0.404787 6.53869e-20)
(7.68667 -0.412071 -3.10853e-20)
(7.72268 -0.419568 2.95803e-20)
(7.75945 -0.427283 2.17116e-25)
(7.79698 -0.435224 0)
(7.83524 -0.443396 0)
(7.87415 -0.451795 4.89372e-20)
(7.91366 -0.460418 0)
(7.95378 -0.469265 0)
(7.99459 -0.478349 4.29061e-20)
(8.03617 -0.487688 1.55784e-25)
(8.07822 -0.497261 -1.52045e-25)
(5.47603 -1.8009 2.58484e-23)
(5.43527 -1.80647 -2.46065e-23)
(5.4033 -1.80104 -2.67765e-20)
(5.46399 -1.81194 2.79628e-20)
(5.69063 -1.85956 0)
(6.07477 -1.95501 0)
(6.89757 -2.17902 2.826e-20)
(7.63755 -2.65318 1.80157e-23)
(6.4711 -2.86978 2.26796e-20)
(2.41701 -1.26254 -2.73415e-20)
(-0.991217 1.31167 -7.89537e-23)
(-0.315652 0.335103 8.17548e-23)
(0.000822054 1.22355 -1.81164e-20)
(0.0540558 5.44968 -3.43263e-21)
(0.203226 5.40671 -9.96207e-21)
(-1.40097 -0.498581 0)
(-2.56458 -5.32787 7.86976e-23)
(-2.08347 -3.51217 -3.68404e-20)
(-1.26195 -1.21026 -4.68064e-20)
(-1.63479 -1.11569 4.38431e-20)
(3.54975 0.292078 -2.14201e-23)
(10.0904 0.505611 -1.23791e-23)
(11.7828 -0.218674 -1.35657e-21)
(10.8161 -0.457603 6.45481e-21)
(9.83699 -0.370617 0)
(9.41057 -0.316378 0)
(9.18368 -0.270948 3.32728e-21)
(9.17949 -0.258871 -3.17462e-21)
(9.28306 -0.268993 2.97435e-21)
(9.37086 -0.298081 2.8341e-21)
(9.36185 -0.322371 -5.34637e-24)
(9.2833 -0.336862 -3.9026e-26)
(9.15323 -0.339981 4.90838e-24)
(9.00664 -0.333137 0)
(8.89108 -0.322546 -9.311e-21)
(8.81844 -0.315856 1.76693e-20)
(8.77387 -0.312978 -4.09326e-24)
(8.74517 -0.313946 -3.87022e-24)
(8.71206 -0.316638 7.38254e-21)
(8.66873 -0.318134 -3.34485e-24)
(8.62073 -0.318449 4.52124e-26)
(8.5743 -0.317728 -6.12546e-21)
(8.53564 -0.317155 4.34681e-26)
(8.50452 -0.317258 2.64652e-24)
(8.47859 -0.317974 0)
(8.45544 -0.319012 -9.41566e-21)
(8.43452 -0.320073 -8.82018e-21)
(8.41668 -0.321181 8.25525e-21)
(8.40257 -0.322431 3.73821e-24)
(8.39223 -0.323928 -1.44874e-20)
(8.38516 -0.325661 1.35711e-20)
(8.38094 -0.327596 1.56544e-24)
(8.37944 -0.329711 0)
(8.38066 -0.33201 -1.11816e-20)
(8.3845 -0.334511 2.09805e-20)
(8.39084 -0.337216 1.96939e-20)
(8.39952 -0.340125 -1.84918e-20)
(8.41041 -0.343234 0)
(8.42342 -0.346546 -9.88161e-25)
(8.43845 -0.350064 3.06832e-20)
(8.45542 -0.35379 -2.88471e-20)
(8.47423 -0.357725 -2.71276e-20)
(8.49481 -0.361872 0)
(8.51712 -0.366234 1.23387e-25)
(8.54111 -0.370815 -2.26069e-20)
(8.56667 -0.375616 -2.12879e-20)
(8.59375 -0.38064 -6.06303e-25)
(8.62229 -0.385889 1.15347e-24)
(8.65226 -0.391365 -5.48897e-25)
(8.68358 -0.397069 -6.71845e-20)
(8.71619 -0.403003 -3.16884e-20)
(8.75004 -0.409168 2.99049e-20)
(8.78511 -0.415565 0)
(8.82136 -0.422199 -2.66664e-20)
(8.85877 -0.429073 -2.51981e-20)
(8.89726 -0.436189 0)
(8.93682 -0.44355 0)
(8.9774 -0.451158 0)
(9.01896 -0.459015 -4.03869e-20)
(9.06149 -0.467124 2.8903e-25)
(9.10492 -0.475486 3.62825e-20)
(9.1492 -0.4841 2.74938e-25)
(9.19429 -0.492966 -3.26875e-20)
(9.24015 -0.502084 -6.21217e-20)
(9.2868 -0.51146 -2.2321e-25)
(9.33421 -0.521103 -2.81158e-20)
(9.38235 -0.531017 2.02481e-25)
(9.43108 -0.541197 -5.10886e-20)
(9.48037 -0.551637 1.8779e-25)
(9.53021 -0.56234 1.76295e-25)
(9.58066 -0.573317 -4.45927e-20)
(9.63181 -0.584587 -4.27144e-20)
(9.6833 -0.596125 -4.09678e-20)
(6.41957 -2.11136 -5.17325e-20)
(6.38474 -2.12167 -5.29466e-23)
(6.3552 -2.1186 -5.64831e-23)
(6.41696 -2.13037 -2.99512e-20)
(6.64734 -2.17817 5.99832e-23)
(7.04473 -2.27926 5.8384e-23)
(7.86745 -2.50571 -2.95898e-20)
(8.6251 -2.99944 -2.74127e-20)
(7.53691 -3.28481 -2.30555e-20)
(3.30962 -1.71537 -2.73404e-20)
(-0.769252 1.16468 -4.16043e-20)
(-0.43197 0.536089 0)
(-0.0442862 1.76512 -3.61238e-23)
(0.120521 5.84838 -3.16338e-23)
(0.0109087 5.20937 0)
(-1.69145 -0.329794 1.96516e-20)
(-2.63958 -5.27556 -9.62587e-23)
(-2.21062 -3.84582 0)
(-1.52818 -1.52705 4.97455e-20)
(-1.24714 -1.05653 -1.59156e-22)
(5.01192 0.453836 -2.34612e-20)
(11.5612 0.496359 4.26015e-21)
(13.1289 -0.246822 6.79796e-22)
(12.1895 -0.493122 -6.39075e-21)
(11.2574 -0.411761 -3.19155e-24)
(10.8406 -0.35876 0)
(10.6267 -0.312166 -3.36735e-21)
(10.6246 -0.300462 3.23041e-21)
(10.7198 -0.311765 -3.02855e-21)
(10.7933 -0.343336 -5.08739e-24)
(10.7712 -0.369662 5.4417e-24)
(10.6805 -0.385542 5.36618e-21)
(10.5412 -0.389278 -5.18444e-21)
(10.3888 -0.382332 5.00364e-21)
(10.2685 -0.371187 4.78633e-21)
(10.1909 -0.364165 -1.7913e-25)
(10.1411 -0.361165 0)
(10.1061 -0.362288 -4.0449e-24)
(10.0665 -0.365301 -7.64552e-21)
(10.0172 -0.367028 -7.20546e-21)
(9.96393 -0.367508 6.78478e-21)
(9.91319 -0.366871 0)
(9.871 -0.366403 0)
(9.83703 -0.366677 -2.71895e-24)
(9.80887 -0.367629 2.58908e-24)
(9.78416 -0.368949 2.38689e-24)
(9.76242 -0.37031 -4.54165e-24)
(9.74451 -0.371738 8.65231e-21)
(9.73106 -0.373334 1.62133e-20)
(9.72205 -0.375214 3.03892e-20)
(9.71692 -0.377369 2.75309e-26)
(9.71525 -0.379759 1.64314e-24)
(9.71685 -0.382361 0)
(9.72172 -0.385182 -6.58398e-26)
(9.72973 -0.388239 -2.20209e-20)
(9.74071 -0.391537 -2.52309e-24)
(9.75449 -0.395074 1.93979e-20)
(9.77091 -0.398847 0)
(9.78983 -0.402859 0)
(9.81116 -0.407114 -1.60618e-20)
(9.83477 -0.411613 1.50894e-20)
(9.86055 -0.416359 0)
(9.88842 -0.421355 0)
(9.9183 -0.426603 -5.01032e-20)
(9.95013 -0.432108 2.3558e-20)
(9.98377 -0.437872 4.43115e-20)
(10.0191 -0.443897 -6.30219e-25)
(10.0562 -0.450185 1.96136e-20)
(10.0949 -0.45674 -5.58109e-25)
(10.135 -0.463562 2.30016e-25)
(10.1766 -0.470651 4.94841e-25)
(10.2196 -0.478009 3.08518e-20)
(10.2639 -0.485638 0)
(10.3095 -0.493541 0)
(10.3563 -0.501722 0)
(10.4042 -0.510183 -2.44029e-20)
(10.4532 -0.518927 -3.55257e-25)
(10.5033 -0.527954 -4.35231e-20)
(10.5543 -0.537267 8.22631e-20)
(10.6063 -0.546868 0)
(10.6591 -0.556758 -3.68022e-20)
(10.7127 -0.566933 4.24793e-25)
(10.767 -0.577394 3.30164e-20)
(10.822 -0.58814 3.13079e-20)
(10.8776 -0.599176 2.97109e-20)
(10.9339 -0.610511 2.82174e-20)
(10.9908 -0.622151 -2.68257e-20)
(11.0481 -0.634086 3.8602e-25)
(11.1058 -0.646312 -3.74525e-25)
(11.1638 -0.658828 4.63804e-20)
(11.2223 -0.671646 4.42774e-20)
(11.2813 -0.684788 4.23246e-20)
(11.3404 -0.698223 4.05107e-20)
(7.35693 -2.44454 -5.65767e-23)
(7.33283 -2.44491 5.89522e-23)
(7.39541 -2.45789 3.13818e-20)
(7.62352 -2.50476 6.25796e-23)
(8.02172 -2.60867 3.13591e-20)
(8.82203 -2.8324 0)
(9.56613 -3.33242 5.39271e-23)
(8.57952 -3.67612 2.3083e-20)
(4.33466 -2.2207 2.64099e-20)
(-0.393472 0.902399 8.51958e-20)
(-0.541347 0.771082 5.30794e-20)
(-0.0858884 2.34475 1.89716e-20)
(0.184792 6.1513 -2.65181e-25)
(-0.229777 4.9235 -4.08975e-23)
(-2.01659 -0.182862 -3.55155e-20)
(-2.67575 -5.09124 0)
(-2.26758 -4.08003 0)
(-1.74609 -1.83328 -5.15712e-20)
(-0.638846 -0.94797 -4.26728e-20)
(6.65037 0.61595 2.13885e-20)
(12.99 0.464988 4.06412e-21)
(14.4181 -0.272993 2.01348e-23)
(13.5313 -0.523563 0)
(12.663 -0.450286 0)
(12.2675 -0.399994 6.57574e-24)
(12.069 -0.353142 -6.50827e-24)
(12.0661 -0.341947 -3.19435e-21)
(12.1478 -0.354184 0)