/*--------------------------------*- C++ -*----------------------------------*\
| =========                 |                                                 |
| \\      /  F ield         | OpenFOAM: The Open Source CFD Toolbox           |
|  \\    /   O peration     | Version:  2412                                  |
|   \\  /    A nd           | Website:  www.openfoam.com                      |
|    \\/     M anipulation  |                                                 |
\*---------------------------------------------------------------------------*/
FoamFile
{
    version     2.0;
    format      ascii;
    arch        "LSB;label=32;scalar=64";
    class       volScalarField;
    location    "180";
    object      nut;
}
// * * * * * * * * * * * * * * * * * * * * * * * * * * * * * * * * * * * * * //

dimensions      [0 2 -1 0 0 0 0];

internalField   nonuniform List<scalar> 
7387
(
3.10327e-12
3.01158e-12
2.92244e-12
2.83569e-12
2.75078e-12
2.66782e-12
2.58684e-12
2.50779e-12
2.43068e-12
2.35551e-12
2.28234e-12
2.21125e-12
2.1418e-12
2.07429e-12
2.00912e-12
1.94615e-12
1.88528e-12
1.82657e-12
1.7702e-12
1.71634e-12
1.66483e-12
1.6156e-12
1.56889e-12
1.5245e-12
1.48248e-12
1.44291e-12
1.4055e-12
1.37026e-12
1.3372e-12
1.30624e-12
1.27727e-12
1.25017e-12
1.22497e-12
1.20152e-12
1.17974e-12
1.15955e-12
1.14087e-12
1.12363e-12
1.10781e-12
1.09327e-12
1.07994e-12
1.06794e-12
1.05722e-12
1.04755e-12
1.03866e-12
1.03063e-12
1.02401e-12
1.01957e-12
1.01724e-12
1.01525e-12
1.01218e-12
1.00743e-12
1.00476e-12
1.00933e-12
1.02405e-12
1.05024e-12
1.07844e-12
1.09812e-12
1.1069e-12
1.09926e-12
1.087e-12
1.10388e-12
1.17277e-12
1.3137e-12
1.58839e-12
2.09035e-12
2.29711e-12
1.43646e-12
2.66212e-13
5.69047e-14
1.33858e-14
7.09977e-14
2.98318e-10
2.89477e-10
2.80886e-10
2.72519e-10
2.64341e-10
2.56349e-10
2.48539e-10
2.4092e-10
2.33493e-10
2.26251e-10
2.19194e-10
2.12323e-10
2.0563e-10
1.99129e-10
1.92838e-10
1.86756e-10
1.80875e-10
1.75206e-10
1.6976e-10
1.64549e-10
1.59563e-10
1.54795e-10
1.50267e-10
1.45964e-10
1.41888e-10
1.38039e-10
1.34402e-10
1.30978e-10
1.27762e-10
1.24746e-10
1.21925e-10
1.19283e-10
1.1682e-10
1.14529e-10
1.12397e-10
1.10419e-10
1.08589e-10
1.06897e-10
1.05339e-10
1.03905e-10
1.02591e-10
1.01401e-10
1.00335e-10
9.93724e-11
9.84875e-11
9.76841e-11
9.70152e-11
9.65515e-11
9.62854e-11
9.6059e-11
9.57403e-11
9.52737e-11
9.49975e-11
9.53798e-11
9.66918e-11
9.90465e-11
1.01603e-10
1.03418e-10
1.04252e-10
1.03619e-10
1.02562e-10
1.04081e-10
1.10248e-10
1.22854e-10
1.4709e-10
1.89707e-10
2.07695e-10
1.35278e-10
2.67281e-11
5.16438e-12
1.28285e-12
6.93368e-12
2.92552e-09
2.83841e-09
2.75378e-09
2.67134e-09
2.59081e-09
2.51213e-09
2.43527e-09
2.36026e-09
2.28712e-09
2.21583e-09
2.14631e-09
2.07856e-09
2.01262e-09
1.94856e-09
1.88649e-09
1.82641e-09
1.76831e-09
1.71228e-09
1.65842e-09
1.60676e-09
1.55728e-09
1.50999e-09
1.46498e-09
1.42218e-09
1.38159e-09
1.34318e-09
1.30689e-09
1.2727e-09
1.24052e-09
1.2103e-09
1.182e-09
1.15548e-09
1.1307e-09
1.1076e-09
1.08608e-09
1.06607e-09
1.04752e-09
1.03034e-09
1.01446e-09
9.99819e-10
9.86364e-10
9.7412e-10
9.63098e-10
9.53106e-10
9.43912e-10
9.35544e-10
9.2846e-10
9.23291e-10
9.19979e-10
9.17179e-10
9.13684e-10
9.08967e-10
9.05954e-10
9.08785e-10
9.19954e-10
9.40385e-10
9.62935e-10
9.79434e-10
9.87379e-10
9.82798e-10
9.74317e-10
9.87573e-10
1.04083e-09
1.14957e-09
1.35456e-09
1.69445e-09
1.84298e-09
1.27497e-09
2.88791e-10
4.66992e-11
1.28646e-11
7.3674e-11
1.44643e-08
1.40311e-08
1.36101e-08
1.32002e-08
1.27998e-08
1.24086e-08
1.20268e-08
1.16541e-08
1.12906e-08
1.09362e-08
1.05904e-08
1.02536e-08
9.92557e-09
9.60664e-09
9.29726e-09
8.9975e-09
8.70752e-09
8.42757e-09
8.15808e-09
7.89914e-09
7.65083e-09
7.4133e-09
7.18676e-09
6.9711e-09
6.76629e-09
6.57225e-09
6.38871e-09
6.21545e-09
6.05218e-09
5.89862e-09
5.75445e-09
5.61919e-09
5.49259e-09
5.37427e-09
5.26382e-09
5.16089e-09
5.06516e-09
4.9763e-09
4.89396e-09
4.81783e-09
4.74758e-09
4.68336e-09
4.62517e-09
4.5722e-09
4.5234e-09
4.47881e-09
4.44042e-09
4.41088e-09
4.39005e-09
4.3724e-09
4.35261e-09
4.32828e-09
4.31136e-09
4.31961e-09
4.36422e-09
4.44873e-09
4.54429e-09
4.61703e-09
4.65408e-09
4.64057e-09
4.61004e-09
4.66628e-09
4.88717e-09
5.33776e-09
6.16693e-09
7.43949e-09
8.00631e-09
5.91604e-09
1.62462e-09
2.10489e-10
6.70422e-11
4.22373e-10
5.1161e-08
4.96187e-08
4.81201e-08
4.66609e-08
4.52361e-08
4.3844e-08
4.24852e-08
4.11593e-08
3.9866e-08
3.86044e-08
3.73739e-08
3.61745e-08
3.50061e-08
3.38692e-08
3.2765e-08
3.1694e-08
3.06569e-08
2.96545e-08
2.86879e-08
2.77578e-08
2.68646e-08
2.60086e-08
2.51906e-08
2.44109e-08
2.36691e-08
2.29653e-08
2.22985e-08
2.1668e-08
2.1073e-08
2.05122e-08
1.99847e-08
1.9489e-08
1.90242e-08
1.85886e-08
1.8181e-08
1.78002e-08
1.74451e-08
1.71147e-08
1.68076e-08
1.65227e-08
1.62589e-08
1.60166e-08
1.57956e-08
1.55935e-08
1.54071e-08
1.52362e-08
1.50866e-08
1.49659e-08
1.48743e-08
1.4796e-08
1.47151e-08
1.4624e-08
1.45556e-08
1.4562e-08
1.46778e-08
1.4912e-08
1.51863e-08
1.54052e-08
1.55238e-08
1.55061e-08
1.54397e-08
1.56071e-08
1.62333e-08
1.75085e-08
1.97912e-08
2.29571e-08
2.4333e-08
1.91182e-08
6.56099e-09
6.83084e-10
2.58693e-10
1.81363e-09
1.48241e-07
1.43745e-07
1.39375e-07
1.35119e-07
1.30965e-07
1.26906e-07
1.22945e-07
1.1908e-07
1.15309e-07
1.11631e-07
1.08044e-07
1.04545e-07
1.01135e-07
9.78138e-08
9.4585e-08
9.14502e-08
8.84107e-08
8.54684e-08
8.26262e-08
7.98868e-08
7.72515e-08
7.47216e-08
7.22997e-08
6.99861e-08
6.77812e-08
6.56854e-08
6.36967e-08
6.18133e-08
6.00325e-08
5.83512e-08
5.67668e-08
5.52755e-08
5.38736e-08
5.25574e-08
5.1323e-08
5.01671e-08
4.90865e-08
4.80779e-08
4.71378e-08
4.62631e-08
4.54509e-08
4.47012e-08
4.40131e-08
4.33812e-08
4.27978e-08
4.22617e-08
4.17848e-08
4.13846e-08
4.10627e-08
4.07852e-08
4.05147e-08
4.02323e-08
4.00064e-08
3.99567e-08
4.01666e-08
4.06518e-08
4.12504e-08
4.17579e-08
4.20501e-08
4.20668e-08
4.1986e-08
4.23924e-08
4.37829e-08
4.66001e-08
5.14841e-08
5.73664e-08
5.95959e-08
4.92399e-08
2.1132e-08
2.04695e-09
8.17277e-10
6.37418e-09
3.75946e-07
3.64485e-07
3.53341e-07
3.42486e-07
3.31891e-07
3.21542e-07
3.11441e-07
3.01585e-07
2.91971e-07
2.82591e-07
2.73441e-07
2.64516e-07
2.55809e-07
2.47324e-07
2.39068e-07
2.31041e-07
2.23248e-07
2.15694e-07
2.08383e-07
2.01322e-07
1.94517e-07
1.87972e-07
1.81693e-07
1.75683e-07
1.69945e-07
1.6448e-07
1.59285e-07
1.54356e-07
1.49689e-07
1.45275e-07
1.41108e-07
1.37178e-07
1.33477e-07
1.29996e-07
1.26725e-07
1.23655e-07
1.20778e-07
1.18085e-07
1.15569e-07
1.13222e-07
1.11037e-07
1.0901e-07
1.07141e-07
1.05417e-07
1.03824e-07
1.02355e-07
1.01032e-07
9.98852e-08
9.89209e-08
9.80815e-08
9.72948e-08
9.65226e-08
9.58749e-08
9.55768e-08
9.5796e-08
9.65475e-08
9.75635e-08
9.84978e-08
9.90687e-08
9.92164e-08
9.9246e-08
1.00117e-07
1.02702e-07
1.07866e-07
1.16459e-07
1.24719e-07
1.26398e-07
1.08218e-07
5.67025e-08
6.10662e-09
2.20544e-09
1.83013e-08
8.65516e-07
8.3905e-07
8.13295e-07
7.88198e-07
7.63705e-07
7.39785e-07
7.16431e-07
6.93643e-07
6.71415e-07
6.49731e-07
6.28571e-07
6.07925e-07
5.87777e-07
5.68126e-07
5.48985e-07
5.30357e-07
5.12244e-07
4.94658e-07
4.77609e-07
4.61111e-07
4.45177e-07
4.29818e-07
4.15052e-07
4.00891e-07
3.87343e-07
3.74413e-07
3.62099e-07
3.50396e-07
3.39296e-07
3.28783e-07
3.1884e-07
3.09448e-07
3.00589e-07
2.92242e-07
2.84383e-07
2.76993e-07
2.70053e-07
2.63544e-07
2.57449e-07
2.51747e-07
2.46424e-07
2.41471e-07
2.3688e-07
2.32632e-07
2.28698e-07
2.25064e-07
2.21755e-07
2.18814e-07
2.16253e-07
2.14001e-07
2.11942e-07
2.10013e-07
2.08341e-07
2.07275e-07
2.07101e-07
2.07795e-07
2.09012e-07
2.10307e-07
2.11141e-07
2.11544e-07
2.11996e-07
2.13725e-07
2.17905e-07
2.25971e-07
2.38585e-07
2.46037e-07
2.42264e-07
2.11406e-07
1.30638e-07
1.76836e-08
5.33378e-09
4.34329e-08
1.84811e-06
1.79158e-06
1.7365e-06
1.6828e-06
1.6304e-06
1.57922e-06
1.52924e-06
1.48047e-06
1.43289e-06
1.38647e-06
1.34118e-06
1.29697e-06
1.25381e-06
1.21168e-06
1.17061e-06
1.1306e-06
1.09164e-06
1.05375e-06
1.01695e-06
9.81268e-07
9.46732e-07
9.13369e-07
8.81222e-07
8.50321e-07
8.20695e-07
7.92366e-07
7.65334e-07
7.396e-07
7.15152e-07
6.91962e-07
6.69998e-07
6.49219e-07
6.29589e-07
6.11064e-07
5.93595e-07
5.77141e-07
5.6166e-07
5.47115e-07
5.33465e-07
5.2067e-07
5.08697e-07
4.97519e-07
4.87117e-07
4.77459e-07
4.685e-07
4.60208e-07
4.52588e-07
4.45681e-07
4.39505e-07
4.34011e-07
4.29057e-07
4.24567e-07
4.20597e-07
4.17568e-07
4.15875e-07
4.15356e-07
4.157e-07
4.16601e-07
4.17198e-07
4.17799e-07
4.19193e-07
4.22441e-07
4.28486e-07
4.39257e-07
4.5422e-07
4.52446e-07
4.31604e-07
3.77206e-07
2.65713e-07
4.93134e-08
1.23851e-08
8.85303e-08
3.70545e-06
3.59257e-06
3.48236e-06
3.37482e-06
3.26986e-06
3.16733e-06
3.06718e-06
2.96941e-06
2.87403e-06
2.78097e-06
2.69014e-06
2.60147e-06
2.51486e-06
2.43028e-06
2.34772e-06
2.2672e-06
2.1887e-06
2.11225e-06
2.03786e-06
1.96558e-06
1.89547e-06
1.82758e-06
1.76202e-06
1.69884e-06
1.63814e-06
1.57997e-06
1.52436e-06
1.47134e-06
1.42088e-06
1.37295e-06
1.32749e-06
1.28443e-06
1.2437e-06
1.2052e-06
1.16885e-06
1.13456e-06
1.10225e-06
1.07183e-06
1.04324e-06
1.01639e-06
9.91216e-07
9.67646e-07
9.4563e-07
9.25125e-07
9.06074e-07
8.88402e-07
8.72051e-07
8.56995e-07
8.43251e-07
8.30875e-07
8.19784e-07
8.09944e-07
8.01157e-07
7.93706e-07
7.87976e-07
7.83428e-07
7.80005e-07
7.78119e-07
7.76694e-07
7.76659e-07
7.79497e-07
7.85246e-07
7.93275e-07
8.05321e-07
8.17497e-07
7.89807e-07
7.29099e-07
6.26849e-07
4.88923e-07
1.32484e-07
2.81984e-08
1.63523e-07
7.01349e-06
6.8024e-06
6.59565e-06
6.39362e-06
6.19631e-06
6.00346e-06
5.81493e-06
5.63077e-06
5.45101e-06
5.27554e-06
5.10422e-06
4.93689e-06
4.77334e-06
4.61351e-06
4.45734e-06
4.30481e-06
4.1559e-06
4.01064e-06
3.86904e-06
3.73117e-06
3.59712e-06
3.46702e-06
3.34105e-06
3.21939e-06
3.10222e-06
2.98969e-06
2.88192e-06
2.77896e-06
2.68084e-06
2.5875e-06
2.49887e-06
2.41481e-06
2.33519e-06
2.25986e-06
2.18863e-06
2.12135e-06
2.05787e-06
1.99802e-06
1.94166e-06
1.88865e-06
1.83885e-06
1.79211e-06
1.74832e-06
1.70741e-06
1.66932e-06
1.63392e-06
1.60099e-06
1.5703e-06
1.54183e-06
1.51587e-06
1.49261e-06
1.47222e-06
1.45395e-06
1.43748e-06
1.42285e-06
1.40863e-06
1.3953e-06
1.38503e-06
1.37705e-06
1.37353e-06
1.37752e-06
1.38689e-06
1.39701e-06
1.40756e-06
1.40708e-06
1.32497e-06
1.18482e-06
9.84697e-07
8.29765e-07
3.45096e-07
6.26002e-08
2.91519e-07
1.25194e-05
1.21524e-05
1.17913e-05
1.14376e-05
1.10916e-05
1.07529e-05
1.04213e-05
1.00969e-05
9.77983e-06
9.46999e-06
9.16715e-06
8.87105e-06
8.5813e-06
8.29776e-06
8.02027e-06
7.74883e-06
7.48333e-06
7.22383e-06
6.97031e-06
6.72291e-06
6.48174e-06
6.24708e-06
6.01927e-06
5.79867e-06
5.58568e-06
5.38065e-06
5.18388e-06
4.99555e-06
4.81576e-06
4.64449e-06
4.48164e-06
4.327e-06
4.18034e-06
4.04141e-06
3.90989e-06
3.78552e-06
3.66799e-06
3.55701e-06
3.45235e-06
3.35375e-06
3.26095e-06
3.17366e-06
3.09164e-06
3.01478e-06
2.94307e-06
2.87628e-06
2.8139e-06
2.75526e-06
2.70014e-06
2.64929e-06
2.60351e-06
2.56351e-06
2.52774e-06
2.49443e-06
2.46261e-06
2.42901e-06
2.39469e-06
2.3652e-06
2.34122e-06
2.32722e-06
2.32966e-06
2.34317e-06
2.35571e-06
2.3614e-06
2.33372e-06
2.1534e-06
1.87094e-06
1.49902e-06
1.32003e-06
7.77343e-07
1.33871e-07
5.60079e-07
2.09861e-05
2.03977e-05
1.98157e-05
1.92436e-05
1.86824e-05
1.81317e-05
1.75912e-05
1.70611e-05
1.65418e-05
1.60332e-05
1.55352e-05
1.50474e-05
1.4569e-05
1.41e-05
1.36399e-05
1.31888e-05
1.27465e-05
1.23132e-05
1.18887e-05
1.14733e-05
1.10672e-05
1.06709e-05
1.0285e-05
9.9103e-06
9.54748e-06
9.19732e-06
8.86044e-06
8.53733e-06
8.22828e-06
7.93334e-06
7.65245e-06
7.38533e-06
7.13164e-06
6.89097e-06
6.66285e-06
6.44679e-06
6.24232e-06
6.04894e-06
5.86625e-06
5.69385e-06
5.53128e-06
5.37803e-06
5.23363e-06
5.09793e-06
4.97098e-06
4.85249e-06
4.74144e-06
4.63642e-06
4.53672e-06
4.44369e-06
4.35927e-06
4.28531e-06
4.21944e-06
4.15716e-06
4.09573e-06
4.02826e-06
3.95581e-06
3.88913e-06
3.83235e-06
3.79399e-06
3.78718e-06
3.80311e-06
3.81872e-06
3.8175e-06
3.7466e-06
3.4076e-06
2.88949e-06
2.2525e-06
1.99748e-06
1.47357e-06
2.8243e-07
1.10711e-06
3.38422e-05
3.29616e-05
3.2092e-05
3.12274e-05
3.0374e-05
2.9534e-05
2.87069e-05
2.78923e-05
2.70908e-05
2.63034e-05
2.55301e-05
2.47707e-05
2.40247e-05
2.32914e-05
2.25704e-05
2.18612e-05
2.11637e-05
2.04779e-05
1.98039e-05
1.91418e-05
1.84918e-05
1.78545e-05
1.72306e-05
1.66212e-05
1.60275e-05
1.54509e-05
1.48929e-05
1.43545e-05
1.38369e-05
1.33407e-05
1.28661e-05
1.24133e-05
1.19818e-05
1.15713e-05
1.11813e-05
1.08109e-05
1.04596e-05
1.01265e-05
9.81086e-06
9.51211e-06
9.22964e-06
8.96274e-06
8.71056e-06
8.47233e-06
8.24776e-06
8.03704e-06
7.83986e-06
7.65459e-06
7.47865e-06
7.31038e-06
7.15172e-06
7.00628e-06
6.87792e-06
6.76403e-06
6.65609e-06
6.54866e-06
6.42878e-06
6.29557e-06
6.1663e-06
6.05114e-06
5.9652e-06
5.93353e-06
5.94553e-06
5.96465e-06
5.95844e-06
5.83435e-06
5.26524e-06
4.38091e-06
3.37387e-06
2.91232e-06
2.46799e-06
5.90897e-07
2.18293e-06
4.98218e-05
4.86215e-05
4.74286e-05
4.62373e-05
4.50563e-05
4.38892e-05
4.27358e-05
4.15956e-05
4.04696e-05
3.93595e-05
3.82656e-05
3.71879e-05
3.6126e-05
3.50788e-05
3.40459e-05
3.30266e-05
3.20211e-05
3.10292e-05
3.00513e-05
2.90875e-05
2.81385e-05
2.7205e-05
2.62883e-05
2.53901e-05
2.45123e-05
2.36571e-05
2.2827e-05
2.20239e-05
2.12496e-05
2.05054e-05
1.97921e-05
1.91098e-05
1.84584e-05
1.78375e-05
1.72462e-05
1.66838e-05
1.61491e-05
1.56413e-05
1.51591e-05
1.47018e-05
1.42684e-05
1.3858e-05
1.34694e-05
1.31013e-05
1.27532e-05
1.24256e-05
1.21181e-05
1.18286e-05
1.15529e-05
1.1288e-05
1.10358e-05
1.0802e-05
1.05935e-05
1.04088e-05
1.02347e-05
1.00624e-05
9.86991e-06
9.65087e-06
9.42875e-06
9.22211e-06
9.05575e-06
8.97381e-06
8.9684e-06
8.98973e-06
8.98601e-06
8.81462e-06
7.95274e-06
6.53425e-06
5.0142e-06
4.14834e-06
3.78364e-06
1.22151e-06
4.20996e-06
6.93109e-05
6.77675e-05
6.62309e-05
6.46914e-05
6.31591e-05
6.16387e-05
6.01304e-05
5.86338e-05
5.71504e-05
5.56824e-05
5.42307e-05
5.27957e-05
5.1377e-05
4.99734e-05
4.85844e-05
4.72092e-05
4.5848e-05
4.4501e-05
4.31687e-05
4.18516e-05
4.05508e-05
3.92673e-05
3.8003e-05
3.67605e-05
3.55426e-05
3.43527e-05
3.31941e-05
3.207e-05
3.09833e-05
2.9936e-05
2.89296e-05
2.79648e-05
2.70416e-05
2.61596e-05
2.53181e-05
2.45159e-05
2.37518e-05
2.30245e-05
2.23326e-05
2.16748e-05
2.10502e-05
2.04574e-05
1.98947e-05
1.93604e-05
1.88538e-05
1.83752e-05
1.79248e-05
1.74999e-05
1.70948e-05
1.67041e-05
1.63293e-05
1.5978e-05
1.5661e-05
1.53797e-05
1.51169e-05
1.48605e-05
1.45767e-05
1.42489e-05
1.39042e-05
1.35702e-05
1.32842e-05
1.31178e-05
1.3073e-05
1.30911e-05
1.31013e-05
1.29091e-05
1.17327e-05
9.59655e-06
7.36988e-06
5.83105e-06
5.44239e-06
2.50798e-06
7.81487e-06
9.18715e-05
8.99728e-05
8.80885e-05
8.6197e-05
8.43076e-05
8.24262e-05
8.05533e-05
7.86887e-05
7.6834e-05
7.49922e-05
7.31648e-05
7.13526e-05
6.95552e-05
6.77713e-05
6.60004e-05
6.42417e-05
6.24956e-05
6.07623e-05
5.9043e-05
5.73383e-05
5.56498e-05
5.39793e-05
5.23293e-05
5.07032e-05
4.91049e-05
4.75389e-05
4.60099e-05
4.45224e-05
4.30803e-05
4.1687e-05
4.03447e-05
3.90548e-05
3.78178e-05
3.66333e-05
3.55008e-05
3.44189e-05
3.33864e-05
3.24016e-05
3.14629e-05
3.05686e-05
2.97175e-05
2.89079e-05
2.81379e-05
2.74052e-05
2.67084e-05
2.60481e-05
2.54249e-05
2.4836e-05
2.4274e-05
2.37312e-05
2.32072e-05
2.2711e-05
2.22578e-05
2.18541e-05
2.14802e-05
2.11218e-05
2.07322e-05
2.0279e-05
1.97882e-05
1.92953e-05
1.88508e-05
1.85612e-05
1.8448e-05
1.84513e-05
1.84857e-05
1.83123e-05
1.68625e-05
1.38672e-05
1.06927e-05
8.1331e-06
7.48593e-06
4.55637e-06
1.38231e-05
0.000117058
0.000114798
0.000112566
0.000110323
0.000108077
0.000105834
0.000103595
0.00010136
9.91302e-05
9.69094e-05
9.47e-05
9.25026e-05
9.03174e-05
8.81429e-05
8.59784e-05
8.38233e-05
8.16778e-05
7.95427e-05
7.74193e-05
7.5309e-05
7.32136e-05
7.11358e-05
6.90786e-05
6.70464e-05
6.50441e-05
6.30775e-05
6.11524e-05
5.92749e-05
5.74501e-05
5.56827e-05
5.39758e-05
5.23319e-05
5.07518e-05
4.92357e-05
4.7783e-05
4.63927e-05
4.50632e-05
4.37928e-05
4.25793e-05
4.14211e-05
4.03166e-05
3.92639e-05
3.82606e-05
3.7304e-05
3.63921e-05
3.55254e-05
3.47051e-05
3.39286e-05
3.31877e-05
3.24714e-05
3.17771e-05
3.11138e-05
3.05008e-05
2.99515e-05
2.94463e-05
2.89707e-05
2.8465e-05
2.78778e-05
2.72279e-05
2.65547e-05
2.59212e-05
2.5473e-05
2.52594e-05
2.52299e-05
2.52916e-05
2.51733e-05
2.3539e-05
1.96562e-05
1.52741e-05
1.12611e-05
9.99123e-06
7.43676e-06
2.31616e-05
0.000144608
0.000141976
0.000139385
0.000136784
0.000134174
0.000131563
0.000128951
0.000126338
0.000123727
0.00012112
0.000118522
0.000115933
0.000113352
0.00011078
0.000108214
0.000105655
0.000103102
0.000100557
9.80207e-05
9.54957e-05
9.29843e-05
9.04895e-05
8.80151e-05
8.55664e-05
8.31491e-05
8.07701e-05
7.84366e-05
7.61557e-05
7.39341e-05
7.17776e-05
6.96907e-05
6.76764e-05
6.57366e-05
6.38719e-05
6.20818e-05
6.03655e-05
5.87214e-05
5.71476e-05
5.56418e-05
5.4202e-05
5.28264e-05
5.15131e-05
5.02592e-05
4.90615e-05
4.79174e-05
4.68273e-05
4.57928e-05
4.4812e-05
4.38761e-05
4.29717e-05
4.20926e-05
4.12469e-05
4.0457e-05
3.97443e-05
3.90914e-05
3.84862e-05
3.78581e-05
3.71347e-05
3.63233e-05
3.5462e-05
3.46236e-05
3.39912e-05
3.36494e-05
3.35659e-05
3.36478e-05
3.36031e-05
3.18789e-05
2.72157e-05
2.13558e-05
1.54446e-05
1.30562e-05
1.11271e-05
3.28299e-05
0.000174538
0.000171504
0.000168526
0.00016554
0.000162542
0.000159539
0.000156532
0.000153521
0.000150508
0.000147497
0.000144491
0.000141493
0.000138501
0.000135515
0.000132534
0.000129557
0.000126585
0.000123618
0.000120658
0.000117709
0.000114773
0.000111853
0.000108954
0.000106082
0.000103244
0.000100446
9.76978e-05
9.50073e-05
9.23824e-05
8.98301e-05
8.7356e-05
8.4964e-05
8.26567e-05
8.04352e-05
7.82995e-05
7.62487e-05
7.42813e-05
7.23954e-05
7.05884e-05
6.88581e-05
6.72023e-05
6.56191e-05
6.41053e-05
6.26573e-05
6.12717e-05
5.99487e-05
5.86901e-05
5.74952e-05
5.63551e-05
5.52542e-05
5.41827e-05
5.31467e-05
5.21704e-05
5.12831e-05
5.04711e-05
4.97272e-05
4.89727e-05
4.8115e-05
4.71474e-05
4.61024e-05
4.50591e-05
4.42322e-05
4.37449e-05
4.35887e-05
4.36768e-05
4.37034e-05
4.19626e-05
3.67263e-05
2.91198e-05
2.10729e-05
1.69069e-05
1.54802e-05
4.1262e-05
0.000207145
0.000203659
0.000200245
0.000196827
0.000193395
0.000189956
0.000186511
0.00018306
0.000179605
0.000176151
0.000172701
0.000169258
0.000165822
0.000162391
0.000158965
0.000155543
0.000152125
0.000148713
0.000145309
0.000141916
0.000138538
0.000135177
0.00013184
0.000128533
0.000125262
0.000122037
0.000118866
0.000115759
0.000112724
0.00010977
0.000106904
0.000104129
0.00010145
9.88679e-05
9.63828e-05
9.3994e-05
9.17001e-05
8.94989e-05
8.73877e-05
8.53639e-05
8.34251e-05
8.15689e-05
7.97923e-05
7.80909e-05
7.64608e-05
7.49016e-05
7.34155e-05
7.20027e-05
7.06549e-05
6.93546e-05
6.80889e-05
6.68612e-05
6.56962e-05
6.46299e-05
6.36534e-05
6.27651e-05
6.18816e-05
6.08932e-05
5.97788e-05
5.8563e-05
5.73294e-05
5.63134e-05
5.56785e-05
5.5441e-05
5.55236e-05
5.56145e-05
5.39371e-05
4.82941e-05
3.93732e-05
2.87067e-05
2.1911e-05
2.04093e-05
4.78359e-05
0.000242986
0.000238979
0.000235058
0.000231138
0.000227204
0.000223262
0.000219315
0.000215361
0.000211402
0.000207444
0.000203492
0.000199548
0.000195613
0.000191686
0.000187765
0.000183851
0.000179944
0.000176045
0.000172158
0.000168285
0.000164431
0.0001606
0.000156797
0.000153029
0.000149303
0.00014563
0.000142019
0.00013848
0.000135022
0.000131655
0.000128386
0.000125221
0.000122163
0.000119215
0.000116376
0.000113646
0.000111023
0.000108505
0.000106088
0.00010377
0.000101548
9.94197e-05
9.73806e-05
9.54266e-05
9.3553e-05
9.17586e-05
9.0046e-05
8.84161e-05
8.68612e-05
8.53631e-05
8.39059e-05
8.24901e-05
8.11401e-05
7.98968e-05
7.87573e-05
7.77225e-05
7.671e-05
7.55962e-05
7.43475e-05
7.29801e-05
7.15782e-05
7.03965e-05
6.9631e-05
6.93224e-05
6.94086e-05
6.95943e-05
6.81551e-05
6.23356e-05
5.22528e-05
3.89311e-05
2.85719e-05
2.60115e-05
5.32653e-05
0.000282843
0.000278229
0.000273711
0.0002692
0.000264676
0.000260145
0.000255609
0.000251067
0.000246522
0.000241979
0.000237445
0.000232922
0.000228412
0.000223915
0.000219429
0.000214955
0.000210493
0.000206046
0.000201616
0.000197207
0.000192825
0.000188473
0.000184158
0.000179887
0.000175668
0.000171512
0.000167427
0.000163427
0.00015952
0.000155716
0.000152025
0.000148451
0.000145
0.000141673
0.00013847
0.000135391
0.000132433
0.000129593
0.000126868
0.000124254
0.000121749
0.000119348
0.000117047
0.000114843
0.000112728
0.000110702
0.000108766
0.000106923
0.000105166
0.000103475
0.000101832
0.000100237
9.87104e-05
9.72984e-05
9.60065e-05
9.48283e-05
9.36933e-05
9.24664e-05
9.11038e-05
8.96134e-05
8.80774e-05
8.67697e-05
8.59145e-05
8.558e-05
8.57373e-05
8.61799e-05
8.54421e-05
7.99005e-05
6.84192e-05
5.23437e-05
3.74294e-05
3.25818e-05
5.85011e-05
0.000327712
0.000322391
0.00031717
0.000311961
0.000306742
0.000301516
0.000296287
0.000291055
0.000285821
0.000280593
0.000275376
0.000270177
0.000264996
0.000259835
0.000254693
0.00024957
0.000244468
0.000239388
0.000234336
0.000229315
0.000224331
0.000219389
0.000214496
0.000209659
0.000204889
0.000200194
0.000195586
0.000191077
0.000186678
0.000182401
0.000178252
0.00017424
0.000170369
0.000166641
0.000163055
0.000159611
0.000156305
0.000153133
0.000150093
0.000147178
0.000144386
0.000141711
0.00013915
0.000136697
0.000134346
0.000132093
0.000129941
0.000127892
0.00012594
0.000124067
0.000122252
0.00012049
0.000118804
0.00011724
0.000115814
0.000114512
0.000113281
0.000111975
0.000110544
0.000108985
0.000107375
0.00010601
0.000105149
0.000104911
0.000105361
0.000106565
0.000107319
0.000102402
8.92404e-05
6.97775e-05
4.94998e-05
4.05511e-05
6.36512e-05
0.000378806
0.000372667
0.000366623
0.000360595
0.000354559
0.000348518
0.000342477
0.000336435
0.000330395
0.000324363
0.000318348
0.000312356
0.000306391
0.000300454
0.000294546
0.000288668
0.00028282
0.000277008
0.000271234
0.000265505
0.000259827
0.000254207
0.000248651
0.000243168
0.000237768
0.000232462
0.000227263
0.000222182
0.000217233
0.000212426
0.000207773
0.000203279
0.00019895
0.000194788
0.000190791
0.000186959
0.000183287
0.00017977
0.000176404
0.000173182
0.0001701
0.000167153
0.000164335
0.00016164
0.00015906
0.000156592
0.000154238
0.000152
0.000149875
0.000147843
0.000145882
0.000143985
0.000142173
0.000140495
0.000138977
0.000137608
0.000136357
0.000135073
0.000133691
0.000132192
0.000130637
0.000129354
0.000128679
0.000128854
0.000130167
0.000132856
0.000134985
0.000130478
0.000115928
9.20198e-05
6.5988e-05
5.10655e-05
6.92689e-05
0.00043758
0.000430501
0.000423503
0.000416522
0.000409536
0.000402548
0.000395562
0.000388578
0.0003816
0.000374634
0.00036769
0.000360778
0.000353901
0.000347062
0.000340264
0.000333508
0.000326797
0.000320134
0.000313526
0.000306979
0.0003005
0.000294097
0.000287778
0.000281552
0.000275432
0.000269428
0.000263555
0.000257826
0.000252256
0.000246858
0.000241641
0.000236616
0.000231786
0.000227154
0.000222719
0.000218477
0.000214424
0.000210554
0.000206861
0.000203336
0.000199974
0.000196769
0.000193715
0.000190804
0.000188029
0.000185383
0.000182869
0.000180492
0.000178249
0.000176123
0.000174091
0.000172139
0.000170286
0.00016859
0.000167096
0.00016581
0.00016475
0.000163745
0.000162699
0.00016155
0.000160313
0.000159375
0.000159185
0.000160068
0.00016228
0.000165913
0.000168699
0.0001643
0.000148458
0.000120268
8.8148e-05
6.52579e-05
7.63254e-05
0.000513933
0.000505759
0.000497608
0.000489515
0.000481439
0.000473361
0.000465284
0.000457212
0.000449145
0.000441088
0.000433048
0.000425037
0.000417065
0.000409139
0.000401264
0.000393443
0.000385678
0.000377974
0.000370336
0.000362771
0.000355287
0.000347891
0.000340594
0.000333405
0.000326335
0.000319397
0.000312604
0.000305972
0.000299518
0.000293257
0.000287205
0.000281374
0.000275776
0.000270415
0.000265294
0.000260412
0.000255764
0.000251344
0.000247146
0.000243161
0.00023938
0.000235795
0.0002324
0.000229187
0.000226149
0.000223276
0.000220561
0.000218005
0.000215618
0.000213402
0.000211342
0.000209407
0.000207572
0.00020585
0.000204315
0.000203032
0.000202022
0.000201318
0.000200692
0.000199997
0.000199148
0.000198158
0.00019746
0.000197568
0.00019884
0.000201511
0.000205562
0.000208498
0.000203819
0.000186639
0.000155069
0.000116669
8.43961e-05
8.58229e-05
0.000594755
0.000585368
0.000576002
0.000566669
0.000557352
0.000548035
0.000538722
0.000529417
0.000520123
0.000510843
0.000501585
0.000492363
0.00048319
0.000474074
0.000465023
0.000456042
0.000447136
0.000438309
0.000429568
0.000420923
0.000412382
0.000403957
0.000395656
0.000387494
0.000379482
0.000371636
0.000363972
0.000356509
0.000349267
0.000342266
0.000335524
0.000329059
0.000322882
0.000317002
0.000311422
0.00030614
0.00030115
0.000296446
0.000292015
0.000287847
0.00028393
0.000280252
0.0002768
0.000273563
0.000270527
0.000267676
0.000264996
0.000262484
0.000260147
0.000257989
0.000255992
0.000254117
0.000252336
0.000250659
0.000249179
0.000247976
0.000247072
0.000246507
0.000246033
0.000245481
0.000244754
0.000243867
0.000243276
0.000243526
0.000244987
0.000247863
0.00025203
0.000254809
0.000249491
0.000230687
0.000196
0.000150908
0.000109335
9.92425e-05
0.000689484
0.000678749
0.000668016
0.000657299
0.000646595
0.000635894
0.0006252
0.000614518
0.000603851
0.000593204
0.000582586
0.000572012
0.000561497
0.000551054
0.000540691
0.000530417
0.000520238
0.000510163
0.000500199
0.000490357
0.000480649
0.000471088
0.000461688
0.000452462
0.000443428
0.000434604
0.00042601
0.000417672
0.000409612
0.000401857
0.00039443
0.000387353
0.000380641
0.000374301
0.000368335
0.000362735
0.000357488
0.000352575
0.000347975
0.000343664
0.000339619
0.000335821
0.000332251
0.000328896
0.00032574
0.000322768
0.000319966
0.000317332
0.000314877
0.00031261
0.000310511
0.000308538
0.00030666
0.00030489
0.000303332
0.000302079
0.000301167
0.000300582
0.00030011
0.000299563
0.000298837
0.000297952
0.000297368
0.000297656
0.000299183
0.000302107
0.000306187
0.000308504
0.000302251
0.00028139
0.000243255
0.000191705
0.000141108
0.000117578
0.000800804
0.000788548
0.000776304
0.000764068
0.000751841
0.000739618
0.000727404
0.000715207
0.000703031
0.00069088
0.000678766
0.000666706
0.000654716
0.000642813
0.000631009
0.000619316
0.000607744
0.000596302
0.000585001
0.000573856
0.000562881
0.000552092
0.000541505
0.00053114
0.000521017
0.00051116
0.000501594
0.000492348
0.000483452
0.000474935
0.000466825
0.00045914
0.000451893
0.000445081
0.000438695
0.000432713
0.00042711
0.000421855
0.00041692
0.000412278
0.000407904
0.000403776
0.00039988
0.000396203
0.000392732
0.000389453
0.000386353
0.000383432
0.000380706
0.000378184
0.000375847
0.000373649
0.000371555
0.000369581
0.000367842
0.00036644
0.000365439
0.000364728
0.00036416
0.000363527
0.000362721
0.000361783
0.00036112
0.000361354
0.00036284
0.000365672
0.000369466
0.000371033
0.000363497
0.00034002
0.000297732
0.000239781
0.000179799
0.000142191
0.000931574
0.000917682
0.000903808
0.000889936
0.000876069
0.000862205
0.00084835
0.000834514
0.000820704
0.000806926
0.000793193
0.000779523
0.000765936
0.000752451
0.000739086
0.000725855
0.000712773
0.000699852
0.000687107
0.000674554
0.000662212
0.000650099
0.000638238
0.000626649
0.000615358
0.000604392
0.000593781
0.000583555
0.000573746
0.000564382
0.000555486
0.000547071
0.000539138
0.000531675
0.000524663
0.000518072
0.000511872
0.000506031
0.000500519
0.000495311
0.000490383
0.000485716
0.000481295
0.000477112
0.000473155
0.000469408
0.000465859
0.000462511
0.00045938
0.000456479
0.000453788
0.000451255
0.000448842
0.000446567
0.000444557
0.000442923
0.000441735
0.000440845
0.000440108
0.000439322
0.000438383
0.000437344
0.000436512
0.000436592
0.000437912
0.000440481
0.000443739
0.00044423
0.000435003
0.000408236
0.000360835
0.000295712
0.000225011
0.000173351
0.00108484
0.00106925
0.00105367
0.00103808
0.00102249
0.0010069
0.000991312
0.000975742
0.000960199
0.000944692
0.000929236
0.00091385
0.000898557
0.000883381
0.000868342
0.000853461
0.000838755
0.000824241
0.000809937
0.000795863
0.000782039
0.000768488
0.000755234
0.000742301
0.000729717
0.00071751
0.000705711
0.000694349
0.000683453
0.000673048
0.00066315
0.000653767
0.000644893
0.000636513
0.000628604
0.000621136
0.000614079
0.000607401
0.000601077
0.000595082
0.000589392
0.000583991
0.000578865
0.000574005
0.0005694
0.000565035
0.000560896
0.000556986
0.000553325
0.000549927
0.000546769
0.000543794
0.000540962
0.000538291
0.00053592
0.000533969
0.000532514
0.000531427
0.000530441
0.000529438
0.000528339
0.000527079
0.000525996
0.000525797
0.000526786
0.000528864
0.000531275
0.00053036
0.000518955
0.000488036
0.000434319
0.000360702
0.000277871
0.000211532
0.00126362
0.00124635
0.00122906
0.00121175
0.00119442
0.00117706
0.0011597
0.00114235
0.00112502
0.00110772
0.00109047
0.00107329
0.00105621
0.00103926
0.00102245
0.00100582
0.000989378
0.000973157
0.000957174
0.000941451
0.000926012
0.00091088
0.000896082
0.000881643
0.000867591
0.000853954
0.000840761
0.00082804
0.000815817
0.000804113
0.000792941
0.000782308
0.000772207
0.000762625
0.00075354
0.000744926
0.000736754
0.000728998
0.000721631
0.00071463
0.000707974
0.000701646
0.000695631
0.000689922
0.000684508
0.000679369
0.000674492
0.000669882
0.000665559
0.000661538
0.000657793
0.000654262
0.000650903
0.000647734
0.000644905
0.000642541
0.000640728
0.000639371
0.00063814
0.000636879
0.000635473
0.000633881
0.000632527
0.00063184
0.00063227
0.000633564
0.000634768
0.000632376
0.000617888
0.000581706
0.000520193
0.00043632
0.000340047
0.000257277
0.00147064
0.00145181
0.00143292
0.00141397
0.00139497
0.00137592
0.00135684
0.00133774
0.00131864
0.00129956
0.00128051
0.00126152
0.00124263
0.00122385
0.00120522
0.00118676
0.00116851
0.00115049
0.00113273
0.00111524
0.00109805
0.00108119
0.00106469
0.00104856
0.00103285
0.00101758
0.00100276
0.000988443
0.000974635
0.000961362
0.000948638
0.00093647
0.000924856
0.000913788
0.000903249
0.000893219
0.000883673
0.000874587
0.000865939
0.000857707
0.000849868
0.000842406
0.000835307
0.000828563
0.000822159
0.000816076
0.000810301
0.000804835