/*--------------------------------*- C++ -*----------------------------------*\
| =========                 |                                                 |
| \\      /  F ield         | OpenFOAM: The Open Source CFD Toolbox           |
|  \\    /   O peration     | Version:  2412                                  |
|   \\  /    A nd           | Website:  www.openfoam.com                      |
|    \\/     M anipulation  |                                                 |
\*---------------------------------------------------------------------------*/
FoamFile
{
    version     2.0;
    format      ascii;
    arch        "LSB;label=32;scalar=64";
    class       surfaceScalarField;
    location    "180";
    object      phi;
}
// * * * * * * * * * * * * * * * * * * * * * * * * * * * * * * * * * * * * * //

dimensions      [0 3 -1 0 0 0 0];

oriented        oriented;

internalField   nonuniform List<scalar> 
14599
(
1.51809e-06
2.22367e-08
1.49592e-06
2.2187e-08
1.47412e-06
2.18195e-08
1.45244e-06
2.16914e-08
1.43094e-06
2.15095e-08
1.40962e-06
2.13345e-08
1.38851e-06
2.1123e-08
1.36758e-06
2.09415e-08
1.34689e-06
2.06911e-08
1.32643e-06
2.04707e-08
1.30629e-06
2.01467e-08
1.28643e-06
1.99567e-08
1.26679e-06
1.95616e-08
1.24762e-06
1.92456e-08
1.2289e-06
1.86596e-08
1.21067e-06
1.82872e-08
1.19289e-06
1.77393e-08
1.1757e-06
1.72423e-08
1.15909e-06
1.65802e-08
1.1432e-06
1.58938e-08
1.12788e-06
1.53244e-08
1.11328e-06
1.46046e-08
1.0994e-06
1.38914e-08
1.08618e-06
1.32255e-08
1.07374e-06
1.2447e-08
1.06202e-06
1.17227e-08
1.05097e-06
1.10667e-08
1.04065e-06
1.03194e-08
1.03103e-06
9.6294e-09
1.02212e-06
8.90829e-09
1.01387e-06
8.25096e-09
1.00627e-06
7.60332e-09
9.99351e-07
6.91927e-09
9.93013e-07
6.34054e-09
9.87304e-07
5.71076e-09
9.82123e-07
5.18887e-09
9.77506e-07
4.61521e-09
9.73378e-07
4.13571e-09
9.69765e-07
3.61092e-09
9.6656e-07
3.20638e-09
9.63833e-07
2.72877e-09
9.61611e-07
2.22299e-09
9.59777e-07
1.83462e-09
9.58192e-07
1.58556e-09
9.56768e-07
1.42454e-09
9.55836e-07
9.35191e-10
9.55828e-07
5.24421e-12
9.56988e-07
-1.15939e-09
9.5847e-07
-1.48212e-09
9.59068e-07
-5.97843e-10
9.58206e-07
8.6267e-10
9.57318e-07
8.87567e-10
9.60107e-07
-2.78759e-09
9.69074e-07
-8.96871e-09
9.85447e-07
-1.63729e-08
1.00531e-06
-1.98614e-08
1.02001e-06
-1.47054e-08
1.02644e-06
-6.43123e-09
1.0223e-06
4.14948e-09
1.01021e-06
1.20819e-08
1.01104e-06
-8.23314e-10
1.045e-06
-3.39595e-08
1.122e-06
-7.70078e-08
1.26401e-06
-1.4201e-07
1.5252e-06
-2.61187e-07
1.74133e-06
-2.16127e-07
1.43727e-06
3.04051e-07
5.74541e-07
8.62734e-07
-2.41271e-07
8.15812e-07
-2.92593e-07
5.13219e-08
2.87734e-08
-3.21367e-07
8.06617e-07
5.39057e-06
1.01523e-07
5.31213e-06
1.00656e-07
5.2345e-06
9.94666e-08
5.15763e-06
9.85888e-08
5.08148e-06
9.76818e-08
5.00575e-06
9.70902e-08
4.9307e-06
9.61852e-08
4.85651e-06
9.5152e-08
4.78311e-06
9.41029e-08
4.71055e-06
9.30432e-08
4.63876e-06
9.19447e-08
4.56789e-06
9.09799e-08
4.49854e-06
8.87964e-08
4.43037e-06
8.75216e-08
4.36377e-06
8.51828e-08
4.29884e-06
8.33075e-08
4.23555e-06
8.09745e-08
4.17443e-06
7.84209e-08
4.11533e-06
7.56487e-08
4.0586e-06
7.26378e-08
4.00398e-06
6.99542e-08
3.95185e-06
6.6737e-08
3.90219e-06
6.35692e-08
3.85507e-06
6.03559e-08
3.81047e-06
5.70583e-08
3.76833e-06
5.38751e-08
3.72877e-06
5.06448e-08
3.69182e-06
4.72698e-08
3.65723e-06
4.42352e-08
3.62525e-06
4.08867e-08
3.5956e-06
3.79054e-08
3.56829e-06
3.49214e-08
3.54319e-06
3.20216e-08
3.5204e-06
2.91269e-08
3.49955e-06
2.65649e-08
3.4809e-06
2.38551e-08
3.4641e-06
2.14088e-08
3.44916e-06
1.90949e-08
3.43578e-06
1.69896e-08
3.42418e-06
1.48046e-08
3.41414e-06
1.27698e-08
3.40581e-06
1.05546e-08
3.39904e-06
8.60619e-09
3.39308e-06
7.548e-09
3.38791e-06
6.59203e-09
3.38421e-06
4.64646e-09
3.38393e-06
2.79713e-10
3.38755e-06
-4.77982e-09
3.39247e-06
-6.39946e-09
3.39453e-06
-2.65889e-09
3.39161e-06
3.78376e-09
3.38862e-06
3.87912e-09
3.39789e-06
-1.20556e-08
3.42814e-06
-3.92202e-08
3.48368e-06
-7.19201e-08
3.55128e-06
-8.74576e-08
3.60252e-06
-6.59408e-08
3.62601e-06
-2.99209e-08
3.61344e-06
1.6717e-08
3.57409e-06
5.1433e-08
3.57655e-06
-3.288e-09
3.68876e-06
-1.46173e-07
3.94625e-06
-3.34491e-07
4.42154e-06
-6.17299e-07
5.28832e-06
-1.12797e-06
6.00466e-06
-9.32466e-07
5.04863e-06
1.26008e-06
2.17301e-06
3.73835e-06
-6.85455e-07
3.67428e-06
-9.52706e-07
3.18572e-07
-5.04442e-08
-1.22363e-06
3.57731e-06
1.08145e-05
2.60399e-07
1.06565e-05
2.58736e-07
1.05007e-05
2.55242e-07
1.03463e-05
2.53022e-07
1.01929e-05
2.51122e-07
1.00413e-05
2.48755e-07
9.89078e-06
2.46683e-07
9.7415e-06
2.44455e-07
9.59407e-06
2.41544e-07
9.44816e-06
2.38963e-07
9.30406e-06
2.36057e-07
9.16203e-06
2.33165e-07
9.02199e-06
2.2872e-07
8.88487e-06
2.24755e-07
8.75074e-06
2.1923e-07
8.61983e-06
2.14307e-07
8.49262e-06
2.08125e-07
8.36904e-06
2.0207e-07
8.25004e-06
1.94614e-07
8.13475e-06
1.87937e-07
8.02468e-06
1.80034e-07
7.91912e-06
1.72303e-07
7.81853e-06
1.64172e-07
7.72287e-06
1.56035e-07
7.63226e-06
1.47681e-07
7.54672e-06
1.39418e-07
7.46637e-06
1.31018e-07
7.3908e-06
1.22839e-07
7.32038e-06
1.14676e-07
7.25472e-06
1.06545e-07
7.19401e-06
9.86196e-08
7.1379e-06
9.10361e-08
7.08646e-06
8.34666e-08
7.03929e-06
7.63008e-08
6.99646e-06
6.93891e-08
6.9576e-06
6.2728e-08
6.92268e-06
5.63259e-08
6.89139e-06
5.03973e-08
6.86367e-06
4.4714e-08
6.83907e-06
3.94085e-08
6.81777e-06
3.40726e-08
6.80014e-06
2.81779e-08
6.78541e-06
2.33396e-08
6.77259e-06
2.03742e-08
6.76113e-06
1.80532e-08
6.75312e-06
1.26608e-08
6.75132e-06
2.07051e-09
6.75738e-06
-1.08314e-08
6.76592e-06
-1.4942e-08
6.76972e-06
-6.46482e-09
6.76386e-06
9.64474e-09
6.75808e-06
9.66305e-09
6.77527e-06
-2.92446e-08
6.83275e-06
-9.66976e-08
6.93908e-06
-1.78252e-07
7.06904e-06
-2.17419e-07
7.16974e-06
-1.66642e-07
7.21759e-06
-7.77748e-08
7.19642e-06
3.78903e-08
7.12413e-06
1.23725e-07
7.12726e-06
-6.42603e-09
7.33775e-06
-3.56656e-07
7.82414e-06
-8.2088e-07
8.72211e-06
-1.51527e-06
1.0348e-05
-2.75382e-06
1.17117e-05
-2.29621e-06
1.00058e-05
2.96598e-06
4.56932e-06
9.17483e-06
-1.06212e-06
9.30572e-06
-1.77353e-06
1.02998e-06
-3.46309e-07
-2.65085e-06
8.86987e-06
1.82782e-05
5.2987e-07
1.80106e-05
5.26346e-07
1.77465e-05
5.19363e-07
1.74852e-05
5.14355e-07
1.72257e-05
5.10674e-07
1.69681e-05
5.06386e-07
1.67134e-05
5.0144e-07
1.6461e-05
4.96877e-07
1.6211e-05
4.9154e-07
1.59633e-05
4.86616e-07
1.57188e-05
4.80567e-07
1.54779e-05
4.74269e-07
1.52406e-05
4.65902e-07
1.50077e-05
4.57811e-07
1.47794e-05
4.4742e-07
1.45566e-05
4.37166e-07
1.43399e-05
4.24748e-07
1.41295e-05
4.12605e-07
1.39258e-05
3.98272e-07
1.37297e-05
3.84083e-07
1.35408e-05
3.68881e-07
1.33599e-05
3.53208e-07
1.31871e-05
3.36983e-07
1.3023e-05
3.2015e-07
1.2867e-05
3.03696e-07
1.27199e-05
2.86568e-07
1.25809e-05
2.70033e-07
1.24505e-05
2.53194e-07
1.23286e-05
2.3665e-07
1.22147e-05
2.20387e-07
1.2109e-05
2.04369e-07
1.20111e-05
1.88919e-07
1.1921e-05
1.73592e-07
1.18382e-05
1.59154e-07
1.17628e-05
1.44775e-07
1.16938e-05
1.31682e-07
1.16318e-05
1.18313e-07
1.1576e-05
1.06247e-07
1.15261e-05
9.46409e-08
1.14818e-05
8.36542e-08
1.14432e-05
7.2735e-08
1.14105e-05
6.08764e-08
1.13829e-05
5.09317e-08
1.13589e-05
4.43335e-08
1.13374e-05
3.96276e-08
1.13212e-05
2.88207e-08
1.1316e-05
7.24252e-09
1.13233e-05
-1.80942e-08
1.13357e-05
-2.73443e-08
1.13403e-05
-1.10884e-08
1.13303e-05
1.96814e-08
1.13198e-05
2.01203e-08
1.1346e-05
-5.54236e-08
1.1437e-05
-1.8764e-07
1.16067e-05
-3.47965e-07
1.18164e-05
-4.27123e-07
1.19817e-05
-3.31949e-07
1.20637e-05
-1.59803e-07
1.20355e-05
6.60884e-08
1.19252e-05
2.34062e-07
1.1929e-05
-1.02254e-08
1.22569e-05
-6.84628e-07
1.30241e-05
-1.58805e-06
1.44385e-05
-2.92962e-06
1.69777e-05
-5.29302e-06
1.91633e-05
-4.4819e-06
1.66527e-05
5.47663e-06
8.06805e-06
1.77595e-05
-1.22045e-06
1.85942e-05
-2.7624e-06
2.57193e-06
-9.86586e-07
-4.42667e-06
1.72169e-05
2.84068e-05
9.50377e-07
2.79908e-05
9.42401e-07
2.75789e-05
9.31308e-07
2.71716e-05
9.21717e-07
2.67672e-05
9.15095e-07
2.63661e-05
9.07441e-07
2.59684e-05
8.99234e-07
2.55747e-05
8.90579e-07
2.51843e-05
8.81906e-07
2.4799e-05
8.71973e-07
2.44175e-05
8.62082e-07
2.40407e-05
8.51216e-07
2.36699e-05
8.36621e-07
2.33051e-05
8.22677e-07
2.2948e-05
8.04454e-07
2.2599e-05
7.86282e-07
2.22583e-05
7.65362e-07
2.19279e-05
7.43065e-07
2.16073e-05
7.18838e-07
2.12983e-05
6.93116e-07
2.10004e-05
6.66763e-07
2.07145e-05
6.39124e-07
2.04412e-05
6.10317e-07
2.01805e-05
5.80879e-07
1.99328e-05
5.51438e-07
1.96984e-05
5.20988e-07
1.94766e-05
4.91825e-07
1.92683e-05
4.61484e-07
1.90723e-05
4.32699e-07
1.88893e-05
4.03346e-07
1.87188e-05
3.74885e-07
1.85608e-05
3.46937e-07
1.84145e-05
3.19831e-07
1.82796e-05
2.94111e-07
1.81556e-05
2.68801e-07
1.80428e-05
2.44441e-07
1.79403e-05
2.20866e-07
1.78478e-05
1.98768e-07
1.77643e-05
1.78143e-07
1.76894e-05
1.58484e-07
1.76239e-05
1.38278e-07
1.75675e-05
1.17297e-07
1.75195e-05
9.88662e-08
1.74769e-05
8.7019e-08
1.74389e-05
7.75853e-08
1.74097e-05
5.79901e-08
1.73965e-05
2.05113e-08
1.74025e-05
-2.41646e-08
1.74169e-05
-4.16644e-08
1.74209e-05
-1.51567e-08
1.74041e-05
3.64672e-08
1.73865e-05
3.77287e-08
1.74221e-05
-9.0969e-08
1.75523e-05
-3.17876e-07
1.77984e-05
-5.94056e-07
1.81065e-05
-7.35226e-07
1.83547e-05
-5.80125e-07
1.84834e-05
-2.88519e-07
1.8453e-05
9.64703e-08
1.83002e-05
3.86908e-07
1.83038e-05
-1.38421e-08
1.87695e-05
-1.15035e-06
1.98676e-05
-2.68612e-06
2.18915e-05
-4.95358e-06
2.54897e-05
-8.89122e-06
2.86833e-05
-7.67549e-06
2.53781e-05
8.78187e-06
1.30688e-05
3.00687e-05
-9.33733e-07
3.25968e-05
-3.90655e-06
5.54475e-06
-2.13453e-06
-6.19869e-06
2.91287e-05
4.19873e-05
1.57269e-06
4.13696e-05
1.56022e-06
4.07605e-05
1.54036e-06
4.01567e-05
1.52563e-06
3.95568e-05
1.51501e-06
3.89622e-05
1.50204e-06
3.83734e-05
1.48805e-06
3.77894e-05
1.47459e-06
3.72115e-05
1.45987e-06
3.66384e-05
1.44513e-06
3.60727e-05
1.42771e-06
3.5513e-05
1.41116e-06
3.49611e-05
1.3884e-06
3.44183e-05
1.36555e-06
3.38861e-05
1.33663e-06
3.33651e-05
1.30735e-06
3.28572e-05
1.27324e-06
3.23613e-05
1.23896e-06
3.18813e-05
1.19886e-06
3.14163e-05
1.15817e-06
3.09682e-05
1.11483e-06
3.0538e-05
1.06938e-06
3.01251e-05
1.02319e-06
2.97306e-05
9.75423e-07
2.93549e-05
9.27129e-07
2.89981e-05
8.77813e-07
2.86609e-05
8.29091e-07
2.83422e-05
7.80111e-07
2.80427e-05
7.32254e-07
2.77616e-05
6.84454e-07
2.7499e-05
6.37482e-07
2.72543e-05
5.91657e-07
2.70267e-05
5.47406e-07
2.68171e-05
5.03778e-07
2.66231e-05
4.62751e-07
2.64457e-05
4.21907e-07
2.6283e-05
3.83583e-07
2.6135e-05
3.46743e-07
2.60011e-05
3.12006e-07
2.58806e-05
2.78993e-07
2.57737e-05
2.45213e-07
2.56808e-05
2.10219e-07
2.55996e-05
1.80009e-07
2.55282e-05
1.58473e-07
2.54641e-05
1.41672e-07
2.54123e-05
1.09815e-07
2.5384e-05
4.88185e-08
2.53833e-05
-2.35002e-08
2.53956e-05
-5.39218e-08
2.53959e-05
-1.54655e-08
2.53679e-05
6.44693e-08
2.53394e-05
6.61679e-08
2.53832e-05
-1.34716e-07
2.55577e-05
-4.92432e-07
2.58935e-05
-9.29788e-07
2.63182e-05
-1.15996e-06
2.66693e-05
-9.31223e-07
2.68602e-05
-4.79424e-07
2.68358e-05
1.20909e-07
2.66398e-05
5.82825e-07
2.6644e-05
-1.79485e-08
2.72633e-05
-1.7697e-06
2.87401e-05
-4.16291e-06
3.1457e-05
-7.67048e-06
3.62345e-05
-1.36687e-05
4.06198e-05
-1.20607e-05
3.66185e-05
1.27831e-05
2.0072e-05
4.66152e-05
1.39725e-07
5.25291e-05
-5.1717e-06
1.08562e-05
-3.99319e-06
-7.3772e-06
4.50944e-05
5.99719e-05
2.46171e-06
5.90906e-05
2.4415e-06
5.82197e-05
2.41133e-06
5.73563e-05
2.38911e-06
5.65002e-05
2.37113e-06
5.56508e-05
2.35144e-06
5.48076e-05
2.33132e-06
5.39724e-05
2.30975e-06
5.31448e-05
2.28755e-06
5.23252e-05
2.26474e-06
5.1513e-05
2.23992e-06
5.07112e-05
2.2131e-06
4.99185e-05
2.18096e-06
4.91387e-05
2.14543e-06
4.83732e-05
2.1021e-06
4.76216e-05
2.05905e-06
4.68871e-05
2.00768e-06
4.61719e-05
1.95425e-06
4.54756e-05
1.89516e-06
4.4801e-05
1.83278e-06
4.41487e-05
1.76715e-06
4.35205e-05
1.69757e-06
4.29172e-05
1.62645e-06
4.23398e-05
1.55287e-06
4.1789e-05
1.478e-06
4.12639e-05
1.40288e-06
4.07658e-05
1.32719e-06
4.02941e-05
1.25182e-06
3.98495e-05
1.17685e-06
3.94312e-05
1.10279e-06
3.90388e-05
1.02994e-06
3.86715e-05
9.58889e-07
3.83299e-05
8.89042e-07
3.80118e-05
8.21891e-07
3.77178e-05
7.56755e-07
3.7446e-05
6.93766e-07
3.71969e-05
6.32635e-07
3.69688e-05
5.74907e-07
3.67604e-05
5.20368e-07
3.65714e-05
4.67959e-07
3.64017e-05
4.14915e-07
3.62526e-05
3.5935e-07
3.6122e-05
3.10626e-07
3.6005e-05
2.75416e-07
3.5899e-05
2.47698e-07
3.58116e-05
1.97281e-07
3.57566e-05
1.03762e-07
3.57397e-05
-6.62355e-09
3.57428e-05
-5.6971e-08
3.57322e-05
-4.84336e-09
3.56876e-05
1.08989e-07
3.5642e-05
1.11761e-07
3.56908e-05
-1.83417e-07
3.59113e-05
-7.12991e-07
3.6346e-05
-1.36444e-06
3.69068e-05
-1.72077e-06
3.7381e-05
-1.40549e-06
3.76522e-05
-7.50625e-07
3.76446e-05
1.2857e-07
3.74117e-05
8.15733e-07
3.74172e-05
-2.34909e-08
3.82015e-05
-2.55396e-06
4.00939e-05
-6.05537e-06
4.35729e-05
-1.11494e-05
4.96089e-05
-1.97048e-05
5.53439e-05
-1.77958e-05
5.0837e-05
1.729e-05
2.96781e-05
6.77742e-05
2.49252e-06
7.97147e-05
-6.45911e-06
1.98078e-05
-6.78086e-06
-7.05545e-06
6.54423e-05
8.34401e-05
3.69238e-06
8.22209e-05
3.66079e-06
8.10165e-05
3.61572e-06
7.98222e-05
3.58348e-06
7.86365e-05
3.55689e-06
7.74578e-05
3.53017e-06
7.62895e-05
3.49962e-06
7.51305e-05
3.46877e-06
7.39817e-05
3.43645e-06
7.28428e-05
3.40365e-06
7.17137e-05
3.36904e-06
7.05968e-05
3.33016e-06
6.94928e-05
3.28479e-06
6.8404e-05
3.23433e-06
6.73321e-05
3.17398e-06
6.62818e-05
3.10949e-06
6.52513e-05
3.03809e-06
6.42441e-05
2.96152e-06
6.32632e-05
2.87606e-06
6.23103e-05
2.78566e-06
6.13877e-05
2.68976e-06
6.04956e-05
2.58969e-06
5.96375e-05
2.48461e-06
5.88141e-05
2.37629e-06
5.80262e-05
2.26594e-06
5.72741e-05
2.15501e-06
5.65576e-05
2.04373e-06
5.58781e-05
1.93127e-06
5.52353e-05
1.8197e-06
5.46281e-05
1.70995e-06
5.40562e-05
1.60191e-06
5.35197e-05
1.49533e-06
5.30178e-05
1.39104e-06
5.25492e-05
1.29046e-06
5.21129e-05
1.19304e-06
5.17084e-05
1.09828e-06
5.13347e-05
1.00638e-06
5.09916e-05
9.17977e-07
5.06755e-05
8.36444e-07
5.03872e-05
7.56301e-07
5.01268e-05
6.7528e-07
4.9894e-05
5.92174e-07
4.96885e-05
5.1612e-07
4.9502e-05
4.61922e-07
4.93332e-05
4.16523e-07
4.91904e-05
3.40086e-07
4.90905e-05
2.03651e-07
4.90435e-05
4.04063e-08
4.90249e-05
-3.84357e-08
4.89936e-05
2.65395e-08
4.8922e-05
1.8053e-07
4.885e-05
1.83774e-07
4.88955e-05
-2.28949e-07
4.91619e-05
-9.79315e-07
4.97016e-05
-1.90415e-06
5.04105e-05
-2.42968e-06
5.10272e-05
-2.02221e-06
5.13983e-05
-1.12169e-06
5.14246e-05
1.02188e-07
5.11623e-05
1.07811e-06
5.11738e-05
-3.50247e-08
5.21317e-05
-3.51185e-06
5.44632e-05
-8.38687e-06
5.87438e-05
-1.543e-05
6.60629e-05
-2.70239e-05
7.32509e-05
-2.49838e-05
6.85078e-05
2.20332e-05
4.2578e-05
9.37039e-05
6.77404e-06
0.000115519
-7.58878e-06
3.41706e-05
-1.06728e-05
-3.97145e-06
9.02223e-05
0.000113465
5.33599e-06
0.000111833
5.29214e-06
0.00011022
5.22859e-06
0.00010862
5.18422e-06
0.000107029
5.14775e-06
0.000105449
5.11034e-06
0.000103879
5.06985e-06
0.000102319
5.02797e-06
0.000100772
4.98391e-06
9.92364e-05
4.9392e-06
9.77141e-05
4.89132e-06
9.62047e-05
4.83966e-06
9.47106e-05
4.77889e-06
9.32343e-05
4.71073e-06
9.17802e-05
4.62798e-06
9.03478e-05
4.54196e-06
8.89431e-05
4.44275e-06
8.75672e-05
4.33745e-06
8.62225e-05
4.22078e-06
8.49138e-05
4.09439e-06
8.36414e-05
3.96212e-06
8.24107e-05
3.82048e-06
8.12219e-05
3.67337e-06
8.00776e-05
3.52066e-06
7.89789e-05
3.36466e-06
7.79282e-05
3.20574e-06
7.69244e-05
3.04747e-06
7.59696e-05
2.88609e-06
7.50612e-05
2.72817e-06
7.42025e-05
2.56866e-06
7.33905e-05
2.41392e-06
7.26252e-05
2.26064e-06
7.19062e-05
2.10998e-06
7.12319e-05
1.96483e-06
7.06014e-05
1.82348e-06
7.00147e-05
1.68503e-06
6.94695e-05
1.55154e-06
6.89647e-05
1.42285e-06
6.8499e-05
1.30208e-06
6.80697e-05
1.18567e-06
6.76792e-05
1.06582e-06
6.73278e-05
9.43542e-07
6.70119e-05
8.32005e-07
6.67258e-05
7.48006e-07
6.64652e-05
6.77125e-07
6.62393e-05
5.65969e-07
6.60707e-05
3.72256e-07
6.59696e-05
1.41578e-07
6.59111e-05
2.00643e-08
6.5843e-05
9.45709e-08
6.57297e-05
2.93853e-07
6.56177e-05
2.95804e-07
6.56499e-05
-2.61181e-07
6.59513e-05
-1.28074e-06
6.65957e-05
-2.54848e-06
6.74588e-05
-3.29277e-06
6.82332e-05
-2.79669e-06
6.87215e-05
-1.60996e-06
6.87999e-05
2.37577e-08
6.85251e-05
1.35291e-06
6.85518e-05
-6.17083e-08
6.96836e-05
-4.64361e-06
7.24591e-05
-1.11624e-05
7.75487e-05
-2.05196e-05
8.61166e-05
-3.55918e-05
9.47741e-05
-3.36413e-05
9.01034e-05
2.67038e-05
5.95366e-05
0.000124271
1.38111e-05
0.000161244
-8.2798e-06
5.62615e-05
-1.56953e-05
3.444e-06
0.000119016
0.000150837
7.44946e-06
0.000148742
7.38758e-06
0.000146665
7.30576e-06
0.0001446
7.24905e-06
0.000142545
7.20293e-06
0.000140498
7.15658e-06
0.000138464
7.10416e-06
0.000136442
7.04995e-06
0.000134432
6.99365e-06
0.000132434
6.9377e-06
0.000130449
6.87658e-06
0.000128477
6.812e-06
0.000126521
6.73423e-06
0.000124587
6.64488e-06
0.000122673
6.54186e-06
0.000120788
6.42741e-06
0.000118932
6.2989e-06
0.000117109
6.16033e-06
0.000115325
6.00493e-06
0.000113579
5.83966e-06
0.000111881
5.66031e-06
0.00011023
5.47155e-06
0.000108633
5.27102e-06
0.000107089
5.06438e-06
0.000105603
4.85016e-06
0.000104175
4.63401e-06
0.000102809
4.41366e-06
0.000101502
4.1927e-06
0.000100259
3.97156e-06
9.90751e-05
3.75264e-06
9.79541e-05
3.53494e-06
9.68929e-05
3.32185e-06
9.58911e-05
3.11177e-06
9.49491e-05
2.90682e-06
9.40631e-05
2.70946e-06
9.32338e-05
2.51439e-06
9.24602e-05
2.32506e-06
9.17402e-05
2.14296e-06
9.10712e-05
1.97109e-06
9.04525e-05
1.80429e-06
8.98856e-05
1.63275e-06
8.93693e-05
1.45986e-06
8.89024e-05
1.29888e-06
8.84767e-05
1.17376e-06
8.80858e-05
1.06795e-06
8.77426e-05
9.09259e-07
8.74718e-05
6.43009e-07
8.72891e-05
3.24266e-07
8.71635e-05
1.45659e-07
8.70342e-05
2.23863e-07
8.68605e-05
4.67555e-07
8.66904e-05
4.65956e-07
8.66917e-05
-2.62548e-07
8.70163e-05
-1.60529e-06
8.77507e-05
-3.28289e-06
8.87653e-05
-4.30737e-06
8.97004e-05
-3.73179e-06
9.03197e-05
-2.22927e-06
9.04692e-05
-1.25693e-07
9.02021e-05
1.61996e-06
9.02562e-05
-1.1577e-07
9.15605e-05
-5.94796e-06
9.47657e-05
-1.43676e-05
0.000100632
-2.63859e-05
0.000110355
-4.53147e-05
0.000120402
-4.36886e-05
0.000116086
3.10197e-05
8.13474e-05
0.00015901
2.46083e-05
0.000217983
-8.08307e-06
8.89529e-05
-2.16128e-05
1.69737e-05
0.000151137
0.000195799
1.00459e-05
0.000193219
9.96775e-06
0.000190655
9.86981e-06
0.000188103
9.80057e-06
0.00018556
9.74563e-06
0.000183024
9.6928e-06
0.000180496
9.63218e-06
0.000177978
9.56804e-06
0.000175468
9.50412e-06
0.000172971
9.43416e-06
0.000170484
9.36406e-06
0.000168009
9.28722e-06
0.000165548
9.19485e-06
0.000163107
9.08597e-06
0.000160689
8.96026e-06
0.000158298
8.81818e-06
0.000155937
8.65996e-06
0.000153612
8.48498e-06
0.000151328
8.28874e-06
0.00014909
8.07816e-06
0.000146901
7.84909e-06
0.000144769
7.60405e-06
0.000142694
7.3452e-06
0.000140687
7.07215e-06
0.000138745
6.79182e-06
0.000136874
6.50544e-06
0.000135076
6.21115e-06
0.000133351
5.91746e-06
0.000131701
5.62221e-06
0.000130127
5.32643e-06
0.000128629
5.03333e-06
0.000127205
4.74507e-06
0.000125857
4.46035e-06
0.000124581
4.18279e-06
0.000123378
3.91194e-06
0.000122247
3.64553e-06
0.000121185
3.38687e-06
0.000120191
3.13722e-06
0.000119265
2.89735e-06
0.000118403
2.66615e-06
0.000117605
2.43051e-06
0.000116877
2.18857e-06
0.000116211
1.96451e-06
0.0001156
1.78521e-06
0.000115037
1.63075e-06
0.000114536
1.41031e-06
0.000114126
1.05253e-06
0.000113825
6.25969e-07
0.0001136
3.70237e-07
0.000113382
4.41583e-07
0.000113123
7.26605e-07
0.000112872
7.17265e-07
0.000112821
-2.11362e-07
0.000113144
-1.9284e-06
0.000113948
-4.08757e-06
0.000115095
-5.45439e-06
0.000116185
-4.82166e-06
0.00011694
-2.98379e-06
0.000117178
-3.63634e-07
0.000116939
1.85838e-06
0.000117038
-2.14515e-07
0.000118509
-7.41868e-06
0.00012211
-1.79685e-05
0.000128687
-3.29629e-05
0.000139421
-5.60489e-05
0.000150688
-5.49557e-05
0.00014688
3.48274e-05
0.000108795
0.000197095
4.02877e-05
0.000286491
-6.45535e-06
0.000135696
-2.80971e-05
3.86154e-05
0.00018574
0.000248011
1.31115e-05
0.000244966
1.30127e-05
0.000241937
1.28985e-05
0.000238913
1.28248e-05
0.000235892
1.27665e-05
0.000232875
1.27099e-05
0.000229863
1.26449e-05
0.000226854
1.2577e-05
0.000223853
1.25048e-05
0.000220856
1.24312e-05
0.000217867
1.23528e-05
0.000214885
1.22699e-05
0.000211917
1.2163e-05
0.000208959
1.2044e-05
0.000206026
1.18926e-05
0.000203117
1.17281e-05
0.000200237
1.15397e-05
0.000197392
1.13294e-05
0.000194587
1.1094e-05
0.000191831
1.08342e-05
0.000189125
1.0555e-05
0.000186481
1.02478e-05
0.0001839
9.92652e-06
0.00018139
9.58236e-06
0.000178956
9.22603e-06
0.000176602
8.8591e-06
0.000174327
8.48629e-06
0.000172139
8.1051e-06
0.00017004
7.72198e-06
0.000168027
7.33918e-06
0.000166104
6.95659e-06
0.000164268
6.58066e-06
0.000162523
6.20569e-06
0.000160864
5.84149e-06
0.000159293
5.48281e-06
0.000157809
5.13007e-06
0.00015641
4.78584e-06
0.000155095
4.45173e-06
0.000153861
4.1318e-06
0.000152706
3.82075e-06
0.000151635
3.50214e-06
0.000150645
3.17784e-06
0.000149737
2.87282e-06
0.000148898
2.62429e-06
0.000148123
2.40609e-06
0.000147424
2.10902e-06
0.000146837
1.63972e-06
0.000146382
1.08107e-06
0.000146022
7.29661e-07
0.000145687
7.77045e-07
0.000145315
1.09853e-06
0.00014496
1.07216e-06
0.00014483
-8.19582e-08
0.000145126
-2.22374e-06
0.000145971
-4.93254e-06
0.000147222
-6.70605e-06
0.000148445
-6.04438e-06
0.000149329
-3.86715e-06
0.000149662
-6.96985e-07
0.000149475
2.04539e-06
0.000149636
-3.7553e-07
0.000151264
-9.0468e-06
0.000155215
-2.19193e-05
0.000162402
-4.01499e-05
0.000173976
-6.7623e-05
0.000186239
-6.72189e-05
0.000182882
3.81846e-05
0.000142458
0.000237519
6.22694e-05
0.000366679
-2.25861e-06
0.000200224
-3.47217e-05
7.10785e-05
0.000221988
0.000307046
1.6619e-05
0.000303557
1.6502e-05
0.000300081
1.63747e-05
0.000296614
1.62913e-05
0.000293144
1.6237e-05
0.00028967
1.61841e-05
0.000286195
1.61195e-05
0.000282725
1.60475e-05
0.000279253
1.59764e-05
0.000275783
1.59006e-05
0.000272314
1.58223e-05
0.000268849
1.57352e-05
0.000265388
1.56236e-05
0.000261942
1.54901e-05
0.00025851
1.53246e-05
0.0002551
1.51382e-05
0.000251717
1.49223e-05
0.000248367
1.46794e-05
0.000245059
1.44028e-05
0.000241793
1.40994e-05
0.000238584
1.37641e-05
0.000235433
1.33987e-05
0.000232352
1.30076e-05
0.000229343
1.25917e-05
0.000226413
1.21556e-05
0.000223568
1.17042e-05
0.000220817
1.12377e-05
0.000218157
1.07653e-05
0.000215591
1.02876e-05
0.000213125
9.80551e-06
0.000210757
9.32436e-06
0.000208492
8.84517e-06
0.000206326
8.37242e-06
0.000204263
7.90464e-06
0.000202298
7.44701e-06
0.000200433
6.99508e-06
0.000198668
6.55123e-06
0.000197002
6.1179e-06
0.000195431
5.70266e-06
0.000193955
5.29629e-06
0.000192576
4.88188e-06
0.000191297
4.45696e-06
0.000190115
4.0546e-06
0.000189018
3.72154e-06
0.000187999
3.42465e-06
0.000187075
3.03288e-06
0.000186279
2.43543e-06
0.000185639
1.72157e-06
0.000185119
1.2493e-06
0.000184637
1.25891e-06
0.000184133
1.60313e-06
0.000183652
1.55254e-06
0.000183424
1.46032e-07
0.000183663
-2.46269e-06
0.000184516
-5.78517e-06
0.00018584
-8.0296e-06
0.000187167
-7.37177e-06
0.000188168
-4.86825e-06
0.000188603
-1.13201e-06
0.000188482
2.16626e-06
0.00018872
-6.13444e-07
0.000190495
-1.08212e-05
0.000194742
-2.61663e-05
0.000202419
-4.78275e-05
0.000214641
-7.98443e-05
0.000227656
-8.02343e-05
0.000224621
4.12196e-05
0.000182907
0.000279233
9.22266e-05
0.00045736
6.38067e-06
0.00028607
-4.0525e-05
0.000117984
0.000259476
0.000376888
2.02736e-05
0.000372939
2.0568e-05
0.000369008
2.04329e-05
0.000365093
2.0289e-05
0.000361181
2.02041e-05
0.00035726
2.01581e-05
0.000353339
2.01049e-05
0.000349413
2.00455e-05
0.000345484
1.99761e-05
0.000341554
1.99063e-05
0.000337622
1.98328e-05
0.00033369
1.9755e-05
0.000329755
1.96699e-05
0.000325823
1.95558e-05
0.0003219
1.94129e-05
0.000317991
1.92336e-05
0.000314104
1.90253e-05
0.00031024
1.8786e-05
0.000306409
1.85109e-05
0.000302617
1.8195e-05
0.00029887
1.78462e-05
0.000295177
1.74568e-05
0.000291545
1.70307e-05
0.000287983
1.65701e-05
0.000284498
1.60762e-05
0.000281096
1.55579e-05
0.000277786
1.50139e-05
0.000274567
1.4457e-05
0.000271449
1.38833e-05
0.000268436
1.33008e-05
0.000265527
1.27145e-05
0.000262726
1.21251e-05
0.000260035
1.1536e-05
0.000257456
1.09514e-05
0.000254987
1.03742e-05
0.00025263
9.80346e-06
0.000250384
9.24143e-06
0.000248251
8.68461e-06
0.000246228
8.14063e-06
0.000244314
7.61691e-06
0.000242508
7.10227e-06
0.000240814
6.5754e-06
0.000239233
6.03806e-06
0.000237765
5.52296e-06
0.000236396
5.09002e-06
0.000235123
4.69765e-06
0.000233958
4.19821e-06
0.000232941
3.45227e-06
0.000232099
2.56369e-06
0.000231402
1.94675e-06
0.000230761
1.8991e-06
0.00023011
2.25418e-06
0.000229496
2.16716e-06
0.000229153
4.88835e-07
0.000229318
-2.62752e-06
0.000230148
-6.61512e-06
0.000231509
-9.3913e-06
0.000232919
-8.78186e-06
0.000234022
-5.97081e-06
0.000234561
-1.67134e-06
0.000234522
2.20553e-06
0.000234849
-9.40665e-07
0.000236757
-1.27289e-05
0.000241239
-3.06484e-05
0.000249282
-5.58709e-05
0.000261965
-9.25267e-05
0.000275502
-9.37718e-05
0.000272703
4.40187e-05
0.000230708
0.000321228
0.000131486
0.000556581
2.15704e-05
0.000395985
-4.4076e-05
0.00018363
0.000299036
0.000450837
2.46105e-05
0.000446408
2.49971e-05
0.000441997
2.48437e-05
0.000437602
2.46849e-05
0.000433211
2.45947e-05
0.000428819
2.45506e-05
0.000424417
2.45061e-05
0.000420013
2.44497e-05
0.000415609
2.43804e-05
0.000411201
2.43141e-05
0.000406789
2.42452e-05
0.000402374
2.41698e-05
0.000397957
2.40869e-05
0.000393543
2.39699e-05
0.000389137
2.38185e-05
0.000384745
2.36263e-05
0.000380372
2.33978e-05
0.000376028
2.313e-05
0.000371717
2.28225e-05
0.000367446
2.24658e-05
0.000363224
2.20676e-05
0.000359058
2.16228e-05
0.000354957
2.11318e-05
0.00035093
2.05971e-05
0.000346983
2.0023e-05
0.000343124
1.94174e-05
0.00033936
1.87776e-05
0.000335696
1.81207e-05
0.000332138
1.74413e-05
0.000328688
1.67511e-05
0.000325354
1.60492e-05
0.000322134
1.53443e-05
0.000319034
1.46367e-05
0.000316053
1.3932e-05
0.000313196
1.32315e-05
0.000310456
1.2543e-05
0.000307842
1.18555e-05
0.000305349
1.11781e-05
0.000302977
1.05119e-05
0.000300728
9.86645e-06
0.0002986
9.22991e-06
0.000296594
8.58149e-06
0.000294717
7.91548e-06
0.000292966
7.27368e-06
0.000291331
6.72478e-06
0.000289803
6.22612e-06
0.000288398
5.60295e-06
0.000287158
4.69226e-06
0.000286115
3.60723e-06
0.000285238
2.82362e-06
0.000284437
2.69952e-06
0.000283641
3.0509e-06
0.000282889
2.91895e-06
0.000282429
9.48094e-07
0.000282504
-2.70201e-06
0.000283293
-7.40378e-06
0.000284671
-1.07698e-05
0.000286142
-1.02526e-05
0.000287338
-7.16733e-06
0.000287985
-2.31803e-06
0.000288048
2.14267e-06
0.000288478
-1.37053e-06
0.000290508
-1.47592e-05
0.000295171
-3.53117e-05
0.000303466
-6.4165e-05
0.000316427
-0.000105488
0.000330266
-0.000107612
0.000327704
4.65815e-05
0.000286293
0.000362639
0.000180857
0.000662018
4.55082e-05
0.000531334
-4.3518e-05
0.000272657
0.000343116
0.000533685
2.94858e-05
0.000528709
2.99728e-05
0.000523751
2.9802e-05
0.000518811
2.96246e-05
0.000513878
2.95274e-05
0.000508943
2.94862e-05
0.000504003
2.94455e-05
0.000499065
2.93877e-05
0.000494123
2.93223e-05
0.000489179
2.9258e-05
0.000484237
2.91879e-05
0.000479289
2.91172e-05
0.000474346
2.90302e-05
0.000469403
2.89125e-05
0.000464468
2.8754e-05
0.000459555
2.85388e-05
0.000454664
2.82889e-05
0.000449806
2.79885e-05
0.000444984
2.76447e-05
0.000440208
2.72414e-05
0.000435486
2.67904e-05
0.000430826
2.6282e-05
0.000426236
2.57222e-05
0.000421727
2.51063e-05
0.000417305
2.44453e-05
0.000412979
2.37431e-05
0.000408753
2.30038e-05
0.000404638
2.22356e-05
0.000400635
2.14442e-05
0.000396752
2.06336e-05
0.000392992
1.98098e-05
0.000389355
1.89809e-05
0.000385848
1.81433e-05
0.000382471
1.7309e-05
0.000379224
1.64793e-05
0.000376111
1.56554e-05
0.000373129
1.4838e-05
0.000370284
1.40234e-05
0.000367573
1.3223e-05
0.000364995
1.24444e-05
0.000362547
1.16778e-05
0.000360238
1.08905e-05
0.00035807
1.00836e-05
0.000356044
9.29964e-06
0.000354146
8.62215e-06
0.000352371
8.00134e-06
0.000350731
7.24304e-06
0.000349273
6.15013e-06
0.000348033
4.8476e-06
0.000346976
3.87991e-06
0.000346018
3.65775e-06
0.000345084
3.9846e-06
0.000344202
3.8012e-06
0.000343627
1.52361e-06
0.00034361
-2.68487e-06
0.000344345
-8.13935e-06
0.000345724
-1.21488e-05
0.000347242
-1.17704e-05
0.000348526
-8.45124e-06
0.000349291
-3.08306e-06
0.000349469
1.96424e-06
0.000350016
-1.91753e-06
0.000352165
-1.69081e-05
0.000356969
-4.01154e-05
0.000365416
-7.26125e-05
0.00037849
-0.000118561
0.000392438
-0.00012156
0.000390062
4.8958e-05
0.000349964
0.000402737
0.000241022
0.00077096
8.03213e-05
0.000692034
-3.68565e-05
0.000389834
0.000395795
0.000627082
3.50008e-05
0.000621467
3.55879e-05
0.000615862
3.54065e-05
0.000610282
3.52047e-05
0.000604714
3.50957e-05
0.000599149
3.50514e-05
0.000593582
3.50127e-05
0.000588015
3.4954e-05
0.000582452
3.48852e-05
0.000576894
3.48162e-05
0.000571335
3.47473e-05
0.000565781
3.46712e-05
0.000560225
3.45857e-05
0.000554678
3.44597e-05
0.000549148
3.42846e-05
0.000543639
3.40474e-05
0.000538162
3.37659e-05
0.000532721
3.34296e-05
0.000527327
3.30385e-05
0.000521985
3.25839e-05
0.000516707
3.20684e-05
0.000511499
3.14899e-05
0.00050637
3.08505e-05
0.00050133
3.01463e-05
0.000496388
2.93873e-05
0.000491554
2.85777e-05
0.000486833
2.77251e-05
0.000482228
2.68406e-05
0.000477749
2.59228e-05
0.000473399
2.49831e-05
0.000469183
2.40266e-05
0.000465108
2.30561e-05
0.000461169
2.20818e-05
0.000457375
2.11028e-05
0.000453724
2.0131e-05
0.000450219
1.91599e-05
0.000446862
1.81951e-05
0.000443651
1.72346e-05
0.000440587
1.62864e-05
0.000437671
1.53606e-05
0.000434903
1.44459e-05
0.000432281
1.3512e-05
0.00042982
1.25453e-05
0.000427512
1.1607e-05
0.000425352
1.07829e-05
0.000423325
1.00283e-05
0.000421452
9.11572e-06
0.000419776
7.82658e-06
0.000418334
6.28963e-06
0.000417103
5.1106e-06
0.000415991
4.77e-06
0.000414916
5.05869e-06
0.00041391
4.80726e-06
0.000413223
2.21072e-06
0.000413111
-2.57277e-06
0.000413785
-8.81324e-06
0.000415151
-1.35145e-05
0.000416702
-1.33218e-05
0.000418065
-9.81375e-06
0.000418949
-3.96714e-06
0.000419262
1.65114e-06
0.000419942
-2.59732e-06
0.000422211
-1.91773e-05