/*--------------------------------*- C++ -*----------------------------------*\
| =========                 |                                                 |
| \\      /  F ield         | OpenFOAM: The Open Source CFD Toolbox           |
|  \\    /   O peration     | Version:  2412                                  |
|   \\  /    A nd           | Website:  www.openfoam.com                      |
|    \\/     M anipulation  |                                                 |
\*---------------------------------------------------------------------------*/
FoamFile
{
    version     2.0;
    format      ascii;
    arch        "LSB;label=32;scalar=64";
    class       volScalarField;
    location    "40";
    object      nut;
}
// * * * * * * * * * * * * * * * * * * * * * * * * * * * * * * * * * * * * * //

dimensions      [0 2 -1 0 0 0 0];

internalField   nonuniform List<scalar> 
7332
(
1.90318e-11
3.64683e-11
2.46815e-12
8.71445e-13
3.14201e-12
2.32807e-12
2.87835e-11
6.01387e-11
5.67121e-11
4.20605e-11
3.38771e-11
2.98794e-11
2.79181e-11
2.74196e-11
2.778e-11
2.80617e-11
2.78803e-11
2.73732e-11
2.661e-11
2.5852e-11
2.53562e-11
2.51069e-11
2.50239e-11
2.49869e-11
2.49044e-11
2.47869e-11
2.46723e-11
2.46013e-11
2.45807e-11
2.4584e-11
2.38351e-11
2.38003e-11
2.37577e-11
2.37182e-11
2.36829e-11
2.36532e-11
2.36298e-11
2.36109e-11
2.3596e-11
2.35889e-11
2.35886e-11
2.35938e-11
2.36003e-11
2.36106e-11
2.36378e-11
2.36972e-11
2.37876e-11
2.3874e-11
2.39225e-11
2.39245e-11
2.39674e-11
2.41636e-11
2.45898e-11
2.52576e-11
2.59234e-11
2.6341e-11
2.64463e-11
2.61121e-11
2.56923e-11
2.60595e-11
2.77587e-11
3.13012e-11
3.85462e-11
5.14807e-11
5.39055e-11
2.56491e-11
2.04578e-12
2.20188e-12
8.77983e-13
3.45185e-12
3.38987e-11
1.51996e-11
1.2071e-09
2.35533e-09
2.80226e-10
7.09732e-11
2.26546e-10
2.09884e-10
2.71412e-09
4.95805e-09
4.64226e-09
3.62106e-09
3.00665e-09
2.69466e-09
2.54147e-09
2.50274e-09
2.52873e-09
2.54623e-09
2.52689e-09
2.48134e-09
2.4167e-09
2.354e-09
2.31297e-09
2.29218e-09
2.28474e-09
2.28084e-09
2.27325e-09
2.26293e-09
2.25309e-09
2.24697e-09
2.24521e-09
2.24568e-09
2.17681e-09
2.17353e-09
2.16945e-09
2.16562e-09
2.1622e-09
2.15929e-09
2.15689e-09
2.15491e-09
2.15333e-09
2.15238e-09
2.15211e-09
2.15232e-09
2.15273e-09
2.15347e-09
2.1556e-09
2.16049e-09
2.16808e-09
2.17555e-09
2.18006e-09
2.18078e-09
2.1846e-09
2.20071e-09
2.23567e-09
2.29059e-09
2.34676e-09
2.38433e-09
2.39677e-09
2.3742e-09
2.34262e-09
2.37026e-09
2.50235e-09
2.77862e-09
3.32397e-09
4.22926e-09
4.46886e-09
2.42082e-09
1.84881e-10
1.62303e-10
7.11535e-11
3.95545e-10
2.15253e-09
1.07102e-09
7.63588e-09
1.44411e-08
3.73204e-09
5.9382e-10
1.56781e-09
2.34753e-09
2.4488e-08
3.83265e-08
3.60307e-08
2.99497e-08
2.58755e-08
2.3704e-08
2.26398e-08
2.23654e-08
2.25092e-08
2.25701e-08
2.23722e-08
2.19858e-08
2.14796e-08
2.10051e-08
2.06941e-08
2.05344e-08
2.0471e-08
2.0431e-08
2.03643e-08
2.02799e-08
2.02018e-08
2.01534e-08
2.0139e-08
2.01446e-08
1.9531e-08
1.94993e-08
1.94599e-08
1.94223e-08
1.93882e-08
1.93583e-08
1.93326e-08
1.93107e-08
1.92924e-08
1.92793e-08
1.92723e-08
1.92698e-08
1.92696e-08
1.92726e-08
1.92863e-08
1.93217e-08
1.93789e-08
1.94382e-08
1.94777e-08
1.94897e-08
1.95217e-08
1.96421e-08
1.9903e-08
2.03145e-08
2.07513e-08
2.10702e-08
2.1208e-08
2.10991e-08
2.09035e-08
2.10895e-08
2.19987e-08
2.3918e-08
2.75458e-08
3.29642e-08
3.47924e-08
2.19572e-08
2.04996e-09
1.14831e-09
5.80305e-10
4.48069e-09
1.30469e-08
8.5688e-09
3.67111e-08
4.42202e-08
2.00753e-08
3.38047e-09
5.36723e-09
1.68341e-08
1.02142e-07
1.41231e-07
1.35123e-07
1.19752e-07
1.07768e-07
1.01032e-07
9.77418e-08
9.6816e-08
9.7029e-08
9.69103e-08
9.60026e-08
9.44999e-08
9.2697e-08
9.10718e-08
9.0004e-08
8.94466e-08
8.91971e-08
8.90146e-08
8.87481e-08
8.84346e-08
8.81567e-08
8.79847e-08
8.79305e-08
8.79583e-08
8.53703e-08
8.52149e-08
8.50248e-08
8.484e-08
8.46676e-08
8.45117e-08
8.43732e-08
8.42512e-08
8.41443e-08
8.40583e-08
8.39976e-08
8.39577e-08
8.39299e-08
8.39164e-08
8.39428e-08
8.40466e-08
8.42332e-08
8.44415e-08
8.45954e-08
8.46619e-08
8.47841e-08
8.51879e-08
8.60645e-08
8.74548e-08
8.89964e-08
9.02367e-08
9.0902e-08
9.08116e-08
9.03736e-08
9.09693e-08
9.37449e-08
9.96891e-08
1.10414e-07
1.24206e-07
1.29254e-07
9.2574e-08
1.46587e-08
4.00997e-09
2.771e-09
2.01936e-08
3.95936e-08
3.96395e-08
1.59888e-07
9.86336e-08
6.14336e-08
1.57851e-08
1.35701e-08
8.75196e-08
2.81255e-07
3.58341e-07
3.52716e-07
3.31477e-07
3.0975e-07
2.96735e-07
2.90337e-07
2.88095e-07
2.87618e-07
2.86424e-07
2.83824e-07
2.80105e-07
2.76053e-07
2.72562e-07
2.7026e-07
2.69032e-07
2.68407e-07
2.67899e-07
2.6724e-07
2.66523e-07
2.65922e-07
2.65557e-07
2.65433e-07
2.65505e-07
2.58278e-07
2.57732e-07
2.57085e-07
2.56445e-07
2.55834e-07
2.55265e-07
2.54744e-07
2.54269e-07
2.53839e-07
2.53467e-07
2.53165e-07
2.52926e-07
2.52731e-07
2.52581e-07
2.52529e-07
2.52657e-07
2.5299e-07
2.53416e-07
2.5377e-07
2.53964e-07
2.54251e-07
2.55089e-07
2.56919e-07
2.5985e-07
2.63275e-07
2.6634e-07
2.6831e-07
2.68924e-07
2.68761e-07
2.70182e-07
2.75483e-07
2.86955e-07
3.06558e-07
3.25836e-07
3.30667e-07
2.58328e-07
7.62408e-08
1.03409e-08
1.21271e-08
5.71796e-08
8.84103e-08
1.70703e-07
5.77628e-07
1.8799e-07
1.38477e-07
6.1253e-08
3.35306e-08
3.02915e-07
5.93992e-07
7.25408e-07
7.39815e-07
7.30892e-07
7.05484e-07
6.88533e-07
6.79796e-07
6.75194e-07
6.72058e-07
6.68205e-07
6.62987e-07
6.56541e-07
6.50321e-07
6.45275e-07
6.41925e-07
6.40092e-07
6.39019e-07
6.38089e-07
6.37029e-07
6.36001e-07
6.35229e-07
6.34805e-07
6.34658e-07
6.34777e-07
6.19689e-07
6.1813e-07
6.16365e-07
6.14603e-07
6.12886e-07
6.11242e-07
6.097e-07
6.08261e-07
6.06926e-07
6.05717e-07
6.04657e-07
6.03742e-07
6.02946e-07
6.02264e-07
6.01758e-07
6.01563e-07
6.01744e-07
6.02179e-07
6.02632e-07
6.02943e-07
6.03359e-07
6.04476e-07
6.06995e-07
6.11099e-07
6.16265e-07
6.21562e-07
6.25605e-07
6.28315e-07
6.30119e-07
6.33192e-07
6.40261e-07
6.55207e-07
6.78522e-07
6.87101e-07
6.74838e-07
5.53876e-07
2.70039e-07
2.65494e-08
4.60869e-08
1.24004e-07
1.70629e-07
6.06836e-07
1.71854e-06
3.61633e-07
2.60846e-07
1.57247e-07
9.48555e-08
7.5179e-07
1.0394e-06
1.26325e-06
1.33812e-06
1.37537e-06
1.36296e-06
1.3503e-06
1.34216e-06
1.33382e-06
1.3252e-06
1.31738e-06
1.30997e-06
1.30248e-06
1.29674e-06
1.29267e-06
1.28995e-06
1.28844e-06
1.28736e-06
1.28641e-06
1.28561e-06
1.28513e-06
1.28505e-06
1.28525e-06
1.28548e-06
1.26097e-06
1.25715e-06
1.25306e-06
1.24895e-06
1.24489e-06
1.24093e-06
1.23713e-06
1.23353e-06
1.23013e-06
1.22694e-06
1.22403e-06
1.22138e-06
1.219e-06
1.21685e-06
1.21497e-06
1.21348e-06
1.21252e-06
1.21208e-06
1.21198e-06
1.21202e-06
1.21217e-06
1.21273e-06
1.21443e-06
1.21741e-06
1.22196e-06
1.22807e-06
1.2339e-06
1.24012e-06
1.24666e-06
1.25284e-06
1.25924e-06
1.27053e-06
1.28296e-06
1.25027e-06
1.18458e-06
9.85508e-07
6.83995e-07
7.64603e-08
1.19668e-07
2.30422e-07
3.5719e-07
1.77132e-06
4.31694e-06
8.27751e-07
4.43664e-07
3.04977e-07
2.71603e-07
1.48188e-06
1.58201e-06
1.97747e-06
2.1692e-06
2.295e-06
2.32069e-06
2.32565e-06
2.32282e-06
2.30981e-06
2.29373e-06
2.28283e-06
2.27671e-06
2.27366e-06
2.27478e-06
2.27725e-06
2.27893e-06
2.28005e-06
2.28049e-06
2.28107e-06
2.28248e-06
2.28472e-06
2.28741e-06
2.28991e-06
2.29187e-06
2.26079e-06
2.25256e-06
2.24417e-06
2.23577e-06
2.2274e-06
2.21913e-06
2.21109e-06
2.20334e-06
2.19592e-06
2.18883e-06
2.18215e-06
2.17592e-06
2.17015e-06
2.16481e-06
2.15979e-06
2.15512e-06
2.15098e-06
2.14767e-06
2.14535e-06
2.14392e-06
2.14266e-06
2.14083e-06
2.13854e-06
2.13563e-06
2.13406e-06
2.13637e-06
2.14123e-06
2.15082e-06
2.16463e-06
2.17561e-06
2.17784e-06
2.17414e-06
2.15366e-06
2.041e-06
1.86918e-06
1.5184e-06
1.37311e-06
2.22232e-07
2.39523e-07
3.92887e-07
8.54652e-07
4.36083e-06
9.3408e-06
1.92914e-06
7.06778e-07
4.97571e-07
7.4146e-07
2.45568e-06
2.20602e-06
2.85876e-06
3.22212e-06
3.47514e-06
3.56603e-06
3.60386e-06
3.61228e-06
3.59581e-06
3.57376e-06
3.56499e-06
3.56803e-06
3.57932e-06
3.5974e-06
3.61477e-06
3.62676e-06
3.63457e-06
3.63971e-06
3.64512e-06
3.65248e-06
3.66131e-06
3.67036e-06
3.6783e-06
3.6851e-06
3.65861e-06
3.64267e-06
3.62717e-06
3.61175e-06
3.59634e-06
3.58097e-06
3.56587e-06
3.55116e-06
3.53691e-06
3.52311e-06
3.50985e-06
3.49723e-06
3.48535e-06
3.47413e-06
3.46323e-06
3.45241e-06
3.44185e-06
3.43237e-06
3.42481e-06
3.41943e-06
3.41446e-06
3.40723e-06
3.39624e-06
3.38044e-06
3.36421e-06
3.35448e-06
3.35204e-06
3.36138e-06
3.38245e-06
3.39876e-06
3.39298e-06
3.36182e-06
3.28487e-06
3.05638e-06
2.72486e-06
2.13522e-06
2.31407e-06
6.18715e-07
4.05309e-07
6.34511e-07
2.02656e-06
9.24705e-06
1.76674e-05
4.26927e-06
1.07059e-06
7.38861e-07
1.88412e-06
3.56945e-06
2.90743e-06
3.87839e-06
4.44547e-06
4.84661e-06
5.02467e-06
5.10917e-06
5.13601e-06
5.12165e-06
5.10096e-06
5.10465e-06
5.12911e-06
5.168e-06
5.21529e-06
5.25752e-06
5.28735e-06
5.30763e-06
5.32265e-06
5.33821e-06
5.35714e-06
5.37813e-06
5.39866e-06
5.41681e-06
5.43366e-06
5.43406e-06
5.40593e-06
5.37963e-06
5.35373e-06
5.32786e-06
5.30195e-06
5.27626e-06
5.25105e-06
5.22642e-06
5.20234e-06
5.17887e-06
5.15623e-06
5.13461e-06
5.11393e-06
5.0935e-06
5.0726e-06
5.05132e-06
5.03113e-06
5.01392e-06
5.00061e-06
4.98829e-06
4.97149e-06
4.94606e-06
4.9094e-06
4.86841e-06
4.83564e-06
4.81616e-06
4.81709e-06
4.84054e-06
4.85942e-06
4.84139e-06
4.7723e-06
4.62054e-06
4.25636e-06
3.731e-06
2.83233e-06
3.41676e-06
1.61118e-06
6.22674e-07
9.99432e-07
4.5118e-06
1.71599e-05
2.96138e-05
8.74969e-06
1.82511e-06
1.03221e-06
3.83217e-06
4.68067e-06
3.68549e-06
4.97905e-06
5.74055e-06
6.28898e-06
6.56711e-06
6.70903e-06
6.76361e-06
6.76276e-06
6.75709e-06
6.7877e-06
6.84819e-06
6.92868e-06
7.01709e-06
7.09398e-06
7.14987e-06
7.18983e-06
7.22172e-06
7.25455e-06
7.29211e-06
7.33199e-06
7.3703e-06
7.40488e-06
7.43856e-06
7.50104e-06
7.45516e-06
7.41362e-06
7.37321e-06
7.33298e-06
7.29261e-06
7.25238e-06
7.21266e-06
7.1736e-06
7.13516e-06
7.09734e-06
7.06047e-06
7.02488e-06
6.99051e-06
6.95626e-06
6.92078e-06
6.88387e-06
6.84769e-06
6.8154e-06
6.78889e-06
6.76419e-06
6.73276e-06
6.68696e-06
6.622e-06
6.54678e-06
6.47961e-06
6.4314e-06
6.41208e-06
6.42743e-06
6.44093e-06
6.40487e-06
6.29062e-06
6.05455e-06
5.55685e-06
4.84088e-06
3.61302e-06
4.54844e-06
3.3618e-06
9.16138e-07
1.79727e-06
9.27801e-06
2.82831e-05
4.47005e-05
1.6509e-05
3.37569e-06
1.43568e-06
6.27693e-06
5.68545e-06
4.52158e-06
6.06902e-06
6.97047e-06
7.64743e-06
8.02999e-06
8.23789e-06
8.33252e-06
8.36188e-06
8.3891e-06
8.46209e-06
8.57234e-06
8.70599e-06
8.84478e-06
8.9645e-06
9.05441e-06
9.12205e-06
9.17903e-06
9.23721e-06
9.30101e-06
9.36684e-06
9.42973e-06
9.48768e-06
9.54533e-06
9.71836e-06
9.64844e-06
9.58662e-06
9.52724e-06
9.46847e-06
9.40955e-06
9.35067e-06
9.29227e-06
9.23458e-06
9.17751e-06
9.12103e-06
9.06553e-06
9.01153e-06
8.95899e-06
8.9064e-06
8.8517e-06
8.79429e-06
8.73682e-06
8.68373e-06
8.63799e-06
8.59495e-06
8.54329e-06
8.47165e-06
8.37275e-06
8.25657e-06
8.14596e-06
8.05797e-06
8.00557e-06
7.99827e-06
7.99318e-06
7.93029e-06
7.76567e-06
7.44373e-06
6.8326e-06
5.97363e-06
4.46783e-06
5.59693e-06
5.68058e-06
1.30834e-06
3.44094e-06
1.74089e-05
4.2092e-05
6.186e-05
2.87403e-05
6.48087e-06
2.3091e-06
8.72903e-06
6.53233e-06
5.35533e-06
7.02623e-06
7.98217e-06
8.75897e-06
9.245e-06
9.5265e-06
9.67584e-06
9.75441e-06
9.83238e-06
9.96025e-06
1.01297e-05
1.03232e-05
1.05176e-05
1.06858e-05
1.08168e-05
1.09201e-05
1.10105e-05
1.11018e-05
1.11989e-05
1.12972e-05
1.1391e-05
1.14789e-05
1.15667e-05
1.19113e-05
1.18107e-05
1.17232e-05
1.16401e-05
1.15585e-05
1.1477e-05
1.13954e-05
1.13143e-05
1.12339e-05
1.11541e-05
1.10749e-05
1.09965e-05
1.09198e-05
1.08448e-05
1.07695e-05
1.06914e-05
1.06091e-05
1.05258e-05
1.04467e-05
1.03759e-05
1.03084e-05
1.02308e-05
1.01287e-05
9.99252e-06
9.83244e-06
9.67384e-06
9.53872e-06
9.44277e-06
9.39769e-06
9.35772e-06
9.25604e-06
9.03579e-06
8.63058e-06
7.93563e-06
7.01551e-06
5.35022e-06
6.51077e-06
8.11122e-06
2.13991e-06
6.72117e-06
2.99524e-05
5.75712e-05
7.97942e-05
4.63715e-05
1.24419e-05
4.04694e-06
1.07292e-05
7.16927e-06
6.1423e-06
7.7099e-06
8.63505e-06
9.48103e-06
1.00664e-05
1.0428e-05
1.06461e-05
1.07903e-05
1.09319e-05
1.11207e-05
1.13523e-05
1.16065e-05
1.18573e-05
1.2077e-05
1.22544e-05
1.24001e-05
1.2531e-05
1.26618e-05
1.27974e-05
1.2933e-05
1.30627e-05
1.31856e-05
1.33078e-05
1.3896e-05
1.37581e-05
1.36392e-05
1.35277e-05
1.34191e-05
1.3311e-05
1.32031e-05
1.30956e-05
1.29889e-05
1.28827e-05
1.27769e-05
1.2672e-05
1.25689e-05
1.24675e-05
1.23658e-05
1.22606e-05
1.21503e-05
1.20377e-05
1.19289e-05
1.18282e-05
1.17308e-05
1.16223e-05
1.14862e-05
1.13116e-05
1.11085e-05
1.09026e-05
1.07187e-05
1.05742e-05
1.04799e-05
1.03898e-05
1.02364e-05
9.9546e-06
9.46948e-06
8.72131e-06
7.8286e-06
6.20378e-06
7.24029e-06
1.02057e-05
3.79091e-06
1.30019e-05
4.75523e-05
7.36108e-05
9.72749e-05
6.95462e-05
2.34073e-05
7.34455e-06
1.20342e-05
7.5083e-06
6.75407e-06
7.99796e-06
8.82849e-06
9.71563e-06
1.0392e-05
1.0836e-05
1.11315e-05
1.13499e-05
1.1559e-05
1.18068e-05
1.20963e-05
1.24065e-05
1.27104e-05
1.29817e-05
1.32084e-05
1.34008e-05
1.35763e-05
1.37498e-05
1.39265e-05
1.41016e-05
1.42696e-05
1.443e-05
1.45882e-05
1.55009e-05
1.53196e-05
1.51636e-05
1.50189e-05
1.48791e-05
1.4741e-05
1.46035e-05
1.44666e-05
1.43304e-05
1.41948e-05
1.40596e-05
1.39252e-05
1.37926e-05
1.36619e-05
1.3531e-05
1.33963e-05
1.3256e-05
1.31126e-05
1.2972e-05
1.28389e-05
1.2708e-05
1.25651e-05
1.23929e-05
1.21806e-05
1.19384e-05
1.16905e-05
1.14623e-05
1.12713e-05
1.11236e-05
1.09741e-05
1.07592e-05
1.04113e-05
9.85041e-06
9.07538e-06
8.28031e-06
6.93511e-06
7.71114e-06
1.1717e-05
6.92875e-06
2.45732e-05
7.03065e-05
8.9118e-05
0.000110293
9.29872e-05
3.77427e-05
1.14075e-05
1.25397e-05
7.57684e-06
7.01758e-06
7.81414e-06
8.5216e-06
9.42478e-06
1.01752e-05
1.06954e-05
1.10664e-05
1.13558e-05
1.16257e-05
1.19231e-05
1.22599e-05
1.26163e-05
1.29665e-05
1.32859e-05
1.3561e-05
1.38001e-05
1.40204e-05
1.42356e-05
1.44518e-05
1.4665e-05
1.48704e-05
1.50674e-05
1.52606e-05
1.65833e-05
1.63535e-05
1.61547e-05
1.59722e-05
1.57976e-05
1.56265e-05
1.54567e-05
1.5288e-05
1.51203e-05
1.49531e-05
1.47864e-05
1.46207e-05
1.44568e-05
1.42949e-05
1.41332e-05
1.39681e-05
1.37976e-05
1.36237e-05
1.34521e-05
1.32866e-05
1.31215e-05
1.29433e-05
1.27351e-05
1.24877e-05
1.22123e-05
1.19311e-05
1.16682e-05
1.14397e-05
1.12432e-05
1.10347e-05
1.07565e-05
1.03438e-05
9.71585e-06
8.93583e-06
8.27697e-06
7.36366e-06
7.90533e-06
1.24936e-05
1.09121e-05
3.98414e-05
9.62376e-05
0.000103067
0.000118454
0.000113109
5.32698e-05
1.53161e-05
1.23793e-05
7.39142e-06
6.81826e-06
7.13137e-06
7.74154e-06
8.63668e-06
9.43046e-06
1.00079e-05
1.04394e-05
1.07847e-05
1.10991e-05
1.14302e-05
1.17985e-05
1.21872e-05
1.2573e-05
1.29328e-05
1.325e-05
1.35304e-05
1.37894e-05
1.40402e-05
1.42896e-05
1.45351e-05
1.47726e-05
1.50017e-05
1.52261e-05
1.70418e-05
1.67599e-05
1.65135e-05
1.62889e-05
1.60765e-05
1.58701e-05
1.56666e-05
1.54649e-05
1.52646e-05
1.50649e-05
1.4866e-05
1.46684e-05
1.44725e-05
1.42792e-05
1.40871e-05
1.38927e-05
1.36939e-05
1.34927e-05
1.32935e-05
1.30991e-05
1.29029e-05
1.26922e-05
1.24514e-05
1.2174e-05
1.18731e-05
1.15693e-05
1.12844e-05
1.10322e-05
1.07999e-05
1.05435e-05
1.02119e-05
9.7458e-06
9.07008e-06
8.30556e-06
7.77484e-06
7.35009e-06
7.84882e-06
1.26008e-05
1.4875e-05
5.64439e-05
0.000118341
0.000111745
0.000123002
0.000130053
6.77964e-05
1.77676e-05
1.17122e-05
6.91803e-06
6.1275e-06
5.96219e-06
6.58241e-06
7.4442e-06
8.23401e-06
8.83644e-06
9.30194e-06
9.67789e-06
1.00138e-05
1.03576e-05
1.07373e-05
1.1141e-05
1.1548e-05
1.19352e-05
1.22818e-05
1.25908e-05
1.28763e-05
1.31505e-05
1.34213e-05
1.3688e-05
1.39478e-05
1.42005e-05
1.44491e-05
1.68256e-05
1.64908e-05
1.61937e-05
1.59243e-05
1.56721e-05
1.54297e-05
1.51925e-05
1.49585e-05
1.47263e-05
1.44948e-05
1.42646e-05
1.4036e-05
1.38092e-05
1.35862e-05
1.33664e-05
1.31466e-05
1.29248e-05
1.27023e-05
1.24826e-05
1.22667e-05
1.2047e-05
1.18115e-05
1.15461e-05
1.12471e-05
1.09299e-05
1.06151e-05
1.03225e-05
1.00629e-05
9.81342e-06
9.52978e-06
9.16696e-06
8.6711e-06
7.98326e-06
7.24657e-06
6.77134e-06
6.82462e-06
7.5066e-06
1.21741e-05
1.76354e-05
7.20138e-05
0.000136992
0.000116477
0.000125078
0.000144485
7.86323e-05
1.89304e-05
1.06658e-05
6.18264e-06
5.13248e-06
4.84246e-06
5.21486e-06
6.00449e-06
6.72214e-06
7.30624e-06
7.77395e-06
8.14952e-06
8.47975e-06
8.8123e-06
9.17998e-06
9.57768e-06
9.98821e-06
1.03859e-05
1.07427e-05
1.1061e-05
1.13542e-05
1.16337e-05
1.19088e-05
1.21805e-05
1.24476e-05
1.27104e-05
1.29718e-05
1.5944e-05
1.55586e-05
1.5211e-05
1.48971e-05
1.46063e-05
1.43298e-05
1.40616e-05
1.37983e-05
1.35374e-05
1.32774e-05
1.30189e-05
1.27621e-05
1.25069e-05
1.22579e-05
1.20165e-05
1.17791e-05
1.15435e-05
1.13101e-05
1.10808e-05
1.08552e-05
1.06244e-05
1.03773e-05
1.01003e-05
9.79148e-06
9.46798e-06
9.15467e-06
8.8698e-06
8.61944e-06
8.37425e-06
8.09075e-06
7.72936e-06
7.23658e-06
6.59371e-06
5.8565e-06
5.48676e-06
5.87833e-06
6.86163e-06
1.13244e-05
1.91809e-05
8.38135e-05
0.000153024
0.000118722
0.000125569
0.000157102
8.47666e-05
1.88495e-05
9.30369e-06
5.33998e-06
4.26103e-06
4.01629e-06
4.21259e-06
4.63102e-06
5.10494e-06
5.60616e-06
6.04767e-06
6.38978e-06
6.68545e-06
6.98127e-06
7.30869e-06
7.67402e-06
8.06921e-06
8.46256e-06
8.80754e-06
9.11068e-06
9.388e-06
9.65052e-06
9.90828e-06
1.01637e-05
1.04174e-05
1.06707e-05
1.0928e-05
1.44756e-05
1.40441e-05
1.36512e-05
1.32983e-05
1.2975e-05
1.26713e-05
1.23791e-05
1.20935e-05
1.18107e-05
1.15284e-05
1.12476e-05
1.09671e-05
1.06865e-05
1.04175e-05
1.01646e-05
9.92285e-06
9.68802e-06
9.45889e-06
9.23545e-06
9.01598e-06
8.79128e-06
8.55069e-06
8.27926e-06
7.9732e-06
7.65037e-06
7.35298e-06
7.09439e-06
6.87128e-06
6.65387e-06
6.4038e-06
6.08579e-06
5.62909e-06
5.13526e-06
4.71924e-06
4.54647e-06
4.88457e-06
6.03348e-06
1.01185e-05
1.95165e-05
9.06662e-05
0.000167106
0.000119477
0.000125087
0.000168262
8.59835e-05
1.76767e-05
7.84458e-06
4.51717e-06
3.68844e-06
3.54347e-06
3.6656e-06
3.85976e-06
4.09085e-06
4.33301e-06
4.5606e-06
4.7648e-06
4.96136e-06
5.16718e-06
5.40185e-06
5.68157e-06
6.03402e-06
6.42574e-06
6.74239e-06
7.0045e-06
7.24017e-06
7.46186e-06
7.67786e-06
7.89116e-06
8.10422e-06
8.3211e-06
8.54984e-06
1.25738e-05
1.21005e-05
1.16729e-05
1.12951e-05
1.09535e-05
1.06367e-05
1.03339e-05
1.00385e-05
9.74508e-06
9.45072e-06
9.15604e-06
8.8562e-06
8.55128e-06
8.27153e-06
8.02396e-06
7.79853e-06
7.58609e-06
7.3823e-06
7.18478e-06
6.9911e-06
6.79391e-06
6.58263e-06
6.33401e-06
6.03642e-06
5.70988e-06
5.46219e-06
5.26968e-06
5.11287e-06
4.96832e-06
4.81813e-06
4.64943e-06
4.45363e-06
4.25572e-06
4.09018e-06
4.00567e-06
4.22938e-06
5.22591e-06
8.72234e-06
1.87079e-05
9.2242e-05
0.000179498
0.000119438
0.000124471
0.000177462
8.22862e-05
1.57394e-05
6.5408e-06
3.98156e-06
3.48632e-06
3.50387e-06
3.61159e-06
3.64797e-06
3.70142e-06
3.78969e-06
3.89591e-06
4.01153e-06
4.13494e-06
4.26613e-06
4.41076e-06
4.57041e-06
4.74526e-06
4.92146e-06
5.07733e-06
5.22324e-06
5.36015e-06
5.49024e-06
5.61844e-06
5.74713e-06
5.8786e-06
6.01767e-06
6.1762e-06
1.04657e-05
9.94789e-06
9.50403e-06
9.12795e-06
8.79394e-06
8.48879e-06
8.19753e-06
7.91168e-06
7.62456e-06
7.33258e-06
7.03453e-06
6.71587e-06
6.38118e-06
6.11234e-06
5.90746e-06
5.7371e-06
5.58652e-06
5.44823e-06
5.31953e-06
5.19812e-06
5.07943e-06
4.95943e-06
4.83815e-06
4.70814e-06
4.57244e-06
4.44973e-06
4.34193e-06
4.25116e-06
4.17096e-06
4.09912e-06
4.0388e-06
3.99934e-06
4.0001e-06
4.01788e-06
3.94765e-06
3.98782e-06
4.61129e-06
7.39964e-06
1.70064e-05
8.84536e-05
0.000189684
0.000119305
0.000122788
0.000182012
7.4792e-05
1.35087e-05
5.5149e-06
3.82115e-06
3.76263e-06
4.01928e-06
4.14066e-06
4.05564e-06
3.97596e-06
3.95531e-06
3.97575e-06
4.0236e-06
4.08799e-06
4.15723e-06
4.22319e-06
4.28965e-06
4.35881e-06
4.42715e-06
4.49434e-06
4.56288e-06
4.62825e-06
4.69128e-06
4.75255e-06
4.81383e-06
4.87635e-06
4.94397e-06
5.02161e-06
8.45249e-06
7.87545e-06
7.46117e-06
7.14568e-06
6.87905e-06
6.64176e-06
6.42217e-06
6.21177e-06
6.00794e-06
5.80913e-06
5.61601e-06
5.42472e-06
5.2348e-06
5.06475e-06
4.92084e-06
4.79904e-06
4.69546e-06
4.60653e-06
4.52986e-06
4.4646e-06
4.40937e-06
4.36221e-06
4.32293e-06
4.28955e-06
4.25794e-06
4.22751e-06
4.19965e-06
4.17391e-06
4.15627e-06
4.16059e-06
4.19953e-06
4.29029e-06
4.45724e-06
4.62529e-06
4.52847e-06
4.28762e-06
4.42273e-06
6.34226e-06
1.48682e-05
8.10212e-05
0.000193678
0.000118165
0.000120096
0.000179868
6.5368e-05
1.1234e-05
4.97394e-06
4.13678e-06
4.62618e-06
5.23312e-06
5.43128e-06
5.27804e-06
5.10457e-06
5.0023e-06
4.9532e-06
4.93989e-06
4.94532e-06
4.94842e-06
4.93404e-06
4.91489e-06
4.90782e-06
4.90817e-06
4.91564e-06
4.92957e-06
4.94461e-06
4.95682e-06
4.96274e-06
4.96262e-06
4.95818e-06
4.95171e-06
4.94369e-06
7.50877e-06
7.13824e-06
6.82267e-06
6.5604e-06
6.33666e-06
6.13986e-06
5.96194e-06
5.79715e-06
5.64196e-06
5.49569e-06
5.35913e-06
5.22994e-06
5.10733e-06
4.99548e-06
4.89836e-06
4.81743e-06
4.75375e-06
4.70749e-06
4.67819e-06
4.66742e-06
4.67243e-06
4.69324e-06
4.72986e-06
4.77878e-06
4.83077e-06
4.88029e-06
4.92801e-06
4.98374e-06
5.05486e-06
5.1605e-06
5.31767e-06
5.54889e-06
5.88209e-06
6.19989e-06
6.05868e-06
5.39716e-06
4.84227e-06
5.77524e-06
1.26282e-05
7.15032e-05
0.000189776
0.00011618
0.000116976
0.000171244
5.47984e-05
9.35645e-06
4.8781e-06
4.90962e-06
6.02659e-06
6.98296e-06
7.26965e-06
7.09671e-06
6.88479e-06
6.75724e-06
6.69859e-06
6.68989e-06
6.71029e-06
6.73159e-06
6.73123e-06
6.71234e-06
6.68116e-06
6.64321e-06
6.60892e-06
6.57915e-06
6.5477e-06
6.50651e-06
6.45217e-06
6.38383e-06
6.30152e-06
6.20434e-06
6.09086e-06
8.11824e-06
7.82477e-06
7.55832e-06
7.32408e-06
7.12154e-06
6.94507e-06
6.78757e-06
6.64424e-06
6.5119e-06
6.38892e-06
6.27479e-06
6.16883e-06
6.07112e-06
5.98354e-06
5.91016e-06
5.85492e-06
5.82321e-06
5.82074e-06
5.85332e-06
5.94042e-06
6.05907e-06
6.19186e-06
6.33875e-06
6.49486e-06
6.64534e-06
6.78045e-06
6.89348e-06
6.98652e-06
7.08437e-06
7.22431e-06
7.43793e-06
7.75607e-06
8.20974e-06
8.62801e-06
8.41295e-06
7.29784e-06
5.90857e-06
5.76826e-06
1.07067e-05
6.05933e-05
0.000178836
0.000114136
0.000113747
0.000155416
4.43081e-05
8.09977e-06
5.23794e-06
6.20637e-06
8.0165e-06
9.33386e-06
9.73827e-06
9.5766e-06
9.35166e-06
9.21936e-06
9.16756e-06
9.17582e-06
9.21884e-06
9.25915e-06
9.26971e-06
9.25049e-06
9.20814e-06
9.15228e-06
9.09807e-06
9.04729e-06
8.99382e-06
8.928e-06
8.84533e-06
8.74557e-06
8.62837e-06
8.49506e-06
8.34776e-06
1.061e-05
1.03245e-05
1.00604e-05
9.82528e-06
9.61634e-06
9.4303e-06
9.26288e-06
9.11047e-06
8.97045e-06
8.84119e-06
8.72165e-06
8.611e-06
8.50952e-06
8.41886e-06
8.34558e-06
8.29615e-06
8.28517e-06
8.35352e-06
8.46319e-06
8.59248e-06
8.74343e-06
8.91418e-06
9.11283e-06
9.33131e-06
9.54546e-06
9.73876e-06
9.89935e-06
1.00283e-05
1.0159e-05
1.03425e-05
1.06233e-05
1.10405e-05
1.16268e-05
1.21405e-05
1.18139e-05
1.01804e-05
7.78593e-06
6.37968e-06
9.45455e-06
4.95687e-05
0.000159706
0.000111962
0.000110022
0.000133864
3.48363e-05
7.45741e-06
6.13887e-06
8.11967e-06
1.06774e-05
1.23798e-05
1.2936e-05
1.28117e-05
1.2591e-05
1.24679e-05
1.24355e-05
1.24727e-05
1.25499e-05
1.26216e-05
1.26549e-05
1.26484e-05
1.26102e-05
1.25523e-05
1.24943e-05
1.24417e-05
1.23843e-05
1.2316e-05
1.22272e-05
1.21155e-05
1.19835e-05
1.18373e-05
1.16786e-05
1.58622e-05
1.55374e-05
1.52336e-05
1.49523e-05
1.46976e-05
1.44671e-05
1.4256e-05
1.40611e-05
1.38807e-05
1.37135e-05
1.3558e-05
1.34127e-05
1.32766e-05
1.31508e-05
1.30391e-05
1.29463e-05
1.28776e-05
1.28425e-05
1.2844e-05
1.28933e-05
1.30353e-05
1.3232e-05
1.34738e-05
1.37411e-05
1.39982e-05
1.42234e-05
1.44025e-05
1.45419e-05
1.46876e-05
1.49083e-05
1.52641e-05
1.58018e-05
1.65491e-05
1.71555e-05
1.66516e-05
1.43753e-05
1.07535e-05
7.81573e-06
8.95878e-06
3.97013e-05
0.000136126
0.000107715
0.000103506
0.000110057
2.67568e-05
7.4826e-06
7.63281e-06
1.07709e-05
1.41372e-05
1.62782e-05
1.70352e-05
1.69764e-05
1.67748e-05
1.66768e-05
1.66826e-05
1.67711e-05
1.69075e-05
1.70364e-05
1.7118e-05
1.71491e-05
1.71386e-05
1.71016e-05
1.70672e-05
1.70449e-05
1.70182e-05
1.69786e-05
1.69119e-05
1.6817e-05
1.67031e-05
1.65827e-05
1.64626e-05
2.52395e-05
2.48433e-05
2.44685e-05
2.41141e-05
2.37805e-05
2.34663e-05
2.31698e-05
2.28893e-05
2.26265e-05
2.23822e-05
2.21531e-05
2.19363e-05
2.17299e-05
2.15346e-05
2.13544e-05
2.1193e-05
2.10505e-05
2.09227e-05
2.08073e-05
2.07101e-05
2.06568e-05
2.06578e-05
2.07286e-05
2.08669e-05
2.10174e-05
2.11432e-05
2.12218e-05
2.12791e-05
2.13921e-05
2.16473e-05
2.21097e-05
2.28183e-05
2.37742e-05
2.44365e-05
2.36154e-05
2.04603e-05
1.52671e-05
1.03201e-05
9.39264e-06
3.12657e-05
0.000111466
0.000100949
9.38657e-05
8.70351e-05
2.10756e-05
8.12216e-06
9.88049e-06
1.43486e-05
1.86473e-05
2.13438e-05
2.23893e-05
2.24314e-05
2.22536e-05
2.21953e-05
2.22671e-05
2.24456e-05
2.26879e-05
2.29234e-05
2.31032e-05
2.32213e-05
2.3289e-05
2.33304e-05
2.33852e-05
2.34629e-05
2.35347e-05
2.35874e-05
2.35997e-05
2.35694e-05
2.35088e-05
2.34447e-05
2.34396e-05
4.02156e-05
3.9731e-05
3.92679e-05
3.88238e-05
3.83973e-05
3.79867e-05
3.75905e-05
3.72073e-05
3.68372e-05
3.64812e-05
3.61388e-05
3.58085e-05
3.54889e-05
3.51817e-05
3.48925e-05
3.46284e-05
3.43873e-05
3.41572e-05
3.39301e-05
3.37089e-05
3.35246e-05
3.3402e-05
3.33514e-05
3.3388e-05
3.34384e-05
3.34477e-05
3.33809e-05
3.32614e-05
3.31756e-05
3.3262e-05
3.36474e-05
3.43893e-05
3.54595e-05
3.60288e-05
3.44478e-05
2.96539e-05
2.21807e-05
1.4452e-05
1.08563e-05
2.54585e-05
8.84513e-05
9.1778e-05
8.22871e-05
6.82363e-05
1.75675e-05
9.44236e-06
1.31538e-05
1.92802e-05
2.48575e-05
2.84164e-05
2.99448e-05
3.01222e-05
2.98973e-05
2.98261e-05
2.99548e-05
3.02621e-05
3.06834e-05
3.11131e-05
3.14857e-05
3.17899e-05
3.20461e-05
3.22953e-05
3.25979e-05
3.29656e-05
3.33645e-05
3.3783e-05
3.42004e-05
3.4623e-05
3.50694e-05
3.55582e-05
3.60999e-05
6.17251e-05
6.11582e-05
6.06055e-05
6.00664e-05
5.9541e-05
5.9028e-05
5.85256e-05
5.80325e-05
5.75481e-05
5.70734e-05
5.66099e-05
5.61594e-05
5.57192e-05
5.52913e-05
5.48831e-05
5.45013e-05
5.41422e-05
5.37912e-05
5.34378e-05
5.30853e-05
5.27737e-05
5.25372e-05
5.23789e-05
5.23311e-05
5.22953e-05
5.2202e-05
5.2025e-05
5.1764e-05
5.15413e-05
5.15219e-05
5.18686e-05
5.2631e-05
5.37208e-05
5.40319e-05
5.14185e-05
4.41129e-05
3.30303e-05
2.12085e-05
1.37046e-05
2.22732e-05
7.11174e-05
8.19458e-05
6.96423e-05
5.4323e-05
1.58426e-05
1.18264e-05
1.80748e-05
2.67685e-05
3.48111e-05
4.04085e-05
4.2931e-05
4.34722e-05
4.33718e-05
4.34175e-05
4.37116e-05
4.42458e-05
4.49354e-05
4.5654e-05
4.63131e-05
4.69004e-05
4.74468e-05
4.80051e-05
4.86503e-05
4.93731e-05
5.01636e-05
5.09974e-05
5.18469e-05
5.27184e-05
5.36248e-05
5.45758e-05
5.55727e-05
8.94676e-05
8.88503e-05
8.82351e-05
8.76268e-05
8.70297e-05
8.64428e-05
8.58629e-05
8.52866e-05
8.47123e-05
8.41406e-05
8.35724e-05
8.30076e-05
8.24469e-05
8.18956e-05
8.1364e-05
8.0861e-05
8.03829e-05
7.99129e-05
7.9439e-05
7.89654e-05
7.85393e-05
7.82022e-05
7.79671e-05
7.7834e-05
7.77156e-05
7.75324e-05
7.72747e-05
7.69057e-05
7.65774e-05
7.64599e-05
7.67364e-05
7.74281e-05
7.83672e-05
7.82454e-05
7.46054e-05
6.47808e-05
4.92271e-05
3.19494e-05
1.89197e-05
2.15036e-05
5.89184e-05
7.17786e-05
6.19879e-05
4.42853e-05
1.56683e-05
1.57472e-05
2.5668e-05
3.82841e-05
5.00603e-05
5.81863e-05
6.19316e-05
6.29343e-05
6.31607e-05
6.3464e-05
6.40149e-05
6.48323e-05
6.58224e-05
6.68554e-05
6.78294e-05
6.87273e-05
6.95848e-05
7.04639e-05
7.14524e-05
7.2532e-05
7.37e-05
7.49238e-05
7.61651e-05
7.74212e-05
7.86988e-05
8.00084e-05
8.13532e-05
0.000121655
0.000121239
0.000120777
0.000120277
0.000119741
0.00011917
0.000118568
0.000117938
0.000117286
0.000116618
0.000115941
0.000115259
0.000114577
0.000113905
0.000113255
0.000112638
0.000112051
0.000111475
0.000110899
0.000110326
0.000109808
0.00010939
0.000109104
0.00010889
0.000108698
0.000108444
0.000108125
0.000107686
0.000107287
0.000107078
0.000107239
0.000107746
0.000108351
0.000107977
0.000103332
9.13636e-05
7.16536e-05
4.80929e-05
2.764e-05
2.32102e-05
5.08306e-05
6.53186e-05
5.63046e-05
3.75472e-05
1.72158e-05
2.20234e-05
3.71672e-05
5.49638e-05
7.08015e-05
8.13358e-05
8.63044e-05
8.77294e-05
8.84428e-05
8.90996e-05
8.99394e-05
9.10217e-05
9.22588e-05
9.35405e-05
9.4762e-05
9.59132e-05
9.70309e-05
9.81823e-05
9.94605e-05
0.00010084
0.000102328
0.000103888
0.000105472
0.00010706
0.000108646
0.00011023
0.000111808
0.000156018
0.000155822
0.000155573
0.000155269
0.000154912
0.000154503
0.000154043
0.000153537
0.000152989
0.000152407
0.000151795
0.000151158
0.000150501
0.000149832
0.000149168
0.00014852
0.000147889
0.000147259
0.000146621
0.000145983
0.0001454
0.000144917
0.00014457
0.000144299
0.000144033
0.000143752
0.000143369
0.000142865
0.000142392
0.00014208
0.000142028
0.000142183
0.000142238
0.00014137
0.000135807
0.000122291
9.9513e-05
7.01576e-05
4.118e-05
2.78937e-05
4.6471e-05
6.15961e-05
5.18715e-05
3.3585e-05
2.06966e-05
3.16057e-05
5.32748e-05
7.64693e-05
9.5609e-05
0.000107868
0.000113889
0.000116081
0.000117474
0.000118609
0.000119768
0.000121056
0.000122432
0.000123829
0.00012513
0.000126379
0.000127586
0.000128808
0.000130078
0.000131452
0.0001329
0.000134385
0.000135862
0.00013732
0.000138762
0.000140197
0.000141621
0.000192385
0.000192308
0.000192175
0.000191984
0.000191734
0.000191425
0.00019106
0.00019064
0.000190171
0.000189659
0.00018911
0.000188526
0.000187912
0.000187278
0.000186637
0.000186003
0.000185376
0.000184743
0.000184094
0.00018344
0.000182833
0.000182319
0.000181932
0.000181651
0.000181377
0.00018105
0.00018062
0.00018007
0.000179539
0.000179181
0.000178911
0.000178706
0.000178245
0.000176733
0.000170383
0.000155838
0.000131156
9.7252e-05
6.02688e-05
3.62555e-05
4.51345e-05
5.91313e-05
4.85832e-05
3.20397e-05
2.65652e-05
4.51132e-05
7.34338e-05
0.000100753
0.00012157
0.000134412
0.000140815
0.000143439
0.000144946
0.000146349
0.000147708
0.000149087
0.000150534
0.000151982
0.00015334
0.000154648
0.000155916
0.000157189
0.000158495
0.000159882
0.000161325
0.000162788
0.000164235
0.000165657
0.000167058