/*--------------------------------*- C++ -*----------------------------------*\
| =========                 |                                                 |
| \\      /  F ield         | OpenFOAM: The Open Source CFD Toolbox           |
|  \\    /   O peration     | Version:  2412                                  |
|   \\  /    A nd           | Website:  www.openfoam.com                      |
|    \\/     M anipulation  |                                                 |
\*---------------------------------------------------------------------------*/
FoamFile
{
    version     2.0;
    format      ascii;
    arch        "LSB;label=32;scalar=64";
    class       volScalarField;
    location    "40";
    object      nuTilda;
}
// * * * * * * * * * * * * * * * * * * * * * * * * * * * * * * * * * * * * * //

dimensions      [0 2 -1 0 0 0 0];

internalField   nonuniform List<scalar> 
8637
(
3.21725e-06
3.21696e-06
3.21668e-06
3.21601e-06
3.21576e-06
3.21555e-06
3.21531e-06
3.21511e-06
3.21485e-06
3.2146e-06
3.21441e-06
3.21427e-06
3.2141e-06
3.21383e-06
3.21362e-06
3.21346e-06
3.21327e-06
3.21303e-06
3.21285e-06
3.21262e-06
3.21248e-06
3.21226e-06
3.21205e-06
3.21178e-06
3.21161e-06
3.21136e-06
3.21119e-06
3.21092e-06
3.2107e-06
3.2104e-06
3.21016e-06
3.20984e-06
3.20963e-06
3.20929e-06
3.20901e-06
3.20866e-06
3.20831e-06
3.20791e-06
3.20753e-06
3.20707e-06
3.20669e-06
3.20617e-06
3.20567e-06
3.20508e-06
3.20456e-06
3.20392e-06
3.20328e-06
3.20257e-06
3.20185e-06
3.20097e-06
3.20014e-06
3.19918e-06
3.19824e-06
3.19715e-06
3.196e-06
3.19474e-06
3.19343e-06
3.19198e-06
3.19046e-06
3.18878e-06
3.18704e-06
3.18506e-06
3.18299e-06
3.1807e-06
3.17831e-06
3.17567e-06
3.17283e-06
3.16969e-06
3.16642e-06
3.16272e-06
3.15877e-06
3.15445e-06
3.14968e-06
3.1445e-06
3.13878e-06
3.13247e-06
3.12557e-06
3.11783e-06
3.10917e-06
3.09947e-06
3.08845e-06
3.07589e-06
3.06144e-06
3.04461e-06
3.02459e-06
3.00106e-06
2.97332e-06
2.93685e-06
9.09513e-06
9.09431e-06
9.09337e-06
9.09066e-06
9.08981e-06
9.08908e-06
9.08834e-06
9.08764e-06
9.08683e-06
9.08609e-06
9.08541e-06
9.08478e-06
9.08411e-06
9.08334e-06
9.08262e-06
9.08191e-06
9.08123e-06
9.08045e-06
9.07982e-06
9.07897e-06
9.07835e-06
9.07753e-06
9.07682e-06
9.07591e-06
9.07516e-06
9.07425e-06
9.07352e-06
9.07254e-06
9.07172e-06
9.07068e-06
9.06978e-06
9.06867e-06
9.06775e-06
9.06649e-06
9.06547e-06
9.06419e-06
9.06301e-06
9.06162e-06
9.06017e-06
9.05863e-06
9.05719e-06
9.05539e-06
9.05371e-06
9.05176e-06
9.04992e-06
9.04774e-06
9.04557e-06
9.04316e-06
9.04074e-06
9.03794e-06
9.03516e-06
9.03207e-06
9.02895e-06
9.02541e-06
9.02178e-06
9.0178e-06
9.01365e-06
9.00916e-06
9.00448e-06
8.99928e-06
8.99394e-06
8.98802e-06
8.98186e-06
8.97509e-06
8.96801e-06
8.96027e-06
8.95204e-06
8.94301e-06
8.93354e-06
8.92302e-06
8.91184e-06
8.89959e-06
8.88622e-06
8.87172e-06
8.8558e-06
8.83831e-06
8.81905e-06
8.79763e-06
8.77382e-06
8.74715e-06
8.71696e-06
8.68264e-06
8.64332e-06
8.59762e-06
8.54334e-06
8.48e-06
8.40536e-06
8.30671e-06
1.40033e-05
1.4002e-05
1.40003e-05
1.39946e-05
1.39932e-05
1.39919e-05
1.39906e-05
1.39893e-05
1.3988e-05
1.39867e-05
1.39855e-05
1.39843e-05
1.3983e-05
1.39817e-05
1.39804e-05
1.39791e-05
1.39778e-05
1.39764e-05
1.39753e-05
1.39738e-05
1.39725e-05
1.3971e-05
1.39697e-05
1.3968e-05
1.39667e-05
1.3965e-05
1.39635e-05
1.39617e-05
1.39602e-05
1.39583e-05
1.39565e-05
1.39545e-05
1.39527e-05
1.39505e-05
1.39485e-05
1.39462e-05
1.3944e-05
1.39414e-05
1.39389e-05
1.39361e-05
1.39334e-05
1.39303e-05
1.39273e-05
1.39238e-05
1.39205e-05
1.39167e-05
1.39129e-05
1.39087e-05
1.39045e-05
1.38997e-05
1.38949e-05
1.38897e-05
1.38843e-05
1.38784e-05
1.38723e-05
1.38656e-05
1.38588e-05
1.38513e-05
1.38436e-05
1.38353e-05
1.38267e-05
1.38172e-05
1.38075e-05
1.37968e-05
1.37858e-05
1.37737e-05
1.3761e-05
1.37472e-05
1.37327e-05
1.37168e-05
1.36998e-05
1.36815e-05
1.36614e-05
1.36398e-05
1.36162e-05
1.35903e-05
1.35619e-05
1.35304e-05
1.34956e-05
1.34566e-05
1.34126e-05
1.33628e-05
1.33059e-05
1.32399e-05
1.31617e-05
1.30711e-05
1.29644e-05
1.28224e-05
1.77936e-05
1.77918e-05
1.77893e-05
1.77793e-05
1.77774e-05
1.77757e-05
1.77739e-05
1.7772e-05
1.77702e-05
1.77684e-05
1.77667e-05
1.77649e-05
1.77631e-05
1.77612e-05
1.77594e-05
1.77575e-05
1.77557e-05
1.77536e-05
1.77519e-05
1.77498e-05
1.77479e-05
1.77457e-05
1.77437e-05
1.77415e-05
1.77394e-05
1.7737e-05
1.77347e-05
1.77322e-05
1.77299e-05
1.77272e-05
1.77246e-05
1.77218e-05
1.7719e-05
1.77159e-05
1.7713e-05
1.77097e-05
1.77064e-05
1.77028e-05
1.76992e-05
1.76952e-05
1.76914e-05
1.7687e-05
1.76827e-05
1.76779e-05
1.76732e-05
1.76679e-05
1.76626e-05
1.76568e-05
1.7651e-05
1.76445e-05
1.76379e-05
1.76308e-05
1.76235e-05
1.76155e-05
1.76073e-05
1.75984e-05
1.75892e-05
1.75794e-05
1.75692e-05
1.75583e-05
1.75471e-05
1.7535e-05
1.75224e-05
1.75089e-05
1.74949e-05
1.74797e-05
1.74638e-05
1.74466e-05
1.74286e-05
1.7409e-05
1.73881e-05
1.73657e-05
1.73413e-05
1.7315e-05
1.72865e-05
1.72554e-05
1.72213e-05
1.71836e-05
1.71421e-05
1.70957e-05
1.70436e-05
1.69848e-05
1.69178e-05
1.68401e-05
1.67483e-05
1.66432e-05
1.6519e-05
1.6352e-05
2.05018e-05
2.04995e-05
2.04962e-05
2.04802e-05
2.04779e-05
2.04757e-05
2.04734e-05
2.04712e-05
2.04689e-05
2.04667e-05
2.04645e-05
2.04622e-05
2.04599e-05
2.04576e-05
2.04553e-05
2.0453e-05
2.04506e-05
2.04481e-05
2.04458e-05
2.04432e-05
2.04408e-05
2.0438e-05
2.04355e-05
2.04326e-05
2.043e-05
2.04269e-05
2.04241e-05
2.04209e-05
2.0418e-05
2.04146e-05
2.04113e-05
2.04077e-05
2.04042e-05
2.04004e-05
2.03967e-05
2.03925e-05
2.03884e-05
2.03839e-05
2.03794e-05
2.03746e-05
2.03697e-05
2.03644e-05
2.03591e-05
2.03532e-05
2.03474e-05
2.0341e-05
2.03345e-05
2.03276e-05
2.03204e-05
2.03127e-05
2.03048e-05
2.02963e-05
2.02875e-05
2.02781e-05
2.02683e-05
2.02579e-05
2.0247e-05
2.02355e-05
2.02237e-05
2.02111e-05
2.01982e-05
2.01844e-05
2.01702e-05
2.01549e-05
2.01392e-05
2.01222e-05
2.01046e-05
2.00856e-05
2.00657e-05
2.00442e-05
2.00214e-05
1.9997e-05
1.99706e-05
1.99423e-05
1.99116e-05
1.98783e-05
1.98418e-05
1.98018e-05
1.97577e-05
1.97086e-05
1.96537e-05
1.95919e-05
1.95216e-05
1.94401e-05
1.93442e-05
1.9236e-05
1.91071e-05
1.89316e-05
2.22609e-05
2.22583e-05
2.22539e-05
2.22293e-05
2.22267e-05
2.22241e-05
2.22216e-05
2.2219e-05
2.22165e-05
2.22139e-05
2.22113e-05
2.22087e-05
2.22061e-05
2.22035e-05
2.22008e-05
2.21981e-05
2.21953e-05
2.21925e-05
2.21898e-05
2.21869e-05
2.2184e-05
2.21809e-05
2.21779e-05
2.21747e-05
2.21716e-05
2.21681e-05
2.21648e-05
2.21613e-05
2.21578e-05
2.2154e-05
2.21502e-05
2.21462e-05
2.21422e-05
2.21379e-05
2.21336e-05
2.21289e-05
2.21242e-05
2.21192e-05
2.21142e-05
2.21087e-05
2.21033e-05
2.20974e-05
2.20914e-05
2.2085e-05
2.20784e-05
2.20715e-05
2.20643e-05
2.20566e-05
2.20488e-05
2.20404e-05
2.20317e-05
2.20225e-05
2.2013e-05
2.20028e-05
2.19923e-05
2.19811e-05
2.19694e-05
2.19572e-05
2.19447e-05
2.19315e-05
2.19179e-05
2.19036e-05
2.18888e-05
2.18731e-05
2.18569e-05
2.18396e-05
2.18216e-05
2.18024e-05
2.17824e-05
2.17608e-05
2.1738e-05
2.17138e-05
2.16875e-05
2.16595e-05
2.16293e-05
2.15965e-05
2.15607e-05
2.15216e-05
2.14787e-05
2.1431e-05
2.13778e-05
2.13181e-05
2.12504e-05
2.11716e-05
2.10798e-05
2.09785e-05
2.08549e-05
2.06841e-05
2.32644e-05
2.32615e-05
2.32558e-05
2.32193e-05
2.32165e-05
2.32137e-05
2.3211e-05
2.32082e-05
2.32054e-05
2.32026e-05
2.31998e-05
2.3197e-05
2.31942e-05
2.31913e-05
2.31884e-05
2.31855e-05
2.31825e-05
2.31795e-05
2.31765e-05
2.31735e-05
2.31703e-05
2.3167e-05
2.31638e-05
2.31605e-05
2.31571e-05
2.31535e-05
2.31499e-05
2.31462e-05
2.31425e-05
2.31385e-05
2.31345e-05
2.31303e-05
2.31261e-05
2.31216e-05
2.31171e-05
2.31123e-05
2.31074e-05
2.31022e-05
2.3097e-05
2.30914e-05
2.30858e-05
2.30798e-05
2.30736e-05
2.30671e-05
2.30604e-05
2.30533e-05
2.3046e-05
2.30383e-05
2.30304e-05
2.3022e-05
2.30133e-05
2.30041e-05
2.29946e-05
2.29845e-05
2.2974e-05
2.2963e-05
2.29515e-05
2.29396e-05
2.29273e-05
2.29145e-05
2.29014e-05
2.28877e-05
2.28734e-05
2.28586e-05
2.28432e-05
2.2827e-05
2.281e-05
2.27921e-05
2.27734e-05
2.27534e-05
2.27322e-05
2.271e-05
2.26858e-05
2.26602e-05
2.26325e-05
2.26026e-05
2.25702e-05
2.25347e-05
2.24959e-05
2.24529e-05
2.2405e-05
2.23515e-05
2.22908e-05
2.22198e-05
2.21386e-05
2.20515e-05
2.194e-05
2.17838e-05
2.37277e-05
2.37243e-05
2.37169e-05
2.36655e-05
2.36625e-05
2.36595e-05
2.36566e-05
2.36536e-05
2.36507e-05
2.36478e-05
2.36448e-05
2.36419e-05
2.36389e-05
2.36359e-05
2.36329e-05
2.36299e-05
2.36269e-05
2.36239e-05
2.36207e-05
2.36177e-05
2.36144e-05
2.36111e-05
2.36078e-05
2.36045e-05
2.3601e-05
2.35975e-05
2.35939e-05
2.35904e-05
2.35866e-05
2.35827e-05
2.35787e-05
2.35747e-05
2.35705e-05
2.35662e-05
2.35618e-05
2.35572e-05
2.35524e-05
2.35475e-05
2.35424e-05
2.35372e-05
2.35317e-05
2.35261e-05
2.35202e-05
2.35141e-05
2.35078e-05
2.35012e-05
2.34943e-05
2.34872e-05
2.34798e-05
2.34721e-05
2.3464e-05
2.34556e-05
2.34468e-05
2.34376e-05
2.3428e-05
2.3418e-05
2.34075e-05
2.33968e-05
2.33857e-05
2.33743e-05
2.33626e-05
2.33505e-05
2.33379e-05
2.3325e-05
2.33115e-05
2.32975e-05
2.32828e-05
2.32674e-05
2.32513e-05
2.32342e-05
2.32162e-05
2.31973e-05
2.31768e-05
2.31551e-05
2.31317e-05
2.31065e-05
2.30793e-05
2.30496e-05
2.30171e-05
2.29811e-05
2.29412e-05
2.28968e-05
2.28461e-05
2.27864e-05
2.27208e-05
2.26525e-05
2.25562e-05
2.2421e-05
2.3852e-05
2.38482e-05
2.38386e-05
2.37707e-05
2.37675e-05
2.37643e-05
2.37612e-05
2.37581e-05
2.3755e-05
2.37519e-05
2.37488e-05
2.37458e-05
2.37428e-05
2.37397e-05
2.37366e-05
2.37336e-05
2.37305e-05
2.37276e-05
2.37244e-05
2.37215e-05
2.37181e-05
2.3715e-05
2.37117e-05
2.37087e-05
2.37052e-05
2.3702e-05
2.36985e-05
2.36952e-05
2.36916e-05
2.36881e-05
2.36843e-05
2.36807e-05
2.36768e-05
2.3673e-05
2.36688e-05
2.36648e-05
2.36604e-05
2.36561e-05
2.36515e-05
2.3647e-05
2.36421e-05
2.36373e-05
2.36321e-05
2.36269e-05
2.36213e-05
2.36158e-05
2.36098e-05
2.36038e-05
2.35974e-05
2.3591e-05
2.35841e-05
2.35771e-05
2.35697e-05
2.35621e-05
2.3554e-05
2.35458e-05
2.35371e-05
2.35284e-05
2.35193e-05
2.35101e-05
2.35006e-05
2.34911e-05
2.3481e-05
2.34709e-05
2.34602e-05
2.34494e-05
2.34378e-05
2.3426e-05
2.34135e-05
2.34004e-05
2.33865e-05
2.33722e-05
2.33564e-05
2.33399e-05
2.33221e-05
2.3303e-05
2.32824e-05
2.32598e-05
2.32353e-05
2.3208e-05
2.31778e-05
2.31443e-05
2.31054e-05
2.30596e-05
2.30133e-05
2.29659e-05
2.28848e-05
2.27741e-05
2.38048e-05
2.38002e-05
2.37883e-05
2.37063e-05
2.37028e-05
2.36993e-05
2.36959e-05
2.36925e-05
2.36892e-05
2.36859e-05
2.36827e-05
2.36795e-05
2.36763e-05
2.36732e-05
2.367e-05
2.3667e-05
2.36638e-05
2.3661e-05
2.36577e-05
2.3655e-05
2.36516e-05
2.36487e-05
2.36455e-05
2.36427e-05
2.36394e-05
2.36365e-05
2.36332e-05
2.36304e-05
2.3627e-05
2.3624e-05
2.36205e-05
2.36175e-05
2.3614e-05
2.36109e-05
2.36072e-05
2.36039e-05
2.36002e-05
2.35968e-05
2.35929e-05
2.35894e-05
2.35853e-05
2.35816e-05
2.35773e-05
2.35734e-05
2.35689e-05
2.35647e-05
2.35601e-05
2.35556e-05
2.35507e-05
2.35459e-05
2.35407e-05
2.35356e-05
2.35301e-05
2.35246e-05
2.35187e-05
2.35128e-05
2.35064e-05
2.35003e-05
2.34938e-05
2.34876e-05
2.34809e-05
2.34746e-05
2.34676e-05
2.3461e-05
2.34538e-05
2.34469e-05
2.34392e-05
2.34318e-05
2.34235e-05
2.34152e-05
2.34064e-05
2.33974e-05
2.33873e-05
2.33769e-05
2.33656e-05
2.33535e-05
2.33405e-05
2.33263e-05
2.33108e-05
2.32935e-05
2.32744e-05
2.32529e-05
2.32269e-05
2.31972e-05
2.31732e-05
2.31456e-05
2.30774e-05
2.29916e-05
2.36095e-05
2.36055e-05
2.36015e-05
2.35977e-05
2.35939e-05
2.35902e-05
2.35865e-05
2.3583e-05
2.35796e-05
2.35762e-05
2.35728e-05
2.35695e-05
2.35663e-05
2.35631e-05
2.35603e-05
2.3557e-05
2.35543e-05
2.35509e-05
2.35483e-05
2.35451e-05
2.35426e-05
2.35394e-05
2.3537e-05
2.35339e-05
2.35315e-05
2.35284e-05
2.3526e-05
2.3523e-05
2.35206e-05
2.35177e-05
2.35153e-05
2.35124e-05
2.35099e-05
2.3507e-05
2.35046e-05
2.35017e-05
2.34993e-05
2.34963e-05
2.34939e-05
2.34909e-05
2.34884e-05
2.34854e-05
2.34829e-05
2.34798e-05
2.34772e-05
2.34741e-05
2.34714e-05
2.34682e-05
2.34654e-05
2.34622e-05
2.34593e-05
2.34559e-05
2.34528e-05
2.34493e-05
2.34463e-05
2.34429e-05
2.34401e-05
2.34369e-05
2.34343e-05
2.34311e-05
2.34285e-05
2.34255e-05
2.3423e-05
2.34199e-05
2.34175e-05
2.34142e-05
2.34114e-05
2.34084e-05
2.34053e-05
2.34016e-05
2.33982e-05
2.33943e-05
2.33901e-05
2.33858e-05
2.33809e-05
2.33755e-05
2.33693e-05
2.33622e-05
2.33537e-05
2.33419e-05
2.33311e-05
2.33312e-05
2.33202e-05
2.32638e-05
2.32027e-05
2.37315e-05
2.37266e-05
2.37219e-05
2.37174e-05
2.37131e-05
2.37089e-05
2.37049e-05
2.37011e-05
2.36975e-05
2.36939e-05
2.36905e-05
2.36873e-05
2.36842e-05
2.36813e-05
2.36786e-05
2.36757e-05
2.36733e-05
2.36706e-05
2.36684e-05
2.3666e-05
2.36641e-05
2.36619e-05
2.36601e-05
2.36581e-05
2.36566e-05
2.36548e-05
2.36534e-05
2.36519e-05
2.36507e-05
2.36493e-05
2.36483e-05
2.36471e-05
2.36462e-05
2.36452e-05
2.36446e-05
2.36438e-05
2.36433e-05
2.36426e-05
2.36423e-05
2.36418e-05
2.36417e-05
2.36414e-05
2.36414e-05
2.36413e-05
2.36415e-05
2.36416e-05
2.3642e-05
2.36422e-05
2.36428e-05
2.36433e-05
2.3644e-05
2.36446e-05
2.36455e-05
2.36464e-05
2.36476e-05
2.36488e-05
2.36504e-05
2.3652e-05
2.36539e-05
2.36558e-05
2.36581e-05
2.36604e-05
2.3663e-05
2.36656e-05
2.36686e-05
2.36714e-05
2.36746e-05
2.3678e-05
2.36814e-05
2.36847e-05
2.36884e-05
2.36919e-05
2.36956e-05
2.36995e-05
2.37033e-05
2.37072e-05
2.37111e-05
2.37151e-05
2.37191e-05
2.37226e-05
2.37284e-05
2.37403e-05
2.3747e-05
2.37362e-05
2.3733e-05
2.43781e-05
2.4372e-05
2.43663e-05
2.43608e-05
2.43556e-05
2.43506e-05
2.43459e-05
2.43414e-05
2.43372e-05
2.43331e-05
2.43292e-05
2.43256e-05
2.43222e-05
2.4319e-05
2.4316e-05
2.43131e-05
2.43105e-05
2.43079e-05
2.43056e-05
2.43034e-05
2.43015e-05
2.42996e-05
2.4298e-05
2.42965e-05
2.42952e-05
2.42939e-05
2.42929e-05
2.4292e-05
2.42914e-05
2.42907e-05
2.42904e-05
2.429e-05
2.42899e-05
2.42899e-05
2.42902e-05
2.42905e-05
2.4291e-05
2.42916e-05
2.42925e-05
2.42934e-05
2.42945e-05
2.42958e-05
2.42973e-05
2.42988e-05
2.43007e-05
2.43026e-05
2.43048e-05
2.4307e-05
2.43095e-05
2.43122e-05
2.43151e-05
2.43181e-05
2.43214e-05
2.43248e-05
2.43286e-05
2.43325e-05
2.43367e-05
2.43411e-05
2.43458e-05
2.43508e-05
2.4356e-05
2.43615e-05
2.43672e-05
2.43732e-05
2.43795e-05
2.4386e-05
2.43928e-05
2.43999e-05
2.44072e-05
2.44146e-05
2.44223e-05
2.44302e-05
2.44384e-05
2.44468e-05
2.44556e-05
2.44649e-05
2.44747e-05
2.44852e-05
2.44966e-05
2.45094e-05
2.45254e-05
2.45449e-05
2.45611e-05
2.45753e-05
2.46123e-05
2.51822e-05
2.51747e-05
2.51677e-05
2.5161e-05
2.51546e-05
2.51485e-05
2.51427e-05
2.51373e-05
2.51321e-05
2.51272e-05
2.51226e-05
2.51182e-05
2.51141e-05
2.51103e-05
2.51067e-05
2.51033e-05
2.51002e-05
2.50972e-05
2.50946e-05
2.5092e-05
2.50898e-05
2.50878e-05
2.5086e-05
2.50843e-05
2.50829e-05
2.50817e-05
2.50807e-05
2.50798e-05
2.50792e-05
2.50788e-05
2.50786e-05
2.50786e-05
2.50788e-05
2.50791e-05
2.50798e-05
2.50805e-05
2.50816e-05
2.50828e-05
2.50842e-05
2.50858e-05
2.50877e-05
2.50898e-05
2.50921e-05
2.50946e-05
2.50974e-05
2.51004e-05
2.51036e-05
2.51071e-05
2.51108e-05
2.51148e-05
2.5119e-05
2.51235e-05
2.51283e-05
2.51333e-05
2.51387e-05
2.51443e-05
2.51503e-05
2.51566e-05
2.51632e-05
2.51701e-05
2.51773e-05
2.51849e-05
2.51928e-05
2.5201e-05
2.52096e-05
2.52184e-05
2.52276e-05
2.52373e-05
2.5247e-05
2.5257e-05
2.52674e-05
2.5278e-05
2.5289e-05
2.53003e-05
2.53121e-05
2.53245e-05
2.53378e-05
2.53523e-05
2.53687e-05
2.53877e-05
2.54104e-05
2.54348e-05
2.54579e-05
2.54919e-05
2.55765e-05
2.59848e-05
2.59757e-05
2.59671e-05
2.59589e-05
2.59511e-05
2.59436e-05
2.59366e-05
2.59299e-05
2.59236e-05
2.59176e-05
2.59119e-05
2.59065e-05
2.59015e-05
2.58969e-05
2.58925e-05
2.58882e-05
2.58844e-05
2.58808e-05
2.58775e-05
2.58744e-05
2.58717e-05
2.58691e-05
2.58669e-05
2.58648e-05
2.58631e-05
2.58616e-05
2.58603e-05
2.58593e-05
2.58586e-05
2.58581e-05
2.58578e-05
2.58578e-05
2.5858e-05
2.58585e-05
2.58592e-05
2.58602e-05
2.58615e-05
2.5863e-05
2.58648e-05
2.58668e-05
2.58692e-05
2.58718e-05
2.58746e-05
2.58778e-05
2.58812e-05
2.5885e-05
2.5889e-05
2.58933e-05
2.5898e-05
2.5903e-05
2.59083e-05
2.59139e-05
2.59198e-05
2.59262e-05
2.59328e-05
2.59398e-05
2.59472e-05
2.5955e-05
2.59631e-05
2.59717e-05
2.59806e-05
2.59899e-05
2.59996e-05
2.60096e-05
2.602e-05
2.60308e-05
2.6042e-05
2.60535e-05
2.60652e-05
2.60772e-05
2.60895e-05
2.61021e-05
2.6115e-05
2.61283e-05
2.61422e-05
2.6157e-05
2.61731e-05
2.61912e-05
2.62122e-05
2.62371e-05
2.62655e-05
2.62938e-05
2.63242e-05
2.63836e-05
2.65567e-05
2.6737e-05
2.6726e-05
2.67155e-05
2.67055e-05
2.6696e-05
2.66869e-05
2.66783e-05
2.66702e-05
2.66624e-05
2.6655e-05
2.6648e-05
2.66415e-05
2.66353e-05
2.66295e-05
2.66241e-05
2.66189e-05
2.66141e-05
2.66096e-05
2.66055e-05
2.66016e-05
2.65982e-05
2.6595e-05
2.65921e-05
2.65895e-05
2.65873e-05
2.65853e-05
2.65837e-05
2.65823e-05
2.65813e-05
2.65805e-05
2.65801e-05
2.65799e-05
2.658e-05
2.65805e-05
2.65813e-05
2.65824e-05
2.65838e-05
2.65855e-05
2.65875e-05
2.65898e-05
2.65926e-05
2.65956e-05
2.65989e-05
2.66026e-05
2.66067e-05
2.66111e-05
2.66159e-05
2.66211e-05
2.66266e-05
2.66325e-05
2.66388e-05
2.66455e-05
2.66527e-05
2.66602e-05
2.66681e-05
2.66765e-05
2.66853e-05
2.66946e-05
2.67043e-05
2.67144e-05
2.6725e-05
2.6736e-05
2.67474e-05
2.67592e-05
2.67714e-05
2.6784e-05
2.6797e-05
2.68104e-05
2.68238e-05
2.68376e-05
2.68515e-05
2.68657e-05
2.68802e-05
2.68951e-05
2.69108e-05
2.69278e-05
2.69468e-05
2.69691e-05
2.69955e-05
2.70265e-05
2.70597e-05
2.70919e-05
2.71345e-05
2.72401e-05
2.7599e-05
2.74322e-05
2.74188e-05
2.74061e-05
2.7394e-05
2.73825e-05
2.73715e-05
2.7361e-05
2.73511e-05
2.73416e-05
2.73326e-05
2.73241e-05
2.7316e-05
2.73085e-05
2.73013e-05
2.72946e-05
2.72882e-05
2.72822e-05
2.72767e-05
2.72715e-05
2.72667e-05
2.72624e-05
2.72584e-05
2.72548e-05
2.72514e-05
2.72486e-05
2.7246e-05
2.72438e-05
2.7242e-05
2.72405e-05
2.72394e-05
2.72387e-05
2.72383e-05
2.72383e-05
2.72387e-05
2.72394e-05
2.72406e-05
2.72421e-05
2.72439e-05
2.72462e-05
2.72488e-05
2.72519e-05
2.72554e-05
2.72593e-05
2.72636e-05
2.72683e-05
2.72735e-05
2.72791e-05
2.72851e-05
2.72916e-05
2.72986e-05
2.7306e-05
2.73139e-05
2.73223e-05
2.73312e-05
2.73406e-05
2.73505e-05
2.73609e-05
2.73717e-05
2.73831e-05
2.7395e-05
2.74074e-05
2.74203e-05
2.74335e-05
2.74473e-05
2.74614e-05
2.7476e-05
2.7491e-05
2.75061e-05
2.75213e-05
2.75368e-05
2.75523e-05
2.7568e-05
2.75839e-05
2.76004e-05
2.76179e-05
2.76376e-05
2.76608e-05
2.76889e-05
2.77224e-05
2.77598e-05
2.77971e-05
2.78352e-05
2.79009e-05
2.80978e-05
2.88141e-05
2.80791e-05
2.8063e-05
2.80477e-05
2.80331e-05
2.80192e-05
2.80059e-05
2.79933e-05
2.79812e-05
2.79697e-05
2.79587e-05
2.79484e-05
2.79386e-05
2.79294e-05
2.79206e-05
2.79123e-05
2.79044e-05
2.78972e-05
2.78903e-05
2.78839e-05
2.7878e-05
2.78726e-05
2.78676e-05
2.7863e-05
2.78588e-05
2.78551e-05
2.78519e-05
2.78491e-05
2.78467e-05
2.78447e-05
2.78431e-05
2.78421e-05
2.78414e-05
2.78412e-05
2.78415e-05
2.78422e-05
2.78433e-05
2.78449e-05
2.7847e-05
2.78495e-05
2.78526e-05
2.78561e-05
2.78601e-05
2.78645e-05
2.78695e-05
2.78751e-05
2.78811e-05
2.78876e-05
2.78947e-05
2.79024e-05
2.79106e-05
2.79193e-05
2.79286e-05
2.79385e-05
2.7949e-05
2.796e-05
2.79717e-05
2.79839e-05
2.79967e-05
2.80101e-05
2.80241e-05
2.80386e-05
2.80536e-05
2.80691e-05
2.80852e-05
2.81016e-05
2.81184e-05
2.81355e-05
2.81526e-05
2.81697e-05
2.8187e-05
2.82041e-05
2.82213e-05
2.82388e-05
2.82574e-05
2.82781e-05
2.83029e-05
2.83339e-05
2.83721e-05
2.84151e-05
2.84577e-05
2.8499e-05
2.85486e-05
2.86568e-05
2.90263e-05
3.03301e-05
2.86917e-05
2.86725e-05
2.86542e-05
2.86367e-05
2.862e-05
2.8604e-05
2.85888e-05
2.85742e-05
2.85603e-05
2.85471e-05
2.85347e-05
2.85228e-05
2.85116e-05
2.85009e-05
2.84908e-05
2.84812e-05
2.84723e-05
2.8464e-05
2.84562e-05
2.84489e-05
2.84422e-05
2.8436e-05
2.84303e-05
2.84251e-05
2.84205e-05
2.84164e-05
2.84128e-05
2.84098e-05
2.84072e-05
2.84052e-05
2.84037e-05
2.84027e-05
2.84023e-05
2.84024e-05
2.84031e-05
2.84043e-05
2.8406e-05
2.84083e-05
2.84112e-05
2.84147e-05
2.84187e-05
2.84233e-05
2.84286e-05
2.84344e-05
2.84409e-05
2.8448e-05
2.84557e-05
2.84641e-05
2.84731e-05
2.84827e-05
2.84931e-05
2.85041e-05
2.85158e-05
2.85282e-05
2.85413e-05
2.85551e-05
2.85696e-05
2.85848e-05
2.86006e-05
2.86172e-05
2.86344e-05
2.86522e-05
2.86707e-05
2.86896e-05
2.8709e-05
2.87288e-05
2.87487e-05
2.87684e-05
2.8788e-05
2.88075e-05
2.88266e-05
2.8846e-05
2.88664e-05
2.88896e-05
2.89188e-05
2.89581e-05
2.90124e-05
2.90765e-05
2.91287e-05
2.91597e-05
2.92042e-05
2.92758e-05
2.9456e-05
3.00654e-05
3.22892e-05
2.92852e-05
2.92624e-05
2.92406e-05
2.92198e-05
2.91999e-05
2.91808e-05
2.91626e-05
2.91452e-05
2.91286e-05
2.91128e-05
2.90978e-05
2.90835e-05
2.907e-05
2.90572e-05
2.90449e-05
2.90334e-05
2.90227e-05
2.90126e-05
2.90031e-05
2.89942e-05
2.89861e-05
2.89785e-05
2.89715e-05
2.89652e-05
2.89595e-05
2.89544e-05
2.895e-05
2.89461e-05
2.89429e-05
2.89403e-05
2.89384e-05
2.89371e-05
2.89364e-05
2.89364e-05
2.89371e-05
2.89383e-05
2.89403e-05
2.89429e-05
2.89463e-05
2.89503e-05
2.8955e-05
2.89604e-05
2.89666e-05
2.89735e-05
2.89811e-05
2.89895e-05
2.89986e-05
2.90086e-05
2.90193e-05
2.90308e-05
2.90431e-05
2.90563e-05
2.90703e-05
2.90851e-05
2.91009e-05
2.91175e-05
2.9135e-05
2.91535e-05
2.91729e-05
2.91934e-05
2.92148e-05
2.92372e-05
2.92606e-05
2.92847e-05
2.93095e-05
2.93347e-05
2.936e-05
2.93849e-05
2.94097e-05
2.94339e-05
2.9458e-05
2.9484e-05
2.95147e-05
2.95556e-05
2.96152e-05
2.97017e-05
2.98318e-05
2.99699e-05
3.00154e-05
2.9944e-05
2.99847e-05
3.00941e-05
3.03794e-05
3.11943e-05
3.37933e-05
2.98746e-05
2.98477e-05
2.9822e-05
2.97974e-05
2.97738e-05
2.97512e-05
2.97296e-05
2.9709e-05
2.96893e-05
2.96705e-05
2.96527e-05
2.96357e-05
2.96195e-05
2.96041e-05
2.95896e-05
2.95758e-05
2.9563e-05
2.95508e-05
2.95395e-05
2.95288e-05
2.9519e-05
2.95098e-05
2.95014e-05
2.94937e-05
2.94869e-05
2.94807e-05
2.94753e-05
2.94706e-05
2.94666e-05
2.94635e-05
2.94611e-05
2.94594e-05
2.94586e-05
2.94585e-05
2.94591e-05
2.94606e-05
2.94628e-05
2.9466e-05
2.94699e-05
2.94746e-05
2.94802e-05
2.94867e-05
2.9494e-05
2.95022e-05
2.95113e-05
2.95213e-05
2.95323e-05
2.95442e-05
2.95571e-05
2.9571e-05
2.9586e-05
2.96021e-05
2.96193e-05
2.96377e-05
2.96575e-05
2.96787e-05
2.97015e-05
2.9726e-05
2.97524e-05
2.97811e-05
2.98123e-05
2.98458e-05
2.98823e-05
2.99218e-05
2.99638e-05
3.00066e-05
3.00488e-05
3.00889e-05
3.01267e-05
3.01636e-05
3.02032e-05
3.0252e-05
3.03209e-05
3.04268e-05
3.05876e-05
3.08023e-05
3.10392e-05
3.12214e-05
3.12425e-05
3.10084e-05
3.09788e-05
3.1139e-05
3.15187e-05
3.24155e-05
3.46683e-05
3.04742e-05
3.04428e-05
3.04127e-05
3.03838e-05
3.03561e-05
3.03296e-05
3.03042e-05
3.02799e-05
3.02567e-05
3.02346e-05
3.02135e-05
3.01934e-05
3.01743e-05
3.01562e-05
3.0139e-05
3.01228e-05
3.01075e-05
3.00931e-05
3.00796e-05
3.0067e-05
3.00553e-05
3.00444e-05
3.00344e-05
3.00253e-05
3.00171e-05
3.00098e-05
3.00033e-05
2.99977e-05
2.9993e-05
2.99892e-05
2.99864e-05
2.99845e-05
2.99834e-05
2.99833e-05
2.99841e-05
2.99858e-05
2.99886e-05
2.99923e-05
2.9997e-05
3.00027e-05
3.00095e-05
3.00172e-05
3.00261e-05
3.00361e-05
3.00471e-05
3.00593e-05
3.00728e-05
3.00875e-05
3.01036e-05
3.01211e-05
3.01403e-05
3.01613e-05
3.01844e-05
3.021e-05
3.02384e-05
3.02705e-05
3.03066e-05
3.03476e-05
3.03959e-05
3.04521e-05
3.0515e-05
3.05827e-05
3.06573e-05
3.07456e-05
3.08435e-05
3.09407e-05
3.10313e-05
3.11104e-05
3.11759e-05
3.12303e-05
3.12846e-05
3.13572e-05
3.14728e-05
3.16557e-05
3.19176e-05
3.22381e-05
3.25675e-05
3.28157e-05
3.28835e-05
3.26753e-05
3.24527e-05
3.2645e-05
3.30761e-05
3.39238e-05
3.54317e-05
3.10974e-05
3.1061e-05
3.10261e-05
3.09925e-05
3.09602e-05
3.09293e-05
3.08996e-05
3.08713e-05
3.08442e-05
3.08184e-05
3.07938e-05
3.07703e-05
3.0748e-05
3.07269e-05
3.07068e-05
3.06879e-05
3.067e-05
3.06532e-05
3.06373e-05
3.06226e-05
3.06088e-05
3.05961e-05
3.05844e-05
3.05738e-05
3.05642e-05
3.05556e-05
3.05481e-05
3.05416e-05
3.05361e-05
3.05318e-05
3.05286e-05
3.05264e-05
3.05253e-05
3.05253e-05
3.05264e-05
3.05287e-05
3.05322e-05
3.05368e-05
3.05427e-05
3.05497e-05
3.05581e-05
3.05678e-05
3.05788e-05
3.05913e-05
3.06054e-05
3.06211e-05
3.06387e-05
3.06583e-05
3.06805e-05
3.07055e-05
3.07341e-05
3.07674e-05
3.0806e-05
3.08522e-05
3.09093e-05
3.09773e-05
3.1055e-05
3.11456e-05
3.12635e-05
3.14058e-05
3.15579e-05
3.17086e-05
3.18516e-05
3.19844e-05
3.21062e-05
3.22164e-05
3.23138e-05
3.23961e-05
3.24639e-05
3.2526e-05
3.26018e-05
3.27203e-05
3.29144e-05
3.32069e-05
3.35966e-05
3.40463e-05
3.44945e-05
3.48584e-05
3.50661e-05
3.50703e-05
3.48736e-05
3.49674e-05
3.54054e-05
3.60678e-05
3.6988e-05
3.17574e-05
3.17155e-05
3.16751e-05
3.16363e-05
3.1599e-05
3.15632e-05
3.15288e-05
3.1496e-05
3.14646e-05
3.14348e-05
3.14063e-05
3.13793e-05
3.13536e-05
3.13292e-05
3.13061e-05
3.12843e-05
3.12636e-05
3.12442e-05
3.12259e-05
3.12088e-05
3.1193e-05
3.11784e-05
3.11649e-05
3.11527e-05
3.11417e-05
3.11319e-05
3.11234e-05
3.11161e-05
3.111e-05
3.11053e-05
3.11018e-05
3.10997e-05
3.10988e-05
3.10992e-05
3.1101e-05
3.11042e-05
3.11089e-05
3.1115e-05
3.11227e-05
3.11321e-05
3.11431e-05
3.1156e-05
3.11709e-05
3.11882e-05
3.12082e-05
3.12313e-05
3.12583e-05
3.12905e-05
3.13288e-05
3.13758e-05
3.14358e-05
3.15095e-05
3.15964e-05
3.1706e-05
3.18546e-05
3.20282e-05
3.221e-05
3.23918e-05
3.25728e-05
3.27528e-05
3.29296e-05
3.30991e-05
3.32577e-05
3.34034e-05
3.35366e-05
3.36579e-05
3.37668e-05
3.38632e-05
3.39528e-05
3.40518e-05
3.41879e-05
3.43972e-05
3.47134e-05
3.51507e-05
3.56932e-05
3.62928e-05
3.68847e-05
3.74011e-05
3.77983e-05
3.80684e-05
3.82478e-05
3.85091e-05
3.88085e-05
3.89446e-05
3.91264e-05
3.24675e-05
3.24194e-05
3.23731e-05
3.23284e-05
3.22853e-05
3.2244e-05
3.22044e-05
3.21666e-05
3.21306e-05
3.20964e-05
3.20639e-05
3.20331e-05
3.20039e-05
3.19761e-05
3.19498e-05
3.19249e-05
3.19014e-05
3.18793e-05
3.18585e-05
3.18392e-05
3.18212e-05
3.18047e-05
3.17895e-05
3.17758e-05
3.17636e-05
3.17527e-05
3.17434e-05
3.17356e-05
3.17292e-05
3.17244e-05
3.17212e-05
3.17195e-05
3.17193e-05
3.17209e-05
3.17242e-05
3.17294e-05
3.17365e-05
3.17457e-05
3.17571e-05
3.1771e-05
3.17878e-05
3.18079e-05
3.1832e-05
3.18615e-05
3.18974e-05
3.19419e-05
3.19999e-05
3.20733e-05
3.21621e-05
3.22771e-05
3.2437e-05
3.26267e-05
3.28275e-05
3.30318e-05
3.32389e-05
3.34477e-05
3.36556e-05
3.38606e-05
3.40623e-05
3.426e-05
3.4452e-05
3.46353e-05
3.48077e-05
3.49689e-05
3.51207e-05
3.52645e-05
3.54018e-05
3.55366e-05
3.56807e-05
3.58574e-05
3.60997e-05
3.64438e-05
3.69165e-05
3.75198e-05
3.8225e-05
3.89779e-05
3.97147e-05
4.03788e-05
4.09385e-05
4.13902e-05
4.17518e-05
4.20591e-05
4.22384e-05
4.19878e-05
4.12422e-05
3.32436e-05
3.31884e-05
3.3135e-05
3.30834e-05
3.30336e-05
3.29858e-05
3.29402e-05
3.28968e-05
3.28557e-05
3.28169e-05
3.27802e-05
3.27455e-05
3.27126e-05
3.26814e-05
3.26519e-05
3.26239e-05
3.25976e-05
3.25728e-05
3.25496e-05
3.25281e-05
3.25082e-05
3.24899e-05
3.24734e-05
3.24585e-05
3.24454e-05
3.24341e-05
3.24245e-05
3.24168e-05
3.24109e-05
3.2407e-05
3.24049e-05
3.2405e-05
3.24072e-05
3.24117e-05
3.24187e-05
3.24286e-05
3.24415e-05
3.2458e-05
3.24786e-05
3.25046e-05
3.25371e-05
3.25776e-05
3.26311e-05
3.27004e-05
3.27862e-05
3.28962e-05
3.30522e-05
3.32448e-05
3.34535e-05
3.36692e-05
3.38909e-05
3.41172e-05
3.43456e-05
3.45739e-05
3.48012e-05
3.50264e-05
3.52487e-05
3.54678e-05
3.56837e-05
3.58961e-05
3.61032e-05
3.63032e-05
3.64954e-05
3.66814e-05
3.68639e-05
3.70465e-05
3.72337e-05
3.74347e-05
3.76677e-05
3.796e-05
3.83448e-05
3.88517e-05
3.94954e-05
4.02643e-05
4.11188e-05
4.19995e-05
4.28423e-05
4.35917e-05
4.4212e-05
4.46855e-05
4.49998e-05
4.51192e-05
4.48982e-05
4.39329e-05
4.28115e-05
3.41084e-05
3.40443e-05
3.3982e-05
3.39216e-05
3.38634e-05
3.38077e-05
3.37547e-05
3.37049e-05
3.36581e-05
3.36142e-05
3.35731e-05
3.35343e-05
3.34976e-05
3.3463e-05
3.34302e-05
3.33993e-05
3.33702e-05
3.3343e-05
3.33178e-05
3.32944e-05
3.32731e-05
3.32538e-05
3.32366e-05
3.32215e-05
3.32086e-05
3.3198e-05
3.31896e-05
3.31837e-05
3.31802e-05
3.31794e-05
3.31814e-05
3.31866e-05
3.31952e-05
3.32077e-05
3.32248e-05
3.32475e-05
3.32767e-05
3.33137e-05
3.3363e-05
3.34275e-05
3.35079e-05
3.361e-05
3.37543e-05
3.39404e-05
3.41476e-05
3.43644e-05
3.45888e-05
3.48199e-05
3.50556e-05
3.52939e-05
3.55337e-05
3.57739e-05
3.60136e-05
3.62522e-05
3.64891e-05
3.6724e-05
3.69565e-05
3.7187e-05
3.74159e-05
3.7643e-05
3.78673e-05
3.80885e-05
3.83076e-05
3.85274e-05
3.87526e-05
3.89889e-05
3.92452e-05
3.95357e-05
3.98826e-05
4.03137e-05
4.08567e-05
4.15301e-05
4.23334e-05
4.32401e-05
4.4199e-05
4.51437e-05
4.60044e-05
4.67196e-05
4.72439e-05
4.75451e-05
4.75874e-05
4.72925e-05
4.64587e-05
4.49185e-05
4.38728e-05
3.50988e-05
3.50225e-05
3.49481e-05
3.48758e-05
3.48063e-05
3.47402e-05
3.46781e-05
3.46202e-05
3.45666e-05
3.45169e-05
3.44707e-05
3.44275e-05
3.43869e-05
3.43488e-05
3.43129e-05
3.42793e-05
3.4248e-05
3.42191e-05
3.41925e-05
3.41684e-05
3.4147e-05
3.41282e-05
3.41123e-05
3.40993e-05
3.40893e-05
3.40825e-05
3.40789e-05
3.40789e-05
3.4083e-05
3.40917e-05
3.41057e-05
3.41256e-05
3.4152e-05
3.41873e-05
3.42351e-05
3.42967e-05
3.43728e-05
3.44698e-05
3.46053e-05
3.47798e-05
3.49766e-05
3.51846e-05
3.54012e-05
3.56257e-05
3.58566e-05
3.60916e-05
3.63295e-05
3.65696e-05
3.68114e-05
3.70542e-05
3.72974e-05
3.75405e-05
3.77829e-05
3.80245e-05
3.82652e-05
3.8505e-05
3.87443e-05
3.89837e-05
3.92239e-05
3.94652e-05
3.97078e-05
3.99528e-05
4.02028e-05
4.04621e-05
4.0737e-05
4.10364e-05
4.13728e-05
4.17641e-05
4.22334e-05
4.28046e-05
4.34962e-05
4.43117e-05
4.52329e-05
4.62169e-05
4.7199e-05
4.8103e-05
4.88517e-05
4.9379e-05
4.96361e-05
4.9587e-05
4.91857e-05
4.83221e-05
4.679e-05
4.53083e-05
4.47269e-05
3.62797e-05
3.61856e-05
3.60937e-05
3.60046e-05
3.59194e-05
3.58392e-05
3.57647e-05
3.56964e-05
3.56339e-05
3.55768e-05
3.55244e-05
3.5476e-05
3.54311e-05
3.53895e-05
3.5351e-05
3.53156e-05
3.52833e-05
3.52543e-05
3.52286e-05
3.52067e-05
3.51887e-05
3.51748e-05
3.51652e-05
3.516e-05
3.51595e-05
3.51641e-05
3.51743e-05
3.51915e-05
3.52181e-05
3.52553e-05
3.53035e-05
3.53632e-05
3.54378e-05
3.55386e-05
3.56741e-05
3.58372e-05
3.60166e-05