/*--------------------------------*- C++ -*----------------------------------*\
| =========                 |                                                 |
| \\      /  F ield         | OpenFOAM: The Open Source CFD Toolbox           |
|  \\    /   O peration     | Version:  2412                                  |
|   \\  /    A nd           | Website:  www.openfoam.com                      |
|    \\/     M anipulation  |                                                 |
\*---------------------------------------------------------------------------*/
FoamFile
{
    version     2.0;
    format      ascii;
    arch        "LSB;label=32;scalar=64";
    class       volScalarField;
    location    "40";
    object      p;
}
// * * * * * * * * * * * * * * * * * * * * * * * * * * * * * * * * * * * * * //

dimensions      [0 2 -2 0 0 0 0];

internalField   nonuniform List<scalar> 
7373
(
24.7944
23.8219
22.9295
22.1221
21.3937
20.7495
20.1786
19.686
19.2757
18.9491
18.7124
18.5703
18.5319
18.5965
18.7799
19.0901
19.5381
20.1314
20.8881
21.8203
22.9402
24.2694
25.8223
27.618
29.6777
32.0222
34.6724
37.6521
40.9888
44.7113
48.8488
53.432
58.494
64.0676
70.1954
76.9142
84.2686
92.3021
101.063
110.603
120.982
132.257
144.493
157.768
172.156
187.75
204.645
222.955
242.806
264.332
287.696
313.076
340.679
370.736
403.498
439.26
478.311
520.904
567.256
617.347
670.564
724.826
775.324
811.381
802.567
707.172
455.543
-113.595
24.7941
23.8216
22.9292
22.1218
21.3934
20.7492
20.1783
19.6857
19.2754
18.9488
18.7121
18.57
18.5315
18.5961
18.7796
19.0898
19.5378
20.1311
20.8878
21.82
22.9398
24.2691
25.8219
27.6176
29.6773
32.0218
34.672
37.6516
40.9884
44.7109
48.8483
53.4315
58.4935
64.067
70.1948
76.9136
84.2679
92.3014
101.063
110.602
120.982
132.256
144.492
157.767
172.155
187.749
204.644
222.954
242.805
264.33
287.695
313.075
340.678
370.734
403.497
439.259
478.309
520.902
567.254
617.345
670.562
724.824
775.321
811.376
802.56
707.164
455.538
-113.588
24.7938
23.8212
22.9288
22.1214
21.393
20.7488
20.1779
19.6853
19.275
18.9484
18.7117
18.5696
18.5311
18.5958
18.7792
19.0894
19.5374
20.1307
20.8874
21.8196
22.9394
24.2686
25.8215
27.6171
29.6768
32.0213
34.6715
37.6511
40.9878
44.7103
48.8477
53.4309
58.4928
64.0664
70.1941
76.9129
84.2672
92.3006
101.062
110.602
120.981
132.255
144.491
157.766
172.154
187.748
204.643
222.953
242.804
264.329
287.694
313.073
340.676
370.733
403.495
439.257
478.307
520.9
567.252
617.342
670.559
724.821
775.318
811.37
802.551
707.147
455.509
-113.604
24.7933
23.8208
22.9284
22.121
21.3926
20.7484
20.1775
19.6849
19.2746
18.948
18.7113
18.5692
18.5308
18.5954
18.7788
19.089
19.537
20.1303
20.887
21.8192
22.939
24.2682
25.8211
27.6167
29.6764
32.0209
34.671
37.6507
40.9873
44.7098
48.8472
53.4303
58.4922
64.0657
70.1934
76.9122
84.2664
92.2998
101.061
110.601
120.98
132.254
144.49
157.765
172.153
187.747
204.642
222.951
242.802
264.328
287.692
313.072
340.675
370.731
403.493
439.255
478.305
520.898
567.25
617.341
670.558
724.819
775.315
811.365
802.539
707.123
455.466
-113.598
24.793
23.8204
22.928
22.1206
21.3922
20.7481
20.1772
19.6846
19.2743
18.9476
18.711
18.5689
18.5304
18.5951
18.7785
19.0887
19.5367
20.13
20.8867
21.8189
22.9387
24.268
25.8208
27.6165
29.6761
32.0206
34.6707
37.6503
40.987
44.7094
48.8468
53.4299
58.4918
64.0652
70.1929
76.9117
84.2659
92.2992
101.06
110.6
120.979
132.253
144.489
157.764
172.152
187.746
204.641
222.95
242.801
264.326
287.691
313.071
340.673
370.73
403.492
439.254
478.304
520.897
567.249
617.34
670.558
724.819
775.314
811.36
802.525
707.096
455.426
-113.553
24.7927
23.8202
22.9277
22.1204
21.392
20.7478
20.1769
19.6844
19.2741
18.9474
18.7108
18.5687
18.5303
18.5949
18.7783
19.0886
19.5366
20.1299
20.8866
21.8188
22.9387
24.2679
25.8207
27.6164
29.6761
32.0205
34.6706
37.6503
40.9869
44.7093
48.8467
53.4298
58.4916
64.0651
70.1927
76.9115
84.2657
92.299
101.06
110.6
120.979
132.253
144.489
157.764
172.151
187.745
204.64
222.95
242.801
264.326
287.691
313.07
340.673
370.73
403.492
439.254
478.305
520.898
567.251
617.342
670.56
724.822
775.316
811.357
802.509
707.066
455.396
-113.446
24.7926
23.82
22.9276
22.1203
21.3919
20.7477
20.1768
19.6843
19.274
18.9474
18.7108
18.5687
18.5303
18.595
18.7784
19.0887
19.5367
20.13
20.8868
21.819
22.9389
24.2681
25.8209
27.6166
29.6763
32.0208
34.6709
37.6505
40.9872
44.7096
48.847
53.4301
58.492
64.0654
70.1931
76.9118
84.266
92.2994
101.06
110.6
120.979
132.253
144.49
157.764
172.152
187.746
204.641
222.951
242.802
264.327
287.692
313.072
340.675
370.732
403.495
439.257
478.308
520.902
567.256
617.348
670.567
724.829
775.323
811.357
802.492
707.034
455.383
-113.246
24.7926
23.8201
22.9277
22.1203
21.392
20.7479
20.177
19.6845
19.2742
18.9476
18.711
18.569
18.5306
18.5953
18.7788
19.0891
19.5371
20.1305
20.8873
21.8195
22.9394
24.2687
25.8216
27.6173
29.677
32.0215
34.6717
37.6513
40.988
44.7105
48.8479
53.4311
58.493
64.0664
70.1942
76.913
84.2672
92.3006
101.062
110.602
120.981
132.255
144.491
157.766
172.154
187.748
204.643
222.953
242.805
264.33
287.695
313.075
340.679
370.736
403.5
439.263
478.315
520.91
567.265
617.36
670.58
724.843
775.335
811.36
802.472
707.002
455.398
-112.916
24.7929
23.8204
22.928
22.1207
21.3923
20.7483
20.1774
19.6849
19.2747
18.9481
18.7116
18.5696
18.5312
18.596
18.7795
19.0898
19.538
20.1314
20.8882
21.8205
22.9405
24.2698
25.8227
27.6185
29.6783
32.0228
34.6731
37.6528
40.9896
44.7121
48.8495
53.4328
58.4948
64.0684
70.1962
76.9151
84.2695
92.303
101.064
110.604
120.984
132.258
144.494
157.769
172.157
187.752
204.647
222.958
242.81
264.335
287.701
313.082
340.686
370.745
403.509
439.274
478.327
520.925
567.282
617.378
670.601
724.866
775.354
811.366
802.45
706.971
455.453
-112.414
24.7935
23.821
22.9286
22.1214
21.393
20.749
20.1782
19.6857
19.2756
18.949
18.7125
18.5705
18.5323
18.5971
18.7807
19.0911
19.5393
20.1327
20.8896
21.822
22.9421
24.2715
25.8245
27.6204
29.6803
32.0249
34.6753
37.6551
40.992
44.7146
48.8522
53.4356
58.4977
64.0715
70.1995
76.9185
84.2731
92.3068
101.068
110.609
120.988
132.263
144.5
157.775
172.163
187.758
204.654
222.965
242.818
264.344
287.711
313.092
340.698
370.758
403.524
439.291
478.347
520.946
567.307
617.406
670.632
724.898
775.382
811.375
802.425
706.942
455.561
-111.695
-829.847
24.7944
23.822
22.9297
22.1224
21.3941
20.7501
20.1793
19.6869
19.2768
18.9504
18.7139
18.572
18.5338
18.5987
18.7824
19.0929
19.5411
20.1347
20.8917
21.8243
22.9444
24.2739
25.8271
27.6231
29.6831
32.0279
34.6784
37.6584
40.9955
44.7183
48.8561
53.4397
58.5021
64.076
70.2042
76.9236
84.2784
92.3125
101.074
110.615
120.995
132.27
144.507
157.783
172.172
187.768
204.664
222.976
242.83
264.357
287.725
313.108
340.715
370.777
403.546
439.315
478.374
520.977
567.342
617.446
670.675
724.941
775.418
811.385
802.396
706.92
455.736
-110.715
-827.741
-1530.62
24.7958
23.8234
22.9312
22.1239
21.3957
20.7517
20.181
19.6887
19.2787
18.9523
18.7159
18.5741
18.536
18.601
18.7848
19.0953
19.5438
20.1375
20.8946
21.8273
22.9476
24.2773
25.8306
27.6268
29.6871
32.0321
34.6828
37.663
41.0003
44.7234
48.8615
53.4454
58.508
64.0823
70.2109
76.9307
84.2859
92.3204
101.083
110.624
121.004
132.28
144.518
157.795
172.184
187.781
204.679
222.992
242.846
264.375
287.745
313.13
340.74
370.804
403.575
439.348
478.412
521.02
567.389
617.498
670.731
724.997
775.462
811.396
802.362
706.908
455.987
-109.429
-825.073
-1527.24
-2012.09
24.7978
23.8254
22.9332
22.126
21.3979
20.754
20.1833
19.6911
19.2811
18.9548
18.7186
18.5769
18.5389
18.604
18.7879
19.0987
19.5472
20.1411
20.8985
21.8313
22.9519
24.2818
25.8354
27.6318
29.6923
32.0376
34.6886
37.6692
41.0068
44.7302
48.8687
53.453
58.516
64.0908
70.2198
76.9401
84.2959
92.3309
101.094
110.636
121.017
132.293
144.532
157.81
172.201
187.799
204.698
223.012
242.869
264.4
287.771
313.159
340.772
370.839
403.615
439.393
478.461
521.075
567.45
617.565
670.801
725.064
775.511
811.405
802.325
706.911
456.312
-107.787
-821.734
-1523.03
-2008.64
24.8004
23.8281
22.9359
22.1288
21.4007
20.7569
20.1864
19.6942
19.2844
18.9582
18.7221
18.5805
18.5427
18.608
18.7921
19.103
19.5518
20.1459
20.9035
21.8366
22.9574
24.2876
25.8415
27.6383
29.6991
32.0448
34.6961
37.6771
41.0152
44.7391
48.878
53.4628
58.5264
64.1018
70.2314
76.9523
84.3088
92.3447
101.108
110.651
121.033
132.311
144.551
157.83
172.222
187.822
204.723
223.039
242.898
264.431
287.806
313.197
340.813
370.885
403.666
439.449
478.524
521.145
567.526
617.647
670.885
725.141
775.565
811.41
802.284
706.931
456.702
-105.738
-817.612
-1517.94
-2004.36
24.8037
23.8316
22.9395
22.1325
21.4045
20.7607
20.1903
19.6983
19.2886
18.9626
18.7266
18.5852
18.5476
18.6131
18.7974
19.1086
19.5576
20.1521
20.9099
21.8434
22.9645
24.2951
25.8493
27.6465
29.7078
32.0539
34.7058
37.6872
41.0258
44.7503
48.8899
53.4753
58.5396
64.1157
70.2462
76.9679
84.3253
92.3621
101.127
110.671
121.054
132.333
144.575
157.855
172.25
187.851
204.754
223.073
242.934
264.471
287.849
313.245
340.866
370.943
403.73
439.52
478.602
521.23
567.618
617.744
670.982
725.227
775.621
811.411
802.241
706.973
457.152
-103.251
-812.64
-1511.93
-1999.08
24.808
23.836
22.944
22.1371
21.4092
20.7656
20.1953
19.7035
19.2939
18.9681
18.7323
18.5912
18.5538
18.6195
18.8042
19.1157
19.565
20.1598
20.918
21.8518
22.9734
24.3044
25.8592
27.6568
29.7186
32.0653
34.7178
37.6999
41.0392
44.7644
48.9047
53.491
58.5561
64.1331
70.2646
76.9874
84.3459
92.384
101.15
110.695
121.08
132.361
144.604
157.887
172.283
187.887
204.793
223.115
242.98
264.521
287.904
313.304
340.931
371.014
403.808
439.605
478.694
521.33
567.727
617.856
671.089
725.319
775.678
811.406
802.195
707.035
457.66
-100.332
-806.865
-1504.82
-1992.61
24.8134
23.8415
22.9496
22.1428
21.4151
20.7717
20.2016
19.7099
19.3006
18.975
18.7395
18.5986
18.5615
18.6276
18.8126
19.1244
19.5742
20.1694
20.9281
21.8623
22.9844
24.316
25.8713
27.6696
29.7321
32.0795
34.7327
37.7156
41.0557
44.7818
48.923
53.5103
58.5765
64.1546
70.2873
77.0114
84.3713
92.4108
101.179
110.726
121.113
132.395
144.641
157.926
172.325
187.932
204.841
223.167
243.036
264.582
287.97
313.376
341.009
371.1
403.902
439.708
478.8
521.449
567.854
617.98
671.207
725.416
775.735
811.395
802.146
707.117
458.233
-97.0105
-800.395
-1496.42
-1984.72
24.82
23.8483
22.9566
22.1499
21.4224
20.7792
20.2093
19.7178
19.3088
18.9835
18.7483
18.6077
18.571
18.6375
18.8229
19.1352
19.5854
20.1811
20.9404
21.8752
22.9979
24.3302
25.8862
27.6853
29.7485
32.0967
34.7508
37.7347
41.0758
44.803
48.9453
53.5338
58.6013
64.1808
70.3149
77.0406
84.4022
92.4435
101.213
110.762
121.152
132.437
144.685
157.973
172.376
187.986
204.9
223.23
243.104
264.655
288.049
313.462
341.103
371.202
404.012
439.828
478.924
521.587
567.991
618.116
671.333
725.519
775.792
811.377
802.091
707.214
458.886
-93.3021
-793.184
-1486.71
-1975.29
24.8281
23.8565
22.965
22.1586
21.4312
20.7883
20.2187
19.7275
19.3188
18.9938
18.759
18.6188
18.5826
18.6495
18.8354
19.1482
19.599
20.1954
20.9553
21.8908
23.0143
24.3473
25.9042
27.7041
29.7684
32.1176
34.7727
37.7577
41.1001
44.8285
48.9722
53.5621
58.6312
64.2123
70.3482
77.0757
84.4394
92.4829
101.255
110.807
121.199
132.487
144.739
158.03
172.437
188.051
204.97
223.305
243.185
264.743
288.143
313.564
341.213
371.32
404.139
439.962
479.066
521.735
568.14
618.263
671.468
725.627
775.849
811.352
802.026
707.324
459.617
-89.1741
-785.09
-1475.65
-1964.33
24.8377
23.8665
22.9752
22.169
21.4419
20.7992
20.23
19.7392
19.3308
19.0063
18.7719
18.6322
18.5964
18.6639
18.8505
19.1639
19.6154
20.2125
20.9732
21.9096
23.0339
24.3679
25.9258
27.7268
29.7921
32.1425
34.799
37.7853
41.1291
44.859
49.0044
53.596
58.6669
64.25
70.3879
77.1177
84.4837
92.5298
101.305
110.859
121.255
132.546
144.802
158.098
172.509
188.129
205.052
223.394
243.28
264.845
288.253
313.681
341.338
371.454
404.281
440.112
479.222
521.897
568.303
618.421
671.613
725.741
775.906
811.319
801.948
707.447
460.421
-84.5752
-776.032
-1463.1
-1951.83
36.4891
34.5921
32.836
31.2147
29.7233
28.3462
27.0847
25.91
24.8493
23.8784
22.9873
22.1814
21.4547
20.8123
20.2435
19.753
19.3451
19.0211
18.7872
18.6481
18.613
18.6811
18.8684
19.1826
19.6349
20.2328
20.9944
21.9318
23.0572
24.3923
25.9514
27.7536
29.8203
32.1721
34.8301
37.818
41.1635
44.8953
49.0425
53.6362
58.7092
64.2946
70.435
77.1675
84.5363
92.5855
101.364
110.922
121.321
132.617
144.877
158.177
172.594
188.219
205.149
223.497
243.39
264.962
288.378
313.814
341.48
371.603
404.438
440.277
479.394
522.073
568.48
618.593
671.768
725.863
775.964
811.275
801.852
707.585
461.292
-79.456
-765.936
-1448.99
-1937.71
36.5016
34.6047
32.8487
31.2275
29.7362
28.3593
27.098
25.9234
24.863
23.8925
23.0017
22.1961
21.4697
20.8278
20.2594
19.7695
19.3621
19.0386
18.8054
18.667
18.6325
18.7015
18.8896
19.2047
19.6579
20.2569
21.0196
21.9581
23.0847
24.4211
25.9816
27.7853
29.8536
32.207
34.8668
37.8566
41.204
44.9379
49.0874
53.6835
58.759
64.3472
70.4905
77.2261
84.5982
92.6509
101.433
110.995
121.399
132.699
144.964
158.27
172.693
188.324
205.26
223.615
243.516
265.095
288.519
313.964
341.637
371.769
404.613
440.459
479.582
522.266
568.674
618.78
671.938
725.995
776.023
811.217
801.733
707.737
462.229
-73.7684
-754.708
-1433.22
-1921.79
36.5163
34.6195
32.8636
31.2425
29.7514
28.3747
27.1136
25.9392
24.8792
23.909
23.0186
22.2134
21.4875
20.846
20.2781
19.7888
19.382
19.0592
18.8267
18.6891
18.6555
18.7253
18.9144
19.2305
19.6848
20.2851
21.049
21.9889
23.117
24.4549
26.017
27.8224
29.8925
32.2479
34.9097
37.9017
41.2515
44.9879
49.14
53.7389
58.8174
64.4088
70.5555
77.2947
84.6707
92.7274
101.514
111.081
121.489
132.795
145.066
158.378
172.806
188.444
205.387
223.749
243.657
265.244
288.676
314.129
341.811
371.952
404.804
440.658
479.789
522.477
568.885
618.985
672.123
726.136
776.083
811.143
801.586
707.901
463.228
-67.4648
-742.241
-1415.67
-1903.93
36.5335
34.6368
32.881
31.2601
29.7692
28.3927
27.1319
25.9577
24.8982
23.9283
23.0384
22.2336
21.5081
20.8673
20.3
19.8113
19.4052
19.0833
18.8516
18.7149
18.6823
18.7532
18.9434
19.2607
19.7163
20.3179
21.0833
22.0248
23.1546
24.4942
26.0582
27.8657
29.9379
32.2956
34.9598
37.9544
41.3069
45.0462
49.2014
53.8035
58.8855
64.4806
70.6312
77.3745
84.7548
92.8162
101.607
111.18
121.593
132.905
145.181
158.499
172.934
188.579
205.529
223.898
243.814
265.41
288.85
314.312
342.003
372.154
405.015
440.878
480.017
522.71
569.119
619.211
672.326
726.289
776.14
811.048
801.404
708.077
464.287
-60.4967
-728.431
-1396.23
-1884.05
36.5534
34.6569
32.9012
31.2806
29.7898
28.4137
27.1531
25.9793
24.9202
23.9507
23.0613
22.257
21.5322
20.892
20.3254
19.8375
19.4323
19.1112
18.8805
18.7448
18.7134
18.7855
18.977
19.2958
19.7528
20.3561
21.1232
22.0665
23.1982
24.5399
26.1062
27.916
29.9907
32.351
35.018
38.0156
41.3713
45.1139
49.2727
53.8786
58.9645
64.5638
70.7188
77.4667
84.8519
92.9183
101.715
111.292
121.712
133.029
145.312
158.636
173.078
188.73
205.687
224.065
243.989
265.593
289.043
314.514
342.216
372.376
405.249
441.122
480.269
522.969
569.378
619.462
672.549
726.454
776.195
810.926
801.178
708.262
465.397
-52.8154
-713.18
-1374.72
-1862.02
36.5763
34.6802
32.9246
31.3042
29.8137
28.4379
27.1777
26.0043
24.9456
23.9767
23.0878
22.2842
21.56
20.9206
20.3548
19.8678
19.4635
19.1435
18.914
18.7795
18.7493
18.8229
19.016
19.3364
19.7951
20.4003
21.1694
22.1147
23.2488
24.5929
26.1616
27.9742
30.0518
32.4152
35.0854
38.0864
41.4458
45.1923
49.3551
53.9653
59.0557
64.6596
70.8194
77.5723
84.9627
93.0344
101.836
111.42
121.845
133.168
145.458
158.789
173.238
188.897
205.863
224.249
244.182
265.796
289.256
314.739
342.452
372.624
405.508
441.392
480.55
523.256
569.666
619.738
672.793
726.629
776.243
810.771
800.898
708.449
466.55
-44.3747
-696.379
-1350.93
-1837.64
36.6028
34.7069
32.9515
31.3315
29.8412
28.4658
27.2061
26.033
24.9749
24.0066
23.1184
22.3154
21.592
20.9535
20.3887
19.9027
19.4995
19.1808
18.9526
18.8195
18.7909
18.8661
19.0609
19.3832
19.8439
20.4513
21.2226
22.1705
23.3071
24.654
26.2257
28.0414
30.1223
32.4892
35.1632
38.1682
41.5317
45.2826
49.4499
54.0647
59.1599
64.7689
70.9338
77.6919
85.0877
93.165
101.973
111.562
121.994
133.324
145.621
158.959
173.416
189.084
206.059
224.454
244.397
266.022
289.494
314.989
342.715
372.9
405.798
441.695
480.864
523.576
569.986
620.043
673.06
726.815
776.28
810.573
800.55
708.627
467.731
-35.1302
-677.927
-1324.75
-1810.76
36.6331
34.7376
32.9823
31.3627
29.8727
28.4979
27.2386
26.0661
25.0087
24.041
23.1535
22.3514
21.6289
20.9914
20.4277
19.9429
19.541
19.2237
18.997
18.8655
18.8387
18.9158
19.1127
19.4371
19.9001
20.51
21.284
22.2346
23.3743
24.7244
26.2995
28.1188
30.2035
32.5745
35.2527
38.2621
41.6302
45.3859
49.5581
54.1778
59.2781
64.8923
71.0625
77.8262
85.2277
93.311
102.125
111.721
122.16
133.497
145.802
159.149
173.614
189.292
206.276
224.683
244.638
266.275
289.76
315.269
343.009
373.209
406.122
442.033
481.213
523.933
570.34
620.379
673.349
727.008
776.301
810.322
800.119
708.796
468.93
-25.0402
-657.73
-1296.06
-1781.17
36.6678
34.7727
33.0177
31.3985
29.9089
28.5347
27.2759
26.104
25.0473
24.0804
23.1938
22.3927
21.6712
21.0349
20.4725
19.989
19.5886
19.273
19.0481
18.9184
18.8936
18.9729
19.1722
19.4991
19.9648
20.5776
21.3546
22.3085
23.4517
24.8053
26.3844
28.2077
30.2969
32.6724
35.3553
38.3693
41.7424
45.503
49.6803
54.3052
59.4108
65.0305
71.2064
77.9762
85.3839
93.4739
102.295
111.898
122.345
133.691
146.004
159.36
173.836
189.524
206.52
224.939
244.907
266.558
290.057
315.582
343.339
373.556
406.485
442.41
481.603
524.329
570.731
620.747
673.66
727.206
776.297
810.002
799.585
708.938
470.153
-14.0658
-635.703
-1264.7
-1748.62
36.7075
34.8128
33.058
31.4394
29.9502
28.5768
27.3186
26.1474
25.0916
24.1256
23.24
22.44
21.7198
21.0848
20.5239
20.042
19.6434
19.3296
19.1067
18.9793
18.9568
19.0386
19.2406
19.5704
20.0392
20.6553
21.4358
22.3934
23.5405
24.8983
26.4817
28.3098
30.4036
32.784
35.4717
38.4905
41.8689
45.6348
49.8173
54.4478
59.559
65.1848
71.367
78.1434
85.5582
93.6556
102.484
112.096
122.551
133.907
146.23
159.597
174.084
189.784
206.793
225.226
245.208
266.876
290.392
315.933
343.708
373.943
406.89
442.831
482.037
524.768
571.162
621.149
673.993
727.404
776.259
809.597
798.925
708.98
471.429
-2.17696
-611.783
-1230.65
-1712.85
-1980.36
36.7527
34.8586
33.1041
31.4862
29.9975
28.6249
27.3675
26.1972
25.1423
24.1774
23.293
22.4942
21.7755
21.1421
20.5829
20.1029
19.7062
19.3947
19.1741
19.0492
19.0294
19.1141
19.3193
19.6524
20.1246
20.7445
21.5291
22.4908
23.6424
25.0048
26.593
28.4259
30.5247
32.9099
35.6027
38.6268
42.0107
45.782
49.9703
54.6068
59.7244
65.3569
71.5463
78.3302
85.7529
93.8588
102.697
112.318
122.783
134.149
146.484
159.863
174.363
190.077
207.101
225.549
245.548
267.232
290.766
316.327
344.122
374.376
407.342
443.3
482.519
525.253
571.636
621.585
674.345
727.595
776.174
809.085
798.108
708.867
472.773
10.6315
-585.937
-1193.7
-1673.58
-1945.23
36.8043
34.9108
33.1568
31.5397
30.0515
28.68
27.4234
26.2541
25.2004
24.2367
23.3538
22.5565
21.8394
21.2079
20.6507
20.1728
19.7784
19.4695
19.2516
19.1295
19.1129
19.201
19.4097
19.7465
20.2227
20.847
21.6359
22.6023
23.7586
25.1259
26.719
28.557
30.6609
33.0514
35.7494
38.7791
42.1688
45.9462
50.1409
54.7843
59.9091
65.5494
71.7469
78.5395
85.9713
94.0868
102.935
112.567
123.044
134.422
146.769
160.162
174.677
190.406
207.446
225.912
245.928
267.632
291.187
316.769
344.585
374.86
407.847
443.822
483.053
525.788
572.154
622.054
674.711
727.77
776.024
808.438
797.099
708.592
474.181
24.3484
-558.142
-1153.84
-1630.92
-1906.48
38.8914
36.8632
34.9705
33.217
31.6008
30.1133
28.743
27.4875
26.3193
25.267
24.3048
23.4235
22.628
21.9128
21.2835
20.7286
20.2532
19.8615
19.5555
19.3407
19.2219
19.2088
19.3007
19.5135
19.8546
20.3351
20.9641
21.7577
22.729
23.8903
25.2625
26.8609
28.7041
30.8133
33.2093
35.9132
38.9491
42.3452
46.1297
50.3318
54.983
60.1161
65.7653
71.9721
78.7746
86.2169
94.3434
103.203
112.848
123.337
134.729
147.091
160.499
175.029
190.776
207.834
226.319
246.356
268.081
291.658
317.263
345.102
375.401
408.408
444.401
483.642
526.375
572.716
622.555
675.087
727.916
775.787
807.624
795.858
708.069
475.653
38.955
-528.436
-1111.08
-1584.7
-1863.94
38.9579
36.9304
35.0386
33.2857
31.6706
30.184
28.8153
27.5609
26.3942
25.3435
24.383
23.5036
22.7101
21.9972
21.3705
20.8183
20.3457
19.9571
19.6545
19.4433
19.3282
19.3191
19.4153
19.6325
19.9782
20.4634
21.0973
21.8958
22.8721
24.0383
25.4159
27.0197
28.8683
30.9835
33.3856
36.0961
39.1391
42.5429
46.3353
50.546
55.2062
60.3489
66.0082
72.2256
79.0393
86.4933
94.6322
103.505
113.163
123.667
135.074
147.452
160.877
175.426
191.191
208.27
226.776
246.835
268.584
292.185
317.815
345.679
376.002
409.031
445.041
484.291
527.016
573.324
623.084
675.462
728.016
775.437
806.601
794.334
707.1
477.167
54.3987
-496.866
-1065.41
-1534.85
-1817.51
39.0339
37.0073
35.1164
33.3645
31.7507
30.2652
28.8981
27.6452
26.4802
25.4314
24.4731
23.5958
22.8048
22.0945
21.4707
20.9216
20.4524
20.0672
19.7684
19.5612
19.4503
19.4457
19.5464
19.7682
20.1187
20.6087
21.2475
22.051
23.0324
24.2039
25.5872
27.1968
29.0518
31.1737
33.5829
36.301
39.3523
42.7648
46.5665
50.7869
55.4574
60.6109
66.2817
72.5111
79.3374
86.8047
94.9575
103.845
113.519
124.039
135.463
147.859
161.303
175.872
191.658
208.759
227.289
247.373
269.147
292.774
318.431
346.322
376.67
409.722
445.747
485.003
527.713
573.975
623.636
675.824
728.048
774.938
805.321
792.462
705.65
478.67
70.5955
-463.569
-1017.09
-1481.41
-1766.98
39.1208
37.0952
35.2056
33.4547
31.8426
30.3584
28.9934
27.7422
26.5792
25.5327
24.5768
23.7022
22.914
22.2068
21.5864
21.0409
20.5753
20.1941
19.8995
19.6966
19.5901
19.5898
19.6954
19.9219
20.277
20.7719
21.4158
22.2246
23.2116
24.389
25.7787
27.3949
29.2573
31.387
33.8044
36.5314
39.5921
43.0145
46.8267
51.0582
55.7403
60.906
66.5897
72.8327
79.6733
87.1554
95.3238
104.228
113.919
124.457
135.9
148.317
161.782
176.373
192.182
209.308
227.864
247.974
269.776
293.432
319.118
347.037
377.411
410.484
446.524
485.779
528.466
574.665
624.199
676.156
727.984
774.248
803.725
790.171
703.78
480.15
87.4043
-428.714
-966.156
-1424.49
-1712.34
39.2204
37.1961
35.308
33.5585
31.9482
30.4658
29.1032
27.8541
26.6935
25.6496
24.6966
23.8251
23.0401
22.3364
21.7199
21.1783
20.7168
20.3397
20.0496
19.8506
19.7488
19.7529
19.863
20.0945
20.4544
20.9546
21.604
22.4187
23.4119
24.5963
25.9933
27.6173
29.4881
31.6267
34.0536
36.7906
39.8621
43.2957
47.1198
51.3637
56.0589
61.2384
66.9368
73.1949
80.0514
87.5503
95.7362
104.658
114.369
124.927
136.392
148.831
162.319
176.935
192.77
209.923
228.507
248.646
270.479
294.165
319.882
347.829
378.229
411.323
447.373
486.621
529.272
575.388
624.762
676.434
727.788
773.315
801.742
787.379
701.38
481.651
104.597
-392.541
-912.84
-1364.16
-1653.51
39.3346
37.312
35.4257
33.6779
32.0699
30.5896
29.2298
27.9833
26.8255
25.7848
24.8351
23.967
23.1858
22.486
21.8735
21.3362
20.8788
20.505
20.2194
20.0245
19.9274
19.9359
20.0509
20.2877
20.6529
21.1587
21.8143
22.6361
23.6364
24.8288
26.2341
27.8672
29.7476
31.8964
34.334
37.0824
40.1661
43.6124
47.4499
51.7079
56.4179
61.6129
67.3276
73.6028
80.4772
87.9948
96.2002
105.143
114.875
125.456
136.944
149.408
162.922
177.565
193.428
210.611
229.225
249.397
271.262
294.98
320.728
348.706
379.131
412.243
448.297
487.529
530.126
576.132
625.306
676.63
727.415
772.075
799.29
783.989
698.361
483.201
121.95
-355.294
-857.422
-1300.21
-1590.68
39.466
37.4454
35.5612
33.8156
32.2104
30.7327
29.3762
28.1326
26.9781
25.9409
24.9952
24.1308
23.3534
22.6575
22.0493
21.5155
21.061
20.6909
20.4108
20.2199
20.1273
20.1409
20.2614
20.5035
20.8747
21.3873
22.0504
22.88
23.8885
25.0901
26.5051
28.1484
30.0397
32.2
34.6498
37.411
40.5084
43.9691
47.8217
52.0955
56.8221
62.0345
67.7676
74.0619
80.9564
88.4948
96.7221
105.687
115.444
126.049
137.564
150.055
163.597
178.27
194.165
211.379
230.027
250.232
272.132
295.884
321.665
349.672
380.12
413.245
449.296
488.498
531.021
576.884
625.805
676.704
726.809
770.451
796.27
779.894
694.611
484.734
139.158
-317.285
-800.255
-1232.63
-1524.59
39.6172
37.5989
35.7173
33.9746
32.3725
30.8979
29.5452
28.3053
27.1543
26.1209
25.1792
24.3184
23.5437
22.852
22.2469
21.7161
21.2654
20.901
20.6251
20.4382
20.3512
20.3701
20.4964
20.745
21.1236
21.6439
22.3154
23.154
24.172
25.3841
26.8099
28.4648
30.3685
32.5418
35.0054
37.7811
40.8939
44.3708
48.2403
52.532
57.2772
62.5091
68.2628
74.5784
81.4952
89.0568
97.3084
106.299
116.082
126.715
138.258
150.78
164.353
179.059
194.987
212.237
230.92
251.161
273.097
296.884
322.698
350.732
381.2
414.332
450.368
489.522
531.943
577.621
626.227
676.607
725.9
768.35
792.572
774.976
690.025
485.827
155.54
-279.016
-741.607
-1162.04
-1455.55
39.791
37.7757
35.8973
34.158
32.5597
31.0888
29.7401
28.5036
27.3556
26.3254
25.3872
24.5286
23.7573
23.0705
22.468
21.9415
21.4958
21.1357
20.8642
20.6826
20.6016
20.6267
20.76
21.0163
21.4031
21.932
22.6132
23.462
24.4908
25.7147
27.1529
28.8209
30.7386
32.9266
35.4056
38.1978
41.3279
44.823
48.7115
53.0231
57.7892
63.043
68.8195
75.159
82.1006
89.6881
97.9667
106.986
116.798
127.461
139.036
151.59
165.198
179.939
195.904
213.191
231.913
252.191
274.164
297.987
323.831
351.891
382.373
415.502
451.507
490.59
532.874
578.314
626.527
676.278
724.606
765.665
788.071
769.106
684.486
486.232
170.851
-240.955
-682.023
-1089.11
-1382.85
39.9909
37.9788
36.104
34.3679
32.7725
31.3055
29.9603
28.7266
27.5819
26.5553
25.6203
24.7648
23.9989
23.3153
22.7161
22.1943
21.7529
21.3979
21.1319
20.9564
20.8824
20.9145
21.0558
21.3208
21.7169
22.2558
22.948
23.8082
24.8493
26.0867
27.5388
29.2217
31.1551
33.3596
35.8561
38.6667
41.8162
45.3317
49.2415
53.5754
58.3649
63.643
69.4451
75.811
82.7803
90.3965
98.705
107.755
117.6
128.297
139.906
152.496
166.141
180.92
196.924
214.251
233.012
253.33
275.34
299.197
325.07
353.15
383.637
416.75
452.705
491.685
533.787
578.925
626.651
675.64
722.827
762.273
782.628
762.135
677.84
487.574
186.951
-203.077
-623.206
-1016.15
-1307.85
40.2167
38.2077
36.3365
34.6029
33.013
31.5514
30.2085
28.9773
27.8369
26.8142
25.8818
25.0307
24.2688
23.5886
22.9937
22.4768
22.0406
21.6918
21.4319
21.2635
21.1974
21.2373
21.388
21.6628
22.0695
22.6197
23.3243
24.1976
25.2526
26.505
27.9728
29.6725
31.6236
33.8467
36.3628
39.1941
42.3653
45.9036
49.8373
54.1961
59.0116
64.3168
70.1473
76.5426
83.5425
91.1905
99.5319
108.616
118.496
129.23
140.877
153.506
167.191
182.011
198.056
215.424
234.226
254.584
276.63
300.519
326.417
354.509
384.989
418.066
453.944
492.784
534.649
579.403
626.529
674.603
720.447
758.035
776.091
753.899
669.96
490.405
204.888
-165.298
-566.488
-946.241
-1235.36
40.4695
38.4655
36.5987
34.8692
33.2851
31.8259
30.4852
29.2574
28.1226
27.1035
26.174
25.3279
24.5702
23.8946
23.3045
22.7929
22.3631
22.021
21.7681
21.608
21.5506
21.5997
21.761
22.0469
22.4655
23.0287
23.7473
24.6352
25.7061
26.9754
28.4609
30.1794
32.1504
34.3944
36.9324
39.7869
42.9825
46.5462
50.5065
54.893
59.7374
65.0728
70.9347
77.3625
84.3962
92.0792
100.457
109.579
119.497
130.27
141.958
154.629
168.357
183.22
199.309
216.72
235.563
255.959
278.041
301.957
327.872
355.964
386.42
419.438
455.204
493.854
535.411
579.686
626.078
673.059
717.332
752.793
768.297
744.264
660.844
40.7513
38.752
36.8899
35.1656
33.5855
32.13
30.7941
29.5707
28.4423
27.4268
26.5013
25.6604
24.9075
24.2372
23.6525
23.1471
22.7244
22.3899
22.1452
21.9944
21.9468
22.0065
22.1797
22.4782
22.9105
23.4882
24.2225
25.1271
26.2158
27.5041
29.0095
30.7492
32.7425
35.0098
37.5724
40.4527
43.6754
47.2675
51.2574
55.6748
60.5513
65.92
71.8166
78.2804
85.3513
93.0726
101.49
110.652
120.613
131.429
143.161
155.877
169.649
184.558
200.691
218.145
237.029
257.462
279.573
303.51
329.431
357.507
387.917
420.843
456.452
494.851
536.016
579.693
625.194
670.879
713.332
746.379
759.079
733.109
650.423
41.0607
39.0676
37.2119
35.4943
33.9195
32.47
31.1394
29.9211
28.7996
27.7881
26.8674
26.0323
25.2848
24.6207
24.0421
23.5438
23.1293
22.8034
22.5679
22.4278
22.3914
22.463
22.6497
22.9624
23.4101
24.0044
24.7563
25.6797
26.7884
28.098
29.6258
31.3892
33.4074
35.7008
38.2908
41.2
44.4529
48.0766
52.0993
56.5508
61.4628
66.8683
72.8032
79.3064
86.4181
94.1813
102.642
111.848
121.854
132.716
144.495
157.257
171.077
186.032
202.21
219.706
238.629
259.093
281.228
305.174
331.085
359.124
389.457
422.251
457.648
495.718
536.387
579.329
623.759
667.921
708.28
738.615
748.283
720.312
638.492
41.4002
39.4154
37.5683
35.8594
34.2916
32.8491
31.5251
30.3128
29.1989
28.1922
27.2771
26.4484
25.7071
25.05
24.4784
23.9882
23.583
23.2668
23.0419
22.9138
22.89
22.9754
23.1772
23.506
23.9711
24.5839
25.3557
26.3002
27.4314
28.7648
30.3177
32.1075
34.1535
36.4762
39.0967
42.0379
45.3244
48.983
53.0421
57.5313
62.4823
67.9284
73.9052
80.4516
87.6076
95.4163
103.923
113.177
123.231
134.142
145.97
158.781
172.649
187.65
203.872
221.408
240.364
260.854
283.001
306.941
332.821
360.794
391.012
423.621
458.734
496.382
536.433
578.478
621.631
664.021
701.999
729.328
735.787
705.759
624.542
41.7727
39.799
37.963
36.2651
34.7061
33.2721
31.956
30.7507
29.645
28.6442
27.7354
26.9139
26.1798
25.5306
24.967
24.4861
24.0913
23.7862
23.5734
23.4588
23.4493
23.5502
23.769
24.116
24.6007
25.2343
26.0285
26.9966
28.1529
29.513
31.0939
32.9132
34.9902
37.3452
39.9997
42.9764
46.3
49.9972
54.0964
58.6271
63.621
69.1114
75.134
81.7273
88.9314
96.7891
105.346
114.65
124.756
135.717
147.596
160.458
174.373
189.419
205.682
223.253
242.236
262.739
284.882
308.796
334.617
362.486
392.539
424.897
459.64
496.755
536.042
577.005
618.652
659.002
694.309
718.356
721.473
689.352
609.01
42.1819
40.2225
38.4008
36.7162
35.1682
33.7444
32.4373
31.2401
30.1435
29.1496
28.2481
27.4347
26.7088
26.0686
25.5142
25.0438
24.6607
24.3682
24.1692
24.0698
24.0764
24.1948
24.4328
24.8002
25.3068
25.9639
26.7829
27.7776
28.962
30.3517
31.9638
33.8159
35.9273
38.3183
41.0104
44.0263
47.3908
51.1305
55.2736
59.8497
64.8905
70.4292
76.5014
83.1454
90.4012
98.3112
106.921
116.279
126.437
137.452
149.382
162.293
176.254
191.343
207.641
225.239
244.236
264.738
286.857
310.716
336.441
364.158
393.983
426.009
460.278
496.726
535.083