/*--------------------------------*- C++ -*----------------------------------*\
| =========                 |                                                 |
| \\      /  F ield         | OpenFOAM: The Open Source CFD Toolbox           |
|  \\    /   O peration     | Version:  2412                                  |
|   \\  /    A nd           | Website:  www.openfoam.com                      |
|    \\/     M anipulation  |                                                 |
\*---------------------------------------------------------------------------*/
FoamFile
{
    version     2.0;
    format      ascii;
    arch        "LSB;label=32;scalar=64";
    class       surfaceScalarField;
    location    "40";
    object      phi;
}
// * * * * * * * * * * * * * * * * * * * * * * * * * * * * * * * * * * * * * //

dimensions      [0 3 -1 0 0 0 0];

oriented        oriented;

internalField   nonuniform List<scalar> 
14486
(
1.10369e-05
-1.25942e-06
-9.77751e-06
4.5551e-06
6.48181e-06
-1.94496e-06
6.50004e-06
1.42325e-06
-3.3682e-06
3.57468e-06
-2.15144e-06
-1.00836e-06
4.58303e-06
-6.54354e-06
5.53517e-06
-8.69198e-06
2.14842e-06
-7.7526e-06
-9.39387e-07
-6.41035e-06
-1.34227e-06
-5.65681e-06
-7.53546e-07
-5.25803e-06
-3.98779e-07
-5.07872e-06
-1.79353e-07
-5.07159e-06
-7.16657e-09
-5.13879e-06
6.71601e-08
-5.17112e-06
3.23057e-08
-5.1503e-06
-2.08567e-08
-5.08671e-06
-6.36119e-08
-4.99444e-06
-9.23053e-08
-4.91384e-06
-8.06165e-08
-4.86576e-06
-4.82042e-08
-4.84586e-06
-1.99127e-08
-4.84266e-06
-3.22628e-09
-4.83996e-06
-2.76086e-09
-4.83106e-06
-8.94223e-09
-4.8186e-06
-1.25413e-08
-4.80812e-06
-1.06186e-08
-4.80339e-06
-4.7783e-09
-4.80231e-06
-1.23235e-09
-9.03878e-09
4.73972e-06
-1.62986e-09
4.7363e-06
3.27967e-09
4.73292e-06
3.23499e-09
4.72988e-06
2.89755e-09
4.72748e-06
2.29991e-09
4.72557e-06
1.6205e-09
4.72434e-06
1.29566e-09
4.72329e-06
9.76367e-10
4.72292e-06
2.91808e-10
4.72331e-06
-4.51212e-10
4.72416e-06
-8.99445e-10
4.72522e-06
-1.2348e-09
4.7262e-06
-9.89876e-10
4.72861e-06
-2.49565e-09
4.73411e-06
-5.53365e-09
4.74365e-06
-9.58269e-09
4.75394e-06
-1.03196e-08
4.76001e-06
-6.12416e-09
4.75958e-06
3.82927e-10
4.75932e-06
2.47321e-10
4.77494e-06
-1.56907e-08
4.81768e-06
-4.27288e-08
4.8916e-06
-7.40067e-08
4.97618e-06
-8.46169e-08
5.0322e-06
-5.60364e-08
5.04592e-06
-1.37535e-08
5.00732e-06
3.85823e-08
4.93398e-06
7.33317e-08
4.93132e-06
2.59936e-09
5.09289e-06
-1.61568e-07
5.46258e-06
-3.69747e-07
6.16439e-06
-7.01827e-07
7.41368e-06
-1.2493e-06
8.25125e-06
-8.37591e-07
6.16938e-06
2.08184e-06
9.81684e-07
5.18738e-06
-3.16752e-06
4.14949e-06
-1.04397e-06
-2.12356e-06
1.58969e-06
-2.63366e-06
-5.04262e-06
6.6323e-06
-1.01172e-05
5.07461e-06
-1.13767e-05
3.29327e-05
-3.60289e-06
-3.91073e-05
1.68227e-05
2.25917e-05
-3.85698e-06
2.71797e-05
4.31034e-06
-1.15355e-05
1.0474e-05
-8.31516e-06
-5.33041e-06
2.03875e-05
-2.31338e-05
2.33386e-05
-2.94112e-05
8.42572e-06
-2.6367e-05
-3.98355e-06
-2.21353e-05
-5.574e-06
-1.97277e-05
-3.16116e-06
-1.84521e-05
-1.67437e-06
-1.78874e-05
-7.44214e-07
-1.78647e-05
-2.99242e-08
-1.80663e-05
2.6874e-07
-1.81541e-05
1.20036e-07
-1.80682e-05
-1.06796e-07
-1.78449e-05
-2.86931e-07
-1.75371e-05
-4.00167e-07
-1.72705e-05
-3.47304e-07
-1.71114e-05
-2.07449e-07
-1.70439e-05
-8.7427e-08
-1.703e-05
-1.72438e-08
-1.70171e-05
-1.57105e-08
-1.69844e-05
-4.16956e-08
-1.69406e-05
-5.64823e-08
-1.69044e-05
-4.70337e-08
-1.68876e-05
-2.17435e-08
-1.68844e-05
-4.67389e-09
-4.16658e-08
1.66578e-05
-7.25288e-09
1.66462e-05
1.4604e-08
1.6634e-05
1.52584e-08
1.66238e-05
1.28342e-08
1.66155e-05
1.03612e-08
1.66097e-05
6.96335e-09
1.66049e-05
6.25333e-09
1.66021e-05
3.56803e-09
1.66007e-05
1.59832e-09
1.66022e-05
-2.08718e-09
1.66059e-05
-4.63166e-09
1.66097e-05
-5.32056e-09
1.66145e-05
-5.85125e-09
1.66225e-05
-1.06718e-08
1.6642e-05
-2.50586e-08
1.66747e-05
-4.23622e-08
1.67108e-05
-4.64893e-08
1.67335e-05
-2.89474e-08
1.67353e-05
-1.46778e-09
1.67371e-05
-1.52405e-09
1.67897e-05
-6.84356e-08
1.69303e-05
-1.83366e-07
1.71743e-05
-3.18135e-07
1.74561e-05
-3.6642e-07
1.76532e-05
-2.53233e-07
1.77143e-05
-7.487e-08
1.76041e-05
1.48733e-07
1.73802e-05
2.97207e-07
1.73695e-05
1.31794e-08
1.78764e-05
-6.6844e-07
1.90587e-05
-1.55216e-06
2.13031e-05
-2.94619e-06
2.52498e-05
-5.19606e-06
2.79714e-05
-3.55919e-06
2.18537e-05
8.19942e-06
5.04507e-06
2.19955e-05
-9.33643e-06
1.85315e-05
-3.28793e-06
-8.17205e-06
2.77253e-06
-8.69414e-06
-1.79874e-05
2.73923e-05
-2.98203e-05
1.69075e-05
-4.47999e-05
5.67816e-05
-6.28707e-06
-8.96019e-05
3.32879e-05
4.60855e-05
-3.76464e-06
6.42322e-05
7.88717e-06
-2.31873e-05
1.74311e-05
-1.78591e-05
-1.32439e-05
5.10625e-05
-4.59215e-05
5.60162e-05
-5.63473e-05
1.88515e-05
-5.06297e-05
-9.70124e-06
-4.30795e-05
-1.31242e-05
-3.87445e-05
-7.49621e-06
-3.64433e-05
-3.97556e-06
-3.54362e-05
-1.75135e-06
-3.54012e-05
-6.50538e-08
-3.57435e-05
6.11021e-07
-3.58734e-05
2.49907e-07
-3.56834e-05
-2.96925e-07
-3.52439e-05
-7.26434e-07
-3.46624e-05
-9.81769e-07
-3.41643e-05
-8.45381e-07
-3.38664e-05
-5.05558e-07
-3.3739e-05
-2.14892e-07
-3.37067e-05
-4.95959e-08
-3.36762e-05
-4.62768e-08
-3.36091e-05
-1.08929e-07
-3.35243e-05
-1.41409e-07
-3.34547e-05
-1.16849e-07
-3.34227e-05
-5.38338e-08
-3.3416e-05
-1.16078e-08
-1.04124e-07
3.29598e-05
-1.7558e-08
3.29366e-05
3.75789e-08
3.29126e-05
3.90276e-08
3.2892e-05
3.31515e-08
3.28759e-05
2.6289e-08
3.28633e-05
1.90725e-08
3.28546e-05
1.50571e-08
3.28482e-05
9.85333e-09
3.28456e-05
3.97451e-09
3.28482e-05
-4.7929e-09
3.28551e-05
-1.15688e-08
3.28633e-05
-1.38037e-08
3.28717e-05
-1.42977e-08
3.28895e-05
-2.86041e-08
3.2926e-05
-6.16896e-08
3.29882e-05
-1.04607e-07
3.30574e-05
-1.15784e-07
3.31046e-05
-7.61851e-08
3.31127e-05
-9.66376e-09
3.31204e-05
-9.24856e-09
3.32183e-05
-1.66445e-07
3.34801e-05
-4.45192e-07
3.39341e-05
-7.72255e-07
3.4465e-05
-8.97366e-07
3.48529e-05
-6.4113e-07
3.49931e-05
-2.15214e-07
3.48174e-05
3.24446e-07
3.44289e-05
6.85663e-07
3.43983e-05
4.36772e-08
3.52963e-05
-1.56642e-06
3.74255e-05
-3.68142e-06
4.14658e-05
-6.9866e-06
4.85134e-05
-1.22437e-05
5.3638e-05
-8.68377e-06
4.33745e-05
1.84629e-05
1.2395e-05
5.29745e-05
-1.56085e-05
4.65354e-05
-6.1475e-06
-1.76331e-05
1.82717e-06
-1.66688e-05
-3.51094e-05
6.43289e-05
-5.09569e-05
3.27549e-05
-0.000102044
8.09118e-05
-8.57465e-06
-0.000161939
5.41205e-05
7.28768e-05
-2.93407e-07
0.000118646
1.25011e-05
-3.59818e-05
2.31553e-05
-2.85134e-05
-2.63797e-05
0.000100597
-7.60119e-05
0.000105648
-9.01392e-05
3.29788e-05
-8.11877e-05
-1.86527e-05
-7.01036e-05
-2.42084e-05
-6.36777e-05
-1.39221e-05
-6.02534e-05
-7.39983e-06
-5.87824e-05
-3.22246e-06
-5.87387e-05
-1.08783e-07
-5.92173e-05
1.08957e-06
-5.93581e-05
3.90662e-07
-5.90111e-05
-6.44069e-07
-5.82927e-05
-1.44485e-06
-5.73768e-05
-1.89778e-06
-5.66031e-05
-1.61905e-06
-5.61424e-05
-9.66546e-07
-5.59417e-05
-4.15609e-07
-5.58838e-05
-1.07543e-07
-5.58259e-05
-1.04331e-07
-5.57126e-05
-2.22251e-07
-5.5574e-05
-2.80165e-07
-5.54624e-05
-2.28793e-07
-5.54094e-05
-1.0688e-07
-5.54033e-05
-1.79657e-08
-2.06421e-07
5.46354e-05
-3.37637e-08
5.45964e-05
7.63212e-08
5.45563e-05
7.8849e-08
5.45198e-05
6.93158e-08
5.44917e-05
5.41487e-08
5.44704e-05
3.98703e-08
5.44545e-05
3.10599e-08
5.44435e-05
2.06213e-08
5.4438e-05
9.33008e-09
5.44408e-05
-7.74569e-09
5.44509e-05
-2.18016e-08
5.44646e-05
-2.77725e-08
5.44791e-05
-2.88331e-08
5.45045e-05
-5.41541e-08
5.4564e-05
-1.2133e-07
5.46623e-05
-2.02969e-07
5.47745e-05
-2.28048e-07
5.48541e-05
-1.55882e-07
5.48744e-05
-3.00793e-08
5.4891e-05
-2.58796e-08
5.50428e-05
-3.18378e-07
5.54446e-05
-8.46959e-07
5.61468e-05
-1.4747e-06
5.69808e-05
-1.73139e-06
5.76146e-05
-1.27491e-06
5.78788e-05
-4.79511e-07
5.76603e-05
5.42854e-07
5.71031e-05
1.24292e-06
5.70398e-05
1.06801e-07
5.83413e-05
-2.86795e-06
6.15042e-05
-6.84436e-06
6.74948e-05
-1.29773e-05
7.7854e-05
-2.26029e-05
8.59167e-05
-1.67465e-05
7.18514e-05
3.25281e-05
2.46019e-05
0.000100223
-2.08132e-05
9.1951e-05
-1.00508e-05
-2.83955e-05
-2.37479e-06
-2.43449e-05
-5.58522e-05
0.000117806
-7.21981e-05
4.91008e-05
-0.000182817
0.000103523
-1.04735e-05
-0.000254988
7.86175e-05
9.77821e-05
7.78619e-06
0.000189477
1.85043e-05
-4.66999e-05
2.59421e-05
-3.59512e-05
-4.66938e-05
0.000173233
-0.000114348
0.000173302
-0.000131219
4.98499e-05
-0.000118653
-3.12183e-05
-0.00010408
-3.87816e-05
-9.55379e-05
-2.24644e-05
-9.09769e-05
-1.19608e-05
-8.90483e-05
-5.15115e-06
-8.90015e-05
-1.55648e-07
-8.95935e-05
1.68156e-06
-8.96934e-05
4.90454e-07
-8.91269e-05
-1.21066e-06
-8.80618e-05
-2.50999e-06
-8.67572e-05
-3.20248e-06
-8.56747e-05
-2.70157e-06
-8.50301e-05
-1.61137e-06
-8.47441e-05
-7.01587e-07
-8.465e-05
-2.01731e-07
-8.45521e-05
-2.02324e-07
-8.43793e-05
-3.95161e-07
-8.41755e-05
-4.84125e-07
-8.40134e-05
-3.91139e-07
-8.39382e-05
-1.82288e-07
-8.39289e-05
-2.74875e-08
-3.55047e-07
8.27545e-05
-5.43215e-08
8.26956e-05
1.34864e-07
8.26313e-05
1.42837e-07
8.25761e-05
1.24292e-07
8.25304e-05
9.96073e-08
8.24963e-05
7.3562e-08
8.24691e-05
5.82373e-08
8.24483e-05
4.12108e-08
8.24383e-05
1.92069e-08
8.24407e-05
-1.02594e-08
8.24529e-05
-3.41381e-08
8.247e-05
-4.51022e-08
8.24902e-05
-4.91257e-08
8.25299e-05
-9.39984e-08
8.26126e-05
-2.04111e-07
8.27524e-05
-3.42919e-07
8.29153e-05
-3.91003e-07
8.30366e-05
-2.77283e-07
8.30769e-05
-7.04636e-08
8.3108e-05
-5.70465e-08
8.33204e-05
-5.30854e-07
8.38775e-05
-1.40402e-06
8.48552e-05
-2.45256e-06
8.60396e-05
-2.91585e-06
8.6979e-05
-2.21438e-06
8.74209e-05
-9.21439e-07
8.72021e-05
7.61582e-07
8.6489e-05
1.95594e-06
8.63783e-05
2.17455e-07
8.80688e-05
-4.55845e-06
9.22728e-05
-1.10484e-05
0.00010024
-2.09442e-05
0.00011388
-3.6243e-05
0.000125267
-2.81342e-05
0.000108247
4.95483e-05
4.35282e-05
0.000164942
-2.33792e-05
0.000158859
-1.53685e-05
-3.64061e-05
-1.07384e-05
-2.8975e-05
-7.93741e-05
0.000186442
-9.19495e-05
6.16763e-05
-0.00028524
0.000123925
-1.226e-05
-0.000366653
0.000105408
0.000116299
2.13483e-05
0.000273537
2.62999e-05
-5.16515e-05
2.35397e-05
-3.3191e-05
-7.63521e-05
0.000273125
-0.000161612
0.000258562
-0.00017985
6.80877e-05
-0.000163574
-4.74942e-05
-0.000145821
-5.65345e-05
-0.0001353
-3.29847e-05
-0.000129671
-1.75902e-05
-0.000127334
-7.48834e-06
-0.000127277
-2.12361e-07
-0.000127932
2.33656e-06
-0.000127922
4.79886e-07
-0.000127065
-2.06733e-06
-0.000125595
-3.98021e-06
-0.000123866
-4.93169e-06
-0.000122451
-4.11637e-06
-0.000121611
-2.45185e-06
-0.00012123
-1.08254e-06
-0.000121088
-3.43993e-07
-0.000120936
-3.54404e-07
-0.00012069
-6.41145e-07
-0.000120411
-7.63939e-07
-0.000120189
-6.1278e-07
-0.000120084
-2.87435e-07
-0.000120074
-3.76706e-08
0.000118391
-7.7096e-08
0.000118307
2.18478e-07
0.000118214
2.36228e-07
0.000118132
2.05584e-07
0.000118062
1.6969e-07
0.000118005
1.29136e-07
0.000117961
1.02301e-07
0.00011793
7.27704e-08
0.00011791
3.85625e-08
0.000117908
-8.11664e-09
0.00011792
-4.61457e-08
0.000117941
-6.70069e-08
0.000117968
-7.58939e-08
0.000118016
-1.42186e-07
0.000118126
-3.13961e-07
0.000118312
-5.29398e-07
0.000118532
-6.11123e-07
0.000118704
-4.49284e-07
0.000118773
-1.39916e-07
0.000118825
-1.0917e-07
0.000119103
-8.08163e-07
0.000119821
-2.12243e-06
0.000121092
-3.72344e-06
0.000122656
-4.48039e-06
0.000123952
-3.51056e-06
0.000124634
-1.60304e-06
0.000124475
9.20789e-07
0.000123646
2.78446e-06
0.000123485
3.7837e-07
0.000125509
-6.58268e-06
0.000130684
-1.62237e-05
0.000140499
-3.07586e-05
0.000157138
-5.28826e-05
0.000171986
-4.29823e-05
0.000153297
6.82375e-05
7.1254e-05
0.000246985
-2.12326e-05
0.000251346
-2.24501e-05
-3.51887e-05
-2.39138e-05
-2.75112e-05
-0.000104681
0.000267209
-0.000109709
6.67047e-05
-0.000407209
0.00014321
-1.40371e-05
-0.000495826
0.000133279
0.00012623
4.05304e-05
0.000366286
3.58765e-05
-4.69975e-05
1.31657e-05
-1.04802e-05
-0.000117612
0.000403903
-0.000218139
0.000359089
-0.000236228
8.61765e-05
-0.000216473
-6.72496e-05
-0.000196043
-7.69645e-05
-0.000183809
-4.52183e-05
-0.000177262
-2.41375e-05
-0.000174585
-1.01654e-05
-0.000174503
-2.9385e-07
-0.000175143
2.9759e-06
-0.000174943
2.79742e-07
-0.000173732
-3.27804e-06
-0.000171814
-5.89833e-06
-0.000169636
-7.10944e-06
-0.00016789
-5.86249e-06
-0.000166854
-3.48768e-06
-0.000166372
-1.56498e-06
-0.000166169
-5.46848e-07
-0.000165947
-5.76909e-07
-0.000165616
-9.72342e-07
-0.00016525
-1.13011e-06
-0.000164967
-8.96197e-07
-0.000164825
-4.28986e-07
-8.74716e-08
0.000162522
-1.01491e-07
0.000162406
3.34704e-07
0.000162276
3.662e-07
0.000162156
3.25362e-07
0.000162056
2.6905e-07
0.000161973
2.11358e-07
0.000161907
1.68795e-07
0.000161853
1.25852e-07
0.000161818
7.33867e-08
0.000161807
3.56525e-09
0.000161816
-5.59004e-08
0.000161838
-8.91492e-08
0.000161866
-1.04313e-07
0.000161928
-2.03581e-07
0.000162062
-4.48638e-07
0.000162293
-7.60032e-07
0.000162576
-8.94428e-07
0.000162806
-6.79384e-07
0.000162916
-2.49764e-07
0.000162996
-1.89519e-07
0.000163339
-1.15145e-06
0.000164214
-2.99694e-06
0.000165772
-5.2814e-06
0.000167735
-6.4438e-06
0.000169425
-5.20037e-06
0.000170403
-2.58108e-06
0.000170374
9.49653e-07
0.000169499
3.65892e-06
0.000169295
5.82654e-07
0.00017158
-8.86768e-06
0.000177578
-2.22217e-05
0.000188989
-4.217e-05
0.000208157
-7.20501e-05
0.000226293
-6.11184e-05
0.000207417
8.71133e-05
0.000109947
0.000344454
-1.18572e-05
0.00037315
-3.12758e-05
-1.57701e-05
-4.15954e-05
-1.71916e-05
-0.000130739
0.000356353
-0.00012696
6.2925e-05
-0.000548206
0.000161947
-1.58474e-05
-0.000641926
0.000161073
0.000127104
6.42043e-05
0.000463154
4.57548e-05
-2.85481e-05
-8.55674e-06
4.38313e-05
-0.000172102
0.000567448
-0.000283878
0.000470865
-0.000300646
0.000102945
-0.000277892
-9.00043e-05
-0.000255353
-9.95028e-05
-0.00024176
-5.88119e-05
-0.000234488
-3.14098e-05
-0.000231535
-1.31182e-05
-0.00023139
-4.39172e-07
-0.000231934
3.5199e-06
-0.000231457
-1.96949e-07
-0.000229834
-4.90082e-06
-0.000227447
-8.28523e-06
-0.000224835
-9.72212e-06
-0.00022277
-7.92721e-06
-0.00022154
-4.71773e-06
-0.000220957
-2.14896e-06
-0.000220679
-8.24488e-07
-0.000220376
-8.80305e-07
-0.000219947
-1.4008e-06
-0.000219493
-1.58417e-06
-0.000219137
-1.2532e-06
-0.000218946
-6.19862e-07
-1.77155e-07
0.000215944
-1.19309e-07
0.000215789
4.88996e-07
0.000215614
5.40757e-07
0.000215449
4.90553e-07
0.000215308
4.09842e-07
0.000215191
3.27879e-07
0.000215092
2.67096e-07
0.000215014
2.03945e-07
0.000214959
1.2779e-07
0.000214932
3.08642e-08
0.000214936
-5.96189e-08
0.000214954
-1.07816e-07
0.000214985
-1.35252e-07
0.000215051
-2.7023e-07
0.000215208
-6.05648e-07
0.000215487
-1.03956e-06
0.000215831
-1.23784e-06
0.000216127
-9.75223e-07
0.000216283
-4.05989e-07
0.000216401
-3.07455e-07
0.000216805
-1.5563e-06
0.00021783
-4.02168e-06
0.000219658
-7.10969e-06
0.000222003
-8.78881e-06
0.000224103
-7.30047e-06
0.00022543
-3.90786e-06
0.000225612
7.67782e-07
0.000224764
4.50593e-06
0.00022455
7.97269e-07
0.000227028
-1.13463e-05
0.000233659
-2.88528e-05
0.000246328
-5.48388e-05
0.000267479
-9.32008e-05
0.000288481
-8.2121e-05
0.000270704
0.000104891
0.000161469
0.000453688
7.91141e-06
0.000526708
-4.06154e-05
3.27567e-05
-6.30883e-05
5.28127e-06
-0.000156271
0.000449536
-0.000143659
5.03122e-05
-0.000707712
0.000180301
-1.78167e-05
-0.00080441
0.000188054
0.000119351
9.10723e-05
0.000560135
5.3314e-05
9.2102e-06
-4.45117e-05
0.000141657
-0.000240238
0.000763174
-0.000358595
0.000589222
-0.000373585
0.000117935
-0.000348451
-0.000115138
-0.000324341
-0.000123613
-0.000309746
-7.34076e-05
-0.000301927
-3.92286e-05
-0.000298759
-1.62856e-05
-0.000298494
-7.04296e-07
-0.000298848
3.87353e-06
-0.000298028
-1.01731e-06
-0.000295958
-6.97024e-06
-0.000293098
-1.1146e-05
-0.000290071
-1.27484e-05
-0.000287708
-1.02911e-05
-0.000286307
-6.11864e-06
-0.000285612
-2.84376e-06
-0.000285252
-1.1847e-06
-0.000284851
-1.28166e-06
-0.000284319
-1.93229e-06
-0.000283766
-2.13776e-06
-0.000283341
-1.67883e-06
-0.000283087
-8.73875e-07
-3.51183e-07
0.000279293
-1.27655e-07
0.000279098
6.84074e-07
0.000278866
7.71453e-07
0.000278654
7.02465e-07
0.000278463
6.00364e-07
0.000278301
4.89487e-07
0.000278166
4.02134e-07
0.000278054
3.16354e-07
0.000277973
2.08093e-07
0.000277925
7.91357e-08
0.000277915
-4.97826e-08
0.000277926
-1.19062e-07
0.000277957
-1.662e-07
0.00027803
-3.43717e-07
0.000278206
-7.81733e-07
0.000278521
-1.35501e-06
0.000278931
-1.64762e-06
0.000279294
-1.3382e-06
0.000279509
-6.21315e-07
0.000279668
-4.66565e-07
0.000280139
-2.0275e-06
0.000281287
-5.16972e-06
0.000283363
-9.18496e-06
0.000286064
-1.14908e-05
0.000288576
-9.81256e-06
0.000290282
-5.61374e-06
0.000290738
3.12334e-07
0.000290009
5.2345e-06
0.000289836
9.70015e-07
0.000292446
-1.39557e-05
0.000299533
-3.59403e-05
0.00031311
-6.84161e-05
0.000335725
-0.000115815
0.000359018
-0.000105414
0.000342871
0.000121038
0.000226305
0.000570254
4.10175e-05
0.000711996
-4.77095e-05
0.000121484
-8.74099e-05
4.49817e-05
-0.000180621
0.000542747
-0.000159791
2.94814e-05
-0.000885319
0.00019823
-1.9929e-05
-0.000982711
0.000213909
0.000103672
0.000119131
0.000654913
5.57702e-05
7.25713e-05
-9.63749e-05
0.000293802
-0.000322358
0.000989157
-0.000442566
0.00070943
-0.000455785
0.000131155
-0.000428886
-0.000142037
-0.000403649
-0.00014885
-0.000388353
-8.8704e-05
-0.000380141
-4.74409e-05
-0.000376763
-1.96637e-05
-0.000376326
-1.14076e-06
-0.000376413
3.96031e-06
-0.000375186
-2.24402e-06
-0.000372655
-9.50173e-06
-0.000369342
-1.44588e-05
-0.000365927
-1.61634e-05
-0.000363302
-1.29165e-05
-0.000361732
-7.68916e-06
-0.000360924
-3.65207e-06
-0.000360467
-1.64144e-06
-0.000359959
-1.78967e-06
-0.000359318
-2.57387e-06
-0.000358669
-2.78657e-06
-0.000358158
-2.19009e-06
-0.000357831
-1.20059e-06
-6.02282e-07
0.000353146
-1.19268e-07
0.00035291
9.19439e-07
0.000352622
1.05934e-06
0.000352347
9.771e-07
0.000352101
8.45964e-07
0.000351889
7.00876e-07
0.000351707
5.84233e-07
0.000351556
4.67082e-07
0.000351441
3.22316e-07
0.000351371
1.49253e-07
0.00035134
-1.8883e-08
0.000351345
-1.24751e-07
0.000351368
-1.8889e-07
0.000351443
-4.19293e-07
0.000351635
-9.73121e-07
0.000351992
-1.71301e-06
0.000352458
-2.11323e-06
0.00035289
-1.77057e-06
0.000353169
-9.00233e-07
0.000353379
-6.76636e-07
0.000353915
-2.56393e-06
0.000355181
-6.4355e-06
0.000357462
-1.14661e-05
0.000360492
-1.45211e-05
0.000363392
-1.27121e-05
0.000365489
-7.71133e-06
0.000366278
-4.76524e-07
0.000365742
5.77031e-06
0.000365661
1.05098e-06
0.000368396
-1.66904e-05
0.000375788
-4.3332e-05
0.000389977
-8.26053e-05
0.000413617
-0.000139456
0.00043861
-0.000130408
0.000424163
0.000135485
0.000304862
0.000689554
8.93069e-05
0.000927552
-4.99215e-05
0.000260712
-0.000112709
0.000107769
-0.000204147
0.000634185
-0.000175477
8.11799e-07
-0.00108073
0.00021588
-2.21127e-05
-0.00117648
0.000238406
8.11464e-05
0.00014572
0.000747598
4.93118e-05
0.00016898
-0.000165614
0.000508728
-0.000418792
0.00124234
-0.000536416
0.000827054
-0.000548194
0.000142933
-0.000520064
-0.000170167
-0.000494059
-0.000174855
-0.000478283
-0.00010448
-0.000469767
-5.59569e-05
-0.000466183
-2.32475e-05
-0.000465511
-1.81296e-06
-0.000465275
3.72497e-06
-0.000463611
-3.90821e-06
-0.000460615
-1.24981e-05
-0.000456872
-1.82016e-05
-0.000453107
-1.99285e-05
-0.000450239
-1.57844e-05
-0.000448513
-9.41517e-06
-0.000447586
-4.57969e-06
-0.000447022
-2.20552e-06
-0.000446398
-2.41414e-06
-0.000445641
-3.3305e-06
-0.000444886
-3.5413e-06
-0.000444293
-2.78398e-06
-0.000443885
-1.6088e-06
-9.21596e-07
0.000438188
-9.08072e-08
0.000437904
1.20327e-06
0.000437557
1.40552e-06
0.000437217
1.31666e-06
0.000436909
1.15383e-06
0.000436634
9.76166e-07
0.000436403
8.14855e-07
0.000436207
6.62598e-07
0.000436048
4.81153e-07
0.000435945
2.52032e-07
0.000435896
3.02395e-08
0.000435883
-1.1212e-07
0.0004359
-2.05889e-07
0.000435974
-4.93406e-07
0.00043618
-1.17951e-06
0.000436568
-2.10034e-06
0.000437092
-2.63746e-06
0.000437593
-2.27156e-06
0.00043794
-1.24787e-06
0.000438208
-9.44337e-07
0.000438811
-3.16731e-06
0.000440177
-7.8014e-06
0.000442641
-1.39302e-05
0.000445958
-1.78381e-05
0.00044922
-1.59744e-05
0.000451711
-1.02018e-05
0.000452863
-1.62886e-06
0.000452574
6.05923e-06
0.000452648
9.76478e-07
0.000455504
-1.9546e-05
0.00046311
-5.09383e-05
0.000477694
-9.71887e-05
0.000502008
-0.00016377
0.00052818
-0.00015658
0.00051516
0.000148506
0.000397494
0.000807221
0.000154277
0.00117077
-4.42881e-05
0.000459277
-0.000136946
0.000200426
-0.000227905
0.000725145
-0.00019093
-3.6163e-05
-0.00129377
0.000233543
-2.42745e-05
-0.00138575
0.000262192
5.24974e-05
0.000168812
0.000840979
2.82758e-05
0.000309516
-0.000256036
0.00079304
-0.000529254
0.00151555
-0.000641123
0.000938923
-0.000651909
0.000153719
-0.000623013
-0.000199063
-0.000596497
-0.000201371
-0.000580398
-0.000120579
-0.000571629
-6.47261e-05
-0.000567816
-2.70603e-05
-0.000566861
-2.76827e-06
-0.000566271
3.13444e-06
-0.000564168
-6.01113e-06
-0.000560733
-1.59327e-05
-0.000556603
-2.23319e-05
-0.000552517
-2.40144e-05
-0.000549423
-1.88783e-05
-0.000547544
-1.12948e-05
-0.000546499
-5.62513e-06
-0.00054582
-2.8843e-06
-0.000545073
-3.16166e-06
-0.000544194
-4.2093e-06
-0.000543337
-4.39828e-06
-0.000542646
-3.47526e-06
-0.00054216
-2.09504e-06
-1.30065e-06
0.00053531
-3.85765e-08
0.000534974
1.53899e-06
0.000534561
1.81806e-06
0.00053415
1.72743e-06
0.000533768
1.53567e-06
0.000533432
1.31138e-06
0.000533135
1.11186e-06
0.000532882
9.15205e-07
0.00053268
6.82725e-07
0.000532537
3.9545e-07
0.000532457
1.10056e-07
0.000532425
-8.10427e-08
0.000532428
-2.08982e-07
0.000532496
-5.61952e-07
0.00053271
-1.39275e-06
0.000533131
-2.52202e-06
0.000533702
-3.2083e-06
0.000534272
-2.84183e-06
0.00053469
-1.66587e-06
0.000535018
-1.27299e-06
0.000535684
-3.83289e-06
0.000537144
-9.26195e-06
0.000539772
-1.65575e-05
0.000543343
-2.14099e-05
0.000546924
-1.95553e-05
0.000549781
-1.30586e-05
0.000551299
-3.14684e-06
0.000551291
6.0674e-06
0.000551569
6.9771e-07
0.000554572
-2.25483e-05
0.000562345
-5.87121e-05
0.000577173
-0.000112016
0.000601914
-0.000188511
0.00062882
-0.000183487
0.00061679
0.000160535
0.00050414
0.000919871
0.000239182
0.00143573
-2.57532e-05
0.000724213
-0.00015802
0.000332693
-0.000251967
0.000819091
-0.000206409
-8.17214e-05
-0.00152445
0.000251506
-2.63452e-05
-0.00161091
0.000285001
1.90021e-05
0.000185653
0.000940327
-1.09522e-05
0.000506121
-0.000368135
0.00115022
-0.000653928
0.00180135
-0.000758146
0.00104314
-0.000768088
0.000163661
-0.000738841
-0.00022831
-0.000712062
-0.00022815
-0.000695742
-0.000136899
-0.000686734
-7.37346e-05
-0.000682675
-3.11195e-05
-0.000681425
-4.01765e-06
-0.000680484
2.19318e-06
-0.000677966
-8.52892e-06
-0.000674129
-1.97701e-05
-0.000669653
-2.68081e-05
-0.000665274
-2.83932e-05
-0.000661981
-2.21716e-05
-0.000659961
-1.33143e-05
-0.000658786
-6.80065e-06
-0.000657994
-3.67624e-06
-0.00065712
-4.03578e-06
-0.000656127
-5.20259e-06
-0.000655162
-5.36395e-06
-0.000654385
-4.25145e-06
-0.000653826
-2.65428e-06
-1.73273e-06
0.000645655
5.80774e-08
0.000645271
1.9218e-06
0.000644782
2.30757e-06
0.00064429
2.2189e-06
0.000643827
1.99868e-06
0.00064341
1.72767e-06
0.00064304
1.48121e-06
0.000642723
1.23242e-06
0.00064246
9.45264e-07
0.000642268
5.8736e-07
0.000642151
2.27544e-07
0.000642088
-1.892e-08
0.000642069
-1.90164e-07
0.000642127
-6.19966e-07
0.000642341
-1.60603e-06
0.000642777
-2.95885e-06
0.000643393
-3.8241e-06
0.000644018
-3.46727e-06
0.000644505
-2.15289e-06
0.00064489
-1.65769e-06
0.000645627
-4.57005e-06
0.000647167
-1.08019e-05
0.00064993
-1.93205e-05
0.000653728
-2.52078e-05
0.000657586
-2.34139e-05
0.000660776
-1.62484e-05
0.000662639
-5.01007e-06
0.000662911
5.79524e-06
0.00066341
1.98504e-07
0.000666583
-2.57213e-05
0.000674519
-6.66475e-05
0.000689501
-0.000126999
0.000714446
-0.000213456
0.000741682
-0.000210722
0.000730444
0.000171774
0.000624843
0.00102547
0.000345384
0.00171519
9.68334e-06
0.00105991
-0.000173626
0.000516002
-0.000274764
0.000920229
-0.000222225
-0.00013426
-0.00177302
0.0002694
-2.83443e-05
-0.00185196
0.000305469
-1.70672e-05
0.000191797
0.001054
-7.33804e-05
0.000771298
-0.000502749
0.00157959
-0.000792442
0.00209104
-0.00088799
0.00113869
-0.000898042
0.000173713
-0.00086875
-0.000257601
-0.000841934
-0.000254966
-0.000825476
-0.000153358
-0.000816268
-8.29424e-05
-0.000811969
-3.54183e-05
-0.000810437
-5.55032e-06
-0.00080919
9.46138e-07
-0.000806306
-1.14124e-05
-0.000802132
-2.39448e-05
-0.000797354
-3.15857e-05
-0.000792727
-3.30204e-05
-0.000789257
-2.56417e-05
-0.000787099
-1.54728e-05
-0.000785811
-8.08791e-06
-0.000784908
-4.58009e-06
-0.000783926
-5.01751e-06
-0.000782821
-6.30749e-06
-0.000781759
-6.42651e-06
-0.000780907
-5.1036e-06
-0.000780288
-3.27359e-06
-2.20251e-06
0.000770637
2.1276e-07
0.000770186
2.37258e-06
0.000769616
2.87732e-06
0.000769028
2.80646e-06
0.000768474
2.55277e-06
0.000767965
2.23626e-06
0.000767507
1.93823e-06
0.000767105
1.63454e-06
0.000766774
1.27649e-06
0.000766514
8.46918e-07
0.00076634
4.01338e-07
0.000766228
9.27604e-08
0.00076618
-1.42133e-07
0.000766212
-6.52129e-07
0.000766411
-1.80549e-06
0.00076685
-3.39783e-06
0.000767493
-4.46745e-06
0.000768165
-4.13981e-06
0.000768699
-2.68631e-06
0.000769136
-2.09539e-06
0.000769927
-5.36031e-06
0.000771545
-1.24206e-05
0.000774423
-2.21983e-05
0.000778405
-2.91904e-05
0.000782501
-2.751e-05
0.000785966
-1.97127e-05
0.000788132
-7.17645e-06
0.000788648
5.27953e-06
0.000789367
-5.20629e-07
0.000792717
-2.90718e-05
0.000800791
-7.47219e-05
0.000815873
-0.00014208
0.000840827
-0.00023841
0.000868105
-0.000238
0.000856977
0.000182902
0.000759522
0.00112293
0.000473439
0.00200127
6.66341e-05
0.00146672
-0.000179924
0.00076256
-0.000295039
0.00103534
-0.000238252
-0.000191046
-0.00203962
0.000287475
-3.02086e-05
-0.00210923
0.000322551
-5.21436e-05
0.000182563
0.00119399
-0.000165123
0.00111898
-0.000661324
0.00207579
-0.000945542
0.00237526
-0.00103231
0.00122546
-0.00104285
0.000184251
-0.00101399
-0.000286469
-0.000987393
-0.000281559
-0.000970898
-0.000169853
-0.000961538
-9.23023e-05
-0.000957048
-3.99086e-05
-0.000955299
-7.29961e-06
-0.000953806
-5.46877e-07
-0.000950642
-1.45755e-05
-0.000946203
-2.83847e-05
-0.000941193
-3.65949e-05
-0.000936361
-3.78529e-05
-0.000932744
-2.92588e-05
-0.000930487
-1.77295e-05
-0.000929102
-9.47301e-06
-0.000928122
-5.56101e-06
-0.000927049
-6.09043e-06
-0.000925857
-7.49977e-06
-0.000924718
-7.56529e-06
-0.000923803
-6.01857e-06
-0.00092315
-3.92711e-06
-2.69183e-06
0.000911883
4.62432e-07
0.000911353
2.90217e-06
0.000910679
3.55101e-06
0.000909988
3.49746e-06
0.000909316
3.22393e-06
0.00090869
2.86214e-06
0.000908124
2.50361e-06
0.000907623
2.13583e-06
0.000907189
1.71072e-06
0.000906844
1.19187e-06
0.00090659
6.54887e-07
0.000906417
2.65078e-07
0.000906308
-3.24332e-08
0.000906292
-6.36388e-07
0.000906453
-1.96652e-06
0.00090688
-3.82512e-06
0.000907528
-5.11549e-06
0.000908221
-4.83308e-06
0.000908784
-3.2495e-06
0.00090924
-2.55158e-06
0.000910072
-6.19234e-06
0.000911734
-1.40826e-05
0.000914703
-2.51673e-05
0.000918836
-3.33231e-05
0.000923109
-3.17838e-05
0.000926789
-2.33919e-05
0.000929184
-9.57185e-06
0.000929896
4.56737e-06
0.000930788
-1.41227e-06
0.000934291
-3.25747e-05
0.000942484
-8.29159e-05
0.000957603
-0.000157199
0.00098235
-0.000263157
0.00100929
-0.000264937
0.000997698
0.000194491
0.000908777
0.00121185
0.000624856
0.00228519
0.000150366
0.00194121
-0.000172589
0.00108551
-0.000311697
0.00117445
-0.000254514
-0.000248229
-0.00232434
0.000305377
-3.19465e-05
-0.00238266
0.000334985
-8.17512e-05
0.00015314
0.00137583
-0.00028984
0.00156196
-0.000840999
0.00262695
-0.00111176
0.00264601
-0.00119238
0.00130608
-0.00120371
0.000195583
-0.00117576
-0.000314413
-0.00114973
-0.000307595
-0.00113335
-0.000186231
-0.00112394
-0.000101711
-0.00111936
-4.44938e-05
-0.00111749
-9.16749e-06
-0.00111587
-2.17084e-06
-0.00111252
-1.79208e-05
-0.00110792
-3.29854e-05
-0.00110276
-4.17522e-05
-0.00109779
-4.28269e-05
-0.00109408
-3.29621e-05
-0.00109176
-2.00498e-05
-0.00109034
-1.08998e-05
-0.00108932
-6.57716e-06
-0.00108819
-7.2182e-06
-0.00108696
-8.73505e-06
-0.00108579
-8.7358e-06
-0.00108485
-6.95735e-06
-0.00108419
-4.5908e-06
-3.16773e-06
0.00107123
8.51146e-07
0.00107059
3.54704e-06
0.0010698
4.34209e-06
0.00106896
4.33108e-06
0.00106815
4.03198e-06
0.00106739
3.62442e-06
0.00106669
3.20718e-06
0.00106605
2.7776e-06
0.00106549
2.2705e-06
0.00106502
1.65839e-06
0.00106466
1.0153e-06
0.00106438
5.38532e-07
0.00106418
1.67712e-07
0.00106408
-5.3577e-07
0.00106418
-2.06537e-06
0.00106456
-4.20381e-06
0.00106517
-5.72602e-06
0.00106584
-5.50546e-06
0.0010664
-3.80889e-06
0.00106684
-2.99087e-06
0.00106767
-7.01826e-06
0.00106935
-1.57632e-05
0.00107236
-2.81801e-05
0.00107659
-3.75573e-05
0.00108098
-3.61699e-05
0.00108479
-2.72022e-05
0.00108734
-1.21183e-05
0.00108815
3.75199e-06
0.00108915
-2.407e-06
0.00109274
-3.61668e-05
0.00110099
-9.11679e-05
0.00111605
-0.000172254
0.00114031
-0.000287425
0.00116648
-0.000291103
0.00115418
0.000206794
0.00107185
0.00129417
0.000798657
0.00255838
0.000266472
0.00247339
-0.000146376
0.00149836
-0.000323822
0.0013519
-0.000270333
-0.000301717
-0.00262662
0.000322773
-3.35456e-05
-0.00267189
0.000340182
-9.91602e-05
0.000100289
0.00161572
-0.000446879
0.00210913
-0.00103862
0.00321869
-0.00129198
0.00289938
-0.00136918
0.00138328
-0.00138171
0.000208112
-0.00135538
-0.000340737
-0.00133025
-0.000332725
-0.00131422
-0.000202262
-0.00130491
-0.000111029
-0.00130037
-4.90307e-05
-0.00129852
-1.10139e-05
-0.0012969
-3.79725e-06
-0.00129351
-2.1308e-05
-0.00128888
-3.76143e-05
-0.00128368
-4.69472e-05
-0.00127868
-4.78358e-05
-0.00127496
-3.66733e-05
-0.00127267
-2.2343e-05
-0.00127127
-1.23024e-05
-0.00127029
-7.55833e-06
-0.00126919
-8.31527e-06
-0.00126798
-9.95005e-06
-0.00126682
-9.89196e-06
-0.00126592
-7.85656e-06
-0.00126531
-5.20554e-06
-3.59491e-06
0.0012507
1.44624e-06
0.0012499
4.34721e-06
0.00124894
5.30058e-06
0.00124795
5.32551e-06
0.00124696
5.02176e-06
0.00124601
4.57114e-06
0.00124513
4.0895e-06
0.00124431
3.58976e-06
0.00124358
3.00352e-06
0.00124295
2.28532e-06
0.00124243
1.53608e-06
0.00124201
9.58992e-07
0.00124167