/*--------------------------------*- C++ -*----------------------------------*\
| =========                 |                                                 |
| \\      /  F ield         | OpenFOAM: The Open Source CFD Toolbox           |
|  \\    /   O peration     | Version:  2412                                  |
|   \\  /    A nd           | Website:  www.openfoam.com                      |
|    \\/     M anipulation  |                                                 |
\*---------------------------------------------------------------------------*/
FoamFile
{
    version     2.0;
    format      ascii;
    arch        "LSB;label=32;scalar=64";
    class       volVectorField;
    location    "40";
    object      U;
}
// * * * * * * * * * * * * * * * * * * * * * * * * * * * * * * * * * * * * * //

dimensions      [0 1 -1 0 0 0 0];

internalField   nonuniform List<vector> 
8637
(
(2.35515 -0.14701 -2.76538e-26)
(2.35485 -0.149122 -5.67708e-20)
(2.35454 -0.151275 -3.39178e-27)
(2.35432 -0.153476 -2.7253e-20)
(2.35403 -0.155716 0)
(2.35377 -0.158004 3.3583e-27)
(2.35349 -0.160337 -5.14244e-20)
(2.35325 -0.16272 -2.40641e-26)
(2.35295 -0.165147 6.42926e-27)
(2.35266 -0.167628 -4.86932e-20)
(2.35241 -0.170167 -4.78553e-20)
(2.35219 -0.172766 1.63107e-26)
(2.35196 -0.175421 -2.20775e-26)
(2.35165 -0.17813 1.55244e-26)
(2.35137 -0.18091 -2.58808e-29)
(2.35112 -0.183761 -4.41457e-20)
(2.35086 -0.186681 -2.07238e-26)
(2.35053 -0.189672 2.04558e-26)
(2.35028 -0.19275 -4.22671e-20)
(2.34995 -0.195907 4.16919e-20)
(2.34971 -0.199159 1.96356e-26)
(2.34936 -0.202497 8.12231e-20)
(2.34905 -0.205935 -8.02078e-20)
(2.34864 -0.209471 1.89123e-26)
(2.34834 -0.213128 1.86428e-26)
(2.34793 -0.216891 -1.84772e-26)
(2.34761 -0.220785 -1.5305e-19)
(2.34715 -0.224793 7.5686e-20)
(2.34675 -0.228944 7.48731e-20)
(2.34624 -0.233228 -1.76955e-26)
(2.34579 -0.237666 1.74399e-26)
(2.34522 -0.242248 -7.25559e-20)
(2.34474 -0.247005 0)
(2.34412 -0.251921 7.10828e-20)
(2.34354 -0.257023 -3.21427e-26)
(2.34285 -0.262303 -6.96235e-20)
(2.34214 -0.267776 1.64843e-26)
(2.34134 -0.273443 1.61832e-26)
(2.34056 -0.279333 -1.77399e-26)
(2.33964 -0.285429 0)
(2.33876 -0.291761 0)
(2.33769 -0.298316 0)
(2.33663 -0.305124 0)
(2.33541 -0.312173 6.30911e-20)
(2.3342 -0.319499 -1.2417e-19)
(2.33282 -0.327084 2.93684e-26)
(2.33138 -0.334956 0)
(2.3298 -0.343112 -1.17203e-19)
(2.32814 -0.351573 -1.14495e-19)
(2.32626 -0.360327 -1.11556e-19)
(2.32434 -0.369416 -2.16711e-19)
(2.3222 -0.378823 1.04862e-19)
(2.31997 -0.388583 4.81339e-26)
(2.31751 -0.398683 -4.61354e-26)
(2.31488 -0.409148 -2.30695e-26)
(2.312 -0.419976 -1.41067e-27)
(2.30897 -0.431202 8.17237e-20)
(2.3056 -0.442809 1.71668e-26)
(2.30201 -0.454834 4.28943e-26)
(2.29805 -0.467265 -6.16553e-20)
(2.29384 -0.480145 0)
(2.28917 -0.493456 9.44121e-27)
(2.28418 -0.507248 -3.49404e-20)
(2.2787 -0.521509 -2.41765e-20)
(2.27285 -0.5363 -1.23006e-20)
(2.26643 -0.551594 7.79585e-22)
(2.25953 -0.567462 1.5224e-20)
(2.25193 -0.583888 9.54563e-26)
(2.24383 -0.600956 -4.88632e-20)
(2.23488 -0.618642 -6.57161e-26)
(2.22523 -0.63703 3.81584e-26)
(2.21467 -0.656148 -1.14495e-19)
(2.20312 -0.676035 -2.83216e-19)
(2.19051 -0.69677 -1.71992e-19)
(2.17665 -0.718408 -1.97476e-25)
(2.16141 -0.741001 1.08644e-25)
(2.14464 -0.764694 2.16871e-25)
(2.12602 -0.78951 1.72305e-25)
(2.10528 -0.815585 -1.76388e-25)
(2.08208 -0.843041 9.13955e-19)
(2.05598 -0.871972 2.68084e-25)
(2.02638 -0.902549 -6.10455e-19)
(1.99259 -0.934892 0)
(1.95368 -0.969137 6.12807e-26)
(1.90826 -1.0053 -4.87742e-26)
(1.85503 -1.04355 5.34314e-19)
(1.79235 -1.08413 -6.1408e-19)
(1.71511 -1.12529 7.06166e-19)
(7.04423 -0.439707 4.56749e-26)
(7.04332 -0.446023 4.68867e-20)
(7.04236 -0.452458 -4.59373e-20)
(7.0416 -0.459036 1.23621e-25)
(7.04064 -0.465731 -4.20949e-26)
(7.03979 -0.472569 4.33001e-20)
(7.03895 -0.479545 4.05219e-26)
(7.03815 -0.486666 0)
(7.03724 -0.493926 8.19177e-20)
(7.03637 -0.501345 8.04804e-20)
(7.03556 -0.508935 3.77031e-26)
(7.0348 -0.516698 -1.55546e-19)
(7.03402 -0.524631 -3.64944e-26)
(7.03309 -0.532736 -7.52798e-20)
(7.0322 -0.541044 0)
(7.03135 -0.549561 1.45972e-19)
(7.03049 -0.558289 0)
(7.02949 -0.567232 -7.08775e-20)
(7.02868 -0.576434 -6.98883e-20)
(7.02758 -0.585865 0)
(7.02677 -0.595585 -6.80288e-20)
(7.02564 -0.605557 -1.34312e-19)
(7.02467 -0.615838 1.32636e-19)
(7.0234 -0.626406 -3.12749e-26)
(7.02239 -0.63733 0)
(7.02107 -0.648575 -1.2799e-19)
(7.01998 -0.660206 1.41067e-25)
(7.01854 -0.672184 -1.25164e-19)
(7.01726 -0.68459 0)
(7.01566 -0.697393 0)
(7.01422 -0.710654 0)
(7.01244 -0.724347 -5.70738e-26)
(7.01084 -0.738553 -1.18756e-19)
(7.00885 -0.753238 0)
(7.00703 -0.768484 -1.16335e-19)
(7.00482 -0.784254 1.15122e-19)
(7.00267 -0.800612 -5.4512e-26)
(7.00015 -0.817544 1.84268e-25)
(6.99766 -0.835135 -2.22791e-19)
(6.9948 -0.853346 -1.10089e-19)
(6.992 -0.872257 -1.08736e-19)
(6.98868 -0.891837 5.14929e-26)
(6.98539 -0.912176 -1.05831e-19)
(6.98162 -0.933233 -1.04257e-19)
(6.97786 -0.95511 0)
(6.97354 -0.977762 4.75521e-26)
(6.96909 -1.00127 -4.76442e-26)
(6.96416 -1.02562 1.93545e-19)
(6.95905 -1.05089 0)
(6.95328 -1.07703 3.68263e-19)
(6.94733 -1.10417 1.78795e-19)
(6.94073 -1.13225 -3.45938e-19)
(6.93384 -1.16138 -3.87752e-26)
(6.92624 -1.19153 3.90037e-26)
(6.91822 -1.22278 -1.51978e-19)
(6.90941 -1.2551 -6.83708e-26)
(6.90011 -1.28861 -1.34389e-19)
(6.88986 -1.32325 -1.24276e-19)
(6.87891 -1.35914 1.13163e-19)
(6.8668 -1.39623 -1.00935e-19)
(6.85397 -1.43467 0)
(6.83978 -1.47439 7.26999e-20)
(6.82466 -1.51555 -8.47145e-27)
(6.80802 -1.5581 -2.27605e-26)
(6.79029 -1.60223 1.86907e-20)
(6.77084 -1.64786 0)
(6.74998 -1.69521 -2.71675e-20)
(6.72705 -1.74421 -5.37873e-20)
(6.70255 -1.79511 8.32116e-20)
(6.67558 -1.84788 0)
(6.64649 -1.90273 0)
(6.61466 -1.95975 3.85157e-19)
(6.5799 -2.01907 2.3777e-19)
(6.54196 -2.0809 2.88421e-19)
(6.5003 -2.14544 -3.45493e-19)
(6.45448 -2.2128 0)
(6.40398 -2.2834 -4.82423e-19)
(6.34801 -2.35737 0)
(6.28572 -2.43508 6.57751e-19)
(6.21605 -2.51689 4.36275e-24)
(6.13764 -2.60306 -4.47502e-25)
(6.0488 -2.69412 1.01875e-18)
(5.94746 -2.79044 1.18588e-24)
(5.83077 -2.89237 -1.34899e-18)
(5.6946 -2.99996 0)
(5.53514 -3.11377 -8.90182e-19)
(5.34733 -3.23437 1.02268e-18)
(5.11592 -3.35651 -2.37078e-24)
(11.7167 -0.731364 0)
(11.7151 -0.741868 0)
(11.7134 -0.752565 0)
(11.712 -0.763494 5.08154e-20)
(11.7103 -0.774623 4.9825e-20)
(11.7088 -0.78599 4.88732e-20)
(11.7073 -0.797585 -9.59161e-20)
(11.7058 -0.809419 -9.41569e-20)
(11.7042 -0.82149 -9.24684e-20)
(11.7027 -0.833823 -9.08485e-20)
(11.7012 -0.846437 -4.25914e-26)
(11.6998 -0.859336 2.35038e-25)
(11.6983 -0.872516 -8.23179e-26)
(11.6967 -0.885991 8.49838e-20)
(11.6951 -0.899801 8.36645e-20)
(11.6935 -0.913954 -8.23974e-20)
(11.692 -0.928456 8.11827e-20)
(11.6902 -0.943319 8.00188e-20)
(11.6887 -0.958612 7.89033e-20)
(11.6868 -0.974285 7.42906e-26)
(11.6852 -0.990434 7.68057e-20)
(11.6832 -1.007 0)
(11.6814 -1.02409 0)
(11.6792 -1.04165 7.04555e-26)
(11.6773 -1.0598 -1.77619e-28)
(11.675 -1.07848 2.89015e-19)
(11.6729 -1.0978 1.42883e-19)
(11.6703 -1.1177 0)
(11.6681 -1.13831 0)
(11.6652 -1.15958 -6.58235e-26)
(11.6626 -1.18161 6.54037e-26)
(11.6594 -1.20436 6.44394e-26)
(11.6565 -1.22795 2.68165e-19)
(11.653 -1.25235 0)
(11.6498 -1.27767 -6.24246e-26)
(11.6459 -1.30386 6.21842e-26)
(11.642 -1.33103 -1.28595e-19)
(11.6376 -1.35915 1.27199e-19)
(11.6332 -1.38837 1.25767e-19)
(11.6282 -1.41861 1.2429e-19)
(11.6233 -1.45001 1.22761e-19)
(11.6175 -1.48252 -1.21162e-19)
(11.6117 -1.5163 1.19478e-19)
(11.6051 -1.55126 5.65562e-26)
(11.5985 -1.58758 2.31608e-19)
(11.5911 -1.62518 -1.08456e-25)
(11.5833 -1.66421 5.37848e-26)
(11.5748 -1.70463 -2.18484e-19)
(11.5659 -1.74657 0)
(11.556 -1.78997 -2.07851e-19)
(11.5457 -1.83501 9.44447e-26)
(11.5344 -1.88162 1.95242e-19)
(11.5225 -1.92995 0)
(11.5094 -1.97998 0)
(11.4956 -2.03182 1.71533e-19)
(11.4805 -2.08545 -7.45167e-26)
(11.4646 -2.14104 1.44402e-25)
(11.4471 -2.19851 2.80511e-19)
(11.4285 -2.25805 0)
(11.4079 -2.31958 1.13908e-19)
(11.3861 -2.38333 9.87323e-20)
(11.3621 -2.44922 -1.64071e-19)
(11.3365 -2.51749 6.36527e-20)
(11.3084 -2.58806 -4.34117e-20)
(11.2784 -2.66125 0)
(11.2456 -2.7369 3.50694e-21)
(11.2105 -2.81542 0)
(11.1719 -2.89669 0)
(11.1307 -2.98109 9.38799e-20)
(11.0855 -3.06858 0)
(11.0366 -3.15952 0)
(10.9833 -3.25405 -4.34445e-19)
(10.9251 -3.35239 -2.68188e-19)
(10.8615 -3.45489 3.25298e-19)
(10.7919 -3.56187 7.79271e-19)
(10.7153 -3.67352 6.42017e-26)
(10.6309 -3.79051 -4.84912e-25)
(10.5373 -3.91308 6.36672e-19)
(10.4334 -4.04185 -7.41601e-19)
(10.3171 -4.17736 -8.60592e-19)
(10.1863 -4.32011 0)
(10.0382 -4.47094 0)
(9.86928 -4.63044 0)
(9.67489 -4.7992 -1.52049e-18)
(9.44814 -4.97728 0)
(9.18283 -5.16567 0)
(8.87035 -5.36516 0)
(8.48524 -5.56691 -1.32473e-18)
(16.0362 -1.001 0)
(16.034 -1.01536 0)
(16.0315 -1.02999 0)
(16.0293 -1.04494 0)
(16.0268 -1.06016 -1.12246e-19)
(16.0246 -1.0757 -1.10106e-19)
(16.0223 -1.09156 1.08049e-19)
(16.0201 -1.10774 3.88323e-25)
(16.0178 -1.12425 1.04173e-19)
(16.0156 -1.14112 0)
(16.0133 -1.15836 0)
(16.0111 -1.176 1.97834e-19)
(16.0089 -1.19402 -9.27487e-26)
(16.0065 -1.21245 -4.62389e-25)
(16.0042 -1.23133 -9.42707e-20)
(16.0018 -1.25068 8.8599e-26)
(15.9994 -1.27051 -9.14784e-20)
(15.9967 -1.29083 -8.59242e-26)
(15.9945 -1.31174 8.48605e-26)
(15.9916 -1.33317 0)
(15.9892 -1.35524 0)
(15.9862 -1.37789 1.70884e-19)
(15.9835 -1.40124 0)
(15.9802 -1.42525 -1.66713e-19)
(15.9775 -1.45006 0)
(15.9739 -1.4756 -1.62854e-19)
(15.9708 -1.502 -1.61024e-19)
(15.967 -1.5292 1.51874e-25)
(15.9636 -1.55738 -7.52549e-26)
(15.9594 -1.58644 7.41823e-26)
(15.9554 -1.61655 -7.37095e-26)
(15.9508 -1.64764 0)
(15.9465 -1.67988 -1.33504e-24)
(15.9414 -1.71321 -7.11065e-26)
(15.9365 -1.74781 7.07964e-26)
(15.9308 -1.7836 0)
(15.9251 -1.82071 1.44925e-19)
(15.9186 -1.85913 0)
(15.9123 -1.89905 0)
(15.905 -1.94036 0)
(15.8977 -1.98325 1.38344e-19)
(15.8894 -2.02767 2.73082e-19)
(15.881 -2.0738 -1.34641e-19)
(15.8715 -2.12155 0)
(15.862 -2.17115 -5.21994e-19)
(15.8512 -2.2225 -1.20984e-25)
(15.8401 -2.2758 1.21215e-25)
(15.8279 -2.33099 2.46198e-19)
(15.8152 -2.38825 1.12964e-25)
(15.801 -2.44751 -1.13366e-25)
(15.7863 -2.50899 -2.27402e-19)
(15.7702 -2.57262 -2.19983e-19)
(15.7533 -2.6386 0)
(15.7348 -2.70687 0)
(15.7152 -2.77763 -1.93263e-19)
(15.6939 -2.85081 -8.39521e-26)
(15.6714 -2.92666 6.50288e-27)
(15.6467 -3.00508 -7.0868e-24)
(15.6205 -3.08631 -1.4386e-19)
(15.5917 -3.17027 -6.51976e-26)
(15.5611 -3.25724 -1.11219e-19)
(15.5275 -3.34713 9.24053e-20)
(15.4918 -3.44026 -7.16976e-20)
(15.4527 -3.53654 4.88966e-20)
(15.411 -3.63637 2.37351e-20)
(15.3655 -3.73957 -3.94973e-21)
(15.3167 -3.84666 1.8481e-26)
(15.2634 -3.95752 -8.23657e-26)
(15.2063 -4.07262 1.42823e-23)
(15.1437 -4.19195 0)
(15.0763 -4.31598 -1.93262e-19)
(15.0028 -4.44489 4.89174e-19)
(14.9225 -4.57899 3.01941e-19)
(14.835 -4.71875 -7.32459e-19)
(14.7391 -4.86463 -4.38628e-19)
(14.6338 -5.01688 0)
(14.5177 -5.17638 6.12354e-19)
(14.3893 -5.34348 -7.16584e-19)
(14.2465 -5.51902 0)
(14.087 -5.70374 -9.83506e-25)
(13.9076 -5.89831 -1.27035e-25)
(13.7046 -6.10388 1.29228e-18)
(13.4733 -6.32126 -1.50404e-24)
(13.207 -6.55119 3.42139e-18)
(12.8966 -6.79377 0)
(12.5338 -7.05055 0)
(12.1065 -7.32227 -2.61529e-24)
(11.5795 -7.59665 1.49012e-18)
(19.7602 -1.23345 1.30438e-25)
(19.7572 -1.25114 -6.70168e-20)
(19.7539 -1.26915 -6.56695e-20)
(19.751 -1.28755 0)
(19.7477 -1.30629 6.31276e-20)
(19.7447 -1.32543 6.19268e-20)
(19.7417 -1.34495 2.31821e-25)
(19.7388 -1.36487 1.19328e-19)
(19.7357 -1.3852 1.17197e-19)
(19.7327 -1.40597 1.15152e-19)
(19.7297 -1.4272 -1.07902e-25)
(19.7267 -1.44891 -2.22597e-19)
(19.7237 -1.47109 1.04362e-25)
(19.7205 -1.49377 -1.17302e-24)
(19.7174 -1.51702 1.01105e-25)
(19.7142 -1.54083 -9.97026e-26)
(19.7109 -1.56524 1.02945e-19)
(19.7073 -1.59025 9.66986e-26)
(19.7043 -1.61598 -1.55916e-28)
(19.7004 -1.64236 -9.42181e-26)
(19.6972 -1.66952 9.74107e-20)
(19.6931 -1.69739 -2.15157e-24)
(19.6894 -1.72613 9.04679e-26)
(19.6851 -1.75569 1.87643e-19)
(19.6813 -1.78621 1.76609e-25)
(19.6765 -1.81763 1.83301e-19)
(19.6723 -1.85012 1.81248e-19)
(19.6673 -1.88359 1.71227e-25)
(19.6627 -1.91825 0)
(19.6571 -1.95402 1.75467e-19)
(19.6518 -1.99105 -1.6523e-25)
(19.6457 -2.0293 1.6426e-25)
(19.6399 -2.06896 -1.70094e-19)
(19.6331 -2.10996 -1.60991e-25)
(19.6266 -2.15251 1.66622e-19)
(19.619 -2.19653 -1.09802e-27)
(19.6116 -2.24218 -1.6313e-19)
(19.6031 -2.28943 1.53194e-25)
(19.5947 -2.33852 -1.52838e-25)
(19.5851 -2.38933 -1.57661e-19)
(19.5756 -2.44207 -1.55723e-19)
(19.5647 -2.49669 -1.53691e-19)
(19.5538 -2.5534 3.52128e-24)
(19.5415 -2.61211 1.41169e-25)
(19.529 -2.67308 2.9377e-19)
(19.5151 -2.73621 -1.38944e-25)
(19.5007 -2.80172 -2.8307e-19)
(19.4849 -2.86956 2.77088e-19)
(19.4684 -2.93993 -1.27138e-25)
(19.4503 -3.01276 2.51197e-25)
(19.4314 -3.08831 2.55932e-19)
(19.4107 -3.1665 2.47576e-19)
(19.3891 -3.24757 2.38436e-19)
(19.3654 -3.33145 2.28433e-19)
(19.3404 -3.41837 -2.17469e-19)
(19.3133 -3.50826 1.88936e-25)
(19.2846 -3.60143 -1.90371e-25)
(19.2533 -3.69774 -3.55567e-19)
(19.22 -3.7975 1.61873e-19)
(19.1836 -3.90061 1.44351e-19)
(19.145 -4.00741 0)
(19.1028 -4.1178 -8.75214e-26)
(19.0579 -4.23216 8.85156e-26)
(19.0088 -4.35039 0)
(18.9566 -4.47297 -2.67004e-20)
(18.8997 -4.59969 -4.4781e-21)
(18.8388 -4.73118 -2.08053e-26)
(18.7722 -4.86729 7.69118e-20)
(18.7011 -5.0086 -1.18918e-19)
(18.6233 -5.15511 1.36755e-25)
(18.5395 -5.30736 2.17339e-19)
(18.4481 -5.46562 -2.7505e-19)
(18.3486 -5.63025 -3.39575e-19)
(18.2401 -5.80182 4.11791e-19)
(18.1213 -5.98089 -4.93218e-19)
(17.991 -6.16778 -5.19333e-25)
(17.8475 -6.36356 -6.88364e-19)
(17.6887 -6.56867 -8.05567e-19)
(17.5124 -6.78412 9.54816e-25)
(17.3154 -7.01084 -1.08859e-18)
(17.0941 -7.24964 2.55208e-24)
(16.8438 -7.50193 9.48552e-23)
(16.5587 -7.76871 -1.67194e-18)
(16.2306 -8.05082 -1.92201e-18)
(15.8482 -8.34847 -3.99514e-24)
(15.4022 -8.66379 5.11637e-24)
(14.8762 -8.99715 -1.11512e-23)
(14.2273 -9.33328 -6.86228e-25)
(22.7687 -1.42124 1.46599e-25)
(22.765 -1.44161 7.53272e-20)
(22.761 -1.46235 1.0608e-24)
(22.7573 -1.48353 -1.38052e-25)
(22.7534 -1.50511 2.70728e-25)
(22.7497 -1.52715 6.96276e-20)
(22.746 -1.54962 1.30323e-25)
(22.7423 -1.57256 1.34184e-19)
(22.7386 -1.59596 -1.31798e-19)
(22.7349 -1.61987 -1.29506e-19)
(22.7311 -1.64431 2.42715e-25)
(22.7274 -1.6693 2.50367e-19)
(22.7236 -1.69484 0)
(22.7197 -1.72095 -2.42405e-19)
(22.7158 -1.74771 0)
(22.7118 -1.77512 0)
(22.7077 -1.80321 -1.15815e-19)
(22.7033 -1.832 2.17909e-25)
(22.6994 -1.86162 0)
(22.6947 -1.89198 1.11059e-19)
(22.6905 -1.92324 -1.09603e-19)
(22.6854 -1.95531 -2.16407e-19)
(22.6809 -1.98839 -2.04035e-25)
(22.6755 -2.0224 0)
(22.6707 -2.05752 -2.08657e-19)
(22.6648 -2.09368 -2.06268e-19)
(22.6596 -2.13106 0)
(22.6533 -2.16957 0)
(22.6475 -2.20944 -1.89969e-25)
(22.6406 -2.25059 -1.97463e-19)
(22.634 -2.2932 1.95406e-19)
(22.6265 -2.3372 -1.84851e-25)
(22.6193 -2.38282 -1.91415e-19)
(22.611 -2.42999 1.89459e-19)
(22.6029 -2.47893 -1.87515e-19)
(22.5936 -2.52956 1.85553e-19)
(22.5844 -2.58207 3.67166e-19)
(22.574 -2.63641 -1.81585e-19)
(22.5637 -2.69286 1.7037e-25)
(22.5521 -2.75129 1.7743e-19)
(22.5404 -2.81193 1.9602e-27)
(22.5272 -2.87473 -1.7295e-19)
(22.5139 -2.93994 5.78021e-24)
(22.499 -3.00744 1.61452e-25)
(22.4839 -3.07753 0)
(22.4671 -3.15011 0)
(22.4497 -3.22541 6.37063e-19)
(22.4306 -3.30338 -3.11802e-19)
(22.4108 -3.38426 0)
(22.3891 -3.46796 0)
(22.3664 -3.55477 0)
(22.3416 -3.64462 0)
(22.3157 -3.73776 -2.68275e-19)
(22.2874 -3.83413 -2.57014e-19)
(22.2577 -3.93398 2.4467e-19)
(22.2254 -4.03724 2.27664e-25)
(22.1913 -4.14424 0)
(22.1541 -4.25486 3.99961e-19)
(22.1147 -4.36943 -1.63469e-25)
(22.0718 -4.48785 -2.5767e-23)
(22.0263 -4.61049 -1.22183e-25)
(21.9766 -4.73727 -1.16876e-19)
(21.9239 -4.8686 9.9531e-26)
(21.8664 -5.00437 0)
(21.8053 -5.14512 0)
(21.7387 -5.29063 5.03576e-21)
(21.6677 -5.44161 6.16476e-26)
(21.5902 -5.5979 -1.73e-19)
(21.5074 -5.76014 -1.33778e-19)
(21.4168 -5.92835 0)
(21.3195 -6.10316 -2.44414e-19)
(21.2134 -6.28486 0)
(21.098 -6.47388 3.81677e-19)
(20.9724 -6.67085 0)
(20.8348 -6.87643 -7.5543e-23)
(20.6841 -7.09099 -6.57232e-19)
(20.5182 -7.31576 0)
(20.3349 -7.55123 1.81018e-18)
(20.1313 -7.79858 -2.5551e-25)
(19.9041 -8.05885 1.22276e-18)
(19.649 -8.333 2.86656e-24)
(19.3605 -8.62265 -1.63086e-18)
(19.0321 -8.92892 3.75497e-18)
(18.6541 -9.25272 2.15831e-18)
(18.2141 -9.59442 -4.48539e-24)
(17.7015 -9.95683 0)
(17.0964 -10.3394 -1.63472e-18)
(16.3493 -10.7246 0)
(25.0562 -1.56402 0)
(25.052 -1.58643 0)
(25.0474 -1.60924 8.29872e-20)
(25.043 -1.63253 9.99578e-29)
(25.0385 -1.65627 7.98038e-20)
(25.0343 -1.6805 -1.83739e-24)
(25.03 -1.70522 -2.93134e-25)
(25.0258 -1.73045 -1.50922e-19)
(25.0214 -1.75619 -2.82811e-25)
(25.0171 -1.78248 -1.45677e-19)
(25.0127 -1.80936 0)
(25.0083 -1.83683 -1.40837e-19)
(25.0039 -1.86491 0)
(24.9994 -1.89363 1.36373e-19)
(24.9947 -1.92305 2.56253e-25)
(24.99 -1.95319 2.52099e-25)
(24.9853 -1.98407 1.30328e-19)
(24.9801 -2.01572 0)
(24.9755 -2.04828 0)
(24.9699 -2.08166 -1.24996e-19)
(24.965 -2.11602 0)
(24.9591 -2.15128 2.43573e-19)
(24.9537 -2.18763 0)
(24.9474 -2.22502 -2.3766e-19)
(24.9416 -2.26362 4.69753e-19)
(24.9348 -2.30337 6.13727e-28)
(24.9285 -2.34445 2.19274e-25)
(24.9212 -2.38677 2.27085e-19)
(24.9144 -2.4306 0)
(24.9063 -2.47582 2.22291e-19)
(24.8986 -2.52263 -2.19988e-19)
(24.8898 -2.57099 4.15232e-25)
(24.8813 -2.62111 2.15499e-19)
(24.8717 -2.67294 -2.13299e-19)
(24.8622 -2.72672 -2.01929e-25)
(24.8514 -2.78234 -4.178e-19)
(24.8407 -2.84002 -8.27587e-24)
(24.8287 -2.89972 8.11685e-24)
(24.8166 -2.96173 0)
(24.8032 -3.02591 0)
(24.7896 -3.09252 -1.97281e-19)
(24.7744 -3.1615 1.94711e-19)
(24.7591 -3.23312 1.91997e-19)
(24.742 -3.30725 -1.8912e-19)
(24.7245 -3.38422 3.57953e-25)
(24.7052 -3.46392 3.65584e-19)
(24.6853 -3.5466 -3.58575e-19)
(24.6635 -3.63221 -3.3874e-25)
(24.6408 -3.721 -3.22055e-25)
(24.616 -3.81289 3.33816e-19)
(24.5901 -3.90819 -3.24099e-19)
(24.5619 -4.00681 -3.04741e-25)
(24.5324 -4.10903 -2.8108e-25)
(24.5003 -4.21481 5.51055e-25)
(24.4666 -4.32438 2.75317e-19)
(24.43 -4.43769 2.39175e-25)
(24.3914 -4.5551 2.43358e-19)
(24.3494 -4.67647 -3.55571e-23)
(24.305 -4.80217 -2.05861e-25)
(24.2567 -4.9321 -3.98835e-23)
(24.2056 -5.06664 0)
(24.15 -5.20573 4.4627e-23)
(24.0909 -5.34981 1.11937e-25)
(24.0267 -5.49876 6.94693e-20)
(23.9585 -5.65316 -2.64765e-26)
(23.8844 -5.81279 2.68271e-26)
(23.8052 -5.9784 0)
(23.7191 -6.14986 9.73045e-20)
(23.6271 -6.32782 1.50438e-19)
(23.5267 -6.51235 4.57999e-25)
(23.4188 -6.70409 -8.28231e-23)
(23.3014 -6.90341 -7.34216e-25)
(23.1737 -7.11073 7.47645e-25)
(23.0348 -7.3268 0)
(22.8829 -7.5523 -1.14527e-22)
(22.7166 -7.78766 -1.28728e-22)
(22.5336 -8.03421 1.77905e-24)
(22.3315 -8.29252 -1.01691e-18)
(22.1072 -8.56386 -1.18424e-18)
(21.857 -8.84938 2.78972e-24)
(21.5762 -9.15013 -2.85936e-24)
(21.2589 -9.46791 1.83162e-18)
(20.8977 -9.80392 -4.21606e-18)
(20.4821 -10.1591 3.36028e-22)
(19.9986 -10.534 -5.03446e-24)
(19.4366 -10.9323 -1.59733e-18)
(18.7715 -11.3518 3.66809e-18)
(17.9499 -11.7737 -1.5271e-23)
(26.6994 -1.66659 -3.70707e-25)
(26.6948 -1.69046 3.62947e-25)
(26.6898 -1.71475 0)
(26.6847 -1.73954 -9.14932e-20)
(26.6797 -1.76483 -1.92407e-24)
(26.6751 -1.79064 -8.80632e-20)
(26.6703 -1.81697 -6.59483e-25)
(26.6657 -1.84384 6.47603e-25)
(26.6609 -1.87125 1.66775e-19)
(26.6561 -1.89925 1.63905e-19)
(26.6512 -1.92787 -2.18904e-28)
(26.6463 -1.95714 -3.02397e-25)
(26.6414 -1.98704 2.97261e-25)
(26.6363 -2.01761 -1.53477e-19)
(26.6311 -2.04894 -2.88078e-25)
(26.6258 -2.08104 2.84127e-25)
(26.6204 -2.11392 -1.46707e-19)
(26.6147 -2.14762 0)
(26.6094 -2.18228 -1.42634e-19)
(26.6033 -2.21782 0)
(26.5977 -2.2544 -1.38885e-19)
(26.591 -2.29194 -2.74252e-19)
(26.5849 -2.33064 5.1605e-25)
(26.5779 -2.37044 2.67615e-19)
(26.5714 -2.41153 -2.64487e-19)
(26.5638 -2.45384 -4.97987e-25)
(26.5567 -2.49756 2.58544e-19)
(26.5485 -2.54262 -2.55738e-19)
(26.5407 -2.58926 2.53e-19)
(26.5318 -2.63739 -8.59543e-24)
(26.5231 -2.68721 0)
(26.5133 -2.73868 4.66547e-25)
(26.5037 -2.79202 -2.42695e-19)
(26.493 -2.84718 2.40218e-19)
(26.4823 -2.9044 2.37751e-19)
(26.4703 -2.96359 2.35281e-19)
(26.4583 -3.02496 -2.32781e-19)
(26.445 -3.08849 4.60488e-19)
(26.4315 -3.15446 4.32037e-25)
(26.4166 -3.22274 -8.5797e-25)
(26.4015 -3.2936 2.22195e-19)
(26.3847 -3.36699 2.19277e-19)
(26.3677 -3.44317 0)
(26.3488 -3.52203 4.25976e-19)
(26.3295 -3.60389 -4.19071e-19)
(26.3082 -3.68866 -4.11723e-19)
(26.2862 -3.77659 -4.03765e-19)
(26.2622 -3.86764 -3.95204e-19)
(26.2372 -3.96206 3.62645e-25)
(26.21 -4.05979 -3.75906e-19)
(26.1816 -4.16112 3.64951e-19)
(26.1507 -4.26598 0)
(26.1183 -4.37466 -3.16451e-25)
(26.0833 -4.48711 3.18259e-25)
(26.0463 -4.60358 -6.19897e-19)
(26.0064 -4.72404 -2.92757e-19)
(25.9643 -4.84882 -5.47874e-19)
(25.9187 -4.97784 -2.53276e-19)
(25.8704 -5.11143 0)
(25.818 -5.24953 -2.05572e-19)
(25.7626 -5.39252 3.67668e-25)
(25.7024 -5.54036 1.47936e-19)
(25.6386 -5.69348 0)
(25.5694 -5.85179 -1.56266e-19)
(25.4959 -6.01587 1.11272e-25)
(25.4161 -6.18553 -6.56716e-21)
(25.331 -6.36153 0)
(25.2385 -6.54376 0)
(25.1397 -6.73287 0)
(25.0321 -6.92898 0)
(24.9164 -7.13275 3.09104e-19)
(24.7908 -7.34458 0)
(24.6542 -7.56492 0)
(24.5057 -7.79456 -5.8515e-19)
(24.3434 -8.03422 7.00354e-19)
(24.1658 -8.28436 8.30104e-19)
(23.9705 -8.54643 9.77004e-19)
(23.755 -8.82099 0)
(23.516 -9.10942 2.66058e-18)
(23.2494 -9.41293 1.54299e-18)
(22.9504 -9.73266 0)
(22.6127 -10.0705 -2.05618e-18)
(22.2283 -10.4278 2.36615e-18)
(21.7858 -10.8053 -2.71888e-18)
(21.2719 -11.2042 -3.12217e-18)
(20.6756 -11.6285 1.79154e-18)
(19.9674 -12.0741 -2.05662e-18)
(19.0924 -12.5219 -2.36274e-18)
(27.8184 -1.73643 4.16079e-25)
(27.8135 -1.76129 -1.06938e-19)
(27.8081 -1.7866 1.04837e-19)
(27.8019 -1.81236 2.05667e-19)
(27.7967 -1.83871 -1.00883e-19)
(27.7917 -1.8656 7.5529e-25)
(27.7867 -1.89302 -7.41566e-25)
(27.7817 -1.921 1.90905e-19)
(27.7765 -1.94955 -1.87566e-19)
(27.7714 -1.97871 0)
(27.7662 -2.00852 -1.81257e-19)
(27.7609 -2.039 -1.78284e-19)
(27.7556 -2.07014 6.34302e-28)
(27.7501 -2.10198 3.45384e-19)
(27.7445 -2.1346 1.70058e-19)
(27.7388 -2.16802 6.38659e-25)
(27.733 -2.20226 1.65105e-19)
(27.7268 -2.23736 -6.21416e-25)
(27.721 -2.27344 6.13486e-24)
(27.7144 -2.31045 -6.04788e-25)
(27.7083 -2.34853 1.5635e-19)
(27.7011 -2.38762 5.88262e-25)
(27.6944 -2.4279 -5.82258e-25)
(27.6869 -2.46934 5.73986e-25)
(27.6797 -2.51212 -1.13592e-24)
(27.6715 -2.55617 5.62277e-25)
(27.6638 -2.60168 -1.18798e-23)
(27.655 -2.64858 2.87963e-19)
(27.6465 -2.69713 -5.6981e-19)
(27.6368 -2.74723 -2.81922e-19)
(27.6273 -2.79909 2.78991e-19)
(27.6168 -2.85266 0)
(27.6064 -2.90817 2.7333e-19)
(27.5948 -2.96559 -2.70544e-19)
(27.5832 -3.02513 -2.67767e-19)
(27.5704 -3.08674 -2.6496e-19)
(27.5573 -3.1506 -5.01863e-25)
(27.543 -3.21672 -5.18603e-19)
(27.5285 -3.28536 -4.91215e-25)
(27.5125 -3.35643 -2.53346e-19)
(27.4962 -3.43015 -2.50216e-19)
(27.4782 -3.50652 -4.93898e-19)
(27.4598 -3.58577 4.67659e-25)
(27.4396 -3.66783 -2.39861e-19)
(27.4189 -3.753 4.71952e-19)
(27.3962 -3.84119 8.74952e-25)
(27.3726 -3.93267 4.54692e-19)
(27.347 -4.02739 4.45039e-19)
(27.3203 -4.12561 0)
(27.2913 -4.22726 0)
(27.261 -4.33265 0)
(27.2281 -4.44173 7.42015e-25)
(27.1937 -4.55475 -3.82632e-19)
(27.1565 -4.67171 3.66509e-19)
(27.1172 -4.79284 3.48904e-19)
(27.0749 -4.9181 3.29556e-19)
(27.0302 -5.04786 6.82259e-23)
(26.982 -5.18202 0)
(26.9308 -5.32092 0)
(26.8756 -5.46453 -2.31206e-19)
(26.8171 -5.61321 -2.00294e-19)
(26.7538 -5.76695 2.80056e-25)
(26.6866 -5.92615 -4.88668e-25)
(26.6139 -6.09078 8.78596e-20)
(26.5366 -6.26138 0)
(26.453 -6.43781 1.48874e-20)
(26.3637 -6.62081 0)
(26.2668 -6.81031 0)
(26.1634 -7.00695 1.90595e-19)
(26.0508 -7.21089 0)
(25.9299 -7.42278 0)
(25.7987 -7.64307 0)
(25.656 -7.87221 2.2678e-24)
(25.5011 -8.11103 -2.0941e-22)
(25.3318 -8.36029 7.87217e-19)
(25.1467 -8.62046 -3.31348e-24)
(24.9432 -8.89305 -1.09721e-18)
(24.7188 -9.17866 1.28347e-18)
(24.47 -9.47872 -1.49353e-18)
(24.1925 -9.7945 -1.73179e-18)
(23.8815 -10.1272 2.00182e-18)
(23.5302 -10.4788 0)
(23.1304 -10.8505 0)
(22.6701 -11.2433 0)
(22.1366 -11.659 3.49971e-18)
(21.5181 -12.1015 0)
(20.7802 -12.5645 0)
(19.8689 -13.0298 -6.12071e-22)
(28.5421 -1.7816 -9.3359e-25)
(28.537 -1.8071 1.2e-19)
(28.5313 -1.83305 -1.17665e-19)
(28.5246 -1.85947 -5.15619e-24)
(28.5192 -1.88649 8.64046e-25)
(28.514 -1.91408 0)
(28.5088 -1.94221 0)
(28.5036 -1.97091 -7.95259e-24)
(28.4982 -2.0002 0)
(28.4928 -2.03011 0)
(28.4873 -2.06068 2.0369e-19)
(28.4818 -2.09194 2.00371e-19)
(28.4762 -2.12388 1.50434e-24)
(28.4705 -2.15654 -1.94128e-19)
(28.4645 -2.18999 -1.9119e-19)
(28.4585 -2.22427 -7.18063e-25)
(28.4524 -2.25938 -3.71304e-19)
(28.4459 -2.29538 1.83049e-19)
(28.4398 -2.33238 3.61113e-19)
(28.4328 -2.37033 -6.79005e-25)
(28.4262 -2.40938 1.75854e-19)
(28.4187 -2.44947 -6.61711e-25)
(28.4116 -2.49077 1.30857e-24)
(28.4037 -2.53327 -6.47252e-25)
(28.3961 -2.57713 6.38173e-25)
(28.3875 -2.62229 -6.32623e-25)
(28.3792 -2.66896 -3.27573e-19)
(28.37 -2.71705 -3.24033e-19)
(28.361 -2.76682 3.20597e-19)
(28.3508 -2.8182 0)
(28.3407 -2.87136 -3.13969e-19)
(28.3297 -2.92629 5.88476e-25)
(28.3187 -2.9832 -3.0758e-19)
(28.3065 -3.04206 -3.04449e-19)
(28.2943 -3.1031 -3.01329e-19)
(28.2807 -3.16626 2.98209e-19)
(28.267 -3.23173 0)
(28.252 -3.29951 1.95935e-23)
(28.2367 -3.36987 1.10565e-24)
(28.2199 -3.44272 2.8514e-19)
(28.2028 -3.51829 2.81614e-19)
(28.184 -3.59657 5.55825e-19)
(28.1647 -3.6778 -1.03737e-24)
(28.1436 -3.76191 2.69902e-19)
(28.1219 -3.8492 -5.31044e-19)
(28.0982 -3.9396 -5.21666e-19)
(28.0735 -4.03335 0)
(28.0468 -4.13043 5.00704e-19)
(28.0189 -4.23109 -4.88914e-19)
(27.9888 -4.33527 8.93157e-25)
(27.9571 -4.44327 -8.96673e-25)
(27.923 -4.55505 0)
(27.8871 -4.67087 4.30486e-19)
(27.8485 -4.79072 -4.12323e-19)
(27.8076 -4.91484 -7.69754e-25)
(27.7637 -5.04319 6.81537e-25)
(27.7173 -5.17614 6.93352e-19)
(27.6673 -5.31362 -6.38708e-25)
(27.6144 -5.45594 -5.23608e-25)
(27.5572 -5.60309 2.59994e-19)
(27.4967 -5.75543 4.50312e-19)
(27.4314 -5.91297 3.94991e-25)
(27.3621 -6.07609 -1.44786e-19)
(27.2871 -6.2448 -9.85124e-20)
(27.2075 -6.41961 -7.40359e-26)
(27.1214 -6.60041 1.5239e-22)
(27.0294 -6.78793 5.47565e-25)
(26.9299 -6.98215 -4.01711e-25)
(26.8235 -7.18365 1.87619e-22)
(26.7079 -7.39266 -1.30264e-24)
(26.5837 -7.60983 -3.90758e-19)
(26.449 -7.83562 4.9408e-19)
(26.3026 -8.07047 -4.23859e-25)
(26.1437 -8.31528 7.38213e-19)
(25.9702 -8.5708 -8.8342e-19)
(25.7805 -8.83753 0)
(25.5721 -9.11702 0)
(25.3422 -9.4099 4.11923e-22)
(25.0875 -9.71763 0)
(24.8035 -10.0415 -7.88784e-24)
(24.4851 -10.3828 -2.24331e-18)
(24.1257 -10.7435 2.58593e-18)
(23.7164 -11.1249 -2.27641e-23)
(23.2452 -11.5279 -1.44754e-24)
(22.7006 -11.9552 -1.74578e-23)
(22.0688 -12.4102 -2.24743e-18)
(21.311 -12.8841 0)
(20.3762 -13.3606 -8.42621e-22)
(28.9705 -1.88852 -1.293e-19)
(28.965 -1.91597 -1.26889e-19)
(28.9597 -1.94398 -1.2457e-19)
(28.9543 -1.97255 -1.86669e-24)
(28.9489 -2.0017 -2.40383e-19)
(28.9434 -2.03144 -9.00962e-25)
(28.9378 -2.06181 8.86233e-25)
(28.9321 -2.09285 0)
(28.9264 -2.12459 0)
(28.9207 -2.15702 2.21197e-19)
(28.9147 -2.19018 -2.17796e-19)
(28.9086 -2.22415 -2.14528e-19)
(28.9023 -2.25895 -2.11384e-19)
(28.8959 -2.29459 9.67979e-24)
(28.8893 -2.33115 -8.11652e-24)
(28.8829 -2.36871 -9.70477e-24)
(28.8757 -2.40725 -2.69775e-27)
(28.8688 -2.44688 -1.97462e-19)
(28.8611 -2.48758 0)
(28.8536 -2.52951 0)
(28.8455 -2.57266 -3.80672e-19)
(28.8375 -2.61718 3.6647e-27)
(28.8286 -2.66304 3.9394e-27)
(28.82 -2.7104 4.21353e-27)
(28.8105 -2.75923 1.3907e-24)
(28.8011 -2.80975 0)
(28.7906 -2.86191 0)
(28.7801 -2.91587 3.52724e-19)
(28.7687 -2.97163 -1.33485e-24)
(28.7573 -3.02939 2.36057e-23)
(28.7448 -3.08915 3.42099e-19)
(28.7321 -3.15111 3.38597e-19)
(28.7181 -3.21522 -3.3505e-19)
(28.7039 -3.28167 3.31495e-19)
(28.6885 -3.35047 6.55813e-19)
(28.6727 -3.42189 1.23057e-24)
(28.6555 -3.49584 -2.44373e-24)
(28.6378 -3.57253 1.21379e-24)
(28.6184 -3.652 -3.12281e-19)
(28.5985 -3.73445 -2.34826e-24)
(28.5769 -3.81982 -3.03283e-19)
(28.5546 -3.90841 1.19336e-18)
(28.5303 -4.00017 7.31782e-23)
(28.5049 -4.09532 -1.10809e-24)
(28.4776 -4.19386 -1.12505e-18)
(28.449 -4.29601 5.49295e-19)
(28.4181 -4.40176 -5.34815e-19)
(28.3857 -4.51136 -3.53534e-26)
(28.3508 -4.62482 -5.02042e-19)
(28.3141 -4.74236 0)
(28.2746 -4.864 -4.62929e-19)
(28.2328 -4.98995 0)
(28.188 -5.12023 0)
(28.1406 -5.25515 -3.89243e-19)
(28.0897 -5.39468 -3.59611e-19)
(28.0356 -5.53912 -1.31574e-24)
(27.9775 -5.68849 -2.91613e-19)
(27.9158 -5.8431 -2.52674e-19)
(27.8494 -6.00301 7.05742e-25)
(27.7788 -6.16858 3.24803e-19)
(27.7027 -6.33983 1.1054e-19)
(27.6217 -6.51728 3.14019e-25)
(27.5343 -6.70083 -9.62691e-21)
(27.4409 -6.89119 0)
(27.34 -7.08838 7.50197e-25)
(27.232 -7.29294 -2.40277e-19)
(27.1148 -7.50516 -1.4613e-24)
(26.9888 -7.72567 4.37986e-19)
(26.8523 -7.95495 3.11003e-22)
(26.7039 -8.19345 -2.37975e-24)
(26.543 -8.44209 0)
(26.3672 -8.70162 0)
(26.1751 -8.97258 0)
(25.9641 -9.25655 0)
(25.7315 -9.55414 -1.61126e-18)
(25.4737 -9.86689 1.3446e-23)
(25.1863 -10.1961 -2.17283e-18)
(24.8641 -10.543 -3.84191e-23)
(24.5003 -10.9098 -2.89023e-18)
(24.0858 -11.2975 -2.68757e-23)
(23.609 -11.7075 -3.81554e-18)
(23.0594 -12.1432 4.37605e-18)
(22.4201 -12.6066 5.01647e-18)
(21.6486 -13.0866 0)
(20.6988 -13.57 3.29766e-18)
(29.2342 -1.9057 2.20161e-24)
(29.2286 -1.9334 2.83331e-19)
(29.2232 -1.96166 6.92785e-24)
(29.2177 -1.99048 -2.73292e-19)
(29.2121 -2.01989 2.04854e-24)
(29.2065 -2.04989 -2.01447e-24)
(29.2008 -2.08053 1.97994e-24)
(29.1949 -2.11186 2.5536e-19)
(29.1891 -2.14388 -2.51286e-19)
(29.1832 -2.17659 -2.47377e-19)
(29.177 -2.21004 4.87217e-19)
(29.1707 -2.24431 2.39997e-19)
(29.1644 -2.27942 1.43124e-23)
(29.1578 -2.31538 4.6633e-19)
(29.151 -2.35226 -2.29964e-19)
(29.1443 -2.39015 -2.26878e-19)
(29.137 -2.42903 0)
(29.1299 -2.469 2.21053e-19)
(29.122 -2.51007 0)
(29.1143 -2.55236 1.64372e-24)
(29.106 -2.59589 4.26324e-19)
(29.0978 -2.64079 -4.21418e-19)