/*--------------------------------*- C++ -*----------------------------------*\
| =========                 |                                                 |
| \\      /  F ield         | OpenFOAM: The Open Source CFD Toolbox           |
|  \\    /   O peration     | Version:  2412                                  |
|   \\  /    A nd           | Website:  www.openfoam.com                      |
|    \\/     M anipulation  |                                                 |
\*---------------------------------------------------------------------------*/
FoamFile
{
    version     2.0;
    format      ascii;
    arch        "LSB;label=32;scalar=64";
    class       volScalarField;
    location    "320";
    object      nut;
}
// * * * * * * * * * * * * * * * * * * * * * * * * * * * * * * * * * * * * * //

dimensions      [0 2 -1 0 0 0 0];

internalField   nonuniform List<scalar> 
8637
(
5.95259e-12
5.95876e-12
5.96521e-12
5.97249e-12
5.98194e-12
5.9919e-12
6.00233e-12
6.01373e-12
6.02541e-12
6.03802e-12
6.05208e-12
6.06742e-12
6.08355e-12
6.10014e-12
6.11857e-12
6.13856e-12
6.15981e-12
6.18241e-12
6.20663e-12
6.23282e-12
6.26087e-12
6.29082e-12
6.3223e-12
6.35587e-12
6.39174e-12
6.42981e-12
6.47006e-12
6.51225e-12
6.55648e-12
6.60289e-12
6.6514e-12
6.70176e-12
6.75453e-12
6.80871e-12
6.86454e-12
6.92195e-12
6.98028e-12
7.03982e-12
7.09986e-12
7.16047e-12
7.22148e-12
7.28193e-12
7.34161e-12
7.40039e-12
7.45813e-12
7.5138e-12
7.56697e-12
7.6179e-12
7.66582e-12
7.71e-12
7.75039e-12
7.78628e-12
7.81866e-12
7.84715e-12
7.8697e-12
7.88636e-12
7.89821e-12
7.90691e-12
7.90982e-12
7.90543e-12
7.89584e-12
7.88357e-12
7.86494e-12
7.83851e-12
7.80657e-12
7.7727e-12
7.73062e-12
7.68008e-12
7.62571e-12
7.56626e-12
7.49672e-12
7.41892e-12
7.33658e-12
7.24278e-12
7.13696e-12
7.02413e-12
6.8963e-12
6.75048e-12
6.59041e-12
6.40655e-12
6.19864e-12
5.95806e-12
5.67382e-12
5.34082e-12
4.93684e-12
4.45024e-12
3.85584e-12
3.13188e-12
5.54332e-10
5.55054e-10
5.55796e-10
5.56627e-10
5.5764e-10
5.58714e-10
5.59857e-10
5.6108e-10
5.62359e-10
5.63743e-10
5.65249e-10
5.66869e-10
5.68585e-10
5.70397e-10
5.72362e-10
5.7447e-10
5.76725e-10
5.7914e-10
5.81714e-10
5.84463e-10
5.8741e-10
5.90546e-10
5.93865e-10
5.97379e-10
6.01103e-10
6.05054e-10
6.09211e-10
6.13568e-10
6.18131e-10
6.22901e-10
6.27864e-10
6.3301e-10
6.38349e-10
6.43819e-10
6.49461e-10
6.55217e-10
6.61078e-10
6.67014e-10
6.72954e-10
6.78944e-10
6.84923e-10
6.90825e-10
6.96635e-10
7.02319e-10
7.07844e-10
7.13128e-10
7.18137e-10
7.2287e-10
7.27298e-10
7.31337e-10
7.34937e-10
7.38066e-10
7.40812e-10
7.43164e-10
7.44937e-10
7.4607e-10
7.46721e-10
7.47076e-10
7.46834e-10
7.45836e-10
7.44323e-10
7.42567e-10
7.40188e-10
7.37018e-10
7.33304e-10
7.29402e-10
7.24705e-10
7.19189e-10
7.1327e-10
7.06889e-10
6.99525e-10
6.91344e-10
6.82745e-10
6.73032e-10
6.62181e-10
6.50638e-10
6.37618e-10
6.22916e-10
6.0686e-10
5.8854e-10
5.6793e-10
5.44248e-10
5.16498e-10
4.84218e-10
4.45409e-10
3.99114e-10
3.43239e-10
2.76204e-10
5.14843e-09
5.1573e-09
5.16636e-09
5.17653e-09
5.18816e-09
5.2005e-09
5.21358e-09
5.22751e-09
5.24226e-09
5.25812e-09
5.27517e-09
5.29338e-09
5.31272e-09
5.33335e-09
5.35556e-09
5.37925e-09
5.40451e-09
5.43154e-09
5.46035e-09
5.491e-09
5.52368e-09
5.55836e-09
5.59503e-09
5.63374e-09
5.67467e-09
5.7178e-09
5.76298e-09
5.81027e-09
5.8597e-09
5.91106e-09
5.96428e-09
6.01931e-09
6.0759e-09
6.13392e-09
6.19333e-09
6.25358e-09
6.31462e-09
6.37599e-09
6.43735e-09
6.49859e-09
6.55915e-09
6.6186e-09
6.67656e-09
6.73269e-09
6.78662e-09
6.83763e-09
6.88516e-09
6.92933e-09
6.96998e-09
7.00627e-09
7.0373e-09
7.06309e-09
7.08444e-09
7.10185e-09
7.11281e-09
7.11674e-09
7.11571e-09
7.11154e-09
7.10101e-09
7.08265e-09
7.05892e-09
7.03285e-09
7.00038e-09
6.95966e-09
6.91357e-09
6.86543e-09
6.8095e-09
6.74531e-09
6.67706e-09
6.60426e-09
6.52161e-09
6.43102e-09
6.33623e-09
6.23044e-09
6.11372e-09
5.99006e-09
5.85208e-09
5.69804e-09
5.53089e-09
5.34213e-09
5.13169e-09
4.8925e-09
4.61567e-09
4.29747e-09
3.92076e-09
3.47881e-09
2.95639e-09
2.34501e-09
2.36063e-08
2.36607e-08
2.3717e-08
2.3781e-08
2.38495e-08
2.39222e-08
2.3999e-08
2.40806e-08
2.41674e-08
2.42603e-08
2.43596e-08
2.44654e-08
2.45778e-08
2.46978e-08
2.48264e-08
2.49634e-08
2.51091e-08
2.52643e-08
2.54295e-08
2.56051e-08
2.57913e-08
2.59881e-08
2.61959e-08
2.6415e-08
2.66455e-08
2.68871e-08
2.71393e-08
2.74025e-08
2.76765e-08
2.79597e-08
2.82519e-08
2.85525e-08
2.886e-08
2.91739e-08
2.94928e-08
2.98144e-08
3.01377e-08
3.04608e-08
3.07817e-08
3.10986e-08
3.14092e-08
3.17109e-08
3.20014e-08
3.22792e-08
3.25421e-08
3.27858e-08
3.30081e-08
3.32093e-08
3.33897e-08
3.35445e-08
3.36683e-08
3.37612e-08
3.38301e-08
3.38771e-08
3.38879e-08
3.38597e-08
3.3805e-08
3.37339e-08
3.36293e-08
3.34828e-08
3.33082e-08
3.31227e-08
3.29039e-08
3.26425e-08
3.23539e-08
3.20558e-08
3.17182e-08
3.13392e-08
3.094e-08
3.05184e-08
3.00487e-08
2.954e-08
2.90106e-08
2.84283e-08
2.77932e-08
2.71253e-08
2.63888e-08
2.55767e-08
2.47029e-08
2.3729e-08
2.26554e-08
2.14511e-08
2.00783e-08
1.85255e-08
1.67218e-08
1.46508e-08
1.22656e-08
9.5577e-09
7.59415e-08
7.61769e-08
7.64235e-08
7.67069e-08
7.69941e-08
7.72982e-08
7.76203e-08
7.79626e-08
7.83265e-08
7.87143e-08
7.91278e-08
7.95681e-08
8.00358e-08
8.05345e-08
8.10667e-08
8.16325e-08
8.22337e-08
8.28722e-08
8.35501e-08
8.42687e-08
8.50281e-08
8.58286e-08
8.66719e-08
8.7558e-08
8.84861e-08
8.94556e-08
9.04653e-08
9.15136e-08
9.25988e-08
9.37167e-08
9.48648e-08
9.60389e-08
9.72341e-08
9.84468e-08
9.96701e-08
1.00896e-07
1.02119e-07
1.03331e-07
1.04524e-07
1.0569e-07
1.06819e-07
1.07902e-07
1.0893e-07
1.09897e-07
1.10793e-07
1.11602e-07
1.12316e-07
1.12939e-07
1.13474e-07
1.13903e-07
1.142e-07
1.14371e-07
1.14447e-07
1.1444e-07
1.14288e-07
1.13981e-07
1.13576e-07
1.13112e-07
1.12522e-07
1.11772e-07
1.1092e-07
1.10034e-07
1.09027e-07
1.07864e-07
1.06606e-07
1.05318e-07
1.0389e-07
1.02316e-07
1.00674e-07
9.89577e-08
9.70759e-08
9.50616e-08
9.29813e-08
9.07235e-08
8.82907e-08
8.575e-08
8.29863e-08
7.99791e-08
7.67747e-08
7.32547e-08
6.94226e-08
6.51892e-08
6.04464e-08
5.51775e-08
4.91881e-08
4.2476e-08
3.49613e-08
2.67061e-08
1.96474e-07
1.97286e-07
1.98147e-07
1.99141e-07
2.0011e-07
2.01136e-07
2.02224e-07
2.0338e-07
2.04609e-07
2.05915e-07
2.07304e-07
2.08783e-07
2.10353e-07
2.12025e-07
2.13804e-07
2.15691e-07
2.17694e-07
2.19818e-07
2.22065e-07
2.24441e-07
2.26944e-07
2.29579e-07
2.32345e-07
2.3524e-07
2.38263e-07
2.41411e-07
2.44676e-07
2.48053e-07
2.51532e-07
2.55102e-07
2.58749e-07
2.62459e-07
2.66217e-07
2.70003e-07
2.73796e-07
2.7757e-07
2.81304e-07
2.84972e-07
2.88546e-07
2.91996e-07
2.95291e-07
2.984e-07
3.01299e-07
3.03974e-07
3.0639e-07
3.08489e-07
3.10251e-07
3.11698e-07
3.12855e-07
3.13658e-07
3.14011e-07
3.13949e-07
3.13594e-07
3.12981e-07
3.11909e-07
3.10347e-07
3.08488e-07
3.06471e-07
3.0407e-07
3.01187e-07
2.98012e-07
2.94753e-07
2.91145e-07
2.87088e-07
2.82764e-07
2.78373e-07
2.73594e-07
2.68411e-07
2.63048e-07
2.57496e-07
2.51498e-07
2.4515e-07
2.38643e-07
2.31672e-07
2.24251e-07
2.16564e-07
2.08317e-07
1.9946e-07
1.90125e-07
1.80022e-07
1.69171e-07
1.57376e-07
1.44399e-07
1.30256e-07
1.14536e-07
9.73554e-08
7.86687e-08
5.88154e-08
4.37155e-07
4.39526e-07
4.42056e-07
4.44999e-07
4.47786e-07
4.50744e-07
4.53879e-07
4.57206e-07
4.60738e-07
4.64491e-07
4.68479e-07
4.72717e-07
4.77217e-07
4.81998e-07
4.87075e-07
4.92455e-07
4.98153e-07
5.0418e-07
5.10542e-07
5.17248e-07
5.243e-07
5.31701e-07
5.39445e-07
5.47527e-07
5.5594e-07
5.64665e-07
5.73682e-07
5.8297e-07
5.92499e-07
6.02229e-07
6.12122e-07
6.22132e-07
6.32208e-07
6.42295e-07
6.52325e-07
6.62227e-07
6.71936e-07
6.81379e-07
6.90475e-07
6.9914e-07
7.0728e-07
7.14812e-07
7.21682e-07
7.27864e-07
7.33255e-07
7.37683e-07
7.41112e-07
7.4363e-07
7.45336e-07
7.46046e-07
7.4547e-07
7.43742e-07
7.41243e-07
7.3809e-07
7.33697e-07
7.27994e-07
7.2155e-07
7.1475e-07
7.06975e-07
6.97973e-07
6.8827e-07
6.78415e-07
6.67722e-07
6.55931e-07
6.43529e-07
6.31027e-07
6.17623e-07
6.0329e-07
5.88578e-07
5.73484e-07
5.57394e-07
5.40544e-07
5.23395e-07
5.05258e-07
4.86172e-07
4.6657e-07
4.45814e-07
4.23812e-07
4.00879e-07
3.76418e-07
3.50503e-07
3.22786e-07
2.92837e-07
2.60805e-07
2.2599e-07
1.88877e-07
1.49643e-07
1.09329e-07
8.68669e-07
8.7473e-07
8.81223e-07
8.88839e-07
8.95896e-07
9.0339e-07
9.11332e-07
9.19755e-07
9.28692e-07
9.38178e-07
9.48247e-07
9.58935e-07
9.70269e-07
9.8229e-07
9.9503e-07
1.0085e-06
1.02274e-06
1.03776e-06
1.05358e-06
1.07021e-06
1.08765e-06
1.10589e-06
1.12491e-06
1.1447e-06
1.16522e-06
1.18641e-06
1.20823e-06
1.23061e-06
1.25345e-06
1.27666e-06
1.30014e-06
1.32375e-06
1.34736e-06
1.37083e-06
1.39399e-06
1.41665e-06
1.43864e-06
1.4598e-06
1.47992e-06
1.49879e-06
1.51617e-06
1.53188e-06
1.54581e-06
1.55794e-06
1.568e-06
1.57555e-06
1.58055e-06
1.58329e-06
1.58409e-06
1.58245e-06
1.57764e-06
1.57008e-06
1.56077e-06
1.55004e-06
1.53641e-06
1.51976e-06
1.50151e-06
1.4826e-06
1.46156e-06
1.43782e-06
1.41262e-06
1.38725e-06
1.36015e-06
1.33074e-06
1.30013e-06
1.26948e-06
1.23703e-06
1.20275e-06
1.16781e-06
1.13226e-06
1.09482e-06
1.05597e-06
1.01671e-06
9.75671e-07
9.32933e-07
8.89402e-07
8.43871e-07
7.96185e-07
7.4701e-07
6.95274e-07
6.41178e-07
5.84198e-07
5.23686e-07
4.60128e-07
3.92537e-07
3.2222e-07
2.49933e-07
1.78123e-07
1.57793e-06
1.59179e-06
1.60668e-06
1.62427e-06
1.64031e-06
1.65735e-06
1.6754e-06
1.69452e-06
1.7148e-06
1.73629e-06
1.75908e-06
1.78322e-06
1.80878e-06
1.83582e-06
1.86441e-06
1.89457e-06
1.92635e-06
1.95979e-06
1.99489e-06
2.03166e-06
2.07007e-06
2.1101e-06
2.1517e-06
2.19477e-06
2.23923e-06
2.28496e-06
2.3318e-06
2.37957e-06
2.42808e-06
2.47708e-06
2.52632e-06
2.57552e-06
2.62436e-06
2.6725e-06
2.71956e-06
2.76516e-06
2.80891e-06
2.85046e-06
2.8894e-06
2.92523e-06
2.95744e-06
2.98568e-06
3.00982e-06
3.02987e-06
3.04526e-06
3.05495e-06
3.05899e-06
3.05819e-06
3.05332e-06
3.04327e-06
3.0264e-06
3.0038e-06
2.97776e-06
2.94902e-06
2.91438e-06
2.87362e-06
2.82982e-06
2.78501e-06
2.73614e-06
2.68206e-06
2.62531e-06
2.56853e-06
2.50865e-06
2.44452e-06
2.37832e-06
2.31236e-06
2.2433e-06
2.17105e-06
2.09786e-06
2.0239e-06
1.9468e-06
1.86746e-06
1.78776e-06
1.70529e-06
1.62019e-06
1.53416e-06
1.44515e-06
1.35293e-06
1.25874e-06
1.16089e-06
1.05981e-06
9.54835e-07
8.45177e-07
7.31957e-07
6.14121e-07
4.94431e-07
3.74783e-07
2.60013e-07
2.66107e-06
2.68988e-06
2.72083e-06
2.75791e-06
2.79111e-06
2.82637e-06
2.86367e-06
2.90316e-06
2.94495e-06
2.98918e-06
3.03596e-06
3.08542e-06
3.13765e-06
3.19276e-06
3.25081e-06
3.31187e-06
3.37598e-06
3.44316e-06
3.51339e-06
3.58663e-06
3.66282e-06
3.74182e-06
3.82348e-06
3.90762e-06
3.99397e-06
4.08226e-06
4.17215e-06
4.26326e-06
4.35512e-06
4.44724e-06
4.53911e-06
4.63016e-06
4.71975e-06
4.8072e-06
4.89175e-06
4.97266e-06
5.04927e-06
5.12089e-06
5.18683e-06
5.24606e-06
5.29764e-06
5.341e-06
5.37612e-06
5.40319e-06
5.42103e-06
5.42756e-06
5.42313e-06
5.4096e-06
5.38865e-06
5.35803e-06
5.31454e-06
5.26046e-06
5.20049e-06
5.13604e-06
5.06095e-06
4.97489e-06
4.88372e-06
4.79128e-06
4.69196e-06
4.58369e-06
4.47104e-06
4.35885e-06
4.24172e-06
4.11756e-06
3.99019e-06
3.86376e-06
3.73256e-06
3.59638e-06
3.45907e-06
3.32107e-06
3.17842e-06
3.03258e-06
2.88683e-06
2.73726e-06
2.58414e-06
2.4303e-06
2.27262e-06
2.11079e-06
1.94692e-06
1.77859e-06
1.60662e-06
1.43035e-06
1.24914e-06
1.06508e-06
8.77667e-07
6.91816e-07
5.11321e-07
3.44534e-07
4.39902e-06
4.4623e-06
4.52939e-06
4.60028e-06
4.67517e-06
4.75427e-06
4.83775e-06
4.9258e-06
5.01858e-06
5.11625e-06
5.21888e-06
5.32656e-06
5.43932e-06
5.55716e-06
5.68002e-06
5.80779e-06
5.94032e-06
6.07737e-06
6.21865e-06
6.36375e-06
6.51226e-06
6.66364e-06
6.8173e-06
6.97257e-06
7.12872e-06
7.28484e-06
7.44005e-06
7.59341e-06
7.74389e-06
7.89039e-06
8.03172e-06
8.16653e-06
8.29364e-06
8.41194e-06
8.52046e-06
8.61808e-06
8.70296e-06
8.77357e-06
8.8292e-06
8.8702e-06
8.89726e-06
8.90816e-06
8.89914e-06
8.87125e-06
8.82828e-06
8.77338e-06
8.70246e-06
8.60986e-06
8.49991e-06
8.38096e-06
8.25545e-06
8.1128e-06
7.95248e-06
7.78445e-06
7.61514e-06
7.43538e-06
7.24165e-06
7.04142e-06
6.8426e-06
6.63663e-06
6.42008e-06
6.19898e-06
5.98002e-06
5.75437e-06
5.5216e-06
5.28768e-06
5.05352e-06
4.8131e-06
4.5686e-06
4.32515e-06
4.07705e-06
3.82468e-06
3.57241e-06
3.3159e-06
3.05482e-06
2.79242e-06
2.52563e-06
2.25591e-06
1.9828e-06
1.7065e-06
1.43035e-06
1.15564e-06
8.89822e-07
6.39552e-07
4.17594e-07
6.64716e-06
6.75916e-06
6.87766e-06
7.00254e-06
7.13412e-06
7.27267e-06
7.41838e-06
7.57148e-06
7.73214e-06
7.90049e-06
8.07656e-06
8.26031e-06
8.45167e-06
8.65051e-06
8.85654e-06
9.06943e-06
9.28878e-06
9.51402e-06
9.74451e-06
9.97946e-06
1.0218e-05
1.04592e-05
1.0702e-05
1.09451e-05
1.11873e-05
1.14271e-05
1.1663e-05
1.18936e-05
1.21172e-05
1.23322e-05
1.25365e-05
1.27283e-05
1.29058e-05
1.30674e-05
1.3212e-05
1.3338e-05
1.34424e-05
1.35229e-05
1.3579e-05
1.3612e-05
1.36233e-05
1.36093e-05
1.35637e-05
1.34888e-05
1.33916e-05
1.32772e-05
1.31389e-05
1.29676e-05
1.27706e-05
1.25613e-05
1.23434e-05
1.21003e-05
1.18315e-05
1.1552e-05
1.12716e-05
1.09767e-05
1.06618e-05
1.0338e-05
1.0017e-05
9.68652e-06
9.3413e-06
8.99003e-06
8.64257e-06
8.28642e-06
7.92077e-06
7.55417e-06
7.18821e-06
6.81447e-06
6.43592e-06
6.06002e-06
5.67907e-06
5.29363e-06
4.90996e-06
4.52249e-06
4.13106e-06
3.74031e-06
3.3468e-06
2.95305e-06
2.55912e-06
2.16725e-06
1.782e-06
1.40858e-06
1.0564e-06
7.36221e-07
4.65058e-07
9.58181e-06
9.76729e-06
9.96291e-06
1.01684e-05
1.03841e-05
1.06103e-05
1.08472e-05
1.10948e-05
1.13534e-05
1.16228e-05
1.19028e-05
1.21933e-05
1.24937e-05
1.28038e-05
1.31228e-05
1.34499e-05
1.37842e-05
1.41248e-05
1.44703e-05
1.48195e-05
1.51708e-05
1.55227e-05
1.58734e-05
1.6221e-05
1.65637e-05
1.68991e-05
1.72251e-05
1.75398e-05
1.78407e-05
1.81256e-05
1.83917e-05
1.86362e-05
1.88569e-05
1.90522e-05
1.92208e-05
1.93609e-05
1.94677e-05
1.95382e-05
1.95726e-05
1.95736e-05
1.95444e-05
1.94789e-05
1.93674e-05
1.92147e-05
1.90316e-05
1.88262e-05
1.85881e-05
1.8304e-05
1.7985e-05
1.76504e-05
1.73056e-05
1.6927e-05
1.65137e-05
1.60866e-05
1.56596e-05
1.52138e-05
1.47417e-05
1.4258e-05
1.37789e-05
1.32878e-05
1.27777e-05
1.22599e-05
1.1748e-05
1.12254e-05
1.06908e-05
1.01558e-05
9.62266e-06
9.08048e-06
8.53317e-06
7.99072e-06
7.44351e-06
6.89246e-06
6.3459e-06
5.79727e-06
5.24699e-06
4.70129e-06
4.15689e-06
3.6181e-06
3.08575e-06
2.56601e-06
2.06413e-06
1.59206e-06
1.15896e-06
7.81137e-07
4.77434e-07
1.32578e-05
1.35472e-05
1.38511e-05
1.4169e-05
1.45012e-05
1.48477e-05
1.52086e-05
1.55836e-05
1.59727e-05
1.63755e-05
1.67913e-05
1.72193e-05
1.76588e-05
1.81086e-05
1.85675e-05
1.90341e-05
1.95069e-05
1.9984e-05
2.04636e-05
2.09434e-05
2.14213e-05
2.18949e-05
2.23618e-05
2.28194e-05
2.32649e-05
2.36953e-05
2.4108e-05
2.45003e-05
2.48694e-05
2.52122e-05
2.55253e-05
2.5805e-05
2.60489e-05
2.62555e-05
2.64241e-05
2.65525e-05
2.66335e-05
2.66637e-05
2.66445e-05
2.65813e-05
2.64791e-05
2.63286e-05
2.61162e-05
2.58497e-05
2.55453e-05
2.52139e-05
2.48411e-05
2.44086e-05
2.39321e-05
2.34374e-05
2.29314e-05
2.23831e-05
2.1791e-05
2.11825e-05
2.05752e-05
1.99453e-05
1.92827e-05
1.8606e-05
1.79357e-05
1.72513e-05
1.65435e-05
1.58266e-05
1.51175e-05
1.43961e-05
1.36606e-05
1.29252e-05
1.21933e-05
1.14517e-05
1.07052e-05
9.96644e-06
9.22421e-06
8.48019e-06
7.74479e-06
7.0109e-06
6.28028e-06
5.56098e-06
4.85047e-06
4.15611e-06
3.47966e-06
2.83335e-06
2.22227e-06
1.66751e-06
1.17375e-06
7.64322e-07
4.53928e-07
1.7708e-05
1.81359e-05
1.85829e-05
1.9048e-05
1.95313e-05
2.00323e-05
2.05506e-05
2.10856e-05
2.16367e-05
2.22026e-05
2.27823e-05
2.33742e-05
2.39766e-05
2.45877e-05
2.52055e-05
2.58277e-05
2.6452e-05
2.70758e-05
2.76961e-05
2.83101e-05
2.89148e-05
2.95073e-05
3.00842e-05
3.06424e-05
3.11783e-05
3.16882e-05
3.21692e-05
3.26182e-05
3.3032e-05
3.3407e-05
3.37388e-05
3.40233e-05
3.4258e-05
3.44422e-05
3.45762e-05
3.46577e-05
3.46761e-05
3.46278e-05
3.45162e-05
3.43504e-05
3.41378e-05
3.3865e-05
3.35139e-05
3.30959e-05
3.26333e-05
3.21406e-05
3.15983e-05
3.09835e-05
3.0316e-05
2.96288e-05
2.89298e-05
2.81809e-05
2.738e-05
2.65606e-05
2.57438e-05
2.49011e-05
2.402e-05
2.31225e-05
2.22332e-05
2.13281e-05
2.03956e-05
1.94529e-05
1.852e-05
1.75735e-05
1.66111e-05
1.56498e-05
1.46941e-05
1.37287e-05
1.276e-05
1.18027e-05
1.08446e-05
9.88897e-06
8.94821e-06
8.01517e-06
7.09415e-06
6.19556e-06
5.31788e-06
4.4733e-06
3.66469e-06
2.91153e-06
2.21809e-06
1.61438e-06
1.09497e-06
6.91126e-07
4.03822e-07
2.29501e-05
2.35527e-05
2.41784e-05
2.48253e-05
2.54929e-05
2.61801e-05
2.68857e-05
2.76084e-05
2.83466e-05
2.90984e-05
2.98615e-05
3.06336e-05
3.14121e-05
3.21942e-05
3.29769e-05
3.37572e-05
3.45318e-05
3.52972e-05
3.60498e-05
3.67859e-05
3.75022e-05
3.81948e-05
3.88601e-05
3.94942e-05
4.00928e-05
4.06522e-05
4.11692e-05
4.16408e-05
4.20631e-05
4.24328e-05
4.27441e-05
4.29925e-05
4.31761e-05
4.32956e-05
4.33532e-05
4.33462e-05
4.32595e-05
4.30896e-05
4.28432e-05
4.25336e-05
4.21709e-05
4.17374e-05
4.12093e-05
4.06029e-05
3.99467e-05
3.92586e-05
3.85144e-05
3.76861e-05
3.67982e-05
3.589e-05
3.49705e-05
3.39947e-05
3.29603e-05
3.19058e-05
3.08557e-05
2.97772e-05
2.86556e-05
2.7516e-05
2.63862e-05
2.52393e-05
2.4062e-05
2.28738e-05
2.16973e-05
2.05066e-05
1.92993e-05
1.80949e-05
1.68985e-05
1.56939e-05
1.44893e-05
1.33013e-05
1.21174e-05
1.09435e-05
9.79423e-06
8.66272e-06
7.55725e-06
6.49196e-06
5.46569e-06
4.49715e-06
3.59111e-06
2.77184e-06
2.04408e-06
1.43997e-06
9.39896e-07
5.82265e-07
3.44226e-07
2.89937e-05
2.98055e-05
3.06423e-05
3.15012e-05
3.23807e-05
3.32788e-05
3.41932e-05
3.51216e-05
3.60613e-05
3.70094e-05
3.79626e-05
3.89174e-05
3.98703e-05
4.08176e-05
4.17556e-05
4.26802e-05
4.35877e-05
4.44736e-05
4.53338e-05
4.61642e-05
4.69611e-05
4.77205e-05
4.84382e-05
4.91098e-05
4.97308e-05
5.02974e-05
5.08071e-05
5.12565e-05
5.1642e-05
5.19603e-05
5.2204e-05
5.23686e-05
5.24533e-05
5.24606e-05
5.23956e-05
5.22552e-05
5.20183e-05
5.16821e-05
5.12572e-05
5.0762e-05
5.02098e-05
4.95775e-05
4.8836e-05
4.80066e-05
4.71241e-05
4.62094e-05
4.52339e-05
4.41653e-05
4.30319e-05
4.18789e-05
4.07156e-05
3.94918e-05
3.82044e-05
3.68967e-05
3.5595e-05
3.42632e-05
3.28853e-05
3.14887e-05
3.01035e-05
2.87005e-05
2.72651e-05
2.58194e-05
2.43872e-05
2.29412e-05
2.14796e-05
2.0024e-05
1.85797e-05
1.71311e-05
1.5689e-05
1.42711e-05
1.28657e-05
1.14825e-05
1.01393e-05
8.82976e-06
7.56697e-06
6.37143e-06
5.24019e-06
4.19818e-06
3.25484e-06
2.42925e-06
1.73231e-06
1.18162e-06
7.46309e-07
4.67751e-07
3.0196e-07
3.58439e-05
3.68932e-05
3.79659e-05
3.9058e-05
4.01665e-05
4.12885e-05
4.24203e-05
4.35584e-05
4.46992e-05
4.58386e-05
4.69722e-05
4.80955e-05
4.92044e-05
5.02944e-05
5.13612e-05
5.24002e-05
5.3407e-05
5.43768e-05
5.5305e-05
5.61878e-05
5.70216e-05
5.7802e-05
5.85245e-05
5.91849e-05
5.97783e-05
6.03013e-05
6.07523e-05
6.1128e-05
6.14253e-05
6.1641e-05
6.17657e-05
6.17948e-05
6.17293e-05
6.15747e-05
6.13394e-05
6.10197e-05
6.05873e-05
6.00404e-05
5.93942e-05
5.86728e-05
5.78927e-05
5.70256e-05
5.60372e-05
5.49535e-05
5.38154e-05
5.26464e-05
5.1414e-05
5.00821e-05
4.86828e-05
4.72658e-05
4.58403e-05
4.43518e-05
4.27974e-05
4.12235e-05
3.96575e-05
3.80609e-05
3.64165e-05
3.47545e-05
3.31053e-05
3.14384e-05
2.97392e-05
2.80317e-05
2.63399e-05
2.46362e-05
2.29208e-05
2.12169e-05
1.95296e-05
1.78453e-05
1.61786e-05
1.45487e-05
1.2945e-05
1.13823e-05
9.8832e-06
8.44232e-06
7.07615e-06
5.81498e-06
4.65081e-06
3.60875e-06
2.70981e-06
1.94672e-06
1.35053e-06
8.97336e-07
5.61079e-07
3.88502e-07
3.19445e-07
4.34993e-05
4.48032e-05
4.61242e-05
4.74568e-05
4.87967e-05
5.01396e-05
5.14808e-05
5.28157e-05
5.41395e-05
5.54475e-05
5.67343e-05
5.79947e-05
5.92242e-05
6.04181e-05
6.15716e-05
6.268e-05
6.37387e-05
6.47425e-05
6.56872e-05
6.65696e-05
6.73866e-05
6.81332e-05
6.88052e-05
6.93982e-05
6.99075e-05
7.03306e-05
7.0667e-05
7.09135e-05
7.1068e-05
7.11279e-05
7.108e-05
7.09205e-05
7.06526e-05
7.02855e-05
6.98323e-05
6.92879e-05
6.8616e-05
6.78159e-05
6.69077e-05
6.59217e-05
6.48775e-05
6.37418e-05
6.24762e-05
6.11106e-05
5.96916e-05
5.82444e-05
5.67331e-05
5.51193e-05
5.34382e-05
5.17428e-05
5.00412e-05
4.82762e-05
4.64457e-05
4.45982e-05
4.27605e-05
4.08928e-05
3.89781e-05
3.70484e-05
3.51334e-05
3.3202e-05
3.12412e-05
2.92767e-05
2.73311e-05
2.5378e-05
2.34214e-05
2.1486e-05
1.95765e-05
1.76825e-05
1.58241e-05
1.4023e-05
1.22706e-05
1.05858e-05
8.99799e-06
7.5057e-06
6.12102e-06
4.88586e-06
3.78586e-06
2.82917e-06
2.06334e-06
1.42129e-06
9.8211e-07
6.48347e-07
4.63077e-07
3.90011e-07
3.94393e-07
5.19436e-05
5.35035e-05
5.50682e-05
5.6631e-05
5.81863e-05
5.97286e-05
6.12524e-05
6.27523e-05
6.4223e-05
6.56589e-05
6.70544e-05
6.84041e-05
6.97035e-05
7.0948e-05
7.21331e-05
7.32539e-05
7.43057e-05
7.52837e-05
7.61843e-05
7.70059e-05
7.77458e-05
7.83981e-05
7.89589e-05
7.94242e-05
7.97894e-05
8.00534e-05
8.02173e-05
8.0277e-05
8.02331e-05
8.00832e-05
7.98091e-05
7.9408e-05
7.88857e-05
7.82564e-05
7.75384e-05
7.67252e-05
7.57719e-05
7.46787e-05
7.34708e-05
7.21847e-05
7.08428e-05
6.94079e-05
6.7838e-05
6.61671e-05
6.44461e-05
6.27008e-05
6.08929e-05
5.89831e-05
5.70092e-05
5.50259e-05
5.30389e-05
5.09905e-05
4.888e-05
4.67572e-05
4.46465e-05
4.25077e-05
4.03258e-05
3.81338e-05
3.5959e-05
3.37715e-05
3.15614e-05
2.93563e-05
2.71758e-05
2.49966e-05
2.2828e-05
2.0697e-05
1.86095e-05
1.65575e-05
1.45678e-05
1.26673e-05
1.08519e-05
9.1376e-06
7.56027e-06
6.1318e-06
4.841e-06
3.73626e-06
2.80601e-06
2.00928e-06
1.44689e-06
9.52331e-07
7.09521e-07
5.5198e-07
4.61246e-07
4.59612e-07
4.70324e-07
6.11345e-05
6.29317e-05
6.47153e-05
6.64775e-05
6.82118e-05
6.99121e-05
7.15725e-05
7.31872e-05
7.47509e-05
7.62579e-05
7.77023e-05
7.90793e-05
8.0385e-05
8.16158e-05
8.27669e-05
8.38338e-05
8.48121e-05
8.56973e-05
8.64874e-05
8.71833e-05
8.77821e-05
8.8276e-05
8.86624e-05
8.89377e-05
8.9097e-05
8.91415e-05
8.90739e-05
8.88888e-05
8.85908e-05
8.81784e-05
8.76256e-05
8.69307e-05
8.61034e-05
8.51633e-05
8.41349e-05
8.30104e-05
8.17365e-05
8.03138e-05
7.87723e-05
7.71545e-05
7.54849e-05
7.37233e-05
7.18262e-05
6.98308e-05
6.77912e-05
6.5733e-05
6.36155e-05
6.14009e-05
5.91288e-05
5.68537e-05
5.45781e-05
5.22455e-05
4.98578e-05
4.74646e-05
4.50866e-05
4.2685e-05
4.02483e-05
3.78099e-05
3.53928e-05
3.29699e-05
3.05376e-05
2.8125e-05
2.57489e-05
2.33899e-05
2.10637e-05
1.88014e-05
1.6614e-05
1.44939e-05
1.24713e-05
1.05806e-05
8.83135e-06
7.21707e-06
5.77305e-06
4.54535e-06
3.46812e-06
2.57785e-06
1.90191e-06
1.30103e-06
9.7934e-07
7.30087e-07
6.15052e-07
5.66255e-07
5.30315e-07
5.27939e-07
5.31296e-07
7.09896e-05
7.2983e-05
7.49387e-05
7.68481e-05
7.87046e-05
8.0502e-05
8.22348e-05
8.38975e-05
8.5485e-05
8.69918e-05
8.84126e-05
8.97437e-05
9.0983e-05
9.21273e-05
9.31718e-05
9.41122e-05
9.49447e-05
9.56656e-05
9.62759e-05
9.67793e-05
9.7171e-05
9.74407e-05
9.75885e-05
9.76107e-05
9.75023e-05
9.72671e-05
9.69092e-05
9.6421e-05
9.58143e-05
9.50881e-05
9.42063e-05
9.31681e-05
9.19871e-05
9.06896e-05
8.93071e-05
8.78305e-05
8.61997e-05
8.44152e-05
8.25112e-05
8.05351e-05
7.85127e-05
7.64016e-05
7.4159e-05
7.18254e-05
6.94567e-05
6.70763e-05
6.46426e-05
6.21208e-05
5.95523e-05
5.69895e-05
5.44299e-05
5.18208e-05
4.91678e-05
4.65188e-05
4.389e-05
4.12459e-05
3.8581e-05
3.5928e-05
3.33046e-05
3.0688e-05
2.80834e-05
2.55228e-05
2.30228e-05
2.05676e-05
1.81771e-05
1.58884e-05
1.37246e-05
1.16771e-05
9.7652e-06
8.02648e-06
6.50624e-06
5.14212e-06
3.94908e-06
3.03736e-06
2.26261e-06
1.61174e-06
1.23881e-06
9.35497e-07
7.8573e-07
6.68527e-07
6.41019e-07
6.16208e-07
5.90581e-07
5.8052e-07
5.7419e-07
8.13736e-05
8.34989e-05
8.55575e-05
8.75412e-05
8.94439e-05
9.12603e-05
9.29856e-05
9.46153e-05
9.61448e-05
9.75692e-05
9.88842e-05
0.000100088
0.000101182
0.000102162
0.000103022
0.00010376
0.000104371
0.000104854
0.000105214
0.000105458
0.000105576
0.000105555
0.000105401
0.000105108
0.000104671
0.000104097
0.000103391
0.000102542
0.000101573
0.000100485
9.92274e-05
9.77997e-05
9.622e-05
9.45219e-05
9.2744e-05
9.08769e-05
8.8856e-05
8.66821e-05
8.43928e-05
8.20388e-05
7.9645e-05
7.71684e-05
7.45694e-05
7.18915e-05
6.91911e-05
6.64874e-05
6.37391e-05
6.09169e-05
5.80641e-05
5.5228e-05
5.24013e-05
4.95372e-05
4.6646e-05
4.37718e-05
4.09255e-05
3.8079e-05
3.52351e-05
3.24263e-05
2.96648e-05
2.6932e-05
2.4243e-05
2.16347e-05
1.91297e-05
1.67191e-05
1.44135e-05
1.22538e-05
1.02797e-05
8.49507e-06
6.86979e-06
5.42932e-06
4.28404e-06
3.29676e-06
2.41915e-06
1.86395e-06
1.44629e-06
1.1371e-06
9.52054e-07
8.05832e-07
7.65959e-07
7.06004e-07
6.78713e-07
6.5666e-07
6.3348e-07
6.18191e-07
6.07526e-07
9.20861e-05
9.42566e-05
9.63286e-05
9.82952e-05
0.000100152
0.000101894
0.00010352
0.000105025
0.000106405
0.000107656
0.000108776
0.000109768
0.000110634
0.000111369
0.000111966
0.000112422
0.000112735
0.000112906
0.000112946
0.000112867
0.000112646
0.000112269
0.000111751
0.000111083
0.000110259
0.000109289
0.000108178
0.000106913
0.000105531
0.000104035
0.000102361
0.000100504
9.84865e-05
9.63501e-05
9.41399e-05
9.1847e-05
8.9407e-05
8.68216e-05
8.41315e-05
8.13885e-05
7.86147e-05
7.57669e-05
7.2812e-05
6.9796e-05
6.6773e-05
6.37571e-05
6.07088e-05
5.76076e-05
5.44976e-05
5.14191e-05
4.83612e-05
4.52867e-05
4.22108e-05
3.91702e-05
3.61712e-05
3.31966e-05
3.02603e-05
2.73969e-05
2.46191e-05
2.19076e-05
1.92823e-05
1.67841e-05
1.44471e-05
1.22903e-05
1.02785e-05
8.44291e-06
6.82085e-06
5.49416e-06
4.31386e-06
3.26001e-06
2.54054e-06
2.00289e-06
1.56804e-06
1.30946e-06
1.09713e-06
9.57137e-07
8.92226e-07
8.14599e-07
7.77888e-07
7.35524e-07
7.07414e-07
6.8543e-07
6.66176e-07
6.53465e-07
6.49773e-07
0.000102851
0.00010496
0.000106938
0.000108781
0.000110485
0.000112051
0.000113476
0.000114757
0.00011589
0.000116872
0.000117705
0.000118398
0.000118956
0.000119366
0.000119617
0.000119714
0.000119654
0.00011944
0.000119096
0.000118635
0.00011801
0.000117214
0.000116278
0.00011518
0.000113915
0.000112496
0.000110927
0.000109192
0.000107347
0.000105402
0.000103278
0.000100963
9.84791e-05
9.58764e-05
9.32048e-05
9.04575e-05
8.75749e-05
8.45628e-05
8.14653e-05
7.83334e-05
7.51838e-05
7.19751e-05
6.8683e-05
6.53547e-05
6.20391e-05
5.87434e-05
5.5433e-05
5.20986e-05
4.87837e-05
4.55212e-05
4.22998e-05
3.90973e-05
3.59347e-05
3.2839e-05
2.9809e-05
2.684e-05
2.39572e-05
2.12009e-05
1.86006e-05
1.61325e-05
1.37957e-05
1.16247e-05
9.65397e-06
7.98467e-06
6.48944e-06
5.15152e-06
3.94038e-06
3.18637e-06
2.54729e-06
2.02821e-06
1.69447e-06
1.42108e-06
1.21361e-06
1.11697e-06
1.01238e-06
9.32792e-07
8.76847e-07
8.23595e-07
7.88424e-07
7.5529e-07
7.31352e-07
7.13939e-07
7.0619e-07
7.12275e-07
7.5603e-07
0.000113305
0.00011523
0.000116993
0.000118594
0.000120034
0.000121315
0.000122433
0.000123386
0.000124171
0.000124787
0.000125241
0.000125554
0.000125731
0.000125735
0.000125564
0.000125228
0.000124723
0.000124057
0.000123272
0.000122382
0.000121291
0.000120018
0.000118616
0.000117044
0.000115293
0.000113379
0.000111306
0.000109054
0.0001067
0.000104265
0.000101665
9.88771e-05
9.59176e-05
9.28381e-05
8.96917e-05
8.64743e-05
8.31375e-05
7.96953e-05
7.61967e-05
7.26901e-05
6.91865e-05
6.56495e-05
6.20663e-05
5.84835e-05
5.49413e-05
5.1439e-05
4.79488e-05
4.44729e-05
4.10525e-05
3.77132e-05
3.44489e-05
3.12577e-05
2.81719e-05
2.52187e-05
2.23726e-05
1.96349e-05
1.70336e-05
1.46097e-05
1.24153e-05
1.04805e-05
8.70127e-06
7.08284e-06
5.60086e-06
4.54728e-06
3.71163e-06
3.00673e-06
2.44834e-06
2.07142e-06
1.74631e-06
1.49915e-06
1.36178e-06
1.23253e-06
1.1188e-06
1.045e-06
9.71495e-07
9.14628e-07
8.68547e-07
8.29666e-07
8.01462e-07
7.78791e-07
7.66943e-07
7.6396e-07
7.94492e-07
8.47185e-07
9.30208e-07
0.000122991
0.000124598
0.000126018
0.000127254
0.000128314
0.000129202
0.000129909
0.000130433
0.000130771
0.000130925
0.000130916
0.000130785
0.00013052
0.000130045
0.00012938
0.000128548
0.000127535
0.00012636
0.000125091
0.000123742
0.000122128
0.000120328
0.000118431
0.000116357
0.00011409
0.000111649
0.000109034
0.000106231
0.000103326
0.000100361
9.72625e-05
9.40039e-05
9.05878e-05
8.70532e-05
8.34491e-05
7.97754e-05
7.60015e-05
7.21527e-05
6.82832e-05
6.44395e-05
6.06295e-05
5.68278e-05
5.3037e-05
4.93027e-05
4.56569e-05
4.20948e-05
3.85895e-05
3.51497e-05
3.18106e-05
2.85904e-05
2.54904e-05
2.25259e-05
1.97438e-05
1.72092e-05
1.48694e-05
1.2679e-05
1.06508e-05
8.78628e-06
7.10588e-06
5.94721e-06
4.92894e-06
4.05663e-06
3.34182e-06
2.83125e-06
2.39929e-06
2.04488e-06
1.78377e-06
1.62604e-06
1.46105e-06
1.32348e-06
1.22536e-06
1.13306e-06
1.05653e-06
9.97988e-07
9.45581e-07
9.04695e-07
8.72162e-07
8.47693e-07
8.3381e-07
8.28413e-07
8.49635e-07
8.92321e-07
9.59797e-07
1.04775e-06
1.15935e-06
0.000131353
0.000132506
0.000133452
0.000134205
0.000134784
0.000135182
0.000135382
0.000135383
0.000135185
0.000134793
0.000134254
0.000133647
0.000132904
0.000131882
0.000130668
0.000129296
0.000127731
0.000126005
0.000124229
0.000122425
0.000120241
0.000117872
0.000115472
0.000112902
0.000110117
0.000107142
0.000103971
0.000100606
9.71208e-05
9.35803e-05
8.995e-05
8.6227e-05
8.24127e-05
7.85015e-05
7.45179e-05
7.04665e-05
6.63368e-05
6.21668e-05
5.80155e-05
5.3927e-05
4.99116e-05
4.59612e-05
4.20956e-05
3.83623e-05
3.47947e-05
3.14034e-05
2.81759e-05
2.50826e-05
2.21432e-05
1.93663e-05
1.67498e-05
1.42949e-05
1.20135e-05
1.01054e-05
8.60963e-06
7.26876e-06
6.09295e-06
5.09185e-06
4.2877e-06
3.66369e-06
3.12032e-06
2.67099e-06
2.32412e-06
2.08819e-06
1.87916e-06
1.68438e-06
1.53034e-06
1.41056e-06
1.29868e-06
1.20698e-06
1.13378e-06
1.0694e-06
1.01731e-06
9.7624e-07
9.43147e-07
9.19465e-07
9.05364e-07
9.01083e-07
9.19943e-07
9.58321e-07
1.01624e-06
1.09199e-06
1.18607e-06
1.29685e-06
1.42481e-06
0.000137753
0.000138323
0.000138677
0.000138851
0.000138879
0.000138717
0.000138332
0.000137741
0.000136939
0.000135932
0.000134827
0.000133788
0.000132571
0.000130938
0.000129153
0.000127237
0.000125107
0.000122811
0.00012053
0.000118343
0.000115558
0.000112582
0.000109694
0.000106696
0.000103448
9.99804e-05
9.62909e-05
9.23962e-05
8.83568e-05
8.42069e-05
7.99804e-05
7.57462e-05
7.15843e-05
6.7461e-05
6.32828e-05
5.90496e-05
5.47723e-05
5.04969e-05
4.62824e-05
4.217e-05