/*--------------------------------*- C++ -*----------------------------------*\
| =========                 |                                                 |
| \\      /  F ield         | OpenFOAM: The Open Source CFD Toolbox           |
|  \\    /   O peration     | Version:  2412                                  |
|   \\  /    A nd           | Website:  www.openfoam.com                      |
|    \\/     M anipulation  |                                                 |
\*---------------------------------------------------------------------------*/
FoamFile
{
    version     2.0;
    format      ascii;
    arch        "LSB;label=32;scalar=64";
    class       volScalarField;
    location    "320";
    object      p;
}
// * * * * * * * * * * * * * * * * * * * * * * * * * * * * * * * * * * * * * //

dimensions      [0 2 -2 0 0 0 0];

internalField   nonuniform List<scalar> 
7373
(
65.4355
66.1526
66.945
67.8222
68.7842
69.8369
70.9723
72.1941
73.523
74.9669
76.5348
78.2237
80.0271
81.9724
84.0847
86.3689
88.8124
91.4305
94.2744
97.3402
100.629
104.16
107.98
112.094
116.51
121.253
126.38
131.879
137.779
144.135
150.958
158.285
166.149
174.584
183.631
193.327
203.715
214.838
226.743
239.481
253.103
267.663
283.224
299.845
317.595
336.544
356.766
378.344
401.361
425.891
452.061
479.898
509.511
540.968
574.256
609.305
645.875
683.479
721.148
757.01
787.485
806.059
798.499
746.177
602.333
280.36
-306.951
-1368.4
65.4355
66.1526
66.945
67.8222
68.7842
69.8369
70.9723
72.1941
73.523
74.9669
76.5347
78.2237
80.0271
81.9724
84.0847
86.3689
88.8124
91.4305
94.2744
97.3402
100.629
104.16
107.98
112.094
116.51
121.253
126.38
131.879
137.779
144.135
150.958
158.285
166.149
174.584
183.631
193.327
203.715
214.838
226.743
239.481
253.103
267.663
283.224
299.845
317.595
336.544
356.766
378.344
401.361
425.891
452.061
479.898
509.511
540.968
574.256
609.305
645.875
683.479
721.147
757.01
787.484
806.058
798.498
746.173
602.328
280.359
-306.938
-1368.32
65.4355
66.1526
66.945
67.8222
68.7842
69.8369
70.9723
72.1941
73.523
74.9669
76.5348
78.2237
80.0271
81.9724
84.0847
86.3689
88.8124
91.4305
94.2744
97.3402
100.629
104.16
107.98
112.094
116.51
121.253
126.38
131.879
137.779
144.135
150.958
158.285
166.149
174.584
183.631
193.327
203.715
214.838
226.743
239.481
253.103
267.663
283.223
299.845
317.595
336.544
356.766
378.344
401.361
425.89
452.061
479.898
509.511
540.968
574.256
609.305
645.875
683.479
721.147
757.009
787.484
806.057
798.495
746.168
602.317
280.344
-306.954
-1368.25
65.4355
66.1526
66.9451
67.8222
68.7842
69.8369
70.9723
72.1941
73.523
74.9669
76.5348
78.2238
80.0271
81.9724
84.0848
86.3689
88.8124
91.4305
94.2744
97.3403
100.629
104.16
107.98
112.094
116.51
121.253
126.38
131.879
137.779
144.135
150.958
158.285
166.149
174.584
183.632
193.327
203.715
214.838
226.743
239.481
253.103
267.663
283.224
299.845
317.595
336.544
356.766
378.344
401.361
425.891
452.061
479.898
509.511
540.968
574.256
609.305
645.875
683.479
721.147
757.009
787.483
806.055
798.492
746.162
602.304
280.328
-306.95
-1368.09
65.4356
66.1526
66.9451
67.8222
68.7842
69.837
70.9724
72.1942
73.523
74.9669
76.5348
78.2238
80.0272
81.9725
84.0848
86.369
88.8125
91.4305
94.2744
97.3403
100.629
104.16
107.98
112.094
116.51
121.253
126.38
131.879
137.779
144.135
150.958
158.285
166.15
174.585
183.632
193.327
203.715
214.838
226.743
239.481
253.103
267.663
283.224
299.846
317.595
336.544
356.766
378.344
401.362
425.891
452.061
479.898
509.511
540.968
574.256
609.305
645.875
683.479
721.147
757.009
787.483
806.054
798.489
746.155
602.293
280.331
-306.878
-1367.72
65.4356
66.1527
66.9452
67.8223
68.7843
69.837
70.9725
72.1943
73.5231
74.967
76.5349
78.2239
80.0272
81.9726
84.0849
86.3691
88.8126
91.4306
94.2745
97.3404
100.63
104.16
107.98
112.094
116.51
121.253
126.38
131.879
137.779
144.135
150.958
158.286
166.15
174.585
183.632
193.327
203.715
214.838
226.743
239.481
253.103
267.664
283.224
299.846
317.595
336.544
356.766
378.344
401.362
425.891
452.062
479.898
509.512
540.968
574.257
609.306
645.876
683.48
721.148
757.009
787.482
806.052
798.486
746.149
602.287
280.364
-306.732
-1367.07
65.4358
66.1528
66.9453
67.8224
68.7844
69.8372
70.9726
72.1944
73.5232
74.9672
76.5351
78.224
80.0274
81.9727
84.0851
86.3693
88.8128
91.4308
94.2747
97.3406
100.63
104.16
107.98
112.094
116.51
121.254
126.38
131.879
137.78
144.135
150.958
158.286
166.15
174.585
183.632
193.328
203.716
214.839
226.744
239.482
253.104
267.664
283.224
299.846
317.596
336.545
356.767
378.345
401.362
425.892
452.062
479.899
509.512
540.969
574.257
609.307
645.877
683.481
721.149
757.01
787.482
806.051
798.483
746.144
602.291
280.443
-306.504
-1366.02
65.436
66.153
66.9455
67.8226
68.7847
69.8374
70.9728
72.1946
73.5235
74.9674
76.5353
78.2243
80.0277
81.973
84.0854
86.3696
88.8131
91.4312
94.2751
97.341
100.63
104.161
107.981
112.095
116.51
121.254
126.381
131.88
137.78
144.136
150.959
158.287
166.151
174.586
183.633
193.328
203.717
214.839
226.745
239.483
253.105
267.665
283.225
299.847
317.596
336.546
356.768
378.346
401.363
425.893
452.063
479.9
509.513
540.97
574.259
609.308
645.878
683.482
721.15
757.011
787.482
806.049
798.479
746.14
602.307
280.582
-306.111
-1364.44
65.4363
66.1534
66.9458
67.823
68.785
69.8378
70.9732
72.195
73.5239
74.9678
76.5357
78.2248
80.0281
81.9735
84.0859
86.3701
88.8136
91.4317
94.2757
97.3416
100.631
104.161
107.981
112.095
116.511
121.255
126.382
131.881
137.781
144.137
150.96
158.287
166.152
174.587
183.634
193.33
203.718
214.841
226.746
239.484
253.106
267.666
283.227
299.849
317.598
336.547
356.77
378.347
401.365
425.894
452.065
479.902
509.515
540.972
574.261
609.31
645.88
683.484
721.152
757.012
787.483
806.047
798.475
746.14
602.341
280.795
-305.494
-1362.22
65.4368
66.1539
66.9464
67.8235
68.7856
69.8383
70.9738
72.1956
73.5245
74.9685
76.5364
78.2254
80.0288
81.9742
84.0866
86.3708
88.8144
91.4325
94.2765
97.3425
100.632
104.162
107.982
112.096
116.512
121.256
126.383
131.882
137.782
144.138
150.961
158.289
166.153
174.588
183.636
193.331
203.72
214.842
226.748
239.486
253.108
267.669
283.229
299.851
317.6
336.55
356.772
378.35
401.368
425.897
452.068
479.905
509.518
540.975
574.264
609.313
645.884
683.488
721.156
757.015
787.484
806.045
798.472
746.143
602.397
281.093
-304.674
-1359.26
-2439.3
65.4375
66.1546
66.9471
67.8243
68.7863
69.8391
70.9746
72.1965
73.5254
74.9693
76.5373
78.2264
80.0298
81.9752
84.0876
86.3719
88.8155
91.4337
94.2777
97.3437
100.633
104.164
107.984
112.098
116.514
121.258
126.385
131.884
137.784
144.14
150.963
158.291
166.155
174.591
183.638
193.334
203.722
214.845
226.751
239.489
253.111
267.672
283.232
299.855
317.604
336.554
356.776
378.354
401.372
425.901
452.072
479.909
509.523
540.98
574.269
609.319
645.889
683.493
721.161
757.019
787.485
806.043
798.468
746.15
602.478
281.495
-303.667
-1355.49
-2433.76
-3341.73
65.4385
66.1556
66.9481
67.8253
68.7874
69.8402
70.9757
72.1976
73.5265
74.9705
76.5385
78.2276
80.0311
81.9765
84.089
86.3734
88.817
91.4353
94.2794
97.3454
100.635
104.166
107.986
112.1
116.516
121.26
126.387
131.886
137.787
144.142
150.966
158.294
166.158
174.594
183.641
193.337
203.726
214.849
226.755
239.493
253.115
267.676
283.237
299.859
317.609
336.559
356.781
378.36
401.378
425.907
452.078
479.916
509.529
540.987
574.276
609.326
645.897
683.501
721.168
757.025
787.488
806.04
798.464
746.163
602.587
282.029
-302.458
-1350.9
-2426.98
-3334.04
-3892.13
65.4398
66.1569
66.9494
67.8266
68.7887
69.8416
70.9771
72.199
73.528
74.9721
76.5401
78.2292
80.0328
81.9783
84.0908
86.3752
88.819
91.4373
94.2815
97.3476
100.637
104.168
107.988
112.102
116.519
121.263
126.39
131.889
137.79
144.146
150.969
158.298
166.162
174.598
183.645
193.342
203.73
214.854
226.76
239.498
253.121
267.682
283.243
299.866
317.616
336.566
356.789
378.367
401.386
425.915
452.087
479.925
509.539
540.996
574.286
609.337
645.908
683.512
721.178
757.033
787.491
806.037
798.46
746.181
602.726
282.715
-301.031
-1345.47
-2418.83
-3324.81
-3884.13
65.4413
66.1585
66.951
67.8283
68.7904
69.8433
70.9789
72.2009
73.5299
74.974
76.5421
78.2313
80.0349
81.9805
84.0931
86.3776
88.8214
91.4398
94.2841
97.3504
100.64
104.171
107.991
112.106
116.522
121.266
126.394
131.893
137.794
144.15
150.974
158.302
166.167
174.603
183.651
193.347
203.736
214.86
226.766
239.505
253.128
267.69
283.251
299.874
317.624
336.575
356.798
378.377
401.396
425.926
452.098
479.937
509.551
541.01
574.3
609.351
645.923
683.527
721.192
757.044
787.496
806.034
798.455
746.204
602.894
283.546
-299.392
-1339.17
-2409.2
-3314.01
-3874.27
65.4433
66.1605
66.953
67.8303
68.7925
69.8454
70.9811
72.2031
73.5322
74.9764
76.5445
78.2338
80.0375
81.9832
84.0959
86.3805
88.8245
91.443
94.2874
97.3538
100.643
104.175
107.995
112.11
116.526
121.271
126.398
131.898
137.799
144.155
150.979
158.308
166.173
174.609
183.658
193.354
203.744
214.868
226.774
239.514
253.137
267.699
283.261
299.885
317.636
336.587
356.811
378.39
401.41
425.941
452.113
479.952
509.568
541.027
574.318
609.37
645.942
683.546
721.209
757.057
787.502
806.029
798.45
746.231
603.09
284.505
-297.529
-1331.99
-2398.06
-3301.54
-3862.5
65.4456
66.1629
66.9555
67.8328
68.7951
69.848
70.9837
72.2058
73.535
74.9793
76.5475
78.2369
80.0407
81.9865
84.0994
86.3841
88.8281
91.4468
94.2914
97.358
100.648
104.179
108
112.115
116.531
121.276
126.404
131.904
137.805
144.162
150.986
158.315
166.181
174.617
183.666
193.363
203.753
214.877
226.784
239.524
253.149
267.711
283.274
299.898
317.649
336.601
356.826
378.407
401.427
425.959
452.133
479.973
509.59
541.05
574.343
609.395
645.968
683.571
721.232
757.074
787.508
806.024
798.443
746.261
603.313
285.577
-295.413
-1323.86
-2385.37
-3287.29
-3848.84
65.4485
66.1657
66.9584
67.8358
68.7981
69.8512
70.9869
72.2091
73.5384
74.9828
76.5511
78.2406
80.0446
81.9905
84.1035
86.3884
88.8326
91.4515
94.2962
97.363
100.653
104.185
108.006
112.121
116.538
121.282
126.411
131.911
137.813
144.17
150.994
158.324
166.19
174.627
183.676
193.374
203.764
214.889
226.797
239.538
253.162
267.726
283.289
299.914
317.667
336.62
356.845
378.427
401.449
425.982
452.157
479.999
509.617
541.08
574.373
609.428
646.001
683.603
721.26
757.094
787.516
806.017
798.433
746.294
603.562
286.753
-293.011
-1314.75
-2371.11
-3271.13
-3833.16
65.4519
66.1692
66.9619
67.8394
68.8018
69.8549
70.9908
72.2131
73.5425
74.987
76.5555
78.2451
80.0492
81.9953
84.1085
86.3935
88.838
91.4571
94.302
97.3691
100.659
104.191
108.013
112.128
116.545
121.29
126.419
131.92
137.822
144.179
151.004
158.334
166.201
174.638
183.688
193.386
203.777
214.903
226.812
239.553
253.179
267.743
283.308
299.934
317.688
336.642
356.869
378.452
401.475
426.011
452.188
480.032
509.652
541.117
574.412
609.468
646.041
683.641
721.293
757.117
787.525
806.007
798.421
746.329
603.836
288.042
-290.296
-1304.56
-2355.19
-3252.91
-3815.3
65.4559
66.1733
66.9661
67.8437
68.8062
69.8594
70.9954
72.2178
73.5473
74.992
76.5606
78.2505
80.0547
82.001
84.1144
86.3997
88.8444
91.4637
94.309
97.3763
100.667
104.199
108.021
112.137
116.554
121.3
126.429
131.93
137.833
144.191
151.016
158.347
166.214
174.652
183.703
193.402
203.794
214.921
226.83
239.573
253.199
267.765
283.33
299.958
317.713
336.669
356.898
378.483
401.508
426.046
452.225
480.072
509.696
541.162
574.461
609.517
646.09
683.687
721.332
757.144
787.534
805.995
798.405
746.363
604.136
289.462
-287.238
-1293.2
-2337.43
-3232.51
-3795.1
65.4607
66.1782
66.9711
67.8488
68.8114
69.8648
71.0009
72.2234
73.5531
74.9979
76.5668
78.2568
80.0613
82.0078
84.1215
86.407
88.852
91.4717
94.3173
97.3849
100.676
104.209
108.031
112.147
116.565
121.311
126.441
131.942
137.846
144.204
151.031
158.362
166.23
174.669
183.72
193.42
203.813
214.941
226.852
239.596
253.224
267.791
283.358
299.987
317.744
336.702
356.933
378.521
401.549
426.089
452.272
480.122
509.749
541.219
574.519
609.577
646.148
683.741
721.376
757.174
787.542
805.98
798.383
746.396
604.465
291.023
-283.795
-1280.52
-2317.62
-3209.73
-3772.43
62.1735
62.3612
62.6078
62.9173
63.2928
63.7335
64.2431
64.8197
65.4664
66.1841
66.9771
67.8548
68.8175
69.8711
71.0074
72.2301
73.5599
75.005
76.5741
78.2644
80.0691
82.0159
84.1299
86.4158
88.8611
91.4811
94.3271
97.3952
100.687
104.22
108.042
112.159
116.578
121.324
126.455
131.957
137.861
144.221
151.048
158.38
166.249
174.689
183.741
193.442
203.836
214.966
226.878
239.623
253.253
267.822
283.391
300.022
317.782
336.742
356.976
378.566
401.597
426.141
452.328
480.182
509.813
541.287
574.589
609.647
646.216
683.802
721.427
757.207
787.551
805.959
798.354
746.426
604.823
292.737
-279.92
-1266.42
-2295.59
-3184.33
-3747.11
62.1798
62.3675
62.6141
62.9236
63.2992
63.74
64.2497
64.8263
65.4732
66.1909
66.9841
67.862
68.8249
69.8786
71.0151
72.238
73.5681
75.0134
76.5827
78.2733
80.0784
82.0255
84.1398
86.4261
88.8718
91.4923
94.3388
97.4074
100.699
104.233
108.056
112.174
116.593
121.34
126.471
131.975
137.879
144.24
151.068
158.401
166.271
174.713
183.766
193.469
203.864
214.995
226.909
239.656
253.288
267.859
283.43
300.064
317.826
336.789
357.027
378.621
401.656
426.204
452.396
480.255
509.89
541.367
574.671
609.728
646.292
683.87
721.482
757.243
787.558
805.933
798.316
746.452
605.211
294.624
-275.553
-1250.76
-2271.1
-3156.01
-3718.86
62.1872
62.3749
62.6216
62.9311
63.3068
63.7476
64.2574
64.8342
65.4812
66.1991
66.9923
67.8704
68.8335
69.8874
71.0241
72.2473
73.5777
75.0233
76.593
78.2839
80.0893
82.0369
84.1516
86.4384
88.8846
91.5056
94.3526
97.4218
100.714
104.249
108.073
112.191
116.611
121.359
126.491
131.995
137.901
144.263
151.092
158.427
166.298
174.741
183.796
193.5
203.898
215.03
226.946
239.696
253.33
267.903
283.477
300.114
317.88
336.847
357.088
378.686
401.726
426.28
452.477
480.342
509.981
541.461
574.765
609.819
646.379
683.947
721.544
757.281
787.563
805.899
798.267
746.471
605.631
296.694
-270.625
-1233.39
-2243.96
-3124.52
-3687.37
62.1958
62.3836
62.6304
62.94
63.3157
63.7566
64.2665
64.8435
65.4907
66.2087
67.0021
67.8804
68.8437
69.8979
71.0349
72.2584
73.589
75.035
76.605
78.2964
80.1022
82.0503
84.1656
86.4529
88.8996
91.5213
94.369
97.4389
100.732
104.267
108.092
112.211
116.632
121.382
126.515
132.02
137.927
144.29
151.121
158.457
166.33
174.774
183.831
193.538
203.937
215.072
226.99
239.742
253.379
267.956
283.534
300.174
317.944
336.915
357.161
378.765
401.811
426.37
452.574
480.443
510.086
541.567
574.871
609.922
646.475
684.033
721.611
757.321
787.564
805.855
798.205
746.481
606.085
298.931
-265.062
-1214.18
-2213.92
-3089.54
-3652.29
62.206
62.3939
62.6408
62.9504
63.3263
63.7673
64.2773
64.8544
65.5018
66.22
67.0136
67.8922
68.8557
69.9102
71.0475
72.2714
73.6024
75.0488
76.6193
78.3111
80.1175
82.0661
84.182
86.47
88.9174
91.5399
94.3883
97.4591
100.753
104.29
108.115
112.235
116.658
121.408
126.543
132.049
137.958
144.323
151.155
158.493
166.368
174.814
183.873
193.582
203.984
215.122
227.043
239.798
253.439
268.019
283.601
300.246
318.02
336.996
357.248
378.858
401.911
426.478
452.687
480.558
510.209
541.688
574.99
610.037
646.583
684.127
721.684
757.362
787.561
805.798
798.124
746.477
606.571
301.346
-258.792
-1192.99
-2180.76
-3050.78
-3613.31
62.218
62.406
62.653
62.9627
63.3386
63.7798
64.29
64.8673
65.5149
66.2333
67.0272
67.906
68.8699
69.9247
71.0625
72.2867
73.6182
75.0651
76.6361
78.3285
80.1355
82.0848
84.2014
86.4902
88.9385
91.5618
94.4112
97.4829
100.778
104.316
108.143
112.264
116.688
121.44
126.576
132.084
137.994
144.361
151.195
158.535
166.412
174.861
183.923
193.635
204.04
215.181
227.105
239.865
253.509
268.094
283.68
300.331
318.111
337.093
357.352
378.97
402.029
426.604
452.814
480.689
510.347
541.822
575.124
610.166
646.702
684.23
721.763
757.404
787.551
805.726
798.021
746.455
607.089
303.993
-251.746
-1169.71
-2144.25
-3007.93
-3570.13
62.2321
62.4203
62.6673
62.9771
63.3532
63.7945
64.3049
64.8825
65.5303
66.249
67.0432
67.9223
68.8866
69.9418
71.08
72.3048
73.6368
75.0843
76.656
78.3491
80.1568
82.1069
84.2244
86.514
88.9633
91.5876
94.4381
97.5111
100.808
104.346
108.175
112.298
116.723
121.477
126.615
132.125
138.038
144.406
151.243
158.586
166.466
174.917
183.982
193.697
204.106
215.251
227.18
239.943
253.593
268.183
283.775
300.431
318.218
337.208
357.475
379.1
402.168
426.75
452.955
480.841
510.498
541.973
575.272
610.309
646.834
684.344
721.848
757.445
787.532
805.633
797.89
746.409
607.637
306.892
-243.843
-1144.24
-2104.18
-2960.71
-3522.54
62.2487
62.437
62.6841
62.9941
63.3703
63.8118
64.3224
64.9003
65.5485
66.2674
67.062
67.9415
68.9062
69.962
71.1007
72.326
73.6587
75.1069
76.6793
78.3732
80.1818
82.1328
84.2514
86.5421
88.9925
91.6181
94.4699
97.5443
100.843
104.383
108.213
112.338
116.765
121.521
126.661
132.174
138.089
144.46
151.3
158.645
166.528
174.984
184.052
193.771
204.184
215.334
227.268
240.037
253.692
268.288
283.887
300.551
318.345
337.344
357.619
379.252
402.325
426.914
453.115
481.01
510.666
542.142
575.438
610.467
646.979
684.467
721.938
757.484
787.5
805.514
797.723
746.329
608.211
310.058
-234.995
-1116.49
-2060.53
-2908.7
-3470.14
62.2681
62.4566
62.7039
63.014
63.3904
63.8321
64.343
64.9213
65.5698
66.2891
67.0841
67.9641
68.9293
69.9857
71.1251
72.3511
73.6844
75.1335
76.7068
78.4017
80.2113
82.1635
84.2832
86.5752
89.027
91.6541
94.5075
97.5836
100.884
104.426
108.258
112.385
116.815
121.573
126.715
132.231
138.149
144.523
151.367
158.716
166.603
175.062
184.135
193.859
204.277
215.432
227.372
240.147
253.809
268.412
284.019
300.692
318.495
337.502
357.785
379.424
402.501
427.095
453.299
481.197
510.855
542.33
575.622
610.642
647.138
684.601
722.031
757.517
787.45
805.362
797.511
746.206
608.803
313.505
-225.11
-1086.4
-2013.39
-2851.28
-3412.35
62.2909
62.4795
62.727
63.0373
63.414
63.856
64.3672
64.9459
65.5949
66.3145
67.11
67.9906
68.9565
70.0135
71.1537
72.3805
73.7148
75.1648
76.7392
78.4352
80.2461
82.1995
84.3207
86.6143
89.0676
91.6965
94.5517
97.6298
100.932
104.476
108.311
112.441
116.873
121.634
126.78
132.299
138.22
144.599
151.446
158.799
166.691
175.155
184.234
193.963
204.387
215.548
227.495
240.277
253.947
268.559
284.175
300.857
318.669
337.684
357.972
379.616
402.698
427.297
453.505
481.406
511.065
542.539
575.826
610.835
647.312
684.744
722.127
757.543
787.377
805.167
797.242
746.027
609.405
317.242
-214.1
-1053.89
-1962.46
-2788.15
-3348.68
-3519.29
62.3176
62.5065
62.7542
63.0648
63.4416
63.884
64.3956
64.9749
65.6243
66.3444
67.1405
68.0217
68.9884
70.0463
71.1873
72.4151
73.7504
75.2016
76.7773
78.4747
80.287
82.2419
84.3648
86.6602
89.1155
91.7464
94.6039
97.6843
100.989
104.536
108.373
112.506
116.942
121.706
126.856
132.379
138.304
144.687
151.539
158.898
166.795
175.265
184.35
194.085
204.516
215.685
227.64
240.431
254.11
268.732
284.357
301.048
318.867
337.888
358.182
379.832
402.919
427.523
453.736
481.639
511.3
542.771
576.051
611.047
647.501
684.896
722.223
757.554
787.273
804.92
796.903
745.776
610.006
321.276
-201.87
-1018.87
-1907.45
-2719.38
-3278.63
-3462.09
62.3489
62.5381
62.7861
63.0969
63.4741
63.9169
64.429
65.0088
65.6589
66.3795
67.1763
68.0583
69.0259
70.0848
71.2269
72.4558
73.7923
75.2449
76.8221
78.5211
80.3351
82.2919
84.4168
86.7144
89.1719
91.8052
94.6653
97.7486
101.056
104.606
108.447
112.584
117.023
121.792
126.946
132.473
138.404
144.792
151.65
159.014
166.917
175.395
184.486
194.23
204.669
215.847
227.811
240.612
254.3
268.932
284.566
301.263
319.089
338.117
358.417
380.073
403.166
427.776
453.993
481.899
511.56
543.028
576.299
611.278
647.705
685.056
722.315
757.547
787.129
804.606
796.474
745.431
610.598
325.612
-188.325
-981.355
-1848.31
-2644.89
-3202.3
-3399.17
62.2528
62.3856
62.5752
62.8235
63.1346
63.5122
63.9555
64.4681
65.0487
65.6994
66.4207
67.2184
68.1013
69.0699
70.13
71.2734
72.5036
73.8416
75.2959
76.8748
78.5757
80.3917
82.3506
84.4779
86.7781
89.2383
91.8745
94.7377
97.8243
101.136
104.689
108.534
112.675
117.119
121.893
127.051
132.585
138.521
144.915
151.78
159.151
167.062
175.547
184.647
194.4
204.848
216.036
228.01
240.821
254.519
269.158
284.8
301.504
319.338
338.373
358.681
380.344
403.443
428.058
454.28
482.188
511.849
543.312
576.572
611.53
647.922
685.219
722.398
757.512
786.931
804.207
795.934
744.969
611.15
330.248
-173.356
-941.386
-1784.99
-2564.51
-3119.36
-3329.99
62.2956
62.4286
62.6186
62.8673
63.1788
63.5568
64.0008
64.5141
65.0954
65.747
66.4691
67.2677
68.1518
69.1216
70.1831
71.328
72.5598
73.8995
75.3557
76.9368
78.6399
80.4582
82.4198
84.5499
86.8531
89.3164
91.9561
94.8229
97.9135
101.229
104.787
108.637
112.783
117.232
122.011
127.176
132.716
138.659
145.061
151.933
159.312
167.232
175.726
184.836
194.598
205.057
216.255
228.239
241.059
254.765
269.412
285.062
301.775
319.617
338.659
358.975
380.646
403.752
428.373
454.599
482.509
512.168
543.624
576.869
611.8
648.15
685.383
722.466
757.438
786.666
803.702
795.256
744.358
611.575
335.166
-156.844
-899.09
-1717.47
-2478.24
-3029.75
-3254.34
62.3457
62.4791
62.6695
62.9187
63.2307
63.6092
64.0538
64.5679
65.1503
65.8029
66.5259
67.3257
68.2111
69.1824
70.2455
71.3922
72.6259
73.9676
75.4261
77.0097
78.7154
80.5365
82.5011
84.6345
86.9414
89.4084
92.052
94.9232
98.0185
101.339
104.902
108.757
112.909
117.365
122.151
127.323
132.87
138.821
145.231
152.112
159.501
167.431
175.935
185.056
194.829
205.297
216.505
228.497
241.326
255.041
269.697
285.355
302.077
319.929
338.98
359.305
380.984
404.097
428.724
454.953
482.864
512.519
543.965
577.19
612.089
648.388
685.543
722.509
757.313
786.311
803.063
794.405
743.557
611.836
340.317
-138.777
-854.668
-1645.81
-2386.24
-2933.54
-3172.05
62.4044
62.5382
62.7292
62.9788
63.2914
63.6706
64.1161
64.6311
65.2147
65.8685
66.5926
67.3937
68.2807
69.2537
70.3188
71.4676
72.7035
74.0476
75.5088
77.0953
78.8042
80.6286
82.5967
84.7341
87.0451
89.5166
92.1649
95.0411
98.1419
101.468
105.037
108.899
113.058
117.521
122.314
127.495
133.051
139.011
145.431
152.322
159.722
167.662
176.177
185.307
195.09
205.568
216.784
228.787
241.625
255.349
270.016
285.685
302.417
320.278
339.34
359.674
381.361
404.481
429.113
455.345
483.255
512.904
544.336
577.536
612.394
648.63
685.69
722.516
757.118
785.844
802.257
793.341
742.516
612.173
345.621
-119.381
-808.225
-1570.21
-2288.81
-2830.84
-3082.97
62.4731
62.6074
62.799
63.0494
63.3626
63.7426
64.1891
64.7053
65.2902
65.9454
66.6708
67.4736
68.3623
69.3374
70.4049
71.5562
72.7946
74.1415
75.6059
77.1959
78.9085
80.7367
82.709
84.851
87.1671
89.6436
92.2974
95.1796
98.2867
101.62
105.196
109.065
113.232
117.704
122.506
127.696
133.263
139.233
145.663
152.565
159.974
167.924
176.45
185.59
195.382
205.871
217.098
229.111
241.96
255.696
270.374
286.054
302.797
320.669
339.741
360.085
381.78
404.907
429.544
455.778
483.684
513.324
544.737
577.905
612.712
648.869
685.813
722.471
756.832
785.233
801.245
792.014
741.193
612.415
351.087
-98.891
-759.687
-1490.98
-2186.32
-2721.87
-2987.05
62.5536
62.6885
62.8809
63.132
63.446
63.827
64.2747
64.7922
65.3788
66.0356
66.7626
67.5672
68.4582
69.4357
70.5059
71.6601
72.9015
74.2517
75.7199
77.314
79.0309
80.8636
82.8407
84.9881
87.31
89.7926
92.4527
95.3416
98.4562
101.797
105.381
109.259
113.436
117.918
122.729
127.931
133.505
139.486
145.927
152.839
160.259
168.22
176.756
185.907
195.711
206.211
217.45
229.475
242.336
256.085
270.775
286.467
303.222
321.106
340.188
360.542
382.245
405.378
430.019
456.253
484.153
513.779
545.166
578.293
613.036
649.097
685.9
722.354
756.426
784.441
799.975
790.363
739.515
612.166
356.746
-77.3971
-709.094
-1408.53
-2079.27
-2607.01
-2884.39
62.6478
62.7834
62.9767
63.2288
63.5438
63.9258
64.3749
64.894
65.4826
66.1413
66.8701
67.677
68.5705
69.5509
70.6243
71.782
73.0268
74.3809
75.8535
77.4523
79.1743
81.0122
82.9948
85.1483
87.4771
89.9667
92.6338
95.5307
98.6546
102.005
105.597
109.486
113.673
118.161
122.985
128.198
133.779
139.774
146.225
153.148
160.579
168.551
177.099
186.263
196.08
206.593
217.845
229.884
242.758
256.52
271.224
286.929
303.697
321.592
340.686
361.049
382.761
405.899
430.542
456.772
484.662
514.268
545.622
578.696
613.358
649.301
685.932
722.139
755.865
783.419
798.389
788.318
737.399
611.551
362.455
-55.1648
-656.846
-1323.37
-1968.31
-2486.86
-2775.29
62.758
62.8945
63.0889
63.342
63.6581
64.0415
64.4922
65.0132
65.604
66.2651
66.9961
67.8054
68.702
69.6856
70.7628
71.9246
73.1734
74.5318
76.0094
77.6137
79.3418
81.1855
83.1743
85.3353
87.6728
90.1702
92.8449
95.7513
98.8853
102.241
105.845
109.744
113.941
118.437
123.274
128.497
134.089
140.096
146.559
153.494
160.938
168.924
177.485
186.663
196.494
207.021
218.288
230.341
243.23
257.007
271.725
287.444
304.225
322.133
341.238
361.611
383.33
406.471
431.113
457.337
485.211
514.79
546.1
579.105
613.666
649.463
685.885
721.794
755.105
782.112
796.414
785.794
734.755
610.486
368.101
-32.922
-603.949
-1236.4
-1854.07
-2361.96
-2660.24
62.8868
63.0242
63.2199
63.4743
63.7917
64.1767
64.6294
65.1525
65.746
66.4097
67.1431
67.9554
68.8553
69.8427
70.9243
72.0908
73.3441
74.7075
76.1912
77.8025
79.5376
81.3875
83.3834
85.5532
87.8992
90.401
93.0861
96.0025
99.1457
102.508
106.125
110.034
114.241
118.749
123.599
128.832
134.437
140.458
146.934
153.884
161.342
169.342
177.919
187.112
196.958
207.501
218.784
230.853
243.758
257.55
272.284
288.018
304.813
322.733
341.849
362.231
383.955
407.098
431.736
457.947
485.798
515.339
546.591
579.511
613.946
649.562
685.728
721.278
754.093
780.45
793.967
782.693
731.475
608.877
373.609
-10.7888
-551.046
-1148.56
-1737.45
-2232.71
-2539.29
63.0369
63.1755
63.3726
63.6285
63.9474
64.334
64.7889
65.3145
65.9112
66.5781
67.3142
68.1298
69.0339
70.026
71.1132
72.2849
73.5427
74.9118
76.4024
78.0205
79.7608
81.6163
83.6216
85.8006
88.1538
90.6618
93.3597
96.2853
99.4382
102.811
106.44
110.361
114.579
119.1
123.964
129.21
134.829
140.865
147.356
154.321
161.796
169.812
178.405
187.615
197.479
208.039
219.339
231.425
244.348
258.156
272.906
288.655
305.464
323.397
342.523
362.912
384.639
407.78
432.408
458.6
486.419
515.91
547.087
579.896
614.174
649.568
685.423
720.539
752.762
778.351
790.947
778.902
727.44
606.599
378.821
14.2922
-495.684
-1059.94
-1620.61
-2101.65
-2413.5
63.2111
63.3512
63.5501
63.8079
64.1284
64.5172
64.9747
65.5034
66.1038
66.774
67.5129
68.332
69.2405
70.2374
71.3293
72.5046
73.7675
75.144
76.642
78.2664
80.012
81.8757
83.8913
86.0788
88.4403
90.9582
93.6676
96.6037
99.7668
103.152
106.795
110.728
114.959
119.495
124.375
129.634
135.27
141.323
147.83
154.812
162.304
170.339
178.95
188.178
198.061
208.64
219.958
232.063
245.004
258.83
273.596
289.361
306.184
324.129
343.263
363.657
385.384
408.518
433.13
459.294
487.068
516.492
547.571
580.242
614.323
649.444
684.92
719.515
751.034
775.717
787.241
774.294
722.519
603.494
383.389
43.7106
-436.03
-970.203
-1505.52
-1973.13
-2288.82
63.4133
63.5549
63.7558
64.0149
64.3367
64.7275
65.1877
65.7194
66.3228
66.9956
67.7373
68.5614
69.4748
70.4765
71.5726
72.7525
74.0227
75.4068
76.9117
78.5434
80.2962
82.1696
84.195
86.392
88.7622
91.292
94.0144
96.9623
100.137
103.536
107.194
111.141
115.387
119.939
124.836
130.111
135.765
141.836
148.362
155.363
162.874
170.928
179.56
188.808
198.711
209.31
220.649
232.774
245.733
259.577
274.361
290.141
306.977
324.932
344.073
364.468
386.19
409.309
433.897
460.02
487.733
517.069
548.024
580.519
614.357
649.142
684.158
718.128
748.813
772.434
782.719
768.727
716.566
599.439
386.945
63.6427
63.7859
63.9885
64.2489
64.5725
64.9661
65.4292
65.9635
66.5695
67.2455
67.9918
68.8212
69.739
70.7461
71.8472
73.0332
74.3113
75.703
77.2156
78.8549
80.6162
82.5007
84.5374
86.745
89.1251
91.6678
94.4047
97.3659
100.553
103.968
107.643
111.606
115.867
120.438
125.354
130.646
136.32
142.412
148.957
155.979
163.512
171.587
180.241
189.511
199.436
210.056
221.416
233.562
246.541
260.404
275.204
290.999
307.846
325.809
344.953
365.345
387.054
410.151
434.701
460.768
488.4
517.622
548.417
580.692
614.228
648.603
683.064
716.287
745.989
768.373
777.238
762.05
709.426
594.304
389.966
63.9019
64.0463
64.2505
64.5131
64.8395
65.2357
65.7015
66.2389
66.8482
67.5279
68.2793
69.114
70.0368
71.0497
72.1562
73.3494
74.6365
76.0368
77.5582
79.206
80.9768
82.8734
84.9227
87.1422
89.5336
92.0909
94.8436
97.8195
101.022
104.454
108.147
112.128
116.407
120.997
125.934
131.246
136.941
143.056
149.624
156.669
164.224
172.323
181
190.294
200.242
210.885
222.268
234.435
247.434
261.315
276.131
291.939
308.796
326.763
345.904
366.285
387.974
411.035
435.532
461.523
489.048
518.121
548.714
580.714
613.878
647.753
681.545
713.882
742.431
763.385
770.64
754.103
700.938
587.931
392.059
64.194
64.3398
64.5456
64.8107
65.1403
65.5392
66.008
66.5488
67.1618
67.846
68.6034
69.4439
70.3726
71.3919
72.5046
73.7057
75.0027
76.4127
77.944
79.6015
81.3829
83.293
85.3561
87.589
89.9933
92.5667
95.3369
98.3292
101.548
104.999
108.712
112.713
117.012
121.625
126.584
131.918
137.637
143.776
150.368
157.438
165.019
173.143
181.845
191.164
201.136
211.804
223.209
235.398
248.417
262.315
277.146
292.964
309.826
327.792
346.923
367.284
388.939
411.95
436.374
462.262
489.647
518.531
548.868
580.526
613.234
646.502
679.494
710.785
737.993
757.31
762.761
744.722
690.976
580.198
392.239
64.5223
64.6698
64.8777
65.1458
65.4788
65.8809
66.3534
66.898
67.5151
68.2043
68.9681
69.8153
70.7507
71.7772
72.8971
74.1071
75.4149
76.8357
78.378
80.0464
81.84
83.765
85.8434
88.0909
90.5099
93.1012
95.8905
98.9011
102.138
105.611
109.346
113.368
117.689
122.327
127.311
132.669
138.414
144.58
151.198
158.295
165.902
174.053
182.783
192.127
202.126
212.818
224.247
236.456
249.494
263.408
278.25
294.074
310.936
328.893
348.005
368.333
389.938
412.877
437.202
462.956
490.16
518.803
548.82
580.055
612.206
644.744
676.784
706.849
732.512
749.972
753.429
733.75
679.447
571.068
390.641
64.8912
65.0406
65.251
65.5224
65.8593
66.2652
66.7418
67.2908
67.9127
68.6077
69.3787
70.2332
71.1761
72.2106
73.3387
74.5588
75.8785
77.3113
78.8658
80.5465
82.3539
84.2952
86.3905
88.6544
91.09
93.701
96.5114
99.5421
102.8
106.296
110.055
114.101
118.447
123.111
128.123
133.507
139.28
145.475
152.121
159.247
166.883
175.062
183.82
193.192
203.217
213.934
225.385
237.615
250.669
264.595
279.444
295.268
312.121
330.059
349.138
369.417