/*--------------------------------*- C++ -*----------------------------------*\
| =========                 |                                                 |
| \\      /  F ield         | OpenFOAM: The Open Source CFD Toolbox           |
|  \\    /   O peration     | Version:  2412                                  |
|   \\  /    A nd           | Website:  www.openfoam.com                      |
|    \\/     M anipulation  |                                                 |
\*---------------------------------------------------------------------------*/
FoamFile
{
    version     2.0;
    format      ascii;
    arch        "LSB;label=32;scalar=64";
    class       surfaceScalarField;
    location    "320";
    object      phi;
}
// * * * * * * * * * * * * * * * * * * * * * * * * * * * * * * * * * * * * * //

dimensions      [0 3 -1 0 0 0 0];

oriented        oriented;

internalField   nonuniform List<scalar> 
17078
(
-2.31664e-06
5.88825e-10
-2.31669e-06
1.30842e-11
-2.31677e-06
1.55493e-10
-2.31703e-06
2.18298e-10
-2.31774e-06
7.25602e-10
-2.31837e-06
6.42141e-10
-2.31912e-06
7.64324e-10
-2.31992e-06
8.03669e-10
-2.32068e-06
7.72872e-10
-2.32164e-06
9.71095e-10
-2.32273e-06
1.10188e-09
-2.32396e-06
1.24873e-09
-2.32512e-06
1.17879e-09
-2.32636e-06
1.24196e-09
-2.32789e-06
1.545e-09
-2.32947e-06
1.59314e-09
-2.33122e-06
1.75628e-09
-2.33301e-06
1.87389e-09
-2.33508e-06
2.02693e-09
-2.3373e-06
2.28685e-09
-2.33975e-06
2.39962e-09
-2.34234e-06
2.65578e-09
-2.34508e-06
2.70861e-09
-2.34811e-06
3.11196e-09
-2.35141e-06
3.23734e-09
-2.35495e-06
3.6274e-09
-2.35875e-06
3.75288e-09
-2.36277e-06
4.09867e-09
-2.36707e-06
4.24187e-09
-2.37166e-06
4.65772e-09
-2.37655e-06
4.84414e-09
-2.3817e-06
5.23024e-09
-2.38725e-06
5.50494e-09
-2.39297e-06
5.79449e-09
-2.39908e-06
6.04186e-09
-2.40537e-06
6.35041e-09
-2.41194e-06
6.53357e-09
-2.41878e-06
6.91781e-09
-2.42584e-06
7.00287e-09
-2.43312e-06
7.35281e-09
-2.44062e-06
7.43774e-09
-2.44817e-06
7.6347e-09
-2.45586e-06
7.6373e-09
-2.46362e-06
7.81959e-09
-2.47148e-06
7.79433e-09
-2.47923e-06
7.79068e-09
-2.48695e-06
7.68534e-09
-2.49461e-06
7.71247e-09
-2.50198e-06
7.33341e-09
-2.50916e-06
7.2043e-09
-2.51612e-06
6.94104e-09
-2.52274e-06
6.64798e-09
-2.52915e-06
6.38337e-09
-2.53504e-06
5.91608e-09
-2.54047e-06
5.41181e-09
-2.54547e-06
5.02081e-09
-2.55003e-06
4.55474e-09
-2.5542e-06
4.18621e-09
-2.55772e-06
3.50446e-09
-2.5607e-06
3.00409e-09
-2.56323e-06
2.51901e-09
-2.5653e-06
2.08111e-09
-2.56664e-06
1.32991e-09
-2.56738e-06
7.62277e-10
-2.5677e-06
3.12604e-10
-2.56757e-06
-1.25333e-10
-2.5665e-06
-1.07887e-09
-2.56491e-06
-1.56601e-09
-2.56292e-06
-2.00706e-09
-2.56009e-06
-2.81381e-09
-2.55642e-06
-3.67937e-09
-2.55217e-06
-4.24717e-09
-2.54711e-06
-5.06306e-09
-2.54097e-06
-6.12987e-09
-2.53384e-06
-7.13655e-09
-2.52578e-06
-8.04823e-09
-2.51605e-06
-9.72764e-09
-2.50468e-06
-1.137e-08
-2.49143e-06
-1.32506e-08
-2.47566e-06
-1.57652e-08
-2.45681e-06
-1.88456e-08
-2.4335e-06
-2.33093e-08
-2.4044e-06
-2.91005e-08
-2.36713e-06
-3.72662e-08
-2.31805e-06
-4.90744e-08
-2.25149e-06
-6.65713e-08
-2.1574e-06
-9.40714e-08
-1.37367e-07
-8.16605e-06
2.87364e-09
-8.16663e-06
5.62192e-10
-8.16698e-06
5.99647e-10
-8.16811e-06
1.30073e-09
-8.1706e-06
3.23628e-09
-8.17323e-06
3.27953e-09
-8.17622e-06
3.77667e-09
-8.1791e-06
3.69677e-09
-8.18255e-06
4.24976e-09
-8.18626e-06
4.6909e-09
-8.19032e-06
5.18353e-09
-8.19457e-06
5.52532e-09
-8.19925e-06
5.87414e-09
-8.20445e-06
6.45439e-09
-8.20976e-06
6.87533e-09
-8.21582e-06
7.66733e-09
-8.22227e-06
8.22141e-09
-8.2296e-06
9.30524e-09
-8.23709e-06
9.46933e-09
-8.24543e-06
1.0717e-08
-8.25446e-06
1.13575e-08
-8.26418e-06
1.2476e-08
-8.27483e-06
1.33074e-08
-8.28589e-06
1.42858e-08
-8.29817e-06
1.54384e-08
-8.31124e-06
1.68053e-08
-8.32522e-06
1.76767e-08
-8.34022e-06
1.92055e-08
-8.35621e-06
2.01508e-08
-8.37325e-06
2.17907e-08
-8.39121e-06
2.27484e-08
-8.41036e-06
2.44911e-08
-8.43004e-06
2.51154e-08
-8.45136e-06
2.72118e-08
-8.47347e-06
2.80705e-08
-8.4964e-06
2.93587e-08
-8.52073e-06
3.08173e-08
-8.54514e-06
3.143e-08
-8.57073e-06
3.25321e-08
-8.597e-06
3.37036e-08
-8.62366e-06
3.40293e-08
-8.65097e-06
3.50533e-08
-8.67852e-06
3.5117e-08
-8.70628e-06
3.56634e-08
-8.73381e-06
3.52388e-08
-8.76138e-06
3.54188e-08
-8.78836e-06
3.4616e-08
-8.8151e-06
3.45133e-08
-8.841e-06
3.31925e-08
-8.86595e-06
3.21883e-08
-8.88977e-06
3.07248e-08
-8.91259e-06
2.95109e-08
-8.93386e-06
2.76224e-08
-8.95404e-06
2.61284e-08
-8.97227e-06
2.36197e-08
-8.98853e-06
2.13115e-08
-9.00356e-06
1.95638e-08
-9.017e-06
1.76521e-08
-9.02788e-06
1.43671e-08
-9.03655e-06
1.17076e-08
-9.04378e-06
9.72926e-09
-9.04935e-06
7.67918e-09
-9.0524e-06
4.36345e-09
-9.05276e-06
1.14654e-09
-9.05193e-06
-5.30079e-10
-9.04899e-06
-3.04534e-09
-9.0433e-06
-6.78708e-09
-9.03509e-06
-9.75522e-09
-9.02544e-06
-1.16629e-08
-9.01325e-06
-1.49876e-08
-8.99737e-06
-1.95684e-08
-8.97959e-06
-2.20324e-08
-8.95904e-06
-2.56058e-08
-8.93415e-06
-3.10188e-08
-8.90623e-06
-3.50502e-08
-8.874e-06
-4.02772e-08
-8.83567e-06
-4.80542e-08
-8.79189e-06
-5.51463e-08
-8.74103e-06
-6.41019e-08
-8.68089e-06
-7.59063e-08
-8.60964e-06
-9.00986e-08
-8.52231e-06
-1.10635e-07
-8.41458e-06
-1.36831e-07
-8.27736e-06
-1.74485e-07
-8.0985e-06
-2.27924e-07
-7.85747e-06
-3.07599e-07
-7.51977e-06
-4.31764e-07
-6.26135e-07
-1.62321e-05
7.87331e-09
-1.62343e-05
2.74211e-09
-1.62351e-05
1.43555e-09
-1.62384e-05
4.55286e-09
-1.62442e-05
9.13389e-09
-1.62504e-05
9.40013e-09
-1.62564e-05
9.84466e-09
-1.62636e-05
1.08743e-08
-1.62709e-05
1.16609e-08
-1.62791e-05
1.28712e-08
-1.62881e-05
1.42147e-08
-1.62977e-05
1.51455e-08
-1.63078e-05
1.59495e-08
-1.63191e-05
1.77807e-08
-1.63316e-05
1.94551e-08
-1.63448e-05
2.08067e-08
-1.6359e-05
2.24417e-08
-1.63744e-05
2.48493e-08
-1.63914e-05
2.64417e-08
-1.64096e-05
2.90237e-08
-1.64293e-05
3.09536e-08
-1.64505e-05
3.37646e-08
-1.64728e-05
3.55961e-08
-1.64977e-05
3.92448e-08
-1.65239e-05
4.15995e-08
-1.6552e-05
4.50465e-08
-1.65816e-05
4.71838e-08
-1.6614e-05
5.16918e-08
-1.6648e-05
5.40487e-08
-1.66838e-05
5.77246e-08
-1.6722e-05
6.08838e-08
-1.67621e-05
6.46926e-08
-1.68045e-05
6.74969e-08
-1.68487e-05
7.14818e-08
-1.68949e-05
7.41949e-08
-1.6943e-05
7.75149e-08
-1.69922e-05
8.00209e-08
-1.70439e-05
8.31544e-08
-1.70965e-05
8.51375e-08
-1.71503e-05
8.7583e-08
-1.72052e-05
8.88505e-08
-1.72606e-05
9.05625e-08
-1.73162e-05
9.06427e-08
-1.73719e-05
9.14658e-08
-1.74278e-05
9.10174e-08
-1.74826e-05
9.03039e-08
-1.75367e-05
8.86039e-08
-1.75891e-05
8.70652e-08
-1.76401e-05
8.41305e-08
-1.76885e-05
8.06226e-08
-1.7735e-05
7.71379e-08
-1.77781e-05
7.26786e-08
-1.78192e-05
6.87271e-08
-1.78564e-05
6.33375e-08
-1.78899e-05
5.71019e-08
-1.79197e-05
5.11596e-08
-1.79462e-05
4.59869e-08
-1.79688e-05
4.03295e-08
-1.79873e-05
3.27972e-08
-1.80008e-05
2.52425e-08
-1.8011e-05
1.9989e-08
-1.80176e-05
1.42697e-08
-1.80188e-05
5.54166e-09
-1.80152e-05
-2.44826e-09
-1.8008e-05
-7.73888e-09
-1.79972e-05
-1.38624e-08
-1.79801e-05
-2.38618e-08
-1.79586e-05
-3.12024e-08
-1.79336e-05
-3.6675e-08
-1.79027e-05
-4.59117e-08
-1.78652e-05
-5.70042e-08
-1.78232e-05
-6.40452e-08
-1.7775e-05
-7.3843e-08
-1.77185e-05
-8.74656e-08
-1.76551e-05
-9.85155e-08
-1.7584e-05
-1.11398e-07
-1.74999e-05
-1.32058e-07
-1.74042e-05
-1.50858e-07
-1.72941e-05
-1.74261e-07
-1.71651e-05
-2.04896e-07
-1.70136e-05
-2.41527e-07
-1.68299e-05
-2.94413e-07
-1.66038e-05
-3.62873e-07
-1.63196e-05
-4.58707e-07
-1.5951e-05
-5.9652e-07
-1.54588e-05
-7.99764e-07
-1.47748e-05
-1.11576e-06
-1.6094e-06
-2.70953e-05
1.78551e-08
-2.70996e-05
7.0137e-09
-2.71035e-05
5.46797e-09
-2.71111e-05
1.21015e-08
-2.71222e-05
2.02356e-08
-2.71347e-05
2.18846e-08
-2.71472e-05
2.23774e-08
-2.71606e-05
2.42805e-08
-2.71756e-05
2.67215e-08
-2.7192e-05
2.93397e-08
-2.72094e-05
3.158e-08
-2.7228e-05
3.37736e-08
-2.72482e-05
3.61683e-08
-2.72701e-05
3.96998e-08
-2.72935e-05
4.28673e-08
-2.73191e-05
4.64836e-08
-2.73468e-05
5.01632e-08
-2.73761e-05
5.42709e-08
-2.74082e-05
5.84826e-08
-2.74433e-05
6.41664e-08
-2.74799e-05
6.74899e-08
-2.75196e-05
7.35768e-08
-2.75631e-05
7.90291e-08
-2.7609e-05
8.52722e-08
-2.76578e-05
9.03871e-08
-2.77099e-05
9.72468e-08
-2.77659e-05
1.03066e-07
-2.78247e-05
1.10678e-07
-2.7888e-05
1.172e-07
-2.79536e-05
1.23433e-07
-2.80236e-05
1.30845e-07
-2.80961e-05
1.37324e-07
-2.81725e-05
1.43878e-07
-2.82525e-05
1.51567e-07
-2.83351e-05
1.56635e-07
-2.84206e-05
1.63176e-07
-2.8509e-05
1.68376e-07
-2.85994e-05
1.73624e-07
-2.86919e-05
1.77619e-07
-2.87859e-05
1.81678e-07
-2.88815e-05
1.84312e-07
-2.89776e-05
1.8682e-07
-2.90734e-05
1.86372e-07
-2.9169e-05
1.87119e-07
-2.92627e-05
1.84632e-07
-2.93551e-05
1.8278e-07
-2.94451e-05
1.7852e-07
-2.95323e-05
1.74338e-07
-2.96155e-05
1.67263e-07
-2.96947e-05
1.59922e-07
-2.97684e-05
1.50753e-07
-2.98374e-05
1.41728e-07
-2.99013e-05
1.32647e-07
-2.9959e-05
1.21046e-07
-3.00088e-05
1.06841e-07
-3.00515e-05
9.38887e-08
-3.00887e-05
8.32342e-08
-3.01196e-05
7.12487e-08
-3.01414e-05
5.45691e-08
-3.01545e-05
3.83242e-08
-3.01621e-05
2.7665e-08
-3.0164e-05
1.61096e-08
-3.01556e-05
-2.85092e-09
-3.01382e-05
-1.9782e-08
-3.01161e-05
-2.98958e-08
-3.00867e-05
-4.32752e-08
-3.00461e-05
-6.44337e-08
-2.99972e-05
-8.00716e-08
-2.99424e-05
-9.14444e-08
-2.98783e-05
-1.10013e-07
-2.98021e-05
-1.33257e-07
-2.97179e-05
-1.48195e-07
-2.96238e-05
-1.68006e-07
-2.95139e-05
-1.9728e-07
-2.93937e-05
-2.18745e-07
-2.92583e-05
-2.46804e-07
-2.91011e-05
-2.89214e-07
-2.89245e-05
-3.27528e-07
-2.87222e-05
-3.76566e-07
-2.8489e-05
-4.38059e-07
-2.8216e-05
-5.14542e-07
-2.78877e-05
-6.22656e-07
-2.74892e-05
-7.61438e-07
-2.69907e-05
-9.57158e-07
-2.63503e-05
-1.23687e-06
-2.55021e-05
-1.648e-06
-2.4333e-05
-2.28487e-06
-3.27654e-06
-4.14483e-05
3.60516e-08
-4.14595e-05
1.81847e-08
-4.14693e-05
1.53875e-08
-4.14848e-05
2.75022e-08
-4.15065e-05
4.20095e-08
-4.15279e-05
4.32305e-08
-4.15529e-05
4.74101e-08
-4.15794e-05
5.07954e-08
-4.16072e-05
5.45633e-08
-4.16365e-05
5.86344e-08
-4.16691e-05
6.42531e-08
-4.17042e-05
6.89013e-08
-4.17407e-05
7.27438e-08
-4.17813e-05
8.03041e-08
-4.18244e-05
8.59401e-08
-4.18711e-05
9.31993e-08
-4.19204e-05
9.95051e-08
-4.19747e-05
1.08641e-07
-4.20328e-05
1.1653e-07
-4.20946e-05
1.26058e-07
-4.21613e-05
1.34183e-07
-4.22323e-05
1.44691e-07
-4.23079e-05
1.54552e-07
-4.23888e-05
1.66291e-07
-4.24749e-05
1.76466e-07
-4.25671e-05
1.89486e-07
-4.26643e-05
2.00226e-07
-4.27663e-05
2.12756e-07
-4.28734e-05
2.24287e-07
-4.29877e-05
2.37779e-07
-4.31056e-05
2.48711e-07
-4.32299e-05
2.61732e-07
-4.33586e-05
2.72552e-07
-4.34925e-05
2.85527e-07
-4.36306e-05
2.94681e-07
-4.37728e-05
3.05493e-07
-4.39187e-05
3.1419e-07
-4.40673e-05
3.22369e-07
-4.4218e-05
3.28202e-07
-4.43698e-05
3.33599e-07
-4.45229e-05
3.37378e-07
-4.46758e-05
3.39787e-07
-4.48279e-05
3.38379e-07
-4.49769e-05
3.36262e-07
-4.51238e-05
3.31391e-07
-4.52659e-05
3.24977e-07
-4.54027e-05
3.15215e-07
-4.55336e-05
3.05374e-07
-4.56582e-05
2.91797e-07
-4.57739e-05
2.75674e-07
-4.58798e-05
2.56565e-07
-4.5977e-05
2.38966e-07
-4.6065e-05
2.20636e-07
-4.61428e-05
1.98922e-07
-4.62065e-05
1.70531e-07
-4.62584e-05
1.45752e-07
-4.63007e-05
1.25555e-07
-4.63324e-05
1.02967e-07
-4.63495e-05
7.17126e-08
-4.63519e-05
4.07296e-08
-4.63458e-05
2.14974e-08
-4.63289e-05
-7.05892e-10
-4.62968e-05
-3.50043e-08
-4.625e-05
-6.65054e-08
-4.61937e-05
-8.61894e-08
-4.61268e-05
-1.10193e-07
-4.60425e-05
-1.48795e-07
-4.59444e-05
-1.78071e-07
-4.58374e-05
-1.98459e-07
-4.57143e-05
-2.33132e-07
-4.55713e-05
-2.76246e-07
-4.54169e-05
-3.02647e-07
-4.52471e-05
-3.37745e-07
-4.50522e-05
-3.92252e-07
-4.48385e-05
-4.32406e-07
-4.4602e-05
-4.83292e-07
-4.43324e-05
-5.58808e-07
-4.40307e-05
-6.29235e-07
-4.369e-05
-7.17267e-07
-4.32987e-05
-8.29348e-07
-4.28467e-05
-9.66496e-07
-4.23083e-05
-1.16106e-06
-4.16587e-05
-1.41109e-06
-4.08551e-05
-1.76068e-06
-3.98317e-05
-2.26027e-06
-3.84864e-05
-2.99333e-06
-3.66477e-05
-4.12352e-06
-5.87715e-06
-6.01056e-05
6.84118e-08
-6.01293e-05
4.18714e-08
-6.01515e-05
3.7765e-08
-6.01813e-05
5.72093e-08
-6.02211e-05
8.18538e-08
-6.02625e-05
8.46454e-08
-6.03062e-05
9.11537e-08
-6.03535e-05
9.81411e-08
-6.0404e-05
1.05066e-07
-6.04588e-05
1.13449e-07
-6.05165e-05
1.22018e-07
-6.05782e-05
1.30656e-07
-6.06459e-05
1.40389e-07
-6.07167e-05
1.51155e-07
-6.07934e-05
1.62666e-07
-6.08745e-05
1.7436e-07
-6.09642e-05
1.89226e-07
-6.10579e-05
2.0244e-07
-6.11583e-05
2.16859e-07
-6.12659e-05
2.33812e-07
-6.13801e-05
2.48244e-07
-6.1503e-05
2.67748e-07
-6.16327e-05
2.84256e-07
-6.177e-05
3.03656e-07
-6.19163e-05
3.22695e-07
-6.20697e-05
3.42984e-07
-6.22315e-05
3.62021e-07
-6.24026e-05
3.83944e-07
-6.25809e-05
4.02488e-07
-6.27674e-05
4.24357e-07
-6.29612e-05
4.42482e-07
-6.31627e-05
4.63392e-07
-6.3371e-05
4.80744e-07
-6.35856e-05
5.00246e-07
-6.38056e-05
5.14593e-07
-6.40309e-05
5.30865e-07
-6.42593e-05
5.42565e-07
-6.44912e-05
5.54402e-07
-6.47243e-05
5.61224e-07
-6.49583e-05
5.67699e-07
-6.51913e-05
5.70271e-07
-6.54212e-05
5.69871e-07
-6.56479e-05
5.64964e-07
-6.58699e-05
5.58416e-07
-6.60838e-05
5.45128e-07
-6.62886e-05
5.29907e-07
-6.64833e-05
5.0987e-07
-6.66676e-05
4.897e-07
-6.68398e-05
4.6394e-07
-6.69964e-05
4.32375e-07
-6.71353e-05
3.95392e-07
-6.72594e-05
3.63105e-07
-6.73688e-05
3.30037e-07
-6.74604e-05
2.90511e-07
-6.75308e-05
2.40953e-07
-6.75796e-05
1.94604e-07
-6.76155e-05
1.61421e-07
-6.7634e-05
1.21475e-07
-6.76277e-05
6.54242e-08
-6.75995e-05
1.25577e-08
-6.75586e-05
-1.94601e-08
-6.75008e-05
-5.8445e-08
-6.7419e-05
-1.16814e-07
-6.73135e-05
-1.72022e-07
-6.71962e-05
-2.03439e-07
-6.70618e-05
-2.44576e-07
-6.68996e-05
-3.10999e-07
-6.67179e-05
-3.59755e-07
-6.65217e-05
-3.94711e-07
-6.63011e-05
-4.53747e-07
-6.60523e-05
-5.25045e-07
-6.57848e-05
-5.70119e-07
-6.54918e-05
-6.3072e-07
-6.51636e-05
-7.20497e-07
-6.48078e-05
-7.88139e-07
-6.44179e-05
-8.73205e-07
-6.39776e-05
-9.99116e-07
-6.34907e-05
-1.11614e-06
-6.29441e-05
-1.26382e-06
-6.23238e-05
-1.44963e-06
-6.16111e-05
-1.67924e-06
-6.07724e-05
-1.99975e-06
-5.9769e-05
-2.41449e-06
-5.85372e-05
-2.99248e-06
-5.69812e-05
-3.81628e-06
-5.49533e-05
-5.02124e-06
-5.22041e-05
-6.87266e-06
-9.73568e-06
-8.39944e-05
1.26836e-07
-8.40407e-05
8.81855e-08
-8.4086e-05
8.31928e-08
-8.41419e-05
1.13015e-07
-8.42112e-05
1.51219e-07
-8.42857e-05
1.59154e-07
-8.43649e-05
1.70358e-07
-8.44464e-05
1.79735e-07
-8.45361e-05
1.94815e-07
-8.46299e-05
2.07262e-07
-8.47319e-05
2.24035e-07
-8.48394e-05
2.3821e-07
-8.49544e-05
2.55366e-07
-8.50776e-05
2.74377e-07
-8.52105e-05
2.95589e-07
-8.53515e-05
3.15387e-07
-8.55006e-05
3.38351e-07
-8.56607e-05
3.62639e-07
-8.58306e-05
3.8678e-07
-8.60106e-05
4.13893e-07
-8.62036e-05
4.41203e-07
-8.64051e-05
4.69265e-07
-8.66191e-05
4.98309e-07
-8.68463e-05
5.30913e-07
-8.7085e-05
5.61382e-07
-8.73344e-05
5.9241e-07
-8.75966e-05
6.24237e-07
-8.78687e-05
6.5614e-07
-8.81548e-05
6.88508e-07
-8.84488e-05
7.18502e-07
-8.87551e-05
7.48684e-07
-8.90681e-05
7.76534e-07
-8.93919e-05
8.04438e-07
-8.97215e-05
8.30008e-07
-9.00586e-05
8.5164e-07
-9.03988e-05
8.71044e-07
-9.0743e-05
8.86744e-07
-9.10888e-05
9.00366e-07
-9.14334e-05
9.05759e-07
-9.17763e-05
9.10673e-07
-9.21132e-05
9.0712e-07
-9.24444e-05
9.01148e-07
-9.27663e-05
8.86775e-07
-9.30768e-05
8.68994e-07
-9.33725e-05
8.40836e-07
-9.36514e-05
8.08839e-07
-9.39128e-05
7.71231e-07
-9.41541e-05
7.31074e-07
-9.43754e-05
6.85204e-07
-9.45713e-05
6.28247e-07
-9.47389e-05
5.63004e-07
-9.48799e-05
5.04101e-07
-9.50011e-05
4.5124e-07
-9.50932e-05
3.82671e-07
-9.51493e-05
2.97024e-07
-9.51759e-05
2.2127e-07
-9.5181e-05
1.66442e-07
-9.51605e-05
1.00973e-07
-9.51036e-05
8.55174e-09
-9.50129e-05
-7.8069e-08
-9.4903e-05
-1.29366e-07
-9.4771e-05
-1.90442e-07
-9.46003e-05
-2.87584e-07
-9.43969e-05
-3.75348e-07
-9.41742e-05
-4.26132e-07
-9.39271e-05
-4.91655e-07
-9.36398e-05
-5.98314e-07
-9.33239e-05
-6.75662e-07
-9.29879e-05
-7.30734e-07
-9.26173e-05
-8.24293e-07
-9.22038e-05
-9.3854e-07
-9.17645e-05
-1.00942e-06
-9.12871e-05
-1.10812e-06
-9.07616e-05
-1.24605e-06
-9.01949e-05
-1.35481e-06
-8.95781e-05
-1.48995e-06
-8.88909e-05
-1.68632e-06
-8.81352e-05
-1.8719e-06
-8.72962e-05
-2.10277e-06
-8.63492e-05
-2.39667e-06
-8.52727e-05
-2.75572e-06
-8.40134e-05
-3.25903e-06
-8.252e-05
-3.90787e-06
-8.07002e-05
-4.81228e-06
-7.84205e-05
-6.096e-06
-7.54691e-05
-7.9726e-06
-7.1499e-05
-1.08427e-05
-1.52662e-05
-0.000114131
2.26611e-07
-0.000114216
1.73395e-07
-0.000114299
1.66764e-07
-0.000114402
2.15378e-07
-0.000114521
2.70369e-07
-0.000114646
2.84374e-07
-0.000114778
3.02821e-07
-0.000114921
3.22586e-07
-0.000115071
3.44202e-07
-0.000115231
3.68011e-07
-0.000115403
3.95582e-07
-0.000115585
4.20689e-07
-0.000115778
4.47644e-07
-0.000115983
4.79858e-07
-0.000116202
5.14352e-07
-0.000116433
5.46353e-07
-0.000116679
5.84758e-07
-0.00011694
6.23735e-07
-0.000117217
6.63549e-07
-0.00011751
7.06967e-07
-0.000117817
7.48547e-07
-0.000118142
7.94313e-07
-0.000118482
8.38593e-07
-0.00011884
8.88594e-07
-0.000119213
9.33807e-07
-0.000119603
9.83429e-07
-0.000120007
1.02742e-06
-0.000120428
1.07805e-06
-0.000120861
1.12054e-06
-0.000121309
1.16723e-06
-0.000121767
1.20607e-06
-0.000122237
1.24726e-06
-0.000122715
1.28227e-06
-0.000123201
1.31604e-06
-0.000123691
1.34157e-06
-0.000124184
1.36454e-06
-0.000124678
1.37986e-06
-0.000125168
1.3907e-06
-0.000125653
1.39048e-06
-0.000126128
1.38656e-06
-0.000126593
1.37212e-06
-0.000127043
1.35087e-06
-0.000127475
1.31858e-06
-0.000127885
1.27942e-06
-0.000128272
1.22769e-06
-0.000128628
1.16485e-06
-0.000128954
1.09696e-06
-0.000129251
1.02806e-06
-0.000129516
9.50269e-07
-0.000129738
8.50385e-07
-0.000129916
7.41164e-07
-0.000130059
6.47254e-07
-0.000130168
5.59507e-07
-0.000130236
4.51028e-07
-0.00013025
3.11275e-07
-0.000130221
1.92014e-07
-0.000130162
1.07666e-07
-0.000130065
3.91833e-09
-0.000129915
-1.41493e-07
-0.00012972
-2.72679e-07
-0.000129497
-3.52965e-07
-0.00012924
-4.46852e-07
-0.000128931
-5.96902e-07
-0.000128575
-7.31237e-07
-0.000128193
-8.07905e-07
-0.000127776
-9.09298e-07
-0.000127304
-1.06979e-06
-0.000126791
-1.18897e-06
-0.000126248
-1.27342e-06
-0.000125657
-1.41566e-06
-0.00012501
-1.58533e-06
-0.000124322
-1.6974e-06
-0.000123586
-1.84448e-06
-0.000122779
-2.0532e-06
-0.000121915
-2.21823e-06
-0.000120981
-2.42404e-06
-0.000119951
-2.71613e-06
-0.000118827
-2.99657e-06
-0.000117584
-3.34555e-06
-0.000116194
-3.78625e-06
-0.000114619
-4.33054e-06
-0.000112795
-5.08386e-06
-0.000110641
-6.06165e-06
-0.000108034
-7.41906e-06
-0.000104786
-9.34434e-06
-0.000100606
-1.21522e-05
-9.50215e-05
-1.64273e-05
-2.29937e-05
-0.000151578
3.92408e-07
-0.000151726
3.21795e-07
-0.000151875
3.15532e-07
-0.000152041
3.81733e-07
-0.000152238
4.6675e-07
-0.000152445
4.916e-07
-0.000152663
5.21213e-07
-0.000152894
5.53165e-07
-0.00015314
5.90966e-07
-0.000153401
6.2907e-07
-0.000153677
6.70916e-07
-0.000153969
7.12601e-07
-0.000154279
7.58564e-07
-0.000154606
8.063e-07
-0.000154953
8.61593e-07
-0.000155319
9.12489e-07
-0.000155706
9.71115e-07
-0.000156114
1.03184e-06
-0.000156544
1.09372e-06
-0.000156994
1.15729e-06
-0.000157465
1.21964e-06
-0.000157959
1.28787e-06
-0.000158475
1.35453e-06
-0.00015901
1.4245e-06
-0.000159567
1.48994e-06
-0.000160144
1.56108e-06
-0.000160739
1.62228e-06
-0.00016135
1.68934e-06
-0.00016198
1.7506e-06
-0.00016262
1.80665e-06
-0.000163275
1.8617e-06
-0.000163938
1.91036e-06
-0.000164608
1.95143e-06
-0.000165281
1.98983e-06
-0.000165956
2.01618e-06
-0.000166628
2.03698e-06
-0.000167295
2.04621e-06
-0.000167951
2.04695e-06
-0.000168595
2.03441e-06
-0.000169216
2.00827e-06
-0.000169817
1.97257e-06
-0.000170392
1.92622e-06
-0.000170937
1.86291e-06
-0.000171449
1.79207e-06
-0.00017192
1.69882e-06
-0.000172344
1.58882e-06
-0.000172723
1.47593e-06
-0.00017306
1.36534e-06
-0.000173349
1.23873e-06
-0.000173576
1.07774e-06
-0.000173743
9.07547e-07
-0.000173853
7.57836e-07
-0.000173923
6.29331e-07
-0.000173932
4.60405e-07
-0.000173869
2.47508e-07
-0.000173743
6.59577e-08
-0.000173577
-5.80363e-08
-0.000173364
-2.09298e-07
-0.000173075
-4.29985e-07
-0.000172724
-6.23984e-07
-0.000172336
-7.40593e-07
-0.000171903
-8.79639e-07
-0.000171399
-1.10152e-06
-0.000170832
-1.29822e-06
-0.000170231
-1.40909e-06
-0.000169579
-1.56088e-06
-0.000168853
-1.79536e-06
-0.000168074
-1.96876e-06
-0.000167254
-2.09327e-06
-0.000166366
-2.30387e-06
-0.000165402
-2.54903e-06
-0.000164386
-2.71287e-06
-0.0001633
-2.93094e-06
-0.000162121
-3.23257e-06
-0.000160864
-3.47435e-06
-0.000159514
-3.77446e-06
-0.000158031
-4.19929e-06
-0.000156419
-4.60837e-06
-0.000154647
-5.11711e-06
-0.000152673
-5.76044e-06
-0.000150448
-6.55604e-06
-0.000147878
-7.65407e-06
-0.000144859
-9.07972e-06
-0.00014122
-1.10584e-05
-0.000136704
-1.38607e-05
-0.000130916
-1.79397e-05
-0.000123223
-2.41209e-05
-3.35731e-05
-0.000197399
-0.00019764
-0.000197881
-0.000198154
6.54722e-07
-0.000198463
7.75926e-07
-0.000198786
8.14519e-07
-0.000199129
8.64296e-07
-0.000199489
9.13353e-07
-0.000199869
9.70869e-07
-0.00020027
1.03038e-06
-0.000200695
1.09639e-06
-0.000201144
1.16093e-06
-0.000201615
1.22997e-06
-0.000202112
1.303e-06
-0.000202632
1.38216e-06
-0.000203184
1.46398e-06
-0.000203758
1.54554e-06
-0.000204361
1.63434e-06
-0.000204989
1.72218e-06
-0.000205647
1.81508e-06
-0.000206332
1.90466e-06
-0.00020704
1.99618e-06
-0.000207775
2.08935e-06
-0.000208534
2.1839e-06
-0.000209317
2.27315e-06
-0.000210118
2.36148e-06
-0.000210941
2.44577e-06
-0.000211782
2.53032e-06
-0.000212635
2.60346e-06
-0.000213501
2.67221e-06
-0.000214372
2.73364e-06
-0.00021525
2.78804e-06
-0.000216132
2.8335e-06
-0.000217009
2.86664e-06
-0.00021788
2.88771e-06
-0.000218739
2.89541e-06
-0.000219582
2.88893e-06
-0.000220406
2.8711e-06
-0.000221201
2.8295e-06
-0.000221967
2.77443e-06
-0.000222695
2.70055e-06
-0.000223381
2.61211e-06
-0.000224025
2.50761e-06
-0.000224621
2.38819e-06
-0.000225156
2.23342e-06
-0.000225627
2.05948e-06
-0.000226036
1.88479e-06
-0.000226385
1.71438e-06
-0.000226669
1.52285e-06
-0.000226874
1.28282e-06
-0.000226993
1.02639e-06
-0.000227042
8.07395e-07
-0.000227036
6.23222e-07
-0.000226955
3.78986e-07
-0.000226774
6.65651e-08
-0.000226515
-1.93001e-07
-0.000226206
-3.66913e-07
-0.00022583
-5.85345e-07
-0.000225361
-8.98922e-07
-0.00022481
-1.17505e-06
-0.000224212
-1.33822e-06
-0.000223554
-1.53775e-06
-0.000222804
-1.85207e-06
-0.000221972
-2.12976e-06
-0.000221094
-2.28746e-06
-0.000220148
-2.50658e-06
-0.000219109
-2.83415e-06
-0.000217999
-3.07898e-06
-0.00021683
-3.26193e-06
-0.000215573
-3.56091e-06
-0.000214219
-3.90299e-06
-0.000212793
-4.13925e-06
-0.000211269
-4.45499e-06
-0.000209628
-4.87358e-06
-0.000207881
-5.22119e-06
-0.000206003
-5.65219e-06
-0.000203955
-6.24699e-06
-0.000201733
-6.8311e-06
-0.000199295
-7.55511e-06
-0.000196584
-8.47077e-06
-0.00019353
-9.61047e-06
-0.000190014
-1.11696e-05
-0.00018589
-1.32043e-05
-0.000180924
-1.60246e-05
-0.000174772
-2.00126e-05
-0.000166906
-2.58059e-05
-0.000156489
-3.45379e-05
-4.78227e-05
-0.000253804
1.07036e-06
-0.000254264
1.23572e-06
-0.000254746
1.29644e-06
-0.000255253
1.37206e-06
-0.000255786
1.44661e-06
-0.000256349
1.53301e-06
-0.00025694
1.62137e-06
-0.00025756
1.71664e-06
-0.000258209
1.81021e-06
-0.000258888
1.90862e-06
-0.000259601
2.0161e-06
-0.000260344
2.12552e-06
-0.00026112
2.23957e-06
-0.000261928
2.35393e-06
-0.000262766
2.47239e-06
-0.000263638
2.59424e-06
-0.000264541
2.71769e-06
-0.00026547
2.83458e-06
-0.000266429
2.95487e-06
-0.000267413
3.07296e-06
-0.000268421
3.19226e-06
-0.000269451
3.30313e-06
-0.000270502
3.41208e-06
-0.000271564
3.50837e-06
-0.000272642
3.60805e-06
-0.000273728
3.68913e-06
-0.000274821
3.76548e-06
-0.000275914
3.82726e-06
-0.000277004
3.8781e-06
-0.000278085
3.91448e-06
-0.000279156
3.93775e-06
-0.000280209
3.94043e-06
-0.000281237
3.92357e-06
-0.000282238
3.88958e-06
-0.000283206
3.83923e-06
-0.000284133
3.75666e-06
-0.000285012
3.65303e-06
-0.000285839
3.52772e-06
-0.00028661
3.3835e-06
-0.000287322
3.2197e-06
-0.000287969
3.03514e-06
-0.00028854
2.80427e-06
-0.000289026
2.54497e-06
-0.000289427
2.28656e-06
-0.000289762
2.04947e-06
-0.000290015
1.77525e-06
-0.000290165
1.43256e-06
-0.000290204
1.06547e-06
-0.000290164
7.682e-07
-0.000290057
5.15425e-07
-0.000289851
1.73827e-07
-0.000289527
-2.58059e-07
-0.000289105
-6.14438e-07
-0.00028862
-8.51935e-07
-0.000288057
-1.14851e-06
-0.000287373
-1.58278e-06
-0.00028659
-1.95799e-06
-0.000285748
-2.1803e-06
-0.000284831
-2.45534e-06
-0.000283796
-2.88716e-06
-0.000282661
-3.26445e-06
-0.000281465
-3.48343e-06
-0.000280181
-3.79069e-06
-0.000278779
-4.23601e-06
-0.000277285
-4.5734e-06
-0.000275712
-4.83408e-06
-0.000274026
-5.24735e-06
-0.000272218
-5.71098e-06
-0.000270305
-6.05192e-06
-0.000268274
-6.48588e-06
-0.000266086
-7.06219e-06
-0.000263755
-7.55208e-06
-0.000261251
-8.15626e-06
-0.000258527
-8.97046e-06
-0.000255569
-9.78954e-06
-0.000252319
-1.08046e-05
-0.000248708
-1.20824e-05
-0.000244634
-1.36846e-05
-0.00023994
-1.58636e-05
-0.000234425
-1.8719e-05
-0.000227775
-2.26742e-05
-0.000219536
-2.82516e-05
-0.000209004
-3.63382e-05
-0.000195097
-4.84447e-05
-6.67466e-05
-0.000320058
1.67197e-06
-0.000320716
1.89353e-06
-0.000321406
1.98626e-06
-0.000322122
2.08823e-06
-0.000322875
2.19996e-06
-0.00032366
2.31718e-06
-0.000324483
2.44447e-06
-0.000325339
2.57357e-06
-0.000326232
2.70305e-06
-0.000327163
2.83915e-06
-0.000328128
2.9811e-06
-0.000329131
3.1286e-06
-0.000330163
3.2723e-06
-0.000331235
3.42559e-06
-0.000332342
3.57898e-06
-0.000333477
3.7298e-06
-0.000334643
3.88368e-06
-0.000335835
4.02621e-06
-0.000337052
4.17208e-06
-0.000338294
4.31517e-06
-0.000339557
4.45496e-06
-0.000340833
4.57936e-06
-0.000342121
4.7e-06
-0.00034342
4.8075e-06
-0.000344722
4.90982e-06
-0.000346026
4.99361e-06
-0.000347322
5.06185e-06
-0.000348611
5.116e-06
-0.000349888
5.15467e-06
-0.000351144
5.17029e-06
-0.000352375
5.1691e-06
-0.000353574
5.13959e-06
-0.000354739
5.08817e-06
-0.000355863
5.01448e-06
-0.000356939
4.91462e-06
-0.00035796
4.77747e-06
-0.00035892
4.61366e-06
-0.000359806
4.41336e-06
-0.000360624
4.20122e-06
-0.00036137
3.96594e-06
-0.000362039
3.70389e-06
-0.000362607
3.37255e-06
-0.000363068
3.00582e-06
-0.00036344
2.65875e-06
-0.000363726
2.33548e-06
-0.000363918
1.96753e-06
-0.000363984
1.4983e-06
-0.000363924
1.00584e-06
-0.000363768
6.12063e-07
-0.000363534
2.81717e-07
-0.000363184
-1.76424e-07
-0.00036269
-7.52695e-07
-0.000362087
-1.21649e-06
-0.000361411
-1.52788e-06
-0.000360633
-1.92709e-06
-0.000359718
-2.49786e-06
-0.000358684
-2.99171e-06
-0.000357578
-3.28616e-06
-0.000356375
-3.65889e-06
-0.00035503
-4.23173e-06
-0.000353568
-4.72606e-06
-0.000352024
-5.02802e-06
-0.000350373
-5.44166e-06
-0.000348573
-6.03559e-06
-0.00034666
-6.48708e-06
-0.000344642
-6.85181e-06
-0.00034248
-7.4094e-06
-0.000340162
-8.02916e-06
-0.000337715
-8.49861e-06
-0.000335103
-9.09744e-06
-0.000332295
-9.8706e-06
-0.0003293
-1.05468e-05
-0.000326076
-1.13805e-05
-0.000322565
-1.24815e-05
-0.000318743
-1.36117e-05
-0.000314535
-1.5012e-05
-0.00030984
-1.67776e-05
-0.000304524
-1.90003e-05
-0.00029838
-2.20082e-05
-0.00029113
-2.59684e-05
-0.000282364
-3.14404e-05
-0.000271469
-3.91464e-05
-0.000257534
-5.02733e-05
-0.00023918
-6.67988e-05
-9.15697e-05
-0.00039809
2.50905e-06
-0.000398989
2.79244e-06
-0.000399924
2.9214e-06
-0.000400897
3.06177e-06
-0.00040191
3.21232e-06
-0.000402962
3.37005e-06
-0.000404053
3.53544e-06
-0.000405181
3.70146e-06
-0.000406353
3.87505e-06
-0.00040756
4.04631e-06
-0.000408804
4.22436e-06
-0.000410084
4.40881e-06
-0.0004114
4.58878e-06
-0.000412748
4.77384e-06
-0.000414126
4.9571e-06
-0.000415535
5.13875e-06
-0.000416965
5.31303e-06
-0.000418418
5.47901e-06
-0.000419891
5.64573e-06
-0.000421376
5.80014e-06
-0.00042287
5.94917e-06
-0.000424376
6.08509e-06
-0.000425884
6.20808e-06
-0.00042739
6.31391e-06
-0.000428891
6.41014e-06
-0.000430378
6.4807e-06
-0.00043185
6.53455e-06
-0.000433301
6.56668e-06
-0.000434726
6.57968e-06
-0.000436122
6.56584e-06
-0.000437475
6.52239e-06
-0.000438784
6.44896e-06
-0.000440044
6.34771e-06
-0.000441248
6.21875e-06
-0.000442399
6.06515e-06
-0.000443476
5.85508e-06
-0.000444469
5.6066e-06
-0.000445382
5.32611e-06
-0.000446211
5.03054e-06
-0.000446956
4.71092e-06
-0.000447609
4.35672e-06
-0.000448142
3.90596e-06
-0.000448558
3.42117e-06
-0.000448863
2.96378e-06
-0.000449076
2.54919e-06
-0.000449177
2.06836e-06
-0.000449133
1.45359e-06
-0.000448948
8.21486e-07
-0.000448657
3.21367e-07
-0.000448274
-1.01746e-07
-0.000447757
-6.92947e-07
-0.000447079
-1.43074e-06
-0.000446277
-2.0188e-06
-0.000445388
-2.41722e-06
-0.000444379
-2.93573e-06
-0.000443214
-3.66329e-06
-0.000441915
-4.28997e-06
-0.000440526
-4.67561e-06
-0.000439019
-5.16619e-06
-0.000437348
-5.90231e-06
-0.00043554
-6.53375e-06
-0.000433628
-6.94e-06
-0.000431577
-7.49323e-06
-0.000429356
-8.2559e-06
-0.000426992
-8.85127e-06
-0.000424495
-9.34902e-06
-0.000421816
-1.00887e-05
-0.000418949
-1.08963e-05
-0.000415911
-1.15361e-05
-0.000412661
-1.23475e-05
-0.000409168
-1.3364e-05
-0.000405428
-1.42864e-05
-0.000401384
-1.54244e-05
-0.000396974
-1.68913e-05
-0.000392149
-1.84364e-05
-0.000386812
-2.0349e-05
-0.000380824
-2.27656e-05
-0.000374003
-2.58217e-05
-0.000366072
-2.99391e-05
-0.000356658
-3.53829e-05
-0.000345208
-4.28899e-05
-0.000330934
-5.34208e-05
-0.000312664
-6.85433e-05
-0.00028868
-9.07824e-05
-0.000123752
-0.00048925
3.62813e-06
-0.000490436
3.97887e-06
-0.000491662
4.14691e-06
-0.000492927
4.32739e-06
-0.000494235
4.52054e-06
-0.000495587
4.72182e-06
-0.000496982
4.93021e-06
-0.000498414
5.1335e-06
-0.000499879
5.34069e-06
-0.000501384
5.55081e-06
-0.000502926
5.76642e-06
-0.000504497
5.97951e-06
-0.000506098
6.19043e-06
-0.000507721
6.39699e-06
-0.000509374
6.60955e-06
-0.000511042
6.80696e-06
-0.000512732
7.0029e-06
-0.000514431
7.17797e-06
-0.000516133
7.34802e-06
-0.000517844
7.51095e-06
-0.000519557
7.66228e-06
-0.00052126
7.78838e-06
-0.000522958
7.90585e-06
-0.000524643
7.99862e-06
-0.000526306
8.07328e-06
-0.000527947
8.12239e-06
-0.000529559
8.14674e-06
-0.000531137
8.14454e-06
-0.000532678
8.12005e-06
-0.000534171
8.0595e-06
-0.000535615