/*--------------------------------*- C++ -*----------------------------------*\
| =========                 |                                                 |
| \\      /  F ield         | OpenFOAM: The Open Source CFD Toolbox           |
|  \\    /   O peration     | Version:  2412                                  |
|   \\  /    A nd           | Website:  www.openfoam.com                      |
|    \\/     M anipulation  |                                                 |
\*---------------------------------------------------------------------------*/
FoamFile
{
    version     2.0;
    format      ascii;
    arch        "LSB;label=32;scalar=64";
    class       volScalarField;
    location    "340";
    object      nut;
}
// * * * * * * * * * * * * * * * * * * * * * * * * * * * * * * * * * * * * * //

dimensions      [0 2 -1 0 0 0 0];

internalField   nonuniform List<scalar> 
8553
(
1.40268e-12
3.29242e-12
7.18797e-13
8.88083e-14
2.77699e-13
5.60592e-13
7.43216e-12
1.37906e-11
1.13398e-11
8.40395e-12
7.31738e-12
6.69862e-12
6.56644e-12
6.715e-12
6.89668e-12
6.91186e-12
6.80737e-12
6.60743e-12
6.36493e-12
6.17456e-12
6.06457e-12
6.00721e-12
5.98388e-12
5.95801e-12
5.91513e-12
5.86229e-12
5.80856e-12
5.76435e-12
5.72986e-12
5.70069e-12
5.67191e-12
5.64293e-12
5.61505e-12
5.58836e-12
5.56376e-12
5.54124e-12
5.52007e-12
5.49931e-12
5.47985e-12
5.46225e-12
5.44563e-12
5.43034e-12
5.41608e-12
5.40342e-12
5.39237e-12
5.38254e-12
5.3741e-12
5.36733e-12
5.36176e-12
5.35711e-12
5.35361e-12
5.35138e-12
5.35016e-12
5.34973e-12
5.35025e-12
5.35153e-12
5.35361e-12
5.35614e-12
5.35881e-12
5.36256e-12
5.36706e-12
5.37178e-12
5.37726e-12
5.38293e-12
5.38928e-12
5.39609e-12
5.40283e-12
5.41018e-12
5.41835e-12
5.42679e-12
5.43553e-12
5.44491e-12
5.45457e-12
5.46493e-12
5.47585e-12
5.4876e-12
5.50046e-12
5.51422e-12
4.04846e-12
3.97361e-12
3.92149e-12
4.02453e-12
4.38409e-12
5.0521e-12
6.70753e-12
8.06213e-12
5.03993e-12
5.05513e-13
2.10227e-13
5.66392e-14
1.18828e-13
2.28024e-12
2.8628e-12
1.19775e-10
2.54179e-10
7.12697e-11
8.55342e-12
2.30814e-11
5.42405e-11
6.78821e-10
1.18324e-09
9.95671e-10
7.64776e-10
6.72678e-10
6.21352e-10
6.10584e-10
6.23077e-10
6.37539e-10
6.37998e-10
6.28223e-10
6.10444e-10
5.89398e-10
5.72899e-10
5.63274e-10
5.58218e-10
5.56017e-10
5.53555e-10
5.49627e-10
5.4488e-10
5.40091e-10
5.36129e-10
5.32998e-10
5.30318e-10
5.27698e-10
5.25054e-10
5.22507e-10
5.20095e-10
5.17861e-10
5.15795e-10
5.13837e-10
5.11943e-10
5.10172e-10
5.08535e-10
5.07006e-10
5.05608e-10
5.04317e-10
5.03159e-10
5.02145e-10
5.01258e-10
5.00503e-10
4.99883e-10
4.99375e-10
4.98983e-10
4.98702e-10
4.98532e-10
4.9847e-10
4.98483e-10
4.98575e-10
4.98752e-10
4.99006e-10
4.99311e-10
4.99656e-10
5.00082e-10
5.00572e-10
5.01108e-10
5.017e-10
5.02326e-10
5.03023e-10
5.03749e-10
5.04497e-10
5.05307e-10
5.06174e-10
5.07083e-10
5.08028e-10
5.09037e-10
5.10076e-10
5.1118e-10
5.12353e-10
5.13599e-10
5.14944e-10
5.16387e-10
3.72284e-10
3.66326e-10
3.61986e-10
3.7059e-10
4.00716e-10
4.57188e-10
5.88628e-10
6.93436e-10
4.53822e-10
5.29349e-11
1.74954e-11
5.16881e-12
1.0465e-11
1.75744e-10
2.13324e-10
1.03878e-09
1.86369e-09
7.05745e-10
9.16444e-11
1.85837e-10
6.21403e-10
6.02313e-09
9.75383e-09
8.49239e-09
6.85143e-09
6.11987e-09
5.72885e-09
5.64793e-09
5.74288e-09
5.84341e-09
5.83546e-09
5.74577e-09
5.59458e-09
5.42196e-09
5.28696e-09
5.20703e-09
5.16426e-09
5.14346e-09
5.12015e-09
5.08509e-09
5.04371e-09
5.00257e-09
4.96827e-09
4.9407e-09
4.91677e-09
4.89348e-09
4.87006e-09
4.8474e-09
4.82609e-09
4.80631e-09
4.78782e-09
4.77024e-09
4.75334e-09
4.73745e-09
4.72264e-09
4.70888e-09
4.69634e-09
4.68484e-09
4.67445e-09
4.66534e-09
4.65745e-09
4.65081e-09
4.64541e-09
4.64116e-09
4.63807e-09
4.63603e-09
4.635e-09
4.63504e-09
4.63589e-09
4.63754e-09
4.64002e-09
4.64329e-09
4.64718e-09
4.65156e-09
4.65667e-09
4.66247e-09
4.66884e-09
4.67568e-09
4.68299e-09
4.69093e-09
4.69924e-09
4.70796e-09
4.71728e-09
4.72708e-09
4.73743e-09
4.74826e-09
4.75969e-09
4.77158e-09
4.78411e-09
4.79732e-09
4.81126e-09
4.82623e-09
4.8422e-09
3.38563e-09
3.34411e-09
3.3116e-09
3.3783e-09
3.61176e-09
4.05809e-09
5.00508e-09
5.72592e-09
3.96079e-09
6.25804e-10
1.41228e-10
4.86653e-11
1.06275e-10
1.27634e-09
1.51767e-09
4.55507e-09
6.64269e-09
3.24493e-09
5.38122e-10
7.32045e-10
4.16017e-09
2.5512e-08
3.89799e-08
3.53599e-08
3.00589e-08
2.73348e-08
2.5966e-08
2.56763e-08
2.59902e-08
2.62841e-08
2.61958e-08
2.58049e-08
2.51994e-08
2.45361e-08
2.40175e-08
2.37038e-08
2.35308e-08
2.34349e-08
2.3328e-08
2.31779e-08
2.30054e-08
2.28363e-08
2.26942e-08
2.25775e-08
2.24748e-08
2.23746e-08
2.22744e-08
2.21774e-08
2.2086e-08
2.20009e-08
2.19205e-08
2.1844e-08
2.17707e-08
2.17014e-08
2.16369e-08
2.1577e-08
2.15222e-08
2.14723e-08
2.14275e-08
2.13883e-08
2.13548e-08
2.13272e-08
2.13056e-08
2.12895e-08
2.12788e-08
2.12734e-08
2.12731e-08
2.12776e-08
2.12866e-08
2.12999e-08
2.13171e-08
2.13384e-08
2.13633e-08
2.13911e-08
2.14226e-08
2.14576e-08
2.14956e-08
2.15363e-08
2.15799e-08
2.16267e-08
2.16758e-08
2.17274e-08
2.17822e-08
2.18396e-08
2.19001e-08
2.19636e-08
2.20303e-08
2.20999e-08
2.21728e-08
2.22494e-08
2.23299e-08
2.24159e-08
2.2507e-08
1.5063e-08
1.49406e-08
1.48363e-08
1.50804e-08
1.5918e-08
1.75696e-08
2.06859e-08
2.28521e-08
1.65506e-08
3.81602e-09
5.57375e-10
2.44544e-10
6.14491e-10
4.47336e-09
5.3057e-09
1.61508e-08
1.668e-08
9.83175e-09
2.30505e-09
2.04056e-09
1.98882e-08
7.33954e-08
1.08521e-07
1.02967e-07
9.20012e-08
8.52413e-08
8.21076e-08
8.13581e-08
8.1939e-08
8.23918e-08
8.19977e-08
8.08729e-08
7.92729e-08
7.75932e-08
7.62716e-08
7.54474e-08
7.4973e-08
7.46714e-08
7.43408e-08
7.39086e-08
7.34252e-08
7.29574e-08
7.25592e-08
7.22257e-08
7.1926e-08
7.16331e-08
7.13412e-08
7.10579e-08
7.07902e-08
7.05391e-08
7.03007e-08
7.00728e-08
6.98546e-08
6.96482e-08
6.94556e-08
6.92772e-08
6.91137e-08
6.89657e-08
6.88345e-08
6.87213e-08
6.86269e-08
6.85521e-08
6.84968e-08
6.84603e-08
6.84424e-08
6.84436e-08
6.84626e-08
6.84987e-08
6.85511e-08
6.86188e-08
6.87013e-08
6.8799e-08
6.89102e-08
6.90335e-08
6.91703e-08
6.93201e-08
6.94819e-08
6.9655e-08
6.98392e-08
7.00357e-08
7.02426e-08
7.04601e-08
7.06892e-08
7.09299e-08
7.11824e-08
7.14475e-08
7.17258e-08
7.2016e-08
7.23201e-08
7.26388e-08
7.29733e-08
7.33269e-08
7.36996e-08
4.66061e-08
4.64087e-08
4.62284e-08
4.68448e-08
4.88287e-08
5.29044e-08
5.95388e-08
6.33069e-08
4.718e-08
1.58148e-08
1.55832e-09
9.55673e-10
2.68552e-09
1.12553e-08
1.55739e-08
5.28716e-08
3.43464e-08
2.30018e-08
7.66144e-09
4.71239e-09
6.905e-08
1.65218e-07
2.43132e-07
2.41537e-07
2.25454e-07
2.12679e-07
2.07282e-07
2.0556e-07
2.05992e-07
2.06167e-07
2.05075e-07
2.0269e-07
1.9957e-07
1.96426e-07
1.93903e-07
1.92258e-07
1.91256e-07
1.90529e-07
1.89757e-07
1.88814e-07
1.87789e-07
1.86807e-07
1.85957e-07
1.85225e-07
1.84554e-07
1.83897e-07
1.83242e-07
1.82605e-07
1.82e-07
1.81427e-07
1.80879e-07
1.80353e-07
1.79848e-07
1.7937e-07
1.78924e-07
1.78511e-07
1.78135e-07
1.77798e-07
1.77505e-07
1.77259e-07
1.77063e-07
1.76919e-07
1.76827e-07
1.76788e-07
1.76802e-07
1.76869e-07
1.76987e-07
1.77156e-07
1.77373e-07
1.77635e-07
1.77943e-07
1.78296e-07
1.78691e-07
1.79125e-07
1.796e-07
1.80116e-07
1.8067e-07
1.8126e-07
1.81887e-07
1.82552e-07
1.83252e-07
1.83988e-07
1.84762e-07
1.85574e-07
1.86425e-07
1.87319e-07
1.88256e-07
1.89234e-07
1.90257e-07
1.91331e-07
1.92455e-07
1.93636e-07
1.94874e-07
1.15019e-07
1.14896e-07
1.14808e-07
1.1608e-07
1.19641e-07
1.27312e-07
1.37547e-07
1.40599e-07
1.0566e-07
4.85681e-08
3.64758e-09
3.14237e-09
9.88117e-09
2.4372e-08
5.14358e-08
1.54108e-07
6.29606e-08
4.52425e-08
1.94175e-08
1.1924e-08
1.81037e-07
3.14034e-07
4.71492e-07
4.89322e-07
4.73235e-07
4.5369e-07
4.46108e-07
4.42316e-07
4.41311e-07
4.40302e-07
4.38217e-07
4.34413e-07
4.29845e-07
4.25398e-07
4.21653e-07
4.19045e-07
4.17327e-07
4.15931e-07
4.14514e-07
4.12903e-07
4.11198e-07
4.09576e-07
4.08131e-07
4.06848e-07
4.05644e-07
4.04457e-07
4.03276e-07
4.02123e-07
4.01014e-07
3.99949e-07
3.98924e-07
3.97933e-07
3.96979e-07
3.96075e-07
3.95231e-07
3.94455e-07
3.93756e-07
3.93144e-07
3.92626e-07
3.92215e-07
3.91919e-07
3.91742e-07
3.91691e-07
3.91767e-07
3.91972e-07
3.92306e-07
3.9277e-07
3.93362e-07
3.94077e-07
3.94909e-07
3.95861e-07
3.96931e-07
3.98113e-07
3.99403e-07
4.00804e-07
4.02313e-07
4.03925e-07
4.05639e-07
4.07455e-07
4.09377e-07
4.11398e-07
4.13522e-07
4.15752e-07
4.18092e-07
4.20545e-07
4.23117e-07
4.25813e-07
4.28631e-07
4.3158e-07
4.34669e-07
4.37902e-07
4.41288e-07
4.44824e-07
2.42342e-07
2.42597e-07
2.43081e-07
2.45435e-07
2.50626e-07
2.62316e-07
2.73766e-07
2.69296e-07
1.99649e-07
1.17982e-07
9.22492e-09
9.13187e-09
2.88561e-08
4.83752e-08
1.64474e-07
3.94901e-07
1.12372e-07
7.92132e-08
4.07586e-08
3.17177e-08
3.86986e-07
5.35208e-07
8.25103e-07
8.8936e-07
8.83325e-07
8.58471e-07
8.49198e-07
8.41399e-07
8.36783e-07
8.33674e-07
8.31084e-07
8.26906e-07
8.22407e-07
8.18096e-07
8.13945e-07
8.10688e-07
8.0831e-07
8.0618e-07
8.04185e-07
8.02098e-07
7.99948e-07
7.97893e-07
7.95974e-07
7.94192e-07
7.92469e-07
7.90757e-07
7.89046e-07
7.87357e-07
7.85701e-07
7.8408e-07
7.82501e-07
7.80962e-07
7.79476e-07
7.78067e-07
7.76755e-07
7.75562e-07
7.74514e-07
7.73632e-07
7.7294e-07
7.72464e-07
7.72226e-07
7.72241e-07
7.7252e-07
7.73077e-07
7.73919e-07
7.75049e-07
7.76468e-07
7.78177e-07
7.80168e-07
7.82437e-07
7.84984e-07
7.87805e-07
7.90892e-07
7.94242e-07
7.97855e-07
8.01725e-07
8.05848e-07
8.10222e-07
8.14851e-07
8.19736e-07
8.24871e-07
8.30266e-07
8.35926e-07
8.41864e-07
8.4809e-07
8.54614e-07
8.61452e-07
8.68606e-07
8.76094e-07
8.83934e-07
8.92137e-07
9.00708e-07
9.09636e-07
4.53194e-07
4.54083e-07
4.55944e-07
4.59994e-07
4.66383e-07
4.81112e-07
4.88493e-07
4.64083e-07
3.35979e-07
2.40021e-07
2.46466e-08
2.40831e-08
6.76926e-08
9.19216e-08
4.7839e-07
8.99131e-07
2.32236e-07
1.28851e-07
7.44153e-08
8.49592e-08
7.11461e-07
8.48581e-07
1.33594e-06
1.48217e-06
1.49951e-06
1.47335e-06
1.46294e-06
1.44867e-06
1.4382e-06
1.43317e-06
1.43237e-06
1.43106e-06
1.43039e-06
1.42947e-06
1.42697e-06
1.42419e-06
1.42179e-06
1.41943e-06
1.4176e-06
1.41599e-06
1.41438e-06
1.41277e-06
1.41106e-06
1.40931e-06
1.40753e-06
1.40571e-06
1.40387e-06
1.40199e-06
1.40008e-06
1.39815e-06
1.39622e-06
1.39431e-06
1.39246e-06
1.39071e-06
1.3891e-06
1.38768e-06
1.38651e-06
1.38564e-06
1.38512e-06
1.385e-06
1.38534e-06
1.38617e-06
1.38752e-06
1.38944e-06
1.39192e-06
1.39499e-06
1.39867e-06
1.40294e-06
1.4078e-06
1.41326e-06
1.4193e-06
1.42593e-06
1.43313e-06
1.4409e-06
1.44924e-06
1.45814e-06
1.4676e-06
1.47762e-06
1.48819e-06
1.49933e-06
1.51104e-06
1.52334e-06
1.53624e-06
1.54977e-06
1.56395e-06
1.57882e-06
1.59439e-06
1.61069e-06
1.62776e-06
1.64563e-06
1.66431e-06
1.6838e-06
1.70407e-06
7.7072e-07
7.71948e-07
7.7601e-07
7.82453e-07
7.89188e-07
8.04261e-07
8.00098e-07
7.38758e-07
5.22361e-07
4.27099e-07
6.56716e-08
5.08147e-08
1.35891e-07
1.99223e-07
1.2462e-06
1.84316e-06
4.94149e-07
1.98713e-07
1.23428e-07
2.21912e-07
1.17088e-06
1.28181e-06
2.03056e-06
2.29409e-06
2.34845e-06
2.32722e-06
2.31636e-06
2.29394e-06
2.27707e-06
2.27289e-06
2.27898e-06
2.28669e-06
2.29618e-06
2.30386e-06
2.30655e-06
2.30654e-06
2.30576e-06
2.30478e-06
2.30505e-06
2.30606e-06
2.30711e-06
2.30783e-06
2.3079e-06
2.30753e-06
2.3069e-06
2.30614e-06
2.30526e-06
2.30419e-06
2.30291e-06
2.30147e-06
2.29992e-06
2.29834e-06
2.29678e-06
2.29533e-06
2.29407e-06
2.2931e-06
2.29254e-06
2.29248e-06
2.29303e-06
2.29431e-06
2.29641e-06
2.29941e-06
2.30339e-06
2.30841e-06
2.31451e-06
2.32173e-06
2.33009e-06
2.33961e-06
2.35028e-06
2.3621e-06
2.37507e-06
2.38919e-06
2.40444e-06
2.42081e-06
2.43832e-06
2.45694e-06
2.47668e-06
2.49755e-06
2.51955e-06
2.5427e-06
2.56701e-06
2.59253e-06
2.61929e-06
2.64735e-06
2.67675e-06
2.70756e-06
2.73983e-06
2.77362e-06
2.809e-06
2.84601e-06
2.8847e-06
2.92502e-06
2.96688e-06
1.21136e-06
1.2178e-06
1.22695e-06
1.23282e-06
1.24397e-06
1.22008e-06
1.10419e-06
7.69276e-07
6.85107e-07
1.69247e-07
9.08958e-08
2.46821e-07
4.56915e-07
2.91219e-06
3.44031e-06
1.02174e-06
2.95623e-07
1.92149e-07
5.64575e-07
1.76982e-06
1.87291e-06
2.91971e-06
3.32331e-06
3.42646e-06
3.41818e-06
3.40885e-06
3.37962e-06
3.3596e-06
3.3629e-06
3.38416e-06
3.40984e-06
3.43792e-06
3.461e-06
3.4739e-06
3.48041e-06
3.48441e-06
3.48803e-06
3.49393e-06
3.50123e-06
3.50845e-06
3.51463e-06
3.51921e-06
3.52267e-06
3.52548e-06
3.52795e-06
3.53008e-06
3.53173e-06
3.53284e-06
3.53351e-06
3.53388e-06
3.53408e-06
3.53423e-06
3.53447e-06
3.53497e-06
3.53591e-06
3.53749e-06
3.53991e-06
3.54337e-06
3.54806e-06
3.55417e-06
3.56186e-06
3.57127e-06
3.58251e-06
3.59568e-06
3.61085e-06
3.62807e-06
3.64737e-06
3.66873e-06
3.69218e-06
3.71772e-06
3.74535e-06
3.77504e-06
3.80679e-06
3.84061e-06
3.87649e-06
3.91445e-06
3.95449e-06
3.99664e-06
4.04094e-06
4.08744e-06
4.1362e-06
4.1873e-06
4.24085e-06
4.29695e-06
4.3557e-06
4.4172e-06
4.48157e-06
4.54892e-06
4.61935e-06
4.69287e-06
4.76943e-06
4.8488e-06
4.92394e-06
5.01488e-06
5.11112e-06
1.77454e-06
1.782e-06
1.79297e-06
1.79612e-06
1.79798e-06
1.74696e-06
1.56424e-06
1.09188e-06
1.01228e-06
3.98186e-07
1.54208e-07
4.21037e-07
1.05196e-06
6.11267e-06
5.89684e-06
2.00646e-06
4.91565e-07
2.76626e-07
1.19463e-06
2.50241e-06
2.65061e-06
3.98655e-06
4.52951e-06
4.69081e-06
4.7055e-06
4.70305e-06
4.67367e-06
4.65912e-06
4.6805e-06
4.72761e-06
4.78183e-06
4.83784e-06
4.88395e-06
4.91332e-06
4.93174e-06
4.94554e-06
4.95892e-06
4.97573e-06
4.99453e-06
5.01282e-06
5.0289e-06
5.04203e-06
5.05305e-06
5.06284e-06
5.07191e-06
5.08025e-06
5.0876e-06
5.09392e-06
5.09935e-06
5.10416e-06
5.1086e-06
5.11288e-06
5.11725e-06
5.12197e-06
5.12736e-06
5.13379e-06
5.14159e-06
5.1511e-06
5.16265e-06
5.17656e-06
5.19311e-06
5.21254e-06
5.23507e-06
5.26086e-06
5.29001e-06
5.32261e-06
5.35871e-06
5.39832e-06
5.44145e-06
5.48813e-06
5.53835e-06
5.59209e-06
5.64934e-06
5.71012e-06
5.77444e-06
5.84232e-06
5.91379e-06
5.98892e-06
6.06777e-06
6.15044e-06
6.23705e-06
6.32775e-06
6.42272e-06
6.52211e-06
6.6261e-06
6.73487e-06
6.8486e-06
6.96745e-06
7.09156e-06
7.22091e-06
7.3554e-06
7.49468e-06
7.63357e-06
7.79261e-06
7.96025e-06
2.4466e-06
2.45142e-06
2.46113e-06
2.45845e-06
2.44485e-06
2.36096e-06
2.10999e-06
1.49652e-06
1.39912e-06
8.2174e-07
2.79739e-07
6.85588e-07
2.35664e-06
1.1514e-05
9.34925e-06
3.71937e-06
8.71174e-07
3.91117e-07
2.14688e-06
3.35221e-06
3.60782e-06
5.1773e-06
5.83211e-06
6.05969e-06
6.1103e-06
6.12553e-06
6.10917e-06
6.11377e-06
6.16635e-06
6.25044e-06
6.34349e-06
6.43615e-06
6.51288e-06
6.56596e-06
6.60327e-06
6.63379e-06
6.66393e-06
6.69847e-06
6.73523e-06
6.77061e-06
6.8022e-06
6.82913e-06
6.8527e-06
6.87423e-06
6.89447e-06
6.91335e-06
6.93055e-06
6.946e-06
6.95998e-06
6.97293e-06
6.98525e-06
6.9973e-06
7.00945e-06
7.02218e-06
7.03601e-06
7.05149e-06
7.06919e-06
7.08965e-06
7.11342e-06
7.14099e-06
7.17281e-06
7.20926e-06
7.25069e-06
7.29734e-06
7.34937e-06
7.40691e-06
7.47002e-06
7.53874e-06
7.61308e-06
7.69307e-06
7.77872e-06
7.86998e-06
7.96686e-06
8.0694e-06
8.17761e-06
8.29156e-06
8.41129e-06
8.53692e-06
8.66859e-06
8.80646e-06
8.95073e-06
9.10162e-06
9.2594e-06
9.42431e-06
9.59659e-06
9.77652e-06
9.96435e-06
1.01603e-05
1.03644e-05
1.05767e-05
1.0797e-05
1.10248e-05
1.12569e-05
1.15149e-05
1.17854e-05
3.19342e-06
3.1897e-06
3.19238e-06
3.17871e-06
3.1428e-06
3.02207e-06
2.71439e-06
1.97874e-06
1.8301e-06
1.42972e-06
4.39946e-07
1.07062e-06
5.01917e-06
1.94749e-05
1.38032e-05
6.50603e-06
1.58153e-06
6.2309e-07
3.38131e-06
4.28882e-06
4.70311e-06
6.39978e-06
7.11888e-06
7.42124e-06
7.52458e-06
7.57424e-06
7.58945e-06
7.62965e-06
7.72622e-06
7.8564e-06
7.99634e-06
8.13258e-06
8.24699e-06
8.33169e-06
8.39625e-06
8.45197e-06
8.50717e-06
8.56713e-06
8.62899e-06
8.6882e-06
8.7417e-06
8.78866e-06
8.83082e-06
8.86993e-06
8.90694e-06
8.94175e-06
8.97397e-06
9.00359e-06
9.03107e-06
9.05707e-06
9.08221e-06
9.10702e-06
9.13212e-06
9.15824e-06
9.1862e-06
9.21684e-06
9.25104e-06
9.28962e-06
9.33339e-06
9.38311e-06
9.43942e-06
9.50291e-06
9.57408e-06
9.65321e-06
9.74053e-06
9.83622e-06
9.94036e-06
1.0053e-05
1.01741e-05
1.03038e-05
1.04419e-05
1.05886e-05
1.07438e-05
1.09075e-05
1.10798e-05
1.12608e-05
1.14506e-05
1.16493e-05
1.18573e-05
1.20747e-05
1.23017e-05
1.25389e-05
1.27864e-05
1.30446e-05
1.33138e-05
1.35943e-05
1.38865e-05
1.41904e-05
1.45062e-05
1.48336e-05
1.51723e-05
1.55218e-05
1.58813e-05
1.62726e-05
1.66802e-05
3.96267e-06
3.9432e-06
3.93089e-06
3.89891e-06
3.83327e-06
3.67316e-06
3.33076e-06
2.51717e-06
2.28937e-06
2.14652e-06
6.51096e-07
1.84005e-06
1.00306e-05
2.973e-05
1.91081e-05
1.07718e-05
2.88032e-06
1.09908e-06
4.76851e-06
5.26281e-06
5.85405e-06
7.53272e-06
8.26195e-06
8.6485e-06
8.82457e-06
8.92938e-06
8.99668e-06
9.08784e-06
9.23775e-06
9.41917e-06
9.61072e-06
9.7953e-06
9.95373e-06
1.00784e-05
1.01793e-05
1.02695e-05
1.03585e-05
1.04517e-05
1.05458e-05
1.06358e-05
1.0718e-05
1.07919e-05
1.08594e-05
1.09227e-05
1.09829e-05
1.10398e-05
1.10932e-05
1.11431e-05
1.11902e-05
1.12355e-05
1.12797e-05
1.13239e-05
1.13688e-05
1.14156e-05
1.14655e-05
1.15198e-05
1.15796e-05
1.16463e-05
1.17209e-05
1.18045e-05
1.1898e-05
1.20023e-05
1.21179e-05
1.22451e-05
1.23843e-05
1.25356e-05
1.26992e-05
1.2875e-05
1.3063e-05
1.32634e-05
1.34759e-05
1.37007e-05
1.39377e-05
1.41869e-05
1.44485e-05
1.47226e-05
1.50094e-05
1.53091e-05
1.56219e-05
1.59483e-05
1.62886e-05
1.66431e-05
1.70123e-05
1.73965e-05
1.7796e-05
1.82111e-05
1.8642e-05
1.90887e-05
1.95512e-05
2.00288e-05
2.0521e-05
2.10275e-05
2.15498e-05
2.21087e-05
2.26866e-05
4.6881e-06
4.64603e-06
4.61025e-06
4.55143e-06
4.44886e-06
4.24833e-06
3.89755e-06
3.07038e-06
2.75674e-06
2.88949e-06
1.04983e-06
3.31755e-06
1.86975e-05
4.14252e-05
2.49808e-05
1.69584e-05
5.24553e-06
2.08176e-06
6.16603e-06
6.2024e-06
6.93471e-06
8.44374e-06
9.13592e-06
9.61522e-06
9.88399e-06
1.00643e-05
1.02014e-05
1.0354e-05
1.05608e-05
1.07943e-05
1.10387e-05
1.12745e-05
1.14826e-05
1.16553e-05
1.18018e-05
1.19354e-05
1.20663e-05
1.21999e-05
1.23331e-05
1.24605e-05
1.25784e-05
1.26863e-05
1.27864e-05
1.28809e-05
1.29712e-05
1.30572e-05
1.31387e-05
1.32161e-05
1.32901e-05
1.33622e-05
1.34335e-05
1.35054e-05
1.35791e-05
1.36562e-05
1.37385e-05
1.38277e-05
1.39256e-05
1.40338e-05
1.41538e-05
1.4287e-05
1.44347e-05
1.45978e-05
1.4777e-05
1.49726e-05
1.5185e-05
1.54143e-05
1.56605e-05
1.59238e-05
1.62039e-05
1.65009e-05
1.68148e-05
1.71454e-05
1.74929e-05
1.78572e-05
1.82384e-05
1.86368e-05
1.90525e-05
1.94859e-05
1.99372e-05
2.04069e-05
2.08953e-05
2.14029e-05
2.19298e-05
2.24764e-05
2.30428e-05
2.36292e-05
2.42355e-05
2.48614e-05
2.55064e-05
2.61694e-05
2.68495e-05
2.75467e-05
2.82644e-05
2.90211e-05
2.97972e-05
5.29713e-06
5.22751e-06
5.16187e-06
5.06868e-06
4.92428e-06
4.685e-06
4.34938e-06
3.58009e-06
3.2061e-06
3.58246e-06
1.79088e-06
6.05191e-06
3.24305e-05
5.35378e-05
3.10601e-05
2.55216e-05
9.60654e-06
3.67682e-06
7.44771e-06
7.0051e-06
7.78102e-06
9.01055e-06
9.634e-06
1.02095e-05
1.05856e-05
1.08557e-05
1.10727e-05
1.12904e-05
1.1551e-05
1.18341e-05
1.213e-05
1.24182e-05
1.26808e-05
1.29088e-05
1.31087e-05
1.32933e-05
1.34728e-05
1.36527e-05
1.38307e-05
1.40017e-05
1.4162e-05
1.4311e-05
1.44508e-05
1.45839e-05
1.47117e-05
1.48344e-05
1.49519e-05
1.50648e-05
1.51746e-05
1.52827e-05
1.5391e-05
1.55012e-05
1.56152e-05
1.57352e-05
1.58636e-05
1.60027e-05
1.61548e-05
1.63221e-05
1.65066e-05
1.671e-05
1.69336e-05
1.71786e-05
1.74457e-05
1.77351e-05
1.80472e-05
1.83821e-05
1.87397e-05
1.912e-05
1.95227e-05
1.99478e-05
2.03952e-05
2.08648e-05
2.13565e-05
2.18705e-05
2.24067e-05
2.29655e-05
2.3547e-05
2.41514e-05
2.47791e-05
2.54304e-05
2.61055e-05
2.68047e-05
2.7528e-05
2.82753e-05
2.90466e-05
2.98414e-05
3.06593e-05
3.14993e-05
3.23602e-05
3.32403e-05
3.41384e-05
3.50545e-05
3.59932e-05
3.69695e-05
3.79619e-05
5.62471e-06
5.52582e-06
5.39411e-06
5.20901e-06
4.93787e-06
4.63252e-06
3.98234e-06
3.59637e-06
4.16882e-06
2.78535e-06
1.08515e-05
4.77645e-05
6.51568e-05
3.69568e-05
3.69345e-05
1.56832e-05
5.79222e-06
8.48149e-06
7.53949e-06
8.24384e-06
9.14025e-06
9.68119e-06
1.03458e-05
1.0832e-05
1.11953e-05
1.14922e-05
1.17712e-05
1.20776e-05
1.2405e-05
1.27488e-05
1.30893e-05
1.34091e-05
1.36973e-05
1.3956e-05
1.41966e-05
1.44292e-05
1.46596e-05
1.4887e-05
1.51068e-05
1.53156e-05
1.55123e-05
1.5699e-05
1.5878e-05
1.6051e-05
1.62185e-05
1.63809e-05
1.65391e-05
1.66948e-05
1.68503e-05
1.70077e-05
1.71696e-05
1.73386e-05
1.75176e-05
1.77097e-05
1.79179e-05
1.81452e-05
1.83943e-05
1.86674e-05
1.89667e-05
1.92936e-05
1.96491e-05
2.00338e-05
2.04482e-05
2.08922e-05
2.13659e-05
2.18691e-05
2.24015e-05
2.29628e-05
2.35528e-05
2.41713e-05
2.48181e-05
2.54931e-05
2.61963e-05
2.69277e-05
2.76874e-05
2.84755e-05
2.92921e-05
3.01373e-05
3.10111e-05
3.19135e-05
3.28442e-05
3.38028e-05
3.47887e-05
3.5801e-05
3.68388e-05
3.79005e-05
3.89846e-05
4.00887e-05
4.12104e-05
4.23479e-05
4.35014e-05
4.46759e-05
4.58811e-05
4.70949e-05
5.49914e-06
5.28227e-06
4.99395e-06
4.72206e-06
4.22521e-06
3.8681e-06
4.59475e-06
3.90249e-06
1.73057e-05
6.26044e-05
7.31151e-05
4.23298e-05
4.83081e-05
2.28237e-05
8.07148e-06
9.15895e-06
7.76773e-06
8.25439e-06
8.78776e-06
9.24677e-06
9.97828e-06
1.05589e-05
1.10056e-05
1.13717e-05
1.17015e-05
1.20426e-05
1.24065e-05
1.27927e-05
1.31826e-05
1.35592e-05
1.39084e-05
1.42272e-05
1.45254e-05
1.48127e-05
1.50956e-05
1.53753e-05
1.5648e-05
1.59101e-05
1.61604e-05
1.64004e-05
1.66325e-05
1.68587e-05
1.708e-05
1.72972e-05
1.75117e-05
1.77257e-05
1.7942e-05
1.81636e-05
1.83939e-05
1.86363e-05
1.88945e-05
1.91725e-05
1.94741e-05
1.98027e-05
2.01614e-05
2.05531e-05
2.09798e-05
2.14426e-05
2.19428e-05
2.24808e-05
2.30569e-05
2.36707e-05
2.43221e-05
2.50107e-05
2.57358e-05
2.6497e-05
2.7294e-05
2.81263e-05
2.89935e-05
2.98954e-05
3.08318e-05
3.18024e-05
3.28071e-05
3.38456e-05
3.49176e-05
3.60228e-05
3.71607e-05
3.83305e-05
3.95312e-05
4.07615e-05
4.20198e-05
4.33044e-05
4.4613e-05
4.59434e-05
4.72925e-05
4.8657e-05
5.00335e-05
5.14198e-05
5.28158e-05
5.42258e-05
5.56544e-05
5.70791e-05
5.40095e-06
5.16809e-06
4.88692e-06
4.63662e-06
4.28713e-06
4.00654e-06
4.83518e-06
4.9846e-06
2.43498e-05
7.57773e-05
7.74071e-05
4.63448e-05
5.83228e-05
2.98512e-05
1.00075e-05
9.41336e-06
7.66485e-06
7.79089e-06
7.97212e-06
8.35465e-06
9.11333e-06
9.7541e-06
1.02599e-05
1.06749e-05
1.10398e-05
1.14028e-05
1.1793e-05
1.22126e-05
1.26445e-05
1.30718e-05
1.34769e-05
1.38519e-05
1.42047e-05
1.45447e-05
1.48794e-05
1.5212e-05
1.55394e-05
1.58581e-05
1.61663e-05
1.64651e-05
1.6757e-05
1.70444e-05
1.73288e-05
1.76117e-05
1.78949e-05
1.81814e-05
1.84746e-05
1.87786e-05
1.90974e-05
1.94356e-05
1.97978e-05
2.01887e-05
2.06127e-05
2.1074e-05
2.15759e-05
2.21213e-05
2.27118e-05
2.33489e-05
2.40334e-05
2.47657e-05
2.55455e-05
2.63724e-05
2.72458e-05
2.81647e-05
2.91283e-05
3.01358e-05
3.11865e-05
3.22797e-05
3.34147e-05
3.45907e-05
3.58073e-05
3.70637e-05
3.83591e-05
3.96927e-05
4.10633e-05
4.247e-05
4.3911e-05
4.53846e-05
4.68886e-05
4.84204e-05
4.99773e-05
5.1556e-05
5.31531e-05
5.47649e-05
5.6387e-05
5.80151e-05
5.9645e-05
6.12738e-05
6.29012e-05
6.45298e-05
6.61594e-05
6.77681e-05
5.16523e-06
4.94783e-06
4.71017e-06
4.44295e-06
4.19143e-06
4.01855e-06
4.90047e-06
5.91423e-06
3.03642e-05
8.69849e-05
7.93695e-05
4.81379e-05
6.70545e-05
3.53363e-05
1.14069e-05
9.22004e-06
7.2107e-06
6.89487e-06
6.78483e-06
7.09452e-06
7.82666e-06
8.47834e-06
9.0065e-06
9.44237e-06
9.82245e-06
1.01926e-05
1.05955e-05
1.10345e-05
1.14945e-05
1.19586e-05
1.24069e-05
1.28274e-05
1.32263e-05
1.36125e-05
1.39945e-05
1.4377e-05
1.47578e-05
1.51333e-05
1.55013e-05
1.58625e-05
1.62195e-05
1.65753e-05
1.69321e-05
1.72919e-05
1.76573e-05
1.8032e-05
1.84204e-05
1.88273e-05
1.92581e-05
1.9718e-05
2.02127e-05
2.07476e-05
2.13278e-05
2.19575e-05
2.26403e-05
2.33786e-05
2.4174e-05
2.50279e-05
2.59409e-05
2.69131e-05
2.79435e-05
2.90313e-05
3.01753e-05
3.13741e-05
3.26261e-05
3.39301e-05
3.5285e-05
3.66895e-05
3.81421e-05
3.96416e-05
4.11866e-05
4.27755e-05
4.44065e-05
4.60776e-05
4.77867e-05
4.95311e-05
5.1308e-05
5.31139e-05
5.49451e-05
5.67974e-05
5.86664e-05
6.05475e-05
6.24358e-05
6.43261e-05
6.62129e-05
6.80909e-05
6.99551e-05
7.18025e-05
7.3632e-05
7.54447e-05
7.72359e-05
7.89856e-05
4.94672e-06
4.7884e-06
4.63929e-06
4.22644e-06
4.04886e-06
3.94702e-06
4.82475e-06
6.57816e-06
3.41694e-05
9.64033e-05
8.00523e-05
4.87419e-05
7.48179e-05
3.86143e-05
1.20767e-05
8.58688e-06
6.41302e-06
5.68562e-06
5.38435e-06
5.62408e-06
6.27331e-06
6.87941e-06
7.38501e-06
7.80898e-06
8.18062e-06
8.54212e-06
8.93945e-06
9.37769e-06
9.8439e-06
1.03225e-05
1.07928e-05
1.12407e-05
1.16708e-05
1.20912e-05
1.25108e-05
1.29355e-05
1.33634e-05
1.37915e-05
1.42172e-05
1.4641e-05
1.50658e-05
1.54951e-05
1.59319e-05
1.6379e-05
1.68397e-05
1.73185e-05
1.78209e-05
1.83527e-05
1.89202e-05
1.95298e-05
2.01878e-05
2.09003e-05
2.16726e-05
2.2509e-05
2.34124e-05
2.43852e-05
2.54292e-05
2.65456e-05
2.77346e-05
2.89955e-05
3.03269e-05
3.17268e-05
3.31935e-05
3.47247e-05
3.63179e-05
3.79711e-05
3.96826e-05
4.14499e-05
4.32705e-05
4.51419e-05
4.70617e-05
4.90267e-05
5.10335e-05
5.30785e-05
5.51577e-05
5.72668e-05
5.94009e-05
6.15546e-05
6.37225e-05
6.58984e-05
6.80763e-05
7.02502e-05
7.24138e-05
7.45608e-05
7.66847e-05
7.87795e-05
8.08402e-05
8.28635e-05
8.48479e-05
8.67926e-05
8.86903e-05
9.05236e-05
4.6986e-06
4.18804e-06
3.93051e-06
4.67026e-06
6.91439e-06
3.52762e-05
0.00010413
8.02846e-05
4.87338e-05
8.17087e-05
3.92269e-05
1.19286e-05
7.51683e-06
5.33885e-06
4.34752e-06
3.96987e-06
4.14536e-06
4.66875e-06
5.17951e-06
5.62058e-06
6.00044e-06
6.33975e-06
6.67417e-06
7.0444e-06
7.45681e-06
7.90155e-06
8.36558e-06
8.83009e-06
9.28074e-06
9.72087e-06
1.01575e-05
1.05991e-05
1.10521e-05
1.15151e-05
1.19856e-05
1.24613e-05
1.29429e-05
1.34336e-05
1.39375e-05
1.44583e-05
1.49996e-05
1.55659e-05
1.61626e-05
1.67959e-05
1.7473e-05
1.82011e-05
1.89873e-05
1.98388e-05
2.07619e-05
2.17616e-05
2.28418e-05
2.40052e-05
2.52546e-05
2.6592e-05
2.80179e-05
2.95319e-05
3.11324e-05
3.28167e-05
3.45819e-05
3.6425e-05
3.83424e-05
4.03305e-05
4.2386e-05
4.45058e-05
4.66858e-05
4.89217e-05
5.12093e-05
5.35442e-05
5.5921e-05
5.83342e-05
6.07778e-05
6.32456e-05
6.57309e-05
6.82268e-05
7.07257e-05
7.32202e-05
7.57024e-05
7.8165e-05
8.06006e-05
8.30023e-05
8.53628e-05
8.76754e-05
8.99341e-05
9.21341e-05
9.42723e-05
9.63471e-05
9.83562e-05
0.000100291
0.000102138
6.57059e-06
5.31061e-06
4.22689e-06
4.54125e-06
6.9585e-06
3.36511e-05
0.000109663
8.04791e-05
4.8443e-05
8.71485e-05
3.70496e-05
1.10115e-05
6.20692e-06
4.1241e-06
3.08449e-06
2.73088e-06
2.85338e-06
3.23453e-06
3.62288e-06
3.97274e-06
4.28545e-06
4.57373e-06
4.86357e-06
5.18679e-06
5.54964e-06
5.94585e-06
6.36606e-06
6.79546e-06
7.22191e-06
7.64774e-06
8.07865e-06
8.52205e-06
8.98405e-06
9.46429e-06
9.9612e-06
1.04734e-05
1.1002e-05
1.15508e-05
1.21244e-05
1.27274e-05
1.33647e-05
1.40416e-05
1.47646e-05
1.55411e-05
1.63794e-05
1.72875e-05
1.82733e-05
1.93444e-05
2.05067e-05
2.17649e-05
2.31225e-05
2.45832e-05
2.61502e-05
2.7825e-05
2.96072e-05
3.14953e-05
3.34863e-05
3.55759e-05
3.77594e-05
4.00323e-05
4.23889e-05
4.48238e-05
4.73318e-05
4.99075e-05
5.25444e-05
5.52355e-05
5.79741e-05
6.07527e-05
6.35635e-05
6.63977e-05
6.92467e-05
7.21017e-05
7.49536e-05
7.77931e-05
8.06109e-05
8.33976e-05
8.61444e-05
8.88428e-05
9.14853e-05
9.40645e-05
9.65734e-05
9.90053e-05
0.000101355
0.000103619
0.000105794
0.000107879
0.000109872
0.000111763
0.000113542
1.09327e-05
8.26075e-06
5.37716e-06
4.68709e-06
6.84873e-06
3.09719e-05
0.000110621
8.00842e-05
4.84418e-05
8.84169e-05
3.33151e-05
9.52925e-06
4.83641e-06
2.96033e-06
2.05647e-06
1.78858e-06
1.87406e-06
2.12733e-06
2.39647e-06
2.65121e-06
2.88985e-06
3.11925e-06
3.35589e-06
3.62136e-06
3.92097e-06
4.25183e-06
4.60858e-06
4.98153e-06
5.36245e-06
5.75314e-06
6.1581e-06
6.5835e-06
7.03489e-06
7.51309e-06
8.01807e-06
8.54988e-06
9.11079e-06
9.70523e-06
1.03386e-05
1.10168e-05
1.17457e-05
1.25322e-05
1.3384e-05
1.43099e-05
1.5319e-05
1.64204e-05
1.76226e-05
1.89329e-05
2.0357e-05
2.1899e-05
2.35642e-05
2.53571e-05
2.72805e-05
2.9335e-05
3.1519e-05
3.38291e-05
3.62602e-05
3.88057e-05
4.14586e-05
4.42116e-05
4.70565e-05
4.99849e-05
5.29885e-05
5.60586e-05
5.91851e-05
6.23574e-05
6.55652e-05
6.87977e-05
7.20431e-05
7.52897e-05
7.85257e-05
8.17397e-05
8.49207e-05
8.80574e-05
9.11391e-05
9.41556e-05
9.70976e-05
9.99568e-05
0.000102726
0.000105399
0.000107969
0.00011043
0.00011278
0.000115015
0.000117135
0.000119137
0.00012102
0.000122777
0.0001244
2.76874e-05
0.000106948
7.90829e-05
4.94918e-05
8.58434e-05
2.85672e-05
7.75253e-06
3.56068e-06
2.00439e-06
1.33594e-06
1.16736e-06
1.23325e-06
1.39341e-06
1.56999e-06
1.74655e-06
1.92142e-06
2.09796e-06
2.28535e-06
2.49628e-06
2.73483e-06
3.00061e-06
3.2917e-06
3.6034e-06
3.93164e-06
4.27835e-06
4.6473e-06
5.04367e-06
5.4725e-06
5.93607e-06
6.43622e-06
6.97502e-06
7.55626e-06
8.18549e-06
8.86932e-06
9.61498e-06
1.04301e-05
1.13233e-05
1.23039e-05
1.33821e-05
1.45682e-05
1.58721e-05
1.73026e-05
1.88669e-05
2.05703e-05
2.24193e-05
2.44207e-05
2.6579e-05
2.88962e-05
3.13712e-05
3.40005e-05
3.6778e-05
3.96958e-05
4.27443e-05
4.59126e-05
4.91898e-05
5.25635e-05
5.60211e-05
5.95499e-05
6.31365e-05
6.67659e-05
7.04229e-05
7.40929e-05
7.7761e-05
8.14117e-05
8.50299e-05
8.86012e-05
9.21125e-05
9.55512e-05
9.89053e-05
0.000102164
0.000105316
0.000108355
0.000111273
0.000114064
0.000116723
0.000119246
0.000121629
0.000123871
0.000125971
0.000127931
0.000129748
0.000131421
0.000132945
0.000134316
2.42421e-05
9.9536e-05
7.74551e-05
5.05991e-05
7.96908e-05
2.3251e-05
5.86311e-06
2.49791e-06
1.32801e-06
9.00571e-07
8.21836e-07
8.80792e-07
9.86807e-07
1.10515e-06
1.23056e-06
1.36232e-06
1.50219e-06
1.65472e-06
1.82636e-06
2.02009e-06
2.23703e-06
2.47765e-06
2.74114e-06
3.02694e-06
3.33753e-06
3.6765e-06
4.04846e-06
4.45829e-06
4.90976e-06
5.40671e-06
5.95347e-06
6.55569e-06
7.22043e-06
7.95585e-06
8.77093e-06
9.67538e-06
1.06797e-05
1.17953e-05
1.30338e-05
1.44067e-05
1.59249e-05
1.75973e-05
1.94312e-05
2.14343e-05
2.36162e-05
2.5984e-05
2.85416e-05
3.12893e-05
3.42242e-05
3.73399e-05
4.06268e-05
4.40731e-05
4.76644e-05