/*--------------------------------*- C++ -*----------------------------------*\
| =========                 |                                                 |
| \\      /  F ield         | OpenFOAM: The Open Source CFD Toolbox           |
|  \\    /   O peration     | Version:  2412                                  |
|   \\  /    A nd           | Website:  www.openfoam.com                      |
|    \\/     M anipulation  |                                                 |
\*---------------------------------------------------------------------------*/
FoamFile
{
    version     2.0;
    format      ascii;
    arch        "LSB;label=32;scalar=64";
    class       volScalarField;
    location    "60";
    object      nut;
}
// * * * * * * * * * * * * * * * * * * * * * * * * * * * * * * * * * * * * * //

dimensions      [0 2 -1 0 0 0 0];

internalField   nonuniform List<scalar> 
7418
(
6.0577e-12
1.48325e-11
3.43826e-12
3.01289e-13
1.25851e-12
1.2581e-12
1.59683e-11
3.93367e-11
3.93847e-11
2.93998e-11
2.41737e-11
2.15729e-11
2.0391e-11
2.03385e-11
2.09515e-11
2.14439e-11
2.14683e-11
2.11639e-11
2.05816e-11
1.99758e-11
1.95942e-11
1.94255e-11
1.94044e-11
1.94198e-11
1.93854e-11
1.93091e-11
1.92243e-11
1.91685e-11
1.91435e-11
1.91349e-11
1.91293e-11
1.9125e-11
1.91269e-11
1.91369e-11
1.91569e-11
1.91841e-11
1.92189e-11
1.9262e-11
1.93128e-11
1.9371e-11
1.94376e-11
1.95133e-11
1.95974e-11
1.96897e-11
1.97899e-11
1.98979e-11
2.00146e-11
2.01391e-11
2.02694e-11
2.04049e-11
2.05492e-11
2.06993e-11
2.08554e-11
2.10176e-11
2.11837e-11
2.13562e-11
2.15341e-11
2.1717e-11
2.19022e-11
2.20903e-11
2.22821e-11
2.24793e-11
2.26767e-11
2.28756e-11
2.3078e-11
2.3282e-11
2.34875e-11
2.36924e-11
2.38954e-11
2.40986e-11
2.42965e-11
2.44803e-11
2.46445e-11
2.47951e-11
2.49963e-11
2.51994e-11
2.54011e-11
2.5602e-11
2.58042e-11
2.60145e-11
2.62423e-11
1.3844e-11
1.91817e-11
5.25753e-10
1.07629e-09
3.3989e-10
2.80425e-11
1.03578e-10
1.12669e-10
1.58131e-09
3.45787e-09
3.40459e-09
2.65447e-09
2.23237e-09
2.01811e-09
1.92228e-09
1.92061e-09
1.97192e-09
2.01112e-09
2.0107e-09
1.98223e-09
1.93134e-09
1.8796e-09
1.84724e-09
1.83321e-09
1.83164e-09
1.83299e-09
1.83004e-09
1.82362e-09
1.81662e-09
1.8122e-09
1.81056e-09
1.81031e-09
1.81037e-09
1.81062e-09
1.81143e-09
1.81312e-09
1.81568e-09
1.81893e-09
1.82294e-09
1.82774e-09
1.83329e-09
1.83962e-09
1.8468e-09
1.85479e-09
1.86362e-09
1.87329e-09
1.88371e-09
1.89493e-09
1.90699e-09
1.91976e-09
1.93324e-09
1.94728e-09
1.96204e-09
1.97742e-09
1.99334e-09
2.00987e-09
2.02684e-09
2.04432e-09
2.06227e-09
2.08072e-09
2.09943e-09
2.1184e-09
2.13764e-09
2.15728e-09
2.17704e-09
2.19694e-09
2.21703e-09
2.23718e-09
2.25739e-09
2.27758e-09
2.29758e-09
2.31736e-09
2.33656e-09
2.35449e-09
2.37031e-09
2.3848e-09
2.40422e-09
2.42365e-09
2.44295e-09
2.46209e-09
2.4813e-09
2.50126e-09
2.52275e-09
1.03911e-09
1.39161e-09
4.84801e-09
7.46628e-09
3.17182e-09
3.06569e-10
8.23794e-10
1.24487e-09
1.58409e-08
2.94434e-08
2.86278e-08
2.36616e-08
2.05336e-08
1.89127e-08
1.82117e-08
1.8232e-08
1.86237e-08
1.88969e-08
1.88605e-08
1.86012e-08
1.81807e-08
1.77682e-08
1.75137e-08
1.74083e-08
1.74002e-08
1.74127e-08
1.73905e-08
1.7342e-08
1.72916e-08
1.72636e-08
1.72587e-08
1.72656e-08
1.7276e-08
1.72889e-08
1.73074e-08
1.73347e-08
1.73702e-08
1.74124e-08
1.74621e-08
1.75196e-08
1.75848e-08
1.76581e-08
1.77402e-08
1.78302e-08
1.7929e-08
1.80364e-08
1.81516e-08
1.82749e-08
1.84064e-08
1.85452e-08
1.86917e-08
1.88443e-08
1.90036e-08
1.91692e-08
1.93404e-08
1.95171e-08
1.96988e-08
1.98848e-08
2.00751e-08
2.02698e-08
2.0467e-08
2.06669e-08
2.08683e-08
2.10724e-08
2.12775e-08
2.14836e-08
2.16902e-08
2.18963e-08
2.21024e-08
2.23073e-08
2.25093e-08
2.27074e-08
2.28992e-08
2.30777e-08
2.32336e-08
2.3375e-08
2.35653e-08
2.37545e-08
2.39412e-08
2.41249e-08
2.43089e-08
2.44989e-08
2.4702e-08
7.35008e-09
9.84781e-09
2.94946e-08
2.57635e-08
1.36299e-08
1.9818e-09
3.236e-09
8.69154e-09
7.66036e-08
1.21736e-07
1.18336e-07
1.04139e-07
9.35334e-08
8.79575e-08
8.56801e-08
8.58947e-08
8.72177e-08
8.80184e-08
8.77232e-08
8.66189e-08
8.50128e-08
8.3511e-08
8.26091e-08
8.22696e-08
8.22779e-08
8.23484e-08
8.22912e-08
8.21454e-08
8.20078e-08
8.19641e-08
8.20126e-08
8.21097e-08
8.22246e-08
8.23557e-08
8.25175e-08
8.27203e-08
8.29621e-08
8.32382e-08
8.35516e-08
8.39052e-08
8.42997e-08
8.47362e-08
8.52169e-08
8.57403e-08
8.6308e-08
8.69201e-08
8.7575e-08
8.82714e-08
8.90096e-08
8.97863e-08
9.06014e-08
9.14492e-08
9.23315e-08
9.32451e-08
9.41877e-08
9.51566e-08
9.61486e-08
9.71612e-08
9.81918e-08
9.92409e-08
1.00299e-07
1.01369e-07
1.02443e-07
1.03524e-07
1.04603e-07
1.05681e-07
1.06758e-07
1.07825e-07
1.08885e-07
1.09931e-07
1.10956e-07
1.11955e-07
1.12915e-07
1.13801e-07
1.1457e-07
1.15254e-07
1.1618e-07
1.17095e-07
1.17989e-07
1.18861e-07
1.19728e-07
1.20614e-07
1.21553e-07
2.55837e-08
4.16084e-08
1.38548e-07
6.46178e-08
3.90343e-08
9.39973e-09
9.14319e-09
4.52934e-08
2.49227e-07
3.49968e-07
3.44963e-07
3.22779e-07
2.99923e-07
2.87891e-07
2.83404e-07
2.84179e-07
2.8678e-07
2.88009e-07
2.86855e-07
2.83865e-07
2.80016e-07
2.7665e-07
2.74745e-07
2.74202e-07
2.74437e-07
2.74779e-07
2.74836e-07
2.74724e-07
2.74686e-07
2.74913e-07
2.75387e-07
2.76e-07
2.7668e-07
2.77433e-07
2.78298e-07
2.793e-07
2.80436e-07
2.81697e-07
2.83095e-07
2.84639e-07
2.86337e-07
2.88193e-07
2.90209e-07
2.92386e-07
2.94727e-07
2.97233e-07
2.99901e-07
3.02726e-07
3.05703e-07
3.08824e-07
3.12085e-07
3.15468e-07
3.18976e-07
3.22594e-07
3.26313e-07
3.30121e-07
3.34001e-07
3.37947e-07
3.41947e-07
3.45993e-07
3.50059e-07
3.54143e-07
3.58225e-07
3.62301e-07
3.66351e-07
3.7037e-07
3.74348e-07
3.7827e-07
3.82128e-07
3.85902e-07
3.89573e-07
3.93125e-07
3.96502e-07
3.99592e-07
4.02241e-07
4.04542e-07
4.07688e-07
4.10764e-07
4.13734e-07
4.16601e-07
4.19415e-07
4.22245e-07
4.25215e-07
6.59497e-08
1.87686e-07
5.18066e-07
1.39397e-07
8.78026e-08
3.21877e-08
2.21054e-08
1.91975e-07
6.2379e-07
8.07464e-07
8.17667e-07
8.08196e-07
7.74388e-07
7.56967e-07
7.51322e-07
7.52598e-07
7.55245e-07
7.55798e-07
7.53169e-07
7.47828e-07
7.41983e-07
7.37466e-07
7.35381e-07
7.35579e-07
7.36927e-07
7.38392e-07
7.39492e-07
7.40467e-07
7.41735e-07
7.43564e-07
7.45892e-07
7.48535e-07
7.5139e-07
7.54495e-07
7.57925e-07
7.61731e-07
7.65917e-07
7.70475e-07
7.75442e-07
7.8085e-07
7.86714e-07
7.93051e-07
7.99879e-07
8.072e-07
8.15021e-07
8.23342e-07
8.32156e-07
8.41447e-07
8.51198e-07
8.61383e-07
8.71985e-07
8.82961e-07
8.94294e-07
9.0594e-07
9.17855e-07
9.30009e-07
9.4235e-07
9.54841e-07
9.67446e-07
9.80114e-07
9.92784e-07
1.00543e-06
1.018e-06
1.03045e-06
1.04274e-06
1.05484e-06
1.0667e-06
1.0783e-06
1.0896e-06
1.10055e-06
1.11109e-06
1.12118e-06
1.13066e-06
1.13925e-06
1.1465e-06
1.15254e-06
1.16098e-06
1.16912e-06
1.17686e-06
1.1842e-06
1.1913e-06
1.19826e-06
1.20545e-06
1.52151e-07
7.27291e-07
1.58898e-06
3.53387e-07
1.71152e-07
8.33082e-08
5.9217e-08
6.214e-07
1.29478e-06
1.60916e-06
1.68951e-06
1.74511e-06
1.71422e-06
1.69936e-06
1.69549e-06
1.69522e-06
1.69407e-06
1.69251e-06
1.68988e-06
1.68533e-06
1.68244e-06
1.68189e-06
1.6837e-06
1.68792e-06
1.69307e-06
1.69839e-06
1.70375e-06
1.70946e-06
1.71597e-06
1.72341e-06
1.73166e-06
1.74052e-06
1.74996e-06
1.7601e-06
1.77105e-06
1.7829e-06
1.79567e-06
1.8094e-06
1.82418e-06
1.8401e-06
1.8572e-06
1.87552e-06
1.89513e-06
1.91603e-06
1.93825e-06
1.96178e-06
1.98661e-06
2.0127e-06
2.03998e-06
2.06841e-06
2.0979e-06
2.12836e-06
2.15971e-06
2.19182e-06
2.22457e-06
2.25785e-06
2.29154e-06
2.32548e-06
2.35956e-06
2.39362e-06
2.42753e-06
2.46114e-06
2.49436e-06
2.52701e-06
2.55901e-06
2.59022e-06
2.62055e-06
2.64992e-06
2.67821e-06
2.7053e-06
2.73106e-06
2.75539e-06
2.77795e-06
2.79814e-06
2.81484e-06
2.82788e-06
2.84673e-06
2.86467e-06
2.88131e-06
2.89671e-06
2.91124e-06
2.92498e-06
2.93878e-06
4.13465e-07
2.35846e-06
4.1224e-06
9.34913e-07
3.06499e-07
1.76702e-07
1.6971e-07
1.5219e-06
2.33511e-06
2.89073e-06
3.15686e-06
3.36043e-06
3.35849e-06
3.35953e-06
3.35993e-06
3.35317e-06
3.34358e-06
3.3418e-06
3.34713e-06
3.35483e-06
3.36865e-06
3.38456e-06
3.39979e-06
3.4154e-06
3.43064e-06
3.44655e-06
3.46409e-06
3.48329e-06
3.50407e-06
3.52609e-06
3.54917e-06
3.5734e-06
3.59902e-06
3.62625e-06
3.65525e-06
3.68613e-06
3.71902e-06
3.75405e-06
3.79148e-06
3.83144e-06
3.87411e-06
3.91957e-06
3.96795e-06
4.01931e-06
4.07368e-06
4.1311e-06
4.19148e-06
4.25477e-06
4.32081e-06
4.38949e-06
4.46058e-06
4.53385e-06
4.60906e-06
4.68595e-06
4.76419e-06
4.84349e-06
4.92347e-06
5.00381e-06
5.08415e-06
5.16407e-06
5.24332e-06
5.32142e-06
5.39817e-06
5.47307e-06
5.54599e-06
5.61654e-06
5.68449e-06
5.74959e-06
5.81162e-06
5.87031e-06
5.92538e-06
5.97662e-06
6.02341e-06
6.06466e-06
6.09797e-06
6.12143e-06
6.15763e-06
6.19139e-06
6.22167e-06
6.24869e-06
6.27314e-06
6.29484e-06
6.31556e-06
1.14868e-06
6.4557e-06
9.2238e-06
2.3415e-06
5.29423e-07
3.27988e-07
4.82732e-07
3.04453e-06
3.7683e-06
4.80478e-06
5.43523e-06
5.87463e-06
5.92819e-06
5.95686e-06
5.96111e-06
5.94257e-06
5.92491e-06
5.93403e-06
5.96638e-06
6.00932e-06
6.06378e-06
6.11636e-06
6.1604e-06
6.19986e-06
6.23679e-06
6.27611e-06
6.32039e-06
6.36858e-06
6.41927e-06
6.47117e-06
6.52432e-06
6.5795e-06
6.6375e-06
6.6987e-06
6.76324e-06
6.83129e-06
6.90318e-06
6.9793e-06
7.06011e-06
7.14592e-06
7.23706e-06
7.33373e-06
7.4362e-06
7.54458e-06
7.65897e-06
7.77941e-06
7.90574e-06
8.03782e-06
8.17535e-06
8.31811e-06
8.46554e-06
8.61724e-06
8.77262e-06
8.93111e-06
9.09205e-06
9.25476e-06
9.4184e-06
9.58233e-06
9.74575e-06
9.90769e-06
1.00677e-05
1.02246e-05
1.03782e-05
1.05272e-05
1.06714e-05
1.081e-05
1.09424e-05
1.10683e-05
1.1187e-05
1.12982e-05
1.14012e-05
1.14958e-05
1.15809e-05
1.16548e-05
1.17128e-05
1.17484e-05
1.18091e-05
1.18644e-05
1.1912e-05
1.19524e-05
1.19868e-05
1.20142e-05
1.2038e-05
3.03633e-06
1.50596e-05
1.80249e-05
5.37678e-06
1.05131e-06
5.66235e-07
1.3234e-06
5.23486e-06
5.60627e-06
7.50341e-06
8.70038e-06
9.42662e-06
9.54847e-06
9.60868e-06
9.6147e-06
9.5852e-06
9.57206e-06
9.61678e-06
9.70725e-06
9.81831e-06
9.94386e-06
1.00576e-05
1.01498e-05
1.02302e-05
1.03061e-05
1.03881e-05
1.048e-05
1.05787e-05
1.06805e-05
1.0783e-05
1.08868e-05
1.0994e-05
1.11062e-05
1.12237e-05
1.13468e-05
1.14757e-05
1.1611e-05
1.17537e-05
1.19043e-05
1.20636e-05
1.2232e-05
1.24098e-05
1.25977e-05
1.27957e-05
1.30041e-05
1.32228e-05
1.34515e-05
1.369e-05
1.39378e-05
1.41942e-05
1.44585e-05
1.47297e-05
1.50068e-05
1.52888e-05
1.55743e-05
1.58622e-05
1.61509e-05
1.64393e-05
1.67258e-05
1.70088e-05
1.72875e-05
1.75598e-05
1.78251e-05
1.80814e-05
1.83284e-05
1.85643e-05
1.87885e-05
1.90002e-05
1.91985e-05
1.93825e-05
1.95514e-05
1.97048e-05
1.98412e-05
1.99582e-05
2.00474e-05
2.00939e-05
2.01844e-05
2.02652e-05
2.03317e-05
2.0385e-05
2.04269e-05
2.04548e-05
2.0475e-05
7.41452e-06
3.01105e-05
3.11138e-05
1.12028e-05
2.19956e-06
9.02177e-07
3.46613e-06
8.0372e-06
7.95341e-06
1.10998e-05
1.30139e-05
1.40128e-05
1.41978e-05
1.42865e-05
1.42964e-05
1.42699e-05
1.42902e-05
1.44083e-05
1.45957e-05
1.48111e-05
1.50379e-05
1.52364e-05
1.53974e-05
1.55389e-05
1.56755e-05
1.5824e-05
1.59884e-05
1.61621e-05
1.63387e-05
1.6515e-05
1.66928e-05
1.68757e-05
1.70661e-05
1.72646e-05
1.74711e-05
1.76863e-05
1.79113e-05
1.81472e-05
1.83955e-05
1.86567e-05
1.89318e-05
1.92214e-05
1.95261e-05
1.98462e-05
2.01819e-05
2.05331e-05
2.08992e-05
2.128e-05
2.16743e-05
2.20812e-05
2.24993e-05
2.29272e-05
2.33631e-05
2.38053e-05
2.42518e-05
2.47005e-05
2.51492e-05
2.55959e-05
2.60383e-05
2.64739e-05
2.69013e-05
2.73175e-05
2.77215e-05
2.81103e-05
2.84835e-05
2.88385e-05
2.91742e-05
2.94897e-05
2.97835e-05
3.00543e-05
3.03013e-05
3.05235e-05
3.07193e-05
3.08856e-05
3.10087e-05
3.10624e-05
3.11853e-05
3.12929e-05
3.13777e-05
3.1442e-05
3.14875e-05
3.15103e-05
3.15203e-05
1.64141e-05
5.21245e-05
4.81344e-05
2.11128e-05
4.60836e-06
1.49333e-06
7.25865e-06
1.1327e-05
1.09592e-05
1.56175e-05
1.82782e-05
1.94773e-05
1.97117e-05
1.98274e-05
1.98547e-05
1.98621e-05
1.99592e-05
2.01954e-05
2.05182e-05
2.08699e-05
2.12217e-05
2.15243e-05
2.17736e-05
2.19977e-05
2.22193e-05
2.246e-05
2.27222e-05
2.2995e-05
2.32695e-05
2.35421e-05
2.38167e-05
2.40985e-05
2.43904e-05
2.46931e-05
2.50064e-05
2.53315e-05
2.56701e-05
2.60238e-05
2.63944e-05
2.6783e-05
2.71906e-05
2.76182e-05
2.80665e-05
2.8536e-05
2.90266e-05
2.95381e-05
3.00699e-05
3.06209e-05
3.11899e-05
3.17752e-05
3.23746e-05
3.29861e-05
3.36071e-05
3.42351e-05
3.4867e-05
3.55001e-05
3.61311e-05
3.67572e-05
3.73752e-05
3.79818e-05
3.85749e-05
3.91507e-05
3.97076e-05
4.02417e-05
4.07525e-05
4.12367e-05
4.1693e-05
4.21198e-05
4.25155e-05
4.28785e-05
4.32076e-05
4.35017e-05
4.37589e-05
4.39752e-05
4.41306e-05
4.41856e-05
4.43401e-05
4.44731e-05
4.45741e-05
4.46464e-05
4.46916e-05
4.47044e-05
4.46995e-05
3.23763e-05
7.98e-05
6.79353e-05
3.60297e-05
9.35778e-06
2.70123e-06
1.24385e-05
1.49753e-05
1.47336e-05
2.0955e-05
2.42453e-05
2.55544e-05
2.58321e-05
2.59844e-05
2.60591e-05
2.6146e-05
2.63704e-05
2.67676e-05
2.72565e-05
2.77666e-05
2.82587e-05
2.86797e-05
2.90353e-05
2.93639e-05
2.96951e-05
3.00528e-05
3.04357e-05
3.08288e-05
3.12213e-05
3.16105e-05
3.20023e-05
3.24032e-05
3.28169e-05
3.32436e-05
3.36835e-05
3.41382e-05
3.46101e-05
3.51014e-05
3.56143e-05
3.61502e-05
3.67104e-05
3.72961e-05
3.79082e-05
3.8547e-05
3.92124e-05
3.99039e-05
4.06205e-05
4.13606e-05
4.21223e-05
4.29032e-05
4.37004e-05
4.4511e-05
4.53315e-05
4.61583e-05
4.69876e-05
4.78156e-05
4.86383e-05
4.94517e-05
5.02519e-05
5.10349e-05
5.17979e-05
5.25362e-05
5.32479e-05
5.39284e-05
5.45771e-05
5.51898e-05
5.57652e-05
5.63015e-05
5.67968e-05
5.72491e-05
5.76571e-05
5.80197e-05
5.83344e-05
5.85963e-05
5.87785e-05
5.88271e-05
5.90098e-05
5.91644e-05
5.92777e-05
5.93541e-05
5.9395e-05
5.93941e-05
5.93718e-05
5.66859e-05
0.000111075
8.91415e-05
5.60511e-05
1.80331e-05
5.0866e-06
1.84565e-05
1.88938e-05
1.93274e-05
2.68862e-05
3.05859e-05
3.19351e-05
3.227e-05
3.24868e-05
3.2654e-05
3.28737e-05
3.32734e-05
3.38653e-05
3.45386e-05
3.52185e-05
3.58585e-05
3.64093e-05
3.68884e-05
3.7343e-05
3.7807e-05
3.83036e-05
3.88265e-05
3.93574e-05
3.98847e-05
4.04075e-05
4.09335e-05
4.14707e-05
4.20224e-05
4.25892e-05
4.31713e-05
4.37712e-05
4.43917e-05
4.50358e-05
4.5706e-05
4.64039e-05
4.71312e-05
4.78892e-05
4.86789e-05
4.95005e-05
5.03536e-05
5.12374e-05
5.21502e-05
5.30899e-05
5.40539e-05
5.50389e-05
5.60412e-05
5.70569e-05
5.80815e-05
5.91106e-05
6.01392e-05
6.11628e-05
6.21762e-05
6.31751e-05
6.41543e-05
6.51094e-05
6.60369e-05
6.69316e-05
6.77913e-05
6.86106e-05
6.93891e-05
7.01222e-05
7.08082e-05
7.14454e-05
7.20316e-05
7.25647e-05
7.30434e-05
7.34662e-05
7.38304e-05
7.41298e-05
7.43299e-05
7.43623e-05
7.45673e-05
7.47378e-05
7.48581e-05
7.49337e-05
7.49657e-05
7.49478e-05
7.49065e-05
8.88015e-05
0.000144059
0.000110543
8.04765e-05
3.26046e-05
9.74492e-06
2.45163e-05
2.30255e-05
2.46746e-05
3.31043e-05
3.69684e-05
3.83271e-05
3.87582e-05
3.90842e-05
3.93979e-05
3.98023e-05
4.04148e-05
4.12215e-05
4.20855e-05
4.29382e-05
4.37305e-05
4.44219e-05
4.50418e-05
4.56431e-05
4.62608e-05
4.69145e-05
4.75929e-05
4.82755e-05
4.89513e-05
4.96217e-05
5.02964e-05
5.09837e-05
5.16868e-05
5.24063e-05
5.3143e-05
5.39001e-05
5.46812e-05
5.54897e-05
5.63284e-05
5.71993e-05
5.81043e-05
5.90447e-05
6.00216e-05
6.10348e-05
6.20838e-05
6.3167e-05
6.42823e-05
6.54269e-05
6.65972e-05
6.77891e-05
6.89978e-05
7.02187e-05
7.14461e-05
7.26746e-05
7.38985e-05
7.51122e-05
7.63098e-05
7.74861e-05
7.86355e-05
7.97528e-05
8.08342e-05
8.18742e-05
8.28699e-05
8.38161e-05
8.4712e-05
8.55529e-05
8.63371e-05
8.70629e-05
8.77279e-05
8.833e-05
8.88679e-05
8.93399e-05
8.97429e-05
9.00689e-05
9.02754e-05
9.02794e-05
9.04992e-05
9.06779e-05
9.07985e-05
9.0867e-05
9.08846e-05
9.08457e-05
9.07838e-05
0.000127039
0.000177797
0.000131265
0.000108323
5.48506e-05
1.83498e-05
3.022e-05
2.72865e-05
3.0575e-05
3.9288e-05
4.31187e-05
4.44996e-05
4.50806e-05
4.55704e-05
4.60842e-05
4.67152e-05
4.75631e-05
4.85894e-05
4.96447e-05
5.067e-05
5.1619e-05
5.24634e-05
5.32419e-05
5.40094e-05
5.47986e-05
5.56242e-05
5.64703e-05
5.73159e-05
5.81521e-05
5.89823e-05
5.98177e-05
6.06669e-05
6.15325e-05
6.24153e-05
6.3317e-05
6.42415e-05
6.51931e-05
6.61758e-05
6.71923e-05
6.82451e-05
6.93362e-05
7.04671e-05
7.16384e-05
7.285e-05
7.41005e-05
7.53881e-05
7.67097e-05
7.80618e-05
7.94398e-05
8.08387e-05
8.22527e-05
8.36761e-05
8.51022e-05
8.65247e-05
8.7937e-05
8.93327e-05
9.07053e-05
9.20487e-05
9.33569e-05
9.46244e-05
9.58469e-05
9.70186e-05
9.81366e-05
9.91956e-05
0.000100195
0.000101129
0.000101998
0.000102798
0.000103528
0.000104186
0.00010477
0.000105278
0.000105707
0.000106047
0.000106246
0.000106207
0.000106432
0.00010661
0.000106722
0.000106776
0.000106772
0.000106707
0.000106621
0.000164897
0.000211033
0.00015067
0.000138684
7.92825e-05
2.88396e-05
3.53113e-05
3.14699e-05
3.67184e-05
4.51631e-05
4.88458e-05
5.02931e-05
5.10813e-05
5.1789e-05
5.25475e-05
5.34331e-05
5.45247e-05
5.57669e-05
5.7011e-05
5.82091e-05
5.93224e-05
6.03342e-05
6.12893e-05
6.22406e-05
6.32164e-05
6.42257e-05
6.52496e-05
6.62683e-05
6.72753e-05
6.82764e-05
6.92836e-05
7.03051e-05
7.13434e-05
7.23992e-05
7.34755e-05
7.45771e-05
7.57087e-05
7.68745e-05
7.80778e-05
7.93211e-05
8.06065e-05
8.19354e-05
8.33083e-05
8.47244e-05
8.61821e-05
8.76784e-05
8.92098e-05
9.07716e-05
9.23582e-05
9.39636e-05
9.5581e-05
9.72036e-05
9.88238e-05
0.000100434
0.000102028
0.000103597
0.000105134
0.000106634
0.000108089
0.000109494
0.000110845
0.000112134
0.00011336
0.000114518
0.000115605
0.000116619
0.000117556
0.000118416
0.000119197
0.000119896
0.000120512
0.000121042
0.000121484
0.000121822
0.000121998
0.000121889
0.00012211
0.000122276
0.000122369
0.000122398
0.000122363
0.000122265
0.000122152
0.000198823
0.000238377
0.000168433
0.000167949
0.00010257
3.92613e-05
3.96856e-05
3.57514e-05
4.27546e-05
5.05407e-05
5.40409e-05
5.56129e-05
5.6662e-05
5.76313e-05
5.86651e-05
5.98187e-05
6.11528e-05
6.26044e-05
6.4036e-05
6.5411e-05
6.66997e-05
6.78954e-05
6.90443e-05
7.01947e-05
7.13693e-05
7.25721e-05
7.37828e-05
7.49841e-05
7.61721e-05
7.73547e-05
7.85442e-05
7.97481e-05
8.0969e-05
8.22079e-05
8.34687e-05
8.47572e-05
8.60787e-05
8.74375e-05
8.88372e-05
9.02803e-05
9.1769e-05
9.33044e-05
9.48867e-05
9.65145e-05
9.81855e-05
9.98958e-05
0.000101641
0.000103415
0.000105212
0.000107024
0.000108844
0.000110663
0.000112473
0.000114265
0.000116033
0.000117767
0.00011946
0.000121105
0.000122695
0.000124225
0.00012569
0.000127084
0.000128403
0.000129644
0.000130805
0.000131881
0.000132873
0.000133777
0.000134593
0.000135317
0.000135949
0.000136486
0.000136923
0.000137242
0.000137375
0.000137165
0.000137368
0.000137508
0.00013757
0.000137562
0.000137484
0.000137343
0.000137197
0.000228458
0.000259449
0.000184359
0.000192501
0.000122224
4.77939e-05
4.34107e-05
4.01696e-05
4.829e-05
5.5328e-05
5.86708e-05
6.04224e-05
6.1771e-05
6.30342e-05
6.43582e-05
6.5783e-05
6.73547e-05
6.90117e-05
7.06335e-05
7.21942e-05
7.36724e-05
7.50683e-05
7.64265e-05
7.77887e-05
7.91721e-05
8.05767e-05
8.19827e-05
8.3376e-05
8.47554e-05
8.61302e-05
8.75123e-05
8.89091e-05
9.03228e-05
9.17555e-05
9.32115e-05
9.46979e-05
9.62203e-05
9.77831e-05
9.939e-05
0.000101044
0.000102746
0.000104498
0.000106298
0.000108146
0.000110038
0.000111969
0.000113933
0.000115924
0.000117933
0.000119952
0.000121973
0.000123986
0.000125981
0.000127951
0.000129885
0.000131775
0.000133614
0.000135393
0.000137107
0.000138748
0.000140313
0.000141796
0.000143194
0.000144502
0.00014572
0.000146844
0.000147872
0.000148803
0.000149636
0.000150367
0.000150998
0.000151523
0.000151936
0.000152216
0.000152282
0.000151931
0.000152101
0.000152199
0.000152213
0.000152151
0.000152016
0.000151819
0.000151629
0.000253766
0.000274849
0.000198175
0.000212999
0.000136196
5.47823e-05
4.6592e-05
4.46044e-05
5.31289e-05
5.95191e-05
6.27709e-05
6.4744e-05
6.64053e-05
6.79826e-05
6.95999e-05
7.12938e-05
7.30996e-05
7.49632e-05
7.67831e-05
7.85416e-05
8.02241e-05
8.18349e-05
8.34147e-05
8.49985e-05
8.65986e-05
8.82127e-05
8.98227e-05
9.14174e-05
9.29984e-05
9.45758e-05
9.61612e-05
9.77614e-05
9.93791e-05
0.000101017
0.00010268
0.000104377
0.000106112
0.000107891
0.000109717
0.000111593
0.00011352
0.0001155
0.000117529
0.000119607
0.000121727
0.000123886
0.000126074
0.000128285
0.000130509
0.000132737
0.000134958
0.000137162
0.000139338
0.000141478
0.000143571
0.000145608
0.000147581
0.000149482
0.000151305
0.000153044
0.000154693
0.000156249
0.000157707
0.000159065
0.000160321
0.000161472
0.000162517
0.000163455
0.000164284
0.000165003
0.00016561
0.000166101
0.000166468
0.000166684
0.000166658
0.000166128
0.000166244
0.000166278
0.000166222
0.000166086
0.000165873
0.000165602
0.000165352
0.00027492
0.00028513
0.000206752
0.00022997
0.000144436
6.0039e-05
4.92824e-05
4.88944e-05
5.72933e-05
6.31841e-05
6.64379e-05
6.86635e-05
7.06314e-05
7.252e-05
7.44272e-05
7.63873e-05
7.84281e-05
8.05049e-05
8.25339e-05
8.45031e-05
8.64027e-05
8.82393e-05
9.00492e-05
9.18615e-05
9.36846e-05
9.55152e-05
9.7337e-05
9.91425e-05
0.000100935
0.000102725
0.000104524
0.000106339
0.000108172
0.000110027
0.00011191
0.000113829
0.00011579
0.000117799
0.000119857
0.000121968
0.000124133
0.000126351
0.00012862
0.000130936
0.000133294
0.000135687
0.000138105
0.00014054
0.00014298
0.000145415
0.000147833
0.000150224
0.000152575
0.000154876
0.000157117
0.000159288
0.000161382
0.00016339
0.000165305
0.000167123
0.000168838
0.000170446
0.000171944
0.00017333
0.000174602
0.000175757
0.000176796
0.000177716
0.000178517
0.000179197
0.000179754
0.000180184
0.000180476
0.000180599
0.000180458
0.000291801
0.000290842
0.000211592
0.000243716
0.000146914
6.35324e-05
5.12736e-05
5.28827e-05
6.09005e-05
6.64754e-05
6.98344e-05
7.23223e-05
7.45796e-05
7.67677e-05
7.89569e-05
8.11817e-05
8.34619e-05
8.57618e-05
8.80109e-05
9.02008e-05
9.23258e-05
9.43938e-05
9.64375e-05
9.84818e-05
0.000100532
0.000102585
0.000104626
0.00010665
0.000108662
0.000110674
0.000112696
0.000114736
0.000116795
0.000118879
0.000120995
0.000123149
0.00012535
0.0001276
0.000129903
0.000132262
0.000134675
0.000137142
0.000139661
0.000142224
0.000144826
0.000147458
0.000150109
0.000152768
0.000155423
0.000158061
0.000160671
0.000163239
0.000165754
0.000168204
0.000170578
0.000172868
0.000175064
0.000177158
0.000179144
0.000181018
0.000182774
0.00018441
0.000185922
0.000187308
0.000188568
0.000189699
0.000190701
0.000191574
0.000192315
0.000192924
0.000193399
0.000193733
0.000193916
0.000193912
0.000193639
0.00030369
0.000292875
0.000215416
0.000253778
0.000144041
6.54123e-05
5.30007e-05
5.64571e-05
6.41538e-05
6.96385e-05
7.32055e-05
7.5948e-05
7.84729e-05
8.09386e-05
8.33997e-05
8.58885e-05
8.84132e-05
9.09448e-05
9.34208e-05
9.58356e-05
9.81871e-05
0.000100486
0.000102762
0.000105038
0.000107317
0.000109595
0.000111859
0.000114107
0.000116346
0.000118586
0.00012084
0.000123112
0.000125408
0.000127732
0.00013009
0.000132492
0.000134942
0.000137446
0.000140005
0.00014262
0.000145292
0.000148017
0.00015079
0.000153606
0.000156455
0.000159326
0.000162208
0.000165087
0.00016795
0.000170784
0.000173573
0.000176305
0.000178967
0.000181546
0.000184033
0.000186417
0.000188689
0.000190843
0.000192872
0.000194772
0.000196538
0.000198169
0.000199661
0.000201013
0.000202225
0.000203294
0.000204222
0.000205008
0.00020565
0.000206147
0.000206498
0.000206695
0.000206724
0.000206554
0.000206123
0.000308455
0.000292245
0.000221089
0.000257252
0.000138734
6.60824e-05
5.47467e-05
5.97417e-05
6.73365e-05
7.29943e-05
7.6881e-05
7.98676e-05
8.26393e-05
8.53551e-05
8.80741e-05
9.0816e-05
9.35877e-05
9.6354e-05
9.90569e-05
0.000101693
0.000104263
0.000106785
0.000109285
0.000111787
0.000114291
0.000116794
0.000119283
0.000121756
0.000124223
0.000126695
0.000129184
0.000131696
0.000134234
0.000136805
0.000139414
0.00014207
0.000144779
0.000147542
0.000150364
0.000153242
0.000156176
0.000159161
0.000162192
0.000165258
0.00016835
0.000171455
0.000174559
0.000177647
0.000180704
0.000183714
0.000186663
0.000189536
0.000192319
0.000195
0.000197568
0.000200014
0.000202329
0.000204505
0.000206538
0.000208425
0.00021016
0.000211743
0.000213172
0.000214445
0.000215563
0.000216524
0.000217329
0.000217979
0.000218471
0.000218806
0.000218979
0.000218985
0.000218809
0.000218424
0.0002178
0.000304999
0.000289666
0.000226006
0.000253252
0.000131887
6.59858e-05
5.66779e-05
6.29585e-05
7.07653e-05
7.68651e-05
8.12416e-05
8.44781e-05
8.74696e-05
9.04159e-05
9.33742e-05
9.63611e-05
9.93738e-05
0.00010237
0.000105291
0.000108136
0.000110911
0.000113636
0.000116346
0.000119062
0.000121784
0.000124505
0.000127213
0.000129908
0.0001326
0.000135302
0.000138027
0.000140778
0.000143561
0.00014638
0.000149243
0.000152155
0.000155123
0.000158149
0.000161232
0.000164372
0.000167565
0.000170806
0.000174085
0.000177392
0.000180715
0.000184037
0.000187344
0.000190619
0.000193844
0.000197002
0.000200078
0.000203057
0.000205923
0.000208666
0.000211273
0.000213736
0.000216045
0.000218196
0.000220183
0.000222003
0.000223654
0.000225134
0.000226443
0.000227579
0.000228543
0.000229335
0.000229956
0.000230406
0.000230685
0.000230791
0.000230722
0.000230471
0.000230025
0.000229368
0.000228499
0.000295068
0.000285689
0.000226492
0.000242863
0.000123866
6.50112e-05
5.89132e-05
6.63945e-05
7.47237e-05
8.14445e-05
8.6615e-05
9.02059e-05
9.34026e-05
9.65702e-05
9.97524e-05
0.00010297
0.000106212
0.000109425
0.000112547
0.00011558
0.000118538
0.000121445
0.000124345
0.000127258
0.000130182
0.000133109
0.000136025
0.000138931
0.00014184
0.000144765
0.000147717
0.000150703
0.000153725
0.000156789
0.0001599
0.000163064
0.000166285
0.000169564
0.0001729
0.00017629
0.000179728
0.000183207
0.000186716
0.000190242
0.000193768
0.000197279
0.000200756
0.000204179
0.000207532
0.000210795
0.000213951
0.000216985
0.000219882
0.00022263
0.000225218
0.000227637
0.000229878
0.000231938
0.000233812
0.000235498
0.000236994
0.0002383
0.000239414
0.000240338
0.000241073
0.000241619
0.000241977
0.000242148
0.000242132
0.000241929
0.000241536
0.000240947
0.000240154
0.000239154
0.000237972
0.000280682
0.00028073
0.000225256
0.000227604
0.000115189
6.40844e-05
6.16967e-05
7.05394e-05
7.97976e-05
8.73993e-05
9.30868e-05
9.74262e-05
0.000100845
0.000104242
0.000107644
0.000111083
0.000114539
0.000117953
0.000121258
0.000124458
0.000127573
0.000130638
0.000133704
0.000136792
0.000139899
0.000143015
0.000146123
0.000149226
0.000152337
0.000155471
0.00015864
0.000161848
0.000165098
0.000168394
0.000171739
0.000175139
0.000178596
0.00018211
0.000185677
0.000189292
0.000192947
0.000196633
0.000200336
0.00020404
0.000207727
0.000211378
0.000214973
0.000218491
0.000221911
0.000225215
0.000228386
0.000231406
0.000234261
0.000236938
0.000239428
0.000241722
0.000243813
0.000245697
0.000247371
0.000248834
0.000250085
0.000251124
0.000251951
0.000252568
0.000252977
0.000253178
0.000253175
0.000252968
0.000252557
0.000251944
0.000251128
0.000250104
0.000248873
0.000247443
0.000245858
0.000264285
0.000274898
0.000222765
0.000209528
0.000106644
6.3977e-05
6.55239e-05
7.62538e-05
8.72186e-05
9.62011e-05
0.000102232
0.000106567
0.000110153
0.000113791
0.000117419
0.000121075
0.000124739
0.000128343
0.000131815
0.000135163
0.000138417
0.000141617
0.000144826
0.000148068
0.000151338
0.000154624
0.000157906
0.000161189
0.000164485
0.000167811
0.00017118
0.000174593
0.000178052
0.000181558
0.000185113
0.000188722
0.000192385
0.0001961
0.000199859
0.000203657
0.000207483
0.000211324
0.000215165
0.000218987
0.000222769
0.00022649
0.000230129
0.000233661
0.000237067
0.000240326
0.00024342
0.000246332
0.000249048
0.000251556
0.000253846
0.00025591
0.000257743
0.000259342
0.000260705
0.000261832
0.000262723
0.000263378
0.0002638
0.000263991
0.000263953
0.000263689
0.000263203
0.000262495
0.000261568
0.000260425
0.000259067
0.000257496
0.000255719
0.000253755
0.000251654
0.000249552
0.00026913
0.000218152
0.000190972
9.83647e-05
6.53471e-05
7.1169e-05
8.45944e-05
9.81652e-05
0.000108419
0.000114678
0.000118601
0.00012208
0.000125731
0.000129499
0.000133332
0.000137178
0.000140952
0.000144575
0.000148056
0.00015143
0.000154747
0.000158079
0.000161456
0.00016487
0.000168308
0.000171748
0.000175192
0.000178655
0.000182155
0.000185701
0.000189295
0.000192934
0.000196616
0.000200344
0.00020412
0.000207942
0.000211802
0.000215695
0.00021961
0.000223534
0.000227453
0.000231349
0.0002352
0.000238984
0.000242677
0.000246256
0.000249697
0.000252976
0.000256075
0.000258974
0.000261656
0.000264107
0.000266316
0.000268274
0.000269975
0.000271415
0.000272591
0.000273504
0.000274153
0.00027454
0.000274668
0.000274539
0.000274158
0.000273527
0.000272651
0.000271534
0.000270181
0.000268594
0.000266781
0.000264745
0.000262497
0.00026005
0.000257429
0.000254682
0.000238552
0.000265399
0.000211506
0.000173393
9.17056e-05
6.88279e-05
7.96633e-05
9.69267e-05
0.000113339
0.000124901
0.000131414
0.000135073
0.000138082
0.00014132
0.000144862
0.000148632
0.000152503
0.000156341
0.00016004
0.000163597
0.000167047
0.000170444
0.000173868
0.00017735
0.000180884
0.00018445
0.000188024
0.000191605
0.000195209
0.000198852
0.000202542
0.000206276
0.000210046
0.000213851
0.000217691
0.000221564
0.000225465
0.000229387
0.00023332
0.000237252
0.000241169
0.000245055
0.000248888
0.000252647
0.000256305
0.000259839
0.000263222
0.000266429
0.000269438
0.000272228
0.00027478
0.000277076
0.000279104
0.000280854
0.000282317
0.000283489
0.000284367
0.00028495
0.00028524
0.000285239
0.000284949
0.000284374
0.00028352
0.000282392
0.000280994
0.000279333
0.000277417
0.00027525
0.00027284
0.000270197
0.000267334
0.000264267
0.000261013
0.000257598
0.00025406
0.000233458
0.000262863
0.00020252
0.000157367
8.76013e-05
7.5177e-05
9.18866e-05
0.000113704
0.000132925
0.000145788
0.00015266
0.000156111
0.000158783
0.000161629
0.000164792
0.000168251
0.000171888
0.000175558
0.000179139
0.000182616
0.000186017
0.000189393
0.000192826
0.000196343
0.000199929
0.00020356
0.000207206
0.000210865
0.000214545
0.000218263
0.000222021
0.000225806
0.000229613
0.000233438
0.000237278
0.000241128
0.000244982
0.000248832
0.000252665
0.000256471