/*--------------------------------*- C++ -*----------------------------------*\
| =========                 |                                                 |
| \\      /  F ield         | OpenFOAM: The Open Source CFD Toolbox           |
|  \\    /   O peration     | Version:  2412                                  |
|   \\  /    A nd           | Website:  www.openfoam.com                      |
|    \\/     M anipulation  |                                                 |
\*---------------------------------------------------------------------------*/
FoamFile
{
    version     2.0;
    format      ascii;
    arch        "LSB;label=32;scalar=64";
    class       volScalarField;
    location    "60";
    object      nut;
}
// * * * * * * * * * * * * * * * * * * * * * * * * * * * * * * * * * * * * * //

dimensions      [0 2 -1 0 0 0 0];

internalField   nonuniform List<scalar> 
7421
(
1.4483e-11
1.45266e-11
1.45751e-11
1.46292e-11
1.46897e-11
1.47535e-11
1.48204e-11
1.48908e-11
1.49637e-11
1.50388e-11
1.51164e-11
1.51964e-11
1.52786e-11
1.53629e-11
1.54484e-11
1.55357e-11
1.56246e-11
1.5715e-11
1.58059e-11
1.58962e-11
1.59888e-11
1.60819e-11
1.61756e-11
1.62707e-11
1.63647e-11
1.64598e-11
1.65562e-11
1.66535e-11
1.67504e-11
1.68479e-11
1.69472e-11
1.70489e-11
1.7152e-11
1.72556e-11
1.7363e-11
1.74734e-11
1.75872e-11
1.77042e-11
1.78244e-11
1.79492e-11
1.80784e-11
1.82106e-11
1.83484e-11
1.84902e-11
1.86376e-11
1.87914e-11
1.89507e-11
1.91145e-11
1.9284e-11
1.94593e-11
1.96417e-11
1.98296e-11
2.00234e-11
2.02246e-11
2.0432e-11
2.06445e-11
2.08636e-11
2.1089e-11
2.13191e-11
2.15542e-11
2.17955e-11
2.2041e-11
2.22906e-11
2.25445e-11
2.28031e-11
2.30663e-11
2.33329e-11
2.36045e-11
2.38813e-11
2.41633e-11
2.44504e-11
2.47429e-11
2.50402e-11
2.53434e-11
1.36349e-09
1.36799e-09
1.37299e-09
1.37856e-09
1.38467e-09
1.39113e-09
1.39788e-09
1.40494e-09
1.41227e-09
1.41982e-09
1.42762e-09
1.43562e-09
1.44384e-09
1.45226e-09
1.4608e-09
1.46952e-09
1.47839e-09
1.48737e-09
1.49648e-09
1.50557e-09
1.51482e-09
1.52413e-09
1.53349e-09
1.54298e-09
1.55243e-09
1.56196e-09
1.57158e-09
1.58134e-09
1.59116e-09
1.60102e-09
1.61104e-09
1.62126e-09
1.63171e-09
1.64232e-09
1.65324e-09
1.66444e-09
1.67599e-09
1.6879e-09
1.70015e-09
1.7128e-09
1.72587e-09
1.73931e-09
1.75327e-09
1.76768e-09
1.7826e-09
1.79808e-09
1.81413e-09
1.83061e-09
1.84766e-09
1.86525e-09
1.88348e-09
1.90223e-09
1.92154e-09
1.94145e-09
1.9619e-09
1.98287e-09
2.0044e-09
2.02636e-09
2.0487e-09
2.07148e-09
2.09465e-09
2.11804e-09
2.14175e-09
2.16577e-09
2.19007e-09
2.21461e-09
2.23938e-09
2.26453e-09
2.29006e-09
2.31604e-09
2.34252e-09
2.36953e-09
2.39703e-09
2.42516e-09
1.28886e-08
1.29379e-08
1.29926e-08
1.3053e-08
1.31182e-08
1.31868e-08
1.32583e-08
1.33327e-08
1.34096e-08
1.3489e-08
1.35708e-08
1.36546e-08
1.37405e-08
1.38283e-08
1.39175e-08
1.40082e-08
1.41005e-08
1.41938e-08
1.42884e-08
1.43834e-08
1.44795e-08
1.45765e-08
1.4674e-08
1.47727e-08
1.48718e-08
1.49716e-08
1.50723e-08
1.51746e-08
1.52782e-08
1.53827e-08
1.5489e-08
1.55973e-08
1.57084e-08
1.58219e-08
1.59385e-08
1.60581e-08
1.61816e-08
1.6309e-08
1.64399e-08
1.65749e-08
1.67144e-08
1.68581e-08
1.70066e-08
1.71597e-08
1.73178e-08
1.74811e-08
1.76497e-08
1.78227e-08
1.80013e-08
1.8185e-08
1.83743e-08
1.85684e-08
1.87676e-08
1.89721e-08
1.91812e-08
1.93947e-08
1.96129e-08
1.98345e-08
2.00592e-08
2.02867e-08
2.05165e-08
2.07477e-08
2.09808e-08
2.12155e-08
2.14516e-08
2.16888e-08
2.19277e-08
2.2169e-08
2.24131e-08
2.26611e-08
2.29137e-08
2.3171e-08
2.34333e-08
2.37015e-08
6.05368e-08
6.0816e-08
6.11249e-08
6.14601e-08
6.18175e-08
6.21908e-08
6.25786e-08
6.29804e-08
6.33953e-08
6.38219e-08
6.42598e-08
6.47079e-08
6.51659e-08
6.56327e-08
6.61072e-08
6.65892e-08
6.70784e-08
6.7573e-08
6.80738e-08
6.85777e-08
6.90877e-08
6.96024e-08
7.01219e-08
7.06466e-08
7.11758e-08
7.17105e-08
7.22511e-08
7.28006e-08
7.33584e-08
7.39254e-08
7.45038e-08
7.50948e-08
7.57008e-08
7.63216e-08
7.69615e-08
7.76191e-08
7.82968e-08
7.89949e-08
7.97128e-08
8.04528e-08
8.12161e-08
8.2001e-08
8.281e-08
8.36414e-08
8.44962e-08
8.5376e-08
8.628e-08
8.72059e-08
8.8156e-08
8.91304e-08
9.01285e-08
9.11478e-08
9.21894e-08
9.32533e-08
9.43359e-08
9.5436e-08
9.65544e-08
9.76855e-08
9.88276e-08
9.99779e-08
1.01133e-07
1.02292e-07
1.03453e-07
1.04617e-07
1.05783e-07
1.0695e-07
1.08122e-07
1.093e-07
1.10489e-07
1.11694e-07
1.12917e-07
1.14161e-07
1.15428e-07
1.1672e-07
2.00444e-07
2.01585e-07
2.02838e-07
2.04174e-07
2.05582e-07
2.07044e-07
2.08555e-07
2.10113e-07
2.11717e-07
2.13361e-07
2.15043e-07
2.16758e-07
2.18507e-07
2.20286e-07
2.22093e-07
2.23925e-07
2.25783e-07
2.27661e-07
2.29562e-07
2.31477e-07
2.33417e-07
2.35377e-07
2.37359e-07
2.39365e-07
2.41391e-07
2.43446e-07
2.45533e-07
2.47659e-07
2.49826e-07
2.52037e-07
2.54303e-07
2.56623e-07
2.59008e-07
2.61459e-07
2.63985e-07
2.66585e-07
2.69264e-07
2.72021e-07
2.74857e-07
2.77775e-07
2.80775e-07
2.83852e-07
2.87013e-07
2.90251e-07
2.93566e-07
2.96962e-07
3.00432e-07
3.03974e-07
3.07585e-07
3.1127e-07
3.15023e-07
3.18839e-07
3.22717e-07
3.26655e-07
3.3064e-07
3.34674e-07
3.38752e-07
3.42857e-07
3.46985e-07
3.51125e-07
3.55269e-07
3.59411e-07
3.63546e-07
3.67677e-07
3.71806e-07
3.75929e-07
3.80054e-07
3.84189e-07
3.88355e-07
3.92558e-07
3.9681e-07
4.01119e-07
4.05494e-07
4.0994e-07
5.34846e-07
5.38627e-07
5.42732e-07
5.4705e-07
5.51551e-07
5.56199e-07
5.60979e-07
5.65889e-07
5.70917e-07
5.76051e-07
5.81288e-07
5.86617e-07
5.92035e-07
5.97536e-07
6.03119e-07
6.08772e-07
6.14498e-07
6.20286e-07
6.26145e-07
6.32061e-07
6.38056e-07
6.44123e-07
6.50269e-07
6.56505e-07
6.62831e-07
6.69268e-07
6.75837e-07
6.82544e-07
6.89413e-07
6.96452e-07
7.03692e-07
7.11134e-07
7.18798e-07
7.26693e-07
7.34834e-07
7.43223e-07
7.51867e-07
7.60758e-07
7.69889e-07
7.79268e-07
7.8888e-07
7.98712e-07
8.08767e-07
8.19029e-07
8.29485e-07
8.40141e-07
8.50962e-07
8.61956e-07
8.731e-07
8.84402e-07
8.95835e-07
9.07404e-07
9.19079e-07
9.30871e-07
9.42733e-07
9.54686e-07
9.66698e-07
9.78737e-07
9.90792e-07
1.00284e-06
1.01488e-06
1.02687e-06
1.03882e-06
1.05073e-06
1.06261e-06
1.07446e-06
1.08629e-06
1.09812e-06
1.11001e-06
1.12195e-06
1.13398e-06
1.14611e-06
1.15837e-06
1.17075e-06
1.21178e-06
1.22488e-06
1.23553e-06
1.24695e-06
1.25884e-06
1.27112e-06
1.28373e-06
1.29665e-06
1.30986e-06
1.32333e-06
1.33704e-06
1.35098e-06
1.36513e-06
1.37949e-06
1.39405e-06
1.4088e-06
1.42373e-06
1.43884e-06
1.45413e-06
1.46961e-06
1.48526e-06
1.50115e-06
1.51726e-06
1.53363e-06
1.55028e-06
1.56726e-06
1.5846e-06
1.60235e-06
1.62056e-06
1.6393e-06
1.65859e-06
1.67849e-06
1.69902e-06
1.72022e-06
1.74211e-06
1.76471e-06
1.78802e-06
1.81203e-06
1.83671e-06
1.86203e-06
1.88798e-06
1.9145e-06
1.94155e-06
1.9691e-06
1.99712e-06
2.02551e-06
2.0543e-06
2.08337e-06
2.11275e-06
2.14234e-06
2.17217e-06
2.20214e-06
2.23228e-06
2.2625e-06
2.29284e-06
2.32316e-06
2.35356e-06
2.38391e-06
2.4142e-06
2.44439e-06
2.47447e-06
2.50441e-06
2.53418e-06
2.56379e-06
2.59325e-06
2.62255e-06
2.65171e-06
2.68077e-06
2.70978e-06
2.73879e-06
2.76782e-06
2.79691e-06
2.82609e-06
2.85537e-06
2.88478e-06
2.4553e-06
2.48711e-06
2.51306e-06
2.54057e-06
2.56897e-06
2.5981e-06
2.62788e-06
2.65826e-06
2.68921e-06
2.72066e-06
2.75258e-06
2.78494e-06
2.81774e-06
2.85095e-06
2.88458e-06
2.91862e-06
2.95305e-06
2.9879e-06
3.02319e-06
3.05894e-06
3.09517e-06
3.13198e-06
3.16942e-06
3.20757e-06
3.24653e-06
3.28636e-06
3.32723e-06
3.36926e-06
3.41253e-06
3.45726e-06
3.50347e-06
3.55132e-06
3.60086e-06
3.65213e-06
3.70519e-06
3.76005e-06
3.81667e-06
3.87499e-06
3.93493e-06
3.99638e-06
4.05924e-06
4.12336e-06
4.1886e-06
4.25483e-06
4.32194e-06
4.38968e-06
4.45807e-06
4.52675e-06
4.59584e-06
4.66502e-06
4.73438e-06
4.80365e-06
4.87287e-06
4.94185e-06
5.01069e-06
5.07904e-06
5.14716e-06
5.21474e-06
5.28184e-06
5.34838e-06
5.41436e-06
5.47979e-06
5.54461e-06
5.60885e-06
5.67253e-06
5.73562e-06
5.79822e-06
5.86039e-06
5.92221e-06
5.98373e-06
6.04497e-06
6.10597e-06
6.16679e-06
6.22741e-06
6.28789e-06
4.49322e-06
4.55919e-06
4.61434e-06
4.67214e-06
4.73141e-06
4.79187e-06
4.85344e-06
4.91603e-06
4.97957e-06
5.04394e-06
5.10911e-06
5.17505e-06
5.24173e-06
5.30916e-06
5.37735e-06
5.44632e-06
5.51605e-06
5.58664e-06
5.65816e-06
5.73068e-06
5.8043e-06
5.87922e-06
5.9556e-06
6.03363e-06
6.11353e-06
6.19551e-06
6.2799e-06
6.36698e-06
6.45694e-06
6.55025e-06
6.64692e-06
6.74733e-06
6.85148e-06
6.95947e-06
7.07137e-06
7.18719e-06
7.30675e-06
7.42988e-06
7.5564e-06
7.68596e-06
7.8183e-06
7.95306e-06
8.08989e-06
8.22846e-06
8.36849e-06
8.50934e-06
8.65107e-06
8.79285e-06
8.93492e-06
9.07653e-06
9.21789e-06
9.35835e-06
9.49805e-06
9.63651e-06
9.77397e-06
9.90969e-06
1.00443e-05
1.01769e-05
1.0308e-05
1.04373e-05
1.05649e-05
1.06907e-05
1.08149e-05
1.09373e-05
1.1058e-05
1.11771e-05
1.12947e-05
1.14109e-05
1.15259e-05
1.16397e-05
1.17522e-05
1.18637e-05
1.19741e-05
1.20834e-05
1.21918e-05
7.51845e-06
7.63716e-06
7.74031e-06
7.84729e-06
7.95636e-06
8.06711e-06
8.17947e-06
8.29331e-06
8.40849e-06
8.52485e-06
8.64238e-06
8.76105e-06
8.88084e-06
9.0018e-06
9.12398e-06
9.24747e-06
9.37229e-06
9.49867e-06
9.62673e-06
9.75669e-06
9.88881e-06
1.00234e-05
1.01609e-05
1.03016e-05
1.0446e-05
1.05945e-05
1.07477e-05
1.09062e-05
1.10702e-05
1.12407e-05
1.14177e-05
1.16017e-05
1.17927e-05
1.19909e-05
1.21963e-05
1.24088e-05
1.2628e-05
1.28536e-05
1.3085e-05
1.33217e-05
1.3563e-05
1.38082e-05
1.40567e-05
1.43077e-05
1.45607e-05
1.48145e-05
1.50692e-05
1.53232e-05
1.55769e-05
1.5829e-05
1.60799e-05
1.63282e-05
1.65743e-05
1.68173e-05
1.70577e-05
1.72941e-05
1.75276e-05
1.77567e-05
1.79821e-05
1.82035e-05
1.84211e-05
1.86349e-05
1.88449e-05
1.90511e-05
1.92534e-05
1.94519e-05
1.96471e-05
1.98392e-05
2.00284e-05
2.02145e-05
2.03976e-05
2.05779e-05
2.07555e-05
2.09303e-05
2.11026e-05
1.16214e-05
1.18129e-05
1.19852e-05
1.21622e-05
1.23418e-05
1.25234e-05
1.2707e-05
1.28924e-05
1.30794e-05
1.32678e-05
1.34577e-05
1.3649e-05
1.38418e-05
1.40363e-05
1.42325e-05
1.44308e-05
1.46311e-05
1.48339e-05
1.50395e-05
1.52482e-05
1.54606e-05
1.56773e-05
1.58988e-05
1.61258e-05
1.63591e-05
1.65994e-05
1.68477e-05
1.71048e-05
1.73713e-05
1.76484e-05
1.79362e-05
1.82354e-05
1.85458e-05
1.88678e-05
1.92012e-05
1.95455e-05
1.99002e-05
2.02645e-05
2.06375e-05
2.10182e-05
2.14055e-05
2.17981e-05
2.21951e-05
2.25951e-05
2.29973e-05
2.33998e-05
2.38026e-05
2.42034e-05
2.46029e-05
2.49989e-05
2.5392e-05
2.57802e-05
2.61641e-05
2.65423e-05
2.69154e-05
2.72813e-05
2.76421e-05
2.79948e-05
2.83411e-05
2.86803e-05
2.90128e-05
2.93385e-05
2.96576e-05
2.99697e-05
3.0275e-05
3.05735e-05
3.0866e-05
3.11528e-05
3.14342e-05
3.17099e-05
3.19799e-05
3.22445e-05
3.25039e-05
3.27582e-05
3.30077e-05
1.67612e-05
1.70441e-05
1.73059e-05
1.75725e-05
1.78419e-05
1.81132e-05
1.83865e-05
1.86616e-05
1.89384e-05
1.92166e-05
1.94963e-05
1.97778e-05
2.00611e-05
2.03466e-05
2.06344e-05
2.0925e-05
2.12186e-05
2.1516e-05
2.18175e-05
2.21238e-05
2.24357e-05
2.27542e-05
2.30801e-05
2.34144e-05
2.37582e-05
2.41128e-05
2.44793e-05
2.48591e-05
2.52529e-05
2.56623e-05
2.60872e-05
2.65286e-05
2.69861e-05
2.74598e-05
2.79494e-05
2.84541e-05
2.89728e-05
2.95043e-05
3.00472e-05
3.05998e-05
3.11606e-05
3.17278e-05
3.22999e-05
3.2875e-05
3.34519e-05
3.40281e-05
3.46035e-05
3.5175e-05
3.57435e-05
3.63061e-05
3.68637e-05
3.74135e-05
3.79564e-05
3.84905e-05
3.90166e-05
3.95321e-05
4.00395e-05
4.05347e-05
4.10204e-05
4.14955e-05
4.19605e-05
4.24153e-05
4.28601e-05
4.32943e-05
4.37182e-05
4.41317e-05
4.4536e-05
4.49316e-05
4.53188e-05
4.56968e-05
4.6066e-05
4.64267e-05
4.67792e-05
4.71236e-05
4.74604e-05
2.27788e-05
2.31684e-05
2.35361e-05
2.39083e-05
2.42826e-05
2.46583e-05
2.50357e-05
2.54145e-05
2.57946e-05
2.61759e-05
2.65588e-05
2.69435e-05
2.73304e-05
2.772e-05
2.81126e-05
2.8509e-05
2.89096e-05
2.93154e-05
2.97271e-05
3.01457e-05
3.05723e-05
3.10081e-05
3.14545e-05
3.19127e-05
3.23844e-05
3.28709e-05
3.33741e-05
3.38954e-05
3.44359e-05
3.49973e-05
3.55793e-05
3.61831e-05
3.68077e-05
3.74531e-05
3.81187e-05
3.8803e-05
3.95045e-05
4.02214e-05
4.09518e-05
4.16933e-05
4.24438e-05
4.3201e-05
4.3963e-05
4.47274e-05
4.54925e-05
4.62553e-05
4.70156e-05
4.77697e-05
4.85189e-05
4.92594e-05
4.99925e-05
5.07147e-05
5.14274e-05
5.21279e-05
5.28175e-05
5.34928e-05
5.41572e-05
5.48053e-05
5.54406e-05
5.60618e-05
5.66695e-05
5.72636e-05
5.78441e-05
5.84105e-05
5.89626e-05
5.95008e-05
6.00265e-05
6.05404e-05
6.10424e-05
6.15318e-05
6.20089e-05
6.24741e-05
6.29279e-05
6.33703e-05
6.38021e-05
2.94382e-05
2.99451e-05
3.04307e-05
3.09192e-05
3.14088e-05
3.18988e-05
3.23895e-05
3.2881e-05
3.33732e-05
3.38662e-05
3.43607e-05
3.48571e-05
3.53562e-05
3.58585e-05
3.63649e-05
3.68763e-05
3.73933e-05
3.79174e-05
3.84495e-05
3.8991e-05
3.95433e-05
4.0108e-05
4.06869e-05
4.12815e-05
4.18939e-05
4.25258e-05
4.31794e-05
4.38562e-05
4.45574e-05
4.52848e-05
4.6038e-05
4.68177e-05
4.76226e-05
4.84524e-05
4.93058e-05
5.01809e-05
5.10755e-05
5.19871e-05
5.29134e-05
5.38512e-05
5.47981e-05
5.57513e-05
5.67083e-05
5.76665e-05
5.86238e-05
5.95767e-05
6.05252e-05
6.14649e-05
6.23976e-05
6.33187e-05
6.42302e-05
6.51276e-05
6.60129e-05
6.6883e-05
6.77394e-05
6.85783e-05
6.94034e-05
7.02085e-05
7.09979e-05
7.17699e-05
7.25253e-05
7.32639e-05
7.39856e-05
7.46898e-05
7.53761e-05
7.60451e-05
7.66984e-05
7.73368e-05
7.79602e-05
7.85675e-05
7.9159e-05
7.97353e-05
8.0297e-05
8.08441e-05
8.13775e-05
3.64736e-05
3.71043e-05
3.77147e-05
3.83258e-05
3.89363e-05
3.95457e-05
4.01547e-05
4.07634e-05
4.13721e-05
4.19813e-05
4.25919e-05
4.32048e-05
4.3821e-05
4.44413e-05
4.5067e-05
4.56993e-05
4.63392e-05
4.69883e-05
4.76481e-05
4.83202e-05
4.90065e-05
4.97089e-05
5.04295e-05
5.11702e-05
5.19334e-05
5.2721e-05
5.35355e-05
5.43784e-05
5.52509e-05
5.61547e-05
5.70888e-05
5.80536e-05
5.90473e-05
6.0069e-05
6.11169e-05
6.21883e-05
6.32805e-05
6.43903e-05
6.5515e-05
6.66508e-05
6.77949e-05
6.89441e-05
7.00957e-05
7.12467e-05
7.23948e-05
7.35363e-05
7.46711e-05
7.57946e-05
7.6909e-05
7.80093e-05
7.90976e-05
8.01692e-05
8.12264e-05
8.22657e-05
8.3289e-05
8.42918e-05
8.52785e-05
8.6242e-05
8.71873e-05
8.81125e-05
8.90184e-05
8.99048e-05
9.07715e-05
9.16174e-05
9.24425e-05
9.32471e-05
9.40333e-05
9.48018e-05
9.55523e-05
9.62835e-05
9.69956e-05
9.76895e-05
9.83657e-05
9.90244e-05
9.96666e-05
4.36276e-05
4.4385e-05
4.51228e-05
4.58587e-05
4.65919e-05
4.73224e-05
4.80511e-05
4.87785e-05
4.95052e-05
5.02323e-05
5.0961e-05
5.16926e-05
5.24285e-05
5.31701e-05
5.39187e-05
5.4676e-05
5.54434e-05
5.6223e-05
5.70163e-05
5.78255e-05
5.86529e-05
5.95005e-05
6.03709e-05
6.12663e-05
6.21892e-05
6.31418e-05
6.41265e-05
6.51448e-05
6.61976e-05
6.72863e-05
6.84093e-05
6.95664e-05
7.07551e-05
7.1974e-05
7.32205e-05
7.44913e-05
7.57831e-05
7.70923e-05
7.84154e-05
7.97486e-05
8.10885e-05
8.24318e-05
8.37755e-05
8.51166e-05
8.64525e-05
8.77796e-05
8.90979e-05
9.04026e-05
9.16961e-05
9.29734e-05
9.42366e-05
9.5481e-05
9.67091e-05
9.79171e-05
9.91071e-05
0.000100274
0.000101424
0.000102547
0.000103651
0.000104732
0.000105792
0.00010683
0.000107845
0.000108838
0.000109807
0.000110753
0.000111678
0.000112583
0.000113467
0.00011433
0.00011517
0.000115989
0.000116788
0.000117567
0.000118326
5.06746e-05
5.15587e-05
5.24236e-05
5.32836e-05
5.41388e-05
5.49894e-05
5.5837e-05
5.66826e-05
5.75271e-05
5.83721e-05
5.92196e-05
6.00712e-05
6.09286e-05
6.17937e-05
6.26684e-05
6.35545e-05
6.4454e-05
6.53691e-05
6.6302e-05
6.7255e-05
6.82307e-05
6.92317e-05
7.02605e-05
7.13198e-05
7.24119e-05
7.35392e-05
7.4704e-05
7.59074e-05
7.715e-05
7.84324e-05
7.97523e-05
8.11089e-05
8.24988e-05
8.39201e-05
8.53693e-05
8.68426e-05
8.8336e-05
8.98456e-05
9.13675e-05
9.28977e-05
9.44326e-05
9.59688e-05
9.75032e-05
9.90328e-05
0.000100555
0.000102066
0.000103566
0.000105051
0.000106523
0.000107977
0.000109415
0.000110833
0.000112233
0.000113612
0.000114971
0.000116305
0.00011762
0.000118908
0.000120174
0.000121416
0.000122635
0.00012383
0.000125001
0.000126147
0.000127267
0.000128362
0.000129435
0.000130485
0.000131512
0.000132515
0.000133493
0.000134447
0.000135379
0.000136288
0.000137175
5.74329e-05
5.84413e-05
5.94305e-05
6.0412e-05
6.13865e-05
6.2355e-05
6.33196e-05
6.42817e-05
6.5243e-05
6.62059e-05
6.71725e-05
6.81452e-05
6.91262e-05
7.01177e-05
7.11221e-05
7.21416e-05
7.31786e-05
7.42357e-05
7.53153e-05
7.64203e-05
7.75533e-05
7.87172e-05
7.99149e-05
8.11489e-05
8.24217e-05
8.37355e-05
8.50921e-05
8.64923e-05
8.79358e-05
8.94223e-05
9.09488e-05
9.25135e-05
9.41123e-05
9.57425e-05
9.74e-05
9.90803e-05
0.000100779
0.000102492
0.000104215
0.000105944
0.000107676
0.000109406
0.000111132
0.000112851
0.000114561
0.000116258
0.000117942
0.000119609
0.000121262
0.000122896
0.000124512
0.000126108
0.000127684
0.000129238
0.000130771
0.000132279
0.000133766
0.000135224
0.00013666
0.000138071
0.000139457
0.000140819
0.000142155
0.000143464
0.000144745
0.000146
0.000147231
0.000148437
0.000149618
0.000150773
0.000151901
0.000153003
0.00015408
0.000155132
0.000156161
6.37673e-05
6.4896e-05
6.60051e-05
6.71039e-05
6.81941e-05
6.92774e-05
7.03565e-05
7.14334e-05
7.25108e-05
7.35914e-05
7.46782e-05
7.57741e-05
7.68816e-05
7.80037e-05
7.91429e-05
8.03021e-05
8.14839e-05
8.26914e-05
8.39272e-05
8.51945e-05
8.64963e-05
8.78356e-05
8.92154e-05
9.06381e-05
9.2106e-05
9.36208e-05
9.51838e-05
9.67949e-05
9.84531e-05
0.000100157
0.000101902
0.000103686
0.000105503
0.000107351
0.000109225
0.00011112
0.00011303
0.000114952
0.000116881
0.000118814
0.000120747
0.000122676
0.000124598
0.000126512
0.000128414
0.000130302
0.000132175
0.000134031
0.000135871
0.000137691
0.000139494
0.000141274
0.000143035
0.000144773
0.000146489
0.00014818
0.000149849
0.000151489
0.000153105
0.000154696
0.000156262
0.000157802
0.000159315
0.000160799
0.000162255
0.000163683
0.000165085
0.000166461
0.000167811
0.000169131
0.000170423
0.000171688
0.000172925
0.000174136
0.000175321
6.959e-05
7.08333e-05
7.20563e-05
7.32674e-05
7.44689e-05
7.56636e-05
7.68546e-05
7.8045e-05
7.92381e-05
8.04375e-05
8.16466e-05
8.28689e-05
8.41078e-05
8.53663e-05
8.66477e-05
8.79551e-05
8.92917e-05
9.06607e-05
9.20651e-05
9.35085e-05
9.49939e-05
9.65245e-05
9.81031e-05
9.97319e-05
0.000101413
0.000103147
0.000104934
0.000106774
0.000108664
0.0001106
0.000112579
0.000114596
0.000116645
0.000118723
0.000120823
0.000122942
0.000125073
0.000127213
0.000129357
0.000131502
0.000133643
0.000135779
0.000137907
0.000140023
0.000142127
0.000144214
0.000146287
0.000148341
0.000150379
0.000152397
0.000154396
0.000156374
0.000158331
0.000160266
0.000162178
0.000164065
0.00016593
0.000167765
0.000169577
0.000171362
0.000173122
0.000174855
0.00017656
0.000178235
0.000179881
0.000181497
0.000183087
0.000184649
0.000186183
0.000187686
0.000189158
0.000190602
0.000192016
0.000193402
0.00019476
7.48599e-05
7.62102e-05
7.75403e-05
7.88576e-05
8.01656e-05
8.14678e-05
8.27685e-05
8.40715e-05
8.5381e-05
8.67012e-05
8.80363e-05
8.93904e-05
9.07673e-05
9.21707e-05
9.36042e-05
9.50714e-05
9.65757e-05
9.81208e-05
9.971e-05
0.000101347
0.000103035
0.000104777
0.000106575
0.000108432
0.000110348
0.000112323
0.000114357
0.000116446
0.000118588
0.000120777
0.000123007
0.000125273
0.00012757
0.000129891
0.000132232
0.000134588
0.000136952
0.000139322
0.000141693
0.000144061
0.000146424
0.000148779
0.000151123
0.000153455
0.000155773
0.000158074
0.000160359
0.000162626
0.000164876
0.000167107
0.000169318
0.000171508
0.000173678
0.000175826
0.000177951
0.00018005
0.000182127
0.000184175
0.000186198
0.000188196
0.000190167
0.00019211
0.000194025
0.000195909
0.000197762
0.000199585
0.00020138
0.000203146
0.000204882
0.000206585
0.000208255
0.000209895
0.000211504
0.000213083
0.000214632
7.95841e-05
8.10322e-05
8.24607e-05
8.38773e-05
8.52862e-05
8.66924e-05
8.81008e-05
8.95162e-05
9.09437e-05
9.23884e-05
9.3855e-05
9.53483e-05
9.68727e-05
9.84322e-05
0.000100031
0.000101673
0.000103362
0.000105102
0.000106896
0.000108749
0.000110662
0.00011264
0.000114685
0.000116796
0.000118973
0.000121217
0.000123523
0.000125887
0.000128303
0.000130766
0.000133269
0.000135804
0.000138366
0.00014095
0.000143548
0.000146156
0.00014877
0.000151385
0.000153997
0.000156605
0.000159204
0.000161794
0.000164371
0.000166935
0.000169483
0.000172015
0.000174531
0.000177028
0.000179509
0.00018197
0.000184413
0.000186835
0.000189236
0.000191616
0.000193973
0.000196305
0.000198613
0.000200893
0.000203149
0.000205378
0.000207579
0.000209753
0.000211896
0.000214008
0.000216087
0.000218136
0.000220155
0.000222143
0.000224098
0.000226019
0.000227906
0.00022976
0.000231581
0.000233369
0.000235126
8.38217e-05
8.5356e-05
8.68729e-05
8.83805e-05
8.98845e-05
9.13907e-05
9.29051e-05
9.44337e-05
9.59823e-05
9.75569e-05
9.91629e-05
0.000100806
0.00010249
0.00010422
0.000106001
0.000107837
0.000109732
0.00011169
0.000113715
0.00011581
0.000117979
0.000120223
0.000122544
0.000124941
0.000127412
0.000129954
0.000132562
0.000135229
0.000137948
0.000140711
0.000143509
0.000146336
0.000149185
0.00015205
0.000154925
0.000157805
0.000160686
0.000163565
0.000166438
0.000169303
0.000172158
0.000175002
0.000177832
0.000180648
0.000183447
0.000186231
0.000188998
0.000191747
0.00019448
0.000197194
0.00019989
0.000202565
0.000205221
0.000207854
0.000210465
0.000213051
0.000215613
0.000218147
0.000220655
0.000223136
0.00022559
0.000228013
0.000230405
0.000232764
0.000235089
0.000237382
0.000239643
0.000241871
0.000244063
0.000246219
0.000248338
0.000250422
0.00025247
0.000254482
0.000256461
8.76902e-05
8.92965e-05
9.08898e-05
9.24791e-05
9.40713e-05
9.56735e-05
9.72929e-05
9.89365e-05
0.000100611
0.000102323
0.000104079
0.000105884
0.000107744
0.000109665
0.000111649
0.000113703
0.000115831
0.000118036
0.000120322
0.000122693
0.000125151
0.000127697
0.000130331
0.000133051
0.000135852
0.000138728
0.000141672
0.000144675
0.000147726
0.000150816
0.000153937
0.000157081
0.00016024
0.000163409
0.000166583
0.000169757
0.000172927
0.000176091
0.000179247
0.000182392
0.000185525
0.000188646
0.000191751
0.000194842
0.000197917
0.000200976
0.000204019
0.000207045
0.000210054
0.000213045
0.000216019
0.000218972
0.000221905
0.000224816
0.000227704
0.000230567
0.000233405
0.000236214
0.000238997
0.000241751
0.000244476
0.000247169
0.000249828
0.000252452
0.000255041
0.000257594
0.000260113
0.000262596
0.00026504
0.000267443
0.000269807
0.000272132
0.000274417
0.000276664
0.000278872
9.13735e-05
9.30349e-05
9.46905e-05
9.63506e-05
9.80236e-05
9.9718e-05
0.000101442
0.000103204
0.000105011
0.000106871
0.00010879
0.000110775
0.000112832
0.000114965
0.00011718
0.000119481
0.000121873
0.000124359
0.000126943
0.000129629
0.000132417
0.000135308
0.000138298
0.000141383
0.000144556
0.000147807
0.000151124
0.000154497
0.000157913
0.000161362
0.000164834
0.000168322
0.000171817
0.000175316
0.000178813
0.000182306
0.00018579
0.000189264
0.000192727
0.000196178
0.000199614
0.000203037
0.000206444
0.000209837
0.000213213
0.000216574
0.000219919
0.000223247
0.00022656
0.000229854
0.00023313
0.000236386
0.000239621
0.000242833
0.000246022
0.000249184
0.000252319
0.000255424
0.000258501
0.000261547
0.000264561
0.00026754
0.000270482
0.000273385
0.00027625
0.000279076
0.000281863
0.00028461
0.000287313
0.000289971
0.000292584
0.000295153
0.000297677
0.000300157
0.000302593
9.51311e-05
9.68278e-05
9.85296e-05
0.000100248
0.000101994
0.000103777
0.000105606
0.000107491
0.00010944
0.00011146
0.00011356
0.000115746
0.000118024
0.000120399
0.000122875
0.000125458
0.000128152
0.00013096
0.000133886
0.000136932
0.000140097
0.000143381
0.000146776
0.000150275
0.000153865
0.000157534
0.000161267
0.000165049
0.000168866
0.000172706
0.00017656
0.000180421
0.000184282
0.000188138
0.000191986
0.000195824
0.000199649
0.000203461
0.000207259
0.000211042
0.00021481
0.000218563
0.0002223
0.000226022
0.000229728
0.000233418
0.000237093
0.000240751
0.000244392
0.000248015
0.000251618
0.000255201
0.000258761
0.000262296
0.000265805
0.000269285
0.000272735
0.000276153
0.000279539
0.000282889
0.000286203
0.000289478
0.000292711
0.000295901
0.000299046
0.000302148
0.000305204
0.000308213
0.000311171
0.000314078
0.000316934
0.000319737
0.000322488
0.000325186
0.000327832
9.93087e-05
0.000101018
0.000102748
0.000104512
0.000106322
0.00010819
0.000110125
0.000112139
0.00011424
0.000116437
0.000118739
0.00012115
0.000123677
0.000126326
0.0001291
0.000132004
0.000135042
0.000138218
0.000141534
0.000144992
0.000148589
0.000152319
0.000156175
0.000160141
0.000164202
0.000168338
0.000172531
0.000176763
0.000181019
0.000185287
0.000189557
0.000193823
0.00019808
0.000202324
0.000206553
0.000210766
0.000214962
0.000219141
0.000223304
0.000227449
0.000231577
0.00023569
0.000239786
0.000243865
0.000247929
0.000251975
0.000256005
0.000260018
0.000264012
0.000267985
0.000271937
0.000275865
0.000279768
0.000283641
0.000287485
0.000291295
0.00029507
0.000298807
0.000302507
0.000306165
0.00030978
0.000313349
0.000316869
0.000320338
0.000323755
0.00032712
0.00033043
0.000333684
0.000336877
0.00034001
0.00034308
0.000346088
0.000349032
0.00035191
0.000354723
0.000104352
0.000106048
0.000107786
0.000109579
0.000111443
0.000113389
0.000115431
0.000117579
0.000119844
0.000122234
0.000124758
0.000127421
0.000130229
0.000133186
0.000136297
0.000139565
0.000142994
0.000146588
0.000150348
0.000154274
0.000158362
0.000162603
0.000166981
0.000171475
0.000176064
0.000180721
0.000185425
0.000190154
0.000194892
0.000199628
0.000204352
0.000209059
0.000213746
0.000218412
0.000223055
0.000227675
0.000232274
0.000236851
0.000241408
0.000245946
0.000250464
0.000254964
0.000259446
0.000263909
0.000268354
0.00027278
0.000277187
0.000281572
0.000285936
0.000290274
0.000294586
0.000298869
0.00030312
0.000307336
0.000311515
0.000315653
0.000319748
0.000323798
0.000327801
0.000331753
0.000335651
0.000339493
0.000343276
0.000346997
0.000350656
0.00035425
0.000357776
0.000361233
0.000364616
0.000367925
0.000371156
0.00037431
0.000377383
0.000380373
0.000383279
0.000110836
0.000112489
0.000114209
0.000116011
0.000117912
0.000119927
0.000122069
0.000124352
0.000126787
0.000129383
0.000132148
0.000135087
0.000138204
0.000141504
0.000144989
0.000148664
0.000152532
0.000156595
0.000160857
0.000165315
0.000169961
0.000174781
0.000179752
0.000184845
0.000190029
0.000195272
0.000200546
0.000205826
0.000211097
0.000216345
0.000221566
0.000226756
0.000231912
0.000237036
0.000242128
0.00024719
0.000252223
0.00025723
0.000262211
0.000267168
0.000272101
0.000277011
0.000281898
0.000286763
0.000291604
0.000296421
0.000301212
0.000305977
0.000310711
0.000315413
0.00032008
0.000324708
0.000329295
0.000333837
0.00033833
0.000342772
0.000347159
0.000351488
0.000355758
0.000359963
0.000364102
0.000368169
0.000372163
0.00037608
0.000379919
0.000383677
0.00038735
0.000390936
0.00039443
0.00039783
0.000401134
0.000404338
0.000407439
0.000410434
0.000413317
0.000119544
0.000121121
0.000122793
0.000124579
0.000126496
0.00012856
0.000130788
0.000133196
0.000135798
0.000138603
0.000141618
0.000144848
0.000148296
0.000151964
0.000155855
0.000159972
0.000164319
0.0001689
0.000173718
0.000178771
0.000184046
0.000189521
0.000195166
0.00020094
0.000206801
0.000212708
0.000218623
0.000224521
0.000230382
0.000236198
0.000241964
0.00024768
0.000253346
0.000258964
0.000264538
0.000270071
0.000275565
0.000281022
0.000286446
0.000291835
0.000297193
0.000302519
0.000307814
0.000313077
0.000318307
0.000323503
0.000328663
0.000333784
0.000338863
0.000343897
0.000348883
0.000353816
0.000358694
0.000363512
0.000368266
0.000372953
0.000377569
0.000382111
0.000386576
0.000390959
0.000395256
0.000399464
0.00040358
0.000407599
0.00041152
0.000415339
0.000419051
0.000422652
0.000426138
0.000429505
0.000432749
0.000435865
0.000438848
0.000441692
0.00044439
0.00013167
0.000133173
0.000134812
0.000136595
0.000138547
0.000140675
0.000142998
0.000145538
0.000148311
0.000151326
0.000154589
0.000158103
0.000161872
0.000165898
0.000170184
0.000174735
0.000179555
0.000184653
0.000190038
0.000195708
0.000201653
0.000207843
0.000214235
0.000220774
0.000227399
0.000234053
0.000240686
0.000247266
0.000253775
0.000260204
0.000266553
0.000272825
0.000279023
0.000285153
0.000291218
0.000297224
0.000303175
0.000309074
0.000314923
0.000320723
0.000326478
0.000332186
0.000337848
0.000343464
0.000349032
0.00035455
0.000360016
0.000365426
0.000370779
0.000376068
0.000381292
0.000386445
0.000391524
0.000396523
0.00040144
0.00040627
0.000411009
0.000415653
0.000420199
0.000424641
0.000428975
0.000433198
0.000437304
0.00044129
0.000445152
0.000448885
0.000452484
0.000455943
0.000459257
0.00046242
0.000465426
0.000468267
0.000470936
0.000473424
0.000475719
0.000149314
0.000151024
0.000152988
0.000155172
0.000157555
0.000160114
0.000162848
0.000165765
0.000168871
0.000172174
0.000175683
0.000179406
0.00018335
0.000187529
0.000191955
0.000196647
0.000201632
0.000206938
0.000212601
0.000218645
0.000225073
0.000231854
0.000238926
0.000246207
0.000253598
0.000261009
0.000268366
0.000275626
0.000282767
0.000289784
0.000296682
0.000303466
0.000310144
0.000316724
0.000323213
0.000329618
0.000335944
0.000342197
0.000348379
0.000354493
0.000360541
0.000366525
0.000372444
0.000378298
0.000384086
0.000389805
0.000395453
0.000401027
0.000406523
0.000411936
0.000417263
0.000422498
0.000427638
0.000432678
0.000437613
0.000442439
0.000447151
0.000451743
0.000456213
0.000460554
0.000464761
0.000468829
0.000472753
0.000476527
0.000480146
0.000483604
0.000486894
0.000490008
0.000492939
0.000495678
0.000498217
0.000500545
0.000502649
0.000504517
0.000506134
0.000175735
0.000178067
0.000180552
0.000183187
0.000185969
0.000188903
0.000191995
0.000195252
0.000198683
0.000202301
0.000206113
0.00021013
0.000214363
0.000218827
0.000223535
0.000228506
0.000233759
0.000239317
0.000245202
0.000251435
0.000258039
0.000265029
0.0002724
0.00028009
0.000287977
0.000295911
0.000303775
0.0003115
0.000319062
0.000326457
0.000333691
0.000340776
0.000347723
0.000354544
0.000361248
0.000367845
0.000374343
0.000380747
0.000387063
0.000393295
0.000399444
0.000405513
0.000411501
0.000417409
0.000423233
0.000428973
0.000434623
0.000440182
0.000445643
0.000451002