/*--------------------------------*- C++ -*----------------------------------*\
| =========                 |                                                 |
| \\      /  F ield         | OpenFOAM: The Open Source CFD Toolbox           |
|  \\    /   O peration     | Version:  2412                                  |
|   \\  /    A nd           | Website:  www.openfoam.com                      |
|    \\/     M anipulation  |                                                 |
\*---------------------------------------------------------------------------*/
FoamFile
{
    version     2.0;
    format      ascii;
    arch        "LSB;label=32;scalar=64";
    class       volScalarField;
    location    "60";
    object      p;
}
// * * * * * * * * * * * * * * * * * * * * * * * * * * * * * * * * * * * * * //

dimensions      [0 2 -2 0 0 0 0];

internalField   nonuniform List<scalar> 
7418
(
175.703
91.5892
107.064
140.066
133.766
105.639
71.973
64.1949
96.5842
112.469
119.452
122.115
121.636
119.327
117.186
117.138
118.133
119.854
121.797
122.72
122.681
122.056
121.131
120.456
119.919
119.393
118.658
117.664
116.47
115.144
113.692
112.079
110.271
108.271
106.093
103.757
101.275
98.6692
95.967
93.2017
90.4093
87.625
84.8783
82.1953
79.5991
77.1063
74.723
72.4584
70.3194
68.3012
66.3942
64.5932
62.8887
61.2698
59.7313
58.2633
56.8517
55.501
54.2038
52.9407
51.7254
50.5512
49.4088
48.3057
47.2406
46.2068
45.206
44.245
43.323
42.4373
41.5874
40.7759
40.0166
39.2922
38.609
37.976
37.391
36.8519
36.3597
35.9219
35.5364
67.2635
149.901
175.458
91.7377
107.154
140.028
133.732
105.68
72.0496
64.2323
96.5726
112.458
119.446
122.112
121.634
119.327
117.187
117.139
118.133
119.853
121.796
122.719
122.681
122.056
121.131
120.456
119.919
119.392
118.658
117.664
116.47
115.144
113.692
112.079
110.271
108.271
106.093
103.757
101.275
98.6691
95.9669
93.2016
90.4092
87.6249
84.8783
82.1952
79.5991
77.1062
74.7229
72.4584
70.3193
68.3012
66.3942
64.5932
62.8887
61.2698
59.7313
58.2633
56.8517
55.501
54.2038
52.9407
51.7254
50.5512
49.4088
48.3057
47.2406
46.2068
45.206
44.245
43.323
42.4373
41.5874
40.7759
40.0167
39.2922
38.609
37.976
37.391
36.852
36.3597
35.922
35.5364
67.5282
149.735
175.153
91.9498
107.3
139.988
133.699
105.724
72.158
64.2907
96.561
112.443
119.438
122.107
121.633
119.327
117.188
117.139
118.133
119.853
121.796
122.718
122.68
122.055
121.131
120.456
119.919
119.392
118.658
117.664
116.47
115.144
113.692
112.079
110.271
108.271
106.093
103.756
101.275
98.669
95.9669
93.2016
90.4092
87.6249
84.8782
82.1952
79.599
77.1062
74.7229
72.4583
70.3193
68.3012
66.3941
64.5932
62.8887
61.2698
59.7313
58.2633
56.8517
55.501
54.2038
52.9407
51.7254
50.5512
49.4088
48.3057
47.2407
46.2068
45.206
44.2451
43.323
42.4374
41.5874
40.7759
40.0167
39.2923
38.6091
37.9761
37.391
36.852
36.3597
35.922
35.5364
67.9269
149.602
174.794
92.2354
107.512
139.92
133.678
105.787
72.3019
64.3852
96.5525
112.427
119.429
122.102
121.631
119.328
117.189
117.141
118.133
119.852
121.795
122.718
122.68
122.055
121.131
120.456
119.919
119.392
118.658
117.664
116.47
115.144
113.692
112.078
110.271
108.271
106.093
103.756
101.275
98.669
95.9668
93.2015
90.4091
87.6248
84.8782
82.1952
79.599
77.1061
74.7229
72.4583
70.3193
68.3012
66.3941
64.5932
62.8887
61.2698
59.7313
58.2633
56.8517
55.501
54.2038
52.9407
51.7254
50.5513
49.4088
48.3057
47.2407
46.2068
45.2061
44.2451
43.3231
42.4374
41.5875
40.776
40.0167
39.2923
38.6091
37.9761
37.3911
36.852
36.3598
35.9221
35.5365
68.4242
149.47
174.362
92.5745
107.848
139.839
133.667
105.889
72.5084
64.5472
96.5474
112.408
119.416
122.095
121.628
119.328
117.192
117.143
118.134
119.852
121.794
122.717
122.679
122.055
121.131
120.456
119.919
119.392
118.658
117.664
116.47
115.144
113.692
112.078
110.271
108.271
106.093
103.756
101.275
98.669
95.9668
93.2015
90.4091
87.6248
84.8782
82.1952
79.599
77.1062
74.7229
72.4583
70.3193
68.3012
66.3942
64.5932
62.8887
61.2698
59.7313
58.2633
56.8518
55.5011
54.2039
52.9408
51.7255
50.5514
49.4089
48.3058
47.2408
46.2069
45.2062
44.2452
43.3232
42.4375
41.5876
40.7761
40.0169
39.2924
38.6092
37.9763
37.3912
36.8522
36.3599
35.9222
35.5366
68.9636
149.213
173.792
92.9132
108.353
139.803
133.652
106.016
72.8114
64.8181
96.5508
112.383
119.396
122.083
121.622
119.329
117.197
117.147
118.137
119.853
121.793
122.715
122.678
122.055
121.131
120.456
119.919
119.392
118.658
117.664
116.47
115.144
113.692
112.078
110.271
108.271
106.093
103.756
101.275
98.669
95.9669
93.2016
90.4092
87.6249
84.8783
82.1952
79.5991
77.1063
74.723
72.4585
70.3194
68.3013
66.3943
64.5934
62.8889
61.27
59.7315
58.2635
56.8519
55.5012
54.204
52.941
51.7257
50.5515
49.4091
48.306
47.241
46.2071
45.2064
44.2454
43.3234
42.4377
41.5878
40.7763
40.017
39.2926
38.6094
37.9764
37.3914
36.8524
36.3601
35.9224
35.5368
69.5388
148.737
172.973
93.2206
108.996
139.835
133.624
106.165
73.2478
65.2414
96.5659
112.348
119.366
122.065
121.614
119.33
117.205
117.154
118.141
119.855
121.791
122.713
122.677
122.054
121.132
120.457
119.919
119.392
118.658
117.664
116.47
115.144
113.692
112.079
110.271
108.271
106.093
103.757
101.275
98.6692
95.967
93.2018
90.4094
87.6251
84.8785
82.1954
79.5993
77.1065
74.7232
72.4587
70.3196
68.3016
66.3945
64.5936
62.8891
61.2702
59.7318
58.2638
56.8522
55.5015
54.2043
52.9412
51.7259
50.5518
49.4094
48.3063
47.2413
46.2074
45.2067
44.2457
43.3237
42.438
41.5881
40.7766
40.0173
39.2929
38.6097
37.9767
37.3917
36.8527
36.3604
35.9227
35.5371
70.1485
148.09
171.779
93.4327
109.699
139.958
133.605
106.368
73.8491
65.8598
96.5885
112.299
119.323
122.038
121.602
119.333
117.218
117.166
118.149
119.857
121.789
122.71
122.675
122.053
121.132
120.458
119.92
119.392
118.658
117.664
116.47
115.145
113.692
112.079
110.271
108.271
106.094
103.757
101.275
98.6695
95.9673
93.2021
90.4097
87.6254
84.8788
82.1958
79.5996
77.1068
74.7236
72.459
70.32
68.3019
66.3949
64.594
62.8895
61.2706
59.7322
58.2642
56.8526
55.5019
54.2047
52.9417
51.7264
50.5523
49.4098
48.3067
47.2417
46.2079
45.2072
44.2462
43.3241
42.4385
41.5885
40.777
40.0178
39.2934
38.6102
37.9772
37.3922
36.8531
36.3609
35.9231
35.5376
70.691
147.205
170.093
93.453
110.443
140.221
133.63
106.729
74.5981
66.7116
96.6129
112.236
119.263
122
121.585
119.337
117.238
117.184
118.16
119.862
121.786
122.705
122.671
122.052
121.133
120.459
119.921
119.393
118.658
117.664
116.471
115.145
113.693
112.079
110.272
108.272
106.094
103.757
101.276
98.6699
95.9678
93.2025
90.4102
87.6259
84.8793
82.1963
79.6001
77.1073
74.7241
72.4596
70.3206
68.3025
66.3955
64.5946
62.8901
61.2712
59.7328
58.2648
56.8532
55.5025
54.2054
52.9423
51.727
50.5529
49.4105
48.3074
47.2424
46.2085
45.2078
44.2468
43.3248
42.4392
41.5892
40.7777
40.0184
39.2941
38.6109
37.9779
37.3928
36.8538
36.3616
35.9238
35.5383
71.05
145.902
167.783
93.2295
111.211
140.665
133.728
107.351
75.4772
67.827
96.6343
112.157
119.184
121.949
121.563
119.343
117.266
117.209
118.176
119.868
121.782
122.698
122.667
122.051
121.135
120.461
119.922
119.393
118.658
117.664
116.471
115.146
113.693
112.08
110.272
108.272
106.095
103.758
101.276
98.6706
95.9684
93.2032
90.4108
87.6266
84.88
82.197
79.6008
77.1081
74.7248
72.4603
70.3213
68.3033
66.3963
64.5953
62.8909
61.272
59.7336
58.2656
56.8541
55.5034
54.2062
52.9431
51.7279
50.5538
49.4113
48.3083
47.2433
46.2094
45.2087
44.2477
43.3257
42.4401
41.5901
40.7786
40.0194
39.295
38.6118
37.9788
37.3938
36.8548
36.3625
35.9248
35.5393
71.2259
143.903
164.744
92.7628
111.92
141.25
133.921
108.364
76.5113
69.2232
96.6561
112.066
119.086
121.882
121.533
119.353
117.304
117.244
118.198
119.877
121.777
122.689
122.661
122.049
121.137
120.464
119.924
119.393
118.658
117.664
116.472
115.147
113.694
112.081
110.273
108.273
106.096
103.759
101.277
98.6715
95.9693
93.2041
90.4117
87.6275
84.8809
82.1979
79.6018
77.109
74.7258
72.4613
70.3223
68.3043
66.3973
64.5964
62.8919
61.2731
59.7346
58.2667
56.8552
55.5045
54.2073
52.9442
51.729
50.5549
49.4125
48.3094
47.2444
46.2106
45.2099
44.2489
43.3269
42.4412
41.5913
40.7798
40.0205
39.2962
38.613
37.9801
37.395
36.856
36.3638
35.9261
35.5406
71.2313
141.054
161.047
92.0437
112.417
141.909
134.18
109.752
77.8065
70.8871
96.7062
111.967
118.968
121.801
121.497
119.366
117.353
117.288
118.228
119.889
121.771
122.678
122.654
122.047
121.14
120.467
119.926
119.394
118.658
117.665
116.473
115.148
113.695
112.082
110.274
108.274
106.097
103.76
101.278
98.6726
95.9705
93.2053
90.4129
87.6287
84.8821
82.1992
79.6031
77.1103
74.7271
72.4626
70.3236
68.3056
66.3986
64.5977
62.8933
61.2744
59.736
58.2681
56.8565
55.5059
54.2087
52.9457
51.7304
50.5563
49.4139
48.3108
47.2459
46.212
45.2113
44.2504
43.3284
42.4427
41.5928
40.7813
40.022
39.2977
38.6146
37.9816
37.3966
36.8576
36.3654
35.9278
35.5423
70.958
137.557
156.711
91.0288
112.59
142.58
134.538
111.322
79.4769
72.7907
96.8207
111.868
118.833
121.704
121.453
119.382
117.416
117.345
118.266
119.905
121.765
122.665
122.645
122.044
121.144
120.472
119.929
119.395
118.658
117.665
116.474
115.149
113.697
112.083
110.276
108.276
106.098
103.761
101.28
98.6741
95.972
93.2068
90.4145
87.6303
84.8837
82.2007
79.6047
77.1119
74.7287
72.4643
70.3253
68.3073
66.4003
64.5994
62.895
61.2762
59.7377
58.2698
56.8583
55.5076
54.2105
52.9474
51.7322
50.5581
49.4157
48.3127
47.2477
46.2139
45.2132
44.2522
43.3302
42.4446
41.5946
40.7831
40.0239
39.2996
38.6165
37.9836
37.3986
36.8596
36.3674
35.9298
35.5444
70.3321
133.493
151.7
89.5333
112.511
143.09
135.193
113.139
81.4497
74.9203
97.0246
111.78
118.684
121.592
121.402
119.403
117.493
117.415
118.314
119.927
121.758
122.649
122.634
122.041
121.149
120.478
119.933
119.397
118.658
117.666
116.476
115.151
113.699
112.085
110.277
108.278
106.1
103.763
101.282
98.6761
95.974
93.2088
90.4165
87.6323
84.8857
82.2028
79.6067
77.114
74.7308
72.4663
70.3274
68.3094
66.4024
64.6016
62.8972
61.2783
59.7399
58.272
56.8605
55.5098
54.2127
52.9496
51.7344
50.5604
49.418
48.3149
47.2499
46.2161
45.2154
44.2545
43.3325
42.4469
41.5969
40.7854
40.0263
39.302
38.6188
37.9859
37.401
36.862
36.3699
35.9324
35.5469
69.3532
128.914
146.149
87.4342
112.292
143.262
136.104
115.172
83.6701
77.2673
97.3514
111.698
118.525
121.467
121.345
119.43
117.586
117.502
118.374
119.956
121.752
122.632
122.622
122.037
121.155
120.485
119.938
119.399
118.659
117.668
116.478
115.154
113.702
112.087
110.28
108.28
106.103
103.766
101.284
98.6785
95.9765
93.2113
90.419
87.6348
84.8883
82.2053
79.6093
77.1166
74.7334
72.469
70.3301
68.3121
66.4051
64.6043
62.8999
61.2811
59.7427
58.2747
56.8633
55.5126
54.2155
52.9524
51.7372
50.5631
49.4207
48.3177
47.2527
46.2189
45.2182
44.2573
43.3353
42.4497
41.5998
40.7883
40.0292
39.3049
38.6217
37.9889
37.4039
36.865
36.373
35.9355
35.5501
67.9369
123.849
140.101
84.775
111.859
142.914
137.198
117.187
86.1471
79.8226
97.8386
111.621
118.361
121.33
121.282
119.464
117.698
117.606
118.448
119.993
121.747
122.613
122.609
122.033
121.162
120.495
119.945
119.402
118.661
117.67
116.482
115.158
113.705
112.09
110.283
108.283
106.106
103.769
101.288
98.6817
95.9797
93.2145
90.4222
87.638
84.8915
82.2086
79.6126
77.1199
74.7368
72.4723
70.3334
68.3155
66.4085
64.6077
62.9033
61.2845
59.7461
58.2782
56.8667
55.516
54.2189
52.9559
51.7406
50.5666
49.4242
48.3211
47.2562
46.2224
45.2217
44.2608
43.3388
42.4532
41.6033
40.7918
40.0327
39.3085
38.6253
37.9925
37.4076
36.8687
36.3767
35.9393
35.5539
65.8813
118.423
133.665
81.5665
111.075
141.778
138.868
118.95
88.8816
82.5688
98.511
111.567
118.199
121.184
121.216
119.507
117.831
117.731
118.538
120.04
121.744
122.593
122.594
122.03
121.172
120.507
119.954
119.406
118.663
117.673
116.486
115.162
113.709
112.094
110.287
108.287
106.11
103.773
101.292
98.6858
95.9837
93.2186
90.4263
87.6421
84.8956
82.2127
79.6167
77.1241
74.7409
72.4765
70.3376
68.3197
66.4128
64.6119
62.9075
61.2887
59.7504
58.2824
56.871
55.5203
54.2232
52.9601
51.7449
50.5709
49.4285
48.3254
47.2604
46.2266
45.226
44.265
43.3431
42.4575
41.6076
40.7961
40.0371
39.3129
38.6298
37.997
37.4121
36.8733
36.3814
35.944
35.5587
63.0801
112.793
126.923
77.8242
109.792
139.57
141.251
120.377
91.839
85.4857
99.3824
111.551
118.062
121.034
121.15
119.563
117.987
117.878
118.647
120.099
121.745
122.573
122.579
122.027
121.185
120.521
119.965
119.412
118.666
117.677
116.491
115.168
113.715
112.1
110.292
108.292
106.115
103.778
101.297
98.6908
95.9888
93.2236
90.4313
87.6472
84.9007
82.2178
79.6219
77.1292
74.7461
72.4817
70.3429
68.3249
66.418
64.6172
62.9128
61.294
59.7556
58.2877
56.8762
55.5256
54.2284
52.9654
51.7501
50.5761
49.4337
48.3306
47.2656
46.2319
45.2312
44.2703
43.3483
42.4627
41.6128
40.8014
40.0425
39.3183
38.6352
38.0024
37.4176
36.8789
36.387
35.9498
35.5645
59.5608
107.098
119.761
73.5889
107.807
136.6
143.77
121.596
94.9395
88.557
100.478
111.592
117.959
120.887
121.088
119.634
118.168
118.051
118.777
120.17
121.75
122.553
122.564
122.025
121.2
120.54
119.979
119.42
118.671
117.682
116.498
115.176
113.722
112.106
110.298
108.299
106.122
103.785
101.303
98.6972
95.9951
93.2299
90.4376
87.6534
84.907
82.2241
79.6282
77.1356
74.7525
72.4881
70.3493
68.3313
66.4244
64.6236
62.9192
61.3005
59.7621
58.2942
56.8827
55.532
54.2348
52.9718
51.7565
50.5825
49.4401
48.337
47.272
46.2382
45.2376
44.2766
43.3547
42.4691
41.6192
40.8079
40.049
39.3249
38.6417
38.009
37.4242
36.8856
36.3938
35.9566
35.5714
55.5566
101.451
112.419
68.9361
104.682
133.73
145.862
122.873
98.1066
91.7634
101.82
111.727
117.881
120.751
121.036
119.725
118.378
118.252
118.93
120.257
121.762
122.534
122.549
122.025
121.219
120.562
119.997
119.43
118.678
117.689
116.506
115.185
113.731
112.114
110.306
108.307
106.13
103.793
101.311
98.705
96.0028
93.2377
90.4453
87.6611
84.9147
82.2318
79.6359
77.1433
74.7603
72.4959
70.3571
68.3391
66.4322
64.6314
62.9271
61.3083
59.7699
58.302
56.8905
55.5398
54.2426
52.9795
51.7643
50.5903
49.4478
48.3447
47.2797
46.2459
45.2453
44.2844
43.3624
42.4769
41.627
40.8157
40.057
39.3326
38.6494
38.0167
37.4321
36.8935
36.4018
35.9648
35.5796
51.4198
95.9941
105.746
63.9697
100.183
131.43
146.679
124.228
101.307
95.0833
103.368
112.01
117.851
120.639
121.005
119.836
118.618
118.483
119.109
120.362
121.782
122.518
122.536
122.027
121.243
120.588
120.018
119.443
118.686
117.698
116.517
115.197
113.742
112.125
110.316
108.317
106.14
103.803
101.321
98.7145
96.0123
93.2471
90.4547
87.6705
84.924
82.2412
79.6453
77.1527
74.7697
72.5053
70.3665
68.3486
66.4417
64.6409
62.9365
61.3177
59.7794
58.3114
56.8999
55.5492
54.252
52.9889
51.7737
50.5996
49.4571
48.354
47.289
46.2552
45.2545
44.2936
43.3717
42.4861
41.6363
40.825
40.0664
47.4099
90.9677
100.372
58.8036
94.6286
129.7
145.895
125.65
104.544
98.503
105.063
112.483
117.895
120.566
121.001
119.976
118.89
118.747
119.317
120.487
121.813
122.508
122.526
122.032
121.271
120.62
120.044
119.459
118.698
117.71
116.531
115.211
113.756
112.137
110.328
108.329
106.152
103.815
101.332
98.7261
96.0238
93.2585
90.466
87.6818
84.9353
82.2524
79.6566
77.164
74.781
72.5166
70.3778
68.3599
66.453
64.6522
62.9479
61.3291
59.7907
58.3227
56.9112
55.5605
54.2632
53.0001
51.7848
50.6107
49.4683
48.3651
47.3001
46.2663
45.2656
44.3047
43.3827
42.4972
41.6474
40.8362
40.0777
43.8171
86.7209
96.6243
53.6952
88.7358
128.918
144.226
127.11
107.831
102
106.909
113.16
118.028
120.551
121.021
120.156
119.197
119.046
119.557
120.637
121.853
122.504
122.52
122.043
121.306
120.658
120.076
119.48
118.713
117.725
116.548
115.229
113.773
112.153
110.343
108.344
106.167
103.829
101.347
98.7401
96.0376
93.2722
90.4796
87.6953
84.9488
82.2659
79.67
77.1775
74.7945
72.5301
70.3913
68.3734
66.4665
64.6657
62.9614
61.3425
59.8041
58.3362
56.9246
55.5739
54.2766
53.0134
51.7981
50.624
49.4815
48.3783
47.3132
46.2794
45.2788
44.3178
43.3959
42.5104
41.6606
40.8495
40.0909
41.0792
83.7054
95.052
49.4005
83.8377
129.705
142.247
128.525
111.16
105.538
108.919
114.023
118.283
120.613
121.089
120.378
119.543
119.383
119.832
120.814
121.908
122.51
122.52
122.059
121.347
120.703
120.114
119.506
118.732
117.744
116.569
115.25
113.793
112.172
110.362
108.362
106.184
103.846
101.364
98.7568
96.0541
93.2885
90.4958
87.7114
84.9648
82.2819
79.686
77.1935
74.8104
72.546
70.4073
68.3894
66.4825
64.6817
62.9773
61.3585
59.8201
58.3521
56.9404
55.5897
54.2923
53.0291
51.8138
50.6397
49.4971
48.3938
47.3288
46.295
45.2943
44.3334
43.4114
42.5259
41.6762
40.8651
40.1066
39.945
82.4472
96.1574
47.5139
81.2909
131.559
140.656
129.833
114.505
109.08
111.089
115.056
118.687
120.762
121.235
120.65
119.93
119.76
120.142
121.017
121.986
122.53
122.53
122.083
121.396
120.756
120.159
119.538
118.756
117.767
116.594
115.276
113.818
112.195
110.384
108.383
106.206
103.867
101.384
98.7766
96.0737
93.3078
90.5149
87.7304
84.9837
82.3007
79.7048
77.2123
74.8292
72.5648
70.4261
68.4082
66.5012
64.7005
62.9961
61.3772
59.8388
58.3708
56.9591
55.6083
54.3109
53.0476
51.8322
50.6581
49.5155
48.4121
47.347
46.3132
45.3125
44.3516
43.4297
42.5442
41.6945
40.8835
40.125
41.8172
83.7858
100.488
50.6421
83.7836
134.177
139.673
131.101
117.86
112.588
113.403
116.287
119.249
121.023
121.462
120.982
120.361
120.18
120.49
121.247
122.09
122.566
122.551
122.117
121.455
120.818
120.212
119.576
118.787
117.796
116.625
115.307
113.847
112.222
110.41
108.409
106.231
103.892
101.408
98.8002
96.0968
93.3306
90.5374
87.7526
85.0058
82.3227
79.7268
77.2343
74.8512
72.5868
70.4481
68.4301
66.5232
64.7224
63.018
61.3991
59.8607
58.3926
56.9809
55.63
54.3325
53.0692
51.8538
50.6796
49.537
48.4336
47.3684
46.3346
45.3339
44.3729
43.451
42.5656
41.7159
40.905
40.1465
48.2818
89.6203
109.823
61.1333
93.3351
136.458
139.546
132.544
121.239
116.047
115.827
117.72
119.984
121.419
121.785
121.383
120.842
120.644
120.879
121.511
122.222
122.623
122.586
122.163
121.524
120.891
120.274
119.623
118.824
117.832
116.661
115.344
113.882
112.255
110.441
108.44
106.261
103.921
101.436
98.8278
96.1239
93.3573
90.5637
87.7786
85.0317
82.3484
79.7525
77.2599
74.8768
72.6123
70.4737
68.4557
66.5488
64.748
63.0435
61.4246
59.8862
58.4181
57.0063
55.6554
54.3578
53.0943
51.8789
50.7047
49.562
48.4585
47.3933
46.3595
45.3588
44.3978
43.4759
42.5905
41.7409
40.93
40.1716
60.7082
102.05
126.655
79.321
108.013
137.707
140.704
134.347
124.642
119.461
118.356
119.343
120.903
121.967
122.22
121.861
121.376
121.156
121.311
121.811
122.387
122.705
122.64
122.224
121.606
120.974
120.347
119.68
118.87
117.875
116.706
115.388
113.924
112.294
110.479
108.476
106.296
103.955
101.469
98.8601
96.1556
93.3883
90.5942
87.8088
85.0616
82.3782
79.7822
77.2896
74.9065
72.6419
70.5033
68.4853
66.5784
64.7776
63.0732
61.4542
59.9157
58.4476
57.0357
55.6848
54.3871
53.1236
51.9081
50.7339
49.5911
48.4875
47.4223
46.3884
45.3877
44.4267
43.5049
42.6195
41.7699
40.9591
40.2007
79.7148
121.565
151.555
104.768
125.686
140.317
143.276
136.608
128.079
122.841
120.987
121.135
122.009
122.68
122.783
122.427
121.969
121.717
121.785
122.151
122.587
122.816
122.717
122.303
121.702
121.071
120.432
119.747
118.926
117.927
116.758
115.44
113.974
112.341
110.523
108.519
106.338
103.995
101.508
98.8978
96.1923
93.4243
90.6295
87.8437
85.0961
82.4124
79.8164
77.3237
74.9406
72.676
70.5374
68.5195
66.6125
64.8118
63.1073
61.4884
59.9499
58.4817
57.0698
55.7188
54.421
53.1574
51.9419
50.7676
49.6247
48.5211
47.4558
46.4219
45.4212
44.4603
43.5384
42.6531
41.8036
40.9928
40.2344
105.835
148.336
182.176
136.233
144.952
146.076
146.855
139.385
131.562
126.196
123.691
123.081
123.314
123.566
123.483
123.089
122.627
122.331
122.305
122.533
122.828
122.962
122.819
122.402
121.813
121.181
120.53
119.827
118.993
117.99
116.821
115.501
114.032
112.395
110.575
108.569
106.386
104.042
101.553
98.9414
96.2347
93.4657
90.6701
87.8836
85.1357
82.4517
79.8555
77.3628
74.9796
72.715
70.5766
68.5586
66.6517
64.851
63.1466
61.5277
59.9892
58.5211
57.109
55.758
54.4601
53.1964
51.9809
50.8066
49.6636
48.5599
47.4945
46.4607
45.4599
44.499
43.5771
42.6919
41.8424
41.0318
40.2734
137.207
180.5
214.382
170.107
163.639
154.003
150.974
142.681
135.1
129.537
126.466
125.167
124.795
124.63
124.328
123.854
123.356
123
122.873
122.96
123.113
123.146
122.954
122.526
121.944
121.309
120.644
119.921
119.074
118.065
116.895
115.574
114.101
112.46
110.636
108.628
106.443
104.097
101.605
98.9918
96.2835
93.5131
90.7164
87.9292
85.1808
82.4963
79.9
77.4074
75.0241
72.7595
70.6212
68.6034
66.6965
64.896
63.1916
61.5727
60.0343
58.5662
57.1541
55.803
54.5052
53.2414
52.0258
50.8515
49.7085
48.6046
47.5392
46.5053
45.5046
44.5437
43.6218
42.7366
41.8873
41.0768
40.3184
169.713
214.59
245.803
200.966
178.543
162.95
155.545
146.415
138.69
132.866
129.285
127.373
126.439
125.863
125.319
124.727
124.161
123.727
123.49
123.435
123.446
123.374
123.124
122.679
122.097
121.455
120.775
120.032
119.17
118.156
116.983
115.659
114.181
112.536
110.708
108.696
106.509
104.159
101.666
99.0495
96.3392
93.5671
90.769
87.9808
85.2317
82.5468
79.9504
77.4578
75.0745
72.8099
70.6719
68.6542
66.7476
64.9472
63.243
61.6242
60.0859
58.6179
57.2058
55.8547
54.5568
53.293
52.0774
50.9031
49.76
48.6561
47.5906
46.5568
45.556
44.5951
43.6733
42.7882
41.9389
41.1285
40.3702
199.233
246.824
272.077
225.548
190.694
172.184
160.471
150.446
142.308
136.172
132.123
129.669
128.223
127.251
126.449
125.708
125.043
124.513
124.158
123.961
123.831
123.65
123.335
122.864
122.275
121.624
120.927
120.163
119.286
118.263
117.086
115.759
114.276
112.625
110.792
108.776
106.585
104.232
101.735
99.1155
96.4025
93.6281
90.8282
88.0388
85.2889
82.6034
80.0069
77.5144
75.1311
72.8667
70.7291
68.7118
66.8054
65.0053
63.3015
61.6829
60.1447
58.677
57.2649
55.9139
54.616
53.3521
52.1365
50.9624
49.8192
48.7152
47.6497
46.6159
45.6151
44.6542
43.7325
42.8474
41.9982
41.188
222.812
271.631
287.953
242.82
200.919
180.667
165.536
154.584
145.908
139.429
134.946
132.018
130.111
128.767
127.702
126.787
125.999
125.356
124.876
124.537
124.269
123.978
123.592
123.087
122.483
121.817
121.102
120.317
119.423
118.39
117.209
115.877
114.388
112.73
110.891
108.87
106.673
104.315
101.813
99.1903
96.4739
93.6966
90.8944
88.1034
85.3525
82.6664
80.0697
77.5774
75.1944
72.9302
70.7933
68.7765
66.8705
65.071
63.3677
61.7495
60.2116
58.7442
57.3323
55.9815
54.6837
53.4198
52.2043
51.0303
49.887
48.7829
47.7175
46.6837
45.6829
44.722
43.8004
42.9154
42.0663
41.2562
239.249
286.169
293.442
253.013
208.95
187.478
170.363
158.604
149.404
142.586
137.715
134.372
132.061
130.374
129.05
127.949
127.02
126.252
125.641
125.163
124.76
124.358
123.897
123.35
122.724
122.041
121.305
120.498
119.586
118.542
117.353
116.015
114.519
112.852
111.006
108.978
106.775
104.411
101.903
99.2745
96.5537
93.7726
90.9674
88.1745
85.4224
82.7354
80.1388
77.647
75.2642
73.0007
70.8647
68.8487
66.9436
65.1449
63.4423
61.8248
60.2875
58.8207
57.409
56.0585
54.761
53.4972
52.2818
51.108
49.9647
48.8605
47.7951
46.7614
45.7606
44.7998
43.8783
42.9933
42.1443
41.3344
248.634
292.659
291.08
256.873
214.488
192.492
174.602
162.289
152.691
145.573
140.372
136.677
134.019
132.027
130.457
129.168
128.089
127.187
126.445
125.832
125.3
124.791
124.252
123.657
123.003
122.297
121.538
120.709
119.778
118.721
117.524
116.177
114.672
112.995
111.139
109.102
106.891
104.519
102.003
99.3683
96.6419
93.8559
91.0469
88.2516
85.498
82.8101
80.2137
77.7227
75.3405
73.0779
70.9435
68.9288
67.0249
65.2275
63.5262
61.9096
60.3731
58.9073
57.4961
56.146
54.8491
53.5854
52.3702
51.1968
50.0536
48.9493
47.8839
46.8503
45.8496
44.8889
43.9674
43.0825
42.2334
41.4234
251.564
292.681
283.674
255.094
217.465
195.787
178
165.447
155.641
148.306
142.849
138.87
135.925
133.669
131.877
130.407
129.178
128.144
127.273
126.534
125.883
125.271
124.656
124.009
123.322
122.59
121.807
120.954
120.004
118.933
117.724
116.367
114.85
113.162
111.294
109.245
107.023
104.64
102.115
99.4715
96.7376
93.9454
91.1315
88.3333
85.578
82.8892
80.2933
77.8036
75.4225
73.1615
71.0293
69.0167
67.1147
65.3193
63.6197
62.0046
60.4695
59.0051
57.5947
56.2453
54.9493
53.6858
52.471
51.2982
50.1551
49.0507
47.9855
46.9518
45.9508
44.99
44.0687
43.1835
42.3339
41.5239
249.326
287.295
273.819
249.412
217.892
197.39
180.372
167.923
158.125
150.691
145.07
140.88
137.707
135.234
133.25
131.618
130.251
129.093
128.105
127.252
126.494
125.789
125.101
124.404
123.681
122.922
122.114
121.238
120.268
119.181
117.959
116.588
115.057
113.353
111.47
109.407
107.171
104.775
102.237
99.5824
96.8391
94.0388
91.2189
88.4172
85.66
82.9702
80.3755
77.888
75.5087
73.2501
71.1214
69.1119
67.2129
65.4203
63.7236
62.1108
60.5777
59.1153
57.7062
56.3579
55.0632
53.8003
52.5859
51.4135
50.2703
49.1658
48.1004
47.0662
46.0647
45.104
44.1824
43.2968
42.447
41.6371
243.632
278.066
262.39
241.559
215.982
197.36
181.605
169.601
160.03
152.633
146.951
142.628
139.29
136.649
134.512
132.745
131.261
129.996
128.908
127.958
127.111
126.328
125.578
124.834
124.076
123.29
122.459
121.56
120.571
119.467
118.229
116.842
115.294
113.572
111.67
109.588
107.334
104.92
102.367
99.6977
96.9424
94.132
91.3044
88.4987
85.7396
83.0491
80.4566
77.9728
75.5963
73.3417
71.2183
69.2134
67.3189
65.5308
63.8382
62.2289
60.6987
59.2395
57.8324
56.4853
55.192
53.9293
52.7151
51.5428
50.3994
49.2945
48.2291
47.1946
46.193
45.2323
44.3105
43.4245
42.5746
41.7645
235.72
266.077
249.669
232.393
212.221
195.858
181.671
170.403
161.26
154.044
148.406
144.031
140.594
137.839
135.591
133.724
132.15
130.805
129.64
128.619
127.704
126.863
126.065
125.284
124.499
123.69
122.838
121.92
120.912
119.791
118.536
117.13
115.56
113.815
111.889
109.783
107.506
105.071
102.497
99.8107
97.0405
94.2174
91.3806
88.5705
85.8101
83.1196
80.5312
78.0534
75.6815
73.4332
71.3178
69.32
67.4324
65.6507
63.9641
62.3598
60.833
59.3779
57.9724
56.6261
55.3348
54.0731
52.8596
51.6881
50.5451
49.4401
48.3746
47.3395
46.3376
45.3767
44.4543
43.568
42.718
41.9077
226.793
252.335
236.361
222.491
207.118
193.094
180.622
170.302
161.75
154.848
149.355
145.011
141.541
138.727
136.413
134.485
132.855
131.46
130.25
129.185
128.232
127.356
126.531
125.729
124.928
124.106
123.24
122.308
121.284
120.146
118.872
117.445
115.849
114.076
112.121
109.986
107.68
105.217
102.618
99.9099
97.1216
94.2831
91.4353
88.6213
85.8606
83.1714
80.5908
78.1231
75.7588
73.5209
71.418
69.4309
67.5512
65.7774
64.1007
62.5008
60.979
59.5302
58.1286
56.7855
55.497
54.2367
53.0243
51.8527
50.7093
49.6043
48.538
47.502
46.5003
45.5391
44.6161
43.7299
42.8798
42.0692
217.307
237.814
223.451
212.489
201.096
189.292
178.557
169.309
161.469
154.993
149.736
145.499
142.06
139.24
136.907
134.957
133.308
131.897
130.674
129.6
128.638
127.757
126.93
126.129
125.33
124.51
123.641
122.702
121.668
120.515
119.222
117.771
116.146
114.339
112.348
110.176
107.834
105.339
102.709
99.9748
97.1663
94.3107
91.4519
88.6367
85.8794
83.1948
80.627
78.1742
75.82
73.5988
71.5129
69.5426
67.6728
65.9129
64.2513
62.6593
61.1476
59.705
58.3083
56.9687
55.681
54.4222
53.2103
52.0379
50.8944
49.7897
48.7223
47.6857
46.6842
45.7223
44.7988
43.9126
43.0623
42.2513
207.762
224.103
211.682
202.906
194.517
184.69
175.612
167.475
160.419
154.452
149.506
145.443
142.092
139.316
137.007
135.073
133.44
132.048
130.846
129.794
128.857
128.002
127.201
126.426
125.651
124.85
123.996
123.062
122.024
120.86
119.549
118.073
116.417
114.573
112.54
110.325
107.942
105.409
102.745
99.9821
97.1512
94.2765
91.4053
88.5893
85.8368
83.1602
80.6185
78.1873
75.8645
73.6706
71.6098
69.6626
67.8138
66.0746
64.4265
62.8466
61.3431
59.9061
58.5134
57.1773
55.8892
54.6328
53.421
52.2475
51.1042
49.9993
48.9303
47.8932
46.8916
45.9289
45.005
44.1188
43.2681
42.4567
199.076
212.454
200.97
193.815
187.636
179.511
171.935
164.885
158.638
153.228
148.647
144.811
141.6
138.911
136.662
134.778
133.192
131.847
130.693
129.693
128.81
128.01
127.264
126.541
125.814
125.054
124.232
123.32
122.289
121.121
119.795
118.293
116.603
114.719
112.64
110.376
107.948
105.37
102.664
99.8676
97.0084
94.1141
91.2416
88.4435
85.7258
83.0963
80.5986
78.1959
75.9104
73.7546
71.7225
69.8047
67.9848
66.2639
64.6305
63.0637
61.5681
60.1364
58.7482
57.415
56.1264
54.872
53.6597
52.4849
51.3416
50.2359
49.1653
48.1276
47.1256
46.162
45.2376
44.3513
43.5002
42.6881
191.565
201.856
190.983
185.128
180.616
173.933
167.677
161.643
156.19
151.358
147.177
143.609
140.576
138.011
135.854
134.046
132.529
131.252
130.167
129.237
128.426
127.701
127.029
126.377
125.714
125.01
124.234
123.356
122.345
121.178
119.84
118.313
116.59
114.666
112.542
110.23
107.752
105.135
102.4
99.5832
96.7263
93.8579
91.0133
88.2559
85.5894
83.0057
80.5457
78.1997
75.9596
73.8551
71.8634
69.9759
68.1868
66.4861
64.8673
63.3142
61.8269
60.3994
59.0164
57.6849
56.3961
55.1431
53.93
52.7536
51.6099
50.503
49.4307
48.3921
47.3893
46.4247
45.4997
44.6133
43.7617
42.9489
183.953
191.668
181.594
176.809
173.575
168.101
162.978
157.866
153.165
148.906
145.14
141.867
139.044
136.63
134.589
132.876
131.442
130.242
129.233
128.379
127.644
126.996
126.4
125.822
125.226
124.581
123.855
123.018
122.037
120.885
119.545
118.005
116.259
114.308
112.158
109.819
107.315
104.681
101.945
99.1401
96.3159
93.4978
90.7089
88.0147
85.4046
82.8896
80.4966
78.2164
76.0434
73.9867
72.0385
70.1855
68.4244
66.7461
65.1424
63.6023
62.1236
60.7
59.3217
57.9915
56.7023
55.4496
54.2356
53.0574
51.9127
50.8041
49.7301
48.6902
47.6864
46.7207
45.7951
44.9084
44.0562
43.2425
175.579
181.772
172.71
168.875
166.613
162.137
157.972
153.679
149.671
145.963
142.618
139.655
137.065
134.826
132.92
131.316
129.974
128.855
127.921
127.136
126.469
125.885
125.351
124.832
124.292
123.696
123.013
122.212
121.264
120.138
118.812
117.278
115.532
113.578
111.428
109.098
106.61
103.999
101.299
98.5491
95.7878
93.0441
90.3459
87.7329
85.2101
82.7845
80.4694
78.2603
76.1541
74.152
72.2485
70.4341
68.7024
67.0468
65.4596
63.9323
62.4621
61.0426
59.6682
58.3389
57.0493
55.7961
54.5808
53.4004
52.2541
51.1435
50.0674
49.026
48.0207
47.0538
46.1274
45.2405
44.3877
43.5727
167.955
172.269
164.709
161.381
159.824
156.152
152.783
149.207
145.826
142.641
139.716
137.073
134.735
132.693
130.94
129.457
128.212
127.172
126.303
125.575
124.954
124.412