/*--------------------------------*- C++ -*----------------------------------*\
| =========                 |                                                 |
| \\      /  F ield         | OpenFOAM: The Open Source CFD Toolbox           |
|  \\    /   O peration     | Version:  2412                                  |
|   \\  /    A nd           | Website:  www.openfoam.com                      |
|    \\/     M anipulation  |                                                 |
\*---------------------------------------------------------------------------*/
FoamFile
{
    version     2.0;
    format      ascii;
    arch        "LSB;label=32;scalar=64";
    class       volVectorField;
    location    "60";
    object      U;
}
// * * * * * * * * * * * * * * * * * * * * * * * * * * * * * * * * * * * * * //

dimensions      [0 1 -1 0 0 0 0];

internalField   nonuniform List<vector> 
7418
(
(-0.137071 -0.546812 0)
(-0.533904 -1.09774 -2.47586e-20)
(-0.139067 -0.164021 -5.44299e-20)
(0.0974142 0.0821374 -6.72687e-20)
(-0.393723 -0.197816 6.07996e-20)
(-0.295861 -0.0901335 4.55384e-20)
(0.539716 0.0681957 1.47323e-20)
(1.16451 0.0134427 -1.61779e-24)
(1.21373 -0.0575305 0)
(0.975245 -0.0507087 1.9609e-20)
(0.846081 -0.0361797 -1.21753e-24)
(0.776224 -0.027482 9.54469e-21)
(0.74025 -0.0225095 8.97276e-21)
(0.735732 -0.0207941 -8.29596e-21)
(0.753136 -0.0222209 7.66314e-21)
(0.769173 -0.0253578 0)
(0.772567 -0.0277263 -2.71281e-27)
(0.767548 -0.0290127 2.58807e-20)
(0.753899 -0.0289998 0)
(0.737988 -0.0278894 2.3219e-20)
(0.727556 -0.0268255 0)
(0.722642 -0.0262698 0)
(0.721958 -0.0262339 -3.74568e-20)
(0.722552 -0.026592 -4.22319e-27)
(0.721774 -0.0269048 4.93222e-25)
(0.71975 -0.0270597 -1.50788e-20)
(0.717311 -0.0270719 0)
(0.715506 -0.0270799 -3.95058e-25)
(0.71448 -0.027166 2.41224e-20)
(0.713859 -0.0273215 2.23504e-20)
(0.713272 -0.0275015 3.13644e-25)
(0.712653 -0.0276762 -1.91576e-20)
(0.712121 -0.0278535 0)
(0.711756 -0.0280484 -2.4712e-25)
(0.711568 -0.0282662 -6.03679e-20)
(0.711507 -0.0285063 -5.56489e-20)
(0.711562 -0.0287619 0)
(0.711747 -0.029037 0)
(0.712061 -0.0293296 0)
(0.712503 -0.0296449 0)
(0.713077 -0.0299789 3.67091e-20)
(0.713786 -0.030335 -1.26878e-25)
(0.714622 -0.0307127 -3.10946e-20)
(0.715581 -0.0311122 0)
(0.716659 -0.0315334 -5.2877e-20)
(0.717844 -0.0319779 0)
(0.719151 -0.0324441 0)
(0.720557 -0.0329343 0)
(0.722055 -0.0334466 -3.89365e-20)
(0.723628 -0.0339805 7.71634e-26)
(0.725313 -0.0345379 6.75674e-20)
(0.727081 -0.0351196 6.31116e-20)
(0.728934 -0.0357235 -5.90526e-20)
(0.730872 -0.036353 -1.34145e-27)
(0.73288 -0.0370048 -9.91444e-26)
(0.734976 -0.0376817 9.32005e-26)
(0.737155 -0.0383837 -8.77327e-26)
(0.739423 -0.0391109 4.18376e-26)
(0.741732 -0.0398611 -8.18099e-20)
(0.744116 -0.0406358 -1.54576e-19)
(0.746562 -0.0414352 -1.11219e-27)
(0.749105 -0.0422625 -1.38471e-19)
(0.751677 -0.0431145 6.5629e-20)
(0.75431 -0.0439913 -1.24562e-19)
(0.757009 -0.0448941 -5.15005e-27)
(0.759759 -0.0458234 5.6277e-20)
(0.762563 -0.0467804 1.07157e-19)
(0.765396 -0.0477641 0)
(0.768242 -0.0487731 0)
(0.771108 -0.0498089 -9.31659e-20)
(0.773934 -0.0508694 8.91402e-20)
(0.776599 -0.0519462 -8.53998e-20)
(0.778993 -0.0530323 -7.20419e-28)
(0.781243 -0.0541374 -5.06277e-26)
(0.78424 -0.0553234 -5.52293e-26)
(0.787273 -0.0565456 3.51404e-26)
(0.790327 -0.0578041 0)
(0.793411 -0.0591004 0)
(0.79653 -0.060437 3.13866e-26)
(0.799835 -0.0618296 -3.08535e-26)
(0.803424 -0.0632874 -1.25214e-19)
(-0.105005 1.07794 9.05341e-21)
(0.163111 1.31235 0)
(-0.397633 -1.43759 0)
(-1.52717 -3.10476 4.10609e-20)
(-0.522313 -0.657651 -5.007e-23)
(0.220552 0.182907 1.10553e-19)
(-1.12535 -0.560948 -9.91292e-20)
(-0.732551 -0.23688 2.05282e-23)
(1.80212 0.210704 -2.37391e-20)
(3.55179 0.0345428 2.60215e-24)
(3.64238 -0.17079 0)
(2.97552 -0.150507 -1.56962e-20)
(2.61038 -0.109456 -3.74664e-24)
(2.41195 -0.0843053 1.85941e-24)
(2.31153 -0.0698953 -1.75722e-24)
(2.301 -0.0651469 0)
(2.35081 -0.0696391 1.49071e-24)
(2.3951 -0.0791119 -1.40057e-24)
(2.40299 -0.086225 -3.45777e-27)
(2.38632 -0.0900698 -4.12161e-20)
(2.34547 -0.0900271 0)
(2.29906 -0.0867212 -1.8487e-20)
(2.2688 -0.0835641 1.72791e-20)
(2.25463 -0.081932 1.60632e-20)
(2.25257 -0.0818528 1.37527e-26)
(2.254 -0.0829547 -5.53303e-20)
(2.25143 -0.0839136 4.14886e-27)
(2.24531 -0.0843982 2.39391e-20)
(2.23812 -0.0844541 -6.75482e-25)
(2.23282 -0.0844982 1.25811e-24)
(2.22984 -0.0847792 -3.8184e-20)
(2.22803 -0.085273 -3.53281e-20)
(2.22635 -0.0858385 3.2665e-20)
(2.22459 -0.0863932 3.01735e-20)
(2.22311 -0.0869534 4.28919e-25)
(2.22218 -0.08757 0)
(2.22176 -0.0882595 4.72216e-20)
(2.22173 -0.089014 4.3426e-20)
(2.22206 -0.0898209 0)
(2.22279 -0.0906841 7.33084e-20)
(2.22391 -0.0916066 6.7322e-20)
(2.22544 -0.0925947 -6.18378e-20)
(2.22739 -0.0936466 -5.68391e-20)
(2.22972 -0.0947648 0)
(2.23246 -0.0959489 4.81987e-20)
(2.23559 -0.097203 1.72388e-25)
(2.23907 -0.098525 2.41786e-26)
(2.24291 -0.0999182 0)
(2.24713 -0.101383 0)
(2.25166 -0.10292 0)
(2.25652 -0.104528 -1.15636e-25)
(2.26164 -0.106207 5.73221e-20)
(2.26709 -0.107958 -1.07267e-19)
(2.27282 -0.109785 3.83701e-25)
(2.27882 -0.111685 -1.82144e-25)
(2.2851 -0.113661 0)
(2.29163 -0.115713 0)
(2.29842 -0.117841 0)
(2.30546 -0.120049 0)
(2.3128 -0.122335 0)
(2.32029 -0.124696 -1.32384e-19)
(2.32802 -0.127134 2.50388e-19)
(2.33592 -0.12965 1.18546e-19)
(2.3441 -0.132251 1.12349e-19)
(2.35241 -0.13493 -1.06552e-19)
(2.36092 -0.137691 2.02335e-19)
(2.3696 -0.14053 1.9234e-19)
(2.37842 -0.143452 -9.15051e-20)
(2.38739 -0.146459 0)
(2.39646 -0.149551 0)
(2.40558 -0.152723 -7.49324e-26)
(2.4147 -0.155977 7.30954e-26)
(2.42368 -0.159305 -1.45259e-19)
(2.43216 -0.162687 0)
(2.43974 -0.166094 1.33723e-19)
(2.44685 -0.169559 1.28624e-19)
(2.45635 -0.173282 1.23913e-19)
(2.46591 -0.177115 -1.19605e-19)
(2.47554 -0.181061 1.10346e-25)
(2.48524 -0.185124 -5.37866e-26)
(2.49503 -0.189314 0)
(2.50542 -0.193678 0)
(2.51665 -0.198245 0)
(-0.305279 3.15272 -1.43098e-20)
(0.426314 3.59062 1.88598e-25)
(-0.67938 -2.12905 0)
(-2.45754 -4.99153 4.81128e-23)
(-1.04379 -1.34837 -9.97002e-20)
(0.256245 0.217878 5.8983e-23)
(-1.81547 -0.896987 -5.56784e-23)
(-0.982172 -0.35095 0)
(3.35012 0.361998 6.04765e-24)
(6.11809 0.0468302 2.76331e-21)
(6.18598 -0.285919 1.5815e-20)
(5.13209 -0.25275 -3.96266e-24)
(4.54824 -0.187181 -4.35221e-24)
(4.22972 -0.146086 4.13051e-24)
(4.07152 -0.122511 -1.9431e-24)
(4.05845 -0.115115 1.83338e-24)
(4.13904 -0.123072 -1.37058e-20)
(4.2081 -0.139226 0)
(4.21786 -0.151296 -1.2168e-20)
(4.18711 -0.157794 2.3139e-20)
(4.1181 -0.157725 2.66763e-24)
(4.04163 -0.152172 0)
(3.99203 -0.146883 -1.94279e-20)
(3.96901 -0.14418 -1.80732e-20)
(3.96557 -0.144097 1.33268e-26)
(3.96754 -0.146015 6.22813e-20)
(3.96288 -0.147679 3.53686e-24)
(3.95253 -0.148538 2.69589e-20)
(3.94062 -0.148669 0)
(3.93197 -0.148783 4.64666e-20)
(3.92714 -0.149302 0)
(3.92424 -0.150186 2.35089e-26)
(3.92159 -0.151194 -3.68274e-20)
(3.91887 -0.152188 -3.40242e-20)
(3.91665 -0.15319 6.27899e-20)
(3.91539 -0.154293 -8.7318e-25)
(3.91501 -0.155525 -5.32681e-20)
(3.91531 -0.156868 -7.57358e-25)
(3.91623 -0.158307 6.77689e-25)
(3.91785 -0.159841 -8.27241e-20)
(3.92017 -0.161484 -1.51952e-19)
(3.92322 -0.163238 6.97924e-20)
(3.92702 -0.165111 2.16693e-26)
(3.93151 -0.167098 -4.43784e-25)
(3.93672 -0.169202 4.21798e-25)
(3.94263 -0.171432 -1.00448e-19)
(3.94921 -0.173783 1.85791e-19)
(3.95643 -0.176261 0)
(3.96433 -0.178866 0)
(3.97279 -0.181599 0)
(3.98191 -0.18446 6.92961e-20)
(3.99151 -0.18745 4.94142e-25)
(4.00169 -0.190569 2.4227e-19)
(4.0124 -0.193821 1.13537e-19)
(4.02361 -0.197207 1.06574e-19)
(4.03532 -0.200727 -1.93316e-25)
(4.04752 -0.204383 -1.77873e-25)
(4.06015 -0.208176 3.38968e-25)
(4.07324 -0.212109 -8.377e-20)
(4.08684 -0.216182 1.49253e-25)
(4.10072 -0.220388 2.99042e-19)
(4.11506 -0.224734 -1.41402e-19)
(4.12967 -0.229217 1.33895e-19)
(4.14474 -0.233849 1.26897e-19)
(4.16003 -0.238621 1.20349e-19)
(4.17568 -0.243537 -1.14266e-19)
(4.19157 -0.248592 -1.08622e-19)
(4.20769 -0.253791 -1.03353e-19)
(4.22406 -0.259142 1.96841e-19)
(4.24059 -0.264641 9.04691e-26)
(4.25715 -0.270282 8.46333e-26)
(4.27365 -0.276064 -1.71384e-19)
(4.28986 -0.281974 0)
(4.30517 -0.287978 0)
(4.31877 -0.294022 -1.51033e-19)
(4.33151 -0.300165 -1.45273e-19)
(4.34853 -0.306773 -6.62337e-26)
(4.36561 -0.313568 1.35084e-19)
(4.38275 -0.320562 6.27375e-26)
(4.39996 -0.327759 0)
(4.41735 -0.335178 0)
(4.43573 -0.342905 0)
(4.45558 -0.350987 -2.3308e-19)
(-0.465287 5.18425 -1.9185e-23)
(0.608881 5.55037 -8.22387e-25)
(-0.973382 -2.53284 2.79819e-23)
(-3.26614 -6.6326 1.00928e-19)
(-1.67998 -2.22904 1.08066e-19)
(0.163604 0.157371 0)
(-2.42948 -1.18946 -1.23768e-19)
(-0.9635 -0.421607 3.14795e-23)
(5.20859 0.516887 2.84572e-20)
(8.82216 0.0489054 -3.02071e-21)
(8.80039 -0.399007 -1.29757e-24)
(7.42613 -0.35546 -4.82553e-24)
(6.65374 -0.268524 1.9511e-20)
(6.23098 -0.212598 -1.89513e-20)
(6.02581 -0.180471 0)
(6.01451 -0.17094 0)
(6.12257 -0.182727 1.52426e-20)
(6.21109 -0.205804 7.00705e-24)
(6.21946 -0.222974 -6.62881e-24)
(6.17235 -0.232198 6.30005e-24)
(6.07533 -0.232145 -5.98625e-24)
(5.97067 -0.22437 5.65223e-24)
(5.90328 -0.216974 -2.17091e-20)
(5.87237 -0.213243 -4.92983e-24)
(5.86772 -0.21321 3.74909e-20)
(5.86989 -0.216016 -3.48478e-20)
(5.86296 -0.218449 1.97444e-24)
(5.84845 -0.219735 -3.01945e-20)
(5.83215 -0.219987 0)
(5.82048 -0.220216 -5.2072e-20)
(5.81412 -0.221028 -4.82408e-20)
(5.81044 -0.222364 8.93077e-20)
(5.80712 -0.223882 0)
(5.80379 -0.225381 3.81696e-20)
(5.80127 -0.226898 1.06577e-24)
(5.80013 -0.228565 -9.79998e-25)
(5.80029 -0.230419 9.34627e-25)
(5.80145 -0.232441 -8.28504e-25)
(5.80355 -0.234602 7.8231e-25)
(5.80671 -0.23691 6.98655e-25)
(5.81093 -0.239376 8.5331e-20)
(5.81628 -0.242014 -5.89183e-25)
(5.82273 -0.244825 7.20716e-20)
(5.83026 -0.247809 4.98573e-25)
(5.83889 -0.250971 6.11325e-20)
(5.84859 -0.254318 1.12863e-19)
(5.85936 -0.25785 -2.08765e-19)
(5.87111 -0.261574 3.64024e-25)
(5.8839 -0.265488 -3.47533e-25)
(5.89758 -0.269596 0)
(5.91226 -0.273897 -7.78734e-20)
(5.92773 -0.278393 -2.81079e-25)
(5.9441 -0.283085 -1.3613e-19)
(5.96128 -0.287977 -1.27592e-19)
(5.97927 -0.293072 -1.19765e-19)
(5.99801 -0.29837 0)
(6.01748 -0.303872 1.05951e-19)
(6.03762 -0.309582 1.9259e-25)
(6.05843 -0.315499 9.41304e-20)
(6.07999 -0.321629 0)
(6.10196 -0.327957 4.23766e-25)
(6.12461 -0.334494 -1.53262e-25)
(6.14765 -0.341238 2.61405e-25)
(6.17131 -0.348203 -1.42564e-19)
(6.19527 -0.355377 0)
(6.21968 -0.362762 0)
(6.24444 -0.370356 -1.22015e-19)
(6.26947 -0.378162 2.32182e-19)
(6.29479 -0.386191 -2.2109e-19)
(6.32025 -0.394439 0)
(6.34569 -0.402894 0)
(6.37098 -0.411555 1.92467e-19)
(6.39572 -0.420404 -1.84237e-19)
(6.41899 -0.429383 1.7659e-19)
(6.43959 -0.438415 2.84946e-27)
(6.4588 -0.447592 1.63117e-19)
(6.48444 -0.457464 0)
(6.51011 -0.467611 -1.43628e-25)
(6.53579 -0.478048 2.79823e-25)
(6.56146 -0.488781 -1.42068e-19)
(6.58732 -0.49984 2.75805e-19)
(6.61456 -0.51135 2.68328e-19)
(6.6439 -0.523383 -6.86136e-25)
(-0.575048 7.02957 0)
(0.668555 7.00881 -3.87307e-20)
(-1.26689 -2.61398 4.48122e-20)
(-3.9109 -7.93197 3.76144e-22)
(-2.3846 -3.23951 0)
(-0.0847665 -0.0386921 1.54782e-19)
(-2.92906 -1.42592 2.75474e-19)
(-0.58996 -0.427613 -3.99349e-23)
(7.38033 0.670395 -2.97702e-20)
(11.6054 0.0399797 3.21231e-21)
(11.4393 -0.506826 -1.86415e-20)
(9.83352 -0.457185 5.20169e-24)
(8.91453 -0.352754 -4.23706e-20)
(8.41068 -0.283588 6.61905e-24)
(8.17289 -0.243761 1.95402e-20)
(8.16746 -0.232631 0)
(8.29747 -0.248508 4.07723e-24)
(8.39846 -0.278632 1.09152e-26)
(8.40173 -0.30098 -3.6223e-24)
(8.3366 -0.313001 2.83703e-20)
(8.21331 -0.313076 0)
(8.08413 -0.303198 0)
(8.00169 -0.293788 4.79025e-20)
(7.96445 -0.289105 2.71219e-24)
(7.9589 -0.289185 -2.5396e-24)
(7.96095 -0.292951 3.85295e-20)
(7.95175 -0.296218 3.58827e-20)
(7.93348 -0.298001 0)
(7.91348 -0.298435 -3.10843e-20)
(7.89947 -0.298839 1.76969e-24)
(7.89213 -0.300006 1.06947e-19)
(7.88816 -0.301867 -4.95159e-20)
(7.8847 -0.303969 0)
(7.88138 -0.306054 -4.23536e-20)
(7.87922 -0.308168 -7.82034e-20)
(7.87892 -0.310484 0)
(7.88036 -0.313055 9.77774e-25)
(7.88319 -0.315856 -9.44355e-25)
(7.88734 -0.318847 0)
(7.89296 -0.32204 0)
(7.9001 -0.32545 7.12697e-25)
(7.90882 -0.3291 -2.05643e-26)
(7.91909 -0.332986 -8.0088e-20)
(7.93089 -0.337113 -5.5405e-25)
(7.94423 -0.341485 5.90114e-25)
(7.95911 -0.346112 0)
(7.97552 -0.350997 1.15997e-19)
(7.99334 -0.356148 1.07492e-19)
(8.01264 -0.361562 0)
(8.03322 -0.367246 -6.99206e-25)
(8.05522 -0.373198 6.68898e-25)
(8.07837 -0.379421 8.08101e-20)
(8.10279 -0.385917 -1.51209e-19)
(8.12837 -0.392689 0)
(8.15508 -0.399743 0)
(8.18283 -0.407078 -4.71594e-25)
(8.21158 -0.414696 -1.17617e-19)
(8.24126 -0.422598 -1.10791e-19)
(8.27184 -0.430789 -3.94215e-25)
(8.3034 -0.43927 3.80488e-25)
(8.33548 -0.448024 8.76959e-25)
(8.36843 -0.457064 1.76212e-19)
(8.40188 -0.466387 5.02494e-25)
(8.43607 -0.476009 -1.58063e-19)
(8.47059 -0.485916 0)
(8.50562 -0.496111 1.42262e-19)
(8.541 -0.506585 1.35201e-19)
(8.57665 -0.517346 -1.28612e-19)
(8.61255 -0.528409 2.4489e-19)
(8.64848 -0.539761 -2.25049e-25)
(8.68427 -0.551391 0)
(8.7197 -0.563297 2.01249e-25)
(8.7542 -0.575449 2.03927e-19)
(8.78649 -0.587767 -1.95434e-19)
(8.81495 -0.600146 -1.87663e-19)
(8.84132 -0.612714 1.73632e-25)
(8.87657 -0.62624 1.73836e-19)
(8.91169 -0.640129 0)
(8.94667 -0.654403 0)
(8.98148 -0.66907 1.57101e-19)
(9.01644 -0.684175 -3.04948e-19)
(9.05304 -0.699877 -5.9328e-19)
(9.09236 -0.71628 2.89172e-19)
(-0.631809 8.64169 0)
(0.574871 7.77924 4.00791e-20)
(-1.56781 -2.43758 -4.37934e-20)
(-4.38771 -8.83942 -1.21334e-19)
(-3.07524 -4.28241 -1.21161e-19)
(-0.503346 -0.382192 -1.70958e-19)
(-3.27706 -1.59604 -3.06952e-19)
(0.228437 -0.352423 -1.53184e-22)
(9.83554 0.814649 2.25922e-23)
(14.3923 0.0209656 -3.3287e-21)
(14.054 -0.607373 5.13783e-24)
(12.3179 -0.556214 2.16969e-20)
(11.3034 -0.438687 2.24028e-20)
(10.7476 -0.358331 2.19834e-20)
(10.4937 -0.311879 -2.08684e-20)
(10.4969 -0.299661 4.77754e-24)
(10.6411 -0.319733 0)
(10.7464 -0.35687 -4.12873e-24)
(10.7409 -0.384388 3.88988e-24)
(10.6574 -0.39928 -3.05002e-20)
(10.5116 -0.399681 0)
(10.3635 -0.387929 0)
(10.27 -0.376678 -5.17084e-20)
(10.2285 -0.371157 0)
(10.2224 -0.371417 0)
(10.2241 -0.376205 1.36335e-25)
(10.2129 -0.380375 7.43812e-26)
(10.1917 -0.382731 0)
(10.1691 -0.383423 6.74263e-20)
(10.1537 -0.384076 3.84136e-24)
(10.1462 -0.385672 -1.16131e-19)
(10.1426 -0.388131 0)
(10.1397 -0.390898 0)
(10.1372 -0.393651 4.60429e-20)
(10.1363 -0.396449 8.50348e-20)
(10.1378 -0.399506 0)
(10.1414 -0.40289 7.22293e-20)
(10.1469 -0.406572 6.64611e-20)
(10.1542 -0.410503 1.89099e-24)
(10.1634 -0.414696 0)
(10.1746 -0.419177 0)
(10.1879 -0.423965 0)
(10.2033 -0.429066 8.71278e-20)
(10.2208 -0.434479 1.24335e-24)
(10.2403 -0.440217 -7.38876e-20)
(10.2619 -0.446287 -1.05698e-24)
(10.2855 -0.452697 0)
(10.3111 -0.459454 -2.33649e-19)
(10.3386 -0.466558 1.08408e-19)
(10.3678 -0.474015 7.79818e-25)
(10.399 -0.481825 9.39323e-20)
(10.4317 -0.48999 -8.77014e-20)
(10.466 -0.498514 3.28068e-19)
(10.5019 -0.507399 1.53656e-19)
(10.5392 -0.51665 -1.44142e-19)
(10.5779 -0.526269 0)
(10.6179 -0.536257 0)
(10.659 -0.546614 -5.14698e-26)
(10.7012 -0.557346 -4.35992e-25)
(10.7446 -0.568452 4.0232e-25)
(10.7885 -0.57991 -2.01367e-19)
(10.8335 -0.591736 -1.90286e-19)
(10.879 -0.603927 -1.80045e-19)
(10.9253 -0.616499 3.41008e-19)
(10.9718 -0.629434 -1.61582e-19)
(11.0188 -0.642735 -1.53298e-19)
(11.0661 -0.656389 0)
(11.1136 -0.670406 0)
(11.1611 -0.684802 -5.26987e-19)
(11.2085 -0.699562 0)
(11.2554 -0.714671 2.39603e-19)
(11.3017 -0.730123 2.28952e-19)
(11.3465 -0.74588 -2.1904e-19)
(11.3883 -0.761838 2.09843e-19)
(11.4249 -0.77786 2.0144e-19)
(11.4586 -0.794115 -3.66452e-25)
(11.5036 -0.811604 -3.72982e-19)
(11.5483 -0.829543 0)
(11.5926 -0.847965 0)
(11.6365 -0.866875 -1.68384e-19)
(11.6804 -0.886339 -6.23534e-25)
(11.726 -0.906545 3.17775e-19)
(11.7749 -0.927631 -5.90992e-25)
(-0.645677 10.0205 1.89567e-20)
(0.346575 7.83792 3.93838e-20)
(-1.89745 -2.1465 4.05836e-20)
(-4.71297 -9.40243 -1.75552e-22)
(-3.66136 -5.21905 1.23634e-19)
(-1.07178 -0.857732 0)
(-3.43242 -1.69727 1.72377e-19)
(1.56789 -0.189121 1.00255e-19)
(12.5068 0.939352 2.97252e-20)
(17.0995 -0.00630072 -4.07715e-24)
(16.595 -0.696619 4.03295e-24)
(14.8253 -0.650426 -4.39635e-20)
(13.7697 -0.524415 -2.28717e-20)
(13.1937 -0.435302 0)
(12.9396 -0.383465 -1.075e-20)
(12.9523 -0.370614 -2.0025e-20)
(13.1015 -0.394807 0)
(13.2027 -0.438711 1.74878e-20)
(13.1855 -0.471272 0)
(13.085 -0.489099 0)
(12.9225 -0.490092 0)
(12.7623 -0.476804 0)
(12.6625 -0.463963 6.97012e-24)
(12.6191 -0.457753 -6.17714e-24)
(12.613 -0.458255 -5.71176e-24)
(12.6141 -0.464106 -4.37207e-20)
(12.6012 -0.469232 1.5626e-25)
(12.5781 -0.472235 4.6263e-24)
(12.5542 -0.473267 -3.5413e-20)
(12.5386 -0.474244 -6.58178e-20)
(12.5317 -0.476335 6.10524e-20)
(12.5292 -0.479456 5.65754e-20)
(12.5277 -0.482955 0)
(12.5268 -0.486445 0)
(12.5279 -0.49 -8.94915e-20)
(12.5319 -0.493873 2.54612e-24)
(12.5385 -0.498149 -7.60166e-20)
(12.5475 -0.502793 2.33681e-24)
(12.5587 -0.507749 0)
(12.5724 -0.513032 -1.77671e-24)
(12.5886 -0.518677 1.68099e-24)
(12.6075 -0.524702 9.96276e-20)
(12.629 -0.53112 0)
(12.6531 -0.537928 0)
(12.6798 -0.545142 0)
(12.7091 -0.552774 0)
(12.7409 -0.560828 1.32174e-19)
(12.7753 -0.569317 1.22351e-19)
(12.812 -0.57824 -1.13444e-19)
(12.8509 -0.587605 0)
(12.8922 -0.597409 -9.81149e-20)
(12.9354 -0.607656 6.8999e-25)
(12.9806 -0.618349 -3.41978e-19)
(13.0276 -0.629492 -1.59998e-19)
(13.0764 -0.641089 -1.44849e-24)
(13.1267 -0.65314 5.42939e-25)
(13.1786 -0.665647 -1.3216e-19)
(13.2317 -0.678611 -1.28435e-24)
(13.286 -0.692033 4.51389e-25)
(13.3416 -0.705911 0)
(13.3978 -0.720221 2.07986e-19)
(13.4549 -0.734979 0)
(13.5125 -0.750179 -7.00126e-25)
(13.5709 -0.765841 -1.75496e-19)
(13.6293 -0.781944 -1.96244e-24)
(13.6881 -0.798484 6.07385e-25)
(13.7469 -0.815448 -1.49396e-19)
(13.8056 -0.832848 -1.41901e-19)
(13.8642 -0.850699 2.698e-19)
(13.9222 -0.868984 0)
(13.9796 -0.887686 -2.44902e-19)
(14.0358 -0.906794 -2.33826e-19)
(14.09 -0.926263 2.23538e-19)
(14.1403 -0.945968 -2.14014e-19)
(14.1841 -0.965747 -2.0534e-19)
(14.2241 -0.985807 -3.79748e-25)
(14.2777 -1.00736 3.79842e-19)
(14.3307 -1.02944 -1.8312e-19)
(14.3829 -1.0521 -3.39852e-25)
(14.4344 -1.07534 1.71229e-19)
(14.4857 -1.09925 -3.32152e-19)
(14.5388 -1.12403 -3.22905e-19)
(14.5954 -1.14987 3.01361e-25)
(-0.627937 11.0709 -1.91848e-20)
(0.0283684 7.52237 -3.64591e-20)
(-2.27385 -1.86583 -1.06849e-19)
(-4.88781 -9.59743 -2.78882e-22)
(-4.10054 -6.0008 -4.8451e-23)
(-1.73275 -1.43139 -2.99928e-23)
(-3.35091 -1.73226 -1.88993e-19)
(3.47166 0.0646139 -1.89644e-19)
(15.2956 1.03183 -5.60524e-20)
(19.6488 -0.0390956 7.98309e-24)
(19.0115 -0.772773 -1.30224e-23)
(17.2848 -0.737206 2.14607e-20)
(16.2377 -0.607261 2.24778e-20)
(15.6702 -0.512051 0)
(15.429 -0.456182 2.13391e-20)
(15.4497 -0.443085 1.99163e-20)
(15.595 -0.471139 -1.8472e-20)
(15.6849 -0.521317 1.9314e-23)
(15.6541 -0.558631 -8.0881e-24)
(15.5393 -0.579399 0)
(15.3665 -0.581265 -7.44576e-24)
(15.2014 -0.566848 -2.88375e-20)
(15.0998 -0.552733 2.71253e-20)
(15.0566 -0.545997 4.39111e-26)
(15.0504 -0.546789 1.15364e-23)
(15.0506 -0.553697 -3.14747e-26)
(15.0363 -0.559791 -4.76925e-24)
(15.0121 -0.563487 3.83277e-20)
(14.988 -0.56492 0)
(14.973 -0.566273 1.3273e-19)
(14.9671 -0.568896 6.15794e-20)
(14.9659 -0.572706 -5.7072e-20)
(14.9659 -0.576962 0)
(14.9669 -0.581219 0)
(14.9703 -0.585556 0)
(14.977 -0.590271 0)
(14.9868 -0.59546 -2.94774e-25)
(14.9993 -0.60109 -7.04374e-20)
(15.0145 -0.607092 1.94787e-24)
(15.0325 -0.613486 -1.18811e-19)
(15.0536 -0.620308 1.09019e-19)
(15.0779 -0.627591 -1.00035e-19)
(15.1052 -0.635337 -9.18316e-20)
(15.1356 -0.643553 0)
(15.1691 -0.65225 7.76099e-20)
(15.2056 -0.661447 1.42981e-19)
(15.2451 -0.671147 -1.3192e-19)
(15.2875 -0.681364 -1.88835e-24)
(15.3326 -0.692096 1.12885e-19)
(15.3803 -0.703352 0)
(15.4306 -0.71513 -9.73023e-20)
(15.483 -0.727432 9.05949e-20)
(15.5378 -0.740258 -2.64512e-24)
(15.5945 -0.753614 1.21861e-24)
(15.653 -0.767504 1.47577e-19)
(15.7133 -0.781928 0)
(15.775 -0.796884 -2.19316e-24)
(15.8381 -0.812372 1.21606e-19)
(15.9023 -0.828395 0)
(15.9677 -0.844944 -1.07454e-19)
(16.0336 -0.861997 -2.02312e-19)
(16.1003 -0.879565 -1.90591e-19)
(16.1673 -0.897645 0)
(16.2349 -0.916254 0)
(16.3023 -0.935371 3.20815e-19)
(16.3698 -0.954989 -5.85469e-25)
(16.437 -0.975093 1.4377e-19)
(16.5039 -0.995694 2.72695e-19)
(16.5703 -1.01681 2.58869e-19)
(16.636 -1.03843 2.46108e-19)
(16.7006 -1.06052 -4.42641e-25)
(16.7636 -1.08308 8.52877e-25)
(16.8242 -1.10606 -2.13455e-19)
(16.8802 -1.12931 3.93239e-25)
(16.9288 -1.15267 1.95762e-19)
(16.9731 -1.17637 -3.55849e-25)
(17.0323 -1.20175 -1.80854e-19)
(17.0907 -1.22775 1.74263e-19)
(17.148 -1.2544 3.18859e-25)
(17.2043 -1.28173 1.62782e-19)
(17.2603 -1.30984 -5.01298e-24)
(17.318 -1.33895 3.06749e-19)
(17.3795 -1.36924 0)
(-0.585422 11.6846 1.93294e-20)
(-0.345094 7.22726 3.07527e-20)
(-2.70203 -1.63012 8.45749e-22)
(-4.92752 -9.43564 -6.09837e-22)
(-4.38584 -6.6091 2.24557e-22)
(-2.40491 -2.05047 0)
(-2.92048 -1.67111 1.91628e-19)
(5.9193 0.377707 8.51297e-20)
(18.081 1.09551 2.5802e-20)
(21.981 -0.0738609 -2.66463e-23)
(21.2562 -0.834459 0)
(19.6218 -0.813858 -1.01814e-23)
(18.6206 -0.684268 1.01087e-23)
(18.0833 -0.585665 0)
(17.8629 -0.527159 -2.04328e-20)
(17.8889 -0.514155 0)
(18.0228 -0.545639 3.55004e-20)
(18.0958 -0.601344 -1.6827e-20)
(18.0507 -0.642941 0)
(17.9247 -0.666546 3.06073e-20)
(17.7471 -0.669518 1.41933e-23)
(17.5825 -0.654395 1.3408e-24)
(17.4826 -0.639346 -2.61974e-20)
(17.4405 -0.632248 1.19972e-23)
(17.4339 -0.633346 4.56647e-20)
(17.4324 -0.641244 4.25584e-20)
(17.4165 -0.648257 -3.97132e-20)
(17.3914 -0.652638 -8.97465e-24)
(17.3673 -0.654491 0)
(17.3528 -0.656231 -6.41868e-20)
(17.3477 -0.659373 -5.95437e-20)
(17.3472 -0.663842 0)
(17.3481 -0.668817 -6.18338e-24)
(17.3503 -0.673803 1.15196e-23)
(17.3552 -0.678883 -8.71008e-20)
(17.3637 -0.684393 0)
(17.3756 -0.690441 -4.10213e-25)
(17.3906 -0.696993 6.78077e-20)
(17.4085 -0.703972 1.05137e-25)
(17.4296 -0.711399 1.14128e-19)
(17.4541 -0.719317 -2.09171e-19)
(17.482 -0.727761 0)
(17.5133 -0.736733 -6.378e-25)
(17.548 -0.74624 8.05696e-20)
(17.5861 -0.756295 -1.63002e-24)
(17.6274 -0.766917 -1.36032e-19)
(17.6721 -0.778111 -1.88506e-24)
(17.7196 -0.78989 3.52867e-24)
(17.7702 -0.802251 -1.06736e-19)
(17.8234 -0.815205 0)
(17.8794 -0.828745 1.83158e-19)
(17.9375 -0.842874 -8.5061e-20)
(17.9979 -0.857591 -1.7924e-24)
(18.0603 -0.8729 -1.47435e-19)
(18.1245 -0.888807 0)
(18.1903 -0.905309 0)
(18.2575 -0.922402 1.20153e-19)
(18.3258 -0.940087 0)
(18.3952 -0.958366 -1.05401e-19)
(18.4655 -0.977226 9.89001e-20)
(18.5361 -0.996644 0)
(18.6074 -1.01663 1.74593e-19)
(18.6787 -1.03718 -1.64327e-19)
(18.7504 -1.05832 1.54822e-19)
(18.8217 -1.08002 -1.45993e-19)
(18.8929 -1.10227 5.31811e-25)
(18.9636 -1.12506 -1.30353e-19)
(19.0337 -1.1484 -2.46813e-19)
(19.1032 -1.17232 -4.67835e-19)
(19.1718 -1.19679 -2.22053e-19)
(19.239 -1.22179 2.11175e-19)
(19.3046 -1.24732 2.01148e-19)
(19.3675 -1.27332 1.91891e-19)
(19.4255 -1.29965 7.06402e-25)
(19.4759 -1.32614 6.64636e-25)
(19.522 -1.35308 -6.49457e-25)
(19.5832 -1.38179 6.14013e-25)
(19.6434 -1.41118 -1.56178e-19)
(19.7025 -1.44133 1.15035e-24)
(19.7606 -1.47223 -1.45764e-19)
(19.8183 -1.50401 2.82569e-19)
(19.8778 -1.53691 5.26467e-25)
(19.9411 -1.57112 5.08293e-25)
(-0.529305 11.9367 -1.84132e-20)
(-0.744907 6.99649 -2.44708e-20)
(-3.17363 -1.42195 4.88184e-20)
(-4.88048 -9.05502 4.87457e-22)
(-4.51326 -7.02081 -4.3836e-22)
(-2.99867 -2.65881 0)
(-2.03207 -1.48829 3.11575e-22)
(8.81106 0.742338 7.44317e-20)
(20.7141 1.10695 -1.12506e-22)
(24.066 -0.106867 0)
(23.2963 -0.880623 -4.4684e-24)
(21.7801 -0.878491 1.86764e-20)
(20.8474 -0.753098 1.87291e-23)
(20.3524 -0.653659 -1.92522e-23)
(20.1555 -0.593864 1.9088e-20)
(20.183 -0.581245 -1.78672e-20)
(20.3001 -0.615615 -1.66279e-20)
(20.353 -0.675916 0)
(20.2934 -0.721191 1.50293e-20)
(20.1589 -0.747429 -2.86981e-20)
(19.9805 -0.751658 0)
(19.8198 -0.736232 1.71483e-24)
(19.7233 -0.72059 1.05754e-24)
(19.6823 -0.713279 1.11721e-23)
(19.6743 -0.714668 -9.83462e-24)
(19.67 -0.723434 -3.99348e-20)
(19.6518 -0.731261 -4.82479e-26)
(19.6253 -0.736272 -8.38407e-24)
(19.6007 -0.738522 0)
(19.586 -0.740623 -6.01344e-20)
(19.5804 -0.744229 5.57569e-20)
(19.5795 -0.749278 -6.25787e-24)
(19.5801 -0.754884 5.87337e-24)
(19.5821 -0.760508 4.40965e-20)
(19.5871 -0.766236 1.62605e-19)
(19.5958 -0.772437 0)
(19.6081 -0.77923 6.87523e-20)
(19.6236 -0.786579 -1.26176e-19)
(19.6422 -0.7944 -3.48089e-24)
(19.6642 -0.802714 3.27926e-24)
(19.6897 -0.811571 9.68834e-20)
(19.7188 -0.821003 -5.41207e-24)
(19.7515 -0.831017 1.72088e-24)
(19.7876 -0.841618 -7.424e-20)
(19.8272 -0.852817 -6.80357e-20)
(19.8702 -0.864638 0)
(19.9164 -0.87708 1.72629e-24)
(19.9656 -0.89016 -4.57331e-26)
(20.0178 -0.903873 -2.97165e-24)
(20.0726 -0.918229 3.63538e-26)
(20.13 -0.933218 -8.30889e-20)
(20.1895 -0.948844 -7.69915e-20)
(20.2512 -0.965105 1.42881e-19)
(20.3146 -0.982004 1.32781e-19)
(20.3797 -0.999545 0)
(20.4463 -1.01773 -1.15138e-19)
(20.514 -1.03654 -1.0742e-19)
(20.5827 -1.056 -1.51406e-24)
(20.6522 -1.07608 9.37849e-20)
(20.7225 -1.0968 0)
(20.7928 -1.11811 0)
(20.8637 -1.14002 -1.54334e-19)
(20.9345 -1.16255 -4.11042e-24)
(21.0054 -1.18571 -1.36313e-19)
(21.0759 -1.20948 -9.90127e-25)
(21.1461 -1.23384 1.20951e-19)
(21.2157 -1.25878 1.14186e-19)
(21.2848 -1.28432 2.15891e-19)
(21.3531 -1.31048 2.04333e-19)
(21.4205 -1.33725 1.47872e-24)
(21.4866 -1.36461 -3.68095e-19)
(21.551 -1.39255 -1.7514e-19)
(21.6129 -1.42102 6.30896e-25)
(21.67 -1.44988 -6.14164e-25)
(21.7198 -1.47899 1.52702e-19)
(21.7658 -1.50866 0)
(21.8261 -1.54012 0)
(21.8855 -1.57232 1.35597e-19)
(21.9439 -1.60536 6.80641e-27)
(22.0014 -1.63924 4.85819e-25)
(22.0586 -1.67409 2.45246e-19)
(22.1178 -1.71017 4.36636e-27)
(22.1807 -1.74764 4.44789e-25)
(-0.450823 11.9106 0)
(-1.1998 6.79965 1.83626e-20)
(-3.68097 -1.22427 3.888e-20)
(-4.83216 -8.60801 -9.54675e-23)
(-4.49157 -7.22756 -4.18761e-22)
(-3.42046 -3.17408 0)
(-0.677671 -1.21893 -1.49397e-19)
(11.9648 1.06267 -6.3816e-20)
(23.0809 1.07923 1.41791e-22)
(25.9018 -0.137473 -4.70793e-23)
(25.1226 -0.911408 4.0798e-24)
(23.7351 -0.93053 -1.70881e-20)
(22.88 -0.812619 -1.80716e-20)
(22.4311 -0.714613 1.5143e-25)
(22.2562 -0.654753 -8.81025e-21)
(22.2812 -0.642765 3.30064e-20)
(22.3781 -0.67943 0)
(22.4094 -0.743344 1.4611e-20)
(22.3363 -0.79166 -1.39025e-20)
(22.1957 -0.820284 -2.64949e-20)
(22.019 -0.825867 2.5341e-20)
(21.8639 -0.81051 2.40497e-20)
(21.7712 -0.794597 2.26791e-20)
(21.7308 -0.787206 -2.1221e-20)
(21.7203 -0.788859 1.04463e-23)
(21.7121 -0.798349 -3.69031e-20)
(21.6908 -0.806865 0)
(21.6623 -0.812429 -3.2078e-20)
(21.6363 -0.81504 -7.25415e-24)
(21.6204 -0.81746 1.10873e-19)
(21.6133 -0.82146 -5.13661e-20)
(21.6106 -0.826994 4.75364e-20)
(21.6094 -0.833128 -5.40268e-24)
(21.6099 -0.839283 5.2436e-24)
(21.6135 -0.845552 -7.46552e-20)
(21.6209 -0.852325 9.21971e-26)
(21.6319 -0.859735 3.89067e-24)
(21.6461 -0.867742 5.77334e-20)
(21.6635 -0.876257 -6.54039e-24)
(21.6844 -0.885302 0)
(21.7089 -0.894928 8.82761e-20)
(21.737 -0.90517 1.52272e-25)
(21.7687 -0.916036 7.36589e-20)
(21.8038 -0.927527 6.73228e-20)
(21.8424 -0.939657 0)
(21.8844 -0.952447 1.12807e-19)
(21.9295 -0.965899 1.03461e-19)
(21.9775 -0.980027 -9.50413e-20)
(22.0284 -0.994826 2.70654e-24)
(22.0817 -1.01031 8.05378e-20)
(22.1375 -1.02645 0)
(22.1953 -1.04327 -1.29493e-24)
(22.2549 -1.06076 0)
(22.3163 -1.07893 -1.782e-24)
(22.379 -1.09776 3.8547e-26)
(22.443 -1.11728 1.02022e-19)
(22.5081 -1.13746 -3.54695e-24)
(22.5739 -1.1583 3.03715e-26)
(22.6404 -1.17982 1.27581e-24)
(22.7075 -1.202 1.16611e-24)
(22.7745 -1.2248 -1.1155e-24)
(22.8419 -1.24825 1.35376e-19)
(22.9092 -1.27235 2.53959e-19)
(22.9765 -1.2971 0)
(23.0434 -1.3225 1.1211e-19)
(23.11 -1.34854 -2.11116e-19)
(23.176 -1.3752 0)
(23.2415 -1.40249 3.54194e-24)
(23.3063 -1.43046 1.77837e-19)
(23.3703 -1.45908 0)
(23.4331 -1.48833 3.19911e-19)
(23.4944 -1.51821 5.86279e-25)
(23.5534 -1.54869 0)
(23.608 -1.57962 1.38389e-19)
(23.6559 -1.61089 -1.32506e-19)
(23.7009 -1.64286 0)
(23.7587 -1.67657 -1.22226e-19)
(23.8158 -1.71108 -1.17646e-19)
(23.8722 -1.7465 4.361e-25)
(23.9277 -1.78284 1.09762e-19)
(23.9833 -1.82023 -4.25576e-19)
(24.0409 -1.85893 3.96557e-25)
(24.102 -1.89909 0)
(-0.389235 11.65 -1.34807e-20)
(-1.66678 6.60389 -3.1399e-22)
(-4.20919 -1.02908 -3.21484e-20)
(-4.80647 -8.16678 0)
(-4.31689 -7.22765 4.7701e-22)
(-3.56108 -3.56339 1.9442e-19)
(1.17439 -0.836948 1.20408e-19)
(15.2076 1.36186 0)
(25.162 0.998788 0)
(27.5064 -0.161002 2.72807e-21)
(26.7481 -0.931692 -2.20303e-23)
(25.4892 -0.970395 -1.77266e-24)
(24.7117 -0.862819 1.65776e-20)
(24.3071 -0.768149 -1.66943e-20)
(24.15 -0.709278 -8.06406e-21)
(24.1688 -0.698132 -1.52329e-20)
(24.244 -0.736547 -1.41954e-20)
(24.2545 -0.803162 -1.34825e-20)
(24.1697 -0.853948 0)
(24.0255 -0.884729 2.44217e-20)
(23.8524 -0.891745 2.15223e-23)
(23.7036 -0.876795 -2.22123e-20)
(23.6144 -0.860905 -2.08942e-20)
(23.5738 -0.853558 1.95867e-20)
(23.5599 -0.855452 -3.64654e-20)
(23.5472 -0.865533 6.80081e-20)
(23.5222 -0.874623 0)
(23.4912 -0.880673 0)
(23.4634 -0.883615 1.33595e-23)
(23.4454 -0.886321 -1.23003e-23)
(23.4359 -0.890656 0)
(23.4305 -0.896594 -4.37095e-20)
(23.4267 -0.903164 -4.0345e-20)
(23.4247 -0.909761 4.06309e-25)
(23.4258 -0.916476 -6.84758e-20)
(23.4308 -0.923723 6.28975e-20)
(23.4394 -0.931642 -5.76757e-20)
(23.4512 -0.940192 5.28075e-20)
(23.4663 -0.949279 0)
(23.4848 -0.958926 0)
(23.507 -0.969186 -8.0485e-20)
(23.5328 -0.980096 -7.34322e-20)
(23.5621 -0.991661 0)
(23.5949 -1.00388 -6.115e-20)
(23.6311 -1.01678 -3.36009e-24)
(23.6706 -1.03036 -1.02185e-19)
(23.7131 -1.04464 1.83701e-24)
(23.7585 -1.05963 8.58521e-20)
(23.8066 -1.07532 0)
(23.857 -1.09172 -7.2549e-20)
(23.9097 -1.10881 -2.01656e-24)
(23.9643 -1.12661 6.17667e-20)
(24.0206 -1.1451 1.72329e-24)