/*--------------------------------*- C++ -*----------------------------------*\
| =========                 |                                                 |
| \\      /  F ield         | OpenFOAM: The Open Source CFD Toolbox           |
|  \\    /   O peration     | Version:  2412                                  |
|   \\  /    A nd           | Website:  www.openfoam.com                      |
|    \\/     M anipulation  |                                                 |
\*---------------------------------------------------------------------------*/
FoamFile
{
    version     2.0;
    format      ascii;
    arch        "LSB;label=32;scalar=64";
    class       volScalarField;
    location    "160";
    object      nut;
}
// * * * * * * * * * * * * * * * * * * * * * * * * * * * * * * * * * * * * * //

dimensions      [0 2 -1 0 0 0 0];

internalField   nonuniform List<scalar> 
7418
(
1.7318e-12
3.24775e-12
1.45752e-12
8.08453e-13
1.31893e-12
1.01625e-12
1.00202e-11
2.42912e-11
2.4377e-11
1.88101e-11
1.59816e-11
1.45996e-11
1.40095e-11
1.40791e-11
1.45802e-11
1.50091e-11
1.51363e-11
1.50677e-11
1.48132e-11
1.45281e-11
1.43745e-11
1.4345e-11
1.44087e-11
1.44951e-11
1.45468e-11
1.45706e-11
1.45866e-11
1.46203e-11
1.4673e-11
1.47353e-11
1.47982e-11
1.48604e-11
1.49249e-11
1.49927e-11
1.50646e-11
1.51382e-11
1.52135e-11
1.52904e-11
1.53681e-11
1.54458e-11
1.55239e-11
1.56029e-11
1.5682e-11
1.57609e-11
1.58392e-11
1.59169e-11
1.59944e-11
1.60716e-11
1.61462e-11
1.62186e-11
1.62912e-11
1.6362e-11
1.64313e-11
1.64992e-11
1.6564e-11
1.66281e-11
1.66906e-11
1.6751e-11
1.68087e-11
1.68629e-11
1.69155e-11
1.69671e-11
1.7015e-11
1.70594e-11
1.71027e-11
1.71436e-11
1.71822e-11
1.72177e-11
1.72499e-11
1.72816e-11
1.73123e-11
1.73415e-11
1.73712e-11
1.73959e-11
1.74114e-11
1.74271e-11
1.7439e-11
1.74473e-11
1.74516e-11
1.74498e-11
1.7444e-11
2.01991e-12
1.82324e-12
1.55926e-10
2.71435e-10
1.35441e-10
7.62216e-11
1.15351e-10
9.64961e-11
1.00783e-09
2.2058e-09
2.18432e-09
1.74989e-09
1.51379e-09
1.39692e-09
1.34901e-09
1.35745e-09
1.40035e-09
1.43587e-09
1.44566e-09
1.43829e-09
1.41552e-09
1.39087e-09
1.37788e-09
1.37592e-09
1.38183e-09
1.38949e-09
1.39413e-09
1.39643e-09
1.39817e-09
1.40151e-09
1.40658e-09
1.41245e-09
1.4184e-09
1.42431e-09
1.43042e-09
1.43692e-09
1.44374e-09
1.45071e-09
1.45785e-09
1.46514e-09
1.4725e-09
1.47989e-09
1.48736e-09
1.49483e-09
1.50233e-09
1.50983e-09
1.51723e-09
1.52462e-09
1.53198e-09
1.53926e-09
1.54639e-09
1.55335e-09
1.56022e-09
1.56696e-09
1.57353e-09
1.57997e-09
1.58617e-09
1.59224e-09
1.59812e-09
1.60384e-09
1.60934e-09
1.61451e-09
1.61949e-09
1.62432e-09
1.6289e-09
1.6332e-09
1.6373e-09
1.64115e-09
1.64477e-09
1.64815e-09
1.65126e-09
1.65422e-09
1.65708e-09
1.65989e-09
1.66266e-09
1.66501e-09
1.6665e-09
1.66793e-09
1.66903e-09
1.6698e-09
1.67017e-09
1.67003e-09
1.66945e-09
1.73904e-10
1.56392e-10
1.46636e-09
2.19691e-09
1.24e-09
7.24833e-10
9.93055e-10
1.11531e-09
1.05314e-08
1.9798e-08
1.93313e-08
1.63292e-08
1.45078e-08
1.3596e-08
1.32444e-08
1.33436e-08
1.36909e-08
1.39604e-08
1.40203e-08
1.39387e-08
1.37425e-08
1.35425e-08
1.34418e-08
1.34337e-08
1.34883e-08
1.35546e-08
1.35954e-08
1.36181e-08
1.36382e-08
1.36727e-08
1.37217e-08
1.37773e-08
1.3834e-08
1.38907e-08
1.39494e-08
1.40119e-08
1.40773e-08
1.41441e-08
1.42124e-08
1.4282e-08
1.43523e-08
1.44232e-08
1.44949e-08
1.45665e-08
1.46384e-08
1.47103e-08
1.47815e-08
1.48524e-08
1.49227e-08
1.49923e-08
1.50609e-08
1.51279e-08
1.51938e-08
1.52584e-08
1.53215e-08
1.53831e-08
1.54429e-08
1.5501e-08
1.55572e-08
1.56118e-08
1.56644e-08
1.57145e-08
1.57622e-08
1.58082e-08
1.5852e-08
1.58933e-08
1.59325e-08
1.59691e-08
1.60038e-08
1.60363e-08
1.60661e-08
1.6094e-08
1.61213e-08
1.61484e-08
1.61746e-08
1.61969e-08
1.62111e-08
1.62243e-08
1.62344e-08
1.6241e-08
1.62442e-08
1.62428e-08
1.62368e-08
1.45713e-09
1.31878e-09
7.31611e-09
8.76984e-09
5.51038e-09
3.41455e-09
4.27301e-09
7.87206e-09
5.49165e-08
8.76513e-08
8.48899e-08
7.61301e-08
6.97547e-08
6.65568e-08
6.54671e-08
6.60073e-08
6.72774e-08
6.81567e-08
6.82523e-08
6.78131e-08
6.70127e-08
6.62692e-08
6.59252e-08
6.59473e-08
6.61948e-08
6.64687e-08
6.66437e-08
6.6756e-08
6.68712e-08
6.70496e-08
6.72863e-08
6.75496e-08
6.78174e-08
6.80881e-08
6.83703e-08
6.86694e-08
6.89812e-08
6.92994e-08
6.96244e-08
6.99558e-08
7.02916e-08
7.06305e-08
7.09724e-08
7.13148e-08
7.16579e-08
7.2001e-08
7.23421e-08
7.26811e-08
7.3017e-08
7.33492e-08
7.36763e-08
7.39968e-08
7.4312e-08
7.4621e-08
7.49232e-08
7.52179e-08
7.55042e-08
7.57821e-08
7.60505e-08
7.63106e-08
7.65612e-08
7.6801e-08
7.70298e-08
7.72492e-08
7.74574e-08
7.76537e-08
7.7841e-08
7.80161e-08
7.81806e-08
7.83345e-08
7.84758e-08
7.86088e-08
7.87384e-08
7.88666e-08
7.89912e-08
7.90965e-08
7.91617e-08
7.92223e-08
7.92675e-08
7.92963e-08
7.9308e-08
7.92978e-08
7.92658e-08
6.01137e-09
6.32415e-09
3.16946e-08
2.50525e-08
1.69239e-08
1.12502e-08
1.34187e-08
4.08558e-08
1.98896e-07
2.73022e-07
2.6449e-07
2.52453e-07
2.38971e-07
2.32369e-07
2.30759e-07
2.32627e-07
2.35357e-07
2.36807e-07
2.36441e-07
2.34847e-07
2.32708e-07
2.3101e-07
2.30372e-07
2.30663e-07
2.31436e-07
2.32196e-07
2.32713e-07
2.33114e-07
2.33574e-07
2.34224e-07
2.35032e-07
2.35908e-07
2.36802e-07
2.37715e-07
2.38671e-07
2.39679e-07
2.40727e-07
2.41796e-07
2.42888e-07
2.44001e-07
2.45132e-07
2.46274e-07
2.47425e-07
2.48578e-07
2.49733e-07
2.50888e-07
2.52038e-07
2.53181e-07
2.54313e-07
2.55432e-07
2.56535e-07
2.57616e-07
2.5868e-07
2.59722e-07
2.60743e-07
2.61737e-07
2.62701e-07
2.63637e-07
2.64542e-07
2.65418e-07
2.66262e-07
2.67069e-07
2.6784e-07
2.68576e-07
2.69276e-07
2.69935e-07
2.70562e-07
2.7115e-07
2.717e-07
2.72212e-07
2.72685e-07
2.73131e-07
2.73563e-07
2.73987e-07
2.744e-07
2.7475e-07
2.74961e-07
2.75153e-07
2.75292e-07
2.75378e-07
2.75403e-07
2.75352e-07
2.75227e-07
1.76416e-08
2.78756e-08
1.18294e-07
5.99454e-08
4.15473e-08
2.96228e-08
3.76048e-08
1.7209e-07
5.6571e-07
6.88496e-07
6.73e-07
6.82966e-07
6.67858e-07
6.61518e-07
6.62514e-07
6.67023e-07
6.69701e-07
6.69349e-07
6.66489e-07
6.62096e-07
6.58086e-07
6.55852e-07
6.55629e-07
6.57003e-07
6.58881e-07
6.60465e-07
6.61668e-07
6.62834e-07
6.64305e-07
6.66213e-07
6.68424e-07
6.70764e-07
6.73159e-07
6.75639e-07
6.78243e-07
6.80975e-07
6.83807e-07
6.86699e-07
6.89652e-07
6.92668e-07
6.95726e-07
6.98815e-07
7.0193e-07
7.05055e-07
7.08185e-07
7.11314e-07
7.14431e-07
7.1753e-07
7.20597e-07
7.23629e-07
7.26617e-07
7.29554e-07
7.32442e-07
7.35271e-07
7.38031e-07
7.40722e-07
7.43335e-07
7.45871e-07
7.48326e-07
7.50694e-07
7.52972e-07
7.55152e-07
7.57237e-07
7.59225e-07
7.61109e-07
7.62886e-07
7.64566e-07
7.66142e-07
7.67615e-07
7.68981e-07
7.70245e-07
7.71437e-07
7.72584e-07
7.73706e-07
7.74794e-07
7.75721e-07
7.76258e-07
7.76731e-07
7.7706e-07
7.77245e-07
7.77261e-07
7.77068e-07
7.76668e-07
4.26539e-08
1.05899e-07
3.84159e-07
1.38916e-07
8.8522e-08
6.68396e-08
1.16917e-07
6.22237e-07
1.3432e-06
1.50999e-06
1.50022e-06
1.61233e-06
1.62558e-06
1.63703e-06
1.65015e-06
1.65736e-06
1.65177e-06
1.64108e-06
1.63048e-06
1.62092e-06
1.61638e-06
1.61695e-06
1.62002e-06
1.62446e-06
1.62818e-06
1.6307e-06
1.63305e-06
1.63599e-06
1.63995e-06
1.64473e-06
1.6499e-06
1.65523e-06
1.66071e-06
1.66646e-06
1.67252e-06
1.67885e-06
1.68539e-06
1.69206e-06
1.69889e-06
1.70585e-06
1.71292e-06
1.72005e-06
1.72725e-06
1.73447e-06
1.74171e-06
1.74894e-06
1.75615e-06
1.76332e-06
1.77041e-06
1.77743e-06
1.78434e-06
1.79113e-06
1.79781e-06
1.80435e-06
1.81072e-06
1.81693e-06
1.82297e-06
1.82882e-06
1.83448e-06
1.83992e-06
1.84516e-06
1.85017e-06
1.85495e-06
1.85951e-06
1.86381e-06
1.86787e-06
1.87169e-06
1.87527e-06
1.8786e-06
1.88168e-06
1.88452e-06
1.8872e-06
1.88975e-06
1.89222e-06
1.89463e-06
1.89669e-06
1.89779e-06
1.89873e-06
1.89932e-06
1.89957e-06
1.89942e-06
1.8988e-06
1.89769e-06
9.28893e-08
3.50657e-07
1.09529e-06
3.58118e-07
1.74231e-07
1.38138e-07
3.65185e-07
1.83583e-06
2.76823e-06
3.0046e-06
3.04958e-06
3.44938e-06
3.56917e-06
3.64039e-06
3.68245e-06
3.68564e-06
3.64972e-06
3.60949e-06
3.58166e-06
3.56558e-06
3.56719e-06
3.58015e-06
3.59334e-06
3.60447e-06
3.61044e-06
3.61324e-06
3.61725e-06
3.62387e-06
3.6331e-06
3.6435e-06
3.65407e-06
3.66467e-06
3.67567e-06
3.68736e-06
3.6997e-06
3.71254e-06
3.72574e-06
3.73921e-06
3.753e-06
3.76707e-06
3.78135e-06
3.79577e-06
3.8103e-06
3.82489e-06
3.83952e-06
3.85414e-06
3.86871e-06
3.88318e-06
3.8975e-06
3.91168e-06
3.92563e-06
3.93934e-06
3.95278e-06
3.96594e-06
3.97877e-06
3.99128e-06
4.0034e-06
4.01514e-06
4.02646e-06
4.03733e-06
4.04778e-06
4.05773e-06
4.06722e-06
4.07624e-06
4.08472e-06
4.09269e-06
4.10018e-06
4.10714e-06
4.11358e-06
4.11951e-06
4.12495e-06
4.13001e-06
4.13479e-06
4.13934e-06
4.14377e-06
4.14761e-06
4.14936e-06
4.15074e-06
4.15138e-06
4.15131e-06
4.15042e-06
4.1486e-06
4.14573e-06
2.16449e-07
1.02351e-06
2.76924e-06
9.24461e-07
3.44041e-07
2.7506e-07
1.10288e-06
4.26453e-06
5.09584e-06
5.57286e-06
5.80015e-06
6.83716e-06
7.1959e-06
7.38548e-06
7.46665e-06
7.44149e-06
7.33589e-06
7.23799e-06
7.1832e-06
7.16557e-06
7.18967e-06
7.23257e-06
7.26644e-06
7.28838e-06
7.29554e-06
7.29669e-06
7.30302e-06
7.31629e-06
7.33481e-06
7.35443e-06
7.37323e-06
7.39166e-06
7.41098e-06
7.43178e-06
7.45376e-06
7.4765e-06
7.49976e-06
7.52352e-06
7.54785e-06
7.57267e-06
7.59786e-06
7.62329e-06
7.64893e-06
7.67465e-06
7.70042e-06
7.72621e-06
7.75184e-06
7.7773e-06
7.80245e-06
7.82735e-06
7.85182e-06
7.87583e-06
7.89934e-06
7.9223e-06
7.94469e-06
7.96644e-06
7.98745e-06
8.00776e-06
8.0273e-06
8.04598e-06
8.06386e-06
8.08083e-06
8.09695e-06
8.11213e-06
8.12634e-06
8.13958e-06
8.15193e-06
8.16331e-06
8.17371e-06
8.18317e-06
8.19171e-06
8.19949e-06
8.20664e-06
8.21324e-06
8.21969e-06
8.22538e-06
8.22696e-06
8.2278e-06
8.22728e-06
8.22543e-06
8.22215e-06
8.21725e-06
8.21037e-06
5.33724e-07
2.65568e-06
6.2557e-06
2.26368e-06
7.61573e-07
6.02592e-07
3.15714e-06
8.26238e-06
8.57663e-06
9.80226e-06
1.05083e-05
1.26764e-05
1.3378e-05
1.37006e-05
1.37891e-05
1.36872e-05
1.34703e-05
1.32966e-05
1.32184e-05
1.32177e-05
1.32893e-05
1.33806e-05
1.34427e-05
1.34758e-05
1.34804e-05
1.34774e-05
1.34872e-05
1.35105e-05
1.3542e-05
1.35733e-05
1.36019e-05
1.36296e-05
1.36589e-05
1.36908e-05
1.37246e-05
1.37593e-05
1.37946e-05
1.38307e-05
1.38678e-05
1.39055e-05
1.39438e-05
1.39824e-05
1.40213e-05
1.40603e-05
1.40994e-05
1.41384e-05
1.41772e-05
1.42157e-05
1.42536e-05
1.4291e-05
1.43278e-05
1.43637e-05
1.43989e-05
1.44331e-05
1.44663e-05
1.44985e-05
1.45294e-05
1.45592e-05
1.45876e-05
1.46147e-05
1.46404e-05
1.46646e-05
1.46874e-05
1.47085e-05
1.47282e-05
1.47461e-05
1.47626e-05
1.47775e-05
1.47908e-05
1.48026e-05
1.48127e-05
1.48216e-05
1.48292e-05
1.48355e-05
1.48417e-05
1.48474e-05
1.4846e-05
1.48433e-05
1.48383e-05
1.48312e-05
1.48219e-05
1.48103e-05
1.47954e-05
1.30087e-06
6.16618e-06
1.26719e-05
5.15019e-06
1.7393e-06
1.40934e-06
8.37082e-06
1.40023e-05
1.35247e-05
1.65021e-05
1.82956e-05
2.19153e-05
2.28607e-05
2.32156e-05
2.32233e-05
2.29908e-05
2.26496e-05
2.24173e-05
2.23446e-05
2.23912e-05
2.2531e-05
2.2675e-05
2.27596e-05
2.27965e-05
2.2793e-05
2.2785e-05
2.28001e-05
2.28355e-05
2.28806e-05
2.29229e-05
2.29598e-05
2.29955e-05
2.3034e-05
2.30762e-05
2.31208e-05
2.31662e-05
2.32125e-05
2.32596e-05
2.33081e-05
2.33575e-05
2.34075e-05
2.34579e-05
2.35087e-05
2.35595e-05
2.36104e-05
2.36611e-05
2.37113e-05
2.37611e-05
2.381e-05
2.38582e-05
2.39052e-05
2.39512e-05
2.39959e-05
2.40392e-05
2.40809e-05
2.41211e-05
2.41595e-05
2.4196e-05
2.42306e-05
2.42631e-05
2.42937e-05
2.4322e-05
2.43482e-05
2.43719e-05
2.43934e-05
2.44125e-05
2.44294e-05
2.44438e-05
2.44559e-05
2.44658e-05
2.44732e-05
2.44785e-05
2.44814e-05
2.44819e-05
2.44825e-05
2.44836e-05
2.4474e-05
2.4462e-05
2.44469e-05
2.44287e-05
2.44078e-05
2.4384e-05
2.43551e-05
3.03674e-06
1.28348e-05
2.30727e-05
1.07894e-05
3.9062e-06
3.32049e-06
1.73767e-05
2.14932e-05
2.05989e-05
2.6621e-05
3.03601e-05
3.50526e-05
3.59101e-05
3.61075e-05
3.5931e-05
3.55415e-05
3.51097e-05
3.48743e-05
3.48533e-05
3.49747e-05
3.51843e-05
3.53622e-05
3.54494e-05
3.5477e-05
3.54609e-05
3.54497e-05
3.54721e-05
3.55188e-05
3.55739e-05
3.56222e-05
3.56632e-05
3.57031e-05
3.57472e-05
3.57958e-05
3.58468e-05
3.58985e-05
3.5951e-05
3.60046e-05
3.60596e-05
3.61157e-05
3.61724e-05
3.62296e-05
3.6287e-05
3.63444e-05
3.64017e-05
3.64586e-05
3.65148e-05
3.65703e-05
3.66246e-05
3.66779e-05
3.67295e-05
3.67797e-05
3.6828e-05
3.68745e-05
3.69189e-05
3.69611e-05
3.70009e-05
3.70381e-05
3.70727e-05
3.71045e-05
3.71337e-05
3.71598e-05
3.7183e-05
3.7203e-05
3.72198e-05
3.72335e-05
3.72441e-05
3.72515e-05
3.72557e-05
3.72568e-05
3.72547e-05
3.72491e-05
3.72396e-05
3.72262e-05
3.72132e-05
3.72025e-05
3.71774e-05
3.71488e-05
3.7116e-05
3.70795e-05
3.70398e-05
3.69971e-05
3.69475e-05
6.66207e-06
2.3954e-05
3.7939e-05
2.06488e-05
8.41036e-06
7.66556e-06
2.92318e-05
3.0752e-05
3.06276e-05
4.09015e-05
4.70262e-05
5.18318e-05
5.22322e-05
5.2094e-05
5.16695e-05
5.11427e-05
5.06908e-05
5.0523e-05
5.05951e-05
5.07999e-05
5.1057e-05
5.12338e-05
5.12974e-05
5.13031e-05
5.12731e-05
5.12625e-05
5.12929e-05
5.1347e-05
5.14051e-05
5.14525e-05
5.14915e-05
5.15306e-05
5.15749e-05
5.1624e-05
5.16749e-05
5.17262e-05
5.17783e-05
5.18316e-05
5.18862e-05
5.19419e-05
5.1998e-05
5.20544e-05
5.21109e-05
5.21673e-05
5.22233e-05
5.22787e-05
5.2333e-05
5.23863e-05
5.24381e-05
5.24884e-05
5.25366e-05
5.25829e-05
5.2627e-05
5.26685e-05
5.27074e-05
5.27435e-05
5.27765e-05
5.28064e-05
5.28329e-05
5.28559e-05
5.28756e-05
5.28913e-05
5.29035e-05
5.29115e-05
5.29157e-05
5.29159e-05
5.29123e-05
5.29046e-05
5.28929e-05
5.28772e-05
5.28572e-05
5.28324e-05
5.28016e-05
5.2765e-05
5.2729e-05
5.26979e-05
5.26495e-05
5.25963e-05
5.25379e-05
5.24753e-05
5.24096e-05
5.23412e-05
5.22642e-05
1.35636e-05
4.02105e-05
5.68738e-05
3.59566e-05
1.69556e-05
1.6949e-05
4.26209e-05
4.19293e-05
4.4511e-05
5.93639e-05
6.74225e-05
7.14428e-05
7.11703e-05
7.06052e-05
6.99339e-05
6.93278e-05
6.89343e-05
6.88907e-05
6.9074e-05
6.93472e-05
6.96145e-05
6.97533e-05
6.97715e-05
6.97476e-05
6.97059e-05
6.96994e-05
6.97366e-05
6.97923e-05
6.98453e-05
6.98844e-05
6.99158e-05
6.99488e-05
6.99877e-05
7.0031e-05
7.00752e-05
7.01194e-05
7.01641e-05
7.021e-05
7.0257e-05
7.03047e-05
7.03527e-05
7.04006e-05
7.04484e-05
7.04957e-05
7.05423e-05
7.0588e-05
7.06323e-05
7.06751e-05
7.0716e-05
7.07549e-05
7.07914e-05
7.08255e-05
7.08568e-05
7.0885e-05
7.091e-05
7.09316e-05
7.09495e-05
7.09637e-05
7.09738e-05
7.09797e-05
7.09816e-05
7.0979e-05
7.09719e-05
7.09599e-05
7.09434e-05
7.09221e-05
7.08962e-05
7.08655e-05
7.083e-05
7.07896e-05
7.07438e-05
7.06915e-05
7.06307e-05
7.05619e-05
7.04937e-05
7.04332e-05
7.03543e-05
7.02689e-05
7.01777e-05
7.0082e-05
6.99838e-05
6.98835e-05
6.97736e-05
2.54092e-05
6.12629e-05
7.87948e-05
5.71e-05
3.1541e-05
3.45079e-05
5.66274e-05
5.52593e-05
6.26908e-05
8.11695e-05
9.01748e-05
9.2955e-05
9.1989e-05
9.10046e-05
9.01405e-05
8.95259e-05
8.92514e-05
8.93569e-05
8.96424e-05
8.99528e-05
9.01919e-05
9.02651e-05
9.02263e-05
9.01715e-05
9.01221e-05
9.0122e-05
9.01628e-05
9.02135e-05
9.02543e-05
9.02794e-05
9.02987e-05
9.03214e-05
9.03502e-05
9.03823e-05
9.04141e-05
9.04454e-05
9.0477e-05
9.05095e-05
9.05427e-05
9.05761e-05
9.06094e-05
9.06423e-05
9.06746e-05
9.0706e-05
9.07364e-05
9.07652e-05
9.07923e-05
9.08175e-05
9.08403e-05
9.08607e-05
9.0878e-05
9.08925e-05
9.09037e-05
9.09113e-05
9.0915e-05
9.09149e-05
9.09104e-05
9.09015e-05
9.0888e-05
9.08696e-05
9.08466e-05
9.08183e-05
9.07848e-05
9.07458e-05
9.07015e-05
9.06518e-05
9.05967e-05
9.0536e-05
9.04697e-05
9.03976e-05
9.03188e-05
9.02316e-05
9.01333e-05
9.00243e-05
8.99155e-05
8.98169e-05
8.97012e-05
8.95773e-05
8.94472e-05
8.93125e-05
8.91761e-05
8.90389e-05
8.88915e-05
4.35781e-05
8.59519e-05
0.00010244
8.35009e-05
5.38146e-05
5.61456e-05
7.10302e-05
7.08861e-05
8.46191e-05
0.000105102
0.000114144
0.000115646
0.000114083
0.000112753
0.000111772
0.00011121
0.000111084
0.000111332
0.000111692
0.000112004
0.000112186
0.000112179
0.000112082
0.000112
0.000111947
0.000111953
0.000111993
0.000112033
0.000112057
0.000112064
0.000112068
0.000112078
0.000112093
0.00011211
0.000112125
0.000112139
0.000112154
0.000112168
0.000112183
0.000112198
0.000112211
0.000112224
0.000112236
0.000112246
0.000112255
0.000112262
0.000112266
0.000112268
0.000112267
0.000112263
0.000112256
0.000112245
0.00011223
0.000112211
0.000112188
0.00011216
0.000112127
0.000112089
0.000112046
0.000111998
0.000111944
0.000111884
0.000111818
0.000111746
0.000111668
0.000111584
0.000111494
0.000111397
0.000111294
0.000111185
0.000111067
0.000110938
0.000110795
0.000110639
0.000110482
0.000110337
0.000110179
0.000110011
0.000109836
0.000109657
0.000109478
0.000109299
0.00010911
6.84517e-05
0.000112837
0.000126755
0.000114175
8.40959e-05
7.82764e-05
8.59057e-05
8.86855e-05
0.000109047
0.000130138
0.000138662
0.000139072
0.000137055
0.000135476
0.000134453
0.00013398
0.000134003
0.000134367
0.000134766
0.00013505
0.000135156
0.000135069
0.000134918
0.000134813
0.000134759
0.00013477
0.000134805
0.00013483
0.000134833
0.000134821
0.000134808
0.000134802
0.000134801
0.0001348
0.000134796
0.000134791
0.000134785
0.000134779
0.000134772
0.000134764
0.000134755
0.000134744
0.000134732
0.000134717
0.0001347
0.000134681
0.000134658
0.000134633
0.000134604
0.000134571
0.000134534
0.000134494
0.000134448
0.000134398
0.000134343
0.000134283
0.000134217
0.000134145
0.000134068
0.000133984
0.000133894
0.000133798
0.000133695
0.000133585
0.000133468
0.000133344
0.000133214
0.000133076
0.000132931
0.000132778
0.000132615
0.000132439
0.000132246
0.000132036
0.000131823
0.00013162
0.000131415
0.000131198
0.000130974
0.000130745
0.000130518
0.000130293
0.000130059
9.90115e-05
0.000140708
0.00015094
0.000148189
0.000114274
9.87737e-05
0.00010148
0.000108776
0.000134757
0.000155663
0.000163445
0.000163015
0.000160692
0.00015896
0.000157949
0.00015758
0.000157731
0.000158175
0.00015858
0.000158814
0.000158839
0.000158676
0.000158481
0.000158359
0.000158305
0.000158317
0.000158343
0.00015835
0.000158331
0.000158298
0.000158268
0.000158246
0.000158226
0.000158205
0.000158181
0.000158153
0.000158125
0.000158096
0.000158066
0.000158033
0.000157998
0.000157961
0.000157922
0.000157879
0.000157834
0.000157785
0.000157732
0.000157676
0.000157615
0.00015755
0.00015748
0.000157406
0.000157326
0.000157241
0.000157149
0.000157052
0.000156949
0.000156839
0.000156723
0.000156599
0.000156469
0.000156331
0.000156186
0.000156033
0.000155873
0.000155705
0.000155529
0.000155344
0.000155151
0.000154949
0.000154735
0.000154506
0.000154256
0.000153985
0.000153708
0.000153436
0.000153178
0.000152905
0.000152626
0.000152343
0.000152061
0.000151785
0.000151502
0.00012824
0.000168856
0.000174365
0.000185401
0.000141551
0.000117566
0.000118077
0.000131032
0.000160949
0.000181409
0.000188437
0.00018741
0.00018491
0.000183104
0.000182139
0.000181867
0.000182117
0.000182605
0.000182989
0.00018316
0.000183107
0.000182879
0.000182649
0.000182513
0.000182458
0.000182468
0.000182482
0.000182468
0.000182426
0.000182373
0.000182325
0.000182284
0.000182246
0.000182204
0.000182156
0.000182106
0.000182054
0.000182001
0.000181944
0.000181885
0.000181822
0.000181757
0.000181688
0.000181615
0.000181538
0.000181457
0.000181371
0.00018128
0.000181185
0.000181084
0.000180978
0.000180866
0.000180748
0.000180623
0.000180492
0.000180354
0.000180209
0.000180057
0.000179897
0.000179729
0.000179553
0.000179369
0.000179177
0.000178976
0.000178766
0.000178548
0.000178321
0.000178084
0.000177838
0.00017758
0.000177309
0.000177018
0.000176704
0.000176366
0.000176014
0.000175658
0.000175342
0.000175007
0.000174665
0.000174321
0.000173979
0.000173644
0.000173306
0.000153464
0.000193969
0.000196566
0.000218934
0.000165043
0.000135105
0.000135959
0.000155117
0.000187386
0.000207307
0.00021368
0.000212264
0.000209667
0.00020787
0.000206961
0.000206773
0.000207087
0.000207587
0.000207933
0.000208037
0.000207912
0.00020763
0.000207374
0.000207226
0.00020717
0.000207174
0.000207173
0.000207137
0.000207073
0.000206999
0.000206932
0.000206873
0.000206814
0.00020675
0.000206679
0.000206604
0.000206527
0.000206448
0.000206364
0.000206276
0.000206184
0.000206087
0.000205986
0.000205881
0.00020577
0.000205653
0.000205531
0.000205404
0.00020527
0.00020513
0.000204984
0.000204831
0.00020467
0.000204502
0.000204327
0.000204144
0.000203952
0.000203752
0.000203544
0.000203327
0.000203101
0.000202865
0.00020262
0.000202365
0.000202101
0.000201826
0.000201541
0.000201246
0.000200939
0.000200618
0.000200281
0.000199922
0.000199535
0.000199121
0.000198686
0.00019823
0.000197847
0.000197442
0.000197031
0.000196617
0.000196207
0.000195804
0.000195405
0.00017425
0.000213136
0.000217285
0.000248329
0.000184899
0.000152033
0.000155379
0.000180612
0.000214091
0.00023337
0.000239222
0.000237606
0.00023497
0.000233235
0.000232382
0.000232256
0.000232604
0.000233092
0.000233387
0.000233427
0.00023324
0.000232916
0.00023264
0.000232484
0.000232424
0.000232419
0.0002324
0.000232343
0.000232257
0.000232163
0.000232077
0.000231999
0.000231918
0.00023183
0.000231735
0.000231636
0.000231532
0.000231425
0.000231312
0.000231194
0.00023107
0.000230941
0.000230806
0.000230664
0.000230517
0.000230362
0.000230201
0.000230033
0.000229858
0.000229675
0.000229485
0.000229286
0.000229079
0.000228864
0.00022864
0.000228406
0.000228163
0.000227911
0.000227649
0.000227376
0.000227094
0.0002268
0.000226496
0.000226181
0.000225855
0.000225517
0.000225168
0.000224805
0.00022443
0.000224039
0.000223627
0.00022319
0.000222722
0.000222222
0.000221694
0.000190202
0.000226763
0.000236552
0.000274007
0.000201618
0.000169001
0.000176404
0.000207046
0.000241078
0.000259633
0.000265079
0.000263424
0.00026081
0.000259162
0.000258361
0.000258275
0.000258632
0.00025909
0.000259331
0.000259312
0.000259075
0.00025872
0.000258431
0.000258267
0.000258201
0.000258184
0.000258148
0.000258069
0.000257961
0.000257848
0.000257744
0.000257645
0.000257543
0.000257431
0.000257311
0.000257185
0.000257054
0.000256918
0.000256775
0.000256624
0.000256467
0.000256303
0.000256131
0.000255952
0.000255765
0.00025557
0.000255367
0.000255155
0.000254934
0.000254705
0.000254466
0.000254218
0.00025396
0.000253692
0.000253414
0.000253125
0.000252825
0.000252515
0.000252193
0.000251859
0.000251514
0.000251156
0.000250786
0.000250403
0.000250008
0.000249599
0.000249177
0.000248739
0.000248286
0.000247814
0.000247319
0.000246794
0.000246235
0.000245639
0.000245011
0.000200414
0.000235705
0.000254736
0.000295628
0.000216507
0.000186461
0.000198827
0.00023429
0.00026832
0.000286109
0.000291253
0.000289669
0.000287143
0.00028558
0.000284829
0.000284765
0.000285111
0.000285529
0.000285716
0.000285648
0.000285374
0.000284998
0.0002847
0.00028453
0.000284457
0.000284427
0.000284373
0.000284274
0.000284146
0.000284014
0.000283891
0.000283772
0.000283647
0.000283512
0.000283366
0.000283213
0.000283054
0.000282888
0.000282713
0.000282529
0.000282337
0.000282136
0.000281926
0.000281706
0.000281477
0.000281238
0.000280989
0.00028073
0.000280461
0.000280181
0.00027989
0.000279588
0.000279274
0.000278949
0.000278611
0.000278262
0.000277899
0.000277524
0.000277136
0.000276735
0.000276319
0.00027589
0.000275446
0.000274988
0.000274515
0.000274027
0.000273522
0.000273
0.00027246
0.000271897
0.000271307
0.000270683
0.000270021
0.00026932
0.000268585
0.000203228
0.000240545
0.000272594
0.000312846
0.000230631
0.000204802
0.000222893
0.000262224
0.000295744
0.000312755
0.000317665
0.000316229
0.000313865
0.000312379
0.000311678
0.000311621
0.000311944
0.000312318
0.000312456
0.000312349
0.000312049
0.000311663
0.000311362
0.000311187
0.000311105
0.000311062
0.00031099
0.000310873
0.000310727
0.000310578
0.000310437
0.000310298
0.000310152
0.000309992
0.000309821
0.000309641
0.000309454
0.000309257
0.000309049
0.000308831
0.000308602
0.000308362
0.000308111
0.000307849
0.000307576
0.00030729
0.000306993
0.000306684
0.000306362
0.000306027
0.000305679
0.000305319
0.000304944
0.000304556
0.000304154
0.000303738
0.000303307
0.000302861
0.0003024
0.000301923
0.000301431
0.000300922
0.000300396
0.000299854
0.000299295
0.000298717
0.000298121
0.000297504
0.000296865
0.000296199
0.000295502
0.000294768
0.000293992
0.000293175
0.000292328
0.000199708
0.000241809
0.000290887
0.000326513
0.000244491
0.000224372
0.000248676
0.000290658
0.000323234
0.000339457
0.00034417
0.000342941
0.000340789
0.000339397
0.000338748
0.000338691
0.000338985
0.000339314
0.00033941
0.000339275
0.000338962
0.000338575
0.000338276
0.000338097
0.000338008
0.000337952
0.000337865
0.000337732
0.000337571
0.000337406
0.000337248
0.000337091
0.000336923
0.00033674
0.000336545
0.000336338
0.000336122
0.000335894
0.000335653
0.000335399
0.000335133
0.000334853
0.00033456
0.000334254
0.000333933
0.000333599
0.00033325
0.000332887
0.000332509
0.000332116
0.000331708
0.000331284
0.000330844
0.000330388
0.000329916
0.000329427
0.000328921
0.000328397
0.000327856
0.000327297
0.000326719
0.000326123
0.000325507
0.000324871
0.000324215
0.000323538
0.000322839
0.000322116
0.000321366
0.000320585
0.000319769
0.000318911
0.000318009
0.000317067
0.0003161
0.000191913
0.000239964
0.000306772
0.000337513
0.000258678
0.000245484
0.000275952
0.000319337
0.000350621
0.000366027
0.000370567
0.000369586
0.000367678
0.000366415
0.000365822
0.000365764
0.000366026
0.000366313
0.000366375
0.000366224
0.000365909
0.000365531
0.00036524
0.000365061
0.000364966
0.0003649
0.000364799
0.000364654
0.000364481
0.000364303
0.00036413
0.000363955
0.000363768
0.000363564
0.000363344
0.000363112
0.000362867
0.000362609
0.000362335
0.000362045
0.000361741
0.000361421
0.000361084
0.000360732
0.000360363
0.000359977
0.000359574
0.000359155
0.000358717
0.000358262
0.000357789
0.000357298
0.000356788
0.000356259
0.00035571
0.000355143
0.000354555
0.000353947
0.000353318
0.000352669
0.000351997
0.000351304
0.000350588
0.000349849
0.000349087
0.000348299
0.000347485
0.000346642
0.000345769
0.00034486
0.000343911
0.000342917
0.000341877
0.000340799
0.000339703
0.000182061
0.000235945
0.000320002
0.000346545
0.000273685
0.00026817
0.00030416
0.000347967
0.000377669
0.000392216
0.000396592
0.000395887
0.000394255
0.000393146
0.000392618
0.000392562
0.000392794
0.000393042
0.000393081
0.000392924
0.00039262
0.000392261
0.000391983
0.000391808
0.00039171
0.000391636
0.000391527
0.000391374
0.000391192
0.000391004
0.000390819
0.000390629
0.000390425
0.000390201
0.000389959
0.000389703
0.000389431
0.000389142
0.000388836
0.000388511
0.000388168
0.000387807
0.000387426
0.000387027
0.000386608
0.000386169
0.00038571
0.000385231
0.000384732
0.000384211
0.000383669
0.000383106
0.000382521
0.000381913
0.000381283
0.000380631
0.000379955
0.000379255
0.000378531
0.000377783
0.000377009
0.000376209
0.000375383
0.00037453
0.000373649
0.000372739
0.000371797
0.000370822
0.000369811
0.00036876
0.000367664
0.000366519
0.000365329
0.000364103
0.000362866
0.000172138
0.000231158
0.000331258
0.000354535
0.000289759
0.000292052
0.000332908
0.000376201
0.00040408
0.000417705
0.000421914
0.000421498
0.000420165
0.00041923
0.000418778
0.00041873
0.000418936
0.000419153
0.000419177
0.000419026
0.000418744
0.000418414
0.000418157
0.000417992
0.000417894
0.000417816
0.000417703
0.000417547
0.000417361
0.000417168
0.000416973
0.000416772
0.000416552
0.000416311
0.00041605
0.000415771
0.000415474
0.000415157
0.000414819
0.00041446
0.000414079
0.000413677
0.000413252
0.000412805
0.000412335
0.000411841
0.000411324
0.000410784
0.000410219
0.000409629
0.000409015
0.000408376
0.00040771
0.000407019
0.000406302
0.000405558
0.000404786
0.000403987
0.00040316
0.000402304
0.000401418
0.000400502
0.000399555
0.000398576
0.000397564
0.000396518
0.000395435
0.000394313
0.000393149
0.00039194
0.000390682
0.000389373
0.000388017
0.000386629
0.000385233
0.00016442
0.000226981
0.000341109
0.000362567
0.000306853
0.000317249
0.000361761
0.00040363
0.000429487
0.000442107
0.000446129
0.000445989
0.000444969
0.000444224
0.000443862
0.00044383
0.000444017
0.000444209
0.000444229
0.000444094
0.000443845
0.000443555
0.000443327
0.000443177
0.000443086
0.00044301
0.000442898
0.000442743
0.000442559
0.000442364
0.000442165
0.000441955
0.000441724
0.00044147
0.000441192
0.000440893
0.000440573
0.000440229
0.000439861
0.000439468
0.000439051
0.000438608
0.000438138
0.000437643
0.000437121
0.000436571
0.000435995
0.00043539
0.000434757
0.000434096
0.000433405
0.000432685
0.000431935
0.000431155
0.000430344
0.000429502
0.000428627
0.000427721
0.000426781
0.000425807
0.000424799
0.000423755
0.000422675
0.000421558
0.000420402
0.000419205
0.000417965
0.00041668
0.000415348
0.000413964
0.000412527
0.000411037
0.0004095
0.00040793
0.000406354
0.000160661
0.000223728
0.000351453
0.000371335
0.00032547
0.00034356
0.000390167
0.000429799
0.000453445
0.000464966
0.000468777
0.000468842
0.000468137
0.000467595
0.000467335
0.000467329
0.000467504
0.000467681
0.000467707
0.000467599
0.000467395
0.000467155
0.000466963
0.000466836
0.000466757
0.000466687
0.000466582
0.000466435
0.000466258
0.000466068
0.000465868
0.000465653
0.000465415
0.00046515
0.000464859
0.000464543
0.000464202
0.000463834
0.000463438
0.000463014
0.00046256
0.000462077
0.000461563
0.000461019
0.000460444
0.000459838
0.0004592
0.000458529
0.000457825
0.000457088
0.000456318
0.000455512
0.000454672
0.000453797
0.000452885
0.000451937
0.000450952
0.000449928
0.000448866
0.000447765
0.000446623
0.000445439
0.000444212
0.000442942
0.000441626
0.000440263
0.000438849
0.000437384
0.000435864
0.000434287
0.000432653
0.000430963
0.000429224
0.000427448
0.000425662
0.000162521
0.000222662
0.000364868
0.000381218
0.000345376
0.000370441
0.000417474
0.000454185
0.000475411
0.000485712
0.000489286
0.000489449
0.000489044
0.000488709
0.00048856
0.000488589
0.000488762
0.000488932
0.000488975
0.000488905
0.000488758
0.000488579
0.000488428
0.000488331
0.00048827
0.000488213
0.000488121
0.000487988
0.000487825
0.000487643
0.000487448
0.000487233
0.000486991
0.00048672
0.000486418
0.000486088
0.000485729
0.000485339
0.000484916
0.000484461