/*--------------------------------*- C++ -*----------------------------------*\
| =========                 |                                                 |
| \\      /  F ield         | OpenFOAM: The Open Source CFD Toolbox           |
|  \\    /   O peration     | Version:  2412                                  |
|   \\  /    A nd           | Website:  www.openfoam.com                      |
|    \\/     M anipulation  |                                                 |
\*---------------------------------------------------------------------------*/
FoamFile
{
    version     2.0;
    format      ascii;
    arch        "LSB;label=32;scalar=64";
    class       surfaceScalarField;
    location    "160";
    object      phi;
}
// * * * * * * * * * * * * * * * * * * * * * * * * * * * * * * * * * * * * * //

dimensions      [0 3 -1 0 0 0 0];

oriented        oriented;

internalField   nonuniform List<scalar> 
14654
(
2.35257e-06
2.8315e-07
-2.63572e-06
1.97302e-06
3.79556e-07
9.87128e-07
9.85888e-07
1.28835e-06
-3.01217e-07
1.45886e-06
-1.70508e-07
-4.7155e-07
1.9304e-06
-3.49497e-06
3.02342e-06
-5.02299e-06
1.52802e-06
-4.57821e-06
-4.44772e-07
-3.85496e-06
-7.23259e-07
-3.48002e-06
-3.74932e-07
-3.28553e-06
-1.94498e-07
-3.21828e-06
-6.72531e-08
-3.26082e-06
4.25442e-08
-3.35171e-06
9.08851e-08
-3.41037e-06
5.86647e-08
-3.42657e-06
1.61964e-08
-3.40763e-06
-1.89402e-08
-3.36163e-06
-4.6002e-08
-3.32062e-06
-4.1011e-08
-3.30103e-06
-1.95928e-08
-3.30066e-06
-3.6743e-10
-3.31238e-06
1.17158e-08
-3.32367e-06
1.12908e-08
-3.32943e-06
5.75262e-09
-3.33117e-06
1.73876e-09
-3.33301e-06
1.85373e-09
-3.3378e-06
4.77279e-09
-3.34486e-06
7.07511e-09
-3.35291e-06
8.04025e-09
-3.36065e-06
7.7346e-09
-3.36846e-06
7.81425e-09
-3.37645e-06
7.98323e-09
-3.38498e-06
8.52392e-09
-3.39389e-06
8.94506e-09
-3.40289e-06
8.95255e-09
-3.41215e-06
9.30321e-09
-3.42141e-06
9.20201e-09
-3.43079e-06
9.37457e-09
-3.44003e-06
9.23628e-09
-3.44946e-06
9.4165e-09
-3.45878e-06
9.31703e-09
-3.46816e-06
9.3685e-09
-3.47737e-06
9.29463e-09
-3.48654e-06
9.06622e-09
-3.49557e-06
9.11094e-09
-3.50462e-06
8.92849e-09
-3.51343e-06
8.91778e-09
-3.52192e-06
8.3563e-09
-3.53024e-06
8.3051e-09
-3.53857e-06
8.31068e-09
-3.54649e-06
7.90516e-09
-3.55442e-06
7.89865e-09
-3.56193e-06
7.49232e-09
-3.56926e-06
7.29e-09
-3.57648e-06
7.20758e-09
-3.58341e-06
7.06143e-09
-3.59012e-06
6.51981e-09
-3.59643e-06
6.42807e-09
-3.6024e-06
5.77473e-09
-3.60829e-06
6.03711e-09
-3.61391e-06
5.40587e-09
-3.61907e-06
5.12555e-09
-3.62399e-06
4.88102e-09
-3.62876e-06
4.72084e-09
-3.63317e-06
4.37093e-09
-3.63739e-06
4.17179e-09
-3.64114e-06
3.70399e-09
-3.64472e-06
3.53222e-09
-3.64824e-06
3.47773e-09
-3.65161e-06
3.31121e-09
-3.65484e-06
3.1656e-09
-3.65801e-06
3.10555e-09
-3.66017e-06
2.12671e-09
-3.66208e-06
1.84901e-09
-3.6637e-06
1.58853e-09
-3.66496e-06
1.1922e-09
-3.6658e-06
8.02251e-10
-3.66613e-06
2.70372e-10
-3.6658e-06
-3.60309e-10
-4.6534e-10
-2.2193e-06
1.17817e-06
-1.93615e-06
7.46733e-06
8.88696e-07
-1.09917e-05
6.76168e-06
1.0852e-06
3.58814e-06
4.15943e-06
4.33926e-06
-1.05233e-06
4.47697e-06
-3.08222e-07
-2.43394e-06
8.84131e-06
-1.24562e-05
1.30457e-05
-1.71848e-05
6.25666e-06
-1.57855e-05
-1.84411e-06
-1.34759e-05
-3.03287e-06
-1.22681e-05
-1.58271e-06
-1.16466e-05
-8.16006e-07
-1.14418e-05
-2.72096e-07
-1.15866e-05
1.87394e-07
-1.18789e-05
3.83188e-07
-1.20664e-05
2.46181e-07
-1.21134e-05
6.3186e-08
-1.20459e-05
-8.6508e-08
-1.18951e-05
-1.96743e-07
-1.17621e-05
-1.74073e-07
-1.17001e-05
-8.15361e-08
-1.17009e-05
3.79106e-10
-1.17404e-05
5.12309e-08
-1.17782e-05
4.90638e-08
-1.17977e-05
2.52985e-08
-1.18049e-05
8.91239e-09
-1.18125e-05
9.48517e-09
-1.18298e-05
2.20439e-08
-1.18554e-05
3.26753e-08
-1.18829e-05
3.55779e-08
-1.19109e-05
3.56859e-08
-1.19379e-05
3.48687e-08
-1.19664e-05
3.64374e-08
-1.1997e-05
3.91604e-08
-1.2028e-05
3.99641e-08
-1.20602e-05
4.10262e-08
-1.20923e-05
4.15263e-08
-1.21254e-05
4.21497e-08
-1.21579e-05
4.19316e-08
-1.21913e-05
4.26355e-08
-1.22245e-05
4.2554e-08
-1.22572e-05
4.1975e-08
-1.22903e-05
4.25266e-08
-1.23229e-05
4.19495e-08
-1.23549e-05
4.09803e-08
-1.23872e-05
4.15229e-08
-1.24186e-05
4.01345e-08
-1.24496e-05
4.00964e-08
-1.24803e-05
3.88382e-08
-1.251e-05
3.80098e-08
-1.2539e-05
3.71909e-08
-1.25676e-05
3.64741e-08
-1.25947e-05
3.50406e-08
-1.2622e-05
3.4749e-08
-1.26478e-05
3.30168e-08
-1.2673e-05
3.23555e-08
-1.26971e-05
3.13085e-08
-1.27209e-05
3.00282e-08
-1.27433e-05
2.90458e-08
-1.27647e-05
2.68392e-08
-1.27851e-05
2.66349e-08
-1.28044e-05
2.44151e-08
-1.28235e-05
2.41625e-08
-1.28411e-05
2.23934e-08
-1.28577e-05
2.12592e-08
-1.28731e-05
1.96722e-08
-1.28875e-05
1.8559e-08
-1.29014e-05
1.75166e-08
-1.29141e-05
1.61865e-08
-1.29258e-05
1.50837e-08
-1.29378e-05
1.51703e-08
-1.29496e-05
1.48391e-08
-1.29599e-05
1.33144e-08
-1.29684e-05
1.06242e-08
-1.29745e-05
7.84035e-09
-1.29803e-05
7.28118e-09
-1.29845e-05
5.33745e-09
-1.29874e-05
3.63181e-09
-1.29885e-05
1.24755e-09
-1.2988e-05
-9.71046e-10
-2.69704e-09
-7.12929e-06
4.57755e-06
-8.17674e-06
1.35959e-05
1.62404e-06
-2.62117e-05
1.30252e-05
1.65592e-06
7.29131e-06
9.8933e-06
8.2811e-06
-2.04212e-06
7.73916e-06
2.3373e-07
-6.16754e-06
2.2748e-05
-2.5033e-05
3.19111e-05
-3.33827e-05
1.46063e-05
-3.07953e-05
-4.43148e-06
-2.66352e-05
-7.19298e-06
-2.44408e-05
-3.77705e-06
-2.33201e-05
-1.93673e-06
-2.2969e-05
-6.23266e-07
-2.32509e-05
4.69323e-07
-2.37832e-05
9.15516e-07
-2.41212e-05
5.84158e-07
-2.41971e-05
1.39057e-07
-2.40624e-05
-2.21167e-07
-2.37821e-05
-4.77019e-07
-2.35378e-05
-4.18404e-07
-2.34271e-05
-1.92212e-07
-2.3433e-05
6.2098e-09
-2.35085e-05
1.26796e-07
-2.35807e-05
1.21225e-07
-2.36181e-05
6.27393e-08
-2.3634e-05
2.47423e-08
-2.36522e-05
2.77533e-08
-2.36882e-05
5.80466e-08
-2.37378e-05
8.22489e-08
-2.37939e-05
9.16768e-08
-2.38489e-05
9.06156e-08
-2.39036e-05
8.95752e-08
-2.39608e-05
9.36432e-08
-2.40213e-05
9.96468e-08
-2.40842e-05
1.0299e-07
-2.41478e-05
1.0449e-07
-2.42124e-05
1.06175e-07
-2.42775e-05
1.07156e-07
-2.43431e-05
1.07527e-07
-2.44091e-05
1.08637e-07
-2.44751e-05
1.08606e-07
-2.45414e-05
1.08241e-07
-2.46072e-05
1.08245e-07
-2.46726e-05
1.07522e-07
-2.47376e-05
1.0578e-07
-2.4801e-05
1.05084e-07
-2.48639e-05
1.02877e-07
-2.49262e-05
1.02549e-07
-2.49868e-05
9.9164e-08
-2.50462e-05
9.73851e-08
-2.51041e-05
9.51182e-08
-2.51607e-05
9.30424e-08
-2.52162e-05
9.04698e-08
-2.52693e-05
8.77716e-08
-2.53218e-05
8.54941e-08
-2.53716e-05
8.20952e-08
-2.54206e-05
8.05677e-08
-2.54668e-05
7.59243e-08
-2.55121e-05
7.44584e-08
-2.55551e-05
6.95469e-08
-2.55956e-05
6.74128e-08
-2.56353e-05
6.36959e-08
-2.56717e-05
6.05132e-08
-2.57068e-05
5.74634e-08
-2.57396e-05
5.39655e-08
-2.57705e-05
5.0437e-08
-2.58006e-05
4.8611e-08
-2.58275e-05
4.43723e-08
-2.58522e-05
4.07904e-08
-2.58763e-05
3.90545e-08
-2.59003e-05
3.90702e-08
-2.59235e-05
3.79939e-08
-2.59447e-05
3.43737e-08
-2.59606e-05
2.64953e-08
-2.59733e-05
2.04019e-08
-2.59844e-05
1.82753e-08
-2.59921e-05
1.29438e-08
-2.59974e-05
8.85778e-09
-2.59998e-05
3.59889e-09
-2.59981e-05
-2.77846e-09
-6.82133e-09
-1.30937e-05
1.02677e-05
-1.96464e-05
2.07581e-05
2.47961e-06
-4.94494e-05
2.08966e-05
1.51741e-06
1.2389e-05
1.84009e-05
1.32316e-05
-2.88468e-06
1.08811e-05
2.58419e-06
-1.26057e-05
4.62348e-05
-4.22886e-05
6.1594e-05
-5.45363e-05
2.6854e-05
-5.04836e-05
-8.48412e-06
-4.42967e-05
-1.33799e-05
-4.09985e-05
-7.07525e-06
-3.93277e-05
-3.60757e-06
-3.8838e-05
-1.11297e-06
-3.92929e-05
9.24261e-07
-4.00999e-05
1.72251e-06
-4.06007e-05
1.08495e-06
-4.06976e-05
2.35981e-07
-4.04739e-05
-4.44903e-07
-4.00378e-05
-9.13111e-07
-3.96674e-05
-7.88793e-07
-3.95048e-05
-3.54805e-07
-3.9523e-05
2.43325e-08
-3.96448e-05
2.48594e-07
-3.97586e-05
2.35045e-07
-3.982e-05
1.24159e-07
-3.98492e-05
5.39555e-08
-3.98825e-05
6.10065e-08
-3.99443e-05
1.19814e-07
-4.00308e-05
1.68786e-07
-4.01236e-05
1.84455e-07
-4.02148e-05
1.81814e-07
-4.03074e-05
1.82172e-07
-4.04042e-05
1.9046e-07
-4.05058e-05
2.01203e-07
-4.06105e-05
2.07811e-07
-4.07166e-05
2.10469e-07
-4.08251e-05
2.14704e-07
-4.09338e-05
2.15813e-07
-4.10454e-05
2.19068e-07
-4.11559e-05
2.19159e-07
-4.12669e-05
2.19555e-07
-4.13773e-05
2.18699e-07
-4.14869e-05
2.17827e-07
-4.15964e-05
2.17095e-07
-4.17048e-05
2.14064e-07
-4.18123e-05
2.12707e-07
-4.19182e-05
2.08535e-07
-4.20215e-05
2.06051e-07
-4.21229e-05
2.00316e-07
-4.22227e-05
1.97165e-07
-4.23201e-05
1.92468e-07
-4.24155e-05
1.88457e-07
-4.25086e-05
1.83465e-07
-4.25988e-05
1.77941e-07
-4.26858e-05
1.7238e-07
-4.27705e-05
1.66756e-07
-4.2851e-05
1.61282e-07
-4.29299e-05
1.54562e-07
-4.30044e-05
1.4912e-07
-4.30768e-05
1.41609e-07
-4.31456e-05
1.36432e-07
-4.32111e-05
1.28847e-07
-4.32727e-05
1.22003e-07
-4.33311e-05
1.15853e-07
-4.3388e-05
1.10786e-07
-4.34399e-05
1.02197e-07
-4.34878e-05
9.64208e-08
-4.35323e-05
8.88249e-08
-4.35752e-05
8.35202e-08
-4.36155e-05
7.92531e-08
-4.36546e-05
7.80755e-08
-4.36929e-05
7.61882e-08
-4.37291e-05
7.04838e-08
-4.37554e-05
5.26863e-08
-4.37761e-05
4.09941e-08
-4.37935e-05
3.5598e-08
-4.38076e-05
2.69112e-08
-4.38162e-05
1.73436e-08
-4.38183e-05
5.54276e-09
-4.38154e-05
-5.71698e-09
-1.48172e-08
-2.01273e-05
1.81972e-05
-3.72941e-05
2.87149e-05
3.37114e-06
-8.15354e-05
3.04259e-05
-1.93601e-07
1.91747e-05
2.96521e-05
1.9278e-05
-2.988e-06
1.32581e-05
8.6041e-06
-2.3044e-05
8.25369e-05
-6.54294e-05
0.000103979
-8.16001e-05
4.30248e-05
-7.58585e-05
-1.42258e-05
-6.76107e-05
-2.16276e-05
-6.31541e-05
-1.15319e-05
-6.09269e-05
-5.83474e-06
-6.03236e-05
-1.71623e-06
-6.09863e-05
1.58689e-06
-6.20875e-05
2.8237e-06
-6.2749e-05
1.74647e-06
-6.28497e-05
3.36646e-07
-6.25107e-05
-7.83822e-07
-6.18997e-05
-1.52413e-06
-6.13952e-05
-1.29337e-06
-6.11836e-05
-5.66373e-07
-6.12222e-05
6.29191e-08
-6.14007e-05
4.2709e-07
-6.15648e-05
3.99196e-07
-6.16572e-05
2.16548e-07
-6.17057e-05
1.02382e-07
-6.17636e-05
1.19003e-07
-6.18617e-05
2.17864e-07
-6.19915e-05
2.98597e-07
-6.21343e-05
3.27196e-07
-6.22762e-05
3.2379e-07
-6.24183e-05
3.24231e-07
-6.25657e-05
3.37859e-07
-6.27216e-05
3.57068e-07
-6.2883e-05
3.69257e-07
-6.30467e-05
3.74131e-07
-6.32115e-05
3.79527e-07
-6.33795e-05
3.83718e-07
-6.3548e-05
3.87541e-07
-6.37184e-05
3.89633e-07
-6.3888e-05
3.89108e-07
-6.4058e-05
3.8871e-07
-6.42264e-05
3.86141e-07
-6.43949e-05
3.85729e-07
-6.45609e-05
3.79917e-07
-6.47255e-05
3.77422e-07
-6.48863e-05
3.69188e-07
-6.50465e-05
3.66354e-07
-6.52026e-05
3.56234e-07
-6.53559e-05
3.50467e-07
-6.5505e-05
3.41506e-07
-6.56514e-05
3.34793e-07
-6.5793e-05
3.25029e-07
-6.5931e-05
3.15873e-07
-6.60634e-05
3.0474e-07
-6.61934e-05
2.96739e-07
-6.63184e-05
2.86444e-07
-6.64389e-05
2.74772e-07
-6.65543e-05
2.64594e-07
-6.66641e-05
2.51198e-07
-6.67693e-05
2.41756e-07
-6.68689e-05
2.28164e-07
-6.69649e-05
2.17899e-07
-6.70548e-05
2.05654e-07
-6.71372e-05
1.9313e-07
-6.7218e-05
1.82942e-07
-6.72924e-05
1.70662e-07
-6.73616e-05
1.57972e-07
-6.74262e-05
1.48059e-07
-6.7488e-05
1.40963e-07
-6.75477e-05
1.37643e-07
-6.76067e-05
1.35076e-07
-6.76596e-05
1.23244e-07
-6.77016e-05
9.45316e-08
-6.77325e-05
7.1787e-08
-6.77588e-05
6.18782e-08
-6.7778e-05
4.59953e-08
-6.77916e-05
3.08584e-08
-6.77949e-05
8.68531e-09
-6.77878e-05
-1.28673e-08
-2.80413e-08
-2.80039e-05
2.78924e-05
-6.19269e-05
3.70819e-05
4.16678e-06
-0.000122784
4.15245e-05
-4.63618e-06
2.78642e-05
4.33123e-05
2.64191e-05
-1.54288e-06
1.38473e-05
2.11759e-05
-3.91462e-05
0.00013553
-9.57293e-05
0.000160562
-0.000115516
6.28114e-05
-0.00010799
-2.17518e-05
-9.78382e-05
-3.17793e-05
-9.22745e-05
-1.70956e-05
-8.95364e-05
-8.57286e-06
-8.88695e-05
-2.3831e-06
-8.97607e-05
2.47809e-06
-9.11486e-05
4.21156e-06
-9.19455e-05
2.5434e-06
-9.20245e-05
4.15602e-07
-9.15502e-05
-1.25812e-06
-9.07572e-05
-2.31714e-06
-9.01191e-05
-1.93142e-06
-8.98694e-05
-8.16114e-07
-8.99403e-05
1.33855e-07
-9.01857e-05
6.7247e-07
-9.04067e-05
6.20225e-07
-9.05351e-05
3.44947e-07
-9.06131e-05
1.80312e-07
-9.07049e-05
2.10838e-07
-9.08514e-05
3.64358e-07
-9.10421e-05
4.89312e-07
-9.12455e-05
5.30629e-07
-9.14476e-05
5.25882e-07
-9.16542e-05
5.30754e-07
-9.18685e-05
5.52144e-07
-9.20934e-05
5.82022e-07
-9.23251e-05
6.00987e-07
-9.25613e-05
6.10279e-07
-9.28007e-05
6.18957e-07
-9.3044e-05
6.26913e-07
-9.32857e-05
6.29263e-07
-9.35312e-05
6.35079e-07
-9.37756e-05
6.33522e-07
-9.40212e-05
6.34269e-07
-9.42645e-05
6.29459e-07
-9.45056e-05
6.26935e-07
-9.47456e-05
6.19755e-07
-9.49826e-05
6.14481e-07
-9.52164e-05
6.0279e-07
-9.54446e-05
5.94761e-07
-9.56698e-05
5.81231e-07
-9.5891e-05
5.71647e-07
-9.61081e-05
5.58544e-07
-9.63179e-05
5.4451e-07
-9.65209e-05
5.2794e-07
-9.67206e-05
5.15521e-07
-9.6914e-05
4.98122e-07
-9.71e-05
4.82723e-07
-9.72813e-05
4.6786e-07
-9.74521e-05
4.45264e-07
-9.76179e-05
4.30599e-07
-9.77766e-05
4.09572e-07
-9.79296e-05
3.94931e-07
-9.80747e-05
3.72905e-07
-9.8211e-05
3.5411e-07
-9.8339e-05
3.33578e-07
-9.84628e-05
3.16849e-07
-9.85758e-05
2.95832e-07
-9.86821e-05
2.76862e-07
-9.87813e-05
2.57104e-07
-9.88734e-05
2.39974e-07
-9.89622e-05
2.29727e-07
-9.90483e-05
2.23551e-07
-9.91337e-05
2.20377e-07
-9.9209e-05
1.98346e-07
-9.92673e-05
1.52751e-07
-9.93111e-05
1.15411e-07
-9.93478e-05
9.85544e-08
-9.93763e-05
7.4374e-08
-9.93923e-05
4.67088e-08
-9.9397e-05
1.32289e-08
-9.93851e-05
-2.47741e-08
-4.57928e-08
-3.63219e-05
3.83509e-05
-9.4082e-05
4.56431e-05
4.7771e-06
-0.000173204
5.38627e-05
-1.28557e-05
3.84856e-05
5.86894e-05
3.44678e-05
2.47495e-06
1.1125e-05
4.45187e-05
-6.29407e-05
0.000209596
-0.000134339
0.00023196
-0.000157077
8.55502e-05
-0.000147843
-3.09866e-05
-0.000136137
-4.34846e-05
-0.00012963
-2.36032e-05
-0.000126493
-1.17093e-05
-0.000125826
-3.05014e-06
-0.000126949
3.60094e-06
-0.000128578
5.84063e-06
-0.00012947
3.43507e-06
-0.000129495
4.4124e-07
-0.000128873
-1.88086e-06
-0.000127899
-3.29119e-06
-0.000127153
-2.67681e-06
-0.000126883
-1.08647e-06
-0.000127
2.50493e-07
-0.000127318
9.9137e-07
-0.000127602
9.03416e-07
-0.000127774
5.17815e-07
-0.000127887
2.93016e-07
-0.000128027
3.50787e-07
-0.000128236
5.73e-07
-0.000128494
7.47877e-07
-0.000128774
8.10292e-07
-0.000129053
8.05331e-07
-0.000129336
8.13037e-07
-0.000129631
8.4701e-07
-0.00012994
8.90898e-07
-0.000130258
9.19495e-07
-0.000130581
9.33489e-07
-0.000130909
9.46696e-07
-0.000131238
9.55648e-07
-0.000131572
9.63957e-07
-0.000131906
9.68761e-07
-0.000132243
9.70174e-07
-0.000132575
9.6647e-07
-0.000132909
9.63601e-07
-0.00013324
9.57559e-07
-0.000133568
9.47587e-07
-0.000133892
9.39009e-07
-0.000134211
9.21758e-07
-0.000134527
9.10735e-07
-0.000134835
8.89202e-07
-0.000135136
8.72572e-07
-0.00013543
8.52605e-07
-0.000135718
8.3167e-07
-0.000135999
8.0916e-07
-0.000136271
7.87434e-07
-0.000136535
7.62657e-07
-0.00013679
7.37309e-07
-0.000137034
7.12263e-07
-0.000137271
6.82091e-07
-0.0001375
6.59837e-07
-0.000137714
6.23311e-07
-0.000137922
6.02397e-07
-0.000138119
5.69935e-07
-0.000138306
5.40625e-07
-0.000138484
5.11345e-07
-0.000138648
4.815e-07
-0.000138805
4.5269e-07
-0.00013895
4.21505e-07
-0.000139086
3.9323e-07
-0.000139211
3.64836e-07
-0.000139332
3.50401e-07
-0.000139448
3.39587e-07
-0.000139562
3.34277e-07
-0.000139666
3.02646e-07
-0.000139746
2.3175e-07
-0.000139804
1.74032e-07
-0.000139854
1.48114e-07
-0.000139888
1.08659e-07
-0.00013991
6.84588e-08
-0.000139913
1.59868e-08
-0.000139899
-3.92737e-08
-7.45611e-08
-4.48136e-05
4.83528e-05
-0.000134119
5.41356e-05
5.17135e-06
-0.000232511
6.69563e-05
-2.56765e-05
5.0789e-05
7.48567e-05
4.2893e-05
1.0371e-05
3.03244e-06
8.43792e-05
-9.65739e-05
0.000309202
-0.000182074
0.000317461
-0.000206734
0.00011021
-0.000195974
-4.17463e-05
-0.000183152
-5.63066e-05
-0.000175957
-3.07988e-05
-0.000172574
-1.50917e-05
-0.000171972
-3.65282e-06
-0.000173307
4.9362e-06
-0.000175123
7.65724e-06
-0.000176056
4.36749e-06
-0.000175996
3.81626e-07
-0.000175221
-2.65657e-06
-0.000174098
-4.41354e-06
-0.000173267
-3.50798e-06
-0.000172997
-1.35606e-06
-0.000173175
4.28086e-07
-0.000173569
1.38531e-06
-0.000173917
1.25116e-06
-0.000174137
7.38608e-07
-0.0001743
4.55099e-07
-0.000174494
5.44966e-07
-0.000174773
8.51918e-07
-0.000175115
1.09022e-06
-0.000175477
1.1721e-06
-0.000175842
1.17018e-06
-0.000176209
1.18063e-06
-0.000176597
1.2346e-06
-0.000176998
1.29227e-06
-0.000177413
1.33437e-06
-0.000177834
1.35403e-06
-0.000178258
1.37074e-06
-0.000178688
1.38624e-06
-0.000179125
1.40089e-06
-0.00017956
1.40371e-06
-0.000179995
1.40535e-06
-0.000180431
1.40187e-06
-0.000180864
1.39639e-06
-0.000181296
1.38968e-06
-0.000181722
1.37382e-06
-0.00018214
1.35747e-06
-0.000182557
1.33813e-06
-0.000182966
1.31988e-06
-0.000183367
1.2902e-06
-0.000183758
1.26369e-06
-0.00018414
1.23431e-06
-0.000184515
1.20617e-06
-0.000184881
1.17511e-06
-0.000185233
1.13944e-06
-0.000185575
1.1044e-06
-0.000185907
1.06986e-06
-0.000186227
1.03255e-06
-0.000186534
9.88224e-07
-0.000186825
9.50945e-07
-0.000187109
9.0725e-07
-0.000187379
8.72287e-07
-0.000187634
8.24975e-07
-0.000187876
7.8236e-07
-0.000188105
7.40843e-07
-0.00018832
6.96485e-07
-0.000188521
6.5335e-07
-0.00018871
6.1004e-07
-0.000188886
5.68837e-07
-0.000189051
5.29817e-07
-0.000189204
5.03429e-07
-0.000189357
4.93071e-07
-0.000189504
4.80664e-07
-0.000189638
4.36979e-07
-0.000189739
3.32636e-07
-0.000189817
2.51549e-07
-0.000189878
2.09156e-07
-0.000189928
1.58358e-07
-0.000189953
9.3475e-08
-0.000189956
1.84042e-08
-0.000189933
-6.23479e-08
-1.10761e-07
-5.30701e-05
5.66071e-05
-0.000182017
6.24485e-05
5.27775e-06
-0.000300237
8.02683e-05
-4.34962e-05
6.44407e-05
9.06843e-05
5.03058e-05
2.45059e-05
-1.30727e-05
0.000147758
-0.000141697
0.000437826
-0.000239204
0.000414968
-0.000264413
0.000135419
-0.000252287
-5.38723e-05
-0.000238692
-6.99015e-05
-0.00023105
-3.84407e-05
-0.000227559
-1.85831e-05
-0.000227089
-4.12244e-06
-0.000228628
6.47547e-06
-0.000230578
9.60667e-06
-0.00023151
5.30001e-06
-0.000231348
2.1993e-07
-0.000230419
-3.58558e-06
-0.000229166
-5.66723e-06
-0.000228279
-4.39518e-06
-0.000228034
-1.60116e-06
-0.000228276
6.70901e-07
-0.000228752
1.86052e-06
-0.000229163
1.66217e-06
-0.000229436
1.01229e-06
-0.000229645
6.64045e-07
-0.000229908
8.07445e-07
-0.000230264
1.20824e-06
-0.000230692
1.51778e-06
-0.000231139
1.61994e-06
-0.000231594
1.62522e-06
-0.000232056
1.64229e-06
-0.000232539
1.7173e-06
-0.000233039
1.79237e-06
-0.000233553
1.84816e-06
-0.000234076
1.87726e-06
-0.000234606
1.90096e-06
-0.000235141
1.92135e-06
-0.000235676
1.93604e-06
-0.00023622
1.94695e-06
-0.000236763
1.94864e-06
-0.000237302
1.94067e-06
-0.000237841
1.93536e-06
-0.000238375
1.92437e-06
-0.000238903
1.90167e-06
-0.000239428
1.8825e-06
-0.000239942
1.85154e-06
-0.000240448
1.82593e-06
-0.000240944
1.78574e-06
-0.000241431
1.75142e-06
-0.000241907
1.70975e-06
-0.00024237
1.66935e-06
-0.000242821
1.62632e-06
-0.00024326
1.57782e-06
-0.000243683
1.52794e-06
-0.000244095
1.48127e-06
-0.000244491
1.42879e-06
-0.000244871
1.36838e-06
-0.000245239
1.31846e-06
-0.000245586
1.25462e-06
-0.000245919
1.20543e-06
-0.000246238
1.14398e-06
-0.000246538
1.08223e-06
-0.00024682
1.02276e-06
-0.000247088
9.63896e-07
-0.000247341
9.06685e-07
-0.000247578
8.4633e-07
-0.000247793
7.84279e-07
-0.000247996
7.32298e-07
-0.000248189
6.96897e-07
-0.000248379
6.83191e-07
-0.000248563
6.64054e-07
-0.000248732
6.06078e-07
-0.000248858
4.58487e-07
-0.00024895
3.43479e-07
-0.000249034
2.9283e-07
-0.000249088
2.12164e-07
-0.000249123
1.2869e-07
-0.000249129
2.46005e-08
-0.000249102
-8.98113e-08
-1.5584e-07
-6.09931e-05
6.21679e-05
-0.000237733
7.04232e-05
5.07123e-06
-0.000375732
9.33771e-05
-6.64501e-05
7.86787e-05
0.000105383
5.43108e-05
4.88739e-05
-4.02176e-05
0.000242286
-0.00019918
0.000596789
-0.000305366
0.000521154
-0.000329602
0.000159654
-0.000316135
-6.73387e-05
-0.000301918
-8.41192e-05
-0.000293994
-4.63642e-05
-0.000290508
-2.20697e-05
-0.000290223
-4.40703e-06
-0.00029198
8.23291e-06
-0.000294044
1.16705e-05
-0.000294942
6.19767e-06
-0.000294659
-6.32116e-08
-0.000293578
-4.66676e-06
-0.000292199
-7.04549e-06
-0.000291277
-5.31706e-06
-0.000291069
-1.80941e-06
-0.000291388
9.8954e-07
-0.000291945
2.41799e-06
-0.000292423
2.1402e-06
-0.000292748
1.33743e-06
-0.000293017
9.32126e-07
-0.000293343
1.13421e-06
-0.000293783
1.64807e-06
-0.000294299
2.03321e-06
-0.000294845
2.16588e-06
-0.000295386
2.16643e-06
-0.000295946
2.20273e-06
-0.000296525
2.29624e-06
-0.000297128
2.39547e-06
-0.000297748
2.46805e-06
-0.000298378
2.50753e-06
-0.000299013
2.53516e-06
-0.000299656
2.56502e-06
-0.000300304
2.5839e-06
-0.000300956
2.59849e-06
-0.000301603
2.59588e-06
-0.000302253
2.59037e-06
-0.000302898
2.58063e-06
-0.000303537
2.56377e-06
-0.000304173
2.53696e-06
-0.000304799
2.50894e-06
-0.00030542
2.472e-06
-0.000306025
2.4312e-06
-0.000306624
2.38442e-06
-0.000307205
2.33283e-06
-0.000307778
2.28218e-06
-0.000308334
2.22591e-06
-0.000308876
2.16781e-06
-0.000309403
2.10521e-06
-0.000309916
2.04072e-06
-0.000310406
1.97165e-06
-0.000310882
1.90419e-06
-0.000311342
1.82871e-06
-0.000311779
1.755e-06
-0.000312203
1.6786e-06
-0.000312603
1.6057e-06
-0.000312986
1.52716e-06
-0.000313351
1.44695e-06
-0.000313693
1.3647e-06
-0.000314017
1.28731e-06
-0.000314319
1.20858e-06
-0.0003146
1.12774e-06
-0.000314868
1.05181e-06
-0.000315115
9.79325e-07
-0.000315354
9.36174e-07
-0.000315584
9.12752e-07
-0.000315809
8.88814e-07
-0.00031601
8.07488e-07
-0.000316166
6.14385e-07
-0.000316286
4.63075e-07
-0.000316385
3.9186e-07
-0.000316459
2.85749e-07
-0.000316503
1.73155e-07
-0.000316513
3.45516e-08
-0.000316491
-1.12274e-07
-2.0743e-07
-6.84656e-05
6.45598e-05
-0.000301127
7.81475e-05
4.60379e-06
-0.000458483
0.000105883
-9.41858e-05
9.22472e-05
0.000119019
5.18051e-05
8.93159e-05
-8.14969e-05
0.000375588
-0.000269087
0.000784379
-0.000379677
0.000631744
-0.000401794
0.000181771
-0.000387005
-8.21271e-05
-0.000372229
-9.88957e-05
-0.000364153
-5.44396e-05
-0.000360762
-2.54605e-05
-0.000360721
-4.44879e-06
-0.0003627
1.02122e-05
-0.000364848
1.38183e-05
-0.000365684
7.03391e-06
-0.000365257
-4.90329e-07
-0.000364013
-5.91022e-06
-0.000362527
-8.53198e-06
-0.000361581
-6.26275e-06
-0.000361424
-1.96629e-06
-0.000361831
1.39593e-06
-0.000362476
3.06301e-06
-0.000363025
2.68891e-06
-0.00036341
1.72311e-06
-0.000363739
1.26125e-06
-0.000364142
1.53656e-06
-0.000364671
2.17778e-06
-0.000365285
2.64718e-06
-0.000365928
2.80815e-06
-0.000366576
2.8145e-06
-0.000367236
2.86255e-06
-0.000367922
2.98246e-06
-0.000368641
3.11456e-06
-0.000369371
3.19822e-06
-0.00037011
3.24681e-06
-0.000370866
3.29066e-06
-0.000371622
3.32155e-06
-0.000372388
3.34947e-06
-0.000373155
3.36544e-06
-0.000373922
3.36251e-06
-0.000374688
3.35693e-06
-0.000375448
3.34035e-06
-0.000376206
3.32203e-06
-0.000376954
3.28467e-06
-0.000377694
3.24959e-06
-0.000378425
3.20207e-06
-0.00037914
3.14704e-06
-0.000379846
3.09e-06
-0.000380538
3.02479e-06
-0.00038121
2.95393e-06
-0.000381871
2.88664e-06
-0.000382509
2.80637e-06
-0.000383135
2.73092e-06
-0.000383737
2.64277e-06
-0.000384322
2.55705e-06
-0.000384889
2.47076e-06
-0.000385431
2.37103e-06
-0.000385952
2.27606e-06
-0.000386454
2.18059e-06
-0.000386932
2.08362e-06
-0.000387387
1.98184e-06
-0.000387822
1.88143e-06
-0.000388231
1.77438e-06
-0.000388617
1.67247e-06
-0.000388983
1.57457e-06
-0.000389324
1.46941e-06
-0.000389642
1.36957e-06
-0.000389942
1.27936e-06
-0.000390225
1.21924e-06
-0.000390507
1.19443e-06
-0.000390783
1.16507e-06
-0.000391031
1.05545e-06
-0.000391226
8.0871e-07
-0.000391372
6.09391e-07
-0.0003915
5.19177e-07
-0.000391598
3.8375e-07
-0.000391662
2.37864e-07
-0.000391683
5.47887e-08
-0.000391664
-1.31085e-07
-2.54312e-07
-7.53001e-05
6.36994e-05
-0.000371823
8.59917e-05
3.92262e-06
-0.000548398
0.000117841
-0.000126035
0.000103784
0.000133076
3.94323e-05
0.000153667
-0.000139343
0.000554363
-0.000350801
0.000995837
-0.000461463
0.000742406
-0.000481089
0.000201397
-0.000465204
-9.8012e-05
-0.000449991
-0.000114109
-0.000441869
-6.25614e-05
-0.000438636
-2.86929e-05
-0.000438851
-4.23411e-06
-0.000441025
1.23865e-05
-0.000443226
1.60192e-05
-0.000443974
7.78132e-06
-0.000443394
-1.06988e-06
-0.000441999
-7.3057e-06
-0.000440415
-1.01155e-05
-0.000439464
-7.21364e-06
-0.000439375
-2.05576e-06
-0.000439882
1.90332e-06
-0.000440628
3.80863e-06
-0.000441253
3.31412e-06
-0.000441704
2.17385e-06
-0.000442106
1.6636e-06
-0.000442596
2.02618e-06
-0.000443226
2.80842e-06
-0.000443953
3.37393e-06
-0.000444708
3.56342e-06
-0.00044547
3.57609e-06
-0.000446248
3.64069e-06
-0.000447059
3.79353e-06
-0.000447897
3.95208e-06
-0.000448758
4.05972e-06
-0.000449632
4.12053e-06
-0.000450511
4.16952e-06
-0.000451404
4.21458e-06
-0.0004523
4.24565e-06
-0.000453198
4.26342e-06
-0.000454102
4.26633e-06
-0.000454997
4.25198e-06
-0.000455894
4.23713e-06
-0.000456778
4.20633e-06
-0.000457658
4.16506e-06
-0.000458526
4.11699e-06
-0.000459381
4.05751e-06
-0.000460231
3.99686e-06
-0.000461054
3.91275e-06
-0.000461862
3.83265e-06
-0.000462658
3.75006e-06
-0.000463434
3.66271e-06
-0.000464189
3.56109e-06
-0.000464922
3.46448e-06
-0.000465636
3.35634e-06
-0.000466326
3.24673e-06
-0.000466991
3.13557e-06
-0.000467635
3.01527e-06
-0.000468252
2.89333e-06
-0.000468841
2.76983e-06
-0.000469415
2.65761e-06
-0.000469958
2.52443e-06
-0.000470472
2.39487e-06
-0.00047096
2.26263e-06
-0.000471424
2.13678e-06
-0.000471859
2.00878e-06
-0.00047227
1.88052e-06
-0.000472653
1.75264e-06
-0.000473015
1.6413e-06
-0.000473365
1.56887e-06
-0.000473709
1.5384e-06
-0.000474043
1.49892e-06
-0.000474345
1.35818e-06
-0.000474583
1.04656e-06
-0.000474771
7.97115e-07
-0.000474934
6.82368e-07
-0.000475065
5.14305e-07
-0.000475153
3.25676e-07
-0.0004752
1.01338e-07
-0.000475187
-1.43255e-07
-2.88969e-07
-8.13095e-05
5.96235e-05
-0.00044921
9.43496e-05
2.96851e-06
-0.000645716
0.000129159
-0.000160845
0.000111378
0.000150857
1.40082e-05
0.000251037
-0.000214626
0.000782997
-0.000443952
0.00122516
-0.000551155
0.000849609
-0.000568538
0.000218779
-0.000551977
-0.000114572
-0.000536503
-0.000129584
-0.000528393
-7.06711e-05
-0.000525329
-3.17573e-05
-0.000525768
-3.79503e-06
-0.000528108
1.47266e-05
-0.000530324
1.82355e-05
-0.000530965
8.4218e-06
-0.00053023
-1.80413e-06
-0.000528698
-8.8377e-06
-0.000527034
-1.17799e-05
-0.000526104
-8.14407e-06
-0.000526103
-2.05677e-06
-0.000526721
2.5214e-06
-0.000527574
4.66191e-06
-0.000528285
4.02515e-06
-0.000528816
2.70515e-06
-0.000529307
2.15447e-06
-0.000529905
2.62414e-06
-0.000530656
3.55908e-06
-0.00053151
4.2277e-06
-0.000532398
4.45194e-06
-0.000533291
4.4688e-06
-0.000534205
4.55493e-06
-0.000535155
4.74388e-06
-0.00053614
4.93655e-06
-0.000537148
5.06806e-06
-0.000538171
5.14325e-06
-0.000539202
5.20058e-06
-0.000540248
5.26067e-06
-0.000541299
5.29609e-06
-0.000542353
5.31802e-06
-0.000543401
5.31468e-06
-0.000544456
5.30679e-06
-0.0005455
5.28102e-06
-0.000546544
5.25007e-06
-0.000547573
5.19435e-06
-0.000548596
5.14002e-06
-0.000549599
5.06063e-06
-0.000550582
4.97958e-06
-0.000551556
4.88697e-06
-0.000552514
4.79008e-06
-0.000553446
4.68193e-06
-0.000554353
4.56983e-06
-0.000555241
4.44913e-06
-0.000556105
4.32882e-06
-0.000556944
4.19514e-06
-0.000557759
4.06213e-06
-0.000558545
3.92101e-06
-0.000559305
3.77533e-06
-0.000560036
3.62435e-06
-0.000560739
3.47314e-06
-0.00056141
3.32863e-06
-0.000562053
3.16734e-06
-0.000562668
3.0096e-06
-0.000563252
2.84605e-06
-0.000563803
2.68857e-06
-0.000564326
2.53159e-06
-0.000564817
2.37173e-06
-0.00056528
2.21508e-06
-0.000565721
2.08271e-06
-0.000566141
1.98829e-06
-0.000566556
1.95359e-06
-0.000566967
1.90989e-06
-0.000567342
1.73333e-06
-0.000567638
1.34265e-06
-0.000567877
1.03537e-06
-0.000568085
8.90185e-07
-0.000568253
6.82522e-07
-0.000568377
4.49444e-07
-0.000568442
1.66462e-07
-0.000568452
-1.33403e-07
-3.12742e-07
-8.65646e-05
5.26732e-05
-0.000532806
0.000103441
1.6228e-06
-0.000750779
0.000139794
-0.000197198
0.000112067
0.000178584
-2.77582e-05
0.000390862
-0.000307154
0.00106239
-0.000548474
0.00146648
-0.000650007
0.000951142
-0.000665968
0.00023474
-0.000649225
-0.000131315
-0.000633607
-0.000145202
-0.000625496
-7.87823e-05
-0.000622574
-3.46792e-05
-0.000623188
-3.18123e-06
-0.000625634
1.71732e-05
-0.000627852
2.04527e-05
-0.000628387
8.95769e-06
-0.000627519
-2.67292e-06
-0.00062587
-1.04867e-05
-0.000624156
-1.34933e-05
-0.000623264
-9.03645e-06
-0.000623358
-1.96292e-06
-0.000624096
3.26004e-06
-0.000625066
5.63126e-06
-0.000625884
4.84381e-06
-0.000626515
3.3354e-06
-0.000627111
2.75097e-06
-0.000627834
3.34719e-06
-0.000628732
4.45635e-06
-0.000629731
5.2271e-06
-0.000630763
5.48439e-06
-0.000631819
5.52431e-06
-0.00063289
5.62638e-06
-0.000634008
5.86194e-06
-0.000635158
6.08616e-06
-0.000636338
6.24791e-06
-0.000637534
6.33904e-06
-0.000638742
6.40908e-06
-0.000639958
6.47613e-06
-0.000641191
6.52958e-06
-0.000642423
6.54969e-06
-0.000643658
6.55017e-06
-0.000644887
6.53534e-06
-0.000646114
6.50835e-06
-0.000647329
6.46497e-06
-0.000648536
6.40117e-06
-0.000649725
6.32922e-06
-0.000650905
6.24056e-06
-0.000652066
6.14095e-06
-0.000653202
6.02292e-06
-0.000654319
5.90617e-06
-0.000655413
5.77602e-06
-0.000656483
5.64046e-06
-0.000657529
5.49483e-06
-0.000658543
5.34234e-06
-0.000659532
5.18469e-06
-0.00066049
5.0198e-06
-0.00066142
4.85138e-06
-0.000662311
4.66615e-06
-0.000663173
4.48662e-06
-0.000664005
4.30451e-06
-0.000664802
4.12543e-06
-0.000665567
3.93238e-06
-0.000666294
3.73709e-06
-0.000666987
3.53868e-06
-0.000667645
3.34618e-06
-0.00066827
3.15654e-06
-0.000668862
2.96366e-06
-0.000669419
2.77281e-06
-0.000669945
2.60844e-06
-0.000670465
2.50762e-06
-0.000670967
2.45599e-06
-0.000671461
2.40381e-06
-0.00067192
2.19224e-06
-0.000672285
1.7078e-06
-0.00067258
1.33044e-06
-0.000672846
1.15523e-06
-0.000673063
9.00046e-07
-0.000673228
6.14606e-07
-0.000673329
2.66613e-07
-0.000673359
-1.03362e-07
-3.16099e-07
-9.13799e-05
4.34639e-05
-0.000622563
0.000113485
-2.6243e-07
-0.000864001
0.000149571
-0.000233284
0.000103733
0.000224422
-8.80215e-05
0.000582617
-0.000416912
0.00139128
-0.000664813
0.00171438
-0.000759987
0.00104632
-0.000775635
0.000250388
-0.000759155
-0.000147795
-0.000743437
-0.000160919
-0.000735271
-8.69481e-05
-0.00073242
-3.75304e-05
-0.000733142