/*--------------------------------*- C++ -*----------------------------------*\
| =========                 |                                                 |
| \\      /  F ield         | OpenFOAM: The Open Source CFD Toolbox           |
|  \\    /   O peration     | Version:  2412                                  |
|   \\  /    A nd           | Website:  www.openfoam.com                      |
|    \\/     M anipulation  |                                                 |
\*---------------------------------------------------------------------------*/
FoamFile
{
    version     2.0;
    format      ascii;
    arch        "LSB;label=32;scalar=64";
    class       volScalarField;
    location    "140";
    object      nut;
}
// * * * * * * * * * * * * * * * * * * * * * * * * * * * * * * * * * * * * * //

dimensions      [0 2 -1 0 0 0 0];

internalField   nonuniform List<scalar> 
7423
(
8.43829e-10
1.17365e-09
1.43957e-09
1.42137e-09
9.05317e-10
4.90704e-10
2.69011e-10
5.27276e-11
3.92524e-11
3.12051e-11
2.54823e-11
2.16655e-11
1.92728e-11
1.91935e-11
1.68863e-11
1.64399e-11
1.61582e-11
1.43761e-11
1.57276e-11
1.55305e-11
1.52917e-11
1.50383e-11
1.45783e-11
1.413e-11
1.38369e-11
1.35973e-11
1.3365e-11
1.31312e-11
1.28921e-11
1.26487e-11
1.24008e-11
1.21489e-11
1.18943e-11
1.16373e-11
1.13784e-11
1.11186e-11
1.08589e-11
1.05993e-11
1.03406e-11
1.00837e-11
9.82993e-12
9.57884e-12
9.33124e-12
9.08815e-12
8.84859e-12
8.61426e-12
8.38512e-12
8.16101e-12
7.94212e-12
7.72889e-12
7.52154e-12
7.3189e-12
7.12161e-12
6.93032e-12
6.74479e-12
6.56373e-12
6.38791e-12
6.2173e-12
6.05186e-12
5.89106e-12
5.73471e-12
5.58345e-12
5.43692e-12
5.29469e-12
5.15719e-12
5.02409e-12
4.8955e-12
4.77151e-12
4.65299e-12
4.53895e-12
4.42919e-12
4.32331e-12
4.22105e-12
4.1211e-12
4.02352e-12
3.93326e-12
7.65848e-08
1.13205e-07
1.43608e-07
1.47539e-07
1.0534e-07
6.29631e-08
3.59949e-08
3.38938e-09
2.63825e-09
2.26011e-09
1.95784e-09
1.74961e-09
1.62294e-09
2.12421e-09
1.50723e-09
1.49997e-09
1.50043e-09
1.4478e-09
1.49428e-09
1.48635e-09
1.46872e-09
1.44316e-09
1.38707e-09
1.36167e-09
1.33869e-09
1.31551e-09
1.29231e-09
1.26896e-09
1.24519e-09
1.22109e-09
1.19668e-09
1.17195e-09
1.14699e-09
1.12187e-09
1.09661e-09
1.07131e-09
1.04605e-09
1.02085e-09
9.95757e-10
9.70863e-10
9.46281e-10
9.21982e-10
8.98026e-10
8.74528e-10
8.51392e-10
8.2876e-10
8.06642e-10
7.85004e-10
7.63886e-10
7.43312e-10
7.23307e-10
7.03778e-10
6.84765e-10
6.66322e-10
6.48441e-10
6.31006e-10
6.14058e-10
5.97612e-10
5.81677e-10
5.66198e-10
5.51144e-10
5.36564e-10
5.22461e-10
5.08776e-10
4.95522e-10
4.82696e-10
4.70322e-10
4.58389e-10
4.46956e-10
4.3596e-10
4.25381e-10
4.15165e-10
4.05298e-10
3.95659e-10
3.86246e-10
3.77532e-10
5.2039e-07
8.31111e-07
1.10147e-06
1.17553e-06
9.19771e-07
5.98199e-07
3.63003e-07
4.13391e-08
2.98216e-08
2.24214e-08
1.77539e-08
1.53468e-08
1.41696e-08
2.42208e-08
1.33933e-08
1.34971e-08
1.36775e-08
1.5555e-08
1.3929e-08
1.39781e-08
1.38991e-08
1.36714e-08
1.31565e-08
1.33414e-08
1.32339e-08
1.3013e-08
1.27749e-08
1.25338e-08
1.22896e-08
1.20435e-08
1.17954e-08
1.15455e-08
1.12942e-08
1.10421e-08
1.07894e-08
1.05368e-08
1.02849e-08
1.00342e-08
9.78525e-09
9.53847e-09
9.29478e-09
9.05445e-09
8.81764e-09
8.58534e-09
8.35716e-09
8.13386e-09
7.91576e-09
7.70244e-09
7.49422e-09
7.2916e-09
7.09453e-09
6.90232e-09
6.71525e-09
6.53375e-09
6.35769e-09
6.18631e-09
6.01966e-09
5.85799e-09
5.7013e-09
5.54915e-09
5.4013e-09
5.258e-09
5.1193e-09
4.98482e-09
4.85456e-09
4.72852e-09
4.60686e-09
4.48953e-09
4.37696e-09
4.26871e-09
4.16453e-09
4.06385e-09
3.96659e-09
3.87162e-09
3.77891e-09
3.6928e-09
1.58073e-06
2.6469e-06
3.76601e-06
4.2033e-06
3.60624e-06
2.54603e-06
1.65604e-06
2.63445e-07
1.84649e-07
1.33766e-07
1.01131e-07
8.12815e-08
6.93896e-08
1.37534e-07
6.08485e-08
6.0711e-08
6.1537e-08
8.63109e-08
6.35377e-08
6.42787e-08
6.44134e-08
6.3541e-08
6.18122e-08
6.57517e-08
6.60388e-08
6.50075e-08
6.37637e-08
6.24951e-08
6.12187e-08
5.99409e-08
5.86607e-08
5.73788e-08
5.60954e-08
5.48134e-08
5.3533e-08
5.22567e-08
5.0987e-08
4.97268e-08
4.84773e-08
4.72415e-08
4.60224e-08
4.48212e-08
4.36399e-08
4.24814e-08
4.13448e-08
4.02336e-08
3.91484e-08
3.80878e-08
3.70527e-08
3.60462e-08
3.50678e-08
3.41134e-08
3.3185e-08
3.22846e-08
3.14112e-08
3.05613e-08
2.97352e-08
2.8934e-08
2.81576e-08
2.74035e-08
2.66712e-08
2.59611e-08
2.52736e-08
2.46072e-08
2.39618e-08
2.33373e-08
2.27339e-08
2.21518e-08
2.15928e-08
2.10551e-08
2.05373e-08
2.0037e-08
1.95534e-08
1.9081e-08
1.86201e-08
1.81903e-08
3.33558e-06
5.60599e-06
8.38466e-06
9.91682e-06
9.39396e-06
7.19643e-06
5.04536e-06
1.19382e-06
8.25016e-07
5.84736e-07
4.3218e-07
3.37594e-07
2.7778e-07
5.37211e-07
2.19211e-07
2.07974e-07
2.04458e-07
3.40308e-07
2.07609e-07
2.10253e-07
2.11781e-07
2.09606e-07
2.07587e-07
2.32082e-07
2.35911e-07
2.32418e-07
2.2774e-07
2.22932e-07
2.18133e-07
2.13365e-07
2.08621e-07
2.03899e-07
1.99198e-07
1.94522e-07
1.89873e-07
1.85254e-07
1.80672e-07
1.76137e-07
1.71651e-07
1.67223e-07
1.62861e-07
1.58571e-07
1.54355e-07
1.50226e-07
1.46178e-07
1.42225e-07
1.38367e-07
1.34599e-07
1.30923e-07
1.27349e-07
1.23878e-07
1.20494e-07
1.17201e-07
1.14009e-07
1.10914e-07
1.07903e-07
1.04976e-07
1.02139e-07
9.939e-08
9.67199e-08
9.41268e-08
9.16127e-08
8.9178e-08
8.68183e-08
8.45319e-08
8.23192e-08
8.018e-08
7.81153e-08
7.61295e-08
7.42187e-08
7.23786e-08
7.06002e-08
6.88802e-08
6.71992e-08
6.55605e-08
6.40252e-08
5.71863e-06
9.63116e-06
1.49469e-05
1.87545e-05
1.90599e-05
1.58591e-05
1.19935e-05
4.34685e-06
2.98799e-06
2.10164e-06
1.53527e-06
1.1786e-06
9.50713e-07
1.63522e-06
7.12376e-07
6.52468e-07
6.16853e-07
1.06585e-06
5.90588e-07
5.89378e-07
5.90744e-07
5.84396e-07
5.88039e-07
6.75792e-07
6.90752e-07
6.80231e-07
6.65629e-07
6.50654e-07
6.35838e-07
6.21234e-07
6.06814e-07
5.9255e-07
5.78438e-07
5.64467e-07
5.50639e-07
5.36957e-07
5.23432e-07
5.10079e-07
4.96909e-07
4.83936e-07
4.7118e-07
4.58655e-07
4.46367e-07
4.34339e-07
4.22565e-07
4.11074e-07
3.99867e-07
3.88932e-07
3.78268e-07
3.67905e-07
3.57842e-07
3.48041e-07
3.38505e-07
3.2926e-07
3.203e-07
3.11583e-07
3.03114e-07
2.94903e-07
2.86948e-07
2.79224e-07
2.71721e-07
2.64446e-07
2.574e-07
2.5057e-07
2.43949e-07
2.37539e-07
2.31337e-07
2.25346e-07
2.19577e-07
2.14022e-07
2.0867e-07
2.03496e-07
1.9849e-07
1.93597e-07
1.88833e-07
1.84346e-07
8.40452e-06
1.43864e-05
2.32896e-05
3.07318e-05
3.31214e-05
3.02115e-05
2.44541e-05
1.34577e-05
9.3095e-06
6.56249e-06
4.77763e-06
3.63865e-06
2.90305e-06
4.14863e-06
2.10902e-06
1.89602e-06
1.75611e-06
2.79353e-06
1.61038e-06
1.57527e-06
1.5566e-06
1.5291e-06
1.54127e-06
1.74301e-06
1.77136e-06
1.73999e-06
1.69943e-06
1.65846e-06
1.61837e-06
1.57918e-06
1.54079e-06
1.50308e-06
1.46601e-06
1.42952e-06
1.39357e-06
1.35816e-06
1.32329e-06
1.28898e-06
1.25523e-06
1.22208e-06
1.18954e-06
1.15765e-06
1.12642e-06
1.0959e-06
1.06604e-06
1.03693e-06
1.00857e-06
9.80912e-07
9.5396e-07
9.27771e-07
9.02357e-07
8.77614e-07
8.53546e-07
8.30212e-07
8.076e-07
7.85618e-07
7.64259e-07
7.43542e-07
7.23471e-07
7.0399e-07
6.85064e-07
6.66709e-07
6.48925e-07
6.31682e-07
6.14963e-07
5.98765e-07
5.83072e-07
5.67899e-07
5.53271e-07
5.3917e-07
5.25573e-07
5.1243e-07
4.99704e-07
4.87271e-07
4.75183e-07
4.63729e-07
1.08643e-05
1.91351e-05
3.25409e-05
4.48624e-05
5.08353e-05
5.01944e-05
4.42944e-05
3.23126e-05
2.43673e-05
1.78926e-05
1.32499e-05
1.01401e-05
8.06999e-06
9.2188e-06
5.76876e-06
5.13197e-06
4.70083e-06
6.34588e-06
4.20657e-06
4.05748e-06
3.95562e-06
3.85042e-06
3.83608e-06
4.12128e-06
4.12394e-06
4.0326e-06
3.92893e-06
3.82668e-06
3.72794e-06
3.63232e-06
3.53943e-06
3.44892e-06
3.36054e-06
3.27409e-06
3.18939e-06
3.10638e-06
3.02499e-06
2.94521e-06
2.86701e-06
2.79041e-06
2.71542e-06
2.64206e-06
2.57037e-06
2.5004e-06
2.43207e-06
2.36549e-06
2.30069e-06
2.23756e-06
2.17607e-06
2.11635e-06
2.05841e-06
2.00204e-06
1.94722e-06
1.89406e-06
1.84256e-06
1.79251e-06
1.74387e-06
1.69669e-06
1.65098e-06
1.60661e-06
1.5635e-06
1.52167e-06
1.48112e-06
1.44179e-06
1.40364e-06
1.36665e-06
1.33077e-06
1.29602e-06
1.26247e-06
1.23008e-06
1.19883e-06
1.1686e-06
1.13933e-06
1.11072e-06
1.08298e-06
1.0565e-06
1.25218e-05
2.29689e-05
4.15185e-05
5.96711e-05
7.04647e-05
7.38702e-05
7.02914e-05
5.98623e-05
4.96369e-05
3.95013e-05
3.09992e-05
2.4585e-05
1.99492e-05
1.90767e-05
1.43951e-05
1.27742e-05
1.16337e-05
1.30153e-05
1.02156e-05
9.73953e-06
9.37456e-06
9.03988e-06
8.84903e-06
9.0117e-06
8.86554e-06
8.62421e-06
8.37896e-06
8.14298e-06
7.9181e-06
7.70247e-06
7.49493e-06
7.29435e-06
7.09997e-06
6.91113e-06
6.72729e-06
6.54807e-06
6.37321e-06
6.20253e-06
6.03587e-06
5.87314e-06
5.71428e-06
5.55925e-06
5.40803e-06
5.26067e-06
5.11698e-06
4.97714e-06
4.84113e-06
4.70874e-06
4.57988e-06
4.45472e-06
4.33335e-06
4.21534e-06
4.10055e-06
3.98921e-06
3.88136e-06
3.77657e-06
3.67471e-06
3.57587e-06
3.48007e-06
3.38707e-06
3.29667e-06
3.20891e-06
3.12379e-06
3.04117e-06
2.96096e-06
2.8831e-06
2.80744e-06
2.73406e-06
2.66303e-06
2.59438e-06
2.52801e-06
2.46379e-06
2.40153e-06
2.3407e-06
2.28187e-06
2.22516e-06
2.50073e-05
4.90638e-05
7.37633e-05
9.02863e-05
9.89542e-05
9.96254e-05
9.26536e-05
8.26057e-05
7.06352e-05
5.90955e-05
4.93127e-05
4.15125e-05
3.71366e-05
3.10577e-05
2.77225e-05
2.52471e-05
2.50893e-05
2.19356e-05
2.0765e-05
1.98197e-05
1.89893e-05
1.83593e-05
1.80814e-05
1.75817e-05
1.70335e-05
1.65096e-05
1.60143e-05
1.55475e-05
1.51038e-05
1.46803e-05
1.42741e-05
1.38832e-05
1.3506e-05
1.31409e-05
1.27869e-05
1.2443e-05
1.21088e-05
1.17835e-05
1.14669e-05
1.11585e-05
1.08582e-05
1.05657e-05
1.0281e-05
1.00037e-05
9.73391e-06
9.47168e-06
9.2165e-06
8.9681e-06
8.72677e-06
8.49266e-06
8.26504e-06
8.0435e-06
7.82847e-06
7.62005e-06
7.41747e-06
7.22041e-06
7.029e-06
6.84331e-06
6.66294e-06
6.48747e-06
6.31691e-06
6.15126e-06
5.9903e-06
5.83381e-06
5.68163e-06
5.53339e-06
5.38927e-06
5.24934e-06
5.11375e-06
4.98233e-06
4.85496e-06
4.7313e-06
4.61038e-06
4.49383e-06
4.3797e-06
5.41668e-05
8.60145e-05
0.000109004
0.000123763
0.000129861
0.000127548
0.000119773
0.000108091
9.52237e-05
8.31534e-05
7.26551e-05
6.47477e-05
5.6955e-05
5.14469e-05
4.71361e-05
4.47219e-05
4.10013e-05
3.87462e-05
3.68714e-05
3.52399e-05
3.38852e-05
3.28702e-05
3.17871e-05
3.07358e-05
2.97572e-05
2.88408e-05
2.79827e-05
2.71719e-05
2.64023e-05
2.56684e-05
2.49658e-05
2.42909e-05
2.36408e-05
2.30129e-05
2.24052e-05
2.18162e-05
2.12445e-05
2.06891e-05
2.01491e-05
1.96237e-05
1.91124e-05
1.86149e-05
1.81303e-05
1.76588e-05
1.72001e-05
1.67535e-05
1.63184e-05
1.58951e-05
1.54839e-05
1.50837e-05
1.46936e-05
1.43143e-05
1.39461e-05
1.35878e-05
1.32385e-05
1.28986e-05
1.25683e-05
1.22469e-05
1.19337e-05
1.16285e-05
1.13314e-05
1.10421e-05
1.07602e-05
1.04852e-05
1.02163e-05
9.9539e-06
9.69796e-06
9.44892e-06
9.20656e-06
8.97094e-06
8.7415e-06
8.51662e-06
8.30043e-06
8.08361e-06
9.55164e-05
0.000125699
0.000147273
0.000159585
0.0001627
0.000158645
0.000148919
0.000136284
0.000123199
0.000110932
0.000100388
9.08173e-05
8.31545e-05
7.68807e-05
7.21847e-05
6.74816e-05
6.39019e-05
6.08627e-05
5.82081e-05
5.59249e-05
5.39897e-05
5.21445e-05
5.04209e-05
4.88303e-05
4.73461e-05
4.59595e-05
4.46534e-05
4.34173e-05
4.2242e-05
4.11203e-05
4.00461e-05
3.90141e-05
3.802e-05
3.70602e-05
3.61315e-05
3.52317e-05
3.43584e-05
3.35098e-05
3.26847e-05
3.18816e-05
3.10999e-05
3.0338e-05
2.95958e-05
2.8873e-05
2.81683e-05
2.74805e-05
2.681e-05
2.61574e-05
2.55211e-05
2.48994e-05
2.42933e-05
2.37036e-05
2.31284e-05
2.25663e-05
2.20178e-05
2.14831e-05
2.09616e-05
2.04519e-05
1.99536e-05
1.9467e-05
1.89916e-05
1.85264e-05
1.80709e-05
1.76233e-05
1.7184e-05
1.67529e-05
1.63309e-05
1.59178e-05
1.5514e-05
1.5119e-05
1.473e-05
1.43566e-05
1.39696e-05
0.000101456
0.000139641
0.000168825
0.000188088
0.000197288
0.000198004
0.000191502
0.000180314
0.000167204
0.000153941
0.000141619
0.000130424
0.000120867
0.000112766
0.000106092
0.000100135
9.51771e-05
9.08993e-05
8.7135e-05
8.38396e-05
8.09255e-05
7.82307e-05
7.57403e-05
7.34446e-05
7.13034e-05
6.93032e-05
6.74204e-05
6.56403e-05
6.39501e-05
6.23393e-05
6.07991e-05
5.93218e-05
5.79009e-05
5.65308e-05
5.52067e-05
5.39247e-05
5.26813e-05
5.14735e-05
5.02988e-05
4.91552e-05
4.80412e-05
4.69546e-05
4.58945e-05
4.48607e-05
4.3851e-05
4.28636e-05
4.1899e-05
4.09579e-05
4.00382e-05
3.91374e-05
3.82566e-05
3.73972e-05
3.65567e-05
3.5733e-05
3.49265e-05
3.41379e-05
3.33662e-05
3.26093e-05
3.18666e-05
3.11386e-05
3.04244e-05
2.97224e-05
2.90315e-05
2.83487e-05
2.7674e-05
2.70071e-05
2.63493e-05
2.57007e-05
2.50624e-05
2.44336e-05
2.38109e-05
2.32123e-05
2.25688e-05
0.00010302
0.000150128
0.000187865
0.000214921
0.000230946
0.000237351
0.000235181
0.000226557
0.000214291
0.00020061
0.000187021
0.000174329
0.000163059
0.000153255
0.000144847
0.000137514
0.000131196
0.000125679
0.000120792
0.000116468
0.000112578
0.00010901
0.000105719
0.000102682
9.98479e-05
9.71986e-05
9.47052e-05
9.23486e-05
9.01123e-05
8.79828e-05
8.59488e-05
8.39999e-05
8.21274e-05
8.03237e-05
7.85821e-05
7.68972e-05
7.52637e-05
7.36773e-05
7.21345e-05
7.06319e-05
6.91675e-05
6.77378e-05
6.63415e-05
6.4978e-05
6.36442e-05
6.23376e-05
6.10584e-05
5.98076e-05
5.85826e-05
5.738e-05
5.62007e-05
5.50468e-05
5.39155e-05
5.28034e-05
5.17109e-05
5.06391e-05
4.95869e-05
4.85513e-05
4.75312e-05
4.65272e-05
4.55378e-05
4.45608e-05
4.35941e-05
4.26329e-05
4.16763e-05
4.07234e-05
3.97758e-05
3.88336e-05
3.78992e-05
3.69717e-05
3.60464e-05
3.51544e-05
9.93652e-05
0.00015639
0.000203781
0.00023962
0.000263378
0.000276411
0.000279638
0.000274747
0.000264335
0.000250897
0.000236431
0.000222318
0.00020936
0.000197834
0.000187732
0.000178903
0.000171177
0.000164378
0.000158326
0.000152935
0.000148051
0.00014358
0.000139457
0.00013565
0.000132097
0.000128774
0.000125649
0.000122697
0.000119898
0.000117235
0.000114695
0.000112264
0.000109932
0.000107688
0.000105525
0.000103433
0.000101408
9.9442e-05
9.75311e-05
9.56703e-05
9.38565e-05
9.20853e-05
9.03546e-05
8.86631e-05
8.70065e-05
8.53819e-05
8.3789e-05
8.22286e-05
8.06979e-05
7.91921e-05
7.77122e-05
7.62608e-05
7.48344e-05
7.34287e-05
7.20437e-05
7.0681e-05
6.93391e-05
6.80142e-05
6.67044e-05
6.54101e-05
6.41296e-05
6.28593e-05
6.15959e-05
6.03321e-05
5.90656e-05
5.77944e-05
5.65199e-05
5.5242e-05
5.39642e-05
5.26858e-05
5.14008e-05
5.01565e-05
8.96417e-05
0.00015756
0.000215842
0.000261584
0.000294162
0.000314872
0.000324576
0.000324629
0.000317284
0.000305036
0.00029026
0.000274918
0.000260272
0.000246918
0.000235004
0.000224496
0.000215211
0.00020699
0.000199646
0.000193074
0.000187103
0.000181641
0.000176608
0.000171959
0.000167624
0.000163574
0.000159768
0.000156177
0.000152778
0.000149551
0.000146477
0.000143541
0.000140729
0.000138029
0.00013543
0.000132923
0.000130497
0.000128147
0.000125865
0.000123645
0.000121483
0.000119372
0.00011731
0.000115295
0.00011332
0.000111383
0.000109483
0.000107619
0.000105789
0.000103987
0.000102213
0.000100471
9.87551e-05
9.70613e-05
9.53889e-05
9.37394e-05
9.21111e-05
9.04992e-05
8.89011e-05
8.73166e-05
8.57433e-05
8.41764e-05
8.26108e-05
8.10364e-05
7.94488e-05
7.7844e-05
7.62228e-05
7.45846e-05
7.29333e-05
7.12687e-05
6.95833e-05
6.79424e-05
7.30239e-05
0.000152745
0.000223172
0.000280011
0.000322666
0.000352264
0.000369594
0.000375813
0.00037286
0.00036304
0.000348871
0.000332789
0.000316613
0.000301382
0.000287508
0.000275103
0.000264037
0.000254174
0.000245331
0.000237385
0.000230154
0.000223542
0.000217453
0.00021183
0.000206595
0.000201708
0.000197123
0.000192807
0.000188728
0.000184864
0.000181192
0.000177693
0.00017435
0.000171148
0.000168073
0.000165113
0.000162257
0.000159494
0.000156817
0.000154217
0.000151688
0.000149222
0.000146816
0.000144467
0.000142166
0.000139911
0.000137698
0.000135527
0.000133396
0.000131296
0.000129228
0.000127194
0.000125191
0.00012321
0.000121253
0.000119319
0.000117406
0.00011551
0.000113626
0.000111753
0.000109888
0.000108025
0.000106157
0.00010427
0.000102357
0.000100412
9.84345e-05
9.64221e-05
9.43794e-05
9.23061e-05
9.01929e-05
8.8124e-05
5.15131e-05
0.000141201
0.000224761
0.000293886
0.000348014
0.000387888
0.000414124
0.000427764
0.000430554
0.000424572
0.000412262
0.000396323
0.000379094
0.000362143
0.000346263
0.000331793
0.000318723
0.000306973
0.000296378
0.000286813
0.000278091
0.000270109
0.000262758
0.000255971
0.000249659
0.000243773
0.00023826
0.000233078
0.000228193
0.000223574
0.000219196
0.000215035
0.00021107
0.000207282
0.000203654
0.000200171
0.000196819
0.000193585
0.000190458
0.000187428
0.000184487
0.000181625
0.000178837
0.000176118
0.00017346
0.000170856
0.000168304
0.000165803
0.000163348
0.00016093
0.000158549
0.000156208
0.000153901
0.000151621
0.000149366
0.000147136
0.00014493
0.000142739
0.00014056
0.000138391
0.000136227
0.00013406
0.000131882
0.000129675
0.000127429
0.000125135
0.000122789
0.000120389
0.000117939
0.000115437
0.000112874
0.000110351
2.97712e-05
0.000122541
0.000219489
0.000301977
0.000369067
0.000420778
0.000457379
0.000479793
0.000489687
0.000488997
0.000480008
0.000465463
0.000448057
0.000429873
0.000412173
0.000395621
0.000380408
0.000366563
0.000353972
0.00034253
0.000332058
0.000322453
0.000313595
0.00030541
0.0002978
0.000290706
0.000284069
0.000277839
0.000271976
0.000266442
0.000261207
0.000256244
0.000251526
0.000247031
0.000242737
0.000238625
0.000234678
0.00023088
0.000227217
0.000223676
0.000220247
0.000216918
0.000213682
0.000210532
0.000207457
0.00020445
0.000201507
0.000198625
0.0001958
0.000193022
0.000190287
0.0001876
0.000184954
0.000182339
0.000179753
0.000177197
0.000174666
0.000172154
0.000169653
0.000167162
0.000164675
0.000162182
0.000159671
0.000157122
0.000154521
0.000151856
0.00014912
0.000146309
0.000143426
0.00014047
0.000137428
0.000134418
1.36884e-05
9.70471e-05
0.000206137
0.000302858
0.000384413
0.000449668
0.00049829
0.000530999
0.000549429
0.00055549
0.000551353
0.000539687
0.000523351
0.00050482
0.000485825
0.00046743
0.000450113
0.00043408
0.000419321
0.000405781
0.000393314
0.000381828
0.000371206
0.000361367
0.00035221
0.000343669
0.000335677
0.00032818
0.000321129
0.000314483
0.000308206
0.000302265
0.000296628
0.000291268
0.000286159
0.000281279
0.000276606
0.000272121
0.000267805
0.000263643
0.000259622
0.000255727
0.000251948
0.000248277
0.0002447
0.000241209
0.000237798
0.000234463
0.000231198
0.000227992
0.000224839
0.000221744
0.000218698
0.000215693
0.000212722
0.000209785
0.000206881
0.000203998
0.000201129
0.00019827
0.000195415
0.000192552
0.000189667
0.000186736
0.00018374
0.000180664
0.000177499
0.000174237
0.00017088
0.000167427
0.000163864
0.000160323
7.09745e-06
6.71598e-05
0.000183551
0.000295001
0.000392381
0.000472966
0.000535457
0.000580194
0.000608747
0.000623072
0.000625326
0.000618117
0.000604341
0.000586709
0.000567335
0.000547683
0.000528577
0.000510469
0.000493516
0.000477759
0.000463118
0.000449534
0.000436907
0.000425165
0.000414206
0.000403964
0.000394369
0.000385361
0.000376889
0.000368905
0.000361368
0.000354241
0.000347488
0.000341076
0.000334975
0.000329157
0.000323597
0.00031827
0.000313156
0.000308235
0.000303489
0.000298902
0.00029446
0.000290153
0.000285966
0.000281885
0.000277905
0.000274019
0.000270221
0.000266496
0.000262839
0.000259251
0.000255726
0.00025225
0.000248818
0.000245429
0.000242078
0.000238756
0.00023545
0.000232158
0.000228871
0.000225575
0.000222255
0.000218881
0.000215431
0.000211885
0.00020823
0.000204457
0.000200567
0.000196557
0.000192412
0.000188273
4.151e-06
3.78898e-05
0.000151232
0.000276995
0.000391091
0.000488734
0.000567103
0.000625835
0.000666319
0.000690562
0.000700796
0.00069964
0.000690019
0.000674771
0.000656273
0.000636326
0.000616097
0.000596326
0.000577387
0.000559474
0.000542612
0.000526809
0.000512004
0.000498151
0.000485162
0.000472978
0.000461532
0.000450765
0.000440624
0.000431058
0.000422025
0.000413483
0.000405391
0.000397713
0.000390414
0.000383462
0.000376826
0.000370478
0.000364393
0.000358547
0.000352919
0.000347488
0.000342239
0.000337157
0.000332224
0.000327425
0.000322752
0.000318195
0.000313748
0.000309392
0.000305121
0.000300937
0.00029683
0.000292785
0.000288796
0.000284859
0.000280971
0.000277119
0.00027329
0.000269478
0.000265675
0.000261865
0.000258027
0.000254131
0.000250147
0.000246052
0.000241829
0.000237466
0.000232962
0.000228313
0.000223505
0.000218676
2.9543e-06
1.77487e-05
0.000110494
0.000247887
0.000378592
0.000494706
0.000591027
0.000665949
0.000720433
0.000756477
0.000776415
0.000782962
0.000779122
0.000767852
0.00075171
0.000732745
0.000712417
0.000691743
0.000671341
0.000651596
0.000632681
0.000614704
0.000597679
0.000581604
0.000566428
0.000552111
0.000538601
0.000525846
0.000513798
0.00050241
0.000491638
0.000481439
0.000471772
0.000462596
0.000453874
0.000445568
0.000437645
0.000430072
0.000422819
0.000415859
0.000409166
0.000402715
0.000396489
0.000390469
0.000384633
0.000378963
0.000373449
0.00036808
0.000362845
0.000357726
0.000352711
0.000347803
0.000342991
0.000338258
0.000333595
0.000328997
0.00032446
0.000319969
0.00031551
0.000311074
0.000306652
0.000302225
0.000297771
0.000293253
0.000288638
0.000283896
0.000279009
0.000273957
0.000268739
0.00026335
0.00025778
0.000252138
2.4994e-06
8.04736e-06
6.88953e-05
0.000207904
0.000353187
0.000488361
0.000604584
0.000698065
0.0007689
0.000818912
0.000850513
0.000866554
0.00087019
0.000864536
0.000852332
0.000835823
0.000816701
0.000796216
0.000775219
0.000754291
0.000733779
0.000713923
0.000694839
0.0006766
0.000659213
0.000642677
0.000626969
0.000612057
0.000597909
0.000584485
0.00057175
0.000559663
0.000548186
0.000537277
0.000526897
0.000517007
0.00050757
0.00049855
0.000489913
0.000481628
0.000473667
0.000465999
0.000458604
0.000451459
0.000444541
0.000437826
0.000431302
0.000424955
0.000418773
0.000412734
0.000406826
0.000401046
0.000395386
0.000389824
0.00038435
0.000378957
0.00037364
0.000368381
0.000363166
0.000357982
0.000352819
0.000347656
0.000342467
0.000337211
0.000331849
0.000326346
0.000320678
0.000314822
0.000308774
0.000302526
0.000296074
0.000289461
2.71014e-06
5.00841e-06
3.55228e-05
0.000158281
0.000313844
0.000467145
0.000604714
0.000719167
0.00080896
0.000875425
0.000920955
0.000948528
0.000961491
0.000963179
0.000956555
0.000944072
0.000927627
0.000908667
0.000888236
0.000867099
0.000845774
0.000824639
0.000803936
0.000783834
0.000764419
0.000745751
0.000727854
0.000710734
0.000694383
0.000678785
0.000663918
0.000649754
0.000636261
0.000623403
0.000611142
0.000599442
0.000588263
0.000577569
0.000567324
0.000557493
0.000548044
0.000538946
0.000530173
0.0005217
0.000513499
0.000505545
0.000497821
0.000490312
0.000483002
0.000475868
0.000468893
0.000462074
0.000455401
0.00044885
0.000442408
0.000436066
0.000429817
0.000423644
0.000417526
0.000411452
0.000405407
0.000399369
0.000393308
0.00038718
0.000380938
0.000374543
0.000367962
0.000361171
0.00035416
0.000346919
0.000339454
0.000331671
2.94092e-06
3.84233e-06
1.58607e-05
0.000101902
0.000260614
0.000428901
0.000588091
0.000725671
0.000837201
0.000922926
0.000985002
0.00102647
0.00105088
0.00106182
0.00106253
0.00105572
0.00104352
0.00102755
0.00100905
0.000988933
0.000967869
0.000946369
0.000924798
0.000903429
0.000882445
0.000861977
0.000842116
0.00082292
0.000804423
0.000786644
0.000769587
0.000753246
0.000737603
0.000722637
0.000708317
0.000694612
0.000681488
0.000668909
0.00065684
0.000645245
0.000634091
0.000623343
0.000612975
0.00060296
0.000593266
0.000583864
0.000574736
0.000565863
0.000557228
0.000548805
0.000540574
0.000532529
0.000524659
0.000516941
0.000509354
0.00050189
0.00049454
0.000487284
0.000480101
0.000472974
0.000465889
0.000458819
0.000451734
0.000444582
0.000437312
0.000429877
0.000422239
0.000414367
0.000406248
0.000397867
0.000389246
0.000380055
2.97174e-06
3.20184e-06
7.41854e-06
5.11399e-05
0.000195574
0.00037272
0.000551525
0.000713523
0.000849507
0.000957566
0.00103918
0.0010973
0.00113563
0.00115803
0.00116804
0.0011687
0.00116239
0.00115098
0.00113588
0.00111817
0.00109865
0.00107795
0.00105654
0.00103481
0.00101301
0.000991367
0.000970042
0.000949156
0.000928798
0.000909033
0.000889903
0.000871436
0.00085364
0.000836516
0.00082005
0.000804224
0.000789013
0.000774388
0.000760319
0.000746772
0.000733717
0.000721118
0.000708951
0.000697185
0.000685787
0.000674729
0.000663988
0.000653543
0.000643377
0.000633461
0.000623772
0.000614301
0.000605039
0.000595958
0.000587036
0.000578261
0.000569623
0.000561103
0.000552673
0.000544316
0.000536015
0.000527742
0.000519462
0.000511122
0.00050266
0.000494025
0.000485174
0.000476066
0.000466686
0.00045701
0.000447085
2.91523e-06
3.04585e-06
4.53673e-06
2.10927e-05
0.00012412
0.000300187
0.000492813
0.000678526
0.000841099
0.000974652
0.00107913
0.00115709
0.00121224
0.00124868
0.0012703
0.00128046
0.00128189
0.00127673
0.00126662
0.0012528
0.00123623
0.00121765
0.00119764
0.00117666
0.00115508
0.00113317
0.00111117
0.00108927
0.00106762
0.00104632
0.00102548
0.00100516
0.000985408
0.000966252
0.000947708
0.000929777
0.000912453
0.00089572
0.000879559
0.000863945
0.000848852
0.000834251
0.000820118
0.000806427
0.000793143
0.000780238
0.000767691
0.000755478
0.000743581
0.000731971
0.000720623
0.000709526
0.00069867
0.000688027
0.000677572
0.00066729
0.000657169
0.00064719
0.000637323
0.000627547
0.000617844
0.000608184
0.000598528
0.000588822
0.000578997
0.000568994
0.000558765
0.000548261
0.000537462
0.000526337
0.000514959
2.95293e-06
3.01673e-06
3.55653e-06
9.15047e-06
6.06316e-05
0.000216597
0.000412374
0.000617177
0.0008068
0.000968642
0.00109952
0.00120089
0.00127623
0.00132977
0.00136571
0.00138779
0.00139911
0.00140211
0.00139872
0.00139041
0.0013783
0.00136328
0.00134603
0.0013271
0.00130694
0.00128589
0.00126426
0.00124229
0.00122017
0.00119809
0.00117618
0.00115455
0.00113329
0.00111247
0.00109213
0.00107232
0.00105303
0.0010343
0.0010161
0.000998426
0.000981272
0.000964614
0.000948437
0.000932717
0.000917427
0.00090254
0.00088804
0.0008739
0.000860106
0.00084663
0.000833445
0.000820538
0.000807901
0.000795507
0.000783328
0.000771348
0.000759553
0.000747922
0.000736427
0.000725042
0.000713748
0.000702513
0.000691299
0.000680045
0.000668681
0.000657141
0.000645368
0.000633311
0.000620941
0.000608218
0.000595242
3.06362e-06
3.18972e-06
5.00444e-06
2.28505e-05
0.000130246
0.000314987
0.000528333
0.000741815
0.000933369
0.00109397
0.00122262
0.00132198
0.0013962
0.0014497
0.00148658
0.00151031
0.00152375
0.0015291
0.00152812
0.00152215
0.00151224
0.00149922
0.00148374
0.00146632
0.00144741
0.00142735
0.00140644
0.00138493
0.00136305
0.00134096
0.00131884
0.0012968
0.00127496
0.00125339
0.00123216
0.00121132
0.0011909
0.00117092
0.0011514
0.00113234
0.00111373
0.00109557
0.00107785
0.00106055
0.00104365
0.00102714
0.001011
0.000995214
0.000979762
0.000964617
0.000949767
0.000935205
0.000920908
0.000906848
0.000893005
0.000879367
0.000865914
0.000852617
0.000839448
0.000826387
0.000813403
0.000800454
0.000787481
0.00077441
0.000761171
0.000747701
0.000733942
0.00071986
0.000705406
0.000690703
3.12973e-06
3.16147e-06
3.7317e-06
9.08114e-06
5.72846e-05
0.000210177
0.000415811
0.000643476
0.000862781
0.00105528
0.00121498
0.00134256
0.00144154
0.0015164
0.00157149
0.00161072
0.00163729
0.00165381
0.00166232
0.00166443
0.00166141
0.00165424
0.00164373
0.00163052
0.00161511
0.00159793
0.00157935
0.00155966
0.00153912
0.00151796
0.00149638
0.00147452
0.00145255
0.00143056
0.00140866
0.00138693
0.00136542
0.00134419
0.00132328
0.00130269
0.00128246
0.00126259
0.00124309
0.00122396
0.00120518
0.00118676
0.00116867
0.00115093
0.0011335
0.00111638
0.00109955
0.001083
0.00106673
0.0010507
0.00103489
0.0010193
0.0010039
0.000988674
0.000973588
0.000958622
0.000943745
0.000928917
0.000914082
0.000899163
0.000884088
0.000868789
0.000853204
0.000837295
0.000821
0.000804466
3.16911e-06
3.18075e-06
3.40002e-06
5.08697e-06
1.92098e-05
0.000110637
0.000290554
0.000514445
0.0007528
0.000976151
0.00116964
0.00132959
0.00145786
0.00155843
0.0016358
0.00169416
0.00173715
0.00176774
0.00178834
0.00180087
0.00180683
0.00180743
0.00180365
0.00179625
0.00178586
0.001773
0.00175811
0.00174155
0.00172363
0.00170462
0.00168474
0.0016642
0.00164317
0.00162179
0.00160019
0.00157847
0.00155672
0.00153501
0.00151341
0.00149195
0.00147068
0.00144963
0.00142882
0.00140826
0.00138796
0.00136794
0.00134818
0.00132869
0.00130947
0.00129052
0.00127182
0.00125337
0.00123517
0.00121721
0.00119945
0.0011819
0.00116453
0.00114733
0.00113027
0.00111334
0.00109649
0.00107971
0.00106292
0.00104607
0.00102907
0.00101185
0.000994361
0.000976548
0.000958345
0.000939909
3.20043e-06
3.2055e-06
3.31117e-06
3.88768e-06
7.74069e-06
4.00244e-05
0.000168532
0.000366657
0.000605117
0.000851256
0.00107807
0.00127355
0.0014356
0.0015667
0.001671
0.00175282
0.00181614
0.00186434
0.00190019
0.00192595
0.00194344
0.00195411
0.00195913
0.00195945
0.00195584
0.00194894
0.00193927
0.00192729
0.00191336
0.00189781
0.00188092
0.00186292
0.00184402
0.0018244
0.00180421
0.00178357
0.00176261
0.0017414
0.00172005
0.0016986
0.00167712
0.00165567
0.00163426
0.00161294
0.00159174
0.00157067
0.00154974
0.00152897
0.00150838
0.00148797
0.00146773
0.00144767
0.0014278
0.00140811
0.00138858
0.00136922
0.00135001
0.00133095
0.001312
0.00129315
0.00127438
0.00125566
0.00123694
0.00121816
0.00119923
0.0011801
0.0011607
0.00114097
0.00112086
0.00110051
3.22332e-06
3.22996e-06
3.27854e-06
3.4889e-06
4.69787e-06
1.28129e-05
6.91139e-05
0.000220871
0.000432761
0.00068175
0.000933912
0.00116467
0.0013639
0.00153033
0.00166666
0.00177692
0.0018652
0.00193522
0.00199014
0.00203259
0.0020647
0.00208824
0.00210459
0.00211493
0.00212021
0.00212119
0.00211854
0.00211279
0.00210442
0.00209381
0.00208131
0.00206719
0.00205172
0.00203511
0.00201753
0.00199915
0.00198011
0.00196052
0.00194049
0.00192009
0.0018994
0.0018785
0.00185743
0.00183624
0.00181496
0.00179365
0.00177231
0.00175097
0.00172967
0.00170841
0.0016872
0.00166606
0.00164501
0.00162405
0.00160317
0.00158238
0.00156167
0.00154104
0.00152048
0.00149997
0.0014795
0.00145904
0.00143856
0.001418
0.00139729
0.00137638
0.00135518
0.00133366