/*--------------------------------*- C++ -*----------------------------------*\
| =========                 |                                                 |
| \\      /  F ield         | OpenFOAM: The Open Source CFD Toolbox           |
|  \\    /   O peration     | Version:  2412                                  |
|   \\  /    A nd           | Website:  www.openfoam.com                      |
|    \\/     M anipulation  |                                                 |
\*---------------------------------------------------------------------------*/
FoamFile
{
    version     2.0;
    format      ascii;
    arch        "LSB;label=32;scalar=64";
    class       volScalarField;
    location    "140";
    object      nuTilda;
}
// * * * * * * * * * * * * * * * * * * * * * * * * * * * * * * * * * * * * * //

dimensions      [0 2 -1 0 0 0 0];

internalField   nonuniform List<scalar> 
8553
(
9.80283e-07
1.70402e-06
1.44782e-06
1.25478e-06
1.33619e-06
1.51848e-06
2.65839e-06
2.90174e-06
2.73199e-06
2.53184e-06
2.43663e-06
2.37975e-06
2.35445e-06
2.35036e-06
2.35111e-06
2.34399e-06
2.33128e-06
2.31436e-06
2.29573e-06
2.2806e-06
2.27046e-06
2.26375e-06
2.25919e-06
2.25477e-06
2.24958e-06
2.244e-06
2.23858e-06
2.23388e-06
2.2299e-06
2.22636e-06
2.22295e-06
2.21966e-06
2.21657e-06
2.21362e-06
2.21088e-06
2.20838e-06
2.20604e-06
2.20377e-06
2.20163e-06
2.19968e-06
2.1978e-06
2.19603e-06
2.19433e-06
2.19273e-06
2.19124e-06
2.18981e-06
2.18846e-06
2.1872e-06
2.186e-06
2.18483e-06
2.18371e-06
2.18267e-06
2.18169e-06
2.18073e-06
2.17984e-06
2.17898e-06
2.17817e-06
2.17738e-06
2.17658e-06
2.17585e-06
2.17519e-06
2.17451e-06
2.1739e-06
2.17328e-06
2.17271e-06
2.17216e-06
2.17159e-06
2.17105e-06
2.17058e-06
2.1701e-06
2.16962e-06
2.16918e-06
2.16873e-06
2.16831e-06
2.16791e-06
2.16755e-06
2.16726e-06
2.16712e-06
2.17864e-06
2.17793e-06
2.18262e-06
2.20745e-06
2.26296e-06
2.36273e-06
2.56207e-06
2.76489e-06
2.68332e-06
1.96203e-06
1.12078e-06
1.04839e-06
8.32361e-07
1.64331e-06
1.85707e-06
2.97955e-06
4.83745e-06
4.45423e-06
3.88062e-06
3.8433e-06
4.89544e-06
8.00921e-06
8.48699e-06
8.07574e-06
7.6007e-06
7.35434e-06
7.20889e-06
7.14254e-06
7.12751e-06
7.12237e-06
7.09754e-06
7.05848e-06
7.00946e-06
6.95776e-06
6.91599e-06
6.88744e-06
6.86804e-06
6.85402e-06
6.84021e-06
6.82446e-06
6.80797e-06
6.79211e-06
6.77825e-06
6.76636e-06
6.75566e-06
6.74542e-06
6.73552e-06
6.72621e-06
6.71743e-06
6.70926e-06
6.70169e-06
6.69458e-06
6.68776e-06
6.68137e-06
6.67539e-06
6.66972e-06
6.66439e-06
6.65929e-06
6.65447e-06
6.64995e-06
6.64564e-06
6.64156e-06
6.6377e-06
6.63401e-06
6.63049e-06
6.62714e-06
6.62397e-06
6.621e-06
6.61812e-06
6.61537e-06
6.61277e-06
6.6103e-06
6.6079e-06
6.60553e-06
6.60334e-06
6.60126e-06
6.59925e-06
6.59735e-06
6.59548e-06
6.59375e-06
6.59204e-06
6.59032e-06
6.58872e-06
6.58721e-06
6.58575e-06
6.5843e-06
6.58293e-06
6.58155e-06
6.58025e-06
6.57903e-06
6.57788e-06
6.57699e-06
6.57655e-06
6.58994e-06
6.59296e-06
6.60801e-06
6.67224e-06
6.81415e-06
7.06882e-06
7.54651e-06
8.03669e-06
7.93234e-06
6.17687e-06
3.28034e-06
3.1261e-06
2.46829e-06
4.7399e-06
5.11144e-06
5.25448e-06
7.5681e-06
7.47486e-06
6.66416e-06
6.14843e-06
9.35154e-06
1.31902e-05
1.36273e-05
1.31382e-05
1.25818e-05
1.22565e-05
1.20684e-05
1.19777e-05
1.19466e-05
1.19238e-05
1.18767e-05
1.18118e-05
1.17361e-05
1.16605e-05
1.15998e-05
1.15573e-05
1.1527e-05
1.15034e-05
1.14799e-05
1.14539e-05
1.14275e-05
1.14024e-05
1.13804e-05
1.13612e-05
1.13436e-05
1.13269e-05
1.13108e-05
1.12956e-05
1.12813e-05
1.12681e-05
1.12557e-05
1.1244e-05
1.12329e-05
1.12224e-05
1.12125e-05
1.12032e-05
1.11944e-05
1.11861e-05
1.11781e-05
1.11706e-05
1.11635e-05
1.11568e-05
1.11504e-05
1.11443e-05
1.11385e-05
1.1133e-05
1.11278e-05
1.11228e-05
1.1118e-05
1.11135e-05
1.11091e-05
1.1105e-05
1.1101e-05
1.10972e-05
1.10935e-05
1.109e-05
1.10867e-05
1.10835e-05
1.10804e-05
1.10775e-05
1.10746e-05
1.10717e-05
1.10691e-05
1.10665e-05
1.1064e-05
1.10616e-05
1.10592e-05
1.10569e-05
1.10547e-05
1.10526e-05
1.10506e-05
1.10491e-05
1.10485e-05
1.10136e-05
1.10286e-05
1.10562e-05
1.11426e-05
1.13284e-05
1.16629e-05
1.22436e-05
1.28495e-05
1.28466e-05
1.07822e-05
5.37673e-06
5.16379e-06
4.4302e-06
7.54668e-06
7.917e-06
8.08733e-06
9.78994e-06
1.02954e-05
9.44278e-06
8.21906e-06
1.44971e-05
1.7808e-05
1.81376e-05
1.77237e-05
1.72457e-05
1.69148e-05
1.67276e-05
1.66284e-05
1.65784e-05
1.65312e-05
1.64615e-05
1.63751e-05
1.62817e-05
1.61936e-05
1.61233e-05
1.60723e-05
1.60341e-05
1.60021e-05
1.59698e-05
1.59355e-05
1.59012e-05
1.58693e-05
1.5841e-05
1.58159e-05
1.57928e-05
1.57706e-05
1.57494e-05
1.57294e-05
1.57107e-05
1.56932e-05
1.56768e-05
1.56613e-05
1.56465e-05
1.56326e-05
1.56195e-05
1.56071e-05
1.55954e-05
1.55842e-05
1.55736e-05
1.55636e-05
1.55541e-05
1.5545e-05
1.55365e-05
1.55283e-05
1.55206e-05
1.55132e-05
1.55061e-05
1.54994e-05
1.5493e-05
1.54868e-05
1.54809e-05
1.54753e-05
1.54699e-05
1.54647e-05
1.54598e-05
1.5455e-05
1.54505e-05
1.54461e-05
1.54418e-05
1.54378e-05
1.54339e-05
1.543e-05
1.54263e-05
1.54228e-05
1.54193e-05
1.5416e-05
1.54128e-05
1.54096e-05
1.54065e-05
1.54035e-05
1.54008e-05
1.53987e-05
1.53979e-05
1.52524e-05
1.52853e-05
1.53275e-05
1.5422e-05
1.56135e-05
1.59582e-05
1.64987e-05
1.70693e-05
1.71922e-05
1.53317e-05
8.19232e-06
7.13196e-06
6.87003e-06
1.00157e-05
1.03969e-05
1.15024e-05
1.14411e-05
1.27766e-05
1.20734e-05
1.02035e-05
1.94593e-05
2.16366e-05
2.19554e-05
2.17368e-05
2.1451e-05
2.11782e-05
2.10262e-05
2.09312e-05
2.08623e-05
2.07896e-05
2.07009e-05
2.0601e-05
2.0501e-05
2.0412e-05
2.03413e-05
2.0288e-05
2.02456e-05
2.02074e-05
2.01686e-05
2.01287e-05
2.00898e-05
2.0054e-05
2.00221e-05
1.99933e-05
1.99665e-05
1.99408e-05
1.99163e-05
1.98931e-05
1.98714e-05
1.98511e-05
1.9832e-05
1.98138e-05
1.97966e-05
1.97804e-05
1.9765e-05
1.97504e-05
1.97366e-05
1.97235e-05
1.97111e-05
1.96992e-05
1.9688e-05
1.96773e-05
1.96672e-05
1.96575e-05
1.96482e-05
1.96394e-05
1.96311e-05
1.9623e-05
1.96154e-05
1.9608e-05
1.96009e-05
1.95942e-05
1.95877e-05
1.95815e-05
1.95755e-05
1.95697e-05
1.95642e-05
1.95589e-05
1.95537e-05
1.95488e-05
1.9544e-05
1.95393e-05
1.95347e-05
1.95304e-05
1.95261e-05
1.9522e-05
1.9518e-05
1.9514e-05
1.95102e-05
1.95065e-05
1.95031e-05
1.95006e-05
1.94996e-05
1.91718e-05
1.92252e-05
1.92833e-05
1.93755e-05
1.95426e-05
1.98388e-05
2.02327e-05
2.06466e-05
2.08474e-05
1.94818e-05
1.18127e-05
9.04762e-06
9.7999e-06
1.21899e-05
1.27378e-05
1.5378e-05
1.2868e-05
1.48752e-05
1.44541e-05
1.30666e-05
2.38261e-05
2.45082e-05
2.50679e-05
2.51193e-05
2.50969e-05
2.49342e-05
2.48425e-05
2.47617e-05
2.46769e-05
2.45825e-05
2.4482e-05
2.43791e-05
2.42848e-05
2.42067e-05
2.41447e-05
2.40954e-05
2.4053e-05
2.4012e-05
2.39703e-05
2.39285e-05
2.38889e-05
2.38529e-05
2.38207e-05
2.37911e-05
2.37632e-05
2.37364e-05
2.37109e-05
2.36867e-05
2.36642e-05
2.36429e-05
2.36228e-05
2.36038e-05
2.35857e-05
2.35685e-05
2.35523e-05
2.35369e-05
2.35222e-05
2.35083e-05
2.3495e-05
2.34824e-05
2.34704e-05
2.3459e-05
2.34481e-05
2.34377e-05
2.34277e-05
2.34182e-05
2.34092e-05
2.34005e-05
2.33922e-05
2.33841e-05
2.33764e-05
2.33691e-05
2.3362e-05
2.33551e-05
2.33485e-05
2.33422e-05
2.3336e-05
2.33301e-05
2.33244e-05
2.33188e-05
2.33134e-05
2.33082e-05
2.3303e-05
2.32981e-05
2.32932e-05
2.32885e-05
2.3284e-05
2.32795e-05
2.3275e-05
2.32708e-05
2.32669e-05
2.32641e-05
2.3263e-05
2.26681e-05
2.27411e-05
2.28145e-05
2.28967e-05
2.30165e-05
2.32155e-05
2.33907e-05
2.35644e-05
2.37389e-05
2.30167e-05
1.63195e-05
1.09053e-05
1.27522e-05
1.41918e-05
1.58233e-05
1.95636e-05
1.52306e-05
1.66435e-05
1.65438e-05
1.67015e-05
2.74071e-05
2.65303e-05
2.74906e-05
2.78326e-05
2.81044e-05
2.80896e-05
2.80744e-05
2.8016e-05
2.79216e-05
2.78137e-05
2.77114e-05
2.76183e-05
2.75428e-05
2.74867e-05
2.74424e-05
2.74036e-05
2.73662e-05
2.73268e-05
2.72866e-05
2.72478e-05
2.72122e-05
2.71805e-05
2.71517e-05
2.71249e-05
2.70991e-05
2.70742e-05
2.70506e-05
2.70284e-05
2.70075e-05
2.69877e-05
2.6969e-05
2.69511e-05
2.69341e-05
2.6918e-05
2.69027e-05
2.68881e-05
2.68742e-05
2.6861e-05
2.68484e-05
2.68363e-05
2.68248e-05
2.68138e-05
2.68032e-05
2.67932e-05
2.67835e-05
2.67743e-05
2.67655e-05
2.6757e-05
2.67488e-05
2.67409e-05
2.67332e-05
2.67259e-05
2.67188e-05
2.67119e-05
2.67053e-05
2.66989e-05
2.66927e-05
2.66867e-05
2.66808e-05
2.66751e-05
2.66695e-05
2.66641e-05
2.66587e-05
2.66535e-05
2.66484e-05
2.66434e-05
2.66386e-05
2.66338e-05
2.6629e-05
2.66244e-05
2.66204e-05
2.66175e-05
2.66161e-05
2.5653e-05
2.5741e-05
2.58265e-05
2.58924e-05
2.59483e-05
2.60134e-05
2.59308e-05
2.58268e-05
2.58306e-05
2.58488e-05
2.18473e-05
1.26485e-05
1.55516e-05
1.61621e-05
2.01347e-05
2.38922e-05
1.84144e-05
1.81016e-05
1.83942e-05
2.10867e-05
3.01112e-05
2.78909e-05
2.92503e-05
2.98524e-05
3.04129e-05
3.05665e-05
3.06359e-05
3.06073e-05
3.05132e-05
3.04039e-05
3.03127e-05
3.02432e-05
3.01991e-05
3.01754e-05
3.01568e-05
3.01352e-05
3.01082e-05
3.0076e-05
3.00428e-05
3.00126e-05
2.99864e-05
2.99638e-05
2.9943e-05
2.9923e-05
2.99032e-05
2.9884e-05
2.98658e-05
2.98488e-05
2.98327e-05
2.98174e-05
2.98028e-05
2.97888e-05
2.97755e-05
2.97627e-05
2.97506e-05
2.97389e-05
2.97278e-05
2.97171e-05
2.97069e-05
2.96971e-05
2.96876e-05
2.96786e-05
2.96699e-05
2.96615e-05
2.96535e-05
2.96457e-05
2.96382e-05
2.9631e-05
2.9624e-05
2.96171e-05
2.96105e-05
2.96041e-05
2.95978e-05
2.95918e-05
2.95859e-05
2.95801e-05
2.95745e-05
2.9569e-05
2.95636e-05
2.95583e-05
2.95531e-05
2.95479e-05
2.95428e-05
2.95379e-05
2.95329e-05
2.95281e-05
2.95234e-05
2.95186e-05
2.95139e-05
2.95093e-05
2.95054e-05
2.95027e-05
2.95009e-05
2.80512e-05
2.81456e-05
2.82367e-05
2.82803e-05
2.82622e-05
2.81708e-05
2.78208e-05
2.74492e-05
2.71156e-05
2.79592e-05
2.66836e-05
1.50733e-05
1.81997e-05
1.82259e-05
2.50805e-05
2.81766e-05
2.22394e-05
1.91823e-05
1.98682e-05
2.63888e-05
3.19154e-05
2.87214e-05
3.03729e-05
3.11661e-05
3.19822e-05
3.23067e-05
3.2462e-05
3.24711e-05
3.23907e-05
3.22949e-05
3.2229e-05
3.21964e-05
3.21949e-05
3.2212e-05
3.22261e-05
3.22278e-05
3.22174e-05
3.21985e-05
3.21788e-05
3.21632e-05
3.21522e-05
3.21441e-05
3.21362e-05
3.21276e-05
3.21182e-05
3.21089e-05
3.21002e-05
3.20922e-05
3.20846e-05
3.20772e-05
3.207e-05
3.2063e-05
3.20562e-05
3.20496e-05
3.20433e-05
3.20371e-05
3.20311e-05
3.20253e-05
3.20196e-05
3.20141e-05
3.20087e-05
3.20034e-05
3.19983e-05
3.19933e-05
3.19884e-05
3.19836e-05
3.19789e-05
3.19743e-05
3.19697e-05
3.19652e-05
3.19608e-05
3.19564e-05
3.1952e-05
3.19477e-05
3.19435e-05
3.19393e-05
3.19351e-05
3.19309e-05
3.19268e-05
3.19226e-05
3.19184e-05
3.19143e-05
3.19101e-05
3.19059e-05
3.19017e-05
3.18976e-05
3.18934e-05
3.18892e-05
3.1885e-05
3.1881e-05
3.18776e-05
3.18753e-05
3.18727e-05
2.98041e-05
2.98927e-05
2.99795e-05
2.9994e-05
2.98974e-05
2.96421e-05
2.90401e-05
2.84467e-05
2.76928e-05
2.93033e-05
3.05544e-05
1.8155e-05
2.08642e-05
2.12654e-05
3.03233e-05
3.22212e-05
2.65216e-05
2.11172e-05
2.13074e-05
3.11159e-05
3.28501e-05
2.91097e-05
3.08795e-05
3.17783e-05
3.27971e-05
3.32786e-05
3.35168e-05
3.35719e-05
3.35209e-05
3.34543e-05
3.34274e-05
3.3443e-05
3.34918e-05
3.35553e-05
3.36076e-05
3.36383e-05
3.36507e-05
3.36519e-05
3.36524e-05
3.36578e-05
3.36677e-05
3.36793e-05
3.36894e-05
3.36971e-05
3.37029e-05
3.3708e-05
3.37132e-05
3.37184e-05
3.37233e-05
3.37275e-05
3.37313e-05
3.37347e-05
3.37378e-05
3.37406e-05
3.3743e-05
3.37452e-05
3.37471e-05
3.37487e-05
3.37501e-05
3.37512e-05
3.37521e-05
3.37528e-05
3.37533e-05
3.37537e-05
3.37538e-05
3.37538e-05
3.37536e-05
3.37532e-05
3.37526e-05
3.37519e-05
3.3751e-05
3.375e-05
3.37488e-05
3.37475e-05
3.37461e-05
3.37445e-05
3.37428e-05
3.3741e-05
3.3739e-05
3.37369e-05
3.37347e-05
3.37323e-05
3.37298e-05
3.37272e-05
3.37245e-05
3.37217e-05
3.37188e-05
3.37157e-05
3.37126e-05
3.37097e-05
3.37073e-05
3.37057e-05
3.3702e-05
3.09451e-05
3.1014e-05
3.09912e-05
3.08157e-05
3.04046e-05
2.95852e-05
2.88336e-05
2.77204e-05
2.9917e-05
3.33067e-05
2.19701e-05
2.33814e-05
2.50803e-05
3.56591e-05
3.58855e-05
3.11391e-05
2.38797e-05
2.29138e-05
3.49663e-05
3.29717e-05
2.91289e-05
3.07939e-05
3.17198e-05
3.28758e-05
3.34873e-05
3.38019e-05
3.39108e-05
3.39043e-05
3.38812e-05
3.39038e-05
3.39742e-05
3.4077e-05
3.41893e-05
3.42831e-05
3.43475e-05
3.43885e-05
3.44165e-05
3.44433e-05
3.44754e-05
3.45114e-05
3.45477e-05
3.45806e-05
3.46092e-05
3.46349e-05
3.46591e-05
3.46826e-05
3.47051e-05
3.47264e-05
3.47463e-05
3.47649e-05
3.47823e-05
3.47987e-05
3.48142e-05
3.48287e-05
3.48423e-05
3.48551e-05
3.4867e-05
3.48782e-05
3.48886e-05
3.48983e-05
3.49074e-05
3.49159e-05
3.49237e-05
3.4931e-05
3.49378e-05
3.4944e-05
3.49497e-05
3.49549e-05
3.49597e-05
3.4964e-05
3.49679e-05
3.49714e-05
3.49745e-05
3.49772e-05
3.49796e-05
3.49816e-05
3.49833e-05
3.49847e-05
3.49857e-05
3.49865e-05
3.49869e-05
3.4987e-05
3.49868e-05
3.49864e-05
3.49858e-05
3.49849e-05
3.49838e-05
3.49825e-05
3.49814e-05
3.49806e-05
3.49799e-05
3.49749e-05
3.49269e-05
3.49224e-05
3.49212e-05
3.12989e-05
3.1333e-05
3.12639e-05
3.10125e-05
3.04678e-05
2.94792e-05
2.86342e-05
2.7533e-05
2.98821e-05
3.49535e-05
2.65339e-05
2.56999e-05
2.95804e-05
4.09718e-05
3.90924e-05
3.60642e-05
2.75541e-05
2.51116e-05
3.76524e-05
3.23011e-05
2.88358e-05
3.01624e-05
3.10568e-05
3.22787e-05
3.29834e-05
3.33641e-05
3.35316e-05
3.35802e-05
3.361e-05
3.36868e-05
3.38129e-05
3.39682e-05
3.41281e-05
3.42641e-05
3.43653e-05
3.44394e-05
3.44992e-05
3.45573e-05
3.46204e-05
3.46865e-05
3.47512e-05
3.48108e-05
3.48646e-05
3.49143e-05
3.49615e-05
3.50071e-05
3.50509e-05
3.50924e-05
3.51315e-05
3.51684e-05
3.52034e-05
3.52366e-05
3.5268e-05
3.52978e-05
3.53259e-05
3.53525e-05
3.53777e-05
3.54014e-05
3.54239e-05
3.5445e-05
3.5465e-05
3.54838e-05
3.55016e-05
3.55183e-05
3.5534e-05
3.55488e-05
3.55626e-05
3.55755e-05
3.55876e-05
3.55989e-05
3.56094e-05
3.56193e-05
3.56284e-05
3.56368e-05
3.56446e-05
3.56518e-05
3.56584e-05
3.56643e-05
3.56697e-05
3.56746e-05
3.56789e-05
3.56827e-05
3.56861e-05
3.5689e-05
3.56915e-05
3.56936e-05
3.56952e-05
3.56967e-05
3.56981e-05
3.56995e-05
3.57001e-05
3.56942e-05
3.56529e-05
3.5651e-05
3.56542e-05
3.09846e-05
3.09707e-05
3.08482e-05
3.05284e-05
2.9885e-05
2.87968e-05
2.79152e-05
2.70703e-05
2.92775e-05
3.55374e-05
3.06081e-05
2.79355e-05
3.47639e-05
4.61995e-05
4.18301e-05
4.14797e-05
3.23579e-05
2.83447e-05
3.90586e-05
3.1186e-05
2.82578e-05
2.90638e-05
2.98979e-05
3.11143e-05
3.1868e-05
3.22991e-05
3.25228e-05
3.26294e-05
3.27136e-05
3.28423e-05
3.30183e-05
3.32194e-05
3.34216e-05
3.35973e-05
3.37353e-05
3.38446e-05
3.39388e-05
3.40306e-05
3.41266e-05
3.42245e-05
3.43196e-05
3.44082e-05
3.44899e-05
3.45663e-05
3.46394e-05
3.471e-05
3.47779e-05
3.48424e-05
3.49036e-05
3.49618e-05
3.50171e-05
3.50699e-05
3.51202e-05
3.51679e-05
3.52133e-05
3.52565e-05
3.52975e-05
3.53364e-05
3.53734e-05
3.54085e-05
3.54418e-05
3.54734e-05
3.55033e-05
3.55317e-05
3.55585e-05
3.55839e-05
3.56079e-05
3.56305e-05
3.56519e-05
3.5672e-05
3.5691e-05
3.57088e-05
3.57256e-05
3.57414e-05
3.57561e-05
3.57699e-05
3.57828e-05
3.57948e-05
3.58059e-05
3.58162e-05
3.58257e-05
3.58344e-05
3.58424e-05
3.58497e-05
3.58564e-05
3.58624e-05
3.58679e-05
3.58729e-05
3.58777e-05
3.5882e-05
3.58842e-05
3.58782e-05
3.5844e-05
3.5846e-05
3.58543e-05
3.00769e-05
3.00089e-05
2.9832e-05
2.94588e-05
2.87636e-05
2.76608e-05
2.67959e-05
2.63295e-05
2.8318e-05
3.51606e-05
3.41934e-05
3.14106e-05
4.06495e-05
5.08652e-05
4.41791e-05
4.74372e-05
3.76476e-05
3.29327e-05
3.91316e-05
2.98579e-05
2.73238e-05
2.75998e-05
2.83942e-05
2.95367e-05
3.02903e-05
3.0748e-05
3.10159e-05
3.11733e-05
3.13048e-05
3.14758e-05
3.16897e-05
3.19249e-05
3.21598e-05
3.23683e-05
3.25394e-05
3.2682e-05
3.28094e-05
3.29336e-05
3.30611e-05
3.31896e-05
3.33144e-05
3.34318e-05
3.35415e-05
3.36453e-05
3.37451e-05
3.38417e-05
3.39346e-05
3.40235e-05
3.41083e-05
3.41892e-05
3.42667e-05
3.43408e-05
3.44116e-05
3.44793e-05
3.45439e-05
3.46055e-05
3.46644e-05
3.47205e-05
3.4774e-05
3.4825e-05
3.48736e-05
3.49199e-05
3.49639e-05
3.50059e-05
3.50457e-05
3.50836e-05
3.51196e-05
3.51537e-05
3.51861e-05
3.52168e-05
3.52459e-05
3.52734e-05
3.52995e-05
3.53242e-05
3.53474e-05
3.53693e-05
3.53899e-05
3.54093e-05
3.54274e-05
3.54444e-05
3.54603e-05
3.54752e-05
3.5489e-05
3.55019e-05
3.55139e-05
3.5525e-05
3.55352e-05
3.55448e-05
3.55538e-05
3.55615e-05
3.5566e-05
3.55613e-05
3.55358e-05
3.55429e-05
3.55568e-05
2.87009e-05
2.8582e-05
2.83597e-05
2.79582e-05
2.72708e-05
2.62508e-05
2.54374e-05
2.53103e-05
2.71733e-05
3.39767e-05
3.70419e-05
3.61515e-05
4.66618e-05
5.43657e-05
4.62472e-05
5.28807e-05
4.31092e-05
3.7351e-05
3.82124e-05
2.84526e-05
2.60642e-05
2.58078e-05
2.67273e-05
2.77294e-05
2.84342e-05
2.88865e-05
2.9177e-05
2.93691e-05
2.95336e-05
2.97311e-05
2.9966e-05
3.02192e-05
3.04725e-05
3.07024e-05
3.08981e-05
3.10672e-05
3.12219e-05
3.13728e-05
3.15265e-05
3.16805e-05
3.18306e-05
3.19733e-05
3.21081e-05
3.22369e-05
3.23613e-05
3.24821e-05
3.25988e-05
3.2711e-05
3.28186e-05
3.29219e-05
3.30212e-05
3.31166e-05
3.32082e-05
3.32962e-05
3.33805e-05
3.34613e-05
3.35388e-05
3.3613e-05
3.3684e-05
3.3752e-05
3.3817e-05
3.38791e-05
3.39385e-05
3.39952e-05
3.40494e-05
3.41011e-05
3.41504e-05
3.41974e-05
3.42421e-05
3.42847e-05
3.43253e-05
3.43639e-05
3.44006e-05
3.44354e-05
3.44684e-05
3.44996e-05
3.45292e-05
3.45572e-05
3.45836e-05
3.46085e-05
3.4632e-05
3.46541e-05
3.46748e-05
3.46944e-05
3.47127e-05
3.47298e-05
3.47458e-05
3.47608e-05
3.47746e-05
3.47865e-05
3.4794e-05
3.47926e-05
3.47775e-05
3.47905e-05
3.48103e-05
2.70371e-05
2.68803e-05
2.66334e-05
2.62384e-05
2.56303e-05
2.48009e-05
2.40315e-05
2.41315e-05
2.59009e-05
3.23522e-05
3.86954e-05
4.06762e-05
5.19669e-05
5.71736e-05
4.81656e-05
5.7251e-05
4.84882e-05
4.1061e-05
3.66813e-05
2.7062e-05
2.4754e-05
2.42856e-05
2.50806e-05
2.58954e-05
2.64956e-05
2.69055e-05
2.71918e-05
2.73983e-05
2.75781e-05
2.7783e-05
2.80181e-05
2.8269e-05
2.8523e-05
2.87585e-05
2.89656e-05
2.91499e-05
2.93214e-05
2.94891e-05
2.96591e-05
2.98294e-05
2.99963e-05
3.01566e-05
3.031e-05
3.04579e-05
3.06016e-05
3.07417e-05
3.08778e-05
3.10093e-05
3.11362e-05
3.12587e-05
3.1377e-05
3.14913e-05
3.16017e-05
3.17082e-05
3.18108e-05
3.19097e-05
3.20049e-05
3.20964e-05
3.21844e-05
3.22689e-05
3.23501e-05
3.24279e-05
3.25027e-05
3.25744e-05
3.26432e-05
3.27091e-05
3.27722e-05
3.28325e-05
3.28902e-05
3.29454e-05
3.29981e-05
3.30484e-05
3.30964e-05
3.31421e-05
3.31857e-05
3.32271e-05
3.32665e-05
3.3304e-05
3.33394e-05
3.33731e-05
3.3405e-05
3.34351e-05
3.34637e-05
3.34907e-05
3.35161e-05
3.35401e-05
3.35626e-05
3.35837e-05
3.3603e-05
3.36196e-05
3.36314e-05
3.36354e-05
3.36319e-05
3.36517e-05
3.36772e-05
2.53241e-05
2.51514e-05
2.49142e-05
2.45656e-05
2.41139e-05
2.35884e-05
2.30311e-05
2.30147e-05
2.4667e-05
3.05719e-05
3.9073e-05
4.47305e-05
5.7053e-05
5.9596e-05
4.99777e-05
6.05425e-05
5.36107e-05
4.34928e-05
3.48115e-05
2.57991e-05
2.36303e-05
2.32838e-05
2.36459e-05
2.42283e-05
2.46599e-05
2.49903e-05
2.52497e-05
2.54526e-05
2.5629e-05
2.58195e-05
2.6031e-05
2.62571e-05
2.64921e-05
2.67161e-05
2.69192e-05
2.71041e-05
2.7278e-05
2.74483e-05
2.76206e-05
2.77937e-05
2.7965e-05
2.81322e-05
2.82943e-05
2.84522e-05
2.86067e-05
2.8758e-05
2.89057e-05
2.90493e-05
2.91886e-05
2.9324e-05
2.94557e-05
2.95839e-05
2.97085e-05
2.98294e-05
2.99466e-05
3.00601e-05
3.01699e-05
3.0276e-05
3.03784e-05
3.04771e-05
3.05723e-05
3.06641e-05
3.07526e-05
3.0838e-05
3.09203e-05
3.09994e-05
3.10755e-05
3.11485e-05
3.12186e-05
3.12859e-05
3.13504e-05
3.14122e-05
3.14714e-05
3.1528e-05
3.15821e-05
3.16338e-05
3.16831e-05
3.17302e-05
3.1775e-05
3.18177e-05
3.18583e-05
3.18969e-05
3.19336e-05
3.19685e-05
3.20015e-05
3.20327e-05
3.20621e-05
3.20897e-05
3.2115e-05
3.2137e-05
3.21544e-05
3.2166e-05
3.21747e-05
3.22015e-05
3.22327e-05
2.37093e-05
2.35301e-05
2.32606e-05
2.30423e-05
2.30273e-05
2.29659e-05
2.27507e-05
2.3763e-05
2.88664e-05
3.84317e-05
4.80301e-05
6.2374e-05
6.18569e-05
5.10913e-05
6.31164e-05
5.83753e-05
4.43039e-05
3.26744e-05
2.48301e-05
2.31354e-05
2.29024e-05
2.29505e-05
2.29793e-05
2.31066e-05
2.33202e-05
2.35429e-05
2.3725e-05
2.3872e-05
2.40192e-05
2.41787e-05
2.43591e-05
2.4562e-05
2.47608e-05
2.4944e-05
2.51123e-05
2.52704e-05
2.54246e-05
2.55808e-05
2.57401e-05
2.59025e-05
2.6065e-05
2.62249e-05
2.63819e-05
2.6536e-05
2.66872e-05
2.68353e-05
2.69801e-05
2.71217e-05
2.72609e-05
2.73979e-05
2.75326e-05
2.76647e-05
2.77937e-05
2.79196e-05
2.8042e-05
2.81608e-05
2.82761e-05
2.83878e-05
2.84962e-05
2.86014e-05
2.87034e-05
2.88024e-05
2.88983e-05
2.89913e-05
2.90811e-05
2.91678e-05
2.92514e-05
2.93319e-05
2.94094e-05
2.9484e-05
2.95558e-05
2.96248e-05
2.96912e-05
2.97548e-05
2.98158e-05
2.98743e-05
2.99303e-05
2.99838e-05
3.0035e-05
3.0084e-05
3.01307e-05
3.01753e-05
3.02178e-05
3.02582e-05
3.02966e-05
3.03329e-05
3.03669e-05
3.03984e-05
3.04267e-05
3.0451e-05
3.04718e-05
3.04926e-05
3.05267e-05
3.05635e-05
2.30604e-05
2.32738e-05
2.36841e-05
2.39051e-05
2.3459e-05
2.35717e-05
2.74392e-05
3.71151e-05
5.0371e-05
6.78779e-05
6.39836e-05
5.18894e-05
6.52761e-05
6.23981e-05
4.36521e-05
3.06045e-05
2.42366e-05
2.32732e-05
2.31699e-05
2.30407e-05
2.27201e-05
2.25489e-05
2.24849e-05
2.24775e-05
2.24922e-05
2.25193e-05
2.25548e-05
2.2613e-05
2.27347e-05
2.29162e-05
2.30796e-05
2.32214e-05
2.33475e-05
2.3463e-05
2.35754e-05
2.36927e-05
2.38248e-05
2.3973e-05
2.41234e-05
2.42708e-05
2.4414e-05
2.45533e-05
2.46894e-05
2.48229e-05
2.49545e-05
2.50862e-05
2.52195e-05
2.53534e-05
2.54867e-05
2.56182e-05
2.57473e-05
2.58735e-05
2.59965e-05
2.61162e-05
2.62326e-05
2.63465e-05
2.6458e-05
2.65672e-05
2.66741e-05
2.67785e-05
2.68805e-05
2.69796e-05
2.70759e-05
2.71692e-05
2.72594e-05
2.73466e-05
2.74309e-05
2.75124e-05
2.75912e-05
2.76674e-05
2.7741e-05
2.78119e-05
2.78802e-05
2.79459e-05
2.80091e-05
2.80698e-05
2.81281e-05
2.81841e-05
2.82377e-05
2.82891e-05
2.83382e-05
2.83852e-05
2.843e-05
2.84726e-05
2.85129e-05
2.85507e-05
2.85859e-05
2.86184e-05
2.86492e-05
2.86816e-05
2.87231e-05
2.87662e-05
2.42337e-05
2.4683e-05
2.52842e-05
2.5622e-05
2.49442e-05
2.42587e-05
2.65091e-05
3.53314e-05
5.11071e-05
7.33927e-05
6.59615e-05
5.24809e-05
6.71309e-05
6.48969e-05
4.21906e-05
2.89009e-05
2.42858e-05
2.4011e-05
2.39761e-05
2.37494e-05
2.32249e-05
2.28527e-05
2.26094e-05
2.24451e-05
2.23273e-05
2.22328e-05
2.2145e-05
2.20685e-05
2.20149e-05
2.19888e-05
2.19797e-05
2.19799e-05
2.19851e-05
2.19987e-05
2.20225e-05
2.20712e-05
2.21891e-05
2.23471e-05
2.24808e-05
2.25992e-05
2.27075e-05
2.28094e-05
2.29083e-05
2.30062e-05
2.31081e-05
2.3223e-05
2.33468e-05
2.34725e-05
2.3597e-05
2.37188e-05
2.38375e-05
2.39528e-05
2.40644e-05
2.41729e-05
2.42804e-05
2.43883e-05
2.44961e-05
2.46032e-05
2.47088e-05
2.48128e-05
2.49146e-05
2.50141e-05
2.51108e-05
2.52045e-05
2.52954e-05
2.53838e-05
2.54699e-05
2.55538e-05
2.56355e-05
2.57151e-05
2.57924e-05
2.58673e-05
2.59398e-05
2.60098e-05
2.60774e-05
2.61426e-05
2.62055e-05
2.62661e-05
2.63245e-05
2.63807e-05
2.64348e-05
2.64868e-05
2.65368e-05
2.65849e-05
2.6631e-05
2.66753e-05
2.67179e-05
2.67593e-05
2.68005e-05
2.68441e-05
2.68937e-05
2.69447e-05
2.61137e-05
2.65135e-05
2.70632e-05
2.73677e-05
2.67524e-05
2.54796e-05
2.61076e-05
3.34621e-05
5.04689e-05
7.79681e-05
6.76591e-05
5.29398e-05
6.87024e-05
6.58601e-05
4.03213e-05
2.7828e-05
2.48675e-05
2.50995e-05
2.51733e-05
2.48918e-05
2.42562e-05
2.37648e-05
2.34103e-05
2.31449e-05
2.29356e-05
2.27529e-05
2.25709e-05
2.23894e-05
2.22166e-05
2.20587e-05
2.19206e-05
2.18029e-05
2.17015e-05
2.16136e-05
2.15375e-05
2.14766e-05
2.14387e-05
2.14253e-05
2.14231e-05
2.1426e-05
2.14323e-05
2.14434e-05
2.14616e-05
2.149e-05
2.15496e-05
2.16723e-05
2.17975e-05
2.19099e-05
2.20128e-05
2.21086e-05
2.2199e-05
2.22846e-05
2.23658e-05
2.24481e-05
2.25401e-05
2.26388e-05
2.27393e-05
2.28392e-05
2.29375e-05
2.30336e-05
2.31275e-05
2.32186e-05
2.33069e-05
2.33924e-05
2.34762e-05
2.35592e-05
2.36415e-05
2.3723e-05
2.38032e-05
2.3882e-05
2.39589e-05
2.40338e-05
2.41065e-05
2.41768e-05
2.42449e-05
2.43108e-05
2.43747e-05
2.44367e-05
2.44968e-05
2.45552e-05
2.46121e-05
2.46675e-05
2.47216e-05
2.47743e-05
2.48261e-05
2.4877e-05
2.49275e-05
2.49784e-05
2.50305e-05
2.50856e-05
2.51455e-05
2.52081e-05
2.79609e-05
2.82952e-05
2.87597e-05
2.90111e-05
2.84817e-05
2.6967e-05
2.62847e-05
3.18396e-05
4.87291e-05
8.08835e-05
6.87429e-05
5.28883e-05
6.99463e-05
6.53281e-05
3.83292e-05
2.73945e-05
2.58127e-05
2.64166e-05
2.66391e-05
2.63275e-05
2.56374e-05
2.50781e-05
2.46549e-05
2.43248e-05
2.40546e-05
2.38116e-05
2.3565e-05
2.33128e-05
2.30627e-05
2.28221e-05
2.25997e-05
2.23999e-05
2.2219e-05
2.20526e-05
2.18974e-05
2.17518e-05
2.1618e-05
2.14977e-05
2.13903e-05
2.12935e-05
2.12059e-05
2.11269e-05
2.10572e-05
2.09977e-05
2.0953e-05
2.09293e-05
2.09218e-05
2.09236e-05
2.09315e-05
2.09429e-05
2.09563e-05
2.09699e-05
2.09876e-05
2.10313e-05
2.11281e-05
2.12278e-05
2.132e-05
2.14052e-05
2.14848e-05
2.15599e-05
2.16314e-05
2.16998e-05
2.17652e-05
2.18302e-05
2.1901e-05
2.19751e-05
2.20508e-05
2.21267e-05
2.22019e-05
2.22757e-05
2.23476e-05
2.24172e-05
2.24845e-05
2.25494e-05
2.26122e-05
2.26735e-05
2.27337e-05
2.27933e-05
2.28523e-05
2.29109e-05
2.29691e-05
2.30269e-05
2.30844e-05
2.31418e-05
2.31993e-05
2.32574e-05
2.33168e-05
2.33783e-05
2.34432e-05
2.35127e-05
2.35881e-05
2.36691e-05
3.0503e-05
3.0054e-05
2.85267e-05
2.70526e-05
3.05989e-05
4.61706e-05
8.05155e-05
6.8898e-05
5.24284e-05
7.08101e-05
6.32227e-05
3.61574e-05
2.74717e-05
2.70838e-05
2.79968e-05
2.82938e-05
2.79671e-05
2.7256e-05
2.66587e-05
2.61921e-05
2.58191e-05
2.5507e-05
2.52217e-05
2.49306e-05
2.46305e-05
2.43294e-05
2.40351e-05
2.37576e-05
2.35031e-05
2.32678e-05
2.30468e-05
2.28358e-05
2.26316e-05
2.24355e-05
2.22487e-05
2.20726e-05
2.1907e-05
2.1751e-05
2.16038e-05
2.14652e-05
2.13353e-05
2.12154e-05
2.11065e-05
2.1009e-05
2.09213e-05
2.0842e-05
2.07701e-05
2.07047e-05
2.06455e-05
2.05928e-05
2.05508e-05
2.05251e-05
2.05124e-05
2.05077e-05
2.05088e-05
2.05139e-05
2.05219e-05
2.05321e-05
2.05439e-05
2.05581e-05
2.05919e-05
2.06619e-05
2.07349e-05
2.08061e-05
2.08741e-05
2.09385e-05
2.09993e-05
2.10568e-05
2.11113e-05
2.11628e-05
2.12119e-05
2.12606e-05
2.13111e-05
2.13644e-05
2.14204e-05
2.14784e-05
2.15376e-05
2.15976e-05
2.16583e-05
2.17196e-05
2.17817e-05
2.18453e-05
2.19113e-05
2.19814e-05
2.20573e-05
2.21403e-05
2.22316e-05
2.23329e-05
2.24455e-05
3.18301e-05
3.14544e-05
3.0048e-05
2.81651e-05
2.98592e-05
4.31991e-05
7.58908e-05
6.71029e-05
5.14766e-05
7.13792e-05
5.97662e-05
3.42914e-05
2.79871e-05
2.86175e-05
2.97562e-05
3.00917e-05
2.97605e-05
2.90491e-05
2.84318e-05
2.79366e-05
2.75329e-05
2.71898e-05
2.68729e-05
2.6549e-05
2.62147e-05
2.58778e-05
2.55464e-05
2.5231e-05
2.49385e-05
2.4665e-05
2.44056e-05
2.41554e-05
2.39109e-05
2.36731e-05
2.34433e-05
2.32231e-05
2.30124e-05
2.28106e-05
2.26168e-05
2.24307e-05
2.22523e-05
2.20817e-05
2.19191e-05
2.17645e-05
2.16179e-05
2.1479e-05
2.13473e-05
2.12224e-05
2.11042e-05
2.09926e-05
2.08882e-05
2.07923e-05
2.07051e-05
2.06259e-05
2.05539e-05
2.04885e-05
2.04295e-05
2.03763e-05
2.03278e-05
2.02841e-05
2.02478e-05
2.0223e-05
2.02071e-05
2.01982e-05
2.01951e-05
2.01961e-05
2.02002e-05
2.02064e-05
2.0214e-05
2.02219e-05
2.02335e-05
2.02539e-05
2.0292e-05
2.03455e-05
2.04061e-05
2.04687e-05
2.05313e-05
2.05935e-05
2.06556e-05
2.07181e-05
2.07821e-05
2.08496e-05
2.09248e-05
2.10119e-05
2.1112e-05
2.12252e-05
2.13529e-05
2.1499e-05
2.16663e-05
3.29933e-05
3.26851e-05
3.14608e-05
2.94521e-05
2.96183e-05
4.0212e-05
6.76819e-05
6.27591e-05
5.01192e-05
7.12608e-05
5.5801e-05
3.30258e-05
2.89683e-05
3.03672e-05
3.16459e-05
3.20066e-05
3.16808e-05
3.09855e-05
3.0361e-05
2.98471e-05
2.94203e-05
2.90524e-05
2.87102e-05
2.83605e-05
2.79998e-05
2.76355e-05
2.7276e-05
2.69323e-05
2.66114e-05
2.63095e-05
2.60217e-05
2.57428e-05
2.54692e-05
2.52019e-05
2.49421e-05
2.46914e-05
2.44502e-05
2.42173e-05
2.39916e-05
2.37726e-05
2.35603e-05
2.33548e-05
2.31561e-05
2.29643e-05
2.27792e-05
2.26007e-05
2.24288e-05
2.22632e-05
2.2104e-05
2.1951e-05
2.18042e-05
2.16639e-05
2.15302e-05
2.14031e-05
2.12825e-05
2.11681e-05
2.10599e-05
2.09577e-05
2.08609e-05
2.07696e-05
2.06838e-05
2.06045e-05
2.05316e-05
2.04652e-05
2.04051e-05
2.03514e-05
2.03034e-05
2.02602e-05
2.02212e-05
2.01861e-05
2.01553e-05
2.013e-05
2.01122e-05
2.01033e-05
2.01032e-05
2.01108e-05
2.0125e-05
2.01454e-05
2.0172e-05
2.02051e-05
2.02464e-05
2.03026e-05
2.03902e-05
2.0512e-05
2.06562e-05
2.08183e-05
2.10047e-05
2.12261e-05
2.1483e-05
3.72815e-05
5.75714e-05
5.65039e-05
4.89705e-05
7.03987e-05
5.17464e-05
3.24023e-05
3.03392e-05
3.22528e-05
3.36356e-05
3.4018e-05
3.37076e-05
3.30442e-05
3.24264e-05
3.19044e-05
3.14623e-05
3.10756e-05
3.07129e-05
3.03422e-05
2.99597e-05
2.9573e-05
2.91906e-05
2.88237e-05
2.84795e-05
2.81545e-05
2.78441e-05
2.75429e-05
2.7247e-05
2.69574e-05
2.66758e-05
2.64035e-05
2.61397e-05
2.58829e-05
2.56328e-05
2.53891e-05
2.51517e-05
2.49207e-05
2.46962e-05
2.4478e-05
2.42661e-05
2.40603e-05
2.38607e-05
2.36671e-05
2.34796e-05
2.3298e-05
2.31222e-05
2.29523e-05
2.27883e-05
2.26302e-05
2.2478e-05
2.23316e-05
2.2191e-05
2.2056e-05
2.19266e-05
2.18027e-05
2.16842e-05
2.15713e-05
2.14641e-05
2.13626e-05
2.12669e-05
2.11772e-05
2.10933e-05
2.10151e-05
2.09424e-05
2.08752e-05
2.08137e-05
2.07585e-05
2.07108e-05
2.06707e-05
2.06384e-05
2.06144e-05
2.05989e-05
2.05927e-05
2.05965e-05
2.06117e-05
2.06409e-05
2.06872e-05
2.07557e-05
2.08518e-05
2.09786e-05
2.11453e-05
2.13826e-05
2.17091e-05
2.20895e-05
3.52478e-05
4.89741e-05
5.04197e-05
4.84742e-05
6.85851e-05
4.73247e-05
3.2454e-05
3.20262e-05
3.42675e-05
3.56938e-05
3.60981e-05
3.58151e-05
3.51996e-05
3.46032e-05
3.40846e-05
3.36364e-05
3.32386e-05
3.28627e-05
3.24779e-05
3.2081e-05
3.16789e-05
3.12802e-05
3.0896e-05
3.05338e-05
3.01905e-05
2.9862e-05
2.95422e-05
2.92281e-05
2.89205e-05
2.86207e-05
2.83297e-05
2.80459e-05
2.77693e-05
2.74994e-05
2.72357e-05
2.69783e-05
2.67273e-05
2.64827e-05
2.62444e-05
2.60122e-05
2.57861e-05
2.55661e-05
2.53521e-05
2.5144e-05
2.49418e-05
2.47454e-05
2.45547e-05
2.43699e-05
2.41908e-05
2.40174e-05
2.38498e-05
2.36879e-05
2.35316e-05
2.33811e-05