/*--------------------------------*- C++ -*----------------------------------*\
| =========                 |                                                 |
| \\      /  F ield         | OpenFOAM: The Open Source CFD Toolbox           |
|  \\    /   O peration     | Version:  2412                                  |
|   \\  /    A nd           | Website:  www.openfoam.com                      |
|    \\/     M anipulation  |                                                 |
\*---------------------------------------------------------------------------*/
FoamFile
{
    version     2.0;
    format      ascii;
    arch        "LSB;label=32;scalar=64";
    class       surfaceScalarField;
    location    "140";
    object      phi;
}
// * * * * * * * * * * * * * * * * * * * * * * * * * * * * * * * * * * * * * //

dimensions      [0 3 -1 0 0 0 0];

oriented        oriented;

internalField   nonuniform List<scalar> 
16910
(
2.27591e-06
7.885e-06
-1.01609e-05
4.35071e-06
-2.0748e-06
1.58156e-06
2.76915e-06
2.92343e-06
-1.34187e-06
3.08554e-06
-1.62106e-07
-2.59552e-06
5.68106e-06
-8.19395e-06
5.59843e-06
-9.20146e-06
1.00751e-06
-7.5959e-06
-1.60557e-06
-6.4044e-06
-1.1915e-06
-5.86904e-06
-5.35361e-07
-5.58478e-06
-2.84264e-07
-5.50638e-06
-7.84021e-08
-5.54678e-06
4.04075e-08
-5.58173e-06
3.49438e-08
-5.56373e-06
-1.80071e-08
-5.50586e-06
-5.78595e-08
-5.41534e-06
-9.05237e-08
-5.32002e-06
-9.53232e-08
-5.25037e-06
-6.96592e-08
-5.20856e-06
-4.1805e-08
-5.18656e-06
-2.2011e-08
-5.17407e-06
-1.24885e-08
-5.15926e-06
-1.48077e-08
-5.13922e-06
-2.00538e-08
-5.11659e-06
-2.26201e-08
-5.09528e-06
-2.13229e-08
-5.0778e-06
-1.74857e-08
-5.06377e-06
-1.40311e-08
-5.05123e-06
-1.2543e-08
-5.03897e-06
-1.22714e-08
-5.02725e-06
-1.17248e-08
-5.01608e-06
-1.11781e-08
-5.0055e-06
-1.05871e-08
-4.99607e-06
-9.44834e-09
-4.9874e-06
-8.67664e-09
-4.97928e-06
-8.12789e-09
-4.9712e-06
-8.0801e-09
-4.96412e-06
-7.08559e-09
-4.95731e-06
-6.80824e-09
-4.95094e-06
-6.37829e-09
-4.94485e-06
-6.09088e-09
-4.93902e-06
-5.82761e-09
-4.93373e-06
-5.30307e-09
-4.92865e-06
-5.06222e-09
-4.92383e-06
-4.83917e-09
-4.91931e-06
-4.50844e-09
-4.91519e-06
-4.13405e-09
-4.91106e-06
-4.13131e-09
-4.90716e-06
-3.90938e-09
-4.90343e-06
-3.73588e-09
-4.90004e-06
-3.39224e-09
-4.89669e-06
-3.36898e-09
-4.89359e-06
-3.11846e-09
-4.89062e-06
-2.97637e-09
-4.88783e-06
-2.76621e-09
-4.88517e-06
-2.7065e-09
-4.88246e-06
-2.69186e-09
-4.87974e-06
-2.75492e-09
-4.87758e-06
-2.14463e-09
-4.87525e-06
-2.37963e-09
-4.87315e-06
-2.11257e-09
-4.87114e-06
-2.03337e-09
-4.86908e-06
-2.06834e-09
-4.86736e-06
-1.73714e-09
-4.86544e-06
-1.9416e-09
-4.86357e-06
-1.9055e-09
-4.86192e-06
-1.67808e-09
-4.86046e-06
-1.49753e-09
-4.85884e-06
-1.65179e-09
-4.85736e-06
-1.46904e-09
-4.85592e-06
-1.56146e-09
-4.85447e-06
-1.45806e-09
-4.85325e-06
-1.36041e-09
-4.85195e-06
-1.34617e-09
-4.85098e-06
-1.08592e-09
-4.85017e-06
-9.04547e-10
-5.22085e-10
5.00812e-06
1.62553e-08
4.99593e-06
1.2187e-08
5.09859e-06
-1.02656e-07
5.3997e-06
-3.01106e-07
5.98427e-06
-5.8457e-07
7.23341e-06
-1.24915e-06
9.03097e-06
-1.79756e-06
9.06154e-06
-3.05765e-08
5.11694e-06
3.9446e-06
-7.42391e-07
5.85933e-06
-2.66266e-06
1.92027e-06
1.46732e-07
-2.80939e-06
-1.75216e-06
1.89889e-06
-9.86566e-06
8.11351e-06
-1.98066e-06
8.24449e-06
2.28568e-05
-4.12623e-05
1.49734e-05
-8.80369e-06
6.42173e-06
1.13208e-05
9.7364e-06
-4.65653e-06
8.40647e-06
1.16782e-06
-1.11051e-05
2.51926e-05
-2.85e-05
2.29933e-05
-3.10752e-05
3.5827e-06
-2.59774e-05
-6.70336e-06
-2.2208e-05
-4.96094e-06
-2.04854e-05
-2.25799e-06
-1.95736e-05
-1.19598e-06
-1.93207e-05
-3.31342e-07
-1.94298e-05
1.49491e-07
-1.95169e-05
1.22056e-07
-1.94359e-05
-9.90273e-08
-1.92255e-05
-2.68235e-07
-1.89161e-05
-3.99976e-07
-1.85985e-05
-4.12924e-07
-1.83651e-05
-3.02983e-07
-1.82235e-05
-1.83402e-07
-1.81465e-05
-9.90802e-08
-1.80993e-05
-5.97021e-08
-1.80438e-05
-7.02688e-08
-1.7972e-05
-9.18349e-08
-1.78936e-05
-1.01031e-07
-1.78194e-05
-9.55299e-08
-1.77583e-05
-7.85973e-08
-1.77076e-05
-6.4815e-08
-1.76626e-05
-5.74848e-08
-1.76194e-05
-5.55404e-08
-1.7577e-05
-5.41185e-08
-1.75377e-05
-5.05139e-08
-1.75011e-05
-4.7196e-08
-1.74674e-05
-4.314e-08
-1.74364e-05
-3.96879e-08
-1.74067e-05
-3.78374e-08
-1.73794e-05
-3.53837e-08
-1.73535e-05
-3.29939e-08
-1.7329e-05
-3.1342e-08
-1.73064e-05
-2.89237e-08
-1.72851e-05
-2.74031e-08
-1.72651e-05
-2.58383e-08
-1.72458e-05
-2.46453e-08
-1.72281e-05
-2.27185e-08
-1.72111e-05
-2.18202e-08
-1.71954e-05
-2.02181e-08
-1.71797e-05
-1.99056e-08
-1.71653e-05
-1.85393e-08
-1.71517e-05
-1.74528e-08
-1.71388e-05
-1.66366e-08
-1.71265e-05
-1.57131e-08
-1.71155e-05
-1.43636e-08
-1.7104e-05
-1.47381e-08
-1.70937e-05
-1.32713e-08
-1.70837e-05
-1.27513e-08
-1.70744e-05
-1.20472e-08
-1.70649e-05
-1.21104e-08
-1.70566e-05
-1.11036e-08
-1.70479e-05
-1.08353e-08
-1.70403e-05
-1.00684e-08
-1.70329e-05
-9.52629e-09
-1.70254e-05
-9.55221e-09
-1.70188e-05
-8.68756e-09
-1.70124e-05
-8.14291e-09
-1.70055e-05
-8.92675e-09
-1.69998e-05
-7.70524e-09
-1.69939e-05
-7.60885e-09
-1.69882e-05
-7.17788e-09
-1.69829e-05
-7.01457e-09
-1.69775e-05
-6.85251e-09
-1.69728e-05
-6.48387e-09
-1.69674e-05
-6.86839e-09
-1.69631e-05
-5.87074e-09
-1.69588e-05
-5.71505e-09
-1.69548e-05
-5.23943e-09
-1.69519e-05
-3.97352e-09
-2.33767e-09
1.74892e-05
5.6529e-08
1.74568e-05
4.45492e-08
1.77762e-05
-4.21991e-07
1.87274e-05
-1.2523e-06
2.0581e-05
-2.43823e-06
2.44925e-05
-5.16061e-06
3.01262e-05
-7.43126e-06
3.06392e-05
-5.43561e-07
1.86534e-05
1.59304e-05
-6.44452e-07
2.51572e-05
-8.159e-06
9.43482e-06
-5.11536e-07
-1.04569e-05
-7.84966e-06
9.237e-06
-3.12006e-05
3.14644e-05
-1.03244e-05
1.60269e-05
3.85011e-05
-9.57903e-05
2.88468e-05
-2.16235e-05
1.40146e-05
2.6153e-05
1.8139e-05
-8.78091e-06
1.25843e-05
6.72246e-06
-2.48675e-05
6.26445e-05
-5.54531e-05
5.35789e-05
-5.90074e-05
7.13703e-06
-4.9896e-05
-1.58148e-05
-4.32283e-05
-1.16287e-05
-4.01226e-05
-5.36364e-06
-3.84908e-05
-2.82781e-06
-3.80369e-05
-7.85225e-07
-3.82075e-05
3.20067e-07
-3.83238e-05
2.38412e-07
-3.81346e-05
-2.8832e-07
-3.7711e-05
-6.91774e-07
-3.71171e-05
-9.93931e-07
-3.65198e-05
-1.01024e-06
-3.60836e-05
-7.39164e-07
-3.58152e-05
-4.51824e-07
-3.56637e-05
-2.50562e-07
-3.55654e-05
-1.58014e-07
-3.54517e-05
-1.8396e-07
-3.53085e-05
-2.35018e-07
-3.51536e-05
-2.55887e-07
-3.50101e-05
-2.39071e-07
-3.48891e-05
-1.99616e-07
-3.47892e-05
-1.64734e-07
-3.46991e-05
-1.47602e-07
-3.46134e-05
-1.41255e-07
-3.45304e-05
-1.37076e-07
-3.4451e-05
-1.29938e-07
-3.43795e-05
-1.18719e-07
-3.4313e-05
-1.0972e-07
-3.42513e-05
-1.01339e-07
-3.41936e-05
-9.55614e-08
-3.41385e-05
-9.04834e-08
-3.40869e-05
-8.45786e-08
-3.40391e-05
-7.91975e-08
-3.39938e-05
-7.41869e-08
-3.39522e-05
-6.89957e-08
-3.39121e-05
-6.59962e-08
-3.38744e-05
-6.23152e-08
-3.38388e-05
-5.83171e-08
-3.38049e-05
-5.57529e-08
-3.37734e-05
-5.16913e-08
-3.37439e-05
-4.94459e-08
-3.37165e-05
-4.59402e-08
-3.36894e-05
-4.45655e-08
-3.36641e-05
-4.18919e-08
-3.36396e-05
-4.02565e-08
-3.36166e-05
-3.7358e-08
-3.35952e-05
-3.62057e-08
-3.35746e-05
-3.38377e-08
-3.35547e-05
-3.26165e-08
-3.35365e-05
-3.03526e-08
-3.35187e-05
-2.98767e-08
-3.35008e-05
-2.90583e-08
-3.34849e-05
-2.67668e-08
-3.34703e-05
-2.47154e-08
-3.34554e-05
-2.44164e-08
-3.34416e-05
-2.33737e-08
-3.34278e-05
-2.25263e-08
-3.34146e-05
-2.13662e-08
-3.34023e-05
-2.12813e-08
-3.33903e-05
-1.97751e-08
-3.33785e-05
-1.94326e-08
-3.33674e-05
-1.83389e-08
-3.33572e-05
-1.72677e-08
-3.3347e-05
-1.70724e-08
-3.33369e-05
-1.66895e-08
-3.3328e-05
-1.58551e-08
-3.33188e-05
-1.52507e-08
-3.33096e-05
-1.49963e-08
-3.33018e-05
-1.31618e-08
-3.32967e-05
-9.2175e-09
-5.72239e-09
3.43333e-05
1.04733e-07
3.4285e-05
9.29262e-08
3.48477e-05
-9.84755e-07
3.65422e-05
-2.94674e-06
3.9861e-05
-5.75703e-06
4.67609e-05
-1.20606e-05
5.67596e-05
-1.743e-05
5.8448e-05
-2.2319e-06
3.78895e-05
3.64888e-05
1.9847e-06
6.1062e-05
-1.40327e-05
2.54522e-05
-2.664e-06
-2.18256e-05
-1.74915e-05
2.40645e-05
-5.61295e-05
7.01024e-05
-2.79527e-05
2.46968e-05
5.48888e-05
-0.000175376
4.59346e-05
-4.28613e-05
2.49564e-05
4.71311e-05
2.79323e-05
-1.17568e-05
1.42881e-05
2.03667e-05
-4.5226e-05
0.000122159
-8.95464e-05
9.78994e-05
-9.31807e-05
1.07713e-05
-7.97993e-05
-2.91962e-05
-7.0153e-05
-2.1275e-05
-6.55534e-05
-9.9632e-06
-6.31614e-05
-5.21982e-06
-6.25007e-05
-1.44594e-06
-6.27168e-05
5.36199e-07
-6.28221e-05
3.43654e-07
-6.24663e-05
-6.44102e-07
-6.17603e-05
-1.3978e-06
-6.08147e-05
-1.9395e-06
-5.98831e-05
-1.94183e-06
-5.9205e-05
-1.41729e-06
-5.87815e-05
-8.75342e-07
-5.85373e-05
-4.94729e-07
-5.83674e-05
-3.27912e-07
-5.81736e-05
-3.77828e-07
-5.79375e-05
-4.71063e-07
-5.76845e-05
-5.08972e-07
-5.74515e-05
-4.72039e-07
-5.72549e-05
-3.96219e-07
-5.70896e-05
-3.30068e-07
-5.69416e-05
-2.9556e-07
-5.67986e-05
-2.84262e-07
-5.66613e-05
-2.74413e-07
-5.65325e-05
-2.58754e-07
-5.64132e-05
-2.38074e-07
-5.63036e-05
-2.19297e-07
-5.62003e-05
-2.04644e-07
-5.61046e-05
-1.9131e-07
-5.60145e-05
-1.80546e-07
-5.59295e-05
-1.69569e-07
-5.58507e-05
-1.58036e-07
-5.57769e-05
-1.48024e-07
-5.57058e-05
-1.40122e-07
-5.56405e-05
-1.31275e-07
-5.55783e-05
-1.24464e-07
-5.5519e-05
-1.17658e-07
-5.54646e-05
-1.10198e-07
-5.54123e-05
-1.03938e-07
-5.53637e-05
-9.81001e-08
-5.53159e-05
-9.3672e-08
-5.52718e-05
-8.86977e-08
-5.52308e-05
-8.29165e-08
-5.51921e-05
-7.90223e-08
-5.51532e-05
-7.62206e-08
-5.51185e-05
-7.09506e-08
-5.50839e-05
-6.84566e-08
-5.50518e-05
-6.47381e-08
-5.50209e-05
-6.12644e-08
-5.49917e-05
-5.90911e-08
-5.49646e-05
-5.62322e-08
-5.4938e-05
-5.32894e-08
-5.49122e-05
-5.06099e-08
-5.48874e-05
-4.92115e-08
-5.48638e-05
-4.70745e-08
-5.48427e-05
-4.36477e-08
-5.48219e-05
-4.21678e-08
-5.48012e-05
-4.2081e-08
-5.47818e-05
-3.92482e-08
-5.47636e-05
-3.76689e-08
-5.47452e-05
-3.67432e-08
-5.47277e-05
-3.48609e-08
-5.47116e-05
-3.32315e-08
-5.46955e-05
-3.29526e-08
-5.468e-05
-3.14066e-08
-5.46642e-05
-3.12535e-08
-5.46501e-05
-2.92186e-08
-5.46367e-05
-2.67087e-08
-5.46289e-05
-1.7168e-08
-1.05838e-08
5.63116e-05
1.27226e-07
5.62636e-05
1.40913e-07
5.70881e-05
-1.80926e-06
5.95869e-05
-5.44547e-06
6.45014e-05
-1.06716e-05
7.45316e-05
-2.20908e-05
8.91958e-05
-3.20941e-05
9.29576e-05
-5.99376e-06
6.4031e-05
6.54155e-05
8.62478e-06
0.000116468
-1.95733e-05
5.36503e-05
-6.86929e-06
-3.45296e-05
-3.0733e-05
4.79282e-05
-8.36756e-05
0.000123045
-5.67395e-05
3.3181e-05
7.2085e-05
-0.000280642
6.55916e-05
-7.52718e-05
3.94403e-05
7.32824e-05
3.88678e-05
-1.11843e-05
1.18347e-05
4.73998e-05
-7.35637e-05
0.000207557
-0.00013091
0.000155246
-0.000133586
1.34476e-05
-0.000116053
-4.67294e-05
-0.000103597
-3.37318e-05
-9.75088e-05
-1.6051e-05
-9.43804e-05
-8.3482e-06
-9.35204e-05
-2.30594e-06
-9.37556e-05
7.71342e-07
-9.37939e-05
3.81974e-07
-9.32029e-05
-1.23512e-06
-9.21438e-05
-2.45684e-06
-9.07799e-05
-3.3034e-06
-8.94703e-05
-3.25146e-06
-8.85147e-05
-2.37294e-06
-8.79159e-05
-1.47412e-06
-8.75541e-05
-8.56478e-07
-8.72915e-05
-5.90536e-07
-8.69932e-05
-6.76126e-07
-8.66382e-05
-8.26064e-07
-8.6265e-05
-8.82238e-07
-8.59183e-05
-8.18702e-07
-8.56295e-05
-6.85009e-07
-8.53832e-05
-5.76415e-07
-8.51589e-05
-5.19901e-07
-8.49472e-05
-4.95927e-07
-8.474e-05
-4.81604e-07
-8.45452e-05
-4.53621e-07
-8.43665e-05
-4.16797e-07
-8.42018e-05
-3.84001e-07
-8.40499e-05
-3.56543e-07
-8.39043e-05
-3.36943e-07
-8.37694e-05
-3.15443e-07
-8.3642e-05
-2.96923e-07
-8.35235e-05
-2.76618e-07
-8.34108e-05
-2.6067e-07
-8.33064e-05
-2.44563e-07
-8.32061e-05
-2.31522e-07
-8.31132e-05
-2.17403e-07
-8.30254e-05
-2.05429e-07
-8.29426e-05
-1.93014e-07
-8.28644e-05
-1.82208e-07
-8.27905e-05
-1.71981e-07
-8.27201e-05
-1.64052e-07
-8.26546e-05
-1.54234e-07
-8.25919e-05
-1.45614e-07
-8.25317e-05
-1.39222e-07
-8.2478e-05
-1.29994e-07
-8.24234e-05
-1.25551e-07
-8.2373e-05
-1.1886e-07
-8.23248e-05
-1.12894e-07
-8.22797e-05
-1.06507e-07
-8.22351e-05
-1.03607e-07
-8.21923e-05
-9.91395e-08
-8.21522e-05
-9.33193e-08
-8.21142e-05
-8.86503e-08
-8.20799e-05
-8.3587e-08
-8.20457e-05
-8.12716e-08
-8.20107e-05
-7.87535e-08
-8.1979e-05
-7.38606e-08
-8.19495e-05
-7.16508e-08
-8.19195e-05
-6.92752e-08
-8.18905e-05
-6.67056e-08
-8.18649e-05
-6.24037e-08
-8.18375e-05
-6.23857e-08
-8.18134e-05
-5.73125e-08
-8.17887e-05
-5.78689e-08
-8.17653e-05
-5.47962e-08
-8.17429e-05
-5.39347e-08
-8.17225e-05
-4.96918e-08
-8.17027e-05
-4.66907e-08
-8.16892e-05
-3.07992e-08
-1.59827e-08
8.41865e-05
7.34971e-08
8.41694e-05
1.58055e-07
8.52654e-05
-2.90529e-06
8.85824e-05
-8.76248e-06
9.51348e-05
-1.72239e-05
0.000108229
-3.51846e-05
0.000127532
-5.1398e-05
0.000134291
-1.2752e-05
9.81129e-05
0.000101593
2.10418e-05
0.000193539
-2.38012e-05
9.84933e-05
-1.35802e-05
-4.47505e-05
-4.70865e-05
8.14345e-05
-0.000112116
0.000188075
-9.67711e-05
4.06963e-05
8.87179e-05
-0.000410056
8.66079e-05
-0.000121183
5.71021e-05
0.000102788
5.04232e-05
-4.50539e-06
3.1765e-06
9.46465e-05
-0.000111161
0.000321895
-0.000179358
0.000223443
-0.00018014
1.42286e-05
-0.000158968
-6.79013e-05
-0.00014409
-4.86094e-05
-0.000136641
-2.35001e-05
-0.000132868
-1.21212e-05
-0.000131827
-3.34707e-06
-0.000132035
9.80046e-07
-0.000131931
2.77663e-07
-0.00013103
-2.13662e-06
-0.000129544
-3.9424e-06
-0.000127718
-5.12994e-06
-0.000125995
-4.97381e-06
-0.000124743
-3.62535e-06
-0.000123948
-2.26911e-06
-0.000123451
-1.35279e-06
-0.000123071
-9.7072e-07
-0.000122642
-1.10585e-06
-0.000122142
-1.32603e-06
-0.000121624
-1.40021e-06
-0.000121151
-1.2914e-06
-0.000120746
-1.08961e-06
-0.000120401
-9.21364e-07
-0.000120088
-8.33836e-07
-0.000119785
-7.98618e-07
-0.000119495
-7.71435e-07
-0.000119224
-7.24694e-07
-0.000118973
-6.67968e-07
-0.00011874
-6.16846e-07
-0.000118524
-5.72622e-07
-0.000118321
-5.39949e-07
-0.000118128
-5.08721e-07
-0.00011795
-4.74735e-07
-0.000117779
-4.47346e-07
-0.000117624
-4.16129e-07
-0.000117473
-3.95255e-07
-0.000117335
-3.69737e-07
-0.000117202
-3.49736e-07
-0.00011708
-3.28092e-07
-0.000116963
-3.09576e-07
-0.000116852
-2.93765e-07
-0.000116748
-2.7615e-07
-0.000116649
-2.62317e-07
-0.000116555
-2.48108e-07
-0.000116466
-2.34796e-07
-0.000116384
-2.21699e-07
-0.000116304
-2.09715e-07
-0.000116229
-2.01145e-07
-0.000116157
-1.90423e-07
-0.000116089
-1.80621e-07
-0.000116023
-1.72454e-07
-0.000115962
-1.64769e-07
-0.000115905
-1.56087e-07
-0.000115849
-1.49888e-07
-0.000115796
-1.41213e-07
-0.000115744
-1.36356e-07
-0.000115694
-1.31112e-07
-0.000115649
-1.23958e-07
-0.000115604
-1.1844e-07
-0.000115559
-1.16646e-07
-0.000115518
-1.10034e-07
-0.00011548
-1.05609e-07
-0.00011544
-1.02244e-07
-0.000115403
-9.8928e-08
-0.000115368
-9.25441e-08
-0.000115335
-9.12795e-08
-0.0001153
-9.00505e-08
-0.000115269
-8.51748e-08
-0.000115237
-8.18183e-08
-0.000115212
-7.2019e-08
-0.000115193
-4.92548e-08
-2.18104e-08
0.000118656
-1.32798e-07
0.000118724
8.95853e-08
0.000120097
-4.2784e-06
0.000124201
-1.28659e-05
0.000132327
-2.53503e-05
0.000148218
-5.10755e-05
0.000171776
-7.49556e-05
0.000182295
-2.32712e-05
0.000140898
0.00014299
4.11588e-05
0.000293279
-2.5588e-05
0.00016524
-2.32159e-05
-4.71226e-05
-6.62036e-05
0.000124422
-0.000139705
0.000261577
-0.000147758
4.64772e-05
0.000103175
-0.000559709
0.000107304
-0.00018201
7.72156e-05
0.000132876
6.13616e-05
1.13486e-05
-1.36587e-05
0.000169667
-0.000158317
0.000466553
-0.000234322
0.000299449
-0.000232873
1.27789e-05
-0.000208834
-9.194e-05
-0.00019209
-6.53534e-05
-0.000183513
-3.20768e-05
-0.000179225
-1.641e-05
-0.00017802
-4.55148e-06
-0.000178142
1.10218e-06
-0.000177815
-4.92886e-08
-0.000176532
-3.41947e-06
-0.000174569
-5.90582e-06
-0.000172245
-7.45357e-06
-0.000170101
-7.11797e-06
-0.000168547
-5.17915e-06
-0.000167542
-3.27466e-06
-0.000166893
-2.00189e-06
-0.000166368
-1.49564e-06
-0.000165781
-1.693e-06
-0.000165115
-1.99227e-06
-0.000164434
-2.08059e-06
-0.000163808
-1.91757e-06
-0.000163278
-1.61973e-06
-0.000162816
-1.38294e-06
-0.000162396
-1.25379e-06
-0.000161991
-1.20381e-06
-0.000161604
-1.15874e-06
-0.000161241
-1.08718e-06
-0.000160902
-1.00721e-06
-0.000160592
-9.27113e-07
-0.000160302
-8.62923e-07
-0.000160026
-8.15645e-07
-0.00015977
-7.643e-07
-0.000159527
-7.18311e-07
-0.000159303
-6.71237e-07
-0.000159087
-6.31663e-07
-0.000158892
-5.9071e-07
-0.000158703
-5.59076e-07
-0.000158525
-5.27059e-07
-0.000158356
-4.97802e-07
-0.000158198
-4.67271e-07
-0.000158051
-4.40818e-07
-0.000157909
-4.18285e-07
-0.000157777
-3.94322e-07
-0.00015765
-3.74626e-07
-0.000157533
-3.52155e-07
-0.000157419
-3.35165e-07
-0.000157313
-3.16236e-07
-0.000157212
-3.01983e-07
-0.000157115
-2.88075e-07
-0.000157024
-2.71552e-07
-0.000156936
-2.60149e-07
-0.000156853
-2.48051e-07
-0.000156772
-2.37225e-07
-0.000156698
-2.23203e-07
-0.000156625
-2.14109e-07
-0.000156556
-2.05775e-07
-0.000156491
-1.95957e-07
-0.000156429
-1.86695e-07
-0.000156367
-1.80147e-07
-0.00015631
-1.73921e-07
-0.000156253
-1.6726e-07
-0.000156197
-1.60808e-07
-0.000156147
-1.52504e-07
-0.000156096
-1.50044e-07
-0.000156047
-1.41256e-07
-0.000156001
-1.38054e-07
-0.000155958
-1.33121e-07
-0.000155912
-1.3164e-07
-0.000155871
-1.22224e-07
-0.000155835
-1.08402e-07
-0.000155813
-7.11767e-08
-3.0023e-08
0.000160326
-5.8219e-07
0.000160551
-1.34536e-07
0.000162216
-5.94378e-06
0.000167032
-1.76817e-05
0.000176581
-3.48993e-05
0.000194847
-6.93419e-05
0.000221995
-0.000102103
0.000236626
-3.7902e-05
0.000192658
0.000186957
7.08527e-05
0.000415085
-2.35333e-05
0.000259626
-3.59629e-05
-3.46929e-05
-8.79783e-05
0.000176438
-0.000164295
0.000337893
-0.000208878
5.01979e-05
0.000114991
-0.000724898
0.000126157
-0.000257968
9.913e-05
0.000159903
7.05891e-05
3.98895e-05
-4.02984e-05
0.000280554
-0.000215053
0.000641307
-0.000295394
0.000379789
-0.000292002
9.38713e-06
-0.000265984
-0.000117958
-0.000247995
-8.33422e-05
-0.000238593
-4.1479e-05
-0.000233937
-2.1066e-05
-0.000232573
-5.91568e-06
-0.000232536
1.06572e-06
-0.000231904
-6.81133e-07
-0.000230182
-5.14154e-06
-0.000227715
-8.37281e-06
-0.0002249
-1.02687e-05
-0.000222348
-9.6704e-06
-0.000220497
-7.02955e-06
-0.000219281
-4.49092e-06
-0.000218457
-2.82592e-06
-0.00021777
-2.18263e-06
-0.000217006
-2.45714e-06
-0.000216151
-2.84717e-06
-0.000215289
-2.94237e-06
-0.000214507
-2.70014e-06
-0.000213833
-2.29336e-06
-0.000213244
-1.97207e-06
-0.0002127
-1.79807e-06
-0.000212183
-1.72064e-06
-0.000211685
-1.65668e-06
-0.000211215
-1.55699e-06
-0.000210783
-1.43933e-06
-0.000210382
-1.32822e-06
-0.000210004
-1.24101e-06
-0.000209654
-1.16553e-06
-0.000209321
-1.09694e-06
-0.000209011
-1.02856e-06
-0.000208717
-9.65913e-07
-0.000208443
-9.05608e-07
-0.00020818
-8.53073e-07
-0.000207936
-8.03459e-07
-0.000207708
-7.55329e-07
-0.000207493
-7.12379e-07
-0.00020729
-6.7066e-07
-0.000207096
-6.34838e-07
-0.000206913
-6.01235e-07
-0.00020674
-5.66777e-07
-0.000206579
-5.3567e-07
-0.000206424
-5.07879e-07
-0.000206279
-4.79788e-07
-0.000206137
-4.57772e-07
-0.000206006
-4.33635e-07
-0.000205883
-4.10978e-07
-0.000205764
-3.90909e-07
-0.00020565
-3.74146e-07
-0.000205541
-3.57167e-07
-0.00020544
-3.3742e-07
-0.000205339
-3.24201e-07
-0.000205245
-3.08611e-07
-0.000205155
-2.95674e-07
-0.000205068
-2.82994e-07
-0.000204986
-2.68522e-07
-0.000204908
-2.58826e-07
-0.000204832
-2.49953e-07
-0.00020476
-2.39124e-07
-0.000204689
-2.32264e-07
-0.000204621
-2.2009e-07
-0.000204557
-2.14631e-07
-0.000204493
-2.04862e-07
-0.000204432
-1.99117e-07
-0.000204371
-1.94017e-07
-0.000204315
-1.87901e-07
-0.000204259
-1.7848e-07
-0.000204212
-1.55887e-07
-0.000204184
-9.99957e-08
-3.3084e-08
0.000209685
-1.36885e-06
0.000210161
-6.11088e-07
0.000212147
-7.9296e-06
0.000217585
-2.31193e-05
0.000228324
-4.56389e-05
0.000248455
-8.94727e-05
0.000278427
-0.000132075
0.000296917
-5.63916e-05
0.000253151
0.000230722
0.000112076
0.00055616
-1.58281e-05
0.00038753
-5.15034e-05
9.82353e-07
-0.000111997
0.000236931
-0.000185816
0.000411712
-0.000279703
5.20846e-05
0.000125274
-0.000902257
0.000142489
-0.000348373
0.000121347
0.000181045
7.68891e-05
8.43474e-05
-7.75696e-05
0.000435013
-0.000281433
0.00084517
-0.000362592
0.000460949
-0.000357911
4.70613e-06
-0.000330783
-0.000145086
-0.000312154
-0.000101971
-0.000302244
-5.13892e-05
-0.000297348
-2.59617e-05
-0.000295822
-7.4418e-06
-0.000295564
8.0747e-07
-0.00029457
-1.675e-06
-0.00029238
-7.33139e-06
-0.000289419
-1.13337e-05
-0.000286143
-1.35444e-05
-0.000283216
-1.25972e-05
-0.000281092
-9.15394e-06
-0.000279667
-5.91586e-06
-0.000278666
-3.82729e-06
-0.000277801
-3.0476e-06
-0.00027684
-3.41745e-06
-0.000275792
-3.89568e-06
-0.000274747
-3.98704e-06
-0.000273795
-3.65228e-06
-0.000272971
-3.11768e-06
-0.000272247
-2.6957e-06
-0.000271576
-2.46908e-06
-0.00027093
-2.36684e-06
-0.000270315
-2.27159e-06
-0.000269736
-2.13655e-06
-0.000269199
-1.97632e-06
-0.000268702
-1.82542e-06
-0.000268235
-1.70733e-06
-0.000267794
-1.60694e-06
-0.000267377
-1.51381e-06
-0.000266991
-1.4147e-06
-0.000266624
-1.3326e-06
-0.000266284
-1.2462e-06
-0.00026596
-1.1766e-06
-0.000265658
-1.10584e-06
-0.000265369
-1.04414e-06
-0.000265097
-9.84128e-07
-0.000264838
-9.29361e-07
-0.0002646
-8.72916e-07
-0.000264372
-8.29292e-07
-0.000264158
-7.80713e-07
-0.000263951
-7.42681e-07
-0.000263759
-7.00595e-07
-0.000263574
-6.64384e-07
-0.000263402
-6.2951e-07
-0.000263237
-5.98583e-07
-0.00026308
-5.68767e-07
-0.000262931
-5.39443e-07
-0.000262789
-5.15885e-07
-0.000262653
-4.94122e-07
-0.00026252
-4.70039e-07
-0.000262399
-4.45361e-07
-0.00026228
-4.27955e-07
-0.000262169
-4.06472e-07
-0.000262061
-3.90933e-07
-0.000261956
-3.73502e-07
-0.000261854
-3.60674e-07
-0.000261757
-3.47353e-07
-0.000261666
-3.30335e-07
-0.000261577
-3.20926e-07
-0.000261488
-3.09179e-07
-0.000261407
-2.96162e-07
-0.000261327
-2.84212e-07
-0.000261247
-2.79436e-07
-0.000261173
-2.68733e-07
-0.000261101
-2.60252e-07
-0.000261032
-2.47229e-07
-0.000260975
-2.12861e-07
-0.000260939
-1.36419e-07
-3.22434e-08
0.000267103
0.000267926
-1.43348e-06
0.000270263
-1.02671e-05
0.000276247
-2.91031e-05
0.000287916
-5.73077e-05
0.000309392
-0.000110949
0.000341451
-0.000164134
0.000362864
-7.78043e-05
0.000321973
0.000271613
0.0001671
0.000711034
4.82189e-07
0.000554148
-6.79726e-05
6.94371e-05
-0.00013721
0.000306169
-0.000205527
0.000480029
-0.000359955
5.36738e-05
0.000135058
-0.00109099
0.000156787
-0.000451486
0.000141318
0.000196514
7.71243e-05
0.000148541
-0.000127215
0.000639353
-0.000357253
0.00107521
-0.000436142
0.000539838
-0.000431049
-3.86993e-07
-0.000403539
-0.000172596
-0.000384846
-0.000120664
-0.000374707
-6.15282e-05
-0.000369689
-3.09804e-05
-0.000367993
-9.13775e-06
-0.000367477
2.91989e-07
-0.000366092
-3.0607e-06
-0.000363461
-9.96183e-06
-0.000360056
-1.4739e-05
-0.000356383
-1.72176e-05
-0.000353143
-1.58367e-05
-0.000350783
-1.15146e-05
-0.000349162
-7.53652e-06
-0.000347987
-5.00206e-06
-0.000346937
-4.09747e-06
-0.000345786
-4.56865e-06
-0.000344543
-5.13906e-06
-0.000343313
-5.21701e-06
-0.0003422
-4.76461e-06
-0.000341231
-4.08732e-06
-0.000340368
-3.55839e-06
-0.000339564
-3.27291e-06
-0.000338795
-3.13671e-06
-0.000338056
-3.00989e-06
-0.000337364
-2.82929e-06
-0.000336723
-2.61693e-06
-0.000336125
-2.42297e-06
-0.000335564
-2.26834e-06
-0.000335038
-2.13383e-06
-0.000334542
-2.00911e-06
-0.000334069
-1.88751e-06
-0.000333633
-1.76923e-06
-0.000333216
-1.6631e-06
-0.000332829
-1.56347e-06
-0.000332459
-1.47587e-06
-0.000332112
-1.39123e-06
-0.000331788
-1.30859e-06
-0.00033148
-1.23659e-06
-0.000331187
-1.16641e-06
-0.000330912
-1.10371e-06
-0.000330649
-1.04447e-06
-0.000330402
-9.89276e-07
-0.000330168
-9.34227e-07
-0.000329946
-8.86779e-07
-0.000329735
-8.40586e-07
-0.000329533
-8.00277e-07
-0.000329343
-7.59439e-07
-0.00032916
-7.21797e-07
-0.000328989
-6.87919e-07
-0.000328821
-6.61214e-07
-0.000328665
-6.26335e-07
-0.000328512
-5.98098e-07
-0.00032837
-5.70207e-07
-0.000328229
-5.47429e-07
-0.000328098
-5.21892e-07
-0.000327972
-4.99868e-07
-0.000327851
-4.81954e-07
-0.000327735
-4.6302e-07
-0.000327618
-4.47536e-07
-0.000327508
-4.3104e-07
-0.000327403
-4.143e-07
-0.000327298
-4.01133e-07
-0.000327197
-3.85319e-07
-0.000327104
-3.73433e-07
-0.00032701
-3.62808e-07
-0.000326917
-3.52893e-07
-0.00032683
-3.34638e-07
-0.000326761
-2.82461e-07
-0.000326726
-1.71981e-07
-2.36482e-08
0.000334068
-2.67993e-06
0.000336813
-1.30124e-05
0.000343268
-3.55573e-05
0.000355628
-6.96679e-05
0.000377929
-0.000133251
0.000411488
-0.000197692
0.000434779
-0.000101096
0.000398459
0.000307933
0.000235891
0.000873601
2.77312e-05
0.000762308
-8.38401e-05
0.000181008
-0.000164276
0.000386604
-0.00022563
0.000541383
-0.000450527
5.5375e-05
0.000145341
-0.0012917
0.000170558
-0.000566669
0.000159298
0.000207773
6.74959e-05
0.000240344
-0.000192364
0.000899212
-0.000442361
0.00132521
-0.000516413
0.00061389
-0.000511813
-4.98692e-06
-0.000484516
-0.000199893
-0.000466224
-0.000138956
-0.000456109
-7.16437e-05
-0.000451071
-3.60182e-05
-0.000449226
-1.09822e-05
-0.000448458
-4.76496e-07
-0.000446723
-4.79603e-06
-0.000443711
-1.29733e-05
-0.000439953
-1.84972e-05
-0.000435977
-2.11931e-05
-0.000432496
-1.93179e-05
-0.000429951
-1.40595e-05
-0.00042817
-9.31819e-06
-0.00042683
-6.34197e-06
-0.000425614
-5.31373e-06
-0.000424284
-5.89791e-06
-0.000422871
-6.55255e-06
-0.000421486
-6.60208e-06
-0.000420222
-6.02823e-06
-0.000419116
-5.19358e-06
-0.000418125
-4.5488e-06
-0.000417205
-4.19363e-06
-0.000416316
-4.02581e-06
-0.000415469
-3.85648e-06
-0.000414673
-3.62565e-06
-0.000413933
-3.35673e-06
-0.000413241
-3.11526e-06
-0.000412595
-2.91453e-06
-0.000411979
-2.74918e-06
-0.000411402
-2.58672e-06
-0.000410864
-2.42543e-06
-0.000410351
-2.28148e-06
-0.00040987
-2.1445e-06
-0.000409414
-2.01951e-06
-0.00040899
-1.90032e-06
-0.000408588
-1.79288e-06
-0.000408202
-1.69413e-06
-0.000407841
-1.59751e-06
-0.000407503
-1.50506e-06
-0.00040718
-1.42616e-06
-0.000406877
-1.34835e-06
-0.000406588
-1.27766e-06
-0.000406312
-1.21079e-06
-0.000406052
-1.14669e-06
-0.000405806
-1.08603e-06
-0.000405571
-1.03544e-06
-0.000405345
-9.85271e-07
-0.000405133
-9.34408e-07
-0.000404928
-8.92527e-07
-0.000404737
-8.52012e-07
-0.000404548
-8.15541e-07
-0.000404371
-7.75291e-07
-0.000404201
-7.40446e-07
-0.000404039
-7.08999e-07
-0.000403881
-6.8071e-07
-0.00040373
-6.50929e-07
-0.000403586
-6.25739e-07
-0.000403443
-6.05637e-07
-0.000403307
-5.83745e-07
-0.000403175
-5.63254e-07
-0.000403048
-5.41795e-07
-0.000402927
-5.21499e-07
-0.000402809
-5.04199e-07
-0.000402692
-4.90529e-07
-0.000402578
-4.77084e-07
-0.000402468
-4.62816e-07
-0.00040237
-4.32914e-07
-0.000402285
-3.67701e-07
-0.000402243
-2.14328e-07
-0.000402243
-2.37196e-08
-0.00040219
-2.30855e-07
-0.000402031
-6.11877e-07
-7.95913e-07
0.000408693
-4.38092e-06
0.000411863
-1.6182e-05
0.000418732
-4.24267e-05
0.000431564
-8.25002e-05
0.000454263
-0.00015595
0.000488854
-0.000232283
0.000512055
-0.000124297
0.000481371
0.000338617
0.000319036
0.00103594
6.86427e-05
0.0010127
-9.53225e-05
0.000344974
-0.000191648
0.000482929
-0.00024706
0.000596795
-0.000552246
5.7114e-05
0.000156866
-0.00150568
0.000184466
-0.000694021
0.00017581
0.00021643
4.29677e-05
0.000373185
-0.000277236
0.00121942
-0.000536504
0.00158447
-0.000603839
0.000681225
-0.000600452
-8.37445e-06
-0.000573864
-0.000226481
-0.000556363
-0.000156457
-0.000546482
-8.15246e-05
-0.000541533
-4.09675e-05
-0.000539612
-1.29036e-05
-0.000538652
-1.43639e-06
-0.000536655
-6.79307e-06
-0.000533375
-1.62528e-05
-0.000529388
-2.24841e-05
-0.000525223
-2.53584e-05
-0.000521593
-2.29477e-05
-0.00051893
-1.67227e-05
-0.000517035
-1.12133e-05
-0.000515581
-7.79585e-06
-0.000514237
-6.65812e-06
-0.000512775
-7.35964e-06
-0.000511229
-8.09845e-06
-0.000509712
-8.11903e-06
-0.000508341
-7.39946e-06
-0.000507135
-6.4001e-06
-0.000506049
-5.63396e-06
-0.000505024
-5.21893e-06
-0.000504046
-5.00379e-06
-0.000503107
-4.79564e-06
-0.000502229
-4.50352e-06
-0.000501408
-4.17749e-06
-0.000500644
-3.87999e-06
-0.00049992
-3.63879e-06
-0.000499238
-3.43042e-06
-0.000498598
-3.22695e-06
-0.000497993
-3.03097e-06
-0.000497424
-2.85019e-06
-0.000496889
-2.67909e-06
-0.000496383
-2.52569e-06
-0.000495903
-2.38026e-06
-0.000495453
-2.24318e-06
-0.000495029
-2.11783e-06
-0.000494627
-1.99986e-06
-0.000494242
-1.88975e-06
-0.000493878
-1.79008e-06
-0.000493538
-1.68871e-06
-0.000493215
-1.60102e-06
-0.000492905
-1.52019e-06
-0.000492615
-1.43652e-06
-0.000492334
-1.36761e-06
-0.00049207
-1.29954e-06
-0.000491818
-1.23721e-06
-0.000491576
-1.17626e-06
-0.000491345
-1.12398e-06
-0.000491122
-1.07496e-06
-0.000490914
-1.02331e-06
-0.000490709
-9.80032e-07
-0.000490516
-9.3375e-07
-0.000490329
-8.95919e-07
-0.000490149
-8.60779e-07
-0.00048998
-8.20725e-07
-0.000489809
-7.96766e-07
-0.000489646
-7.67897e-07
-0.000489493
-7.37733e-07
-0.000489342
-7.13732e-07
-0.000489194
-6.89715e-07
-0.000489049
-6.67284e-07
-0.000488912
-6.41034e-07
-0.000488778
-6.24997e-07
-0.000488648
-6.07014e-07
-0.000488522
-5.89157e-07
-0.000488403
-5.52478e-07
-0.000488308
-4.62646e-07
-0.000488255
-2.6784e-07
-0.000488247
-3.188e-08
-0.000488169
-3.09799e-07
-0.000487979
-8.01881e-07
-1.03293e-06
0.00049181
-6.52317e-06
0.000495385
-1.97572e-05
0.000502602
-4.96442e-05
0.000515728
-9.56258e-05
0.000538444
-0.000178666
0.000573511
-0.00026735
0.000596399
-0.000147185
0.000571476
0.00036354
0.000415621
0.00119179
0.000126164
0.00130216
-9.80578e-05
0.000569196
-0.000216665
0.000601536
-0.000269767
0.000649898
-0.000665148
6.00913e-05
0.000168256
-0.00173403
0.000198307
-0.000832237
0.000188996
0.000225741
1.3829e-06
0.000560798
-0.000379275
0.00160007
-0.000637345
0.00184254
-0.000699252
0.000743131
-0.000697155
-1.04708e-05
-0.000671744
-0.000251892
-0.000655313
-0.000172888
-0.000645837
-9.10006e-05
-0.000641124
-4.56807e-05
-0.000639226
-1.48017e-05
-0.000638208
-2.45441e-06
-0.000636079
-8.92244e-06
-0.000632683
-1.96483e-05
-0.000628609
-2.65585e-05
-0.000624372
-2.95952e-05
-0.000620703
-2.66167e-05
-0.000618013
-1.9413e-05
-0.000616083
-1.3143e-05
-0.00061457
-9.30837e-06
-0.000613172
-8.05624e-06
-0.000611638
-8.8942e-06
-0.000610024
-9.71205e-06
-0.000608449
-9.69386e-06
-0.000607021
-8.82793e-06
-0.00060576
-7.66099e-06
-0.000604621