/*--------------------------------*- C++ -*----------------------------------*\
| =========                 |                                                 |
| \\      /  F ield         | OpenFOAM: The Open Source CFD Toolbox           |
|  \\    /   O peration     | Version:  2412                                  |
|   \\  /    A nd           | Website:  www.openfoam.com                      |
|    \\/     M anipulation  |                                                 |
\*---------------------------------------------------------------------------*/
FoamFile
{
    version     2.0;
    format      ascii;
    arch        "LSB;label=32;scalar=64";
    class       volScalarField;
    location    "480";
    object      nuTilda;
}
// * * * * * * * * * * * * * * * * * * * * * * * * * * * * * * * * * * * * * //

dimensions      [0 2 -1 0 0 0 0];

internalField   nonuniform List<scalar> 
8702
(
1.18191e-06
1.18386e-06
1.1857e-06
1.18744e-06
1.18907e-06
1.19064e-06
1.19215e-06
1.19358e-06
1.19497e-06
1.19633e-06
1.19767e-06
1.19895e-06
1.20017e-06
1.20133e-06
1.20243e-06
1.20346e-06
1.20442e-06
1.20532e-06
1.2062e-06
1.20701e-06
1.20778e-06
1.20853e-06
1.20925e-06
1.20995e-06
1.21065e-06
1.21132e-06
1.21196e-06
1.21259e-06
1.21319e-06
1.21373e-06
1.21423e-06
1.2147e-06
1.2151e-06
1.21545e-06
1.21576e-06
1.21598e-06
1.21618e-06
1.21633e-06
1.21643e-06
1.21648e-06
1.21647e-06
1.21641e-06
1.21628e-06
1.21607e-06
1.21583e-06
1.2155e-06
1.2151e-06
1.2146e-06
1.21401e-06
1.21332e-06
1.21251e-06
1.21163e-06
1.21063e-06
1.20953e-06
1.20832e-06
1.20702e-06
1.20561e-06
1.20408e-06
1.20247e-06
1.20081e-06
1.19907e-06
1.19725e-06
1.19541e-06
1.19357e-06
1.19178e-06
1.19001e-06
1.18828e-06
1.18656e-06
1.18488e-06
1.1835e-06
1.18265e-06
1.18237e-06
1.1822e-06
1.18179e-06
1.18086e-06
1.18004e-06
1.18098e-06
1.18444e-06
1.19157e-06
1.20123e-06
1.20973e-06
1.21511e-06
3.67073e-06
3.677e-06
3.68296e-06
3.6886e-06
3.69393e-06
3.69899e-06
3.70383e-06
3.70847e-06
3.71294e-06
3.71732e-06
3.72157e-06
3.72566e-06
3.72956e-06
3.73329e-06
3.73678e-06
3.7401e-06
3.74319e-06
3.74609e-06
3.74886e-06
3.75146e-06
3.75396e-06
3.75636e-06
3.75868e-06
3.76093e-06
3.76317e-06
3.76533e-06
3.7674e-06
3.76941e-06
3.77131e-06
3.77305e-06
3.77467e-06
3.77615e-06
3.77744e-06
3.77857e-06
3.77956e-06
3.78036e-06
3.78101e-06
3.78153e-06
3.78189e-06
3.78211e-06
3.78215e-06
3.782e-06
3.78165e-06
3.78111e-06
3.78041e-06
3.77945e-06
3.77825e-06
3.77676e-06
3.77501e-06
3.77296e-06
3.77059e-06
3.76789e-06
3.76486e-06
3.76151e-06
3.75782e-06
3.75381e-06
3.74944e-06
3.74478e-06
3.73984e-06
3.73468e-06
3.72931e-06
3.7237e-06
3.71799e-06
3.71228e-06
3.70669e-06
3.70119e-06
3.6958e-06
3.69041e-06
3.6852e-06
3.68086e-06
3.6781e-06
3.67701e-06
3.67634e-06
3.67503e-06
3.67223e-06
3.66971e-06
3.67234e-06
3.68254e-06
3.70368e-06
3.7324e-06
3.75804e-06
3.77465e-06
6.41202e-06
6.42369e-06
6.43479e-06
6.44528e-06
6.45521e-06
6.46458e-06
6.47351e-06
6.48209e-06
6.49036e-06
6.49839e-06
6.50616e-06
6.51365e-06
6.52081e-06
6.52762e-06
6.53401e-06
6.54006e-06
6.54575e-06
6.55106e-06
6.5561e-06
6.5609e-06
6.56549e-06
6.56988e-06
6.57416e-06
6.57831e-06
6.5824e-06
6.58637e-06
6.59018e-06
6.59386e-06
6.59734e-06
6.60058e-06
6.60355e-06
6.60626e-06
6.60868e-06
6.6108e-06
6.61265e-06
6.61422e-06
6.6155e-06
6.61652e-06
6.6173e-06
6.61784e-06
6.61806e-06
6.61796e-06
6.61753e-06
6.6168e-06
6.61574e-06
6.61426e-06
6.61236e-06
6.60997e-06
6.6071e-06
6.60374e-06
6.59983e-06
6.59532e-06
6.59021e-06
6.58455e-06
6.57829e-06
6.57142e-06
6.56394e-06
6.55595e-06
6.54747e-06
6.53855e-06
6.52923e-06
6.51953e-06
6.50961e-06
6.49967e-06
6.48988e-06
6.48029e-06
6.47084e-06
6.4614e-06
6.45231e-06
6.44463e-06
6.43946e-06
6.43704e-06
6.4355e-06
6.43312e-06
6.42844e-06
6.42416e-06
6.42806e-06
6.44425e-06
6.47804e-06
6.52435e-06
6.56677e-06
6.59537e-06
9.39167e-06
9.41025e-06
9.42793e-06
9.44463e-06
9.4604e-06
9.47528e-06
9.48938e-06
9.5029e-06
9.51592e-06
9.5285e-06
9.54065e-06
9.55233e-06
9.56347e-06
9.57407e-06
9.58405e-06
9.59347e-06
9.60234e-06
9.61065e-06
9.61854e-06
9.62604e-06
9.63318e-06
9.64004e-06
9.64672e-06
9.65324e-06
9.65961e-06
9.66579e-06
9.67176e-06
9.67749e-06
9.68292e-06
9.68801e-06
9.69267e-06
9.69693e-06
9.70078e-06
9.70417e-06
9.70715e-06
9.70973e-06
9.71191e-06
9.71369e-06
9.71512e-06
9.71619e-06
9.71682e-06
9.717e-06
9.71675e-06
9.71607e-06
9.71491e-06
9.71317e-06
9.71081e-06
9.70776e-06
9.70402e-06
9.69952e-06
9.69422e-06
9.68806e-06
9.68101e-06
9.6731e-06
9.66429e-06
9.65458e-06
9.64398e-06
9.63258e-06
9.62043e-06
9.6076e-06
9.59416e-06
9.58016e-06
9.56578e-06
9.55129e-06
9.53697e-06
9.52291e-06
9.50904e-06
9.49521e-06
9.48188e-06
9.47038e-06
9.46219e-06
9.45771e-06
9.45472e-06
9.45091e-06
9.44437e-06
9.43838e-06
9.4428e-06
9.46348e-06
9.50708e-06
9.56748e-06
9.62472e-06
9.66533e-06
1.25942e-05
1.26217e-05
1.26479e-05
1.26726e-05
1.26959e-05
1.27179e-05
1.27386e-05
1.27584e-05
1.27774e-05
1.27956e-05
1.28133e-05
1.28301e-05
1.28462e-05
1.28615e-05
1.28759e-05
1.28896e-05
1.29024e-05
1.29144e-05
1.29258e-05
1.29367e-05
1.2947e-05
1.29569e-05
1.29666e-05
1.2976e-05
1.29852e-05
1.29941e-05
1.30027e-05
1.30109e-05
1.30187e-05
1.30261e-05
1.30328e-05
1.3039e-05
1.30446e-05
1.30496e-05
1.30541e-05
1.3058e-05
1.30613e-05
1.30642e-05
1.30666e-05
1.30685e-05
1.30698e-05
1.30706e-05
1.30709e-05
1.30706e-05
1.30697e-05
1.30681e-05
1.30656e-05
1.30623e-05
1.30581e-05
1.30529e-05
1.30465e-05
1.3039e-05
1.30303e-05
1.30204e-05
1.30092e-05
1.29969e-05
1.29833e-05
1.29685e-05
1.29527e-05
1.2936e-05
1.29183e-05
1.28999e-05
1.28809e-05
1.28617e-05
1.28426e-05
1.28237e-05
1.28051e-05
1.27865e-05
1.27686e-05
1.27528e-05
1.27408e-05
1.27333e-05
1.2728e-05
1.27222e-05
1.27138e-05
1.27061e-05
1.271e-05
1.27331e-05
1.27824e-05
1.28517e-05
1.29199e-05
1.29713e-05
1.60015e-05
1.60405e-05
1.60777e-05
1.61128e-05
1.61459e-05
1.61769e-05
1.6206e-05
1.62337e-05
1.62603e-05
1.62857e-05
1.63101e-05
1.63334e-05
1.63556e-05
1.63767e-05
1.63967e-05
1.64155e-05
1.64332e-05
1.64499e-05
1.64657e-05
1.64806e-05
1.64948e-05
1.65085e-05
1.65218e-05
1.65347e-05
1.65473e-05
1.65595e-05
1.65712e-05
1.65825e-05
1.65932e-05
1.66032e-05
1.66125e-05
1.6621e-05
1.66287e-05
1.66357e-05
1.66419e-05
1.66474e-05
1.66522e-05
1.66565e-05
1.66601e-05
1.66631e-05
1.66656e-05
1.66674e-05
1.66686e-05
1.66692e-05
1.6669e-05
1.66681e-05
1.66661e-05
1.66631e-05
1.66589e-05
1.66534e-05
1.66466e-05
1.66382e-05
1.66283e-05
1.66168e-05
1.66037e-05
1.6589e-05
1.65727e-05
1.65549e-05
1.65357e-05
1.65151e-05
1.64934e-05
1.64706e-05
1.6447e-05
1.6423e-05
1.63989e-05
1.6375e-05
1.63513e-05
1.63277e-05
1.63047e-05
1.6284e-05
1.62675e-05
1.62558e-05
1.6247e-05
1.62384e-05
1.62277e-05
1.62182e-05
1.62206e-05
1.62434e-05
1.62936e-05
1.63649e-05
1.64384e-05
1.64974e-05
1.95925e-05
1.96461e-05
1.96973e-05
1.97457e-05
1.97912e-05
1.98337e-05
1.98736e-05
1.99113e-05
1.99473e-05
1.99817e-05
2.00145e-05
2.00457e-05
2.00754e-05
2.01036e-05
2.01304e-05
2.01556e-05
2.01793e-05
2.02017e-05
2.02228e-05
2.02427e-05
2.02617e-05
2.02799e-05
2.02975e-05
2.03146e-05
2.03312e-05
2.03472e-05
2.03627e-05
2.03774e-05
2.03914e-05
2.04045e-05
2.04166e-05
2.04277e-05
2.04378e-05
2.0447e-05
2.04552e-05
2.04626e-05
2.04692e-05
2.0475e-05
2.04802e-05
2.04847e-05
2.04885e-05
2.04917e-05
2.04943e-05
2.04963e-05
2.04975e-05
2.04978e-05
2.0497e-05
2.0495e-05
2.04916e-05
2.04866e-05
2.04799e-05
2.04713e-05
2.04609e-05
2.04485e-05
2.0434e-05
2.04175e-05
2.0399e-05
2.03786e-05
2.03564e-05
2.03324e-05
2.03068e-05
2.02799e-05
2.02518e-05
2.0223e-05
2.01938e-05
2.01647e-05
2.01357e-05
2.01068e-05
2.00786e-05
2.00525e-05
2.00304e-05
2.00132e-05
1.99995e-05
1.99868e-05
1.99733e-05
1.99617e-05
1.99611e-05
1.99808e-05
2.00266e-05
2.00922e-05
2.01633e-05
2.02245e-05
2.33422e-05
2.34138e-05
2.34827e-05
2.35479e-05
2.36093e-05
2.36663e-05
2.37196e-05
2.37699e-05
2.38177e-05
2.38631e-05
2.39062e-05
2.39471e-05
2.39859e-05
2.40227e-05
2.40576e-05
2.40906e-05
2.41216e-05
2.41508e-05
2.41784e-05
2.42043e-05
2.42289e-05
2.42524e-05
2.42751e-05
2.4297e-05
2.43182e-05
2.43386e-05
2.43581e-05
2.43767e-05
2.43942e-05
2.44106e-05
2.44257e-05
2.44396e-05
2.44522e-05
2.44637e-05
2.44741e-05
2.44834e-05
2.44918e-05
2.44994e-05
2.45062e-05
2.45123e-05
2.45178e-05
2.45228e-05
2.45272e-05
2.4531e-05
2.45342e-05
2.45365e-05
2.45376e-05
2.45373e-05
2.45354e-05
2.45317e-05
2.4526e-05
2.45181e-05
2.45079e-05
2.44953e-05
2.44803e-05
2.44628e-05
2.44428e-05
2.44204e-05
2.43957e-05
2.43688e-05
2.43399e-05
2.43092e-05
2.4277e-05
2.42436e-05
2.42096e-05
2.41752e-05
2.41408e-05
2.41064e-05
2.40727e-05
2.40407e-05
2.40123e-05
2.39882e-05
2.39679e-05
2.39495e-05
2.3932e-05
2.39174e-05
2.39126e-05
2.39264e-05
2.39624e-05
2.40144e-05
2.40739e-05
2.41295e-05
2.72221e-05
2.73155e-05
2.74061e-05
2.74922e-05
2.75733e-05
2.76485e-05
2.77185e-05
2.77844e-05
2.78466e-05
2.79055e-05
2.79611e-05
2.80137e-05
2.80634e-05
2.81105e-05
2.81552e-05
2.81974e-05
2.82372e-05
2.82745e-05
2.83095e-05
2.83425e-05
2.83736e-05
2.84032e-05
2.84316e-05
2.84589e-05
2.84851e-05
2.85102e-05
2.85341e-05
2.85567e-05
2.85778e-05
2.85975e-05
2.86155e-05
2.8632e-05
2.86471e-05
2.86607e-05
2.8673e-05
2.86841e-05
2.86941e-05
2.87032e-05
2.87116e-05
2.87193e-05
2.87266e-05
2.87334e-05
2.87399e-05
2.87461e-05
2.87517e-05
2.87566e-05
2.87603e-05
2.87625e-05
2.8763e-05
2.87614e-05
2.87575e-05
2.87511e-05
2.8742e-05
2.87301e-05
2.87153e-05
2.86976e-05
2.86769e-05
2.86534e-05
2.86271e-05
2.8598e-05
2.85664e-05
2.85326e-05
2.84967e-05
2.84592e-05
2.84206e-05
2.83812e-05
2.83413e-05
2.83014e-05
2.82619e-05
2.82237e-05
2.81882e-05
2.81559e-05
2.81272e-05
2.81013e-05
2.8078e-05
2.80591e-05
2.80488e-05
2.8054e-05
2.80757e-05
2.81068e-05
2.81451e-05
2.81852e-05
3.12007e-05
3.13192e-05
3.14357e-05
3.15472e-05
3.16526e-05
3.175e-05
3.18406e-05
3.19255e-05
3.20054e-05
3.20806e-05
3.21513e-05
3.22177e-05
3.22804e-05
3.23396e-05
3.23958e-05
3.24489e-05
3.24988e-05
3.25456e-05
3.25894e-05
3.26304e-05
3.26689e-05
3.27053e-05
3.27399e-05
3.2773e-05
3.28045e-05
3.28345e-05
3.28627e-05
3.28891e-05
3.29136e-05
3.29361e-05
3.29566e-05
3.29753e-05
3.29921e-05
3.30072e-05
3.30209e-05
3.30331e-05
3.30442e-05
3.30543e-05
3.30638e-05
3.30728e-05
3.30816e-05
3.30902e-05
3.30989e-05
3.31075e-05
3.3116e-05
3.31239e-05
3.31307e-05
3.31361e-05
3.31396e-05
3.31408e-05
3.31395e-05
3.31354e-05
3.31282e-05
3.31178e-05
3.31041e-05
3.3087e-05
3.30664e-05
3.30426e-05
3.30154e-05
3.2985e-05
3.29515e-05
3.29152e-05
3.28764e-05
3.28354e-05
3.27926e-05
3.27484e-05
3.27033e-05
3.26578e-05
3.26124e-05
3.25678e-05
3.25246e-05
3.24831e-05
3.24444e-05
3.24089e-05
3.23776e-05
3.23527e-05
3.23352e-05
3.23298e-05
3.23338e-05
3.23383e-05
3.23464e-05
3.23605e-05
3.23896e-05
3.52448e-05
3.53905e-05
3.55367e-05
3.56781e-05
3.58127e-05
3.5937e-05
3.60525e-05
3.61605e-05
3.62618e-05
3.63566e-05
3.64453e-05
3.65282e-05
3.6606e-05
3.66794e-05
3.67489e-05
3.68145e-05
3.68762e-05
3.69339e-05
3.69877e-05
3.70377e-05
3.70843e-05
3.7128e-05
3.71692e-05
3.72083e-05
3.72451e-05
3.72797e-05
3.73119e-05
3.73416e-05
3.73687e-05
3.73934e-05
3.74155e-05
3.74352e-05
3.74528e-05
3.74684e-05
3.74822e-05
3.74945e-05
3.75056e-05
3.75158e-05
3.75254e-05
3.75349e-05
3.75446e-05
3.75546e-05
3.75652e-05
3.75762e-05
3.75875e-05
3.75985e-05
3.76086e-05
3.76174e-05
3.76242e-05
3.76287e-05
3.76303e-05
3.76289e-05
3.76241e-05
3.76158e-05
3.76037e-05
3.75879e-05
3.75682e-05
3.75448e-05
3.75175e-05
3.74865e-05
3.74518e-05
3.74138e-05
3.73727e-05
3.73288e-05
3.72824e-05
3.72339e-05
3.71838e-05
3.71328e-05
3.70817e-05
3.70304e-05
3.69793e-05
3.6928e-05
3.6878e-05
3.68308e-05
3.67892e-05
3.67561e-05
3.67297e-05
3.67118e-05
3.66961e-05
3.66704e-05
3.66415e-05
3.66195e-05
3.66102e-05
3.93226e-05
3.94947e-05
3.96726e-05
3.98479e-05
4.00167e-05
4.01729e-05
4.03183e-05
4.04541e-05
4.0581e-05
4.06993e-05
4.08093e-05
4.09115e-05
4.1007e-05
4.10968e-05
4.11816e-05
4.12616e-05
4.13367e-05
4.14068e-05
4.14718e-05
4.15318e-05
4.15872e-05
4.16387e-05
4.16867e-05
4.17317e-05
4.17735e-05
4.18123e-05
4.18477e-05
4.18797e-05
4.19084e-05
4.19338e-05
4.1956e-05
4.19754e-05
4.19921e-05
4.20065e-05
4.20189e-05
4.20295e-05
4.2039e-05
4.20476e-05
4.20561e-05
4.20649e-05
4.20744e-05
4.20849e-05
4.20965e-05
4.21093e-05
4.21228e-05
4.21365e-05
4.21497e-05
4.21615e-05
4.21715e-05
4.2179e-05
4.21835e-05
4.21847e-05
4.21824e-05
4.21762e-05
4.21659e-05
4.21515e-05
4.2133e-05
4.21103e-05
4.20834e-05
4.20523e-05
4.2017e-05
4.19778e-05
4.19349e-05
4.18887e-05
4.18392e-05
4.17868e-05
4.1732e-05
4.16758e-05
4.16189e-05
4.15611e-05
4.15019e-05
4.14405e-05
4.13783e-05
4.1318e-05
4.12638e-05
4.12199e-05
4.11826e-05
4.11507e-05
4.11143e-05
4.10572e-05
4.09875e-05
4.09217e-05
4.08674e-05
4.34079e-05
4.36001e-05
4.38086e-05
4.40196e-05
4.42269e-05
4.44201e-05
4.46007e-05
4.47698e-05
4.49275e-05
4.50738e-05
4.5209e-05
4.5334e-05
4.545e-05
4.55587e-05
4.5661e-05
4.57574e-05
4.58478e-05
4.59318e-05
4.60093e-05
4.60803e-05
4.61452e-05
4.62047e-05
4.62597e-05
4.63103e-05
4.63567e-05
4.63988e-05
4.64364e-05
4.64695e-05
4.64981e-05
4.65225e-05
4.65429e-05
4.65598e-05
4.65735e-05
4.65845e-05
4.65931e-05
4.65999e-05
4.66055e-05
4.66106e-05
4.66159e-05
4.66222e-05
4.663e-05
4.66395e-05
4.66511e-05
4.66643e-05
4.6679e-05
4.66942e-05
4.67092e-05
4.67231e-05
4.67351e-05
4.67446e-05
4.6751e-05
4.67539e-05
4.67531e-05
4.67483e-05
4.67393e-05
4.67258e-05
4.6708e-05
4.66858e-05
4.6659e-05
4.66276e-05
4.65917e-05
4.65514e-05
4.65069e-05
4.64585e-05
4.64062e-05
4.63501e-05
4.62908e-05
4.62294e-05
4.61667e-05
4.61023e-05
4.60352e-05
4.59637e-05
4.5889e-05
4.58144e-05
4.57456e-05
4.56884e-05
4.56382e-05
4.55911e-05
4.55338e-05
4.54462e-05
4.5335e-05
4.52211e-05
4.51165e-05
4.74875e-05
4.76843e-05
4.79156e-05
4.81603e-05
4.84082e-05
4.86423e-05
4.88637e-05
4.90723e-05
4.92669e-05
4.94469e-05
4.96123e-05
4.97641e-05
4.99042e-05
5.00346e-05
5.0157e-05
5.02721e-05
5.03798e-05
5.04796e-05
5.0571e-05
5.06542e-05
5.07293e-05
5.07974e-05
5.08592e-05
5.09152e-05
5.09656e-05
5.10101e-05
5.10487e-05
5.10813e-05
5.1108e-05
5.11293e-05
5.11456e-05
5.11575e-05
5.11655e-05
5.11702e-05
5.11723e-05
5.11725e-05
5.11716e-05
5.11704e-05
5.11701e-05
5.11717e-05
5.11757e-05
5.11824e-05
5.11918e-05
5.12036e-05
5.12173e-05
5.1232e-05
5.12467e-05
5.12605e-05
5.12723e-05
5.12816e-05
5.12877e-05
5.12903e-05
5.1289e-05
5.12837e-05
5.1274e-05
5.12598e-05
5.12411e-05
5.12179e-05
5.119e-05
5.11573e-05
5.11198e-05
5.10775e-05
5.10307e-05
5.09796e-05
5.0924e-05
5.08638e-05
5.07998e-05
5.07328e-05
5.06639e-05
5.05926e-05
5.05175e-05
5.0436e-05
5.03488e-05
5.02594e-05
5.01746e-05
5.01018e-05
5.00366e-05
4.9973e-05
4.98951e-05
4.97794e-05
4.96293e-05
4.9467e-05
4.93095e-05
5.15718e-05
5.17432e-05
5.19789e-05
5.22472e-05
5.25326e-05
5.28093e-05
5.30762e-05
5.33309e-05
5.35698e-05
5.37905e-05
5.39923e-05
5.41763e-05
5.43449e-05
5.45009e-05
5.46465e-05
5.4783e-05
5.49105e-05
5.50282e-05
5.51356e-05
5.52324e-05
5.5319e-05
5.53962e-05
5.54652e-05
5.55266e-05
5.55804e-05
5.56266e-05
5.5665e-05
5.56955e-05
5.57184e-05
5.57343e-05
5.57439e-05
5.57479e-05
5.57472e-05
5.57427e-05
5.57351e-05
5.57255e-05
5.57149e-05
5.57045e-05
5.56958e-05
5.56899e-05
5.56874e-05
5.56887e-05
5.56933e-05
5.57008e-05
5.57105e-05
5.57215e-05
5.57324e-05
5.57424e-05
5.57505e-05
5.57559e-05
5.5758e-05
5.57565e-05
5.5751e-05
5.57415e-05
5.57277e-05
5.57095e-05
5.56867e-05
5.56594e-05
5.56275e-05
5.55909e-05
5.55493e-05
5.55028e-05
5.54517e-05
5.53959e-05
5.53353e-05
5.52696e-05
5.51994e-05
5.51257e-05
5.50494e-05
5.49703e-05
5.48866e-05
5.47949e-05
5.46952e-05
5.45908e-05
5.44888e-05
5.43986e-05
5.43163e-05
5.42347e-05
5.41367e-05
5.39959e-05
5.38116e-05
5.36047e-05
5.33949e-05
5.57092e-05
5.58039e-05
5.60083e-05
5.62767e-05
5.65871e-05
5.69018e-05
5.72163e-05
5.75237e-05
5.78154e-05
5.80858e-05
5.83325e-05
5.85561e-05
5.87593e-05
5.89458e-05
5.91187e-05
5.92802e-05
5.94305e-05
5.95691e-05
5.9695e-05
5.98077e-05
5.99073e-05
5.99951e-05
6.00722e-05
6.01393e-05
6.01967e-05
6.02443e-05
6.02817e-05
6.0309e-05
6.03265e-05
6.03349e-05
6.03352e-05
6.03287e-05
6.03163e-05
6.02992e-05
6.02787e-05
6.02559e-05
6.02324e-05
6.02097e-05
6.01894e-05
6.01729e-05
6.01608e-05
6.01532e-05
6.01495e-05
6.01488e-05
6.01503e-05
6.01528e-05
6.0155e-05
6.01561e-05
6.01549e-05
6.01508e-05
6.01432e-05
6.01318e-05
6.01165e-05
6.00971e-05
6.00735e-05
6.00456e-05
6.00134e-05
5.99768e-05
5.99359e-05
5.98903e-05
5.984e-05
5.97848e-05
5.97251e-05
5.96608e-05
5.95915e-05
5.95171e-05
5.94377e-05
5.93544e-05
5.92682e-05
5.9179e-05
5.90848e-05
5.89819e-05
5.88692e-05
5.87492e-05
5.86293e-05
5.85199e-05
5.84183e-05
5.83172e-05
5.81992e-05
5.80362e-05
5.78233e-05
5.75783e-05
5.7321e-05
6.00061e-05
5.9943e-05
6.00547e-05
6.0278e-05
6.0584e-05
6.09209e-05
6.12785e-05
6.16425e-05
6.19962e-05
6.23277e-05
6.26309e-05
6.29046e-05
6.31512e-05
6.33754e-05
6.35816e-05
6.37729e-05
6.39504e-05
6.41136e-05
6.42616e-05
6.43933e-05
6.45089e-05
6.46095e-05
6.46966e-05
6.4771e-05
6.48332e-05
6.48829e-05
6.49198e-05
6.49436e-05
6.49548e-05
6.49544e-05
6.49437e-05
6.49242e-05
6.48975e-05
6.48651e-05
6.48286e-05
6.47896e-05
6.475e-05
6.47118e-05
6.46767e-05
6.46461e-05
6.46207e-05
6.46002e-05
6.45836e-05
6.45698e-05
6.45574e-05
6.45451e-05
6.4532e-05
6.45168e-05
6.44989e-05
6.44774e-05
6.44521e-05
6.44226e-05
6.4389e-05
6.43514e-05
6.43097e-05
6.42638e-05
6.42139e-05
6.41598e-05
6.41017e-05
6.40393e-05
6.39725e-05
6.39013e-05
6.38258e-05
6.3746e-05
6.36616e-05
6.35722e-05
6.3478e-05
6.33797e-05
6.32786e-05
6.31749e-05
6.30666e-05
6.29498e-05
6.28222e-05
6.26854e-05
6.25463e-05
6.24157e-05
6.22925e-05
6.21698e-05
6.20309e-05
6.18477e-05
6.16114e-05
6.13354e-05
6.1038e-05
6.07162e-05
6.43093e-05
6.4232e-05
6.4333e-05
6.45777e-05
6.49004e-05
6.52827e-05
6.57002e-05
6.61234e-05
6.65295e-05
6.69049e-05
6.72441e-05
6.75479e-05
6.78211e-05
6.80697e-05
6.82981e-05
6.85089e-05
6.87023e-05
6.88773e-05
6.90327e-05
6.91685e-05
6.92859e-05
6.93864e-05
6.94713e-05
6.95412e-05
6.95956e-05
6.96339e-05
6.96558e-05
6.96616e-05
6.96526e-05
6.96304e-05
6.9597e-05
6.95545e-05
6.95048e-05
6.94502e-05
6.93928e-05
6.93347e-05
6.92782e-05
6.92253e-05
6.91771e-05
6.91342e-05
6.90959e-05
6.90608e-05
6.90274e-05
6.8994e-05
6.89592e-05
6.89219e-05
6.88813e-05
6.88368e-05
6.87877e-05
6.87339e-05
6.86753e-05
6.86122e-05
6.85448e-05
6.84733e-05
6.83976e-05
6.8318e-05
6.82346e-05
6.81474e-05
6.80564e-05
6.79615e-05
6.78627e-05
6.77602e-05
6.76539e-05
6.75438e-05
6.74294e-05
6.73106e-05
6.71884e-05
6.70641e-05
6.69383e-05
6.68093e-05
6.66731e-05
6.65265e-05
6.63699e-05
6.62088e-05
6.60542e-05
6.59064e-05
6.57591e-05
6.55972e-05
6.53938e-05
6.5137e-05
6.48358e-05
6.45059e-05
6.41627e-05
6.38696e-05
6.36985e-05
6.91551e-05
6.87449e-05
6.86025e-05
6.86887e-05
6.89276e-05
6.92906e-05
6.97416e-05
7.02344e-05
7.07284e-05
7.11962e-05
7.16235e-05
7.20059e-05
7.23469e-05
7.26529e-05
7.29307e-05
7.31847e-05
7.34165e-05
7.36259e-05
7.38118e-05
7.39741e-05
7.4114e-05
7.42336e-05
7.43344e-05
7.44171e-05
7.44813e-05
7.4526e-05
7.45503e-05
7.45544e-05
7.45397e-05
7.45081e-05
7.44621e-05
7.44043e-05
7.43376e-05
7.42645e-05
7.41878e-05
7.41101e-05
7.40336e-05
7.39603e-05
7.38913e-05
7.38264e-05
7.37647e-05
7.37045e-05
7.36439e-05
7.3581e-05
7.35141e-05
7.34422e-05
7.33648e-05
7.32814e-05
7.31919e-05
7.30962e-05
7.29946e-05
7.28874e-05
7.27751e-05
7.26582e-05
7.25369e-05
7.24115e-05
7.22823e-05
7.21494e-05
7.20131e-05
7.18735e-05
7.17304e-05
7.15843e-05
7.14353e-05
7.12834e-05
7.11284e-05
7.09703e-05
7.081e-05
7.06491e-05
7.0489e-05
7.03287e-05
7.01642e-05
6.99912e-05
6.98087e-05
6.96205e-05
6.9437e-05
6.92598e-05
6.90836e-05
6.88951e-05
6.86687e-05
6.83908e-05
6.80661e-05
6.77074e-05
6.73377e-05
6.70141e-05
6.67781e-05
7.48574e-05
7.39201e-05
7.33602e-05
7.31369e-05
7.31742e-05
7.34318e-05
7.38633e-05
7.44055e-05
7.49937e-05
7.55767e-05
7.61232e-05
7.66175e-05
7.70569e-05
7.74467e-05
7.77953e-05
7.81097e-05
7.83941e-05
7.86498e-05
7.88768e-05
7.9075e-05
7.92462e-05
7.9393e-05
7.95177e-05
7.96215e-05
7.97039e-05
7.97634e-05
7.97983e-05
7.98084e-05
7.97948e-05
7.97597e-05
7.97061e-05
7.96374e-05
7.95569e-05
7.9468e-05
7.93738e-05
7.92774e-05
7.91809e-05
7.9086e-05
7.89932e-05
7.8902e-05
7.88111e-05
7.87185e-05
7.86221e-05
7.85199e-05
7.84101e-05
7.82919e-05
7.81647e-05
7.80285e-05
7.78835e-05
7.77299e-05
7.75682e-05
7.73991e-05
7.72233e-05
7.70414e-05
7.68542e-05
7.6662e-05
7.64654e-05
7.62648e-05
7.60608e-05
7.58536e-05
7.56434e-05
7.54305e-05
7.52156e-05
7.49991e-05
7.4781e-05
7.45616e-05
7.43421e-05
7.41251e-05
7.39128e-05
7.37054e-05
7.34989e-05
7.32878e-05
7.30692e-05
7.2845e-05
7.26245e-05
7.24104e-05
7.21985e-05
7.19772e-05
7.17219e-05
7.14168e-05
7.10636e-05
7.06726e-05
7.027e-05
6.99068e-05
6.96158e-05
8.19392e-05
8.02341e-05
7.90282e-05
7.82832e-05
7.79391e-05
7.7946e-05
7.82502e-05
7.8778e-05
7.94438e-05
8.01596e-05
8.08633e-05
8.15178e-05
8.21055e-05
8.26245e-05
8.30822e-05
8.34885e-05
8.38513e-05
8.41749e-05
8.4461e-05
8.47107e-05
8.49267e-05
8.51128e-05
8.5273e-05
8.54095e-05
8.55222e-05
8.5609e-05
8.56675e-05
8.56963e-05
8.56959e-05
8.56686e-05
8.56176e-05
8.5547e-05
8.54607e-05
8.53628e-05
8.52567e-05
8.51455e-05
8.50314e-05
8.49154e-05
8.47975e-05
8.46766e-05
8.4551e-05
8.44187e-05
8.42777e-05
8.4126e-05
8.3962e-05
8.37848e-05
8.35942e-05
8.33902e-05
8.31732e-05
8.29439e-05
8.27029e-05
8.24511e-05
8.21895e-05
8.19192e-05
8.1641e-05
8.1356e-05
8.1065e-05
8.07687e-05
8.04681e-05
8.01639e-05
7.98563e-05
7.9546e-05
7.92342e-05
7.89218e-05
7.86096e-05
7.82984e-05
7.79903e-05
7.76894e-05
7.74003e-05
7.71244e-05
7.68571e-05
7.65913e-05
7.63214e-05
7.60472e-05
7.57767e-05
7.55141e-05
7.52564e-05
7.49928e-05
7.46977e-05
7.43524e-05
7.39558e-05
7.35175e-05
7.30652e-05
7.26505e-05
7.23073e-05
9.10668e-05
8.83235e-05
8.62026e-05
8.46699e-05
8.36999e-05
8.32383e-05
8.32371e-05
8.3612e-05
8.42841e-05
8.51282e-05
8.60266e-05
8.69048e-05
8.77167e-05
8.84408e-05
8.90762e-05
8.96328e-05
9.01228e-05
9.05553e-05
9.09351e-05
9.12653e-05
9.15501e-05
9.17958e-05
9.20089e-05
9.21945e-05
9.23539e-05
9.24853e-05
9.25852e-05
9.26507e-05
9.26813e-05
9.26787e-05
9.26464e-05
9.25886e-05
9.25098e-05
9.24143e-05
9.23059e-05
9.21874e-05
9.20608e-05
9.19265e-05
9.17837e-05
9.16308e-05
9.14659e-05
9.12872e-05
9.1093e-05
9.08818e-05
9.06522e-05
9.04034e-05
9.01354e-05
8.98483e-05
8.95423e-05
8.92181e-05
8.88767e-05
8.85191e-05
8.81464e-05
8.77601e-05
8.73618e-05
8.69528e-05
8.65347e-05
8.61083e-05
8.56755e-05
8.52373e-05
8.47942e-05
8.43472e-05
8.38985e-05
8.34499e-05
8.30029e-05
8.25595e-05
8.21238e-05
8.17031e-05
8.13056e-05
8.09346e-05
8.05837e-05
8.02421e-05
7.99008e-05
7.95567e-05
7.9217e-05
7.88887e-05
7.85697e-05
7.82486e-05
7.78958e-05
7.74869e-05
7.70187e-05
7.65033e-05
7.59712e-05
7.54819e-05
7.50809e-05
7.47296e-05
7.45821e-05
7.45158e-05
0.000103024
9.89677e-05
9.56533e-05
9.30434e-05
9.11615e-05
8.99418e-05
8.93965e-05
8.93984e-05
8.99077e-05
9.08252e-05
9.19464e-05
9.3127e-05
9.42749e-05
9.53302e-05
9.62669e-05
9.70858e-05
9.78005e-05
9.84264e-05
9.89739e-05
9.94487e-05
9.98564e-05
0.000100206
0.000100508
0.000100774
0.000101007
0.000101209
0.000101375
0.000101501
0.000101585
0.000101628
0.000101633
0.000101604
0.000101547
0.000101466
0.000101363
0.000101243
0.000101106
0.000100953
0.000100781
0.000100591
0.000100378
0.000100141
9.98808e-05
9.95953e-05
9.92838e-05
9.89458e-05
9.85813e-05
9.81903e-05
9.77731e-05
9.73299e-05
9.68608e-05
9.63673e-05
9.58508e-05
9.53134e-05
9.47574e-05
9.41847e-05
9.35975e-05
9.29973e-05
9.23866e-05
9.17674e-05
9.11401e-05
9.05064e-05
8.98699e-05
8.92334e-05
8.85997e-05
8.79725e-05
8.73595e-05
8.67742e-05
8.62316e-05
8.57367e-05
8.52775e-05
8.48364e-05
8.43988e-05
8.3959e-05
8.3524e-05
8.31053e-05
8.27016e-05
8.22966e-05
8.18555e-05
8.13455e-05
8.0759e-05
8.01213e-05
7.9466e-05
7.88672e-05
7.83939e-05
7.81047e-05
7.80908e-05
7.82229e-05
0.000104343
0.000101279
9.8986e-05
9.76395e-05
9.70825e-05
9.72082e-05
9.81215e-05
9.95701e-05
0.00010125
0.000102995
0.00010469
0.000106261
0.000107682
0.000108956
0.000110094
0.000111111
0.000112012
0.000112802
0.000113487
0.000114079
0.000114595
0.000115045
0.000115436
0.000115766
0.000116032
0.000116233
0.000116368
0.000116442
0.000116457
0.000116421
0.000116337
0.000116209
0.000116038
0.000115825
0.000115573
0.000115279
0.000114944
0.000114566
0.000114146
0.000113685
0.000113184
0.000112645
0.000112071
0.000111463
0.000110823
0.000110151
0.000109447
0.000108712
0.000107945
0.000107151
0.000106333
0.000105494
0.000104636
0.000103763
0.000102877
0.000101981
0.000101077
0.000100166
9.925e-05
9.83348e-05
9.7423e-05
9.65179e-05
9.56257e-05
9.47602e-05
9.39464e-05
9.32108e-05
9.2558e-05
9.19623e-05
9.13927e-05
9.08265e-05
9.02553e-05
8.96866e-05
8.91407e-05
8.86129e-05
8.80737e-05
8.74938e-05
8.68282e-05
8.60548e-05
8.52463e-05
8.44238e-05
8.36764e-05
8.31109e-05
8.2905e-05
8.32175e-05
8.37839e-05
0.000119743
0.000115257
0.000111734
0.000109446
0.00010874
0.000109038
0.000110157
0.000111892
0.000114048
0.000116455
0.000118935
0.000121324
0.000123531
0.000125527
0.000127319
0.000128927
0.000130369
0.000131649
0.000132771
0.000133743
0.000134584
0.000135319
0.000135959
0.000136509
0.000136969
0.000137338
0.000137619
0.000137816
0.000137936
0.000137984
0.000137964
0.000137878
0.000137727
0.00013751
0.000137228
0.000136881
0.000136469
0.000135991
0.000135449
0.000134843
0.000134178
0.000133457
0.000132686
0.000131869
0.000131008
0.000130104
0.000129158
0.000128171
0.000127144
0.000126078
0.000124978
0.000123848
0.000122693
0.000121516
0.00012032
0.000119109
0.000117885
0.00011665
0.00011541
0.000114171
0.000112934
0.000111701
0.000110474
0.000109262
0.000108078
0.00010694
0.00010586
0.000104827
0.000103823
0.000102832
0.00010185
0.000100903
0.000100036
9.92677e-05
9.85973e-05
9.79499e-05
9.72461e-05
9.64458e-05
9.55337e-05
9.45714e-05
9.37701e-05
9.33113e-05
9.33328e-05
9.39384e-05
9.47936e-05
9.31622e-05
8.72858e-05
7.87642e-05
7.18513e-05
7.20383e-05
0.000140568
0.000134679
0.000130422
0.000127806
0.000126484
0.000126297
0.000127132
0.000128846
0.000131292
0.000134289
0.000137623
0.000141018
0.000144242
0.000147188
0.000149824
0.000152179
0.000154301
0.000156214
0.000157916
0.000159404
0.000160692
0.000161814
0.000162797
0.000163648
0.00016437
0.000164969
0.000165448
0.000165817
0.000166087
0.000166267
0.000166363
0.000166377
0.000166308
0.000166153
0.000165909
0.000165576
0.000165154
0.000164641
0.00016404
0.00016335
0.000162576
0.000161723
0.0001608
0.000159812
0.000158765
0.00015766
0.000156498
0.000155279
0.000154006
0.000152682
0.000151309
0.000149892
0.000148437
0.000146948
0.00014543
0.000143889
0.000142332
0.000140758
0.000139171
0.000137587
0.000136002
0.000134415
0.000132829
0.000131248
0.000129684
0.000128155
0.000126673
0.000125233
0.000123819
0.000122419
0.000121031
0.000119697
0.000118471
0.000117384
0.000116449
0.000115584
0.000114678
0.000113682
0.000112564
0.00011138
0.000110391
0.000109823
0.000109811
0.000110416
0.000111207
0.000109064
0.000101005
8.81648e-05
7.71737e-05
7.46155e-05
0.000168751
0.000162246
0.000157184
0.000153347
0.000150747
0.000149468
0.000149511
0.000150753
0.000153083
0.000156385
0.000160452
0.000164968
0.000169462
0.000173649
0.000177405
0.000180728
0.000183704
0.000186414
0.000188884
0.000191089
0.00019301
0.000194667
0.000196097
0.000197328
0.000198377
0.000199253
0.000199966
0.000200532
0.000200971
0.000201303
0.000201541
0.000201688
0.000201742
0.000201695
0.000201543
0.00020128
0.000200904
0.000200415
0.000199811
0.000199092
0.00019826
0.000197323
0.000196288
0.000195166
0.000193965
0.000192687
0.000191335
0.00018991
0.000188415
0.000186853
0.000185227
0.000183541
0.000181798
0.000180007
0.000178172
0.000176303
0.000174408
0.000172488
0.000170549
0.000168596
0.000166633
0.000164661
0.000162681
0.000160698
0.000158725
0.000156779
0.000154875
0.000153014
0.000151178
0.000149354
0.00014754
0.000145787
0.00014415
0.000142672
0.000141367
0.000140178
0.000138991
0.000137687
0.000136246
0.000134744
0.000133444
0.000132566
0.000132231
0.000132468
0.000132806
0.000130095
0.000119944
0.000102162
8.52605e-05
7.83923e-05
0.000207003
0.000199309
0.000192632
0.000187006
0.000182592
0.000179622
0.000178276
0.000178442
0.00018006
0.000183093
0.000187462
0.00019289
0.000198779
0.000204507
0.000209741
0.000214353
0.0002184
0.000222054
0.000225441
0.000228563
0.00023135
0.00023377
0.000235852
0.000237638
0.000239158
0.000240424
0.000241447
0.000242245
0.000242843
0.00024327
0.000243549
0.000243693
0.000243704
0.000243581
0.000243323
0.000242928
0.000242399
0.000241737
0.000240944
0.00024002
0.00023897
0.0002378
0.000236521
0.000235142
0.000233673
0.000232119
0.000230482
0.000228765
0.000226969
0.000225098
0.000223154
0.000221142
0.000219066
0.000216927
0.000214734
0.000212499
0.000210228
0.000207928
0.000205603
0.000203258
0.000200895
0.000198517
0.000196124
0.000193722
0.000191323
0.000188943
0.000186597
0.000184284
0.00018199
0.000179701
0.000177419
0.000175196
0.000173078
0.000171106
0.000169299
0.000167589
0.000165877
0.000164093
0.000162201
0.000160251
0.000158484
0.000157097
0.000156195
0.000155769
0.000155337
0.000151939
0.000140698
0.000120176
9.70541e-05
8.41356e-05
0.000256492
0.000246862
0.000238089
0.000230277
0.000223618
0.000218383
0.000214949
0.000213315
0.000213366
0.000215218
0.000218996
0.000224702
0.000231879
0.000239434
0.000246616
0.000253044
0.000258554
0.000263248
0.00026729
0.000270766
0.000273726
0.000276228
0.000278355
0.000280186
0.000281757
0.000283069
0.000284121
0.000284922
0.000285495
0.000285873
0.000286088
0.000286159
0.000286092
0.00028588
0.00028552
0.000285009
0.000284349
0.000283544
0.000282595
0.000281503
0.000280271
0.000278905
0.000277414
0.000275811
0.000274104
0.000272301
0.000270405
0.000268419
0.000266345
0.000264185
0.000261943
0.000259622
0.000257225
0.000254756
0.00025222
0.000249625
0.000246986
0.000244308
0.000241598
0.00023886
0.000236098
0.000233312
0.000230504
0.000227679
0.000224848
0.000222028
0.000219232
0.000216463
0.000213705
0.000210946
0.000208187
0.000205482
0.000202873
0.000200397
0.000198073
0.000195838
0.000193601
0.000191308
0.000188923
0.00018649