/*--------------------------------*- C++ -*----------------------------------*\
| =========                 |                                                 |
| \\      /  F ield         | OpenFOAM: The Open Source CFD Toolbox           |
|  \\    /   O peration     | Version:  2412                                  |
|   \\  /    A nd           | Website:  www.openfoam.com                      |
|    \\/     M anipulation  |                                                 |
\*---------------------------------------------------------------------------*/
FoamFile
{
    version     2.0;
    format      ascii;
    arch        "LSB;label=32;scalar=64";
    class       surfaceScalarField;
    location    "480";
    object      phi;
}
// * * * * * * * * * * * * * * * * * * * * * * * * * * * * * * * * * * * * * //

dimensions      [0 3 -1 0 0 0 0];

oriented        oriented;

internalField   nonuniform List<scalar> 
17210
(
1.25044e-06
-2.95435e-09
1.25327e-06
-2.77305e-09
1.25593e-06
-2.58886e-09
1.25847e-06
-2.50716e-09
1.26087e-06
-2.39605e-09
1.26324e-06
-2.35856e-09
1.26552e-06
-2.27005e-09
1.26768e-06
-2.14634e-09
1.26983e-06
-2.1406e-09
1.27196e-06
-2.12497e-09
1.27405e-06
-2.07664e-09
1.27603e-06
-1.97191e-09
1.27792e-06
-1.88806e-09
1.27974e-06
-1.80112e-09
1.2814e-06
-1.64472e-09
1.28301e-06
-1.6043e-09
1.28442e-06
-1.39936e-09
1.28586e-06
-1.40372e-09
1.28718e-06
-1.31945e-09
1.28838e-06
-1.16864e-09
1.28954e-06
-1.15589e-09
1.29067e-06
-1.09442e-09
1.29169e-06
-1.02613e-09
1.29273e-06
-1.0013e-09
1.29373e-06
-1.00276e-09
1.29466e-06
-8.98137e-10
1.29555e-06
-8.92523e-10
1.29642e-06
-8.62512e-10
1.29718e-06
-7.51484e-10
1.29786e-06
-6.77331e-10
1.2985e-06
-6.32418e-10
1.29904e-06
-5.35585e-10
1.29945e-06
-3.98109e-10
1.29984e-06
-3.86565e-10
1.30005e-06
-2.04602e-10
1.30016e-06
-1.02622e-10
1.30024e-06
-5.67361e-11
1.30018e-06
4.77388e-11
1.30005e-06
1.49913e-10
1.2998e-06
2.30973e-10
1.29943e-06
3.9174e-10
1.29894e-06
4.80164e-10
1.29827e-06
6.64735e-10
1.2975e-06
7.78209e-10
1.29662e-06
8.84007e-10
1.29554e-06
1.07615e-09
1.29432e-06
1.22902e-09
1.29285e-06
1.46196e-09
1.29124e-06
1.62104e-09
1.28935e-06
1.88992e-09
1.28731e-06
2.05054e-09
1.28505e-06
2.24933e-09
1.28257e-06
2.48168e-09
1.27988e-06
2.68857e-09
1.27698e-06
2.90372e-09
1.27389e-06
3.087e-09
1.27053e-06
3.36307e-09
1.267e-06
3.52779e-09
1.2633e-06
3.70115e-09
1.25954e-06
3.76751e-09
1.25553e-06
4.00785e-09
1.25147e-06
4.05953e-09
1.24739e-06
4.08251e-09
1.24343e-06
3.95831e-09
1.23957e-06
3.85833e-09
1.23573e-06
3.84417e-09
1.23195e-06
3.77999e-09
1.22813e-06
3.81637e-09
1.22486e-06
3.27323e-09
1.2228e-06
2.05767e-09
1.22233e-06
4.77376e-10
1.22246e-06
-1.38966e-10
1.22192e-06
5.48791e-10
1.21972e-06
2.19263e-09
1.21679e-06
2.93586e-09
1.21728e-06
-4.98483e-10
1.22475e-06
-7.46037e-09
1.24197e-06
-1.72244e-08
1.26873e-06
-2.67603e-08
1.29515e-06
-2.64235e-08
1.31183e-06
-1.66819e-08
-4.34601e-09
4.41104e-06
-1.36969e-08
4.42097e-06
-1.26275e-08
4.43056e-06
-1.20786e-08
4.43972e-06
-1.16204e-08
4.44853e-06
-1.11944e-08
4.45681e-06
-1.06252e-08
4.46492e-06
-1.03644e-08
4.47285e-06
-1.0059e-08
4.48051e-06
-9.78821e-09
4.48807e-06
-9.66829e-09
4.49538e-06
-9.37508e-09
4.50253e-06
-9.10325e-09
4.50929e-06
-8.64299e-09
4.51568e-06
-8.17946e-09
4.5217e-06
-7.63818e-09
4.52742e-06
-7.2988e-09
4.53268e-06
-6.65217e-09
4.53761e-06
-6.27784e-09
4.54213e-06
-5.8477e-09
4.5467e-06
-5.68472e-09
4.55084e-06
-5.2996e-09
4.5548e-06
-5.00831e-09
4.55868e-06
-4.90546e-09
4.56228e-06
-4.54793e-09
4.56595e-06
-4.67642e-09
4.56924e-06
-4.13743e-09
4.57251e-06
-4.17231e-09
4.57553e-06
-3.86959e-09
4.57824e-06
-3.44951e-09
4.5808e-06
-3.22582e-09
4.58289e-06
-2.71434e-09
4.58486e-06
-2.49543e-09
4.58634e-06
-1.8641e-09
4.58745e-06
-1.49338e-09
4.58843e-06
-1.17003e-09
4.589e-06
-6.72863e-10
4.58909e-06
-1.19009e-10
4.58907e-06
5.87122e-11
4.58852e-06
7.2244e-10
4.58777e-06
9.72769e-10
4.58639e-06
1.78733e-09
4.58468e-06
2.17497e-09
4.58236e-06
2.98529e-09
4.57984e-06
3.30097e-09
4.57653e-06
4.20482e-09
4.57274e-06
4.86989e-09
4.56826e-06
5.71508e-09
4.56321e-06
6.50428e-09
4.5575e-06
7.34822e-09
4.55124e-06
8.14594e-09
4.54407e-06
9.2239e-09
4.53607e-06
1.02492e-08
4.52739e-06
1.11624e-08
4.51799e-06
1.20865e-08
4.50781e-06
1.30874e-08
4.49672e-06
1.41784e-08
4.48505e-06
1.50298e-08
4.47284e-06
1.57465e-08
4.45995e-06
1.65889e-08
4.44653e-06
1.71895e-08
4.43273e-06
1.78144e-08
4.41847e-06
1.8318e-08
4.40421e-06
1.83443e-08
4.39026e-06
1.79043e-08
4.37665e-06
1.74623e-08
4.36343e-06
1.70648e-08
4.34996e-06
1.72584e-08
4.33666e-06
1.71145e-08
4.32526e-06
1.46694e-08
4.31795e-06
9.36955e-09
4.31582e-06
2.6132e-09
4.31591e-06
-2.30179e-10
4.31401e-06
2.44953e-09
4.30684e-06
9.35869e-09
4.29689e-06
1.28877e-08
4.2982e-06
-1.807e-09
4.32296e-06
-3.22226e-08
4.38079e-06
-7.50586e-08
4.47114e-06
-1.17106e-07
4.56149e-06
-1.16776e-07
4.62012e-06
-7.53167e-08
-2.14573e-08
8.77061e-06
-3.53346e-08
8.79114e-06
-3.30623e-08
8.81062e-06
-3.14548e-08
8.8292e-06
-3.016e-08
8.84695e-06
-2.89201e-08
8.86394e-06
-2.76019e-08
8.88045e-06
-2.6856e-08
8.89649e-06
-2.60869e-08
8.91218e-06
-2.54616e-08
8.92741e-06
-2.48839e-08
8.94246e-06
-2.44153e-08
8.95683e-06
-2.34569e-08
8.97061e-06
-2.24109e-08
8.98364e-06
-2.11975e-08
8.99558e-06
-1.9553e-08
9.00703e-06
-1.87243e-08
9.01783e-06
-1.74321e-08
9.02764e-06
-1.60468e-08
9.03728e-06
-1.54861e-08
9.04618e-06
-1.45352e-08
9.0546e-06
-1.3712e-08
9.06268e-06
-1.30395e-08
9.07045e-06
-1.26739e-08
9.07803e-06
-1.20771e-08
9.08503e-06
-1.16823e-08
9.09204e-06
-1.10976e-08
9.09848e-06
-1.06178e-08
9.10449e-06
-9.87002e-09
9.11019e-06
-9.13128e-09
9.11538e-06
-8.40887e-09
9.11965e-06
-6.96512e-09
9.1235e-06
-6.33851e-09
9.12677e-06
-5.12404e-09
9.12935e-06
-4.07085e-09
9.13099e-06
-2.79517e-09
9.13228e-06
-1.96347e-09
9.13266e-06
-4.66041e-10
9.13229e-06
4.1381e-10
9.13158e-06
1.46131e-09
9.12986e-06
2.67841e-09
9.1274e-06
4.26293e-09
9.12388e-06
5.68839e-09
9.1197e-06
7.17056e-09
9.11435e-06
8.64404e-09
9.10804e-06
1.05279e-08
9.10073e-06
1.21817e-08
9.09204e-06
1.44116e-08
9.08208e-06
1.64651e-08
9.07071e-06
1.87256e-08
9.05797e-06
2.0883e-08
9.04386e-06
2.33415e-08
9.02828e-06
2.58223e-08
9.01107e-06
2.83878e-08
8.99259e-06
3.05556e-08
8.97237e-06
3.33129e-08
8.95075e-06
3.5794e-08
8.92761e-06
3.81753e-08
8.90317e-06
4.01866e-08
8.8778e-06
4.19592e-08
8.85123e-06
4.3764e-08
8.82377e-06
4.52764e-08
8.79552e-06
4.65618e-08
8.76722e-06
4.66535e-08
8.73944e-06
4.56808e-08
8.71267e-06
4.42306e-08
8.68624e-06
4.35002e-08
8.65948e-06
4.40144e-08
8.63347e-06
4.31256e-08
8.61077e-06
3.73685e-08
8.59591e-06
2.42265e-08
8.59088e-06
7.64815e-09
8.59068e-06
-3.46146e-11
8.58693e-06
6.19955e-09
8.57315e-06
2.31381e-08
8.55376e-06
3.22784e-08
8.55596e-06
-4.00347e-09
8.60227e-06
-7.85359e-08
8.71174e-06
-1.84526e-07
8.88373e-06
-2.89093e-07
9.05853e-06
-2.91582e-07
9.17507e-06
-1.91849e-07
-5.93268e-08
1.46399e-05
-7.3102e-08
1.46752e-05
-6.83536e-08
1.47087e-05
-6.48035e-08
1.47409e-05
-6.23373e-08
1.47718e-05
-5.97402e-08
1.48012e-05
-5.70381e-08
1.48294e-05
-5.49809e-08
1.48571e-05
-5.3805e-08
1.48841e-05
-5.24042e-08
1.49105e-05
-5.12557e-08
1.4936e-05
-4.99665e-08
1.49607e-05
-4.8152e-08
1.49842e-05
-4.58367e-08
1.50062e-05
-4.32278e-08
1.50275e-05
-4.07755e-08
1.50469e-05
-3.80668e-08
1.50651e-05
-3.56409e-08
1.50825e-05
-3.34389e-08
1.50987e-05
-3.16354e-08
1.5114e-05
-2.98283e-08
1.51284e-05
-2.81059e-08
1.51423e-05
-2.69017e-08
1.51558e-05
-2.60872e-08
1.51687e-05
-2.50132e-08
1.5181e-05
-2.39281e-08
1.51927e-05
-2.27661e-08
1.5204e-05
-2.18902e-08
1.52143e-05
-2.01753e-08
1.52243e-05
-1.908e-08
1.52327e-05
-1.68198e-08
1.52405e-05
-1.47843e-08
1.52473e-05
-1.30688e-08
1.52526e-05
-1.04301e-08
1.52568e-05
-8.27874e-09
1.52603e-05
-6.22901e-09
1.52623e-05
-4.05133e-09
1.52635e-05
-1.53588e-09
1.52636e-05
2.85037e-10
1.52622e-05
2.83276e-09
1.52596e-05
5.28395e-09
1.52556e-05
8.26071e-09
1.52502e-05
1.11018e-08
1.52434e-05
1.39582e-08
1.52348e-05
1.72887e-08
1.52248e-05
2.0554e-08
1.52125e-05
2.44911e-08
1.51981e-05
2.87275e-08
1.51819e-05
3.26925e-08
1.51635e-05
3.71179e-08
1.51426e-05
4.17683e-08
1.51196e-05
4.64277e-08
1.50936e-05
5.17922e-08
1.50656e-05
5.63917e-08
1.50344e-05
6.17255e-08
1.5001e-05
6.67278e-08
1.49651e-05
7.16688e-08
1.49269e-05
7.63903e-08
1.48866e-05
8.05316e-08
1.48441e-05
8.44366e-08
1.48001e-05
8.77614e-08
1.47544e-05
9.09385e-08
1.4708e-05
9.30288e-08
1.46608e-05
9.38574e-08
1.46144e-05
9.20692e-08
1.45693e-05
8.93125e-08
1.45254e-05
8.73734e-08
1.44812e-05
8.82085e-08
1.44375e-05
8.68305e-08
1.43995e-05
7.5379e-08
1.43741e-05
4.96649e-08
1.43643e-05
1.73977e-08
1.43631e-05
1.19282e-09
1.43563e-05
1.30485e-08
1.4334e-05
4.53837e-08
1.43036e-05
6.27068e-08
1.43052e-05
-5.64942e-09
1.43778e-05
-1.51121e-07
1.4551e-05
-3.57669e-07
1.4825e-05
-5.63179e-07
1.51074e-05
-5.73892e-07
1.53014e-05
-3.85937e-07
-1.28796e-07
2.23886e-05
-1.33282e-07
2.2445e-05
-1.24712e-07
2.24993e-05
-1.18924e-07
2.25508e-05
-1.13793e-07
2.26001e-05
-1.09062e-07
2.26468e-05
-1.03685e-07
2.26924e-05
-1.00563e-07
2.27361e-05
-9.74809e-08
2.27789e-05
-9.51881e-08
2.28208e-05
-9.31119e-08
2.28616e-05
-9.07292e-08
2.29002e-05
-8.67926e-08
2.29373e-05
-8.2866e-08
2.2973e-05
-7.89076e-08
2.3006e-05
-7.37876e-08
2.30369e-05
-6.89727e-08
2.30658e-05
-6.44918e-08
2.30933e-05
-6.08934e-08
2.31191e-05
-5.74482e-08
2.31432e-05
-5.3828e-08
2.31664e-05
-5.12879e-08
2.31886e-05
-4.91095e-08
2.32099e-05
-4.73151e-08
2.32302e-05
-4.52585e-08
2.32498e-05
-4.36066e-08
2.32687e-05
-4.15801e-08
2.32861e-05
-3.93152e-08
2.33034e-05
-3.74697e-08
2.33185e-05
-3.40941e-08
2.33328e-05
-3.11522e-08
2.33454e-05
-2.73783e-08
2.33558e-05
-2.34809e-08
2.33651e-05
-1.96232e-08
2.33727e-05
-1.58736e-08
2.3378e-05
-1.15837e-08
2.33816e-05
-7.62962e-09
2.33839e-05
-3.8157e-09
2.33843e-05
-9.71429e-11
2.33829e-05
4.29259e-09
2.33798e-05
8.33469e-09
2.33741e-05
1.40069e-08
2.33667e-05
1.84222e-08
2.33566e-05
2.41497e-08
2.33443e-05
2.95156e-08
2.3329e-05
3.58959e-08
2.3311e-05
4.247e-08
2.329e-05
4.97246e-08
2.3266e-05
5.66845e-08
2.32386e-05
6.46125e-08
2.32073e-05
7.29955e-08
2.31723e-05
8.14509e-08
2.31338e-05
9.02695e-08
2.30909e-05
9.93207e-08
2.30446e-05
1.07985e-07
2.29945e-05
1.16839e-07
2.294e-05
1.26185e-07
2.28821e-05
1.34339e-07
2.28206e-05
1.41997e-07
2.27565e-05
1.48578e-07
2.26892e-05
1.55026e-07
2.26202e-05
1.59899e-07
2.25486e-05
1.6469e-07
2.2477e-05
1.65438e-07
2.24063e-05
1.62736e-07
2.2338e-05
1.57656e-07
2.22707e-05
1.54671e-07
2.22028e-05
1.56096e-07
2.21362e-05
1.53452e-07
2.20778e-05
1.33725e-07
2.20371e-05
9.03885e-08
2.20208e-05
3.37062e-08
2.20167e-05
5.30041e-09
2.20059e-05
2.38461e-08
2.19739e-05
7.7417e-08
2.19283e-05
1.08328e-07
2.19293e-05
-6.70129e-09
2.20316e-05
-2.53379e-07
2.22805e-05
-6.0665e-07
2.26775e-05
-9.601e-07
2.30942e-05
-9.90642e-07
2.33892e-05
-6.80906e-07
-2.46836e-07
3.24528e-05
-2.25619e-07
3.25397e-05
-2.11487e-07
3.26219e-05
-2.00928e-07
3.27014e-05
-1.93205e-07
3.27768e-05
-1.84442e-07
3.28489e-05
-1.75782e-07
3.29172e-05
-1.68876e-07
3.29843e-05
-1.64558e-07
3.30495e-05
-1.60295e-07
3.31128e-05
-1.56458e-07
3.31736e-05
-1.51495e-07
3.32329e-05
-1.46061e-07
3.32895e-05
-1.39441e-07
3.33429e-05
-1.32312e-07
3.33928e-05
-1.23639e-07
3.34399e-05
-1.16013e-07
3.34842e-05
-1.088e-07
3.35253e-05
-1.01927e-07
3.35648e-05
-9.69366e-08
3.36013e-05
-9.02729e-08
3.36366e-05
-8.65443e-08
3.36696e-05
-8.20825e-08
3.37021e-05
-7.97742e-08
3.3733e-05
-7.61356e-08
3.37631e-05
-7.36976e-08
3.37915e-05
-6.98653e-08
3.38188e-05
-6.66862e-08
3.38444e-05
-6.30253e-08
3.38681e-05
-5.77541e-08
3.38895e-05
-5.24935e-08
3.39084e-05
-4.63489e-08
3.39255e-05
-4.04958e-08
3.39398e-05
-3.39502e-08
3.39512e-05
-2.72189e-08
3.39605e-05
-2.08933e-08
3.39674e-05
-1.45359e-08
3.39713e-05
-7.62246e-09
3.39729e-05
-1.71858e-09
3.39717e-05
5.48432e-09
3.39675e-05
1.25319e-08
3.39612e-05
2.03571e-08
3.39514e-05
2.81959e-08
3.39383e-05
3.72317e-08
3.39216e-05
4.62388e-08
3.39014e-05
5.60582e-08
3.38766e-05
6.73508e-08
3.38482e-05
7.8121e-08
3.38143e-05
9.05033e-08
3.37759e-05
1.03078e-07
3.37325e-05
1.16363e-07
3.36835e-05
1.30524e-07
3.36288e-05
1.44958e-07
3.35682e-05
1.59888e-07
3.35023e-05
1.73907e-07
3.34303e-05
1.88867e-07
3.3353e-05
2.03411e-07
3.32698e-05
2.17553e-07
3.31824e-05
2.29442e-07
3.30898e-05
2.41106e-07
3.29941e-05
2.50735e-07
3.28943e-05
2.59722e-07
3.2792e-05
2.67024e-07
3.26883e-05
2.69096e-07
3.25863e-05
2.64751e-07
3.24869e-05
2.57033e-07
3.23894e-05
2.52221e-07
3.22919e-05
2.53561e-07
3.21949e-05
2.50495e-07
3.21096e-05
2.19024e-07
3.20496e-05
1.50383e-07
3.20212e-05
6.20743e-08
3.20123e-05
1.41812e-08
3.19961e-05
4.01298e-08
3.1951e-05
1.22502e-07
3.18884e-05
1.70859e-07
3.18858e-05
-4.09112e-09
3.20213e-05
-3.88863e-07
3.23566e-05
-9.41991e-07
3.28977e-05
-1.50119e-06
3.34761e-05
-1.56896e-06
3.38995e-05
-1.10438e-06
-4.33969e-07
4.53365e-05
-3.62109e-07
4.54655e-05
-3.40486e-07
4.55889e-05
-3.24131e-07
4.57067e-05
-3.10942e-07
4.58187e-05
-2.96456e-07
4.59252e-05
-2.82247e-07
4.60273e-05
-2.70972e-07
4.61263e-05
-2.63508e-07
4.62222e-05
-2.56204e-07
4.63155e-05
-2.49717e-07
4.64057e-05
-2.41633e-07
4.64926e-05
-2.3298e-07
4.65753e-05
-2.22151e-07
4.66527e-05
-2.09659e-07
4.67264e-05
-1.97329e-07
4.67957e-05
-1.85283e-07
4.68602e-05
-1.73227e-07
4.69217e-05
-1.63369e-07
4.69787e-05
-1.53924e-07
4.70338e-05
-1.45324e-07
4.70848e-05
-1.37526e-07
4.71345e-05
-1.31722e-07
4.71817e-05
-1.26984e-07
4.72281e-05
-1.22446e-07
4.72713e-05
-1.16921e-07
4.73133e-05
-1.11831e-07
4.73532e-05
-1.06593e-07
4.7391e-05
-1.00808e-07
4.74264e-05
-9.30656e-08
4.74582e-05
-8.43387e-08
4.74877e-05
-7.57918e-08
4.75122e-05
-6.49829e-08
4.7534e-05
-5.57618e-08
4.75516e-05
-4.47705e-08
4.75662e-05
-3.54481e-08
4.75771e-05
-2.54591e-08
4.75849e-05
-1.54231e-08
4.75887e-05
-5.4571e-09
4.75887e-05
5.4618e-09
4.75853e-05
1.59424e-08
4.75783e-05
2.73827e-08
4.75664e-05
4.00287e-08
4.75507e-05
5.30008e-08
4.75299e-05
6.69665e-08
4.75036e-05
8.23937e-08
4.74727e-05
9.82342e-08
4.74345e-05
1.16324e-07
4.73906e-05
1.34441e-07
4.73399e-05
1.53783e-07
4.7282e-05
1.74248e-07
4.72163e-05
1.96287e-07
4.71426e-05
2.18647e-07
4.70615e-05
2.40952e-07
4.69715e-05
2.63962e-07
4.6874e-05
2.86364e-07
4.67676e-05
3.09752e-07
4.66545e-05
3.30682e-07
4.65333e-05
3.50683e-07
4.64071e-05
3.67307e-07
4.62743e-05
3.83551e-07
4.61367e-05
3.97317e-07
4.59955e-05
4.0818e-07
4.58518e-05
4.12779e-07
4.57105e-05
4.0611e-07
4.55715e-05
3.95965e-07
4.54359e-05
3.87847e-07
4.52993e-05
3.9016e-07
4.51657e-05
3.84115e-07
4.50459e-05
3.3883e-07
4.4958e-05
2.38269e-07
4.49143e-05
1.0576e-07
4.48972e-05
3.12725e-08
4.48717e-05
6.56423e-08
4.48117e-05
1.82516e-07
4.47281e-05
2.54439e-07
4.47199e-05
4.08576e-09
4.48894e-05
-5.58336e-07
4.53198e-05
-1.37237e-06
4.60228e-05
-2.20422e-06
4.67888e-05
-2.33494e-06
4.73723e-05
-1.68785e-06
-7.15595e-07
6.16109e-05
-5.60268e-07
6.17988e-05
-5.28187e-07
6.19789e-05
-5.04055e-07
6.21509e-05
-4.8288e-07
6.23145e-05
-4.59962e-07
6.24695e-05
-4.37238e-07
6.26179e-05
-4.19342e-07
6.27605e-05
-4.06124e-07
6.28982e-05
-3.93892e-07
6.30324e-05
-3.83861e-07
6.31619e-05
-3.71136e-07
6.32856e-05
-3.56589e-07
6.34039e-05
-3.40436e-07
6.35165e-05
-3.22226e-07
6.36232e-05
-3.03954e-07
6.37216e-05
-2.83668e-07
6.38149e-05
-2.66469e-07
6.39026e-05
-2.51007e-07
6.39853e-05
-2.36652e-07
6.40627e-05
-2.22699e-07
6.41371e-05
-2.11825e-07
6.42083e-05
-2.02876e-07
6.42766e-05
-1.95257e-07
6.43422e-05
-1.88003e-07
6.44057e-05
-1.80421e-07
6.44659e-05
-1.71986e-07
6.45235e-05
-1.64188e-07
6.45776e-05
-1.54792e-07
6.4628e-05
-1.43485e-07
6.46744e-05
-1.30711e-07
6.47155e-05
-1.16913e-07
6.4753e-05
-1.0245e-07
6.47842e-05
-8.68851e-08
6.48116e-05
-7.21894e-08
6.48336e-05
-5.74661e-08
6.48515e-05
-4.32994e-08
6.48644e-05
-2.82676e-08
6.48728e-05
-1.39436e-08
6.48758e-05
2.50579e-09
6.48747e-05
1.70968e-08
6.48678e-05
3.42703e-08
6.48551e-05
5.26748e-08
6.48374e-05
7.07513e-08
6.48126e-05
9.18064e-08
6.47827e-05
1.12232e-07
6.47435e-05
1.37484e-07
6.46975e-05
1.62273e-07
6.46426e-05
1.89359e-07
6.45781e-05
2.18322e-07
6.45046e-05
2.47774e-07
6.44204e-05
2.80521e-07
6.43249e-05
3.14053e-07
6.42185e-05
3.47359e-07
6.41014e-05
3.81141e-07
6.39727e-05
4.14992e-07
6.38343e-05
4.48219e-07
6.36843e-05
4.80693e-07
6.35252e-05
5.09784e-07
6.33562e-05
5.36304e-07
6.31796e-05
5.6011e-07
6.29952e-05
5.81691e-07
6.2806e-05
5.97392e-07
6.26146e-05
6.04238e-07
6.24232e-05
5.97479e-07
6.22376e-05
5.8158e-07
6.20538e-05
5.71618e-07
6.18707e-05
5.73277e-07
6.16889e-05
5.6588e-07
6.15258e-05
5.01932e-07
6.14035e-05
3.60595e-07
6.13363e-05
1.72968e-07
6.13044e-05
6.31928e-08
6.12677e-05
1.02334e-07
6.11896e-05
2.60589e-07
6.10816e-05
3.62457e-07
6.10645e-05
2.12145e-08
6.12663e-05
-7.6012e-07
6.17958e-05
-1.90195e-06
6.26713e-05
-3.07973e-06
6.36481e-05
-3.31169e-06
6.44203e-05
-2.4601e-06
-1.12389e-06
8.19081e-05
-8.40445e-07
8.21761e-05
-7.95965e-07
8.2433e-05
-7.60756e-07
8.26795e-05
-7.29286e-07
8.29136e-05
-6.94066e-07
8.31357e-05
-6.5922e-07
8.33455e-05
-6.29193e-07
8.35485e-05
-6.09033e-07
8.37446e-05
-5.90003e-07
8.39332e-05
-5.72407e-07
8.41148e-05
-5.52746e-07
8.42907e-05
-5.32435e-07
8.44566e-05
-5.06366e-07
8.46144e-05
-4.79924e-07
8.47624e-05
-4.51989e-07
8.49034e-05
-4.24587e-07
8.50348e-05
-3.97812e-07
8.51574e-05
-3.73617e-07
8.52745e-05
-3.53678e-07
8.53843e-05
-3.32443e-07
8.54898e-05
-3.17295e-07
8.55895e-05
-3.0255e-07
8.56851e-05
-2.9082e-07
8.57766e-05
-2.79448e-07
8.58649e-05
-2.68663e-07
8.59502e-05
-2.57231e-07
8.60305e-05
-2.445e-07
8.61068e-05
-2.3112e-07
8.61778e-05
-2.14423e-07
8.62432e-05
-1.96116e-07
8.63014e-05
-1.75104e-07
8.63542e-05
-1.55216e-07
8.64005e-05
-1.33183e-07
8.64403e-05
-1.11926e-07
8.6474e-05
-9.11193e-08
8.64994e-05
-6.87541e-08
8.65206e-05
-4.943e-08
8.6535e-05
-2.83396e-08
8.65446e-05
-7.02371e-09
8.65466e-05
1.50668e-08
8.65423e-05
3.85796e-08
8.65319e-05
6.30349e-08
8.65131e-05
8.95825e-08
8.64874e-05
1.17539e-07
8.64522e-05
1.4743e-07
8.6409e-05
1.80698e-07
8.63544e-05
2.16911e-07
8.629e-05
2.53715e-07
8.62124e-05
2.95947e-07
8.61219e-05
3.38295e-07
8.60168e-05
3.85634e-07
8.58994e-05
4.31364e-07
8.57665e-05
4.80279e-07
8.5619e-05
5.2865e-07
8.54562e-05
5.77819e-07
8.52787e-05
6.25725e-07
8.5087e-05
6.72409e-07
8.48824e-05
7.1437e-07
8.46643e-05
7.54391e-07
8.44372e-05
7.87201e-07
8.42006e-05
8.18345e-07
8.39544e-05
8.4351e-07
8.37035e-05
8.55171e-07
8.34555e-05
8.45512e-07
8.32112e-05
8.25861e-07
8.29706e-05
8.12266e-07
8.27295e-05
8.14327e-07
8.24918e-05
8.03628e-07
8.22752e-05
7.18538e-07
8.21082e-05
5.27578e-07
8.20084e-05
2.72733e-07
8.19563e-05
1.15265e-07
8.19021e-05
1.56557e-07
8.18015e-05
3.61212e-07
8.16659e-05
4.98084e-07
8.16342e-05
5.28331e-08
8.18651e-05
-9.90946e-07
8.24919e-05
-2.52879e-06
8.35463e-05
-4.13412e-06
8.47476e-05
-4.51302e-06
8.57327e-05
-3.44519e-06
-1.68973e-06
0.000106904
-1.2299e-06
0.000107278
-1.17007e-06
0.000107639
-1.12167e-06
0.000107984
-1.07448e-06
0.000108315
-1.02428e-06
0.000108625
-9.69222e-07
0.000108921
-9.25214e-07
0.000109203
-8.91186e-07
0.000109475
-8.6212e-07
0.000109737
-8.34698e-07
0.00010999
-8.05736e-07
0.00011023
-7.72129e-07
0.000110459
-7.35542e-07
0.000110677
-6.97513e-07
0.000110882
-6.57262e-07
0.000111077
-6.18713e-07
0.000111259
-5.8057e-07
0.000111431
-5.44756e-07
0.000111592
-5.14664e-07
0.000111743
-4.84107e-07
0.000111886
-4.6029e-07
0.000112023
-4.39366e-07
0.000112155
-4.2299e-07
0.000112283
-4.06994e-07
0.000112405
-3.90169e-07
0.00011252
-3.72484e-07
0.000112631
-3.5527e-07
0.000112735
-3.35399e-07
0.000112833
-3.12387e-07
0.000112922
-2.85273e-07
0.000113004
-2.5663e-07
0.000113076
-2.27853e-07
0.00011314
-1.97215e-07
0.000113196
-1.67278e-07
0.000113243
-1.38067e-07
0.000113284
-1.09934e-07
0.000113315
-8.03289e-08
0.000113339
-5.28359e-08
0.000113356
-2.34199e-08
0.000113365
5.85988e-09
0.000113367
3.7064e-08
0.000113359
7.04053e-08
0.000113344
1.04516e-07
0.00011332
1.4201e-07
0.000113285
1.821e-07
0.000113238
2.27818e-07
0.000113178
2.76546e-07
0.000113104
3.28431e-07
0.000113016
3.83891e-07
0.000112909
4.44677e-07
0.000112787
5.082e-07
0.000112645
5.7327e-07
0.000112484
6.41492e-07
0.000112303
7.08809e-07
0.000112105
7.75902e-07
0.000111886
8.45341e-07
0.000111649
9.09198e-07
0.000111393
9.7e-07
0.000111124
1.02427e-06
0.000110837
1.07338e-06
0.000110538
1.118e-06
0.000110229
1.15254e-06
0.000109913
1.17076e-06
0.000109597
1.16161e-06
0.000109286
1.13719e-06
0.000108978
1.11945e-06
0.000108671
1.12199e-06
0.000108367
1.10766e-06
0.000108088
9.97569e-07
0.000107865
7.49892e-07
0.000107725
4.13526e-07
0.000107644
1.96157e-07
0.000107566
2.34608e-07
0.000107438
4.88954e-07
0.000107271
6.6525e-07
0.000107219
1.04656e-07
0.000107472
-1.24407e-06
0.000108188
-3.24449e-06
0.000109413
-5.35962e-06
0.000110841
-5.9404e-06
0.000112058
-4.66242e-06
0.000112805
-2.43723e-06
7.74793e-07
0.0001373
-1.75385e-06
0.00013781
-1.67968e-06
0.000138305
-1.61654e-06
0.000138781
-1.551e-06
0.000139237
-1.47933e-06
0.000139665
-1.39743e-06
0.000140071
-1.33157e-06
0.00014046
-1.27977e-06
0.000140832
-1.23393e-06
0.000141188
-1.19129e-06
0.00014153
-1.14765e-06
0.000141858
-1.09945e-06
0.000142168
-1.04643e-06
0.000142464
-9.93166e-07
0.000142744
-9.3703e-07
0.000143006
-8.8068e-07
0.000143252
-8.26961e-07
0.000143485
-7.77263e-07
0.000143703
-7.32197e-07
0.00014391
-6.91177e-07
0.000144104
-6.54864e-07
0.000144291
-6.25954e-07
0.000144468
-5.99647e-07
0.000144637
-5.76438e-07
0.000144801
-5.53617e-07
0.000144956
-5.27762e-07
0.000145104
-5.03473e-07
0.000145242
-4.73673e-07
0.000145371
-4.4113e-07
0.000145491
-4.05428e-07
0.000145601
-3.66703e-07
0.000145699
-3.25433e-07
0.000145786
-2.84153e-07
0.000145862
-2.43636e-07
0.000145929
-2.04527e-07
0.000145985
-1.6554e-07
0.000146031
-1.27166e-07
0.000146069
-9.03583e-08
0.000146099
-5.30474e-08
0.000146117
-1.23167e-08
0.000146127
2.71222e-08
0.000146129
6.85759e-08
0.00014612
1.12859e-07
0.000146101
1.614e-07
0.000146068
2.14717e-07
0.000146022
2.73776e-07
0.000145962
3.36505e-07
0.000145883
4.07785e-07
0.000145785
4.8142e-07
0.000145668
5.62506e-07
0.000145528
6.48191e-07
0.000145364
7.36729e-07
0.000145178
8.27719e-07
0.000144967
9.19883e-07
0.000144728
1.01491e-06
0.000144468
1.10528e-06
0.000144183
1.19362e-06
0.000143877
1.27656e-06
0.000143548
1.35346e-06
0.0001432
1.42159e-06
0.000142836
1.48147e-06
0.000142456
1.53218e-06
0.000142069
1.55865e-06
0.000141678
1.5523e-06
0.000141293
1.52232e-06
0.000140911
1.50105e-06
0.000140529
1.50388e-06
0.00014015
1.48693e-06
0.000139799
1.34885e-06
0.000139513
1.03535e-06
0.000139321
6.0581e-07
0.0001392
3.16771e-07
0.000139091
3.43724e-07
0.000138933
6.47518e-07
0.00013873
8.67956e-07
0.000138655
1.8004e-07
0.000138918
-1.50783e-06
0.00013971
-4.03644e-06
0.000141091
-6.74032e-06
0.000142733
-7.58244e-06
0.000144183
-6.11229e-06
0.000145133
-3.38738e-06
5.84168e-07
0.00017381
-2.43665e-06
0.000174484
-2.35393e-06
0.000175145
-2.27728e-06
0.000175789
-2.19533e-06
0.000176403
-2.09285e-06
0.000176983
-1.97751e-06
0.000177531
-1.87932e-06
0.000178054
-1.80279e-06
0.000178554
-1.73381e-06
0.000179031
-1.66863e-06
0.000179488
-1.60407e-06
0.000179922
-1.53355e-06
0.000180337
-1.46198e-06
0.000180729
-1.3846e-06
0.000181099
-1.30671e-06
0.000181448
-1.2305e-06
0.000181778
-1.15683e-06
0.000182088
-1.08725e-06
0.00018238
-1.0241e-06
0.000182654
-9.64599e-07
0.000182912
-9.12512e-07
0.000183156
-8.70626e-07
0.000183391
-8.34635e-07
0.000183614
-7.99149e-07
0.000183826
-7.65949e-07
0.00018403
-7.31154e-07
0.000184221
-6.94719e-07
0.000184403
-6.55658e-07
0.000184573
-6.10845e-07
0.000184728
-5.60735e-07
0.000184871
-5.09062e-07
0.000184999
-4.54021e-07
0.000185116
-4.01003e-07
0.000185217
-3.44187e-07
0.000185307
-2.94403e-07
0.000185383
-2.41835e-07
0.000185449
-1.93474e-07
0.000185505
-1.45823e-07
0.000185547
-9.56132e-08
0.000185583
-4.8431e-08
0.000185608
2.57472e-09
0.000185622
5.49253e-08
0.000185624
1.10304e-07
0.000185615
1.70154e-07
0.000185593
2.37402e-07
0.000185555
3.11834e-07
0.000185497
3.93799e-07
0.00018542
4.85012e-07
0.000185317
5.84274e-07
0.000185193
6.86797e-07
0.000185042
7.99825e-07
0.000184861
9.17515e-07
0.000184649
1.03907e-06
0.000184408
1.16079e-06
0.000184138
1.28511e-06
0.000183838
1.40597e-06
0.000183505
1.526e-06
0.000183145
1.63687e-06
0.00018276
1.73857e-06
0.000182349
1.83217e-06
0.000181916
1.91449e-06
0.000181467
1.98145e-06
0.000181003
2.02295e-06
0.000180535
2.01992e-06
0.00018007
1.98705e-06
0.00017961
1.96119e-06
0.000179149
1.96516e-06
0.000178691
1.94491e-06
0.000178262
1.77788e-06
0.000177905
1.3927e-06
0.000177652
8.58795e-07
0.000177486
4.82702e-07
0.000177336
4.93653e-07
0.000177141
8.42643e-07
0.0001769
1.10856e-06
0.000176794
2.86254e-07
0.000177061
-1.77472e-06
0.00017791
-4.8861e-06
0.000179422
-8.25188e-06
0.000181256
-9.41636e-06
0.000182926
-7.78268e-06
0.000184085
-4.54585e-06
2.30515e-07
0.000217146
-3.29327e-06
0.000218009
-3.21632e-06
0.000218868
-3.13623e-06
0.000219712
-3.03894e-06
0.000220524
-2.90513e-06
0.000221293
-2.74616e-06
0.000222019
-2.60611e-06
0.000222709
-2.49276e-06
0.000223369
-2.39351e-06
0.000223998
-2.2972e-06
0.000224595
-2.20141e-06
0.000225164
-2.10207e-06
0.000225701
-1.9997e-06
0.000226213
-1.89621e-06
0.000226698
-1.79133e-06
0.000227155
-1.68741e-06
0.000227584
-1.58628e-06
0.000227989
-1.49243e-06
0.000228368
-1.40251e-06
0.000228724
-1.32093e-06
0.00022906
-1.2484e-06
0.000229378
-1.1887e-06
0.00022968
-1.13674e-06
0.000229969
-1.08725e-06
0.000230242
-1.03979e-06
0.000230503
-9.91883e-07
0.000230748
-9.39708e-07
0.00023098
-8.87125e-07
0.000231195
-8.26125e-07
0.000231395
-7.60774e-07
0.000231577
-6.905e-07
0.000231741
-6.18719e-07
0.000231888
-5.47985e-07
0.000232023
-4.78686e-07
0.000232139
-4.10609e-07
0.000232243
-3.46058e-07
0.000232332
-2.82414e-07
0.000232409
-2.22588e-07
0.000232476
-1.62419e-07
0.000232531
-1.03263e-07
0.000232574
-4.0873e-08
0.000232607
2.17209e-08
0.000232629
8.87195e-08
0.000232637
1.61712e-07
0.00023263
2.44937e-07
0.000232604
3.3744e-07
0.000232558
4.3983e-07
0.000232488
5.55457e-07
0.000232392
6.79748e-07
0.000232265
8.13688e-07
0.000232107
9.58358e-07
0.000231914
1.10995e-06
0.000231688
1.26599e-06
0.000231425
1.42379e-06
0.000231124
1.58522e-06
0.000230785
1.74521e-06
0.000230413
1.89818e-06
0.000230006
2.04344e-06
0.000229565
2.1802e-06
0.000229097
2.30005e-06
0.000228599
2.41282e-06
0.000228075
2.50481e-06
0.000227539
2.55894e-06
0.000226994
2.5649e-06
0.000226452
2.52904e-06
0.000225911
2.50209e-06
0.00022537
2.5064e-06
0.000224829
2.48611e-06
0.00022432
2.28692e-06
0.000223888
1.82454e-06
0.00022357
1.17654e-06
0.000223349
7.04182e-07
0.000223156
6.86395e-07
0.000222921
1.07803e-06
0.000222638
1.39101e-06
0.000222503
4.2177e-07
0.000222761
-2.03256e-06
0.000223648
-5.77359e-06
0.000225264
-9.86793e-06
0.000227261
-1.14128e-05
0.00022913
-9.65196e-06
0.000230489
-5.90447e-06
-3.00677e-07
0.000268038
-4.31153e-06
0.000269096
-4.277e-06
0.000270175
-4.21519e-06
0.00027125
-4.11367e-06
0.000272297
-3.9523e-06
0.000273291
-3.73966e-06
0.000274234
-3.54941e-06
0.000275132
-3.39074e-06
0.000275986
-3.24665e-06
0.000276795
-3.10655e-06
0.000277564
-2.97087e-06
0.000278294
-2.83144e-06
0.000278986
-2.69147e-06
0.00027964
-2.55019e-06
0.00028026
-2.41144e-06
0.000280845
-2.27206e-06
0.000281398
-2.13968e-06
0.000281915
-2.00931e-06
0.000282401
-1.88902e-06
0.000282859
-1.77815e-06
0.000283287
-1.67653e-06
0.000283691
-1.59246e-06
0.000284074
-1.5197e-06
0.00028444
-1.45305e-06
0.000284787
-1.38665e-06
0.000285112
-1.3171e-06
0.000285422
-1.24984e-06
0.000285711
-1.17559e-06
0.000285982
-1.09786e-06
0.000286232
-1.01036e-06
0.00028646
-9.1888e-07
0.00028667
-8.28756e-07
0.000286857
-7.3508e-07
0.000287028
-6.4875e-07
0.000287179
-5.61868e-07
0.000287315
-4.81767e-07
0.000287435
-4.02407e-07
0.000287541
-3.29092e-07
0.000287634
-2.55315e-07
0.000287717
-1.86567e-07
0.000287791
-1.14196e-07
0.000287849
-3.63326e-08
0.000287897
4.06616e-08
0.000287931
1.2704e-07
0.000287949
2.27257e-07
0.000287946
3.41015e-07
0.000287918
4.66959e-07
0.000287864
6.0953e-07
0.000287779
7.65356e-07
0.00028766
9.32223e-07
0.000287505
1.11404e-06
0.00028731
1.30423e-06
0.000287075
1.50181e-06
0.000286795
1.70296e-06
0.000286475
1.90563e-06
0.00028611
2.1101e-06
0.000285701
2.30685e-06
0.000285252
2.49306e-06
0.000284766
2.66593e-06
0.00028424
2.82561e-06
0.000283684
2.9693e-06
0.0002831
3.08858e-06
0.000282493
3.1664e-06
0.000281877
3.18063e-06
0.000281261
3.14538e-06
0.000280644
3.11918e-06
0.000280024
3.12624e-06
0.000279409
3.10122e-06
0.000278822
2.87317e-06
0.000278315
2.33147e-06
0.000277932
1.5604e-06
0.000277654
9.8145e-07
0.000277413
9.27697e-07
0.000277138
1.35325e-06
0.000276817
1.71175e-06
0.000276647
5.91745e-07
0.000276893
-2.2782e-06
0.000277802
-6.68312e-06
0.000279498
-1.15638e-05
0.000281621
-1.35352e-05
0.000283659
-1.16907e-05
0.000285202
-7.44716e-06
-1.01757e-06
0.000327261
-5.45315e-06
0.000328494
-5.51169e-06
0.000329791
-5.51174e-06
0.000331118
-5.44045e-06
0.000332428
-5.26262e-06
0.000333686
-4.99785e-06
0.000334886
-4.74879e-06
0.000336029
-4.53395e-06
0.000337114
-4.33143e-06
0.000338144
-4.1369e-06
0.000339118
-3.94481e-06
0.00034004
-3.75361e-06
0.00034091
-3.56094e-06
0.000341734
-3.37414e-06
0.000342513
-3.19041e-06
0.00034325
-3.00946e-06
0.000343946
-2.83545e-06
0.000344602
-2.66471e-06
0.000345215
-2.50218e-06
0.000345787
-2.35041e-06
0.000346329
-2.21802e-06
0.000346836
-2.09947e-06
0.000347316
-2.00047e-06
0.000347772
-1.90809e-06
0.000348202
-1.81723e-06
0.00034861
-1.72442e-06
0.000348993
-1.63356e-06
0.000349355
-1.53746e-06
0.000349688
-1.43065e-06
0.000349998
-1.32037e-06
0.000350284
-1.20489e-06
0.000350546
-1.09056e-06
0.000350784
-9.73634e-07
0.000350998
-8.61952e-07
0.000351195
-7.58941e-07
0.000351369
-6.56267e-07
0.000351529
-5.6242e-07
0.000351675
-4.74835e-07
0.000351809
-3.89494e-07
0.000351929
-3.05853e-07
0.000352037
-2.22392e-07
0.000352137
-1.36645e-07
0.00035222
-4.26852e-08
0.000352288
5.94739e-08
0.000352339
1.76621e-07
0.000352369
3.11036e-07
0.000352371
4.6452e-07
0.000352345