/*--------------------------------*- C++ -*----------------------------------*\
| =========                 |                                                 |
| \\      /  F ield         | OpenFOAM: The Open Source CFD Toolbox           |
|  \\    /   O peration     | Version:  2412                                  |
|   \\  /    A nd           | Website:  www.openfoam.com                      |
|    \\/     M anipulation  |                                                 |
\*---------------------------------------------------------------------------*/
FoamFile
{
    version     2.0;
    format      ascii;
    arch        "LSB;label=32;scalar=64";
    class       volVectorField;
    location    "480";
    object      U;
}
// * * * * * * * * * * * * * * * * * * * * * * * * * * * * * * * * * * * * * //

dimensions      [0 1 -1 0 0 0 0];

internalField   nonuniform List<vector> 
8702
(
(0.21833 -0.0597761 3.89965e-19)
(0.218754 -0.0601992 0)
(0.219154 -0.0606109 -3.68243e-19)
(0.219532 -0.0610092 -3.5757e-19)
(0.219891 -0.0613971 0)
(0.220235 -0.0617732 -3.36552e-19)
(0.220565 -0.0621412 3.11049e-25)
(0.220882 -0.0625005 -3.01166e-25)
(0.22119 -0.0628513 -3.05455e-19)
(0.221495 -0.063197 0)
(0.221795 -0.0635362 2.84803e-19)
(0.222084 -0.0638682 -2.74453e-19)
(0.222357 -0.064191 1.22263e-25)
(0.222616 -0.0645055 -7.30907e-27)
(0.222854 -0.0648105 1.21555e-19)
(0.223077 -0.0651062 0)
(0.223279 -0.065393 -1.02087e-25)
(0.223466 -0.0656698 1.05477e-19)
(0.223644 -0.0659412 1.07321e-26)
(0.223804 -0.0662044 9.453e-27)
(0.223953 -0.066459 0)
(0.224095 -0.0667083 -8.29579e-20)
(0.224228 -0.0669515 0)
(0.224354 -0.067188 7.10598e-20)
(0.224476 -0.0674211 0)
(0.224591 -0.0676474 0)
(0.224697 -0.067868 0)
(0.224799 -0.0680826 -4.55342e-20)
(0.22489 -0.0682908 -7.38367e-26)
(0.224967 -0.068491 1.58521e-20)
(0.225033 -0.0686836 1.22365e-20)
(0.225087 -0.0688695 1.23571e-26)
(0.225122 -0.0690455 4.65091e-21)
(0.225145 -0.0692133 -2.63041e-27)
(0.225153 -0.0693736 2.71496e-27)
(0.225139 -0.0695227 1.54946e-20)
(0.225115 -0.069664 0)
(0.225076 -0.0697977 1.68103e-20)
(0.22502 -0.0699211 0)
(0.224948 -0.0700364 -5.47694e-26)
(0.224857 -0.070141 5.67663e-26)
(0.224746 -0.0702358 -1.86551e-20)
(0.224612 -0.0703194 -2.15105e-20)
(0.224454 -0.0703917 2.4502e-20)
(0.224277 -0.070453 0)
(0.224074 -0.0705028 3.09382e-20)
(0.223843 -0.0705393 3.44068e-20)
(0.22358 -0.0705622 -3.80602e-20)
(0.223287 -0.0705709 4.19142e-20)
(0.222958 -0.0705652 -2.29926e-20)
(0.222594 -0.0705434 -1.87601e-25)
(0.222198 -0.070508 0)
(0.221764 -0.0704571 0)
(0.221294 -0.0703906 0)
(0.220788 -0.0703087 2.7279e-25)
(0.220248 -0.0702122 3.80684e-20)
(0.219669 -0.0701006 0)
(0.219056 -0.0699739 0)
(0.218413 -0.0698342 -3.50005e-27)
(0.217749 -0.0696843 2.58914e-20)
(0.217061 -0.0695241 2.79061e-20)
(0.216347 -0.0693528 -3.0057e-20)
(0.215625 -0.0691753 -6.47124e-20)
(0.21491 -0.0689957 -5.3211e-25)
(0.214222 -0.0688208 1.87173e-20)
(0.213549 -0.068651 6.08159e-25)
(0.212882 -0.0684844 2.16052e-20)
(0.212199 -0.068314 0)
(0.211548 -0.0681444 -4.54634e-27)
(0.211056 -0.06801 0)
(0.210828 -0.067947 -1.4291e-20)
(0.210859 -0.0679754 1.52903e-20)
(0.21085 -0.0680307 3.26781e-20)
(0.210631 -0.0680542 -1.74491e-20)
(0.210053 -0.0679819 1.14348e-24)
(0.209577 -0.0678624 -1.98681e-20)
(0.210213 -0.0679813 -1.28516e-24)
(0.212194 -0.0684283 -1.45935e-26)
(0.216247 -0.0694728 -1.19178e-20)
(0.221457 -0.0710977 0)
(0.225315 -0.0726493 -1.32131e-20)
(0.226999 -0.0738254 0)
(0.680131 -0.186211 -3.15617e-25)
(0.68147 -0.187537 6.30521e-19)
(0.682736 -0.188823 0)
(0.683938 -0.190071 0)
(0.685084 -0.191285 0)
(0.686173 -0.192465 -5.59878e-19)
(0.687213 -0.193614 -5.4257e-19)
(0.688221 -0.194738 2.56599e-25)
(0.689201 -0.195838 5.08158e-19)
(0.690166 -0.196919 -4.90984e-19)
(0.69111 -0.197979 2.32003e-25)
(0.692022 -0.199016 0)
(0.692888 -0.200027 0)
(0.693706 -0.20101 -1.95115e-25)
(0.694463 -0.201964 -2.02224e-19)
(0.695169 -0.20289 -1.90534e-25)
(0.695815 -0.203787 1.84497e-19)
(0.69641 -0.204654 1.61228e-25)
(0.696968 -0.205502 -1.6634e-19)
(0.69748 -0.206323 -4.99881e-28)
(0.697961 -0.207123 0)
(0.698414 -0.207903 -1.25434e-25)
(0.698842 -0.208664 1.28229e-19)
(0.699247 -0.209407 -1.18231e-19)
(0.69964 -0.210135 0)
(0.70001 -0.210845 -9.75365e-20)
(0.700353 -0.211536 -1.65531e-25)
(0.70068 -0.212209 7.18463e-26)
(0.700974 -0.21286 0)
(0.701227 -0.213488 -2.63845e-20)
(0.701442 -0.214092 -3.24481e-26)
(0.701616 -0.214672 1.41651e-20)
(0.701738 -0.215225 0)
(0.701813 -0.21575 0)
(0.701845 -0.216251 1.74654e-26)
(0.701823 -0.216722 -1.30962e-26)
(0.701755 -0.217166 0)
(0.701643 -0.217584 -5.58819e-20)
(0.701479 -0.217973 3.59354e-20)
(0.701266 -0.218335 0)
(0.700992 -0.218665 -2.64781e-20)
(0.700656 -0.218963 1.25009e-25)
(0.700251 -0.219228 -1.29751e-25)
(0.699778 -0.219458 -4.07414e-20)
(0.699237 -0.219654 0)
(0.698611 -0.219811 0)
(0.697901 -0.219928 -5.72108e-20)
(0.697096 -0.220003 -2.34531e-25)
(0.696197 -0.220036 -6.96939e-20)
(0.695197 -0.220024 7.64637e-20)
(0.694087 -0.219965 0)
(0.692869 -0.21986 -4.56058e-20)
(0.691536 -0.219707 0)
(0.690093 -0.219506 4.18725e-25)
(0.688537 -0.219258 1.5054e-26)
(0.686869 -0.218963 -6.32897e-20)
(0.685088 -0.218621 5.30081e-25)
(0.683206 -0.218235 -3.69724e-20)
(0.681234 -0.21781 3.99058e-20)
(0.679188 -0.21735 1.46969e-26)
(0.67707 -0.216859 0)
(0.67488 -0.216336 4.99561e-20)
(0.672658 -0.215792 1.07549e-19)
(0.670456 -0.215241 5.78529e-20)
(0.668332 -0.214702 -3.11028e-20)
(0.666266 -0.214182 0)
(0.664213 -0.213671 1.10542e-24)
(0.662112 -0.213149 -2.35209e-24)
(0.660113 -0.212631 4.13409e-20)
(0.658589 -0.212218 0)
(0.657856 -0.212017 2.37361e-20)
(0.657904 -0.212091 0)
(0.657867 -0.212259 2.59165e-27)
(0.657227 -0.212343 2.8974e-20)
(0.655525 -0.212147 0)
(0.654093 -0.211801 -2.02253e-24)
(0.655929 -0.212144 4.28843e-24)
(0.6618 -0.21347 -1.86727e-20)
(0.673851 -0.216572 1.97805e-20)
(0.689464 -0.22144 0)
(0.701297 -0.226183 2.19243e-20)
(0.70672 -0.22986 -2.30404e-20)
(1.19425 -0.326972 0)
(1.19666 -0.329318 -7.13793e-19)
(1.19895 -0.331591 -3.23683e-25)
(1.20112 -0.3338 6.73387e-19)
(1.20319 -0.335949 6.53511e-19)
(1.20516 -0.338037 6.33817e-19)
(1.20703 -0.340065 -1.42023e-26)
(1.20884 -0.342053 -5.94717e-19)
(1.21062 -0.344 5.75264e-19)
(1.21235 -0.34591 5.55822e-19)
(1.21404 -0.347782 -5.36367e-19)
(1.21568 -0.349613 0)
(1.21724 -0.351399 0)
(1.21871 -0.353137 0)
(1.22007 -0.354821 0)
(1.22133 -0.356455 -2.01894e-25)
(1.22251 -0.358041 -2.08853e-19)
(1.22358 -0.359576 1.98645e-19)
(1.22458 -0.361069 1.72624e-25)
(1.22551 -0.362521 1.77791e-19)
(1.22639 -0.363937 -1.52379e-25)
(1.2272 -0.365314 2.97973e-25)
(1.22799 -0.366659 -1.45149e-19)
(1.22873 -0.367974 2.55239e-25)
(1.22944 -0.36926 1.22257e-19)
(1.23012 -0.370516 1.10404e-19)
(1.23075 -0.371737 0)
(1.23134 -0.372927 8.57665e-20)
(1.23188 -0.374078 6.23627e-26)
(1.23235 -0.375189 -2.98636e-20)
(1.23275 -0.376258 -5.11988e-26)
(1.23308 -0.377283 -1.60323e-20)
(1.23332 -0.378262 8.77562e-21)
(1.23347 -0.379192 -1.26943e-21)
(1.23354 -0.380076 0)
(1.23353 -0.380913 -1.45628e-20)
(1.23344 -0.381701 8.74891e-26)
(1.23326 -0.382441 3.16207e-20)
(1.23299 -0.383133 1.04759e-26)
(1.23264 -0.383775 0)
(1.23218 -0.384362 2.99631e-20)
(1.23161 -0.384893 -3.50993e-20)
(1.23093 -0.385366 1.46822e-25)
(1.23013 -0.38578 -1.86535e-25)
(1.2292 -0.386133 -1.53323e-26)
(1.22813 -0.386416 5.82076e-20)
(1.22691 -0.386631 6.47305e-20)
(1.22552 -0.386772 7.16018e-20)
(1.22397 -0.386839 -7.88493e-20)
(1.22225 -0.386828 -4.32524e-20)
(1.22033 -0.386737 3.68974e-25)
(1.21823 -0.386563 5.15905e-20)
(1.21592 -0.386304 4.20132e-25)
(1.21342 -0.385963 4.73644e-25)
(1.21072 -0.385539 -4.95968e-25)
(1.20782 -0.38503 -5.54888e-25)
(1.20473 -0.38444 7.74119e-20)
(1.20146 -0.383774 4.18142e-20)
(1.19804 -0.38304 4.51295e-20)
(1.19448 -0.382243 -4.86696e-20)
(1.19079 -0.38139 7.90775e-25)
(1.18699 -0.380485 0)
(1.18312 -0.37954 -6.08002e-20)
(1.17929 -0.378583 0)
(1.17558 -0.377646 3.51628e-20)
(1.17198 -0.376742 -3.77835e-20)
(1.16841 -0.375854 0)
(1.16475 -0.374948 -4.35515e-20)
(1.16128 -0.374053 -4.67187e-20)
(1.15861 -0.373332 -3.03357e-24)
(1.15727 -0.372968 3.29736e-24)
(1.15727 -0.373074 -3.47924e-24)
(1.15718 -0.373359 -3.06551e-20)
(1.15611 -0.373518 0)
(1.15327 -0.373218 3.49235e-20)
(1.15083 -0.37265 3.72569e-20)
(1.15381 -0.373209 -4.86704e-24)
(1.16363 -0.375434 5.12443e-24)
(1.18387 -0.380641 -2.23305e-20)
(1.2103 -0.388884 -2.35361e-20)
(1.23079 -0.397071 2.47482e-20)
(1.24062 -0.40355 2.59918e-20)
(1.76035 -0.481965 -8.31064e-19)
(1.76405 -0.485462 -7.86332e-25)
(1.76756 -0.488854 -7.84766e-19)
(1.77089 -0.492146 -7.62021e-19)
(1.77407 -0.495349 -7.45726e-25)
(1.77708 -0.498459 0)
(1.77995 -0.501482 6.95059e-19)
(1.78273 -0.50444 6.72985e-19)
(1.78544 -0.50734 -4.00861e-27)
(1.78809 -0.510182 0)
(1.79067 -0.512967 6.06947e-19)
(1.79316 -0.515692 0)
(1.79554 -0.518348 0)
(1.79778 -0.520932 0)
(1.79986 -0.523437 0)
(1.80179 -0.525867 0)
(1.80358 -0.528223 0)
(1.80523 -0.530508 -4.49537e-19)
(1.80676 -0.532728 -2.13059e-19)
(1.8082 -0.534889 0)
(1.80954 -0.536992 1.89079e-19)
(1.8108 -0.539041 1.76773e-19)
(1.81201 -0.541042 0)
(1.81316 -0.542999 2.72843e-25)
(1.81426 -0.544913 -2.76647e-19)
(1.81531 -0.546779 1.24909e-19)
(1.8163 -0.548599 -1.95859e-25)
(1.81722 -0.550369 9.70317e-20)
(1.81807 -0.552082 0)
(1.81882 -0.553739 3.37847e-20)
(1.81945 -0.55533 2.60833e-20)
(1.81998 -0.556857 0)
(1.82038 -0.558315 -9.92724e-21)
(1.82065 -0.559703 1.43597e-21)
(1.8208 -0.561022 4.47195e-26)
(1.82083 -0.56227 1.64727e-20)
(1.82074 -0.563449 -8.22163e-26)
(1.82052 -0.564556 0)
(1.82018 -0.565591 -4.59973e-20)
(1.8197 -0.566553 -2.33097e-25)
(1.81907 -0.567435 2.41578e-25)
(1.81828 -0.568235 3.96957e-20)
(1.81733 -0.56895 0)
(1.81621 -0.56958 5.21342e-20)
(1.81489 -0.570117 0)
(1.81337 -0.570555 -6.582e-20)
(1.81163 -0.570892 3.51118e-26)
(1.80965 -0.57112 -8.09609e-20)
(1.80743 -0.571239 8.91516e-20)
(1.80495 -0.571243 7.64266e-25)
(1.80219 -0.571129 3.63823e-26)
(1.79915 -0.570893 3.68237e-26)
(1.79581 -0.570533 -9.4987e-25)
(1.79219 -0.57005 1.0708e-24)
(1.78827 -0.569443 -1.1212e-24)
(1.78406 -0.568713 0)
(1.77956 -0.567864 -1.31467e-24)
(1.77481 -0.566902 -4.72527e-20)
(1.76982 -0.565837 -5.09978e-20)
(1.76462 -0.564679 0)
(1.75924 -0.563439 0)
(1.75369 -0.562122 0)
(1.74804 -0.560747 6.86858e-20)
(1.74243 -0.559348 2.27852e-24)
(1.73699 -0.557977 -4.82649e-24)
(1.73173 -0.556656 8.5347e-20)
(1.72649 -0.555359 -2.82208e-24)
(1.72115 -0.554039 4.91826e-20)
(1.71608 -0.552736 2.40333e-26)
(1.71213 -0.551675 -6.90236e-24)
(1.71006 -0.551117 3.66916e-24)
(1.70991 -0.551234 0)
(1.70974 -0.551637 3.45932e-20)
(1.70823 -0.551884 -4.5352e-24)
(1.70425 -0.551507 -3.93933e-20)
(1.70077 -0.550731 -5.15904e-24)
(1.70479 -0.551486 5.43444e-24)
(1.7185 -0.554601 -5.82313e-24)
(1.74686 -0.561898 5.03401e-20)
(1.78427 -0.573569 2.65281e-20)
(1.814 -0.585412 -2.78738e-20)
(1.82898 -0.595007 0)
(2.37729 -0.65088 9.39704e-19)
(2.38256 -0.655678 -8.53046e-25)
(2.38756 -0.66033 8.87333e-19)
(2.39231 -0.664846 -8.39593e-25)
(2.39684 -0.669238 -1.67232e-18)
(2.40113 -0.673501 7.55683e-25)
(2.40519 -0.677641 -7.85867e-19)
(2.40914 -0.681691 0)
(2.41297 -0.685659 -4.89385e-26)
(2.41671 -0.689546 6.60559e-25)
(2.42035 -0.693354 -6.72017e-25)
(2.42387 -0.697078 -6.1302e-25)
(2.42721 -0.700706 3.51938e-26)
(2.43037 -0.704237 6.00328e-25)
(2.43331 -0.707661 0)
(2.43605 -0.710983 5.16525e-25)
(2.43858 -0.714202 -1.01908e-24)
(2.44092 -0.717323 5.08182e-19)
(2.44311 -0.720359 2.40849e-19)
(2.44515 -0.723309 0)
(2.44706 -0.726183 -4.27331e-26)
(2.44886 -0.728981 -1.99819e-19)
(2.45059 -0.731717 1.85635e-19)
(2.45225 -0.734392 -3.44436e-25)
(2.45383 -0.737007 1.56346e-19)
(2.45534 -0.73956 -1.41181e-19)
(2.45676 -0.742047 -2.57807e-25)
(2.4581 -0.744467 -1.09666e-19)
(2.45933 -0.746812 -1.96194e-25)
(2.46043 -0.749079 1.27184e-25)
(2.46138 -0.751258 -5.89546e-20)
(2.46217 -0.753349 2.0496e-20)
(2.46279 -0.755346 -1.12183e-20)
(2.46324 -0.757248 1.25614e-26)
(2.46353 -0.759057 -1.29639e-26)
(2.46365 -0.760771 -1.86133e-20)
(2.4636 -0.76239 -2.93028e-20)
(2.46339 -0.763914 4.0411e-20)
(2.46301 -0.765341 5.1969e-20)
(2.46245 -0.766669 3.82663e-26)
(2.46169 -0.767889 -2.72918e-25)
(2.46072 -0.769001 0)
(2.45953 -0.770001 5.1704e-20)
(2.45811 -0.770883 5.88896e-20)
(2.45643 -0.771643 5.26434e-25)
(2.45448 -0.77227 7.43403e-20)
(2.45224 -0.77276 -3.96551e-26)
(2.44967 -0.773105 6.77672e-25)
(2.44679 -0.773303 -1.00675e-19)
(2.44355 -0.773347 -8.22363e-25)
(2.43994 -0.773229 0)
(2.43594 -0.772948 1.02572e-24)
(2.43155 -0.772497 -1.07238e-24)
(2.42676 -0.77188 0)
(2.42157 -0.771094 -8.43539e-20)
(2.41599 -0.770142 4.42216e-26)
(2.41002 -0.769027 -1.42596e-24)
(2.40369 -0.767759 1.06654e-19)
(2.39704 -0.76635 0)
(2.39011 -0.764813 0)
(2.38292 -0.763164 0)
(2.37551 -0.761413 0)
(2.36795 -0.75958 -7.74712e-20)
(2.36043 -0.757711 -2.51684e-24)
(2.35314 -0.755874 -4.4787e-20)
(2.34606 -0.754103 3.46728e-26)
(2.33904 -0.752367 -5.1658e-20)
(2.33189 -0.750605 -5.54352e-20)
(2.32508 -0.748863 5.94542e-20)
(2.31971 -0.747428 0)
(2.31678 -0.746641 0)
(2.31637 -0.746737 0)
(2.31604 -0.747249 -3.89637e-20)
(2.31408 -0.747597 4.15921e-20)
(2.30901 -0.74718 6.37664e-26)
(2.30448 -0.74622 -5.74038e-24)
(2.30935 -0.747137 0)
(2.32673 -0.751097 -2.6727e-20)
(2.36289 -0.760394 -5.66022e-20)
(2.41108 -0.775446 0)
(2.45044 -0.791097 -3.13131e-20)
(2.47136 -0.804115 0)
(3.04293 -0.83313 0)
(3.05011 -0.839393 0)
(3.05694 -0.845465 -1.00173e-18)
(3.06342 -0.85136 9.47808e-25)
(3.06961 -0.857092 9.43907e-19)
(3.07546 -0.862652 0)
(3.08099 -0.868045 1.77416e-18)
(3.08634 -0.873318 0)
(3.09154 -0.87848 -1.66147e-18)
(3.09659 -0.883536 7.85324e-25)
(3.1015 -0.888484 0)
(3.10623 -0.893322 0)
(3.11073 -0.898035 -7.18025e-19)
(3.115 -0.902621 -3.448e-19)
(3.11898 -0.907072 0)
(3.12268 -0.911385 -5.829e-25)
(3.12611 -0.915566 5.9495e-25)
(3.12929 -0.919621 -5.73452e-19)
(3.13227 -0.923563 -5.38379e-25)
(3.13505 -0.927395 -2.56595e-19)
(3.13765 -0.931123 -2.41164e-19)
(3.14012 -0.934758 -4.09792e-25)
(3.14248 -0.93831 -4.61423e-26)
(3.14475 -0.941783 3.88602e-25)
(3.14692 -0.945179 -1.76387e-19)
(3.14899 -0.948496 -1.59273e-19)
(3.15096 -0.951729 0)
(3.15281 -0.954873 1.23711e-19)
(3.15453 -0.957923 0)
(3.15607 -0.960868 0)
(3.15741 -0.963704 6.64967e-20)
(3.15855 -0.966424 -2.31174e-20)
(3.15948 -0.969026 1.26524e-20)
(3.16019 -0.971505 -2.83336e-26)
(3.16068 -0.973865 2.92401e-26)
(3.16096 -0.976102 -2.02736e-25)
(3.16103 -0.978218 3.30428e-20)
(3.16089 -0.980213 -4.5566e-20)
(3.16053 -0.982084 -1.1719e-19)
(3.15994 -0.983828 5.93814e-25)
(3.1591 -0.985439 -6.15359e-25)
(3.15801 -0.986912 0)
(3.15664 -0.988245 -5.82823e-20)
(3.15498 -0.989429 -6.63789e-20)
(3.15301 -0.990457 7.48689e-20)
(3.15068 -0.991317 7.2096e-26)
(3.14799 -0.992003 -9.31571e-20)
(3.14489 -0.992508 0)
(3.14138 -0.992823 1.13437e-19)
(3.13742 -0.99294 -1.85301e-24)
(3.13298 -0.992851 0)
(3.12805 -0.99255 0)
(3.12261 -0.992033 8.06988e-20)
(3.11666 -0.9913 -8.76263e-20)
(3.11019 -0.990352 9.49949e-20)
(3.10321 -0.989188 1.0282e-19)
(3.09573 -0.987813 -1.11165e-19)
(3.08778 -0.986239 -1.20065e-19)
(3.07941 -0.984482 -6.47725e-20)
(3.07067 -0.982559 -6.98273e-20)
(3.06161 -0.980491 0)
(3.05224 -0.978289 0)
(3.04268 -0.975979 8.71513e-20)
(3.03315 -0.973619 -9.37221e-20)
(3.02388 -0.971291 0)
(3.01489 -0.969045 -1.08192e-19)
(3.00596 -0.966844 5.80689e-20)
(2.99689 -0.964615 6.22982e-20)
(2.98824 -0.96241 0)
(2.98131 -0.960569 7.15849e-20)
(2.97734 -0.959511 -9.28547e-24)
(2.97649 -0.959542 4.09664e-20)
(2.97592 -0.960147 -4.37411e-20)
(2.9735 -0.960607 -4.66713e-20)
(2.96741 -0.960195 1.20778e-23)
(2.96184 -0.959084 0)
(2.96732 -0.960114 -5.64626e-20)
(2.98797 -0.96483 5.99159e-20)
(3.03126 -0.97595 3.16832e-20)
(3.08961 -0.994214 -1.62876e-23)
(3.13873 -1.01373 7.00413e-20)
(3.16631 -1.03045 -3.67468e-20)
(3.75376 -1.02776 -1.19464e-18)
(3.76328 -1.03566 0)
(3.77234 -1.04333 2.25568e-18)
(3.78096 -1.05078 -2.04334e-24)
(3.78917 -1.05801 1.0626e-18)
(3.79693 -1.06503 0)
(3.80425 -1.07182 -9.9851e-19)
(3.81131 -1.07846 -1.79904e-24)
(3.81814 -1.08496 1.86997e-18)
(3.82478 -1.09131 1.76765e-24)
(3.8312 -1.09753 0)
(3.83738 -1.1036 0)
(3.84328 -1.10952 1.61592e-18)
(3.84885 -1.11528 7.75935e-19)
(3.85407 -1.12086 -8.95101e-26)
(3.85893 -1.12627 -8.96171e-26)
(3.86345 -1.13152 3.39167e-19)
(3.86765 -1.13661 6.45112e-19)
(3.87158 -1.14156 -3.0572e-19)
(3.87526 -1.14636 5.7726e-19)
(3.87871 -1.15104 0)
(3.88197 -1.1556 0)
(3.88511 -1.16005 -2.35557e-19)
(3.88812 -1.16441 -7.82609e-25)
(3.89101 -1.16867 1.98358e-19)
(3.89377 -1.17283 2.01702e-25)
(3.89639 -1.17689 0)
(3.89887 -1.18083 -1.39095e-19)
(3.90118 -1.18466 -9.31366e-26)
(3.90327 -1.18836 -4.84187e-20)
(3.90511 -1.19192 -3.73766e-20)
(3.9067 -1.19534 2.59858e-20)
(3.90802 -1.19861 0)
(3.90907 -1.20173 0)
(3.90986 -1.2047 -1.05369e-20)
(3.91038 -1.20752 0)
(3.91065 -1.2102 0)
(3.91065 -1.21272 0)
(3.91039 -1.21509 1.31669e-19)
(3.90986 -1.21731 -5.70187e-25)
(3.90903 -1.21937 0)
(3.9079 -1.22126 -5.67828e-20)
(3.90645 -1.22298 -9.49898e-25)
(3.90464 -1.22453 0)
(3.90246 -1.22588 -8.40726e-20)
(3.89986 -1.22703 -1.88149e-19)
(3.89681 -1.22797 1.04591e-19)
(3.89327 -1.22868 1.15656e-19)
(3.88922 -1.22917 1.27329e-19)
(3.88463 -1.22941 6.98233e-20)
(3.87944 -1.22939 -4.65972e-24)
(3.87365 -1.22912 2.48775e-24)
(3.86721 -1.22857 -9.05385e-20)
(3.86015 -1.22776 9.8297e-20)
(3.85244 -1.22668 -3.30671e-24)
(3.84409 -1.22533 3.60037e-24)
(3.83512 -1.22371 1.24646e-19)
(3.82556 -1.22185 6.72927e-20)
(3.81547 -1.21976 7.26044e-20)
(3.80491 -1.21746 -9.47449e-26)
(3.79393 -1.21498 8.42908e-20)
(3.78257 -1.21232 -9.0726e-20)
(3.77097 -1.20953 -1.95212e-19)
(3.75936 -1.20667 1.04929e-19)
(3.74804 -1.20384 1.37661e-23)
(3.73704 -1.2011 6.05342e-20)
(3.72613 -1.19842 -6.49705e-20)
(3.71507 -1.19571 6.96826e-20)
(3.70448 -1.19303 7.46962e-20)
(3.69587 -1.19075 -1.60022e-19)
(3.69069 -1.18938 0)
(3.6892 -1.18929 1.12725e-23)
(3.68825 -1.18996 9.76475e-20)
(3.68535 -1.19054 0)
(3.67834 -1.19018 -1.36336e-23)
(3.67177 -1.18897 5.91769e-20)
(3.67755 -1.19005 6.28942e-20)
(3.7009 -1.19539 -3.33531e-20)
(3.75028 -1.20806 0)
(3.81769 -1.22922 0)
(3.87626 -1.25253 1.91927e-23)
(3.91106 -1.27315 4.07978e-20)
(4.50457 -1.23334 4.31892e-25)
(4.51689 -1.24307 0)
(4.52866 -1.25252 -1.26447e-18)
(4.53987 -1.2617 -2.39236e-24)
(4.55056 -1.27062 -4.46426e-25)
(4.56062 -1.27925 -1.15489e-18)
(4.57011 -1.28761 -2.18464e-24)
(4.57923 -1.29576 1.08319e-18)
(4.58803 -1.30373 -1.04754e-18)
(4.59654 -1.31153 0)
(4.60477 -1.31914 0)
(4.61267 -1.32658 0)
(4.62021 -1.33382 -9.04876e-19)
(4.62734 -1.34086 -4.34462e-19)
(4.63403 -1.3477 -4.1637e-19)
(4.64027 -1.35433 0)
(4.64609 -1.36075 -3.79717e-19)
(4.6515 -1.36697 -3.61088e-19)
(4.65657 -1.37302 3.42214e-19)
(4.66131 -1.3789 -6.46111e-19)
(4.66577 -1.38462 0)
(4.67 -1.39019 0)
(4.67406 -1.39563 0)
(4.67796 -1.40095 0)
(4.6817 -1.40616 0)
(4.68527 -1.41124 3.83324e-25)
(4.68868 -1.4162 0)
(4.69191 -1.42102 1.5558e-19)
(4.69491 -1.4257 4.52397e-25)
(4.69766 -1.43022 5.41463e-20)
(4.70011 -1.43457 4.1794e-20)
(4.70225 -1.43876 -2.90544e-20)
(4.70406 -1.44276 0)
(4.70555 -1.44659 -3.56024e-26)
(4.70672 -1.45023 1.17783e-20)
(4.70758 -1.4537 -1.4784e-25)
(4.70814 -1.45699 -4.14962e-20)
(4.70839 -1.46011 -4.90375e-25)
(4.70833 -1.46304 -7.35584e-20)
(4.70795 -1.46579 -9.05796e-20)
(4.70724 -1.46836 8.80917e-25)
(4.70618 -1.47073 6.34245e-20)
(4.70475 -1.4729 -7.31067e-20)
(4.70292 -1.47487 -1.21526e-24)
(4.70067 -1.47662 1.48781e-24)
(4.69793 -1.47813 1.05017e-19)
(4.69467 -1.47938 0)
(4.69083 -1.48038 -1.29073e-19)
(4.68639 -1.4811 -1.42073e-19)
(4.6813 -1.48152 1.46606e-25)
(4.6755 -1.48165 -8.51462e-20)
(4.66897 -1.48146 0)
(4.66168 -1.48094 1.00955e-19)
(4.65362 -1.4801 -3.28441e-24)
(4.64478 -1.47894 0)
(4.63516 -1.47745 -1.28498e-19)
(4.62479 -1.47564 -2.77727e-19)
(4.6137 -1.47353 -7.49586e-20)
(4.60196 -1.47114 1.31996e-25)
(4.58963 -1.46849 -5.40266e-24)
(4.57678 -1.46562 -1.87633e-19)
(4.56347 -1.46254 1.00957e-19)
(4.54984 -1.45929 1.08575e-19)
(4.53617 -1.45594 0)
(4.52279 -1.45261 -6.26769e-20)
(4.50975 -1.44938 -8.29095e-24)
(4.49683 -1.44622 7.21838e-20)
(4.48376 -1.44303 -7.737e-20)
(4.4712 -1.43987 -8.29231e-20)
(4.46082 -1.43714 1.77561e-19)
(4.45426 -1.43542 4.74538e-20)
(4.45191 -1.43516 -1.07398e-25)
(4.45043 -1.43585 1.3245e-23)
(4.447 -1.43655 0)
(4.43917 -1.4363 0)
(4.43169 -1.43503 -1.3082e-19)
(4.43743 -1.4361 0)
(4.4627 -1.44189 -1.80382e-23)
(4.5168 -1.45574 1.89133e-23)
(4.59164 -1.47935 0)
(4.65881 -1.5062 -4.28225e-20)
(4.70103 -1.5308 2.19041e-23)
(5.288 -1.44786 1.49355e-18)
(5.30361 -1.4596 -1.45097e-18)
(5.3186 -1.47102 -2.63063e-24)
(5.3329 -1.48211 5.2171e-24)
(5.34655 -1.49289 -2.65321e-18)
(5.35939 -1.50332 1.28609e-18)
(5.37147 -1.5134 0)
(5.38303 -1.52323 -2.41155e-18)
(5.39415 -1.53282 -1.16587e-18)
(5.40487 -1.54218 -8.59117e-24)
(5.41521 -1.55132 4.25514e-24)
(5.42512 -1.56024 3.88029e-24)
(5.43456 -1.56893 -3.95055e-24)
(5.4435 -1.57737 0)
(5.4519 -1.58557 4.62961e-19)
(5.45977 -1.59352 0)
(5.4671 -1.60122 4.22088e-19)
(5.47395 -1.60868 -2.23809e-25)
(5.48035 -1.61593 -3.80293e-19)
(5.48635 -1.62297 3.58954e-19)
(5.49199 -1.62981 0)
(5.49734 -1.63648 0)
(5.50246 -1.643 2.12014e-24)
(5.50739 -1.64936 -2.17219e-24)
(5.51211 -1.65559 0)
(5.51663 -1.66167 2.22453e-19)
(5.52094 -1.66759 1.62437e-24)
(5.52502 -1.67335 -7.25378e-25)
(5.52884 -1.67894 -1.46801e-19)
(5.53234 -1.68435 0)
(5.53549 -1.68956 -9.99089e-25)
(5.53827 -1.69457 3.22335e-20)
(5.54068 -1.69937 0)
(5.54269 -1.70395 2.54922e-21)
(5.54435 -1.70833 -3.17581e-25)
(5.54564 -1.7125 3.27864e-25)
(5.54657 -1.71646 4.60057e-20)
(5.54717 -1.72022 -1.08718e-24)
(5.54741 -1.72378 1.12467e-24)
(5.5473 -1.72712 1.0038e-19)
(5.54682 -1.73026 -1.71123e-24)
(5.54596 -1.73317 -2.26542e-24)
(5.5447 -1.73587 8.09767e-20)
(5.54301 -1.73833 9.21839e-20)
(5.54085 -1.74054 3.29459e-24)
(5.53815 -1.74248 -7.09627e-24)
(5.53486 -1.74414 3.81931e-24)
(5.53092 -1.74549 0)
(5.52628 -1.74653 -1.57167e-19)
(5.52089 -1.74722 -8.61514e-20)
(5.51469 -1.74756 9.41461e-20)
(5.50762 -1.74754 0)
(5.49967 -1.74713 -1.11573e-19)
(5.49081 -1.74634 1.47811e-23)
(5.48103 -1.74517 -1.60132e-23)
(5.47034 -1.74362 1.41903e-19)
(5.45874 -1.74169 1.53294e-19)
(5.4463 -1.7394 8.271e-20)
(5.43307 -1.73677 -1.10345e-23)
(5.41914 -1.73383 1.92172e-19)
(5.40457 -1.73062 1.03413e-19)
(5.38943 -1.72716 2.71662e-23)
(5.3739 -1.7235 -1.44427e-23)
(5.35827 -1.7197 1.58513e-23)
(5.34292 -1.71591 6.8969e-20)
(5.32792 -1.71222 0)
(5.31304 -1.70861 0)
(5.29802 -1.70498 8.50643e-20)
(5.28353 -1.70136 -2.20553e-23)
(5.27135 -1.69819 2.41344e-23)
(5.2633 -1.69608 -5.20898e-20)
(5.25986 -1.69559 -1.1121e-19)
(5.25765 -1.69627 -5.93001e-20)
(5.25364 -1.69707 6.30943e-20)
(5.24512 -1.69699 3.26172e-23)
(5.23684 -1.69573 7.14943e-20)
(5.2422 -1.69674 0)
(5.26851 -1.70275 -4.01784e-20)
(5.32567 -1.71735 -1.87266e-25)
(5.40581 -1.74281 -6.07813e-26)
(5.48009 -1.77278 4.53765e-23)
(5.52943 -1.80125 0)
(6.09434 -1.66866 -6.17469e-24)
(6.11367 -1.68256 3.20861e-18)
(6.13234 -1.69611 5.81502e-24)
(6.15024 -1.70929 -1.15281e-23)
(6.16736 -1.72211 2.93028e-18)
(6.18345 -1.73449 0)
(6.19855 -1.74645 -1.37499e-18)
(6.21295 -1.75809 1.33039e-18)
(6.22676 -1.76943 1.28599e-18)
(6.24003 -1.7805 -1.24171e-18)
(6.25278 -1.79129 0)
(6.26498 -1.8018 -4.27657e-24)
(6.27659 -1.81204 2.45379e-25)
(6.28758 -1.82198 5.32238e-19)
(6.29793 -1.83164 -7.77988e-24)
(6.30765 -1.841 7.43627e-24)
(6.31672 -1.85007 -9.29299e-19)
(6.3252 -1.85886 6.73944e-24)
(6.33313 -1.86739 8.36921e-19)
(6.34056 -1.87568 -2.88905e-24)
(6.34754 -1.88373 2.47894e-25)
(6.35416 -1.89156 3.46668e-19)
(6.36049 -1.89921 -3.219e-19)
(6.36656 -1.90668 -2.96646e-19)
(6.37238 -1.91399 0)
(6.37795 -1.92112 -1.73911e-24)
(6.38325 -1.92806 2.52263e-25)
(6.38828 -1.93482 -1.89705e-19)
(6.39299 -1.94137 1.61239e-19)
(6.39733 -1.94771 0)
(6.40125 -1.95382 -6.82339e-25)
(6.40474 -1.95969 -3.5384e-20)
(6.40781 -1.96533 1.9356e-20)
(6.41043 -1.97072 -2.7975e-21)
(6.41264 -1.97588 1.43329e-20)
(6.41443 -1.98079 6.19519e-25)
(6.41584 -1.98548 2.60635e-25)
(6.41686 -1.98993 -9.3077e-25)
(6.41751 -1.99415 1.49536e-24)
(6.41778 -1.99815 -1.54767e-24)
(6.41767 -2.00191 -2.1394e-24)
(6.41715 -2.00543 2.21725e-24)
(6.41622 -2.00871 0)
(6.41483 -2.01174 -1.00955e-19)
(6.41295 -2.01449 0)
(6.4105 -2.01695 1.27244e-19)
(6.4074 -2.01909 0)
(6.4036 -2.02089 -4.90474e-24)
(6.39901 -2.02233 3.43743e-19)
(6.39358 -2.02339 0)
(6.38722 -2.02404 -6.42046e-24)
(6.37989 -2.02427 6.70089e-24)
(6.37154 -2.02408 1.2183e-19)
(6.36216 -2.02344 1.32177e-19)
(6.35173 -2.02236 8.88469e-24)
(6.34023 -2.02083 -1.54773e-19)
(6.3277 -2.01888 -2.04072e-23)
(6.31418 -2.0165 1.08519e-23)
(6.29975 -2.01373 1.20216e-23)
(6.28448 -2.0106 -1.04641e-19)
(6.26846 -2.00715 -1.39096e-23)
(6.25176 -2.00341 1.21068e-19)
(6.23458 -1.99941 -1.57045e-23)
(6.21722 -1.99526 0)
(6.20011 -1.99108 -7.49478e-20)
(6.18333 -1.98699 -8.03276e-20)
(6.16667 -1.98299 8.61169e-20)
(6.14987 -1.97897 -4.4692e-23)
(6.13361 -1.97495 2.38928e-23)
(6.11971 -1.97137 -2.11004e-19)
(6.11011 -1.96888 -5.63459e-20)
(6.1054 -1.96812 6.00985e-20)
(6.10231 -1.96874 6.40339e-20)
(6.09764 -1.96964 -1.36223e-19)
(6.08855 -1.96977 3.5564e-23)
(6.07962 -1.9686 -3.7364e-23)
(6.08431 -1.9695 0)
(6.11073 -1.97553 4.30772e-20)
(6.16914 -1.99041 4.52714e-20)
(6.25214 -2.01704 -4.74121e-20)
(6.33144 -2.04951 4.84815e-23)
(6.38697 -2.08156 -1.0144e-22)
(6.40938 -2.10849 -5.42841e-20)
(6.91161 -1.89246 -1.80959e-18)
(6.93489 -1.9086 -1.75639e-18)
(6.9576 -1.9244 1.70395e-18)
(6.97952 -1.9398 0)
(7.00056 -1.95479 -1.60125e-18)
(7.02033 -1.96927 1.55098e-18)
(7.03887 -1.98324 1.50117e-18)
(7.05649 -1.99682 -5.40354e-24)
(7.07333 -2.01003 5.48526e-24)
(7.08946 -2.02289 -2.66412e-24)
(7.10489 -2.03543 5.1123e-24)
(7.11963 -2.04763 1.25636e-18)
(7.13363 -2.05949 -4.74034e-24)
(7.14689 -2.07101 -1.15879e-18)
(7.1594 -2.0822 -8.46641e-24)
(7.17115 -2.09305 8.08977e-24)
(7.18216 -2.10357 5.05308e-19)
(7.19244 -2.11375 -4.80202e-19)
(7.20207 -2.12363 -4.54818e-19)
(7.21107 -2.13321 -4.29085e-19)
(7.21953 -2.14252 0)
(7.22753 -2.15158 -3.7647e-19)
(7.23517 -2.1604 3.49484e-19)
(7.24248 -2.16903 4.27542e-24)
(7.24948 -2.17745 0)
(7.25616 -2.18566 0)
(7.26252 -2.19366 0)
(7.26854 -2.20144 -1.43198e-24)
(7.27417 -2.20898 2.75324e-25)
(7.27938 -2.21627 1.22913e-24)
(7.28412 -2.22331 -5.51767e-20)
(7.28837 -2.23008 7.23675e-25)
(7.29214 -2.23658 -2.09677e-20)
(7.29541 -2.2428 0)
(7.29822 -2.24876 -3.10402e-20)
(7.30059 -2.25445 -6.70678e-25)
(7.30253 -2.25989 6.92582e-25)
(7.30406 -2.26507 0)
(7.3052 -2.27 9.67021e-20)
(7.30595 -2.27468 1.67388e-24)
(7.30632 -2.27912 0)
(7.30629 -2.2833 0)
(7.30584 -2.28723 -3.06919e-24)
(7.30495 -2.29089 -1.09053e-19)
(7.30355 -2.29426 0)
(7.30156 -2.29731 -1.37359e-19)
(7.2989 -2.30001 -2.92712e-25)
(7.29548 -2.30235 -1.68507e-19)
(7.29121 -2.30429 -1.85304e-19)
(7.28602 -2.30581 1.01506e-19)
(7.27981 -2.30687 -6.61477e-24)
(7.27253 -2.30747 0)
(7.26413 -2.30759 -1.31127e-19)
(7.25457 -2.30722 -1.42177e-19)
(7.24383 -2.30634 0)
(7.2319 -2.30497 0)
(7.21881 -2.30312 0)
(7.20461 -2.30078 9.67975e-20)
(7.18935 -2.298 -1.04262e-19)
(7.17314 -2.29481 0)
(7.15605 -2.29124 0)
(7.13819 -2.28733 -2.59226e-19)
(7.11974 -2.28314 -1.39183e-19)
(7.10103 -2.27874 -3.6467e-23)
(7.0825 -2.27429 8.00937e-20)
(7.06427 -2.26991 1.71597e-19)
(7.04614 -2.26562 -9.18627e-20)
(7.02787 -2.26132 -1.96595e-19)
(7.01012 -2.257 5.13167e-23)
(6.99471 -2.25308 2.24541e-19)
(6.98363 -2.25026 5.98745e-20)
(6.9776 -2.24921 6.38601e-20)
(6.9735 -2.24975 -6.79317e-20)
(6.96815 -2.25075 1.44305e-19)
(6.95862 -2.25114 -3.76346e-23)
(6.94922 -2.25014 3.9491e-23)
(6.95305 -2.25091 0)
(6.9787 -2.25678 4.44531e-23)
(7.03658 -2.27149 -4.7708e-20)
(7.11991 -2.29859 -4.42788e-25)
(7.20177 -2.33285 5.19662e-20)
(7.26189 -2.36795 -5.4246e-20)
(7.28957 -2.3986 -6.21871e-23)
(7.72622 -2.11556 1.86113e-23)
(7.75335 -2.1339 1.90134e-18)
(7.7802 -2.15196 -3.372e-24)
(7.80635 -2.16964 0)
(7.83163 -2.1869 1.72921e-18)
(7.85543 -2.20357 -3.34726e-18)
(7.87773 -2.21964 -1.61873e-18)
(7.89889 -2.23523 1.22256e-23)
(7.91904 -2.25039 1.51047e-18)
(7.93827 -2.26513 1.45693e-18)
(7.9566 -2.27946 0)
(7.97406 -2.2934 -1.35054e-18)
(7.99062 -2.30694 0)
(8.0063 -2.32009 1.2444e-18)
(8.0211 -2.33285 8.80082e-24)
(8.03503 -2.34522 -8.96604e-24)
(8.04809 -2.35722 5.41901e-19)
(8.06031 -2.36883 5.1477e-19)
(8.07175 -2.3801 -5.74862e-25)
(8.08244 -2.39101 4.59604e-19)
(8.09247 -2.40161 4.31493e-19)
(8.10193 -2.4119 6.43723e-24)
(8.11093 -2.42193 0)
(8.11953 -2.43172 6.88863e-19)
(8.12774 -2.44126 3.14295e-19)
(8.13555 -2.45057 2.83525e-19)
(8.14298 -2.45963 3.5529e-24)
(8.14999 -2.46843 -2.198e-19)
(8.15656 -2.47696 0)
(8.16265 -2.48521 7.63739e-20)
(8.1682 -2.49318 2.09298e-24)
(8.17322 -2.50084 0)
(8.1777 -2.50821 0)
(8.18164 -2.51527 -2.00403e-25)
(8.18509 -2.52204 1.65549e-20)
(8.18806 -2.52852 3.70302e-20)
(8.19058 -2.53472 -5.82323e-20)
(8.19268 -2.54065 0)
(8.19439 -2.54632 -1.03046e-19)
(8.19572 -2.55172 0)
(8.19668 -2.55687 0)
(8.19727 -2.56176 8.85912e-20)
(8.19746 -2.56638 -1.02003e-19)
(8.19723 -2.57072 1.16007e-19)
(8.1965 -2.57476 0)
(8.19518 -2.57847 0)
(8.19319 -2.58182 -1.62054e-19)
(8.1904 -2.58477 1.7892e-19)
(8.18672 -2.58729 1.23186e-23)
(8.18206 -2.58936 -1.07668e-19)
(8.17633 -2.59094 -1.46638e-23)
(8.16944 -2.59202 -1.27842e-19)
(8.16134 -2.59257 -3.39022e-23)
(8.15198 -2.59258 -6.61449e-25)
(8.14134 -2.59204 -6.70656e-25)
(8.1294 -2.59096 2.11208e-23)
(8.11619 -2.58933 -1.89593e-19)
(8.10175 -2.58719 -1.02149e-19)
(8.08616 -2.58454 1.09922e-19)
(8.06949 -2.58144 -1.18235e-19)
(8.05183 -2.57791 1.27038e-19)
(8.03331 -2.574 -8.82787e-25)
(8.0141 -2.56977 1.46294e-19)
(7.99454 -2.56529 1.56923e-19)
(7.97508 -2.56071 -4.14439e-23)
(7.95586 -2.5562 -2.63941e-25)
(7.93672 -2.55176 4.65675e-23)
(7.91742 -2.54732 1.02891e-19)
(7.8986 -2.54284 -1.07274e-22)
(7.88204 -2.53871 -1.171e-19)
(7.86972 -2.53562 -6.2531e-20)
(7.86243 -2.53434 3.70071e-25)
(7.85732 -2.53481 6.94055e-23)