/*--------------------------------*- C++ -*----------------------------------*\
| =========                 |                                                 |
| \\      /  F ield         | OpenFOAM: The Open Source CFD Toolbox           |
|  \\    /   O peration     | Version:  2412                                  |
|   \\  /    A nd           | Website:  www.openfoam.com                      |
|    \\/     M anipulation  |                                                 |
\*---------------------------------------------------------------------------*/
FoamFile
{
    version     2.0;
    format      ascii;
    arch        "LSB;label=32;scalar=64";
    class       surfaceScalarField;
    location    "240";
    object      phi;
}
// * * * * * * * * * * * * * * * * * * * * * * * * * * * * * * * * * * * * * //

dimensions      [0 3 -1 0 0 0 0];

oriented        oriented;

internalField   nonuniform List<scalar> 
14564
(
-3.22197e-06
1.56776e-10
-3.2222e-06
2.99423e-10
-3.22234e-06
3.83701e-11
-3.22215e-06
-1.50373e-10
-3.2217e-06
-5.28772e-10
-3.22104e-06
-6.75341e-10
-3.22015e-06
-8.99249e-10
-3.21897e-06
-1.19416e-09
-3.21764e-06
-1.34374e-09
-3.21605e-06
-1.59685e-09
-3.21408e-06
-1.98882e-09
-3.21177e-06
-2.32111e-09
-3.20909e-06
-2.69445e-09
-3.20615e-06
-2.95113e-09
-3.20277e-06
-3.3886e-09
-3.19888e-06
-3.90679e-09
-3.1945e-06
-4.38787e-09
-3.18962e-06
-4.89326e-09
-3.18425e-06
-5.38877e-09
-3.17829e-06
-5.97079e-09
-3.17152e-06
-6.78032e-09
-3.16401e-06
-7.52452e-09
-3.15578e-06
-8.24273e-09
-3.14675e-06
-9.04389e-09
-3.13677e-06
-9.99688e-09
-3.12573e-06
-1.10544e-08
-3.11359e-06
-1.21638e-08
-3.10032e-06
-1.32815e-08
-3.08571e-06
-1.46254e-08
-3.06973e-06
-1.5998e-08
-3.05235e-06
-1.74004e-08
-3.03319e-06
-1.9181e-08
-3.01225e-06
-2.09559e-08
-2.98955e-06
-2.27214e-08
-2.9648e-06
-2.47754e-08
-2.93776e-06
-2.70527e-08
-2.90839e-06
-2.93991e-08
-2.8765e-06
-3.19128e-08
-2.84178e-06
-3.47405e-08
-2.80409e-06
-3.77121e-08
-2.76303e-06
-4.10835e-08
-2.71849e-06
-4.4561e-08
-2.67001e-06
-4.84983e-08
-2.61734e-06
-5.26905e-08
-2.55992e-06
-5.74397e-08
-2.49732e-06
-6.26173e-08
-2.42925e-06
-6.80837e-08
-2.35535e-06
-7.39071e-08
-2.27582e-06
-7.95451e-08
-2.19165e-06
-8.41837e-08
-2.10442e-06
-8.72398e-08
-2.01693e-06
-8.75051e-08
-1.93213e-06
-8.48052e-08
-1.85139e-06
-8.07581e-08
-1.7735e-06
-7.78976e-08
-1.69285e-06
-8.06627e-08
-1.5984e-06
-9.44634e-08
-1.47227e-06
-1.2614e-07
-1.28673e-06
-1.85542e-07
-9.97623e-07
-2.89106e-07
-5.29646e-07
-4.67976e-07
2.07661e-07
-7.37299e-07
1.37982e-06
-1.17215e-06
3.35263e-06
-1.97278e-06
6.49537e-06
-3.14271e-06
1.13196e-05
-4.82419e-06
1.72884e-05
-5.96878e-06
-4.71524e-06
-1.14194e-05
9.52708e-10
-1.14203e-05
1.23757e-09
-1.14199e-05
-4.44164e-10
-1.14191e-05
-9.40527e-10
-1.14179e-05
-1.8608e-09
-1.14152e-05
-3.34262e-09
-1.14116e-05
-4.58637e-09
-1.14077e-05
-5.0946e-09
-1.14026e-05
-6.42808e-09
-1.13964e-05
-7.82435e-09
-1.13891e-05
-9.32127e-09
-1.1381e-05
-1.04221e-08
-1.13716e-05
-1.21059e-08
-1.13605e-05
-1.41296e-08
-1.1348e-05
-1.59342e-08
-1.1334e-05
-1.78954e-08
-1.13182e-05
-2.01847e-08
-1.13006e-05
-2.25402e-08
-1.1281e-05
-2.50174e-08
-1.12593e-05
-2.7718e-08
-1.12351e-05
-3.09995e-08
-1.1208e-05
-3.45673e-08
-1.11784e-05
-3.78984e-08
-1.11457e-05
-4.17608e-08
-1.11099e-05
-4.58528e-08
-1.107e-05
-5.09608e-08
-1.10265e-05
-5.5749e-08
-1.09786e-05
-6.11348e-08
-1.09259e-05
-6.74051e-08
-1.08684e-05
-7.35159e-08
-1.08058e-05
-8.00415e-08
-1.07373e-05
-8.77351e-08
-1.06622e-05
-9.60397e-08
-1.05805e-05
-1.04459e-07
-1.04917e-05
-1.13591e-07
-1.03949e-05
-1.23892e-07
-1.02897e-05
-1.34696e-07
-1.01751e-05
-1.46466e-07
-1.00506e-05
-1.59348e-07
-9.91538e-06
-1.72955e-07
-9.76843e-06
-1.88075e-07
-9.60867e-06
-2.04345e-07
-9.43489e-06
-2.2232e-07
-9.24563e-06
-2.41985e-07
-9.03971e-06
-2.63394e-07
-8.81529e-06
-2.87067e-07
-8.57121e-06
-3.12189e-07
-8.30612e-06
-3.39009e-07
-8.02091e-06
-3.64782e-07
-7.71904e-06
-3.86073e-07
-7.40589e-06
-4.00413e-07
-7.09132e-06
-4.02086e-07
-6.78588e-06
-3.90261e-07
-6.49469e-06
-3.71971e-07
-6.21316e-06
-3.5945e-07
-5.92193e-06
-3.71914e-07
-5.58265e-06
-4.33765e-07
-5.13313e-06
-5.75672e-07
-4.47699e-06
-8.41688e-07
-3.46301e-06
-1.3031e-06
-1.83369e-06
-2.09729e-06
7.1314e-07
-3.28411e-06
4.73408e-06
-5.19307e-06
1.14431e-05
-8.68178e-06
2.20411e-05
-1.37406e-05
3.82063e-05
-2.09893e-05
5.81148e-05
-2.58773e-05
-2.09756e-05
-2.28711e-05
1.81593e-09
-2.28722e-05
2.51424e-09
-2.2872e-05
-8.07938e-10
-2.28701e-05
-2.77779e-09
-2.2866e-05
-6.11993e-09
-2.28613e-05
-8.06153e-09
-2.28545e-05
-1.13978e-08
-2.28455e-05
-1.41293e-08
-2.28348e-05
-1.71699e-08
-2.28221e-05
-2.05204e-08
-2.2808e-05
-2.35054e-08
-2.27899e-05
-2.85066e-08
-2.27705e-05
-3.15399e-08
-2.2748e-05
-3.66434e-08
-2.27226e-05
-4.13176e-08
-2.26942e-05
-4.63792e-08
-2.26617e-05
-5.26294e-08
-2.2626e-05
-5.83382e-08
-2.25861e-05
-6.49238e-08
-2.25415e-05
-7.23412e-08
-2.2492e-05
-8.04897e-08
-2.24374e-05
-8.92052e-08
-2.23768e-05
-9.85752e-08
-2.23104e-05
-1.08166e-07
-2.22368e-05
-1.19433e-07
-2.21564e-05
-1.31412e-07
-2.20678e-05
-1.44418e-07
-2.19705e-05
-1.58467e-07
-2.1864e-05
-1.73926e-07
-2.17477e-05
-1.89765e-07
-2.16204e-05
-2.07437e-07
-2.14813e-05
-2.26894e-07
-2.13294e-05
-2.47909e-07
-2.11644e-05
-2.69548e-07
-2.09838e-05
-2.94172e-07
-2.07879e-05
-3.19863e-07
-2.05743e-05
-3.48285e-07
-2.0343e-05
-3.77865e-07
-2.00911e-05
-4.11313e-07
-1.98174e-05
-4.46631e-07
-1.95201e-05
-4.85403e-07
-1.91967e-05
-5.27776e-07
-1.88447e-05
-5.74405e-07
-1.84622e-05
-6.24549e-07
-1.80447e-05
-6.80916e-07
-1.75904e-05
-7.41358e-07
-1.70957e-05
-8.06911e-07
-1.65589e-05
-8.75855e-07
-1.5982e-05
-9.41713e-07
-1.537e-05
-9.98053e-07
-1.4735e-05
-1.03542e-06
-1.40972e-05
-1.03996e-06
-1.34762e-05
-1.01123e-06
-1.28833e-05
-9.64889e-07
-1.23098e-05
-9.33013e-07
-1.17167e-05
-9.65058e-07
-1.10285e-05
-1.12193e-06
-1.0123e-05
-1.48125e-06
-8.8121e-06
-2.15255e-06
-6.80074e-06
-3.31446e-06
-3.59296e-06
-5.30507e-06
1.38497e-06
-8.26203e-06
9.18734e-06
-1.29954e-05
2.20957e-05
-2.15901e-05
4.23205e-05
-3.39654e-05
7.29236e-05
-5.15924e-05
0.000110532
-6.34858e-05
-5.2508e-05
-3.85816e-05
3.59106e-09
-3.85831e-05
4.13599e-09
-3.85819e-05
-2.12323e-09
-3.85785e-05
-6.20601e-09
-3.85723e-05
-1.24113e-08
-3.85624e-05
-1.79979e-08
-3.85498e-05
-2.40452e-08
-3.85353e-05
-2.859e-08
-3.8517e-05
-3.55186e-08
-3.84949e-05
-4.26882e-08
-3.84686e-05
-4.98051e-08
-3.84394e-05
-5.76697e-08
-3.8405e-05
-6.60599e-08
-3.83667e-05
-7.49419e-08
-3.83224e-05
-8.56597e-08
-3.82731e-05
-9.56512e-08
-3.82178e-05
-1.08e-07
-3.81562e-05
-1.19947e-07
-3.80879e-05
-1.33251e-07
-3.80114e-05
-1.48851e-07
-3.79265e-05
-1.65393e-07
-3.7833e-05
-1.82794e-07
-3.77297e-05
-2.01852e-07
-3.76162e-05
-2.21762e-07
-3.74905e-05
-2.45111e-07
-3.73521e-05
-2.69875e-07
-3.72014e-05
-2.95152e-07
-3.70357e-05
-3.24194e-07
-3.68541e-05
-3.55548e-07
-3.66553e-05
-3.88634e-07
-3.6438e-05
-4.24792e-07
-3.62007e-05
-4.64146e-07
-3.59422e-05
-5.06528e-07
-3.56598e-05
-5.51918e-07
-3.53537e-05
-6.00362e-07
-3.50187e-05
-6.54946e-07
-3.46559e-05
-7.11106e-07
-3.42604e-05
-7.73438e-07
-3.38314e-05
-8.403e-07
-3.33647e-05
-9.13351e-07
-3.28577e-05
-9.92545e-07
-3.23066e-05
-1.07888e-06
-3.17076e-05
-1.17338e-06
-3.10543e-05
-1.27797e-06
-3.03436e-05
-1.39163e-06
-2.95689e-05
-1.5161e-06
-2.87252e-05
-1.65062e-06
-2.78093e-05
-1.79177e-06
-2.68233e-05
-1.92777e-06
-2.57782e-05
-2.04321e-06
-2.46935e-05
-2.12015e-06
-2.36014e-05
-2.132e-06
-2.25377e-05
-2.07503e-06
-2.15196e-05
-1.98299e-06
-2.05327e-05
-1.91989e-06
-1.95142e-05
-1.98365e-06
-1.83373e-05
-2.29885e-06
-1.67999e-05
-3.0186e-06
-1.45926e-05
-4.35985e-06
-1.12334e-05
-6.67371e-06
-5.91983e-06
-1.06186e-05
2.26018e-06
-1.6442e-05
1.49722e-05
-2.57074e-05
3.57951e-05
-4.2413e-05
6.8108e-05
-6.62782e-05
0.000116439
-9.99237e-05
0.000175596
-0.000122642
-0.000103124
-5.97825e-05
6.00799e-09
-5.97852e-05
6.95082e-09
-5.97822e-05
-5.25565e-09
-5.97749e-05
-1.34824e-08
-5.97644e-05
-2.30783e-08
-5.97502e-05
-3.2213e-08
-5.97304e-05
-4.388e-08
-5.97049e-05
-5.40879e-08
-5.96755e-05
-6.48796e-08
-5.96418e-05
-7.64776e-08
-5.96002e-05
-9.13906e-08
-5.95519e-05
-1.05974e-07
-5.94978e-05
-1.20247e-07
-5.94372e-05
-1.35542e-07
-5.93698e-05
-1.53088e-07
-5.92908e-05
-1.74637e-07
-5.92038e-05
-1.95088e-07
-5.91073e-05
-2.1643e-07
-5.89989e-05
-2.41658e-07
-5.88798e-05
-2.68051e-07
-5.87468e-05
-2.98443e-07
-5.85995e-05
-3.30038e-07
-5.84381e-05
-3.63336e-07
-5.82596e-05
-4.00269e-07
-5.80637e-05
-4.41058e-07
-5.78487e-05
-4.84941e-07
-5.76119e-05
-5.31909e-07
-5.73527e-05
-5.83467e-07
-5.70685e-05
-6.39741e-07
-5.67578e-05
-6.99433e-07
-5.64189e-05
-7.63693e-07
-5.60477e-05
-8.35426e-07
-5.56443e-05
-9.09962e-07
-5.52035e-05
-9.92687e-07
-5.47231e-05
-1.08085e-06
-5.42016e-05
-1.17645e-06
-5.36339e-05
-1.27887e-06
-5.30173e-05
-1.39008e-06
-5.23467e-05
-1.51101e-06
-5.16173e-05
-1.64274e-06
-5.08253e-05
-1.78465e-06
-4.99635e-05
-1.94067e-06
-4.90254e-05
-2.11153e-06
-4.80037e-05
-2.29975e-06
-4.68906e-05
-2.50473e-06
-4.56762e-05
-2.73053e-06
-4.43539e-05
-2.97294e-06
-4.29182e-05
-3.22749e-06
-4.13722e-05
-3.47384e-06
-3.97319e-05
-3.68356e-06
-3.80266e-05
-3.82548e-06
-3.63085e-05
-3.85009e-06
-3.46303e-05
-3.75322e-06
-3.30213e-05
-3.59199e-06
-3.14601e-05
-3.48113e-06
-2.98491e-05
-3.59473e-06
-2.79966e-05
-4.15133e-06
-2.55948e-05
-5.42041e-06
-2.21775e-05
-7.77717e-06
-1.70227e-05
-1.18285e-05
-8.94349e-06
-1.86978e-05
3.38194e-06
-2.87674e-05
2.23453e-05
-4.46708e-05
5.30457e-05
-7.31133e-05
0.000100121
-0.000113354
0.000169435
-0.000169238
0.000253563
-0.000206769
-0.000175713
-8.78711e-05
6.73311e-09
-8.78725e-05
8.49592e-09
-8.78687e-05
-9.25715e-09
-8.78586e-05
-2.35531e-08
-8.78425e-05
-3.92721e-08
-8.78179e-05
-5.68985e-08
-8.77885e-05
-7.32586e-08
-8.77521e-05
-9.04981e-08
-8.77082e-05
-1.08883e-07
-8.76549e-05
-1.29725e-07
-8.75942e-05
-1.52198e-07
-8.75237e-05
-1.76414e-07
-8.74437e-05
-2.00335e-07
-8.73527e-05
-2.26575e-07
-8.725e-05
-2.55766e-07
-8.7135e-05
-2.89717e-07
-8.70055e-05
-3.24571e-07
-8.68614e-05
-3.60552e-07
-8.6703e-05
-4.00172e-07
-8.65255e-05
-4.45592e-07
-8.63291e-05
-4.94828e-07
-8.61125e-05
-5.46671e-07
-8.58741e-05
-6.01758e-07
-8.56111e-05
-6.63288e-07
-8.5321e-05
-7.31187e-07
-8.50031e-05
-8.0292e-07
-8.46545e-05
-8.80589e-07
-8.42718e-05
-9.66185e-07
-8.38531e-05
-1.05846e-06
-8.3396e-05
-1.15653e-06
-8.28951e-05
-1.26471e-06
-8.23497e-05
-1.3808e-06
-8.17525e-05
-1.50724e-06
-8.11036e-05
-1.64161e-06
-8.03968e-05
-1.78772e-06
-7.96277e-05
-1.94562e-06
-7.87893e-05
-2.11731e-06
-7.78791e-05
-2.30033e-06
-7.68892e-05
-2.50102e-06
-7.58129e-05
-2.7191e-06
-7.46414e-05
-2.95614e-06
-7.3368e-05
-3.21419e-06
-7.19792e-05
-3.5003e-06
-7.04673e-05
-3.81169e-06
-6.88173e-05
-4.15485e-06
-6.70176e-05
-4.53019e-06
-6.50546e-05
-4.93601e-06
-6.29211e-05
-5.36102e-06
-6.06214e-05
-5.77363e-06
-5.81761e-05
-6.12882e-06
-5.56341e-05
-6.36757e-06
-5.30659e-05
-6.41825e-06
-5.05521e-05
-6.26707e-06
-4.81351e-05
-6.00906e-06
-4.57856e-05
-5.83059e-06
-4.33621e-05
-6.01831e-06
-4.05879e-05
-6.92556e-06
-3.70192e-05
-8.98909e-06
-3.19887e-05
-1.28077e-05
-2.44717e-05
-1.93456e-05
-1.28109e-05
-3.03586e-05
4.79733e-06
-4.63756e-05
3.15761e-05
-7.14495e-05
7.43316e-05
-0.000115869
0.000138951
-0.000177973
0.000232263
-0.00026255
0.000344177
-0.000318684
-0.000271912
-0.000124189
8.1344e-09
-0.000124192
1.15136e-08
-0.000124183
-1.79892e-08
-0.000124168
-3.92375e-08
-0.000124143
-6.44646e-08
-0.00012411
-8.91152e-08
-0.000124067
-1.16339e-07
-0.000124013
-1.44678e-07
-0.000123951
-1.71131e-07
-0.000123876
-2.04575e-07
-0.00012379
-2.38784e-07
-0.00012369
-2.76205e-07
-0.000123576
-3.14366e-07
-0.000123448
-3.54748e-07
-0.000123304
-3.99873e-07
-0.000123142
-4.50973e-07
-0.00012296
-5.06582e-07
-0.000122758
-5.62864e-07
-0.000122535
-6.23645e-07
-0.000122286
-6.94004e-07
-0.00012201
-7.71127e-07
-0.000121706
-8.50989e-07
-0.000121371
-9.36015e-07
-0.000121002
-1.03312e-06
-0.000120597
-1.13578e-06
-0.00012015
-1.24993e-06
-0.000119661
-1.36946e-06
-0.000119125
-1.5021e-06
-0.000118539
-1.6446e-06
-0.000117897
-1.79908e-06
-0.000117196
-1.96548e-06
-0.000116429
-2.14819e-06
-0.000115593
-2.3429e-06
-0.000114683
-2.55221e-06
-0.000113689
-2.78124e-06
-0.000112609
-3.02571e-06
-0.000111432
-3.29462e-06
-0.000110151
-3.58121e-06
-0.000108758
-3.89391e-06
-0.000107242
-4.23527e-06
-0.000105591
-4.60736e-06
-0.000103792
-5.01316e-06
-0.000101832
-5.46068e-06
-9.96907e-05
-5.95252e-06
-9.73531e-05
-6.49257e-06
-9.47981e-05
-7.08518e-06
-9.20063e-05
-7.72789e-06
-8.89665e-05
-8.4008e-06
-8.56846e-05
-9.05555e-06
-8.21911e-05
-9.62235e-06
-7.85454e-05
-1.00133e-05
-7.48535e-05
-1.01101e-05
-7.12269e-05
-9.89373e-06
-6.77281e-05
-9.50791e-06
-6.4317e-05
-9.2417e-06
-6.07999e-05
-9.53542e-06
-5.67868e-05
-1.09387e-05
-5.16632e-05
-1.41127e-05
-4.4508e-05
-1.9963e-05
-3.39213e-05
-2.99322e-05
-1.76833e-05
-4.65967e-05
6.55555e-06
-7.06144e-05
4.29306e-05
-0.000107825
0.000100076
-0.000173014
0.000185016
-0.000262914
0.000305002
-0.000382536
0.00044714
-0.000460821
-0.000393074
-0.000169582
8.06476e-09
-0.000169583
1.28621e-08
-0.000169573
-2.82463e-08
-0.00016955
-6.19249e-08
-0.000169516
-9.88258e-08
-0.000169468
-1.3735e-07
-0.000169409
-1.74453e-07
-0.000169339
-2.15592e-07
-0.000169254
-2.55604e-07
-0.000169155
-3.03995e-07
-0.000169037
-3.56143e-07
-0.000168903
-4.10718e-07
-0.000168751
-4.66176e-07
-0.000168582
-5.23562e-07
-0.000168389
-5.93732e-07
-0.00016817
-6.69452e-07
-0.00016793
-7.47135e-07
-0.00016766
-8.32131e-07
-0.000167363
-9.21017e-07
-0.00016703
-1.02657e-06
-0.000166664
-1.13725e-06
-0.00016626
-1.2556e-06
-0.000165816
-1.37969e-06
-0.000165325
-1.5238e-06
-0.000164784
-1.67712e-06
-0.000164193
-1.84151e-06
-0.00016354
-2.02189e-06
-0.000162829
-2.21383e-06
-0.000162049
-2.42429e-06
-0.000161194
-2.65378e-06
-0.000160261
-2.89832e-06
-0.000159242
-3.16786e-06
-0.000158129
-3.45561e-06
-0.000156913
-3.76865e-06
-0.00015559
-4.10369e-06
-0.000154144
-4.47174e-06
-0.000152573
-4.86628e-06
-0.000150859
-5.2946e-06
-0.000148993
-5.76029e-06
-0.000146958
-6.27067e-06
-0.000144741
-6.82439e-06
-0.00014232
-7.43417e-06
-0.000139674
-8.10638e-06
-0.000136782
-8.84444e-06
-0.000133614
-9.66067e-06
-0.000130144
-1.0556e-05
-0.000126341
-1.15302e-05
-0.000122188
-1.25546e-05
-0.000117688
-1.35549e-05
-0.000112878
-1.44325e-05
-0.000107843
-1.50487e-05
-0.000102721
-1.52323e-05
-9.76628e-05
-1.49516e-05
-9.27593e-05
-1.44114e-05
-8.796e-05
-1.40411e-05
-8.30009e-05
-1.44946e-05
-7.73554e-05
-1.65841e-05
-7.01907e-05
-2.12774e-05
-6.02717e-05
-2.9882e-05
-4.57432e-05
-4.44607e-05
-2.37311e-05
-6.86087e-05
8.70525e-06
-0.000103051
5.66497e-05
-0.000155769
0.000130599
-0.000246963
0.000238545
-0.000370859
0.000387604
-0.000531594
0.000562392
-0.000635609
-0.000541366
-0.00022395
7.59577e-09
-0.000223948
1.12525e-08
-0.000223932
-4.40081e-08
-0.000223905
-8.93806e-08
-0.000223859
-1.4489e-07
-0.000223801
-1.95177e-07
-0.000223726
-2.48995e-07
-0.000223636
-3.05985e-07
-0.000223528
-3.6407e-07
-0.000223402
-4.29583e-07
-0.000223254
-5.0375e-07
-0.000223086
-5.79463e-07
-0.000222893
-6.58937e-07
-0.000222678
-7.38944e-07
-0.000222438
-8.33835e-07
-0.000222164
-9.43015e-07
-0.000221857
-1.05401e-06
-0.00022152
-1.16976e-06
-0.000221144
-1.29611e-06
-0.000220731
-1.44056e-06
-0.000220268
-1.59951e-06
-0.000219762
-1.7623e-06
-0.000219199
-1.94275e-06
-0.000218584
-2.13801e-06
-0.000217907
-2.35456e-06
-0.000217162
-2.58648e-06
-0.000216347
-2.83705e-06
-0.000215451
-3.10975e-06
-0.000214469
-3.40665e-06
-0.000213397
-3.72557e-06
-0.000212223
-4.07259e-06
-0.000210939
-4.45165e-06
-0.000209536
-4.85828e-06
-0.000208007
-5.29752e-06
-0.000206335
-5.77603e-06
-0.000204513
-6.29387e-06
-0.000202524
-6.85554e-06
-0.000200355
-7.46377e-06
-0.000197986
-8.12873e-06
-0.000195403
-8.85424e-06
-0.000192577
-9.65064e-06
-0.000189488
-1.05231e-05
-0.000186102
-1.14923e-05
-0.000182388
-1.25589e-05
-0.000178306
-1.37426e-05
-0.000173816
-1.50457e-05
-0.000168877
-1.64695e-05
-0.000163456
-1.79756e-05
-0.000157552
-1.9459e-05
-0.000151209
-2.07755e-05
-0.000144525
-2.17326e-05
-0.000137679
-2.20776e-05
-0.000130871
-2.17601e-05
-0.000124222
-2.10603e-05
-0.00011767
-2.05934e-05
-0.000110868
-2.12963e-05
-0.00010312
-2.43327e-05
-9.33226e-05
-3.10744e-05
-7.98561e-05
-4.33486e-05
-6.03247e-05
-6.39921e-05
-3.11236e-05
-9.78099e-05
1.12911e-05
-0.000145465
7.29299e-05
-0.000217408
0.000166085
-0.000340118
0.000299572
-0.000504346
0.000479886
-0.000711909
0.000690044
-0.000845767
-0.000720284
-0.0002864
7.93118e-09
-0.000286399
1.09777e-08
-0.000286378
-6.49305e-08
-0.000286345
-1.22696e-07
-0.000286293
-1.96956e-07
-0.000286222
-2.66605e-07
-0.000286132
-3.38506e-07
-0.000286024
-4.13735e-07
-0.000285895
-4.93291e-07
-0.000285743
-5.82012e-07
-0.000285567
-6.8009e-07
-0.000285364
-7.82242e-07
-0.000285134
-8.88391e-07
-0.000284877
-9.96174e-07
-0.000284586
-1.12498e-06
-0.00028426
-1.2687e-06
-0.000283897
-1.4178e-06
-0.000283496
-1.57017e-06
-0.000283049
-1.74307e-06
-0.000282551
-1.93863e-06
-0.000282003
-2.14738e-06
-0.000281397
-2.36905e-06
-0.000280733
-2.60639e-06
-0.000279998
-2.8735e-06
-0.000279189
-3.16347e-06
-0.000278305
-3.4705e-06
-0.000277332
-3.80991e-06
-0.000276264
-4.17783e-06
-0.000275096
-4.5741e-06
-0.000273819
-5.00269e-06
-0.000272418
-5.47426e-06
-0.00027089
-5.97966e-06
-0.000269216
-6.53173e-06
-0.000267389
-7.12496e-06
-0.000265395
-7.77032e-06
-0.000263212
-8.47615e-06
-0.000260834
-9.23381e-06
-0.000258233
-1.00648e-05
-0.000255391
-1.09707e-05
-0.000252283
-1.19623e-05
-0.000248881
-1.30534e-05
-0.000245145
-1.42587e-05
-0.000241045
-1.55921e-05
-0.000236527
-1.70773e-05
-0.000231544
-1.87254e-05
-0.000226036
-2.05539e-05
-0.000219942
-2.25634e-05
-0.000213212
-2.47055e-05
-0.000205837
-2.68345e-05
-0.000197848
-2.87647e-05
-0.00018936
-3.02201e-05
-0.000180587
-3.08507e-05
-0.000171775
-3.05722e-05
-0.000163073
-2.97619e-05
-0.000154408
-2.92591e-05
-0.000145332
-3.03722e-05
-0.000134942
-3.4723e-05
-0.000121807
-4.42092e-05
-0.000103847
-6.13085e-05
-7.80456e-05
-8.97937e-05
-4.00164e-05
-0.000135839
1.43501e-05
-0.000199832
9.18918e-05
-0.000294949
0.000206555
-0.000454781
0.000367934
-0.000665726
0.000581545
-0.000925519
0.000829969
-0.00109419
0.00104409
-0.000934414
-0.000546045
-0.000356176
9.8372e-09
-0.000356178
1.23191e-08
-0.00035616
-8.29676e-08
-0.000356116
-1.6606e-07
-0.000356057
-2.56435e-07
-0.000355976
-3.47652e-07
-0.000355874
-4.39874e-07
-0.00035575
-5.37658e-07
-0.000355603
-6.40959e-07
-0.000355431
-7.5434e-07
-0.000355226
-8.8498e-07
-0.000354993
-1.01514e-06
-0.000354732
-1.14877e-06
-0.000354438
-1.29029e-06
-0.000354103
-1.46069e-06
-0.000353728
-1.64286e-06
-0.000353311
-1.83563e-06
-0.000352847
-2.03367e-06
-0.000352335
-2.2557e-06
-0.000351766
-2.5067e-06
-0.000351136
-2.7778e-06
-0.000350441
-3.06422e-06
-0.000349678
-3.3692e-06
-0.000348836
-3.71529e-06
-0.000347913
-4.08699e-06
-0.000346895
-4.48881e-06
-0.000345782
-4.92249e-06
-0.000344562
-5.39741e-06
-0.000343226
-5.91025e-06
-0.000341761
-6.46764e-06
-0.000340161
-7.07484e-06
-0.000338409
-7.73176e-06
-0.000336496
-8.4447e-06
-0.000334405
-9.21596e-06
-0.000332119
-1.0056e-05
-0.000329627
-1.09686e-05
-0.000326899
-1.1962e-05
-0.000323919
-1.30448e-05
-0.00032066
-1.42293e-05
-0.000317091
-1.55315e-05
-0.000313178
-1.69668e-05
-0.000308877
-1.85593e-05
-0.000304139
-2.03304e-05
-0.000298908
-2.23082e-05
-0.000293115
-2.45183e-05
-0.00028668
-2.69893e-05
-0.000279522
-2.97214e-05
-0.000271569
-3.26581e-05
-0.00026278
-3.56236e-05
-0.000253181
-3.8364e-05
-0.000242882
-4.05189e-05
-0.000232117
-4.16152e-05
-0.000221162
-4.15273e-05
-0.000210191
-4.07327e-05
-0.0001991
-4.03507e-05
-0.000187317
-4.21546e-05
-0.000173689
-4.83514e-05
-0.000156392
-6.15062e-05
-0.00013281
-8.48909e-05
-9.92452e-05
-0.000123358
-5.05324e-05
-0.000184552
1.79085e-05
-0.000268273
0.000113571
-0.000390612
0.000251855
-0.000593065
0.000443248
-0.000857119
0.000692124
-0.00117439
0.000981528
-0.0013836
0.00123768
-0.00119058
0.00139216
-0.00070052
-0.000196879
-0.000433453
1.17166e-08
-0.000433461
2.05216e-08
-0.000433439
-1.05288e-07
-0.000433401
-2.03338e-07
-0.000433334
-3.24236e-07
-0.000433246
-4.34955e-07
-0.000433132
-5.54045e-07
-0.000432995
-6.74527e-07
-0.00043283
-8.06442e-07
-0.000432636
-9.48313e-07
-0.000432409
-1.11157e-06
-0.000432148
-1.27629e-06
-0.000431852
-1.44469e-06
-0.00043152
-1.62256e-06
-0.00043115
-1.83106e-06
-0.000430729
-2.06397e-06
-0.000430258
-2.30601e-06
-0.000429739
-2.55266e-06
-0.000429162
-2.83279e-06
-0.000428521
-3.14803e-06
-0.000427815
-3.48391e-06
-0.000427035
-3.84366e-06
-0.000426178
-4.22656e-06
-0.000425237
-4.65687e-06
-0.000424198
-5.12509e-06
-0.00042306
-5.62714e-06
-0.000421811
-6.17131e-06
-0.000420446
-6.76317e-06
-0.000418948
-7.40799e-06
-0.000417311
-8.10466e-06
-0.000415524
-8.86185e-06
-0.000413568
-9.68766e-06
-0.000411431
-1.05817e-05
-0.000409097
-1.15496e-05
-0.000406552
-1.26021e-05
-0.000403769
-1.37508e-05
-0.000400733
-1.49983e-05
-0.000397416
-1.63622e-05
-0.000393789
-1.78564e-05
-0.000389813
-1.95067e-05
-0.000385452
-2.1328e-05
-0.000380662
-2.335e-05
-0.000375377
-2.56147e-05
-0.00036953
-2.8156e-05
-0.000363036
-3.10124e-05
-0.0003558
-3.42246e-05
-0.000347712
-3.78092e-05
-0.00033867
-4.17007e-05
-0.000328612
-4.5681e-05
-0.000317541
-4.94357e-05
-0.000305542
-5.25177e-05
-0.000292853
-5.4304e-05
-0.000279753
-5.46277e-05
-0.000266407
-5.40789e-05
-0.000252646
-5.41115e-05
-0.000237736
-5.70649e-05
-0.00022021
-6.58775e-05
-0.000197785
-8.3931e-05
-0.000167243
-0.000115433
-0.000124185
-0.000166416
-6.27417e-05
-0.000245995
2.19793e-05
-0.000352994
0.000137901
-0.000506534
0.000301711
-0.000756874
0.000524971
-0.00108038
0.000811233
-0.00146066
0.00114367
-0.00171603
0.00145001
-0.00149693
0.00164142
-0.000891926
0.00169149
-0.000246942
0.000293645
-0.00051936
2.43673e-08
-0.000519371
3.2289e-08
-0.000519355
-1.21538e-07
-0.000519312
-2.46197e-07
-0.000519248
-3.88804e-07
-0.000519155
-5.28013e-07
-0.000519031
-6.78066e-07
-0.000518879
-8.26503e-07
-0.000518701
-9.84505e-07
-0.000518486
-1.1626e-06
-0.000518237
-1.36069e-06
-0.000517945
-1.56827e-06
-0.000517618
-1.77159e-06
-0.000517251
-1.98956e-06
-0.000516836
-2.24607e-06
-0.000516369
-2.53181e-06
-0.000515847
-2.82786e-06
-0.000515266
-3.13345e-06
-0.000514626
-3.47256e-06
-0.000513917
-3.85761e-06
-0.00051313
-4.27007e-06
-0.000512262
-4.71242e-06
-0.00051131
-5.17851e-06
-0.000510264
-5.70261e-06
-0.00050911
-6.27867e-06
-0.000507846
-6.89202e-06
-0.000506462
-7.55448e-06
-0.000504947
-8.27876e-06
-0.000503292
-9.06298e-06
-0.000501483
-9.9138e-06
-0.0004995
-1.0845e-05
-0.000497338
-1.18495e-05
-0.000494983
-1.29363e-05
-0.000492412
-1.41212e-05
-0.000489605
-1.54085e-05
-0.000486546
-1.681e-05
-0.00048321
-1.83343e-05
-0.000479568
-2.00044e-05
-0.000475592
-2.18324e-05
-0.000471242
-2.38565e-05
-0.000466474
-2.60962e-05
-0.000461233
-2.85912e-05
-0.000455452
-3.13953e-05
-0.000449055
-3.4553e-05
-0.000441944
-3.81238e-05
-0.000433998
-4.217e-05
-0.000425091
-4.6717e-05
-0.000415096
-5.16953e-05
-0.000403919
-5.68579e-05
-0.000391525
-6.18302e-05
-0.00037799
-6.6053e-05
-0.000363515
-6.87789e-05
-0.000348351
-6.97916e-05
-0.000332601
-6.98286e-05
-0.000315976
-7.07368e-05
-0.000297497
-7.55433e-05
-0.000275315
-8.80603e-05
-0.000246605
-0.00011264
-0.000207517
-0.000154521
-0.000153004
-0.000220929
-7.66449e-05
-0.000322354
2.6564e-05
-0.000456203
0.000164748
-0.000644718
0.000355814
-0.00094794
0.000612657
-0.00133722
0.000938695
-0.0017867
0.0013158
-0.00209313
0.00168119
-0.00186233
0.00191794
-0.00112868
0.0019836
-0.000312595
0.000355979
-0.000615629
3.96694e-08
-0.000615649
5.22356e-08
-0.000615642
-1.28992e-07
-0.000615603
-2.84517e-07
-0.000615537
-4.55386e-07
-0.000615436
-6.28572e-07
-0.000615307
-8.0779e-07
-0.000615145
-9.8841e-07
-0.000614947
-1.18196e-06
-0.000614715
-1.3948e-06
-0.000614438
-1.63814e-06
-0.000614123
-1.88247e-06
-0.000613762
-2.13335e-06
-0.000613354
-2.39679e-06
-0.000612896
-2.70502e-06
-0.000612376
-3.05089e-06
-0.000611799
-3.40529e-06
-0.00061116
-3.77215e-06
-0.000610449
-4.18349e-06
-0.000609662
-4.64474e-06
-0.000608786
-5.14612e-06
-0.000607831
-5.66814e-06
-0.000606771
-6.23788e-06
-0.000605607
-6.86669e-06
-0.000604333
-7.55327e-06
-0.000602938
-8.28714e-06
-0.000601407
-9.08518e-06
-0.000599734
-9.95149e-06
-0.000597903
-1.08947e-05
-0.000595905
-1.19108e-05
-0.000593729
-1.30213e-05
-0.000591349
-1.42293e-05
-0.000588756
-1.55302e-05
-0.000585936
-1.69404e-05
-0.000582862
-1.84831e-05
-0.000579514
-2.01581e-05
-0.000575869
-2.19789e-05
-0.000571899
-2.39746e-05
-0.000567569
-2.6163e-05
-0.00056284
-2.85852e-05
-0.000557665
-3.12712e-05
-0.000551987
-3.42697e-05
-0.00054573
-3.76518e-05
-0.000538807
-4.14766e-05
-0.000531107
-4.58232e-05
-0.000522503
-5.0774e-05
-0.000512839
-5.63816e-05
-0.000501966
-6.25681e-05
-0.000489766
-6.90584e-05
-0.00047618
-7.54158e-05
-0.000461244
-8.09885e-05
-0.000445124
-8.48993e-05
-0.000427994
-8.69221e-05
-0.000409827
-8.79952e-05
-0.000390115
-9.04494e-05
-0.00036754
-9.81182e-05
-0.000339755
-0.000115845
-0.000303342
-0.000149054
-0.000253839
-0.000204024
-0.000185692
-0.000289077
-9.21692e-05
-0.000415877
3.16567e-05
-0.000580028
0.000193959
-0.00080702
0.000414008
-0.00116799
0.000706352
-0.00162957
0.00107518
-0.00215552
0.00149941
-0.00251736
0.0019306
-0.00229353
0.00221946
-0.00141753
0.00230732
-0.000400442
0.000408448
-0.000724358
7.12967e-08
-0.000724395
8.93981e-08
-0.000724391
-1.32765e-07
-0.000724359
-3.165e-07
-0.000724291
-5.23575e-07
-0.000724189
-7.304e-07
-0.000724052
-9.44647e-07
-0.000723879
-1.16203e-06
-0.000723668
-1.39224e-06
-0.000723411
-1.65191e-06
-0.000723115
-1.93475e-06
-0.000722763
-2.23367e-06
-0.00072237
-2.52646e-06
-0.000721924
-2.84323e-06
-0.000721416
-3.21247e-06
-0.000720847
-3.62077e-06
-0.000720206
-4.0455e-06
-0.000719496
-4.483e-06
-0.000718711
-4.96824e-06
-0.000717837
-5.51808e-06
-0.000716871
-6.11287e-06
-0.00071581
-6.72898e-06
-0.000714644
-7.40375e-06
-0.000713358
-8.15225e-06
-0.000711947
-8.96425e-06
-0.000710401
-9.83342e-06
-0.000708712
-1.07742e-05
-0.000706863
-1.1801e-05
-0.000704847
-1.29107e-05
-0.000702644
-1.41136e-05
-0.000700245
-1.54204e-05
-0.000697631
-1.68431e-05
-0.000694785
-1.83764e-05
-0.000691689
-2.0036e-05
-0.000688324
-2.18486e-05
-0.000684666
-2.38157e-05
-0.000680691
-2.59537e-05
-0.000676369
-2.82965e-05
-0.000671666
-3.08668e-05
-0.000666538
-3.37129e-05
-0.000660941
-3.68677e-05
-0.000654804
-4.04068e-05
-0.000648055
-4.44007e-05
-0.000640601
-4.89316e-05
-0.000632316
-5.41078e-05
-0.000623053
-6.00368e-05
-0.000612645
-6.67895e-05
-0.000600918
-7.42953e-05
-0.000587742
-8.22339e-05
-0.000573028
-9.01301e-05
-0.000556779
-9.72377e-05
-0.000539099
-0.000102579
-0.000520044
-0.000105978
-0.000499372
-0.000108666
-0.000476238
-0.000113584
-0.000448826
-0.000125531
-0.000414184
-0.000150486
-0.000368281
-0.000194957
-0.00030618
-0.000266125
-0.000222079
-0.000373178
-0.000109184
-0.000528771
3.72521e-05
-0.000726465
0.000225457
-0.000995224
0.000476481
-0.00141901
0.000806922
-0.00196001
0.0012226
-0.0025712
0.00169882
-0.00299358
0.00219931
-0.00279402
0.00254374
-0.00176196
0.00266158
-0.000518276
0.000438333
-0.000847898
1.14705e-07
-0.000847953
1.44019e-07
-0.00084796
-1.25906e-07
-0.000847936
-3.40061e-07
-0.000847874
-5.86246e-07
-0.000847771
-8.32741e-07
-0.000847629
-1.08682e-06
-0.000847442
-1.34943e-06
-0.000847216
-1.61833e-06
-0.000846946
-1.92186e-06
-0.000846616
-2.26495e-06
-0.000846239
-2.61051e-06
-0.000845803
-2.96248e-06
-0.000845309
-3.33691e-06
-0.000844755
-3.76693e-06
-0.000844125
-4.25054e-06
-0.00084342
-4.75086e-06
-0.000842638
-5.26446e-06
-0.000841771
-5.83586e-06
-0.000840805
-6.48366e-06
-0.000839739
-7.17895e-06
-0.000838562
-7.90587e-06
-0.00083727
-8.69536e-06
-0.000835852
-9.57025e-06
-0.000834293
-1.05242e-05
-0.000832583
-1.15426e-05
-0.000830719
-1.26385e-05
-0.00082868
-1.38397e-05
-0.000826455
-1.51363e-05
-0.000824031
-1.65378e-05
-0.000821388
-1.80629e-05
-0.000818513
-1.97181e-05
-0.00081539
-2.14997e-05
-0.000811997
-2.34292e-05
-0.000808313
-2.55327e-05
-0.000804319
-2.78092e-05
-0.000799979
-3.02939e-05
-0.000795276
-3.29992e-05
-0.000790166
-3.5977e-05
-0.000784609
-3.92696e-05
-0.000778553
-4.2924e-05
-0.000771933
-4.70269e-05
-0.000764663
-5.16708e-05
-0.000756641
-5.69536e-05
-0.00074774
-6.3009e-05
-0.000737792
-6.99851e-05
-0.000726617
-7.7964e-05
-0.000714025
-8.68872e-05
-0.000699864
-9.63952e-05
-0.000684032
-0.000105962
-0.000666491
-0.000114779
-0.000647259
-0.000121811
-0.000626223
-0.000127014
-0.000602803
-0.000132086
-0.000575647
-0.00014074
-0.000542276
-0.000158901
-0.000499051
-0.000193712
-0.000441432
-0.000252576
-0.000364292
-0.000343264
-0.000261894
-0.000475577
-0.000127558
-0.000663108
4.33562e-05
-0.000897378
0.000259355
-0.00121122
0.000543938
-0.0017036
0.000916133
-0.0023322
0.00138401
-0.00303908
0.0019197
-0.00352927
0.00249079
-0.00336512
0.00289089
-0.00216206
0.00304677
-0.000674152
0.000433873
-0.000988858
1.67855e-07
-0.000988935
2.20528e-07
-0.000988962
-9.88727e-08
-0.00098895
-3.51609e-07
-0.000988893
-6.43122e-07
-0.000988791
-9.34689e-07
-0.000988644
-1.23445e-06
-0.000988455
-1.53762e-06
-0.000988212
-1.86125e-06
-0.000987918
-2.21664e-06
-0.00098757
-2.61256e-06
-0.000987153
-3.02811e-06
-0.000986683
-3.43176e-06
-0.000986148
-3.87233e-06
-0.000985537
-4.37802e-06
-0.000984845
-4.94238e-06
-0.000984071
-5.52443e-06
-0.000983212
-6.12422e-06
-0.000982253
-6.79482e-06
-0.000981192
-7.54427e-06
-0.000980014
-8.35721e-06
-0.000978715
-9.20465e-06
-0.000977291
-1.0119e-05
-0.000975724
-1.11381e-05
-0.000974002
-1.22462e-05
-0.000972118
-1.34263e-05
-0.00097006
-1.46965e-05
-0.000967813
-1.6087e-05
-0.000965362
-1.7587e-05
-0.000962692
-1.92079e-05
-0.000959787
-2.09682e-05
-0.000956632
-2.28722e-05
-0.000953203
-2.49294e-05
-0.000949482
-2.71504e-05
-0.000945454
-2.95602e-05
-0.000941083
-3.21802e-05
-0.000936354
-3.50228e-05