/*--------------------------------*- C++ -*----------------------------------*\
| =========                 |                                                 |
| \\      /  F ield         | OpenFOAM: The Open Source CFD Toolbox           |
|  \\    /   O peration     | Version:  2412                                  |
|   \\  /    A nd           | Website:  www.openfoam.com                      |
|    \\/     M anipulation  |                                                 |
\*---------------------------------------------------------------------------*/
FoamFile
{
    version     2.0;
    format      ascii;
    arch        "LSB;label=32;scalar=64";
    class       volScalarField;
    location    "80";
    object      nut;
}
// * * * * * * * * * * * * * * * * * * * * * * * * * * * * * * * * * * * * * //

dimensions      [0 2 -1 0 0 0 0];

internalField   nonuniform List<scalar> 
29601
(
3.41431e-12
5.81161e-12
1.11468e-12
1.90549e-13
8.07514e-13
7.54135e-13
8.04677e-12
1.96282e-11
2.00383e-11
1.52354e-11
1.26873e-11
1.14726e-11
1.09708e-11
1.10585e-11
1.15178e-11
1.19102e-11
1.20307e-11
1.19684e-11
1.17442e-11
1.14986e-11
1.13749e-11
1.13712e-11
1.14542e-11
1.1559e-11
1.16327e-11
1.16812e-11
1.17234e-11
1.17823e-11
1.18598e-11
1.19467e-11
1.20356e-11
1.21248e-11
1.22174e-11
1.23147e-11
1.24177e-11
1.25236e-11
1.26332e-11
1.27463e-11
1.28629e-11
1.29821e-11
1.31045e-11
1.32299e-11
1.33581e-11
1.34894e-11
1.36219e-11
1.37578e-11
1.38949e-11
1.40354e-11
1.41759e-11
1.43179e-11
1.44625e-11
1.46084e-11
1.47557e-11
1.4905e-11
1.5054e-11
1.52048e-11
1.53576e-11
1.5511e-11
1.56656e-11
1.58201e-11
1.59772e-11
1.6136e-11
1.62963e-11
1.64569e-11
1.66209e-11
1.67875e-11
1.69574e-11
1.7131e-11
1.73084e-11
1.74922e-11
1.76832e-11
1.78817e-11
1.8092e-11
1.83155e-11
1.85557e-11
1.88177e-11
1.91022e-11
1.9412e-11
1.97473e-11
2.01074e-11
2.04861e-11
2.08734e-11
2.12543e-11
2.16164e-11
2.19397e-11
2.22017e-11
2.23546e-11
2.22811e-11
2.1709e-11
2.02248e-11
1.79714e-11
1.64935e-11
1.6308e-11
1.6518e-11
1.67287e-11
1.68961e-11
1.70367e-11
1.71666e-11
1.72923e-11
1.74173e-11
1.75426e-11
1.76689e-11
1.77956e-11
1.7923e-11
1.80511e-11
1.81796e-11
1.83079e-11
1.84341e-11
1.85599e-11
1.86843e-11
1.88066e-11
1.89283e-11
1.90479e-11
1.91648e-11
1.92774e-11
1.93864e-11
1.94911e-11
1.95901e-11
1.96838e-11
1.97717e-11
1.98518e-11
1.99246e-11
1.99897e-11
2.0047e-11
2.00971e-11
2.01387e-11
2.01693e-11
2.01913e-11
2.02073e-11
2.0214e-11
2.02133e-11
2.02133e-11
2.02179e-11
2.02316e-11
2.02633e-11
2.03518e-11
2.05731e-11
2.10248e-11
2.17631e-11
2.27249e-11
2.36191e-11
3.66898e-11
3.71515e-11
3.70188e-11
3.73882e-11
3.64891e-11
3.1802e-11
1.72382e-11
3.03596e-12
2.36169e-15
3.19614e-12
1.78254e-11
3.24253e-11
3.70241e-11
3.78906e-11
3.74454e-11
3.73449e-11
2.55068e-11
2.28181e-11
2.12682e-11
2.00376e-11
1.92665e-11
1.89222e-11
1.88394e-11
1.88682e-11
1.89318e-11
1.90034e-11
1.90825e-11
1.91581e-11
1.92313e-11
1.92924e-11
1.9342e-11
1.93776e-11
1.94026e-11
1.9411e-11
1.94096e-11
1.93963e-11
1.93741e-11
1.93416e-11
1.93001e-11
1.92494e-11
1.91914e-11
1.91265e-11
1.90547e-11
1.89775e-11
1.88956e-11
1.88086e-11
1.87178e-11
1.86241e-11
1.85289e-11
1.84305e-11
1.83297e-11
1.82274e-11
1.81223e-11
1.80161e-11
1.79096e-11
1.78029e-11
1.76962e-11
1.75885e-11
1.74804e-11
1.7371e-11
1.72594e-11
1.71435e-11
1.70202e-11
1.68828e-11
1.67267e-11
1.65543e-11
1.63972e-11
1.63547e-11
1.66088e-11
1.72918e-11
1.82632e-11
1.92013e-11
1.9895e-11
2.03163e-11
2.051e-11
2.05474e-11
2.04781e-11
2.03412e-11
2.01595e-11
1.99526e-11
1.97309e-11
1.9502e-11
1.92711e-11
1.90418e-11
1.88183e-11
1.86e-11
1.8387e-11
1.81803e-11
1.79777e-11
1.77799e-11
1.75873e-11
1.73978e-11
1.72115e-11
1.70282e-11
1.68475e-11
1.66702e-11
1.64933e-11
1.63174e-11
1.61436e-11
1.59722e-11
1.58011e-11
1.56307e-11
1.54612e-11
1.52938e-11
1.51282e-11
1.49625e-11
1.47988e-11
1.46367e-11
1.44761e-11
1.43182e-11
1.41609e-11
1.40054e-11
1.38515e-11
1.37007e-11
1.35518e-11
1.34053e-11
1.32615e-11
1.31207e-11
1.29829e-11
1.28484e-11
1.27168e-11
1.25882e-11
1.24642e-11
1.23431e-11
1.22256e-11
1.21139e-11
1.20071e-11
1.1904e-11
1.1802e-11
1.17022e-11
1.16126e-11
1.15415e-11
1.14875e-11
1.14281e-11
1.13451e-11
1.12327e-11
1.11425e-11
1.1137e-11
1.12485e-11
1.14792e-11
1.16881e-11
1.17409e-11
1.16181e-11
1.12354e-11
1.07903e-11
1.07078e-11
1.11957e-11
1.23756e-11
1.48374e-11
1.95078e-11
1.91741e-11
7.9767e-12
7.68819e-13
8.84208e-13
1.76631e-13
9.75624e-13
6.06212e-12
3.70797e-12
2.87556e-10
4.65321e-10
1.13182e-10
1.93424e-11
6.93247e-11
7.06506e-11
8.04848e-10
1.7915e-09
1.79993e-09
1.41567e-09
1.20053e-09
1.09626e-09
1.05514e-09
1.06491e-09
1.10503e-09
1.13823e-09
1.148e-09
1.14168e-09
1.12171e-09
1.10051e-09
1.0903e-09
1.09069e-09
1.09854e-09
1.10815e-09
1.11503e-09
1.11975e-09
1.12402e-09
1.12984e-09
1.13735e-09
1.14569e-09
1.1542e-09
1.16281e-09
1.17174e-09
1.18116e-09
1.19107e-09
1.20129e-09
1.21188e-09
1.22277e-09
1.23401e-09
1.24554e-09
1.25736e-09
1.26946e-09
1.28184e-09
1.29451e-09
1.3073e-09
1.32041e-09
1.33364e-09
1.34716e-09
1.36074e-09
1.3745e-09
1.38843e-09
1.4025e-09
1.41667e-09
1.43102e-09
1.44539e-09
1.45989e-09
1.47453e-09
1.48926e-09
1.50416e-09
1.51902e-09
1.5341e-09
1.54931e-09
1.56474e-09
1.58031e-09
1.59617e-09
1.61232e-09
1.62886e-09
1.6459e-09
1.6635e-09
1.68186e-09
1.70117e-09
1.72167e-09
1.74381e-09
1.76792e-09
1.79447e-09
1.82413e-09
1.85727e-09
1.89438e-09
1.93559e-09
1.98085e-09
2.02926e-09
2.07946e-09
2.12903e-09
2.17538e-09
2.21487e-09
2.24295e-09
2.25096e-09
2.22041e-09
2.11396e-09
1.88326e-09
1.56586e-09
1.36455e-09
1.32923e-09
1.34539e-09
1.36319e-09
1.37603e-09
1.38555e-09
1.39354e-09
1.40082e-09
1.40784e-09
1.41478e-09
1.42172e-09
1.42861e-09
1.43552e-09
1.44241e-09
1.44929e-09
1.45609e-09
1.46269e-09
1.46925e-09
1.47566e-09
1.48187e-09
1.48803e-09
1.49403e-09
1.49985e-09
1.50536e-09
1.51068e-09
1.51571e-09
1.5204e-09
1.52476e-09
1.52879e-09
1.53231e-09
1.53545e-09
1.53815e-09
1.54041e-09
1.54223e-09
1.54357e-09
1.54426e-09
1.54446e-09
1.54434e-09
1.5436e-09
1.54235e-09
1.5411e-09
1.54005e-09
1.53943e-09
1.53954e-09
1.5425e-09
1.55323e-09
1.57928e-09
1.62812e-09
1.70162e-09
1.7772e-09
3.44922e-09
3.50696e-09
3.46628e-09
3.44746e-09
3.28788e-09
2.7592e-09
1.40358e-09
2.45246e-10
2.2605e-13
2.57247e-10
1.45041e-09
2.81286e-09
3.33635e-09
3.49423e-09
3.50746e-09
3.52295e-09
2.00444e-09
1.71696e-09
1.5959e-09
1.51426e-09
1.4697e-09
1.45389e-09
1.45366e-09
1.45907e-09
1.46575e-09
1.47245e-09
1.47936e-09
1.48568e-09
1.4917e-09
1.49678e-09
1.50102e-09
1.50429e-09
1.50694e-09
1.50851e-09
1.50953e-09
1.50977e-09
1.50952e-09
1.50866e-09
1.5073e-09
1.50537e-09
1.50299e-09
1.50021e-09
1.49701e-09
1.49347e-09
1.48968e-09
1.48554e-09
1.48118e-09
1.47661e-09
1.47195e-09
1.46705e-09
1.46193e-09
1.45673e-09
1.45129e-09
1.44573e-09
1.44014e-09
1.43447e-09
1.42877e-09
1.42292e-09
1.41696e-09
1.41078e-09
1.40423e-09
1.39701e-09
1.38876e-09
1.37876e-09
1.36649e-09
1.35257e-09
1.34127e-09
1.34507e-09
1.38645e-09
1.48277e-09
1.61907e-09
1.75543e-09
1.86229e-09
1.9334e-09
1.97279e-09
1.98953e-09
1.98996e-09
1.98004e-09
1.96302e-09
1.94195e-09
1.91839e-09
1.89373e-09
1.8687e-09
1.84399e-09
1.81994e-09
1.79665e-09
1.7742e-09
1.75263e-09
1.73179e-09
1.71165e-09
1.69215e-09
1.67315e-09
1.65464e-09
1.63656e-09
1.61881e-09
1.60139e-09
1.58417e-09
1.56717e-09
1.55036e-09
1.53379e-09
1.51723e-09
1.50083e-09
1.48457e-09
1.46849e-09
1.45254e-09
1.43664e-09
1.42093e-09
1.40535e-09
1.38992e-09
1.37471e-09
1.35958e-09
1.34468e-09
1.32991e-09
1.31543e-09
1.30115e-09
1.28708e-09
1.27329e-09
1.25978e-09
1.24655e-09
1.23362e-09
1.221e-09
1.20869e-09
1.19678e-09
1.18516e-09
1.1739e-09
1.16315e-09
1.15291e-09
1.143e-09
1.13327e-09
1.12372e-09
1.11507e-09
1.10812e-09
1.10274e-09
1.09701e-09
1.08925e-09
1.07891e-09
1.07038e-09
1.06916e-09
1.07829e-09
1.09812e-09
1.11675e-09
1.12219e-09
1.11222e-09
1.07973e-09
1.04074e-09
1.03145e-09
1.07149e-09
1.17295e-09
1.38124e-09
1.75557e-09
1.75253e-09
7.97538e-10
7.23362e-11
7.5786e-11
1.79358e-11
1.00492e-10
4.85237e-10
3.06272e-10
2.51004e-09
3.57473e-09
1.19006e-09
2.21815e-10
5.80334e-10
7.67683e-10
8.34169e-09
1.61725e-08
1.59688e-08
1.31773e-08
1.14811e-08
1.06438e-08
1.03335e-08
1.04416e-08
1.07779e-08
1.10433e-08
1.11141e-08
1.10495e-08
1.08795e-08
1.0708e-08
1.0631e-08
1.06448e-08
1.072e-08
1.08078e-08
1.08726e-08
1.09201e-08
1.09655e-08
1.1025e-08
1.10993e-08
1.11808e-08
1.12644e-08
1.13493e-08
1.14375e-08
1.15306e-08
1.16284e-08
1.17293e-08
1.18338e-08
1.19413e-08
1.20523e-08
1.21662e-08
1.22831e-08
1.24028e-08
1.25252e-08
1.26502e-08
1.27767e-08
1.29063e-08
1.3037e-08
1.31704e-08
1.33046e-08
1.34407e-08
1.35782e-08
1.37169e-08
1.38567e-08
1.39978e-08
1.41397e-08
1.42825e-08
1.44263e-08
1.45709e-08
1.47174e-08
1.48638e-08
1.5012e-08
1.51613e-08
1.53128e-08
1.54663e-08
1.56224e-08
1.57816e-08
1.59453e-08
1.61145e-08
1.629e-08
1.64741e-08
1.66695e-08
1.68791e-08
1.71076e-08
1.73595e-08
1.76404e-08
1.79576e-08
1.83163e-08
1.87224e-08
1.91778e-08
1.96815e-08
2.02222e-08
2.07839e-08
2.13373e-08
2.18498e-08
2.2277e-08
2.25619e-08
2.25999e-08
2.21709e-08
2.08405e-08
1.80606e-08
1.43254e-08
1.1989e-08
1.15221e-08
1.16375e-08
1.1791e-08
1.18998e-08
1.19762e-08
1.20361e-08
1.2088e-08
1.2137e-08
1.21851e-08
1.22329e-08
1.22804e-08
1.23281e-08
1.23756e-08
1.24233e-08
1.24699e-08
1.25158e-08
1.25613e-08
1.26055e-08
1.26488e-08
1.26918e-08
1.27337e-08
1.27744e-08
1.28135e-08
1.28509e-08
1.28863e-08
1.29192e-08
1.29498e-08
1.29779e-08
1.30026e-08
1.30243e-08
1.30429e-08
1.30578e-08
1.30691e-08
1.30773e-08
1.30799e-08
1.30794e-08
1.30759e-08
1.30678e-08
1.30571e-08
1.30458e-08
1.30367e-08
1.30327e-08
1.30363e-08
1.30671e-08
1.31684e-08
1.34038e-08
1.38331e-08
1.44837e-08
1.52062e-08
3.29894e-08
3.33363e-08
3.24782e-08
3.14515e-08
2.88049e-08
2.26896e-08
1.05739e-08
1.85682e-09
2.20614e-12
1.93875e-09
1.09149e-08
2.31227e-08
2.92322e-08
3.18842e-08
3.28808e-08
3.35131e-08
1.77395e-08
1.46616e-08
1.35804e-08
1.28758e-08
1.2483e-08
1.23376e-08
1.23296e-08
1.23729e-08
1.24288e-08
1.24855e-08
1.2545e-08
1.26e-08
1.26518e-08
1.26969e-08
1.27356e-08
1.27658e-08
1.27917e-08
1.28084e-08
1.28215e-08
1.2828e-08
1.28304e-08
1.28282e-08
1.2822e-08
1.28118e-08
1.27983e-08
1.27815e-08
1.27618e-08
1.27395e-08
1.2715e-08
1.26885e-08
1.26605e-08
1.26309e-08
1.26005e-08
1.25689e-08
1.25354e-08
1.25011e-08
1.24657e-08
1.24289e-08
1.2392e-08
1.23544e-08
1.23164e-08
1.22773e-08
1.22366e-08
1.21938e-08
1.21471e-08
1.20931e-08
1.2028e-08
1.19459e-08
1.18427e-08
1.17278e-08
1.16507e-08
1.17473e-08
1.22619e-08
1.33947e-08
1.49965e-08
1.66186e-08
1.79108e-08
1.87912e-08
1.93e-08
1.95419e-08
1.95891e-08
1.95127e-08
1.93507e-08
1.91391e-08
1.88969e-08
1.86415e-08
1.83812e-08
1.81245e-08
1.78746e-08
1.76339e-08
1.74028e-08
1.71818e-08
1.69697e-08
1.67661e-08
1.65698e-08
1.63795e-08
1.61948e-08
1.60152e-08
1.58394e-08
1.5667e-08
1.54973e-08
1.53302e-08
1.51651e-08
1.5002e-08
1.48397e-08
1.46793e-08
1.45203e-08
1.43627e-08
1.42062e-08
1.40508e-08
1.38971e-08
1.37446e-08
1.35936e-08
1.34443e-08
1.32963e-08
1.31506e-08
1.30061e-08
1.28644e-08
1.27246e-08
1.2587e-08
1.2452e-08
1.23198e-08
1.21903e-08
1.20639e-08
1.19405e-08
1.18202e-08
1.17038e-08
1.15902e-08
1.14802e-08
1.13749e-08
1.12746e-08
1.11778e-08
1.10829e-08
1.09901e-08
1.09052e-08
1.08352e-08
1.07796e-08
1.07226e-08
1.06496e-08
1.05548e-08
1.04732e-08
1.0452e-08
1.05198e-08
1.068e-08
1.08388e-08
1.08958e-08
1.08227e-08
1.05619e-08
1.02339e-08
1.01299e-08
1.0433e-08
1.12497e-08
1.28963e-08
1.56215e-08
1.58638e-08
8.27102e-09
7.84626e-10
6.33692e-10
2.06618e-10
1.09881e-09
3.72529e-09
2.49683e-09
1.29471e-08
1.35315e-08
5.92899e-09
1.34767e-09
2.40351e-09
5.21873e-09
4.30809e-08
7.19499e-08
7.02901e-08
6.12233e-08
5.50319e-08
5.19286e-08
5.09032e-08
5.14726e-08
5.27864e-08
5.37567e-08
5.39733e-08
5.3658e-08
5.29821e-08
5.2351e-08
5.21064e-08
5.22313e-08
5.25896e-08
5.29861e-08
5.32916e-08
5.35352e-08
5.37808e-08
5.40889e-08
5.44592e-08
5.48614e-08
5.52742e-08
5.56963e-08
5.61367e-08
5.66012e-08
5.70874e-08
5.75896e-08
5.81101e-08
5.86458e-08
5.91993e-08
5.97676e-08
6.03507e-08
6.09475e-08
6.15578e-08
6.21809e-08
6.28123e-08
6.34578e-08
6.41094e-08
6.47734e-08
6.54413e-08
6.6119e-08
6.68031e-08
6.74935e-08
6.81892e-08
6.88902e-08
6.95952e-08
7.03044e-08
7.10178e-08
7.17347e-08
7.24591e-08
7.31851e-08
7.39192e-08
7.46579e-08
7.54067e-08
7.61647e-08
7.69372e-08
7.77252e-08
7.85347e-08
7.93715e-08
8.02416e-08
8.1157e-08
8.21315e-08
8.31809e-08
8.43287e-08
8.5599e-08
8.7022e-08
8.8634e-08
9.04635e-08
9.2542e-08
9.48766e-08
9.74605e-08
1.00235e-07
1.03113e-07
1.05943e-07
1.0855e-07
1.10699e-07
1.12085e-07
1.12159e-07
1.09783e-07
1.02723e-07
8.80824e-08
6.83023e-08
5.59064e-08
5.32195e-08
5.35731e-08
5.42461e-08
5.47634e-08
5.51452e-08
5.54535e-08
5.57268e-08
5.59885e-08
5.62476e-08
5.65077e-08
5.67705e-08
5.7037e-08
5.73064e-08
5.75791e-08
5.7852e-08
5.81256e-08
5.84007e-08
5.86755e-08
5.89493e-08
5.92245e-08
5.94991e-08
5.97703e-08
6.00363e-08
6.02953e-08
6.05465e-08
6.07866e-08
6.10172e-08
6.12327e-08
6.14332e-08
6.1617e-08
6.17828e-08
6.19282e-08
6.20565e-08
6.21608e-08
6.22415e-08
6.2304e-08
6.23502e-08
6.23791e-08
6.23983e-08
6.24252e-08
6.24768e-08
6.25714e-08
6.27556e-08
6.31652e-08
6.40324e-08
6.55947e-08
6.78876e-08
7.08677e-08
7.43363e-08
1.5835e-07
1.57664e-07
1.50518e-07
1.40547e-07
1.22019e-07
8.91127e-08
3.7784e-08
6.7166e-09
1.08651e-11
6.97697e-09
3.89463e-08
9.0756e-08
1.23826e-07
1.42503e-07
1.52469e-07
1.58774e-07
8.80229e-08
7.16989e-08
6.67655e-08
6.30991e-08
6.05216e-08
5.91741e-08
5.87016e-08
5.86515e-08
5.8759e-08
5.89207e-08
5.91184e-08
5.93225e-08
5.95257e-08
5.97062e-08
5.98625e-08
5.99817e-08
6.00751e-08
6.01295e-08
6.01555e-08
6.01513e-08
6.01233e-08
6.00695e-08
5.99939e-08
5.9899e-08
5.9784e-08
5.96545e-08
5.95096e-08
5.93533e-08
5.91862e-08
5.90105e-08
5.8828e-08
5.86418e-08
5.84533e-08
5.826e-08
5.80625e-08
5.78629e-08
5.76605e-08
5.74553e-08
5.72504e-08
5.70452e-08
5.68395e-08
5.66313e-08
5.64177e-08
5.61947e-08
5.5955e-08
5.56837e-08
5.53633e-08
5.49723e-08
5.45032e-08
5.40207e-08
5.3789e-08
5.44846e-08
5.73282e-08
6.33826e-08
7.19093e-08
8.05273e-08
8.73832e-08
9.20659e-08
9.47997e-08
9.61409e-08
9.64626e-08
9.61388e-08
9.5363e-08
9.43263e-08
9.31255e-08
9.1853e-08
9.05533e-08
8.92705e-08
8.80212e-08
8.68187e-08
8.56649e-08
8.45633e-08
8.35082e-08
8.24968e-08
8.15243e-08
8.05834e-08
7.96715e-08
7.87843e-08
7.79169e-08
7.70685e-08
7.62336e-08
7.54115e-08
7.45988e-08
7.37966e-08
7.29999e-08
7.2212e-08
7.14304e-08
7.06551e-08
6.9886e-08
6.91226e-08
6.8366e-08
6.76163e-08
6.68739e-08
6.61398e-08
6.54123e-08
6.46956e-08
6.39855e-08
6.32883e-08
6.26003e-08
6.1924e-08
6.12603e-08
6.06101e-08
5.99736e-08
5.9352e-08
5.87456e-08
5.81547e-08
5.75825e-08
5.70253e-08
5.64853e-08
5.5967e-08
5.5473e-08
5.49976e-08
5.45335e-08
5.40803e-08
5.36613e-08
5.33053e-08
5.30137e-08
5.27272e-08
5.23839e-08
5.19548e-08
5.15671e-08
5.141e-08
5.16172e-08
5.22044e-08
5.28378e-08
5.31232e-08
5.28962e-08
5.19398e-08
5.06533e-08
5.01e-08
5.11038e-08
5.41353e-08
6.01577e-08
6.90167e-08
7.08516e-08
4.2826e-08
5.34146e-09
2.62478e-09
1.29084e-09
5.79359e-09
1.40923e-08
1.30793e-08
5.80646e-08
3.66819e-08
1.92827e-08
5.86946e-09
7.15015e-09
2.66554e-08
1.54415e-07
2.24971e-07
2.19754e-07
2.02353e-07
1.87911e-07
1.80624e-07
1.78726e-07
1.80673e-07
1.83949e-07
1.86151e-07
1.86479e-07
1.85474e-07
1.83761e-07
1.82357e-07
1.82005e-07
1.82644e-07
1.83846e-07
1.85103e-07
1.8613e-07
1.87028e-07
1.87974e-07
1.89113e-07
1.90429e-07
1.91842e-07
1.93297e-07
1.94797e-07
1.96367e-07
1.98018e-07
1.99745e-07
2.0153e-07
2.03379e-07
2.05285e-07
2.07254e-07
2.09277e-07
2.11351e-07
2.13474e-07
2.15642e-07
2.17856e-07
2.20102e-07
2.22394e-07
2.2471e-07
2.27066e-07
2.29439e-07
2.31844e-07
2.34271e-07
2.36719e-07
2.39187e-07
2.41671e-07
2.44166e-07
2.46675e-07
2.49199e-07
2.51734e-07
2.5429e-07
2.56853e-07
2.5944e-07
2.62042e-07
2.64674e-07
2.67337e-07
2.70044e-07
2.72802e-07
2.75629e-07
2.78543e-07
2.81569e-07
2.84745e-07
2.88112e-07
2.91728e-07
2.95667e-07
3.00011e-07
3.04859e-07
3.10326e-07
3.16506e-07
3.23504e-07
3.31338e-07
3.39984e-07
3.49254e-07
3.58871e-07
3.68329e-07
3.77044e-07
3.84223e-07
3.88819e-07
3.89001e-07
3.81113e-07
3.58118e-07
3.10525e-07
2.44548e-07
2.01721e-07
1.91672e-07
1.92282e-07
1.94489e-07
1.96471e-07
1.98129e-07
1.99593e-07
2.0097e-07
2.02321e-07
2.03676e-07
2.0505e-07
2.06446e-07
2.07866e-07
2.09309e-07
2.10774e-07
2.12254e-07
2.13746e-07
2.15253e-07
2.16764e-07
2.1828e-07
2.19804e-07
2.21326e-07
2.22831e-07
2.24312e-07
2.2576e-07
2.27165e-07
2.28521e-07
2.29821e-07
2.31051e-07
2.32204e-07
2.33275e-07
2.34258e-07
2.35148e-07
2.35942e-07
2.36627e-07
2.3721e-07
2.37709e-07
2.38135e-07
2.38497e-07
2.38839e-07
2.39245e-07
2.39782e-07
2.40554e-07
2.41835e-07
2.44272e-07
2.48825e-07
2.56205e-07
2.65889e-07
2.77112e-07
2.90358e-07
5.37982e-07
5.23602e-07
4.86554e-07
4.3391e-07
3.53748e-07
2.38428e-07
9.18352e-08
1.66513e-08
3.84254e-11
1.7199e-08
9.44939e-08
2.42593e-07
3.58903e-07
4.3997e-07
4.93113e-07
5.28516e-07
3.42559e-07
2.80243e-07
2.61878e-07
2.4671e-07
2.34716e-07
2.27478e-07
2.24127e-07
2.22934e-07
2.22672e-07
2.22792e-07
2.23141e-07
2.23614e-07
2.24142e-07
2.24636e-07
2.25056e-07
2.2535e-07
2.25526e-07
2.25555e-07
2.2545e-07
2.2521e-07
2.24857e-07
2.24387e-07
2.23814e-07
2.23149e-07
2.22393e-07
2.21562e-07
2.20664e-07
2.19707e-07
2.18701e-07
2.17657e-07
2.16582e-07
2.15489e-07
2.14389e-07
2.13277e-07
2.12151e-07
2.11022e-07
2.0989e-07
2.08756e-07
2.07629e-07
2.06509e-07
2.05395e-07
2.04281e-07
2.03162e-07
2.02021e-07
2.00837e-07
1.99575e-07
1.98185e-07
1.96632e-07
1.94943e-07
1.93411e-07
1.92981e-07
1.95894e-07
2.06137e-07
2.27158e-07
2.56111e-07
2.84746e-07
3.07135e-07
3.22259e-07
3.31011e-07
3.35248e-07
3.36171e-07
3.34998e-07
3.32347e-07
3.28843e-07
3.24792e-07
3.20501e-07
3.16114e-07
3.11779e-07
3.07545e-07
3.03462e-07
2.99535e-07
2.95777e-07
2.92169e-07
2.88701e-07
2.85358e-07
2.82122e-07
2.78977e-07
2.75911e-07
2.72911e-07
2.6997e-07
2.67075e-07
2.6422e-07
2.61394e-07
2.58603e-07
2.5583e-07
2.53085e-07
2.50359e-07
2.47656e-07
2.44974e-07
2.42308e-07
2.39665e-07
2.37046e-07
2.34452e-07
2.31886e-07
2.29345e-07
2.26838e-07
2.24358e-07
2.2192e-07
2.19515e-07
2.17152e-07
2.14834e-07
2.12562e-07
2.10338e-07
2.08165e-07
2.06046e-07
2.03984e-07
2.01986e-07
2.00042e-07
1.98158e-07
1.96348e-07
1.94618e-07
1.92957e-07
1.91345e-07
1.89774e-07
1.88305e-07
1.87017e-07
1.85928e-07
1.84897e-07
1.83751e-07
1.82391e-07
1.81096e-07
1.8036e-07
1.80608e-07
1.819e-07
1.83512e-07
1.84452e-07
1.84108e-07
1.81946e-07
1.78733e-07
1.76818e-07
1.78664e-07
1.85768e-07
1.99791e-07
2.16706e-07
2.22662e-07
1.54247e-07
2.72742e-08
7.82771e-09
5.80235e-09
1.96999e-08
3.81515e-08
5.90936e-08
2.20083e-07
8.34059e-08
4.84743e-08
1.92464e-08
1.80988e-08
1.1149e-07
4.35757e-07
5.68826e-07
5.62189e-07
5.46131e-07
5.23495e-07
5.12182e-07
5.10862e-07
5.15599e-07
5.21038e-07
5.24152e-07
5.24118e-07
5.21862e-07
5.19046e-07
5.17381e-07
5.17797e-07
5.20138e-07
5.23364e-07
5.26567e-07
5.29395e-07
5.32105e-07
5.35058e-07
5.38473e-07
5.42279e-07
5.46315e-07
5.50491e-07
5.54834e-07
5.59387e-07
5.64167e-07
5.69157e-07
5.74325e-07
5.79675e-07
5.85196e-07
5.90892e-07
5.96742e-07
6.02742e-07
6.08879e-07
6.15148e-07
6.21539e-07
6.28034e-07
6.34647e-07
6.41337e-07
6.48129e-07
6.54981e-07
6.61916e-07
6.68919e-07
6.75976e-07
6.83081e-07
6.90233e-07
6.97416e-07
7.04637e-07
7.11896e-07
7.19182e-07
7.26512e-07
7.33865e-07
7.41271e-07
7.48713e-07
7.56219e-07
7.63794e-07
7.71465e-07
7.79257e-07
7.87209e-07
7.95361e-07
8.03771e-07
8.12531e-07
8.21734e-07
8.31512e-07
8.42041e-07
8.53508e-07
8.6615e-07
8.80218e-07
8.9594e-07
9.13557e-07
9.33126e-07
9.54591e-07
9.77541e-07
1.00136e-06
1.02487e-06
1.04668e-06
1.06484e-06
1.07676e-06
1.07807e-06
1.06055e-06
1.00903e-06
9.02795e-07
7.5038e-07
6.40972e-07
6.10516e-07
6.10783e-07
6.17213e-07
6.23853e-07
6.29927e-07
6.35589e-07
6.41056e-07
6.4647e-07
6.51917e-07
6.57429e-07
6.63019e-07
6.68686e-07
6.74432e-07
6.80248e-07
6.86114e-07
6.92021e-07
6.97961e-07
7.03912e-07
7.09873e-07
7.15843e-07
7.21779e-07
7.27643e-07
7.33394e-07
7.38997e-07
7.44423e-07
7.49651e-07
7.54647e-07
7.59364e-07
7.63775e-07
7.6787e-07
7.71619e-07
7.75011e-07
7.78025e-07
7.80641e-07
7.82874e-07
7.84805e-07
7.86475e-07
7.87936e-07
7.89368e-07
7.91078e-07
7.93336e-07
7.96549e-07
8.01846e-07
8.11725e-07
8.29801e-07
8.58657e-07
8.95899e-07
9.37597e-07
9.84056e-07
1.46588e-06
1.38621e-06
1.24502e-06
1.0526e-06
8.02107e-07
4.98754e-07
1.74003e-07
3.25063e-08
1.12324e-10
3.33656e-08
1.78666e-07
5.06819e-07
8.13414e-07
1.06715e-06
1.26229e-06
1.40259e-06
1.11799e-06
9.49683e-07
8.83116e-07
8.25609e-07
7.79871e-07
7.51702e-07
7.37918e-07
7.32392e-07
7.30575e-07
7.30341e-07
7.31035e-07
7.32326e-07
7.33883e-07
7.3541e-07
7.3671e-07
7.37611e-07
7.38078e-07
7.38032e-07
7.37486e-07
7.36443e-07
7.3496e-07
7.33038e-07
7.30723e-07
7.28043e-07
7.2502e-07
7.21693e-07
7.181e-07
7.14274e-07
7.10243e-07
7.06046e-07
7.01724e-07
6.97315e-07
6.92857e-07
6.88349e-07
6.83787e-07
6.79194e-07
6.74582e-07
6.69961e-07
6.65353e-07
6.60768e-07
6.56197e-07
6.51634e-07
6.47062e-07
6.4245e-07
6.37738e-07
6.32859e-07
6.27736e-07
6.22353e-07
6.1696e-07
6.126e-07
6.12115e-07
6.21505e-07
6.50127e-07
7.0382e-07
7.72814e-07
8.37914e-07
8.87347e-07
9.20026e-07
9.38345e-07
9.46537e-07
9.47251e-07
9.43212e-07
9.35801e-07
9.26437e-07
9.158e-07
9.04615e-07
8.93195e-07
8.81892e-07
8.708e-07
8.60057e-07
8.4966e-07
8.39644e-07
8.29968e-07
8.20604e-07
8.11526e-07
8.02686e-07
7.94051e-07
7.85598e-07
7.77295e-07
7.69119e-07
7.61043e-07
7.53058e-07
7.45138e-07
7.37298e-07
7.29502e-07
7.21772e-07
7.14082e-07
7.0645e-07
6.98871e-07
6.91338e-07
6.83865e-07
6.76452e-07
6.69105e-07
6.61836e-07
6.5464e-07
6.47538e-07
6.40518e-07
6.33605e-07
6.26795e-07
6.20103e-07
6.13537e-07
6.07102e-07
6.00805e-07
5.94656e-07
5.8866e-07
5.82823e-07
5.77167e-07
5.71671e-07
5.66347e-07
5.61223e-07
5.56316e-07
5.51612e-07
5.47073e-07
5.42671e-07
5.38501e-07
5.34729e-07
5.31433e-07
5.28408e-07
5.25299e-07
5.21851e-07
5.184e-07
5.1583e-07
5.15185e-07
5.16638e-07
5.1931e-07
5.21529e-07
5.21636e-07
5.18702e-07
5.13426e-07
5.087e-07
5.09839e-07
5.2066e-07
5.42263e-07
5.57098e-07
5.66512e-07
4.38629e-07
1.14007e-07
1.99751e-08
2.0013e-08
5.07506e-08
8.65918e-08
2.24778e-07
7.11794e-07
1.81565e-07
1.03238e-07
4.86528e-08
4.84412e-08
4.01268e-07
1.02912e-06
1.24872e-06
1.26279e-06
1.2869e-06
1.26911e-06
1.26063e-06
1.26435e-06
1.27233e-06
1.27672e-06
1.27803e-06
1.27665e-06
1.27351e-06
1.2719e-06
1.27324e-06
1.27745e-06
1.28424e-06
1.29162e-06
1.29867e-06
1.30549e-06
1.31261e-06
1.32052e-06
1.32935e-06
1.33886e-06
1.34885e-06
1.35925e-06
1.37014e-06
1.38158e-06
1.39356e-06
1.40606e-06
1.419e-06
1.4324e-06
1.44624e-06
1.46049e-06
1.47513e-06
1.49013e-06
1.50546e-06
1.52112e-06
1.53708e-06
1.5533e-06
1.56978e-06
1.58648e-06
1.6034e-06
1.6205e-06
1.63778e-06
1.65523e-06
1.6728e-06
1.69049e-06
1.70829e-06
1.72618e-06
1.74415e-06
1.76219e-06
1.7803e-06
1.79848e-06
1.81672e-06
1.83503e-06
1.85343e-06
1.87191e-06
1.8905e-06
1.90926e-06
1.92823e-06
1.94745e-06
1.96701e-06
1.987e-06
2.00759e-06
2.02892e-06
2.05123e-06
2.07482e-06
2.09999e-06
2.12717e-06
2.15676e-06
2.18916e-06
2.2248e-06
2.26379e-06
2.30606e-06
2.35098e-06
2.39751e-06
2.44368e-06
2.48705e-06
2.52411e-06
2.5502e-06
2.55771e-06
2.53316e-06
2.45317e-06
2.28637e-06
2.04014e-06
1.84266e-06
1.77424e-06
1.77314e-06
1.7903e-06
1.80999e-06
1.82914e-06
1.84762e-06
1.86575e-06
1.88383e-06
1.90202e-06
1.92041e-06
1.93902e-06
1.95786e-06
1.97691e-06
1.99616e-06
2.01555e-06
2.03503e-06
2.05458e-06
2.07415e-06
2.09371e-06
2.11325e-06
2.13264e-06
2.15174e-06
2.17043e-06
2.18861e-06
2.20618e-06
2.22306e-06
2.23914e-06
2.25428e-06
2.2684e-06
2.28145e-06
2.29335e-06
2.30405e-06
2.31351e-06
2.32165e-06
2.32856e-06
2.33449e-06
2.33957e-06
2.34403e-06
2.34845e-06
2.3539e-06
2.36126e-06
2.37198e-06
2.38996e-06
2.42369e-06
2.48544e-06
2.5832e-06
2.7009e-06
2.79597e-06
2.83802e-06
3.37646e-06
3.09212e-06
2.67079e-06
2.13428e-06
1.51904e-06
8.71794e-07
2.73513e-07
5.34322e-08
2.92814e-10
5.4466e-08
2.80149e-07
8.84465e-07
1.53938e-06
2.16303e-06
2.70822e-06
3.13497e-06
2.96425e-06
2.79797e-06
2.66497e-06
2.47925e-06
2.32439e-06
2.23015e-06
2.18398e-06
2.16529e-06
2.15902e-06
2.1581e-06
2.16024e-06
2.16443e-06
2.16952e-06
2.17457e-06
2.17889e-06
2.18196e-06
2.18357e-06
2.18355e-06
2.18185e-06
2.17855e-06
2.17375e-06
2.16751e-06
2.15994e-06
2.15116e-06
2.14123e-06
2.13027e-06
2.1184e-06
2.10572e-06
2.09235e-06
2.0784e-06
2.06398e-06
2.04923e-06
2.03427e-06
2.01911e-06
2.00377e-06
1.98829e-06
1.9727e-06
1.95707e-06
1.94145e-06
1.92588e-06
1.91034e-06
1.89482e-06
1.87931e-06
1.86373e-06
1.84801e-06
1.83201e-06
1.81571e-06
1.79928e-06
1.78368e-06
1.77174e-06
1.77016e-06
1.79064e-06
1.84677e-06
1.94139e-06
2.05399e-06
2.15524e-06
2.22942e-06
2.27637e-06
2.3002e-06
2.30771e-06
2.30302e-06
2.29056e-06
2.27249e-06
2.25122e-06
2.2278e-06
2.20348e-06
2.17876e-06
2.15423e-06
2.13004e-06
2.10643e-06
2.08338e-06
2.06096e-06
2.03908e-06
2.01772e-06
1.99682e-06
1.97629e-06
1.9561e-06
1.93619e-06
1.91653e-06
1.89707e-06
1.87776e-06
1.85859e-06
1.83953e-06
1.8206e-06
1.80174e-06
1.783e-06
1.76434e-06
1.74578e-06
1.72733e-06
1.70899e-06
1.69078e-06
1.67271e-06
1.65479e-06
1.63705e-06
1.61949e-06
1.60214e-06
1.58502e-06
1.56813e-06
1.55151e-06
1.53518e-06
1.51916e-06
1.50346e-06
1.4881e-06
1.47311e-06
1.45849e-06
1.44426e-06
1.43046e-06
1.41708e-06
1.40412e-06
1.39163e-06
1.37964e-06
1.36817e-06
1.35716e-06
1.34653e-06
1.33635e-06
1.32686e-06
1.31831e-06
1.31061e-06
1.30329e-06
1.29581e-06
1.28802e-06
1.28079e-06
1.27615e-06
1.2745e-06
1.2761e-06
1.27959e-06
1.28162e-06
1.28119e-06
1.27744e-06
1.26934e-06
1.26484e-06
1.2717e-06
1.28635e-06
1.2583e-06
1.25295e-06
1.046e-06
4.11065e-07
5.55106e-08
5.24793e-08
1.09765e-07
1.88578e-07
7.29638e-07
1.99175e-06
4.53545e-07
1.98106e-07
1.03991e-07
1.39305e-07
1.1626e-06
2.11469e-06
2.47952e-06
2.58892e-06
2.74212e-06
2.76451e-06
2.77518e-06
2.78951e-06
2.79617e-06
2.78984e-06
2.78381e-06
2.78127e-06
2.78172e-06
2.78961e-06
2.80289e-06
2.81774e-06
2.83405e-06
2.84898e-06
2.86307e-06
2.87812e-06
2.89487e-06
2.9136e-06
2.9338e-06
2.955e-06
2.97712e-06
3.00026e-06
3.02465e-06
3.05029e-06
3.07711e-06
3.105e-06
3.13393e-06
3.16383e-06
3.19473e-06
3.2265e-06
3.25912e-06
3.29252e-06
3.32664e-06
3.36146e-06
3.3969e-06
3.43296e-06
3.46951e-06
3.50662e-06
3.54413e-06
3.58212e-06
3.62041e-06
3.65908e-06
3.69805e-06
3.73728e-06
3.77674e-06
3.81638e-06
3.85619e-06
3.89612e-06
3.93623e-06
3.97641e-06
4.01671e-06
4.05707e-06
4.09756e-06
4.13811e-06
4.17879e-06
4.21967e-06
4.26078e-06
4.30218e-06
4.344e-06
4.38633e-06
4.42939e-06
4.47339e-06
4.5186e-06
4.56541e-06
4.61423e-06
4.66561e-06
4.72002e-06
4.77801e-06
4.8401e-06
4.90649e-06
4.97708e-06
5.05117e-06
5.12745e-06
5.20351e-06
5.2762e-06
5.34101e-06
5.39191e-06
5.41935e-06
5.40701e-06
5.32775e-06
5.14574e-06
4.86588e-06
4.63195e-06
4.55399e-06
4.56904e-06
4.61279e-06
4.6618e-06
4.71088e-06
4.75947e-06
4.80794e-06
4.85663e-06
4.90579e-06
4.95552e-06
5.00584e-06
5.05673e-06
5.10817e-06
5.16006e-06
5.2123e-06
5.26478e-06
5.31744e-06
5.37018e-06
5.4229e-06
5.47546e-06
5.52759e-06
5.57898e-06
5.62938e-06
5.67858e-06
5.72639e-06
5.77255e-06
5.81685e-06
5.85903e-06
5.89893e-06
5.93641e-06
5.97128e-06
6.0035e-06
6.03283e-06
6.05928e-06
6.08296e-06
6.10444e-06
6.1239e-06
6.14198e-06
6.16005e-06
6.1803e-06
6.20443e-06
6.23545e-06
6.28185e-06
6.35919e-06
6.4823e-06
6.63906e-06
6.75675e-06
6.73507e-06
6.53861e-06
6.73167e-06
5.97181e-06
4.95706e-06
3.74824e-06
2.49284e-06
1.31965e-06
3.67311e-07
7.67718e-08
7.1744e-10
7.76622e-08
3.75129e-07
1.33619e-06
2.52391e-06
3.79661e-06
5.02583e-06
6.06286e-06
6.40362e-06
6.60415e-06
6.66989e-06
6.47225e-06
6.18404e-06
5.96057e-06
5.83553e-06
5.77663e-06
5.74903e-06
5.7349e-06
5.72807e-06
5.72664e-06
5.72741e-06
5.7287e-06
5.72864e-06
5.72623e-06
5.72057e-06
5.71162e-06
5.69885e-06
5.68266e-06
5.66311e-06
5.64039e-06
5.6147e-06
5.58634e-06
5.55545e-06
5.52223e-06
5.48692e-06
5.44983e-06
5.41117e-06
5.37117e-06
5.33007e-06
5.2882e-06
5.2458e-06
5.203e-06
5.15987e-06
5.11652e-06
5.07301e-06
5.02946e-06
4.986e-06
4.94271e-06
4.89964e-06
4.85677e-06
4.81411e-06
4.77159e-06
4.72908e-06
4.68651e-06
4.64389e-06
4.60163e-06
4.5613e-06
4.52719e-06
4.50875e-06
4.52114e-06
4.57946e-06
4.68307e-06
4.80445e-06
4.9093e-06
4.98072e-06
5.01955e-06
5.03074e-06
5.02244e-06
4.99939e-06
4.96702e-06
4.92778e-06
4.88473e-06
4.83902e-06
4.79229e-06
4.74501e-06
4.69804e-06
4.65141e-06
4.60556e-06
4.56035e-06
4.5159e-06
4.47209e-06
4.42887e-06
4.38618e-06
4.34392e-06
4.30203e-06
4.26045e-06
4.2191e-06
4.17799e-06
4.13704e-06
4.09621e-06
4.05551e-06
4.01494e-06
3.97447e-06
3.93415e-06
3.89397e-06
3.85394e-06
3.8141e-06
3.77446e-06
3.73508e-06
3.69598e-06
3.6572e-06
3.6188e-06
3.58079e-06
3.54318e-06
3.50612e-06
3.46954e-06
3.43357e-06
3.3982e-06
3.36351e-06
3.32954e-06
3.29631e-06
3.26386e-06
3.23224e-06
3.20149e-06
3.17164e-06
3.14273e-06
3.11474e-06
3.08771e-06
3.06174e-06
3.0369e-06
3.01318e-06
2.9904e-06
2.96839e-06
2.94732e-06
2.92775e-06
2.91029e-06
2.8947e-06
2.88022e-06
2.86481e-06
2.84783e-06
2.83231e-06
2.81867e-06
2.81137e-06
2.81271e-06
2.81798e-06
2.82749e-06
2.83651e-06
2.82981e-06
2.81287e-06
2.7968e-06
2.76412e-06
2.59708e-06
2.50999e-06
2.17196e-06
1.20884e-06
1.62632e-07
1.13511e-07
2.12773e-07
4.72058e-07
2.05051e-06
4.88362e-06
1.15339e-06
3.58496e-07
1.98479e-07
4.00498e-07
2.6863e-06
3.88804e-06
4.56328e-06
4.9454e-06
5.37066e-06
5.48099e-06
5.52587e-06
5.54763e-06
5.5386e-06
5.50712e-06
5.49045e-06
5.49384e-06
5.51199e-06
5.54747e-06
5.58863e-06
5.62491e-06
5.65807e-06
5.6855e-06
5.71213e-06
5.743e-06
5.77858e-06
5.81799e-06
5.85933e-06
5.90189e-06
5.94612e-06
5.99266e-06
6.04191e-06
6.09364e-06
6.1476e-06
6.20365e-06
6.26176e-06
6.32176e-06
6.38373e-06
6.44737e-06
6.51263e-06
6.5794e-06
6.64756e-06
6.71703e-06
6.7877e-06
6.85961e-06
6.93237e-06
7.00629e-06
7.08091e-06
7.15659e-06
7.23278e-06
7.30973e-06
7.38726e-06
7.46532e-06
7.54383e-06
7.62269e-06
7.70185e-06