/*--------------------------------*- C++ -*----------------------------------*\
| =========                 |                                                 |
| \\      /  F ield         | OpenFOAM: The Open Source CFD Toolbox           |
|  \\    /   O peration     | Version:  2412                                  |
|   \\  /    A nd           | Website:  www.openfoam.com                      |
|    \\/     M anipulation  |                                                 |
\*---------------------------------------------------------------------------*/
FoamFile
{
    version     2.0;
    format      ascii;
    arch        "LSB;label=32;scalar=64";
    class       volScalarField;
    location    "80";
    object      nut;
}
// * * * * * * * * * * * * * * * * * * * * * * * * * * * * * * * * * * * * * //

dimensions      [0 2 -1 0 0 0 0];

internalField   nonuniform List<scalar> 
32591
(
5.58398e-11
9.88622e-11
3.35516e-11
2.80599e-12
7.53711e-12
2.41813e-11
2.95859e-11
3.38445e-10
4.83085e-10
4.86844e-10
4.22872e-10
3.82951e-10
3.61658e-10
3.55333e-10
3.622e-10
3.74104e-10
3.81579e-10
3.83819e-10
3.82681e-10
3.79522e-10
3.78197e-10
3.81477e-10
3.80288e-10
7.53e-11
7.57627e-11
7.60815e-11
7.63552e-11
7.67142e-11
7.71633e-11
7.76501e-11
7.81306e-11
7.86118e-11
7.91094e-11
7.9625e-11
8.01534e-11
8.06919e-11
8.12356e-11
8.17866e-11
8.23424e-11
8.29005e-11
8.34587e-11
8.40154e-11
8.45727e-11
8.51276e-11
8.56754e-11
8.6217e-11
8.67551e-11
8.72888e-11
8.78152e-11
8.83289e-11
8.88341e-11
8.93302e-11
8.98124e-11
9.02862e-11
9.07481e-11
9.11965e-11
9.1634e-11
9.20606e-11
9.24712e-11
9.28713e-11
9.32605e-11
9.36401e-11
9.40064e-11
9.43583e-11
9.4699e-11
9.505e-11
9.53869e-11
9.57124e-11
9.6029e-11
9.63334e-11
9.66259e-11
9.69002e-11
9.72497e-11
8.28109e-10
9.77709e-11
8.55346e-10
8.68208e-10
8.81238e-10
8.94546e-10
9.08176e-10
9.22086e-10
9.36333e-10
9.50895e-10
9.65834e-10
9.81197e-10
9.9695e-10
1.01313e-09
1.02974e-09
1.04683e-09
1.06446e-09
1.08257e-09
1.10119e-09
1.12036e-09
1.14008e-09
1.16036e-09
1.1812e-09
1.20257e-09
1.22447e-09
1.24694e-09
1.26998e-09
1.29359e-09
1.31774e-09
1.34238e-09
1.36751e-09
1.39313e-09
1.41926e-09
1.44587e-09
1.47294e-09
1.50045e-09
1.5284e-09
1.55667e-09
1.58507e-09
1.6134e-09
1.64164e-09
1.66963e-09
1.69726e-09
1.7244e-09
1.75078e-09
1.77625e-09
1.80068e-09
1.82408e-09
1.83852e-09
1.05655e-10
1.05837e-10
1.06014e-10
1.06186e-10
1.06351e-10
1.06509e-10
1.06665e-10
1.06828e-10
1.06982e-10
1.0731e-10
1.97711e-09
1.98443e-09
1.99061e-09
1.08831e-10
1.10146e-10
1.11975e-10
1.13959e-10
1.15606e-10
1.17445e-10
1.22043e-10
1.3425e-10
1.59822e-09
1.8768e-10
6.8043e-10
5.48324e-10
2.6958e-10
4.03071e-11
5.26521e-14
4.38223e-11
2.80487e-10
5.62038e-10
6.93663e-10
1.86638e-10
1.50149e-10
1.8435e-09
2.13823e-09
1.18147e-10
1.15353e-10
1.12961e-10
1.10068e-10
1.07677e-10
1.0624e-10
1.768e-09
1.76811e-09
1.76112e-09
1.05243e-10
1.04723e-10
1.04671e-10
1.04638e-10
1.04625e-10
1.04614e-10
1.04598e-10
1.04574e-10
1.04539e-10
1.04491e-10
1.70108e-09
1.70037e-09
1.68686e-09
1.67196e-09
1.65566e-09
1.63814e-09
1.61953e-09
1.60008e-09
1.57989e-09
1.55907e-09
1.53776e-09
1.51602e-09
1.49403e-09
1.47201e-09
1.45002e-09
1.42812e-09
1.40633e-09
1.38474e-09
1.36336e-09
1.34221e-09
1.32126e-09
1.30056e-09
1.28019e-09
1.26019e-09
1.24057e-09
1.22142e-09
1.20272e-09
1.1845e-09
1.16674e-09
1.14944e-09
1.1326e-09
1.11623e-09
1.10025e-09
1.08461e-09
1.06935e-09
1.05441e-09
1.03974e-09
1.02533e-09
1.01114e-09
9.97196e-10
9.83468e-10
9.69894e-10
9.56509e-10
9.43268e-10
9.30213e-10
9.95834e-11
9.90776e-11
9.88638e-11
9.86324e-11
9.8394e-11
9.8145e-11
9.78881e-11
9.76209e-11
9.73419e-11
9.70505e-11
9.67498e-11
9.64381e-11
9.61136e-11
9.5779e-11
9.54325e-11
9.50713e-11
9.47065e-11
9.43389e-11
9.39599e-11
9.35683e-11
9.31621e-11
9.27413e-11
9.23117e-11
9.18645e-11
9.14061e-11
9.09376e-11
9.04542e-11
8.99603e-11
8.94564e-11
8.89378e-11
8.84104e-11
8.78727e-11
8.73367e-11
8.67904e-11
8.62348e-11
8.56739e-11
8.51103e-11
8.45417e-11
8.39692e-11
8.33955e-11
8.28217e-11
8.22505e-11
8.168e-11
8.11147e-11
8.05573e-11
8.00135e-11
7.94817e-11
7.89469e-11
7.84033e-11
7.78954e-11
7.74756e-11
7.71399e-11
7.67605e-11
7.62296e-11
7.55395e-11
7.50552e-11
7.50903e-11
7.58389e-11
7.69613e-11
7.73795e-11
7.67244e-11
7.48545e-11
7.19825e-11
7.06443e-11
7.23864e-11
7.77429e-11
8.60826e-11
1.09104e-10
1.37716e-10
3.4045e-10
3.66589e-11
2.12869e-11
4.37367e-12
2.70743e-12
3.92883e-11
1.20802e-10
8.28997e-11
4.72821e-09
6.16423e-09
2.90526e-09
2.21702e-10
6.29212e-10
1.60188e-09
5.34467e-09
3.64002e-08
4.42117e-08
4.75723e-08
4.49666e-08
4.21605e-08
4.08129e-08
4.04698e-08
4.0922e-08
4.16242e-08
4.20722e-08
4.22041e-08
4.21835e-08
4.20945e-08
4.21447e-08
4.25283e-08
4.14927e-08
4.54188e-09
4.56229e-09
4.58397e-09
4.6074e-09
4.63383e-09
4.66289e-09
4.69376e-09
4.726e-09
4.75995e-09
4.79582e-09
4.83343e-09
4.87269e-09
4.91363e-09
4.95599e-09
4.99976e-09
5.04485e-09
5.09113e-09
5.13841e-09
5.18663e-09
5.23582e-09
5.28579e-09
5.33632e-09
5.38733e-09
5.43885e-09
5.49082e-09
5.54306e-09
5.59542e-09
5.64802e-09
5.70074e-09
5.75333e-09
5.80603e-09
5.85869e-09
5.9111e-09
5.96348e-09
6.01565e-09
6.06746e-09
6.11909e-09
6.17063e-09
6.22203e-09
6.27308e-09
6.32379e-09
6.3743e-09
6.42766e-09
6.48075e-09
6.53367e-09
6.58654e-09
6.63931e-09
6.69193e-09
6.74436e-09
6.80594e-09
8.55731e-08
6.91193e-09
8.82646e-08
8.94116e-08
9.05733e-08
9.17555e-08
9.29596e-08
9.41853e-08
9.54357e-08
9.67099e-08
9.80117e-08
9.93439e-08
1.00706e-07
1.021e-07
1.03526e-07
1.04988e-07
1.06488e-07
1.08025e-07
1.09601e-07
1.11215e-07
1.1287e-07
1.14564e-07
1.16301e-07
1.18075e-07
1.19886e-07
1.21738e-07
1.23631e-07
1.25563e-07
1.27532e-07
1.29535e-07
1.31574e-07
1.33646e-07
1.3575e-07
1.37886e-07
1.40053e-07
1.42252e-07
1.44478e-07
1.46723e-07
1.48972e-07
1.51211e-07
1.53436e-07
1.55637e-07
1.57804e-07
1.59927e-07
1.61987e-07
1.63972e-07
1.65871e-07
1.67686e-07
1.68271e-07
1.01806e-08
1.02314e-08
1.02782e-08
1.03204e-08
1.03576e-08
1.03901e-08
1.04177e-08
1.04404e-08
1.04571e-08
1.04962e-08
1.792e-07
1.79646e-07
1.7917e-07
1.06366e-08
1.08329e-08
1.11175e-08
1.13401e-08
1.1282e-08
1.08836e-08
1.02232e-08
9.76033e-09
1.33815e-07
1.07506e-08
5.02106e-08
3.60896e-08
1.56421e-08
2.27453e-09
4.82497e-12
2.45616e-09
1.62649e-08
3.70494e-08
5.12418e-08
1.06851e-08
9.8338e-09
1.55941e-07
1.80955e-07
1.10888e-08
1.13585e-08
1.12325e-08
1.07708e-08
1.03722e-08
1.01348e-08
1.62618e-07
1.63351e-07
1.62849e-07
9.9624e-09
9.91932e-09
9.90628e-09
9.89411e-09
9.88317e-09
9.87141e-09
9.85723e-09
9.83923e-09
9.81678e-09
9.79015e-09
1.57567e-07
1.57964e-07
1.56896e-07
1.55717e-07
1.54427e-07
1.53039e-07
1.51566e-07
1.50025e-07
1.48421e-07
1.46766e-07
1.45068e-07
1.43335e-07
1.41578e-07
1.39814e-07
1.38049e-07
1.36289e-07
1.34535e-07
1.32791e-07
1.31059e-07
1.2934e-07
1.27636e-07
1.25949e-07
1.24283e-07
1.22642e-07
1.21027e-07
1.19447e-07
1.17899e-07
1.16385e-07
1.14907e-07
1.13462e-07
1.12051e-07
1.10673e-07
1.09326e-07
1.08004e-07
1.06709e-07
1.05438e-07
1.04186e-07
1.02953e-07
1.01737e-07
1.00537e-07
9.93508e-08
9.81757e-08
9.70129e-08
9.58605e-08
9.47192e-08
7.19723e-09
7.13301e-09
7.0821e-09
7.03095e-09
6.97979e-09
6.92857e-09
6.87735e-09
6.82605e-09
6.77446e-09
6.72274e-09
6.67091e-09
6.6189e-09
6.56669e-09
6.51433e-09
6.46183e-09
6.40905e-09
6.35751e-09
6.30718e-09
6.25682e-09
6.20634e-09
6.15554e-09
6.10457e-09
6.05364e-09
6.00248e-09
5.95132e-09
5.90031e-09
5.84916e-09
5.79814e-09
5.74735e-09
5.69663e-09
5.64607e-09
5.59585e-09
5.54606e-09
5.49659e-09
5.44748e-09
5.39892e-09
5.35106e-09
5.30381e-09
5.25724e-09
5.21144e-09
5.16658e-09
5.12268e-09
5.07975e-09
5.03806e-09
4.99758e-09
4.95837e-09
4.92076e-09
4.88455e-09
4.8495e-09
4.81603e-09
4.78499e-09
4.75689e-09
4.73095e-09
4.70557e-09
4.67981e-09
4.65601e-09
4.63871e-09
4.63414e-09
4.6362e-09
4.63637e-09
4.63355e-09
4.61781e-09
4.5946e-09
4.58569e-09
4.61756e-09
4.6997e-09
4.86963e-09
5.24461e-09
6.90197e-09
3.44113e-08
6.47686e-09
1.52274e-09
4.08252e-10
2.1343e-10
3.36671e-09
7.25705e-09
6.27702e-09
6.88406e-08
4.07044e-08
2.20287e-08
3.02854e-09
5.22523e-09
1.1673e-08
9.42148e-08
2.96259e-07
3.38021e-07
3.75459e-07
3.72292e-07
3.58306e-07
3.52381e-07
3.50977e-07
3.52677e-07
3.55441e-07
3.57492e-07
3.58307e-07
3.58871e-07
3.59503e-07
3.60898e-07
3.63936e-07
3.49785e-07
5.28456e-08
5.30549e-08
5.33151e-08
5.36101e-08
5.39336e-08
5.42792e-08
5.46449e-08
5.50332e-08
5.54471e-08
5.58863e-08
5.63484e-08
5.68325e-08
5.73385e-08
5.78643e-08
5.8409e-08
5.89717e-08
5.95507e-08
6.01438e-08
6.07503e-08
6.13697e-08
6.20001e-08
6.26395e-08
6.32865e-08
6.39411e-08
6.46022e-08
6.52674e-08
6.59368e-08
6.66102e-08
6.72862e-08
6.79627e-08
6.86411e-08
6.93206e-08
6.9999e-08
7.06783e-08
7.13557e-08
7.20312e-08
7.27055e-08
7.33803e-08
7.40536e-08
7.4724e-08
7.53928e-08
7.60608e-08
7.67898e-08
7.75189e-08
7.82477e-08
7.89767e-08
7.97073e-08
8.04393e-08
8.11727e-08
8.21669e-08
6.86029e-07
8.36539e-08
7.06616e-07
7.14694e-07
7.22881e-07
7.31182e-07
7.39607e-07
7.48167e-07
7.5688e-07
7.65737e-07
7.74756e-07
7.83959e-07
7.93347e-07
8.02926e-07
8.12698e-07
8.22692e-07
8.32919e-07
8.43361e-07
8.54038e-07
8.64946e-07
8.76094e-07
8.87478e-07
8.99107e-07
9.10958e-07
9.23027e-07
9.35326e-07
9.47864e-07
9.6062e-07
9.73585e-07
9.86741e-07
1.00009e-06
1.01363e-06
1.02732e-06
1.04119e-06
1.05522e-06
1.06941e-06
1.08374e-06
1.09814e-06
1.11252e-06
1.12681e-06
1.14097e-06
1.15493e-06
1.16864e-06
1.18202e-06
1.19499e-06
1.20745e-06
1.21933e-06
1.23061e-06
1.23136e-06
1.32831e-07
1.33626e-07
1.34354e-07
1.35009e-07
1.35584e-07
1.36078e-07
1.3649e-07
1.36815e-07
1.37042e-07
1.37833e-07
1.29985e-06
1.30175e-06
1.29352e-06
1.39402e-07
1.42388e-07
1.46966e-07
1.50438e-07
1.48722e-07
1.40885e-07
1.28376e-07
1.20337e-07
8.76064e-07
1.41738e-07
3.29036e-07
2.07724e-07
8.0804e-08
1.1899e-08
4.44469e-11
1.27514e-08
8.38634e-08
2.13471e-07
3.36163e-07
1.4041e-07
1.24249e-07
1.05224e-06
1.23002e-06
1.4446e-07
1.50231e-07
1.48882e-07
1.41445e-07
1.35445e-07
1.32048e-07
1.1952e-06
1.2037e-06
1.20086e-06
1.29767e-07
1.28941e-07
1.28715e-07
1.28499e-07
1.28295e-07
1.28081e-07
1.27829e-07
1.2752e-07
1.27146e-07
1.26706e-07
1.16404e-06
1.16897e-06
1.16217e-06
1.15462e-06
1.14636e-06
1.13747e-06
1.12804e-06
1.11816e-06
1.10786e-06
1.09722e-06
1.08628e-06
1.07511e-06
1.06376e-06
1.05233e-06
1.04087e-06
1.02942e-06
1.01799e-06
1.00661e-06
9.95263e-07
9.8399e-07
9.72784e-07
9.61669e-07
9.50667e-07
9.39807e-07
9.29098e-07
9.18578e-07
9.08252e-07
8.98139e-07
8.8823e-07
8.78525e-07
8.69019e-07
8.59717e-07
8.50596e-07
8.41635e-07
8.32829e-07
8.24171e-07
8.1563e-07
8.07199e-07
7.98867e-07
7.9063e-07
7.82468e-07
7.74366e-07
7.66334e-07
7.58364e-07
7.50457e-07
8.74988e-08
8.64749e-08
8.57536e-08
8.5033e-08
8.43133e-08
8.3595e-08
8.28784e-08
8.21627e-08
8.14464e-08
8.0731e-08
8.00152e-08
7.92988e-08
7.85826e-08
7.78659e-08
7.71494e-08
7.64327e-08
7.57454e-08
7.50856e-08
7.44273e-08
7.37695e-08
7.31097e-08
7.245e-08
7.17912e-08
7.11332e-08
7.04767e-08
6.9823e-08
6.91703e-08
6.85209e-08
6.78758e-08
6.72349e-08
6.65972e-08
6.59656e-08
6.534e-08
6.47208e-08
6.41084e-08
6.35045e-08
6.29104e-08
6.23261e-08
6.17519e-08
6.11887e-08
6.06389e-08
6.01023e-08
5.95797e-08
5.90731e-08
5.85827e-08
5.8109e-08
5.76558e-08
5.7224e-08
5.68113e-08
5.64149e-08
5.60375e-08
5.56876e-08
5.53769e-08
5.51039e-08
5.4857e-08
5.46047e-08
5.43493e-08
5.41434e-08
5.39587e-08
5.38649e-08
5.39346e-08
5.40603e-08
5.42776e-08
5.44683e-08
5.46836e-08
5.49344e-08
5.57145e-08
5.50712e-08
5.79862e-08
2.6616e-07
1.0625e-07
1.24028e-08
3.82945e-09
2.84269e-09
2.53121e-08
4.61034e-08
7.83255e-08
4.80186e-07
1.60317e-07
7.83815e-08
2.09335e-08
2.37744e-08
7.96112e-08
5.77959e-07
1.0948e-06
1.24095e-06
1.40075e-06
1.43401e-06
1.40986e-06
1.40284e-06
1.40082e-06
1.40009e-06
1.40125e-06
1.40436e-06
1.40728e-06
1.41215e-06
1.41883e-06
1.42693e-06
1.43718e-06
1.37119e-06
3.19422e-07
3.20641e-07
3.2231e-07
3.24249e-07
3.26339e-07
3.28539e-07
3.30865e-07
3.3336e-07
3.36037e-07
3.38887e-07
3.41889e-07
3.45042e-07
3.48343e-07
3.51783e-07
3.55357e-07
3.59056e-07
3.62867e-07
3.66779e-07
3.70787e-07
3.74884e-07
3.7906e-07
3.83304e-07
3.87605e-07
3.91964e-07
3.96373e-07
4.00816e-07
4.05294e-07
4.09803e-07
4.14336e-07
4.18883e-07
4.23448e-07
4.28028e-07
4.32606e-07
4.37198e-07
4.41783e-07
4.4637e-07
4.50953e-07
4.55541e-07
4.60126e-07
4.64702e-07
4.69273e-07
4.73845e-07
4.78523e-07
4.83204e-07
4.87885e-07
4.92574e-07
4.97274e-07
5.0199e-07
5.06734e-07
5.13991e-07
2.54344e-06
5.23596e-07
2.61436e-06
2.64071e-06
2.66741e-06
2.69441e-06
2.72177e-06
2.74949e-06
2.77763e-06
2.80617e-06
2.83518e-06
2.86471e-06
2.89474e-06
2.92532e-06
2.95644e-06
2.98818e-06
3.02058e-06
3.0536e-06
3.08725e-06
3.12153e-06
3.15649e-06
3.19211e-06
3.22838e-06
3.26525e-06
3.30271e-06
3.34078e-06
3.37948e-06
3.41876e-06
3.45856e-06
3.49886e-06
3.53964e-06
3.58086e-06
3.62247e-06
3.66447e-06
3.70685e-06
3.7496e-06
3.79262e-06
3.8357e-06
3.87861e-06
3.92112e-06
3.96309e-06
4.0044e-06
4.04485e-06
4.08423e-06
4.12227e-06
4.15875e-06
4.19345e-06
4.22609e-06
4.22261e-06
8.45551e-07
8.50803e-07
8.55609e-07
8.59915e-07
8.63684e-07
8.66899e-07
8.69557e-07
8.71612e-07
8.73057e-07
8.79962e-07
4.41952e-06
4.42147e-06
4.38485e-06
8.88725e-07
9.10862e-07
9.47969e-07
9.79701e-07
9.72465e-07
9.19143e-07
8.32074e-07
7.92316e-07
2.54831e-06
8.58178e-07
9.92289e-07
5.57192e-07
1.97893e-07
2.99859e-08
2.0758e-10
3.18692e-08
2.04821e-07
5.72845e-07
1.01429e-06
8.64973e-07
8.73605e-07
3.2434e-06
3.8556e-06
9.45364e-07
9.82645e-07
9.6629e-07
9.05395e-07
8.62464e-07
8.40458e-07
4.12128e-06
4.15381e-06
4.14652e-06
8.27408e-07
8.20382e-07
8.18752e-07
8.17213e-07
8.15743e-07
8.14213e-07
8.12439e-07
8.10307e-07
8.07755e-07
8.04777e-07
4.02552e-06
4.04407e-06
4.02364e-06
4.00082e-06
3.97592e-06
3.94917e-06
3.9208e-06
3.89105e-06
3.86006e-06
3.82802e-06
3.79506e-06
3.76134e-06
3.72704e-06
3.69243e-06
3.65766e-06
3.62285e-06
3.58802e-06
3.55328e-06
3.51859e-06
3.48405e-06
3.44965e-06
3.41549e-06
3.38158e-06
3.34806e-06
3.31492e-06
3.28229e-06
3.25018e-06
3.21867e-06
3.18769e-06
3.15731e-06
3.12749e-06
3.09824e-06
3.06949e-06
3.0412e-06
3.01336e-06
2.98593e-06
2.95882e-06
2.93204e-06
2.90552e-06
2.87925e-06
2.8532e-06
2.82731e-06
2.80158e-06
2.776e-06
2.75061e-06
5.47831e-07
5.40318e-07
5.35641e-07
5.30987e-07
5.26342e-07
5.21713e-07
5.17096e-07
5.12487e-07
5.07881e-07
5.0328e-07
4.98682e-07
4.94083e-07
4.89486e-07
4.84892e-07
4.80302e-07
4.75713e-07
4.71174e-07
4.66684e-07
4.62205e-07
4.57736e-07
4.53266e-07
4.48809e-07
4.44362e-07
4.39931e-07
4.35517e-07
4.31129e-07
4.2676e-07
4.22421e-07
4.18117e-07
4.1385e-07
4.09611e-07
4.05425e-07
4.01283e-07
3.97195e-07
3.9316e-07
3.89189e-07
3.85288e-07
3.81459e-07
3.77706e-07
3.7403e-07
3.70449e-07
3.66965e-07
3.63581e-07
3.60305e-07
3.5714e-07
3.54085e-07
3.51169e-07
3.48407e-07
3.45787e-07
3.43265e-07
3.40827e-07
3.38532e-07
3.36535e-07
3.34904e-07
3.3356e-07
3.32074e-07
3.30236e-07
3.28298e-07
3.26296e-07
3.25307e-07
3.26094e-07
3.28085e-07
3.31361e-07
3.33828e-07
3.345e-07
3.33049e-07
3.32288e-07
3.14264e-07
3.08681e-07
9.50846e-07
6.24118e-07
8.79512e-08
1.95309e-08
1.8828e-08
8.95823e-08
1.73141e-07
5.3837e-07
2.09611e-06
6.64614e-07
2.04087e-07
8.67105e-08
9.27113e-08
4.26312e-07
1.93543e-06
2.74948e-06
3.155e-06
3.62291e-06
3.78671e-06
3.78023e-06
3.78806e-06
3.78412e-06
3.76519e-06
3.75019e-06
3.75056e-06
3.76007e-06
3.77978e-06
3.80583e-06
3.83151e-06
3.85344e-06
3.68273e-06
1.37206e-06
1.37693e-06
1.38408e-06
1.39259e-06
1.40174e-06
1.4113e-06
1.4214e-06
1.43226e-06
1.44395e-06
1.45641e-06
1.46954e-06
1.48333e-06
1.49778e-06
1.51285e-06
1.52851e-06
1.54472e-06
1.56142e-06
1.57857e-06
1.59615e-06
1.61412e-06
1.63243e-06
1.65105e-06
1.66993e-06
1.68906e-06
1.70842e-06
1.72794e-06
1.74762e-06
1.76744e-06
1.78737e-06
1.80738e-06
1.82747e-06
1.84764e-06
1.86781e-06
1.88804e-06
1.90826e-06
1.92852e-06
1.94877e-06
1.96903e-06
1.98929e-06
2.00955e-06
2.02978e-06
2.05003e-06
2.07047e-06
2.09092e-06
2.11139e-06
2.13191e-06
2.1525e-06
2.17316e-06
2.19405e-06
2.22766e-06
6.44922e-06
2.26986e-06
6.61035e-06
6.66963e-06
6.72967e-06
6.79031e-06
6.85159e-06
6.91357e-06
6.97632e-06
7.03986e-06
7.1043e-06
7.16973e-06
7.23615e-06
7.30362e-06
7.37216e-06
7.44188e-06
7.51288e-06
7.58504e-06
7.65843e-06
7.73304e-06
7.80895e-06
7.88612e-06
7.96449e-06
8.04399e-06
8.12459e-06
8.20633e-06
8.28923e-06
8.37314e-06
8.45797e-06
8.54367e-06
8.63018e-06
8.71742e-06
8.80528e-06
8.89377e-06
8.98283e-06
9.07239e-06
9.16219e-06
9.25188e-06
9.34091e-06
9.42894e-06
9.51567e-06
9.60085e-06
9.68403e-06
9.76485e-06
9.84277e-06
9.91742e-06
9.98836e-06
1.00545e-05
1.00475e-05
3.69437e-06
3.71761e-06
3.73878e-06
3.75767e-06
3.77413e-06
3.7881e-06
3.79958e-06
3.80836e-06
3.81476e-06
3.84831e-06
1.04315e-05
1.04243e-05
1.03329e-05
3.89381e-06
4.0164e-06
4.24264e-06
4.46936e-06
4.50014e-06
4.28816e-06
3.88785e-06
3.45909e-06
5.08086e-06
2.46189e-06
1.99126e-06
1.00263e-06
3.2843e-07
5.22033e-08
7.12285e-10
5.49741e-08
3.38656e-07
1.03082e-06
2.03541e-06
2.49733e-06
3.09286e-06
6.72489e-06
8.12775e-06
4.40981e-06
4.53976e-06
4.37479e-06
3.99674e-06
3.76907e-06
3.66736e-06
9.87759e-06
9.9455e-06
9.93294e-06
3.6122e-06
3.57919e-06
3.57184e-06
3.56512e-06
3.55869e-06
3.55205e-06
3.54436e-06
3.53508e-06
3.52394e-06
3.51087e-06
9.64742e-06
9.68137e-06
9.63734e-06
9.58809e-06
9.53477e-06
9.47785e-06
9.4176e-06
9.35463e-06
9.2891e-06
9.22142e-06
9.15185e-06
9.08073e-06
9.00827e-06
8.93512e-06
8.86144e-06
8.78762e-06
8.71362e-06
8.63974e-06
8.56586e-06
8.49225e-06
8.41882e-06
8.34583e-06
8.27324e-06
8.20135e-06
8.13016e-06
8.05994e-06
7.99065e-06
7.92252e-06
7.8554e-06
7.78946e-06
7.72457e-06
7.66084e-06
7.59805e-06
7.53623e-06
7.47527e-06
7.41511e-06
7.35564e-06
7.29679e-06
7.23846e-06
7.18065e-06
7.12323e-06
7.06611e-06
7.00929e-06
6.9527e-06
6.89662e-06
2.37505e-06
2.34006e-06
2.31936e-06
2.2989e-06
2.27849e-06
2.25815e-06
2.23788e-06
2.21764e-06
2.19741e-06
2.17722e-06
2.15705e-06
2.13688e-06
2.11672e-06
2.0966e-06
2.07648e-06
2.05637e-06
2.03635e-06
2.01644e-06
1.99656e-06
1.97673e-06
1.95692e-06
1.93719e-06
1.9175e-06
1.8979e-06
1.87838e-06
1.85898e-06
1.83968e-06
1.82052e-06
1.80152e-06
1.7827e-06
1.76402e-06
1.74559e-06
1.72734e-06
1.70935e-06
1.69161e-06
1.67415e-06
1.65701e-06
1.6402e-06
1.62373e-06
1.60762e-06
1.59193e-06
1.57667e-06
1.56186e-06
1.54754e-06
1.53371e-06
1.52036e-06
1.50764e-06
1.49561e-06
1.48424e-06
1.47326e-06
1.46256e-06
1.45245e-06
1.44382e-06
1.43708e-06
1.43175e-06
1.42534e-06
1.4165e-06
1.40631e-06
1.39605e-06
1.39205e-06
1.39748e-06
1.4099e-06
1.42849e-06
1.44035e-06
1.43782e-06
1.41963e-06
1.39483e-06
1.28037e-06
1.24744e-06
2.43155e-06
2.06114e-06
4.72875e-07
7.89354e-08
7.81186e-08
2.33195e-07
7.08855e-07
2.35355e-06
6.58557e-06
2.30604e-06
5.07896e-07
2.38437e-07
3.2076e-07
1.79425e-06
4.62176e-06
5.60971e-06
6.48791e-06
7.51323e-06
7.92192e-06
7.96643e-06
7.99667e-06
7.97379e-06
7.90779e-06
7.85627e-06
7.85184e-06
7.87978e-06
7.93412e-06
7.99953e-06
8.05558e-06
8.09157e-06
7.81583e-06
4.79599e-06
4.81269e-06
4.83804e-06
4.86858e-06
4.90124e-06
4.93508e-06
4.97066e-06
5.00901e-06
5.05033e-06
5.09437e-06
5.14071e-06
5.18933e-06
5.24021e-06
5.29324e-06
5.34825e-06
5.40514e-06
5.46369e-06
5.52377e-06
5.58528e-06
5.64809e-06
5.71203e-06
5.77697e-06
5.84277e-06
5.90934e-06
5.9767e-06
6.04454e-06
6.1129e-06
6.18167e-06
6.25077e-06
6.3201e-06
6.38966e-06
6.45945e-06
6.52919e-06
6.59913e-06
6.66898e-06
6.73895e-06
6.80883e-06
6.87872e-06
6.94857e-06
7.01836e-06
7.08809e-06
7.15785e-06
7.22789e-06
7.29795e-06
7.36807e-06
7.43831e-06
7.50873e-06
7.57938e-06
7.6511e-06
7.76093e-06
1.30077e-05
7.90515e-06
1.32906e-05
1.33994e-05
1.35101e-05
1.36215e-05
1.3734e-05
1.38475e-05
1.39623e-05
1.40783e-05
1.41957e-05
1.43147e-05
1.44353e-05
1.45575e-05
1.46815e-05
1.48074e-05
1.49352e-05
1.50649e-05
1.51966e-05
1.53303e-05
1.5466e-05
1.56037e-05
1.57433e-05
1.58847e-05
1.60278e-05
1.61728e-05
1.63195e-05
1.64677e-05
1.66173e-05
1.67683e-05
1.69203e-05
1.70734e-05
1.72274e-05
1.73823e-05
1.75378e-05
1.76938e-05
1.78498e-05
1.80053e-05
1.81592e-05
1.83114e-05
1.84612e-05
1.86081e-05
1.87515e-05
1.88908e-05
1.9025e-05
1.91538e-05
1.92763e-05
1.93905e-05
1.94085e-05
1.25834e-05
1.26556e-05
1.2721e-05
1.2779e-05
1.28291e-05
1.28708e-05
1.29041e-05
1.29276e-05
1.29417e-05
1.30104e-05
2.00116e-05
1.99731e-05
1.98174e-05
1.30159e-05
1.31433e-05
1.32687e-05
1.31505e-05
1.25382e-05
1.14554e-05
1.00093e-05
8.36907e-06
8.34071e-06
4.6962e-06
3.07148e-06
1.3877e-06
4.2311e-07
7.25376e-08
2.10576e-09
7.56102e-08
4.341e-07
1.42651e-06
3.13863e-06
4.7737e-06
6.702e-06
1.13418e-05
1.39648e-05
1.17179e-05
1.27399e-05
1.32031e-05
1.30358e-05
1.27394e-05
1.25114e-05
1.92449e-05
1.93337e-05
1.93174e-05
1.23499e-05
1.22612e-05
1.22358e-05
1.22115e-05
1.21874e-05
1.21626e-05
1.21343e-05
1.21011e-05
1.20622e-05
1.20173e-05
1.87339e-05
1.8754e-05
1.8671e-05
1.85796e-05
1.84818e-05
1.83786e-05
1.827e-05
1.81572e-05
1.80402e-05
1.79199e-05
1.77965e-05
1.76707e-05
1.75426e-05
1.74133e-05
1.72829e-05
1.71522e-05
1.70212e-05
1.68904e-05
1.67595e-05
1.66292e-05
1.64991e-05
1.63698e-05
1.62411e-05
1.61135e-05
1.5987e-05
1.58621e-05
1.57386e-05
1.5617e-05
1.54969e-05
1.53788e-05
1.52624e-05
1.51479e-05
1.50349e-05
1.49237e-05
1.48138e-05
1.47053e-05
1.4598e-05
1.44918e-05
1.43866e-05
1.42822e-05
1.41786e-05
1.40754e-05
1.39727e-05
1.38705e-05
1.37696e-05
8.25468e-06
8.1423e-06
8.07169e-06
8.00209e-06
7.93261e-06
7.86331e-06
7.79419e-06
7.72514e-06
7.6561e-06
7.58706e-06
7.51808e-06
7.44906e-06
7.38002e-06
7.31098e-06
7.24197e-06
7.17295e-06
7.10403e-06
7.03528e-06
6.9666e-06
6.89805e-06
6.8295e-06
6.76123e-06
6.693e-06
6.62509e-06
6.5574e-06
6.49006e-06
6.42306e-06
6.3565e-06
6.29043e-06
6.22495e-06
6.15991e-06
6.09573e-06
6.03211e-06
5.96939e-06
5.90751e-06
5.84657e-06
5.78669e-06
5.72793e-06
5.67038e-06
5.61401e-06
5.55908e-06
5.50563e-06
5.45375e-06
5.40355e-06
5.35501e-06
5.30814e-06
5.26345e-06
5.22127e-06
5.18139e-06
5.1427e-06
5.1047e-06
5.0687e-06
5.03851e-06
5.01575e-06
4.99816e-06
4.97501e-06
4.94037e-06
4.89796e-06
4.85743e-06
4.84583e-06
4.87157e-06
4.92666e-06
5.00436e-06
5.04597e-06
5.01015e-06
4.89237e-06
4.7186e-06
4.2108e-06
4.0102e-06
5.24447e-06
4.92718e-06
1.96648e-06
2.78778e-07
2.25285e-07
5.89285e-07
2.47962e-06
7.39236e-06
1.60403e-05
6.53541e-06
1.34563e-06
5.22915e-07
9.91169e-07
6.1306e-06
8.92402e-06
1.00604e-05
1.18315e-05
1.36513e-05
1.43953e-05
1.44816e-05
1.45021e-05
1.44177e-05
1.4273e-05
1.41757e-05
1.41771e-05
1.42465e-05
1.43625e-05
1.44878e-05
1.45842e-05
1.46405e-05
1.4348e-05
1.16754e-05
1.17235e-05
1.17883e-05
1.18619e-05
1.19383e-05
1.20173e-05
1.21012e-05
1.21921e-05
1.22899e-05
1.23937e-05
1.25029e-05
1.26174e-05
1.27372e-05
1.28619e-05
1.29912e-05
1.31247e-05
1.32619e-05
1.34026e-05
1.35464e-05
1.3693e-05
1.3842e-05
1.39932e-05
1.41461e-05
1.43007e-05
1.44569e-05
1.4614e-05
1.47722e-05
1.4931e-05
1.50905e-05
1.52503e-05
1.54104e-05
1.5571e-05
1.57312e-05
1.58917e-05
1.60519e-05
1.62122e-05
1.6372e-05
1.65317e-05
1.66912e-05
1.68504e-05
1.70094e-05
1.71683e-05
1.73273e-05
1.74862e-05
1.76451e-05
1.7804e-05
1.79632e-05
1.81227e-05
1.82828e-05
1.84903e-05
2.30167e-05
1.88127e-05
2.34541e-05
2.3637e-05
2.38235e-05
2.40112e-05
2.42001e-05
2.43907e-05
2.45829e-05
2.47769e-05
2.49728e-05
2.51709e-05
2.53713e-05
2.55741e-05
2.57794e-05
2.59873e-05
2.6198e-05
2.64112e-05
2.66272e-05
2.68461e-05
2.70679e-05
2.72924e-05
2.75195e-05
2.7749e-05
2.79812e-05
2.82158e-05
2.84526e-05
2.86913e-05
2.89318e-05
2.9174e-05
2.94174e-05
2.96619e-05
2.99074e-05
3.01538e-05
3.04005e-05
3.06473e-05
3.08931e-05
3.11371e-05
3.13783e-05
3.16165e-05
3.18508e-05
3.20806e-05
3.23047e-05
3.25224e-05
3.27327e-05
3.2935e-05
3.31281e-05
3.33099e-05
3.33982e-05
2.83404e-05
2.84815e-05
2.86095e-05
2.87226e-05
2.88187e-05
2.88964e-05
2.89534e-05
2.89849e-05
2.89871e-05
2.90257e-05
3.42053e-05
3.40726e-05
3.37868e-05
2.84748e-05
2.81619e-05
2.7514e-05
2.62343e-05
2.41665e-05
2.14704e-05
1.8265e-05
1.46419e-05
1.19592e-05
6.96437e-06
3.903e-06
1.57263e-06
4.53394e-07
8.72223e-08
5.54223e-09
8.99119e-08
4.62051e-07
1.61647e-06
3.98635e-06
7.08184e-06
1.09253e-05
1.68446e-05
2.12318e-05
2.18803e-05
2.4655e-05
2.67421e-05
2.7816e-05
2.82174e-05
2.82886e-05
3.34637e-05
3.35827e-05
3.35784e-05
2.82701e-05
2.81387e-05
2.80618e-05
2.79756e-05
2.78854e-05
2.77931e-05
2.76962e-05
2.75929e-05
2.74827e-05
2.73647e-05
3.24024e-05
3.23518e-05
3.22012e-05
3.20408e-05
3.18726e-05
3.16978e-05
3.15159e-05
3.13287e-05
3.11361e-05
3.09391e-05
3.07381e-05
3.05342e-05
3.03269e-05
3.01176e-05
2.99065e-05
2.96951e-05
2.94829e-05
2.92712e-05
2.90594e-05
2.88486e-05
2.86381e-05
2.8429e-05
2.82207e-05
2.80143e-05
2.78092e-05
2.76064e-05
2.74054e-05
2.72071e-05
2.70109e-05
2.68176e-05
2.66264e-05
2.64384e-05
2.62525e-05
2.60693e-05
2.58883e-05
2.57094e-05
2.55326e-05
2.53575e-05
2.51841e-05
2.50121e-05
2.48413e-05
2.46713e-05
2.45022e-05
2.43337e-05
2.41684e-05
1.94811e-05
1.92793e-05
1.91295e-05
1.89804e-05
1.88313e-05
1.86823e-05
1.85334e-05
1.83845e-05
1.82354e-05
1.80861e-05
1.79367e-05
1.7787e-05
1.76372e-05
1.74871e-05
1.73369e-05
1.71866e-05
1.70362e-05
1.68859e-05
1.67357e-05
1.65856e-05
1.64355e-05
1.62859e-05
1.61363e-05
1.59875e-05
1.58391e-05
1.56915e-05
1.55446e-05
1.53986e-05
1.52537e-05
1.51101e-05
1.49675e-05
1.48267e-05
1.46872e-05
1.45497e-05
1.4414e-05
1.42803e-05
1.41489e-05
1.40199e-05
1.38934e-05
1.37695e-05
1.36487e-05
1.35311e-05
1.34167e-05
1.3306e-05
1.31989e-05
1.30952e-05
1.29958e-05
1.29018e-05
1.28132e-05
1.27279e-05
1.26436e-05
1.25613e-05
1.24885e-05
1.24314e-05
1.23903e-05
1.23457e-05
1.22787e-05
1.21877e-05
1.20798e-05
1.20073e-05
1.2004e-05
1.20738e-05
1.2224e-05
1.23634e-05
1.23886e-05
1.22603e-05
1.2006e-05
1.09713e-05
9.80575e-06
9.93271e-06
9.56997e-06
6.60067e-06
8.84681e-07
5.83572e-07
1.57515e-06
7.06482e-06
1.79127e-05
3.17458e-05
1.53739e-05
3.3945e-06
1.08774e-06
2.81599e-06
1.31202e-05
1.48631e-05
1.63574e-05
1.98756e-05
2.26957e-05
2.36187e-05
2.36279e-05
2.35567e-05
2.33659e-05
2.31407e-05
2.303e-05
2.30789e-05
2.32264e-05
2.34275e-05
2.36199e-05
2.37563e-05
2.38404e-05
2.36221e-05
2.17745e-05
2.18736e-05
2.19958e-05
2.21283e-05
2.22641e-05
2.24052e-05
2.25562e-05
2.27197e-05
2.28949e-05
2.30804e-05
2.32751e-05
2.34792e-05
2.36924e-05
2.39141e-05
2.41436e-05
2.43801e-05
2.46229e-05
2.48715e-05
2.51253e-05
2.53836e-05
2.5646e-05
2.59118e-05
2.61805e-05
2.64518e-05
2.67256e-05
2.70009e-05
2.72778e-05
2.75557e-05
2.78344e-05
2.81137e-05
2.83933e-05
2.86735e-05
2.8953e-05
2.92329e-05
2.9512e-05
2.97912e-05
3.00694e-05
3.03473e-05
3.06246e-05
3.09015e-05
3.11778e-05
3.14538e-05
3.17296e-05
3.2005e-05
3.22802e-05
3.25553e-05
3.28307e-05
3.3106e-05
3.33807e-05
3.36942e-05
3.69068e-05
3.42471e-05
3.75376e-05
3.7821e-05
3.81097e-05
3.83994e-05
3.86907e-05
3.89837e-05
3.92787e-05
3.95758e-05
3.98751e-05
4.01771e-05
4.04817e-05
4.07892e-05
4.10997e-05
4.14133e-05
4.173e-05
4.20496e-05
4.23726e-05
4.26991e-05
4.30291e-05
4.33621e-05
4.36977e-05
4.40364e-05
4.43781e-05
4.47228e-05
4.50693e-05
4.54176e-05
4.57676e-05
4.6119e-05
4.64712e-05
4.68241e-05
4.71773e-05
4.75308e-05
4.78835e-05
4.82348e-05
4.85828e-05
4.8927e-05
4.92663e-05
4.9601e-05
4.99299e-05
5.02525e-05
5.05667e-05
5.08724e-05
5.1168e-05
5.14534e-05
5.17268e-05
5.19862e-05
5.21683e-05
4.92261e-05
4.94398e-05
4.96338e-05
4.98042e-05
4.99462e-05
5.00558e-05
5.01265e-05
5.01475e-05
5.01071e-05
5.00454e-05
5.30477e-05
5.27124e-05
5.2136e-05
4.82629e-05
4.70178e-05
4.49491e-05
4.181e-05
3.7645e-05
3.27698e-05
2.72665e-05
2.11059e-05
1.53357e-05
8.66792e-06
4.23179e-06
1.5024e-06
4.23651e-07
9.62928e-08
1.31405e-08
9.81288e-08
4.27894e-07
1.54476e-06
4.31879e-06
8.81102e-06
1.48461e-05
2.2579e-05
2.92614e-05
3.33185e-05
3.8496e-05
4.30068e-05
4.62518e-05
4.81872e-05
4.91202e-05
5.26671e-05
5.2921e-05
5.29857e-05
4.97406e-05
4.95891e-05
4.94379e-05
4.92537e-05
4.9054e-05
4.88484e-05
4.86381e-05
4.84228e-05
4.82027e-05
4.79772e-05
5.09088e-05
5.07422e-05
5.04958e-05
5.02404e-05
4.99779e-05
4.97091e-05
4.94327e-05
4.91511e-05
4.88636e-05
4.85715e-05
4.82753e-05
4.79761e-05
4.76724e-05
4.73661e-05
4.70568e-05
4.67469e-05
4.64358e-05
4.61252e-05
4.58144e-05
4.55051e-05
4.51963e-05
4.48896e-05
4.45837e-05
4.42803e-05
4.39783e-05
4.36791e-05
4.33815e-05
4.30873e-05
4.27953e-05
4.25069e-05
4.2221e-05
4.19392e-05
4.16599e-05
4.13847e-05
4.1112e-05
4.08426e-05
4.05759e-05
4.03119e-05
4.00503e-05
3.97909e-05
3.95333e-05
3.92771e-05
3.9022e-05
3.87678e-05
3.85188e-05
3.52466e-05
3.49571e-05
3.47117e-05
3.44662e-05
3.42199e-05
3.39737e-05
3.37271e-05
3.34804e-05
3.32328e-05
3.2985e-05
3.27366e-05
3.24875e-05
3.22378e-05
3.19876e-05
3.1737e-05
3.1486e-05
3.12347e-05
3.09832e-05
3.07316e-05
3.04802e-05
3.02287e-05
2.9978e-05
2.97274e-05
2.94779e-05
2.92292e-05
2.89817e-05
2.87355e-05
2.84907e-05
2.82478e-05
2.8007e-05
2.7768e-05
2.7532e-05
2.72982e-05
2.70676e-05
2.684e-05
2.66158e-05
2.63951e-05
2.61785e-05
2.59661e-05
2.57578e-05
2.55545e-05
2.53563e-05
2.51634e-05
2.49765e-05
2.47954e-05
2.46198e-05
2.44508e-05
2.42901e-05
2.41388e-05
2.3994e-05
2.38514e-05
2.37096e-05
2.35783e-05
2.34694e-05
2.33904e-05
2.33192e-05
2.32225e-05
2.30863e-05
2.29002e-05
2.27279e-05
2.26352e-05
2.26546e-05
2.28308e-05
2.30812e-05
2.32482e-05
2.32486e-05
2.31158e-05
2.18644e-05
1.92469e-05
1.68108e-05
1.60601e-05
1.40203e-05
2.5914e-06
1.17432e-06
3.989e-06
1.66476e-05
3.51264e-05
5.31556e-05
3.0524e-05
7.85571e-06
2.19083e-06
7.42627e-06
2.17867e-05
2.22865e-05
2.48393e-05
3.07215e-05
3.44127e-05
3.52187e-05
3.50206e-05
3.47902e-05
3.44832e-05
3.42169e-05
3.4156e-05
3.4306e-05
3.45638e-05
3.48582e-05
3.511e-05
3.5279e-05
3.53952e-05
3.52947e-05
3.42525e-05
3.4417e-05
3.46083e-05
3.48094e-05
3.50144e-05
3.52289e-05
3.54594e-05
3.57083e-05
3.59738e-05
3.62538e-05
3.65474e-05
3.68545e-05
3.7175e-05
3.75074e-05
3.78509e-05
3.82044e-05
3.85668e-05
3.89373e-05
3.9315e-05
3.96991e-05
4.00887e-05
4.04831e-05
4.08814e-05
4.12834e-05
4.16888e-05
4.20962e-05
4.25057e-05
4.29167e-05
4.33287e-05
4.37415e-05
4.41547e-05