/*--------------------------------*- C++ -*----------------------------------*\
| =========                 |                                                 |
| \\      /  F ield         | OpenFOAM: The Open Source CFD Toolbox           |
|  \\    /   O peration     | Version:  2412                                  |
|   \\  /    A nd           | Website:  www.openfoam.com                      |
|    \\/     M anipulation  |                                                 |
\*---------------------------------------------------------------------------*/
FoamFile
{
    version     2.0;
    format      ascii;
    arch        "LSB;label=32;scalar=64";
    class       volScalarField;
    location    "80";
    object      nuTilda;
}
// * * * * * * * * * * * * * * * * * * * * * * * * * * * * * * * * * * * * * //

dimensions      [0 2 -1 0 0 0 0];

internalField   nonuniform List<scalar> 
32591
(
2.83712e-06
3.27266e-06
2.49787e-06
1.34327e-06
1.71966e-06
2.3015e-06
2.42054e-06
4.45164e-06
4.86583e-06
4.87527e-06
4.70654e-06
4.59129e-06
4.52609e-06
4.50617e-06
4.52778e-06
4.56454e-06
4.58717e-06
4.59389e-06
4.59048e-06
4.58098e-06
4.57698e-06
4.58687e-06
4.58329e-06
3.05732e-06
3.06201e-06
3.06523e-06
3.06798e-06
3.07158e-06
3.07607e-06
3.0809e-06
3.08566e-06
3.0904e-06
3.09528e-06
3.10031e-06
3.10544e-06
3.11064e-06
3.11587e-06
3.12114e-06
3.12643e-06
3.13171e-06
3.13697e-06
3.14219e-06
3.14739e-06
3.15254e-06
3.1576e-06
3.16258e-06
3.1675e-06
3.17236e-06
3.17713e-06
3.18177e-06
3.18631e-06
3.19075e-06
3.19505e-06
3.19925e-06
3.20334e-06
3.20729e-06
3.21113e-06
3.21486e-06
3.21844e-06
3.22191e-06
3.22528e-06
3.22856e-06
3.23171e-06
3.23473e-06
3.23765e-06
3.24064e-06
3.24351e-06
3.24627e-06
3.24896e-06
3.25153e-06
3.25399e-06
3.2563e-06
3.25923e-06
5.56773e-06
3.26359e-06
5.61296e-06
5.63395e-06
5.65497e-06
5.6762e-06
5.6977e-06
5.7194e-06
5.74137e-06
5.76356e-06
5.78607e-06
5.80895e-06
5.83213e-06
5.85566e-06
5.87951e-06
5.90376e-06
5.92846e-06
5.95351e-06
5.97895e-06
6.00481e-06
6.03107e-06
6.05771e-06
6.08475e-06
6.11209e-06
6.13973e-06
6.1677e-06
6.196e-06
6.2246e-06
6.25346e-06
6.28249e-06
6.3117e-06
6.34106e-06
6.3706e-06
6.40025e-06
6.43e-06
6.45983e-06
6.4897e-06
6.51951e-06
6.54905e-06
6.57813e-06
6.60673e-06
6.63471e-06
6.662e-06
6.68849e-06
6.71392e-06
6.73821e-06
6.76127e-06
6.78313e-06
6.79652e-06
3.32748e-06
3.32892e-06
3.33031e-06
3.33166e-06
3.33295e-06
3.33419e-06
3.33541e-06
3.33668e-06
3.33788e-06
3.34044e-06
6.92116e-06
6.92755e-06
6.93295e-06
3.35222e-06
3.3623e-06
3.37617e-06
3.39103e-06
3.40321e-06
3.41667e-06
3.44963e-06
3.53283e-06
6.56259e-06
3.84149e-06
5.3009e-06
5.0224e-06
4.20551e-06
2.61509e-06
4.97157e-07
2.67033e-06
4.24742e-06
5.05351e-06
5.32649e-06
3.83615e-06
3.63308e-06
6.80112e-06
7.05808e-06
3.42176e-06
3.40135e-06
3.38357e-06
3.3617e-06
3.34329e-06
3.33208e-06
6.73037e-06
6.73048e-06
6.72381e-06
3.32424e-06
3.32012e-06
3.31971e-06
3.31944e-06
3.31935e-06
3.31926e-06
3.31913e-06
3.31894e-06
3.31866e-06
3.31828e-06
6.66575e-06
6.66505e-06
6.65177e-06
6.63703e-06
6.62079e-06
6.6032e-06
6.58437e-06
6.56451e-06
6.54369e-06
6.52202e-06
6.49961e-06
6.47652e-06
6.4529e-06
6.42898e-06
6.40484e-06
6.38051e-06
6.35603e-06
6.33148e-06
6.3069e-06
6.28229e-06
6.25763e-06
6.23297e-06
6.20842e-06
6.18402e-06
6.15981e-06
6.13589e-06
6.11227e-06
6.08898e-06
6.06603e-06
6.04342e-06
6.02116e-06
5.99928e-06
5.97769e-06
5.95633e-06
5.93526e-06
5.91442e-06
5.89373e-06
5.8732e-06
5.85277e-06
5.83249e-06
5.81231e-06
5.79214e-06
5.77205e-06
5.75197e-06
5.73196e-06
3.27861e-06
3.27444e-06
3.27267e-06
3.27076e-06
3.26878e-06
3.26671e-06
3.26457e-06
3.26234e-06
3.26e-06
3.25756e-06
3.25504e-06
3.25241e-06
3.24967e-06
3.24684e-06
3.2439e-06
3.24082e-06
3.23771e-06
3.23457e-06
3.23131e-06
3.22794e-06
3.22443e-06
3.22078e-06
3.21705e-06
3.21314e-06
3.20913e-06
3.20501e-06
3.20074e-06
3.19636e-06
3.19188e-06
3.18724e-06
3.1825e-06
3.17765e-06
3.1728e-06
3.16782e-06
3.16274e-06
3.15759e-06
3.15238e-06
3.1471e-06
3.14176e-06
3.13638e-06
3.13097e-06
3.12556e-06
3.12012e-06
3.11471e-06
3.10935e-06
3.10409e-06
3.09891e-06
3.09369e-06
3.08835e-06
3.08334e-06
3.07917e-06
3.07583e-06
3.07204e-06
3.06672e-06
3.05975e-06
3.05484e-06
3.05519e-06
3.06278e-06
3.07405e-06
3.07822e-06
3.07168e-06
3.05279e-06
3.02308e-06
3.00893e-06
3.02731e-06
3.08183e-06
3.16135e-06
3.35431e-06
3.55541e-06
4.45822e-06
2.5538e-06
2.2293e-06
1.5009e-06
1.33131e-06
2.59841e-06
3.44083e-06
3.13171e-06
8.60744e-06
9.19777e-06
7.6204e-06
4.00487e-06
5.19819e-06
6.56635e-06
8.87535e-06
1.43447e-05
1.50606e-05
1.53397e-05
1.51247e-05
1.48824e-05
1.47618e-05
1.47306e-05
1.47717e-05
1.48348e-05
1.48746e-05
1.48863e-05
1.48845e-05
1.48766e-05
1.48811e-05
1.49149e-05
1.4823e-05
8.52132e-06
8.53088e-06
8.541e-06
8.5519e-06
8.56414e-06
8.57754e-06
8.59171e-06
8.60643e-06
8.62185e-06
8.63806e-06
8.65495e-06
8.67248e-06
8.69065e-06
8.70933e-06
8.7285e-06
8.74812e-06
8.76812e-06
8.78842e-06
8.80897e-06
8.8298e-06
8.8508e-06
8.87188e-06
8.89302e-06
8.91422e-06
8.93545e-06
8.95663e-06
8.97772e-06
8.99875e-06
9.01969e-06
9.04043e-06
9.06107e-06
9.08156e-06
9.10181e-06
9.12192e-06
9.14181e-06
9.16144e-06
9.18088e-06
9.20016e-06
9.21927e-06
9.23813e-06
9.25675e-06
9.27519e-06
9.29455e-06
9.31369e-06
9.33266e-06
9.35149e-06
9.37017e-06
9.3887e-06
9.40704e-06
9.42845e-06
1.77725e-05
9.46497e-06
1.79111e-05
1.79693e-05
1.80276e-05
1.80863e-05
1.81456e-05
1.82053e-05
1.82657e-05
1.83266e-05
1.83882e-05
1.84506e-05
1.85138e-05
1.85778e-05
1.86426e-05
1.87084e-05
1.87751e-05
1.88428e-05
1.89114e-05
1.8981e-05
1.90515e-05
1.91229e-05
1.91953e-05
1.92684e-05
1.93423e-05
1.94169e-05
1.94923e-05
1.95684e-05
1.9645e-05
1.97221e-05
1.97996e-05
1.98775e-05
1.99557e-05
2.00341e-05
2.01128e-05
2.01917e-05
2.02706e-05
2.03493e-05
2.04273e-05
2.05041e-05
2.05795e-05
2.06533e-05
2.07252e-05
2.0795e-05
2.0862e-05
2.0926e-05
2.09867e-05
2.10442e-05
2.10627e-05
1.04277e-05
1.04407e-05
1.04526e-05
1.04634e-05
1.04728e-05
1.0481e-05
1.04879e-05
1.04937e-05
1.04979e-05
1.05077e-05
2.13987e-05
2.14121e-05
2.13978e-05
1.05427e-05
1.0591e-05
1.066e-05
1.07129e-05
1.06992e-05
1.06034e-05
1.04386e-05
1.03183e-05
1.98838e-05
1.05708e-05
1.55486e-05
1.4314e-05
1.16107e-05
7.16799e-06
1.5382e-06
7.30702e-06
1.17248e-05
1.44084e-05
1.5628e-05
1.05547e-05
1.03377e-05
2.06634e-05
2.14512e-05
1.06531e-05
1.07173e-05
1.06874e-05
1.05758e-05
1.04765e-05
1.0416e-05
2.08824e-05
2.09061e-05
2.08899e-05
1.03714e-05
1.03601e-05
1.03567e-05
1.03535e-05
1.03507e-05
1.03476e-05
1.03439e-05
1.03391e-05
1.03332e-05
1.03262e-05
2.07174e-05
2.07305e-05
2.06952e-05
2.0656e-05
2.06128e-05
2.05661e-05
2.05161e-05
2.04635e-05
2.04083e-05
2.03508e-05
2.02914e-05
2.02302e-05
2.01676e-05
2.01041e-05
2.00401e-05
1.99755e-05
1.99106e-05
1.98454e-05
1.97801e-05
1.97146e-05
1.9649e-05
1.95834e-05
1.95181e-05
1.9453e-05
1.93884e-05
1.93244e-05
1.92612e-05
1.91988e-05
1.91373e-05
1.90766e-05
1.90167e-05
1.89577e-05
1.88995e-05
1.88419e-05
1.87849e-05
1.87285e-05
1.86724e-05
1.86167e-05
1.85612e-05
1.8506e-05
1.8451e-05
1.83959e-05
1.8341e-05
1.82861e-05
1.82312e-05
9.56122e-06
9.5398e-06
9.52273e-06
9.50548e-06
9.48813e-06
9.47066e-06
9.4531e-06
9.43541e-06
9.41753e-06
9.39949e-06
9.38131e-06
9.36296e-06
9.34443e-06
9.32574e-06
9.30689e-06
9.28781e-06
9.26907e-06
9.25066e-06
9.23213e-06
9.21345e-06
9.19452e-06
9.17542e-06
9.15622e-06
9.1368e-06
9.11726e-06
9.09765e-06
9.07786e-06
9.05799e-06
9.03808e-06
9.01806e-06
8.99798e-06
8.97789e-06
8.95784e-06
8.93779e-06
8.91775e-06
8.8978e-06
8.878e-06
8.85834e-06
8.83882e-06
8.81949e-06
8.80045e-06
8.78168e-06
8.76322e-06
8.74518e-06
8.72754e-06
8.71037e-06
8.6938e-06
8.67776e-06
8.66214e-06
8.64715e-06
8.63318e-06
8.62047e-06
8.60868e-06
8.59711e-06
8.58532e-06
8.57437e-06
8.5664e-06
8.56428e-06
8.56524e-06
8.56532e-06
8.56401e-06
8.55672e-06
8.54595e-06
8.5418e-06
8.55661e-06
8.59443e-06
8.67112e-06
8.8335e-06
9.46156e-06
1.41442e-05
9.31229e-06
6.48369e-06
4.66532e-06
3.96698e-06
7.90657e-06
9.58103e-06
9.23958e-06
1.68285e-05
1.4752e-05
1.26496e-05
7.70001e-06
8.82533e-06
1.07908e-05
1.82068e-05
2.42879e-05
2.51101e-05
2.57854e-05
2.57302e-05
2.54824e-05
2.53753e-05
2.53497e-05
2.53807e-05
2.54308e-05
2.54678e-05
2.54825e-05
2.54926e-05
2.55039e-05
2.55289e-05
2.5583e-05
2.5328e-05
1.57492e-05
1.57648e-05
1.57841e-05
1.5806e-05
1.58298e-05
1.58552e-05
1.58819e-05
1.59101e-05
1.594e-05
1.59715e-05
1.60045e-05
1.60389e-05
1.60746e-05
1.61114e-05
1.61493e-05
1.61881e-05
1.62278e-05
1.62682e-05
1.63092e-05
1.63507e-05
1.63927e-05
1.64349e-05
1.64773e-05
1.65199e-05
1.65625e-05
1.66051e-05
1.66476e-05
1.66901e-05
1.67324e-05
1.67745e-05
1.68163e-05
1.68579e-05
1.68991e-05
1.69401e-05
1.69807e-05
1.70208e-05
1.70606e-05
1.71002e-05
1.71394e-05
1.71782e-05
1.72167e-05
1.72548e-05
1.72961e-05
1.73372e-05
1.73779e-05
1.74184e-05
1.74587e-05
1.74988e-05
1.75387e-05
1.75923e-05
3.00423e-05
1.76716e-05
3.02692e-05
3.03569e-05
3.0445e-05
3.05336e-05
3.06228e-05
3.07127e-05
3.08033e-05
3.08948e-05
3.09871e-05
3.10804e-05
3.11749e-05
3.12704e-05
3.1367e-05
3.14649e-05
3.15642e-05
3.16646e-05
3.17664e-05
3.18695e-05
3.19738e-05
3.20793e-05
3.21862e-05
3.2294e-05
3.24027e-05
3.25125e-05
3.26233e-05
3.2735e-05
3.28473e-05
3.29603e-05
3.30738e-05
3.31877e-05
3.33019e-05
3.34163e-05
3.35311e-05
3.3646e-05
3.37609e-05
3.38753e-05
3.39884e-05
3.40998e-05
3.42091e-05
3.43159e-05
3.442e-05
3.45207e-05
3.46174e-05
3.47097e-05
3.47971e-05
3.48795e-05
3.48849e-05
1.9847e-05
1.98767e-05
1.99039e-05
1.99282e-05
1.99495e-05
1.99678e-05
1.99829e-05
1.99949e-05
2.00032e-05
2.00322e-05
3.53735e-05
3.53868e-05
3.53291e-05
2.00892e-05
2.01965e-05
2.03578e-05
2.04777e-05
2.04187e-05
2.01427e-05
1.96776e-05
1.93605e-05
3.19735e-05
2.01733e-05
2.49398e-05
2.22091e-05
1.75186e-05
1.08427e-05
2.6798e-06
1.1032e-05
1.76827e-05
2.23623e-05
2.50751e-05
2.01256e-05
1.95167e-05
3.35068e-05
3.48752e-05
2.027e-05
2.04706e-05
2.04242e-05
2.01628e-05
1.99444e-05
1.98175e-05
3.4619e-05
3.4682e-05
3.4661e-05
1.97309e-05
1.96993e-05
1.96906e-05
1.96823e-05
1.96745e-05
1.96662e-05
1.96565e-05
1.96445e-05
1.963e-05
1.9613e-05
3.43852e-05
3.44225e-05
3.4371e-05
3.43136e-05
3.42505e-05
3.41822e-05
3.41093e-05
3.40324e-05
3.39518e-05
3.3868e-05
3.37811e-05
3.36918e-05
3.36003e-05
3.35075e-05
3.34138e-05
3.33193e-05
3.32242e-05
3.31288e-05
3.30329e-05
3.29368e-05
3.28404e-05
3.27441e-05
3.26479e-05
3.25522e-05
3.2457e-05
3.23627e-05
3.22694e-05
3.21773e-05
3.20863e-05
3.19964e-05
3.19077e-05
3.18202e-05
3.17337e-05
3.16481e-05
3.15633e-05
3.14793e-05
3.13958e-05
3.13127e-05
3.123e-05
3.11476e-05
3.10654e-05
3.09831e-05
3.09009e-05
3.08187e-05
3.07366e-05
1.7872e-05
1.78193e-05
1.77819e-05
1.77443e-05
1.77065e-05
1.76685e-05
1.76304e-05
1.75921e-05
1.75535e-05
1.75147e-05
1.74756e-05
1.74362e-05
1.73966e-05
1.73566e-05
1.73164e-05
1.72759e-05
1.72368e-05
1.7199e-05
1.71611e-05
1.71229e-05
1.70844e-05
1.70456e-05
1.70066e-05
1.69674e-05
1.6928e-05
1.68884e-05
1.68487e-05
1.68089e-05
1.67691e-05
1.67292e-05
1.66893e-05
1.66495e-05
1.66097e-05
1.65701e-05
1.65307e-05
1.64915e-05
1.64527e-05
1.64142e-05
1.63762e-05
1.63386e-05
1.63017e-05
1.62654e-05
1.62298e-05
1.61951e-05
1.61613e-05
1.61285e-05
1.60968e-05
1.60665e-05
1.60374e-05
1.60093e-05
1.59824e-05
1.59573e-05
1.59349e-05
1.59152e-05
1.58973e-05
1.58789e-05
1.58603e-05
1.58452e-05
1.58316e-05
1.58247e-05
1.58299e-05
1.58391e-05
1.5855e-05
1.5869e-05
1.58847e-05
1.59029e-05
1.59592e-05
1.59128e-05
1.61199e-05
2.36404e-05
1.87646e-05
1.09558e-05
8.16535e-06
7.57902e-06
1.30973e-05
1.52196e-05
1.73823e-05
2.74416e-05
2.08077e-05
1.73854e-05
1.24891e-05
1.28934e-05
1.74534e-05
2.87619e-05
3.38488e-05
3.49545e-05
3.60605e-05
3.62792e-05
3.61207e-05
3.60743e-05
3.6061e-05
3.60561e-05
3.60638e-05
3.60844e-05
3.61037e-05
3.61359e-05
3.61798e-05
3.62329e-05
3.62998e-05
3.58631e-05
2.47538e-05
2.47776e-05
2.48101e-05
2.48477e-05
2.4888e-05
2.49303e-05
2.49747e-05
2.50221e-05
2.50727e-05
2.51263e-05
2.51823e-05
2.52408e-05
2.53015e-05
2.53644e-05
2.54293e-05
2.54959e-05
2.5564e-05
2.56334e-05
2.57039e-05
2.57754e-05
2.58477e-05
2.59205e-05
2.59937e-05
2.60673e-05
2.61412e-05
2.6215e-05
2.62887e-05
2.63624e-05
2.64359e-05
2.6509e-05
2.65818e-05
2.66542e-05
2.67261e-05
2.67976e-05
2.68684e-05
2.69388e-05
2.70085e-05
2.70778e-05
2.71466e-05
2.72147e-05
2.72823e-05
2.73493e-05
2.74175e-05
2.74852e-05
2.75524e-05
2.76192e-05
2.76858e-05
2.77521e-05
2.78183e-05
2.79188e-05
4.2098e-05
2.80501e-05
4.24024e-05
4.25141e-05
4.26264e-05
4.27392e-05
4.28526e-05
4.29668e-05
4.30819e-05
4.31978e-05
4.33147e-05
4.34329e-05
4.35522e-05
4.36728e-05
4.37947e-05
4.3918e-05
4.4043e-05
4.41694e-05
4.42972e-05
4.44265e-05
4.45573e-05
4.46895e-05
4.48231e-05
4.49579e-05
4.50937e-05
4.52307e-05
4.53688e-05
4.55078e-05
4.56477e-05
4.57881e-05
4.5929e-05
4.60704e-05
4.62119e-05
4.63537e-05
4.64956e-05
4.66376e-05
4.67794e-05
4.69203e-05
4.70596e-05
4.71965e-05
4.73307e-05
4.74619e-05
4.75894e-05
4.77127e-05
4.7831e-05
4.79438e-05
4.80505e-05
4.81503e-05
4.81396e-05
3.16856e-05
3.17357e-05
3.17813e-05
3.18221e-05
3.18576e-05
3.18878e-05
3.19127e-05
3.1932e-05
3.19455e-05
3.20098e-05
4.87311e-05
4.87368e-05
4.86283e-05
3.20908e-05
3.22931e-05
3.26242e-05
3.29e-05
3.28377e-05
3.23678e-05
3.1556e-05
3.11645e-05
4.21191e-05
3.18056e-05
3.30076e-05
2.84961e-05
2.19397e-05
1.36649e-05
3.93951e-06
1.3875e-05
2.21306e-05
2.86971e-05
3.31933e-05
3.18697e-05
3.19506e-05
4.48781e-05
4.6985e-05
3.26013e-05
3.29252e-05
3.27842e-05
3.22435e-05
3.18461e-05
3.16368e-05
4.78279e-05
4.79286e-05
4.79061e-05
3.15108e-05
3.14423e-05
3.14264e-05
3.14113e-05
3.13969e-05
3.13819e-05
3.13644e-05
3.13434e-05
3.13182e-05
3.12887e-05
4.75285e-05
4.75869e-05
4.75226e-05
4.74505e-05
4.73715e-05
4.72863e-05
4.71955e-05
4.70998e-05
4.69995e-05
4.68953e-05
4.67874e-05
4.66764e-05
4.65628e-05
4.64474e-05
4.63308e-05
4.62132e-05
4.60948e-05
4.59759e-05
4.58564e-05
4.57366e-05
4.56165e-05
4.54963e-05
4.53763e-05
4.52567e-05
4.51377e-05
4.50198e-05
4.49029e-05
4.47874e-05
4.46732e-05
4.45603e-05
4.44489e-05
4.43388e-05
4.42299e-05
4.4122e-05
4.40152e-05
4.39093e-05
4.38039e-05
4.36992e-05
4.35948e-05
4.34908e-05
4.33869e-05
4.3283e-05
4.31792e-05
4.30752e-05
4.29714e-05
2.83739e-05
2.82747e-05
2.82124e-05
2.815e-05
2.80874e-05
2.80245e-05
2.79614e-05
2.78981e-05
2.78343e-05
2.77702e-05
2.77056e-05
2.76407e-05
2.75753e-05
2.75095e-05
2.74433e-05
2.73766e-05
2.73102e-05
2.72441e-05
2.71776e-05
2.71108e-05
2.70435e-05
2.6976e-05
2.69081e-05
2.68399e-05
2.67715e-05
2.67029e-05
2.66342e-05
2.65654e-05
2.64967e-05
2.6428e-05
2.63593e-05
2.62909e-05
2.62227e-05
2.61549e-05
2.60874e-05
2.60205e-05
2.59544e-05
2.58889e-05
2.58243e-05
2.57605e-05
2.5698e-05
2.56367e-05
2.55767e-05
2.55183e-05
2.54615e-05
2.54063e-05
2.53532e-05
2.53027e-05
2.52545e-05
2.52079e-05
2.51625e-05
2.51196e-05
2.50821e-05
2.50514e-05
2.50259e-05
2.49977e-05
2.49627e-05
2.49257e-05
2.48872e-05
2.48681e-05
2.48833e-05
2.49216e-05
2.49842e-05
2.5031e-05
2.50437e-05
2.50163e-05
2.50018e-05
2.46523e-05
2.4541e-05
3.26495e-05
2.93287e-05
1.78952e-05
1.22742e-05
1.21621e-05
1.79779e-05
2.12144e-05
2.82488e-05
4.00252e-05
2.9801e-05
2.21106e-05
1.78315e-05
1.81334e-05
2.66271e-05
3.92041e-05
4.29668e-05
4.45517e-05
4.62134e-05
4.676e-05
4.67387e-05
4.67644e-05
4.67515e-05
4.66891e-05
4.66396e-05
4.66408e-05
4.66722e-05
4.67372e-05
4.68227e-05
4.69066e-05
4.6978e-05
4.6415e-05
3.58689e-05
3.59016e-05
3.59495e-05
3.60063e-05
3.60671e-05
3.61303e-05
3.61966e-05
3.62677e-05
3.63437e-05
3.64243e-05
3.65087e-05
3.65967e-05
3.66883e-05
3.67832e-05
3.6881e-05
3.69815e-05
3.70843e-05
3.71891e-05
3.72956e-05
3.74036e-05
3.75128e-05
3.76229e-05
3.77337e-05
3.7845e-05
3.79567e-05
3.80685e-05
3.81803e-05
3.82919e-05
3.84033e-05
3.85142e-05
3.86247e-05
3.87348e-05
3.8844e-05
3.89527e-05
3.90605e-05
3.91677e-05
3.92741e-05
3.93797e-05
3.94846e-05
3.95886e-05
3.96919e-05
3.97944e-05
3.98973e-05
3.99994e-05
4.0101e-05
4.02021e-05
4.03028e-05
4.04032e-05
4.0504e-05
4.06648e-05
5.39918e-05
4.08643e-05
5.43593e-05
5.4493e-05
5.46276e-05
5.47628e-05
5.48986e-05
5.50352e-05
5.51727e-05
5.53111e-05
5.54506e-05
5.55914e-05
5.57335e-05
5.5877e-05
5.60219e-05
5.61684e-05
5.63167e-05
5.64665e-05
5.6618e-05
5.6771e-05
5.69256e-05
5.70819e-05
5.72396e-05
5.73986e-05
5.75588e-05
5.77202e-05
5.78828e-05
5.80464e-05
5.82107e-05
5.83757e-05
5.85412e-05
5.8707e-05
5.88729e-05
5.9039e-05
5.92051e-05
5.93711e-05
5.95365e-05
5.97007e-05
5.98628e-05
6.0022e-05
6.0178e-05
6.03304e-05
6.04784e-05
6.06214e-05
6.07586e-05
6.08895e-05
6.10132e-05
6.11281e-05
6.1116e-05
4.64539e-05
4.65314e-05
4.66018e-05
4.66643e-05
4.67186e-05
4.67646e-05
4.68023e-05
4.6831e-05
4.6852e-05
4.69614e-05
6.17745e-05
6.17622e-05
6.16068e-05
4.71087e-05
4.74997e-05
4.82006e-05
4.88779e-05
4.89681e-05
4.83386e-05
4.70894e-05
4.56495e-05
5.05958e-05
4.17405e-05
3.94947e-05
3.30952e-05
2.49282e-05
1.5701e-05
5.36189e-06
1.59058e-05
2.5122e-05
3.33309e-05
3.97204e-05
4.18969e-05
4.43185e-05
5.46169e-05
5.7565e-05
4.87023e-05
4.90835e-05
4.85983e-05
4.74376e-05
4.67019e-05
4.63634e-05
6.08197e-05
6.09385e-05
6.09166e-05
4.61771e-05
4.60647e-05
4.60396e-05
4.60165e-05
4.59945e-05
4.59717e-05
4.59453e-05
4.59133e-05
4.58749e-05
4.58297e-05
6.04134e-05
6.04737e-05
6.03954e-05
6.03076e-05
6.02123e-05
6.01101e-05
6.00016e-05
5.98876e-05
5.97686e-05
5.96451e-05
5.95175e-05
5.93865e-05
5.92524e-05
5.91162e-05
5.89784e-05
5.88396e-05
5.86998e-05
5.85594e-05
5.84182e-05
5.82768e-05
5.8135e-05
5.79933e-05
5.78515e-05
5.77104e-05
5.75698e-05
5.74304e-05
5.72921e-05
5.71553e-05
5.70198e-05
5.6886e-05
5.67536e-05
5.66229e-05
5.64935e-05
5.63653e-05
5.62383e-05
5.61123e-05
5.59871e-05
5.58625e-05
5.57385e-05
5.56148e-05
5.54914e-05
5.5368e-05
5.52446e-05
5.5121e-05
5.4998e-05
4.13505e-05
4.11905e-05
4.10951e-05
4.10001e-05
4.09048e-05
4.08093e-05
4.07134e-05
4.06171e-05
4.05202e-05
4.04228e-05
4.0325e-05
4.02264e-05
4.01273e-05
4.00276e-05
3.99274e-05
3.98264e-05
3.97252e-05
3.96239e-05
3.9522e-05
3.94197e-05
3.93167e-05
3.92134e-05
3.91095e-05
3.90054e-05
3.89009e-05
3.87963e-05
3.86914e-05
3.85866e-05
3.84818e-05
3.83773e-05
3.82727e-05
3.81688e-05
3.80651e-05
3.79621e-05
3.78598e-05
3.77583e-05
3.7658e-05
3.75588e-05
3.7461e-05
3.73646e-05
3.72701e-05
3.71775e-05
3.70871e-05
3.6999e-05
3.69133e-05
3.68302e-05
3.67504e-05
3.66746e-05
3.66025e-05
3.65325e-05
3.64639e-05
3.63988e-05
3.63429e-05
3.62991e-05
3.62644e-05
3.62225e-05
3.61645e-05
3.60973e-05
3.60293e-05
3.60027e-05
3.60388e-05
3.6121e-05
3.62431e-05
3.63204e-05
3.6304e-05
3.6185e-05
3.60212e-05
3.52365e-05
3.50014e-05
4.16054e-05
3.98504e-05
2.73351e-05
1.74161e-05
1.73707e-05
2.28656e-05
3.02936e-05
4.12524e-05
5.43032e-05
4.10333e-05
2.78345e-05
2.2994e-05
2.47799e-05
3.84415e-05
4.93202e-05
5.19728e-05
5.40806e-05
5.63175e-05
5.71541e-05
5.72435e-05
5.73041e-05
5.72583e-05
5.71256e-05
5.70216e-05
5.70126e-05
5.70691e-05
5.71786e-05
5.73098e-05
5.74217e-05
5.74933e-05
5.69396e-05
4.98139e-05
4.98606e-05
4.99313e-05
5.00161e-05
5.01064e-05
5.01995e-05
5.02969e-05
5.04014e-05
5.05134e-05
5.06321e-05
5.07563e-05
5.08858e-05
5.10204e-05
5.11598e-05
5.13034e-05
5.14509e-05
5.16016e-05
5.17551e-05
5.19111e-05
5.20693e-05
5.22291e-05
5.23902e-05
5.25523e-05
5.27149e-05
5.28784e-05
5.30417e-05
5.32051e-05
5.33682e-05
5.35309e-05
5.3693e-05
5.38545e-05
5.40153e-05
5.41749e-05
5.43339e-05
5.44915e-05
5.46484e-05
5.48039e-05
5.49585e-05
5.5112e-05
5.52643e-05
5.54156e-05
5.55659e-05
5.57159e-05
5.5865e-05
5.60133e-05
5.6161e-05
5.63081e-05
5.64548e-05
5.66029e-05
5.68279e-05
6.58539e-05
5.71203e-05
6.62716e-05
6.6431e-05
6.65922e-05
6.67538e-05
6.6916e-05
6.70792e-05
6.72432e-05
6.74083e-05
6.75745e-05
6.77422e-05
6.79113e-05
6.8082e-05
6.82542e-05
6.84282e-05
6.86041e-05
6.87817e-05
6.89611e-05
6.91423e-05
6.93254e-05
6.95103e-05
6.96967e-05
6.98846e-05
7.0074e-05
7.02648e-05
7.04569e-05
7.065e-05
7.0844e-05
7.10387e-05
7.12339e-05
7.14295e-05
7.16252e-05
7.18212e-05
7.2017e-05
7.22125e-05
7.2407e-05
7.26e-05
7.27902e-05
7.29774e-05
7.31608e-05
7.334e-05
7.35141e-05
7.36826e-05
7.38443e-05
7.3999e-05
7.41456e-05
7.42817e-05
7.43032e-05
6.52175e-05
6.53267e-05
6.54253e-05
6.55125e-05
6.55875e-05
6.565e-05
6.56997e-05
6.57348e-05
6.57558e-05
6.5858e-05
7.50153e-05
7.49702e-05
7.47872e-05
6.58662e-05
6.60549e-05
6.62395e-05
6.60655e-05
6.51489e-05
6.3461e-05
6.10496e-05
5.80385e-05
5.79833e-05
4.95327e-05
4.42374e-05
3.59737e-05
2.65764e-05
1.70508e-05
7.03112e-06
1.72291e-05
2.67494e-05
3.62301e-05
4.44906e-05
4.97515e-05
5.45657e-05
6.32785e-05
6.72469e-05
6.38786e-05
6.54536e-05
6.61431e-05
6.58957e-05
6.54529e-05
6.51083e-05
7.4108e-05
7.4214e-05
7.41946e-05
6.48618e-05
6.47257e-05
6.46865e-05
6.4649e-05
6.46119e-05
6.45735e-05
6.45299e-05
6.44784e-05
6.44181e-05
6.43483e-05
7.34927e-05
7.35172e-05
7.34165e-05
7.33053e-05
7.3186e-05
7.30598e-05
7.29265e-05
7.27877e-05
7.26432e-05
7.24941e-05
7.23406e-05
7.21836e-05
7.2023e-05
7.18603e-05
7.16955e-05
7.15298e-05
7.13629e-05
7.11955e-05
7.10274e-05
7.08593e-05
7.06907e-05
7.05225e-05
7.03543e-05
7.01869e-05
7.00201e-05
6.98547e-05
6.96905e-05
6.9528e-05
6.9367e-05
6.92079e-05
6.90503e-05
6.88948e-05
6.87406e-05
6.85882e-05
6.8437e-05
6.82871e-05
6.81383e-05
6.79904e-05
6.78431e-05
6.76965e-05
6.75503e-05
6.74041e-05
6.72581e-05
6.7112e-05
6.69673e-05
5.78152e-05
5.75938e-05
5.74538e-05
5.73149e-05
5.71756e-05
5.70358e-05
5.68956e-05
5.67548e-05
5.66132e-05
5.64707e-05
5.63276e-05
5.61835e-05
5.60385e-05
5.58926e-05
5.57459e-05
5.55983e-05
5.545e-05
5.53011e-05
5.51514e-05
5.50011e-05
5.48498e-05
5.46981e-05
5.45455e-05
5.43926e-05
5.42392e-05
5.40855e-05
5.39316e-05
5.37777e-05
5.36238e-05
5.34703e-05
5.33167e-05
5.31641e-05
5.30119e-05
5.28607e-05
5.27105e-05
5.25616e-05
5.24142e-05
5.22687e-05
5.21251e-05
5.19836e-05
5.18448e-05
5.17089e-05
5.15761e-05
5.14468e-05
5.1321e-05
5.11988e-05
5.10816e-05
5.09704e-05
5.08647e-05
5.07616e-05
5.06599e-05
5.0563e-05
5.04814e-05
5.04198e-05
5.03719e-05
5.03088e-05
5.0214e-05
5.00973e-05
4.99851e-05
4.99529e-05
5.00244e-05
5.01764e-05
5.03888e-05
5.05017e-05
5.04045e-05
5.00819e-05
4.95962e-05
4.81036e-05
4.74802e-05
5.10316e-05
5.01778e-05
3.93664e-05
2.39182e-05
2.26677e-05
2.8904e-05
4.18189e-05
5.60645e-05
7.00904e-05
5.41891e-05
3.56898e-05
2.80409e-05
3.2998e-05
5.32472e-05
5.90955e-05
6.11385e-05
6.40576e-05
6.67969e-05
6.78554e-05
6.79761e-05
6.80046e-05
6.78867e-05
6.76835e-05
6.75462e-05
6.75482e-05
6.76461e-05
6.78093e-05
6.79847e-05
6.81191e-05
6.81973e-05
6.7789e-05
6.38113e-05
6.38875e-05
6.39897e-05
6.41053e-05
6.4225e-05
6.43482e-05
6.44786e-05
6.46192e-05
6.47697e-05
6.49288e-05
6.50953e-05
6.5269e-05
6.54496e-05
6.56367e-05
6.58295e-05
6.60274e-05
6.62296e-05
6.64356e-05
6.66449e-05
6.6857e-05
6.70712e-05
6.72872e-05
6.75044e-05
6.77225e-05
6.79415e-05
6.81605e-05
6.83796e-05
6.85983e-05
6.88165e-05
6.90339e-05
6.92505e-05
6.94664e-05
6.96806e-05
6.9894e-05
7.01057e-05
7.03164e-05
7.05254e-05
7.07331e-05
7.09394e-05
7.11443e-05
7.13478e-05
7.15502e-05
7.17517e-05
7.19521e-05
7.21515e-05
7.235e-05
7.25478e-05
7.27451e-05
7.29423e-05
7.31964e-05
7.84113e-05
7.35882e-05
7.88867e-05
7.90844e-05
7.92851e-05
7.94862e-05
7.9688e-05
7.98908e-05
8.00946e-05
8.02994e-05
8.05056e-05
8.07133e-05
8.09226e-05
8.11336e-05
8.13464e-05
8.15612e-05
8.1778e-05
8.19966e-05
8.22172e-05
8.244e-05
8.26649e-05
8.28917e-05
8.31202e-05
8.33504e-05
8.35823e-05
8.38158e-05
8.40506e-05
8.42865e-05
8.45232e-05
8.47608e-05
8.49986e-05
8.52368e-05
8.5475e-05
8.57132e-05
8.5951e-05
8.61881e-05
8.64233e-05
8.66561e-05
8.68854e-05
8.71112e-05
8.73326e-05
8.75492e-05
8.77597e-05
8.79637e-05
8.81601e-05
8.83487e-05
8.85282e-05
8.86969e-05
8.87787e-05
8.39395e-05
8.40792e-05
8.42057e-05
8.43173e-05
8.4412e-05
8.44884e-05
8.45444e-05
8.45754e-05
8.45776e-05
8.46154e-05
8.95224e-05
8.94006e-05
8.91376e-05
8.40726e-05
8.37622e-05
8.31147e-05
8.18153e-05
7.96522e-05
7.66937e-05
7.29203e-05
6.81992e-05
6.42577e-05
5.51466e-05
4.71383e-05
3.71529e-05
2.70455e-05
1.78578e-05
8.9563e-06
1.79944e-05
2.71753e-05
3.74177e-05
4.74046e-05
5.5402e-05
6.25997e-05
7.11369e-05
7.64232e-05
7.71548e-05
8.01708e-05
8.23343e-05
8.34173e-05
8.38174e-05
8.38881e-05
8.88393e-05
8.89493e-05
8.89453e-05
8.38697e-05
8.37392e-05
8.36626e-05
8.35768e-05
8.34868e-05
8.33944e-05
8.32975e-05
8.31939e-05
8.30832e-05
8.29645e-05
8.78513e-05
8.78039e-05
8.76625e-05
8.75117e-05
8.73532e-05
8.71881e-05
8.70159e-05
8.68384e-05
8.66551e-05
8.64672e-05
8.62751e-05
8.60795e-05
8.58801e-05
8.56783e-05
8.54741e-05
8.5269e-05
8.50626e-05
8.48559e-05
8.46485e-05
8.44414e-05
8.4234e-05
8.40273e-05
8.38207e-05
8.36153e-05
8.34106e-05
8.32075e-05
8.30055e-05
8.28056e-05
8.26072e-05
8.2411e-05
8.22165e-05
8.20244e-05
8.18339e-05
8.16457e-05
8.1459e-05
8.1274e-05
8.10904e-05
8.09082e-05
8.0727e-05
8.05468e-05
8.03672e-05
8.0188e-05
8.00091e-05
7.98302e-05
7.96542e-05
7.43895e-05
7.41492e-05
7.39698e-05
7.37907e-05
7.36107e-05
7.34302e-05
7.3249e-05
7.3067e-05
7.28839e-05
7.26999e-05
7.25149e-05
7.23288e-05
7.21416e-05
7.19532e-05
7.17639e-05
7.15734e-05
7.13821e-05
7.11899e-05
7.09967e-05
7.08029e-05
7.06081e-05
7.04129e-05
7.02169e-05
7.00207e-05
6.98242e-05
6.96276e-05
6.9431e-05
6.92346e-05
6.90386e-05
6.88433e-05
6.86483e-05
6.84549e-05
6.82621e-05
6.8071e-05
6.78815e-05
6.76938e-05
6.75083e-05
6.73252e-05
6.71449e-05
6.69672e-05
6.67931e-05
6.66227e-05
6.64563e-05
6.62943e-05
6.61368e-05
6.59837e-05
6.58364e-05
6.56963e-05
6.55638e-05
6.54356e-05
6.53086e-05
6.5184e-05
6.50733e-05
6.49864e-05
6.49236e-05
6.48553e-05
6.47525e-05
6.46124e-05
6.44453e-05
6.43326e-05
6.43274e-05
6.44361e-05
6.46684e-05
6.48824e-05
6.4921e-05
6.47242e-05
6.43306e-05
6.26755e-05
6.06935e-05
6.09162e-05
6.02753e-05
5.43374e-05
3.20535e-05
2.88326e-05
3.71683e-05
5.53652e-05
7.24852e-05
8.72335e-05
6.92013e-05
4.54221e-05
3.37928e-05
4.32374e-05
6.60208e-05
6.8505e-05
7.05063e-05
7.48558e-05
7.80595e-05
7.90646e-05
7.90746e-05
7.89977e-05
7.87913e-05
7.85466e-05
7.84258e-05
7.84791e-05
7.86398e-05
7.8858e-05
7.90659e-05
7.92128e-05
7.93032e-05
7.90683e-05
7.70362e-05
7.71472e-05
7.72839e-05
7.74318e-05
7.75827e-05
7.7739e-05
7.79059e-05
7.80859e-05
7.82781e-05
7.84808e-05
7.86927e-05
7.89139e-05
7.91441e-05
7.93823e-05
7.96277e-05
7.98795e-05
8.01369e-05
8.03991e-05
8.06655e-05
8.09354e-05
8.12082e-05
8.14833e-05
8.17601e-05
8.20382e-05
8.23175e-05
8.25971e-05
8.28769e-05
8.31566e-05
8.34358e-05
8.37143e-05
8.39919e-05
8.42689e-05
8.45441e-05
8.48184e-05
8.50909e-05
8.53623e-05
8.56318e-05
8.58998e-05
8.61663e-05
8.64313e-05
8.66948e-05
8.69571e-05
8.72181e-05
8.7478e-05
8.77367e-05
8.79945e-05
8.82515e-05
8.85077e-05
8.87625e-05
8.90523e-05
9.1964e-05
8.95607e-05
9.25243e-05
9.27751e-05
9.30297e-05
9.32846e-05
9.35401e-05
9.37966e-05
9.40541e-05
9.43126e-05
9.45726e-05
9.48341e-05
9.50972e-05
9.53622e-05
9.5629e-05
9.58979e-05
9.61687e-05
9.64413e-05
9.67162e-05
9.69933e-05
9.72727e-05
9.7554e-05
9.78369e-05
9.81216e-05
9.84082e-05
9.86965e-05
9.89858e-05
9.92759e-05
9.95667e-05
9.98581e-05
0.000100149
0.000100441
0.000100732
0.000101022
0.000101312
0.000101599
0.000101883
0.000102164
0.00010244
0.000102712
0.000102979
0.00010324
0.000103494
0.000103741
0.000103979
0.000104209
0.000104428
0.000104636
0.000104782
0.000102408
0.000102581
0.000102739
0.000102877
0.000102992
0.000103081
0.000103138
0.000103155
0.000103122
0.000103072
0.000105486
0.000105218
0.000104756
0.000101622
0.0001006
9.88855e-05
9.6237e-05
9.26194e-05
8.81948e-05
8.28656e-05
7.62798e-05
6.91496e-05
5.8613e-05
4.81676e-05
3.67175e-05
2.6585e-05
1.83067e-05
1.11153e-05
1.83937e-05
2.66521e-05
3.69818e-05
4.84308e-05
5.88837e-05
6.84815e-05
7.7931e-05
8.48463e-05
8.87048e-05
9.33694e-05
9.72539e-05
9.9968e-05
0.00010156
0.000102321
0.000105182
0.000105385
0.000105436
0.000102825
0.000102702
0.00010258
0.00010243
0.000102268
0.0001021
0.000101929
0.000101753
0.000101573
0.000101388
0.00010377
0.000103636
0.000103437
0.00010323
0.000103018
0.0001028
0.000102575
0.000102347
0.000102112
0.000101874
0.000101632
0.000101387
0.000101138
0.000100887
0.000100632
0.000100377
0.00010012
9.98632e-05
9.96056e-05
9.93487e-05
9.90917e-05
9.88359e-05
9.85803e-05
9.83262e-05
9.80728e-05
9.78212e-05
9.75704e-05
9.7322e-05
9.70748e-05
9.68303e-05
9.65873e-05
9.63472e-05
9.61088e-05
9.58733e-05
9.56396e-05
9.54081e-05
9.51784e-05
9.49506e-05
9.47244e-05
9.44995e-05
9.42757e-05
9.40526e-05
9.38301e-05
9.36077e-05
9.33894e-05
9.04718e-05
9.0209e-05
8.99855e-05
8.97613e-05
8.95357e-05
8.93097e-05
8.90826e-05
8.88547e-05
8.86255e-05
8.83952e-05
8.81638e-05
8.7931e-05
8.76969e-05
8.74616e-05
8.72252e-05
8.69876e-05
8.67489e-05
8.65093e-05
8.62688e-05
8.60276e-05
8.57855e-05
8.55434e-05
8.53005e-05
8.50577e-05
8.48148e-05
8.45722e-05
8.433e-05
8.40883e-05
8.38476e-05
8.3608e-05
8.33693e-05
8.31328e-05
8.28975e-05
8.26646e-05
8.24338e-05
8.22056e-05
8.19802e-05
8.1758e-05
8.15394e-05
8.13241e-05
8.11132e-05
8.09069e-05
8.07055e-05
8.05095e-05
8.0319e-05
8.01336e-05
7.99546e-05
7.97839e-05
7.96226e-05
7.94679e-05
7.9315e-05
7.91626e-05
7.9021e-05
7.89034e-05
7.88179e-05
7.87406e-05
7.86356e-05
7.84873e-05
7.82839e-05
7.80949e-05
7.79929e-05
7.80143e-05
7.82079e-05
7.84817e-05
7.86635e-05
7.8664e-05
7.85194e-05
7.7137e-05
7.41103e-05
7.10934e-05
7.01165e-05
6.73259e-05
4.23045e-05
3.44628e-05
4.74131e-05
7.08831e-05
9.03628e-05
0.000105572
8.60697e-05
5.70205e-05
4.04885e-05
5.61357e-05
7.70499e-05
7.76075e-05
8.03652e-05
8.62592e-05
8.97123e-05
9.04465e-05
9.02667e-05
9.0057e-05
8.97768e-05
8.9533e-05
8.94771e-05
8.96146e-05
8.98505e-05
9.0119e-05
9.03479e-05
9.05012e-05
9.06065e-05
9.05154e-05
8.95656e-05
8.97163e-05
8.98911e-05
9.00745e-05
9.0261e-05
9.04558e-05
9.06645e-05
9.08894e-05
9.11286e-05
9.13801e-05
9.1643e-05
9.19174e-05
9.22026e-05
9.24977e-05
9.28015e-05
9.31131e-05
9.34316e-05
9.3756e-05
9.40857e-05
9.44198e-05
9.47576e-05
9.50984e-05
9.54415e-05
9.57866e-05
9.61335e-05
9.6481e-05
9.68293e-05
9.71777e-05
9.75259e-05
9.78737e-05
9.82209e-05
9.85676e-05
9.89128e-05