/*--------------------------------*- C++ -*----------------------------------*\
| =========                 |                                                 |
| \\      /  F ield         | OpenFOAM: The Open Source CFD Toolbox           |
|  \\    /   O peration     | Version:  2412                                  |
|   \\  /    A nd           | Website:  www.openfoam.com                      |
|    \\/     M anipulation  |                                                 |
\*---------------------------------------------------------------------------*/
FoamFile
{
    version     2.0;
    format      ascii;
    arch        "LSB;label=32;scalar=64";
    class       volScalarField;
    location    "80";
    object      nuTilda;
}
// * * * * * * * * * * * * * * * * * * * * * * * * * * * * * * * * * * * * * //

dimensions      [0 2 -1 0 0 0 0];

internalField   nonuniform List<scalar> 
29601
(
1.4108e-06
1.61144e-06
1.06642e-06
6.85712e-07
9.83847e-07
9.67169e-07
1.74802e-06
2.18455e-06
2.19587e-06
2.05047e-06
1.95877e-06
1.9101e-06
1.88886e-06
1.89263e-06
1.91198e-06
1.92806e-06
1.93292e-06
1.93041e-06
1.9213e-06
1.91118e-06
1.90602e-06
1.90587e-06
1.90933e-06
1.91369e-06
1.91673e-06
1.91872e-06
1.92046e-06
1.92286e-06
1.92602e-06
1.92954e-06
1.93311e-06
1.93669e-06
1.94037e-06
1.94423e-06
1.94828e-06
1.95242e-06
1.95668e-06
1.96104e-06
1.96551e-06
1.97005e-06
1.97467e-06
1.97938e-06
1.98416e-06
1.98902e-06
1.99388e-06
1.99884e-06
2.0038e-06
2.00885e-06
2.01386e-06
2.01888e-06
2.02396e-06
2.02904e-06
2.03414e-06
2.03926e-06
2.04434e-06
2.04944e-06
2.05457e-06
2.05969e-06
2.0648e-06
2.06987e-06
2.07499e-06
2.08013e-06
2.08527e-06
2.09039e-06
2.09558e-06
2.10081e-06
2.10611e-06
2.11148e-06
2.11692e-06
2.12252e-06
2.12829e-06
2.13424e-06
2.14049e-06
2.14707e-06
2.15407e-06
2.16164e-06
2.16976e-06
2.17851e-06
2.18785e-06
2.19776e-06
2.20803e-06
2.2184e-06
2.22845e-06
2.23788e-06
2.2462e-06
2.25288e-06
2.25675e-06
2.25489e-06
2.24027e-06
2.20096e-06
2.13691e-06
2.09156e-06
2.08565e-06
2.09233e-06
2.09897e-06
2.1042e-06
2.10857e-06
2.11257e-06
2.11643e-06
2.12025e-06
2.12405e-06
2.12786e-06
2.13166e-06
2.13547e-06
2.13928e-06
2.14307e-06
2.14684e-06
2.15053e-06
2.15419e-06
2.15779e-06
2.16132e-06
2.16481e-06
2.16822e-06
2.17154e-06
2.17472e-06
2.17779e-06
2.18072e-06
2.18348e-06
2.18609e-06
2.18853e-06
2.19074e-06
2.19275e-06
2.19454e-06
2.19611e-06
2.19748e-06
2.19861e-06
2.19945e-06
2.20005e-06
2.20048e-06
2.20067e-06
2.20065e-06
2.20065e-06
2.20077e-06
2.20114e-06
2.20201e-06
2.20441e-06
2.21037e-06
2.22241e-06
2.24167e-06
2.26604e-06
2.288e-06
2.55433e-06
2.56233e-06
2.56004e-06
2.56641e-06
2.55084e-06
2.46465e-06
2.11477e-06
1.36998e-06
2.28795e-07
1.3877e-06
2.13256e-06
2.47664e-06
2.56014e-06
2.57498e-06
2.56739e-06
2.56566e-06
2.33241e-06
2.26836e-06
2.22881e-06
2.19585e-06
2.17441e-06
2.16463e-06
2.16226e-06
2.16309e-06
2.16491e-06
2.16695e-06
2.1692e-06
2.17135e-06
2.17342e-06
2.17514e-06
2.17654e-06
2.17754e-06
2.17824e-06
2.17848e-06
2.17844e-06
2.17806e-06
2.17744e-06
2.17653e-06
2.17536e-06
2.17393e-06
2.17229e-06
2.17045e-06
2.16841e-06
2.16621e-06
2.16387e-06
2.16137e-06
2.15876e-06
2.15605e-06
2.15329e-06
2.15043e-06
2.14748e-06
2.14448e-06
2.14138e-06
2.13824e-06
2.13507e-06
2.13189e-06
2.12868e-06
2.12544e-06
2.12216e-06
2.11884e-06
2.11542e-06
2.11186e-06
2.10806e-06
2.10379e-06
2.09891e-06
2.09348e-06
2.0885e-06
2.08714e-06
2.0952e-06
2.11642e-06
2.14553e-06
2.17257e-06
2.19193e-06
2.20345e-06
2.20868e-06
2.20969e-06
2.20782e-06
2.20412e-06
2.19918e-06
2.19352e-06
2.1874e-06
2.18103e-06
2.17454e-06
2.16804e-06
2.16165e-06
2.15536e-06
2.14916e-06
2.1431e-06
2.1371e-06
2.1312e-06
2.1254e-06
2.11965e-06
2.11395e-06
2.1083e-06
2.10269e-06
2.09713e-06
2.09155e-06
2.08595e-06
2.08037e-06
2.07483e-06
2.06925e-06
2.06365e-06
2.05803e-06
2.05244e-06
2.04686e-06
2.04123e-06
2.03563e-06
2.03003e-06
2.02443e-06
2.01889e-06
2.01332e-06
2.00777e-06
2.00223e-06
1.99676e-06
1.99132e-06
1.98591e-06
1.98056e-06
1.97528e-06
1.97008e-06
1.96496e-06
1.95991e-06
1.95493e-06
1.9501e-06
1.94535e-06
1.9407e-06
1.93625e-06
1.93197e-06
1.92781e-06
1.92367e-06
1.91959e-06
1.9159e-06
1.91296e-06
1.91072e-06
1.90825e-06
1.90477e-06
1.90004e-06
1.89621e-06
1.89598e-06
1.9007e-06
1.91037e-06
1.91901e-06
1.92117e-06
1.91613e-06
1.90015e-06
1.88105e-06
1.87744e-06
1.89847e-06
1.94663e-06
2.03695e-06
2.18119e-06
2.1718e-06
1.7442e-06
9.71843e-07
1.00642e-06
6.72832e-07
1.03148e-06
1.62853e-06
1.4402e-06
4.27394e-06
4.82046e-06
3.38523e-06
2.17655e-06
2.99478e-06
3.009e-06
5.52821e-06
6.75264e-06
6.76056e-06
6.36656e-06
6.10949e-06
5.97226e-06
5.91544e-06
5.92909e-06
5.98417e-06
6.02862e-06
6.04152e-06
6.03319e-06
6.00662e-06
5.97804e-06
5.96412e-06
5.96465e-06
5.97536e-06
5.98839e-06
5.99766e-06
6.00399e-06
6.00972e-06
6.01748e-06
6.02745e-06
6.03847e-06
6.04967e-06
6.06091e-06
6.07252e-06
6.08469e-06
6.09742e-06
6.11046e-06
6.12388e-06
6.13759e-06
6.15165e-06
6.16596e-06
6.18055e-06
6.19537e-06
6.21042e-06
6.22571e-06
6.24103e-06
6.25663e-06
6.27224e-06
6.28808e-06
6.30387e-06
6.31974e-06
6.3357e-06
6.35169e-06
6.36769e-06
6.38375e-06
6.39972e-06
6.41571e-06
6.43173e-06
6.44774e-06
6.46381e-06
6.47972e-06
6.49575e-06
6.51179e-06
6.52795e-06
6.54413e-06
6.56048e-06
6.57702e-06
6.59383e-06
6.61101e-06
6.62862e-06
6.64683e-06
6.66584e-06
6.68584e-06
6.70722e-06
6.73029e-06
6.75543e-06
6.78318e-06
6.81379e-06
6.84758e-06
6.88452e-06
6.92443e-06
6.96636e-06
7.00907e-06
7.05047e-06
7.08855e-06
7.12051e-06
7.14298e-06
7.14935e-06
7.12495e-06
7.03796e-06
6.83751e-06
6.52912e-06
6.30828e-06
6.26705e-06
6.28601e-06
6.30671e-06
6.32151e-06
6.33242e-06
6.34153e-06
6.34979e-06
6.35773e-06
6.36556e-06
6.37335e-06
6.38106e-06
6.38877e-06
6.39641e-06
6.40403e-06
6.41153e-06
6.41879e-06
6.42597e-06
6.43297e-06
6.43973e-06
6.44641e-06
6.45291e-06
6.45918e-06
6.46511e-06
6.47081e-06
6.47619e-06
6.48119e-06
6.48584e-06
6.49011e-06
6.49385e-06
6.49718e-06
6.50004e-06
6.50241e-06
6.50434e-06
6.50575e-06
6.50648e-06
6.50669e-06
6.50656e-06
6.50578e-06
6.50446e-06
6.50315e-06
6.50204e-06
6.50138e-06
6.5015e-06
6.50463e-06
6.5159e-06
6.54306e-06
6.59308e-06
6.66627e-06
6.73911e-06
7.95458e-06
7.98768e-06
7.9644e-06
7.95357e-06
7.85986e-06
7.52273e-06
6.35292e-06
4.10721e-06
7.15634e-07
4.15656e-06
6.40527e-06
7.55905e-06
7.88867e-06
7.98042e-06
7.98796e-06
7.99677e-06
6.94496e-06
6.68125e-06
6.56021e-06
6.47464e-06
6.42647e-06
6.40911e-06
6.40885e-06
6.41481e-06
6.42215e-06
6.42947e-06
6.437e-06
6.44387e-06
6.45039e-06
6.45587e-06
6.46043e-06
6.46395e-06
6.4668e-06
6.46848e-06
6.46958e-06
6.46984e-06
6.46957e-06
6.46864e-06
6.46718e-06
6.46511e-06
6.46256e-06
6.45957e-06
6.45612e-06
6.4523e-06
6.4482e-06
6.44372e-06
6.43897e-06
6.43401e-06
6.42892e-06
6.42356e-06
6.41796e-06
6.41224e-06
6.40624e-06
6.4001e-06
6.39389e-06
6.3876e-06
6.38124e-06
6.3747e-06
6.36801e-06
6.36105e-06
6.35366e-06
6.34548e-06
6.33608e-06
6.32464e-06
6.31052e-06
6.29438e-06
6.2812e-06
6.28564e-06
6.33345e-06
6.44071e-06
6.5839e-06
6.71837e-06
6.81838e-06
6.88257e-06
6.91737e-06
6.932e-06
6.93238e-06
6.92372e-06
6.90879e-06
6.89017e-06
6.86917e-06
6.84699e-06
6.82425e-06
6.80157e-06
6.77928e-06
6.75748e-06
6.73626e-06
6.7157e-06
6.69564e-06
6.67608e-06
6.65698e-06
6.63821e-06
6.61977e-06
6.60161e-06
6.58364e-06
6.56585e-06
6.54812e-06
6.53048e-06
6.5129e-06
6.49541e-06
6.47782e-06
6.46024e-06
6.44267e-06
6.42514e-06
6.40762e-06
6.39001e-06
6.37247e-06
6.35492e-06
6.33741e-06
6.31999e-06
6.30252e-06
6.28518e-06
6.26785e-06
6.25072e-06
6.23368e-06
6.21676e-06
6.20003e-06
6.18352e-06
6.16721e-06
6.15117e-06
6.13537e-06
6.11984e-06
6.10471e-06
6.08983e-06
6.07532e-06
6.06135e-06
6.04796e-06
6.03493e-06
6.02204e-06
6.00931e-06
5.99771e-06
5.98834e-06
5.98107e-06
5.97327e-06
5.96269e-06
5.94849e-06
5.93669e-06
5.93499e-06
5.94763e-06
5.97479e-06
5.99997e-06
6.00727e-06
5.99388e-06
5.94961e-06
5.89514e-06
5.88194e-06
5.93822e-06
6.07408e-06
6.32748e-06
6.71851e-06
6.7156e-06
5.51561e-06
3.02679e-06
3.06224e-06
2.13585e-06
3.28607e-06
4.87124e-06
4.34185e-06
7.34678e-06
8.026e-06
6.09612e-06
4.00538e-06
5.09415e-06
5.46325e-06
9.92076e-06
1.1708e-05
1.1671e-05
1.11231e-05
1.07461e-05
1.05444e-05
1.04667e-05
1.0494e-05
1.05775e-05
1.06421e-05
1.06591e-05
1.06436e-05
1.06024e-05
1.05603e-05
1.05413e-05
1.05447e-05
1.05633e-05
1.05849e-05
1.06007e-05
1.06123e-05
1.06233e-05
1.06377e-05
1.06556e-05
1.06751e-05
1.0695e-05
1.07151e-05
1.07359e-05
1.07577e-05
1.07805e-05
1.08038e-05
1.08278e-05
1.08523e-05
1.08775e-05
1.09031e-05
1.09292e-05
1.09558e-05
1.09827e-05
1.10101e-05
1.10375e-05
1.10654e-05
1.10933e-05
1.11216e-05
1.11499e-05
1.11783e-05
1.12068e-05
1.12354e-05
1.12639e-05
1.12925e-05
1.1321e-05
1.13495e-05
1.1378e-05
1.14065e-05
1.1435e-05
1.14634e-05
1.14919e-05
1.15204e-05
1.15491e-05
1.15779e-05
1.16071e-05
1.16366e-05
1.16667e-05
1.16975e-05
1.17293e-05
1.17623e-05
1.17971e-05
1.1834e-05
1.18739e-05
1.19174e-05
1.19654e-05
1.20189e-05
1.20785e-05
1.2145e-05
1.22183e-05
1.22978e-05
1.23815e-05
1.24667e-05
1.2549e-05
1.26238e-05
1.26851e-05
1.27256e-05
1.27309e-05
1.267e-05
1.24752e-05
1.20361e-05
1.13581e-05
1.08632e-05
1.07557e-05
1.07826e-05
1.0818e-05
1.08429e-05
1.08603e-05
1.08738e-05
1.08855e-05
1.08965e-05
1.09073e-05
1.0918e-05
1.09286e-05
1.09392e-05
1.09498e-05
1.09603e-05
1.09706e-05
1.09807e-05
1.09906e-05
1.10003e-05
1.10097e-05
1.10191e-05
1.10282e-05
1.1037e-05
1.10454e-05
1.10535e-05
1.10611e-05
1.10682e-05
1.10747e-05
1.10807e-05
1.1086e-05
1.10906e-05
1.10946e-05
1.10978e-05
1.11002e-05
1.11019e-05
1.11025e-05
1.11023e-05
1.11016e-05
1.10999e-05
1.10976e-05
1.10952e-05
1.10933e-05
1.10924e-05
1.10932e-05
1.10997e-05
1.11212e-05
1.11706e-05
1.12591e-05
1.13893e-05
1.15289e-05
1.39955e-05
1.40323e-05
1.39409e-05
1.38292e-05
1.35281e-05
1.27435e-05
1.05271e-05
6.81337e-06
1.26488e-06
6.88734e-06
1.0611e-05
1.2804e-05
1.35781e-05
1.38766e-05
1.3984e-05
1.40509e-05
1.19822e-05
1.14242e-05
1.12073e-05
1.10589e-05
1.09734e-05
1.09413e-05
1.09395e-05
1.09492e-05
1.09615e-05
1.0974e-05
1.09871e-05
1.09991e-05
1.10104e-05
1.10202e-05
1.10286e-05
1.10351e-05
1.10407e-05
1.10443e-05
1.10472e-05
1.10486e-05
1.10491e-05
1.10486e-05
1.10473e-05
1.10451e-05
1.10422e-05
1.10385e-05
1.10343e-05
1.10294e-05
1.10241e-05
1.10184e-05
1.10123e-05
1.10058e-05
1.09992e-05
1.09923e-05
1.0985e-05
1.09774e-05
1.09696e-05
1.09615e-05
1.09534e-05
1.09451e-05
1.09366e-05
1.09279e-05
1.09189e-05
1.09093e-05
1.08988e-05
1.08867e-05
1.0872e-05
1.08534e-05
1.08298e-05
1.08035e-05
1.07856e-05
1.08079e-05
1.09245e-05
1.11687e-05
1.14889e-05
1.1788e-05
1.2011e-05
1.21562e-05
1.22377e-05
1.22759e-05
1.22834e-05
1.22714e-05
1.22458e-05
1.22121e-05
1.21732e-05
1.21318e-05
1.20892e-05
1.20467e-05
1.2005e-05
1.19643e-05
1.19249e-05
1.18868e-05
1.18499e-05
1.18141e-05
1.17794e-05
1.17454e-05
1.17121e-05
1.16794e-05
1.16472e-05
1.16154e-05
1.15838e-05
1.15524e-05
1.15211e-05
1.149e-05
1.14587e-05
1.14276e-05
1.13965e-05
1.13654e-05
1.13343e-05
1.13032e-05
1.12721e-05
1.1241e-05
1.121e-05
1.11791e-05
1.11481e-05
1.11174e-05
1.10868e-05
1.10564e-05
1.10262e-05
1.09963e-05
1.09666e-05
1.09374e-05
1.09085e-05
1.08801e-05
1.08521e-05
1.08247e-05
1.07979e-05
1.07716e-05
1.07459e-05
1.07212e-05
1.06974e-05
1.06744e-05
1.06516e-05
1.06292e-05
1.06086e-05
1.05916e-05
1.05779e-05
1.05639e-05
1.05459e-05
1.05223e-05
1.05019e-05
1.04966e-05
1.05136e-05
1.05534e-05
1.05925e-05
1.06064e-05
1.05885e-05
1.05241e-05
1.04413e-05
1.04147e-05
1.04918e-05
1.06915e-05
1.10633e-05
1.16069e-05
1.16517e-05
9.89967e-06
5.49315e-06
5.20742e-06
3.93494e-06
5.97573e-06
8.10923e-06
7.3371e-06
1.10741e-05
1.11972e-05
9.10869e-06
6.28867e-06
7.26754e-06
8.82258e-06
1.49632e-05
1.7016e-05
1.69167e-05
1.63409e-05
1.591e-05
1.56802e-05
1.5602e-05
1.56456e-05
1.57447e-05
1.58168e-05
1.58327e-05
1.58095e-05
1.57593e-05
1.57121e-05
1.56936e-05
1.57031e-05
1.573e-05
1.57596e-05
1.57824e-05
1.58004e-05
1.58185e-05
1.58412e-05
1.58683e-05
1.58976e-05
1.59275e-05
1.59579e-05
1.59895e-05
1.60225e-05
1.60569e-05
1.60922e-05
1.61285e-05
1.61657e-05
1.62038e-05
1.62426e-05
1.62822e-05
1.63224e-05
1.63633e-05
1.64046e-05
1.64462e-05
1.64885e-05
1.65307e-05
1.65735e-05
1.66162e-05
1.66592e-05
1.67022e-05
1.67453e-05
1.67885e-05
1.68316e-05
1.68746e-05
1.69176e-05
1.69605e-05
1.70032e-05
1.70461e-05
1.70888e-05
1.71316e-05
1.71744e-05
1.72175e-05
1.72607e-05
1.73045e-05
1.73487e-05
1.73939e-05
1.74402e-05
1.7488e-05
1.75378e-05
1.75904e-05
1.76465e-05
1.77073e-05
1.77738e-05
1.78475e-05
1.79299e-05
1.80221e-05
1.81251e-05
1.82388e-05
1.83622e-05
1.8492e-05
1.86239e-05
1.87509e-05
1.88657e-05
1.89588e-05
1.90182e-05
1.90213e-05
1.89193e-05
1.86062e-05
1.79018e-05
1.67954e-05
1.5973e-05
1.5777e-05
1.58032e-05
1.58527e-05
1.58905e-05
1.59182e-05
1.59405e-05
1.59601e-05
1.59789e-05
1.59974e-05
1.60159e-05
1.60345e-05
1.60534e-05
1.60723e-05
1.60915e-05
1.61105e-05
1.61296e-05
1.61487e-05
1.61677e-05
1.61866e-05
1.62055e-05
1.62243e-05
1.62428e-05
1.62609e-05
1.62785e-05
1.62955e-05
1.63116e-05
1.63271e-05
1.63416e-05
1.6355e-05
1.63672e-05
1.63782e-05
1.63879e-05
1.63964e-05
1.64033e-05
1.64086e-05
1.64128e-05
1.64158e-05
1.64177e-05
1.6419e-05
1.64208e-05
1.64242e-05
1.64304e-05
1.64425e-05
1.64694e-05
1.65258e-05
1.66259e-05
1.67698e-05
1.69515e-05
1.71558e-05
2.07432e-05
2.07206e-05
2.04804e-05
2.01306e-05
1.94281e-05
1.79542e-05
1.44794e-05
9.39734e-06
1.8843e-06
9.48717e-06
1.45897e-05
1.80367e-05
1.95e-05
2.02006e-05
2.05468e-05
2.07572e-05
1.78988e-05
1.70011e-05
1.66999e-05
1.6465e-05
1.62938e-05
1.62021e-05
1.61695e-05
1.61661e-05
1.61735e-05
1.61846e-05
1.61982e-05
1.62122e-05
1.62261e-05
1.62385e-05
1.62491e-05
1.62572e-05
1.62636e-05
1.62672e-05
1.6269e-05
1.62687e-05
1.62668e-05
1.62632e-05
1.6258e-05
1.62516e-05
1.62438e-05
1.62349e-05
1.6225e-05
1.62143e-05
1.62029e-05
1.61908e-05
1.61783e-05
1.61654e-05
1.61524e-05
1.6139e-05
1.61252e-05
1.61113e-05
1.60972e-05
1.60828e-05
1.60684e-05
1.60539e-05
1.60394e-05
1.60247e-05
1.60095e-05
1.59936e-05
1.59765e-05
1.5957e-05
1.59339e-05
1.59057e-05
1.58715e-05
1.58362e-05
1.58192e-05
1.58702e-05
1.60739e-05
1.64836e-05
1.70136e-05
1.75036e-05
1.78661e-05
1.81017e-05
1.82351e-05
1.82995e-05
1.83148e-05
1.82994e-05
1.82622e-05
1.82122e-05
1.81537e-05
1.80911e-05
1.80266e-05
1.79621e-05
1.78987e-05
1.78371e-05
1.77773e-05
1.77196e-05
1.76639e-05
1.761e-05
1.75577e-05
1.75066e-05
1.74567e-05
1.74077e-05
1.73595e-05
1.73119e-05
1.72646e-05
1.72177e-05
1.7171e-05
1.71245e-05
1.70779e-05
1.70315e-05
1.69851e-05
1.69387e-05
1.68923e-05
1.68458e-05
1.67994e-05
1.6753e-05
1.67067e-05
1.66605e-05
1.66143e-05
1.65685e-05
1.65227e-05
1.64774e-05
1.64323e-05
1.63876e-05
1.63434e-05
1.62997e-05
1.62567e-05
1.62143e-05
1.61726e-05
1.61316e-05
1.60917e-05
1.60525e-05
1.60143e-05
1.59773e-05
1.59419e-05
1.59075e-05
1.58738e-05
1.58406e-05
1.58097e-05
1.57834e-05
1.57617e-05
1.57403e-05
1.57146e-05
1.56822e-05
1.56528e-05
1.56408e-05
1.56566e-05
1.5701e-05
1.57486e-05
1.57698e-05
1.57529e-05
1.56811e-05
1.55828e-05
1.554e-05
1.56174e-05
1.58446e-05
1.62692e-05
1.68393e-05
1.69505e-05
1.4941e-05
8.87402e-06
7.42937e-06
6.2213e-06
9.05621e-06
1.13115e-05
1.11023e-05
1.61254e-05
1.43724e-05
1.2235e-05
9.08573e-06
9.54553e-06
1.3268e-05
2.06124e-05
2.26597e-05
2.25262e-05
2.20632e-05
2.16558e-05
2.14414e-05
2.13845e-05
2.14428e-05
2.154e-05
2.16046e-05
2.16142e-05
2.15848e-05
2.15345e-05
2.14929e-05
2.14825e-05
2.15014e-05
2.1537e-05
2.15739e-05
2.1604e-05
2.16302e-05
2.16576e-05
2.16906e-05
2.17285e-05
2.17689e-05
2.18104e-05
2.18528e-05
2.1897e-05
2.19432e-05
2.19912e-05
2.20406e-05
2.20913e-05
2.21432e-05
2.21965e-05
2.22508e-05
2.23062e-05
2.23624e-05
2.24193e-05
2.24771e-05
2.25352e-05
2.25941e-05
2.26531e-05
2.27127e-05
2.27723e-05
2.28322e-05
2.28922e-05
2.29522e-05
2.30122e-05
2.30722e-05
2.3132e-05
2.31917e-05
2.32513e-05
2.33106e-05
2.33701e-05
2.34292e-05
2.34885e-05
2.35477e-05
2.36071e-05
2.36667e-05
2.37269e-05
2.37878e-05
2.38497e-05
2.39131e-05
2.39783e-05
2.40462e-05
2.41177e-05
2.41937e-05
2.42757e-05
2.43652e-05
2.44639e-05
2.45739e-05
2.46965e-05
2.48333e-05
2.49837e-05
2.51468e-05
2.53182e-05
2.54926e-05
2.56607e-05
2.58128e-05
2.59362e-05
2.60143e-05
2.60174e-05
2.5883e-05
2.54791e-05
2.45779e-05
2.31411e-05
2.20458e-05
2.17641e-05
2.17815e-05
2.18441e-05
2.18999e-05
2.19463e-05
2.1987e-05
2.20251e-05
2.20623e-05
2.20994e-05
2.21368e-05
2.21747e-05
2.2213e-05
2.22517e-05
2.22908e-05
2.23301e-05
2.23695e-05
2.24091e-05
2.24487e-05
2.24881e-05
2.25275e-05
2.25667e-05
2.26052e-05
2.2643e-05
2.26797e-05
2.27152e-05
2.27493e-05
2.27818e-05
2.28125e-05
2.28411e-05
2.28676e-05
2.28918e-05
2.29137e-05
2.29332e-05
2.29499e-05
2.29642e-05
2.29763e-05
2.29867e-05
2.29955e-05
2.30038e-05
2.30136e-05
2.30267e-05
2.30453e-05
2.30762e-05
2.31345e-05
2.32425e-05
2.34143e-05
2.36343e-05
2.3882e-05
2.41649e-05
2.82436e-05
2.80502e-05
2.75333e-05
2.67464e-05
2.54001e-05
2.29938e-05
1.80903e-05
1.17939e-05
2.58402e-06
1.18898e-05
1.82203e-05
2.30944e-05
2.54932e-05
2.68405e-05
2.76269e-05
2.81167e-05
2.51948e-05
2.39498e-05
2.35439e-05
2.31925e-05
2.29031e-05
2.27231e-05
2.26383e-05
2.26079e-05
2.26012e-05
2.26043e-05
2.26132e-05
2.26252e-05
2.26387e-05
2.26513e-05
2.26619e-05
2.26694e-05
2.26738e-05
2.26745e-05
2.26719e-05
2.26658e-05
2.26568e-05
2.26449e-05
2.26303e-05
2.26134e-05
2.25941e-05
2.25728e-05
2.25497e-05
2.2525e-05
2.2499e-05
2.24719e-05
2.24439e-05
2.24153e-05
2.23865e-05
2.23572e-05
2.23274e-05
2.22974e-05
2.22672e-05
2.22369e-05
2.22066e-05
2.21764e-05
2.21462e-05
2.21159e-05
2.20853e-05
2.20541e-05
2.20215e-05
2.19865e-05
2.19479e-05
2.19045e-05
2.1857e-05
2.18136e-05
2.18014e-05
2.18838e-05
2.21663e-05
2.2715e-05
2.34122e-05
2.40463e-05
2.45099e-05
2.48091e-05
2.49775e-05
2.50579e-05
2.50753e-05
2.50531e-05
2.50029e-05
2.49361e-05
2.48582e-05
2.47749e-05
2.46888e-05
2.46029e-05
2.45181e-05
2.44356e-05
2.43554e-05
2.42779e-05
2.42029e-05
2.41301e-05
2.40593e-05
2.39902e-05
2.39225e-05
2.38559e-05
2.37902e-05
2.37253e-05
2.36609e-05
2.35969e-05
2.3533e-05
2.34694e-05
2.34057e-05
2.33421e-05
2.32785e-05
2.32149e-05
2.31513e-05
2.30875e-05
2.30238e-05
2.29602e-05
2.28966e-05
2.28332e-05
2.27699e-05
2.2707e-05
2.26442e-05
2.25819e-05
2.25201e-05
2.24588e-05
2.23981e-05
2.23383e-05
2.22792e-05
2.2221e-05
2.21639e-05
2.21078e-05
2.20531e-05
2.19995e-05
2.19471e-05
2.18965e-05
2.18478e-05
2.18007e-05
2.17547e-05
2.17096e-05
2.16672e-05
2.16298e-05
2.15981e-05
2.15679e-05
2.15342e-05
2.14939e-05
2.14555e-05
2.14335e-05
2.14409e-05
2.14794e-05
2.15271e-05
2.15548e-05
2.15447e-05
2.14807e-05
2.13847e-05
2.13268e-05
2.13826e-05
2.15934e-05
2.19925e-05
2.24471e-05
2.26009e-05
2.06068e-05
1.33444e-05
9.76418e-06
9.05963e-06
1.23007e-05
1.45146e-05
1.61965e-05
2.25347e-05
1.76585e-05
1.5412e-05
1.22292e-05
1.20425e-05
1.89928e-05
2.67752e-05
2.86459e-05
2.85607e-05
2.83515e-05
2.80488e-05
2.78938e-05
2.78756e-05
2.79409e-05
2.80153e-05
2.80577e-05
2.80572e-05
2.80266e-05
2.79881e-05
2.79653e-05
2.7971e-05
2.8003e-05
2.8047e-05
2.80904e-05
2.81286e-05
2.8165e-05
2.82046e-05
2.82501e-05
2.83006e-05
2.83539e-05
2.84088e-05
2.84654e-05
2.85245e-05
2.85862e-05
2.86501e-05
2.87159e-05
2.87836e-05
2.88529e-05
2.8924e-05
2.89964e-05
2.90702e-05
2.91451e-05
2.9221e-05
2.92978e-05
2.93753e-05
2.94536e-05
2.95322e-05
2.96113e-05
2.96906e-05
2.97702e-05
2.985e-05
2.99298e-05
3.00094e-05
3.00891e-05
3.01684e-05
3.02476e-05
3.03266e-05
3.04053e-05
3.04838e-05
3.05621e-05
3.06403e-05
3.07184e-05
3.07965e-05
3.08748e-05
3.09535e-05
3.10328e-05
3.11132e-05
3.1195e-05
3.12788e-05
3.13653e-05
3.14555e-05
3.15506e-05
3.1652e-05
3.17614e-05
3.18808e-05
3.20121e-05
3.21572e-05
3.23175e-05
3.24929e-05
3.26823e-05
3.28814e-05
3.30845e-05
3.32815e-05
3.34614e-05
3.36091e-05
3.3705e-05
3.37156e-05
3.35743e-05
3.31492e-05
3.22198e-05
3.07358e-05
2.95279e-05
2.9165e-05
2.91682e-05
2.92459e-05
2.93255e-05
2.93978e-05
2.94647e-05
2.95289e-05
2.95921e-05
2.96552e-05
2.97188e-05
2.97828e-05
2.98473e-05
2.99124e-05
2.99777e-05
3.00433e-05
3.01089e-05
3.01744e-05
3.02397e-05
3.03046e-05
3.03693e-05
3.04332e-05
3.04959e-05
3.05571e-05
3.06164e-05
3.06734e-05
3.07282e-05
3.07802e-05
3.08291e-05
3.08746e-05
3.09167e-05
3.09551e-05
3.09897e-05
3.10203e-05
3.10469e-05
3.10695e-05
3.1089e-05
3.11058e-05
3.11205e-05
3.11349e-05
3.11521e-05
3.11748e-05
3.12069e-05
3.12597e-05
3.13574e-05
3.1534e-05
3.18102e-05
3.21568e-05
3.25326e-05
3.29373e-05
3.64852e-05
3.59638e-05
3.49839e-05
3.35097e-05
3.12622e-05
2.77066e-05
2.12409e-05
1.39439e-05
3.3788e-06
1.40353e-05
2.13826e-05
2.78195e-05
3.1374e-05
3.36278e-05
3.51079e-05
3.60727e-05
3.40312e-05
3.26393e-05
3.2039e-05
3.14933e-05
3.10391e-05
3.07495e-05
3.0605e-05
3.05465e-05
3.05271e-05
3.05247e-05
3.0532e-05
3.05458e-05
3.05623e-05
3.05785e-05
3.05922e-05
3.06017e-05
3.06067e-05
3.06062e-05
3.06004e-05
3.05894e-05
3.05737e-05
3.05533e-05
3.05287e-05
3.05002e-05
3.04679e-05
3.04322e-05
3.03936e-05
3.03523e-05
3.03086e-05
3.0263e-05
3.02157e-05
3.01673e-05
3.01181e-05
3.00681e-05
3.00173e-05
2.99659e-05
2.9914e-05
2.98618e-05
2.98095e-05
2.97571e-05
2.97046e-05
2.9652e-05
2.9599e-05
2.95452e-05
2.949e-05
2.94325e-05
2.93718e-05
2.93076e-05
2.92428e-05
2.91902e-05
2.91843e-05
2.92974e-05
2.96345e-05
3.02387e-05
3.09673e-05
3.16123e-05
3.20781e-05
3.23758e-05
3.25393e-05
3.26116e-05
3.26179e-05
3.25823e-05
3.25167e-05
3.24333e-05
3.23377e-05
3.22364e-05
3.2132e-05
3.20277e-05
3.19244e-05
3.18234e-05
3.17248e-05
3.1629e-05
3.15356e-05
3.14445e-05
3.13554e-05
3.1268e-05
3.11819e-05
3.1097e-05
3.10129e-05
3.09295e-05
3.08464e-05
3.07637e-05
3.06809e-05
3.05984e-05
3.05157e-05
3.04331e-05
3.03502e-05
3.02674e-05
3.01844e-05
3.01013e-05
3.00182e-05
2.99351e-05
2.98521e-05
2.97693e-05
2.96867e-05
2.96045e-05
2.95226e-05
2.94413e-05
2.93606e-05
2.92806e-05
2.92015e-05
2.91234e-05
2.90464e-05
2.89707e-05
2.88962e-05
2.88232e-05
2.87519e-05
2.86822e-05
2.86142e-05
2.85483e-05
2.84847e-05
2.84234e-05
2.83639e-05
2.83058e-05
2.82505e-05
2.82002e-05
2.8156e-05
2.81153e-05
2.80732e-05
2.80264e-05
2.79793e-05
2.79441e-05
2.79352e-05
2.79552e-05
2.79917e-05
2.8022e-05
2.80235e-05
2.79834e-05
2.7911e-05
2.78456e-05
2.78614e-05
2.80102e-05
2.83004e-05
2.84949e-05
2.86163e-05
2.68197e-05
1.90995e-05
1.23435e-05
1.23494e-05
1.55903e-05
1.78253e-05
2.26548e-05
3.03255e-05
2.14694e-05
1.86296e-05
1.54262e-05
1.54094e-05
2.62224e-05
3.33168e-05
3.50106e-05
3.51115e-05
3.52826e-05
3.51566e-05
3.50961e-05
3.51226e-05
3.51795e-05
3.52107e-05
3.52199e-05
3.52102e-05
3.51879e-05
3.51764e-05
3.5186e-05
3.52158e-05
3.52638e-05
3.53158e-05
3.53652e-05
3.54129e-05
3.54625e-05
3.55173e-05
3.55782e-05
3.56435e-05
3.57118e-05
3.57824e-05
3.5856e-05
3.59328e-05
3.60128e-05
3.60956e-05
3.61809e-05
3.62686e-05
3.63586e-05
3.64506e-05
3.65444e-05
3.66399e-05
3.67367e-05
3.68349e-05
3.69342e-05
3.70345e-05
3.71355e-05
3.72371e-05
3.73393e-05
3.74418e-05
3.75445e-05
3.76475e-05
3.77505e-05
3.78533e-05
3.7956e-05
3.80585e-05
3.81606e-05
3.82624e-05
3.83639e-05
3.8465e-05
3.85657e-05
3.86661e-05
3.87662e-05
3.88661e-05
3.89659e-05
3.90658e-05
3.91662e-05
3.92672e-05
3.93692e-05
3.94728e-05
3.95786e-05
3.96875e-05
3.98005e-05
3.9919e-05
4.00445e-05
4.01787e-05
4.03235e-05
4.04805e-05
4.06512e-05
4.08358e-05
4.10334e-05
4.12406e-05
4.14523e-05
4.16595e-05
4.18517e-05
4.2014e-05
4.21273e-05
4.21598e-05
4.20534e-05
4.17018e-05
4.09417e-05
3.97444e-05
3.87077e-05
3.833e-05
3.83238e-05
3.84196e-05
3.85286e-05
3.86338e-05
3.87347e-05
3.88329e-05
3.89301e-05
3.90273e-05
3.91249e-05
3.9223e-05
3.93215e-05
3.94206e-05
3.95199e-05
3.96193e-05
3.97185e-05
3.98174e-05
3.99157e-05
4.00133e-05
4.01101e-05
4.02056e-05
4.02991e-05
4.039e-05
4.04778e-05
4.05623e-05
4.06429e-05
4.07194e-05
4.0791e-05
4.08575e-05
4.09187e-05
4.09743e-05
4.10241e-05
4.1068e-05
4.11057e-05
4.11376e-05
4.11649e-05
4.11883e-05
4.12087e-05
4.1229e-05
4.1254e-05
4.12877e-05
4.13365e-05
4.14181e-05
4.15701e-05
4.18446e-05
4.22694e-05
4.27662e-05
4.31564e-05
4.33261e-05
4.53581e-05
4.43156e-05
4.26405e-05
4.02137e-05
3.68219e-05
3.19337e-05
2.38034e-05
1.57928e-05
4.29334e-06
1.58688e-05
2.39478e-05
3.20515e-05
3.69485e-05
4.0354e-05
4.27966e-05
4.44769e-05
4.38251e-05
4.31645e-05
4.26161e-05
4.18173e-05
4.11183e-05
4.06767e-05
4.04555e-05
4.03651e-05
4.03346e-05
4.03301e-05
4.03405e-05
4.03609e-05
4.03856e-05
4.041e-05
4.04309e-05
4.04457e-05
4.04535e-05
4.04534e-05
4.04452e-05
4.04293e-05
4.04061e-05
4.03758e-05
4.0339e-05
4.02963e-05
4.02478e-05
4.0194e-05
4.01356e-05
4.00729e-05
4.00065e-05
3.99369e-05
3.98647e-05
3.97904e-05
3.97147e-05
3.96375e-05
3.9559e-05
3.94794e-05
3.93988e-05
3.93175e-05
3.92357e-05
3.91538e-05
3.90715e-05
3.89889e-05
3.89059e-05
3.8822e-05
3.87368e-05
3.86496e-05
3.85601e-05
3.84694e-05
3.83827e-05
3.8316e-05
3.83071e-05
3.84215e-05
3.873e-05
3.92354e-05
3.98144e-05
4.03162e-05
4.06732e-05
4.08949e-05
4.10062e-05
4.10411e-05
4.10193e-05
4.09613e-05
4.08767e-05
4.07765e-05
4.06655e-05
4.05493e-05
4.04303e-05
4.03112e-05
4.01929e-05
4.00764e-05
3.99618e-05
3.98495e-05
3.97391e-05
3.96304e-05
3.95233e-05
3.94174e-05
3.93124e-05
3.92081e-05
3.91043e-05
3.90009e-05
3.88975e-05
3.87942e-05
3.86906e-05
3.8587e-05
3.8483e-05
3.8379e-05
3.82745e-05
3.81699e-05
3.8065e-05
3.796e-05
3.7855e-05
3.77499e-05
3.76449e-05
3.75402e-05
3.74357e-05
3.73317e-05
3.72282e-05
3.71254e-05
3.70235e-05
3.69225e-05
3.68226e-05
3.67241e-05
3.6627e-05
3.65315e-05
3.64377e-05
3.63458e-05
3.6256e-05
3.61683e-05
3.60828e-05
3.59999e-05
3.59198e-05
3.58427e-05
3.57682e-05
3.56959e-05
3.56263e-05
3.55611e-05
3.5502e-05
3.54486e-05
3.53976e-05
3.53452e-05
3.52905e-05
3.52394e-05
3.52066e-05
3.51949e-05
3.52063e-05
3.5231e-05
3.52453e-05
3.52423e-05
3.52157e-05
3.51582e-05
3.51262e-05
3.5175e-05
3.52787e-05
3.50794e-05
3.5041e-05
3.34558e-05
2.63829e-05
1.59446e-05
1.57217e-05
1.89185e-05
2.16751e-05
3.05172e-05
3.94972e-05
2.70477e-05
2.19457e-05
1.86636e-05
2.00857e-05
3.43743e-05
4.01173e-05
4.18185e-05
4.22939e-05
4.29365e-05
4.30283e-05
4.30719e-05
4.31302e-05
4.31572e-05
4.31316e-05
4.3107e-05
4.30967e-05
4.30985e-05
4.31306e-05
4.31845e-05
4.32445e-05
4.33102e-05
4.337e-05
4.34263e-05
4.34863e-05
4.35527e-05
4.36267e-05
4.37061e-05
4.3789e-05
4.38751e-05
4.39647e-05
4.40586e-05
4.41568e-05
4.42588e-05
4.43643e-05
4.4473e-05
4.45846e-05
4.46992e-05
4.48162e-05
4.49355e-05
4.50568e-05
4.51799e-05
4.53046e-05
4.54306e-05
4.55579e-05
4.56859e-05
4.5815e-05
4.59445e-05
4.60747e-05
4.6205e-05
4.63356e-05
4.64662e-05
4.65968e-05
4.67272e-05
4.68573e-05
4.6987e-05
4.71161e-05
4.72449e-05
4.73731e-05
4.75007e-05
4.76277e-05
4.77542e-05
4.78801e-05
4.80055e-05
4.81307e-05
4.82557e-05
4.83809e-05
4.85064e-05
4.86327e-05
4.87603e-05
4.88898e-05
4.90219e-05
4.91578e-05
4.92986e-05
4.94456e-05
4.96002e-05
4.97636e-05
4.9937e-05
5.01208e-05
5.03145e-05
5.05157e-05
5.07209e-05
5.09234e-05
5.11151e-05
5.12845e-05
5.14166e-05
5.14875e-05
5.14557e-05
5.125e-05
5.07697e-05
5.00086e-05
4.93495e-05
4.91248e-05
4.91683e-05
4.92945e-05
4.94348e-05
4.95743e-05
4.97115e-05
4.98474e-05
4.99829e-05
5.01189e-05
5.02555e-05
5.03928e-05
5.05307e-05
5.06692e-05
5.08079e-05
5.09467e-05
5.10851e-05
5.12231e-05
5.13604e-05
5.14967e-05
5.16317e-05
5.17648e-05
5.18952e-05
5.20223e-05
5.21457e-05
5.22648e-05
5.23793e-05
5.24886e-05
5.25921e-05
5.26896e-05
5.27808e-05
5.28653e-05
5.2943e-05
5.30136e-05
5.3077e-05
5.31337e-05
5.31849e-05
5.32312e-05
5.32742e-05
5.3317e-05
5.3365e-05
5.3422e-05
5.3495e-05
5.36037e-05
5.37839e-05
5.40678e-05
5.44241e-05
5.46881e-05
5.46397e-05
5.41964e-05
5.46321e-05
5.28665e-05
5.02597e-05
4.66331e-05
4.18771e-05
3.55113e-05
2.56428e-05
1.72951e-05
5.37157e-06
1.73452e-05
2.57796e-05
3.56252e-05
4.20131e-05
4.67925e-05
5.04471e-05
5.30856e-05
5.38868e-05
5.43453e-05
5.44936e-05
5.40447e-05
5.33738e-05
5.28393e-05
5.25345e-05
5.23894e-05
5.23211e-05
5.2286e-05
5.2269e-05
5.22655e-05
5.22674e-05
5.22706e-05
5.22704e-05
5.22645e-05
5.22504e-05
5.22281e-05
5.21963e-05
5.21559e-05
5.21069e-05
5.205e-05
5.19854e-05
5.19138e-05
5.18356e-05
5.17512e-05
5.16611e-05
5.1566e-05
5.14664e-05
5.13629e-05
5.1256e-05
5.11466e-05
5.10351e-05
5.0922e-05
5.08074e-05
5.06916e-05
5.05747e-05
5.0457e-05
5.03388e-05
5.02204e-05
5.01019e-05
4.99833e-05
4.98646e-05
4.97455e-05
4.96258e-05
4.95051e-05
4.93836e-05
4.92624e-05
4.91459e-05
4.9047e-05
4.89932e-05
4.90293e-05
4.91985e-05
4.94954e-05
4.98376e-05
5.01286e-05
5.03244e-05
5.04301e-05
5.04604e-05
5.04379e-05
5.03753e-05
5.0287e-05
5.01794e-05
5.00608e-05
4.9934e-05
4.98036e-05
4.96707e-05
4.95379e-05
4.94051e-05
4.92737e-05
4.91432e-05
4.90141e-05
4.88859e-05
4.87587e-05
4.86322e-05
4.85062e-05
4.83804e-05
4.82547e-05
4.81289e-05
4.8003e-05
4.78767e-05
4.775e-05
4.76228e-05
4.74951e-05
4.73669e-05
4.72383e-05
4.71092e-05
4.69796e-05
4.68498e-05
4.67197e-05
4.65895e-05
4.64593e-05
4.63293e-05
4.61995e-05
4.60702e-05
4.59412e-05
4.58133e-05
4.5686e-05
4.556e-05
4.54352e-05
4.53119e-05
4.51903e-05
4.50706e-05
4.49528e-05
4.48373e-05
4.47242e-05
4.46136e-05
4.45059e-05
4.44009e-05
4.4299e-05
4.42004e-05
4.41056e-05
4.40145e-05
4.39266e-05
4.38412e-05
4.3759e-05
4.36823e-05
4.36136e-05
4.3552e-05
4.34946e-05
4.34333e-05
4.33654e-05
4.33032e-05
4.32482e-05
4.32188e-05
4.32242e-05
4.32455e-05
4.32838e-05
4.332e-05
4.32931e-05
4.32248e-05
4.31598e-05
4.30267e-05
4.23288e-05
4.19524e-05
4.03974e-05
3.472e-05
2.08829e-05
1.90787e-05
2.23439e-05
2.73232e-05
3.97969e-05
5.00577e-05
3.43042e-05
2.54859e-05
2.19561e-05
2.62097e-05
4.27054e-05
4.709e-05
4.91517e-05
5.02278e-05
5.13616e-05
5.16459e-05
5.17604e-05
5.18158e-05
5.17928e-05
5.17127e-05
5.16701e-05
5.16788e-05
5.17251e-05
5.18154e-05
5.19196e-05
5.20111e-05
5.20943e-05
5.2163e-05
5.22294e-05
5.23061e-05
5.23942e-05
5.24914e-05
5.25928e-05
5.26968e-05
5.28043e-05
5.29169e-05
5.30354e-05
5.31592e-05
5.32875e-05
5.34201e-05
5.35567e-05
5.36969e-05
5.38408e-05
5.39876e-05
5.41371e-05
5.42892e-05
5.44433e-05
5.45993e-05
5.4757e-05
5.49164e-05
5.50765e-05
5.52381e-05
5.54e-05
5.55632e-05
5.57263e-05
5.589e-05
5.60537e-05
5.62175e-05