/*--------------------------------*- C++ -*----------------------------------*\
| =========                 |                                                 |
| \\      /  F ield         | OpenFOAM: The Open Source CFD Toolbox           |
|  \\    /   O peration     | Version:  2412                                  |
|   \\  /    A nd           | Website:  www.openfoam.com                      |
|    \\/     M anipulation  |                                                 |
\*---------------------------------------------------------------------------*/
FoamFile
{
    version     2.0;
    format      ascii;
    arch        "LSB;label=32;scalar=64";
    class       volScalarField;
    location    "80";
    object      p;
}
// * * * * * * * * * * * * * * * * * * * * * * * * * * * * * * * * * * * * * //

dimensions      [0 2 -2 0 0 0 0];

internalField   nonuniform List<scalar> 
32591
(
196.862
170.542
170.503
188.817
190.635
170.011
152.696
137.272
141.03
156.722
161.023
162.603
161.361
158.587
154.849
152.176
150.614
149.655
149.064
147.991
146.03
143.568
140.776
138.113
135.508
132.909
130.112
127.122
123.998
120.81
117.553
114.21
110.771
107.248
103.653
99.9892
96.258
92.4608
88.6027
84.6871
80.7175
76.6966
72.6281
68.5154
64.3623
60.1724
55.9488
51.6959
47.4157
43.1104
38.7827
34.4363
30.0748
25.6988
21.3104
16.9102
12.5015
8.08462
3.65948
-0.773591
-5.21376
-9.65921
-14.1107
-18.5701
-23.0395
-27.5175
-32.0049
-36.5036
-41.0158
-45.5426
-50.086
-54.647
-59.2369
-63.833
-68.4663
-73.1344
-77.8089
-82.532
-87.2898
-92.0858
-96.9248
-101.808
-106.737
-111.714
-116.743
-121.827
-126.965
-132.158
-137.409
-142.719
-148.086
-153.511
-158.994
-164.537
-170.133
-175.781
-181.478
-187.227
-193.013
-198.838
-204.694
-210.573
-216.472
-222.379
-228.286
-234.181
-240.055
-245.897
-251.692
-257.428
-263.089
-268.663
-274.135
-279.488
-284.699
-289.753
-294.627
-299.303
-303.757
-307.958
-311.884
-315.494
-318.793
-321.739
-324.248
-326.307
-327.843
-328.807
-329.17
-328.81
-327.569
-325.39
-322.085
-317.391
-310.978
-302.235
-290.539
-275.669
-257.464
-235.004
-206.368
-168.962
-119.303
-50.3788
49.4125
177.714
358.179
574.183
754.453
818.594
751.382
568.477
351.268
170.944
42.2706
-56.6969
-125.05
-174.122
-210.825
-238.787
-261.164
-279.87
-295.245
-307.051
-315.714
-321.974
-326.511
-329.711
-331.764
-332.888
-333.165
-332.768
-331.727
-330.081
-327.925
-325.336
-322.317
-318.945
-315.269
-311.279
-307.018
-302.508
-297.78
-292.856
-287.754
-282.498
-277.103
-271.592
-265.98
-260.283
-254.513
-248.686
-242.815
-236.913
-230.991
-225.06
-219.13
-213.209
-207.31
-201.435
-195.594
-189.792
-184.028
-178.316
-172.653
-167.041
-161.483
-155.984
-150.542
-145.159
-139.832
-134.565
-129.356
-124.202
-119.103
-114.059
-109.068
-104.126
-99.2307
-94.3807
-89.5745
-84.821
-80.0901
-75.3796
-70.7139
-66.0773
-61.4669
-56.8815
-52.3167
-47.7703
-43.24
-38.7246
-34.2219
-29.7304
-25.2474
-20.7724
-16.3065
-11.8474
-7.39305
-2.94247
1.50265
5.94177
10.3743
14.8018
19.2221
23.6351
28.0379
32.4305
36.8118
41.1789
45.5283
49.858
54.1661
58.45
62.7058
66.9315
71.1221
75.2746
79.3848
83.4488
87.4629
91.4234
95.3257
99.1636
102.935
106.639
110.269
113.816
117.264
120.627
123.918
127.146
130.237
133.135
135.829
138.501
141.237
144.115
146.644
148.658
149.759
150.351
151.281
152.77
155.32
158.894
161.438
162.39
160.44
155.627
139.245
134.432
147.82
166.825
182.868
176.999
158.681
159.549
193.373
196.684
170.644
170.64
188.775
190.561
170.042
152.777
137.363
141.06
156.708
161.013
162.598
161.358
158.587
154.85
152.177
150.615
149.655
149.064
147.99
146.03
143.568
140.776
138.113
135.508
132.909
130.112
127.122
123.998
120.81
117.553
114.21
110.771
107.248
103.653
99.9893
96.2581
92.4608
88.6028
84.6872
80.7176
76.6967
72.6282
68.5155
64.3623
60.1725
55.9488
51.696
47.4157
43.1104
38.7827
34.4364
30.0749
25.6989
21.3104
16.9103
12.5015
8.08466
3.65953
-0.773558
-5.21372
-9.65917
-14.1106
-18.5701
-23.0394
-27.5175
-32.0048
-36.5035
-41.0158
-45.5426
-50.086
-54.6469
-59.2367
-63.8329
-68.4663
-73.1342
-77.8088
-82.5319
-87.2897
-92.0858
-96.9248
-101.808
-106.737
-111.714
-116.743
-121.827
-126.965
-132.158
-137.409
-142.719
-148.086
-153.511
-158.994
-164.537
-170.133
-175.781
-181.478
-187.227
-193.013
-198.837
-204.694
-210.573
-216.472
-222.379
-228.286
-234.181
-240.055
-245.897
-251.692
-257.428
-263.089
-268.663
-274.134
-279.488
-284.699
-289.753
-294.627
-299.303
-303.757
-307.958
-311.884
-315.494
-318.793
-321.739
-324.248
-326.306
-327.843
-328.806
-329.17
-328.81
-327.569
-325.39
-322.084
-317.39
-310.978
-302.235
-290.539
-275.668
-257.463
-235.003
-206.367
-168.96
-119.299
-50.3741
49.4192
177.725
358.189
574.179
754.426
818.564
751.355
568.473
351.279
170.956
42.2777
-56.6924
-125.047
-174.119
-210.823
-238.786
-261.162
-279.869
-295.244
-307.05
-315.714
-321.974
-326.51
-329.711
-331.764
-332.887
-333.165
-332.768
-331.727
-330.081
-327.925
-325.336
-322.317
-318.945
-315.269
-311.278
-307.018
-302.508
-297.78
-292.856
-287.754
-282.498
-277.102
-271.591
-265.98
-260.283
-254.513
-248.686
-242.815
-236.913
-230.991
-225.06
-219.13
-213.209
-207.31
-201.435
-195.594
-189.792
-184.028
-178.316
-172.653
-167.04
-161.483
-155.984
-150.542
-145.159
-139.832
-134.565
-129.356
-124.202
-119.103
-114.059
-109.068
-104.126
-99.2307
-94.3806
-89.5745
-84.8209
-80.09
-75.3796
-70.7138
-66.0773
-61.4668
-56.8814
-52.3167
-47.7703
-43.24
-38.7245
-34.2218
-29.7303
-25.2474
-20.7724
-16.3064
-11.8474
-7.39301
-2.94244
1.5027
5.94181
10.3743
14.8018
19.2222
23.6352
28.0379
32.4306
36.8119
41.179
45.5284
49.8581
54.1661
58.4501
62.7059
66.9316
71.1221
75.2746
79.3849
83.4489
87.463
91.4235
95.3258
99.1637
102.935
106.639
110.27
113.816
117.264
120.627
123.918
127.146
130.237
133.135
135.829
138.501
141.237
144.115
146.644
148.658
149.758
150.351
151.282
152.772
155.322
158.894
161.436
162.384
160.429
155.612
139.274
134.521
147.9
166.835
182.806
176.968
158.83
159.697
193.185
196.464
170.797
170.875
188.752
190.495
170.049
152.882
137.509
141.125
156.698
160.999
162.59
161.354
158.586
154.852
152.18
150.617
149.656
149.063
147.99
146.03
143.568
140.775
138.113
135.509
132.909
130.112
127.122
123.998
120.81
117.553
114.21
110.772
107.249
103.653
99.9894
96.2582
92.461
88.6029
84.6873
80.7177
76.6968
72.6283
68.5156
64.3624
60.1726
55.949
51.6961
47.4158
43.1105
38.7828
34.4365
30.075
25.699
21.3105
16.9104
12.5016
8.08476
3.65961
-0.773465
-5.21363
-9.65909
-14.1105
-18.57
-23.0393
-27.5174
-32.0047
-36.5034
-41.0157
-45.5425
-50.0859
-54.6468
-59.2364
-63.8328
-68.4662
-73.1339
-77.8088
-82.5319
-87.2896
-92.0857
-96.9247
-101.808
-106.737
-111.714
-116.743
-121.827
-126.965
-132.158
-137.408
-142.719
-148.086
-153.511
-158.994
-164.536
-170.133
-175.781
-181.478
-187.227
-193.013
-198.837
-204.694
-210.573
-216.472
-222.379
-228.285
-234.181
-240.055
-245.897
-251.692
-257.427
-263.089
-268.663
-274.134
-279.488
-284.698
-289.752
-294.627
-299.303
-303.756
-307.957
-311.884
-315.494
-318.793
-321.738
-324.247
-326.306
-327.842
-328.805
-329.169
-328.809
-327.568
-325.388
-322.082
-317.389
-310.976
-302.233
-290.535
-275.664
-257.458
-234.997
-206.359
-168.951
-119.287
-50.3562
49.4448
177.766
358.239
574.206
754.407
818.528
751.337
568.501
351.329
170.997
42.3039
-56.6747
-125.035
-174.109
-210.815
-238.78
-261.157
-279.865
-295.241
-307.048
-315.713
-321.972
-326.508
-329.709
-331.763
-332.886
-333.164
-332.767
-331.726
-330.08
-327.924
-325.335
-322.317
-318.945
-315.268
-311.278
-307.017
-302.508
-297.779
-292.855
-287.753
-282.498
-277.102
-271.591
-265.979
-260.282
-254.513
-248.686
-242.814
-236.913
-230.991
-225.06
-219.129
-213.209
-207.31
-201.435
-195.593
-189.791
-184.028
-178.316
-172.653
-167.04
-161.483
-155.983
-150.542
-145.159
-139.832
-134.565
-129.356
-124.202
-119.103
-114.059
-109.068
-104.126
-99.2306
-94.3805
-89.5744
-84.8206
-80.0897
-75.3795
-70.7138
-66.0772
-61.4667
-56.8814
-52.3166
-47.7702
-43.2399
-38.7245
-34.2217
-29.7302
-25.2473
-20.7723
-16.3063
-11.8473
-7.39292
-2.94234
1.50279
5.94191
10.3744
14.8019
19.2223
23.6353
28.038
32.4307
36.812
41.1791
45.5285
49.8582
54.1662
58.4502
62.706
66.9317
71.1223
75.2748
79.385
83.449
87.4632
91.4237
95.3259
99.1639
102.935
106.639
110.27
113.816
117.265
120.627
123.919
127.146
130.237
133.135
135.829
138.501
141.237
144.115
146.643
148.657
149.758
150.351
151.283
152.774
155.324
158.893
161.432
162.376
160.414
155.601
139.338
134.665
148.002
166.825
182.756
176.955
159.074
159.899
192.959
196.17
170.951
171.214
188.774
190.453
170.029
153.002
137.742
141.255
156.696
160.981
162.577
161.347
158.585
154.856
152.184
150.62
149.657
149.063
147.989
146.029
143.567
140.774
138.112
135.509
132.91
130.112
127.123
123.998
120.811
117.553
114.211
110.772
107.249
103.653
99.9897
96.2584
92.4612
88.6032
84.6876
80.7179
76.6971
72.6285
68.5158
64.3626
60.1728
55.9492
51.6963
47.416
43.1107
38.783
34.4367
30.0752
25.6992
21.3107
16.9106
12.5018
8.08495
3.6598
-0.773271
-5.21343
-9.6589
-14.1103
-18.5698
-23.0392
-27.5172
-32.0045
-36.5033
-41.0155
-45.5423
-50.0857
-54.6466
-59.2359
-63.8326
-68.466
-73.1333
-77.8086
-82.5316
-87.2894
-92.0855
-96.9245
-101.808
-106.736
-111.714
-116.743
-121.826
-126.965
-132.158
-137.408
-142.719
-148.085
-153.51
-158.994
-164.536
-170.133
-175.78
-181.478
-187.227
-193.013
-198.837
-204.694
-210.573
-216.471
-222.378
-228.285
-234.18
-240.054
-245.896
-251.691
-257.427
-263.088
-268.662
-274.133
-279.487
-284.697
-289.751
-294.626
-299.302
-303.755
-307.956
-311.882
-315.492
-318.791
-321.737
-324.245
-326.303
-327.84
-328.803
-329.166
-328.806
-327.564
-325.383
-322.077
-317.384
-310.971
-302.227
-290.527
-275.653
-257.446
-234.981
-206.34
-168.927
-119.254
-50.3128
49.507
177.86
358.353
574.284
754.402
818.489
751.334
568.583
351.446
171.092
42.3677
-56.6313
-125.004
-174.084
-210.794
-238.764
-261.145
-279.855
-295.233
-307.043
-315.708
-321.968
-326.503
-329.705
-331.76
-332.883
-333.161
-332.765
-331.724
-330.078
-327.922
-325.334
-322.316
-318.944
-315.267
-311.277
-307.016
-302.507
-297.778
-292.854
-287.752
-282.497
-277.101
-271.59
-265.979
-260.282
-254.512
-248.685
-242.814
-236.912
-230.991
-225.059
-219.129
-213.209
-207.31
-201.434
-195.593
-189.791
-184.028
-178.315
-172.652
-167.04
-161.482
-155.983
-150.542
-145.159
-139.831
-134.565
-129.355
-124.201
-119.103
-114.059
-109.067
-104.126
-99.2304
-94.3803
-89.5742
-84.82
-80.0891
-75.3793
-70.7136
-66.077
-61.4665
-56.8812
-52.3164
-47.77
-43.2397
-38.7243
-34.2215
-29.7301
-25.2471
-20.7721
-16.3061
-11.8471
-7.39271
-2.94214
1.50299
5.94211
10.3746
14.8021
19.2225
23.6355
28.0382
32.4309
36.8122
41.1793
45.5287
49.8584
54.1665
58.4504
62.7062
66.932
71.1225
75.275
79.3853
83.4493
87.4634
91.4239
95.3262
99.1641
102.936
106.639
110.27
113.816
117.265
120.627
123.919
127.146
130.237
133.135
135.83
138.502
141.238
144.115
146.643
148.656
149.758
150.353
151.287
152.779
155.328
158.892
161.425
162.363
160.395
155.596
139.466
134.899
148.129
166.794
182.733
176.992
159.436
160.104
192.658
195.671
171.079
171.579
188.871
190.447
170.018
153.173
138.117
141.481
156.698
160.951
162.554
161.335
158.582
154.862
152.194
150.627
149.661
149.063
147.987
146.027
143.566
140.772
138.11
135.51
132.91
130.112
127.123
123.999
120.811
117.554
114.211
110.772
107.249
103.654
99.9901
96.2589
92.4616
88.6036
84.688
80.7183
76.6975
72.6289
68.5162
64.363
60.1732
55.9496
51.6967
47.4164
43.1111
38.7834
34.4371
30.0756
25.6996
21.3111
16.9109
12.5022
8.08533
3.66018
-0.772897
-5.21307
-9.65852
-14.11
-18.5694
-23.0388
-27.5168
-32.0042
-36.5029
-41.0152
-45.542
-50.0853
-54.6462
-59.2349
-63.8322
-68.4655
-73.1324
-77.8082
-82.5312
-87.289
-92.0851
-96.9241
-101.807
-106.736
-111.713
-116.743
-121.826
-126.964
-132.157
-137.408
-142.718
-148.085
-153.51
-158.993
-164.535
-170.132
-175.78
-181.477
-187.226
-193.012
-198.836
-204.693
-210.572
-216.47
-222.377
-228.284
-234.179
-240.053
-245.895
-251.689
-257.425
-263.086
-268.66
-274.131
-279.485
-284.695
-289.749
-294.623
-299.299
-303.752
-307.953
-311.879
-315.49
-318.789
-321.733
-324.241
-326.299
-327.835
-328.797
-329.16
-328.799
-327.557
-325.374
-322.067
-317.374
-310.961
-302.215
-290.511
-275.633
-257.421
-234.951
-206.302
-168.879
-119.192
-50.2295
49.6245
178.032
358.557
574.429
754.416
818.447
751.351
568.733
351.654
171.266
42.4878
-56.5476
-124.942
-174.035
-210.754
-238.733
-261.12
-279.836
-295.218
-307.032
-315.699
-321.959
-326.494
-329.696
-331.753
-332.878
-333.156
-332.76
-331.72
-330.074
-327.918
-325.33
-322.313
-318.941
-315.264
-311.274
-307.013
-302.504
-297.776
-292.852
-287.75
-282.495
-277.099
-271.589
-265.977
-260.28
-254.51
-248.684
-242.812
-236.911
-230.989
-225.058
-219.128
-213.208
-207.309
-201.434
-195.592
-189.79
-184.027
-178.315
-172.652
-167.039
-161.482
-155.982
-150.541
-145.158
-139.831
-134.564
-129.355
-124.201
-119.102
-114.058
-109.067
-104.125
-99.2299
-94.3799
-89.5738
-84.819
-80.088
-75.3789
-70.7131
-66.0766
-61.4661
-56.8808
-52.316
-47.7696
-43.2393
-38.7239
-34.2212
-29.7297
-25.2467
-20.7717
-16.3058
-11.8467
-7.39233
-2.94175
1.50338
5.94251
10.375
14.8025
19.2229
23.6359
28.0386
32.4313
36.8126
41.1797
45.5291
49.8589
54.1669
58.4508
62.7067
66.9324
71.1229
75.2754
79.3857
83.4497
87.4639
91.4244
95.3266
99.1646
102.936
106.64
110.271
113.817
117.265
120.628
123.919
127.147
130.238
133.136
135.831
138.503
141.239
144.115
146.641
148.654
149.757
150.357
151.294
152.789
155.334
158.889
161.412
162.339
160.363
155.595
139.69
135.28
148.324
166.787
182.75
177.105
159.853
160.272
192.146
194.846
171.121
171.87
189.093
190.474
170.102
153.478
138.683
141.824
156.701
160.903
162.517
161.314
158.577
154.873
152.209
150.639
149.667
149.063
147.984
146.025
143.565
140.77
138.108
135.511
132.911
130.113
127.123
123.999
120.812
117.555
114.212
110.773
107.25
103.655
99.9908
96.2596
92.4623
88.6043
84.6887
80.719
76.6981
72.6296
68.5169
64.3637
60.1739
55.9502
51.6973
47.4171
43.1118
38.7841
34.4377
30.0762
25.7002
21.3118
16.9116
12.5028
8.08597
3.66082
-0.77226
-5.21243
-9.65789
-14.1093
-18.5688
-23.0382
-27.5162
-32.0035
-36.5022
-41.0145
-45.5413
-50.0847
-54.6456
-59.2333
-63.8316
-68.4649
-73.1311
-77.8075
-82.5305
-87.2883
-92.0843
-96.9233
-101.806
-106.735
-111.713
-116.742
-121.825
-126.963
-132.156
-137.407
-142.717
-148.084
-153.509
-158.992
-164.534
-170.131
-175.778
-181.476
-187.224
-193.01
-198.834
-204.691
-210.57
-216.469
-222.375
-228.282
-234.177
-240.051
-245.892
-251.687
-257.422
-263.084
-268.657
-274.128
-279.481
-284.692
-289.745
-294.619
-299.295
-303.748
-307.948
-311.874
-315.486
-318.784
-321.726
-324.234
-326.292
-327.827
-328.789
-329.151
-328.789
-327.545
-325.359
-322.052
-317.358
-310.944
-302.195
-290.484
-275.6
-257.38
-234.9
-206.239
-168.8
-119.088
-50.0921
49.8166
178.303
358.872
574.653
754.45
818.402
751.391
568.965
351.976
171.542
42.6836
-56.4091
-124.84
-173.954
-210.689
-238.681
-261.079
-279.803
-295.193
-307.013
-315.683
-321.944
-326.48
-329.683
-331.742
-332.868
-333.147
-332.752
-331.712
-330.067
-327.912
-325.324
-322.309
-318.937
-315.259
-311.269
-307.009
-302.5
-297.772
-292.849
-287.747
-282.492
-277.096
-271.586
-265.974
-260.278
-254.508
-248.681
-242.81
-236.909
-230.988
-225.056
-219.126
-213.206
-207.307
-201.432
-195.591
-189.789
-184.026
-178.313
-172.651
-167.038
-161.481
-155.981
-150.54
-145.157
-139.83
-134.563
-129.354
-124.2
-119.101
-114.058
-109.066
-104.124
-99.2292
-94.3791
-89.573
-84.8176
-80.0864
-75.3781
-70.7125
-66.0759
-61.4655
-56.8801
-52.3153
-47.7689
-43.2387
-38.7232
-34.2205
-29.729
-25.246
-20.7711
-16.3051
-11.846
-7.39166
-2.94108
1.50405
5.94318
10.3757
14.8032
19.2236
23.6366
28.0393
32.432
36.8133
41.1804
45.5299
49.8596
54.1676
58.4515
62.7074
66.9331
71.1237
75.2762
79.3865
83.4505
87.4646
91.4251
95.3274
99.1653
102.937
106.64
110.271
113.817
117.266
120.629
123.92
127.148
130.238
133.137
135.832
138.505
141.24
144.114
146.639
148.65
149.757
150.363
151.306
152.805
155.346
158.884
161.391
162.301
160.313
155.595
140.033
135.861
148.674
166.893
182.799
177.313
160.218
160.35
191.291
193.612
170.946
172.083
189.527
190.531
170.327
153.984
139.46
142.288
156.7
160.833
162.462
161.283
158.571
154.891
152.234
150.656
149.676
149.062
147.978
146.021
143.563
140.768
138.107
135.513
132.911
130.113
127.124
124.001
120.813
117.556
114.213
110.774
107.251
103.656
99.9919
96.2606
92.4634
88.6053
84.6897
80.72
76.6992
72.6306
68.5179
64.3647
60.1749
55.9512
51.6983
47.4181
43.1128
38.7851
34.4387
30.0772
25.7012
21.3127
16.9126
12.5038
8.08694
3.66179
-0.771292
-5.21146
-9.65692
-14.1084
-18.5679
-23.0372
-27.5152
-32.0026
-36.5013
-41.0136
-45.5403
-50.0837
-54.6445
-59.2315
-63.8306
-68.4638
-73.1293
-77.8064
-82.5295
-87.2872
-92.0832
-96.9222
-101.805
-106.734
-111.711
-116.74
-121.824
-126.962
-132.155
-137.405
-142.716
-148.082
-153.507
-158.991
-164.533
-170.129
-175.776
-181.474
-187.222
-193.008
-198.832
-204.689
-210.567
-216.466
-222.373
-228.279
-234.174
-240.048
-245.889
-251.683
-257.419
-263.08
-268.653
-274.124
-279.477
-284.687
-289.74
-294.614
-299.289
-303.741
-307.942
-311.867
-315.479
-318.777
-321.717
-324.225
-326.281
-327.816
-328.776
-329.137
-328.774
-327.529
-325.339
-322.03
-317.334
-310.918
-302.164
-290.445
-275.552
-257.319
-234.825
-206.147
-168.683
-118.936
-49.8883
50.1006
178.698
359.314
574.964
754.506
818.351
751.454
569.286
352.427
171.941
42.9724
-56.203
-124.688
-173.836
-210.594
-238.606
-261.019
-279.756
-295.155
-306.985
-315.66
-321.922
-326.459
-329.664
-331.727
-332.854
-333.134
-332.74
-331.701
-330.057
-327.903
-325.315
-322.302
-318.931
-315.252
-311.263
-307.003
-302.494
-297.767
-292.843
-287.742
-282.487
-277.092
-271.582
-265.971
-260.274
-254.504
-248.678
-242.807
-236.906
-230.985
-225.054
-219.124
-213.203
-207.305
-201.43
-195.589
-189.787
-184.024
-178.312
-172.649
-167.036
-161.479
-155.98
-150.539
-145.156
-139.828
-134.562
-129.353
-124.199
-119.1
-114.056
-109.065
-104.123
-99.228
-94.378
-89.5719
-84.8158
-80.0844
-75.377
-70.7114
-66.0749
-61.4644
-56.8791
-52.3143
-47.7679
-43.2377
-38.7222
-34.2195
-29.728
-25.245
-20.7701
-16.3041
-11.845
-7.39065
-2.94007
1.50507
5.9442
10.3767
14.8042
19.2246
23.6376
28.0404
32.433
36.8144
41.1815
45.5309
49.8606
54.1687
58.4526
62.7085
66.9342
71.1248
75.2773
79.3876
83.4516
87.4658
91.4263
95.3285
99.1665
102.938
106.642
110.272
113.819
117.267
120.63
123.921
127.149
130.239
133.138
135.834
138.508
141.242
144.114
146.636
148.645
149.757
150.372
151.324
152.83
155.365
158.878
161.359
162.245
160.241
155.591
140.501
136.663
149.254
167.167
182.875
177.681
160.504
160.206
190.01
191.915
170.475
172.147
190.201
190.637
170.716
154.752
140.431
142.863
156.698
160.745
162.391
161.243
158.563
154.916
152.267
150.68
149.688
149.062
147.972
146.016
143.561
140.767
138.108
135.515
132.913
130.114
127.126
124.002
120.815
117.557
114.214
110.775
107.252
103.657
99.9933
96.2621
92.4648
88.6068
84.6911
80.7215
76.7006
72.632
68.5193
64.3662
60.1763
55.9526
51.6997
47.4195
43.1142
38.7864
34.4401
30.0786
25.7026
21.3141
16.9139
12.5052
8.08828
3.66312
-0.769958
-5.21013
-9.6556
-14.1071
-18.5665
-23.0359
-27.5139
-32.0013
-36.5
-41.0122
-45.539
-50.0823
-54.6432
-59.2294
-63.8292
-68.4624
-73.1272
-77.805
-82.528
-87.2858
-92.0817
-96.9207
-101.804
-106.732
-111.71
-116.739
-121.822
-126.96
-132.153
-137.403
-142.714
-148.08
-153.505
-158.988
-164.53
-170.127
-175.774
-181.471
-187.22
-193.005
-198.829
-204.686
-210.564
-216.463
-222.369
-228.275
-234.17
-240.043
-245.884
-251.679
-257.414
-263.074
-268.648
-274.118
-279.47
-284.68
-289.733
-294.606
-299.281
-303.733
-307.932
-311.857
-315.469
-318.767
-321.705
-324.212
-326.267
-327.8
-328.76
-329.119
-328.754
-327.507
-325.313
-322.001
-317.303
-310.884
-302.123
-290.392
-275.487
-257.239
-234.725
-206.022
-168.524
-118.727
-49.6071
50.4921
179.233
359.886
575.363
754.582
818.292
751.538
569.698
353.012
172.484
43.3696
-55.9186
-124.479
-173.675
-210.467
-238.505
-260.938
-279.692
-295.105
-306.946
-315.628
-321.894
-326.433
-329.64
-331.706
-332.835
-333.117
-332.725
-331.687
-330.044
-327.891
-325.304
-322.293
-318.922
-315.243
-311.254
-306.995
-302.487
-297.759
-292.836
-287.735
-282.481
-277.086
-271.576
-265.965
-260.269
-254.5
-248.674
-242.803
-236.902
-230.981
-225.05
-219.12
-213.2
-207.302
-201.427
-195.586
-189.784
-184.021
-178.309
-172.646
-167.034
-161.477
-155.978
-150.537
-145.154
-139.826
-134.56
-129.351
-124.197
-119.098
-114.055
-109.063
-104.122
-99.2265
-94.3765
-89.5704
-84.8136
-80.0822
-75.3756
-70.71
-66.0735
-61.463
-56.8777
-52.3129
-47.7665
-43.2363
-38.7208
-34.2181
-29.7266
-25.2437
-20.7687
-16.3027
-11.8436
-7.38926
-2.93867
1.50647
5.94561
10.3781
14.8056
19.226
23.6391
28.0418
32.4345
36.8158
41.183
45.5324
49.8622
54.1702
58.4542
62.71
66.9358
71.1263
75.2789
79.3892
83.4532
87.4674
91.4279
95.3302
99.1682
102.94
106.643
110.274
113.82
117.269
120.632
123.923
127.15
130.24
133.139
135.836
138.511
141.246
144.113
146.631
148.638
149.756
150.384
151.349
152.865
155.391
158.872
161.319
162.174
160.152
155.588
141.085
137.666
150.131
167.635
182.989
178.247
160.654
159.746
188.266
189.785
169.695
172.037
191.031
190.868
171.375
155.861
141.576
143.538
156.705
160.648
162.308
161.194
158.555
154.947
152.309
150.711
149.703
149.061
147.963
146.01
143.559
140.768
138.11
135.518
132.914
130.116
127.127
124.004
120.817
117.559
114.216
110.777
107.254
103.659
99.9952
96.2639
92.4667
88.6086
84.693
80.7233
76.7024
72.6338
68.5212
64.368
60.1781
55.9544
51.7015
47.4212
43.1159
38.7882
34.4418
30.0803
25.7043
21.3158
16.9156
12.5069
8.09
3.66483
-0.768256
-5.20843
-9.6539
-14.1054
-18.5649
-23.0342
-27.5122
-31.9996
-36.4983
-41.0105
-45.5373
-50.0806
-54.6414
-59.2271
-63.8274
-68.4606
-73.1247
-77.8032
-82.5262
-87.2839
-92.0798
-96.9187
-101.802
-106.73
-111.708
-116.737
-121.82
-126.958
-132.151
-137.401
-142.711
-148.078
-153.502
-158.986
-164.527
-170.124
-175.771
-181.468
-187.216
-193.002
-198.825
-204.682
-210.56
-216.458
-222.364
-228.27
-234.165
-240.038
-245.879
-251.673
-257.407
-263.068
-268.64
-274.11
-279.462
-284.672
-289.724
-294.597
-299.271
-303.722
-307.921
-311.845
-315.457
-318.754
-321.69
-324.195
-326.249
-327.781
-328.739
-329.096
-328.729
-327.479
-325.281
-321.965
-317.265
-310.84
-302.07
-290.326
-275.404
-257.136
-234.598
-205.861
-168.318
-118.456
-49.238
51.0045
179.911
360.594
575.846
754.675
818.224
751.641
570.197
353.733
173.174
43.8891
-55.5451
-124.206
-173.467
-210.304
-238.376
-260.836
-279.612
-295.042
-306.897
-315.587
-321.858
-326.399
-329.61
-331.681
-332.812
-333.096
-332.705
-331.669
-330.027
-327.875
-325.29
-322.28
-318.91
-315.231
-311.243
-306.984
-302.477
-297.75
-292.828
-287.727
-282.473
-277.079
-271.569
-265.959
-260.263
-254.494
-248.668
-242.798
-236.897
-230.976
-225.046
-219.116
-213.196
-207.298
-201.423
-195.582
-189.781
-184.018
-178.306
-172.643
-167.031
-161.474
-155.975
-150.534
-145.151
-139.824
-134.558
-129.349
-124.195
-119.096
-114.053
-109.061
-104.12
-99.2245
-94.3745
-89.5685
-84.8111
-80.0797
-75.3737
-70.7082
-66.0717
-61.4613
-56.8759
-52.3112
-47.7648
-43.2345
-38.7191
-34.2164
-29.7249
-25.2419
-20.7669
-16.3009
-11.8419
-7.38748
-2.93689
1.50826
5.94741
10.3799
14.8075
19.2279
23.6409
28.0437
32.4364
36.8177
41.1849
45.5343
49.8641
54.1721
58.4561
62.712
66.9378
71.1283
75.2809
79.3912
83.4553
87.4695
91.43
95.3323
99.1703
102.942
106.646
110.276
113.822
117.271
120.634
123.926
127.152
130.242
133.141
135.84
138.516
141.25
144.113
146.626
148.63
149.756
150.4
151.38
152.908
155.424
158.864
161.271
162.09
160.055
155.594
141.77
138.847
151.385
168.386
183.181
178.951
160.62
158.958
186.105
187.298
168.578
171.835
191.902
191.34
172.345
157.292
142.819
144.309
156.732
160.55
162.215
161.139
158.544
154.985
152.359
150.748
149.723
149.061
147.953
146.003
143.556
140.77
138.114
135.522
132.916
130.117
127.129
124.007
120.819
117.562
114.218
110.78
107.257
103.661
99.9975
96.2662
92.4689
88.6109
84.6952
80.7255
76.7047
72.6361
68.5234
64.3702
60.1803
55.9566
51.7037
47.4234
43.1181
38.7904
34.444
30.0825
25.7064
21.318
16.9178
12.509
8.09209
3.66692
-0.766171
-5.20635
-9.65183
-14.1033
-18.5628
-23.0321
-27.5102
-31.9975
-36.4962
-41.0085
-45.5353
-50.0786
-54.6393
-59.2245
-63.8252
-68.4584
-73.122
-77.801
-82.524
-87.2816
-92.0775
-96.9164
-101.799
-106.728
-111.705
-116.734
-121.817
-126.955
-132.148
-137.398
-142.708
-148.074
-153.499
-158.982
-164.524
-170.12
-175.767
-181.464
-187.212
-192.997
-198.821
-204.677
-210.555
-216.453
-222.359
-228.264
-234.159
-240.031
-245.872
-251.665
-257.4
-263.06
-268.632
-274.101
-279.453
-284.661
-289.713
-294.585
-299.258
-303.709
-307.907
-311.83
-315.443
-318.738
-321.672
-324.176
-326.228
-327.758
-328.714
-329.069
-328.699
-327.446
-325.243
-321.922
-317.217
-310.786
-302.005
-290.245
-275.303
-257.01
-234.44
-205.662
-168.06
-118.112
-48.7692
51.6456
180.696
361.478
576.407
754.781
818.143
751.757
570.775
354.628
173.975
44.5389
-55.071
-123.86
-173.207
-210.103
-238.218
-260.71
-279.513
-294.965
-306.836
-315.537
-321.814
-326.36
-329.574
-331.65
-332.784
-333.071
-332.682
-331.648
-330.007
-327.857
-325.272
-322.265
-318.896
-315.217
-311.23
-306.972
-302.465
-297.739
-292.817
-287.717
-282.464
-277.07
-271.561
-265.951
-260.255
-254.487
-248.661
-242.791
-236.891
-230.97
-225.04
-219.111
-213.191
-207.293
-201.418
-195.578
-189.776
-184.014
-178.302
-172.64
-167.028
-161.471
-155.972
-150.531
-145.148
-139.821
-134.555
-129.346
-124.192
-119.094
-114.05
-109.059
-104.117
-99.2221
-94.3722
-89.5662
-84.8082
-80.0769
-75.3714
-70.706
-66.0695
-61.4591
-56.8737
-52.309
-47.7626
-43.2324
-38.7169
-34.2142
-29.7227
-25.2398
-20.7648
-16.2988
-11.8397
-7.3853
-2.9347
1.51046
5.94962
10.3822
14.8097
19.2301
23.6432
28.0459
32.4386
36.82
41.1872
45.5367
49.8664
54.1745
58.4585
62.7144
66.9402
71.1308
75.2834
79.3937
83.4578
87.472
91.4325
95.3348
99.1729
102.945
106.648
110.279
113.825
117.274
120.637
123.928
127.154
130.244
133.143
135.844
138.522
141.255
144.112
146.619
148.62
149.756
150.42
151.418
152.959
155.463
158.854
161.217
161.998
159.958
155.622
142.553
140.141
152.982
169.421
183.539
179.692
160.455
157.831
183.616
184.538
167.114
171.55
192.689
192.092
173.577
158.887
144.182
145.181
156.788
160.457
162.114
161.077
158.531
155.027
152.417
150.791
149.747
149.063
147.942
145.995
143.554
140.773
138.119
135.527
132.919
130.119
127.132
124.009
120.822
117.564
114.221
110.782
107.259
103.664
100
96.2688
92.4716
88.6135
84.6979
80.7282
76.7073
72.6387
68.526
64.3728
60.1829
55.9592
51.7063
47.426
43.1207
38.7929
34.4466
30.085
25.709
21.3205
16.9203
12.5115
8.09459
3.66941
-0.76369
-5.20387
-9.64936
-14.1008
-18.5603
-23.0297
-27.5077
-31.9951
-36.4938
-41.006
-45.5328
-50.0761
-54.6368
-59.2216
-63.8226
-68.4559
-73.119
-77.7984
-82.5213
-87.2789
-92.0748
-96.9136
-101.797
-106.725
-111.702
-116.731
-121.814
-126.952
-132.145
-137.395
-142.705
-148.071
-153.495
-158.978
-164.52
-170.116
-175.762
-181.459
-187.207
-192.992
-198.815
-204.671
-210.549
-216.446
-222.352
-228.257
-234.151
-240.024
-245.864
-251.657
-257.39
-263.05
-268.622
-274.09
-279.441
-284.649
-289.7
-294.571
-299.244
-303.694
-307.891
-311.813
-315.425
-318.718
-321.65
-324.152
-326.203
-327.731
-328.684
-329.036
-328.663
-327.406
-325.197
-321.871
-317.16
-310.72
-301.926
-290.148
-275.182
-256.858
-234.249
-205.419
-167.744
-117.688
-48.1891
52.4209
181.567
362.562
577.038
754.895
818.048
751.883
571.426
355.729
174.86
45.3239
-54.4844
-123.432
-172.888
-209.858
-238.026
-260.559
-279.394
-294.872
-306.763
-315.477
-321.761
-326.312
-329.532
-331.612
-332.751
-333.04
-332.654
-331.622
-329.983
-327.835
-325.252
-322.246
-318.879
-315.2
-311.214
-306.957
-302.451
-297.726
-292.805
-287.705
-282.453
-277.059
-271.551
-265.941
-260.246
-254.478
-248.653
-242.783
-236.883
-230.963
-225.033
-219.104
-213.185
-207.287
-201.413
-195.572
-189.771
-184.009
-178.298
-172.635
-167.024
-161.467
-155.968
-150.527
-145.144
-139.818
-134.551
-129.342
-124.189
-119.09
-114.047
-109.056
-104.114
-99.2192
-94.3693
-89.5634
-84.8051
-80.0737
-75.3687
-70.7033
-66.0669
-61.4565
-56.8711
-52.3064
-47.7601
-43.2298
-38.7144
-34.2117
-29.7202
-25.2372
-20.7622
-16.2962
-11.8371
-7.38271
-2.9321
1.51307
5.95225
10.3848
14.8124
19.2328
23.6459
28.0487
32.4414
36.8228
41.1899
45.5394
49.8692
54.1773
58.4613
62.7173
66.9431
71.1337
75.2863
79.3966
83.4607
87.4749
91.4355
95.3378
99.1758
102.948
106.651
110.282
113.828
117.277
120.64
123.932
127.157
130.246
133.146
135.849
138.528
141.26
144.11
146.612
148.61
149.757
150.444
151.462
153.018
155.507
158.844
161.156
161.9
159.868
155.681
143.438
141.561
154.757
170.649
184.134
180.332
160.153
156.351
180.864
181.556
165.31
171.197
193.269
193.004
174.967
160.479
145.741
146.156
156.88
160.375
162.009
161.009
158.517
155.076
152.483
150.843
149.776
149.065
147.93
145.986
143.551
140.778
138.125
135.532
132.922
130.121
127.134
124.013
120.825
117.567
114.224
110.785
107.262
103.667
100.003
96.2719
92.4746
88.6166
84.701
80.7312
76.7104
72.6418
68.5291
64.3758
60.186
55.9623
51.7093
47.429
43.1237
38.7959
34.4496
30.088
25.7119
21.3235
16.9232
12.5144
8.09752
3.67233
-0.760772
-5.20096
-9.64645
-14.0979
-18.5574
-23.0268
-27.5048
-31.9922
-36.4909
-41.0031
-45.5299
-50.0731
-54.6338
-59.2183
-63.8196
-68.4528
-73.1156
-77.7953
-82.5181
-87.2757
-92.0715
-96.9103
-101.793
-106.722
-111.699
-116.727
-121.81
-126.948
-132.141
-137.39
-142.7
-148.066
-153.49
-158.973
-164.515
-170.111
-175.757
-181.453
-187.201
-192.986
-198.809
-204.664
-210.542
-216.439
-222.344
-228.249
-234.143
-240.015
-245.854
-251.647
-257.38
-263.038
-268.61
-274.078
-279.428
-284.635
-289.685
-294.555
-299.227
-303.675
-307.871
-311.792
-315.403
-318.695
-321.625
-324.125
-326.173
-327.699
-328.649
-328.998
-328.621
-327.359
-325.144
-321.811
-317.093
-310.643
-301.833
-290.032
-275.038
-256.677
-234.02
-205.126
-167.36
-117.172
-47.4873
53.3383
182.566
363.782
577.735
755.014