/*--------------------------------*- C++ -*----------------------------------*\
| =========                 |                                                 |
| \\      /  F ield         | OpenFOAM: The Open Source CFD Toolbox           |
|  \\    /   O peration     | Version:  2412                                  |
|   \\  /    A nd           | Website:  www.openfoam.com                      |
|    \\/     M anipulation  |                                                 |
\*---------------------------------------------------------------------------*/
FoamFile
{
    version     2.0;
    format      ascii;
    arch        "LSB;label=32;scalar=64";
    class       volScalarField;
    location    "80";
    object      p;
}
// * * * * * * * * * * * * * * * * * * * * * * * * * * * * * * * * * * * * * //

dimensions      [0 2 -2 0 0 0 0];

internalField   nonuniform List<scalar> 
29601
(
195.194
153.994
162.315
175.807
170.551
155.177
135.1
128.97
147.369
155.833
158.513
158.401
156.355
153.078
149.878
148.087
146.936
146.254
145.709
144.446
142.507
140.141
137.52
135.054
132.656
130.255
127.697
124.955
122.082
119.137
116.134
113.055
109.883
106.621
103.276
99.8569
96.3622
92.7936
89.1525
85.4428
81.6683
77.8324
73.9386
69.9893
65.9916
61.9462
57.8606
53.7352
49.576
45.3846
41.1641
36.9178
32.6498
28.3634
24.0607
19.7435
15.4109
11.0663
6.71092
2.34565
-2.03035
-6.41447
-10.8058
-15.2047
-19.613
-24.0324
-28.4618
-32.9014
-37.3537
-41.8201
-46.3021
-50.8014
-55.3197
-59.8594
-64.4248
-69.0167
-73.636
-78.2862
-82.9734
-87.6957
-92.4572
-97.2618
-102.112
-107.007
-111.952
-116.949
-122.001
-127.108
-132.27
-137.491
-142.772
-148.109
-153.505
-158.959
-164.473
-170.042
-175.663
-181.333
-187.055
-192.816
-198.615
-204.448
-210.305
-216.182
-222.07
-227.958
-233.838
-239.699
-245.531
-251.321
-257.054
-262.715
-268.29
-273.764
-279.123
-284.343
-289.41
-294.3
-298.99
-303.457
-307.685
-311.644
-315.293
-318.609
-321.554
-324.074
-326.148
-327.701
-328.684
-329
-328.547
-327.316
-325.068
-321.547
-316.51
-309.687
-300.509
-288.499
-273.122
-253.82
-229.304
-196.922
-153.657
-94.7041
-10.866
119.352
286.982
519.816
736.96
818.694
734.862
516.047
282.635
115.448
-14.7816
-98.0765
-156.387
-199.117
-230.986
-255.889
-275.844
-291.909
-304.167
-313.186
-319.782
-324.603
-327.98
-330.138
-331.403
-331.803
-331.378
-330.343
-328.746
-326.611
-324.04
-321.065
-317.698
-314.009
-310.023
-305.759
-301.255
-296.538
-291.624
-286.529
-281.286
-275.905
-270.41
-264.815
-259.135
-253.383
-247.576
-241.728
-235.851
-229.957
-224.054
-218.154
-212.264
-206.395
-200.551
-194.741
-188.97
-183.239
-177.56
-171.931
-166.353
-160.831
-155.369
-149.966
-144.621
-139.334
-134.107
-128.939
-123.826
-118.768
-113.766
-108.815
-103.914
-99.0598
-94.2504
-89.4844
-84.7575
-80.0663
-75.4123
-70.7893
-66.1939
-61.6254
-57.0829
-52.5618
-48.0598
-43.5753
-39.1063
-34.6517
-30.2096
-25.7775
-21.3553
-16.9439
-12.5414
-8.14593
-3.7571
0.624507
4.9963
9.35948
13.713
18.0578
22.3908
26.7102
31.0148
35.3033
39.5722
43.8189
48.0412
52.2365
56.4015
60.5342
64.6288
68.684
72.6934
76.6543
80.5622
84.4135
88.2045
91.9306
95.5871
99.1702
102.68
106.114
109.464
112.721
115.88
118.959
121.975
124.912
127.713
130.326
132.779
135.221
137.72
140.364
142.749
144.706
145.99
146.561
147.257
148.399
150.149
153.269
156.451
158.417
158.495
155.805
147.494
129.27
135.187
155.061
170.627
177.395
163.63
153.585
193.318
195.097
154.079
162.34
175.799
170.537
155.207
135.148
128.995
147.362
155.825
158.509
158.399
156.355
153.078
149.878
148.087
146.937
146.254
145.709
144.446
142.507
140.141
137.52
135.054
132.656
130.255
127.697
124.955
122.082
119.137
116.134
113.055
109.883
106.621
103.276
99.8569
96.3623
92.7937
89.1525
85.4428
81.6683
77.8324
73.9386
69.9893
65.9916
61.9462
57.8606
53.7352
49.576
45.3846
41.1641
36.9178
32.6498
28.3634
24.0607
19.7435
15.4109
11.0663
6.71093
2.34567
-2.03034
-6.41444
-10.8058
-15.2047
-19.613
-24.0324
-28.4618
-32.9014
-37.3536
-41.8201
-46.3021
-50.8014
-55.3197
-59.8595
-64.4248
-69.0167
-73.636
-78.2862
-82.9734
-87.6957
-92.4571
-97.2618
-102.112
-107.007
-111.952
-116.949
-122.001
-127.108
-132.27
-137.491
-142.772
-148.109
-153.505
-158.959
-164.473
-170.042
-175.663
-181.333
-187.055
-192.815
-198.615
-204.448
-210.305
-216.182
-222.07
-227.958
-233.838
-239.699
-245.531
-251.321
-257.054
-262.715
-268.29
-273.764
-279.123
-284.343
-289.41
-294.3
-298.99
-303.457
-307.685
-311.644
-315.293
-318.609
-321.554
-324.074
-326.148
-327.701
-328.683
-329
-328.547
-327.316
-325.068
-321.547
-316.51
-309.687
-300.509
-288.499
-273.122
-253.82
-229.303
-196.922
-153.657
-94.7035
-10.8651
119.353
286.979
519.803
736.937
818.676
734.839
516.035
282.633
115.448
-14.7807
-98.0759
-156.387
-199.116
-230.986
-255.889
-275.844
-291.909
-304.167
-313.186
-319.782
-324.603
-327.98
-330.138
-331.403
-331.803
-331.378
-330.343
-328.746
-326.611
-324.04
-321.065
-317.698
-314.009
-310.023
-305.759
-301.255
-296.538
-291.624
-286.529
-281.286
-275.905
-270.41
-264.815
-259.135
-253.383
-247.576
-241.728
-235.851
-229.957
-224.054
-218.154
-212.264
-206.395
-200.551
-194.741
-188.97
-183.239
-177.56
-171.931
-166.353
-160.831
-155.369
-149.966
-144.621
-139.334
-134.107
-128.939
-123.826
-118.768
-113.766
-108.815
-103.914
-99.0598
-94.2504
-89.4844
-84.7575
-80.0663
-75.4122
-70.7893
-66.1939
-61.6254
-57.0829
-52.5618
-48.0597
-43.5752
-39.1063
-34.6517
-30.2095
-25.7775
-21.3553
-16.9439
-12.5414
-8.1459
-3.75709
0.624529
4.99631
9.35948
13.713
18.0578
22.3908
26.7102
31.0149
35.3033
39.5722
43.8189
48.0412
52.2366
56.4016
60.5343
64.6288
68.6841
72.6934
76.6544
80.5623
84.4135
88.2045
91.9306
95.5871
99.1703
102.68
106.114
109.464
112.721
115.88
118.959
121.975
124.912
127.713
130.326
132.779
135.221
137.72
140.364
142.749
144.706
145.99
146.561
147.257
148.399
150.15
153.269
156.45
158.415
158.491
155.797
147.486
129.295
135.234
155.09
170.615
177.381
163.645
153.673
193.228
194.967
154.2
162.412
175.79
170.525
155.237
135.214
129.031
147.354
155.816
158.504
158.396
156.354
153.079
149.879
148.088
146.937
146.254
145.709
144.446
142.507
140.141
137.521
135.054
132.656
130.255
127.697
124.955
122.082
119.137
116.134
113.055
109.883
106.621
103.276
99.8569
96.3623
92.7937
89.1526
85.4428
81.6684
77.8325
73.9387
69.9893
65.9917
61.9462
57.8607
53.7353
49.5761
45.3847
41.1641
36.9179
32.6498
28.3634
24.0607
19.7435
15.4109
11.0664
6.71095
2.34568
-2.03031
-6.41443
-10.8057
-15.2046
-19.6129
-24.0323
-28.4618
-32.9014
-37.3536
-41.8201
-46.3021
-50.8014
-55.3197
-59.8594
-64.4248
-69.0166
-73.6359
-78.2862
-82.9733
-87.6957
-92.4571
-97.2618
-102.112
-107.007
-111.952
-116.949
-122.001
-127.108
-132.27
-137.491
-142.772
-148.109
-153.505
-158.959
-164.473
-170.042
-175.663
-181.333
-187.055
-192.815
-198.615
-204.448
-210.305
-216.182
-222.07
-227.958
-233.838
-239.699
-245.531
-251.32
-257.053
-262.715
-268.29
-273.764
-279.123
-284.343
-289.41
-294.3
-298.99
-303.457
-307.685
-311.644
-315.293
-318.609
-321.553
-324.074
-326.148
-327.701
-328.683
-329
-328.547
-327.315
-325.068
-321.547
-316.51
-309.687
-300.508
-288.498
-273.121
-253.819
-229.303
-196.921
-153.655
-94.7012
-10.8607
119.358
286.989
519.806
736.922
818.655
734.824
516.037
282.643
115.454
-14.7762
-98.0735
-156.385
-199.115
-230.985
-255.888
-275.843
-291.909
-304.167
-313.186
-319.782
-324.603
-327.98
-330.138
-331.403
-331.803
-331.378
-330.343
-328.746
-326.611
-324.04
-321.065
-317.698
-314.009
-310.023
-305.759
-301.255
-296.538
-291.624
-286.529
-281.286
-275.905
-270.41
-264.815
-259.135
-253.383
-247.576
-241.728
-235.851
-229.957
-224.054
-218.154
-212.264
-206.395
-200.551
-194.741
-188.97
-183.239
-177.56
-171.93
-166.353
-160.831
-155.369
-149.966
-144.621
-139.334
-134.107
-128.939
-123.826
-118.768
-113.766
-108.815
-103.914
-99.0597
-94.2504
-89.4844
-84.7575
-80.0662
-75.4122
-70.7893
-66.1939
-61.6254
-57.0829
-52.5618
-48.0597
-43.5752
-39.1063
-34.6517
-30.2095
-25.7775
-21.3553
-16.9439
-12.5414
-8.14589
-3.75706
0.624547
4.99633
9.35953
13.713
18.0578
22.3909
26.7103
31.0149
35.3033
39.5722
43.8189
48.0412
52.2366
56.4016
60.5343
64.6288
68.6841
72.6935
76.6544
80.5623
84.4136
88.2045
91.9307
95.5872
99.1703
102.68
106.114
109.464
112.721
115.88
118.959
121.975
124.912
127.713
130.326
132.779
135.221
137.721
140.364
142.749
144.705
145.99
146.561
147.257
148.4
150.151
153.269
156.45
158.412
158.487
155.788
147.479
129.33
135.298
155.124
170.604
177.367
163.707
153.801
193.111
194.799
154.365
162.515
175.773
170.519
155.277
135.304
129.085
147.349
155.806
158.499
158.393
156.353
153.079
149.881
148.089
146.937
146.254
145.708
144.445
142.507
140.141
137.521
135.054
132.656
130.255
127.697
124.955
122.083
119.137
116.134
113.055
109.883
106.621
103.276
99.857
96.3623
92.7938
89.1526
85.4429
81.6684
77.8325
73.9387
69.9894
65.9917
61.9463
57.8607
53.7353
49.5761
45.3847
41.1642
36.9179
32.6498
28.3634
24.0608
19.7435
15.411
11.0664
6.711
2.34572
-2.03028
-6.41439
-10.8057
-15.2046
-19.6129
-24.0323
-28.4617
-32.9014
-37.3536
-41.8201
-46.3021
-50.8014
-55.3197
-59.8594
-64.4247
-69.0166
-73.6359
-78.2861
-82.9733
-87.6957
-92.4571
-97.2618
-102.112
-107.007
-111.952
-116.949
-122.001
-127.108
-132.27
-137.491
-142.772
-148.109
-153.505
-158.959
-164.473
-170.042
-175.663
-181.333
-187.055
-192.815
-198.615
-204.448
-210.304
-216.182
-222.069
-227.958
-233.838
-239.699
-245.531
-251.32
-257.053
-262.715
-268.29
-273.764
-279.123
-284.343
-289.41
-294.3
-298.99
-303.457
-307.685
-311.644
-315.293
-318.609
-321.553
-324.074
-326.148
-327.701
-328.683
-328.999
-328.546
-327.315
-325.067
-321.546
-316.509
-309.686
-300.508
-288.497
-273.12
-253.817
-229.3
-196.918
-153.651
-94.6953
-10.8511
119.374
287.014
519.824
736.912
818.63
734.814
516.056
282.668
115.469
-14.7666
-98.0676
-156.381
-199.112
-230.983
-255.886
-275.842
-291.908
-304.166
-313.185
-319.781
-324.602
-327.979
-330.138
-331.403
-331.803
-331.378
-330.343
-328.746
-326.61
-324.04
-321.065
-317.698
-314.008
-310.023
-305.759
-301.254
-296.538
-291.624
-286.529
-281.286
-275.905
-270.41
-264.815
-259.134
-253.383
-247.576
-241.728
-235.851
-229.957
-224.054
-218.154
-212.264
-206.395
-200.551
-194.741
-188.97
-183.239
-177.56
-171.93
-166.353
-160.831
-155.369
-149.966
-144.621
-139.334
-134.107
-128.939
-123.826
-118.768
-113.766
-108.815
-103.914
-99.0597
-94.2503
-89.4844
-84.7575
-80.0662
-75.4122
-70.7893
-66.1939
-61.6253
-57.0828
-52.5617
-48.0597
-43.5752
-39.1063
-34.6516
-30.2095
-25.7775
-21.3552
-16.9438
-12.5414
-8.14584
-3.75702
0.624587
4.99638
9.35956
13.7131
18.0579
22.3909
26.7103
31.0149
35.3033
39.5723
43.819
48.0413
52.2367
56.4016
60.5343
64.6289
68.6842
72.6935
76.6545
80.5624
84.4137
88.2046
91.9308
95.5872
99.1704
102.68
106.114
109.464
112.721
115.88
118.959
121.975
124.912
127.713
130.326
132.779
135.221
137.721
140.364
142.748
144.705
145.989
146.561
147.258
148.401
150.152
153.27
156.449
158.41
158.481
155.778
147.473
129.382
135.385
155.169
170.6
177.353
163.81
153.975
192.957
194.602
154.578
162.647
175.743
170.518
155.336
135.431
129.17
147.349
155.794
158.491
158.389
156.351
153.08
149.882
148.091
146.938
146.254
145.708
144.445
142.507
140.141
137.521
135.054
132.657
130.255
127.697
124.955
122.083
119.137
116.134
113.055
109.883
106.621
103.276
99.8571
96.3624
92.7938
89.1527
85.443
81.6685
77.8326
73.9388
69.9895
65.9918
61.9464
57.8608
53.7354
49.5762
45.3848
41.1642
36.918
32.6499
28.3635
24.0608
19.7436
15.4111
11.0665
6.71106
2.34579
-2.03022
-6.41433
-10.8056
-15.2045
-19.6128
-24.0322
-28.4617
-32.9013
-37.3535
-41.82
-46.302
-50.8013
-55.3196
-59.8593
-64.4247
-69.0165
-73.6358
-78.2861
-82.9732
-87.6956
-92.457
-97.2617
-102.112
-107.007
-111.952
-116.949
-122.001
-127.108
-132.27
-137.49
-142.771
-148.109
-153.504
-158.959
-164.472
-170.042
-175.662
-181.333
-187.055
-192.815
-198.615
-204.448
-210.304
-216.182
-222.069
-227.958
-233.838
-239.699
-245.531
-251.32
-257.053
-262.714
-268.289
-273.763
-279.123
-284.343
-289.409
-294.299
-298.989
-303.456
-307.684
-311.643
-315.292
-318.608
-321.553
-324.073
-326.147
-327.7
-328.682
-328.998
-328.545
-327.314
-325.066
-321.545
-316.508
-309.684
-300.506
-288.495
-273.117
-253.813
-229.295
-196.912
-153.643
-94.6836
-10.8325
119.402
287.058
519.859
736.905
818.603
734.808
516.092
282.713
115.498
-14.7478
-98.0558
-156.373
-199.106
-230.978
-255.882
-275.839
-291.905
-304.165
-313.184
-319.78
-324.601
-327.978
-330.137
-331.402
-331.802
-331.377
-330.342
-328.745
-326.61
-324.039
-321.064
-317.697
-314.008
-310.023
-305.759
-301.254
-296.538
-291.624
-286.529
-281.286
-275.905
-270.41
-264.815
-259.134
-253.383
-247.576
-241.728
-235.851
-229.957
-224.054
-218.153
-212.264
-206.395
-200.551
-194.741
-188.97
-183.239
-177.56
-171.93
-166.353
-160.831
-155.369
-149.966
-144.621
-139.334
-134.107
-128.939
-123.826
-118.768
-113.766
-108.815
-103.914
-99.0596
-94.2503
-89.4843
-84.7574
-80.0661
-75.4121
-70.7892
-66.1938
-61.6253
-57.0828
-52.5617
-48.0596
-43.5751
-39.1062
-34.6516
-30.2094
-25.7774
-21.3552
-16.9438
-12.5413
-8.14577
-3.75696
0.624658
4.99645
9.35963
13.7131
18.0579
22.391
26.7104
31.015
35.3034
39.5724
43.819
48.0413
52.2367
56.4017
60.5344
64.629
68.6843
72.6936
76.6545
80.5624
84.4137
88.2047
91.9308
95.5873
99.1705
102.68
106.114
109.464
112.721
115.88
118.959
121.975
124.912
127.713
130.327
132.779
135.221
137.721
140.364
142.748
144.705
145.989
146.561
147.258
148.402
150.154
153.27
156.447
158.406
158.474
155.767
147.473
129.465
135.508
155.229
170.601
177.327
163.951
154.204
192.766
194.368
154.827
162.835
175.711
170.512
155.406
135.606
129.306
147.358
155.78
158.481
158.383
156.349
153.081
149.885
148.093
146.94
146.255
145.707
144.444
142.506
140.141
137.521
135.055
132.657
130.255
127.697
124.956
122.083
119.137
116.134
113.056
109.883
106.621
103.276
99.8572
96.3626
92.794
89.1528
85.4431
81.6686
77.8327
73.9389
69.9896
65.9919
61.9465
57.8609
53.7355
49.5763
45.3849
41.1643
36.9181
32.65
28.3636
24.0609
19.7437
15.4112
11.0666
6.71117
2.3459
-2.0301
-6.41422
-10.8055
-15.2044
-19.6127
-24.0321
-28.4615
-32.9012
-37.3534
-41.8199
-46.3019
-50.8012
-55.3195
-59.8592
-64.4245
-69.0164
-73.6357
-78.2859
-82.9731
-87.6954
-92.4569
-97.2616
-102.111
-107.007
-111.952
-116.949
-122
-127.108
-132.27
-137.49
-142.771
-148.109
-153.504
-158.959
-164.472
-170.041
-175.662
-181.332
-187.054
-192.815
-198.614
-204.448
-210.304
-216.181
-222.069
-227.958
-233.838
-239.699
-245.53
-251.32
-257.053
-262.714
-268.289
-273.763
-279.122
-284.342
-289.409
-294.299
-298.989
-303.456
-307.684
-311.642
-315.291
-318.607
-321.552
-324.072
-326.146
-327.699
-328.681
-328.997
-328.544
-327.312
-325.064
-321.542
-316.505
-309.681
-300.502
-288.49
-273.111
-253.806
-229.286
-196.9
-153.628
-94.662
-10.7996
119.452
287.133
519.921
736.904
818.574
734.809
516.155
282.788
115.548
-14.7146
-98.034
-156.358
-199.094
-230.969
-255.875
-275.833
-291.901
-304.161
-313.181
-319.778
-324.599
-327.976
-330.135
-331.4
-331.801
-331.375
-330.341
-328.744
-326.609
-324.038
-321.063
-317.696
-314.007
-310.022
-305.758
-301.253
-296.537
-291.623
-286.528
-281.285
-275.904
-270.409
-264.814
-259.134
-253.383
-247.576
-241.727
-235.851
-229.956
-224.054
-218.153
-212.263
-206.395
-200.55
-194.74
-188.97
-183.238
-177.559
-171.93
-166.353
-160.831
-155.369
-149.966
-144.621
-139.334
-134.107
-128.939
-123.825
-118.768
-113.765
-108.815
-103.914
-99.0595
-94.2501
-89.4842
-84.7573
-80.066
-75.412
-70.7891
-66.1937
-61.6252
-57.0826
-52.5615
-48.0595
-43.575
-39.1061
-34.6515
-30.2093
-25.7773
-21.3551
-16.9437
-12.5412
-8.14566
-3.75684
0.624772
4.99657
9.35975
13.7133
18.0581
22.3911
26.7105
31.0152
35.3035
39.5725
43.8192
48.0415
52.2369
56.4018
60.5346
64.6291
68.6844
72.6937
76.6547
80.5626
84.4139
88.2048
91.931
95.5875
99.1706
102.681
106.114
109.464
112.721
115.88
118.959
121.975
124.912
127.713
130.327
132.779
135.221
137.721
140.364
142.748
144.704
145.988
146.561
147.26
148.405
150.157
153.271
156.445
158.4
158.463
155.753
147.481
129.597
135.681
155.296
170.596
177.293
164.142
154.476
192.541
194.069
155.072
163.115
175.705
170.489
155.483
135.854
129.516
147.38
155.76
158.464
158.373
156.345
153.082
149.89
148.098
146.942
146.256
145.706
144.443
142.506
140.141
137.522
135.055
132.657
130.255
127.697
124.956
122.083
119.138
116.134
113.056
109.884
106.621
103.276
99.8574
96.3628
92.7942
89.153
85.4433
81.6689
77.8329
73.9391
69.9898
65.9921
61.9467
57.8611
53.7357
49.5765
45.3851
41.1645
36.9183
32.6502
28.3638
24.0611
19.7439
15.4114
11.0668
6.71136
2.3461
-2.0299
-6.41402
-10.8053
-15.2042
-19.6125
-24.0319
-28.4613
-32.901
-37.3532
-41.8197
-46.3017
-50.801
-55.3193
-59.859
-64.4243
-69.0162
-73.6355
-78.2857
-82.9729
-87.6952
-92.4567
-97.2613
-102.111
-107.007
-111.952
-116.949
-122
-127.107
-132.27
-137.49
-142.771
-148.109
-153.504
-158.958
-164.472
-170.041
-175.662
-181.332
-187.054
-192.815
-198.614
-204.447
-210.304
-216.181
-222.068
-227.957
-233.837
-239.698
-245.53
-251.319
-257.052
-262.713
-268.288
-273.762
-279.121
-284.341
-289.408
-294.297
-298.987
-303.454
-307.682
-311.641
-315.289
-318.605
-321.55
-324.07
-326.143
-327.696
-328.678
-328.994
-328.54
-327.308
-325.06
-321.538
-316.5
-309.675
-300.494
-288.481
-273.1
-253.792
-229.269
-196.879
-153.601
-94.6248
-10.7449
119.534
287.251
520.017
736.914
818.542
734.819
516.254
282.908
115.631
-14.6593
-97.9964
-156.33
-199.073
-230.952
-255.862
-275.823
-291.893
-304.155
-313.175
-319.773
-324.595
-327.973
-330.132
-331.397
-331.798
-331.373
-330.339
-328.742
-326.607
-324.036
-321.062
-317.695
-314.006
-310.02
-305.756
-301.252
-296.536
-291.622
-286.527
-281.284
-275.903
-270.408
-264.813
-259.133
-253.382
-247.575
-241.727
-235.85
-229.956
-224.053
-218.153
-212.263
-206.394
-200.55
-194.74
-188.969
-183.238
-177.559
-171.93
-166.352
-160.831
-155.368
-149.965
-144.621
-139.333
-134.107
-128.938
-123.825
-118.768
-113.765
-108.815
-103.914
-99.0593
-94.2499
-89.4839
-84.7571
-80.0658
-75.4118
-70.7889
-66.1935
-61.625
-57.0824
-52.5613
-48.0593
-43.5748
-39.1059
-34.6513
-30.2091
-25.7771
-21.3549
-16.9435
-12.541
-8.14546
-3.75663
0.62498
4.99676
9.35995
13.7135
18.0583
22.3913
26.7107
31.0154
35.3038
39.5727
43.8194
48.0417
52.2371
56.4021
60.5348
64.6293
68.6846
72.694
76.6549
80.5628
84.4141
88.2051
91.9312
95.5877
99.1709
102.681
106.114
109.465
112.721
115.881
118.96
121.976
124.913
127.713
130.327
132.78
135.222
137.722
140.364
142.747
144.703
145.988
146.562
147.263
148.409
150.162
153.272
156.441
158.39
158.447
155.733
147.503
129.802
135.924
155.373
170.574
177.279
164.419
154.747
192.257
193.643
155.271
163.492
175.748
170.461
155.584
136.207
129.824
147.42
155.731
158.44
158.358
156.338
153.084
149.898
148.105
146.947
146.257
145.705
144.441
142.505
140.14
137.522
135.056
132.658
130.255
127.697
124.956
122.083
119.138
116.135
113.056
109.884
106.621
103.277
99.8578
96.3631
92.7945
89.1534
85.4437
81.6692
77.8333
73.9395
69.9901
65.9925
61.947
57.8615
53.7361
49.5768
45.3854
41.1649
36.9186
32.6506
28.3642
24.0615
19.7443
15.4117
11.0671
6.7117
2.34642
-2.02958
-6.4137
-10.805
-15.2039
-19.6122
-24.0316
-28.461
-32.9007
-37.3529
-41.8194
-46.3014
-50.8006
-55.319
-59.8587
-64.424
-69.0159
-73.6351
-78.2854
-82.9725
-87.6949
-92.4563
-97.261
-102.111
-107.006
-111.952
-116.948
-122
-127.107
-132.269
-137.49
-142.771
-148.108
-153.503
-158.958
-164.471
-170.04
-175.661
-181.331
-187.053
-192.814
-198.613
-204.446
-210.303
-216.18
-222.067
-227.956
-233.836
-239.697
-245.528
-251.318
-257.051
-262.712
-268.286
-273.76
-279.119
-284.339
-289.406
-294.295
-298.985
-303.452
-307.68
-311.638
-315.286
-318.602
-321.546
-324.066
-326.139
-327.692
-328.673
-328.989
-328.535
-327.302
-325.053
-321.53
-316.491
-309.665
-300.482
-288.467
-273.082
-253.77
-229.242
-196.845
-153.557
-94.565
-10.6585
119.661
287.428
520.151
736.936
818.506
734.845
516.393
283.089
115.759
-14.572
-97.936
-156.286
-199.039
-230.925
-255.841
-275.807
-291.88
-304.144
-313.166
-319.765
-324.588
-327.967
-330.126
-331.392
-331.793
-331.369
-330.335
-328.738
-326.603
-324.033
-321.059
-317.692
-314.003
-310.018
-305.754
-301.25
-296.534
-291.62
-286.525
-281.283
-275.902
-270.407
-264.812
-259.132
-253.381
-247.574
-241.726
-235.849
-229.955
-224.052
-218.152
-212.262
-206.394
-200.549
-194.739
-188.968
-183.237
-177.558
-171.929
-166.352
-160.83
-155.368
-149.965
-144.62
-139.333
-134.106
-128.938
-123.825
-118.767
-113.765
-108.814
-103.914
-99.0589
-94.2495
-89.4836
-84.7567
-80.0654
-75.4114
-70.7885
-66.1931
-61.6246
-57.0821
-52.561
-48.059
-43.5745
-39.1056
-34.6509
-30.2088
-25.7767
-21.3545
-16.9431
-12.5407
-8.14512
-3.7563
0.625306
4.99711
9.36029
13.7138
18.0586
22.3917
26.7111
31.0157
35.3041
39.573
43.8197
48.042
52.2374
56.4024
60.5351
64.6297
68.685
72.6943
76.6553
80.5632
84.4145
88.2054
91.9316
95.5881
99.1712
102.681
106.115
109.465
112.722
115.881
118.96
121.976
124.913
127.714
130.327
132.78
135.223
137.722
140.363
142.746
144.701
145.987
146.564
147.267
148.417
150.17
153.274
156.434
158.375
158.423
155.704
147.542
130.105
136.271
155.475
170.544
177.312
164.801
154.967
191.854
193.02
155.419
163.93
175.86
170.444
155.739
136.7
130.257
147.478
155.689
158.404
158.335
156.329
153.087
149.911
148.116
146.954
146.26
145.704
144.439
142.503
140.14
137.523
135.057
132.659
130.256
127.697
124.956
122.084
119.139
116.135
113.057
109.884
106.622
103.277
99.8583
96.3637
92.7951
89.1539
85.4442
81.6697
77.8338
73.94
69.9907
65.993
61.9476
57.862
53.7366
49.5774
45.386
41.1654
36.9192
32.6511
28.3647
24.062
19.7448
15.4122
11.0676
6.7122
2.34693
-2.02907
-6.41319
-10.8045
-15.2034
-19.6117
-24.0311
-28.4605
-32.9002
-37.3524
-41.8188
-46.3008
-50.8001
-55.3184
-59.8581
-64.4235
-69.0153
-73.6346
-78.2848
-82.9719
-87.6943
-92.4557
-97.2603
-102.11
-107.006
-111.951
-116.948
-121.999
-127.106
-132.269
-137.489
-142.77
-148.107
-153.503
-158.957
-164.47
-170.04
-175.66
-181.33
-187.052
-192.813
-198.612
-204.445
-210.301
-216.179
-222.066
-227.955
-233.834
-239.695
-245.527
-251.316
-257.048
-262.709
-268.284
-273.758
-279.117
-284.336
-289.403
-294.292
-298.982
-303.448
-307.676
-311.634
-315.282
-318.598
-321.541
-324.061
-326.134
-327.686
-328.667
-328.981
-328.526
-327.293
-325.043
-321.518
-316.478
-309.65
-300.464
-288.445
-273.055
-253.737
-229.2
-196.793
-153.49
-94.4744
-10.5292
119.848
287.677
520.333
736.975
818.465
734.887
516.581
283.342
115.949
-14.4414
-97.8445
-156.218
-198.986
-230.884
-255.808
-275.781
-291.86
-304.128
-313.153
-319.753
-324.577
-327.957
-330.118
-331.384
-331.786
-331.362
-330.329
-328.733
-326.598
-324.028
-321.054
-317.688
-313.999
-310.014
-305.751
-301.247
-296.531
-291.617
-286.523
-281.28
-275.899
-270.405
-264.81
-259.13
-253.379
-247.572
-241.724
-235.847
-229.953
-224.051
-218.15
-212.261
-206.392
-200.548
-194.738
-188.967
-183.236
-177.557
-171.928
-166.351
-160.829
-155.367
-149.964
-144.62
-139.332
-134.106
-128.937
-123.824
-118.767
-113.764
-108.814
-103.913
-99.0583
-94.2489
-89.483
-84.7561
-80.0649
-75.4109
-70.788
-66.1926
-61.6241
-57.0816
-52.5605
-48.0584
-43.5739
-39.105
-34.6504
-30.2083
-25.7762
-21.354
-16.9426
-12.5401
-8.1446
-3.75578
0.625838
4.99763
9.36082
13.7143
18.0591
22.3922
26.7116
31.0162
35.3046
39.5736
43.8203
48.0426
52.238
56.403
60.5357
64.6302
68.6855
72.6949
76.6558
80.5637
84.415
88.206
91.9321
95.5886
99.1718
102.682
106.115
109.465
112.722
115.882
118.961
121.977
124.913
127.714
130.328
132.781
135.224
137.723
140.363
142.745
144.698
145.985
146.567
147.275
148.428
150.182
153.278
156.425
158.353
158.387
155.663
147.599
130.531
136.758
155.631
170.527
177.416
165.259
155.131
191.258
192.128
155.486
164.394
176.073
170.471
155.992
137.353
130.833
147.559
155.632
158.353
158.303
156.315
153.093
149.93
148.133
146.965
146.264
145.701
144.434
142.5
140.14
137.525
135.059
132.66
130.257
127.698
124.957
122.085
119.139
116.136
113.057
109.885
106.623
103.278
99.8591
96.3645
92.7959
89.1547
85.445
81.6705
77.8346
73.9408
69.9915
65.9938
61.9483
57.8628
53.7374
49.5781
45.3867
41.1662
36.9199
32.6519
28.3654
24.0627
19.7455
15.413
11.0684
6.71296
2.34767
-2.02832
-6.41244
-10.8038
-15.2026
-19.611
-24.0303
-28.4598
-32.8994
-37.3516
-41.8181
-46.3001
-50.7993
-55.3177
-59.8574
-64.4227
-69.0145
-73.6338
-78.284
-82.9711
-87.6934
-92.4548
-97.2595
-102.109
-107.005
-111.95
-116.947
-121.998
-127.105
-132.268
-137.488
-142.769
-148.106
-153.501
-158.956
-164.469
-170.038
-175.659
-181.329
-187.05
-192.811
-198.61
-204.443
-210.299
-216.176
-222.064
-227.952
-233.832
-239.693
-245.524
-251.313
-257.045
-262.706
-268.281
-273.754
-279.113
-284.332
-289.398
-294.288
-298.977
-303.443
-307.67
-311.628
-315.276
-318.591
-321.534
-324.053
-326.125
-327.677
-328.657
-328.971
-328.515
-327.28
-325.028
-321.502
-316.459
-309.628
-300.438
-288.413
-273.016
-253.689
-229.141
-196.718
-153.394
-94.344
-10.3436
120.113
288.001
520.616
737.034
818.419
734.95
516.867
283.673
116.216
-14.2541
-97.7129
-156.121
-198.912
-230.824
-255.762
-275.744
-291.831
-304.104
-313.133
-319.736
-324.562
-327.944
-330.106
-331.374
-331.776
-331.353
-330.32
-328.725
-326.591
-324.022
-321.048
-317.682
-313.994
-310.009
-305.746
-301.242
-296.527
-291.613
-286.519
-281.276
-275.896
-270.401
-264.807
-259.127
-253.376
-247.569
-241.721
-235.845
-229.951
-224.048
-218.148
-212.259
-206.391
-200.546
-194.736
-188.966
-183.235
-177.556
-171.927
-166.349
-160.828
-155.366
-149.963
-144.618
-139.331
-134.105
-128.936
-123.823
-118.766
-113.763
-108.813
-103.912
-99.0574
-94.2481
-89.4821
-84.7553
-80.0641
-75.4101
-70.7872
-66.1918
-61.6233
-57.0808
-52.5597
-48.0577
-43.5732
-39.1043
-34.6496
-30.2075
-25.7755
-21.3532
-16.9418
-12.5394
-8.14383
-3.755
0.626604
4.99841
9.36159
13.7151
18.0599
22.393
26.7124
31.017
35.3054
39.5744
43.8211
48.0434
52.2388
56.4038
60.5365
64.631
68.6863
72.6957
76.6566
80.5646
84.4159
88.2068
91.933
95.5895
99.1727
102.683
106.116
109.466
112.723
115.882
118.962
121.978
124.914
127.715
130.329
132.783
135.226
137.725
140.363
142.742
144.694
145.983
146.571
147.285
148.444
150.201
153.284
156.412
158.321
158.337
155.606
147.678
131.099
137.404
155.887
170.557
177.623
165.754
155.219
190.394
190.905
155.431
164.875
176.39
170.591
156.424
138.166
131.562
147.664
155.56
158.288
158.261
156.298
153.101
149.956
148.156
146.979
146.27
145.698
144.429
142.497
140.139
137.527
135.062
132.662
130.257
127.699
124.958
122.086
119.141
116.137
113.059
109.886
106.624
103.279
99.8602
96.3656
92.797
89.1558
85.4461
81.6716
77.8357
73.9419
69.9925
65.9949
61.9494
57.8638
53.7384
49.5792
45.3878
41.1672
36.921
32.6529
28.3665
24.0638
19.7466
15.414
11.0694
6.71399
2.34871
-2.02729
-6.41141
-10.8027
-15.2016
-19.6099
-24.0293
-28.4587
-32.8984
-37.3506
-41.817
-46.299
-50.7983
-55.3166
-59.8563
-64.4216
-69.0134
-73.6327
-78.2829
-82.97
-87.6923
-92.4536
-97.2582
-102.108
-107.004
-111.949
-116.945
-121.997
-127.104
-132.266
-137.486
-142.767
-148.104
-153.5
-158.954
-164.467
-170.036
-175.657
-181.327
-187.048
-192.809
-198.608
-204.441
-210.297
-216.174
-222.061
-227.949
-233.829
-239.689
-245.52
-251.309
-257.041
-262.702
-268.276
-273.749
-279.108
-284.327
-289.393
-294.282
-298.971
-303.436
-307.663
-311.621
-315.268
-318.582
-321.525
-324.043
-326.114
-327.665
-328.644
-328.956
-328.499
-327.263
-325.009
-321.48
-316.434
-309.599
-300.404
-288.37
-272.963
-253.624
-229.06
-196.616
-153.262
-94.1639
-10.088
120.473
288.425
521.031
737.114
818.366
735.036
517.289
284.103
116.58
-13.9961
-97.5314
-155.988
-198.809
-230.744
-255.698
-275.694
-291.792
-304.073
-313.107
-319.713
-324.542
-327.926
-330.09
-331.359
-331.763
-331.341
-330.309
-328.715
-326.581
-324.013
-321.04
-317.674
-313.986
-310.002
-305.739
-301.236
-296.521
-291.608
-286.514
-281.272
-275.891
-270.397
-264.803
-259.123
-253.372
-247.566
-241.718
-235.842
-229.948
-224.046
-218.146
-212.256
-206.388
-200.544
-194.734
-188.964
-183.233
-177.554
-171.925
-166.348
-160.826
-155.364
-149.961
-144.617
-139.329
-134.103
-128.935
-123.822
-118.764
-113.762
-108.812
-103.911
-99.0562
-94.2469
-89.481
-84.7541
-80.0629
-75.4089
-70.7861
-66.1907
-61.6222
-57.0797
-52.5586
-48.0566
-43.5721
-39.1032
-34.6486
-30.2064
-25.7744
-21.3522
-16.9408
-12.5383
-8.14276
-3.75393
0.627681
4.99949
9.36267
13.7162
18.061
22.3941
26.7135
31.0181
35.3065
39.5755
43.8222
48.0445
52.2399
56.4049
60.5376
64.6322
68.6875
72.6969
76.6578
80.5657
84.417
88.208
91.9342
95.5907
99.1739
102.684
106.117
109.467
112.724
115.884
118.963
121.979
124.915
127.715
130.33
132.785
135.229
137.727
140.363
142.739
144.689
145.979
146.577
147.3
148.467
150.227
153.292
156.395
158.279
158.272
155.533
147.781
131.82
138.21
156.327
170.697
177.941
166.273
155.192
189.198
189.325
155.234
165.347
176.764
170.819
157.123
139.126
132.445
147.801
155.476
158.209
158.209
156.277
153.113
149.99
148.185
146.999
146.277
145.693
144.422
142.493
140.139
137.53
135.065
132.664
130.259
127.699
124.959
122.087
119.142
116.139
113.06
109.888
106.625
103.28
99.8617
96.367
92.7984
89.1573
85.4475
81.6731
77.8371
73.9433
69.994
65.9963
61.9509
57.8653
53.7398
49.5806
45.3892
41.1686
36.9224
32.6543
28.3679
24.0652
19.7479
15.4154
11.0708
6.71536
2.35008
-2.02593
-6.41004
-10.8014
-15.2002
-19.6086
-24.028
-28.4574
-32.897
-37.3492
-41.8157
-46.2976
-50.7969
-55.3152
-59.8549
-64.4202
-69.012
-73.6312
-78.2814
-82.9685
-87.6907
-92.4521
-97.2567
-102.106
-107.002
-111.947
-116.944
-121.995
-127.102
-132.264
-137.484
-142.765
-148.102
-153.498
-158.952
-164.465
-170.034
-175.654
-181.324
-187.045
-192.806
-198.605
-204.437
-210.293
-216.17
-222.057
-227.945
-233.824
-239.685
-245.516
-251.304
-257.036
-262.697
-268.27
-273.743
-279.101
-284.32
-289.385
-294.274
-298.962
-303.428
-307.654
-311.611
-315.257
-318.571
-321.512
-324.03
-326.1
-327.649
-328.627
-328.938
-328.479
-327.24
-324.984
-321.452
-316.402
-309.561
-300.358
-288.315
-272.895
-253.539
-228.955
-196.482
-153.086
-93.9235
-9.7463
120.953
288.986
521.543
737.218