/*--------------------------------*- C++ -*----------------------------------*\
| =========                 |                                                 |
| \\      /  F ield         | OpenFOAM: The Open Source CFD Toolbox           |
|  \\    /   O peration     | Version:  2412                                  |
|   \\  /    A nd           | Website:  www.openfoam.com                      |
|    \\/     M anipulation  |                                                 |
\*---------------------------------------------------------------------------*/
FoamFile
{
    version     2.0;
    format      ascii;
    arch        "LSB;label=32;scalar=64";
    class       surfaceScalarField;
    location    "80";
    object      phi;
}
// * * * * * * * * * * * * * * * * * * * * * * * * * * * * * * * * * * * * * //

dimensions      [0 3 -1 0 0 0 0];

oriented        oriented;

internalField   nonuniform List<scalar> 
58903
(
3.56656e-06
1.55326e-07
-3.72188e-06
2.17445e-06
1.39211e-06
2.27711e-07
1.94674e-06
8.35961e-07
-6.08247e-07
1.3974e-06
-5.61442e-07
-4.03137e-07
1.80054e-06
-3.11727e-06
2.71414e-06
-4.5296e-06
1.41233e-06
-4.1657e-06
-3.63891e-07
-3.47718e-06
-6.88528e-07
-3.10677e-06
-3.70406e-07
-2.91914e-06
-1.87635e-07
-2.85698e-06
-6.21508e-08
-2.9019e-06
4.49439e-08
-2.99207e-06
9.01508e-08
-3.04958e-06
5.75035e-08
-3.06397e-06
1.43911e-08
-3.0433e-06
-2.06734e-08
-2.99724e-06
-4.60627e-08
-2.95738e-06
-3.98611e-08
-2.93993e-06
-1.73493e-08
-2.94244e-06
2.39318e-09
-2.95725e-06
1.48122e-08
-2.97162e-06
1.43674e-08
-2.98034e-06
8.70728e-09
-2.98517e-06
4.80984e-09
-2.99017e-06
5.10662e-09
-2.99821e-06
7.91266e-09
-3.00863e-06
1.05037e-08
-3.02002e-06
1.13028e-08
-3.03124e-06
1.12099e-08
-3.0425e-06
1.12534e-08
-3.05412e-06
1.15845e-08
-3.06635e-06
1.22032e-08
-3.07913e-06
1.20697e-08
-3.09209e-06
1.35817e-08
-3.1055e-06
1.23269e-08
-3.11915e-06
1.46291e-08
-3.13312e-06
1.39565e-08
-3.14729e-06
1.4149e-08
-3.16182e-06
1.44877e-08
-3.17652e-06
1.46714e-08
-3.19156e-06
1.49655e-08
-3.2067e-06
1.31713e-08
-3.22206e-06
1.72069e-08
-3.2376e-06
1.33689e-08
-3.25332e-06
1.77167e-08
-3.26919e-06
1.3642e-08
-3.28501e-06
1.79535e-08
-3.30098e-06
1.59297e-08
-3.31721e-06
1.61241e-08
-3.33339e-06
1.61245e-08
-3.34982e-06
1.63523e-08
-3.36623e-06
1.63134e-08
-3.3826e-06
1.62581e-08
-3.39923e-06
1.66442e-08
-3.41586e-06
1.43369e-08
-3.4326e-06
1.85646e-08
-3.44925e-06
1.46004e-08
-3.46603e-06
1.85602e-08
-3.48294e-06
1.48585e-08
-3.49999e-06
1.88576e-08
-3.51697e-06
1.68929e-08
-3.53402e-06
1.69486e-08
-3.55133e-06
1.7132e-08
-3.56864e-06
1.71478e-08
-3.5862e-06
1.73414e-08
-3.60373e-06
1.73675e-08
-3.62145e-06
1.74738e-08
-3.63933e-06
1.77162e-08
-3.65732e-06
1.77314e-08
-3.67531e-06
1.78009e-08
-3.69365e-06
1.69604e-08
-3.71186e-06
1.8849e-08
-3.73056e-06
1.70063e-08
-3.74933e-06
1.99938e-08
-3.76831e-06
1.72273e-08
-3.7873e-06
1.99555e-08
-3.80656e-06
1.7563e-08
-3.82599e-06
2.06604e-08
-3.84578e-06
1.78682e-08
-3.86558e-06
2.08371e-08
-3.88578e-06
1.82852e-08
-3.90628e-06
2.20058e-08
-3.92698e-06
1.86716e-08
-3.94801e-06
2.25341e-08
-3.96935e-06
2.12003e-08
-3.9911e-06
2.15677e-08
-4.01301e-06
2.17527e-08
-4.03515e-06
2.19534e-08
-4.05722e-06
2.18841e-08
-4.07912e-06
2.17382e-08
-4.10125e-06
2.20072e-08
-4.12375e-06
2.23525e-08
-4.14674e-06
2.29055e-08
-4.17016e-06
2.33171e-08
-4.19391e-06
2.36887e-08
-4.21814e-06
2.4146e-08
-4.2426e-06
2.43472e-08
-4.26741e-06
2.46692e-08
-4.29236e-06
2.4851e-08
-4.31756e-06
2.50762e-08
-4.34283e-06
2.51706e-08
-4.36829e-06
2.53748e-08
-4.3938e-06
2.53304e-08
-4.41939e-06
2.5424e-08
-4.44483e-06
2.52878e-08
-4.47011e-06
2.51674e-08
-4.49527e-06
2.50519e-08
-4.52015e-06
2.47958e-08
-4.54479e-06
2.45657e-08
-4.56926e-06
2.44157e-08
-4.59317e-06
2.38043e-08
-4.61654e-06
2.3303e-08
-4.63912e-06
2.24849e-08
-4.66099e-06
2.18003e-08
-4.68191e-06
2.08265e-08
-4.7018e-06
1.98163e-08
-4.72062e-06
1.87359e-08
-4.73814e-06
1.74559e-08
-4.75438e-06
1.61485e-08
-4.76907e-06
1.4639e-08
-4.7824e-06
1.16462e-08
-4.79415e-06
1.28681e-08
-4.80449e-06
9.15814e-09
-4.81303e-06
9.59075e-09
-4.81986e-06
5.65115e-09
-4.82537e-06
6.22306e-09
-4.82953e-06
3.22334e-09
-4.83239e-06
3.66775e-09
-4.83489e-06
3.92749e-09
-4.83797e-06
1.32283e-09
-4.84258e-06
5.67731e-09
-4.85044e-06
6.7014e-09
-4.86612e-06
1.56727e-08
-4.89992e-06
3.37993e-08
-4.96461e-06
6.46274e-08
-5.06616e-06
1.01482e-07
-5.18994e-06
1.23757e-07
-5.3061e-06
1.16109e-07
-5.38893e-06
8.28121e-08
-5.43943e-06
5.04545e-08
-5.49991e-06
6.04952e-08
-5.63991e-06
1.39968e-07
-5.84021e-06
2.00337e-07
-5.96669e-06
1.26467e-07
-5.6918e-06
-2.74795e-07
-4.27386e-06
-1.41517e-06
-1.53644e-06
-2.74035e-06
1.62121e-06
-3.1558e-06
4.34977e-06
-2.73046e-06
5.7534e-06
-1.40361e-06
6.0111e-06
-2.57742e-07
5.87656e-06
1.34522e-07
5.67029e-06
2.06242e-07
5.51983e-06
1.50437e-07
5.43374e-06
8.6065e-08
5.32197e-06
1.11743e-07
5.14923e-06
1.72703e-07
4.94841e-06
2.0078e-07
4.77529e-06
1.73087e-07
4.66527e-06
1.09999e-07
4.61441e-06
5.08301e-08
4.59929e-06
1.50864e-08
4.60003e-06
-7.56472e-10
4.60625e-06
-7.1456e-09
4.61487e-06
-7.56064e-09
4.62462e-06
-1.73102e-08
4.63436e-06
-2.14994e-09
4.64334e-06
-1.11084e-08
4.65068e-06
-5.66352e-09
4.656e-06
-7.69164e-09
4.65925e-06
-1.02038e-09
4.66019e-06
-2.63968e-09
4.65879e-06
2.93465e-09
4.65548e-06
1.7047e-09
4.65014e-06
6.83231e-09
4.64309e-06
7.02074e-09
4.63414e-06
8.9256e-09
4.62364e-06
1.04714e-08
4.6116e-06
1.20164e-08
4.59821e-06
1.33517e-08
4.58354e-06
1.4644e-08
4.56771e-06
1.5801e-08
4.55097e-06
1.67071e-08
4.53325e-06
1.76907e-08
4.51483e-06
1.83967e-08
4.49567e-06
1.91295e-08
4.47616e-06
1.94929e-08
4.45623e-06
1.98897e-08
4.43582e-06
2.03793e-08
4.41509e-06
2.06959e-08
4.39403e-06
2.10389e-08
4.37266e-06
2.13497e-08
4.3512e-06
2.14413e-08
4.32967e-06
2.15244e-08
4.30818e-06
2.14924e-08
4.28661e-06
2.15364e-08
4.26514e-06
2.14702e-08
4.24366e-06
2.14597e-08
4.22238e-06
2.12797e-08
4.20121e-06
2.11544e-08
4.18038e-06
2.08276e-08
4.15973e-06
2.06307e-08
4.13935e-06
2.03841e-08
4.11928e-06
2.00614e-08
4.09941e-06
1.98636e-08
4.07982e-06
1.95858e-08
4.06036e-06
1.94692e-08
4.04104e-06
1.93073e-08
4.02185e-06
1.91872e-08
4.00255e-06
1.92914e-08
3.98339e-06
1.91584e-08
3.96428e-06
1.99733e-08
3.94533e-06
1.80895e-08
3.92644e-06
1.98745e-08
3.90771e-06
1.77577e-08
3.88926e-06
1.95919e-08
3.87071e-06
1.74401e-08
3.85239e-06
1.94899e-08
3.83408e-06
1.71844e-08
3.8159e-06
1.95217e-08
3.79758e-06
1.70187e-08
3.77932e-06
1.9631e-08
3.76096e-06
1.70307e-08
3.74294e-06
1.9585e-08
3.72461e-06
1.67974e-08
3.7065e-06
1.81139e-08
3.68821e-06
1.83022e-08
3.66987e-06
1.83478e-08
3.65154e-06
1.83452e-08
3.63325e-06
1.83173e-08
3.61477e-06
1.84877e-08
3.59642e-06
1.8366e-08
3.57791e-06
1.8535e-08
3.55956e-06
1.83678e-08
3.54116e-06
1.84206e-08
3.52255e-06
2.05558e-08
3.50399e-06
1.66629e-08
3.48547e-06
2.07987e-08
3.46701e-06
1.62116e-08
3.44836e-06
2.09273e-08
3.42975e-06
1.61732e-08
3.4111e-06
1.8747e-08
3.39266e-06
1.84563e-08
3.37413e-06
1.85403e-08
3.35555e-06
1.85926e-08
3.33719e-06
1.8373e-08
3.31875e-06
1.8467e-08
3.30054e-06
1.82123e-08
3.28241e-06
1.81663e-08
3.26424e-06
2.01129e-08
3.24619e-06
1.61213e-08
3.22831e-06
1.95319e-08
3.21061e-06
1.59051e-08
3.19307e-06
1.76283e-08
3.17567e-06
1.7402e-08
3.15858e-06
1.71046e-08
3.14166e-06
1.6922e-08
3.1251e-06
1.65766e-08
3.10875e-06
1.63571e-08
3.0927e-06
1.60638e-08
3.07695e-06
1.68766e-08
3.06166e-06
1.41593e-08
3.04656e-06
1.51186e-08
3.03207e-06
1.44875e-08
3.01824e-06
1.38374e-08
3.00481e-06
1.34383e-08
2.99152e-06
1.38461e-08
2.97812e-06
1.28829e-08
2.96578e-06
1.26207e-08
2.95587e-06
9.63642e-09
2.94902e-06
6.85366e-09
2.94245e-06
6.58312e-09
2.93216e-06
1.02883e-08
2.91643e-06
1.57344e-08
2.90039e-06
1.61345e-08
2.89655e-06
3.76212e-09
2.91234e-06
-1.56971e-08
2.95013e-06
-3.78817e-08
2.994e-06
-4.38678e-08
3.01301e-06
-1.90072e-08
2.99794e-06
1.50753e-08
2.94106e-06
5.68872e-08
2.85254e-06
8.85593e-08
2.80894e-06
4.35685e-08
2.87047e-06
-6.15123e-08
3.05524e-06
-1.84794e-07
3.41907e-06
-3.63828e-07
4.09702e-06
-6.77947e-07
4.46261e-06
-3.6559e-07
3.08627e-06
1.37634e-06
4.1471e-07
2.67149e-06
-1.41674e-06
1.83153e-06
-8.66782e-07
-5.49959e-07
-1.46323e-07
-7.20459e-07
-2.11733e-06
1.97101e-06
-3.71087e-06
1.59354e-06
-3.55554e-06
1.12037e-05
4.70186e-07
-1.53958e-05
7.61696e-06
4.97885e-06
1.24486e-06
8.31884e-06
2.8074e-06
-2.17078e-06
4.34175e-06
-2.09579e-06
-2.08013e-06
8.22243e-06
-1.11718e-05
1.18058e-05
-1.5554e-05
5.79446e-06
-1.43837e-05
-1.53416e-06
-1.21696e-05
-2.90261e-06
-1.0967e-05
-1.57304e-06
-1.03618e-05
-7.92792e-07
-1.01716e-05
-2.52406e-07
-1.03249e-05
1.98348e-07
-1.06167e-05
3.81852e-07
-1.08013e-05
2.42139e-07
-1.08425e-05
5.55552e-08
-1.07686e-05
-9.45753e-08
-1.06164e-05
-1.98248e-07
-1.04861e-05
-1.70108e-07
-1.04308e-05
-7.24873e-08
-1.04413e-05
1.27032e-08
-1.04916e-05
6.5076e-08
-1.05402e-05
6.2934e-08
-1.05701e-05
3.86468e-08
-1.05875e-05
2.21578e-08
-1.06061e-05
2.38088e-08
-1.06346e-05
3.62932e-08
-1.06719e-05
4.78638e-08
-1.07114e-05
5.07354e-08
-1.07512e-05
5.10063e-08
-1.07909e-05
5.0851e-08
-1.08321e-05
5.2725e-08
-1.08757e-05
5.57399e-08
-1.09204e-05
5.57664e-08
-1.09669e-05
6.09366e-08
-1.1014e-05
5.77836e-08
-1.10624e-05
6.45169e-08
-1.11118e-05
6.33284e-08
-1.11625e-05
6.47879e-08
-1.12139e-05
6.58179e-08
-1.12662e-05
6.69162e-08
-1.13195e-05
6.81175e-08
-1.13734e-05
6.41439e-08
-1.14278e-05
7.43921e-08
-1.14832e-05
6.54612e-08
-1.15389e-05
7.63994e-08
-1.15952e-05
6.66005e-08
-1.16521e-05
7.79805e-08
-1.17093e-05
7.30202e-08
-1.17668e-05
7.34966e-08
-1.18247e-05
7.39258e-08
-1.18827e-05
7.42195e-08
-1.19414e-05
7.48081e-08
-1.19998e-05
7.44699e-08
-1.20588e-05
7.56062e-08
-1.21175e-05
6.96111e-08
-1.21774e-05
8.10737e-08
-1.2237e-05
7.11572e-08
-1.22966e-05
8.07135e-08
-1.23566e-05
7.17729e-08
-1.24166e-05
8.14789e-08
-1.24776e-05
7.77184e-08
-1.25386e-05
7.77889e-08
-1.25998e-05
7.79736e-08
-1.26613e-05
7.8434e-08
-1.27234e-05
7.89634e-08
-1.2786e-05
7.97087e-08
-1.28488e-05
7.98203e-08
-1.29118e-05
8.04682e-08
-1.29753e-05
8.07471e-08
-1.30395e-05
8.16683e-08
-1.31041e-05
7.93296e-08
-1.31695e-05
8.51137e-08
-1.3235e-05
7.99229e-08
-1.33016e-05
8.8296e-08
-1.33685e-05
8.14215e-08
-1.34359e-05
8.86612e-08
-1.3504e-05
8.31319e-08
-1.35729e-05
9.12946e-08
-1.36424e-05
8.43706e-08
-1.37128e-05
9.26247e-08
-1.37839e-05
8.65435e-08
-1.38558e-05
9.60447e-08
-1.39288e-05
8.8587e-08
-1.40035e-05
9.93374e-08
-1.40792e-05
9.65922e-08
-1.41558e-05
9.78523e-08
-1.42342e-05
9.98798e-08
-1.43133e-05
1.00705e-07
-1.43914e-05
9.96922e-08
-1.44687e-05
9.86917e-08
-1.45469e-05
9.99758e-08
-1.46266e-05
1.01797e-07
-1.47077e-05
1.03852e-07
-1.47902e-05
1.05648e-07
-1.48744e-05
1.07806e-07
-1.49597e-05
1.09318e-07
-1.50462e-05
1.10554e-07
-1.51334e-05
1.11707e-07
-1.52219e-05
1.1316e-07
-1.53107e-05
1.13573e-07
-1.54001e-05
1.14388e-07
-1.54898e-05
1.14981e-07
-1.55798e-05
1.14997e-07
-1.567e-05
1.15277e-07
-1.57594e-05
1.14461e-07
-1.58487e-05
1.1426e-07
-1.59374e-05
1.13537e-07
-1.6025e-05
1.12249e-07
-1.61118e-05
1.11244e-07
-1.61977e-05
1.10251e-07
-1.6282e-05
1.07911e-07
-1.63639e-05
1.05081e-07
-1.64436e-05
1.02027e-07
-1.65204e-05
9.83885e-08
-1.65938e-05
9.41111e-08
-1.66638e-05
8.96719e-08
-1.67296e-05
8.43564e-08
-1.67906e-05
7.83866e-08
-1.68472e-05
7.25892e-08
-1.68988e-05
6.6082e-08
-1.6945e-05
5.53554e-08
-1.69859e-05
5.52763e-08
-1.70208e-05
4.22676e-08
-1.70497e-05
4.00611e-08
-1.70729e-05
2.70087e-08
-1.70913e-05
2.56731e-08
-1.71046e-05
1.51178e-08
-1.71136e-05
1.38025e-08
-1.71214e-05
1.38075e-08
-1.71308e-05
8.06674e-09
-1.71451e-05
2.15412e-08
-1.71705e-05
3.04139e-08
-1.7224e-05
6.91701e-08
-1.73404e-05
1.50184e-07
-1.75649e-05
2.88977e-07
-1.79173e-05
4.5372e-07
-1.83436e-05
5.50048e-07
-1.87347e-05
5.07116e-07
-1.90005e-05
3.48612e-07
-1.91433e-05
1.93158e-07
-1.93093e-05
2.26543e-07
-1.97256e-05
5.56184e-07
-2.0312e-05
7.8684e-07
-2.06183e-05
4.32684e-07
-1.94908e-05
-1.40209e-06
-1.45209e-05
-6.38091e-06
-5.19908e-06
-1.20666e-05
5.48768e-06
-1.38398e-05
1.47805e-05
-1.20262e-05
1.97042e-05
-6.32722e-06
2.07746e-05
-1.32829e-06
2.04405e-05
4.68609e-07
1.98345e-05
8.12175e-07
1.9383e-05
6.01943e-07
1.91304e-05
3.38656e-07
1.87756e-05
4.66467e-07
1.81929e-05
7.5533e-07
1.75007e-05
8.92844e-07
1.68965e-05
7.77233e-07
1.65114e-05
4.95113e-07
1.63341e-05
2.28042e-07
1.62827e-05
6.64606e-08
1.62865e-05
-4.60018e-09
1.63101e-05
-3.2179e-08
1.63421e-05
-3.79197e-08
1.63776e-05
-6.39854e-08
1.64128e-05
-2.61219e-08
1.64455e-05
-4.69845e-08
1.64726e-05
-3.03324e-08
1.64922e-05
-3.08695e-08
1.65046e-05
-1.01004e-08
1.6509e-05
-9.61843e-09
1.65056e-05
8.56186e-09
1.64946e-05
1.04039e-08
1.64764e-05
2.71259e-08
1.64519e-05
3.15411e-08
1.6421e-05
3.97789e-08
1.63847e-05
4.66953e-08
1.63428e-05
5.38259e-08
1.62958e-05
6.03136e-08
1.62444e-05
6.59853e-08
1.6189e-05
7.1144e-08
1.61299e-05
7.57281e-08
1.6068e-05
7.95699e-08
1.60031e-05
8.327e-08
1.59359e-05
8.62486e-08
1.58672e-05
8.81439e-08
1.57971e-05
8.99381e-08
1.57252e-05
9.22106e-08
1.5652e-05
9.38303e-08
1.5578e-05
9.49686e-08
1.55028e-05
9.65617e-08
1.54271e-05
9.70612e-08
1.53512e-05
9.73917e-08
1.52752e-05
9.75228e-08
1.51993e-05
9.73537e-08
1.51231e-05
9.76472e-08
1.50476e-05
9.69327e-08
1.49725e-05
9.64227e-08
1.48979e-05
9.56218e-08
1.4824e-05
9.47032e-08
1.47514e-05
9.32893e-08
1.46795e-05
9.22783e-08
1.46082e-05
9.12619e-08
1.4538e-05
9.01203e-08
1.44691e-05
8.84839e-08
1.44007e-05
8.78716e-08
1.43322e-05
8.77823e-08
1.42637e-05
8.75991e-08
1.41958e-05
8.71715e-08
1.41278e-05
8.72453e-08
1.40596e-05
8.93882e-08
1.39926e-05
8.38702e-08
1.39261e-05
8.78036e-08
1.38599e-05
8.24507e-08
1.37941e-05
8.7096e-08
1.37289e-05
8.10134e-08
1.36638e-05
8.62977e-08
1.3599e-05
8.03409e-08
1.35344e-05
8.60989e-08
1.34699e-05
7.96643e-08
1.34051e-05
8.64165e-08
1.33409e-05
7.93054e-08
1.32761e-05
8.66461e-08
1.32117e-05
7.89434e-08
1.31471e-05
8.26882e-08
1.30827e-05
8.27857e-08
1.30181e-05
8.29335e-08
1.29532e-05
8.32327e-08
1.2888e-05
8.35811e-08
1.28229e-05
8.36391e-08
1.27577e-05
8.35467e-08
1.26924e-05
8.38437e-08
1.26269e-05
8.39039e-08
1.25611e-05
8.4326e-08
1.24957e-05
8.87671e-08
1.24301e-05
7.95191e-08
1.23645e-05
8.97146e-08
1.22986e-05
7.87832e-08
1.22322e-05
9.0715e-08
1.21667e-05
7.8113e-08
1.21008e-05
8.48021e-08
1.20352e-05
8.40318e-08
1.19692e-05
8.45338e-08
1.19038e-05
8.4028e-08
1.18384e-05
8.38239e-08
1.17732e-05
8.37023e-08
1.17083e-05
8.30975e-08
1.16435e-05
8.30857e-08
1.15792e-05
8.71998e-08
1.15155e-05
7.70326e-08
1.1452e-05
8.5406e-08
1.13895e-05
7.57671e-08
1.13273e-05
7.9992e-08
1.12658e-05
7.88603e-08
1.12053e-05
7.77018e-08
1.11456e-05
7.66183e-08
1.10866e-05
7.55805e-08
1.10289e-05
7.40318e-08
1.09722e-05
7.28673e-08
1.09169e-05
7.38278e-08
1.08624e-05
6.70159e-08
1.08095e-05
6.80468e-08
1.0758e-05
6.59734e-08
1.0709e-05
6.28152e-08
1.06618e-05
6.06777e-08
1.06147e-05
6.17894e-08
1.05681e-05
5.8701e-08
1.0524e-05
5.70867e-08
1.04889e-05
4.43782e-08
1.04639e-05
3.18938e-08
1.04403e-05
3.01327e-08
1.04048e-05
4.58067e-08
1.03514e-05
6.91612e-08
1.02967e-05
7.09421e-08
1.02815e-05
1.88635e-08
1.0331e-05
-6.5046e-08
1.04541e-05
-1.61103e-07
1.05986e-05
-1.88407e-07
1.06665e-05
-8.68511e-08
1.06225e-05
5.91157e-08
1.04392e-05
2.4015e-07
1.01523e-05
3.75489e-07
1.00031e-05
1.92788e-07
1.01914e-05
-2.4977e-07
1.07872e-05
-7.80708e-07
1.19682e-05
-1.54479e-06
1.41486e-05
-2.85829e-06
1.53218e-05
-1.53882e-06
1.1053e-05
5.64515e-06
2.11164e-06
1.16127e-05
-4.39012e-06
8.33342e-06
-2.87704e-06
-2.06303e-06
-9.86479e-07
-2.61102e-06
-7.47703e-06
8.46157e-06
-1.1677e-05
5.79354e-06
-1.47624e-05
2.01669e-05
8.27493e-07
-3.63901e-05
1.48465e-05
1.02992e-05
3.17894e-06
1.99864e-05
5.38834e-06
-4.38018e-06
7.57957e-06
-4.28702e-06
-5.27048e-06
2.10725e-05
-2.25116e-05
2.9047e-05
-3.02878e-05
1.35707e-05
-2.80763e-05
-3.74565e-06
-2.40551e-05
-6.92386e-06
-2.18543e-05
-3.7738e-06
-2.07547e-05
-1.8924e-06
-2.04265e-05
-5.80633e-07
-2.07259e-05
4.97778e-07
-2.12618e-05
9.17753e-07
-2.15973e-05
5.77633e-07
-2.16639e-05
1.22149e-07
-2.15171e-05
-2.41359e-07
-2.12327e-05
-4.82724e-07
-2.09932e-05
-4.0955e-07
-2.08946e-05
-1.70958e-07
-2.09199e-05
3.77888e-08
-2.10168e-05
1.61967e-07
-2.11103e-05
1.56465e-07
-2.11688e-05
9.711e-08
-2.12055e-05
5.88312e-08
-2.12449e-05
6.33395e-08
-2.13036e-05
9.48763e-08
-2.13771e-05
1.21457e-07
-2.14571e-05
1.30595e-07
-2.15365e-05
1.3043e-07
-2.16164e-05
1.30642e-07
-2.16994e-05
1.35721e-07
-2.17867e-05
1.43039e-07
-2.18774e-05
1.4529e-07
-2.19701e-05
1.54599e-07
-2.20655e-05
1.51448e-07
-2.21627e-05
1.63308e-07
-2.22624e-05
1.62997e-07
-2.23642e-05
1.66577e-07
-2.24681e-05
1.69606e-07
-2.25738e-05
1.72575e-07
-2.26814e-05
1.7561e-07
-2.279e-05
1.69628e-07
-2.29006e-05
1.87846e-07
-2.30121e-05
1.73514e-07
-2.31248e-05
1.92229e-07
-2.32384e-05
1.76717e-07
-2.33527e-05
1.95626e-07
-2.34682e-05
1.88437e-07
-2.35843e-05
1.89431e-07
-2.37011e-05
1.90645e-07
-2.38185e-05
1.91523e-07
-2.39361e-05
1.92215e-07
-2.40553e-05
1.93442e-07
-2.41735e-05
1.9384e-07
-2.42931e-05
1.85588e-07
-2.44122e-05
2.03002e-07
-2.45325e-05
1.88164e-07
-2.46532e-05
2.0422e-07
-2.4774e-05
1.89324e-07
-2.48958e-05
2.06102e-07
-2.50175e-05
1.99281e-07
-2.51401e-05
2.00179e-07
-2.52633e-05
2.00839e-07
-2.53869e-05
2.01754e-07
-2.5512e-05
2.03747e-07
-2.56371e-05
2.04547e-07
-2.57626e-05
2.04864e-07
-2.58897e-05
2.07307e-07
-2.60177e-05
2.0829e-07
-2.61463e-05
2.09907e-07
-2.62759e-05
2.0663e-07
-2.6406e-05
2.16167e-07
-2.65376e-05
2.08865e-07
-2.66702e-05
2.22735e-07
-2.68033e-05
2.11701e-07
-2.69379e-05
2.24719e-07
-2.70739e-05
2.16356e-07
-2.72113e-05
2.30606e-07
-2.73496e-05
2.1961e-07
-2.74892e-05
2.33741e-07
-2.76309e-05
2.25135e-07
-2.77745e-05
2.42066e-07
-2.792e-05
2.30829e-07
-2.80677e-05
2.49363e-07
-2.82193e-05
2.4796e-07
-2.83744e-05
2.52658e-07
-2.85323e-05
2.5742e-07
-2.86915e-05
2.5964e-07
-2.88493e-05
2.57171e-07
-2.90052e-05
2.54332e-07
-2.91602e-05
2.54723e-07
-2.93186e-05
2.59972e-07
-2.94802e-05
2.65262e-07
-2.96456e-05
2.70891e-07
-2.98138e-05
2.75848e-07
-2.99839e-05
2.79317e-07
-3.01562e-05
2.82676e-07
-3.03307e-05
2.85997e-07
-3.05066e-05
2.88783e-07
-3.0684e-05
2.90819e-07
-3.08622e-05
2.92366e-07
-3.10408e-05
2.93523e-07
-3.12202e-05
2.94024e-07
-3.13987e-05
2.93549e-07
-3.15773e-05
2.92715e-07
-3.17548e-05
2.91589e-07
-3.19306e-05
2.89181e-07
-3.21056e-05
2.87046e-07
-3.22784e-05
2.83936e-07
-3.24485e-05
2.80303e-07
-3.2616e-05
2.75211e-07
-3.27794e-05
2.68384e-07
-3.29376e-05
2.59997e-07
-3.30893e-05
2.49992e-07
-3.32345e-05
2.39157e-07
-3.33725e-05
2.2759e-07
-3.35032e-05
2.14874e-07
-3.36242e-05
1.99307e-07
-3.37359e-05
1.84086e-07
-3.38377e-05
1.67776e-07
-3.39283e-05
1.43236e-07
-3.40076e-05
1.36332e-07
-3.40764e-05
1.09201e-07
-3.41315e-05
9.67386e-08
-3.41759e-05
6.95613e-08
-3.42099e-05
6.07198e-08
-3.42344e-05
3.80951e-08
-3.42517e-05
3.247e-08
-3.42645e-05
2.88554e-08
-3.42807e-05
2.13657e-08
-3.43077e-05
5.0294e-08
-3.43556e-05
7.64044e-08
-3.44598e-05
1.7343e-07
-3.46904e-05
3.80744e-07
-3.51338e-05
7.32236e-07
-3.58254e-05
1.14525e-06
-3.66515e-05
1.37608e-06
-3.73926e-05
1.24816e-06
-3.78632e-05
8.19138e-07
-3.80774e-05
4.07305e-07
-3.83179e-05
4.67023e-07
-3.89999e-05
1.23814e-06
-3.9952e-05
1.73907e-06
-4.02964e-05
7.76994e-07
-3.77878e-05
-3.9105e-06
-2.79603e-05
-1.62042e-05
-9.97505e-06
-3.00563e-05
1.05284e-05
-3.43404e-05
2.84601e-05
-2.99608e-05
3.82035e-05
-1.60706e-05
4.06055e-05
-3.73036e-06
4.0208e-05
8.66044e-07
3.922e-05
1.80019e-06
3.84719e-05
1.34997e-06
3.80697e-05
7.40755e-07
3.74458e-05
1.09037e-06
3.63469e-05
1.85415e-06
3.50014e-05
2.23834e-06
3.38108e-05
1.96777e-06
3.30449e-05
1.26096e-06
3.26904e-05
5.82454e-07
3.25866e-05
1.70178e-07
3.25948e-05
-1.2815e-08
3.26433e-05
-8.21482e-08
3.27071e-05
-9.995e-08
3.27793e-05
-1.48266e-07
3.28514e-05
-8.61255e-08
3.29166e-05
-1.15553e-07
3.29721e-05
-8.32081e-08
3.30137e-05
-7.63108e-08
3.30397e-05
-3.25802e-08
3.3051e-05
-2.36414e-08
3.30448e-05
1.72564e-08
3.30246e-05
2.79752e-08
3.299e-05
6.41514e-08
3.29418e-05
7.96469e-08
3.28813e-05
1.00262e-07
3.28096e-05
1.18388e-07
3.27265e-05
1.36849e-07
3.26342e-05
1.52601e-07
3.25329e-05
1.6723e-07
3.24236e-05
1.8039e-07
3.23065e-05
1.92725e-07
3.21829e-05
2.03151e-07
3.2054e-05
2.1213e-07
3.19212e-05
2.18992e-07
3.17845e-05
2.24825e-07
3.16444e-05
2.2998e-07
3.1502e-05
2.3453e-07
3.13566e-05
2.39197e-07
3.12089e-05
2.42605e-07
3.10601e-05
2.45403e-07
3.09093e-05
2.4778e-07
3.07582e-05
2.48435e-07
3.06067e-05
2.49037e-07
3.04549e-05
2.49149e-07
3.03036e-05
2.48892e-07
3.01526e-05
2.47919e-07
3.00028e-05
2.46231e-07
2.98543e-05
2.44127e-07
2.97068e-05
2.42173e-07
2.9561e-05
2.39045e-07
2.94178e-05
2.35497e-07
2.92762e-05
2.32859e-07
2.91371e-05
2.29229e-07
2.89986e-05
2.26957e-07
2.8862e-05
2.24472e-07
2.87257e-05
2.2407e-07
2.85889e-05
2.2448e-07
2.84511e-05
2.24861e-07
2.8314e-05
2.24374e-07
2.81786e-05
2.26198e-07
2.8044e-05
2.17115e-07
2.79103e-05
2.23024e-07
2.77779e-05
2.13314e-07
2.7647e-05
2.19831e-07
2.75167e-05
2.09575e-07
2.73866e-05
2.18228e-07
2.72571e-05
2.08089e-07
2.7128e-05
2.17308e-07
2.69995e-05
2.06089e-07
2.68707e-05
2.17463e-07
2.67416e-05
2.06304e-07
2.6613e-05
2.17749e-07
2.64838e-05
2.05657e-07
2.63547e-05
2.11816e-07
2.6225e-05
2.12518e-07
2.6095e-05
2.1289e-07
2.59657e-05
2.12567e-07
2.58357e-05
2.13614e-07
2.57047e-05
2.14709e-07
2.55743e-05
2.14003e-07
2.54433e-05
2.14843e-07
2.53122e-05
2.15088e-07
2.51811e-05
2.15409e-07
2.50491e-05
2.23893e-07
2.49174e-05
2.08216e-07
2.47852e-05
2.25521e-07
2.46529e-05
2.07528e-07
2.45212e-05
2.25993e-07
2.43884e-05
2.07006e-07
2.42569e-05
2.16547e-07
2.4124e-05
2.16978e-07
2.39924e-05
2.16167e-07
2.38606e-05
2.15779e-07
2.37293e-05
2.15159e-07
2.35985e-05
2.14582e-07
2.34681e-05
2.13446e-07
2.33384e-05
2.1286e-07
2.32095e-05
2.19205e-07
2.30813e-05
2.02198e-07
2.29542e-05
2.15114e-07
2.28279e-05
1.99149e-07
2.27033e-05
2.0479e-07
2.25799e-05
2.02325e-07
2.24581e-05
1.99479e-07
2.23381e-05
1.96581e-07
2.22202e-05
1.93574e-07
2.21044e-05
1.89826e-07
2.19909e-05
1.86435e-07
2.18795e-05
1.86935e-07
2.17709e-05
1.73829e-07
2.16644e-05
1.74632e-07
2.15615e-05
1.68848e-07
2.14632e-05
1.61171e-07
2.13683e-05
1.55505e-07
2.12745e-05
1.56502e-07
2.11806e-05
1.51831e-07
2.10937e-05
1.44424e-07
2.10219e-05
1.1575e-07
2.09697e-05
8.40656e-08
2.09208e-05
7.90061e-08
2.08513e-05
1.15319e-07
2.07482e-05
1.72339e-07
2.06425e-05
1.76725e-07
2.0608e-05
5.33061e-08
2.06953e-05
-1.52272e-07
2.0921e-05
-3.86859e-07
2.11906e-05
-4.58066e-07
2.13254e-05
-2.21575e-07
2.12526e-05
1.31906e-07
2.09188e-05
5.7393e-07
2.03913e-05
9.0309e-07
2.00995e-05
4.84531e-07
2.04245e-05
-5.74793e-07
2.15075e-05
-1.86369e-06
2.36688e-05
-3.70612e-06
2.76292e-05
-6.81868e-06
2.9842e-05
-3.75166e-06
2.22683e-05
1.32189e-05
5.31653e-06
2.85643e-05
-7.66296e-06
2.1313e-05
-5.48922e-06
-4.23676e-06
-2.70456e-06
-5.39568e-06
-1.46228e-05
2.03798e-05
-2.10475e-05
1.22183e-05
-3.49824e-05
3.03032e-05
1.18078e-06
-6.78741e-05
2.4047e-05
1.65553e-05
6.45085e-06
3.75826e-05
8.72354e-06
-6.65286e-06
1.07882e-05
-6.35164e-06
-1.07939e-05
4.26546e-05
-3.80927e-05
5.63457e-05
-4.95679e-05
2.50459e-05
-4.60196e-05
-7.29393e-06
-3.9978e-05
-1.29655e-05
-3.66432e-05
-7.10859e-06
-3.49888e-05
-3.54682e-06
-3.45305e-05
-1.0389e-06
-3.50174e-05
9.84688e-07
-3.58394e-05
1.7398e-06
-3.63434e-05
1.0816e-06
-3.64291e-05
2.07828e-07
-3.6188e-05
-4.8242e-07
-3.57451e-05
-9.2562e-07
-3.53806e-05
-7.74132e-07
-3.52386e-05
-3.12761e-07
-3.52886e-05
8.76359e-08
-3.54477e-05
3.21009e-07
-3.55995e-05
3.08221e-07
-3.5697e-05
1.94681e-07
-3.57616e-05
1.23334e-07
-3.58323e-05
1.34181e-07
-3.59327e-05
1.95121e-07
-3.60595e-05
2.48331e-07
-3.61941e-05
2.65125e-07
-3.63283e-05
2.64604e-07
-3.64642e-05
2.66481e-07
-3.66058e-05
2.7722e-07
-3.67545e-05
2.91709e-07
-3.69081e-05
2.97777e-07
-3.7066e-05
3.13432e-07
-3.72278e-05
3.11604e-07
-3.73936e-05
3.30531e-07
-3.75644e-05
3.3373e-07
-3.77375e-05
3.39658e-07
-3.79147e-05
3.46726e-07
-3.80945e-05
3.52309e-07
-3.82776e-05
3.58533e-07
-3.8463e-05
3.52083e-07
-3.86511e-05
3.7867e-07
-3.88409e-05
3.59969e-07
-3.90333e-05
3.87605e-07
-3.9227e-05
3.66998e-07
-3.94216e-05
3.93447e-07
-3.96187e-05
3.85399e-07
-3.98164e-05
3.86852e-07
-4.00159e-05
3.90012e-07
-4.02164e-05
3.9188e-07
-4.04171e-05
3.92752e-07
-4.06182e-05
3.942e-07
-4.08211e-05
3.96753e-07
-4.10233e-05
3.8429e-07
-4.1227e-05
4.09314e-07
-4.14309e-05
3.88904e-07
-4.1636e-05
4.11808e-07
-4.18414e-05
3.91628e-07
-4.20474e-05
4.14758e-07
-4.2254e-05
4.05624e-07
-4.24619e-05
4.07906e-07
-4.26714e-05
4.09912e-07
-4.28815e-05
4.11427e-07
-4.30915e-05
4.13302e-07
-4.33026e-05
4.15309e-07
-4.3516e-05
4.17714e-07
-4.37297e-05
4.2064e-07
-4.39448e-05
4.2278e-07
-4.41613e-05
4.25979e-07
-4.43799e-05
4.22909e-07
-4.45987e-05
4.35653e-07
-4.48193e-05
4.26816e-07
-4.50417e-05
4.46829e-07
-4.52662e-05
4.33386e-07
-4.54918e-05
4.51483e-07
-4.57184e-05
4.40271e-07
-4.59483e-05
4.62126e-07
-4.61791e-05
4.47344e-07
-4.6413e-05
4.6881e-07
-4.66493e-05
4.58455e-07
-4.68883e-05
4.83237e-07
-4.71321e-05
4.71413e-07
-4.73807e-05
4.99958e-07
-4.76351e-05
5.02117e-07
-4.78964e-05
5.13499e-07
-4.81663e-05
5.27026e-07
-4.84394e-05
5.32346e-07
-4.87094e-05
5.26748e-07
-4.89727e-05
5.17198e-07
-4.92344e-05
5.1617e-07
-4.95002e-05
5.25443e-07
-4.97722e-05
5.37136e-07
-5.00487e-05
5.47088e-07
-5.03303e-05
5.57352e-07
-5.06158e-05
5.64576e-07
-5.09055e-05
5.72151e-07
-5.11974e-05
5.77644e-07
-5.14916e-05
5.82698e-07
-5.17882e-05
5.8718e-07
-5.20868e-05
5.90704e-07
-5.2386e-05
5.9256e-07
-5.26858e-05
5.93489e-07
-5.29852e-05
5.92525e-07
-5.32834e-05
5.90641e-07
-5.35804e-05
5.88314e-07
-5.38755e-05
5.84066e-07
-5.41669e-05
5.78236e-07
-5.44557e-05
5.7253e-07
-5.47407e-05
5.6522e-07
-5.50199e-05
5.54208e-07
-5.52918e-05
5.40134e-07
-5.55551e-05
5.23088e-07
-5.58092e-05
5.03947e-07
-5.6051e-05
4.80693e-07
-5.62814e-05
4.5783e-07
-5.64967e-05
4.30047e-07
-5.66981e-05
4.00542e-07
-5.68827e-05
3.68454e-07
-5.70503e-05
3.35307e-07
-5.72003e-05
2.90537e-07
-5.7333e-05
2.70558e-07
-5.74439e-05
2.18241e-07
-5.7536e-05
1.90417e-07
-5.76085e-05
1.40115e-07
-5.76636e-05
1.16755e-07
-5.77026e-05
7.56732e-08
-5.77272e-05
5.82748e-08
-5.77469e-05
5.05143e-08
-5.77732e-05
4.49962e-08
-5.78153e-05
9.39301e-08
-5.78952e-05
1.54583e-07
-5.80697e-05
3.47894e-07
-5.84544e-05
7.65417e-07
-5.91944e-05
1.47215e-06
-6.03351e-05
2.28585e-06
-6.16742e-05
2.71507e-06
-6.2835e-05
2.40885e-06
-6.35072e-05
1.49127e-06
-6.37321e-05
6.3211e-07
-6.39671e-05
7.02043e-07
-6.48408e-05
2.11183e-06
-6.60487e-05
2.94706e-06
-6.61463e-05
8.74598e-07
-6.15085e-05
-8.54813e-06
-4.51907e-05
-3.25181e-05
-1.60627e-05
-5.91885e-05
1.69461e-05
-6.73465e-05
4.59922e-05
-5.90097e-05
6.2184e-05
-3.22624e-05
6.66569e-05
-8.20336e-06
6.64759e-05
1.04702e-06
6.5214e-05
3.062e-06
6.4239e-05
2.32495e-06
6.37569e-05
1.22281e-06
6.28773e-05
1.96988e-06
6.11664e-05
3.56495e-06
5.89857e-05
4.41901e-06
5.70146e-05
3.93872e-06
5.57285e-05
2.54701e-06
5.51244e-05
1.1865e-06
5.49451e-05
3.49407e-07
5.49546e-05
-2.23811e-08
5.50324e-05
-1.61355e-07
5.51391e-05
-2.05006e-07
5.5258e-05
-2.78431e-07
5.53787e-05
-1.95508e-07
5.54905e-05
-2.30625e-07
5.55841e-05
-1.74387e-07
5.56545e-05
-1.50251e-07
5.56993e-05
-7.41236e-08
5.57175e-05
-4.43578e-08
5.57107e-05
2.6247e-08
5.56765e-05
5.97954e-08
5.56198e-05
1.23051e-07
5.55414e-05
1.57931e-07
5.5442e-05
1.99601e-07
5.53228e-05
2.37542e-07
5.51868e-05
2.72837e-07
5.50326e-05
3.06692e-07
5.48641e-05
3.3564e-07
5.46808e-05
3.63615e-07
5.44861e-05
3.8739e-07
5.42806e-05
4.0857e-07
5.40658e-05
4.26891e-07
5.38431e-05
4.41572e-07
5.36147e-05
4.53214e-07
5.33815e-05
4.63077e-07
5.31423e-05
4.73639e-07
5.2899e-05
4.82415e-07
5.26523e-05
4.89232e-07
5.24026e-05
4.95056e-07
5.21506e-05
4.99773e-07
5.18976e-05
5.01414e-07
5.16436e-05
5.03019e-07
5.13898e-05
5.02846e-07
5.11367e-05
5.0191e-07
5.08842e-05
5.00431e-07
5.06322e-05
4.98199e-07
5.0383e-05
4.93258e-07
5.01361e-05
4.89063e-07
4.98927e-05
4.82419e-07
4.96515e-05
4.76758e-07
4.9414e-05
4.70325e-07
4.91797e-05
4.63494e-07
4.89484e-05
4.58264e-07
4.8718e-05
4.54848e-07
4.84869e-05
4.55151e-07
4.82536e-05
4.5775e-07
4.80212e-05
4.57212e-07
4.77895e-05
4.56079e-07
4.75595e-05
4.5753e-07
4.73319e-05
4.43346e-07
4.71077e-05
4.48705e-07
4.68854e-05
4.34201e-07
4.66647e-05
4.4223e-07
4.64463e-05
4.26299e-07
4.6228e-05
4.38276e-07
4.60118e-05
4.22657e-07
4.57952e-05
4.35915e-07
4.55783e-05
4.2101e-07
4.53621e-05
4.35728e-07
4.5146e-05
4.20444e-07
4.493e-05
4.36073e-07
4.47125e-05
4.20903e-07
4.44955e-05
4.288e-07
4.4278e-05
4.29996e-07
4.40602e-05
4.30747e-07
4.38409e-05
4.31859e-07
4.36223e-05
4.32273e-07
4.34031e-05
4.33912e-07
4.31824e-05
4.34759e-07
4.29607e-05
4.36623e-07
4.27392e-05
4.36622e-07
4.25179e-05
4.36751e-07
4.22956e-05
4.49063e-07
4.20729e-05
4.28093e-07
4.18497e-05
4.52172e-07
4.16267e-05
4.27198e-07
4.14029e-05
4.53112e-07
4.11798e-05
4.26477e-07
4.09556e-05
4.40927e-07
4.07327e-05
4.39906e-07
4.05096e-05
4.39336e-07
4.02863e-05
4.39116e-07
4.00636e-05
4.37823e-07
3.98425e-05
4.3577e-07
3.96217e-05
4.34223e-07
3.94024e-05
4.32268e-07
3.91843e-05
4.40176e-07
3.8967e-05
4.1661e-07
3.87522e-05
4.32334e-07
3.8539e-05
4.09674e-07
3.83277e-05
4.16231e-07
3.81192e-05
4.10833e-07
3.79136e-05
4.05143e-07
3.77104e-05
3.99774e-07
3.75112e-05
3.92832e-07
3.73144e-05
3.86668e-07
3.71222e-05
3.78683e-07
3.69343e-05
3.76448e-07
3.67505e-05
3.55971e-07
3.65709e-05
3.54302e-07
3.63967e-05
3.43056e-07
3.62299e-05
3.27906e-07
3.60694e-05
3.16117e-07
3.59114e-05
3.15352e-07
3.57536e-05
3.08774e-07
3.56046e-05
2.93855e-07
3.54827e-05
2.37334e-07
3.53908e-05
1.75913e-07
3.53062e-05
1.63674e-07
3.51903e-05
2.3119e-07
3.50225e-05
3.40122e-07
3.4849e-05
3.50397e-07
3.47838e-05
1.18434e-07
3.49075e-05
-2.75895e-07
3.52499e-05
-7.29391e-07
3.56689e-05
-8.77058e-07
3.58901e-05
-4.42737e-07
3.57935e-05
2.28559e-07
3.52908e-05
1.07661e-06
3.44807e-05
1.7132e-06
3.40057e-05
9.59568e-07
3.446e-05
-1.02909e-06
3.60896e-05
-3.49328e-06
3.93652e-05
-6.98177e-06
4.53154e-05
-1.27688e-05
4.8857e-05
-7.29329e-06
3.76782e-05
2.43976e-05
1.08388e-05
5.54037e-05
-1.09063e-05