/*--------------------------------*- C++ -*----------------------------------*\
| =========                 |                                                 |
| \\      /  F ield         | OpenFOAM: The Open Source CFD Toolbox           |
|  \\    /   O peration     | Version:  2412                                  |
|   \\  /    A nd           | Website:  www.openfoam.com                      |
|    \\/     M anipulation  |                                                 |
\*---------------------------------------------------------------------------*/
FoamFile
{
    version     2.0;
    format      ascii;
    arch        "LSB;label=32;scalar=64";
    class       surfaceScalarField;
    location    "80";
    object      phi;
}
// * * * * * * * * * * * * * * * * * * * * * * * * * * * * * * * * * * * * * //

dimensions      [0 3 -1 0 0 0 0];

oriented        oriented;

internalField   nonuniform List<scalar> 
64883
(
1.33514e-05
1.58555e-06
-1.4937e-05
1.00318e-05
3.31965e-06
-2.34619e-07
1.02664e-05
-3.03047e-07
6.84278e-08
7.04555e-06
-7.3486e-06
5.54602e-06
1.49953e-06
-4.617e-06
1.0163e-05
-1.51524e-05
1.05354e-05
-1.84586e-05
3.30616e-06
-1.57288e-05
-2.72977e-06
-1.34269e-05
-2.3019e-06
-1.22553e-05
-1.17159e-06
-1.16888e-05
-5.66463e-07
-1.16579e-05
-3.09381e-08
-1.20527e-05
3.94819e-07
-1.24651e-05
4.12367e-07
-1.26737e-05
2.08637e-07
-1.26959e-05
2.21915e-08
-1.25587e-05
-1.37237e-07
-1.2389e-05
-1.69703e-07
-1.23132e-05
-7.57926e-08
-1.2331e-05
1.77379e-08
-1.24361e-05
1.05113e-07
-1.25476e-05
1.11577e-07
-1.26089e-05
6.12162e-08
-1.26497e-05
4.0635e-08
-1.26934e-05
4.38658e-08
-1.27506e-05
5.71768e-08
-1.28176e-05
6.7072e-08
-1.28862e-05
6.85414e-08
-1.29534e-05
6.72339e-08
-1.30214e-05
6.75357e-08
-1.30917e-05
7.06973e-08
-1.31641e-05
7.24024e-08
-1.32383e-05
7.41481e-08
-1.33136e-05
7.52922e-08
-1.33899e-05
7.63329e-08
-1.34676e-05
7.68354e-08
-1.35463e-05
7.95031e-08
-1.36259e-05
7.96156e-08
-1.37061e-05
8.02245e-08
-1.37872e-05
8.10254e-08
-1.38691e-05
8.19368e-08
-1.39515e-05
8.23236e-08
-1.4034e-05
8.25448e-08
-1.4117e-05
8.29436e-08
-1.42002e-05
8.14714e-08
-1.42837e-05
8.52353e-08
-1.43673e-05
8.35254e-08
-1.44506e-05
8.33265e-08
-1.45344e-05
8.37378e-08
-1.46178e-05
8.34284e-08
-1.4701e-05
8.31776e-08
-1.47845e-05
8.20943e-08
-1.48674e-05
8.4194e-08
-1.49499e-05
8.13703e-08
-1.50326e-05
8.38183e-08
-1.51144e-05
8.08038e-08
-1.5196e-05
8.25258e-08
-1.52772e-05
8.11527e-08
-1.53583e-05
8.11291e-08
-1.5439e-05
8.06696e-08
-1.5519e-05
7.99475e-08
-1.55983e-05
7.92877e-08
-1.56774e-05
7.90721e-08
-1.5756e-05
7.86604e-08
-1.58341e-05
7.7379e-08
-1.5912e-05
7.84414e-08
-1.59896e-05
7.68808e-08
-1.60667e-05
7.77132e-08
-1.61435e-05
7.49979e-08
-1.6219e-05
7.73376e-08
-1.62488e-05
3.96689e-08
-1.6325e-05
6.69864e-08
-1.64034e-05
7.83848e-08
-1.6434e-05
3.05627e-08
-1.65109e-05
7.69213e-08
-1.65877e-05
7.66817e-08
-1.66657e-05
7.79729e-08
-1.67441e-05
7.84042e-08
-1.68233e-05
7.91768e-08
-1.69034e-05
8.00425e-08
-1.69841e-05
8.06971e-08
-1.70662e-05
8.20934e-08
-1.71494e-05
8.31216e-08
-1.72336e-05
8.41744e-08
-1.7319e-05
8.54161e-08
-1.74055e-05
8.59762e-08
-1.74936e-05
8.85091e-08
-1.75831e-05
8.89655e-08
-1.76738e-05
9.12046e-08
-1.7766e-05
9.15311e-08
-1.78597e-05
9.42531e-08
-1.79547e-05
9.42642e-08
-1.80511e-05
9.71148e-08
-1.81489e-05
9.68969e-08
-1.82476e-05
9.9501e-08
-1.83475e-05
9.90333e-08
-1.84488e-05
1.02013e-07
-1.85511e-05
1.0136e-07
-1.86548e-05
1.04571e-07
-1.87592e-05
1.03531e-07
-1.88645e-05
1.06071e-07
-1.89703e-05
1.05042e-07
-1.90771e-05
1.07578e-07
-1.91846e-05
1.06663e-07
-1.92928e-05
1.09008e-07
-1.94016e-05
1.07901e-07
-1.9511e-05
1.10244e-07
-1.96209e-05
1.08963e-07
-1.97309e-05
1.10858e-07
-1.98397e-05
1.08007e-07
-1.99472e-05
1.08277e-07
-2.00532e-05
1.05299e-07
-2.0157e-05
1.04399e-07
-2.02585e-05
1.01082e-07
-2.0357e-05
9.89514e-08
-2.04514e-05
9.41383e-08
-2.05422e-05
9.098e-08
-2.06282e-05
8.5986e-08
-2.0707e-05
7.88175e-08
-2.08881e-05
1.81079e-07
-2.10648e-05
1.7665e-07
-2.11307e-05
6.5954e-08
-2.11915e-05
6.08163e-08
-2.12466e-05
5.50637e-08
-2.12964e-05
4.97428e-08
-2.13413e-05
4.48922e-08
-2.13826e-05
4.13382e-08
-2.14216e-05
3.89889e-08
-2.14519e-05
3.02879e-08
-2.13769e-05
-6.69094e-08
-2.1321e-05
-6.32367e-08
-2.13976e-05
9.46689e-08
-2.1672e-05
2.56315e-07
-2.20966e-05
4.18216e-07
-2.25965e-05
5.06102e-07
-2.32289e-05
6.27946e-07
-2.38358e-05
6.11212e-07
-2.42447e-05
4.08948e-07
-2.4422e-05
1.77338e-07
-2.45352e-05
1.13212e-07
-2.48138e-05
2.78606e-07
-2.54899e-05
6.76039e-07
-2.63693e-05
8.79447e-07
-2.67886e-05
4.19251e-07
-2.46316e-05
-2.15701e-06
-1.77347e-05
-6.89686e-06
-6.21843e-06
-1.15163e-05
6.63293e-06
-1.28514e-05
1.81059e-05
-1.1473e-05
2.49265e-05
-6.82061e-06
2.70198e-05
-2.09335e-06
2.65854e-05
4.34392e-07
2.57559e-05
8.29503e-07
2.49935e-05
7.62362e-07
2.45322e-05
4.6131e-07
2.4464e-05
6.80955e-08
2.42817e-05
1.82213e-07
2.36423e-05
6.39315e-07
2.27173e-05
9.39274e-07
2.18134e-05
8.89354e-07
2.11706e-05
6.43278e-07
2.07211e-05
4.49269e-07
2.04681e-05
2.2304e-07
2.04086e-05
8.9848e-08
2.04671e-05
-6.36391e-08
2.05464e-05
-7.44099e-08
2.0541e-05
5.47228e-09
2.05366e-05
4.44658e-09
2.05381e-05
-1.53523e-09
2.05405e-05
-2.38458e-09
2.054e-05
5.27871e-10
2.05344e-05
5.5799e-09
2.05218e-05
1.26462e-08
2.05018e-05
1.99335e-08
2.03761e-05
1.25744e-07
2.02441e-05
1.31991e-07
2.02055e-05
3.85887e-08
2.01584e-05
4.71569e-08
2.0105e-05
5.34218e-08
2.00463e-05
5.70904e-08
1.99823e-05
6.54533e-08
1.99141e-05
6.68652e-08
1.98421e-05
7.33249e-08
1.97666e-05
7.54821e-08
1.96882e-05
7.84868e-08
1.9607e-05
8.00806e-08
1.95234e-05
8.46703e-08
1.94388e-05
8.37711e-08
1.93531e-05
8.64188e-08
1.92669e-05
8.54096e-08
1.918e-05
8.77172e-08
1.90927e-05
8.65317e-08
1.90052e-05
8.81803e-08
1.89178e-05
8.683e-08
1.88299e-05
8.84508e-08
1.8742e-05
8.74277e-08
1.86541e-05
8.84196e-08
1.85669e-05
8.68366e-08
1.84801e-05
8.71455e-08
1.83943e-05
8.55079e-08
1.83096e-05
8.49398e-08
1.82261e-05
8.32963e-08
1.81438e-05
8.25773e-08
1.80627e-05
8.08824e-08
1.79827e-05
8.01491e-08
1.79041e-05
7.84711e-08
1.78267e-05
7.75808e-08
1.77499e-05
7.66994e-08
1.76738e-05
7.61321e-08
1.75988e-05
7.50576e-08
1.75239e-05
7.48223e-08
1.74496e-05
7.43737e-08
1.73753e-05
7.42041e-08
1.73012e-05
7.40957e-08
1.72276e-05
7.36122e-08
1.71538e-05
7.38536e-08
1.70799e-05
7.38541e-08
1.7006e-05
7.38661e-08
1.69317e-05
7.43579e-08
1.69079e-05
2.37749e-08
1.68844e-05
2.34948e-08
1.68106e-05
7.37712e-08
1.6734e-05
7.8175e-08
1.66574e-05
7.50028e-08
1.65806e-05
7.82046e-08
1.65035e-05
7.56303e-08
1.64264e-05
7.84893e-08
1.63487e-05
7.61871e-08
1.62704e-05
7.99279e-08
1.61917e-05
7.71137e-08
1.61127e-05
7.89703e-08
1.60331e-05
7.96024e-08
1.5953e-05
8.00627e-08
1.58727e-05
8.03365e-08
1.57916e-05
8.10761e-08
1.57097e-05
8.18995e-08
1.56272e-05
8.24864e-08
1.55446e-05
8.26275e-08
1.54613e-05
8.32932e-08
1.53776e-05
8.53994e-08
1.52928e-05
8.31233e-08
1.52078e-05
8.67183e-08
1.51222e-05
8.37429e-08
1.50357e-05
8.65146e-08
1.49492e-05
8.64763e-08
1.48621e-05
8.70938e-08
1.47744e-05
8.7746e-08
1.46867e-05
8.77158e-08
1.45983e-05
8.83466e-08
1.45096e-05
9.01439e-08
1.44207e-05
8.75015e-08
1.43317e-05
9.01851e-08
1.42426e-05
8.78034e-08
1.41533e-05
8.93096e-08
1.4064e-05
8.932e-08
1.39752e-05
8.88262e-08
1.38867e-05
8.84342e-08
1.37985e-05
8.82538e-08
1.37108e-05
8.81674e-08
1.36238e-05
8.65096e-08
1.35377e-05
8.60199e-08
1.34525e-05
8.5261e-08
1.33681e-05
8.43374e-08
1.32854e-05
8.27642e-08
1.32046e-05
8.08179e-08
1.31262e-05
7.83631e-08
1.30486e-05
7.76169e-08
1.29699e-05
7.8711e-08
1.28929e-05
7.69069e-08
1.28263e-05
6.66017e-08
1.27737e-05
5.25851e-08
1.27244e-05
4.9378e-08
1.26567e-05
6.76314e-08
1.25627e-05
9.4013e-08
1.24687e-05
9.4047e-08
1.24402e-05
2.84771e-08
1.25093e-05
-6.91514e-08
1.2674e-05
-1.64651e-07
1.2807e-05
-1.32972e-07
1.27824e-05
2.45203e-08
1.25754e-05
2.07095e-07
1.21682e-05
4.07202e-07
1.178e-05
3.88177e-07
1.18176e-05
-3.75829e-08
1.23858e-05
-5.68283e-07
1.35594e-05
-1.17356e-06
1.58532e-05
-2.29383e-06
1.85839e-05
-2.73068e-06
1.53621e-05
3.22179e-06
5.08536e-06
1.02767e-05
-4.72428e-06
9.80964e-06
-5.22928e-06
5.05001e-07
1.14417e-06
-6.37345e-06
-2.73504e-07
1.41767e-06
-1.10839e-05
1.08104e-05
-1.6066e-05
4.98202e-06
-1.44804e-05
3.45576e-05
4.11076e-06
-5.36054e-05
3.13113e-05
6.56599e-06
4.53681e-06
3.70409e-05
1.66642e-06
2.93881e-06
1.89192e-05
-2.46014e-05
1.15957e-05
8.82312e-06
-2.04328e-05
4.21915e-05
-5.08467e-05
4.09493e-05
-5.9067e-05
1.15265e-05
-5.17347e-05
-1.00621e-05
-4.52558e-05
-8.78072e-06
-4.1982e-05
-4.44544e-06
-4.04512e-05
-2.0973e-06
-4.0475e-05
-7.10904e-09
-4.16269e-05
1.54674e-06
-4.27952e-05
1.58063e-06
-4.33673e-05
7.80755e-07
-4.33886e-05
4.34629e-08
-4.29788e-05
-5.47048e-07
-4.25041e-05
-6.44441e-07
-4.23085e-05
-2.7135e-07
-4.23932e-05
1.02404e-07
-4.27731e-05
4.8507e-07
-4.31748e-05
5.13268e-07
-4.33748e-05
2.61159e-07
-4.35154e-05
1.81031e-07
-4.36691e-05
1.97802e-07
-4.38627e-05
2.50722e-07
-4.40848e-05
2.89195e-07
-4.43115e-05
2.95248e-07
-4.4537e-05
2.92697e-07
-4.47649e-05
2.94841e-07
-4.50008e-05
3.0716e-07
-4.52449e-05
3.16504e-07
-4.54946e-05
3.23816e-07
-4.57487e-05
3.29382e-07
-4.60066e-05
3.34184e-07
-4.62684e-05
3.37397e-07
-4.65349e-05
3.47161e-07
-4.68044e-05
3.49117e-07
-4.70768e-05
3.52656e-07
-4.73522e-05
3.56392e-07
-4.76298e-05
3.59506e-07
-4.79095e-05
3.61978e-07
-4.81913e-05
3.64402e-07
-4.84738e-05
3.65304e-07
-4.87576e-05
3.62711e-07
-4.90412e-05
3.71323e-07
-4.93254e-05
3.67765e-07
-4.96108e-05
3.68749e-07
-4.98961e-05
3.69021e-07
-5.01812e-05
3.68444e-07
-5.04659e-05
3.67851e-07
-5.07495e-05
3.63728e-07
-5.10325e-05
3.69072e-07
-5.13156e-05
3.62704e-07
-5.15964e-05
3.6631e-07
-5.18767e-05
3.59628e-07
-5.21544e-05
3.6163e-07
-5.24327e-05
3.59382e-07
-5.27093e-05
3.57757e-07
-5.2984e-05
3.55311e-07
-5.32568e-05
3.52704e-07
-5.35286e-05
3.50998e-07
-5.37985e-05
3.49018e-07
-5.40666e-05
3.46717e-07
-5.43341e-05
3.43859e-07
-5.45991e-05
3.44192e-07
-5.48635e-05
3.40288e-07
-5.51275e-05
3.42579e-07
-5.53906e-05
3.35433e-07
-5.56471e-05
3.36513e-07
-5.56401e-05
4.69555e-08
-5.58981e-05
3.11525e-07
-5.61628e-05
3.42977e-07
-5.61521e-05
1.98423e-08
-5.64111e-05
3.35918e-07
-5.66725e-05
3.38018e-07
-5.69354e-05
3.40795e-07
-5.72006e-05
3.43615e-07
-5.74686e-05
3.47069e-07
-5.77391e-05
3.505e-07
-5.80127e-05
3.54278e-07
-5.82897e-05
3.58976e-07
-5.85701e-05
3.63532e-07
-5.88551e-05
3.69095e-07
-5.91428e-05
3.73134e-07
-5.94355e-05
3.77996e-07
-5.9733e-05
3.86517e-07
-6.00348e-05
3.89903e-07
-6.0342e-05
3.99137e-07
-6.06531e-05
4.01759e-07
-6.09691e-05
4.11005e-07
-6.12893e-05
4.13448e-07
-6.16145e-05
4.23294e-07
-6.19443e-05
4.25454e-07
-6.22775e-05
4.3368e-07
-6.26141e-05
4.34435e-07
-6.29556e-05
4.44592e-07
-6.33006e-05
4.45003e-07
-6.36489e-05
4.54106e-07
-6.40002e-05
4.53515e-07
-6.43544e-05
4.61511e-07
-6.47115e-05
4.60904e-07
-6.50704e-05
4.67571e-07
-6.54313e-05
4.66445e-07
-6.57935e-05
4.72314e-07
-6.61593e-05
4.72471e-07
-6.65264e-05
4.78432e-07
-6.68958e-05
4.77073e-07
-6.7263e-05
4.79264e-07
-6.76282e-05
4.72121e-07
-6.79876e-05
4.68749e-07
-6.83415e-05
4.58235e-07
-6.86878e-05
4.5154e-07
-6.90254e-05
4.38156e-07
-6.93525e-05
4.26551e-07
-6.96668e-05
4.08048e-07
-6.99659e-05
3.90403e-07
-7.02512e-05
3.71298e-07
-7.05154e-05
3.43045e-07
-7.13259e-05
9.91493e-07
-7.21147e-05
9.65432e-07
-7.23328e-05
2.84027e-07
-7.25288e-05
2.56883e-07
-7.27063e-05
2.32525e-07
-7.28647e-05
2.08088e-07
-7.30043e-05
1.84534e-07
-7.31323e-05
1.69332e-07
-7.32464e-05
1.53089e-07
-7.33277e-05
1.11615e-07
-7.28406e-05
-5.42408e-07
-7.24243e-05
-4.9035e-07
-7.26607e-05
3.57672e-07
-7.37694e-05
1.33835e-06
-7.53686e-05
2.00817e-06
-7.70112e-05
2.15771e-06
-7.90762e-05
2.68645e-06
-8.10082e-05
2.54948e-06
-8.22119e-05
1.61275e-06
-8.25659e-05
5.31369e-07
-8.25929e-05
1.40176e-07
-8.2877e-05
5.62652e-07
-8.43492e-05
2.14824e-06
-8.63751e-05
2.90541e-06
-8.63299e-05
3.74078e-07
-7.79735e-05
-1.05134e-05
-5.53442e-05
-2.95262e-05
-1.92722e-05
-4.75883e-05
2.05656e-05
-5.26892e-05
5.6513e-05
-4.74204e-05
7.89271e-05
-2.92347e-05
8.71018e-05
-1.02681e-05
8.71014e-05
4.34784e-07
8.53532e-05
2.57763e-06
8.34625e-05
2.65306e-06
8.2281e-05
1.64269e-06
8.25406e-05
-1.9157e-07
8.23583e-05
3.64337e-07
8.03807e-05
2.61689e-06
7.73632e-05
3.97754e-06
7.43688e-05
3.86248e-06
7.22337e-05
2.77898e-06
7.05606e-05
2.12204e-06
6.95396e-05
1.20005e-06
6.9361e-05
3.13171e-07
6.97684e-05
-4.78609e-07
7.02515e-05
-5.50484e-07
7.02519e-05
5.14746e-09
7.02528e-05
3.58456e-09
7.02685e-05
-1.71968e-08
7.02881e-05
-2.20119e-08
7.02961e-05
-7.408e-09
7.02859e-05
1.5787e-08
7.02526e-05
4.59214e-08
7.01903e-05
8.22411e-08
6.95842e-05
7.31823e-07
6.89503e-05
7.65881e-07
6.88215e-05
1.67394e-07
6.86665e-05
2.02202e-07
6.84926e-05
2.27294e-07
6.82985e-05
2.49011e-07
6.80874e-05
2.78577e-07
6.78615e-05
2.90808e-07
6.76222e-05
3.14622e-07
6.73706e-05
3.2701e-07
6.7109e-05
3.40181e-07
6.68368e-05
3.50737e-07
6.65585e-05
3.64507e-07
6.62738e-05
3.67125e-07
6.59871e-05
3.74329e-07
6.56972e-05
3.74165e-07
6.54067e-05
3.79288e-07
6.51139e-05
3.78268e-07
6.48202e-05
3.82917e-07
6.45252e-05
3.80915e-07
6.42297e-05
3.84847e-07
6.39341e-05
3.82343e-07
6.3639e-05
3.84209e-07
6.3345e-05
3.80339e-07
6.30523e-05
3.80274e-07
6.27633e-05
3.7415e-07
6.24778e-05
3.70832e-07
6.21959e-05
3.64775e-07
6.19184e-05
3.60431e-07
6.16452e-05
3.53832e-07
6.13757e-05
3.49951e-07
6.11103e-05
3.43597e-07
6.0848e-05
3.40114e-07
6.05894e-05
3.35175e-07
6.03328e-05
3.32818e-07
6.00787e-05
3.29186e-07
5.98269e-05
3.26571e-07
5.95753e-05
3.26017e-07
5.93252e-05
3.24285e-07
5.90755e-05
3.23748e-07
5.88261e-05
3.23061e-07
5.85767e-05
3.23194e-07
5.8327e-05
3.23546e-07
5.80773e-05
3.2355e-07
5.78271e-05
3.24578e-07
5.78664e-05
-1.55591e-08
5.79077e-05
-1.78286e-08
5.76579e-05
3.23643e-07
5.73972e-05
3.41113e-07
5.71354e-05
3.34516e-07
5.68733e-05
3.42288e-07
5.661e-05
3.36853e-07
5.63459e-05
3.44578e-07
5.608e-05
3.39902e-07
5.58132e-05
3.49018e-07
5.55457e-05
3.42382e-07
5.52753e-05
3.49344e-07
5.50042e-05
3.50623e-07
5.47312e-05
3.53109e-07
5.44562e-05
3.55316e-07
5.41799e-05
3.57307e-07
5.39015e-05
3.60306e-07
5.36207e-05
3.63285e-07
5.33379e-05
3.65439e-07
5.30549e-05
3.66347e-07
5.27688e-05
3.7398e-07
5.24812e-05
3.68131e-07
5.21908e-05
3.79788e-07
5.18995e-05
3.72349e-07
5.16063e-05
3.79672e-07
5.13114e-05
3.81425e-07
5.10149e-05
3.83543e-07
5.07171e-05
3.85565e-07
5.04179e-05
3.86921e-07
5.01185e-05
3.87726e-07
4.98184e-05
3.92242e-07
4.95166e-05
3.87262e-07
4.9215e-05
3.93477e-07
4.89126e-05
3.88504e-07
4.86105e-05
3.91306e-07
4.83093e-05
3.90549e-07
4.80088e-05
3.89292e-07
4.77099e-05
3.87386e-07
4.74124e-05
3.85751e-07
4.71167e-05
3.84576e-07
4.68244e-05
3.78025e-07
4.65348e-05
3.75619e-07
4.6248e-05
3.72099e-07
4.59647e-05
3.67561e-07
4.56864e-05
3.61071e-07
4.54159e-05
3.51337e-07
4.51535e-05
3.40797e-07
4.48937e-05
3.37391e-07
4.46334e-05
3.38959e-07
4.43789e-05
3.31431e-07
4.41543e-05
2.91175e-07
4.39712e-05
2.35623e-07
4.38028e-05
2.17915e-07
4.35851e-05
2.85297e-07
4.32908e-05
3.88252e-07
4.29949e-05
3.90035e-07
4.28804e-05
1.42887e-07
4.30545e-05
-2.43244e-07
4.35116e-05
-6.21672e-07
4.39059e-05
-5.27344e-07
4.38749e-05
5.55493e-08
4.33046e-05
7.77404e-07
4.2149e-05
1.56281e-06
4.10139e-05
1.52325e-06
4.10059e-05
-2.95674e-08
4.25359e-05
-2.09831e-06
4.5807e-05
-4.44464e-06
5.22378e-05
-8.72466e-06
5.9564e-05
-1.00569e-05
5.14483e-05
1.13375e-05
2.17397e-05
3.99854e-05
-9.30621e-06
4.08555e-05
-1.45247e-05
5.72347e-06
5.27089e-07
-2.14252e-05
-5.74025e-06
7.68501e-06
-3.42379e-05
3.93081e-05
-4.18754e-05
1.26196e-05
-5.22451e-05
5.27786e-05
5.77788e-06
-0.000112162
5.46455e-05
4.69903e-06
1.43464e-05
7.734e-05
4.98866e-06
1.22966e-05
2.87094e-05
-4.83221e-05
1.2002e-05
2.55305e-05
-4.63054e-05
0.000100499
-9.59078e-05
9.05517e-05
-0.00010751
2.31284e-05
-9.60146e-05
-2.15572e-05
-8.58983e-05
-1.88971e-05
-8.07519e-05
-9.59178e-06
-7.84531e-05
-4.39617e-06
-7.86652e-05
2.05025e-07
-8.05685e-05
3.45e-06
-8.24275e-05
3.4397e-06
-8.32979e-05
1.6511e-06
-8.32671e-05
1.2635e-08
-8.25784e-05
-1.23567e-06
-8.18318e-05
-1.39111e-06
-8.15588e-05
-5.44322e-07
-8.17625e-05
3.06081e-07
-8.25505e-05
1.27306e-06
-8.33631e-05
1.32591e-06
-8.37231e-05
6.21091e-07
-8.39955e-05
4.53251e-07
-8.42917e-05
4.94227e-07
-8.46587e-05
6.17714e-07
-8.50733e-05
7.03725e-07
-8.54976e-05
7.1957e-07
-8.59204e-05
7.15483e-07
-8.63503e-05
7.2417e-07
-8.67957e-05
7.53083e-07
-8.72565e-05
7.77289e-07
-8.77275e-05
7.94786e-07
-8.82064e-05
8.08258e-07
-8.86949e-05
8.22762e-07
-8.91924e-05
8.33571e-07
-8.96971e-05
8.53015e-07
-9.02088e-05
8.60861e-07
-9.07259e-05
8.69763e-07
-9.12487e-05
8.79147e-07
-9.17766e-05
8.8739e-07
-9.23088e-05
8.94112e-07
-9.28427e-05
8.98376e-07
-9.33806e-05
9.03101e-07
-9.39205e-05
9.0016e-07
-9.44605e-05
9.13695e-07
-9.50034e-05
9.10669e-07
-9.55446e-05
9.09962e-07
-9.6087e-05
9.11391e-07
-9.6629e-05
9.104e-07
-9.71694e-05
9.08271e-07
-9.77095e-05
9.01811e-07
-9.82473e-05
9.08752e-07
-9.87839e-05
8.97633e-07
-9.93183e-05
9.02346e-07
-9.98496e-05
8.89469e-07
-0.000100379
8.92522e-07
-0.000100906
8.86448e-07
-0.000101431
8.82368e-07
-0.000101952
8.76002e-07
-0.000102469
8.69946e-07
-0.000102983
8.65411e-07
-0.000103494
8.59954e-07
-0.000104003
8.55731e-07
-0.000104509
8.48285e-07
-0.000105012
8.47919e-07
-0.000105512
8.39405e-07
-0.00010601
8.41167e-07
-0.000106507
8.3035e-07
-0.00010699
8.21826e-07
-0.000106809
-1.19826e-07
-0.000107293
7.81178e-07
-0.000107789
8.39319e-07
-0.000107588
-1.81216e-07
-0.000108078
8.2552e-07
-0.000108569
8.28782e-07
-0.000109062
8.34092e-07
-0.00010956
8.41379e-07
-0.000110063
8.5007e-07
-0.000110572
8.59817e-07
-0.000111085
8.67295e-07
-0.000111605
8.78695e-07
-0.000112132
8.90574e-07
-0.000112665
9.02379e-07
-0.000113207
9.14902e-07
-0.000113755
9.25278e-07
-0.000114313
9.45347e-07
-0.000114879
9.54906e-07
-0.000115453
9.74085e-07
-0.000116037
9.84074e-07
-0.000116628
1.00309e-06
-0.000117228
1.01223e-06
-0.000117836
1.03254e-06
-0.000118452
1.04039e-06
-0.000119076
1.05811e-06
-0.000119706
1.06319e-06
-0.000120342
1.08184e-06
-0.000120986
1.08795e-06
-0.000121637
1.10626e-06
-0.000122293
1.10854e-06
-0.000122953
1.12253e-06
-0.000123618
1.12491e-06
-0.000124287
1.13758e-06
-0.000124958
1.13571e-06
-0.000125634
1.1497e-06
-0.000126311
1.14874e-06
-0.000126995
1.16277e-06
-0.000127679
1.1602e-06
-0.000128361
1.16262e-06
-0.000129037
1.14654e-06
-0.000129702
1.13546e-06
-0.000130356
1.11042e-06
-0.000130996
1.09245e-06
-0.000131618
1.05963e-06
-0.000132219
1.02814e-06
-0.000132796
9.85035e-07
-0.000133344
9.38546e-07
-0.000133864
8.91846e-07
-0.000134354
8.33008e-07
-0.000136063
2.70051e-06
-0.000137717
2.61938e-06
-0.000138105
6.71429e-07
-0.000138454
6.05648e-07
-0.000138766
5.45304e-07
-0.00013904
4.81748e-07
-0.000139279
4.23168e-07
-0.000139489
3.79891e-07
-0.000139675
3.38399e-07
-0.000139795
2.31757e-07
-0.00013865
-1.67693e-06
-0.000137645
-1.50613e-06
-0.000138064
8.0369e-07
-0.000140287
3.53499e-06
-0.000143387
5.0999e-06
-0.000146363
5.14151e-06
-0.000150078
6.39567e-06
-0.00015348
5.95724e-06
-0.00015547
3.6025e-06
-0.000155815
8.75951e-07
-0.000155409
-2.65847e-07
-0.000155185
3.39033e-07
-0.000156746
3.70898e-06
-0.000158945
5.10459e-06
-0.00015673
-1.84063e-06
-0.000139441
-2.78028e-05
-9.77879e-05
-7.1179e-05
-3.38479e-05
-0.000111528
3.6124e-05
-0.000122661
9.98603e-05
-0.000111157
0.000141164
-7.05385e-05
0.000158155
-2.72591e-05
0.000160294
-1.70389e-06
0.00015857
4.30173e-06
0.000156219
5.00355e-06
0.000154761
3.10094e-06
0.000155722
-1.15337e-06
0.000155778
3.08313e-07
0.000152369
6.02621e-06
0.000146958
9.40687e-06
0.000141498
9.30376e-06
0.000137584
6.69313e-06
0.000134327
5.37914e-06
0.000132257
3.22558e-06
0.000131947
6.68475e-07
0.00013294
-1.47968e-06
0.000134081
-1.68484e-06
0.000134109
-2.23917e-08
0.000134133
-2.11892e-08
0.000134186
-7.01476e-08
0.000134242
-7.71925e-08
0.000134275
-4.09427e-08
0.000134271
1.96237e-08
0.000134223
9.39306e-08
0.000134124
1.81843e-07
0.000132806
2.04914e-06
0.000131423
2.149e-06
0.000131185
4.05832e-07
0.000130906
4.81065e-07
0.000130591
5.42686e-07
0.000130236
6.00983e-07
0.000129851
6.66264e-07
0.000129436
7.03169e-07
0.000128995
7.57793e-07
0.000128532
7.89814e-07
0.000128049
8.23944e-07
0.000127546
8.51429e-07
0.00012703
8.82561e-07
0.000126503
8.92306e-07
0.00012597
9.08927e-07
0.000125434
9.08939e-07
0.000124892
9.22755e-07
0.000124349
9.20322e-07
0.000123802
9.31086e-07
0.000123252
9.29206e-07
0.000122702
9.35689e-07
0.00012215
9.33865e-07
0.000121599
9.3626e-07
0.00012105
9.2869e-07
0.000120505
9.25362e-07
0.000119964
9.14614e-07
0.00011943
9.05336e-07
0.000118904
8.90699e-07
0.000118385
8.7952e-07
0.000117874
8.65186e-07
0.00011737
8.54329e-07
0.000116872
8.4057e-07
0.000116383
8.30117e-07
0.000115898
8.19674e-07
0.000115417
8.14201e-07
0.000114941
8.04461e-07
0.000114467
8.00489e-07
0.000113997
7.9642e-07
0.000113527
7.93969e-07
0.000113059
7.91888e-07
0.000112592
7.90284e-07
0.000112123
7.92412e-07
0.000111654
7.91876e-07
0.000111186
7.91663e-07
0.000110717
7.93935e-07
0.000110976
-2.74878e-07
0.000111234
-2.75125e-07
0.000110766
7.91457e-07
0.000110274
8.35254e-07
0.00010978
8.26167e-07
0.000109284
8.40328e-07
0.000108787
8.31598e-07
0.000108288
8.45734e-07
0.000107787
8.38546e-07
0.000107283
8.55176e-07
0.000106776
8.47464e-07
0.000106266
8.59498e-07
0.000105752
8.64533e-07
0.000105236
8.6909e-07
0.000104716
8.74999e-07
0.000104193
8.80135e-07
0.000103666
8.87029e-07
0.000103135
8.94595e-07
0.000102601
8.99873e-07
0.000102062
9.0461e-07
0.000101522
9.17022e-07
0.000100976
9.11069e-07
0.000100428
9.31024e-07
9.98763e-05
9.21238e-07
9.93204e-05
9.35527e-07
9.87629e-05
9.38888e-07
9.82019e-05
9.44568e-07
9.76385e-05
9.48951e-07
9.70741e-05
9.51315e-07
9.65055e-05
9.56311e-07
9.59375e-05
9.62231e-07
9.53667e-05
9.56069e-07
9.47959e-05
9.65959e-07
9.42263e-05
9.56386e-07
9.36552e-05
9.62311e-07
9.3086e-05
9.59796e-07
9.25191e-05
9.56124e-07
9.19552e-05
9.51327e-07
9.13938e-05
9.47197e-07
9.08369e-05
9.4213e-07
9.02849e-05
9.2934e-07
8.9739e-05
9.21457e-07
8.92008e-05
9.10301e-07
8.86687e-05
8.99623e-07
8.81454e-05
8.84418e-07
8.76365e-05
8.60279e-07
8.71428e-05
8.34407e-07
8.66566e-05
8.236e-07
8.61701e-05
8.25492e-07
8.56953e-05
8.06221e-07
8.52704e-05
7.16062e-07
8.49191e-05
5.86813e-07
8.45947e-05
5.42432e-07
8.4198e-05
6.81931e-07
8.36776e-05
9.08662e-07
8.31496e-05
9.18094e-07
8.29038e-05
3.88701e-07
8.31352e-05
-4.74695e-07
8.38424e-05
-1.32892e-06
8.44956e-05
-1.18051e-06
8.45023e-05
4.8879e-08
8.36276e-05
1.65209e-06
8.17852e-05
3.40522e-06
7.99082e-05
3.40023e-06
7.97104e-05
1.6825e-07
8.19863e-05
-4.37428e-06
8.70906e-05
-9.5489e-06
9.70838e-05
-1.87179e-05
0.000108438
-2.14112e-05
9.68867e-05
2.28889e-05
4.83772e-05
8.84949e-05
-7.90997e-06
9.71427e-05
-2.17981e-05
1.96116e-05
-2.06331e-06
-4.116e-05
-1.67206e-05
2.23423e-05
-5.94407e-05
8.20281e-05
-6.31726e-05
1.63514e-05
-0.00010964
6.70236e-05
6.75753e-06
-0.000185943
7.75948e-05
-5.87221e-06
2.86121e-05
0.000126323
1.15235e-05
2.93852e-05
3.58607e-05
-7.26593e-05
2.71315e-06
5.8678e-05
-8.47674e-05
0.00018798
-0.000151035
0.00015682
-0.000164312
3.64053e-05
-0.000149431
-3.64388e-05
-0.000136674
-3.16539e-05
-0.000130093
-1.61721e-05
-0.000127342
-7.14719e-06
-0.000127849
7.11268e-07
-0.000130425
6.02676e-06
-0.000132824
5.83858e-06
-0.000133882
2.70913e-06
-0.00013375
-1.19591e-07
-0.00013281
-2.17544e-06
-0.000131862
-2.3397e-06
-0.000131585
-8.21468e-07
-0.000131975
6.96272e-07
-0.000133193
2.4914e-06
-0.000134405
2.53763e-06
-0.000134941
1.15671e-06
-0.000135372
8.84649e-07
-0.000135846
9.68235e-07
-0.000136417
1.18831e-06
-0.000137054
1.34098e-06
-0.000137706
1.37186e-06
-0.00013836
1.36906e-06
-0.000139027
1.39054e-06
-0.000139716
1.44328e-06
-0.00014043
1.4907e-06
-0.00014116
1.52548e-06
-0.000141904
1.55223e-06
-0.000142663
1.58113e-06
-0.000143435
1.60481e-06
-0.00014422
1.63933e-06
-0.000145016
1.65618e-06
-0.000145821
1.67462e-06
-0.000146634
1.69294e-06
-0.000147454
1.70659e-06
-0.000148281
1.72104e-06
-0.000149113
1.73036e-06
-0.000149948
1.73837e-06
-0.000150784
1.73426e-06
-0.000151624
1.75604e-06
-0.000152463
1.74939e-06
-0.000153305
1.75146e-06
-0.000154144
1.7509e-06
-0.000154984
1.74994e-06
-0.000155822
1.74636e-06
-0.000156656
1.73456e-06
-0.000157487
1.74136e-06
-0.000158315
1.72423e-06
-0.000159139
1.72713e-06
-0.000159959
1.70865e-06
-0.000160776
1.70997e-06
-0.000161586
1.6971e-06
-0.000162391
1.68729e-06
-0.000163193
1.67777e-06
-0.000163988
1.66536e-06
-0.000164775
1.65226e-06
-0.00016556
1.64486e-06
-0.00016634
1.63597e-06
-0.000167113
1.61959e-06
-0.000167882
1.61764e-06
-0.000168647
1.6041e-06
-0.00016941
1.60469e-06
-0.000170169
1.58674e-06
-0.000170909
1.56438e-06
-0.000170708
-3.09338e-07
-0.000171448
1.50925e-06
-0.000172203
1.59335e-06
-0.000171976
-4.08092e-07
-0.000172727
1.57704e-06
-0.000173482
1.58382e-06
-0.000174245
1.59637e-06
-0.000175013
1.60917e-06
-0.000175786
1.62352e-06
-0.000176566
1.63962e-06
-0.000177356
1.6571e-06
-0.000178156
1.67877e-06
-0.000178965
1.69947e-06
-0.000179783
1.72079e-06
-0.000180615
1.74623e-06
-0.000181456
1.76547e-06
-0.00018231
1.80003e-06
-0.00018318
1.824e-06
-0.000184061
1.85647e-06
-0.000184953
1.87522e-06
-0.000185857
1.90747e-06
-0.000186776
1.93005e-06
-0.000187707
1.96484e-06
-0.000188649
1.98087e-06
-0.0001896
2.00986e-06
-0.00019056
2.02263e-06
-0.000191532
2.05475e-06
-0.000192515
2.06914e-06
-0.000193504
2.09695e-06
-0.000194502
2.10569e-06
-0.000195507
2.12829e-06
-0.000196518
2.13516e-06
-0.000197533
2.15293e-06
-0.000198553
2.15466e-06
-0.000199575
2.17265e-06
-0.000200604
2.17663e-06
-0.000201637
2.19677e-06
-0.000202671
2.19347e-06
-0.000203703
2.19546e-06
-0.000204722
2.16443e-06
-0.000205724
2.13841e-06
-0.000206707
2.09252e-06
-0.000207667
2.0536e-06
-0.0002086
1.99216e-06
-0.0002095
1.92823e-06
-0.00021036
1.84504e-06
-0.000211177
1.75527e-06
-0.00021195
1.6653e-06
-0.00021269
1.57325e-06
-0.000214765
4.77483e-06
-0.000216742
4.59687e-06
-0.000217292
1.22162e-06
-0.00021778
1.09348e-06
-0.000218211
9.76332e-07
-0.000218587
8.57176e-07
-0.000218909
7.44978e-07
-0.000219189
6.60851e-07
-0.000219425
5.7378e-07
-0.000219585
3.91793e-07
-0.00021835
-2.9034e-06
-0.000217297
-2.56872e-06
-0.000217922
1.45212e-06
-0.000220682
6.27176e-06
-0.000224736
9.14694e-06
-0.000229111
9.52351e-06
-0.000234548
1.18275e-05
-0.000239484
1.08985e-05
-0.000242313
6.43081e-06
-0.000242686
1.24893e-06
-0.000241809
-1.14224e-06
-0.000241249
-2.21516e-07
-0.000242316
4.77649e-06
-0.000243341
6.12977e-06
-0.000237125
-8.05677e-06
-0.000208031
-5.68969e-05
-0.000144219
-0.000134991
-4.96265e-05
-0.000206121
5.29476e-05
-0.000225235
0.000147265
-0.000205474
0.000210603
-0.000133876
0.000239281
-5.59377e-05
0.000245382
-7.80447e-06
0.00024458
5.10331e-06
0.000242935
6.64843e-06
0.000242238
3.7983e-06
0.000243346
-2.2614e-06
0.000242822
8.31824e-07
0.000237883
1.09657e-05
0.000229977
1.73275e-05
0.000221922
1.73436e-05
0.000216116
1.24992e-05
0.000211719
9.77606e-06
0.000209092
5.81345e-06
0.000208639
1.16142e-06
0.000209776
-2.62326e-06
0.000211105
-3.00871e-06
0.000211164
-8.16439e-08
0.00021124
-9.72342e-08
0.00021135
-1.79613e-07
0.000211464
-1.91104e-07
0.000211544
-1.20896e-07
0.00021157
-6.51268e-09
0.000211526
1.37112e-07
0.000211402
3.06782e-07
0.000209865
3.58615e-06
0.000208218
3.79566e-06
0.000207858
7.66212e-07
0.000207449
8.89195e-07
0.000206984
1.00762e-06
0.000206462
1.12177e-06
0.000205888
1.24159e-06
0.00020527
1.31998e-06
0.000204611
1.41863e-06
0.000203916
1.48425e-06
0.00020319
1.55017e-06
0.000202434
1.60589e-06
0.000201654
1.66414e-06
0.000200859
1.68558e-06
0.000200054
1.7152e-06
0.000199241
1.72149e-06
0.000198423
1.74182e-06
0.000197597
1.74538e-06
0.000196768
1.76077e-06
0.000195933
1.76274e-06
0.000195096
1.77346e-06
0.000194257
1.77255e-06
0.00019342
1.77438e-06
0.000192583
1.76466e-06
0.000191751
1.75767e-06
0.000190927
1.73835e-06
0.000190113
1.71985e-06
0.000189309
1.69417e-06
0.000188515
1.67393e-06
0.000187732
1.64823e-06
0.000186962
1.62428e-06
0.000186203
1.59992e-06
0.000185451
1.58207e-06
0.000184706
1.56419e-06
0.000183971
1.54961e-06
0.000183242
1.53295e-06
0.000182516
1.52685e-06
0.000181795
1.51742e-06
0.000181075
1.51387e-06
0.000180355
1.51184e-06
0.000179637
1.50883e-06
0.000178919
1.50962e-06
0.0001782
1.51113e-06
0.000177479
1.51303e-06
0.000176753
1.51923e-06
0.000177046
-5.67724e-07
0.00017734
-5.68633e-07
0.000176621
1.51022e-06
0.000175872
1.58605e-06
0.000175119
1.57783e-06
0.000174366
1.59439e-06
0.000173609
1.58704e-06
0.000172849
1.60752e-06
0.000172082
1.60313e-06
0.000171312
1.62722e-06
0.000170538
1.6201e-06
0.00016976
1.63753e-06
0.000168973
1.65086e-06
0.000168182
1.66032e-06
0.000167389
1.66836e-06
0.000166586
1.68248e-06
0.000165777
1.69621e-06
0.000164964
1.70759e-06
0.000164145
1.71941e-06
0.000163318
1.7316e-06
0.000162486
1.75096e-06
0.000161649
1.74599e-06
0.000160806
1.77633e-06
0.000159957
1.76727e-06
0.000159103
1.79013e-06
0.000158243
1.79887e-06
0.000157379
1.80875e-06
0.000156512
1.8158e-06
0.00015564
1.82327e-06
0.000154767
1.82891e-06
0.000153889
1.84167e-06
0.000153012
1.83206e-06
0.000152132
1.84736e-06
0.000151251
1.83554e-06
0.000150371
1.84267e-06
0.000149494
1.83626e-06
0.000148619
1.83141e-06
0.000147748
1.82202e-06
0.000146883
1.81286e-06
0.000146023
1.80243e-06
0.000145172
1.77951e-06
0.000144331
1.76261e-06
0.000143501
1.74065e-06
0.00014268
1.71982e-06
0.000141875
1.69001e-06
0.000141091
1.64416e-06
0.000140329
1.59628e-06
0.000139581
1.57211e-06
0.000138835
1.57128e-06
0.000138107
1.53443e-06
0.000137448
1.37441e-06
0.000136891
1.14441e-06
0.00013638
1.05327e-06
0.000135785
1.27686e-06
0.000135027
1.66604e-06
0.000134251
1.69505e-06
0.000133832
8.0678e-07
0.00013405
-6.91814e-07
0.000134929
-2.20867e-06
0.000135805
-2.05611e-06
0.000135892
-3.86837e-08
0.00013482
2.72419e-06
0.000132445
5.78083e-06
0.000129911
5.93428e-06
0.000129413
6.66171e-07
0.000132101
-7.06224e-06
0.000138558
-1.60058e-05
0.000151077
-3.12372e-05
0.000165604
-3.59383e-05
0.000152327
3.6166e-05
8.74683e-05
0.000153354
2.99603e-06