/*--------------------------------*- C++ -*----------------------------------*\
| =========                 |                                                 |
| \\      /  F ield         | OpenFOAM: The Open Source CFD Toolbox           |
|  \\    /   O peration     | Version:  2412                                  |
|   \\  /    A nd           | Website:  www.openfoam.com                      |
|    \\/     M anipulation  |                                                 |
\*---------------------------------------------------------------------------*/
FoamFile
{
    version     2.0;
    format      ascii;
    arch        "LSB;label=32;scalar=64";
    class       volVectorField;
    location    "80";
    object      U;
}
// * * * * * * * * * * * * * * * * * * * * * * * * * * * * * * * * * * * * * //

dimensions      [0 1 -1 0 0 0 0];

internalField   nonuniform List<vector> 
29601
(
(-0.0272449 -0.507988 -1.40789e-20)
(-0.196549 -0.684473 4.15991e-20)
(-0.0560485 -0.090759 -8.24929e-20)
(0.00389276 0.00726319 8.45276e-20)
(-0.250174 -0.187046 -1.81416e-23)
(-0.166955 -0.0849918 -6.70556e-20)
(0.344815 0.106931 1.45736e-23)
(0.77329 0.145601 0)
(0.827799 0.105761 2.72474e-20)
(0.669406 0.082469 2.73054e-20)
(0.580547 0.0769601 -2.63261e-20)
(0.534699 0.074863 0)
(0.512683 0.0743964 -4.64041e-20)
(0.512665 0.0755287 -4.28071e-20)
(0.529063 0.0772781 -7.8888e-20)
(0.544439 0.077596 4.45145e-24)
(0.550191 0.0767768 3.40634e-20)
(0.54974 0.0756451 -6.35598e-20)
(0.542604 0.0742953 5.9297e-20)
(0.533487 0.0734122 0)
(0.528333 0.0731982 3.07332e-24)
(0.527216 0.0733235 4.66694e-20)
(0.529329 0.073626 -4.83549e-26)
(0.532476 0.0738117 -2.42084e-24)
(0.534535 0.0738395 0)
(0.535614 0.0738144 0)
(0.536315 0.0738318 1.83521e-24)
(0.53747 0.0739331 -3.81354e-26)
(0.53922 0.0740775 -2.03761e-19)
(0.541266 0.0742213 9.31979e-20)
(0.543333 0.0743474 0)
(0.545348 0.0744687 -1.21655e-26)
(0.547408 0.0745955 -1.06092e-24)
(0.549576 0.0747267 -2.5995e-19)
(0.551858 0.07486 0)
(0.554195 0.0749839 1.08108e-19)
(0.556593 0.0751081 -9.84739e-20)
(0.559042 0.0752245 0)
(0.561554 0.0753382 0)
(0.564115 0.075443 -5.51895e-25)
(0.566727 0.0755421 1.34001e-19)
(0.569387 0.0756319 0)
(0.572092 0.0757137 1.0944e-19)
(0.574847 0.0757859 0)
(0.577618 0.0758444 1.77025e-19)
(0.580447 0.0758947 0)
(0.583286 0.0759291 -7.06378e-20)
(0.58618 0.0759547 -1.25379e-19)
(0.589066 0.0759599 1.10659e-19)
(0.591984 0.0759542 -9.70129e-20)
(0.59493 0.0759348 -8.43543e-20)
(0.597896 0.0758983 -7.26014e-20)
(0.600879 0.0758479 -1.10077e-25)
(0.603886 0.0757794 1.05852e-25)
(0.606892 0.0756933 4.20757e-20)
(0.609917 0.0755916 0)
(0.612968 0.0754731 -4.11596e-26)
(0.616018 0.0753338 6.94609e-20)
(0.619092 0.0751794 0)
(0.622159 0.0750054 6.89599e-21)
(0.625263 0.0748158 5.65566e-27)
(0.628377 0.074607 -3.52257e-20)
(0.631514 0.074378 1.99639e-26)
(0.634651 0.0741306 3.93209e-20)
(0.637816 0.073867 2.61085e-26)
(0.641003 0.0735828 -2.53845e-26)
(0.644216 0.0732804 3.47481e-26)
(0.64745 0.0729562 -3.38412e-26)
(0.650702 0.0726131 4.25713e-26)
(0.653984 0.0722493 -3.68274e-19)
(0.657294 0.0718638 1.99037e-19)
(0.66062 0.0714536 -4.85911e-26)
(0.66398 0.0710236 2.27188e-19)
(0.667363 0.070565 5.51567e-26)
(0.670774 0.0700863 2.53561e-19)
(0.674239 0.0695783 2.66227e-19)
(0.677726 0.0690434 0)
(0.681242 0.0684768 0)
(0.684786 0.0678801 -3.02685e-19)
(0.688377 0.0672491 0)
(0.692008 0.066585 -7.97699e-26)
(0.695682 0.0658808 1.6106e-25)
(0.699391 0.0651382 -8.13068e-26)
(0.703165 0.0643532 -1.21522e-25)
(0.70698 0.0635219 -3.94531e-27)
(0.710852 0.0626422 7.68633e-19)
(0.714788 0.061712 3.96126e-19)
(0.718792 0.0607275 -4.0807e-19)
(0.722857 0.0596806 4.2017e-19)
(0.726965 0.0585707 1.05078e-25)
(0.731087 0.0573889 -1.2635e-25)
(0.735169 0.0561243 0)
(0.739253 0.054778 -4.70773e-19)
(0.743406 0.0533496 -9.68212e-19)
(0.747646 0.0518357 4.97765e-19)
(0.751976 0.050228 5.11773e-19)
(0.756375 0.0485187 -5.26145e-19)
(0.760844 0.0467051 5.40913e-19)
(0.765379 0.0447769 -5.56113e-19)
(0.769968 0.0427268 0)
(0.7746 0.0405468 5.87834e-19)
(0.779271 0.0382321 -6.04415e-19)
(0.783971 0.0357701 -2.06728e-27)
(0.78869 0.0331571 7.51516e-26)
(0.793426 0.0303813 0)
(0.798163 0.0274357 -3.38e-19)
(0.802889 0.0243108 8.18478e-26)
(0.80758 0.0209971 3.57621e-19)
(0.812238 0.0174874 -1.8395e-19)
(0.816846 0.0137701 4.46028e-26)
(0.821393 0.00983621 -9.73596e-20)
(0.825884 0.00567643 -2.36282e-26)
(0.830289 0.00127875 1.28859e-20)
(0.834575 -0.00336453 -5.30422e-20)
(0.838714 -0.00826705 1.09176e-19)
(0.842681 -0.0134381 2.2472e-19)
(0.846457 -0.0188895 -4.6257e-19)
(0.850015 -0.0246339 0)
(0.853335 -0.0306822 -1.8236e-26)
(0.856383 -0.0370495 5.04301e-19)
(0.859133 -0.0437503 -5.19014e-19)
(0.861562 -0.0507999 5.34127e-19)
(0.863646 -0.0582154 2.63466e-25)
(0.865365 -0.0660209 -2.68248e-25)
(0.866716 -0.0742386 -4.80138e-26)
(0.867639 -0.0828953 -2.86163e-25)
(0.868111 -0.0920234 2.55912e-25)
(0.868152 -0.101665 1.26388e-18)
(0.867778 -0.111876 6.18027e-25)
(0.866954 -0.122713 1.33198e-18)
(0.865692 -0.134251 1.36537e-18)
(0.864154 -0.14662 0)
(0.862462 -0.159965 7.29947e-25)
(0.86069 -0.174473 1.45696e-18)
(0.859146 -0.190427 -1.48025e-18)
(0.858976 -0.208407 -7.03136e-25)
(0.862167 -0.229421 7.27982e-25)
(0.870699 -0.254827 1.49745e-18)
(0.883876 -0.285656 1.3538e-24)
(0.896215 -0.321581 -1.40873e-24)
(0.901337 -0.36169 -1.34128e-18)
(0.89493 -0.405591 1.23966e-24)
(0.878686 -0.455833 0)
(0.859767 -0.520283 0)
(0.842943 -0.611661 7.67692e-20)
(0.798008 -0.724078 8.85264e-19)
(0.693554 -0.843998 -3.06841e-24)
(0.465247 -0.861954 8.60504e-18)
(0.149042 -0.565501 -3.26184e-24)
(0.00182642 0.00816825 6.93074e-24)
(0.152733 0.579582 -3.25763e-24)
(0.471469 0.873463 -8.54327e-18)
(0.699434 0.851142 0)
(0.803126 0.728709 -1.71311e-18)
(0.847984 0.615316 -1.04108e-19)
(0.863858 0.522758 0)
(0.880812 0.456937 0)
(0.890721 0.403684 1.25085e-24)
(0.882814 0.354258 -1.1976e-24)
(0.861104 0.308985 -1.42138e-24)
(0.835798 0.270121 1.36596e-24)
(0.817898 0.239375 -1.515e-18)
(0.810503 0.215674 7.36493e-25)
(0.810423 0.196627 -7.11356e-25)
(0.813549 0.18032 0)
(0.817547 0.165727 -1.47076e-18)
(0.821548 0.152377 -1.44184e-18)
(0.825485 0.140059 0)
(0.829159 0.128586 -1.37721e-18)
(0.832515 0.117838 -1.3433e-18)
(0.835369 0.107697 6.23041e-25)
(0.837739 0.0981032 -1.27405e-18)
(0.839517 0.0889923 3.20848e-25)
(0.840794 0.0803302 -2.8842e-25)
(0.841487 0.0720777 3.98796e-26)
(0.841704 0.0642156 -2.70304e-25)
(0.841435 0.0567183 2.65485e-25)
(0.840761 0.0495733 -5.38179e-19)
(0.839667 0.0427589 5.22959e-19)
(0.838202 0.0362629 -5.08128e-19)
(0.8364 0.0300732 1.55974e-26)
(0.834279 0.0241778 0)
(0.831872 0.018564 4.66112e-19)
(0.829204 0.0132231 -2.2645e-19)
(0.826313 0.00814476 -1.10023e-19)
(0.823215 0.00331866 5.34579e-20)
(0.819937 -0.00126285 -1.29879e-20)
(0.81651 -0.00561205 -2.38187e-26)
(0.812966 -0.00973533 2.3658e-26)
(0.809333 -0.0136434 4.49726e-26)
(0.805604 -0.0173446 3.70974e-19)
(0.80179 -0.0208466 -3.60658e-19)
(0.797907 -0.02416 8.25613e-26)
(0.79396 -0.0272913 3.40974e-19)
(0.789971 -0.030249 0)
(0.785958 -0.0330422 7.58472e-26)
(0.781936 -0.0356773 -2.07143e-27)
(0.777908 -0.0381653 6.10198e-19)
(0.773881 -0.0405092 -5.93591e-19)
(0.769864 -0.0427211 0)
(0.765865 -0.0448053 5.61836e-19)
(0.761893 -0.0467695 -5.46629e-19)
(0.757964 -0.0486206 5.31859e-19)
(0.75408 -0.0503686 -5.1749e-19)
(0.750239 -0.0520155 -5.0349e-19)
(0.746454 -0.0535683 9.79687e-19)
(0.74272 -0.0550347 4.76528e-19)
(0.739034 -0.0564191 4.63518e-19)
(0.735389 -0.0577264 -4.50786e-19)
(0.73177 -0.0589577 -4.38297e-19)
(0.728175 -0.0601196 -4.26044e-19)
(0.724579 -0.0612164 4.13987e-19)
(0.720989 -0.0622474 9.3897e-26)
(0.717425 -0.0632215 -7.80673e-19)
(0.713875 -0.0641414 -3.94951e-27)
(0.710366 -0.0650124 -5.87738e-26)
(0.706862 -0.065834 -8.27867e-26)
(0.703413 -0.066613 1.64061e-25)
(0.699965 -0.0673506 -8.12919e-26)
(0.696552 -0.0680478 0)
(0.693141 -0.0687082 0)
(0.689761 -0.069333 0)
(0.686368 -0.0699238 0)
(0.682993 -0.0704817 -2.73119e-19)
(0.679599 -0.0710082 -2.60579e-19)
(0.676239 -0.0715035 5.68607e-26)
(0.672867 -0.0719743 -2.34486e-19)
(0.6695 -0.0724141 2.20816e-19)
(0.666135 -0.0728303 9.12103e-26)
(0.662755 -0.0732183 3.83848e-19)
(0.659375 -0.073581 4.4473e-26)
(0.655999 -0.0739195 -3.57864e-26)
(0.652614 -0.0742356 -7.18489e-20)
(0.649224 -0.0745264 -6.3005e-20)
(0.645833 -0.0747954 2.82125e-26)
(0.642441 -0.0750405 -4.38504e-20)
(0.639057 -0.0752664 1.664e-26)
(0.635656 -0.0754711 4.48035e-20)
(0.632245 -0.0756512 8.00899e-27)
(0.628842 -0.0758111 -1.82258e-21)
(0.625449 -0.0759513 0)
(0.622045 -0.0760708 -5.86974e-20)
(0.618639 -0.0761713 -3.58576e-26)
(0.615231 -0.0762501 0)
(0.611836 -0.0763101 -3.91426e-20)
(0.608453 -0.0763526 1.00132e-25)
(0.605063 -0.0763761 -1.04129e-25)
(0.601689 -0.0763798 0)
(0.598328 -0.0763686 8.10791e-20)
(0.594981 -0.0763387 9.36527e-20)
(0.591661 -0.0762947 -2.1444e-19)
(0.588344 -0.0762346 1.21869e-19)
(0.585055 -0.0761599 6.88491e-20)
(0.581776 -0.0760679 0)
(0.578545 -0.0759666 -1.73352e-19)
(0.575334 -0.0758498 0)
(0.572159 -0.0757225 -1.07588e-19)
(0.569026 -0.0755838 0)
(0.565936 -0.0754366 -1.32174e-19)
(0.562894 -0.0752796 -5.44808e-25)
(0.559904 -0.0751167 0)
(0.556966 -0.0749454 0)
(0.554083 -0.0747688 -7.59576e-25)
(0.551276 -0.0745893 -1.07357e-19)
(0.548514 -0.0744061 0)
(0.545825 -0.0742165 2.58707e-19)
(0.543254 -0.0740292 -1.07758e-24)
(0.540801 -0.0738477 1.44343e-26)
(0.538401 -0.0736723 0)
(0.535974 -0.0734956 9.30619e-20)
(0.533569 -0.0733009 1.01793e-19)
(0.531486 -0.0731098 -3.90002e-26)
(0.529994 -0.0729615 1.83513e-24)
(0.528969 -0.0728984 0)
(0.527586 -0.0728795 0)
(0.525265 -0.0728121 -2.42437e-24)
(0.521894 -0.0725917 -4.89307e-26)
(0.519563 -0.0722591 -4.67499e-20)
(0.520418 -0.0721015 3.07881e-24)
(0.52524 -0.0722766 0)
(0.533949 -0.0731097 -5.9423e-20)
(0.540712 -0.0744026 6.37151e-20)
(0.540935 -0.0754854 -3.41631e-20)
(0.535168 -0.0762765 4.4622e-24)
(0.520031 -0.0759588 3.95212e-20)
(0.503976 -0.0742487 4.28973e-20)
(0.504123 -0.0731542 4.64406e-20)
(0.525787 -0.0736146 0)
(0.57098 -0.0756919 0)
(0.658042 -0.0810696 -2.73236e-20)
(0.814581 -0.104076 -5.45704e-20)
(0.762717 -0.143612 0)
(0.34388 -0.106626 1.45865e-23)
(-0.162736 0.0826836 1.85946e-24)
(-0.259887 0.194524 -1.81523e-23)
(0.00583598 -0.00965267 -8.53049e-20)
(-0.0429976 0.0683351 8.31974e-20)
(-0.198107 0.689626 -4.15374e-20)
(-0.0290357 0.559219 -1.39472e-20)
(-0.0968995 -1.40477 2.30143e-20)
(-0.574404 -1.98665 0)
(-0.197497 -0.366096 1.36294e-19)
(-0.0126843 -0.00395685 -1.39796e-19)
(-0.723078 -0.538564 1.28681e-19)
(-0.415502 -0.221559 -5.2528e-23)
(1.15531 0.346391 -2.1264e-24)
(2.37847 0.443041 -4.1774e-20)
(2.50745 0.321501 -9.03143e-20)
(2.05907 0.256539 -4.52788e-20)
(1.80531 0.240793 -9.39356e-24)
(1.6738 0.23511 8.27303e-20)
(1.61199 0.234169 1.54345e-19)
(1.61388 0.237601 8.61153e-24)
(1.66166 0.24241 6.56553e-20)
(1.70548 0.2429 -6.09602e-20)
(1.72136 0.240176 6.00067e-26)
(1.71896 0.236591 6.45204e-24)
(1.69757 0.232549 -1.97624e-19)
(1.67105 0.23005 -1.11813e-23)
(1.65627 0.229514 1.0325e-23)
(1.65339 0.229944 -7.78208e-20)
(1.65984 0.230845 -4.40031e-24)
(1.66917 0.231354 0)
(1.67531 0.23141 1.20382e-19)
(1.67863 0.231329 -1.10543e-19)
(1.68093 0.231398 1.01402e-19)
(1.6846 0.231718 -5.67041e-24)
(1.69005 0.232165 -5.69386e-27)
(1.69636 0.232598 -3.11148e-19)
(1.70274 0.232984 -1.42291e-19)
(1.70899 0.233355 1.96269e-24)
(1.7154 0.233746 -1.74377e-24)
(1.72215 0.234153 2.17021e-19)
(1.72925 0.234561 0)
(1.73652 0.234946 6.60256e-26)
(1.744 0.235328 1.6442e-19)
(1.75163 0.235689 -2.28367e-24)
(1.75947 0.23604 1.05924e-24)
(1.76747 0.236368 0)
(1.77564 0.236674 -4.47352e-19)
(1.78395 0.236954 0)
(1.79241 0.237208 1.82645e-19)
(1.80103 0.237435 6.09877e-25)
(1.80971 0.237615 -2.95377e-19)
(1.81857 0.237774 -3.31663e-26)
(1.82746 0.237881 -4.65808e-25)
(1.83652 0.237961 2.09152e-19)
(1.84557 0.237981 -3.37504e-25)
(1.85474 0.237966 3.23225e-25)
(1.86398 0.237905 -1.40708e-19)
(1.87329 0.237794 2.42215e-19)
(1.88264 0.237635 1.029e-19)
(1.89207 0.237424 1.51796e-25)
(1.90151 0.237156 -1.46117e-25)
(1.911 0.236839 -9.45514e-26)
(1.92056 0.236466 1.59983e-25)
(1.93012 0.236035 -1.16178e-19)
(1.93979 0.235554 -4.32299e-26)
(1.94941 0.235009 -1.17294e-20)
(1.95915 0.234416 0)
(1.9689 0.233759 2.90819e-20)
(1.97873 0.233048 -7.34226e-26)
(1.98859 0.232275 -6.68939e-26)
(1.99852 0.231447 0)
(2.0085 0.230558 -9.74964e-20)
(2.01857 0.229609 -1.12396e-19)
(2.0287 0.228596 1.28777e-25)
(2.03889 0.22752 -1.25519e-25)
(2.04916 0.226377 3.06013e-19)
(2.05951 0.225166 -3.30801e-19)
(2.06992 0.223883 0)
(2.08043 0.222531 -1.33074e-25)
(2.09103 0.221099 -3.99895e-19)
(2.1017 0.219591 4.21516e-19)
(2.11251 0.217999 4.4258e-19)
(2.12341 0.216318 -2.27764e-25)
(2.1344 0.214541 -4.83343e-19)
(2.14547 0.212668 5.03225e-19)
(2.15669 0.210689 -2.56029e-25)
(2.16802 0.208601 2.5187e-25)
(2.17948 0.206394 0)
(2.19106 0.204061 -5.8091e-19)
(2.20281 0.201595 -6.00192e-19)
(2.21471 0.198986 -1.44424e-25)
(2.22681 0.19623 -6.38999e-19)
(2.23913 0.193313 -6.58637e-19)
(2.25166 0.190226 6.78489e-19)
(2.26443 0.186953 0)
(2.27739 0.183483 0)
(2.29038 0.179784 -1.47956e-18)
(2.30317 0.175823 6.57511e-27)
(2.31592 0.171604 6.59593e-27)
(2.32889 0.167127 -1.23526e-25)
(2.34214 0.162381 2.00616e-25)
(2.35567 0.157341 -1.70149e-18)
(2.36943 0.151987 1.74926e-18)
(2.38342 0.146303 -8.9917e-19)
(2.39759 0.140262 0)
(2.41194 0.133837 0)
(2.42643 0.12701 0)
(2.44104 0.119756 -2.42962e-25)
(2.45573 0.112044 3.67733e-25)
(2.4705 0.103857 -1.24914e-25)
(2.4853 0.0951609 0)
(2.50011 0.0859338 0)
(2.51488 0.076143 5.77822e-19)
(2.52954 0.0657645 1.39978e-25)
(2.54411 0.0547701 6.11434e-19)
(2.55851 0.0431255 3.1452e-19)
(2.57273 0.0308041 -7.62939e-26)
(2.58676 0.0177745 -1.6648e-19)
(2.60053 0.00400128 -2.39493e-27)
(2.61391 -0.0105434 0)
(2.62685 -0.0258957 0)
(2.63924 -0.042092 0)
(2.65103 -0.0591644 7.68591e-19)
(2.66215 -0.0771538 0)
(2.67251 -0.0960964 -8.14111e-19)
(2.68201 -0.116036 4.0232e-25)
(2.69057 -0.137018 1.72451e-18)
(2.69815 -0.159093 8.46059e-25)
(2.70464 -0.182314 -1.82606e-18)
(2.70998 -0.206754 -1.87868e-18)
(2.71415 -0.232485 -1.93245e-18)
(2.71697 -0.259585 9.50629e-25)
(2.71839 -0.288163 -2.04284e-18)
(2.71846 -0.318348 6.34648e-25)
(2.71722 -0.350312 0)
(2.71457 -0.384234 0)
(2.71055 -0.420354 -2.26731e-18)
(2.70566 -0.459067 0)
(2.70023 -0.500827 2.37277e-18)
(2.69451 -0.546212 2.41885e-18)
(2.68949 -0.596119 2.45724e-18)
(2.68872 -0.652348 0)
(2.69837 -0.718042 -2.33217e-24)
(2.72448 -0.797392 2.14382e-26)
(2.76452 -0.893487 2.24703e-24)
(2.801 -1.00507 2.36387e-18)
(2.81377 -1.12912 3.81654e-24)
(2.78931 -1.2641 2.05857e-24)
(2.73336 -1.41793 1.63201e-18)
(2.66689 -1.61375 1.05572e-18)
(2.60233 -1.88796 -1.15825e-24)
(2.44965 -2.22201 0)
(2.11331 -2.56924 3.72184e-18)
(1.40639 -2.60162 -7.13248e-18)
(0.447751 -1.69764 5.41002e-24)
(0.00421425 0.0246217 -1.1502e-23)
(0.45889 1.74008 5.40349e-24)
(1.42534 2.63664 7.08492e-18)
(2.13152 2.59135 -3.66989e-18)
(2.46564 2.2365 1.42095e-18)
(2.61817 1.89944 -1.23393e-24)
(2.68001 1.62169 3.8589e-24)
(2.74059 1.42169 -2.56022e-24)
(2.77766 1.25885 2.07531e-24)
(2.75777 1.10668 2.24133e-18)
(2.6931 0.966384 -2.38163e-18)
(2.6156 0.845378 2.2658e-24)
(2.56025 0.749333 4.7617e-24)
(2.53738 0.6752 -2.35863e-24)
(2.53728 0.6156 0)
(2.54717 0.564571 0)
(2.55977 0.518895 0)
(2.57237 0.477109 0)
(2.58474 0.438547 0)
(2.59626 0.402627 2.28668e-18)
(2.60679 0.368976 0)
(2.61576 0.337229 0)
(2.62321 0.30719 1.30596e-24)
(2.6288 0.278665 2.05896e-18)
(2.63283 0.251544 9.58068e-25)
(2.63505 0.225708 1.9473e-18)
(2.63577 0.20109 -4.53458e-25)
(2.63495 0.177615 1.83996e-18)
(2.63285 0.155241 8.52489e-25)
(2.62945 0.133904 -8.68823e-19)
(2.62489 0.113563 4.05384e-25)
(2.61928 0.0941809 8.20312e-19)
(2.61265 0.0757182 0)
(2.60513 0.0581388 -7.74526e-19)
(2.5968 0.0414141 0)
(2.58776 0.0255093 0)
(2.57808 0.0103979 0)
(2.56784 -0.00395191 2.14853e-27)
(2.55712 -0.0175718 1.67837e-19)
(2.54604 -0.0304854 -7.69295e-26)
(2.53468 -0.0427246 7.64771e-26)
(2.52302 -0.054317 -6.16654e-19)
(2.51109 -0.0652855 1.41206e-25)
(2.49895 -0.0756616 -5.82938e-19)
(2.48661 -0.0854706 0)
(2.47414 -0.0947343 0)
(2.46159 -0.103483 -1.26105e-25)
(2.44901 -0.111738 3.71295e-25)
(2.43641 -0.119529 -2.45334e-25)
(2.42381 -0.126874 0)
(2.41125 -0.133799 0)
(2.39874 -0.14033 0)
(2.38632 -0.146482 1.81807e-18)
(2.37403 -0.152283 -1.76902e-18)
(2.36188 -0.157757 1.72128e-18)
(2.34988 -0.162918 8.37392e-19)
(2.33803 -0.167784 -2.62032e-25)
(2.32636 -0.172378 6.60303e-27)
(2.31485 -0.176715 6.58197e-27)
(2.30348 -0.180813 1.4997e-18)
(2.29218 -0.184674 0)
(2.2809 -0.188313 0)
(2.26963 -0.191744 -6.88755e-19)
(2.25837 -0.194975 6.69009e-19)
(2.24718 -0.198025 6.49485e-19)
(2.23604 -0.200903 -1.46951e-25)
(2.22506 -0.203631 6.10932e-19)
(2.21411 -0.206208 -1.44393e-25)
(2.20331 -0.208651 0)
(2.19253 -0.21096 2.57195e-25)
(2.18186 -0.213149 -2.61443e-25)
(2.1712 -0.215219 0)
(2.16063 -0.217178 4.95041e-19)
(2.15003 -0.21903 -2.33441e-25)
(2.13948 -0.220782 -4.5468e-19)
(2.12889 -0.222432 -4.33835e-19)
(2.11838 -0.223991 4.12448e-19)
(2.10784 -0.225462 1.34089e-25)
(2.09731 -0.226846 -3.67706e-19)
(2.08679 -0.228149 3.44144e-19)
(2.07624 -0.229368 -3.1965e-19)
(2.06568 -0.230509 -1.32162e-25)
(2.05512 -0.231573 1.35593e-25)
(2.04453 -0.232562 1.19707e-19)
(2.03393 -0.233477 1.0499e-19)
(2.02333 -0.23432 0)
(2.01272 -0.235093 7.31087e-20)
(2.00211 -0.235801 7.88726e-26)
(1.99147 -0.236439 -3.73989e-20)
(1.98082 -0.237009 0)
(1.97018 -0.237512 2.94185e-21)
(1.95956 -0.237955 -3.46377e-26)
(1.9489 -0.23833 9.75871e-20)
(1.93825 -0.238643 1.41749e-25)
(1.92761 -0.238896 -8.51346e-26)
(1.91699 -0.239086 -1.36543e-25)
(1.9064 -0.239222 1.41851e-25)
(1.89581 -0.239296 -9.75726e-20)
(1.88527 -0.239314 -1.15636e-19)
(1.87476 -0.23928 1.3509e-19)
(1.8643 -0.239191 3.12345e-25)
(1.8539 -0.239055 1.7869e-19)
(1.84353 -0.238867 -2.03129e-19)
(1.83327 -0.238638 -4.54275e-25)
(1.82304 -0.238355 -3.35491e-26)
(1.81295 -0.238042 2.8905e-19)
(1.80293 -0.237683 5.97465e-25)
(1.79303 -0.237288 -1.79437e-19)
(1.78326 -0.236861 0)
(1.77363 -0.236405 2.20494e-19)
(1.76415 -0.235921 0)
(1.75483 -0.235415 1.04808e-24)
(1.74568 -0.234887 -2.26116e-24)
(1.73672 -0.234341 1.22044e-24)
(1.72798 -0.23379 -7.67658e-26)
(1.71939 -0.233221 0)
(1.71104 -0.232639 -2.15922e-19)
(1.70304 -0.232059 -1.83049e-24)
(1.69541 -0.231498 2.0663e-24)
(1.68796 -0.230959 1.41986e-19)
(1.68047 -0.230416 1.34015e-25)
(1.67304 -0.229825 1.69944e-19)
(1.66655 -0.229233 -5.67063e-24)
(1.66183 -0.228766 -1.01465e-19)
(1.65853 -0.228555 3.34458e-24)
(1.65427 -0.2285 -1.20578e-19)
(1.6473 -0.228319 0)
(1.63726 -0.227701 -4.41139e-24)
(1.63012 -0.226704 7.80267e-20)
(1.63219 -0.226172 1.0355e-23)
(1.64594 -0.22659 -1.12169e-23)
(1.67121 -0.228934 9.91564e-20)
(1.69144 -0.232798 -1.0631e-19)
(1.69308 -0.236226 -6.16007e-26)
(1.67705 -0.238848 6.12296e-20)
(1.63381 -0.238348 6.59478e-20)
(1.58697 -0.233642 8.64882e-24)
(1.58545 -0.230315 -1.54954e-19)
(1.64626 -0.231245 -8.30486e-20)
(1.77585 -0.236862 4.38883e-20)
(2.0245 -0.252238 4.55139e-20)
(2.4675 -0.316421 9.09299e-20)
(2.3452 -0.436939 4.21227e-20)
(1.1502 -0.345035 -2.11054e-24)
(-0.402121 0.214944 1.11481e-19)
(-0.748174 0.557797 -1.29248e-19)
(-0.00558943 -0.00568078 1.41391e-19)
(-0.162405 0.305453 -1.37885e-19)
(-0.579419 2.0078 6.91617e-20)
(-0.100736 1.5454 1.14108e-20)
(-0.195117 -2.18584 1.26562e-20)
(-0.9385 -3.26523 0)
(-0.393681 -0.759468 0)
(-0.0644287 -0.0508459 1.56855e-19)
(-1.18147 -0.876229 6.40399e-23)
(-0.559098 -0.322525 1.23727e-19)
(2.15811 0.626095 -5.34774e-23)
(4.13213 0.760275 4.64578e-20)
(4.29741 0.553629 5.04577e-20)
(3.5801 0.450757 5.06515e-20)
(3.17047 0.425297 4.90135e-20)
(2.95749 0.416531 9.81053e-24)
(2.8597 0.415726 -1.73461e-19)
(2.86616 0.421699 -8.01069e-20)
(2.945 0.429189 0)
(3.01574 0.429245 6.85595e-20)
(3.04062 0.424197 -7.65086e-24)
(3.035 0.417831 -1.19191e-19)
(2.9989 0.411009 1.11257e-19)
(2.95543 0.407013 -1.25924e-23)
(2.9316 0.406295 5.85956e-24)
(2.92759 0.407138 8.76986e-20)
(2.93882 0.408674 -1.60944e-19)
(2.95457 0.409472 8.11831e-26)
(2.96502 0.409532 -1.35726e-19)
(2.97088 0.409397 1.24664e-19)
(2.97519 0.409552 -1.14375e-19)
(2.98186 0.410138 0)
(2.9915 0.410924 1.91858e-19)
(3.00258 0.411677 1.75554e-19)
(3.01379 0.412352 1.60589e-19)
(3.02483 0.413004 1.46828e-19)
(3.03616 0.413697 6.5143e-26)
(3.04812 0.414418 1.84072e-24)
(3.06066 0.415137 -5.59597e-26)
(3.07353 0.415822 -2.0382e-19)
(3.08678 0.416496 0)
(3.10028 0.417137 0)
(3.11417 0.417761 0)
(3.12837 0.418349 0)
(3.14287 0.418896 2.52648e-19)
(3.15763 0.419399 0)
(3.17266 0.419855 1.20055e-25)
(3.18797 0.420263 0)
(3.20338 0.420592 1.66851e-19)
(3.21913 0.420883 5.88761e-25)
(3.23493 0.421078 1.33144e-19)
(3.25103 0.421228 -4.6846e-25)
(3.26714 0.421277 0)
(3.28347 0.421262 -3.32882e-25)
(3.2999 0.421163 1.78096e-25)
(3.31645 0.420978 -2.73702e-19)
(3.33309 0.420703 1.03988e-25)
(3.34983 0.420341 0)
(3.36664 0.41988 -7.93525e-20)
(3.38353 0.419323 0)
(3.40051 0.418673 -7.77435e-26)
(3.4175 0.417916 6.56475e-20)
(3.43468 0.417076 3.8596e-20)
(3.4518 0.416119 -2.29889e-26)
(3.46909 0.415076 1.05246e-20)
(3.4864 0.413917 -3.28668e-20)
(3.50386 0.412665 -1.07781e-19)
(3.52138 0.411303 -7.37115e-20)
(3.53899 0.409839 -7.80816e-26)
(3.55669 0.408269 1.27103e-25)
(3.57453 0.406591 1.27027e-19)
(3.59249 0.4048 0)
(3.61054 0.402891 0)
(3.62871 0.400867 0)
(3.64702 0.398722 3.73859e-19)
(3.66545 0.396451 1.8255e-25)
(3.68404 0.39405 -8.53589e-19)
(3.70277 0.391515 4.51947e-19)
(3.72163 0.388836 -4.76382e-19)
(3.7407 0.386013 -5.00188e-19)
(3.75992 0.383026 5.23449e-19)
(3.77928 0.379874 1.09252e-18)
(3.79881 0.376549 -2.78849e-25)
(3.81857 0.373035 -5.90925e-19)
(3.83851 0.369325 -6.12911e-19)
(3.85867 0.365407 3.10176e-25)
(3.87905 0.361263 6.5658e-19)
(3.89972 0.356884 -6.78383e-19)
(3.92065 0.352255 -7.00252e-19)
(3.94196 0.347366 3.51785e-25)
(3.96372 0.3422 1.4888e-18)
(3.98594 0.336735 0)
(4.00868 0.330954 -7.89369e-19)
(4.03186 0.324829 0)
(4.0551 0.318299 8.35472e-19)
(4.07787 0.311297 -4.02292e-25)
(4.10038 0.303821 -8.83584e-19)
(4.12324 0.295889 1.81713e-18)
(4.14663 0.287478 -9.34163e-19)
(4.17052 0.278553 9.60403e-19)
(4.19485 0.269074 -2.31914e-25)
(4.21956 0.259004 0)
(4.24459 0.248307 0)
(4.26993 0.236928 0)
(4.29551 0.224841 -2.66785e-25)
(4.32132 0.211993 2.66463e-25)
(4.34727 0.198339 0)
(4.37333 0.183842 0)
(4.39946 0.168446 0)
(4.42559 0.152107 -6.33848e-19)
(4.45164 0.134774 -6.51901e-19)
(4.47753 0.116402 1.61814e-25)
(4.50323 0.0969376 -3.44866e-19)
(4.52866 0.0763268 -1.01915e-26)
(4.55376 0.0545161 1.82494e-19)
(4.57851 0.0314509 1.8776e-19)
(4.60279 0.00707537 -4.82973e-20)
(4.62642 -0.0186689 -4.78606e-26)
(4.64925 -0.0458387 -5.01537e-26)
(4.67111 -0.0745059 3.0201e-25)
(4.69189 -0.104719 -5.59438e-25)
(4.71148 -0.136554 -8.91738e-19)
(4.72975 -0.170075 0)
(4.74649 -0.205362 9.44378e-19)
(4.76158 -0.24249 -9.71821e-19)
(4.77492 -0.281551 0)
(4.78635 -0.322643 2.05779e-18)
(4.79573 -0.365889 4.23387e-18)
(4.80303 -0.411415 0)
(4.80792 -0.459364 -1.07103e-24)
(4.81036 -0.509925 1.09394e-24)
(4.81043 -0.563332 -2.36459e-18)
(4.80817 -0.619884 2.42813e-18)
(4.80343 -0.679904 0)
(4.79632 -0.743815 -2.43056e-24)
(4.78762 -0.812311 2.61434e-18)
(4.77794 -0.886192 -2.67184e-18)
(4.7677 -0.966476 -3.68513e-25)
(4.75873 -1.05477 2.60922e-24)
(4.75731 -1.15425 -2.69662e-24)
(4.77418 -1.27044 0)
(4.81962 -1.41063 -7.51687e-24)
(4.88835 -1.57996 -5.05534e-24)
(4.94878 -1.77578 -2.65858e-18)
(4.96514 -1.99246 5.00825e-18)
(4.91348 -2.22673 2.24944e-18)
(4.80596 -2.49304 -1.83738e-18)
(4.67638 -2.82956 -4.73569e-23)
(4.54263 -3.29521 -1.46051e-19)
(4.25316 -3.85668 -1.65014e-18)
(3.64352 -4.4253 -4.19199e-18)
(2.40776 -4.44441 -1.19979e-23)
(0.764722 -2.8847 6.05182e-18)
(0.00858263 0.0417872 0)
(0.78365 2.95671 -6.03584e-18)
(2.44022 4.50437 -1.18876e-23)
(3.67521 4.46379 4.13333e-18)
(4.28128 3.88217 1.59998e-18)
(4.57066 3.31554 1.93809e-19)
(4.70013 2.84394 -1.22784e-18)
(4.81988 2.50029 1.86782e-18)
(4.89645 2.21909 -2.27013e-18)
(4.87091 1.95475 -5.04124e-18)
(4.76307 1.70925 2.67907e-18)
(4.62919 1.49626 -5.0994e-24)
(4.53204 1.32648 6.94615e-24)
(4.4914 1.19518 0)
(4.49092 1.0896 -2.72658e-24)
(4.50816 0.999216 2.63813e-24)
(4.53029 0.918338 -2.74982e-18)
(4.55247 0.844362 2.69616e-18)
(4.5742 0.776089 -2.63734e-18)
(4.59446 0.712504 -2.45206e-24)
(4.61299 0.652938 0)
(4.62879 0.596749 -2.44854e-18)
(4.64193 0.54359 2.38417e-18)
(4.65181 0.493112 1.10283e-24)
(4.65894 0.445122 -1.07971e-24)
(4.6629 0.399407 0)
(4.66418 0.355846 -2.13373e-18)
(4.66276 0.314308 -2.07395e-18)
(4.65906 0.274715 0)
(4.65304 0.236958 9.79429e-19)
(4.64501 0.200966 -9.51762e-19)
(4.6351 0.166668 0)
(4.62341 0.133998 8.98727e-19)
(4.61014 0.10289 4.36674e-19)
(4.59545 0.0732956 3.04403e-25)
(4.57949 0.0451476 2.06194e-19)
(4.56239 0.0184074 -4.82448e-26)
(4.5443 -0.0069885 4.86914e-20)
(4.52539 -0.031089 -1.89311e-19)
(4.50584 -0.0539452 -1.84021e-19)
(4.48576 -0.0756065 -3.57784e-19)
(4.46517 -0.096121 3.47839e-19)
(4.44411 -0.115536 1.6322e-25)
(4.42267 -0.1339 1.50987e-25)
(4.4009 -0.151261 6.39614e-19)
(4.37889 -0.16766 0)
(4.35673 -0.183146 0)
(4.33451 -0.197759 0)
(4.31225 -0.21155 2.69139e-25)
(4.28999 -0.224553 -2.69462e-25)
(4.26779 -0.236812 0)
(4.24571 -0.248374 0)
(4.22378 -0.259265 -1.02613e-18)
(4.20206 -0.269538 2.2228e-25)
(4.18058 -0.279227 -9.7158e-19)
(4.15938 -0.288364 -9.45367e-19)
(4.13847 -0.296983 -1.83962e-18)
(4.11786 -0.305118 8.9487e-19)
(4.09756 -0.312802 -4.07667e-25)
(4.07749 -0.320059 -8.46666e-19)
(4.05752 -0.326898 0)
(4.03753 -0.333337 8.00438e-19)
(4.01748 -0.339401 0)
(3.99747 -0.345115 -1.51148e-18)
(3.97758 -0.350506 3.57288e-25)
(3.95784 -0.355597 7.11994e-19)
(3.93839 -0.360425 6.90332e-19)
(3.91903 -0.364988 -6.37714e-25)
(3.89995 -0.369316 3.16072e-25)
(3.88092 -0.373406 6.25471e-19)
(3.8621 -0.377288 6.03692e-19)
(3.84327 -0.380957 -2.85043e-25)
(3.82461 -0.38443 -1.11891e-18)
(3.80592 -0.387713 -5.36872e-19)
(3.78732 -0.390824 5.13849e-19)
(3.76865 -0.39375 4.90295e-19)
(3.7501 -0.39652 -4.66125e-19)
(3.73147 -0.399124 8.82511e-19)
(3.71289 -0.401582 1.89579e-25)
(3.69429 -0.40389 -1.94032e-25)
(3.67565 -0.406053 0)
(3.65701 -0.408076 0)
(3.63834 -0.409966 0)
(3.61962 -0.411719 -1.35287e-19)
(3.60089 -0.413342 -1.33027e-25)
(3.58215 -0.414837 -8.63495e-26)
(3.56339 -0.416209 8.88864e-26)
(3.5446 -0.417462 1.26079e-19)
(3.52578 -0.418591 4.22652e-20)
(3.50696 -0.419605 -2.01841e-20)
(3.48813 -0.420496 -2.30361e-26)
(3.46931 -0.42128 -2.83813e-20)
(3.45044 -0.421942 -5.51408e-20)
(3.43161 -0.4225 -6.73993e-26)
(3.41278 -0.422946 0)
(3.39399 -0.423288 0)
(3.37523 -0.423524 0)
(3.3565 -0.423655 -1.14279e-25)
(3.33783 -0.423689 2.61332e-19)
(3.31924 -0.423627 4.60593e-25)
(3.30072 -0.423472 -3.20354e-25)
(3.28231 -0.423231 0)
(3.26396 -0.422896 -4.5564e-25)
(3.24582 -0.422494 -1.29671e-19)
(3.22772 -0.421997 5.75536e-25)
(3.20988 -0.421443 -1.63276e-19)
(3.19216 -0.420809 0)
(3.17466 -0.420114 -1.33854e-25)
(3.15739 -0.419361 0)
(3.14037 -0.418556 0)
(3.12361 -0.417706 0)
(3.10715 -0.416812 0)
(3.09101 -0.415884 0)
(3.07519 -0.414923 1.84074e-19)
(3.05978 -0.413956 2.02322e-19)
(3.04463 -0.412953 -5.7569e-26)
(3.02991 -0.411933 1.83048e-24)
(3.01578 -0.410911 -7.49934e-26)
(3.00233 -0.409922 -1.46385e-19)
(2.9892 -0.408977 -1.60242e-19)
(2.97603 -0.408028 -1.75323e-19)
(2.963 -0.406999 -1.91751e-19)
(2.95155 -0.405958 0)
(2.94304 -0.405117 1.1445e-19)
(2.93697 -0.404713 -3.84634e-24)
(2.92946 -0.40461 1.35969e-19)
(2.91756 -0.404333 8.30327e-26)
(2.90056 -0.403342 1.61316e-19)
(2.88813 -0.401639 -8.79249e-20)
(2.89073 -0.400619 5.87772e-24)
(2.91281 -0.40113 -1.26334e-23)
(2.95416 -0.404861 1.3613e-23)
(2.98824 -0.411378 2.39326e-19)
(2.99248 -0.41747 -7.9377e-24)
(2.96723 -0.422336 -6.88691e-20)
(2.89734 -0.422245 -7.41643e-20)
(2.81998 -0.414912 8.04532e-20)
(2.81418 -0.409113 1.74164e-19)
(2.91043 -0.409905 9.32792e-20)
(3.12029 -0.418555 -4.92466e-20)
(3.52179 -0.443427 -5.09228e-20)
(4.23041 -0.545111 -5.0773e-20)
(4.07462 -0.749982 1.51001e-23)
(2.14631 -0.623334 -1.03025e-19)
(-0.537127 0.312419 8.68705e-23)
(-1.22026 0.905955 7.8025e-23)
(-0.0507177 0.0320042 -7.60849e-23)
(-0.337575 0.665237 0)
(-0.946018 3.30549 0)
(-0.198695 2.40785 2.51128e-20)
(-0.325505 -2.7787 1.36484e-20)
(-1.27346 -4.46759 4.66471e-23)
(-0.647001 -1.28576 0)
(-0.167617 -0.149805 -3.51229e-19)
(-1.60407 -1.18541 -3.23504e-19)
(-0.545867 -0.372615 0)
(3.38307 0.948418 1.11756e-19)
(6.02433 1.09414 -5.11018e-20)
(6.18168 0.800946 -5.58021e-20)
(5.23229 0.665883 -2.66764e-23)
(4.68395 0.631964 -5.45652e-20)
(4.39807 0.621106 -1.03637e-19)
(4.27064 0.621269 9.68936e-20)
(4.28479 0.629983 -3.02246e-25)
(4.39309 0.639536 0)
(4.48786 0.638386 7.6678e-20)
(4.52003 0.630536 -7.14637e-20)
(4.50991 0.621061 1.33433e-19)
(4.45929 0.611456 -1.24596e-19)
(4.40022 0.606213 1.40357e-23)
(4.36858 0.605531 -1.95914e-25)
(4.36441 0.606932 -9.83762e-20)
(4.38093 0.609136 1.8058e-19)
(4.40326 0.610176 0)
(4.41827 0.610215 0)
(4.42708 0.610042 0)
(4.434 0.610341 -1.28489e-19)
(4.4443 0.611253 7.1072e-24)
(4.45873 0.612427 -6.66033e-24)
(4.47517 0.613541 5.94879e-24)
(4.49183 0.61454 1.80539e-19)
(4.50831 0.615518 0)
(4.52526 0.616562 -3.01761e-19)
(4.54315 0.617645 2.75567e-19)
(4.56189 0.618725 3.90123e-24)
(4.58114 0.619753 0)
(4.60096 0.620772 0)
(4.62118 0.621739 0)
(4.64201 0.622687 0)
(4.66329 0.623578 -2.342e-24)
(4.68503 0.624413 4.34067e-24)
(4.70718 0.625183 2.57242e-19)
(4.72973 0.625884 2.08452e-25)
(4.7527 0.626512 0)
(4.77585 0.627026 -1.8782e-19)
(4.79949 0.62748 0)
(4.82321 0.627796 -1.49884e-19)
(4.84739 0.628041 -2.66035e-19)
(4.87156 0.628134 2.34799e-19)
(4.89608 0.628136 0)
(4.92075 0.62801 1.78996e-19)
(4.9456 0.627758 1.54066e-19)
(4.9706 0.627372 -1.30907e-19)
(4.99573 0.626849 0)
(5.02096 0.626187 8.93336e-20)
(5.0463 0.625374 -7.06605e-20)
(5.07177 0.624425 1.06464e-19)
(5.09725 0.623309 -7.39026e-20)
(5.12297 0.622071 -4.34487e-20)