/*--------------------------------*- C++ -*----------------------------------*\
| =========                 |                                                 |
| \\      /  F ield         | OpenFOAM: The Open Source CFD Toolbox           |
|  \\    /   O peration     | Version:  2412                                  |
|   \\  /    A nd           | Website:  www.openfoam.com                      |
|    \\/     M anipulation  |                                                 |
\*---------------------------------------------------------------------------*/
FoamFile
{
    version     2.0;
    format      ascii;
    arch        "LSB;label=32;scalar=64";
    class       volVectorField;
    location    "80";
    object      U;
}
// * * * * * * * * * * * * * * * * * * * * * * * * * * * * * * * * * * * * * //

dimensions      [0 1 -1 0 0 0 0];

internalField   nonuniform List<vector> 
32591
(
(-0.0450476 -0.718487 -3.55914e-24)
(-0.305904 -1.30559 2.13495e-22)
(-0.173748 -0.375265 -1.99638e-22)
(0.193329 0.265569 0)
(-0.232032 -0.188692 -2.01183e-19)
(-0.700225 -0.444964 1.68412e-19)
(-0.103076 -0.0485697 0)
(0.964726 0.245126 -5.92285e-23)
(1.57709 0.253984 -5.75977e-20)
(1.49374 0.182817 5.54369e-23)
(1.20269 0.152174 0)
(1.08029 0.146079 0)
(1.00541 0.142777 0)
(0.981906 0.143639 0)
(1.00317 0.147678 8.45507e-20)
(1.04573 0.151079 7.7271e-20)
(1.07278 0.151135 7.1192e-20)
(1.08213 0.149647 0)
(1.07587 0.147407 2.95526e-23)
(1.05945 0.145479 2.25298e-19)
(1.04802 0.145014 -2.50576e-23)
(1.0463 0.145489 4.77286e-25)
(1.05133 0.146385 3.46081e-19)
(1.06392 0.147604 3.09733e-25)
(1.07028 0.147826 1.74964e-23)
(1.07425 0.148018 -1.32462e-19)
(1.07748 0.148312 0)
(1.08181 0.148771 2.21353e-19)
(1.08729 0.149299 0)
(1.09322 0.1498 -1.11167e-23)
(1.09901 0.150262 1.04297e-23)
(1.10476 0.150722 0)
(1.11067 0.151195 5.60852e-19)
(1.11681 0.151669 1.56069e-23)
(1.12311 0.152135 -1.42182e-23)
(1.12953 0.152588 -2.11993e-19)
(1.13603 0.153028 -5.77202e-24)
(1.14265 0.153456 1.75234e-19)
(1.14936 0.153867 -3.18082e-19)
(1.15617 0.154259 -2.88296e-19)
(1.16304 0.15463 1.0652e-25)
(1.16998 0.154977 -2.35605e-19)
(1.177 0.155301 2.12308e-19)
(1.18407 0.155597 -2.82532e-24)
(1.19117 0.155863 1.70957e-19)
(1.19831 0.156099 -2.24864e-24)
(1.20548 0.156301 2.71263e-19)
(1.21267 0.15647 -2.39839e-19)
(1.21988 0.156604 4.21456e-19)
(1.22709 0.156699 1.83726e-19)
(1.23432 0.15676 1.5866e-19)
(1.24155 0.15678 9.68652e-25)
(1.24876 0.156759 1.13717e-19)
(1.25598 0.1567 0)
(1.26317 0.156595 5.12591e-25)
(1.27036 0.156447 -4.94505e-25)
(1.27752 0.156258 8.17057e-20)
(1.28467 0.156022 5.10584e-20)
(1.29176 0.155742 -2.23417e-20)
(1.29884 0.155416 3.32794e-26)
(1.3059 0.155045 -5.32944e-26)
(1.31294 0.154627 4.08931e-25)
(1.31993 0.154159 -5.80539e-25)
(1.32687 0.153642 9.75056e-20)
(1.33378 0.153079 -4.91762e-25)
(1.34066 0.152465 4.78634e-25)
(1.34751 0.151798 0)
(1.35432 0.151082 0)
(1.36111 0.150313 7.59645e-25)
(1.36788 0.14949 -4.09487e-19)
(1.37462 0.148613 0)
(1.38137 0.147682 0)
(1.38787 0.146637 -4.98234e-19)
(1.38671 0.144801 5.26261e-19)
(1.40142 0.144526 5.52837e-19)
(1.40031 0.142527 5.79823e-19)
(1.40707 0.141331 0)
(1.41383 0.140032 0)
(1.42064 0.138668 -6.5615e-19)
(1.42752 0.137228 6.81047e-19)
(1.43446 0.13571 7.05796e-19)
(1.44147 0.13411 0)
(1.44856 0.132421 0)
(1.45574 0.13064 -7.79868e-19)
(1.46302 0.128761 0)
(1.4704 0.126774 8.29854e-19)
(1.47788 0.124674 -8.55233e-19)
(1.48547 0.12245 -8.80934e-19)
(1.49318 0.120099 9.07038e-19)
(1.50102 0.117611 9.33613e-19)
(1.50899 0.114971 7.96108e-25)
(1.51708 0.112176 9.88337e-19)
(1.52528 0.10921 -2.03325e-18)
(1.53362 0.106065 -3.37576e-26)
(1.54208 0.102725 1.0753e-18)
(1.55067 0.0991793 -1.10578e-18)
(1.55936 0.095415 -2.27418e-18)
(1.56814 0.0914192 1.16932e-18)
(1.57702 0.0871731 1.20245e-18)
(1.58602 0.0826681 1.23657e-18)
(1.59511 0.0778879 -1.27172e-18)
(1.60429 0.0728121 6.53971e-19)
(1.61353 0.0674288 6.72644e-19)
(1.62284 0.0617175 -6.91897e-19)
(1.63219 0.0556641 -7.11755e-19)
(1.6416 0.0492487 -7.32241e-19)
(1.65104 0.0424541 7.53374e-19)
(1.66052 0.0352592 -8.74769e-27)
(1.67003 0.0276463 -3.98835e-19)
(1.67958 0.0195911 -1.97871e-25)
(1.68911 0.0110752 9.74789e-26)
(1.69855 0.00206988 -2.71722e-20)
(1.70783 -0.00744101 -2.15477e-25)
(1.71693 -0.0174827 -4.15183e-27)
(1.72579 -0.0280839 2.24057e-25)
(1.7344 -0.0392647 0)
(1.74269 -0.0510552 0)
(1.75059 -0.0634819 1.88731e-25)
(1.75802 -0.0765714 1.06541e-18)
(1.76497 -0.0903621 1.09685e-18)
(1.77138 -0.104882 2.14029e-24)
(1.77678 -0.120099 -2.32459e-18)
(1.80015 -0.137591 -4.77763e-18)
(1.80471 -0.154795 -2.45877e-18)
(1.80852 -0.172877 2.52996e-18)
(1.81159 -0.191972 4.97578e-24)
(1.81389 -0.212159 -5.0924e-24)
(1.81533 -0.233541 0)
(1.81598 -0.25625 6.30971e-24)
(1.81592 -0.280446 -2.89941e-18)
(1.81494 -0.306304 0)
(1.81222 -0.333963 3.26677e-24)
(1.79214 -0.360402 0)
(1.79025 -0.392885 -3.16939e-18)
(1.79047 -0.429159 6.42871e-18)
(1.81799 -0.476735 -3.2333e-18)
(1.83957 -0.529059 1.1994e-23)
(1.87348 -0.592783 3.18733e-18)
(1.90945 -0.667591 -3.10361e-18)
(1.9292 -0.749739 2.95981e-18)
(1.91983 -0.835855 -5.44319e-18)
(1.88474 -0.929008 2.33866e-18)
(1.84024 -1.04176 -2.45239e-23)
(1.79248 -1.18871 -1.04319e-25)
(1.74076 -1.39142 1.44046e-23)
(1.62878 -1.63961 3.05802e-18)
(1.36222 -1.85209 2.53005e-23)
(0.840345 -1.74941 -5.59886e-18)
(0.257414 -1.09232 8.45504e-23)
(0.00659938 0.0184601 -6.73345e-23)
(0.265153 1.12584 8.4146e-23)
(0.852995 1.77584 5.54349e-18)
(1.37489 1.86933 -1.5864e-22)
(1.64207 1.65294 -2.9422e-18)
(1.75474 1.40266 1.27189e-23)
(1.8162 1.20435 6.80696e-25)
(1.84175 1.04247 1.89044e-23)
(1.88263 0.928037 -2.41387e-18)
(1.92884 0.839862 2.7801e-18)
(1.92573 0.748395 -3.00715e-18)
(1.88104 0.657671 3.14812e-18)
(1.81776 0.575163 -3.23589e-18)
(1.76611 0.507941 1.21833e-23)
(1.73804 0.455779 3.28521e-18)
(1.71212 0.410385 -6.52646e-18)
(1.7131 0.375954 3.21514e-18)
(1.71603 0.345093 0)
(1.73493 0.319719 -2.97876e-24)
(1.73917 0.293518 3.01038e-18)
(1.74248 0.269104 -2.93583e-18)
(1.74577 0.246343 4.64621e-24)
(1.74892 0.224998 0)
(1.75154 0.204867 -5.15279e-24)
(1.75342 0.185808 5.03473e-24)
(1.75449 0.167712 2.4309e-24)
(1.75466 0.150502 2.48656e-18)
(1.7539 0.134058 2.4155e-18)
(1.73539 0.117303 -2.25311e-24)
(1.73348 0.102638 2.16345e-24)
(1.73044 0.0885941 -3.17844e-24)
(1.72675 0.0752091 -1.07685e-18)
(1.72244 0.062461 -1.70662e-25)
(1.71755 0.0503182 0)
(1.71217 0.0387613 0)
(1.70635 0.0277673 2.26467e-25)
(1.70015 0.0173117 -4.18565e-27)
(1.69361 0.00737865 -2.17805e-25)
(1.68676 -0.00205573 2.74687e-20)
(1.67964 -0.0110133 9.85656e-26)
(1.67233 -0.0195066 -2.00057e-25)
(1.66488 -0.0275613 3.80235e-25)
(1.65736 -0.0351923 -8.79337e-27)
(1.64976 -0.0424213 -7.62043e-19)
(1.6421 -0.0492637 7.40792e-19)
(1.63438 -0.0557389 7.20202e-19)
(1.62665 -0.0618625 7.00251e-19)
(1.61887 -0.0676522 -6.80915e-19)
(1.61109 -0.0731206 -6.6217e-19)
(1.60328 -0.0782869 1.288e-18)
(1.59551 -0.0831631 -1.25275e-18)
(1.58778 -0.0877678 -1.21855e-18)
(1.58011 -0.0921172 -1.18537e-18)
(1.57252 -0.0962208 2.3062e-18)
(1.56506 -0.100099 1.12176e-18)
(1.55767 -0.103764 -1.09126e-18)
(1.55042 -0.107226 -3.38505e-26)
(1.54325 -0.110497 2.06514e-18)
(1.53622 -0.113591 -1.00429e-18)
(1.52927 -0.116517 1.01056e-24)
(1.52243 -0.119289 -9.49618e-19)
(1.51564 -0.121906 -9.23073e-19)
(1.50893 -0.124384 8.97022e-19)
(1.50228 -0.126733 8.71379e-19)
(1.49567 -0.128953 -8.46078e-19)
(1.48909 -0.131055 0)
(1.48253 -0.133045 7.96284e-19)
(1.476 -0.134929 0)
(1.46947 -0.136716 0)
(1.46295 -0.138406 -7.22636e-19)
(1.45643 -0.140007 -6.98068e-19)
(1.4499 -0.141524 6.73374e-19)
(1.44334 -0.142926 0)
(1.4453 -0.145134 0)
(1.43903 -0.146497 5.5164e-25)
(1.43232 -0.147714 -5.70998e-19)
(1.42558 -0.148861 -5.44323e-19)
(1.41885 -0.149945 5.16952e-19)
(1.4121 -0.150969 0)
(1.40534 -0.151934 0)
(1.39855 -0.152843 4.29527e-19)
(1.39173 -0.153694 7.9876e-25)
(1.38487 -0.154489 0)
(1.37797 -0.15523 0)
(1.37105 -0.15592 5.20536e-25)
(1.36408 -0.156556 -5.34814e-25)
(1.35708 -0.157141 -1.09065e-19)
(1.35004 -0.157677 -6.71012e-25)
(1.34295 -0.158162 -6.59485e-20)
(1.3358 -0.158595 -3.22102e-25)
(1.32862 -0.158979 -1.55165e-26)
(1.32141 -0.159317 9.16879e-21)
(1.31415 -0.159602 -3.75321e-20)
(1.30684 -0.159844 -6.78153e-20)
(1.29947 -0.160031 1.00209e-19)
(1.29208 -0.160179 -1.34904e-19)
(1.28463 -0.160274 0)
(1.27714 -0.160322 -1.06028e-19)
(1.26963 -0.160327 9.08131e-25)
(1.26207 -0.160285 1.50609e-19)
(1.25449 -0.160197 0)
(1.24689 -0.16007 -2.02353e-19)
(1.23924 -0.159898 1.68986e-24)
(1.23159 -0.159687 -2.62621e-19)
(1.22391 -0.159433 -2.18087e-24)
(1.21625 -0.159145 -1.6655e-19)
(1.20857 -0.158817 -2.75645e-24)
(1.20089 -0.158453 -2.07895e-19)
(1.19323 -0.158056 2.31221e-19)
(1.18561 -0.157629 -1.18619e-25)
(1.17801 -0.157174 2.84051e-19)
(1.17046 -0.15669 3.13953e-19)
(1.16296 -0.156185 -1.73234e-19)
(1.15554 -0.155655 -5.71108e-24)
(1.14819 -0.155109 2.1022e-19)
(1.14092 -0.154547 -1.41173e-23)
(1.13374 -0.153969 1.55153e-23)
(1.12671 -0.153378 -5.582e-19)
(1.11991 -0.152789 0)
(1.11328 -0.152211 1.0406e-23)
(1.1066 -0.151633 -1.10915e-23)
(1.09982 -0.151019 0)
(1.09352 -0.150381 -2.21306e-19)
(1.08841 -0.149816 0)
(1.08444 -0.149421 1.32587e-19)
(1.0798 -0.149139 1.4495e-19)
(1.07294 -0.148738 1.12862e-25)
(1.06374 -0.147971 -3.46729e-19)
(1.05744 -0.147004 4.57979e-25)
(1.0585 -0.146462 -2.51266e-23)
(1.06947 -0.146863 -2.2607e-19)
(1.08548 -0.148736 2.99041e-23)
(1.09142 -0.150941 0)
(1.08201 -0.152436 -7.1392e-20)
(1.05526 -0.152445 -7.75157e-20)
(1.01323 -0.149142 -8.45711e-20)
(0.992634 -0.145206 0)
(1.01656 -0.144402 0)
(1.0914 -0.147672 0)
(1.21425 -0.153835 0)
(1.50374 -0.184362 5.47328e-23)
(1.58864 -0.256181 1.13356e-19)
(0.990022 -0.252388 -5.80556e-23)
(-0.068591 0.0357962 0)
(-0.585852 0.368572 -1.65284e-19)
(-0.117661 0.0846846 3.86888e-19)
(0.182234 -0.246821 0)
(-0.196433 0.425526 -1.85752e-22)
(-0.335416 1.4568 1.98354e-22)
(-0.0538846 0.992735 -3.77278e-24)
(-0.195598 -1.62727 -1.13301e-23)
(-0.790844 -3.3422 -3.36264e-22)
(-0.590335 -1.37783 3.12889e-22)
(0.345227 0.461784 0)
(-0.647998 -0.503988 1.24453e-22)
(-1.68202 -1.07648 -5.25488e-19)
(0.183995 0.00702902 -2.06631e-22)
(3.14307 0.757864 8.19147e-24)
(4.63094 0.733494 1.72073e-22)
(4.36865 0.543747 -9.20673e-23)
(3.64855 0.470961 8.72603e-23)
(3.33384 0.455426 0)
(3.14572 0.449022 -1.60979e-19)
(3.09365 0.45263 0)
(3.15534 0.463184 -2.69794e-19)
(3.26633 0.470573 -1.2346e-19)
(3.33515 0.469229 -5.59231e-23)
(3.3564 0.464116 0)
(3.33718 0.457596 -2.2005e-25)
(3.29398 0.452727 -1.8093e-19)
(3.26543 0.45199 1.6641e-19)
(3.2631 0.45354 3.79218e-23)
(3.27871 0.455627 -2.79049e-19)
(3.32207 0.460115 5.07296e-19)
(3.34012 0.461226 5.67059e-25)
(3.3521 0.461812 2.62112e-23)
(3.36236 0.462758 -1.9445e-19)
(3.37574 0.464157 3.55509e-19)
(3.39223 0.465712 0)
(3.40992 0.467166 2.96625e-19)
(3.42732 0.468525 2.70929e-19)
(3.4447 0.469889 -4.50237e-25)
(3.46258 0.471292 -4.51204e-19)
(3.4812 0.472703 -1.2768e-23)
(3.50032 0.474083 -3.74865e-19)
(3.51981 0.475429 3.41333e-19)
(3.53961 0.476739 0)
(3.55977 0.478015 0)
(3.58026 0.479239 5.12298e-19)
(3.60106 0.480411 0)
(3.6221 0.481517 -4.20173e-19)
(3.64336 0.482554 3.79469e-19)
(3.66486 0.48352 -1.04402e-23)
(3.68654 0.484402 3.07272e-19)
(3.70837 0.485195 -2.75259e-19)
(3.73033 0.485893 -3.88288e-24)
(3.7524 0.486495 -4.36655e-19)
(3.7745 0.486985 3.06921e-24)
(3.7967 0.487371 -3.3909e-19)
(3.81892 0.487644 5.34176e-25)
(3.8412 0.487806 5.07703e-25)
(3.86349 0.487845 2.17691e-19)
(3.88575 0.487757 1.82815e-19)
(3.90801 0.487546 0)
(3.93019 0.487196 -8.23262e-25)
(3.95238 0.48672 1.40525e-24)
(3.97447 0.486104 -1.31074e-19)
(3.99653 0.485356 -2.27581e-25)
(4.01844 0.484461 3.55957e-20)
(4.04031 0.483431 0)
(4.06212 0.482259 5.8217e-25)
(4.08384 0.480938 8.67551e-20)
(4.10542 0.479466 5.41496e-25)
(4.12688 0.477846 -1.56998e-19)
(4.14824 0.476077 7.91317e-25)
(4.16951 0.47415 -7.70129e-25)
(4.19067 0.472065 -1.01636e-24)
(4.21172 0.46982 9.90757e-25)
(4.23271 0.467417 -6.07166e-19)
(4.25362 0.464846 1.31632e-18)
(4.27448 0.462108 -1.22556e-25)
(4.29534 0.459203 -7.54529e-19)
(4.31523 0.456088 -1.46749e-24)
(4.29487 0.448461 0)
(4.35715 0.449334 -1.77582e-18)
(4.33623 0.441493 -1.88414e-18)
(4.35696 0.437609 1.93165e-24)
(4.37766 0.433572 1.02451e-18)
(4.39855 0.429323 -1.97608e-24)
(4.41964 0.424844 -1.10567e-18)
(4.44091 0.420128 1.14581e-18)
(4.46243 0.415154 -2.20719e-24)
(4.48417 0.409907 1.22584e-18)
(4.50618 0.404374 0)
(4.5285 0.398536 0)
(4.55113 0.39237 -1.34702e-18)
(4.57408 0.38585 1.38818e-18)
(4.59735 0.378952 0)
(4.62099 0.371658 -1.47219e-18)
(4.64505 0.36394 0)
(4.66949 0.355757 -1.55917e-18)
(4.69429 0.347087 -7.72299e-25)
(4.71946 0.337896 1.64984e-18)
(4.74501 0.328145 1.69681e-18)
(4.77095 0.317796 -1.74495e-18)
(4.79729 0.306812 1.79434e-18)
(4.82392 0.295151 1.84508e-18)
(4.85085 0.282774 -1.8973e-18)
(4.87807 0.269626 1.83267e-24)
(4.90565 0.255678 -2.00624e-18)
(4.93351 0.240876 2.06317e-18)
(4.96162 0.225165 -1.06091e-18)
(4.98991 0.208505 1.05481e-24)
(5.01843 0.190833 1.12232e-18)
(5.04707 0.172102 0)
(5.07586 0.152255 7.62913e-25)
(5.10473 0.131235 -1.22183e-18)
(5.13373 0.108987 0)
(5.16281 0.0854414 4.47001e-25)
(5.192 0.0605379 3.20844e-25)
(5.2211 0.0342054 -3.23072e-25)
(5.24994 0.00637437 8.81052e-20)
(5.27825 -0.0230207 1.8136e-19)
(5.30601 -0.0540557 -3.66117e-25)
(5.33302 -0.0868124 7.26321e-25)
(5.35923 -0.121355 0)
(5.38441 -0.157775 0)
(5.4084 -0.196154 1.67683e-18)
(5.43094 -0.236577 -1.72619e-18)
(5.45195 -0.279155 -1.77694e-18)
(5.4714 -0.323991 3.46694e-24)
(5.48814 -0.371258 0)
(5.59065 -0.42763 3.78928e-18)
(5.60444 -0.480745 3.90037e-18)
(5.61584 -0.536858 -8.02465e-18)
(5.62486 -0.596098 0)
(5.63141 -0.658713 0)
(5.63527 -0.725017 0)
(5.63661 -0.795415 8.95276e-18)
(5.63556 -0.870386 -4.59326e-18)
(5.63144 -0.950452 0)
(5.62145 -1.03562 4.13328e-23)
(5.52681 -1.11115 -1.90591e-23)
(5.5194 -1.21134 3.90361e-23)
(5.51877 -1.32328 -1.03882e-17)
(5.63197 -1.47741 5.11052e-18)
(5.69542 -1.63818 1.89467e-23)
(5.79555 -1.83397 -5.02987e-18)
(5.8993 -2.06278 9.7886e-18)
(5.94925 -2.31224 0)
(5.90556 -2.57131 4.30002e-18)
(5.77813 -2.84815 -7.40664e-18)
(5.61278 -3.1771 -2.76008e-18)
(5.41027 -3.58767 0)
(5.21505 -4.16846 0)
(4.81446 -4.84454 -9.79312e-18)
(3.95835 -5.3775 -1.05098e-17)
(2.40238 -4.99729 -1.12383e-22)
(0.726886 -3.08948 -1.26983e-17)
(0.0162821 0.0523484 1.08688e-22)
(0.748877 3.18477 1.26474e-17)
(2.43902 5.07381 -1.10941e-22)
(3.99632 5.42912 1.03157e-17)
(4.85487 4.88512 9.43599e-18)
(5.2585 4.20303 0)
(5.49636 3.64491 0)
(5.5991 3.16968 2.93937e-18)
(5.74803 2.83314 7.78958e-18)
(5.93438 2.5837 -8.77899e-18)
(5.94059 2.30894 0)
(5.81386 2.03302 -9.92858e-18)
(5.62528 1.78019 5.10746e-18)
(5.46981 1.57335 1.92613e-23)
(5.38596 1.41289 -5.19952e-18)
(5.27985 1.26599 1.05443e-17)
(5.28428 1.15974 3.95984e-23)
(5.29478 1.06451 -1.93277e-23)
(5.38324 0.991741 -3.8023e-23)
(5.39767 0.910992 -4.77644e-18)
(5.40881 0.83536 4.65883e-18)
(5.41967 0.764793 -9.07802e-18)
(5.42993 0.698589 0)
(5.43852 0.636141 0)
(5.44477 0.577004 4.18093e-18)
(5.44845 0.520847 0)
(5.44929 0.467427 -3.9497e-18)
(5.44718 0.416645 -3.83641e-18)
(5.36122 0.36266 0)
(5.35516 0.317101 3.50465e-24)
(5.34597 0.273722 -4.52732e-26)
(5.33487 0.232386 1.74481e-18)
(5.32184 0.193008 -1.69488e-18)
(5.30701 0.155501 0)
(5.29069 0.119797 0)
(5.27298 0.0858299 7.34178e-25)
(5.2541 0.0535218 -3.70052e-25)
(5.23414 0.0228234 -1.83337e-19)
(5.21324 -0.00633458 -8.90722e-20)
(5.19148 -0.0340158 -3.26666e-25)
(5.16915 -0.0602758 3.24411e-25)
(5.14638 -0.0851735 6.54055e-19)
(5.12337 -0.108771 0)
(5.1001 -0.131119 1.236e-18)
(5.07667 -0.152283 -7.40656e-25)
(5.05305 -0.172309 0)
(5.02937 -0.191252 -1.13602e-18)
(5.00554 -0.209161 1.06779e-24)
(4.98169 -0.226079 1.07437e-18)
(4.95778 -0.242064 -4.17982e-18)
(4.93397 -0.257156 1.96689e-24)
(4.91026 -0.271408 1.85786e-24)
(4.88675 -0.28487 1.92369e-18)
(4.86348 -0.297574 -1.87143e-18)
(4.84058 -0.309583 -1.82066e-18)
(4.81795 -0.320929 1.77125e-18)
(4.79569 -0.331652 -1.7231e-18)
(4.77373 -0.341784 -1.67616e-18)
(4.75215 -0.351368 8.66155e-25)
(4.73084 -0.360434 1.58555e-18)
(4.70985 -0.36902 0)
(4.68902 -0.377132 1.49869e-18)
(4.66846 -0.384817 0)
(4.64807 -0.392094 -1.41489e-18)
(4.6278 -0.398983 1.37387e-18)
(4.60763 -0.405502 0)
(4.58753 -0.411677 0)
(4.5675 -0.417527 -1.25322e-18)
(4.5475 -0.423071 -2.25974e-24)
(4.5275 -0.428321 -1.17369e-18)
(4.50752 -0.433293 1.13385e-18)
(4.48754 -0.438009 -2.03119e-24)
(4.46743 -0.442533 -1.05426e-18)
(4.49208 -0.451254 1.96428e-24)
(4.47295 -0.455348 0)
(4.45223 -0.459138 1.83396e-18)
(4.43139 -0.462714 8.74284e-19)
(4.41058 -0.466096 -1.5243e-24)
(4.3897 -0.46929 7.85339e-19)
(4.36879 -0.472303 -1.22586e-25)
(4.34779 -0.475138 -1.38073e-18)
(4.3267 -0.477796 6.40085e-19)
(4.30551 -0.480283 1.05494e-24)
(4.28423 -0.482604 -1.0822e-24)
(4.26283 -0.484763 -8.37388e-25)
(4.24132 -0.48676 8.60425e-25)
(4.21971 -0.488595 1.75537e-19)
(4.19799 -0.490277 6.14147e-25)
(4.17612 -0.491805 -1.0625e-19)
(4.15409 -0.493177 -6.10313e-25)
(4.13193 -0.494394 0)
(4.10968 -0.495462 -1.45441e-20)
(4.08731 -0.496379 -1.44877e-25)
(4.06481 -0.497154 1.08905e-19)
(4.04211 -0.497768 1.23178e-24)
(4.01937 -0.498252 2.16888e-19)
(3.99645 -0.498578 0)
(3.97343 -0.498763 -1.40525e-24)
(3.95033 -0.49881 -2.05122e-19)
(3.92711 -0.498716 -2.42339e-19)
(3.90382 -0.498484 0)
(3.88048 -0.498125 0)
(3.85705 -0.497635 -3.72312e-19)
(3.83363 -0.497025 4.22715e-19)
(3.8101 -0.496282 -3.77668e-24)
(3.78664 -0.495434 2.68097e-19)
(3.76313 -0.494463 -3.00021e-19)
(3.73968 -0.493387 -1.0218e-23)
(3.7163 -0.492211 -3.72146e-19)
(3.69304 -0.490944 4.12873e-19)
(3.6699 -0.48959 0)
(3.64688 -0.488152 -5.05129e-19)
(3.62411 -0.486647 0)
(3.60154 -0.485073 0)
(3.57925 -0.48345 -3.37994e-19)
(3.5572 -0.481778 3.71644e-19)
(3.53546 -0.480062 -1.26787e-23)
(3.51419 -0.478306 4.48259e-19)
(3.49364 -0.476552 -4.59921e-25)
(3.47359 -0.474838 -2.69541e-19)
(3.45356 -0.473133 -2.95412e-19)
(3.43332 -0.47134 0)
(3.41438 -0.469457 -3.54427e-19)
(3.39866 -0.467741 2.34035e-23)
(3.38621 -0.466497 2.61473e-23)
(3.37235 -0.465667 5.52777e-25)
(3.35281 -0.464623 -5.05662e-19)
(3.32695 -0.462627 2.76281e-19)
(3.30817 -0.459843 3.66287e-23)
(3.30865 -0.457958 -1.64964e-19)
(3.33578 -0.458441 1.79338e-19)
(3.37768 -0.463116 6.08007e-25)
(3.39582 -0.469549 0)
(3.37416 -0.474733 -5.52666e-23)
(3.30592 -0.476335 1.22054e-19)
(3.19614 -0.469253 2.66014e-19)
(3.13604 -0.458872 0)
(3.18889 -0.455118 0)
(3.37635 -0.461066 0)
(3.69109 -0.476007 8.48911e-23)
(4.40671 -0.547975 -8.95741e-23)
(4.6674 -0.739531 -8.56181e-20)
(3.20343 -0.775776 5.77937e-24)
(0.272997 -0.0442768 -1.96642e-22)
(-1.41298 0.896651 5.14013e-19)
(-0.378055 0.266355 -1.17607e-22)
(0.320282 -0.412086 0)
(-0.643725 1.4948 2.86467e-22)
(-0.864454 3.72624 -3.05252e-22)
(-0.210538 2.28031 -2.44393e-20)
(-0.423987 -2.10028 -1.24305e-20)
(-1.17117 -4.8899 3.69668e-22)
(-1.04066 -2.57164 6.52604e-22)
(0.313479 0.395799 -6.97882e-22)
(-0.981244 -0.705067 3.27813e-19)
(-2.26674 -1.48097 5.61277e-19)
(1.03067 0.219571 -2.24642e-19)
(5.66042 1.30308 -1.82761e-19)
(7.68142 1.20054 1.86632e-22)
(7.24301 0.915218 -2.71312e-22)
(6.24156 0.817263 9.02525e-23)
(5.78631 0.795771 -9.01586e-20)
(5.52201 0.790332 1.69308e-19)
(5.45924 0.798533 -7.71186e-23)
(5.55826 0.814412 1.42698e-19)
(5.72046 0.822745 -6.44758e-23)
(5.81834 0.817977 -1.20948e-19)
(5.84462 0.808201 5.46901e-23)
(5.81229 0.797401 -2.0866e-19)
(5.74864 0.790517 -1.93351e-19)
(5.7089 0.790361 -1.78194e-19)
(5.70912 0.793489 3.27198e-19)
(5.73718 0.797231 0)
(5.82016 0.806001 -2.67097e-19)
(5.84907 0.807535 0)
(5.86914 0.808476 2.70869e-23)
(5.88725 0.810153 4.10584e-19)
(5.91034 0.81254 1.08777e-24)
(5.93816 0.815109 3.43335e-19)
(5.96781 0.817479 -3.13722e-19)
(5.99717 0.819716 -2.86659e-19)
(6.02666 0.82198 0)
(6.05705 0.824318 4.77784e-19)
(6.0887 0.826666 -4.35744e-19)
(6.12125 0.828961 3.97134e-19)
(6.15444 0.831199 -1.12456e-23)
(6.18824 0.833382 -3.29039e-19)
(6.22268 0.835507 -2.99054e-19)
(6.25772 0.837547 -5.42916e-19)
(6.29332 0.839497 4.92077e-19)
(6.32937 0.841338 0)
(6.36583 0.843061 -4.02065e-19)
(6.4027 0.844659 -5.37407e-24)
(6.4399 0.846114 -3.25475e-19)
(6.47738 0.847418 0)
(6.51508 0.848556 -3.833e-24)
(6.55301 0.849529 4.62267e-19)
(6.59098 0.850302 2.99038e-24)
(6.62913 0.850903 -5.47951e-24)
(6.66733 0.851306 -6.25364e-19)
(6.70562 0.851511 -8.95253e-25)
(6.74392 0.851506 -4.6029e-19)
(6.78218 0.851279 -6.34159e-25)
(6.82042 0.850835 0)
(6.85853 0.850152 -2.53727e-19)
(6.89665 0.849251 1.9337e-25)
(6.93459 0.8481 -1.38344e-19)
(6.97246 0.846724 -2.4012e-25)
(7.01009 0.845091 2.322e-25)
(7.04765 0.843227 -1.14746e-25)
(7.08507 0.841108 1.45399e-24)
(7.12232 0.838728 -9.1396e-20)
(7.15932 0.83609 0)
(7.19612 0.833197 1.65265e-19)
(7.23276 0.830041 6.85349e-25)
(7.26921 0.826611 9.53631e-25)
(7.30549 0.822908 -2.61977e-19)
(7.34157 0.818925 1.17817e-24)
(7.37752 0.814666 6.37852e-19)
(7.41334 0.810118 -6.91139e-19)
(7.44909 0.805282 7.4234e-19)
(7.48478 0.800149 7.9167e-19)
(7.51862 0.794595 0)
(7.46013 0.778944 0)
(7.59037 0.782731 2.5558e-24)
(7.52987 0.766587 1.02695e-18)
(7.56518 0.759816 -1.07174e-18)
(7.6005 0.752749 -1.11673e-18)
(7.63613 0.745301 2.15381e-24)
(7.67205 0.737463 -2.3583e-24)
(7.70831 0.729213 3.59833e-25)
(7.74498 0.720518 -2.52393e-24)
(7.78205 0.71135 3.10091e-24)
(7.81956 0.701684 -2.57191e-24)
(7.85758 0.691491 0)
(7.89614 0.680732 1.4674e-18)
(7.93524 0.669358 0)
(7.97488 0.657333 -1.55735e-18)
(8.01516 0.64462 2.99934e-24)
(8.05613 0.631171 0)
(8.09774 0.616922 0)
(8.13998 0.601829 -1.74625e-18)
(8.18282 0.585832 -1.79595e-18)
(8.22631 0.568868 -8.29573e-25)
(8.27045 0.55087 4.51253e-24)
(8.31525 0.531774 6.00849e-26)
(8.36055 0.51151 2.00739e-18)
(8.40634 0.490008 2.06391e-18)
(8.45262 0.467172 -1.99331e-24)
(8.49948 0.442955 4.3635e-18)
(8.54682 0.417262 2.24331e-18)
(8.59456 0.390002 0)
(8.64261 0.361101 0)
(8.69102 0.330457 1.2197e-18)
(8.73963 0.297982 -1.25441e-18)
(8.78845 0.263581 2.28609e-24)
(8.83737 0.227159 1.3271e-18)
(8.88651 0.18862 0)
(8.93579 0.147845 7.02196e-19)
(8.98521 0.10473 -6.81309e-25)
(9.03444 0.0591465 0)
(9.08319 0.0109905 -4.78e-20)
(9.13103 -0.0398666 -1.96746e-19)
(9.17788 -0.0935422 1.16207e-24)
(9.22343 -0.150183 -7.87592e-25)
(9.26758 -0.209899 0)
(9.30994 -0.272846 1.69717e-24)
(9.35023 -0.339159 -5.21121e-24)
(9.38801 -0.408997 3.54107e-24)
(9.42313 -0.482534 0)
(9.4557 -0.559965 -1.98071e-18)
(9.4848 -0.641596 -3.90682e-24)
(9.68565 -0.740845 3.64637e-24)
(9.7082 -0.832813 -3.95379e-18)
(9.72659 -0.929888 4.06507e-18)
(9.74087 -1.03235 4.17859e-18)
(9.75087 -1.14063 -3.11963e-26)
(9.7562 -1.25526 -1.68874e-26)
(9.75711 -1.37694 -4.52741e-18)
(9.75374 -1.50648 4.64416e-18)
(9.74492 -1.64477 4.75817e-18)
(9.72591 -1.79192 9.748e-18)
(9.53577 -1.9173 -5.43773e-18)
(9.5211 -2.08968 0)
(9.51933 -2.28254 5.60672e-18)
(9.73233 -2.55317 0)
(9.83477 -2.82912 1.90799e-23)
(9.99659 -3.1638 -5.70699e-23)
(10.1601 -3.55309 -4.91492e-18)
(10.2282 -3.97565 0)
(10.1346 -4.41288 4.34425e-18)
(9.89457 -4.8774 3.76866e-18)
(9.5768 -5.42121 2.83654e-18)
(9.1766 -6.08531 -1.34799e-18)
(8.76835 -7.00847 1.33747e-18)
(8.00678 -8.05478 5.23782e-18)
(6.48573 -8.80342 1.13229e-17)
(3.88368 -8.06157 -1.21761e-22)
(1.17027 -4.93795 1.38078e-17)
(0.0330432 0.08367 1.18329e-22)
(1.20551 5.09059 -1.37507e-17)
(3.94322 8.18593 -9.66064e-18)
(6.54896 8.88943 -1.11092e-17)
(8.07484 8.12317 -5.04434e-18)
(8.84204 7.06721 -1.15106e-18)
(9.31661 6.17835 1.43164e-18)
(9.55216 5.40761 -3.16654e-18)
(9.83672 4.8487 -8.38964e-18)
(10.1849 4.43471 3.66568e-22)
(10.2164 3.97134 0)
(10.0203 3.50456 4.98705e-18)
(9.71325 3.07444 -5.8094e-23)
(9.45616 2.72038 1.94716e-23)
(9.31815 2.44457 0)
(9.11564 2.18573 -5.69705e-18)
(9.12411 2.00254 0)
(9.14401 1.83853 5.51865e-18)
(9.32447 1.71796 -9.9492e-18)
(9.35069 1.57821 -1.8546e-23)
(9.37114 1.44736 -4.73523e-18)
(9.39082 1.32522 4.61448e-18)
(9.4093 1.21059 -1.80622e-26)
(9.42484 1.10245 -3.37803e-26)
(9.43631 1.00004 -8.50622e-18)
(9.44333 0.902776 -5.69132e-26)
(9.44545 0.810243 4.02012e-18)
(9.44251 0.722216 3.70568e-24)
(9.26926 0.626987 -3.95285e-24)
(9.25818 0.548244 2.00373e-18)
(9.24289 0.473282 0)
(9.22446 0.401851 3.58146e-24)
(9.20268 0.333786 -5.27035e-24)
(9.17781 0.268954 1.71633e-24)
(9.1504 0.207227 0)
(9.1206 0.148491 -7.96466e-25)
(9.08876 0.0926174 1.17513e-24)
(9.05506 0.0395189 1.98962e-19)
(9.01974 -0.0109287 4.83404e-20)
(8.98294 -0.0588234 0)
(8.94514 -0.104277 -6.89151e-25)
(8.90657 -0.147374 -7.10296e-19)
(8.86758 -0.18823 0)
(8.82813 -0.226933 -1.34273e-18)
(8.7884 -0.263591 -2.25575e-24)
(8.74835 -0.298289 1.2696e-18)
(8.70813 -0.331118 -1.2347e-18)
(8.66766 -0.362157 0)
(8.62715 -0.391489 1.16804e-18)
(8.58653 -0.41921 5.60399e-24)
(8.54607 -0.445391 -2.2107e-18)
(8.50576 -0.470117 -2.02069e-24)
(8.4658 -0.493482 -2.09257e-18)
(8.42622 -0.515536 -2.03598e-18)
(8.38725 -0.536387 6.02189e-26)
(8.34874 -0.556094 -7.93559e-25)
(8.31087 -0.574724 4.32406e-24)
(8.2735 -0.592332 1.82437e-18)
(8.23676 -0.608993 1.7747e-18)
(8.20049 -0.624758 0)
(8.16474 -0.639688 1.67855e-18)
(8.12929 -0.653806 3.05368e-24)
(8.09427 -0.667181 1.586e-18)
(8.05955 -0.679851 0)
(8.02503 -0.69185 -1.49631e-18)
(7.99068 -0.703211 0)
(7.95647 -0.713975 -2.62757e-24)
(7.92236 -0.724181 7.22629e-24)
(7.88829 -0.733855 -2.58079e-24)
(7.85422 -0.74302 4.3709e-24)
(7.82018 -0.751706 -2.41632e-24)
(7.78617 -0.759949 2.21321e-24)
(7.75191 -0.767824 1.14878e-18)
(7.81954 -0.785446 1.0462e-18)
(7.78703 -0.792692 -1.9719e-24)
(7.75166 -0.799365 -1.89135e-24)
(7.71602 -0.805659 -9.14913e-19)
(7.6804 -0.811614 -8.69409e-19)
(7.64468 -0.817242 -8.22525e-19)
(7.60889 -0.822557 -7.74004e-19)
(7.57295 -0.827561 7.23654e-19)
(7.53685 -0.83226 -6.71229e-19)
(7.50061 -0.836667 1.2435e-24)
(7.46417 -0.840784 2.79592e-19)
(7.42755 -0.844617 -2.49514e-19)
(7.39073 -0.848171 7.5645e-25)
(7.35373 -0.851446 -1.84443e-19)
(7.31653 -0.85445 0)
(7.27911 -0.857193 1.11724e-19)
(7.24141 -0.859668 -1.21329e-24)
(7.20348 -0.861872 -1.97119e-25)
(7.16537 -0.863812 1.47538e-25)
(7.12705 -0.865495 6.33688e-20)
(7.08854 -0.86693 5.32901e-25)
(7.04969 -0.868094 1.93893e-25)
(7.01076 -0.869023 -7.73521e-25)
(6.97154 -0.869685 0)
(6.93217 -0.870104 -1.79898e-19)
(6.89264 -0.870281 4.32859e-19)
(6.85293 -0.870215 -2.95735e-24)
(6.8131 -0.869915 2.98168e-19)
(6.77319 -0.86939 -5.25209e-24)
(6.73315 -0.868639 3.93249e-19)
(6.69313 -0.867688 -4.4658e-19)
(6.65294 -0.866502 -3.70921e-24)
(6.61289 -0.865139 0)
(6.57277 -0.863562 3.17144e-19)
(6.53277 -0.861807 -5.24263e-24)
(6.49291 -0.859879 3.93481e-19)
(6.45327 -0.857794 0)
(6.41385 -0.85556 -4.83343e-19)
(6.37468 -0.853183 5.34146e-19)
(6.33593 -0.850692 2.94693e-19)
(6.29756 -0.848082 3.24724e-19)
(6.25969 -0.845388 -1.11191e-23)
(6.22228 -0.842616 -3.92874e-19)
(6.18541 -0.839766 4.31549e-19)
(6.14934 -0.836846 -4.73664e-19)
(6.11449 -0.833924 0)
(6.08055 -0.831075 2.84655e-19)
(6.04678 -0.828258 3.11824e-19)
(6.01284 -0.825319 -3.41379e-19)
(5.98087 -0.822196 -7.52505e-26)
(5.95382 -0.819272 -2.0441e-19)
(5.93198 -0.817089 2.69657e-23)
(5.90861 -0.815725 2.43538e-19)
(5.87714 -0.814212 2.65717e-19)
(5.83617 -0.8113 0)
(5.80481 -0.806758 -3.17117e-19)
(5.80158 -0.803142 1.728e-19)
(5.83857 -0.80282 1.87518e-19)
(5.89953 -0.809307 2.02214e-19)
(5.92961 -0.819919 5.30128e-23)
(5.90216 -0.82978 1.17099e-19)
(5.8047 -0.834949 1.26468e-19)
(5.64415 -0.827116 -1.3765e-19)
(5.5472 -0.811464 -7.42397e-23)
(5.60998 -0.802832 -7.83441e-25)
(5.87137 -0.807262 8.66515e-20)
(6.32361 -0.827431 8.60423e-23)
(7.31333 -0.923634 -2.57562e-22)
(7.741 -1.21063 1.77491e-22)
(5.74059 -1.32887 1.74427e-19)
(1.17582 -0.285308 2.124e-19)
(-1.86127 1.20652 -5.51526e-19)
(-0.609645 0.387162 -3.22279e-19)
(0.263369 -0.286059 3.45955e-19)
(-1.12267 2.76639 6.02982e-22)
(-1.25489 5.42308 3.43766e-22)
(-0.438708 2.92966 2.31825e-20)
(-0.722288 -2.19109 -2.20721e-20)
(-1.44542 -5.87205 9.13938e-20)
(-1.43631 -3.75814 0)
(0.0830228 0.0265893 0)
(-1.2952 -0.872773 0)
(-2.35854 -1.62369 -2.93385e-19)
(2.54857 0.627122 2.13541e-19)
(8.43794 1.86266 1.70595e-19)
(10.6577 1.64867 -8.9089e-20)
(10.0844 1.29313 1.13921e-23)
(8.95294 1.18657 -1.80151e-22)
(8.41643 1.16421 1.82213e-19)
(8.1166 1.16415 1.72207e-19)
(8.05928 1.1783 1.60211e-19)
(8.18768 1.1976 -1.46185e-19)
(8.38015 1.20347 -1.3053e-22)
(8.49255 1.1932 1.24775e-19)
(8.51728 1.17791 0)
(8.47351 1.16311 -1.05188e-22)
(8.39757 1.15533 2.00988e-19)
(8.35356 1.15665 0)
(8.35969 1.1617 -3.41474e-19)
(8.40217 1.16707 3.12761e-19)
(8.51473 1.17869 2.67293e-19)
(8.55275 1.18059 2.44994e-19)
(8.58055 1.18181 0)
(8.60676 1.18421 -2.06058e-19)
(8.63943 1.18753 -7.54123e-19)
(8.67803 1.191 -6.89654e-19)
(8.71894 1.19414 3.15245e-19)
(8.75967 1.19712 -3.46811e-23)
(8.80079 1.20017 2.63169e-19)
(8.84325 1.20332 -9.60663e-19)
(8.88744 1.20648 4.38077e-19)
(8.93291 1.20956 0)
(8.97932 1.21256 0)
(9.02664 1.21548 3.30639e-19)
(9.07491 1.21832 3.00407e-19)
(9.12404 1.22104 5.45157e-19)
(9.17397 1.22362 -4.93906e-19)
(9.22455 1.22605 0)
(9.27574 1.22831 4.03153e-19)
(9.32748 1.23038 6.26509e-25)
(9.37969 1.23225 6.02462e-25)
(9.43229 1.23389 9.20021e-24)
(9.48519 1.23529 5.20436e-19)
(9.53839 1.23645 -4.62055e-19)
(9.59165 1.23732 0)
(9.64514 1.23794 0)
(9.69868 1.23826 3.11839e-19)
(9.75229 1.2383 -2.68942e-19)
(9.8059 1.23803 2.29156e-19)
(9.85943 1.23744 -1.9223e-19)
(9.91291 1.23654 -4.11942e-25)
(9.96617 1.23528 -7.1455e-24)
(10.0194 1.23371 1.66436e-24)
(10.0723 1.23178 1.37175e-19)
(10.1251 1.22951 8.34272e-25)
(10.1776 1.22688 0)
(10.2299 1.22391 0)
(10.282 1.22057 5.04505e-20)
(10.3338 1.21686 0)
(10.3853 1.21277 -1.27629e-19)
(10.4364 1.20831 5.45806e-25)
(10.4873 1.20348 0)
(10.5379 1.19825 0)
(10.5882 1.19263 1.12558e-24)
(10.6382 1.18661 2.17964e-24)
(10.6881 1.18018 6.25866e-19)
(10.7377 1.17335 0)
(10.7872 1.1661 -7.27111e-19)
(10.8365 1.15842 0)
(10.8838 1.15023 -1.62772e-24)
(10.8125 1.12894 -9.83004e-19)
(10.983 1.13254 4.99952e-24)
(10.9087 1.11056 -2.12997e-24)