/*--------------------------------*- C++ -*----------------------------------*\
| =========                 |                                                 |
| \\      /  F ield         | OpenFOAM: The Open Source CFD Toolbox           |
|  \\    /   O peration     | Version:  2412                                  |
|   \\  /    A nd           | Website:  www.openfoam.com                      |
|    \\/     M anipulation  |                                                 |
\*---------------------------------------------------------------------------*/
FoamFile
{
    version     2.0;
    format      ascii;
    arch        "LSB;label=32;scalar=64";
    class       volScalarField;
    location    "320";
    object      p;
}
// * * * * * * * * * * * * * * * * * * * * * * * * * * * * * * * * * * * * * //

dimensions      [0 2 -2 0 0 0 0];

internalField   nonuniform List<scalar> 
8659
(
402.679
424.507
440.87
443.718
417.719
331.507
152.646
-223.448
-666.603
-1093.61
-1364.91
-1428.43
-1378.55
-1299.66
-1218.51
-1144.44
-1076.25
-1014.18
-959.14
-910.086
-866.024
-826.285
-790.248
-757.39
-727.264
-699.488
-673.793
-649.871
-627.525
-606.579
-586.839
-568.226
-550.568
-533.802
-517.831
-502.575
-487.982
-473.976
-460.525
-447.568
-435.072
-423.012
-411.344
-400.048
-389.098
-378.471
-368.152
-358.123
-348.368
-338.875
-329.63
-320.623
-311.842
-303.276
-294.919
-286.762
-278.799
-271.023
-263.423
-256.002
-248.734
-241.652
-234.705
-227.921
-221.268
-214.779
-208.417
-202.192
-196.094
-190.139
-184.312
-178.607
-173.022
-167.563
-162.221
-156.992
-151.87
-146.847
-141.928
-137.11
-132.385
-127.748
-123.205
-118.739
-114.357
-110.058
402.679
424.507
440.87
443.716
417.715
331.501
152.633
-223.443
-666.599
-1093.6
-1364.9
-1428.42
-1378.55
-1299.66
-1218.51
-1144.43
-1076.25
-1014.18
-959.139
-910.086
-866.024
-826.285
-790.248
-757.389
-727.264
-699.488
-673.793
-649.871
-627.524
-606.579
-586.839
-568.226
-550.568
-533.802
-517.831
-502.575
-487.982
-473.976
-460.525
-447.567
-435.072
-423.012
-411.344
-400.048
-389.098
-378.471
-368.152
-358.123
-348.368
-338.875
-329.63
-320.623
-311.842
-303.276
-294.919
-286.762
-278.799
-271.023
-263.423
-256.002
-248.734
-241.652
-234.705
-227.921
-221.268
-214.779
-208.417
-202.192
-196.094
-190.139
-184.312
-178.607
-173.022
-167.563
-162.221
-156.992
-151.87
-146.847
-141.928
-137.11
-132.385
-127.748
-123.205
-118.739
-114.357
-110.058
402.679
424.507
440.869
443.714
417.71
331.49
152.611
-223.447
-666.579
-1093.56
-1364.86
-1428.4
-1378.54
-1299.66
-1218.51
-1144.43
-1076.25
-1014.18
-959.139
-910.086
-866.024
-826.285
-790.248
-757.389
-727.264
-699.488
-673.793
-649.871
-627.524
-606.579
-586.839
-568.226
-550.568
-533.802
-517.831
-502.575
-487.982
-473.976
-460.525
-447.567
-435.072
-423.012
-411.344
-400.048
-389.098
-378.471
-368.152
-358.123
-348.368
-338.875
-329.63
-320.623
-311.842
-303.276
-294.919
-286.762
-278.799
-271.023
-263.423
-256.002
-248.734
-241.652
-234.705
-227.921
-221.268
-214.779
-208.417
-202.192
-196.094
-190.139
-184.312
-178.607
-173.022
-167.563
-162.221
-156.992
-151.87
-146.847
-141.928
-137.11
-132.385
-127.748
-123.205
-118.739
-114.357
-110.058
402.679
424.507
440.868
443.712
417.704
331.478
152.589
-223.437
-666.523
-1093.47
-1364.78
-1428.36
-1378.53
-1299.65
-1218.51
-1144.43
-1076.25
-1014.18
-959.138
-910.085
-866.024
-826.285
-790.247
-757.389
-727.264
-699.488
-673.792
-649.871
-627.524
-606.579
-586.839
-568.226
-550.568
-533.802
-517.831
-502.574
-487.982
-473.976
-460.525
-447.567
-435.072
-423.012
-411.344
-400.048
-389.098
-378.471
-368.152
-358.123
-348.368
-338.875
-329.63
-320.623
-311.842
-303.276
-294.919
-286.762
-278.799
-271.023
-263.423
-256.002
-248.734
-241.652
-234.705
-227.921
-221.268
-214.779
-208.417
-202.192
-196.094
-190.139
-184.312
-178.607
-173.022
-167.563
-162.221
-156.992
-151.87
-146.847
-141.928
-137.11
-132.385
-127.748
-123.205
-118.739
-114.357
-110.058
402.679
424.507
440.868
443.709
417.696
331.466
152.572
-223.395
-666.401
-1093.3
-1364.64
-1428.29
-1378.5
-1299.64
-1218.5
-1144.43
-1076.25
-1014.18
-959.137
-910.084
-866.023
-826.284
-790.247
-757.389
-727.264
-699.487
-673.792
-649.87
-627.524
-606.578
-586.839
-568.226
-550.567
-533.801
-517.831
-502.574
-487.982
-473.976
-460.524
-447.567
-435.072
-423.012
-411.344
-400.048
-389.097
-378.471
-368.152
-358.123
-348.368
-338.875
-329.63
-320.623
-311.842
-303.276
-294.919
-286.762
-278.799
-271.023
-263.423
-256.002
-248.734
-241.652
-234.705
-227.921
-221.268
-214.779
-208.417
-202.192
-196.094
-190.139
-184.312
-178.607
-173.022
-167.563
-162.221
-156.992
-151.87
-146.847
-141.928
-137.11
-132.385
-127.748
-123.204
-118.738
-114.357
-110.058
402.681
424.508
440.868
443.706
417.688
331.453
152.567
-223.304
-666.178
-1093
-1364.39
-1428.16
-1378.44
-1299.61
-1218.49
-1144.42
-1076.24
-1014.18
-959.134
-910.081
-866.021
-826.282
-790.246
-757.388
-727.263
-699.486
-673.792
-649.87
-627.524
-606.578
-586.838
-568.226
-550.567
-533.801
-517.831
-502.574
-487.982
-473.976
-460.524
-447.567
-435.072
-423.012
-411.344
-400.047
-389.097
-378.471
-368.152
-358.123
-348.368
-338.875
-329.63
-320.623
-311.841
-303.276
-294.919
-286.762
-278.798
-271.022
-263.423
-256.002
-248.734
-241.652
-234.705
-227.921
-221.268
-214.779
-208.417
-202.192
-196.094
-190.139
-184.312
-178.607
-173.022
-167.563
-162.221
-156.992
-151.87
-146.847
-141.928
-137.11
-132.385
-127.748
-123.204
-118.738
-114.357
-110.058
402.683
424.51
440.868
443.702
417.678
331.444
152.582
-223.137
-665.807
-1092.52
-1363.99
-1427.93
-1378.33
-1299.56
-1218.46
-1144.4
-1076.23
-1014.17
-959.128
-910.077
-866.017
-826.28
-790.243
-757.386
-727.261
-699.485
-673.79
-649.869
-627.523
-606.577
-586.838
-568.225
-550.567
-533.801
-517.83
-502.574
-487.982
-473.975
-460.524
-447.567
-435.072
-423.011
-411.343
-400.047
-389.097
-378.47
-368.152
-358.122
-348.368
-338.875
-329.629
-320.622
-311.841
-303.276
-294.919
-286.762
-278.798
-271.022
-263.423
-256.002
-248.733
-241.652
-234.705
-227.921
-221.268
-214.779
-208.417
-202.192
-196.094
-190.139
-184.311
-178.607
-173.022
-167.563
-162.221
-156.992
-151.87
-146.847
-141.928
-137.11
-132.385
-127.748
-123.204
-118.738
-114.357
-110.058
402.687
424.513
440.869
443.698
417.668
331.438
152.627
-222.869
-665.24
-1091.8
-1363.37
-1427.57
-1378.15
-1299.47
-1218.4
-1144.37
-1076.21
-1014.15
-959.116
-910.068
-866.011
-826.274
-790.239
-757.382
-727.258
-699.483
-673.788
-649.867
-627.521
-606.576
-586.837
-568.224
-550.566
-533.8
-517.829
-502.573
-487.981
-473.975
-460.524
-447.567
-435.071
-423.011
-411.343
-400.047
-389.097
-378.47
-368.152
-358.122
-348.368
-338.875
-329.629
-320.622
-311.841
-303.276
-294.919
-286.762
-278.798
-271.022
-263.423
-256.002
-248.733
-241.651
-234.704
-227.921
-221.268
-214.778
-208.416
-202.192
-196.093
-190.139
-184.311
-178.607
-173.022
-167.563
-162.221
-156.992
-151.87
-146.847
-141.928
-137.11
-132.385
-127.748
-123.204
-118.738
-114.357
-110.058
402.693
424.519
440.871
443.694
417.657
331.44
152.708
-222.47
-664.422
-1090.77
-1362.5
-1427.05
-1377.88
-1299.33
-1218.32
-1144.32
-1076.17
-1014.13
-959.097
-910.054
-865.999
-826.265
-790.232
-757.376
-727.254
-699.479
-673.785
-649.864
-627.519
-606.574
-586.835
-568.222
-550.564
-533.799
-517.828
-502.572
-487.98
-473.974
-460.523
-447.566
-435.071
-423.01
-411.342
-400.046
-389.096
-378.47
-368.151
-358.122
-348.367
-338.874
-329.629
-320.622
-311.841
-303.275
-294.918
-286.762
-278.798
-271.022
-263.423
-256.002
-248.733
-241.651
-234.704
-227.921
-221.268
-214.778
-208.416
-202.191
-196.093
-190.139
-184.311
-178.607
-173.021
-167.562
-162.221
-156.992
-151.869
-146.847
-141.928
-137.11
-132.385
-127.748
-123.204
-118.738
-114.357
-110.058
402.701
424.526
440.875
443.689
417.645
331.452
152.82
-221.901
-663.298
-1089.35
-1361.3
-1426.33
-1377.51
-1299.13
-1218.2
-1144.24
-1076.12
-1014.09
-959.069
-910.032
-865.982
-826.252
-790.221
-757.367
-727.246
-699.472
-673.78
-649.86
-627.515
-606.571
-586.832
-568.22
-550.562
-533.797
-517.827
-502.571
-487.979
-473.973
-460.522
-447.565
-435.07
-423.01
-411.342
-400.046
-389.096
-378.469
-368.151
-358.121
-348.367
-338.874
-329.628
-320.621
-311.84
-303.275
-294.918
-286.761
-278.797
-271.021
-263.422
-256.001
-248.733
-241.651
-234.704
-227.92
-221.268
-214.778
-208.416
-202.191
-196.093
-190.139
-184.311
-178.607
-173.021
-167.562
-162.22
-156.991
-151.869
-146.846
-141.928
-137.11
-132.385
-127.747
-123.204
-118.738
-114.357
-110.058
402.713
424.536
440.879
443.682
417.633
331.478
152.986
-221.118
-661.82
-1087.48
-1359.73
-1425.38
-1377.01
-1298.86
-1218.04
-1144.13
-1076.05
-1014.03
-959.028
-910
-865.957
-826.232
-790.204
-757.354
-727.235
-699.463
-673.772
-649.853
-627.509
-606.566
-586.828
-568.216
-550.559
-533.794
-517.824
-502.568
-487.977
-473.971
-460.52
-447.563
-435.068
-423.008
-411.34
-400.045
-389.095
-378.468
-368.15
-358.12
-348.366
-338.873
-329.628
-320.621
-311.84
-303.274
-294.917
-286.761
-278.797
-271.021
-263.422
-256.001
-248.732
-241.65
-234.703
-227.92
-221.267
-214.777
-208.415
-202.191
-196.093
-190.138
-184.31
-178.606
-173.021
-167.562
-162.22
-156.991
-151.869
-146.846
-141.927
-137.11
-132.384
-127.747
-123.204
-118.738
-114.356
-110.058
402.729
424.548
440.884
443.675
417.622
331.52
153.221
-220.087
-659.924
-1085.09
-1357.7
-1424.15
-1376.36
-1298.5
-1217.83
-1144
-1075.95
-1013.96
-958.974
-909.958
-865.924
-826.205
-790.182
-757.336
-727.22
-699.45
-673.761
-649.844
-627.501
-606.559
-586.821
-568.211
-550.554
-533.79
-517.82
-502.565
-487.974
-473.968
-460.518
-447.561
-435.066
-423.006
-411.339
-400.043
-389.093
-378.467
-368.148
-358.119
-348.365
-338.872
-329.626
-320.62
-311.839
-303.273
-294.916
-286.76
-278.796
-271.02
-263.421
-256
-248.731
-241.65
-234.703
-227.919
-221.266
-214.777
-208.415
-202.19
-196.092
-190.138
-184.31
-178.606
-173.02
-167.561
-162.219
-156.991
-151.868
-146.846
-141.927
-137.109
-132.384
-127.747
-123.203
-118.737
-114.356
-110.057
402.749
424.564
440.89
443.666
417.611
331.583
153.511
-218.778
-657.519
-1082.19
-1355.15
-1422.58
-1375.53
-1298.06
-1217.57
-1143.82
-1075.83
-1013.87
-958.905
-909.904
-865.881
-826.17
-790.154
-757.312
-727.199
-699.433
-673.746
-649.831
-627.49
-606.549
-586.813
-568.203
-550.548
-533.784
-517.815
-502.56
-487.97
-473.964
-460.514
-447.558
-435.064
-423.004
-411.336
-400.041
-389.091
-378.465
-368.147
-358.117
-348.363
-338.87
-329.625
-320.618
-311.837
-303.272
-294.915
-286.759
-278.795
-271.019
-263.42
-255.999
-248.73
-241.649
-234.702
-227.918
-221.266
-214.776
-208.414
-202.189
-196.091
-190.137
-184.309
-178.605
-173.019
-167.561
-162.219
-156.99
-151.868
-146.845
-141.926
-137.109
-132.383
-127.746
-123.203
-118.737
-114.355
-110.057
402.773
424.582
440.896
443.656
417.602
331.679
153.84
-217.173
-654.596
-1078.68
-1351.97
-1420.6
-1374.49
-1297.49
-1217.23
-1143.6
-1075.67
-1013.76
-958.818
-909.836
-865.826
-826.125
-790.117
-757.281
-727.174
-699.411
-673.727
-649.815
-627.476
-606.537
-586.802
-568.194
-550.539
-533.776
-517.808
-502.554
-487.964
-473.959
-460.509
-447.554
-435.06
-423
-411.333
-400.038
-389.088
-378.462
-368.144
-358.115
-348.361
-338.868
-329.623
-320.616
-311.835
-303.27
-294.913
-286.757
-278.793
-271.017
-263.418
-255.998
-248.729
-241.647
-234.7
-227.917
-221.264
-214.775
-208.413
-202.188
-196.09
-190.136
-184.308
-178.604
-173.019
-167.56
-162.218
-156.989
-151.867
-146.844
-141.926
-137.108
-132.383
-127.745
-123.202
-118.736
-114.355
-110.056
402.802
424.603
440.902
443.644
417.594
331.816
154.198
-215.265
-651.209
-1074.4
-1348.07
-1418.13
-1373.17
-1296.78
-1216.81
-1143.32
-1075.48
-1013.62
-958.71
-909.752
-865.759
-826.07
-790.071
-757.243
-727.141
-699.383
-673.703
-649.794
-627.458
-606.521
-586.788
-568.181
-550.528
-533.766
-517.799
-502.546
-487.957
-473.953
-460.503
-447.548
-435.054
-422.995
-411.329
-400.034
-389.084
-378.459
-368.141
-358.112
-348.358
-338.865
-329.62
-320.614
-311.833
-303.268
-294.911
-286.755
-278.791
-271.016
-263.417
-255.996
-248.727
-241.646
-234.699
-227.915
-221.263
-214.773
-208.411
-202.187
-196.089
-190.134
-184.307
-178.603
-173.017
-167.558
-162.217
-156.988
-151.866
-146.843
-141.924
-137.107
-132.382
-127.744
-123.201
-118.735
-114.354
-110.055
402.835
424.626
440.907
443.629
417.588
331.993
154.585
-213.055
-647.349
-1069.35
-1343.35
-1415.07
-1371.52
-1295.9
-1216.28
-1142.98
-1075.24
-1013.44
-958.576
-909.647
-865.675
-826.002
-790.014
-757.195
-727.101
-699.349
-673.673
-649.768
-627.435
-606.5
-586.77
-568.165
-550.513
-533.753
-517.787
-502.535
-487.947
-473.944
-460.495
-447.541
-435.048
-422.989
-411.323
-400.028
-389.08
-378.454
-368.137
-358.108
-348.354
-338.862
-329.617
-320.611
-311.83
-303.265
-294.909
-286.752
-278.789
-271.013
-263.414
-255.994
-248.725
-241.643
-234.697
-227.913
-221.261
-214.771
-208.41
-202.185
-196.087
-190.133
-184.305
-178.601
-173.016
-167.557
-162.215
-156.986
-151.864
-146.842
-141.923
-137.105
-132.38
-127.743
-123.2
-118.734
-114.353
-110.054
402.872
424.651
440.91
443.612
417.582
332.208
155.013
-210.538
-642.967
-1063.55
-1337.79
-1411.27
-1369.47
-1294.78
-1215.63
-1142.56
-1074.94
-1013.22
-958.411
-909.517
-865.571
-825.917
-789.944
-757.136
-727.051
-699.306
-673.636
-649.735
-627.406
-606.475
-586.747
-568.145
-550.495
-533.737
-517.773
-502.522
-487.935
-473.933
-460.485
-447.531
-435.039
-422.981
-411.316
-400.022
-389.073
-378.448
-368.131
-358.103
-348.35
-338.858
-329.613
-320.607
-311.826
-303.262
-294.905
-286.749
-278.786
-271.01
-263.411
-255.991
-248.722
-241.641
-234.694
-227.911
-221.258
-214.769
-208.407
-202.183
-196.085
-190.131
-184.303
-178.599
-173.014
-167.555
-162.213
-156.985
-151.863
-146.84
-141.921
-137.104
-132.379
-127.741
-123.198
-118.732
-114.351
-110.052
402.913
424.676
440.912
443.592
417.576
332.46
155.489
-207.705
-638.024
-1056.94
-1331.37
-1406.68
-1366.87
-1293.39
-1214.81
-1142.03
-1074.58
-1012.96
-958.208
-909.358
-865.444
-825.813
-789.858
-757.064
-726.989
-699.253
-673.59
-649.695
-627.371
-606.444
-586.72
-568.12
-550.473
-533.717
-517.754
-502.505
-487.92
-473.919
-460.472
-447.52
-435.028
-422.971
-411.306
-400.013
-389.065
-378.441
-368.125
-358.097
-348.344
-338.852
-329.608
-320.602
-311.822
-303.257
-294.901
-286.745
-278.782
-271.007
-263.408
-255.987
-248.719
-241.638
-234.691
-227.908
-221.256
-214.766
-208.405
-202.18
-196.082
-190.128
-184.301
-178.597
-173.012
-167.553
-162.211
-156.982
-151.86
-146.838
-141.919
-137.102
-132.377
-127.739
-123.196
-118.73
-114.349
-110.051
-105.831
402.957
424.703
440.911
443.567
417.568
332.748
156.016
-204.53
-632.481
-1049.47
-1324.06
-1401.68
-1363.37
-1291.64
-1213.78
-1141.37
-1074.12
-1012.62
-957.957
-909.162
-865.287
-825.686
-789.753
-756.975
-726.914
-699.188
-673.534
-649.646
-627.328
-606.406
-586.686
-568.09
-550.446
-533.692
-517.732
-502.485
-487.901
-473.902
-460.457
-447.505
-435.015
-422.959
-411.295
-400.003
-389.056
-378.432
-368.116
-358.089
-348.337
-338.845
-329.601
-320.596
-311.816
-303.252
-294.896
-286.74
-278.777
-271.002
-263.404
-255.983
-248.715
-241.634
-234.688
-227.904
-221.252
-214.763
-208.401
-202.177
-196.079
-190.125
-184.298
-178.594
-173.009
-167.55
-162.209
-156.98
-151.858
-146.835
-141.917
-137.099
-132.374
-127.737
-123.194
-118.728
-114.347
-110.048
-105.828
403.004
424.73
440.907
443.537
417.557
333.074
156.595
-200.981
-626.283
-1041.12
-1315.74
-1396.18
-1358.93
-1289.44
-1212.48
-1140.54
-1073.55
-1012.21
-957.647
-908.922
-865.095
-825.529
-789.623
-756.867
-726.822
-699.109
-673.466
-649.587
-627.276
-606.359
-586.644
-568.052
-550.412
-533.662
-517.705
-502.46
-487.878
-473.881
-460.438
-447.488
-434.999
-422.944
-411.281
-399.99
-389.044
-378.421
-368.106
-358.079
-348.328
-338.837
-329.594
-320.589
-311.809
-303.246
-294.89
-286.735
-278.772
-270.997
-263.399
-255.979
-248.711
-241.629
-234.683
-227.9
-221.248
-214.759
-208.397
-202.173
-196.075
-190.122
-184.294
-178.59
-173.005
-167.547
-162.205
-156.977
-151.855
-146.832
-141.914
-137.096
-132.372
-127.734
-123.191
-118.725
-114.344
-110.046
-105.826
403.055
424.758
440.9
443.5
417.539
333.438
157.231
-197.025
-619.368
-1031.81
-1306.39
-1389.34
-1354.03
-1286.71
-1210.85
-1139.51
-1072.85
-1011.71
-957.265
-908.625
-864.859
-825.338
-789.465
-756.734
-726.709
-699.013
-673.383
-649.514
-627.212
-606.303
-586.594
-568.007
-550.372
-533.625
-517.671
-502.43
-487.851
-473.856
-460.414
-447.466
-434.979
-422.926
-411.264
-399.974
-389.029
-378.407
-368.093
-358.067
-348.317
-338.827
-329.584
-320.58
-311.801
-303.238
-294.883
-286.728
-278.765
-270.991
-263.393
-255.973
-248.705
-241.624
-234.678
-227.895
-221.243
-214.754
-208.393
-202.169
-196.071
-190.117
-184.29
-178.586
-173.001
-167.543
-162.202
-156.973
-151.851
-146.829
-141.911
-137.093
-132.368
-127.731
-123.188
-118.722
-114.341
-110.043
-105.823
403.109
424.786
440.889
443.454
417.513
333.827
157.94
-192.62
-611.668
-1021.42
-1295.94
-1381.22
-1348.5
-1283.35
-1208.82
-1138.21
-1071.97
-1011.08
-956.794
-908.261
-864.57
-825.103
-789.272
-756.573
-726.572
-698.896
-673.281
-649.426
-627.134
-606.234
-586.533
-567.953
-550.323
-533.581
-517.631
-502.393
-487.817
-473.825
-460.386
-447.441
-434.956
-422.904
-411.244
-399.955
-389.012
-378.391
-368.078
-358.053
-348.304
-338.814
-329.573
-320.569
-311.791
-303.228
-294.874
-286.719
-278.758
-270.983
-263.386
-255.966
-248.699
-241.618
-234.672
-227.89
-221.238
-214.749
-208.388
-202.164
-196.066
-190.112
-184.285
-178.582
-172.997
-167.539
-162.197
-156.969
-151.847
-146.825
-141.907
-137.089
-132.365
-127.728
-123.185
-118.719
-114.338
-110.039
-105.82
403.168
424.815
440.872
443.397
417.476
334.238
158.732
-187.729
-603.113
-1009.85
-1284.28
-1372.12
-1342.71
-1278.87
-1206.26
-1136.59
-1070.88
-1010.3
-956.211
-907.812
-864.215
-824.816
-789.036
-756.375
-726.406
-698.753
-673.158
-649.319
-627.04
-606.151
-586.46
-567.887
-550.264
-533.528
-517.583
-502.35
-487.778
-473.789
-460.353
-447.41
-434.927
-422.878
-411.22
-399.933
-388.991
-378.372
-368.06
-358.037
-348.288
-338.8
-329.559
-320.556
-311.779
-303.217
-294.863
-286.71
-278.748
-270.975
-263.378
-255.959
-248.691
-241.611
-234.665
-227.883
-221.231
-214.743
-208.382
-202.158
-196.061
-190.107
-184.28
-178.577
-172.992
-167.534
-162.192
-156.964
-151.842
-146.82
-141.902
-137.085
-132.36
-127.723
-123.18
-118.715
-114.334
-110.035
-105.815
403.231
424.843
440.848
443.326
417.424
334.67
159.61
-182.31
-593.629
-996.994
-1271.31
-1361.89
-1336.21
-1273.52
-1203.11
-1134.55
-1069.51
-1009.33
-955.491
-907.258
-863.778
-824.464
-788.747
-756.134
-726.202
-698.58
-673.009
-649.189
-626.927
-606.051
-586.371
-567.808
-550.193
-533.464
-517.525
-502.297
-487.73
-473.745
-460.313
-447.373
-434.894
-422.847
-411.191
-399.906
-388.966
-378.349
-368.039
-358.017
-348.269
-338.782
-329.543
-320.541
-311.765
-303.204
-294.851
-286.698
-278.737
-270.964
-263.368
-255.949
-248.683
-241.603
-234.658
-227.875
-221.224
-214.736
-208.375
-202.151
-196.054
-190.101
-184.274
-178.571
-172.986
-167.528
-162.187
-156.959
-151.837
-146.815
-141.897
-137.08
-132.355
-127.718
-123.175
-118.71
-114.329
-110.03
-105.811
-101.67
-97.6044
-93.6083
403.297
424.869
440.814
443.237
417.354
335.118
160.583
-176.319
-583.141
-982.751
-1256.86
-1350.48
-1328.21
-1267.79
-1199.29
-1132.04
-1067.8
-1008.12
-954.598
-906.576
-863.242
-824.033
-788.393
-755.841
-725.955
-698.369
-672.827
-649.031
-626.789
-605.93
-586.263
-567.712
-550.107
-533.387
-517.456
-502.234
-487.672
-473.693
-460.265
-447.329
-434.853
-422.81
-411.157
-399.875
-388.937
-378.322
-368.014
-357.993
-348.247
-338.762
-329.524
-320.523
-311.748
-303.188
-294.836
-286.684
-278.724
-270.952
-263.356
-255.939
-248.673
-241.593
-234.648
-227.867
-221.216
-214.728
-208.367
-202.144
-196.047
-190.094
-184.267
-178.564
-172.98
-167.522
-162.181
-156.953
-151.831
-146.809
-141.891
-137.074
-132.35
-127.713
-123.17
-118.705
-114.324
-110.026
-105.806
-101.665
-97.5997
-93.6036
403.368
424.893
440.767
443.127
417.259
335.578
161.66
-169.712
-571.573
-967.02
-1240.81
-1337.77
-1319.17
-1261.75
-1194.5
-1128.92
-1065.67
-1006.61
-953.491
-905.733
-862.581
-823.503
-787.961
-755.482
-725.653
-698.112
-672.607
-648.84
-626.622
-605.783
-586.134
-567.597
-550.004
-533.294
-517.372
-502.159
-487.604
-473.63
-460.208
-447.277
-434.805
-422.765
-411.116
-399.837
-388.902
-378.289
-367.984
-357.965
-348.221
-338.738
-329.501
-320.502
-311.728
-303.17
-294.819
-286.668
-278.709
-270.938
-263.343
-255.926
-248.661
-241.582
-234.638
-227.856
-221.206
-214.718
-208.358
-202.135
-196.039
-190.086
-184.259
-178.556
-172.972
-167.515
-162.174
-156.946
-151.825
-146.803
-141.885
-137.068
-132.344
-127.707
-123.164
-118.699
-114.318
-110.02
-105.8
-101.659
-97.5943
-93.5982
403.442
424.913
440.705
442.989
417.135
336.042
162.86
-162.452
-558.853
-949.692
-1223.02
-1323.6
-1309.07
-1254.85
-1189.05
-1125.19
-1063.05
-1004.74
-952.118
-904.691
-861.768
-822.853
-787.431
-755.043
-725.285
-697.8
-672.338
-648.608
-626.42
-605.606
-585.977
-567.457
-549.88
-533.183
-517.272
-502.068
-487.521
-473.555
-460.14
-447.214
-434.748
-422.713
-411.067
-399.792
-388.861
-378.251
-367.948
-357.932
-348.191
-338.709
-329.474
-320.477
-311.705
-303.148
-294.799
-286.649
-278.691
-270.921
-263.328
-255.912
-248.647
-241.569
-234.626
-227.845
-221.195
-214.708
-208.348
-202.125
-196.029
-190.076
-184.251
-178.548
-172.964
-167.507
-162.166
-156.938
-151.817
-146.796
-141.878
-137.061
-132.337
-127.701
-123.158
-118.693
-114.312
-110.014
-105.794
-101.653
-97.5883
-93.5922
403.518
424.925
440.622
442.818
416.972
336.502
164.216
-154.523
-544.914
-930.639
-1203.38
-1307.84
-1297.81
-1246.69
-1183.24
-1120.74
-1059.9
-1002.43
-950.416
-903.402
-860.764
-822.053
-786.781
-754.506
-724.835
-697.419
-672.012
-648.327
-626.175
-605.39
-585.788
-567.289
-549.73
-533.048
-517.151
-501.959
-487.422
-473.465
-460.058
-447.14
-434.679
-422.65
-411.01
-399.739
-388.811
-378.205
-367.906
-357.893
-348.154
-338.675
-329.443
-320.448
-311.678
-303.122
-294.775
-286.627
-278.671
-270.902
-263.309
-255.894
-248.631
-241.554
-234.612
-227.831
-221.182
-214.695
-208.336
-202.114
-196.018
-190.066
-184.24
-178.538
-172.955
-167.497
-162.157
-156.93
-151.809
-146.788
-141.87
-137.054
-132.33
-127.693
-123.151
-118.686
-114.305
-110.007
-105.787
-101.647
-97.5816
-93.5856
403.594
424.927
440.513
442.604
416.76
336.963
165.759
-145.914
-529.695
-909.772
-1181.76
-1290.35
-1285.21
-1237.61
-1176.72
-1115.53
-1056.23
-999.643
-948.321
-901.81
-859.527
-821.068
-785.983
-753.848
-724.285
-696.954
-671.615
-647.984
-625.877
-605.13
-585.558
-567.085
-549.548
-532.886
-517.005
-501.827
-487.303
-473.358
-459.959
-447.05
-434.597
-422.574
-410.94
-399.675
-388.753
-378.151
-367.856
-357.847
-348.111
-338.635
-329.406
-320.413
-311.645
-303.092
-294.747
-286.6
-278.646
-270.879
-263.288
-255.874
-248.613
-241.537
-234.595
-227.816
-221.167
-214.681
-208.323
-202.101
-196.006
-190.054
-184.229
-178.527
-172.944
-167.487
-162.147
-156.92
-151.8
-146.778
-141.861
-137.045
-132.321
-127.685
-123.143
-118.678
-114.297
-109.999
-105.78
-101.639
-97.5742
-93.5783
403.668
424.914
440.371
442.339
416.489
337.4
167.514
-136.607
-513.147
-887.004
-1158.02
-1270.98
-1271.16
-1227.45
-1169.38
-1109.7
-1051.96
-996.353
-945.787
-899.859
-858.004
-819.858
-785.003
-753.042
-723.612
-696.386
-671.129
-647.566
-625.514
-604.813
-585.279
-566.839
-549.329
-532.69
-516.829
-501.669
-487.16
-473.228
-459.841
-446.942
-434.499
-422.484
-410.858
-399.599
-388.682
-378.086
-367.796
-357.791
-348.06
-338.588
-329.362
-320.372
-311.607
-303.057
-294.713
-286.569
-278.617
-270.852
-263.263
-255.851
-248.591
-241.516
-234.576
-227.798
-221.15
-214.665
-208.307
-202.086
-195.991
-190.04
-184.215
-178.514
-172.931
-167.475
-162.136
-156.909
-151.789
-146.768
-141.851
-137.035
-132.312
-127.676
-123.134
-118.669
-114.289
-109.991
-105.771
-101.631
-97.5661
-93.5702
403.738
424.88
440.185
442.008
416.141
337.73
169.502
-126.594
-495.237
-862.267
-1132.05
-1249.6
-1255.5
-1216.06
-1161.16
-1103.18
-1047.07
-992.561
-942.804
-897.507
-856.145
-818.374
-783.801
-752.053
-722.788
-695.691
-670.537
-647.057
-625.073
-604.427
-584.941
-566.539
-549.063
-532.453
-516.617
-501.478
-486.987
-473.071
-459.699
-446.813
-434.38
-422.376
-410.758
-399.508
-388.599
-378.009
-367.724
-357.725
-347.999
-338.531
-329.309
-320.323
-311.562
-303.014
-294.674
-286.533
-278.583
-270.82
-263.233
-255.823
-248.565
-241.492
-234.553
-227.776
-221.13
-214.646
-208.289
-202.068
-195.974
-190.023
-184.199
-178.498
-172.916
-167.461
-162.123
-156.897
-151.777
-146.756
-141.84
-137.024
-132.301
-127.665
-123.124
-118.659
-114.279
-109.981
-105.762
-101.622
-97.5572
-93.5613
403.797
424.818
439.946
441.597
415.7
337.973
171.722
-115.905
-475.952
-835.514
-1103.76
-1226.07
-1238.09
-1203.32
-1151.88
-1095.87
-1041.53
-988.25
-939.366
-894.747
-853.919
-816.571
-782.333
-750.845
-721.781
-694.842
-669.814
-646.436
-624.535
-603.957
-584.529
-566.175
-548.74
-532.165
-516.359
-501.246
-486.778
-472.882
-459.527
-446.657
-434.238
-422.246
-410.639
-399.398
-388.498
-377.916
-367.639
-357.646
-347.926
-338.463
-329.246
-320.265
-311.507
-302.964
-294.627
-286.489
-278.542
-270.782
-263.197
-255.79
-248.534
-241.464
-234.526
-227.751
-221.106
-214.623
-208.267
-202.048
-195.954
-190.004
-184.181
-178.48
-172.899
-167.445
-162.107
-156.881
-151.763
-146.744
-141.828
-137.012
-132.289
-127.654
-123.112
-118.648
-114.268
-109.971
-105.752
-101.612
-97.5474
-93.5515
403.841
424.717
439.638
441.086
415.141
338.168
174.167
-104.574
-455.299
-806.728
-1073.07
-1200.27
-1218.79
-1189.12
-1141.42
-1087.75
-1035.28
-983.371
-935.451
-891.571
-851.319
-814.43
-780.562
-749.375
-720.553
-693.807
-668.931
-645.677
-623.878
-603.385
-584.027
-565.732
-548.348
-531.815
-516.046
-500.965
-486.525
-472.653
-459.32
-446.468
-434.066
-422.088
-410.495
-399.266
-388.376
-377.805
-367.536
-357.551
-347.838
-338.382
-329.171
-320.195
-311.442
-302.903
-294.571
-286.437
-278.493
-270.737
-263.155
-255.751
-248.497
-241.429
-234.494
-227.721
-221.077
-214.596
-208.242
-202.023
-195.931
-189.982
-184.159
-178.46
-172.88
-167.426
-162.089
-156.863
-151.747
-146.729
-141.814
-136.998
-132.276
-127.641
-123.1
-118.636
-114.256
-109.959
-105.741
-101.601
-97.5365
-93.5407
403.861
424.567
439.244
440.453
414.44
338.262
176.847
-92.641
-433.309
-775.926
-1039.96
-1172.07
-1197.44
-1173.33
-1129.62
-1078.72
-1028.23
-977.869
-931.024
-887.96
-848.338
-811.946
-778.48
-747.62
-719.069
-692.548
-667.857
-644.754
-623.078
-602.687
-583.415
-565.192
-547.87
-531.389
-515.665
-500.624
-486.217
-472.375
-459.068
-446.239
-433.858
-421.898
-410.321
-399.107
-388.23
-377.67
-367.412
-357.437
-347.732
-338.284
-329.08
-320.111
-311.365
-302.831
-294.504
-286.374
-278.435
-270.682
-263.105
-255.703
-248.453
-241.388
-234.456
-227.685
-221.043
-214.564
-208.212
-201.995
-195.903
-189.955
-184.134
-178.436
-172.857
-167.404
-162.069
-156.844
-151.728
-146.709
-141.796
-136.981
-132.262
-127.628
-123.085
-118.622
-114.244
-109.946
-105.728
-101.588
-97.5243
-93.5287
403.846
424.351
438.743
439.671
413.564
338.237
179.77
-80.1801
-410.051
-743.169
-1004.48
-1141.34
-1173.9
-1155.79
-1116.39
-1068.63
-1020.3
-971.659
-926.024
-883.875
-844.955
-809.109
-776.079
-745.576
-717.319
-691.045
-666.56
-643.634
-622.107
-601.839
-582.671
-564.535
-547.288
-530.871
-515.202
-500.208
-485.843
-472.038
-458.762
-445.961
-433.605
-421.668
-410.11
-398.913
-388.053
-377.507
-367.262
-357.298
-347.604
-338.166
-328.971
-320.01
-311.271
-302.744
-294.423
-286.299
-278.365
-270.617
-263.044
-255.647
-248.4
-241.339
-234.41
-227.642
-221.003
-214.526
-208.176
-201.961
-195.871
-189.924
-184.104
-178.407
-172.83
-167.379
-162.045
-156.822
-151.706
-146.688
-141.776
-136.962
-132.242
-127.609
-123.069
-118.606
-114.229
-109.932
-105.713
-101.574
-97.5117
-93.5156
403.784
424.05
438.109
438.705
412.477
338.049
182.936
-67.2796
-385.621
-708.562
-966.683
-1107.99
-1148.03
-1136.38
-1101.65
-1057.33
-1011.4
-964.653
-920.378
-879.255
-841.125
-805.891
-773.346
-743.233
-715.297
-689.292
-665.032
-642.299
-620.937
-600.813
-581.769
-563.737
-546.581
-530.241
-514.638
-499.702
-485.388
-471.627
-458.389
-445.623
-433.298
-421.387
-409.854
-398.679
-387.838
-377.309
-367.08
-357.131
-347.45
-338.023
-328.839
-319.887
-311.157
-302.639
-294.325
-286.208
-278.281
-270.538
-262.97
-255.578
-248.336
-241.28
-234.355
-227.59
-220.954
-214.48
-208.132
-201.92
-195.832
-189.888
-184.069
-178.374
-172.798
-167.349
-162.016
-156.795
-151.681
-146.664
-141.752
-136.939
-132.219
-127.588
-123.049
-118.587
-114.21
-109.915
-105.697
-101.558
-97.4971
-93.5015
403.658
423.64
437.309
437.518
411.135
337.657
186.36
-54.0573
-360.154
-672.262
-926.66
-1071.98
-1119.75
-1114.94
-1085.25
-1044.68
-1001.42
-956.768
-914.012
-874.035
-836.789
-802.246
-770.246
-740.57
-712.989
-687.278
-663.266
-640.743
-619.562
-599.593
-580.686
-562.774
-545.724
-529.476
-513.954
-499.088
-484.834
-471.126
-457.936
-445.212
-432.923
-421.046
-409.542
-398.393
-387.576
-377.069
-366.859
-356.927
-347.262
-337.85
-328.679
-319.739
-311.02
-302.511
-294.206
-286.098
-278.178
-270.443
-262.882
-255.496
-248.259
-241.208
-234.288
-227.527
-220.895
-214.425
-208.08
-201.871
-195.786
-189.844
-184.027
-178.334
-172.761
-167.313
-161.982
-156.763
-151.65
-146.635
-141.725
-136.913
-132.194
-127.564
-123.026
-118.565
-114.187
-109.894
-105.677
-101.539
-97.4774
-93.484
403.445
423.093
436.307
436.063
409.49
337.013
190
-40.677
-333.827
-634.47
-884.61
-1033.31
-1088.98
-1091.36
-1067.07
-1030.57
-990.239
-947.905
-906.841
-868.145
-831.891
-798.12
-766.734
-737.55
-710.369
-684.988
-661.248
-638.957
-617.973
-598.175
-579.418
-561.636
-544.701
-528.556
-513.126
-498.343
-484.162
-470.519
-457.385
-444.711
-432.467
-420.63
-409.162
-398.045
-387.257
-376.776
-366.589
-356.679
-347.033
-337.639
-328.483
-319.558
-310.852
-302.356
-294.063