/*--------------------------------*- C++ -*----------------------------------*\
| =========                 |                                                 |
| \\      /  F ield         | OpenFOAM: The Open Source CFD Toolbox           |
|  \\    /   O peration     | Version:  2412                                  |
|   \\  /    A nd           | Website:  www.openfoam.com                      |
|    \\/     M anipulation  |                                                 |
\*---------------------------------------------------------------------------*/
FoamFile
{
    version     2.0;
    format      ascii;
    arch        "LSB;label=32;scalar=64";
    class       volScalarField;
    location    "180";
    object      nut;
}
// * * * * * * * * * * * * * * * * * * * * * * * * * * * * * * * * * * * * * //

dimensions      [0 2 -1 0 0 0 0];

internalField   nonuniform List<scalar> 
7373
(
1.61772e-11
1.61748e-11
1.61704e-11
1.61634e-11
1.6153e-11
1.61397e-11
1.61242e-11
1.6105e-11
1.60828e-11
1.60581e-11
1.60293e-11
1.59964e-11
1.5959e-11
1.59178e-11
1.58718e-11
1.58199e-11
1.57623e-11
1.56988e-11
1.5629e-11
1.55527e-11
1.54683e-11
1.5375e-11
1.52731e-11
1.51625e-11
1.50422e-11
1.4911e-11
1.47676e-11
1.46127e-11
1.44451e-11
1.4263e-11
1.40674e-11
1.38562e-11
1.36278e-11
1.33829e-11
1.31206e-11
1.28391e-11
1.25377e-11
1.22165e-11
1.18743e-11
1.15102e-11
1.11237e-11
1.07145e-11
1.02827e-11
9.82793e-12
9.34996e-12
8.84837e-12
8.32476e-12
7.78134e-12
7.2203e-12
6.64745e-12
6.07125e-12
5.50275e-12
4.95677e-12
4.44149e-12
3.95293e-12
3.47119e-12
2.96239e-12
2.38333e-12
1.69648e-12
9.21347e-13
2.54526e-13
1.14059e-14
3.47352e-14
1.14711e-12
1.00279e-11
4.5283e-11
1.52762e-10
3.49824e-10
1.54927e-09
1.54906e-09
1.54858e-09
1.54783e-09
1.54686e-09
1.5456e-09
1.54404e-09
1.54219e-09
1.54006e-09
1.53764e-09
1.53482e-09
1.53166e-09
1.52809e-09
1.52411e-09
1.51962e-09
1.5146e-09
1.50907e-09
1.50295e-09
1.49621e-09
1.48883e-09
1.4807e-09
1.47174e-09
1.46194e-09
1.45128e-09
1.43969e-09
1.42706e-09
1.41326e-09
1.39835e-09
1.3822e-09
1.36466e-09
1.34582e-09
1.3255e-09
1.30356e-09
1.27998e-09
1.25474e-09
1.22767e-09
1.1987e-09
1.1678e-09
1.13487e-09
1.09983e-09
1.06267e-09
1.02332e-09
9.81785e-10
9.38007e-10
8.9199e-10
8.43722e-10
7.9333e-10
7.41016e-10
6.86991e-10
6.31812e-10
5.76274e-10
5.21432e-10
4.68706e-10
4.18893e-10
3.71614e-10
3.24998e-10
2.75925e-10
2.20488e-10
1.55507e-10
8.344e-11
2.28154e-11
1.0447e-12
3.21567e-12
9.91837e-11
8.30776e-10
3.65626e-09
1.19744e-08
2.76839e-08
1.50866e-08
1.50844e-08
1.5079e-08
1.50714e-08
1.50615e-08
1.50489e-08
1.50335e-08
1.50153e-08
1.49942e-08
1.49698e-08
1.4942e-08
1.49109e-08
1.48757e-08
1.48363e-08
1.47918e-08
1.47427e-08
1.46883e-08
1.46282e-08
1.4562e-08
1.44892e-08
1.44093e-08
1.43214e-08
1.42253e-08
1.41205e-08
1.40067e-08
1.38825e-08
1.37474e-08
1.36011e-08
1.34424e-08
1.32706e-08
1.30858e-08
1.28865e-08
1.26713e-08
1.24403e-08
1.21928e-08
1.19272e-08
1.16432e-08
1.13401e-08
1.10172e-08
1.06737e-08
1.03092e-08
9.92337e-09
9.51568e-09
9.08583e-09
8.63402e-09
8.15982e-09
7.66477e-09
7.15034e-09
6.61899e-09
6.07592e-09
5.52829e-09
4.9869e-09
4.46548e-09
3.97173e-09
3.50238e-09
3.03995e-09
2.5562e-09
2.01728e-09
1.39963e-09
7.36028e-10
1.98445e-10
9.44465e-12
2.94349e-11
8.19114e-10
6.45537e-09
2.73199e-08
8.5647e-08
2.01749e-07
7.37898e-08
7.3777e-08
7.37487e-08
7.37099e-08
7.36587e-08
7.35954e-08
7.35184e-08
7.34277e-08
7.33224e-08
7.32006e-08
7.30628e-08
7.29072e-08
7.27329e-08
7.25372e-08
7.23177e-08
7.20745e-08
7.18059e-08
7.15091e-08
7.11823e-08
7.08226e-08
7.04279e-08
6.99948e-08
6.95208e-08
6.90043e-08
6.84426e-08
6.78302e-08
6.71643e-08
6.64434e-08
6.56618e-08
6.48165e-08
6.39053e-08
6.29226e-08
6.18629e-08
6.07252e-08
5.95044e-08
5.8196e-08
5.67953e-08
5.53014e-08
5.37086e-08
5.20147e-08
5.02165e-08
4.83119e-08
4.62987e-08
4.41756e-08
4.1941e-08
3.9596e-08
3.71451e-08
3.45959e-08
3.19608e-08
2.92625e-08
2.65364e-08
2.3837e-08
2.12301e-08
1.8755e-08
1.63988e-08
1.40822e-08
1.16829e-08
9.06306e-09
6.15298e-09
3.15479e-09
8.37162e-10
4.1868e-11
1.32451e-10
3.26064e-09
2.39836e-08
9.69701e-08
2.88122e-07
6.85873e-07
2.56898e-07
2.56847e-07
2.5674e-07
2.56595e-07
2.56409e-07
2.56182e-07
2.55906e-07
2.55582e-07
2.55207e-07
2.54776e-07
2.54287e-07
2.53736e-07
2.53119e-07
2.52428e-07
2.51657e-07
2.50802e-07
2.49855e-07
2.48813e-07
2.47665e-07
2.46401e-07
2.45016e-07
2.43497e-07
2.41835e-07
2.40025e-07
2.38054e-07
2.35908e-07
2.33576e-07
2.3105e-07
2.28312e-07
2.2535e-07
2.22156e-07
2.18711e-07
2.14997e-07
2.11008e-07
2.06727e-07
2.02135e-07
1.97223e-07
1.91978e-07
1.86386e-07
1.80435e-07
1.74114e-07
1.67416e-07
1.60332e-07
1.52852e-07
1.44974e-07
1.36698e-07
1.28038e-07
1.19019e-07
1.09682e-07
1.001e-07
9.03963e-08
8.07653e-08
7.14379e-08
6.25593e-08
5.41031e-08
4.58294e-08
3.73828e-08
2.83996e-08
1.87959e-08
9.369e-09
2.44559e-09
1.29543e-10
4.1693e-10
8.95742e-09
6.11055e-08
2.34544e-07
6.54659e-07
1.56076e-06
7.27594e-07
7.27419e-07
7.27087e-07
7.26648e-07
7.26093e-07
7.25424e-07
7.24618e-07
7.23674e-07
7.22583e-07
7.21339e-07
7.19927e-07
7.18337e-07
7.1656e-07
7.14578e-07
7.12371e-07
7.09922e-07
7.07215e-07
7.04237e-07
7.00955e-07
6.9735e-07
6.93399e-07
6.8907e-07
6.84338e-07
6.79184e-07
6.7357e-07
6.67461e-07
6.60826e-07
6.53634e-07
6.45839e-07
6.37408e-07
6.28312e-07
6.18497e-07
6.07923e-07
5.96552e-07
5.84345e-07
5.71253e-07
5.57241e-07
5.42268e-07
5.26298e-07
5.09288e-07
4.9121e-07
4.72034e-07
4.51729e-07
4.30264e-07
4.07628e-07
3.83814e-07
3.58858e-07
3.32827e-07
3.05819e-07
2.78031e-07
2.49814e-07
2.21742e-07
1.94479e-07
1.68486e-07
1.43774e-07
1.19802e-07
9.58001e-08
7.10711e-08
4.57474e-08
2.21369e-08
5.68408e-09
3.21045e-10
1.05326e-09
1.95213e-08
1.22662e-07
4.43882e-07
1.15374e-06
2.73854e-06
1.78657e-06
1.78603e-06
1.78512e-06
1.78395e-06
1.7825e-06
1.78077e-06
1.77871e-06
1.7763e-06
1.77354e-06
1.7704e-06
1.76685e-06
1.76288e-06
1.75844e-06
1.7535e-06
1.748e-06
1.74192e-06
1.73521e-06
1.72783e-06
1.71971e-06
1.7108e-06
1.70104e-06
1.69035e-06
1.67869e-06
1.66598e-06
1.65214e-06
1.63708e-06
1.62073e-06
1.60301e-06
1.5838e-06
1.56303e-06
1.5406e-06
1.5164e-06
1.49031e-06
1.46226e-06
1.43212e-06
1.39979e-06
1.36515e-06
1.32812e-06
1.28858e-06
1.24644e-06
1.20159e-06
1.15397e-06
1.10347e-06
1.05e-06
9.93517e-07
9.33996e-07
8.71505e-07
8.06185e-07
7.38253e-07
6.68165e-07
5.96811e-07
5.25665e-07
4.56446e-07
3.90467e-07
3.28053e-07
2.68278e-07
2.09847e-07
1.51741e-07
9.48651e-08
4.45294e-08
1.12501e-08
6.82213e-10
2.28478e-09
3.61125e-08
2.0731e-07
7.01793e-07
1.68367e-06
3.97096e-06
3.92939e-06
3.92789e-06
3.92558e-06
3.92271e-06
3.91923e-06
3.91514e-06
3.91034e-06
3.9048e-06
3.89847e-06
3.89132e-06
3.88329e-06
3.87433e-06
3.86437e-06
3.85329e-06
3.84102e-06
3.82747e-06
3.81257e-06
3.7962e-06
3.77821e-06
3.7585e-06
3.73693e-06
3.71335e-06
3.68763e-06
3.65962e-06
3.62913e-06
3.59597e-06
3.55996e-06
3.52093e-06
3.47866e-06
3.43292e-06
3.38351e-06
3.33018e-06
3.27267e-06
3.21077e-06
3.14424e-06
3.07282e-06
2.99623e-06
2.91427e-06
2.82667e-06
2.73317e-06
2.63354e-06
2.52756e-06
2.41497e-06
2.29554e-06
2.16912e-06
2.03562e-06
1.89516e-06
1.74802e-06
1.59462e-06
1.43594e-06
1.27403e-06
1.11239e-06
9.55069e-07
8.05521e-07
6.6523e-07
5.33059e-07
4.07275e-07
2.86718e-07
1.73939e-07
7.91506e-08
1.96863e-08
1.29209e-09
4.42068e-09
5.88488e-08
3.05683e-07
9.59346e-07
2.12286e-06
4.93811e-06
7.85357e-06
7.84961e-06
7.84413e-06
7.83758e-06
7.82983e-06
7.82087e-06
7.81057e-06
7.7988e-06
7.7855e-06
7.7706e-06
7.75398e-06
7.73556e-06
7.71518e-06
7.69263e-06
7.66774e-06
7.64034e-06
7.61031e-06
7.5774e-06
7.54133e-06
7.50187e-06
7.45878e-06
7.41175e-06
7.36052e-06
7.30473e-06
7.24407e-06
7.17814e-06
7.10656e-06
7.02897e-06
6.94493e-06
6.85395e-06
6.75564e-06
6.64944e-06
6.53486e-06
6.41142e-06
6.2786e-06
6.13583e-06
5.98255e-06
5.81827e-06
5.64239e-06
5.45431e-06
5.25351e-06
5.0394e-06
4.81137e-06
4.5689e-06
4.31154e-06
4.0391e-06
3.75177e-06
3.45001e-06
3.13464e-06
2.80764e-06
2.47347e-06
2.13971e-06
1.81524e-06
1.50826e-06
1.22331e-06
9.59675e-07
7.15588e-07
4.90037e-07
2.88211e-07
1.27045e-07
3.11391e-08
2.23481e-09
7.80872e-09
8.63594e-08
4.01387e-07
1.15497e-06
2.36617e-06
5.36349e-06
1.43125e-05
1.4303e-05
1.4291e-05
1.42772e-05
1.42613e-05
1.42434e-05
1.4223e-05
1.42002e-05
1.41746e-05
1.41462e-05
1.41149e-05
1.40804e-05
1.40425e-05
1.40008e-05
1.3955e-05
1.39048e-05
1.385e-05
1.37902e-05
1.37248e-05
1.36535e-05
1.35758e-05
1.34911e-05
1.3399e-05
1.32989e-05
1.31901e-05
1.30719e-05
1.29437e-05
1.28046e-05
1.2654e-05
1.24908e-05
1.23144e-05
1.21236e-05
1.19176e-05
1.16953e-05
1.14557e-05
1.11978e-05
1.09204e-05
1.06223e-05
1.03025e-05
9.95951e-06
9.59227e-06
9.19943e-06
8.77965e-06
8.33172e-06
7.85462e-06
7.34788e-06
6.81173e-06
6.24695e-06
5.65494e-06
5.03952e-06
4.40956e-06
3.78017e-06
3.16922e-06
2.59418e-06
2.06614e-06
1.58625e-06
1.1536e-06
7.6772e-07
4.37212e-07
1.8651e-07
4.51358e-08
3.58928e-09
1.27859e-08
1.15749e-07
4.75333e-07
1.23566e-06
2.35926e-06
5.11381e-06
1.3475e-05
2.38396e-05
2.38199e-05
2.37964e-05
2.37701e-05
2.37406e-05
2.37078e-05
2.36713e-05
2.36308e-05
2.35861e-05
2.3537e-05
2.34833e-05
2.34246e-05
2.33606e-05
2.32906e-05
2.32141e-05
2.31307e-05
2.30401e-05
2.29416e-05
2.28343e-05
2.27176e-05
2.25907e-05
2.24529e-05
2.23032e-05
2.21407e-05
2.19642e-05
2.17728e-05
2.15651e-05
2.13399e-05
2.10958e-05
2.08314e-05
2.05451e-05
2.02354e-05
1.99003e-05
1.95383e-05
1.91475e-05
1.87257e-05
1.82711e-05
1.77813e-05
1.7254e-05
1.66869e-05
1.60774e-05
1.54228e-05
1.47204e-05
1.39677e-05
1.31625e-05
1.23037e-05
1.13912e-05
1.04262e-05
9.41085e-06
8.35163e-06
7.2646e-06
6.17706e-06
5.1218e-06
4.13252e-06
3.23262e-06
2.42805e-06
1.72072e-06
1.1113e-06
6.11737e-07
2.52264e-07
6.04821e-08
5.42131e-09
1.96148e-08
1.43153e-07
5.12268e-07
1.18267e-06
2.11838e-06
4.26199e-06
1.2249e-05
2.51257e-05
3.6563e-05
3.65269e-05
3.64859e-05
3.64408e-05
3.6391e-05
3.63367e-05
3.6277e-05
3.62117e-05
3.61404e-05
3.60627e-05
3.59783e-05
3.58869e-05
3.57878e-05
3.56802e-05
3.55632e-05
3.54364e-05
3.52992e-05
3.51506e-05
3.49893e-05
3.48144e-05
3.46248e-05
3.44194e-05
3.41967e-05
3.39552e-05
3.36934e-05
3.34096e-05
3.31018e-05
3.27682e-05
3.24066e-05
3.20146e-05
3.15899e-05
3.11299e-05
3.06318e-05
3.00927e-05
2.95095e-05
2.88789e-05
2.81974e-05
2.74612e-05
2.66662e-05
2.5808e-05
2.48821e-05
2.38836e-05
2.28075e-05
2.16488e-05
2.04035e-05
1.90689e-05
1.76443e-05
1.61305e-05
1.45302e-05
1.28534e-05
1.11262e-05
9.39328e-06
7.70976e-06
6.13505e-06
4.71357e-06
3.46132e-06
2.38681e-06
1.49271e-06
7.92343e-07
3.15538e-07
7.53933e-08
7.78551e-09
2.84261e-08
1.64862e-07
5.06782e-07
1.0268e-06
1.72245e-06
3.08026e-06
9.49839e-06
2.15822e-05
5.6313e-05
5.22097e-05
5.21507e-05
5.20858e-05
5.20152e-05
5.19387e-05
5.1856e-05
5.17663e-05
5.1669e-05
5.15637e-05
5.14499e-05
5.13272e-05
5.11952e-05
5.1053e-05
5.08993e-05
5.07332e-05
5.05539e-05
5.03607e-05
5.01522e-05
4.99268e-05
4.96831e-05
4.94197e-05
4.91348e-05
4.88267e-05
4.84932e-05
4.8132e-05
4.77407e-05
4.73167e-05
4.68573e-05
4.63593e-05
4.58193e-05
4.52339e-05
4.45993e-05
4.39113e-05
4.31657e-05
4.23578e-05
4.14824e-05
4.05342e-05
3.95071e-05
3.83946e-05
3.71896e-05
3.58846e-05
3.44715e-05
3.29419e-05
3.12874e-05
2.95006e-05
2.75764e-05
2.5512e-05
2.33073e-05
2.09646e-05
1.84978e-05
1.59452e-05
1.33742e-05
1.08707e-05
8.53142e-06
6.43367e-06
4.61176e-06
3.08665e-06
1.86342e-06
9.50903e-07
3.65592e-07
8.79139e-08
1.07468e-08
3.91997e-08
1.78631e-07
4.65638e-07
8.23227e-07
1.27788e-06
1.92617e-06
6.10045e-06
1.57753e-05
5.38481e-05
7.02459e-05
7.01577e-05
7.0063e-05
6.9961e-05
6.98515e-05
6.97342e-05
6.96081e-05
6.94724e-05
6.93267e-05
6.91702e-05
6.90026e-05
6.88231e-05
6.86307e-05
6.84238e-05
6.82013e-05
6.79621e-05
6.77053e-05
6.74292e-05
6.71316e-05
6.68107e-05
6.64648e-05
6.60916e-05
6.56886e-05
6.52531e-05
6.47821e-05
6.42725e-05
6.37206e-05
6.31228e-05
6.24749e-05
6.17724e-05
6.10105e-05
6.01839e-05
5.92872e-05
5.83142e-05
5.72583e-05
5.61124e-05
5.48686e-05
5.35181e-05
5.20512e-05
5.04575e-05
4.87256e-05
4.6843e-05
4.47969e-05
4.2574e-05
4.01625e-05
3.75529e-05
3.47396e-05
3.17194e-05
2.84934e-05
2.5079e-05
2.15288e-05
1.79381e-05
1.44325e-05
1.11599e-05
8.24559e-06
5.75318e-06
3.72302e-06
2.16024e-06
1.05624e-06
3.92677e-07
9.65489e-08
1.44361e-08
5.18214e-08
1.84619e-07
4.04801e-07
6.2639e-07
8.84166e-07
1.07025e-06
3.27755e-06
9.59486e-06
4.70537e-05
9.00645e-05
8.99413e-05
8.98113e-05
8.96722e-05
8.95241e-05
8.93666e-05
8.91984e-05
8.90186e-05
8.88266e-05
8.86215e-05
8.84027e-05
8.81697e-05
8.7921e-05
8.76547e-05
8.73693e-05
8.70637e-05
8.67366e-05
8.6386e-05
8.60092e-05
8.56041e-05
8.51683e-05
8.46992e-05
8.41937e-05
8.3648e-05
8.30588e-05
8.24219e-05
8.17328e-05
8.09868e-05
8.01785e-05
7.93022e-05
7.83518e-05
7.73204e-05
7.62008e-05
7.49849e-05
7.36642e-05
7.22288e-05
7.06682e-05
6.89704e-05
6.71221e-05
6.51086e-05
6.29139e-05
6.05203e-05
5.79093e-05
5.50616e-05
5.19593e-05
4.85873e-05
4.49348e-05
4.09943e-05
3.67639e-05
3.22641e-05
2.75638e-05
2.27915e-05
1.81234e-05
1.37754e-05
9.93882e-06
6.71909e-06
4.18079e-06
2.31906e-06
1.0834e-06
3.91616e-07
1.00879e-07
1.91842e-08
6.62456e-08
1.85465e-07
3.42845e-07
4.72195e-07
6.00206e-07
6.77811e-07
1.66148e-06
4.82062e-06
3.64677e-05
0.000111134
0.000110971
0.0001108
0.000110618
0.000110426
0.000110223
0.000110007
0.000109777
0.000109533
0.000109273
0.000108997
0.000108704
0.000108393
0.00010806
0.000107705
0.000107326
0.000106922
0.00010649
0.000106026
0.000105529
0.000104996
0.000104423
0.000103806
0.000103142
0.000102425
0.000101651
0.000100815
9.99105e-05
9.89309e-05
9.78693e-05
9.67181e-05
9.54689e-05
9.41125e-05
9.26389e-05
9.10372e-05
8.92949e-05
8.73983e-05
8.53318e-05
8.30781e-05
8.06179e-05
7.79297e-05
7.49899e-05
7.17731e-05
6.82531e-05
6.44044e-05
6.02045e-05
5.56355e-05
5.06839e-05
4.53431e-05
3.96365e-05
3.36518e-05
2.75579e-05
2.1596e-05
1.60712e-05
1.12625e-05
7.32812e-06
4.35239e-06
2.29455e-06
1.02375e-06
3.64382e-07
1.01865e-07
2.62873e-08
8.27943e-08
1.85613e-07
2.95185e-07
3.76783e-07
4.65486e-07
5.30092e-07
1.01841e-06
2.44598e-06
2.40689e-05
0.000133073
0.000132863
0.000132646
0.000132416
0.000132173
0.000131918
0.000131647
0.000131361
0.000131057
0.000130736
0.000130395
0.000130035
0.000129653
0.000129247
0.000128814
0.000128353
0.000127863
0.000127339
0.00012678
0.000126181
0.00012554
0.000124852
0.000124113
0.000123318
0.000122462
0.000121539
0.000120542
0.000119465
0.0001183
0.000117037
0.000115669
0.000114185
0.000112574
0.000110823
0.00010892
0.000106849
0.000104593
0.000102132
9.94456e-05
9.65082e-05
9.32928e-05
8.97692e-05
8.59044e-05
8.1664e-05
7.70136e-05
7.19219e-05
6.63621e-05
6.03125e-05
5.37608e-05
4.67338e-05
3.93423e-05
3.18071e-05
2.44552e-05
1.77094e-05
1.19611e-05
7.4227e-06
4.17166e-06
2.08057e-06
8.91125e-07
3.19958e-07
1.01691e-07
3.94889e-08
1.02799e-07
1.90917e-07
2.78828e-07
3.68034e-07
4.53733e-07
5.23198e-07
8.58366e-07
1.45217e-06
1.29746e-05
0.000155651
0.000155387
0.000155116
0.00015483
0.00015453
0.000154214
0.000153881
0.00015353
0.000153159
0.000152767
0.000152352
0.000151915
0.000151452
0.000150962
0.00015044
0.000149887
0.000149298
0.000148672
0.000148003
0.000147289
0.000146526
0.000145709
0.000144832
0.000143891
0.000142878
0.000141788
0.000140612
0.000139342
0.00013797
0.000136485
0.000134877
0.000133134
0.000131242
0.000129188
0.000126954
0.000124524
0.000121876
0.000118987
0.00011583
0.000112375
0.000108589
0.000104434
9.98689e-05
9.48504e-05
8.9334e-05
8.32777e-05
7.66443e-05
6.94025e-05
6.15337e-05
5.30704e-05
4.4155e-05
3.50788e-05
2.62872e-05
1.83601e-05
1.1824e-05
6.9194e-06
3.64802e-06
1.72089e-06
7.18904e-07
2.71123e-07
1.03479e-07
6.28048e-08
1.32633e-07
2.19868e-07
3.1599e-07
4.26945e-07
5.27032e-07
6.14136e-07
9.17394e-07
1.14013e-06
5.7022e-06
0.000178753
0.000178427
0.000178094
0.000177743
0.000177375
0.00017699
0.000176584
0.000176158
0.000175708
0.000175233
0.000174734
0.000174207
0.000173651
0.000173062
0.000172438
0.000171776
0.000171075
0.000170329
0.000169535
0.000168688
0.000167784
0.000166817
0.000165783
0.000164673
0.000163481
0.000162199
0.000160818
0.00015933
0.000157722
0.000155985
0.000154105
0.000152069
0.000149861
0.000147465
0.000144862
0.000142031
0.000138946
0.000135581
0.000131903
0.000127876
0.000123461
0.000118612
0.000113278
0.000107407
0.000100943
9.38318e-05
8.60242e-05
7.74783e-05
6.81704e-05
5.81443e-05
4.75898e-05
3.69015e-05
2.66953e-05
1.77591e-05
1.07547e-05
5.86234e-06
2.88365e-06
1.29926e-06
5.47426e-07
2.30211e-07
1.18066e-07
1.01724e-07
1.85642e-07
2.8563e-07
4.03797e-07
5.46722e-07
6.70599e-07
7.86196e-07
1.10473e-06
1.18737e-06
2.82437e-06
0.000202337
0.000201938
0.000201532
0.000201105
0.000200658
0.000200191
0.0001997
0.000199185
0.000198642
0.000198072
0.000197471
0.00019684
0.000196174
0.00019547
0.000194726
0.000193937
0.000193102
0.000192217
0.000191275
0.000190272
0.000189204
0.000188063
0.000186843
0.000185537
0.000184136
0.000182631
0.000181012
0.000179269
0.00017739
0.000175361
0.000173168
0.000170795
0.000168226
0.000165439
0.000162415
0.000159126
0.000155546
0.000151642
0.000147376
0.000142706
0.000137585
0.000131959
0.000125768
0.000118948
0.000111431
0.00010315
9.40417e-05
8.4054e-05
7.31618e-05
6.14323e-05
4.91328e-05
3.68198e-05
2.536e-05
1.5796e-05
8.85251e-06
4.45218e-06
2.05077e-06
9.07375e-07
4.08982e-07
2.09989e-07
1.54265e-07
1.63619e-07
2.7022e-07
3.93882e-07
5.43697e-07
7.23535e-07
8.73866e-07
1.02771e-06
1.38067e-06
1.45783e-06
1.90742e-06
0.000229054
0.000228742
0.000228405
0.000228063
0.000227719
0.000227377
0.00022704
0.000226706
0.000226389
0.000225904
0.000225412
0.000224895
0.000224356
0.000223791
0.0002232
0.00022258
0.000221929
0.000221244
0.000220525
0.000219769
0.000218973
0.000218133
0.000217246
0.000216308
0.000215315
0.000214264
0.000213148
0.000211961
0.000210698
0.000209351
0.000207913
0.000206375
0.000204727
0.00020296
0.000201063
0.000199021
0.000196823
0.000194453
0.000191896
0.000189132
0.000186142
0.000182903
0.000179391
0.000175577
0.000171427
0.000166904
0.000161965
0.000156562
0.000150638
0.00014413
0.000136969
0.000129078
0.000120375
0.000110778
0.00010021
8.86116e-05
7.59638e-05
6.23833e-05
4.82728e-05
3.44536e-05
2.21508e-05
1.26414e-05
6.46703e-06
3.00418e-06
1.32391e-06
6.08974e-07
3.28053e-07
2.30444e-07
2.1845e-07
2.56824e-07
3.9425e-07
5.49337e-07
7.34962e-07
9.49425e-07
1.12207e-06
1.32396e-06
1.71053e-06
1.80945e-06
1.76328e-06
0.000254157
0.000253777
0.000253369
0.000252955
0.000252538
0.000252123
0.000251711
0.000251303
0.000250894
0.000250309
0.000249715
0.000249092
0.000248442
0.000247764
0.000247053
0.000246309
0.000245528
0.000244708
0.000243847
0.000242944
0.000241994
0.000240992
0.000239935
0.000238819
0.00023764
0.000236392
0.000235068
0.000233662
0.000232168
0.000230576
0.000228879
0.000227067
0.000225128
0.000223051
0.000220823
0.00021843
0.000215857
0.000213087
0.0002101
0.000206878
0.000203396
0.00019963
0.00019555
0.000191124
0.000186314
0.000181075
0.00017536
0.000169111
0.000162263
0.000154745
0.000146474
0.000137359
0.000127305
0.000116212
0.000103989
9.05751e-05
7.59816e-05
6.04266e-05
4.45611e-05
2.96374e-05
1.73182e-05
8.85342e-06
4.13197e-06
1.81822e-06
8.0828e-07
4.55305e-07
3.22181e-07
2.90637e-07
3.18314e-07
3.89192e-07
5.63007e-07
7.52106e-07
9.70744e-07
1.21006e-06
1.39575e-06
1.65796e-06
2.05354e-06
2.17709e-06
1.9177e-06
0.000279797
0.000279337
0.000278846
0.000278347
0.000277844
0.000277341
0.000276838
0.000276335
0.000275813
0.00027511
0.000274396
0.000273648
0.000272868
0.000272053
0.000271202
0.00027031
0.000269375
0.000268395
0.000267366
0.000266287
0.000265153
0.00026396
0.000262701
0.000261373
0.00025997
0.000258488
0.000256917
0.000255251
0.000253482
0.000251599
0.000249595
0.000247456
0.000245171
0.000242727
0.000240108
0.0002373
0.000234284
0.000231041
0.00022755
0.000223789
0.00021973
0.000215345
0.000210602
0.000205461
0.00019988
0.000193809
0.000187192
0.000179962
0.000172047
0.000163361
0.000153809
0.000143286
0.000131677
0.000118866
0.000104752
8.92907e-05
7.2573e-05
5.50336e-05
3.77815e-05
2.26989e-05
1.16965e-05
5.28879e-06
2.33039e-06
1.05153e-06
5.80833e-07
4.20386e-07
3.75256e-07
3.9465e-07
4.60821e-07
5.65758e-07
7.76346e-07
9.95361e-07
1.23745e-06
1.48667e-06
1.67392e-06
2.01526e-06
2.36484e-06
2.50121e-06
2.17038e-06
0.000305924
0.00030537
0.000304781
0.000304183
0.000303577
0.000302968
0.000302355
0.000301732
0.000301067
0.000300226
0.00029937
0.000298474
0.000297539
0.000296563
0.000295544
0.000294478
0.00029336
0.000292189
0.000290961
0.000289673
0.000288321
0.000286898
0.000285399
0.000283819
0.000282151
0.000280389
0.000278525
0.000276549
0.000274452
0.000272224
0.000269854
0.000267328
0.000264632
0.000261752
0.000258671
0.00025537
0.000251831
0.00024803
0.000243945
0.000239549
0.000234813
0.000229702
0.000224181
0.000218204
0.000211723
0.000204681
0.000197012
0.000188642
0.000179485
0.000169443
0.000158405
0.000146248
0.000132839
0.000118044
0.000101766
8.40274e-05
6.51168e-05
4.59278e-05
2.83418e-05
1.48153e-05
6.60794e-06
2.68419e-06
1.29172e-06
7.23665e-07
5.20537e-07
4.67965e-07
4.83725e-07
5.46735e-07
6.49231e-07
7.8617e-07
1.02696e-06
1.26546e-06
1.5171e-06
1.76026e-06
1.93847e-06
2.31492e-06
2.59417e-06
2.73622e-06
2.42195e-06
0.000332427
0.000331761
0.000331057
0.000330342
0.000329615
0.000328879
0.000328131
0.00032736
0.000326521
0.000325519
0.000324495
0.000323423
0.000322306
0.00032114
0.000319922
0.000318648
0.000317314
0.000315916
0.000314452
0.000312916
0.000311304
0.000309609
0.000307824
0.000305943
0.00030396
0.000301866
0.000299652
0.000297308
0.000294822
0.000292183
0.000289378
0.000286392
0.000283209
0.000279813
0.000276184
0.000272302
0.000268144
0.000263686
0.000258901
0.000253758
0.000248225
0.000242263
0.000235829
0.000228873
0.000221339
0.000213162
0.000204266
0.000194565
0.00018396
0.000172336
0.000159566
0.000145504
0.000129998
0.000112911
9.41933e-05
7.4058e-05
5.32744e-05
3.36196e-05
1.78469e-05
7.9298e-06
3.15232e-06
1.45559e-06
8.6427e-07
6.32334e-07
5.67622e-07
5.83975e-07
6.46896e-07
7.47125e-07
8.80517e-07
1.04304e-06
1.30081e-06
1.54457e-06
1.79132e-06
2.01591e-06
2.17724e-06
2.52595e-06
2.72609e-06
2.87424e-06
2.62603e-06
0.000359131
0.000358335
0.000357496
0.000356642
0.000355771
0.000354882
0.00035397
0.000353017
0.000351976
0.000350784
0.000349562
0.000348284
0.00034695
0.000345559
0.000344106
0.000342586
0.000340995
0.000339329
0.000337583
0.000335753
0.000333832
0.000331814
0.000329689
0.000327452
0.000325093
0.000322605
0.000319976
0.000317193
0.000314245
0.000311118
0.000307798
0.000304267
0.000300507
0.0002965
0.000292223
0.000287654
0.000282767
0.000277534
0.000271925
0.000265905
0.000259435
0.000252474
0.00024497
0.000236868
0.000228103
0.000218598
0.000208267
0.00019701
0.000184711
0.000171236
0.000156435
0.000140142
0.000122199
0.000102507
8.11964e-05
5.90016e-05
3.77247e-05
2.02699e-05
9.02287e-06
3.57806e-06
1.6386e-06
9.75399e-07
7.48647e-07
6.79859e-07
6.95723e-07
7.61032e-07
8.60441e-07
9.89197e-07
1.14434e-06
1.32212e-06
1.58005e-06
1.8149e-06
2.04532e-06
2.24539e-06
2.38455e-06
2.67078e-06
2.78299e-06
2.95015e-06
2.79374e-06
0.00038579
0.00038484
0.000383844
0.000382825
0.000381781
0.000380708
0.000379599
0.000378428
0.000377151
0.000375736
0.000374281
0.000372758
0.000371169
0.000369512
0.00036778
0.00036597
0.000364075
0.00036209
0.000360011
0.000357832
0.000355545
0.000353142
0.000350614
0.000347953
0.00034515
0.000342193
0.00033907
0.000335768
0.000332272
0.000328567
0.000324636
0.00032046
0.000316018
0.000311288
0.000306248
0.000300868
0.000295122
0.000288978
0.000282399
0.000275348
0.000267781
0.000259648
0.000250892
0.000241448
0.00023124
0.000220181
0.00020817
0.000195089
0.000180802
0.00016515
0.00014796
0.000129061
0.00010834
8.5894e-05
6.24185e-05
3.98586e-05
2.14152e-05
9.57806e-06
3.84997e-06
1.79338e-06
1.09289e-06
8.60105e-07
8.02651e-07
8.22172e-07
8.89456e-07
9.8894e-07
1.1132e-06
1.2592e-06
1.42448e-06
1.6053e-06
1.84729e-06
2.0625e-06
2.27012e-06
2.4427e-06
2.55951e-06
2.76824e-06
2.81034e-06
2.99474e-06
3.02704e-06
0.000412069
0.000410938
0.000409755
0.000408541
0.00040729
0.000405998
0.00040465
0.000403221
0.000401672
0.000399996
0.000398264
0.000396454
0.000394564
0.000392591
0.000390531
0.000388376
0.000386121
0.000383759
0.000381285
0.000378692
0.000375971
0.000373112
0.000370106
0.000366943
0.000363612
0.0003601
0.000356393
0.000352475
0.000348329
0.00034394
0.000339287
0.000334348
0.000329101
0.00032352
0.000317578
0.000311246
0.000304489
0.000297273
0.000289558
0.000281298
0.000272444
0.000262939
0.000252717
0.000241701
0.000229804
0.000216923
0.000202939
0.000187711
0.000171077
0.000152856
0.000132869
0.000111008
8.74147e-05
6.28893e-05
3.95118e-05
2.07718e-05
9.2108e-06
3.87539e-06
1.88745e-06
1.20514e-06
9.81348e-07
9.33169e-07
9.62589e-07
1.03311e-06
1.13187e-06
1.25145e-06
1.38786e-06
1.5388e-06
1.7023e-06
1.87507e-06
2.08944e-06
2.27927e-06
2.46242e-06
2.60741e-06
2.70283e-06
2.83972e-06
2.86742e-06
2.99027e-06
3.03936e-06
0.000437529
0.000436185
0.000434782
0.000433335
0.000431837
0.000430281
0.000428649
0.000426917
0.000425055
0.000423069
0.000421012
0.000418862
0.000416617
0.000414272
0.000411823
0.000409261
0.00040658
0.000403772
0.00040083
0.000397746
0.000394511
0.000391112
0.00038754
0.000383782
0.000379826
0.000375656
0.000371257
0.000366611
0.000361698
0.000356501
0.000350995
0.000345157
0.000338961
0.000332378
0.000325377
0.000317923
0.000309981
0.000301508
0.00029246
0.000282784
0.000272424
0.000261312
0.000249372
0.000236514
0.000222635
0.00020761
0.000191296
0.000173528
0.00015412
0.000132896
0.000109775
8.5012e-05
5.9707e-05
3.63931e-05
1.84661e-05
7.90173e-06
3.59224e-06
1.90813e-06
1.30553e-06
1.11077e-06
1.07708e-06
1.11533e-06
1.19042e-06
1.2879e-06
1.4017e-06
1.52807e-06
1.66457e-06
1.80944e-06
1.96144e-06
2.11842e-06
2.29945e-06
2.46275e-06
2.62305e-06
2.74243e-06
2.81772e-06
2.89932e-06
2.88343e-06
2.94274e-06
2.97582e-06
0.00046161
0.000460014
0.000458349
0.000456624
0.000454832
0.000452961
0.000450994
0.000448906
0.000446681
0.000444332
0.000441891
0.000439339
0.000436675
0.000433891
0.000430982
0.000427939
0.000424753
0.000421417
0.000417921
0.000414257
0.000410413
0.000406376
0.000402133
0.000397672
0.000392977
0.00038803
0.000382814
0.000377308
0.00037149
0.000365338
0.000358829
0.000351933
0.00034462
0.000336859
0.000328615
0.000319847
0.000310515
0.000300571
0.000289962
0.00027863
0.000266505
0.000253511
0.000239556
0.000224533
0.000208314
0.000190752
0.000171675
0.000150903
0.000128283
0.000103825
7.80263e-05
5.24822e-05
3.03158e-05
1.48806e-05
6.44001e-06
3.09016e-06
1.86002e-06
1.39572e-06
1.24739e-06
1.23356e-06
1.28075e-06
1.35858e-06
1.45388e-06
1.56078e-06
1.6763e-06
1.79842e-06
1.92557e-06
2.05654e-06
2.19104e-06
2.32852e-06
2.47574e-06
2.61445e-06
2.75538e-06
2.8517e-06
2.9086e-06
2.94907e-06
2.94369e-06
2.985e-06
3.01274e-06
3.02806e-06
0.000483606
0.000481711
0.000479734
0.000477679
0.000475536
0.000473291
0.000470928
0.000468427
0.00046578
0.000463
0.000460106
0.000457082
0.000453922
0.00045062
0.000447167
0.000443555
0.000439773
0.000435813
0.000431663
0.000427312
0.000422748
0.000417956
0.000412922
0.00040763
0.000402062
0.000396198
0.000390018
0.000383498
0.000376615
0.000369342
0.000361652
0.000353513
0.000344891
0.00033575
0.000326049
0.000315743
0.000304785
0.00029312
0.000280686
0.000267413
0.00025322
0.000238014
0.000221683
0.000204096
0.000185099
0.000164519
0.000142195
0.000118055
9.23346e-05
6.60462e-05
4.15656e-05
2.22659e-05
1.0234e-05
4.89629e-06
2.62832e-06
1.7866e-06
1.48253e-06
1.39212e-06
1.40061e-06
1.45596e-06
1.53452e-06
1.62563e-06
1.72441e-06
1.82844e-06
1.93622e-06
2.04662e-06
2.15866e-06
2.27176e-06
2.38647e-06
2.50407e-06
2.62035e-06
2.73801e-06
2.86365e-06
2.93917e-06
2.9795e-06
2.99783e-06
3.00387e-06
3.05446e-06
3.09025e-06
3.1235e-06
0.000502641
0.000500391
0.000498042
0.000495593
0.000493032
0.000490346
0.000487519
0.000484538
0.000481397
0.000478109
0.00047468
0.000471096
0.000467352
0.000463437
0.000459343
0.000455059
0.000450574
0.000445875
0.000440952
0.000435791
0.000430378
0.000424695
0.000418727
0.000412455
0.000405859
0.000398916
0.000391603
0.000383891
0.000375756
0.000367167
0.000358094
0.000348499
0.000338344
0.000327588
0.000316185
0.000304082
0.000291223
0.000277544
0.00026297
0.000247418
0.000230787
0.000212961
0.000193803
0.000173158
0.000150872
0.000126854
0.000101247
7.48251e-05
4.95248e-05
2.84556e-05
1.42362e-05
6.67653e-06
3.50885e-06
2.26076e-06
1.75487e-06
1.58014e-06
1.54595e-06
1.57553e-06
1.6367e-06
1.71356e-06
1.79851e-06
1.88793e-06
1.98002e-06
2.07379e-06
2.16847e-06
2.26345e-06
2.35822e-06
2.45266e-06
2.54806e-06
2.64748e-06
2.73717e-06
2.83776e-06
2.95219e-06
3.0085e-06
3.03401e-06
3.04437e-06
3.05944e-06
3.10475e-06
3.13539e-06
3.16317e-06
0.000520021
0.000517636
0.000514964
0.000512172
0.000509255
0.0005062
0.000502994
0.000499625
0.000496081
0.000492362
0.000488473
0.000484414
0.00048017
0.000475736
0.000471098
0.000466248
0.000461171
0.000455855
0.000450286
0.000444451
0.000438335
0.00043192
0.000425189
0.000418122
0.000410699
0.000402895
0.000394685
0.000386041
0.000376934
0.000367332
0.000357204
0.000346513
0.000335218
0.000323273
0.000310632
0.00029724
0.000283036
0.00026795
0.000251904
0.000234807
0.00021655
0.000197009
0.000176047
0.000153532
0.000129394
0.000103796
7.74832e-05
5.22421e-05
3.09736e-05
1.6182e-05
7.90489e-06
4.23915e-06
2.65992e-06
2.02374e-06
1.77863e-06
1.70278e-06
1.70941e-06
1.75444e-06
1.8179e-06
1.89053e-06
1.9676e-06
2.0468e-06
2.12692e-06
2.2073e-06
2.28752e-06
2.36721e-06
2.44607e-06
2.52391e-06
2.60098e-06
2.67905e-06
2.76291e-06
2.83065e-06
2.91795e-06
3.02496e-06
3.06274e-06
3.07522e-06
3.08097e-06
3.11129e-06
3.14233e-06
3.16522e-06
3.18851e-06
0.00053022
0.000527279
0.000524104
0.000520786
0.000517314
0.000513676
0.000509861
0.000505856
0.000501656
0.000497257
0.000492658
0.000487854
0.000482833
0.000477584
0.000472095
0.000466352
0.000460342
0.000454049
0.000447456
0.000440548
0.000433309
0.000425718
0.000417755
0.0004094
0.000400627
0.000391408