/*--------------------------------*- C++ -*----------------------------------*\
| =========                 |                                                 |
| \\      /  F ield         | OpenFOAM: The Open Source CFD Toolbox           |
|  \\    /   O peration     | Version:  2412                                  |
|   \\  /    A nd           | Website:  www.openfoam.com                      |
|    \\/     M anipulation  |                                                 |
\*---------------------------------------------------------------------------*/
FoamFile
{
    version     2.0;
    format      ascii;
    arch        "LSB;label=32;scalar=64";
    class       volScalarField;
    location    "180";
    object      nuTilda;
}
// * * * * * * * * * * * * * * * * * * * * * * * * * * * * * * * * * * * * * //

dimensions      [0 2 -1 0 0 0 0];

internalField   nonuniform List<scalar> 
7373
(
2.08145e-06
2.08138e-06
2.08123e-06
2.08101e-06
2.08068e-06
2.08025e-06
2.07975e-06
2.07913e-06
2.07841e-06
2.07761e-06
2.07668e-06
2.07561e-06
2.0744e-06
2.07306e-06
2.07156e-06
2.06986e-06
2.06798e-06
2.06589e-06
2.06359e-06
2.06107e-06
2.05827e-06
2.05516e-06
2.05174e-06
2.04802e-06
2.04394e-06
2.03947e-06
2.03455e-06
2.02919e-06
2.02335e-06
2.01694e-06
2.00999e-06
2.0024e-06
1.9941e-06
1.98508e-06
1.97528e-06
1.9646e-06
1.95297e-06
1.94034e-06
1.92661e-06
1.91166e-06
1.89541e-06
1.87773e-06
1.85852e-06
1.83762e-06
1.81486e-06
1.79001e-06
1.76292e-06
1.73342e-06
1.70129e-06
1.6665e-06
1.62915e-06
1.58959e-06
1.5486e-06
1.50669e-06
1.46342e-06
1.41664e-06
1.3616e-06
1.28954e-06
1.18448e-06
1.01682e-06
7.37179e-07
3.39174e-07
4.48056e-07
1.07409e-06
1.8469e-06
2.69231e-06
3.64879e-06
4.4886e-06
6.51174e-06
6.51153e-06
6.51102e-06
6.51024e-06
6.50921e-06
6.50788e-06
6.50624e-06
6.50429e-06
6.50205e-06
6.49949e-06
6.4965e-06
6.49316e-06
6.48938e-06
6.48515e-06
6.48036e-06
6.475e-06
6.46908e-06
6.46252e-06
6.45526e-06
6.44727e-06
6.43846e-06
6.4287e-06
6.41796e-06
6.40623e-06
6.3934e-06
6.37933e-06
6.36384e-06
6.34699e-06
6.32859e-06
6.3084e-06
6.28651e-06
6.26265e-06
6.23656e-06
6.20817e-06
6.17733e-06
6.14373e-06
6.10716e-06
6.06741e-06
6.02417e-06
5.97712e-06
5.92596e-06
5.87033e-06
5.80982e-06
5.74393e-06
5.67214e-06
5.59379e-06
5.50832e-06
5.41517e-06
5.31364e-06
5.20355e-06
5.08522e-06
4.95965e-06
4.82921e-06
4.69543e-06
4.55693e-06
4.40675e-06
4.23004e-06
3.99938e-06
3.66507e-06
3.1368e-06
2.26829e-06
1.04927e-06
1.38982e-06
3.27532e-06
5.57221e-06
8.07139e-06
1.08598e-05
1.33943e-05
1.15062e-05
1.15057e-05
1.15047e-05
1.15033e-05
1.15014e-05
1.1499e-05
1.1496e-05
1.14925e-05
1.14885e-05
1.14838e-05
1.14785e-05
1.14725e-05
1.14657e-05
1.14581e-05
1.14495e-05
1.14399e-05
1.14294e-05
1.14177e-05
1.14047e-05
1.13904e-05
1.13747e-05
1.13573e-05
1.13381e-05
1.13172e-05
1.12943e-05
1.12692e-05
1.12416e-05
1.12115e-05
1.11787e-05
1.11427e-05
1.11037e-05
1.10611e-05
1.10146e-05
1.09641e-05
1.09091e-05
1.08491e-05
1.07839e-05
1.0713e-05
1.06358e-05
1.05518e-05
1.04605e-05
1.03612e-05
1.0253e-05
1.01351e-05
1.00066e-05
9.8662e-06
9.71294e-06
9.5456e-06
9.36299e-06
9.16463e-06
8.95066e-06
8.72288e-06
8.48524e-06
8.24019e-06
7.98507e-06
7.70725e-06
7.38034e-06
6.95606e-06
6.34844e-06
5.40603e-06
3.89543e-06
1.81944e-06
2.41745e-06
5.55255e-06
9.30456e-06
1.335e-05
1.77763e-05
2.20466e-05
1.71241e-05
1.71234e-05
1.71217e-05
1.71195e-05
1.71165e-05
1.71128e-05
1.71083e-05
1.7103e-05
1.70968e-05
1.70897e-05
1.70816e-05
1.70725e-05
1.70623e-05
1.70507e-05
1.70378e-05
1.70234e-05
1.70075e-05
1.69898e-05
1.69703e-05
1.69488e-05
1.6925e-05
1.68988e-05
1.68701e-05
1.68386e-05
1.68041e-05
1.67662e-05
1.67248e-05
1.66796e-05
1.66302e-05
1.65763e-05
1.65175e-05
1.64535e-05
1.63836e-05
1.63075e-05
1.62247e-05
1.61345e-05
1.60363e-05
1.59295e-05
1.58132e-05
1.56867e-05
1.5549e-05
1.53991e-05
1.52357e-05
1.50576e-05
1.4863e-05
1.46503e-05
1.44177e-05
1.41632e-05
1.3885e-05
1.35816e-05
1.32531e-05
1.29019e-05
1.25332e-05
1.21503e-05
1.17488e-05
1.13095e-05
1.07931e-05
1.01288e-05
9.19357e-06
7.77906e-06
5.58289e-06
2.64005e-06
3.52093e-06
7.84352e-06
1.29217e-05
1.8339e-05
2.41179e-05
3.00406e-05
2.34303e-05
2.34291e-05
2.34266e-05
2.34233e-05
2.3419e-05
2.34138e-05
2.34074e-05
2.34e-05
2.33913e-05
2.33813e-05
2.337e-05
2.33572e-05
2.33429e-05
2.33268e-05
2.33089e-05
2.32889e-05
2.32667e-05
2.32422e-05
2.32151e-05
2.31852e-05
2.31523e-05
2.3116e-05
2.30762e-05
2.30325e-05
2.29847e-05
2.29323e-05
2.2875e-05
2.28124e-05
2.2744e-05
2.26694e-05
2.2588e-05
2.24993e-05
2.24024e-05
2.2297e-05
2.21823e-05
2.20572e-05
2.1921e-05
2.17728e-05
2.16114e-05
2.14357e-05
2.12443e-05
2.10357e-05
2.08082e-05
2.05598e-05
2.02881e-05
1.99906e-05
1.96645e-05
1.93071e-05
1.89149e-05
1.84858e-05
1.80187e-05
1.75165e-05
1.69856e-05
1.64296e-05
1.58423e-05
1.51969e-05
1.44407e-05
1.34802e-05
1.21569e-05
1.02132e-05
7.29915e-06
3.50144e-06
4.68992e-06
1.00991e-05
1.6333e-05
2.28989e-05
2.96869e-05
3.70803e-05
3.04954e-05
3.04935e-05
3.049e-05
3.04853e-05
3.04794e-05
3.04722e-05
3.04636e-05
3.04535e-05
3.04418e-05
3.04284e-05
3.04133e-05
3.03962e-05
3.0377e-05
3.03556e-05
3.03317e-05
3.03051e-05
3.02757e-05
3.02432e-05
3.02073e-05
3.01677e-05
3.01241e-05
3.00762e-05
3.00235e-05
2.99658e-05
2.99026e-05
2.98334e-05
2.97577e-05
2.96751e-05
2.95847e-05
2.94861e-05
2.93786e-05
2.92613e-05
2.91334e-05
2.89941e-05
2.88423e-05
2.86769e-05
2.84967e-05
2.83005e-05
2.80868e-05
2.78538e-05
2.75998e-05
2.73228e-05
2.70203e-05
2.66894e-05
2.63269e-05
2.59292e-05
2.54924e-05
2.5012e-05
2.44834e-05
2.3902e-05
2.32657e-05
2.25774e-05
2.18438e-05
2.10694e-05
2.02458e-05
1.93389e-05
1.82832e-05
1.69636e-05
1.519e-05
1.26651e-05
9.01309e-06
4.39328e-06
5.91281e-06
1.22727e-05
1.94538e-05
2.69007e-05
3.43069e-05
4.29218e-05
3.83988e-05
3.83958e-05
3.83907e-05
3.83842e-05
3.83761e-05
3.83665e-05
3.8355e-05
3.83415e-05
3.83261e-05
3.83085e-05
3.82886e-05
3.82663e-05
3.82413e-05
3.82135e-05
3.81824e-05
3.8148e-05
3.81099e-05
3.80679e-05
3.80215e-05
3.79704e-05
3.79143e-05
3.78525e-05
3.77848e-05
3.77106e-05
3.76293e-05
3.75404e-05
3.74431e-05
3.73369e-05
3.72209e-05
3.70942e-05
3.69561e-05
3.68054e-05
3.6641e-05
3.64619e-05
3.62668e-05
3.60541e-05
3.58223e-05
3.55697e-05
3.52944e-05
3.49941e-05
3.46665e-05
3.43086e-05
3.39173e-05
3.34885e-05
3.3018e-05
3.25007e-05
3.1931e-05
3.13027e-05
3.06085e-05
2.98414e-05
2.89973e-05
2.80782e-05
2.70915e-05
2.60421e-05
2.4921e-05
2.36877e-05
2.22661e-05
2.05221e-05
1.82382e-05
1.50877e-05
1.06916e-05
5.30437e-06
7.17606e-06
1.43162e-05
2.2198e-05
3.02165e-05
3.78137e-05
4.73557e-05
4.7223e-05
4.72182e-05
4.72108e-05
4.72016e-05
4.71904e-05
4.71773e-05
4.71619e-05
4.7144e-05
4.71237e-05
4.71006e-05
4.70747e-05
4.70457e-05
4.70135e-05
4.69775e-05
4.69376e-05
4.68935e-05
4.68448e-05
4.67912e-05
4.67321e-05
4.6667e-05
4.65956e-05
4.65173e-05
4.64314e-05
4.63374e-05
4.62345e-05
4.61219e-05
4.59989e-05
4.58645e-05
4.57178e-05
4.55577e-05
4.53831e-05
4.51926e-05
4.49849e-05
4.47584e-05
4.45116e-05
4.42425e-05
4.39491e-05
4.36293e-05
4.32805e-05
4.28997e-05
4.24838e-05
4.2029e-05
4.1531e-05
4.09845e-05
4.03836e-05
3.97215e-05
3.89907e-05
3.81825e-05
3.72864e-05
3.62917e-05
3.51916e-05
3.39873e-05
3.26865e-05
3.12961e-05
2.9808e-05
2.81778e-05
2.63212e-05
2.40882e-05
2.12389e-05
1.7428e-05
1.22986e-05
6.2228e-06
8.46387e-06
1.61797e-05
2.44806e-05
3.27239e-05
4.01576e-05
5.02078e-05
5.70161e-05
5.70081e-05
5.6997e-05
5.69837e-05
5.6968e-05
5.69498e-05
5.69289e-05
5.6905e-05
5.6878e-05
5.68476e-05
5.68137e-05
5.67761e-05
5.67344e-05
5.66882e-05
5.66371e-05
5.65807e-05
5.65188e-05
5.64507e-05
5.63759e-05
5.62938e-05
5.62038e-05
5.61052e-05
5.59974e-05
5.58794e-05
5.57504e-05
5.56095e-05
5.54555e-05
5.52874e-05
5.5104e-05
5.49039e-05
5.46856e-05
5.44475e-05
5.41879e-05
5.39048e-05
5.35962e-05
5.32596e-05
5.28925e-05
5.24921e-05
5.2055e-05
5.15775e-05
5.10554e-05
5.04839e-05
4.98569e-05
4.91679e-05
4.8409e-05
4.75713e-05
4.66448e-05
4.56177e-05
4.44757e-05
4.32037e-05
4.17918e-05
4.02403e-05
3.85575e-05
3.67543e-05
3.48262e-05
3.27267e-05
3.03665e-05
2.75831e-05
2.41198e-05
1.96261e-05
1.37947e-05
7.13648e-06
9.75825e-06
1.78133e-05
2.62244e-05
3.43163e-05
4.131e-05
5.1343e-05
6.7739e-05
6.77258e-05
6.77089e-05
6.76895e-05
6.76671e-05
6.76418e-05
6.76131e-05
6.75808e-05
6.75447e-05
6.75045e-05
6.74601e-05
6.74113e-05
6.73574e-05
6.7298e-05
6.72328e-05
6.71611e-05
6.70827e-05
6.69969e-05
6.69029e-05
6.68e-05
6.66875e-05
6.65647e-05
6.64304e-05
6.62838e-05
6.61239e-05
6.59493e-05
6.57587e-05
6.55509e-05
6.53242e-05
6.50769e-05
6.48073e-05
6.45133e-05
6.41926e-05
6.38429e-05
6.34615e-05
6.30455e-05
6.25916e-05
6.20961e-05
6.15548e-05
6.0963e-05
6.03151e-05
5.96048e-05
5.88246e-05
5.79658e-05
5.70182e-05
5.59707e-05
5.48104e-05
5.3522e-05
5.20865e-05
5.04842e-05
4.87016e-05
4.67385e-05
4.46047e-05
4.23164e-05
3.98755e-05
3.72357e-05
3.43058e-05
3.09151e-05
2.67978e-05
2.16151e-05
1.51389e-05
8.03416e-06
1.10395e-05
1.91724e-05
2.73711e-05
3.49162e-05
4.12785e-05
5.06843e-05
6.65411e-05
7.93023e-05
7.92811e-05
7.92559e-05
7.92277e-05
7.91959e-05
7.91606e-05
7.91213e-05
7.90777e-05
7.90295e-05
7.89765e-05
7.89183e-05
7.88549e-05
7.87855e-05
7.87095e-05
7.86264e-05
7.85356e-05
7.84368e-05
7.83292e-05
7.82117e-05
7.80836e-05
7.7944e-05
7.77918e-05
7.76261e-05
7.74455e-05
7.72487e-05
7.70342e-05
7.68005e-05
7.65459e-05
7.62684e-05
7.59659e-05
7.56362e-05
7.52767e-05
7.48848e-05
7.44574e-05
7.39914e-05
7.34829e-05
7.29278e-05
7.23217e-05
7.1659e-05
7.09338e-05
7.01393e-05
6.92672e-05
6.8308e-05
6.72509e-05
6.60832e-05
6.47909e-05
6.33581e-05
6.17655e-05
5.99894e-05
5.80046e-05
5.57941e-05
5.33573e-05
5.07057e-05
4.78628e-05
4.48387e-05
4.15897e-05
3.80272e-05
3.39788e-05
2.91798e-05
2.3323e-05
1.62911e-05
8.90702e-06
1.22874e-05
2.02237e-05
2.7895e-05
3.45256e-05
4.01355e-05
4.82594e-05
6.47068e-05
8.0666e-05
9.1657e-05
9.16248e-05
9.15881e-05
9.15477e-05
9.15031e-05
9.14544e-05
9.1401e-05
9.13424e-05
9.12783e-05
9.12085e-05
9.11326e-05
9.10504e-05
9.09611e-05
9.0864e-05
9.07584e-05
9.06437e-05
9.05195e-05
9.03847e-05
9.02382e-05
9.0079e-05
8.99062e-05
8.97185e-05
8.95145e-05
8.92927e-05
8.90515e-05
8.87892e-05
8.85038e-05
8.81933e-05
8.78552e-05
8.7487e-05
8.70861e-05
8.66492e-05
8.61732e-05
8.56542e-05
8.50884e-05
8.44712e-05
8.37975e-05
8.30616e-05
8.2257e-05
8.13761e-05
8.04103e-05
7.93496e-05
7.81823e-05
7.68949e-05
7.54722e-05
7.38971e-05
7.21506e-05
7.02092e-05
6.80438e-05
6.56239e-05
6.2929e-05
5.99576e-05
5.67233e-05
5.32577e-05
4.95819e-05
4.56573e-05
4.14039e-05
3.66562e-05
3.11648e-05
2.46774e-05
1.72167e-05
9.75099e-06
1.34834e-05
2.09545e-05
2.7819e-05
3.32976e-05
3.80372e-05
4.42707e-05
6.0147e-05
7.68199e-05
0.000108074
0.000104816
0.000104768
0.000104716
0.00010466
0.000104598
0.000104532
0.00010446
0.000104382
0.000104297
0.000104206
0.000104107
0.000104001
0.000103886
0.000103762
0.000103628
0.000103484
0.000103328
0.000103159
0.000102976
0.000102779
0.000102565
0.000102333
0.000102082
0.00010181
0.000101515
0.000101194
0.000100846
0.000100468
0.000100057
9.96097e-05
9.9123e-05
9.85933e-05
9.80165e-05
9.73882e-05
9.67035e-05
9.5957e-05
9.51424e-05
9.42529e-05
9.32804e-05
9.22156e-05
9.10483e-05
8.97662e-05
8.83551e-05
8.67991e-05
8.50798e-05
8.31773e-05
8.10691e-05
7.87277e-05
7.61185e-05
7.32055e-05
6.99648e-05
6.63942e-05
6.25096e-05
5.83522e-05
5.39561e-05
4.92915e-05
4.4295e-05
3.88203e-05
3.265e-05
2.56124e-05
1.78932e-05
1.05699e-05
1.46134e-05
2.13816e-05
2.72286e-05
3.14701e-05
3.52189e-05
3.91553e-05
5.31754e-05
6.97394e-05
0.000106123
0.000118825
0.000118758
0.000118686
0.000118609
0.000118526
0.000118436
0.000118341
0.000118237
0.000118127
0.000118007
0.00011788
0.000117743
0.000117597
0.000117439
0.000117269
0.000117087
0.000116891
0.00011668
0.000116453
0.000116208
0.000115943
0.000115658
0.000115349
0.000115015
0.000114654
0.000114262
0.000113837
0.000113377
0.000112877
0.000112334
0.000111744
0.000111102
0.000110404
0.000109645
0.000108817
0.000107916
0.000106933
0.000105861
0.000104689
0.000103406
0.000102
0.000100456
9.87585e-05
9.68872e-05
9.48214e-05
9.2538e-05
9.00109e-05
8.72086e-05
8.4091e-05
8.0617e-05
7.67596e-05
7.25168e-05
6.79074e-05
6.29839e-05
5.77973e-05
5.23313e-05
4.65494e-05
4.03405e-05
3.35394e-05
2.60793e-05
1.8319e-05
1.13799e-05
1.56721e-05
2.15597e-05
2.62806e-05
2.93557e-05
3.20487e-05
3.36527e-05
4.50026e-05
6.03197e-05
0.00010063
0.000133745
0.000133652
0.000133555
0.00013345
0.000133339
0.000133221
0.000133095
0.00013296
0.000132816
0.000132662
0.000132498
0.000132324
0.000132137
0.000131937
0.000131723
0.000131494
0.000131249
0.000130986
0.000130703
0.000130399
0.000130072
0.00012972
0.000129341
0.000128931
0.000128489
0.000128011
0.000127493
0.000126933
0.000126326
0.000125667
0.000124952
0.000124175
0.000123331
0.000122414
0.000121416
0.00012033
0.000119146
0.000117855
0.000116446
0.000114904
0.000113216
0.000111364
0.000109328
0.000107086
0.000104615
0.000101887
9.88736e-05
9.55385e-05
9.18365e-05
8.77216e-05
8.31647e-05
7.81648e-05
7.2746e-05
6.69756e-05
6.09269e-05
5.4604e-05
4.80116e-05
4.10937e-05
3.37581e-05
2.60615e-05
1.85218e-05
1.22193e-05
1.66672e-05
2.15845e-05
2.52001e-05
2.73252e-05
2.90391e-05
2.99504e-05
3.76842e-05
4.98827e-05
9.15718e-05
0.000149627
0.000149503
0.000149373
0.000149235
0.000149089
0.000148935
0.000148771
0.000148596
0.000148411
0.000148214
0.000148005
0.000147783
0.000147546
0.000147295
0.000147026
0.000146739
0.000146433
0.000146106
0.000145755
0.000145379
0.000144976
0.000144543
0.000144077
0.000143576
0.000143035
0.000142452
0.000141822
0.000141141
0.000140403
0.000139605
0.000138739
0.000137801
0.000136782
0.000135676
0.000134474
0.000133167
0.000131745
0.000130195
0.000128504
0.000126656
0.000124634
0.000122418
0.000119984
0.000117309
0.000114363
0.000111118
0.00010754
0.000103589
9.92139e-05
9.43654e-05
8.90131e-05
8.31588e-05
7.68354e-05
7.01312e-05
6.31505e-05
5.59289e-05
4.85315e-05
4.09799e-05
3.32722e-05
2.55909e-05
1.85671e-05
1.32219e-05
1.76259e-05
2.15888e-05
2.42657e-05
2.58083e-05
2.72263e-05
2.8138e-05
3.32277e-05
4.16698e-05
7.95479e-05
0.000166515
0.000166351
0.000166182
0.000166002
0.000165813
0.000165613
0.000165403
0.000165179
0.000164943
0.000164693
0.000164428
0.000164148
0.000163851
0.000163535
0.000163199
0.000162841
0.000162461
0.000162056
0.000161622
0.000161159
0.000160663
0.000160131
0.000159561
0.000158948
0.000158289
0.000157579
0.000156813
0.000155986
0.000155093
0.000154127
0.000153081
0.000151949
0.000150722
0.000149391
0.000147946
0.000146377
0.000144672
0.000142815
0.000140791
0.000138582
0.000136167
0.000133523
0.000130624
0.000127442
0.000123944
0.000120097
0.000115865
0.000111202
0.000106054
0.000100366
9.41095e-05
8.72914e-05
7.99593e-05
7.22319e-05
6.42605e-05
5.61282e-05
4.79835e-05
3.99478e-05
3.2113e-05
2.47642e-05
1.85591e-05
1.46404e-05
1.86097e-05
2.17425e-05
2.39192e-05
2.56555e-05
2.70506e-05
2.80447e-05
3.18074e-05
3.63969e-05
6.58048e-05
0.000184436
0.000184224
0.000184005
0.000183775
0.000183532
0.000183278
0.00018301
0.000182727
0.000182429
0.000182113
0.000181781
0.00018143
0.000181058
0.000180665
0.000180247
0.000179804
0.000179333
0.000178833
0.000178299
0.00017773
0.000177122
0.000176471
0.000175775
0.000175028
0.000174225
0.000173362
0.000172433
0.000171432
0.000170352
0.000169186
0.000167925
0.000166562
0.000165087
0.000163489
0.000161757
0.000159878
0.000157838
0.000155619
0.000153204
0.00015057
0.000147695
0.000144551
0.000141109
0.000137336
0.000133197
0.000128653
0.000123666
0.000118184
0.000112149
0.000105504
9.82212e-05
9.03195e-05
8.18695e-05
7.30371e-05
6.40458e-05
5.5048e-05
4.62983e-05
3.80282e-05
3.04023e-05
2.37508e-05
1.86405e-05
1.64458e-05
1.98395e-05
2.25292e-05
2.46864e-05
2.66371e-05
2.80967e-05
2.92088e-05
3.23521e-05
3.42026e-05
5.22046e-05
0.0002034
0.000203128
0.00020285
0.000202558
0.000202251
0.00020193
0.000201593
0.000201238
0.000200864
0.00020047
0.000200055
0.000199618
0.000199157
0.00019867
0.000198153
0.000197606
0.000197027
0.000196411
0.000195757
0.00019506
0.000194316
0.000193523
0.000192675
0.000191766
0.000190792
0.000189747
0.000188623
0.000187413
0.000186111
0.000184706
0.00018319
0.000181553
0.000179784
0.00017787
0.000175799
0.000173554
0.00017112
0.000168476
0.000165602
0.000162471
0.000159058
0.000155332
0.000151258
0.0001468
0.000141918
0.000136571
0.000130714
0.000124294
0.000117246
0.000109512
0.000101071
9.19592e-05
8.22867e-05
7.22939e-05
6.23172e-05
5.26002e-05
4.35082e-05
3.53694e-05
2.83685e-05
2.27915e-05
1.92681e-05
1.85606e-05
2.15897e-05
2.40651e-05
2.62641e-05
2.83593e-05
2.9869e-05
3.1103e-05
3.39272e-05
3.45607e-05
4.32712e-05
0.000223395
0.000223052
0.000222702
0.000222335
0.000221952
0.00022155
0.000221129
0.000220687
0.000220222
0.000219734
0.00021922
0.000218679
0.00021811
0.00021751
0.000216875
0.000216203
0.000215492
0.000214739
0.00021394
0.000213089
0.000212184
0.000211219
0.000210189
0.000209088
0.000207908
0.000206645
0.000205288
0.000203831
0.000202263
0.000200576
0.000198757
0.000196796
0.00019468
0.000192394
0.000189922
0.000187249
0.000184352
0.00018121
0.000177799
0.000174089
0.000170049
0.000165646
0.00016084
0.00015559
0.000149853
0.000143582
0.000136729
0.000129236
0.000121036
0.000112071
0.000102332
9.18864e-05
8.09108e-05
6.97669e-05
5.89617e-05
4.88274e-05
3.97982e-05
3.22615e-05
2.6349e-05
2.22699e-05
2.06074e-05
2.09147e-05
2.37308e-05
2.60995e-05
2.83194e-05
3.0452e-05
3.1953e-05
3.33051e-05
3.59267e-05
3.64334e-05
3.9056e-05
0.000246745
0.000246468
0.00024617
0.000245867
0.000245562
0.00024526
0.000244961
0.000244665
0.000244385
0.000243957
0.000243522
0.000243066
0.00024259
0.000242092
0.000241571
0.000241024
0.000240451
0.000239849
0.000239216
0.000238552
0.000237854
0.000237117
0.00023634
0.000235519
0.000234651
0.000233733
0.00023276
0.000231726
0.000230627
0.000229457
0.00022821
0.000226879
0.000225455
0.000223932
0.000222299
0.000220547
0.000218666
0.000216643
0.000214466
0.000212123
0.000209597
0.000206873
0.000203932
0.000200755
0.000197317
0.000193594
0.000189556
0.000185172
0.000180405
0.000175217
0.000169565
0.000163404
0.000156684
0.000149357
0.000141367
0.000132655
0.000123152
0.000112806
0.00010163
8.97497e-05
7.74568e-05
6.53052e-05
5.40328e-05
4.39798e-05
3.55407e-05
2.91462e-05
2.4921e-05
2.27974e-05
2.24925e-05
2.34286e-05
2.61057e-05
2.83936e-05
3.05737e-05
3.2637e-05
3.40629e-05
3.55411e-05
3.79688e-05
3.85256e-05
3.82685e-05
0.000269263
0.000268918
0.000268548
0.000268173
0.000267796
0.000267419
0.000267047
0.000266677
0.000266307
0.000265778
0.000265242
0.000264679
0.000264093
0.00026348
0.00026284
0.000262169
0.000261465
0.000260728
0.000259954
0.000259142
0.000258289
0.00025739
0.000256443
0.000255444
0.000254389
0.000253274
0.000252093
0.00025084
0.00024951
0.000248096
0.00024659
0.000244985
0.000243271
0.000241439
0.000239479
0.000237378
0.000235125
0.000232706
0.000230108
0.000227314
0.000224307
0.000221069
0.000217578
0.000213811
0.000209742
0.000205341
0.000200575
0.000195408
0.000189799
0.000183706
0.00017708
0.000169872
0.000162029
0.000153496
0.000144216
0.000134128
0.000123166
0.000111291
9.85613e-05
8.52129e-05
7.17402e-05
5.89634e-05
4.78611e-05
3.85739e-05
3.13234e-05
2.70743e-05
2.48076e-05
2.41708e-05
2.47321e-05
2.60206e-05
2.85713e-05
3.07537e-05
3.28228e-05
3.4729e-05
3.60273e-05
3.76636e-05
3.98122e-05
4.04222e-05
3.91106e-05
0.000292738
0.000292314
0.000291859
0.000291399
0.000290935
0.000290471
0.000290008
0.000289544
0.000289062
0.000288415
0.000287758
0.000287069
0.000286352
0.000285603
0.00028482
0.000284002
0.000283144
0.000282245
0.000281302
0.000280314
0.000279277
0.000278186
0.000277036
0.000275824
0.000274546
0.000273196
0.000271768
0.000270255
0.00026865
0.000266946
0.000265133
0.000263203
0.000261144
0.000258947
0.000256598
0.000254085
0.000251393
0.000248508
0.000245413
0.000242089
0.000238518
0.000234677
0.000230543
0.000226089
0.000221284
0.000216094
0.000210483
0.00020441
0.00019783
0.000190694
0.000182952
0.000174548
0.000165426
0.000155527
0.000144792
0.000133164
0.00012059
0.000107064
9.27401e-05
7.8063e-05
6.38448e-05
5.11481e-05
4.1146e-05
3.3501e-05
2.87982e-05
2.6533e-05
2.57818e-05
2.61124e-05
2.7157e-05
2.86066e-05
3.10033e-05
3.30337e-05
3.49292e-05
3.6618e-05
3.7757e-05
3.96179e-05
4.1304e-05
4.19139e-05
4.03897e-05
0.000317061
0.000316541
0.000315989
0.000315428
0.000314861
0.000314291
0.000313717
0.000313135
0.000312512
0.000311726
0.000310926
0.000310088
0.000309216
0.000308305
0.000307355
0.00030636
0.000305319
0.000304229
0.000303086
0.000301889
0.000300633
0.000299312
0.000297922
0.000296458
0.000294914
0.000293285
0.000291563
0.000289741
0.000287809
0.00028576
0.000283583
0.000281267
0.0002788
0.00027617
0.000273363
0.000270363
0.000267155
0.000263721
0.000260042
0.000256097
0.000251865
0.00024732
0.000242435
0.000237179
0.000231519
0.000225415
0.000218827
0.000211709
0.000204011
0.000195681
0.000186664
0.000176901
0.000166332
0.000154897
0.000142538
0.000129216
0.00011491
9.96997e-05
8.39408e-05
6.84391e-05
5.43538e-05
4.26966e-05
3.53165e-05
3.04534e-05
2.80085e-05
2.7263e-05
2.74927e-05
2.83595e-05
2.96241e-05
3.11027e-05
3.32989e-05
3.51306e-05
3.68098e-05
3.82516e-05
3.92201e-05
4.10745e-05
4.23164e-05
4.29122e-05
4.15624e-05
0.000342063
0.000341432
0.000340764
0.000340086
0.000339397
0.0003387
0.000337991
0.000337261
0.000336467
0.000335519
0.00033455
0.000333537
0.000332481
0.000331379
0.00033023
0.000329028
0.00032777
0.000326452
0.000325073
0.000323627
0.000322111
0.000320518
0.000318842
0.000317078
0.00031522
0.00031326
0.00031119
0.000309
0.000306681
0.000304223
0.000301614
0.000298843
0.000295893
0.000292753
0.000289404
0.000285831
0.000282015
0.000277936
0.000273572
0.000268901
0.000263896
0.00025853
0.000252771
0.000246585
0.000239932
0.000232772
0.000225057
0.000216738
0.000207761
0.000198069
0.000187605
0.000176308
0.000164119
0.000150978
0.000136843
0.000121714
0.000105667
8.89834e-05
7.24034e-05
5.71699e-05
4.45417e-05
3.6419e-05
3.18631e-05
2.94263e-05
2.86305e-05
2.88376e-05
2.9597e-05
3.07018e-05
3.20149e-05
3.34315e-05
3.53802e-05
3.69806e-05
3.84252e-05
3.96212e-05
4.04229e-05
4.2022e-05
4.28705e-05
4.34708e-05
4.2452e-05
0.000367525
0.000366762
0.00036596
0.000365142
0.000364308
0.000363458
0.000362586
0.000361675
0.00036068
0.000359541
0.000358374
0.000357154
0.000355881
0.000354554
0.000353169
0.000351722
0.000350207
0.000348621
0.000346961
0.000345222
0.000343398
0.000341482
0.000339467
0.000337348
0.000335116
0.000332764
0.00033028
0.000327655
0.000324878
0.000321936
0.000318818
0.000315507
0.000311988
0.000308246
0.000304261
0.000300014
0.000295484
0.000290649
0.000285485
0.000279964
0.000274059
0.000267737
0.000260963
0.000253699
0.000245902
0.000237524
0.000228517
0.000218825
0.000208393
0.00019716
0.000185069
0.000172063
0.000158087
0.000143097
0.000127091
0.000110181
9.269e-05
7.53169e-05
5.92794e-05
4.60608e-05
3.75494e-05
3.2863e-05
3.07177e-05
2.99734e-05
3.01498e-05
3.08463e-05
3.1827e-05
3.29812e-05
3.4235e-05
3.55284e-05
3.7198e-05
3.85557e-05
3.97706e-05
4.0749e-05
4.13936e-05
4.26405e-05
4.31037e-05
4.37701e-05
4.31474e-05
0.000393156
0.000392239
0.000391278
0.000390296
0.000389289
0.000388256
0.000387186
0.000386059
0.000384829
0.000383468
0.000382067
0.000380603
0.000379075
0.000377482
0.00037582
0.000374082
0.000372263
0.00037036
0.000368368
0.000366281
0.000364092
0.000361794
0.000359379
0.000356838
0.000354165
0.000351347
0.000348375
0.000345236
0.000341917
0.000338404
0.000334683
0.000330737
0.000326548
0.000322097
0.000317364
0.000312326
0.000306961
0.000301243
0.000295144
0.000288635
0.000281683
0.000274253
0.000266306
0.000257799
0.000248685
0.000238915
0.000228433
0.000217185
0.000205112
0.000192156
0.000178265
0.000163391
0.000147506
0.000130617
0.000112834
9.45582e-05
7.66312e-05
6.02897e-05
4.69668e-05
3.84367e-05
3.38336e-05
3.18239e-05
3.12676e-05
3.14598e-05
3.20976e-05
3.29791e-05
3.39937e-05
3.50859e-05
3.62169e-05
3.73507e-05
3.87328e-05
3.98573e-05
4.08656e-05
4.16551e-05
4.21675e-05
4.30436e-05
4.32146e-05
4.39434e-05
4.40678e-05
0.000418588
0.00041749
0.000416343
0.000415165
0.000413953
0.000412699
0.000411393
0.000410008
0.000408509
0.000406886
0.000405209
0.000403458
0.00040163
0.000399723
0.000397733
0.000395652
0.000393475
0.000391197
0.000388812
0.000386313
0.000383693
0.000380943
0.000378054
0.000375016
0.000371819
0.000368453
0.000364903
0.000361157
0.000357197
0.000353011
0.000348581
0.000343887
0.00033891
0.000333628
0.000328019
0.000322057
0.000315716
0.000308968
0.000301782
0.000294125
0.000285962
0.000277254
0.000267957
0.000258026
0.00024741
0.000236057
0.000223913
0.000210921
0.000197028
0.000182185
0.000166356
0.000149531
0.000131757
0.000113197
9.4257e-05
7.58974e-05
5.96256e-05
4.70492e-05
3.89495e-05
3.46927e-05
3.29141e-05
3.24933e-05
3.27521e-05
3.33498e-05
3.41389e-05
3.50303e-05
3.59748e-05
3.69449e-05
3.79215e-05
3.88831e-05
3.99921e-05
4.09085e-05
4.17428e-05
4.23729e-05
4.27742e-05
4.33329e-05
4.34437e-05
4.39261e-05
4.4115e-05
0.000443354
0.000442044
0.000440677
0.000439267
0.000437808
0.000436292
0.000434704
0.000433017
0.000431206
0.000429275
0.000427275
0.000425185
0.000423004
0.000420727
0.000418349
0.000415864
0.000413263
0.000410542
0.000407693
0.000404708
0.000401579
0.000398294
0.000394845
0.000391219
0.000387405
0.000383391
0.00037916
0.000374697
0.000369985
0.000365006
0.000359743
0.000354172
0.000348271
0.000342017
0.000335384
0.000328344
0.000320868
0.000312925
0.000304481
0.0002955
0.000285944
0.000275769
0.000264932
0.000253383
0.000241072
0.000227947
0.000213958
0.000199056
0.000183203
0.000166377
0.000148594
0.000129955
0.000110731
9.15049e-05
7.31669e-05
5.71134e-05
4.61092e-05
3.90598e-05
3.54132e-05
3.39746e-05
3.37076e-05
3.40103e-05
3.45834e-05
3.52896e-05
3.60668e-05
3.68783e-05
3.77023e-05
3.85256e-05
3.93402e-05
4.01357e-05
4.10027e-05
4.17443e-05
4.24393e-05
4.29378e-05
4.32444e-05
4.35703e-05
4.35073e-05
4.37411e-05
4.38701e-05
0.000466873
0.000465312
0.000463683
0.000461997
0.000460245
0.000458417
0.000456494
0.000454456
0.000452283
0.00044999
0.000447608
0.000445119
0.000442522
0.000439809
0.000436975
0.000434012
0.000430912
0.000427668
0.000424271
0.000420712
0.000416981
0.000413066
0.000408955
0.000404637
0.000400096
0.000395318
0.000390285
0.00038498
0.000379383
0.000373476
0.000367235
0.000360638
0.000353659
0.000346273
0.000338449
0.000330159
0.00032137
0.000312049
0.000302158
0.00029166
0.000280514
0.000268677
0.000256103
0.000242746
0.000228558
0.000213495
0.000197522
0.000180618
0.000162787
0.000144092
0.000124707
0.000105034
8.58695e-05
6.8529e-05
5.39707e-05
4.43082e-05
3.88019e-05
3.60271e-05
3.5001e-05
3.49009e-05
3.52392e-05
3.57779e-05
3.6408e-05
3.70804e-05
3.77708e-05
3.84646e-05
3.91521e-05
3.98273e-05
4.04895e-05
4.11374e-05
4.18018e-05
4.24028e-05
4.2991e-05
4.33809e-05
4.36069e-05
4.37659e-05
4.37448e-05
4.39057e-05
4.40128e-05
4.40717e-05
0.000488422
0.000486563
0.000484624
0.00048261
0.000480509
0.000478309
0.000475994
0.000473546
0.000470954
0.000468233
0.000465402
0.000462444
0.000459356
0.000456129
0.000452757
0.000449232
0.000445543
0.000441681
0.000437638
0.000433402
0.000428962
0.000424305
0.000419416
0.000414281
0.000408886
0.000403211
0.000397238
0.000390945
0.000384313
0.00037732
0.00036994
0.000362149
0.000353918
0.000345218
0.00033602
0.000326289
0.000315993
0.000305096
0.000293559
0.000281345
0.000268413
0.000254723
0.000240235
0.000224911
0.000208719
0.00019164
0.000173684
0.000154906
0.000135448
0.000115623
9.60282e-05
7.75846e-05
6.14376e-05
5.00927e-05
4.24617e-05
3.8399e-05
3.65916e-05
3.60032e-05
3.60596e-05
3.64214e-05
3.69184e-05
3.74724e-05
3.80484e-05
3.863e-05
3.92082e-05
3.97772e-05
4.03328e-05
4.08733e-05
4.14023e-05
4.19264e-05
4.24279e-05
4.29196e-05
4.34286e-05
4.37271e-05
4.38843e-05
4.39553e-05
4.39786e-05
4.41727e-05
4.43086e-05
4.44339e-05
0.000507113
0.000504902
0.000502593
0.000500188
0.000497673
0.000495036
0.000492261
0.000489336
0.000486255
0.000483031
0.00047967
0.00047616
0.000472493
0.000468661
0.000464656
0.000460467
0.000456084
0.000451496
0.000446692
0.00044166
0.000436387
0.000430856
0.000425053
0.000418963
0.000412565
0.000405841
0.000398768
0.000391324
0.000383486
0.000375231
0.000366532
0.000357359
0.000347684
0.000337477
0.000326705
0.000315334
0.00030333
0.000290658
0.000277282
0.000263168
0.000248283
0.000232597
0.000216089
0.000198749
0.000180593
0.000161679
0.000142147
0.000122293
0.00010265
8.40536e-05
6.76316e-05
5.45085e-05
4.58227e-05
4.08215e-05
3.82212e-05
3.71986e-05
3.69891e-05
3.71705e-05
3.75381e-05
3.79863e-05
3.84652e-05
3.89521e-05
3.94367e-05
3.99139e-05
4.03805e-05
4.08342e-05
4.12737e-05
4.16995e-05
4.2118e-05
4.25426e-05
4.29162e-05
4.33251e-05
4.37781e-05
4.39965e-05
4.40945e-05
4.41341e-05
4.41916e-05
4.43633e-05
4.44784e-05
4.45821e-05
0.00052421
0.000521862
0.000519232
0.000516485
0.000513616
0.000510612
0.00050746
0.000504149
0.000500668
0.000497015
0.000493197
0.000489214
0.000485052
0.000480705
0.000476161
0.000471411
0.000466443
0.000461245
0.000455803
0.000450106
0.00044414
0.000437889
0.000431336
0.000424466
0.000417258
0.000409693
0.000401747
0.000393398
0.00038462
0.000375389
0.00036568
0.000355465
0.000344713
0.000333395
0.00032148
0.000308937
0.000295733
0.000281837
0.000267221
0.000251859
0.000235731
0.000218824
0.000201146
0.000182729
0.000163649
0.00014407
0.000124298
0.000104842
8.65001e-05
7.02768e-05
5.71198e-05
4.819e-05
4.25949e-05
3.96612e-05
3.83545e-05
3.79243e-05
3.79624e-05
3.82188e-05
3.85722e-05
3.8966e-05
3.93723e-05
3.97781e-05
4.01775e-05
4.05676e-05
4.09471e-05
4.13148e-05
4.16702e-05
4.20131e-05
4.23455e-05
4.26751e-05
4.30218e-05
4.32965e-05
4.36438e-05
4.40598e-05
4.42042e-05
4.42516e-05
4.42734e-05
4.4388e-05
4.45044e-05
4.45898e-05
4.46762e-05
0.000534255
0.000531357
0.00052823
0.000524963
0.000521545
0.000517965
0.000514211
0.000510274
0.000506145
0.000501822
0.000497306
0.00049259
0.000487664
0.000482517
0.000477138
0.000471514
0.000465633
0.000459479
0.000453039
0.000446298
0.000439241
0.000431851
0.000424109
0.000415998
0.000407496