/*--------------------------------*- C++ -*----------------------------------*\
| =========                 |                                                 |
| \\      /  F ield         | OpenFOAM: The Open Source CFD Toolbox           |
|  \\    /   O peration     | Version:  2412                                  |
|   \\  /    A nd           | Website:  www.openfoam.com                      |
|    \\/     M anipulation  |                                                 |
\*---------------------------------------------------------------------------*/
FoamFile
{
    version     2.0;
    format      ascii;
    arch        "LSB;label=32;scalar=64";
    class       volScalarField;
    location    "180";
    object      p;
}
// * * * * * * * * * * * * * * * * * * * * * * * * * * * * * * * * * * * * * //

dimensions      [0 2 -2 0 0 0 0];

internalField   nonuniform List<scalar> 
7373
(
62.1858
62.7794
63.4479
64.1986
65.031
65.9411
66.9332
68.0228
69.2183
70.5248
71.9502
73.4901
75.1508
76.9534
78.9115
81.0359
83.3326
85.8029
88.4763
91.371
94.4977
97.8721
101.51
105.441
109.68
114.252
119.18
124.489
130.207
136.362
142.985
150.109
157.766
165.99
174.823
184.301
194.47
205.371
217.054
229.57
242.972
257.315
272.663
289.081
306.635
325.402
345.457
366.885
389.775
414.204
440.283
468.091
497.703
529.226
562.662
597.973
634.968
673.233
711.892
749.209
781.934
804.161
802.027
758.556
627.775
326.578
-230.102
-1249.86
62.1858
62.7794
63.4479
64.1986
65.031
65.9411
66.9332
68.0228
69.2183
70.5248
71.9502
73.4901
75.1508
76.9534
78.9115
81.0359
83.3326
85.8029
88.4763
91.371
94.4977
97.8721
101.51
105.441
109.68
114.252
119.18
124.489
130.207
136.362
142.985
150.109
157.766
165.99
174.823
184.301
194.47
205.371
217.054
229.57
242.972
257.315
272.663
289.081
306.635
325.402
345.457
366.885
389.775
414.204
440.283
468.091
497.703
529.226
562.662
597.972
634.967
673.233
711.892
749.209
781.933
804.161
802.026
758.553
627.769
326.577
-230.091
-1249.79
62.1858
62.7794
63.4479
64.1986
65.031
65.9411
66.9332
68.0228
69.2183
70.5248
71.9502
73.4901
75.1508
76.9534
78.9115
81.0359
83.3326
85.8029
88.4763
91.371
94.4977
97.8721
101.51
105.441
109.68
114.252
119.18
124.489
130.207
136.362
142.985
150.109
157.766
165.99
174.823
184.301
194.47
205.371
217.054
229.57
242.972
257.315
272.663
289.081
306.635
325.402
345.457
366.885
389.775
414.203
440.283
468.091
497.703
529.226
562.662
597.972
634.967
673.233
711.892
749.209
781.933
804.159
802.023
758.548
627.759
326.561
-230.109
-1249.73
62.1858
62.7794
63.4479
64.1986
65.0311
65.9412
66.9332
68.0228
69.2184
70.5248
71.9503
73.4901
75.1508
76.9534
78.9116
81.0359
83.3326
85.803
88.4763
91.371
94.4977
97.8722
101.51
105.441
109.68
114.252
119.18
124.489
130.207
136.362
142.985
150.109
157.766
165.99
174.823
184.301
194.47
205.371
217.054
229.57
242.972
257.315
272.663
289.081
306.635
325.402
345.457
366.885
389.775
414.203
440.283
468.091
497.703
529.226
562.662
597.973
634.967
673.233
711.892
749.208
781.932
804.158
802.021
758.542
627.746
326.545
-230.111
-1249.58
62.1859
62.7794
63.4479
64.1987
65.0311
65.9412
66.9333
68.0228
69.2184
70.5249
71.9503
73.4901
75.1508
76.9535
78.9116
81.036
83.3327
85.803
88.4764
91.3711
94.4978
97.8722
101.51
105.441
109.68
114.252
119.18
124.489
130.207
136.362
142.985
150.109
157.766
165.99
174.823
184.301
194.47
205.371
217.054
229.57
242.972
257.315
272.663
289.081
306.635
325.402
345.457
366.886
389.775
414.204
440.283
468.091
497.703
529.226
562.662
597.973
634.968
673.233
711.892
749.209
781.932
804.157
802.018
758.535
627.734
326.543
-230.051
-1249.25
62.186
62.7795
63.448
64.1988
65.0312
65.9413
66.9334
68.023
69.2185
70.525
71.9504
73.4903
75.151
76.9536
78.9118
81.0361
83.3328
85.8032
88.4766
91.3712
94.498
97.8724
101.511
105.441
109.68
114.252
119.18
124.49
130.207
136.362
142.986
150.109
157.766
165.99
174.823
184.302
194.47
205.372
217.055
229.571
242.972
257.315
272.664
289.081
306.636
325.402
345.457
366.886
389.775
414.204
440.283
468.092
497.703
529.227
562.662
597.973
634.968
673.234
711.893
749.209
781.932
804.156
802.015
758.528
627.727
326.568
-229.921
-1248.65
62.1861
62.7797
63.4482
64.1989
65.0314
65.9415
66.9336
68.0231
69.2187
70.5252
71.9506
73.4905
75.1512
76.9538
78.912
81.0363
83.3331
85.8034
88.4768
91.3715
94.4982
97.8727
101.511
105.441
109.68
114.253
119.181
124.49
130.208
136.363
142.986
150.11
157.766
165.991
174.824
184.302
194.471
205.372
217.055
229.571
242.973
257.316
272.664
289.082
306.636
325.403
345.458
366.886
389.776
414.205
440.284
468.092
497.704
529.227
562.663
597.974
634.969
673.235
711.894
749.21
781.932
804.154
802.011
758.522
627.726
326.633
-229.716
-1247.69
62.1864
62.78
63.4485
64.1992
65.0317
65.9418
66.9339
68.0235
69.2191
70.5255
71.951
73.4908
75.1516
76.9542
78.9124
81.0367
83.3335
85.8039
88.4773
91.372
94.4987
97.8732
101.511
105.442
109.681
114.253
119.181
124.491
130.208
136.363
142.987
150.11
157.767
165.991
174.824
184.303
194.472
205.373
217.056
229.572
242.974
257.317
272.665
289.083
306.637
325.404
345.459
366.888
389.777
414.206
440.285
468.094
497.705
529.229
562.665
597.976
634.971
673.237
711.896
749.211
781.933
804.153
802.008
758.517
627.736
326.751
-229.364
-1246.23
62.1869
62.7804
63.449
64.1997
65.0322
65.9423
66.9344
68.024
69.2196
70.5261
71.9515
73.4914
75.1522
76.9548
78.913
81.0374
83.3342
85.8046
88.478
91.3728
94.4995
97.874
101.512
105.443
109.682
114.254
119.182
124.492
130.209
136.364
142.988
150.111
157.768
165.993
174.826
184.304
194.473
205.375
217.058
229.574
242.975
257.318
272.667
289.085
306.639
325.406
345.461
366.889
389.779
414.208
440.287
468.096
497.707
529.231
562.667
597.978
634.973
673.239
711.898
749.213
781.934
804.151
802.004
758.514
627.76
326.932
-228.805
-1244.19
62.1875
62.7811
63.4496
64.2004
65.0329
65.943
66.9351
68.0248
69.2204
70.5269
71.9524
73.4923
75.153
76.9557
78.914
81.0384
83.3352
85.8056
88.4791
91.3739
94.5007
97.8752
101.513
105.444
109.683
114.255
119.184
124.493
130.211
136.366
142.99
150.113
157.77
165.994
174.828
184.306
194.475
205.377
217.06
229.576
242.978
257.321
272.67
289.087
306.642
325.409
345.464
366.892
389.782
414.211
440.29
468.099
497.711
529.234
562.671
597.982
634.978
673.244
711.902
749.217
781.936
804.15
802
758.513
627.802
327.188
-228.056
-1241.45
-2291.64
62.1885
62.7821
63.4506
64.2014
65.0339
65.944
66.9362
68.0258
69.2215
70.528
71.9535
73.4935
75.1543
76.957
78.9153
81.0397
83.3366
85.8071
88.4806
91.3754
94.5023
97.8769
101.515
105.446
109.685
114.257
119.186
124.495
130.213
136.368
142.992
150.116
157.773
165.997
174.83
184.309
194.478
205.38
217.063
229.579
242.981
257.325
272.673
289.091
306.646
325.413
345.468
366.897
389.786
414.215
440.295
468.104
497.716
529.24
562.676
597.988
634.984
673.25
711.908
749.222
781.938
804.148
801.995
758.515
627.865
327.545
-227.154
-1237.94
-2286.41
-3179.36
62.1897
62.7833
63.4519
64.2027
65.0352
65.9454
66.9376
68.0272
69.2229
70.5295
71.9551
73.495
75.1559
76.9587
78.917
81.0415
83.3385
85.809
88.4826
91.3775
94.5045
97.8792
101.518
105.448
109.688
114.26
119.188
124.498
130.216
136.371
142.995
150.119
157.776
166.001
174.834
184.313
194.482
205.384
217.067
229.584
242.986
257.329
272.678
289.096
306.651
325.419
345.474
366.903
389.792
414.222
440.302
468.111
497.723
529.247
562.684
597.996
634.992
673.259
711.917
749.229
781.942
804.146
801.99
758.521
627.952
328.033
-226.091
-1233.62
-2280
-3172.02
-3719.8
62.1913
62.7849
63.4535
64.2044
65.0369
65.9471
66.9394
68.0291
69.2248
70.5314
71.9571
73.4971
75.158
76.9609
78.9193
81.0439
83.3409
85.8115
88.4852
91.3802
94.5073
97.8821
101.521
105.452
109.691
114.263
119.192
124.502
130.22
136.375
142.999
150.123
157.781
166.005
174.839
184.318
194.487
205.39
217.073
229.59
242.992
257.336
272.685
289.103
306.659
325.426
345.482
366.911
389.801
414.231
440.311
468.12
497.733
529.258
562.695
598.008
635.004
673.271
711.929
749.239
781.948
804.144
801.985
758.53
628.064
328.661
-224.839
-1228.5
-2272.27
-3163.21
-3712.18
62.1933
62.787
63.4556
64.2065
65.039
65.9493
66.9416
68.0314
69.2271
70.5339
71.9595
73.4997
75.1607
76.9636
78.9221
81.0468
83.3439
85.8147
88.4885
91.3836
94.5108
97.8857
101.524
105.456
109.695
114.268
119.197
124.506
130.225
136.38
143.005
150.129
157.786
166.011
174.845
184.325
194.494
205.397
217.08
229.597
243
257.344
272.694
289.112
306.668
325.436
345.492
366.922
389.812
414.243
440.324
468.134
497.747
529.272
562.71
598.024
635.021
673.288
711.945
749.252
781.955
804.142
801.979
758.543
628.201
329.421
-223.395
-1222.57
-2263.13
-3152.9
-3702.77
62.1957
62.7894
63.4581
64.209
65.0417
65.952
66.9443
68.0342
69.23
70.5368
71.9626
73.5028
75.1639
76.967
78.9256
81.0504
83.3477
85.8185
88.4925
91.3878
94.5152
97.8903
101.529
105.46
109.7
114.273
119.202
124.512
130.231
136.387
143.011
150.136
157.794
166.019
174.853
184.333
194.503
205.405
217.09
229.607
243.01
257.355
272.705
289.124
306.68
325.449
345.505
366.936
389.827
414.258
440.34
468.151
497.765
529.292
562.731
598.045
635.043
673.31
711.965
749.269
781.964
804.139
801.972
758.558
628.362
330.3
-221.753
-1215.78
-2252.55
-3141
-3691.51
62.1987
62.7925
63.4612
64.2122
65.0449
65.9553
66.9477
68.0376
69.2336
70.5405
71.9664
73.5067
75.1679
76.9711
78.9299
81.0548
83.3522
85.8233
88.4974
91.3929
94.5205
97.8958
101.535
105.466
109.706
114.28
119.209
124.519
130.238
136.394
143.019
150.144
157.802
166.028
174.863
184.343
194.513
205.416
217.101
229.619
243.022
257.368
272.718
289.138
306.695
325.465
345.522
366.954
389.846
414.278
440.361
468.173
497.789
529.317
562.757
598.073
635.071
673.338
711.991
749.289
781.974
804.135
801.963
758.575
628.545
331.285
-219.888
-1208.11
-2240.5
-3127.41
-3678.41
62.2023
62.7961
63.4649
64.216
65.0487
65.9592
66.9517
68.0418
69.2378
70.5449
71.9709
73.5113
75.1727
76.9761
78.935
81.0602
83.3577
85.829
88.5034
91.3991
94.5269
97.9025
101.542
105.474
109.714
114.287
119.217
124.528
130.247
136.404
143.029
150.154
157.813
166.039
174.874
184.355
194.526
205.43
217.115
229.634
243.038
257.384
272.735
289.156
306.714
325.484
345.543
366.976
389.869
414.303
440.387
468.201
497.818
529.348
562.791
598.108
635.107
673.373
712.023
749.314
781.986
804.13
801.951
758.593
628.75
332.366
-217.768
-1199.49
-2226.95
-3111.98
-3663.38
62.2066
62.8005
63.4694
64.2205
65.0534
65.964
66.9566
68.0467
69.2429
70.5501
71.9763
73.5169
75.1785
76.982
78.9412
81.0666
83.3644
85.8359
88.5106
91.4066
94.5347
97.9106
101.55
105.482
109.723
114.297
119.227
124.538
130.258
136.415
143.041
150.167
157.826
166.053
174.888
184.37
194.541
205.446
217.132
229.651
243.056
257.403
272.756
289.178
306.737
325.508
345.568
367.003
389.898
414.334
440.42
468.236
497.856
529.388
562.833
598.152
635.152
673.416
712.061
749.342
782
804.123
801.936
758.611
628.975
333.55
-215.366
-1189.86
-2211.82
-3094.58
-3646.25
62.2117
62.8057
63.4747
64.2259
65.0589
65.9696
66.9624
68.0527
69.249
70.5564
71.9828
73.5236
75.1854
76.9892
78.9486
81.0742
83.3723
85.8442
88.5191
91.4155
94.544
97.9202
101.56
105.493
109.734
114.308
119.239
124.551
130.271
136.429
143.055
150.181
157.841
166.069
174.905
184.387
194.56
205.465
217.152
229.673
243.079
257.427
272.781
289.204
306.765
325.538
345.6
367.036
389.933
414.371
440.46
468.279
497.902
529.437
562.885
598.205
635.205
673.467
712.105
749.375
782.014
804.114
801.917
758.627
629.221
334.851
-212.658
-1179.12
-2194.93
-3075.09
-3626.86
62.2178
62.8119
63.481
64.2323
65.0654
65.9763
66.9693
68.0597
69.2563
70.5639
71.9904
73.5315
75.1936
76.9976
78.9574
81.0833
83.3818
85.854
88.5293
91.4261
94.555
97.9317
101.572
105.505
109.747
114.322
119.253
124.565
130.286
136.445
143.072
150.199
157.86
166.088
174.925
184.409
194.582
205.489
217.177
229.698
243.106
257.456
272.811
289.236
306.798
325.574
345.638
367.076
389.976
414.417
440.51
468.332
497.959
529.498
562.948
598.269
635.269
673.526
712.156
749.411
782.029
804.101
801.893
758.64
629.489
336.279
-209.604
-1167.14
-2176.11
-3053.35
-3605.06
60.0031
60.0525
60.1685
60.3516
60.6008
60.9121
61.2845
61.7155
62.225
62.8193
63.4884
64.2399
65.0732
65.9843
66.9774
68.0681
69.2649
70.5727
71.9996
73.5409
75.2033
77.0077
78.9678
81.0941
83.393
85.8656
88.5414
91.4387
94.5681
97.9454
101.587
105.52
109.763
114.338
119.27
124.583
130.305
136.464
143.092
150.22
157.882
166.111
174.95
184.434
194.609
205.516
217.206
229.729
243.138
257.49
272.847
289.274
306.839
325.616
345.683
367.125
390.028
414.473
440.57
468.397
498.027
529.57
563.022
598.345
635.342
673.593
712.213
749.451
782.044
804.085
801.861
758.648
629.779
337.844
-206.161
-1153.82
-2155.16
-3029.09
-3580.7
60.011
60.0604
60.1765
60.3596
60.6089
60.9202
61.2928
61.7239
62.2335
62.8279
63.4972
64.2489
65.0824
65.9937
66.987
68.078
69.275
70.5832
72.0103
73.552
75.2148
77.0196
78.9801
81.1069
83.4062
85.8794
88.5558
91.4536
94.5837
97.9616
101.603
105.538
109.781
114.357
119.29
124.604
130.327
136.487
143.116
150.245
157.908
166.139
174.978
184.464
194.64
205.55
217.241
229.766
243.177
257.531
272.89
289.32
306.887
325.668
345.738
367.183
390.091
414.54
440.642
468.474
498.109
529.655
563.11
598.431
635.425
673.669
712.276
749.494
782.059
804.062
801.821
758.649
630.093
339.555
-202.273
-1139.03
-2131.88
-3002.05
-3553.55
60.0203
60.0698
60.1859
60.3691
60.6185
60.9299
61.3025
61.7338
62.2436
62.8381
63.5076
64.2595
65.0932
66.0047
66.9984
68.0896
69.287
70.5955
72.0231
73.5652
75.2283
77.0336
78.9947
81.122
83.4219
85.8957
88.5727
91.4712
94.602
97.9807
101.623
105.559
109.803
114.38
119.314
124.629
130.353
136.514
143.144
150.275
157.939
166.171
175.013
184.5
194.678
205.589
217.283
229.81
243.223
257.579
272.942
289.374
306.945
325.729
345.804
367.254
390.166
414.621
440.728
468.566
498.205
529.754
563.21
598.529
635.518
673.754
712.346
749.541
782.072
804.033
801.769
758.64
630.429
341.426
-197.877
-1122.65
-2106.06
-2971.94
-3523.3
60.0312
60.0807
60.1969
60.3802
60.6296
60.9412
61.3139
61.7454
62.2554
62.8501
63.5198
64.2719
65.1059
66.0178
67.0117
68.1033
69.3011
70.61
72.038
73.5806
75.2443
77.0502
79.0118
81.1398
83.4404
85.9149
88.5926
91.492
94.6237
98.0032
101.647
105.583
109.828
114.407
119.342
124.658
130.383
136.546
143.178
150.31
157.976
166.21
175.053
184.543
194.722
205.636
217.332
229.862
243.278
257.637
273.003
289.439
307.014
325.803
345.882
367.337
390.256
414.717
440.831
468.673
498.316
529.867
563.323
598.64
635.623
673.848
712.423
749.591
782.084
803.994
801.703
758.619
630.788
343.47
-192.898
-1104.54
-2077.49
-2938.5
-3489.68
60.0439
60.0936
60.2099
60.3932
60.6428
60.9544
61.3274
61.7591
62.2693
62.8642
63.5342
64.2866
65.1209
66.0331
67.0274
68.1194
69.3176
70.6271
72.0556
73.5988
75.2631
77.0696
79.0319
81.1607
83.4621
85.9375
88.6161
91.5164
94.6491
98.0298
101.675
105.612
109.859
114.438
119.375
124.693
130.419
136.584
143.217
150.351
158.019
166.255
175.101
184.593
194.775
205.692
217.39
229.923
243.343
257.706
273.076
289.516
307.096
325.89
345.975
367.437
390.362
414.83
440.949
468.792
498.446
529.994
563.449
598.763
635.739
673.952
712.507
749.644
782.092
803.944
801.618
758.581
631.168
345.662
-187.258
-1084.58
-2045.94
-2901.45
-3452.41
60.0588
60.1087
60.2251
60.4085
60.6582
60.97
61.3431
61.7751
62.2856
62.8807
63.551
64.3037
65.1384
66.051
67.0458
68.1383
69.337
70.6471
72.0763
73.6201
75.2851
77.0924
79.0556
81.1852
83.4875
85.964
88.6437
91.5451
94.6791
98.061
101.707
105.646
109.894
114.476
119.414
124.733
130.462
136.628
143.264
150.4
158.071
166.309
175.157
184.652
194.838
205.757
217.46
229.996
243.42
257.787
273.162
289.608
307.193
325.993
346.085
367.554
390.487
414.961
441.084
468.928
498.591
530.136
563.59
598.9
635.869
674.067
712.598
749.698
782.095
803.878
801.512
758.52
631.568
348.004
-180.886
-1062.69
-2011.25
-2860.54
-3411.24
60.0763
60.1263
60.2428
60.4264
60.6762
60.9882
61.3616
61.7939
62.3047
62.9
63.5707
64.3238
65.1589
66.072
67.0674
68.1604
69.3598
70.6705
72.1004
73.6451
75.3109
77.1192
79.0834
81.214
83.5174
85.9951
88.6761
91.5788
94.7142
98.0977
101.745
105.686
109.936
114.519
119.459
124.781
130.512
136.681
143.319
150.458
158.131
166.373
175.224
184.722
194.911
205.835
217.541
230.082
243.511
257.883
273.264
289.715
307.308
326.115
346.215
367.692
390.631
415.112
441.236
469.085
498.749
530.295
563.748
599.053
636.012
674.193
712.697
749.754
782.09
803.794
801.376
758.43
631.982
350.552
-173.726
-1038.78
-1973.46
-2815.29
-3365.69
60.0967
60.1469
60.2635
60.4472
60.6972
61.0095
61.3831
61.8159
62.327
62.9226
63.5937
64.3473
65.1829
66.0966
67.0926
68.1863
69.3864
70.698
72.1288
73.6743
75.3412
77.1505
79.1158
81.2478
83.5525
86.0315
88.714
91.6184
94.7554
98.1406
101.79
105.733
109.985
114.57
119.513
124.837
130.571
136.742
143.383
150.526
158.202
166.447
175.302
184.804
194.998
205.926
217.637
230.184
243.618
257.997
273.384
289.843
307.443
326.259
346.366
367.85
390.794
415.281
441.406
469.26
498.926
530.473
563.924
599.223
636.17
674.331
712.802
749.809
782.074
803.684
801.205
758.302
632.406
353.331
-165.712
-1012.78
-1932.53
-2765.09
-3315.24
60.1205
60.171
60.2878
60.4716
60.7218
61.0344
61.4083
61.8415
62.3531
62.949
63.6206
64.3747
65.211
66.1253
67.1221
68.2166
69.4175
70.7301
72.1619
73.7085
75.3766
77.1872
79.1539
81.2872
83.5935
86.0742
88.7584
91.6646
94.8037
98.191
101.843
105.788
110.042
114.63
119.576
124.903
130.64
136.815
143.459
150.605
158.285
166.535
175.394
184.901
195.099
206.033
217.75
230.303
243.744
258.13
273.525
289.992
307.601
326.424
346.539
368.028
390.977
415.469
441.598
469.456
499.125
530.672
564.12
599.411
636.344
674.48
712.913
749.861
782.043
803.543
800.988
758.125
632.832
356.348
-156.769
-984.567
-1888.09
-2709.65
-3259.76
60.1482
60.199
60.316
60.5001
60.7505
61.0634
61.4377
61.8714
62.3835
62.9798
63.652
64.4068
65.2437
66.1589
67.1565
68.2519
69.4539
70.7675
72.2006
73.7485
75.4179
77.23
79.1983
81.3334
83.6414
86.1241
88.8104
91.7187
94.8601
98.2499
101.904
105.852
110.11
114.701
119.649
124.98
130.72
136.899
143.548
150.698
158.383
166.637
175.502
185.015
195.219
206.159
217.883
230.443
243.892
258.286
273.689
290.165
307.782
326.612
346.733
368.228
391.182
415.679
441.814
469.675
499.346
530.893
564.337
599.619
636.534
674.642
713.028
749.907
781.991
803.361
800.715
757.885
633.247
359.61
-146.81
-954.039
-1839.86
-2649.05
-3198.78
-3374.69
60.1805
60.2316
60.3489
60.5332
60.7839
61.0972
61.4719
61.9064
62.419
63.0158
63.6886
64.4441
65.2819
66.198
67.1966
68.2932
69.4963
70.8113
72.2457
73.7951
75.4662
77.28
79.2502
81.3873
83.6974
86.1824
88.871
91.782
94.9261
98.3188
101.976
105.927
110.188
114.783
119.735
125.07
130.815
136.998
143.652
150.807
158.498
166.758
175.628
185.147
195.359
206.306
218.038
230.606
244.064
258.467
273.879
290.363
307.986
326.823
346.95
368.452
391.412
415.915
442.054
469.92
499.593
531.139
564.578
599.848
636.741
674.814
713.146
749.942
781.911
803.128
800.37
757.565
633.636
363.118
-135.749
-921.159
-1787.73
-2583.14
-3131.51
-3319.54
60.2181
60.2696
60.3872
60.5718
60.8228
61.1366
61.5119
61.947
62.4603
63.0577
63.7312
64.4877
65.3265
66.2436
67.2434
68.3413
69.5458
70.8623
72.2984
73.8496
75.5225
77.3383
79.3108
81.4502
83.7627
86.2504
88.9419
91.8558
95.0032
98.3992
102.06
106.015
110.28
114.879
119.836
125.176
130.925
137.114
143.773
150.935
158.631
166.898
175.776
185.303
195.522
206.478
218.219
230.796
244.263
258.674
274.094
290.585
308.216
327.06
347.194
368.702
391.67
416.179
442.324
470.193
499.867
531.411
564.843
600.098
636.966
674.996
713.263
749.961
781.794
802.829
799.936
757.143
633.986
366.87
-123.499
-885.929
-1731.61
-2511.62
-3058.16
-3258.9
60.2658
60.2619
60.3139
60.4317
60.6167
60.8682
61.1825
61.5583
61.9943
62.5084
63.1064
63.7809
64.5384
65.3784
66.2968
67.298
68.3973
69.6034
70.9218
72.3598
73.913
75.5881
77.4064
79.3814
81.5235
83.8389
86.3298
89.0245
91.942
95.0931
98.493
102.158
106.118
110.387
114.991
119.953
125.299
131.054
137.249
143.915
151.083
158.787
167.062
175.948
185.484
195.712
206.677
218.427
231.013
244.488
258.907
274.335
290.834
308.473
327.325
347.467
368.984
391.958
416.474
442.624
470.496
500.172
531.712
565.134
600.37
637.206
675.186
713.374
749.956
781.627
802.449
799.39
756.593
634.286
370.861
-109.97
-848.389
-1671.38
-2434.5
-2978.58
-3192.31
60.3165
60.3128
60.3653
60.4835
60.6689
60.9208
61.2358
61.6124
62.0494
62.5644
63.1631
63.8387
64.5974
65.4387
66.3587
67.3615
68.4625
69.6705
70.991
72.4312
73.9869
75.6645
77.4856
79.4636
81.6089
83.9277
86.4223
89.1208
92.0424
95.1979
98.6024
102.273
106.237
110.512
115.122
120.09
125.442
131.204
137.407
144.08
151.256
158.969
167.253
176.148
185.692
195.93
206.904
218.662
231.257
244.74
259.169
274.605
291.113
308.761
327.623
347.774
369.298
392.281
416.803
442.958
470.834
500.509
532.044
565.453
600.665
637.462
675.379
713.474
749.916
781.395
801.964
798.704
755.884
634.482
375.075
-95.0521
-808.643
-1607.06
-2351.83
-2892.7
-3119.56
60.3754
60.372
60.4249
60.5437
60.7296
60.9821
61.2978
61.6752
62.1134
62.6294
63.2291
63.9059
64.666
65.5089
66.4306
67.4353
68.5383
69.7486
71.0715
72.5144
74.0728
75.7535
77.5777
79.5593
81.7083
84.0311
86.5299
89.2328
92.1591
95.3198
98.7296
102.406
106.376
110.657
115.274
120.249
125.608
131.379
137.589
144.271
151.457
159.178
167.471
176.376
185.929
196.176
207.159
218.926
231.53
245.023
259.462
274.908
291.426
309.084
327.956
348.116
369.65
392.64
417.17
443.329
471.207
500.88
532.407
565.799
600.981
637.729
675.572
713.553
749.829
781.08
801.348
797.846
754.976
634.42
379.476
-78.6675
-766.905
-1538.8
-2263.74
-2800.5
-3040.43
60.4438
60.4406
60.4942
60.6135
60.8
61.0532
61.3698
61.7482
62.1877
62.7049
63.3057
63.984
64.7458
65.5905
66.5142
67.521
68.6265
69.8393
71.1651
72.611
74.1727
75.8568
77.6848
79.6704
81.8238
84.1511
86.6548
89.3629
92.2947
95.4613
98.8773
102.56
106.537
110.826
115.45
120.434
125.801
131.58
137.8
144.491
151.686
159.416
167.719
176.632
186.195
196.452
207.445
219.223
231.838
245.341
259.791
275.248
291.778
309.447
328.329
348.499
370.042
393.041
417.577
443.741
471.619
501.288
532.803
566.173
601.317
638.005
675.756
713.6
749.677
780.657
800.568
796.773
753.812
634.075
383.986
-60.9732
-723.409
-1466.84
-2170.46
-2702.06
-2954.78
60.523
60.5203
60.5746
60.6945
60.8816
61.1356
61.4533
61.8329
62.2739
62.7925
63.3946
64.0746
64.8382
65.6851
66.6112
67.6206
68.7287
69.9445
71.2736
72.7231
74.2886
75.9767
77.809
79.7992
81.9576
84.2903
86.7996
89.5136
92.4517
95.6253
99.0484
102.738
106.724
111.021
115.653
120.645
126.022
131.81
138.039
144.739
151.943
159.684
167.996
176.92
186.494
196.762
207.766
219.556
232.183
245.698
260.16
275.63
292.171
309.852
328.745
348.927
370.479
393.486
418.028
444.195
472.072
501.733
533.232
566.572
601.668
638.282
675.922
713.601
749.439
780.095
799.584
795.435
752.333
633.967
388.496
-42.3076
-678.085
-1391.47
-2072.34
-2597.6
-2862.57
60.6148
60.6125
60.6676
60.7883
60.9762
61.2312
61.55
61.931
62.3738
62.894
63.4975
64.1795
64.9454
65.7948
66.7237
67.7359
68.8471
70.0662
71.3992
72.8529
74.4228
76.1153
77.9525
79.9483
82.1126
84.4514
86.967
89.6877
92.6334
95.8146
99.2448
102.943
106.937
111.242
115.884
120.885
126.271
132.069
138.308
145.019
152.233
159.985
168.309
177.244
186.83
197.11
208.127
219.93
232.57
246.099
260.574
276.057
292.611
310.304
329.21
349.403
370.965
393.979
418.526
444.695
472.568
502.218
533.694
566.996
602.031
638.553
676.056
713.535
749.087
779.357
798.346
793.771
750.498
633.642
393.023
-22.7561
-630.836
-1313.06
-1969.89
-2487.51
-2763.9
60.721
60.7192
60.7752
60.8967
61.0856
61.3417
61.662
62.0445
62.4893
63.0113
63.6164
64.3007
65.0692
65.9217
66.8536
67.869
68.9836
70.2068
71.5444
73.0032
74.5779
76.2754
78.1184
80.1206
82.2917
84.6363
87.1584
89.887
92.8405
96.0298
99.4675
103.175
107.178
111.493
116.144
121.155
126.551
132.36
138.61
145.332
152.559
160.323
168.66
177.609
187.208
197.501
208.533
220.35
233.004
246.547
261.037
276.534
293.102
310.809
329.727
349.931
371.503
394.524
419.074
445.242
473.107
502.74
534.186
567.438
602.397
638.805
676.142
713.378
748.587
778.397
796.794
791.71
748.207
632.455
397.636
-2.53199
-582.077
-1232.14
-1863.71
-2372.34
-2659.06
60.8436
60.8423
60.8992
61.0217
61.2117
61.4691
61.7911
62.1754
62.6224
63.1464
63.7535
64.4407
65.2124
66.0683
67.0036
68.0225
69.1412
70.3693
71.7123
73.1759
74.7548
76.4579
78.3077
80.3169
82.4948
84.8456
87.3753
90.1127
93.0744
96.2723
99.7191
103.436
107.449
111.774
116.436
121.459
126.867
132.688
138.95
145.686
152.926
160.704
169.054
178.018
187.632
197.941
208.987
220.82
233.49
247.049
261.554
277.067
293.65
311.371
330.301
350.516
372.097
395.123
419.675
445.838
473.691
503.299
534.704
567.892
602.755
639.023
676.154
713.098
747.896
777.158
794.858
789.166
745.361
630.883
402.124
17.5772
-532.774
-1149.55
-1754.43
-2252.61
-2548.51
60.9845
60.9839
61.0419
61.1656
61.357
61.6161
61.9401
62.3263
62.7756
63.3019
63.9116
64.602
65.3771
66.236
67.1742
68.1969
69.3207
70.5542
71.9027
73.3711
74.9549
76.6648
78.5221
80.5385
82.7237
85.0819
87.6204
90.3669
93.3378
96.5452
100.002
103.731
107.754
112.091
116.766
121.801
127.222
133.056
139.333
146.083
153.338
161.131
169.498
178.477
188.108
198.433
209.497
221.347
234.033
247.61
262.131
277.66
294.259
311.994
330.937
351.163
372.751
395.781
420.331
446.484
474.317
503.891
535.242
568.348
603.09
639.183
676.065
712.654
746.96
775.571
792.451
786.038
741.857
628.674
406.375
37.5089
-483.513
-1066.21
-1642.91
-2128.69
-2432.29
61.1463
61.1461
61.2054
61.3305
61.5234
61.784
62.1095
62.4974
62.9492
63.4785
64.0912
64.785
65.5632
66.4252
67.3669
68.3947
69.5241
70.763
72.1172
73.5911
75.1814
76.8988
78.7638
80.7881
82.9813
85.3482
87.8967
90.6534
93.6346
96.8528
100.321
104.062
108.098
112.448
117.136
122.185
127.621
133.471
139.763
146.529
153.801
161.611
169.995
178.992
188.641
198.985
210.067
221.935
234.64
248.234
262.774
278.32
294.934
312.684
331.639
351.874
373.468
396.497
421.041
447.178
474.981
504.509
535.789
568.791
603.381
639.258
675.835
711.996
745.714
773.554
789.475
782.214
737.569
625.757
410.256
60.2157
-431.911
-982.188
-1531.26
-2003.11
-2311.45
61.3293
61.3298
61.3906
61.5173
61.7117
61.9737
62.3007
62.6907
63.1456
63.6783
64.2941
64.9913
65.7731
66.6388
67.5851
68.6185
69.7537
70.9985
72.3589
73.8391
75.4368
77.1628
79.0365
81.0697
83.2719
85.6484
88.2081
90.9762
93.969
97.1992
100.681
104.435
108.485
112.85
117.553
122.618
128.07
133.937
140.246
147.03
154.32
162.149
170.552
179.569
189.238
199.601
210.703
222.591
235.316
248.93
263.488
279.051
295.681
313.445
332.411
352.654
374.249
397.274
421.804
447.917
475.679
505.144
536.332
569.201
603.601
639.212
675.417
711.062
744.081
771.01
785.814
777.563
732.365
621.96
413.427
87.0126
-376.221
-897.177
-1421.41
-1880.08
-2191.82
61.5355
61.5372
61.5997
61.728
61.924
62.1876
62.5167
62.9092
63.3678
63.904
64.523
65.2239
66.0097
66.8795
67.8311
68.8709
70.0127
71.2643
72.6316
74.1187
75.7247
77.4603
79.3438
81.387
83.5993
85.9867
88.559
91.3398
94.3455
97.5893
101.085
104.855
108.921
113.302
118.022
123.104
128.574
134.459
140.789
147.592
154.902
162.751
171.176
180.214
189.904
200.289
211.412
223.322
236.068
249.702
264.279
279.859
296.505
314.281
333.257
353.503
375.096
398.11
422.618
448.694
476.4
505.782
536.851
569.55
603.715
638.997
674.75
709.776
741.965
767.825
781.338
771.943
726.099
617.162
415.567
61.7681
61.7712
61.8356
61.9655
62.1632
62.4287
62.76
63.1555
63.6182
64.1585
64.7813
65.4865
66.2766
67.151
68.1086
69.1556
70.3047
71.5639
72.939
74.4341
76.0494
77.7956
79.69
81.7444
83.9681
86.3678
88.9539
91.7489
94.7692
98.028
101.54
105.327
109.41
113.809
118.548
123.649
129.14
135.046
141.396
148.221
155.553
163.425
171.873
180.934
190.647
201.055
212.202
224.134
236.901
250.556
265.152
280.75
297.41
315.196
334.178
354.424
376.008
399.002
423.477
449.5
477.13
506.403
537.318
569.805
603.675
638.556
673.761
708.046
739.255
763.868
775.9
765.2
718.612
611.236
417.097
62.03
62.0348
62.1012
62.2332
62.4329
62.7006
63.0344
63.4332
63.9004
64.4453
65.0725
65.7824
66.5775
67.4573
68.4215
69.4765
70.6338
71.9015
73.2853
74.7894
76.4152
78.1733
80.0798
82.1467
84.3832
86.7967
89.3982
92.2091
95.2455
98.5212
102.051
105.857
109.959
114.378
119.138
124.261
129.773
135.702
142.076
148.925
156.281
164.178
172.65
181.736
191.474
201.907
213.077
225.033
237.823
251.498
266.113
281.726
298.398
316.192
335.174
355.413
376.979
399.942
424.368
450.321
477.849
506.98
537.7
569.919
603.426
637.816
672.36
705.764
735.824
758.99
769.345
757.168
709.744
604.03
417.645
62.3247
62.3314
62.4002
62.5345
62.7366
63.0068
63.3435
63.7462
64.2184
64.7684
65.4005
66.1158
66.9165
67.8025
68.7742
69.838
71.0045
72.2817
73.6753
75.1896
76.8272
78.5984
80.5185
82.5993
84.8502
87.279
89.8977
92.7261
95.7805
99.075
102.625
106.451
110.575
115.017
119.799
124.946
130.483
136.436
142.835
149.71
157.093
165.016
173.515
182.627
192.392
202.851
214.047
226.026
238.838
252.533
267.166
282.792
299.473
317.269
336.245
356.468
378.004
400.92
425.278
451.134
478.528
507.477
537.949
569.835
602.895
636.688
670.44
702.803
731.523
753.029
761.512
747.68
699.368
595.426
416.27
62.6562
62.665
62.7365
62.8734
63.0783
63.3514
63.6916
64.0987
64.5764
65.1321
65.7698
66.4912
67.2983
68.1913
69.1715
70.245
71.4218
72.7095
74.1142
75.64
77.2907
79.0764
81.0116
83.1079
85.3749
87.8209
90.4585
93.3064
96.3808
99.6962
103.268
107.117
111.265
115.731
120.538
125.711
131.275
137.255
143.682
150.585
157.996
165.948
174.475
183.616
193.408
203.894
215.115
227.119
239.952
253.666
268.313
283.949
300.633
318.424
337.385
357.579
379.07
401.92
426.184
451.911
479.131
507.846
538.007
569.48
601.993
635.065
667.874
699.017
726.189
745.81
752.229
736.574
687.389
585.387
413.137
63.0285
63.0398
63.1144
63.2544
63.4625
63.739
64.0832
64.4953
64.9792
65.5412
66.1853
66.9136
67.7279
68.6289
69.6185
70.7029
71.8911
73.1907
74.6076
76.1464
77.8117
79.6135
81.5655
83.6791
85.9639
88.4291
91.0876
93.9571
97.0536
100.392
103.988
107.863
112.036
116.529
121.364
126.565
132.158
138.168
144.625
151.558
158.999
166.981
175.539
184.708
194.529
205.042
216.289
228.315
241.168
254.898
269.555
285.196
301.875
319.651
338.583
358.733
380.159
402.916