/*--------------------------------*- C++ -*----------------------------------*\
| =========                 |                                                 |
| \\      /  F ield         | OpenFOAM: The Open Source CFD Toolbox           |
|  \\    /   O peration     | Version:  2412                                  |
|   \\  /    A nd           | Website:  www.openfoam.com                      |
|    \\/     M anipulation  |                                                 |
\*---------------------------------------------------------------------------*/
FoamFile
{
    version     2.0;
    format      ascii;
    arch        "LSB;label=32;scalar=64";
    class       surfaceScalarField;
    location    "180";
    object      phi;
}
// * * * * * * * * * * * * * * * * * * * * * * * * * * * * * * * * * * * * * //

dimensions      [0 3 -1 0 0 0 0];

oriented        oriented;

internalField   nonuniform List<scalar> 
17078
(
-3.89083e-06
-8.63148e-10
-3.88934e-06
-1.53982e-09
-3.8878e-06
-1.74829e-09
-3.88644e-06
-1.31357e-09
-3.88575e-06
-7.49269e-10
-3.88489e-06
-9.01471e-10
-3.88415e-06
-7.95614e-10
-3.8834e-06
-7.83609e-10
-3.8825e-06
-9.53324e-10
-3.88182e-06
-6.99491e-10
-3.88124e-06
-6.40109e-10
-3.88078e-06
-5.36031e-10
-3.88007e-06
-7.61211e-10
-3.8793e-06
-7.9439e-10
-3.87887e-06
-4.88759e-10
-3.87832e-06
-6.23001e-10
-3.87784e-06
-5.01911e-10
-3.87722e-06
-8.0486e-10
-3.8768e-06
-3.37148e-10
-3.87636e-06
-5.81659e-10
-3.87604e-06
-2.4792e-10
-3.87564e-06
-5.46542e-10
-3.87518e-06
-4.78342e-10
-3.87483e-06
-5.4873e-10
-3.87456e-06
-1.91605e-10
-3.87432e-06
-4.5727e-10
-3.87409e-06
-1.44704e-10
-3.87379e-06
-4.85476e-10
-3.87353e-06
-1.50282e-10
-3.87329e-06
-4.1498e-10
-3.87308e-06
-1.50285e-10
-3.87286e-06
-4.53554e-10
-3.87284e-06
9.44052e-11
-3.87262e-06
-3.92587e-10
-3.8726e-06
1.15956e-10
-3.87244e-06
-2.9479e-10
-3.87232e-06
-8.46328e-11
-3.87226e-06
-2.67612e-10
-3.87221e-06
4.29775e-11
-3.87222e-06
-1.65108e-10
-3.87228e-06
2.1564e-10
-3.87222e-06
-2.7061e-10
-3.87225e-06
1.25405e-10
-3.8723e-06
-9.93327e-11
-3.8725e-06
3.43742e-10
-3.87257e-06
-4.69446e-11
-3.87273e-06
2.57833e-10
-3.87301e-06
1.39614e-10
-3.87309e-06
1.58507e-10
-3.87326e-06
1.11942e-10
-3.87356e-06
3.45623e-10
-3.8738e-06
1.65823e-10
-3.87422e-06
4.43856e-10
-3.87446e-06
2.03877e-10
-3.87476e-06
3.13119e-10
-3.87514e-06
3.0275e-10
-3.87548e-06
3.56229e-10
-3.87591e-06
3.64326e-10
-3.87628e-06
3.98347e-10
-3.87677e-06
3.93524e-10
-3.8772e-06
4.55351e-10
-3.87761e-06
3.48091e-10
-3.878e-06
4.27316e-10
-3.8785e-06
4.15768e-10
-3.87895e-06
4.91962e-10
-3.87947e-06
4.70873e-10
-3.87979e-06
3.52621e-10
-3.88026e-06
3.87707e-10
-3.88067e-06
4.45638e-10
-3.88089e-06
1.58958e-10
-3.88113e-06
2.81283e-10
-3.8812e-06
7.20142e-11
-3.88103e-06
-1.78942e-10
-3.88078e-06
-2.64841e-10
-3.87993e-06
-8.55266e-10
-3.87887e-06
-1.07584e-09
-3.8772e-06
-1.69787e-09
-3.87449e-06
-2.72024e-09
-3.87068e-06
-3.82008e-09
-3.86519e-06
-5.4911e-09
-3.85744e-06
-7.76871e-09
-3.84653e-06
-1.09209e-08
-3.83113e-06
-1.54014e-08
-3.80936e-06
-2.17741e-08
-3.77807e-06
-3.13289e-08
-3.73199e-06
-4.60503e-08
-3.66269e-06
-6.93194e-08
-1.05392e-07
-1.36389e-05
-3.31236e-09
-1.36339e-05
-6.56642e-09
-1.36282e-05
-7.77729e-09
-1.36233e-05
-6.11983e-09
-1.36205e-05
-3.709e-09
-1.36176e-05
-3.79682e-09
-1.36151e-05
-3.36927e-09
-1.36121e-05
-3.83176e-09
-1.36097e-05
-3.42595e-09
-1.36073e-05
-3.13513e-09
-1.36051e-05
-2.97532e-09
-1.36027e-05
-3.04145e-09
-1.36005e-05
-3.06046e-09
-1.35985e-05
-2.81453e-09
-1.35961e-05
-3.00211e-09
-1.35941e-05
-2.64965e-09
-1.35921e-05
-2.5753e-09
-1.35907e-05
-2.46892e-09
-1.35886e-05
-2.32606e-09
-1.35869e-05
-2.43871e-09
-1.35854e-05
-1.72108e-09
-1.35839e-05
-2.25317e-09
-1.35827e-05
-1.71484e-09
-1.35809e-05
-2.60733e-09
-1.35797e-05
-1.2329e-09
-1.35785e-05
-1.94781e-09
-1.35774e-05
-1.22394e-09
-1.35763e-05
-1.76486e-09
-1.35753e-05
-1.00255e-09
-1.35745e-05
-1.50487e-09
-1.35735e-05
-1.05068e-09
-1.35729e-05
-1.36677e-09
-1.35715e-05
-1.13712e-09
-1.35712e-05
-9.34049e-10
-1.35707e-05
-2.72476e-10
-1.35699e-05
-1.21236e-09
-1.35701e-05
7.17713e-11
-1.3569e-05
-1.55765e-09
-1.35688e-05
-8.19679e-11
-1.35686e-05
-5.58529e-10
-1.35682e-05
2.79473e-12
-1.35682e-05
-5.81891e-10
-1.35682e-05
2.1633e-10
-1.35683e-05
-1.14026e-10
-1.35683e-05
4.43826e-10
-1.35686e-05
1.18303e-10
-1.35686e-05
3.93295e-10
-1.35691e-05
4.72637e-10
-1.35695e-05
6.02594e-10
-1.35699e-05
4.29993e-10
-1.35703e-05
8.73117e-10
-1.35711e-05
8.66448e-10
-1.35715e-05
8.04024e-10
-1.35725e-05
1.13553e-09
-1.35734e-05
1.25621e-09
-1.35741e-05
9.09734e-10
-1.35752e-05
1.48274e-09
-1.35765e-05
1.55223e-09
-1.35774e-05
1.32269e-09
-1.35783e-05
1.23361e-09
-1.35794e-05
1.54743e-09
-1.35805e-05
1.3741e-09
-1.35817e-05
1.70377e-09
-1.35826e-05
1.18638e-09
-1.35839e-05
1.78307e-09
-1.35847e-05
1.2544e-09
-1.35858e-05
1.50014e-09
-1.35864e-05
9.11255e-10
-1.3587e-05
1.06851e-09
-1.35876e-05
6.34915e-10
-1.35873e-05
1.69787e-11
-1.35866e-05
-5.73364e-10
-1.35854e-05
-1.44094e-09
-1.3583e-05
-2.62463e-09
-1.35794e-05
-4.46304e-09
-1.35735e-05
-7.0464e-09
-1.35651e-05
-1.01134e-08
-1.35536e-05
-1.42359e-08
-1.35376e-05
-1.9895e-08
-1.35149e-05
-2.81885e-08
-1.34837e-05
-3.89078e-08
-1.34408e-05
-5.38932e-08
-1.33819e-05
-7.43395e-08
-1.32989e-05
-1.04709e-07
-1.31818e-05
-1.48475e-07
-1.30109e-05
-2.16983e-07
-1.27568e-05
-3.23395e-07
-4.87355e-07
-2.68981e-05
-8.08023e-09
-2.68888e-05
-1.59301e-08
-2.68762e-05
-2.0674e-08
-2.68671e-05
-1.51924e-08
-2.68617e-05
-9.18643e-09
-2.68563e-05
-9.32753e-09
-2.68501e-05
-9.61551e-09
-2.68451e-05
-8.90175e-09
-2.68397e-05
-8.94675e-09
-2.68346e-05
-8.23739e-09
-2.683e-05
-7.69956e-09
-2.68253e-05
-7.84783e-09
-2.68202e-05
-8.24558e-09
-2.68158e-05
-7.23077e-09
-2.68121e-05
-6.8025e-09
-2.68077e-05
-7.09428e-09
-2.68035e-05
-6.83098e-09
-2.67996e-05
-6.69928e-09
-2.67962e-05
-5.59845e-09
-2.67927e-05
-6.14336e-09
-2.67894e-05
-4.93082e-09
-2.67863e-05
-5.5888e-09
-2.67825e-05
-5.53202e-09
-2.67801e-05
-5.24158e-09
-2.67773e-05
-3.97436e-09
-2.67747e-05
-4.83784e-09
-2.67714e-05
-4.37862e-09
-2.67696e-05
-3.82948e-09
-2.67673e-05
-3.24062e-09
-2.67647e-05
-4.30433e-09
-2.67627e-05
-2.9571e-09
-2.67607e-05
-3.74109e-09
-2.67592e-05
-2.44469e-09
-2.67574e-05
-2.97498e-09
-2.67559e-05
-1.59566e-09
-2.67546e-05
-2.75099e-09
-2.67525e-05
-1.98594e-09
-2.67518e-05
-2.51552e-09
-2.67508e-05
-9.63856e-10
-2.67499e-05
-1.74378e-09
-2.67492e-05
-4.47702e-10
-2.67484e-05
-1.68063e-09
-2.67475e-05
-5.50271e-10
-2.67469e-05
-8.81935e-10
-2.67472e-05
9.12198e-10
-2.6747e-05
-2.22817e-10
-2.67473e-05
7.95036e-10
-2.67474e-05
3.54292e-10
-2.67478e-05
1.15267e-09
-2.67479e-05
3.8886e-10
-2.67491e-05
2.10913e-09
-2.67494e-05
1.08119e-09
-2.67508e-05
2.23326e-09
-2.67513e-05
1.56602e-09
-2.67525e-05
2.50387e-09
-2.67542e-05
2.47782e-09
-2.67555e-05
2.84554e-09
-2.67566e-05
2.55298e-09
-2.67588e-05
3.51459e-09
-2.67607e-05
3.03009e-09
-2.67625e-05
3.37431e-09
-2.6764e-05
2.83692e-09
-2.67657e-05
3.43723e-09
-2.67679e-05
3.24315e-09
-2.67691e-05
3.07329e-09
-2.67707e-05
2.74283e-09
-2.6772e-05
2.84226e-09
-2.67735e-05
2.28246e-09
-2.6774e-05
1.63889e-09
-2.67734e-05
-3.55828e-11
-2.67726e-05
-7.61967e-10
-2.67701e-05
-3.10937e-09
-2.67653e-05
-6.16232e-09
-2.67592e-05
-8.75778e-09
-2.67492e-05
-1.4557e-08
-2.67359e-05
-2.03435e-08
-2.67166e-05
-2.94736e-08
-2.66896e-05
-4.12042e-08
-2.66529e-05
-5.66647e-08
-2.66021e-05
-7.89432e-08
-2.65338e-05
-1.07212e-07
-2.64409e-05
-1.46882e-07
-2.63129e-05
-2.02348e-07
-2.61368e-05
-2.8077e-07
-2.58888e-05
-3.96564e-07
-2.55318e-05
-5.73912e-07
-2.50069e-05
-8.48285e-07
-1.27066e-06
-4.43872e-05
-1.5672e-08
-4.43697e-05
-3.35233e-08
-4.43499e-05
-4.07155e-08
-4.4335e-05
-3.00962e-08
-4.4325e-05
-1.93023e-08
-4.43163e-05
-1.81091e-08
-4.43065e-05
-1.95119e-08
-4.42968e-05
-1.8674e-08
-4.42883e-05
-1.75887e-08
-4.42803e-05
-1.62385e-08
-4.4272e-05
-1.61413e-08
-4.42637e-05
-1.62233e-08
-4.42559e-05
-1.61961e-08
-4.42483e-05
-1.48525e-08
-4.42406e-05
-1.46664e-08
-4.42336e-05
-1.41629e-08
-4.42269e-05
-1.35664e-08
-4.42196e-05
-1.43158e-08
-4.42131e-05
-1.20242e-08
-4.42076e-05
-1.18419e-08
-4.42007e-05
-1.17752e-08
-4.41946e-05
-1.18842e-08
-4.41901e-05
-1.01038e-08
-4.41848e-05
-1.08232e-08
-4.41794e-05
-9.29728e-09
-4.41742e-05
-1.03074e-08
-4.417e-05
-8.50103e-09
-4.41652e-05
-8.90112e-09
-4.41619e-05
-6.38587e-09
-4.41571e-05
-9.39266e-09
-4.41539e-05
-6.10114e-09
-4.41495e-05
-8.47668e-09
-4.41461e-05
-5.70548e-09
-4.41433e-05
-5.99577e-09
-4.41398e-05
-4.89644e-09
-4.41368e-05
-5.98302e-09
-4.41343e-05
-4.51946e-09
-4.41314e-05
-5.67552e-09
-4.41292e-05
-3.0819e-09
-4.4127e-05
-4.09972e-09
-4.41257e-05
-1.65205e-09
-4.41245e-05
-3.17441e-09
-4.4123e-05
-1.96524e-09
-4.41222e-05
-1.79345e-09
-4.41207e-05
-3.89444e-10
-4.41203e-05
-7.88213e-10
-4.41201e-05
6.87989e-10
-4.41204e-05
4.03553e-10
-4.41201e-05
9.39127e-10
-4.4121e-05
1.2026e-09
-4.41216e-05
2.79775e-09
-4.41232e-05
2.63365e-09
-4.4125e-05
4.01579e-09
-4.41268e-05
3.33831e-09
-4.41287e-05
4.34424e-09
-4.4131e-05
4.67658e-09
-4.41337e-05
5.59483e-09
-4.41368e-05
5.49173e-09
-4.41397e-05
6.48806e-09
-4.41425e-05
5.70097e-09
-4.41456e-05
6.52445e-09
-4.41494e-05
6.53244e-09
-4.41527e-05
6.70939e-09
-4.41561e-05
6.53194e-09
-4.416e-05
7.09467e-09
-4.41633e-05
5.93088e-09
-4.41659e-05
5.43316e-09
-4.41677e-05
4.00732e-09
-4.41683e-05
2.30865e-09
-4.41684e-05
-4.09612e-11
-4.41666e-05
-2.55765e-09
-4.41617e-05
-7.95288e-09
-4.41541e-05
-1.38418e-08
-4.41412e-05
-2.16012e-08
-4.41237e-05
-3.20577e-08
-4.40973e-05
-4.68007e-08
-4.40601e-05
-6.67184e-08
-4.40099e-05
-9.14839e-08
-4.39404e-05
-1.26173e-07
-4.38477e-05
-1.71653e-07
-4.37213e-05
-2.33653e-07
-4.35503e-05
-3.1781e-07
-4.33198e-05
-4.32882e-07
-4.30023e-05
-5.98246e-07
-4.25598e-05
-8.39131e-07
-4.19293e-05
-1.20443e-06
-4.10113e-05
-1.76628e-06
-2.62775e-06
-6.68722e-05
-2.77769e-08
-6.68466e-05
-5.92239e-08
-6.68158e-05
-7.17982e-08
-6.67925e-05
-5.34252e-08
-6.67783e-05
-3.36039e-08
-6.67616e-05
-3.49477e-08
-6.67486e-05
-3.26005e-08
-6.67355e-05
-3.17909e-08
-6.67218e-05
-3.13671e-08
-6.67075e-05
-3.06776e-08
-6.66952e-05
-2.85103e-08
-6.66834e-05
-2.81979e-08
-6.667e-05
-2.97156e-08
-6.66587e-05
-2.6206e-08
-6.66467e-05
-2.66922e-08
-6.66357e-05
-2.53373e-08
-6.66236e-05
-2.57543e-08
-6.66137e-05
-2.44468e-08
-6.66037e-05
-2.19079e-08
-6.65933e-05
-2.24518e-08
-6.65842e-05
-2.08689e-08
-6.65748e-05
-2.14284e-08
-6.65653e-05
-1.96996e-08
-6.65565e-05
-1.98472e-08
-6.65482e-05
-1.75392e-08
-6.65414e-05
-1.7424e-08
-6.65343e-05
-1.55194e-08
-6.65264e-05
-1.70658e-08
-6.65183e-05
-1.44125e-08
-6.6513e-05
-1.49239e-08
-6.65054e-05
-1.36878e-08
-6.64999e-05
-1.4213e-08
-6.64939e-05
-1.16855e-08
-6.64886e-05
-1.14719e-08
-6.64834e-05
-9.92541e-09
-6.64787e-05
-1.08532e-08
-6.64745e-05
-8.701e-09
-6.64706e-05
-9.90508e-09
-6.64668e-05
-6.80578e-09
-6.64629e-05
-8.17184e-09
-6.64602e-05
-4.2187e-09
-6.64577e-05
-5.98527e-09
-6.64561e-05
-3.4896e-09
-6.64536e-05
-4.40765e-09
-6.64531e-05
-7.08509e-10
-6.64526e-05
-1.49786e-09
-6.64521e-05
3.65765e-10
-6.64522e-05
3.13823e-10
-6.64533e-05
2.10771e-09
-6.64546e-05
2.39212e-09
-6.64562e-05
4.50222e-09
-6.64594e-05
5.6497e-09
-6.64622e-05
6.83698e-09
-6.64664e-05
7.4861e-09
-6.64703e-05
8.2605e-09
-6.64755e-05
9.78513e-09
-6.64808e-05
1.09153e-08
-6.64868e-05
1.13784e-08
-6.6494e-05
1.37037e-08
-6.65007e-05
1.23398e-08
-6.65084e-05
1.4149e-08
-6.65156e-05
1.37278e-08
-6.65243e-05
1.54134e-08
-6.65334e-05
1.54951e-08
-6.65407e-05
1.44678e-08
-6.65486e-05
1.3792e-08
-6.65562e-05
1.30416e-08
-6.65621e-05
9.7804e-09
-6.65666e-05
6.84444e-09
-6.65684e-05
1.64069e-09
-6.65658e-05
-5.0661e-09
-6.65598e-05
-1.39531e-08
-6.65498e-05
-2.39176e-08
-6.65298e-05
-4.15519e-08
-6.64984e-05
-6.34902e-08
-6.64536e-05
-9.16373e-08
-6.63916e-05
-1.28734e-07
-6.63053e-05
-1.77878e-07
-6.61885e-05
-2.4301e-07
-6.60292e-05
-3.30896e-07
-6.58172e-05
-4.45737e-07
-6.55311e-05
-6.03892e-07
-6.5145e-05
-8.19019e-07
-6.46195e-05
-1.12376e-06
-6.38923e-05
-1.56638e-06
-6.28651e-05
-2.23161e-06
-6.13841e-05
-3.24728e-06
-4.79716e-06
-9.51491e-05
-4.60989e-08
-9.51119e-05
-9.66263e-08
-9.50671e-05
-1.1689e-07
-9.50321e-05
-8.84662e-08
-9.50119e-05
-5.39918e-08
-9.49906e-05
-5.63034e-08
-9.49692e-05
-5.41199e-08
-9.49492e-05
-5.18875e-08
-9.49294e-05
-5.1299e-08
-9.49111e-05
-4.90069e-08
-9.48918e-05
-4.79037e-08
-9.48728e-05
-4.73793e-08
-9.48564e-05
-4.62196e-08
-9.48379e-05
-4.48429e-08
-9.48209e-05
-4.38079e-08
-9.48027e-05
-4.37113e-08
-9.47891e-05
-3.93582e-08
-9.47727e-05
-4.11876e-08
-9.47567e-05
-3.78092e-08
-9.47419e-05
-3.74512e-08
-9.47267e-05
-3.60648e-08
-9.47142e-05
-3.41282e-08
-9.47008e-05
-3.32131e-08
-9.46872e-05
-3.37397e-08
-9.46756e-05
-2.90425e-08
-9.46631e-05
-3.03022e-08
-9.46513e-05
-2.72773e-08
-9.46415e-05
-2.71309e-08
-9.46307e-05
-2.5115e-08
-9.46207e-05
-2.51079e-08
-9.46108e-05
-2.35903e-08
-9.46021e-05
-2.32284e-08
-9.45937e-05
-2.0077e-08
-9.45857e-05
-1.96132e-08
-9.4578e-05
-1.75349e-08
-9.45715e-05
-1.75741e-08
-9.45644e-05
-1.5812e-08
-9.45589e-05
-1.56568e-08
-9.45535e-05
-1.21542e-08
-9.45495e-05
-1.23363e-08
-9.4546e-05
-7.65023e-09
-9.45421e-05
-1.01407e-08
-9.45397e-05
-5.84653e-09
-9.45392e-05
-5.02733e-09
-9.45382e-05
-1.54805e-09
-9.45383e-05
-1.61437e-09
-9.45391e-05
1.3532e-09
-9.45413e-05
2.32376e-09
-9.45447e-05
5.48445e-09
-9.45488e-05
6.50325e-09
-9.45532e-05
8.94516e-09
-9.456e-05
1.233e-08
-9.45671e-05
1.39509e-08
-9.45753e-05
1.5563e-08
-9.45866e-05
1.95599e-08
-9.45969e-05
1.99633e-08
-9.46103e-05
2.43626e-08
-9.46243e-05
2.52734e-08
-9.46385e-05
2.79067e-08
-9.46542e-05
2.78465e-08
-9.46718e-05
3.17599e-08
-9.46888e-05
3.0623e-08
-9.47079e-05
3.46161e-08
-9.4726e-05
3.34862e-08
-9.47455e-05
3.39815e-08
-9.47648e-05
3.29622e-08
-9.47817e-05
2.99939e-08
-9.47974e-05
2.54004e-08
-9.48096e-05
1.90226e-08
-9.48171e-05
9.12737e-09
-9.48198e-05
-2.42014e-09
-9.48144e-05
-1.93328e-08
-9.47981e-05
-4.0163e-08
-9.47688e-05
-7.09685e-08
-9.47213e-05
-1.10986e-07
-9.46518e-05
-1.61176e-07
-9.45516e-05
-2.2895e-07
-9.44138e-05
-3.15722e-07
-9.42243e-05
-4.32501e-07
-9.39694e-05
-5.85886e-07
-9.36276e-05
-7.87524e-07
-9.31722e-05
-1.05936e-06
-9.25606e-05
-1.43059e-06
-9.17306e-05
-1.95379e-06
-9.05895e-05
-2.70753e-06
-8.8996e-05
-3.82502e-06
-8.67199e-05
-5.52342e-06
-8.10359e-06
-0.000130019
-6.90512e-08
-0.000129967
-1.49225e-07
-0.000129904
-1.8024e-07
-0.000129854
-1.379e-07
-0.000129825
-8.36985e-08
-0.000129797
-8.41993e-08
-0.00012977
-8.12861e-08
-0.000129739
-8.25725e-08
-0.000129713
-7.74613e-08
-0.000129685
-7.75441e-08
-0.00012966
-7.31988e-08
-0.000129633
-7.41133e-08
-0.000129607
-7.22731e-08
-0.000129582
-6.97978e-08
-0.00012956
-6.61751e-08
-0.000129537
-6.66694e-08
-0.000129513
-6.34966e-08
-0.000129492
-6.30346e-08
-0.00012947
-5.95537e-08
-0.000129448
-5.96842e-08
-0.00012943
-5.42052e-08
-0.000129408
-5.60071e-08
-0.000129389
-5.27414e-08
-0.000129372
-5.08908e-08
-0.000129355
-4.54839e-08
-0.000129338
-4.80259e-08
-0.000129323
-4.23511e-08
-0.000129306
-4.4305e-08
-0.000129294
-3.72168e-08
-0.000129278
-4.08043e-08
-0.000129266
-3.52199e-08
-0.000129252
-3.79138e-08
-0.000129242
-3.03551e-08
-0.00012923
-3.14461e-08
-0.000129221
-2.62574e-08
-0.000129211
-2.81446e-08
-0.000129203
-2.38972e-08
-0.000129196
-2.25032e-08
-0.00012919
-1.84556e-08
-0.000129186
-1.63521e-08
-0.000129182
-1.20177e-08
-0.00012918
-1.20817e-08
-0.000129179
-6.73563e-09
-0.000129179
-4.77284e-09
-0.000129181
6.17019e-11
-0.000129184
1.66422e-09
-0.00012919
7.55555e-09
-0.000129196
7.74299e-09
-0.000129204
1.37536e-08
-0.000129215
1.73492e-08
-0.000129228
2.23432e-08
-0.000129242
2.55276e-08
-0.00012926
3.22753e-08
-0.000129279
3.46056e-08
-0.0001293
4.03384e-08
-0.000129325
4.4924e-08
-0.000129352
5.12612e-08
-0.000129381
5.44206e-08
-0.000129413
5.99338e-08
-0.000129446
6.10884e-08
-0.000129482
6.74038e-08
-0.000129521
6.95071e-08
-0.00012956
7.30799e-08
-0.0001296
7.35076e-08
-0.000129638
7.2765e-08
-0.000129678
7.22993e-08
-0.000129714
6.60652e-08
-0.000129747
5.83662e-08
-0.000129776
4.77513e-08
-0.000129798
3.11705e-08
-0.000129807
7.28222e-09
-0.000129806
-2.10668e-08
-0.000129784
-6.14819e-08
-0.000129744
-1.11379e-07
-0.000129672
-1.82629e-07
-0.000129564
-2.69314e-07
-0.000129409
-3.84518e-07
-0.000129191
-5.3309e-07
-0.000128897
-7.26955e-07
-0.000128497
-9.85488e-07
-0.000127971
-1.31446e-06
-0.000127265
-1.76473e-06
-0.000126326
-2.36973e-06
-0.000125057
-3.2224e-06
-0.000123328
-4.43684e-06
-0.000120935
-6.21838e-06
-0.000117549
-8.90933e-06
-1.29798e-05
-0.000172279
-9.84746e-08
-0.000172208
-2.20514e-07
-0.000172119
-2.69657e-07
-0.000172055
-2.01724e-07
-0.000172016
-1.22775e-07
-0.000171976
-1.24373e-07
-0.000171936
-1.2119e-07
-0.0001719
-1.1857e-07
-0.000171862
-1.16463e-07
-0.000171826
-1.13249e-07
-0.000171792
-1.07498e-07
-0.000171758
-1.07665e-07
-0.000171723
-1.07744e-07
-0.00017169
-1.03222e-07
-0.000171658
-9.84219e-08
-0.000171624
-1.00243e-07
-0.000171594
-9.43069e-08
-0.000171563
-9.34275e-08
-0.000171535
-8.82725e-08
-0.000171508
-8.70206e-08
-0.000171479
-8.24728e-08
-0.000171454
-8.14574e-08
-0.000171428
-7.87339e-08
-0.000171404
-7.49891e-08
-0.00017138
-7.00672e-08
-0.00017136
-6.8177e-08
-0.000171336
-6.59555e-08
-0.000171319
-6.19484e-08
-0.000171297
-5.8947e-08
-0.000171281
-5.68955e-08
-0.000171262
-5.42506e-08
-0.000171249
-5.20417e-08
-0.000171234
-4.51066e-08
-0.000171222
-4.37167e-08
-0.00017121
-3.79336e-08
-0.000171201
-3.75995e-08
-0.000171192
-3.22311e-08
-0.000171185
-2.98845e-08
-0.00017118
-2.34228e-08
-0.000171177
-1.9924e-08
-0.000171177
-1.18319e-08
-0.000171178
-1.1196e-08
-0.000171181
-3.87446e-09
-0.000171185
-7.66054e-10
-0.000171195
9.86013e-09
-0.000171205
1.20081e-08
-0.000171219
2.10116e-08
-0.000171236
2.4665e-08
-0.000171257
3.50553e-08
-0.000171279
3.95223e-08
-0.000171306
4.88745e-08
-0.000171339
5.90304e-08
-0.000171373
6.59841e-08
-0.000171413
7.4665e-08
-0.000171457
8.35854e-08
-0.000171506
9.4108e-08
-0.00017156
1.05364e-07
-0.000171616
1.10546e-07
-0.000171677
1.20633e-07
-0.000171745
1.28866e-07
-0.000171814
1.36253e-07
-0.000171886
1.41453e-07
-0.00017196
1.47649e-07
-0.000172036
1.4884e-07
-0.000172111
1.47632e-07
-0.000172184
1.45496e-07
-0.000172255
1.36769e-07
-0.000172317
1.20392e-07
-0.00017237
1.00916e-07
-0.000172411
7.20481e-08
-0.000172437
3.31845e-08
-0.000172437
-2.1034e-08
-0.000172413
-8.57386e-08
-0.00017235
-1.73991e-07
-0.000172241
-2.9207e-07
-0.000172073
-4.36413e-07
-0.000171834
-6.2394e-07
-0.000171502
-8.65667e-07
-0.000171049
-1.17992e-06
-0.000170444
-1.59058e-06
-0.000169643
-2.11515e-06
-0.000168583
-2.82457e-06
-0.000167175
-3.77814e-06
-0.000165286
-5.11159e-06
-0.000162724
-6.99867e-06
-0.000159215
-9.72746e-06
-0.000154297
-1.38267e-05
-2.00008e-05
-0.000222728
-1.30528e-07
-0.000222636
-3.12625e-07
-0.000222519
-3.87066e-07
-0.000222423
-2.97345e-07
-0.000222374
-1.72445e-07
-0.000222324
-1.74307e-07
-0.000222274
-1.71238e-07
-0.000222224
-1.68778e-07
-0.000222178
-1.62509e-07
-0.000222132
-1.59112e-07
-0.000222086
-1.54498e-07
-0.00022204
-1.53611e-07
-0.000221997
-1.50322e-07
-0.000221952
-1.48655e-07
-0.00022191
-1.40248e-07
-0.000221869
-1.42214e-07
-0.000221828
-1.35193e-07
-0.000221789
-1.32154e-07
-0.000221753
-1.2463e-07
-0.000221716
-1.24426e-07
-0.000221679
-1.19127e-07
-0.000221645
-1.15676e-07
-0.000221614
-1.10211e-07
-0.000221582
-1.06983e-07
-0.000221552
-1.0021e-07
-0.000221526
-9.43771e-08
-0.0002215
-9.2356e-08
-0.000221474
-8.82917e-08
-0.000221453
-7.90347e-08
-0.000221429
-8.19102e-08
-0.000221412
-7.11464e-08
-0.000221394
-6.99926e-08
-0.000221377
-6.17189e-08
-0.000221364
-5.77614e-08
-0.000221352
-4.92645e-08
-0.000221343
-4.65349e-08
-0.000221337
-3.85261e-08
-0.000221333
-3.41635e-08
-0.000221335
-2.19152e-08
-0.000221335
-2.02261e-08
-0.00022134
-6.43572e-09
-0.00022135
-1.25643e-09
-0.000221362
7.72177e-09
-0.00022138
1.71395e-08
-0.000221401
3.17426e-08
-0.000221426
3.69452e-08
-0.000221457
5.17943e-08
-0.000221495
6.18621e-08
-0.000221536
7.63137e-08
-0.000221582
8.56838e-08
-0.000221639
1.05479e-07
-0.000221697
1.178e-07
-0.000221767
1.35401e-07
-0.000221841
1.48575e-07
-0.000221924
1.66854e-07
-0.000222014
1.83554e-07
-0.000222111
2.02492e-07
-0.000222218
2.18104e-07
-0.00022233
2.32257e-07
-0.000222449
2.47525e-07
-0.000222573
2.60163e-07
-0.000222701
2.69543e-07
-0.000222832
2.78904e-07
-0.000222964
2.80439e-07
-0.000223095
2.78666e-07
-0.000223221
2.71043e-07
-0.000223338
2.53849e-07
-0.000223443
2.25537e-07
-0.000223534
1.91508e-07
-0.0002236
1.38539e-07
-0.000223639
7.18479e-08
-0.000223644
-1.61066e-08
-0.000223603
-1.26836e-07
-0.000223504
-2.72768e-07
-0.000223334
-4.61779e-07
-0.000223081
-6.89855e-07
-0.000222711
-9.93539e-07
-0.000222205
-1.37234e-06
-0.000221522
-1.86239e-06
-0.000220613
-2.49933e-06
-0.000219425
-3.30353e-06
-0.000217853
-4.39613e-06
-0.000215782
-5.84941e-06
-0.000213018
-7.8755e-06
-0.000209298
-1.07195e-05
-0.000204248
-1.47769e-05
-0.000197236
-2.08392e-05
-2.99182e-05
-0.000282179
-0.00028206
-0.000281905
-0.000281789
-4.12773e-07
-0.000281728
-2.3368e-07
-0.000281663
-2.39728e-07
-0.000281603
-2.31934e-07
-0.00028154
-2.31036e-07
-0.000281479
-2.24418e-07
-0.000281418
-2.19729e-07
-0.000281361
-2.11454e-07
-0.000281305
-2.1003e-07
-0.000281249
-2.06995e-07
-0.000281194
-2.03586e-07
-0.000281138
-1.96506e-07
-0.000281089
-1.90857e-07
-0.000281037
-1.87533e-07
-0.000280988
-1.81847e-07
-0.000280938
-1.7427e-07
-0.000280893
-1.6949e-07
-0.000280852
-1.60697e-07
-0.000280809
-1.59106e-07
-0.000280769
-1.49882e-07
-0.000280732
-1.44466e-07
-0.000280699
-1.33286e-07
-0.000280663
-1.30704e-07
-0.000280634
-1.2112e-07
-0.000280608
-1.14323e-07
-0.000280582
-1.05436e-07
-0.000280559
-1.04824e-07
-0.000280537
-9.37253e-08
-0.000280518
-8.905e-08
-0.000280507
-7.33079e-08
-0.000280495
-6.99164e-08
-0.000280488
-5.52444e-08
-0.000280484
-5.16527e-08
-0.000280483
-3.94265e-08
-0.000280488
-2.87467e-08
-0.000280495
-1.50293e-08
-0.000280511
-4.636e-09
-0.000280531
1.35891e-08
-0.000280555
2.20782e-08
-0.000280587
4.00766e-08
-0.000280626
5.62898e-08
-0.00028067
7.56691e-08
-0.000280724
9.01713e-08
-0.000280786
1.14371e-07
-0.000280854
1.29741e-07
-0.00028093
1.52476e-07
-0.00028102
1.75361e-07
-0.00028112
2.05329e-07
-0.000281229
2.26776e-07
-0.00028135
2.56238e-07
-0.000281484
2.83086e-07
-0.000281629
3.11734e-07
-0.000281787
3.41301e-07
-0.000281958
3.72946e-07
-0.000282137
3.97368e-07
-0.000282329
4.24404e-07
-0.000282529
4.4736e-07
-0.000282737
4.67671e-07
-0.000282948
4.81108e-07
-0.000283163
4.94024e-07
-0.000283376
4.92495e-07
-0.000283583
4.85653e-07
-0.000283779
4.66896e-07
-0.000283962
4.36859e-07
-0.000284123
3.866e-07
-0.000284254
3.22695e-07
-0.000284349
2.33209e-07
-0.0002844
1.22834e-07
-0.000284395
-2.0998e-08
-0.000284316
-2.05524e-07
-0.000284155
-4.33688e-07
-0.000283886
-7.30962e-07
-0.000283488
-1.08814e-06
-0.000282925
-1.55626e-06
-0.000282161
-2.13644e-06
-0.000281142
-2.88132e-06
-0.0002798
-3.84187e-06
-0.000278053
-5.05049e-06
-0.000275762
-6.68706e-06
-0.000272756
-8.85571e-06
-0.00026877
-1.18612e-05
-0.000263445
-1.60442e-05
-0.000256284
-2.19376e-05
-0.000246433
-3.0691e-05
-4.37125e-05
-0.000351029
-5.51842e-07
-0.000350951
-3.12337e-07
-0.000350871
-3.20254e-07
-0.000350794
-3.09172e-07
-0.000350717
-3.07697e-07
-0.000350644
-2.97703e-07
-0.000350573
-2.91118e-07
-0.000350502
-2.81787e-07
-0.000350432
-2.80693e-07
-0.000350361
-2.78249e-07
-0.000350296
-2.69127e-07
-0.00035023
-2.6262e-07
-0.000350166
-2.55161e-07
-0.000350104
-2.48702e-07
-0.000350043
-2.43901e-07
-0.000349987
-2.30402e-07
-0.000349933
-2.23112e-07
-0.000349881
-2.13206e-07
-0.000349833
-2.07165e-07
-0.000349786
-1.96519e-07
-0.000349744
-1.87395e-07
-0.000349705
-1.72169e-07
-0.000349672
-1.6417e-07
-0.000349636
-1.56576e-07
-0.000349608
-1.43284e-07
-0.000349581
-1.31889e-07
-0.000349561
-1.25117e-07
-0.000349544
-1.10927e-07
-0.000349531
-1.02597e-07
-0.00034952
-8.3543e-08
-0.000349519
-7.18388e-08
-0.000349522
-5.19018e-08
-0.000349529
-4.48495e-08
-0.000349543
-2.57445e-08
-0.000349564
-7.60087e-09
-0.000349592
1.29941e-08
-0.000349627
2.99625e-08
-0.000349672
5.90041e-08
-0.000349727
7.63051e-08
-0.000349789
1.02215e-07
-0.000349861
1.28496e-07
-0.000349948
1.62636e-07
-0.000350047
1.89384e-07
-0.000350154
2.21198e-07
-0.00035028
2.55523e-07
-0.000350418
2.90323e-07
-0.000350573
3.30771e-07
-0.000350741
3.73338e-07
-0.000350932
4.16979e-07
-0.000351139
4.63628e-07
-0.000351363
5.06994e-07
-0.000351608
5.56353e-07
-0.000351869
6.02364e-07
-0.000352145
6.4919e-07
-0.000352442
6.93977e-07
-0.000352748
7.30518e-07
-0.000353065
7.6436e-07
-0.00035339
7.92607e-07
-0.000353721
8.11607e-07
-0.000354048
8.21743e-07
-0.000354368
8.11852e-07
-0.000354675
7.92881e-07
-0.00035496
7.52147e-07
-0.000355219
6.94895e-07
-0.000355438
6.05577e-07
-0.00035561
4.947e-07
-0.000355723
3.46817e-07
-0.00035577
1.69324e-07
-0.000355722
-6.91242e-08
-0.000355578
-3.487e-07
-0.000355302
-7.10387e-07
-0.000354867
-1.16531e-06
-0.000354249
-1.70679e-06
-0.000353394
-2.4112e-06
-0.000352251
-3.27994e-06
-0.000350739
-4.39298e-06
-0.000348773
-5.80828e-06
-0.000346236
-7.58702e-06
-0.000342925
-9.99801e-06
-0.000338606
-1.3175e-05
-0.000332917
-1.755e-05
-0.000325386
-2.35752e-05
-0.000315346
-3.19777e-05
-0.000301677
-4.43604e-05
-6.26223e-05
-0.000431103
-7.12555e-07
-0.000431011
-4.04907e-07
-0.000430921
-4.10861e-07
-0.000430825
-4.05024e-07
-0.000430736
-3.96479e-07
-0.000430645
-3.89478e-07
-0.00043056
-3.76069e-07
-0.000430474
-3.67576e-07
-0.00043039
-3.65046e-07
-0.00043031
-3.58631e-07
-0.00043023
-3.49362e-07
-0.000430155
-3.37679e-07
-0.000430075
-3.35289e-07
-0.000430004
-3.20028e-07
-0.000429938
-3.10356e-07
-0.000429871
-2.97205e-07
-0.000429809
-2.85914e-07
-0.000429748
-2.73632e-07
-0.000429693
-2.62802e-07
-0.000429645
-2.44875e-07
-0.000429602
-2.30499e-07
-0.000429561
-2.12874e-07
-0.000429525
-2.01318e-07
-0.000429495
-1.85959e-07
-0.000429469
-1.69915e-07
-0.000429451
-1.49531e-07
-0.000429434
-1.42564e-07
-0.000429425
-1.20298e-07
-0.000429425
-1.03262e-07
-0.00042943
-7.83751e-08
-0.000429443
-5.85881e-08
-0.000429464
-3.14374e-08
-0.000429495
-1.41463e-08
-0.000429537
1.64104e-08
-0.000429586
4.13353e-08
-0.000429647
7.43369e-08
-0.000429725
1.07568e-07
-0.000429809
1.43074e-07
-0.00042991
1.76926e-07
-0.000430026
2.17529e-07
-0.00043016
2.63039e-07
-0.000430309
3.11932e-07
-0.000430474
3.5405e-07
-0.000430665
4.12358e-07
-0.000430874
4.64142e-07
-0.000431108
5.24444e-07
-0.000431365
5.87642e-07
-0.000431649
6.57136e-07
-0.000431957
7.24751e-07
-0.000432294
8.00454e-07
-0.000432655
8.6829e-07
-0.000433041
9.4202e-07
-0.000433455
1.01652e-06
-0.000433892
1.08601e-06
-0.000434345
1.14678e-06
-0.000434816
1.20163e-06
-0.000435294
1.24264e-06
-0.000435779
1.27743e-06
-0.000436261
1.2932e-06
-0.000436731
1.29126e-06
-0.000437182
1.26352e-06
-0.000437603
1.21394e-06
-0.000437992
1.14026e-06
-0.000438324
1.02773e-06
-0.000438596
8.77133e-07
-0.000438792
6.90853e-07
-0.000438899
4.53263e-07
-0.000438896
1.66709e-07
-0.000438768
-1.97013e-07
-0.000438486
-6.30684e-07
-0.000438014
-1.18236e-06
-0.000437322
-1.85808e-06
-0.000436366
-2.66242e-06
-0.000435067
-3.7103e-06
-0.000433363
-4.98449e-06
-0.000431141
-6.61455e-06
-0.000428275
-8.67419e-06
-0.000424608
-1.12539e-05
-0.000419853
-1.4753e-05
-0.000413689
-1.93396e-05
-0.000405646
-2.55926e-05
-0.000395094
-3.41274e-05
-0.000381163
-4.59087e-05
-0.000362419
-6.31046e-05
-8.81673e-05
-0.000523108
-8.80716e-07
-0.000522999
-5.13716e-07
-0.00052289
-5.20214e-07
-0.000522784
-5.11326e-07
-0.00052268
-5.00869e-07
-0.000522579
-4.90579e-07
-0.000522478
-4.77057e-07
-0.000522376
-4.69916e-07
-0.000522283
-4.58873e-07
-0.000522187
-4.53909e-07
-0.000522094
-4.43068e-07
-0.000522005
-4.27181e-07
-0.000521921
-4.1937e-07
-0.00052184
-4.01269e-07
-0.000521762
-3.88315e-07
-0.000521692
-3.67008e-07
-0.000521622
-3.56523e-07
-0.00052156
-3.35464e-07
-0.000521508
-3.15254e-07
-0.000521457
-2.95883e-07
-0.00052141
-2.77715e-07
-0.000521376
-2.46693e-07
-0.000521349
-2.28675e-07
-0.000521329
-2.06736e-07
-0.000521316
-1.82439e-07
-0.00052131
-1.56236e-07
-0.000521313
-1.39699e-07
-0.000521324
-1.09463e-07
-0.000521345
-8.17441e-08
-0.000521381
-4.26859e-08
-0.000521424
-1.62422e-08
-0.00052148
2.44187e-08
-0.000521548
5.42216e-08
-0.00052163
9.7891e-08
-0.000521734
1.4552e-07
-0.000521852
1.92294e-07
-0.000521983
2.38261e-07
-0.000522139
2.98899e-07
-0.000522316
3.53965e-07
-0.000522514
4.15735e-07
-0.00052274
4.88746e-07
-0.000522989
5.61003e-07
-0.000523272
6.36785e-07
-0.000523581
7.212e-07
-0.000523925
8.07676e-07
-0.0005243
8.99729e-07
-0.000524711
9.98449e-07
-0.000525163
1.10951e-06
-0.000525652
1.21336e-06
-0.000526176
1.32452e-06
-0.000526737
1.42893e-06
-0.000527332
1.5374e-06
-0.000527958
1.64201e-06
-0.000528609
1.73717e-06
-0.000529279
1.8171e-06
-0.000529965
1.88718e-06
-0.000530653
1.93092e-06
-0.000531335
1.95892e-06
-0.000532002
1.96001e-06
-0.000532639
1.9288e-06
-0.000533237
1.86138e-06
-0.000533781
1.75751e-06
-0.000534255
1.61471e-06
-0.00053465
1.42272e-06
-0.000534944
1.17106e-06
-0.000535126
8.7249e-07
-0.00053517
4.97213e-07
-0.000535058
5.42228e-08
-0.00053476
-4.94417e-07
-0.000534242
-1.1493e-06
-0.000533455
-1.96937e-06
-0.000532355
-2.95732e-06
-0.00053088
-4.13767e-06
-0.000528921
-5.66957e-06
-0.000526388
-7.51771e-06
-0.000523128
-9.87441e-06
-0.000518968
-1.28347e-05
-0.000513684
-1.65376e-05
-0.000506884
-2.15527e-05
-0.00049814
-2.80834e-05
-0.00048684
-3.68926e-05
-0.000472197
-4.87713e-05
-0.00045308
-6.5025e-05
-0.000427725
-8.84603e-05
-0.000122105
-0.000628247
-1.05312e-06
-0.000628127
-6.34319e-07
-0.000628005
-6.42588e-07
-0.000627883
-6.32942e-07
-0.000627765
-6.19271e-07
-0.000627652
-6.04255e-07
-0.000627544
-5.85451e-07
-0.000627435
-5.78888e-07
-0.000627323
-5.71047e-07
-0.000627218
-5.59406e-07
-0.000627121
-5.4018e-07
-0.000627024
-5.24233e-07
-0.000626934
-5.10011e-07
-0.000626843
-4.92522e-07
-0.000626765
-4.66531e-07