/*--------------------------------*- C++ -*----------------------------------*\
| =========                 |                                                 |
| \\      /  F ield         | OpenFOAM: The Open Source CFD Toolbox           |
|  \\    /   O peration     | Version:  2412                                  |
|   \\  /    A nd           | Website:  www.openfoam.com                      |
|    \\/     M anipulation  |                                                 |
\*---------------------------------------------------------------------------*/
FoamFile
{
    version     2.0;
    format      ascii;
    arch        "LSB;label=32;scalar=64";
    class       volVectorField;
    location    "180";
    object      U;
}
// * * * * * * * * * * * * * * * * * * * * * * * * * * * * * * * * * * * * * //

dimensions      [0 1 -1 0 0 0 0];

internalField   nonuniform List<vector> 
7373
(
(0.63686 -0.0511305 0)
(0.636759 -0.0521172 5.15039e-26)
(0.636594 -0.0531311 -2.14117e-19)
(0.63638 -0.0541743 -2.13755e-19)
(0.636098 -0.0552476 0)
(0.635759 -0.0563545 0)
(0.635364 -0.0574972 -5.16675e-26)
(0.634902 -0.0586767 -2.16166e-19)
(0.634369 -0.0598954 -9.38336e-28)
(0.633773 -0.0611558 2.19896e-19)
(0.633092 -0.0624594 -2.22457e-19)
(0.632323 -0.0638075 -2.25474e-19)
(0.631463 -0.0652023 4.57926e-19)
(0.630511 -0.0666475 5.48962e-26)
(0.629458 -0.068144 -4.7519e-19)
(0.628282 -0.0696924 4.85633e-19)
(0.626979 -0.0712947 -4.9736e-19)
(0.625548 -0.0729523 0)
(0.623976 -0.0746686 0)
(0.622253 -0.0764424 1.33052e-26)
(0.620358 -0.0782736 -5.58947e-19)
(0.618273 -0.0801636 -1.4765e-25)
(0.615996 -0.0821118 -1.45923e-25)
(0.613517 -0.0841201 1.46092e-25)
(0.610814 -0.0861855 -1.0627e-27)
(0.607865 -0.0883071 6.79698e-19)
(0.604651 -0.0904808 -7.11492e-19)
(0.601161 -0.0927073 7.46385e-19)
(0.597374 -0.0949819 1.56932e-18)
(0.593262 -0.0972993 -8.26625e-19)
(0.588815 -0.0996582 0)
(0.583996 -0.102047 -7.23414e-28)
(0.578771 -0.104462 -9.78444e-19)
(0.573134 -0.106896 -2.41632e-25)
(0.567054 -0.109339 1.10564e-18)
(0.560487 -0.111778 -1.17862e-18)
(0.553407 -0.114204 -1.2587e-18)
(0.545788 -0.116603 -1.34663e-18)
(0.537593 -0.11896 -1.91873e-26)
(0.528786 -0.121259 3.09873e-18)
(0.519329 -0.123477 0)
(0.509188 -0.125603 0)
(0.498331 -0.127608 -3.87229e-18)
(0.486715 -0.129473 -9.69595e-25)
(0.474303 -0.131163 2.26448e-18)
(0.461046 -0.132651 -6.98601e-26)
(0.446928 -0.133914 2.66524e-18)
(0.43195 -0.134926 1.34214e-24)
(0.416135 -0.135668 0)
(0.399603 -0.136159 0)
(0.38255 -0.13645 0)
(0.365284 -0.136637 4.11643e-18)
(0.348291 -0.136922 -4.51105e-18)
(0.331922 -0.137477 -4.95102e-18)
(0.316147 -0.138384 -5.44125e-18)
(0.30039 -0.139459 -5.98705e-18)
(0.283383 -0.140151 6.59271e-18)
(0.263068 -0.139355 -7.26084e-18)
(0.23631 -0.135019 0)
(0.19858 -0.123436 -8.7652e-18)
(0.143066 -0.0978794 -9.5548e-18)
(0.0582906 -0.0445335 -1.02836e-17)
(-0.0606929 0.0532772 1.02813e-23)
(-0.232794 0.241345 5.34421e-18)
(-0.473351 0.612579 -3.34474e-24)
(-0.707071 1.25937 2.55422e-18)
(-0.779093 2.36941 1.90715e-18)
(-0.284384 3.54469 1.37123e-18)
(1.99291 -0.160002 0)
(1.9926 -0.16309 3.58255e-19)
(1.99205 -0.166259 3.56971e-19)
(1.99135 -0.169521 -3.56366e-19)
(1.99047 -0.17288 0)
(1.9894 -0.176343 0)
(1.98814 -0.179916 3.58455e-19)
(1.98667 -0.183606 3.60448e-19)
(1.985 -0.187418 -8.58362e-26)
(1.9831 -0.191358 -3.66643e-19)
(1.98094 -0.195434 3.70915e-19)
(1.97851 -0.199651 3.75965e-19)
(1.97582 -0.204015 4.03119e-26)
(1.97281 -0.208532 0)
(1.96947 -0.21321 0)
(1.96576 -0.218052 -8.0967e-19)
(1.96165 -0.223062 8.29242e-19)
(1.95714 -0.228244 6.0715e-27)
(1.95218 -0.233608 -4.17526e-25)
(1.94674 -0.239151 1.80395e-18)
(1.94077 -0.244876 9.31729e-19)
(1.93421 -0.250782 -2.15797e-25)
(1.92704 -0.256871 -1.00078e-18)
(1.91922 -0.263144 1.04066e-18)
(1.9107 -0.269598 1.08451e-18)
(1.90141 -0.276223 -2.64668e-25)
(1.89129 -0.283013 -2.88971e-25)
(1.8803 -0.289964 5.9354e-25)
(1.86836 -0.297062 -1.30733e-18)
(1.8554 -0.304295 1.37715e-18)
(1.84138 -0.311654 0)
(1.82621 -0.319109 -1.53767e-18)
(1.80976 -0.326638 0)
(1.79201 -0.334222 0)
(1.77285 -0.341835 -1.8754e-25)
(1.75217 -0.349429 1.9626e-18)
(1.72987 -0.356979 -9.73417e-25)
(1.70587 -0.364436 1.00086e-25)
(1.68005 -0.371755 2.4026e-18)
(1.65229 -0.378886 -2.57909e-18)
(1.62249 -0.385762 -2.77321e-18)
(1.59054 -0.392331 -2.85195e-24)
(1.55632 -0.398516 3.22214e-18)
(1.51968 -0.404235 0)
(1.48053 -0.409408 -7.53571e-18)
(1.43871 -0.413927 0)
(1.39417 -0.417719 -4.43388e-18)
(1.34688 -0.420697 2.37143e-24)
(1.29694 -0.422804 -2.43109e-24)
(1.2447 -0.424098 0)
(1.19078 -0.42471 0)
(1.13613 -0.424945 -6.84503e-18)
(1.08227 -0.425437 0)
(1.03033 -0.426723 -8.23116e-18)
(0.980231 -0.429027 9.04522e-18)
(0.93018 -0.431806 9.95135e-18)
(0.87628 -0.43334 0)
(0.81219 -0.43021 1.20657e-17)
(0.728312 -0.416051 1.32744e-17)
(0.610801 -0.379591 2.9123e-17)
(0.439053 -0.300227 1.53537e-23)
(0.178734 -0.136352 -1.70773e-17)
(-0.184015 0.16181 3.57056e-17)
(-0.704477 0.730565 -6.55136e-23)
(-1.42524 1.84379 0)
(-2.11935 3.76997 0)
(-2.32698 7.05021 -4.78849e-18)
(-0.854335 10.5632 -6.80576e-18)
(3.52384 -0.282913 0)
(3.52326 -0.288371 -8.09953e-19)
(3.52226 -0.293972 0)
(3.52098 -0.299737 4.02842e-19)
(3.51939 -0.305674 2.58961e-27)
(3.51749 -0.311794 -1.91162e-25)
(3.51523 -0.318109 -4.05202e-19)
(3.51262 -0.324631 0)
(3.50962 -0.331367 4.1053e-19)
(3.50621 -0.338329 0)
(3.50236 -0.345533 4.19282e-19)
(3.49804 -0.352984 2.04932e-25)
(3.49323 -0.360696 -6.44213e-26)
(3.48787 -0.368677 -2.12044e-25)
(3.4819 -0.37694 2.10867e-25)
(3.47529 -0.385496 9.1522e-19)
(3.46799 -0.394347 9.37338e-19)
(3.45996 -0.403502 0)
(3.45114 -0.412977 -9.89134e-19)
(3.44143 -0.422767 -2.03906e-18)
(3.4308 -0.432877 1.05315e-18)
(3.41914 -0.44331 -1.09029e-18)
(3.40638 -0.454061 -4.51756e-25)
(3.39246 -0.465136 -1.17625e-18)
(3.3773 -0.476529 1.2258e-18)
(3.36077 -0.488223 -1.28025e-18)
(3.34277 -0.500208 0)
(3.32322 -0.512473 1.40564e-18)
(3.30198 -0.524996 0)
(3.27894 -0.537756 1.5565e-18)
(3.25401 -0.550731 0)
(3.22701 -0.563877 -1.73788e-18)
(3.19778 -0.577147 -8.5708e-25)
(3.1662 -0.590509 1.95588e-18)
(3.13212 -0.603911 -2.08093e-18)
(3.09534 -0.617285 0)
(3.05569 -0.630561 -1.16125e-24)
(3.013 -0.643673 2.53382e-18)
(2.96707 -0.656527 -2.7153e-18)
(2.9177 -0.669037 1.3523e-24)
(2.86469 -0.68109 3.13411e-18)
(2.80784 -0.692573 0)
(2.74693 -0.70336 0)
(2.68172 -0.713307 0)
(2.61199 -0.722252 -9.81862e-26)
(2.53751 -0.730026 4.61555e-18)
(2.45814 -0.736467 0)
(2.37386 -0.741428 0)
(2.2848 -0.744818 -5.83818e-24)
(2.1916 -0.746684 -3.76193e-25)
(2.09529 -0.747266 6.54593e-24)
(1.9976 -0.747119 0)
(1.90124 -0.747306 8.34338e-24)
(1.80818 -0.748829 9.30193e-18)
(1.71836 -0.752033 -1.02217e-17)
(1.62862 -0.75596 1.12454e-17)
(1.53218 -0.75762 0)
(1.41797 -0.751003 -1.33825e-23)
(1.26936 -0.724988 -1.49997e-17)
(1.06244 -0.660081 -4.65662e-24)
(0.761857 -0.520642 0)
(0.309536 -0.235661 1.9295e-17)
(-0.316378 0.278945 -4.03329e-17)
(-1.20726 1.25303 -5.36094e-23)
(-2.42954 3.14347 1.24754e-23)
(-3.59566 6.3909 4.7321e-18)
(-3.93024 11.8726 3.57133e-18)
(-1.45431 17.7913 5.03275e-18)
(5.24669 -0.421232 4.58537e-19)
(5.24579 -0.429356 -2.27905e-25)
(5.24427 -0.437693 -2.17965e-25)
(5.24234 -0.446273 -4.53665e-19)
(5.23993 -0.455108 0)
(5.23705 -0.464217 2.18423e-25)
(5.23366 -0.473616 4.56328e-19)
(5.22974 -0.483323 0)
(5.22523 -0.493348 -4.62331e-19)
(5.2201 -0.503707 -2.20497e-25)
(5.21432 -0.514428 2.24807e-25)
(5.20783 -0.525516 4.7862e-19)
(5.20061 -0.53699 7.17158e-25)
(5.19257 -0.548866 -9.89081e-19)
(5.18362 -0.561161 -1.00861e-18)
(5.17373 -0.573891 2.42523e-25)
(5.1628 -0.58706 -1.05566e-18)
(5.15078 -0.600681 5.09106e-25)
(5.13756 -0.614779 1.11401e-18)
(5.12303 -0.629339 1.14826e-18)
(5.1071 -0.644377 -1.18614e-18)
(5.08965 -0.659896 1.22798e-18)
(5.07056 -0.675885 -1.27758e-24)
(5.04973 -0.692356 0)
(5.02704 -0.709293 1.4146e-24)
(5.00229 -0.72668 -1.37984e-24)
(4.97536 -0.744498 -7.35787e-25)
(4.9461 -0.762729 2.31207e-24)
(4.91434 -0.781343 -7.76318e-25)
(4.87988 -0.800305 -1.7534e-18)
(4.84257 -0.819575 4.238e-26)
(4.80217 -0.839099 3.91572e-18)
(4.75843 -0.858805 9.65615e-25)
(4.71119 -0.87864 8.47653e-25)
(4.66019 -0.898523 0)
(4.60514 -0.918352 -1.22481e-24)
(4.54579 -0.938031 1.2397e-24)
(4.48188 -0.95745 1.40055e-24)
(4.41312 -0.976474 -1.42028e-24)
(4.33921 -0.994965 -3.28527e-18)
(4.25983 -1.01276 -3.4693e-24)
(4.17468 -1.02968 -3.80524e-18)
(4.08342 -1.04554 4.10543e-18)
(3.98568 -1.06011 4.43642e-18)
(3.88114 -1.07314 4.80172e-18)
(3.76942 -1.0844 -5.20536e-18)
(3.65032 -1.09359 -5.55894e-24)
(3.52377 -1.10052 -6.14619e-18)
(3.38998 -1.10503 6.69436e-18)
(3.24982 -1.10714 0)
(3.10482 -1.10723 -7.85265e-24)
(2.95761 -1.10609 8.73089e-18)
(2.8122 -1.10529 0)
(2.67159 -1.10632 0)
(2.53575 -1.10968 1.15408e-17)
(2.40006 -1.11395 -2.53957e-17)
(2.25453 -1.11469 0)
(2.08295 -1.10305 0)
(1.861 -1.0627 1.69422e-17)
(1.55402 -0.96517 -3.71734e-17)
(1.11103 -0.758753 0)
(0.449768 -0.341593 0)
(-0.458037 0.405223 2.27721e-17)
(-1.73823 1.80647 -1.12871e-17)
(-3.47499 4.49916 -9.78232e-18)
(-5.10983 9.08383 -1.05905e-17)
(-5.54239 16.7272 1.97659e-18)
(-2.05004 25.0055 5.46643e-18)
(7.1727 -0.575862 -5.11526e-19)
(7.17143 -0.586964 5.08774e-19)
(7.1693 -0.598357 -2.70523e-27)
(7.1666 -0.610083 5.06109e-19)
(7.16327 -0.622157 0)
(7.1593 -0.634605 0)
(7.15463 -0.647451 -1.01821e-18)
(7.14922 -0.660717 0)
(7.14302 -0.674416 5.15821e-19)
(7.13597 -0.688574 -5.20768e-19)
(7.12802 -0.703225 5.96123e-25)
(7.1191 -0.718377 -5.34032e-19)
(7.10917 -0.734055 -1.08461e-18)
(7.09814 -0.750286 1.10366e-18)
(7.08588 -0.767089 1.12549e-18)
(7.0723 -0.784484 0)
(7.0573 -0.802479 -1.17808e-18)
(7.04082 -0.821093 -1.72521e-26)
(7.0227 -0.840355 5.83918e-25)
(7.00278 -0.86025 -1.28161e-18)
(6.98095 -0.880797 6.4258e-25)
(6.95703 -0.902002 1.61659e-24)
(6.93087 -0.923849 1.42232e-18)
(6.90234 -0.946353 -7.19475e-25)
(6.87123 -0.969491 1.74437e-24)
(6.83733 -0.993243 1.61028e-18)
(6.80043 -1.01758 1.6857e-18)
(6.76035 -1.04249 -1.76848e-18)
(6.71683 -1.06791 1.8593e-18)
(6.66961 -1.0938 1.86991e-24)
(6.61847 -1.12012 -1.97427e-24)
(6.56308 -1.14677 -4.37607e-18)
(6.50314 -1.17367 0)
(6.43838 -1.20073 -4.92724e-18)
(6.36844 -1.22786 -2.6218e-18)
(6.29294 -1.2549 2.59779e-24)
(6.21153 -1.28173 2.98595e-18)
(6.12385 -1.30818 3.19527e-18)
(6.02949 -1.33408 1.81955e-25)
(5.92802 -1.35923 3.67825e-18)
(5.81901 -1.3834 -3.88551e-24)
(5.70203 -1.40635 4.26316e-18)
(5.57662 -1.42782 -4.60106e-18)
(5.44223 -1.44745 -4.97385e-18)
(5.2984 -1.46496 0)
(5.1446 -1.47993 5.84066e-18)
(4.98052 -1.49202 -6.34434e-18)
(4.80603 -1.5009 -1.1004e-23)
(4.62139 -1.50633 -7.52166e-18)
(4.4277 -1.50833 -8.20913e-18)
(4.22705 -1.50733 -8.30825e-24)
(4.02304 -1.50443 -9.82439e-18)
(3.82123 -1.50176 -2.05746e-23)
(3.62576 -1.50133 -1.18275e-17)
(3.43672 -1.50383 -1.30038e-17)
(3.24788 -1.50733 1.43133e-17)
(3.0458 -1.50576 0)
(2.80861 -1.48713 0)
(2.50376 -1.42944 -3.82425e-17)
(2.0851 -1.29455 2.09851e-17)
(1.48533 -1.0136 2.28771e-17)
(0.598108 -0.452967 0)
(-0.60881 0.540781 2.57007e-17)
(-2.29255 2.38644 -4.41967e-23)
(-4.54554 5.89181 2.19505e-17)
(-6.6285 11.7937 5.8854e-18)
(-7.11179 21.4684 -4.32214e-18)
(-2.6134 31.9138 -2.90011e-18)
(9.29544 -0.746286 -5.3118e-25)
(9.29374 -0.760669 5.33334e-25)
(9.29094 -0.77543 -5.5433e-19)
(9.2874 -0.790622 0)
(9.28306 -0.806266 0)
(9.27789 -0.822397 -5.32954e-25)
(9.27183 -0.839043 5.56757e-19)
(9.2648 -0.856232 5.5989e-19)
(9.25676 -0.873984 -5.64157e-19)
(9.24763 -0.892333 5.69599e-19)
(9.23735 -0.911319 -5.76288e-19)
(9.2258 -0.930956 -5.51251e-25)
(9.21295 -0.951276 0)
(9.19868 -0.972312 1.20752e-18)
(9.18285 -0.994093 0)
(9.16531 -1.01664 0)
(9.14593 -1.03997 2.5787e-18)
(9.12465 -1.0641 0)
(9.10124 -1.08907 1.3611e-18)
(9.07552 -1.11486 -3.1896e-24)
(9.04733 -1.14151 -1.44986e-18)
(9.01645 -1.169 -1.50138e-18)
(8.98269 -1.19733 7.57355e-25)
(8.94586 -1.22652 -1.62073e-18)
(8.90569 -1.25653 3.8209e-24)
(8.86192 -1.28734 -1.76531e-18)
(8.81429 -1.31891 -1.84851e-18)
(8.76252 -1.35121 -1.93986e-18)
(8.7063 -1.3842 -2.04016e-18)
(8.64532 -1.41779 2.15024e-18)
(8.57924 -1.45194 -2.11593e-24)
(8.50765 -1.48652 2.40367e-18)
(8.43016 -1.52142 2.49469e-24)
(8.34641 -1.55654 2.70895e-18)
(8.25592 -1.59174 2.88439e-18)
(8.15822 -1.62683 2.85962e-24)
(8.05283 -1.66163 -3.28889e-18)
(7.93927 -1.69594 -3.52173e-18)
(7.81699 -1.72953 3.50671e-24)
(7.68543 -1.76213 0)
(7.544 -1.79343 -4.2921e-24)
(7.39215 -1.82313 -4.71327e-18)
(7.22921 -1.85085 -5.09143e-18)
(7.05446 -1.87617 -5.50922e-18)
(6.86725 -1.89863 5.87057e-24)
(6.66688 -1.91773 -1.29657e-17)
(6.45285 -1.93298 1.40998e-17)
(6.22496 -1.94391 7.67921e-18)
(5.98346 -1.95016 0)
(5.72967 -1.9517 9.15593e-18)
(5.4662 -1.94904 1.85573e-23)
(5.19784 -1.94359 -2.16268e-23)
(4.93178 -1.93805 -1.20609e-17)
(4.67357 -1.93503 -1.43083e-23)
(4.42346 -1.93544 1.4595e-17)
(4.17357 -1.93675 0)
(3.90669 -1.93115 3.48629e-23)
(3.59487 -1.90315 -3.62686e-23)
(3.19668 -1.82461 2.15521e-17)
(2.65392 -1.64704 -2.36737e-17)
(1.88243 -1.28345 -5.16422e-17)
(0.752747 -0.568187 5.22789e-23)
(-0.767998 0.685329 -2.89832e-17)
(-2.86306 2.98615 5.60949e-23)
(-5.62048 7.29551 -1.22655e-17)
(-8.11277 14.4529 -3.59786e-23)
(-8.58012 25.9452 2.89607e-23)
(-3.12198 38.255 3.02457e-18)
(11.5711 -0.92899 5.64953e-25)
(11.569 -0.946891 -5.86468e-19)
(11.5655 -0.965264 5.84421e-19)
(11.5611 -0.984176 5.83497e-19)
(11.5557 -1.00365 -5.60544e-25)
(11.5493 -1.02374 5.53917e-25)
(11.5419 -1.04446 0)
(11.5332 -1.06587 -5.90511e-19)
(11.5233 -1.08798 0)
(11.5121 -1.11083 6.00894e-19)
(11.4995 -1.13449 -6.08031e-19)
(11.4853 -1.15895 6.16458e-19)
(11.4695 -1.18427 -6.04276e-25)
(11.452 -1.21049 -1.27464e-18)
(11.4326 -1.23763 -1.30023e-18)
(11.4111 -1.26574 0)
(11.3874 -1.29483 5.42047e-24)
(11.3613 -1.32492 0)
(11.3326 -1.35607 -1.43849e-18)
(11.3011 -1.38825 1.48348e-18)
(11.2665 -1.42149 1.53329e-18)
(11.2287 -1.45581 -1.54292e-24)
(11.1873 -1.49118 1.64911e-18)
(11.1422 -1.52762 1.71611e-18)
(11.0929 -1.56511 -1.78988e-18)
(11.0393 -1.6036 1.87108e-18)
(10.9808 -1.64307 1.83104e-24)
(10.9173 -1.68346 2.05855e-18)
(10.8483 -1.72472 2.16646e-18)
(10.7735 -1.76677 -2.28503e-18)
(10.6923 -1.80951 0)
(10.6043 -1.85282 2.55859e-18)
(10.5091 -1.89656 -2.71604e-18)
(10.406 -1.9406 2.88915e-18)
(10.2946 -1.98475 3.0796e-18)
(10.1743 -2.02879 -3.2892e-18)
(10.0444 -2.0725 -3.51999e-18)
(9.90425 -2.11562 -3.7743e-18)
(9.75325 -2.15786 -4.05471e-18)
(9.59063 -2.19887 4.36421e-18)
(9.41564 -2.23828 0)
(9.22752 -2.27568 5.08402e-18)
(9.02538 -2.3106 1.10048e-17)
(8.8083 -2.34249 5.96607e-18)
(8.57538 -2.37075 -6.48045e-18)
(8.32565 -2.39474 -3.10175e-23)
(8.0584 -2.41376 -7.68744e-18)
(7.77326 -2.42722 3.20688e-23)
(7.47039 -2.43459 9.18443e-18)
(7.15123 -2.43571 0)
(6.81893 -2.43115 2.17485e-23)
(6.47949 -2.42258 -1.21478e-17)
(6.14194 -2.41337 -5.23932e-23)
(5.81338 -2.40671 2.94874e-17)
(5.49439 -2.40377 1.62709e-17)
(5.17535 -2.40135 0)
(4.83512 -2.38977 0)
(4.43919 -2.34972 -4.3106e-23)
(3.93674 -2.24641 2.42443e-17)
(3.25697 -2.02031 2.66752e-17)
(2.29871 -1.56564 2.91213e-17)
(0.911315 -0.685177 0)
(-0.934214 0.838063 -3.26468e-17)
(-3.4401 3.59622 0)
(-6.67463 8.67866 0)
(-9.52131 16.9896 7.11142e-18)
(-9.90656 30.0244 -2.50465e-18)
(-3.56635 43.8763 -3.14853e-18)
(13.8996 -1.11593 0)
(13.897 -1.13744 -3.39376e-24)
(13.8929 -1.15951 5.83139e-19)
(13.8878 -1.18224 -5.82273e-19)
(13.8815 -1.20565 -1.11887e-24)
(13.874 -1.2298 1.10579e-24)
(13.8653 -1.25472 0)
(13.8553 -1.28046 5.89608e-19)
(13.8437 -1.30706 0)
(13.8307 -1.33456 -1.20041e-18)
(13.816 -1.36302 6.07469e-19)
(13.7996 -1.39247 -6.1604e-19)
(13.7813 -1.42296 2.38865e-24)
(13.7609 -1.45453 -2.4321e-24)
(13.7384 -1.48724 1.30053e-18)
(13.7134 -1.52111 1.33003e-18)
(13.6859 -1.55618 -1.36324e-18)
(13.6556 -1.59246 0)
(13.6223 -1.63004 0)
(13.5857 -1.66888 1.48706e-18)
(13.5456 -1.70902 1.44238e-24)
(13.5017 -1.75048 0)
(13.4536 -1.79324 -3.3123e-18)
(13.4012 -1.83731 -1.72471e-18)
(13.3439 -1.88268 -1.80029e-18)
(13.2815 -1.9293 1.88361e-18)
(13.2136 -1.97713 0)
(13.1397 -2.02612 2.07645e-18)
(13.0593 -2.0762 -2.18773e-18)
(12.9721 -2.12729 0)
(12.8775 -2.17927 0)
(12.7748 -2.232 -5.18809e-18)
(12.6636 -2.28533 2.75798e-18)
(12.5431 -2.33908 -2.93873e-18)
(12.4128 -2.39305 1.2439e-23)
(12.2719 -2.44698 -1.32422e-23)
(12.1195 -2.50059 7.20366e-18)
(11.955 -2.55358 7.74201e-18)
(11.7774 -2.60559 4.169e-18)
(11.5859 -2.65622 1.49406e-23)
(11.3795 -2.705 9.02745e-24)
(11.1572 -2.75143 -5.27327e-18)
(10.9178 -2.79493 -5.72649e-18)
(10.6601 -2.8348 0)
(10.383 -2.8703 6.79532e-18)
(10.0851 -2.9006 -1.7684e-23)
(9.76533 -2.92481 -8.13109e-18)
(9.42307 -2.94213 0)
(9.05825 -2.9518 3.76293e-23)
(8.67224 -2.95347 0)
(8.26857 -2.94766 0)
(7.85443 -2.93632 -4.51204e-23)
(7.4407 -2.92334 -1.05872e-22)
(7.03618 -2.91259 -1.61868e-17)
(6.64192 -2.90544 -3.59075e-17)
(6.24664 -2.89805 1.99253e-17)
(5.82511 -2.87861 2.21197e-17)
(5.33588 -2.82374 9.63824e-23)
(4.71827 -2.6915 -5.44015e-17)
(3.88856 -2.41073 -3.00096e-17)
(2.7289 -1.85638 1.22598e-22)
(1.07084 -0.801352 0)
(-1.10529 0.997531 3.67128e-17)
(-4.0115 4.20472 1.24737e-22)
(-7.67973 10.0058 -1.26974e-22)
(-10.8155 19.3364 -1.54939e-17)
(-11.0736 33.6138 5.37191e-18)
(-3.93981 48.7288 -6.6068e-18)
(16.1338 -1.2953 1.04435e-24)
(16.1309 -1.32027 5.46993e-19)
(16.1264 -1.34592 -5.45209e-19)
(16.1207 -1.37233 -1.03241e-24)
(16.1138 -1.39954 1.04645e-24)
(16.1057 -1.4276 -1.03441e-24)
(16.0961 -1.45659 0)
(16.0851 -1.48653 4.022e-24)
(16.0725 -1.51748 5.56306e-19)
(16.0582 -1.54949 5.62004e-19)
(16.0421 -1.58263 5.6899e-19)
(16.0241 -1.61693 1.11333e-24)
(16.004 -1.65245 -1.17333e-18)
(15.9817 -1.68926 0)
(15.957 -1.7274 0)
(15.9296 -1.76692 -2.49655e-18)
(15.8994 -1.80785 -1.28012e-18)
(15.8662 -1.85023 1.27402e-24)
(15.8297 -1.89415 4.05925e-26)
(15.7895 -1.93957 1.13984e-23)
(15.7454 -1.98654 -4.74446e-26)
(15.6972 -2.0351 1.50199e-18)
(15.6444 -2.08522 1.56182e-18)
(15.5867 -2.13692 -1.6448e-23)
(15.5238 -2.19019 -1.71853e-23)
(15.4551 -2.24499 -1.78189e-18)
(15.3802 -2.30128 1.87106e-18)
(15.2988 -2.359 1.57205e-23)
(15.2102 -2.4181 2.07807e-18)
(15.114 -2.47847 1.96209e-25)
(15.0094 -2.54 -4.34268e-24)
(14.896 -2.60254 2.47702e-18)
(14.7728 -2.6659 0)
(14.6394 -2.72991 -2.81845e-18)
(14.4948 -2.79435 -3.01718e-18)
(14.3382 -2.85891 3.23765e-18)
(14.1688 -2.9233 -3.48252e-18)
(13.9854 -2.98716 3.19801e-23)
(13.7872 -3.0501 7.53339e-24)
(13.573 -3.11164 -4.39618e-18)
(13.3416 -3.17126 0)
(13.0918 -3.22835 5.19709e-18)
(12.8221 -3.28223 0)
(12.531 -3.33209 -1.21977e-23)
(12.2168 -3.377 1.26139e-23)
(11.8779 -3.41596 7.48449e-18)
(11.5126 -3.44784 1.65047e-17)
(11.1199 -3.47159 0)
(10.6992 -3.48615 -1.01123e-17)
(10.2515 -3.4909 -1.12378e-17)
(9.78041 -3.48618 0)
(9.294 -3.47404 2.7944e-17)
(8.80477 -3.45879 3.12305e-17)
(8.32315 -3.44484 0)
(7.85078 -3.43375 -1.01731e-22)
(7.3748 -3.42091 -2.18586e-17)
(6.8659 -3.3923 -4.88858e-17)
(6.27542 -3.32009 2.73036e-17)
(5.53251 -3.15475 6.08394e-17)
(4.54047 -2.81298 3.36943e-17)
(3.16598 -2.15061 3.69058e-17)
(1.22771 -0.9136 1.49477e-22)
(-1.27821 1.16159 0)
(-4.56292 4.79751 0)
(-8.6067 11.2406 0)
(-11.9623 21.4376 8.40962e-18)
(-12.0475 36.6687 -5.76556e-18)
(-4.24127 52.8128 3.54373e-18)
(18.1383 -1.45624 0)
(18.1355 -1.48434 -4.83723e-19)
(18.1308 -1.51321 -4.82234e-19)
(18.1251 -1.54295 9.24685e-25)
(18.118 -1.5736 -9.13538e-25)
(18.1095 -1.60522 -9.28845e-25)
(18.0997 -1.63789 -1.44124e-26)
(18.0882 -1.67165 -4.88597e-19)
(18.0752 -1.70656 -4.92731e-19)
(18.0603 -1.74267 -9.40925e-25)
(18.0436 -1.78008 -5.0429e-19)
(18.0249 -1.81881 5.11766e-19)
(18.004 -1.85894 1.0407e-18)
(17.9808 -1.90054 0)
(17.955 -1.94367 0)
(17.9265 -1.98839 1.10869e-18)
(17.8949 -2.03473 1.13759e-18)
(17.8602 -2.08275 -2.26568e-24)
(17.8221 -2.13253 -7.22345e-26)
(17.7801 -2.18407 2.27057e-23)
(17.734 -2.2374 -1.29008e-18)
(17.6835 -2.29259 -1.33939e-18)
(17.6282 -2.3496 1.39401e-18)
(17.5678 -2.40848 1.45448e-18)
(17.5018 -2.46922 1.52141e-18)
(17.4298 -2.53178 0)
(17.3512 -2.59613 -1.6774e-18)
(17.2657 -2.66223 -1.76805e-18)
(17.1726 -2.73001 -3.73674e-18)
(17.0714 -2.79939 -7.55817e-24)
(16.9614 -2.87024 3.91801e-24)
(16.8418 -2.94242 -2.23925e-18)
(16.712 -3.01575 0)
(16.5712 -3.09004 5.11902e-18)
(16.4184 -3.16507 5.1084e-24)
(16.2528 -3.24052 -2.95651e-18)
(16.0732 -3.31609 5.9269e-24)
(15.8787 -3.39139 -6.90333e-18)
(15.668 -3.46601 0)
(15.4399 -3.53945 4.07428e-18)
(15.193 -3.61112 -4.4454e-18)
(14.9258 -3.68037 0)
(14.6366 -3.74645 0)
(14.3234 -3.80842 -2.31146e-23)
(13.9842 -3.86524 4.96151e-23)
(13.6168 -3.91572 7.19899e-18)
(13.2192 -3.95854 -8.00733e-18)
(12.7894 -3.99236 3.51734e-23)
(12.3262 -4.0158 -3.70958e-23)
(11.8298 -4.02785 1.12606e-17)
(11.3035 -4.02851 0)
(10.7554 -4.01967 -1.4372e-17)
(10.1989 -4.00582 -3.25705e-17)
(9.64573 -3.9916 -1.84647e-17)
(9.09792 -3.97855 2.09259e-17)
(8.5411 -3.96117 -2.36923e-17)
(7.94188 -3.92304 -2.08934e-22)
(7.24433 -3.83155 -3.01977e-17)
(6.36732 -3.6291 -6.78026e-17)
(5.20165 -3.22 -2.94377e-22)
(3.60096 -2.44186 -8.28693e-17)
(1.37779 -1.01835 6.75246e-22)
(-1.4491 1.32738 -4.60658e-17)
(-5.07866 5.35905 2.2146e-17)
(-9.42835 12.3487 5.15127e-22)
(-12.936 23.2502 -9.11726e-18)
(-12.8214 39.1647 1.11021e-20)
(-4.4714 56.1263 7.69058e-18)
(11.8467 66.5468 0)
(19.8523 -1.59385 0)
(19.8497 -1.62465 4.15291e-19)
(19.8453 -1.6563 4.14091e-19)
(19.8397 -1.68891 0)
(19.8328 -1.72253 0)
(19.8245 -1.75723 0)
(19.8148 -1.79309 1.60462e-24)
(19.8035 -1.83016 -1.58943e-24)
(19.7905 -1.8685 -4.23712e-19)
(19.7757 -1.90817 -1.61869e-24)
(19.759 -1.94929 -1.67291e-24)
(19.7402 -1.99189 1.15416e-23)
(19.7193 -2.03604 3.93415e-26)
(19.696 -2.08182 -3.48589e-24)
(19.6701 -2.12931 1.75784e-24)
(19.6413 -2.17858 1.84869e-24)
(19.6095 -2.22967 -1.84535e-24)
(19.5746 -2.28263 1.95486e-24)
(19.536 -2.33759 -1.95504e-24)
(19.4936 -2.39451 -1.07587e-18)
(19.447 -2.45348 1.11495e-18)
(19.3958 -2.51454 0)
(19.3398 -2.57769 2.38973e-23)
(19.2786 -2.64298 2.45111e-24)
(19.2117 -2.71039 -2.46703e-24)
(19.1386 -2.77993 -1.38435e-18)
(19.0588 -2.85156 -1.4569e-18)
(18.9719 -2.92524 -1.53732e-18)
(18.8773 -3.00094 -2.85549e-23)
(18.7744 -3.07856 -3.21725e-24)
(18.6625 -3.15801 0)
(18.5408 -3.23914 -3.72363e-23)
(18.4086 -3.32178 0)
(18.2651 -3.40576 -2.24655e-18)
(18.1092 -3.49087 0)
(17.9401 -3.57679 2.60711e-18)
(17.7567 -3.66323 -2.82097e-18)
(17.5578 -3.74981 3.06147e-18)
(17.3421 -3.83612 3.33289e-18)
(17.1083 -3.92167 -3.64e-18)
(16.8549 -4.00585 3.98877e-18)
(16.5801 -4.088 -1.72352e-23)
(16.2822 -4.16735 4.84119e-18)
(15.9588 -4.24291 1.98873e-23)
(15.6077 -4.31357 5.96795e-18)
(15.2261 -4.37805 -1.33377e-17)
(14.8114 -4.43485 7.48648e-18)
(14.361 -4.48243 3.32316e-23)
(13.8728 -4.51909 -3.54684e-23)
(13.346 -4.5434 0)
(12.7826 -4.55494 0)
(12.1902 -4.55514 0)
(11.582 -4.54824 1.6577e-17)
(10.9697 -4.53864 1.91314e-17)
(10.3552 -4.52748 2.20585e-17)
(9.72237 -4.50803 5.07596e-17)
(9.03361 -4.46113 5.82119e-17)
(8.22564 -4.34898 2.60895e-22)
(7.20731 -4.10556 3.76552e-17)
(5.85822 -3.62293 3.13956e-22)
(4.02303 -2.72241 4.63995e-17)
(1.51655 -1.11169 0)
(-1.61335 1.4914 1.02606e-16)
(-5.54283 5.87354 -2.43899e-17)
(-10.1221 13.3016 -1.97867e-17)
(-13.7207 24.7391 9.82837e-18)
(-13.3939 41.1039 3.32816e-18)
(-4.62922 58.6426 -4.23405e-18)
(12.5036 70.0786 -4.5756e-22)
(31.9752 69.2545 1.11118e-21)
(21.2908 -1.70933 0)
(21.2887 -1.74242 0)
(21.2847 -1.77643 0)
(21.2795 -1.81148 3.54623e-19)
(21.273 -1.84761 0)
(21.2652 -1.88492 0)
(21.2559 -1.92349 0)
(21.245 -1.96337 0)
(21.2324 -2.00462 3.63569e-19)
(21.2181 -2.04733 0)
(21.2018 -2.09161 -3.72504e-19)
(21.1834 -2.13749 -7.56469e-19)
(21.1629 -2.18507 0)
(21.14 -2.23442 0)
(21.1144 -2.28564 1.55025e-24)
(21.0861 -2.3388 -3.1358e-24)
(21.0546 -2.39395 8.43684e-19)
(21.02 -2.45115 -3.31377e-24)
(20.9818 -2.51054 1.68243e-24)
(20.9397 -2.5721 -9.26229e-19)
(20.8934 -2.63592 9.60276e-19)
(20.8426 -2.70205 0)
(20.7869 -2.77049 -1.04e-18)
(20.7259 -2.84133 4.06773e-24)
(20.6592 -2.91455 0)
(20.5863 -2.99015 1.19536e-18)
(20.5068 -3.06813 1.25883e-18)
(20.4202 -3.14845 -3.43024e-23)
(20.3258 -3.23109 1.40756e-18)
(20.223 -3.31599 -5.57334e-24)
(20.1113 -3.40305 0)
(19.9897 -3.49214 -4.2698e-23)
(19.8577 -3.58312 -1.82011e-18)
(19.7142 -3.67582 -7.27407e-24)
(19.5585 -3.77007 0)
(19.3894 -3.86555 -8.92353e-24)
(19.206 -3.96201 2.46762e-18)
(19.007 -4.05909 0)
(18.7912 -4.15641 -2.92928e-18)
(18.5572 -4.2535 -3.20856e-18)
(18.3033 -4.34979 -3.52766e-18)
(18.028 -4.44465 0)
(17.7292 -4.53734 9.22021e-23)
(17.4046 -4.62687 0)
(17.0516 -4.71217 -5.38155e-18)
(16.6672 -4.79191 1.21123e-17)
(16.2484 -4.86456 -6.85487e-18)
(15.7921 -4.92846 -7.80809e-18)
(15.2952 -4.98171 7.04829e-23)
(14.7559 -5.02258 -7.66179e-23)
(14.1748 -5.05014 0)
(13.5579 -5.06527 -1.40862e-17)
(12.917 -5.0715 -1.30423e-22)
(12.2625 -5.07246 -1.95114e-17)
(11.5945 -5.06819 -2.29625e-17)
(10.8944 -5.05019 2.4471e-22)
(10.1198 -4.99596 -6.28847e-17)
(9.19994 -4.86198 0)
(8.03427 -4.57356 -4.17128e-17)
(6.49373 -4.01123 -3.6655e-22)
(4.41992 -2.98348 5.17867e-17)
(1.63945 -1.18968 -5.56409e-17)
(-1.76579 1.64968 -1.1365e-16)
(-5.94115 6.32672 0)
(-10.6727 14.0807 2.13421e-17)
(-14.3049 25.8863 0)
(-13.7902 42.5183 0)
(-4.70034 60.3343 1.38541e-17)
(13.0775 73.1001 8.65175e-23)
(33.4009 72.3693 0)
(49.0205 61.8097 3.43627e-17)
(22.5048 -1.8068 1.19368e-24)
(22.5033 -1.84184 -1.17715e-24)
(22.4999 -1.87785 -3.09279e-19)
(22.4953 -1.91497 -3.09094e-19)
(22.4894 -1.95325 -1.17313e-24)
(22.4821 -1.99279 0)
(22.4734 -2.03366 0)
(22.4631 -2.07593 0)
(22.4511 -2.11967 3.17184e-19)
(22.4374 -2.16497 1.21222e-24)
(22.4217 -2.21194 6.50173e-19)
(22.404 -2.26063 3.30146e-19)
(22.384 -2.31113 -6.71931e-19)
(22.3617 -2.36353 0)
(22.3369 -2.41794 0)
(22.3091 -2.47443 -7.17744e-19)
(22.2784 -2.53305 -7.37151e-19)
(22.2444 -2.59389 0)
(22.2068 -2.65708 0)
(22.1654 -2.72261 8.09835e-19)
(22.1198 -2.79059 -8.39809e-19)
(22.0697 -2.86107 -3.27335e-24)
(22.0147 -2.93408 3.53875e-24)
(21.9545 -3.00969 1.4038e-25)
(21.8886 -3.0879 -3.72821e-24)
(21.8165 -3.16875 0)
(21.7379 -3.25221 4.30152e-24)
(21.6521 -3.33829 2.33049e-18)
(21.5587 -3.42697 4.60593e-24)
(21.4569 -3.51819 5.12426e-24)
(21.3463 -3.61189 -1.3972e-18)
(21.2259 -3.70795 1.4929e-18)
(21.0951 -3.80625 -5.10207e-23)
(20.9531 -3.90664 0)
(20.7989 -4.00897 1.85474e-18)
(20.6315 -4.11296 7.45855e-24)
(20.45 -4.21839 1.70838e-23)
(20.253 -4.32493 -3.62365e-23)
(20.0395 -4.43224 3.96138e-23)
(19.8081 -4.53991 5.69135e-18)
(19.5571 -4.6474 3.13571e-18)
(19.285 -4.75416 0)
(18.9897 -4.8595 -3.8597e-18)
(18.669 -4.96253 0)
(18.3202 -5.06221 0)
(17.9402 -5.15731 -5.4899e-18)
(17.5258 -5.24632 -6.25545e-18)
(17.0735 -5.32762 -1.8499e-22)
(16.5797 -5.39926 6.5475e-23)
(16.0417 -5.45932 -7.20294e-23)
(15.4587 -5.50655 1.14773e-17)
(14.8348 -5.54122 2.73359e-17)
(14.1793 -5.56593 1.63921e-17)
(13.4996 -5.58295 1.97328e-17)
(12.7927 -5.59053 2.37499e-17)
(12.0354 -5.57748 -2.84753e-17)
(11.1796 -5.5171 3.38804e-17)
(10.1466 -5.35946 -3.98497e-17)
(8.82784 -5.0212 -8.81867e-22)
(7.08974 -4.37313 -8.14418e-22)
(4.77874 -3.21583 -1.15095e-16)
(1.74249 -1.24878 6.17152e-17)
(-1.90116 1.7981 6.251e-17)
(-6.2627 6.7079 -2.88837e-17)
(-11.0755 14.6804 -2.27937e-17)
(-14.688 26.7009 -1.11703e-17)
(-14.0164 43.4652 -3.68284e-18)
(-4.69401 61.2461 -1.48991e-17)
(13.5589 75.584 0)
(34.5574 74.873 -3.52006e-17)
(51.1296 64.5156 0)
(23.5491 -1.89065 2.1147e-24)
(23.5483 -1.92737 0)
(23.5455 -1.96511 2.76476e-19)
(23.5415 -2.00403 0)
(23.5362 -2.04417 0)
(23.5296 -2.08563 0)
(23.5216 -2.1285 2.79184e-19)
(23.5119 -2.17285 -2.8119e-19)
(23.5006 -2.21875 1.05799e-23)
(23.4876 -2.26629 2.21196e-24)
(23.4726 -2.3156 -5.81898e-19)
(23.4555 -2.36672 2.95529e-19)
(23.4363 -2.41975 -2.09438e-23)
(23.4147 -2.4748 6.13555e-19)
(23.3906 -2.53197 0)
(23.3636 -2.59134 -2.55289e-23)
(23.3335 -2.65298 6.60318e-19)
(23.3003 -2.71698 0)
(23.2635 -2.78347 7.01465e-19)
(23.2229 -2.85246 7.25728e-19)
(23.1781 -2.92405 2.82382e-24)
(23.1289 -2.99832 3.04102e-24)
(23.0748 -3.07529 -3.05661e-24)
(23.0155 -3.15505 -3.31841e-24)
(22.9505 -3.23763 3.34344e-24)
(22.8795 -3.32304 0)
(22.8019 -3.41129 0)
(22.7172 -3.50239 -1.04556e-18)
(22.625 -3.59634 1.1079e-18)
(22.5246 -3.69311 8.77996e-24)
(22.4153 -3.79262 1.25459e-18)
(22.2965 -3.8948 0)
(22.1674 -3.99954 1.43769e-18)
(22.0273 -4.1067 0)
(21.8751 -4.21618 -3.3362e-18)
(21.71 -4.32771 1.80565e-18)
(21.531 -4.44111 8.09825e-25)
(21.337 -4.55609 2.13779e-18)
(21.1267 -4.67237 1.83643e-23)
(20.899 -4.78957 -5.14001e-18)
(20.6522 -4.90723 0)
(20.385 -5.02487 0)
(20.0952 -5.1419 0)
(19.7808 -5.2575 0)
(19.4391 -5.37077 0)
(19.0671 -5.48059 3.95996e-23)
(18.6616 -5.58558 1.15289e-17)
(18.219 -5.68422 6.66091e-18)
(17.7353 -5.77466 6.12077e-23)
(17.2074 -5.85498 -6.802e-23)
(16.6332 -5.92376 5.27574e-22)
(16.0149 -5.98076 -1.32805e-17)
(15.3588 -6.02755 -1.62313e-17)
(14.668 -6.06465 -1.99669e-17)
(13.9342 -6.0877 -2.4585e-17)
(13.1281 -6.08181 -3.01455e-17)
(12.1937 -6.01494 5.75164e-22)
(11.0445 -5.83003 4.36421e-17)
(9.56619 -5.43573 5.09247e-17)
(7.62711 -4.69634 5.77899e-17)
(5.08746 -3.41078 6.35982e-17)
(1.82302 -1.28648 -6.80035e-17)
(-2.01455 1.93284 0)
(-6.50223 7.01206 3.09593e-17)
(-11.338 15.1109 2.40305e-17)
(-14.8938 27.2212 2.32639e-17)
(-14.1003 44.0254 3.79887e-18)
(-4.62386 61.5637 -5.1131e-18)
(13.9319 77.3768 0)
(35.3831 76.6589 -4.39429e-17)
(53.029 66.9574 0)
(24.4687 -1.96448 0)
(24.4685 -2.00269 0)
(24.4663 -2.04197 2.53985e-19)
(24.4631 -2.08248 1.92574e-24)
(24.4584 -2.12426 1.954e-24)
(24.4525 -2.16743 -1.93364e-24)
(24.4451 -2.21206 -2.56583e-19)
(24.4362 -2.25825 2.58458e-19)
(24.4255 -2.30606 -2.6089e-19)
(24.4132 -2.35558 -2.03373e-24)
(24.3989 -2.40696 2.67533e-19)
(24.3825 -2.46023 1.48644e-23)
(24.364 -2.51551 5.53238e-19)
(24.3432 -2.57291 2.70186e-23)
(24.3198 -2.63252 0)
(24.2936 -2.69446 1.18281e-18)
(24.2643 -2.75877 -6.07545e-19)
(24.2319 -2.82556 -2.35177e-24)
(24.1959 -2.89498 -6.45535e-19)
(24.1561 -2.96702 -6.67918e-19)
(24.1122 -3.04182 0)
(24.0638 -3.11945 7.20489e-19)