/*--------------------------------*- C++ -*----------------------------------*\
| =========                 |                                                 |
| \\      /  F ield         | OpenFOAM: The Open Source CFD Toolbox           |
|  \\    /   O peration     | Version:  2412                                  |
|   \\  /    A nd           | Website:  www.openfoam.com                      |
|    \\/     M anipulation  |                                                 |
\*---------------------------------------------------------------------------*/
FoamFile
{
    version     2.0;
    format      ascii;
    arch        "LSB;label=32;scalar=64";
    class       volVectorField;
    location    "180";
    object      U;
}
// * * * * * * * * * * * * * * * * * * * * * * * * * * * * * * * * * * * * * //

dimensions      [0 1 -1 0 0 0 0];

internalField   nonuniform List<vector> 
8637
(
(0.703894 -0.0439378 1.13144e-26)
(0.703624 -0.0445576 2.25216e-20)
(0.703305 -0.045186 1.54363e-28)
(0.702941 -0.0458242 9.50992e-21)
(0.702758 -0.0464867 0)
(0.702568 -0.0471623 2.3219e-29)
(0.702377 -0.0478512 1.44645e-20)
(0.702195 -0.0485546 5.99593e-27)
(0.702001 -0.0492719 -1.56509e-27)
(0.701812 -0.0500045 1.06026e-20)
(0.701642 -0.0507551 9.45034e-21)
(0.701482 -0.051523 -4.96759e-27)
(0.701315 -0.0523076 3.71256e-27)
(0.701127 -0.0531085 -2.23168e-27)
(0.700958 -0.0539303 3.83813e-28)
(0.7008 -0.0547737 4.59463e-21)
(0.700635 -0.0556372 1.64865e-27)
(0.700467 -0.0565231 -1.62733e-27)
(0.700305 -0.0574331 2.40234e-21)
(0.700146 -0.0583688 -1.80373e-21)
(0.699995 -0.0593312 -7.29847e-28)
(0.69984 -0.060321 -1.6354e-21)
(0.699679 -0.0613394 8.55596e-22)
(0.699514 -0.0623886 -1.23972e-28)
(0.699363 -0.063472 1.43148e-28)
(0.699208 -0.0645898 -1.41876e-28)
(0.699057 -0.0657441 -2.26168e-21)
(0.698894 -0.066935 1.4031e-21)
(0.698729 -0.0681667 1.59242e-21)
(0.698558 -0.0694404 -3.93802e-28)
(0.698388 -0.0707581 4.3682e-28)
(0.698207 -0.0721212 -1.83667e-21)
(0.698037 -0.0735345 0)
(0.697855 -0.0749981 1.71129e-21)
(0.697669 -0.0765157 -1.56905e-27)
(0.697475 -0.0780888 -1.34456e-21)
(0.697268 -0.0797185 2.8684e-28)
(0.697057 -0.0814091 8.42141e-28)
(0.696843 -0.0831647 -1.63149e-27)
(0.696616 -0.0849853 0)
(0.696389 -0.0868752 0)
(0.696142 -0.0888359 0)
(0.695882 -0.0908708 0)
(0.695609 -0.0929821 -3.4391e-21)
(0.695336 -0.095176 9.1137e-21)
(0.695042 -0.097452 -2.47481e-27)
(0.69473 -0.099814 0)
(0.694409 -0.102267 1.77125e-20)
(0.694064 -0.104811 2.13254e-20)
(0.693686 -0.107449 2.53672e-20)
(0.693303 -0.11019 5.97295e-20)
(0.692891 -0.113033 -3.48795e-20)
(0.692461 -0.115984 -1.9351e-26)
(0.692 -0.119046 2.2299e-26)
(0.691501 -0.122221 -3.32654e-26)
(0.690973 -0.125516 -1.78411e-27)
(0.690413 -0.128936 -6.93191e-20)
(0.689811 -0.132484 -1.98325e-26)
(0.689169 -0.136167 4.5194e-26)
(0.688478 -0.13999 9.97523e-20)
(0.687744 -0.143959 0)
(0.686946 -0.148079 -3.14975e-26)
(0.686088 -0.15236 1.40277e-19)
(0.685166 -0.15681 1.56551e-19)
(0.684179 -0.161439 1.74442e-19)
(0.68311 -0.166254 1.94106e-19)
(0.681955 -0.171268 2.15727e-19)
(0.680692 -0.176494 -1.27457e-25)
(0.67934 -0.181946 -2.65663e-19)
(0.677847 -0.187637 -2.81368e-25)
(0.676221 -0.193588 1.49247e-25)
(0.674441 -0.19982 -3.61221e-19)
(0.672466 -0.20635 -7.99745e-19)
(0.670293 -0.213213 -4.42555e-19)
(0.66786 -0.22043 -4.68018e-25)
(0.665129 -0.228031 2.48626e-25)
(0.662066 -0.23607 -2.11432e-26)
(0.658563 -0.244564 3.30339e-25)
(0.65454 -0.253572 -3.38167e-25)
(0.649871 -0.263139 1.63482e-18)
(0.644397 -0.273304 4.50743e-25)
(0.637912 -0.284132 -1.0082e-18)
(0.630113 -0.295644 0)
(0.620621 -0.307871 -6.51931e-25)
(0.608851 -0.320756 -5.34202e-26)
(0.593978 -0.334154 7.77739e-19)
(0.57461 -0.347574 -8.69382e-19)
(0.54892 -0.360162 9.72237e-19)
(2.17905 -0.136018 -1.88994e-26)
(2.17821 -0.137936 -1.8812e-20)
(2.1772 -0.139881 1.73103e-20)
(2.17605 -0.141855 -2.78989e-26)
(2.17546 -0.143905 1.43748e-26)
(2.17486 -0.145995 -1.32922e-20)
(2.17427 -0.148127 -1.19918e-26)
(2.17369 -0.150304 0)
(2.17309 -0.152524 -1.97828e-20)
(2.17251 -0.154792 -1.77518e-20)
(2.17197 -0.157115 -7.17305e-27)
(2.17145 -0.15949 2.80294e-20)
(2.17091 -0.161917 6.2247e-27)
(2.17035 -0.164397 1.06799e-20)
(2.16981 -0.166941 0)
(2.16929 -0.169549 -1.54754e-20)
(2.16877 -0.172221 0)
(2.16825 -0.174963 5.20073e-21)
(2.16774 -0.17778 4.09362e-21)
(2.16723 -0.180675 0)
(2.16674 -0.183652 2.22604e-21)
(2.16624 -0.186714 2.94111e-21)
(2.16574 -0.189866 -1.65609e-21)
(2.16523 -0.193113 2.62843e-28)
(2.16473 -0.196464 0)
(2.16424 -0.199923 -1.10491e-21)
(2.16375 -0.203493 1.31298e-26)
(2.16323 -0.207179 -2.08316e-21)
(2.16272 -0.210991 0)
(2.16218 -0.214932 0)
(2.16165 -0.21901 0)
(2.16109 -0.223229 -1.33188e-27)
(2.16054 -0.227601 -2.76015e-21)
(2.15995 -0.232129 0)
(2.15938 -0.236827 -2.37175e-21)
(2.15877 -0.241694 2.00933e-21)
(2.15814 -0.246739 -8.47773e-28)
(2.15748 -0.251971 1.74213e-26)
(2.1568 -0.257403 -4.75456e-22)
(2.1561 -0.263038 6.45523e-22)
(2.15538 -0.268885 1.68153e-21)
(2.15461 -0.274953 -1.09107e-27)
(2.15381 -0.281252 4.31446e-21)
(2.15297 -0.287787 5.92239e-21)
(2.15211 -0.294575 0)
(2.15119 -0.301619 -5.26918e-27)
(2.15022 -0.308928 5.27939e-27)
(2.14921 -0.316517 -2.98506e-20)
(2.14814 -0.324392 0)
(2.14697 -0.332557 -8.51582e-20)
(2.14578 -0.341038 -5.00567e-20)
(2.1445 -0.349837 1.16789e-19)
(2.14315 -0.358968 1.73003e-26)
(2.14171 -0.368443 -1.74023e-26)
(2.14018 -0.378272 8.92651e-20)
(2.13854 -0.388468 4.86807e-26)
(2.1368 -0.399052 1.15651e-19)
(2.13494 -0.410035 1.30912e-19)
(2.13296 -0.421433 -1.4772e-19)
(2.13081 -0.433261 1.6624e-19)
(2.12852 -0.445543 0)
(2.12605 -0.458296 -2.08973e-19)
(2.1234 -0.471546 -1.10051e-26)
(2.12054 -0.485316 1.18546e-25)
(2.11747 -0.499641 -2.90371e-19)
(2.11415 -0.514536 0)
(2.11057 -0.530055 -3.58972e-19)
(2.10665 -0.546222 -3.98481e-19)
(2.10242 -0.563087 4.41939e-19)
(2.09778 -0.580697 0)
(2.09272 -0.5991 0)
(2.08715 -0.618371 1.20137e-18)
(2.08098 -0.638562 6.64888e-19)
(2.07417 -0.65977 7.35781e-19)
(2.06654 -0.682074 -8.14313e-19)
(2.05796 -0.705542 0)
(2.04828 -0.730344 -9.97809e-19)
(2.03722 -0.756541 0)
(2.02451 -0.784304 1.22469e-18)
(2.00973 -0.813753 4.09009e-25)
(1.99237 -0.845006 -7.48868e-25)
(1.97181 -0.878254 1.6749e-18)
(1.94708 -0.913552 1.8515e-24)
(1.917 -0.95095 -2.07482e-18)
(1.8797 -0.990261 0)
(1.83264 -1.03097 -1.2916e-18)
(1.77149 -1.07151 1.44366e-18)
(1.6906 -1.1092 -3.20644e-24)
(3.79512 -0.236894 0)
(3.79366 -0.240235 0)
(3.79187 -0.243619 0)
(3.78981 -0.247054 -1.79739e-20)
(3.78877 -0.250623 -1.6463e-20)
(3.7877 -0.254262 -1.50329e-20)
(3.78665 -0.257974 2.73597e-20)
(3.78562 -0.261763 2.47988e-20)
(3.78457 -0.265629 2.23741e-20)
(3.78357 -0.269581 2.00772e-20)
(3.7826 -0.273624 8.97999e-27)
(3.78165 -0.277758 2.26834e-26)
(3.78068 -0.281981 1.24862e-26)
(3.7797 -0.286301 -1.20792e-20)
(3.77876 -0.290731 -1.03588e-20)
(3.77783 -0.295271 8.75158e-21)
(3.7769 -0.299922 -7.25815e-21)
(3.77598 -0.304696 -5.88219e-21)
(3.77509 -0.309601 -4.63003e-21)
(3.77417 -0.31464 -3.85703e-27)
(3.77329 -0.319822 -2.51774e-21)
(3.7724 -0.325152 0)
(3.77151 -0.330641 0)
(3.7706 -0.336294 -4.70062e-29)
(3.76973 -0.342129 4.50489e-28)
(3.76884 -0.348149 2.49932e-21)
(3.76795 -0.354363 1.83687e-21)
(3.76703 -0.360779 0)
(3.76613 -0.367417 0)
(3.76519 -0.37428 -1.45934e-27)
(3.76424 -0.381379 1.45002e-27)
(3.76326 -0.388726 1.50634e-27)
(3.76228 -0.396336 6.24333e-21)
(3.76125 -0.40422 0)
(3.76025 -0.412399 -1.18359e-27)
(3.75916 -0.420873 1.17902e-27)
(3.75806 -0.429658 -1.75563e-21)
(3.75691 -0.438768 1.08418e-21)
(3.75573 -0.448227 2.68841e-22)
(3.7545 -0.458039 -7.30022e-22)
(3.75324 -0.46822 -1.90162e-21)
(3.75189 -0.478786 3.27562e-21)
(3.75051 -0.489755 -4.87902e-21)
(3.74904 -0.501135 -2.76044e-27)
(3.74754 -0.512955 -1.75979e-20)
(3.74595 -0.525221 1.0721e-26)
(3.74427 -0.537951 -5.96982e-27)
(3.74251 -0.551165 3.37538e-20)
(3.74066 -0.564879 0)
(3.73865 -0.579102 4.81443e-20)
(3.73658 -0.593872 -2.91667e-26)
(3.73437 -0.609196 -6.60238e-20)
(3.73204 -0.625099 0)
(3.72955 -0.641601 0)
(3.72691 -0.658723 -1.0092e-19)
(3.72409 -0.676485 5.83884e-26)
(3.7211 -0.694923 -1.25018e-25)
(3.71789 -0.714054 -2.95983e-19)
(3.71448 -0.733912 0)
(3.71079 -0.754522 -1.87917e-19)
(3.70686 -0.77592 -2.10918e-19)
(3.70261 -0.798141 4.72412e-19)
(3.69805 -0.821231 -2.64026e-19)
(3.69314 -0.845227 2.94585e-19)
(3.68785 -0.870187 0)
(3.68211 -0.896142 3.65088e-19)
(3.67593 -0.923188 0)
(3.66918 -0.951362 0)
(3.66187 -0.980747 4.99387e-19)
(3.65382 -1.01143 0)
(3.64503 -1.04349 0)
(3.63533 -1.07706 -1.35734e-18)
(3.62457 -1.11222 -7.51168e-19)
(3.61265 -1.14914 8.31214e-19)
(3.59927 -1.18796 1.83976e-18)
(3.58419 -1.22878 7.81132e-26)
(3.56711 -1.2719 -1.03393e-24)
(3.54753 -1.31741 1.2482e-18)
(3.525 -1.3656 -1.38316e-18)
(3.49873 -1.41665 -1.53386e-18)
(3.46784 -1.47077 0)
(3.4312 -1.52826 0)
(3.38708 -1.58917 0)
(3.33341 -1.65356 -2.34267e-18)
(3.26684 -1.721 0)
(3.18289 -1.79051 0)
(3.07399 -1.85929 0)
(2.93027 -1.92245 -1.82247e-18)
(5.53063 -0.345225 0)
(5.52845 -0.35009 0)
(5.52576 -0.355016 0)
(5.5227 -0.360018 0)
(5.52117 -0.365219 3.71718e-20)
(5.51959 -0.370519 3.39433e-20)
(5.51803 -0.375928 -3.08887e-20)
(5.51648 -0.381446 1.22621e-25)
(5.51494 -0.387079 -2.52609e-20)
(5.51345 -0.392835 0)
(5.51201 -0.398724 0)
(5.51058 -0.404746 -3.5793e-20)
(5.50913 -0.410897 1.4098e-26)
(5.50769 -0.417191 -7.73854e-26)
(5.5063 -0.423644 1.1696e-20)
(5.50492 -0.430258 -1.02168e-26)
(5.50353 -0.437033 8.19525e-21)
(5.50217 -0.443987 5.69522e-27)
(5.50083 -0.451132 -5.62453e-27)
(5.49949 -0.458473 0)
(5.49817 -0.466022 0)
(5.49683 -0.473785 -3.75624e-21)
(5.49552 -0.48178 0)
(5.49419 -0.490018 7.15147e-22)
(5.4929 -0.498518 0)
(5.49157 -0.507287 -1.411e-21)
(5.49025 -0.51634 -2.07389e-21)
(5.4889 -0.525687 2.49213e-27)
(5.48759 -0.535358 -1.35777e-27)
(5.48619 -0.545356 1.64773e-27)
(5.4848 -0.5557 -1.6372e-27)
(5.48337 -0.566403 0)
(5.48193 -0.577492 -1.57279e-25)
(5.48045 -0.588981 -1.5202e-27)
(5.47897 -0.600897 1.51355e-27)
(5.47739 -0.613244 0)
(5.47578 -0.626044 1.98222e-21)
(5.47411 -0.63932 0)
(5.47241 -0.653105 0)
(5.47064 -0.667403 0)
(5.46882 -0.68224 -2.14721e-21)
(5.4669 -0.697641 -7.39645e-21)
(5.46491 -0.713627 5.50856e-21)
(5.4628 -0.730214 0)
(5.46066 -0.747442 3.97337e-20)
(5.45837 -0.765321 1.34529e-26)
(5.45598 -0.783879 -1.34785e-26)
(5.45347 -0.803142 -3.8103e-20)
(5.45084 -0.823134 -2.38272e-26)
(5.448 -0.843873 2.3912e-26)
(5.44507 -0.865409 6.38868e-20)
(5.44194 -0.887756 7.45243e-20)
(5.43865 -0.91095 0)
(5.43514 -0.935017 0)
(5.4314 -0.95999 1.13903e-19)
(5.42743 -0.985901 6.58975e-26)
(5.42323 -1.0128 8.29159e-27)
(5.41871 -1.04071 -9.52957e-25)
(5.4139 -1.06969 1.88443e-19)
(5.40872 -1.09977 9.59357e-26)
(5.40318 -1.131 2.37996e-19)
(5.39721 -1.16343 -2.66519e-19)
(5.3908 -1.19714 2.97896e-19)
(5.38388 -1.23218 -3.32359e-19)
(5.37642 -1.26862 -3.70239e-19)
(5.36831 -1.30652 -4.11864e-19)
(5.35955 -1.34602 4.1751e-25)
(5.34996 -1.38716 -5.0686e-25)
(5.33954 -1.43007 2.29392e-24)
(5.32804 -1.47487 0)
(5.31542 -1.52169 -6.91348e-19)
(5.30146 -1.57069 1.53071e-18)
(5.2859 -1.62201 8.4707e-19)
(5.26858 -1.67587 -1.87456e-18)
(5.24905 -1.73248 -1.0372e-18)
(5.22697 -1.79198 0)
(5.20182 -1.85477 1.27065e-18)
(5.17289 -1.921 -1.40716e-18)
(5.13946 -1.99104 0)
(5.10036 -2.06515 -1.71772e-24)
(5.05426 -2.14359 -1.45233e-25)
(4.99945 -2.22675 2.13188e-18)
(4.93333 -2.31463 -2.35652e-24)
(4.85283 -2.40725 5.28127e-18)
(4.75282 -2.50378 0)
(4.62676 -2.60269 0)
(4.46353 -2.69966 -3.65263e-24)
(4.24852 -2.78716 2.05483e-18)
(7.35846 -0.459319 -5.75428e-26)
(7.35548 -0.465785 2.70278e-20)
(7.3518 -0.472332 2.48719e-20)
(7.34764 -0.478981 0)
(7.34557 -0.485899 -2.09183e-20)
(7.34341 -0.492948 -1.91019e-20)
(7.34129 -0.50014 -6.63616e-26)
(7.3392 -0.507481 -3.1514e-20)
(7.33712 -0.514972 -2.8434e-20)
(7.33511 -0.522628 -2.55158e-20)
(7.33315 -0.53046 2.06212e-26)
(7.3312 -0.538467 4.02912e-20)
(7.32924 -0.546649 -1.587e-26)
(7.32729 -0.555019 -1.31183e-25)
(7.32541 -0.563601 -1.16639e-26)
(7.32353 -0.572397 1.15015e-26)
(7.32165 -0.581409 -9.226e-21)
(7.3198 -0.590657 -6.41158e-27)
(7.31799 -0.60016 1.37004e-27)
(7.31618 -0.609924 4.90299e-27)
(7.3144 -0.619963 -3.20071e-21)
(7.31258 -0.630289 -2.9391e-25)
(7.31082 -0.640923 -7.63525e-28)
(7.30903 -0.651881 -8.05117e-22)
(7.30728 -0.663186 1.02663e-27)
(7.30551 -0.67485 1.58806e-21)
(7.30375 -0.686894 2.33481e-21)
(7.30195 -0.699327 2.5312e-27)
(7.30018 -0.712191 0)
(7.29834 -0.725493 3.76312e-21)
(7.29649 -0.739253 -3.84176e-27)
(7.2946 -0.753493 3.81911e-27)
(7.29269 -0.768246 -3.96785e-21)
(7.29074 -0.783533 -3.67244e-27)
(7.28879 -0.799386 3.40888e-21)
(7.28672 -0.815816 -5.51759e-28)
(7.28462 -0.832849 -2.2309e-21)
(7.28246 -0.850516 8.20532e-28)
(7.28025 -0.868861 -8.18609e-28)
(7.27794 -0.88789 9.28562e-22)
(7.27559 -0.907636 2.41709e-21)
(7.27313 -0.928138 4.16307e-21)
(7.27057 -0.949418 4.88352e-25)
(7.26788 -0.971499 -9.38647e-27)
(7.26513 -0.994434 -2.23623e-20)
(7.26222 -1.01824 1.21037e-26)
(7.25918 -1.04295 3.52026e-20)
(7.256 -1.0686 -4.28869e-20)
(7.25265 -1.09523 2.68173e-26)
(7.24908 -1.12285 -5.85719e-26)
(7.24538 -1.15154 -7.18981e-20)
(7.24144 -1.18131 -8.38663e-20)
(7.23732 -1.21222 -9.71456e-20)
(7.23292 -1.24429 -1.11872e-19)
(7.22825 -1.27758 1.28168e-19)
(7.22328 -1.31212 -1.48292e-25)
(7.21803 -1.34798 1.49415e-25)
(7.21238 -1.3852 3.75798e-19)
(7.20639 -1.42385 -2.11997e-19)
(7.19992 -1.46397 -2.38546e-19)
(7.193 -1.50564 0)
(7.18553 -1.54893 3.01007e-25)
(7.17752 -1.59392 -3.04418e-25)
(7.16885 -1.64069 0)
(7.15947 -1.68935 4.16356e-19)
(7.14924 -1.73996 -4.63134e-19)
(7.13816 -1.7927 -4.69448e-25)
(7.12595 -1.84765 5.71085e-19)
(7.11261 -1.90495 -6.33249e-19)
(7.09782 -1.96478 6.4169e-25)
(7.0815 -2.02728 7.77106e-19)
(7.06332 -2.09269 -8.60229e-19)
(7.04295 -2.16117 -9.52014e-19)
(7.02013 -2.23301 1.05333e-18)
(6.99421 -2.30848 -1.16554e-18)
(6.96473 -2.38774 -1.18291e-24)
(6.93095 -2.47131 -1.42772e-18)
(6.89189 -2.55935 -1.58107e-18)
(6.84651 -2.65234 1.74047e-24)
(6.79321 -2.75058 -1.94273e-18)
(6.73014 -2.85434 4.2844e-24)
(6.65494 -2.96408 1.12412e-23)
(6.56397 -3.07966 -2.6647e-18)
(6.45308 -3.201 -2.9679e-18)
(6.31505 -3.3267 -6.07411e-24)
(6.1411 -3.45445 7.35079e-24)
(5.91629 -3.57817 -1.58002e-23)
(5.6207 -3.68712 -6.98052e-25)
(9.24628 -0.577156 -6.44701e-26)
(9.24242 -0.585272 -3.02829e-20)
(9.23767 -0.59349 1.70321e-25)
(9.23228 -0.601836 4.7223e-26)
(9.22965 -0.610527 -8.94763e-26)
(9.22688 -0.61938 -2.1406e-20)
(9.22416 -0.628413 -3.57418e-26)
(9.2215 -0.637633 -3.53179e-20)
(9.21886 -0.647044 3.18667e-20)
(9.21628 -0.65666 2.85971e-20)
(9.21376 -0.666497 -4.62247e-26)
(9.21127 -0.676554 -4.51596e-20)
(9.20876 -0.686831 0)
(9.20629 -0.697346 3.44182e-20)
(9.20387 -0.708126 0)
(9.20147 -0.719173 0)
(9.19908 -0.730494 1.03419e-20)
(9.19673 -0.742112 -1.77407e-26)
(9.19442 -0.754048 0)
(9.19211 -0.766313 -4.99859e-21)
(9.18985 -0.778924 3.58805e-21)
(9.18756 -0.791896 4.74094e-21)
(9.18532 -0.805256 3.51553e-27)
(9.18307 -0.819022 0)
(9.18086 -0.833225 -6.21543e-22)
(9.17863 -0.847881 -1.78033e-21)
(9.17643 -0.863013 0)
(9.17419 -0.878636 0)
(9.17197 -0.894799 -3.86359e-27)
(9.16969 -0.911514 -4.21874e-21)
(9.1674 -0.928806 4.47428e-21)
(9.16506 -0.946703 -4.28098e-27)
(9.16273 -0.965244 -4.44709e-21)
(9.16034 -0.984457 4.20614e-21)
(9.15795 -1.00438 -3.82148e-21)
(9.15544 -1.02504 3.23649e-21)
(9.1529 -1.04645 5.0009e-21)
(9.15029 -1.06866 -1.54312e-21)
(9.14765 -1.09173 -3.14723e-28)
(9.14488 -1.11565 -1.04087e-21)
(9.14207 -1.14048 1.73167e-27)
(9.13915 -1.16626 4.66783e-21)
(9.13613 -1.19303 9.86182e-25)
(9.13297 -1.22081 -7.86472e-27)
(9.12974 -1.24966 0)
(9.12633 -1.27961 0)
(9.1228 -1.3107 -7.89062e-20)
(9.11909 -1.34298 4.80619e-20)
(9.11522 -1.3765 0)
(9.11111 -1.41127 0)
(9.10685 -1.44739 0)
(9.10234 -1.48489 0)
(9.09762 -1.52381 1.08839e-19)
(9.09259 -1.56422 1.2533e-19)
(9.08728 -1.60616 -1.43576e-19)
(9.08164 -1.64969 -1.47033e-25)
(9.07567 -1.6949 0)
(9.06927 -1.74184 -4.20888e-19)
(9.06246 -1.79058 2.39465e-25)
(9.05512 -1.8412 -4.61352e-24)
(9.04726 -1.89378 3.01378e-25)
(9.03875 -1.94841 3.35624e-19)
(9.02959 -2.00522 -3.40777e-25)
(9.01965 -2.06428 0)
(9.00883 -2.12573 0)
(8.99696 -2.18966 5.18268e-19)
(8.98401 -2.25628 5.74998e-25)
(8.96963 -2.32569 -1.27784e-18)
(8.95379 -2.39807 -7.08394e-19)
(8.93608 -2.47364 0)
(8.91635 -2.55256 -8.69131e-19)
(8.89418 -2.63512 0)
(8.86913 -2.72155 1.06452e-18)
(8.8408 -2.81215 0)
(8.80835 -2.90724 -1.36332e-23)
(8.77114 -3.00704 -1.44197e-18)
(8.7282 -3.11214 0)
(8.67822 -3.22271 3.53527e-18)
(8.61982 -3.33931 -2.96737e-25)
(8.55084 -3.46223 2.17233e-18)
(8.46889 -3.59174 4.79157e-24)
(8.37091 -3.72833 -2.67972e-18)
(8.25196 -3.87157 5.96339e-18)
(8.10679 -4.02124 3.32221e-18)
(7.92569 -4.17505 -6.80239e-24)
(7.69751 -4.32978 0)
(7.40325 -4.47723 -2.31724e-18)
(7.01703 -4.60271 0)
(11.158 -0.696487 0)
(11.1532 -0.70627 0)
(11.1474 -0.716177 -3.10606e-20)
(11.1406 -0.726233 7.21813e-27)
(11.1374 -0.736718 -2.61276e-20)
(11.134 -0.747398 -2.06428e-25)
(11.1307 -0.758296 7.96867e-26)
(11.1274 -0.769419 3.93719e-20)
(11.1242 -0.780771 7.07997e-26)
(11.121 -0.792372 3.18834e-20)
(11.1179 -0.804238 0)
(11.1149 -0.81637 2.51761e-20)
(11.1118 -0.828767 0)
(11.1088 -0.841454 -1.91891e-20)
(11.1058 -0.854458 -3.37496e-26)
(11.1029 -0.867786 -2.44236e-26)
(11.1 -0.881444 -1.15336e-20)
(11.0972 -0.895462 0)
(11.0944 -0.909863 0)
(11.0915 -0.924661 5.57458e-21)
(11.0888 -0.939877 0)
(11.086 -0.95553 -5.2892e-21)
(11.0833 -0.97165 0)
(11.0806 -0.988263 1.00882e-21)
(11.078 -1.0054 1.38531e-21)
(11.0753 -1.02309 -1.07652e-27)
(11.0727 -1.04135 2.32775e-27)
(11.0701 -1.06021 3.74237e-21)
(11.0674 -1.07972 0)
(11.0648 -1.0999 4.70335e-21)
(11.0621 -1.12077 -4.99031e-21)
(11.0594 -1.14237 9.56012e-27)
(11.0567 -1.16476 4.9599e-21)
(11.0539 -1.18796 -4.69111e-21)
(11.0512 -1.21202 -4.25883e-27)
(11.0483 -1.23696 -7.21768e-21)
(11.0454 -1.26282 -1.47762e-24)
(11.0425 -1.28965 1.51869e-24)
(11.0395 -1.31751 0)
(11.0364 -1.34641 0)
(11.0333 -1.37641 3.02452e-21)
(11.0301 -1.40757 -5.20497e-21)
(11.0268 -1.43992 -7.75122e-21)
(11.0233 -1.47349 1.06398e-20)
(11.0198 -1.50837 -2.34816e-26)
(11.0161 -1.54458 -3.54546e-20)
(11.0123 -1.58218 4.39827e-20)
(11.0084 -1.62122 4.65762e-26)
(11.0043 -1.66176 6.69986e-26)
(10.9999 -1.70385 -7.6396e-20)
(10.9955 -1.74756 8.97913e-20)
(10.9907 -1.79295 9.29574e-26)
(10.9858 -1.84008 1.24066e-25)
(10.9806 -1.88902 -2.67179e-25)
(10.9751 -1.93983 -1.59951e-19)
(10.9693 -1.99258 -1.85027e-25)
(10.9631 -2.04739 -2.07101e-19)
(10.9565 -2.1043 -7.40975e-24)
(10.9495 -2.16342 2.38806e-25)
(10.9419 -2.22484 -8.05357e-24)
(10.9337 -2.28866 0)
(10.9249 -2.35499 9.45871e-24)
(10.9152 -2.42397 -3.79172e-25)
(10.9047 -2.49571 -4.65443e-19)
(10.8931 -2.57036 1.03717e-24)
(10.8803 -2.64803 -1.05069e-24)
(10.8662 -2.72897 0)
(10.8502 -2.81331 7.10234e-19)
(10.8324 -2.90123 7.87318e-19)
(10.8123 -2.99301 1.73831e-24)
(10.7896 -3.08883 -1.91051e-23)
(10.7637 -3.18903 -2.12751e-24)
(10.7342 -3.29385 2.16637e-24)
(10.7004 -3.40365 0)
(10.6612 -3.51879 -2.20707e-23)
(10.6159 -3.6395 -3.05357e-23)
(10.5633 -3.76644 3.52339e-24)
(10.5014 -3.89976 -1.96366e-18)
(10.4288 -4.04008 -2.17646e-18)
(10.3425 -4.18764 4.7973e-24)
(10.2396 -4.34266 -4.92187e-24)
(10.1161 -4.50558 2.98104e-18)
(9.9658 -4.67557 -6.63805e-18)
(9.78207 -4.85211 8.34754e-23)
(9.55233 -5.03176 -7.5842e-24)
(9.26304 -5.21013 -2.31153e-18)
(8.89091 -5.37654 5.17808e-18)
(8.40334 -5.51146 -2.13083e-23)
(13.0566 -0.814992 1.50272e-25)
(13.0509 -0.826428 -1.47093e-25)
(13.0438 -0.838008 0)
(13.0355 -0.849752 3.16137e-20)
(13.0317 -0.862022 -6.33046e-25)
(13.0277 -0.874515 2.64515e-20)
(13.0238 -0.887264 1.83819e-25)
(13.0199 -0.900275 -1.66652e-25)
(13.0161 -0.913556 -3.93919e-20)
(13.0124 -0.927127 -3.53531e-20)
(13.0087 -0.941008 6.10904e-27)
(13.0051 -0.955201 5.62446e-26)
(13.0015 -0.969705 -4.39941e-26)
(12.9979 -0.984547 2.12832e-20)
(12.9945 -0.999761 3.23412e-26)
(12.991 -1.01535 -3.18938e-26)
(12.9876 -1.03133 1.27928e-20)
(12.9843 -1.04774 0)
(12.981 -1.06459 8.16353e-21)
(12.9777 -1.0819 0)
(12.9745 -1.09971 4.44089e-21)
(12.9713 -1.11802 5.86745e-21)
(12.9682 -1.13689 -4.2419e-27)
(12.9651 -1.15633 -1.11914e-21)
(12.9621 -1.17639 -7.67789e-22)
(12.959 -1.1971 -5.20538e-27)
(12.956 -1.21847 3.23426e-21)
(12.953 -1.24055 -4.15178e-21)
(12.9501 -1.26339 4.76749e-21)
(12.9471 -1.28701 -2.09973e-24)
(12.9441 -1.31145 0)
(12.9411 -1.33675 1.06163e-26)
(12.9382 -1.36297 -5.49858e-21)
(12.9352 -1.39014 5.20017e-21)
(12.9322 -1.41832 4.72305e-21)
(12.9291 -1.44754 4.00238e-21)
(12.926 -1.47783 -3.09109e-21)
(12.9229 -1.50927 3.81166e-21)
(12.9198 -1.54192 -7.85395e-28)
(12.9166 -1.57579 5.21883e-27)
(12.9134 -1.61096 -3.35422e-21)
(12.9101 -1.64749 -5.77693e-21)
(12.9068 -1.68541 0)
(12.9033 -1.72479 -2.35974e-20)
(12.8998 -1.7657 3.09957e-20)
(12.8962 -1.80818 3.93043e-20)
(12.8925 -1.85231 4.87653e-20)
(12.8887 -1.89814 5.93947e-20)
(12.8847 -1.94573 -7.42551e-26)
(12.8806 -1.99516 8.46519e-20)
(12.8763 -2.0465 -9.94808e-20)
(12.8719 -2.09983 0)
(12.8673 -2.15523 1.37419e-25)
(12.8625 -2.21278 -1.38168e-25)
(12.8575 -2.27254 3.54194e-19)
(12.8521 -2.33462 2.01872e-19)
(12.8465 -2.39912 4.58406e-19)
(12.8405 -2.46614 2.59291e-19)
(12.834 -2.53578 0)
(12.827 -2.60815 3.28854e-19)
(12.8194 -2.68337 -6.68577e-25)
(12.811 -2.76159 -4.12825e-19)
(12.8018 -2.84293 0)
(12.7916 -2.92755 1.0283e-18)
(12.7801 -3.01562 -1.04241e-24)
(12.7671 -3.10724 -6.36297e-19)
(12.7525 -3.20273 0)
(12.7357 -3.3022 0)
(12.7166 -3.40587 0)
(12.6946 -3.51406 0)
(12.6693 -3.62695 1.0648e-18)
(12.64 -3.74493 0)
(12.606 -3.86824 0)
(12.5666 -3.99729 -1.44203e-18)
(12.5205 -4.13246 1.5955e-18)
(12.4666 -4.27397 1.76572e-18)
(12.4034 -4.42255 1.95512e-18)
(12.3287 -4.57828 0)
(12.2403 -4.74183 4.8037e-18)
(12.1348 -4.91329 2.66613e-18)
(12.0085 -5.09282 0)
(11.8567 -5.2807 -3.2969e-18)
(11.6712 -5.47553 3.67471e-18)
(11.4441 -5.67634 -4.10197e-18)
(11.1597 -5.87819 -4.58811e-18)
(10.8018 -6.07525 2.56998e-18)
(10.3428 -6.25394 -2.88309e-18)
(9.74245 -6.38886 -3.23833e-18)
(14.9071 -0.930495 -1.75608e-25)
(14.9004 -0.94354 4.12546e-20)
(14.8922 -0.956749 -3.79742e-20)
(14.882 -0.970113 -6.97409e-20)
(14.8777 -0.984123 3.19487e-20)
(14.873 -0.998383 -2.14625e-25)
(14.8685 -1.01294 2.10678e-25)
(14.8641 -1.02779 -4.81674e-20)
(14.8597 -1.04295 4.34673e-20)
(14.8554 -1.05844 0)
(14.8513 -1.07429 3.48011e-20)
(14.8471 -1.09049 3.08167e-20)
(14.843 -1.10705 -1.2398e-26)
(14.8389 -1.12399 -4.69866e-20)
(14.835 -1.14136 -2.01517e-20)
(14.831 -1.15917 -5.98155e-26)
(14.8272 -1.17741 -1.41253e-20)
(14.8234 -1.19614 4.84638e-26)
(14.8197 -1.21538 1.48101e-24)
(14.816 -1.23515 3.00395e-26)
(14.8124 -1.25548 -4.90324e-21)
(14.8088 -1.2764 -9.7156e-27)
(14.8053 -1.29795 9.61528e-27)
(14.8019 -1.32016 -3.78466e-28)
(14.7986 -1.34307 -2.75826e-27)
(14.7953 -1.36672 3.10541e-27)
(14.792 -1.39114 -3.25232e-24)
(14.7888 -1.41636 4.57885e-21)
(14.7856 -1.44246 -1.05251e-20)
(14.7825 -1.46945 -5.75911e-21)
(14.7793 -1.49738 6.10536e-21)
(14.7762 -1.5263 0)
(14.7731 -1.55627 6.07095e-21)
(14.77 -1.58733 -5.74128e-21)
(14.767 -1.61955 -5.21426e-21)
(14.7639 -1.65296 -4.4117e-21)
(14.7609 -1.68761 -7.44606e-27)
(14.7578 -1.72356 -4.20021e-21)
(14.7548 -1.76092 -2.48977e-27)
(14.7517 -1.79968 1.43152e-21)
(14.7487 -1.83992 3.70932e-21)
(14.7457 -1.88173 1.27535e-20)
(14.7426 -1.92515 -1.51286e-26)
(14.7395 -1.97024 1.30175e-20)
(14.7364 -2.01709 -3.41881e-20)
(14.7333 -2.06577 -9.25674e-26)
(14.7301 -2.11633 -5.37708e-20)
(14.7269 -2.16887 -6.54798e-20)
(14.7236 -2.22344 0)
(14.7203 -2.28013 0)
(14.7169 -2.33905 0)
(14.7135 -2.40026 -2.62355e-25)
(14.71 -2.46387 1.47944e-19)
(14.7063 -2.52998 -1.7026e-19)
(14.7025 -2.59866 -1.94907e-19)
(14.6985 -2.67003 -2.22093e-19)
(14.6943 -2.74422 1.85672e-23)
(14.6898 -2.82133 0)
(14.6849 -2.90149 0)
(14.6794 -2.98482 3.61285e-19)
(14.6734 -3.07146 4.05074e-19)
(14.6665 -3.16157 -9.09965e-25)
(14.6587 -3.25531 1.93403e-24)
(14.6497 -3.35282 -5.63829e-19)
(14.6392 -3.4543 0)
(14.6269 -3.55988 1.39438e-18)
(14.6125 -3.66988 0)
(14.5955 -3.78444 0)
(14.5756 -3.90378 9.50657e-19)
(14.552 -4.02824 0)
(14.5243 -4.15803 0)
(14.4917 -4.29355 0)
(14.4532 -4.43505 5.67429e-24)
(14.4079 -4.58297 -6.29338e-23)
(14.3542 -4.73767 1.74575e-18)
(14.2909 -4.89938 -7.08973e-24)
(14.2161 -5.06885 -2.14071e-18)
(14.1269 -5.24604 2.37337e-18)
(14.0211 -5.43165 -2.63361e-18)
(13.8941 -5.62555 -2.9263e-18)
(13.7418 -5.82781 3.25599e-18)
(13.5582 -6.03835 0)
(13.3331 -6.25505 0)
(13.0574 -6.47626 0)
(12.7116 -6.69524 5.07545e-18)
(12.2769 -6.90432 0)
(11.7211 -7.08651 0)
(10.9959 -7.20955 -1.68228e-22)
(16.6786 -1.04107 3.85976e-25)
(16.671 -1.05565 -4.53417e-20)
(16.6617 -1.07042 4.17406e-20)
(16.6501 -1.08536 -1.07883e-24)
(16.6452 -1.10104 -2.77465e-25)
(16.6401 -1.11699 0)
(16.635 -1.13328 0)
(16.6301 -1.14989 -2.53858e-24)
(16.6252 -1.16686 0)
(16.6204 -1.18419 0)
(16.6157 -1.20192 -3.8278e-20)
(16.6111 -1.22005 -3.38979e-20)
(16.6065 -1.23858 -2.27333e-25)
(16.602 -1.25754 2.58467e-20)
(16.5976 -1.27697 2.2171e-20)
(16.5933 -1.2969 6.58206e-26)
(16.589 -1.31731 3.10871e-20)
(16.5848 -1.33827 -1.26014e-20)
(16.5808 -1.3598 -1.98415e-20)
(16.5768 -1.38194 2.47761e-26)
(16.5729 -1.4047 -5.40003e-21)
(16.569 -1.42812 1.06999e-26)
(16.5653 -1.45224 -1.57575e-26)
(16.5617 -1.4771 5.11709e-27)
(16.5581 -1.50276 3.44021e-27)
(16.5547 -1.52924 -3.40971e-27)
(16.5513 -1.55659 -3.92676e-21)
(16.548 -1.58484 -5.03917e-21)
(16.5448 -1.61407 5.78962e-21)
(16.5416 -1.64432 0)
(16.5384 -1.67561 -6.71852e-21)
(16.5354 -1.70802 1.29163e-26)
(16.5324 -1.7416 -6.6702e-21)
(16.5294 -1.77641 -6.30676e-21)
(16.5266 -1.81253 -5.72622e-21)
(16.5238 -1.84999 4.8532e-21)
(16.521 -1.88885 0)
(16.5183 -1.92917 6.61423e-24)
(16.5157 -1.97107 5.45442e-27)
(16.5131 -2.01457 -1.57405e-21)
(16.5106 -2.05973 -4.07803e-21)
(16.5082 -2.10666 -1.40318e-20)
(16.5059 -2.15541 4.72142e-26)
(16.5036 -2.20605 -1.43176e-20)
(16.5014 -2.25869 3.75868e-20)
(16.4993 -2.31339 4.76458e-20)
(16.4972 -2.37023 0)
(16.4953 -2.4293 -7.19116e-20)
(16.4934 -2.4907 8.63075e-20)
(16.4915 -2.55449 -2.11958e-25)
(16.4898 -2.62083 2.1264e-25)
(16.4881 -2.68978 0)
(16.4865 -2.76146 -1.6211e-19)
(16.485 -2.83598 1.8648e-19)
(16.4834 -2.91344 3.82381e-25)
(16.4817 -2.99397 -4.93206e-25)
(16.48 -3.07773 -5.51425e-19)
(16.4781 -3.16481 5.62038e-25)
(16.4758 -3.25537 7.08201e-25)
(16.473 -3.34954 -3.94411e-19)
(16.4696 -3.44747 -8.8392e-19)
(16.4652 -3.54934 -8.96758e-25)
(16.4598 -3.65531 5.5135e-19)
(16.4529 -3.76554 6.14088e-19)
(16.4441 -3.88024 2.73317e-24)
(16.4332 -3.99953 4.54598e-23)
(16.4197 -4.12377 6.43192e-24)
(16.4029 -4.25308 -3.40625e-24)
(16.3823 -4.3877 6.39589e-23)
(16.3573 -4.52799 -4.55757e-24)
(16.3271 -4.67414 -1.2653e-18)
(16.2908 -4.82658 1.39993e-18)
(16.2472 -4.98556 -4.88356e-25)
(16.1953 -5.15151 1.71396e-18)
(16.1331 -5.32478 -1.89763e-18)
(16.0591 -5.50556 0)
(15.9712 -5.69462 0)
(15.8658 -5.89171 1.49324e-22)
(15.7403 -6.09759 0)
(15.589 -6.31169 -1.2708e-23)
(15.4075 -6.53406 -3.564e-18)
(15.188 -6.764 3.97872e-18)
(14.9184 -6.99847 -3.40369e-23)
(14.5877 -7.23484 -1.52404e-24)
(14.1729 -7.46431 -2.40054e-23)
(13.6522 -7.67689 -3.15413e-18)
(12.9886 -7.85155 0)
(12.1255 -7.94828 -3.00424e-22)
(18.3167 -1.19398 4.2062e-20)
(18.3113 -1.21123 3.85505e-20)
(18.3056 -1.22879 3.52201e-20)
(18.3001 -1.2467 4.89645e-25)
(18.2947 -1.26499 5.81546e-20)
(18.2894 -1.28365 1.91607e-25)
(18.2842 -1.30273 -1.88417e-25)
(18.2791 -1.32224 0)
(18.2741 -1.34218 0)
(18.2691 -1.36257 -3.26919e-20)
(18.2642 -1.38344 2.83987e-20)
(18.2595 -1.40483 2.43627e-20)
(18.2548 -1.42675 2.05901e-20)
(18.2502 -1.44923 3.54364e-24)
(18.2458 -1.4723 -3.63893e-24)
(18.2415 -1.496 -3.5301e-24)
(18.2372 -1.52036 1.8215e-26)
(18.2332 -1.54542 5.93394e-21)
(18.2292 -1.57121 0)
(18.2253 -1.59777 0)
(18.2216 -1.62515 1.51354e-21)
(18.2181 -1.65341 -8.48449e-27)
(18.2146 -1.68258 -6.37793e-27)
(18.2113 -1.71271 -5.10042e-27)
(18.2081 -1.74383 1.86818e-26)
(18.205 -1.77604 0)
(18.202 -1.80937 0)
(18.1991 -1.84386 7.36697e-21)
(18.1963 -1.87959 -2.82041e-26)
(18.1937 -1.91661 8.64869e-24)
(18.1912 -1.955 6.92694e-21)
(18.1888 -1.99483 6.28849e-21)
(18.1865 -2.03616 -5.31283e-21)
(18.1844 -2.07902 4.09565e-21)
(18.1824 -2.12353 5.04133e-21)
(18.1806 -2.16978 -2.16833e-27)
(18.1789 -2.2178 1.40524e-26)
(18.1775 -2.26767 -1.18667e-26)
(18.1762 -2.31952 7.69884e-21)
(18.175 -2.37339 8.8334e-26)
(18.1741 -2.42936 1.56939e-20)
(18.1734 -2.48756 -8.2399e-20)
(18.173 -2.54807 2.64674e-23)
(18.1727 -2.61097 1.11538e-25)
(18.1727 -2.67637 1.57442e-19)
(18.173 -2.74436 -9.44199e-20)
(18.1735 -2.81505 1.11983e-19)
(18.1744 -2.88859 -3.84584e-26)
(18.1755 -2.96506 1.5308e-19)
(18.1769 -3.0446 0)
(18.1785 -3.12734 2.03486e-19)
(18.1802 -3.21338 0)
(18.1821 -3.30287 0)
(18.184 -3.39598 3.00105e-19)
(18.1858 -3.49283 3.38959e-19)
(18.1873 -3.59357 1.37871e-24)
(18.1883 -3.69835 4.28308e-19)
(18.1885 -3.80731 4.79461e-19)
(18.1876 -3.92066 -2.15117e-24)
(18.1853 -4.03854 -1.19433e-18)
(18.1812 -4.16113 -6.64582e-19)
(18.1748 -4.28863 -2.69039e-24)
(18.1655 -4.42118 -8.19784e-19)
(18.153 -4.55911 0)
(18.1363 -4.70257 4.02011e-24)
(18.115 -4.85178 -1.11516e-18)
(18.0881 -5.00712 -4.92035e-24)
(18.0548 -5.16877 1.36603e-18)
(18.014 -5.33715 1.28368e-22)
(17.9643 -5.51249 -6.13187e-24)
(17.9046 -5.69523 0)
(17.8324 -5.88563 0)
(17.7462 -6.0839 0)
(17.6431 -6.29071 0)
(17.519 -6.50555 -2.80989e-18)
(17.3711 -6.72922 2.29607e-23)
(17.192 -6.96054 -3.48786e-18)
(16.9772 -7.19953 -5.95662e-23)
(16.7167 -7.44452 -4.3582e-18)
(16.3965 -7.69142 -3.88723e-23)
(16.0031 -7.93618 -5.49179e-18)
(15.5104 -8.1678 6.18745e-18)
(14.893 -8.37339 6.98284e-18)
(14.1092 -8.52713 0)
(13.0947 -8.58086 4.4541e-18)
(19.8656 -1.29493 -7.28325e-25)
(19.8598 -1.31365 -8.4637e-20)
(19.8537 -1.3327 2.84914e-24)
(19.8479 -1.35214 7.04254e-20)
(19.8421 -1.37197 -4.67593e-25)
(19.8364 -1.39223 4.59628e-25)
(19.8309 -1.41292 -3.76717e-25)
(19.8255 -1.43409 -4.61938e-20)
(19.8202 -1.45574 4.09173e-20)