/*--------------------------------*- C++ -*----------------------------------*\
| =========                 |                                                 |
| \\      /  F ield         | OpenFOAM: The Open Source CFD Toolbox           |
|  \\    /   O peration     | Version:  2412                                  |
|   \\  /    A nd           | Website:  www.openfoam.com                      |
|    \\/     M anipulation  |                                                 |
\*---------------------------------------------------------------------------*/
FoamFile
{
    version     2.0;
    format      ascii;
    arch        "LSB;label=32;scalar=64";
    class       volScalarField;
    location    "140";
    object      nuTilda;
}
// * * * * * * * * * * * * * * * * * * * * * * * * * * * * * * * * * * * * * //

dimensions      [0 2 -1 0 0 0 0];

internalField   nonuniform List<scalar> 
7418
(
1.24784e-06
1.45485e-06
1.17205e-06
1.00428e-06
1.14128e-06
1.06362e-06
1.88469e-06
2.35215e-06
2.35325e-06
2.20455e-06
2.11571e-06
2.06783e-06
2.04611e-06
2.04824e-06
2.06593e-06
2.08076e-06
2.08495e-06
2.08242e-06
2.07344e-06
2.06329e-06
2.05772e-06
2.05661e-06
2.05887e-06
2.06196e-06
2.06382e-06
2.06471e-06
2.06532e-06
2.06659e-06
2.06854e-06
2.07084e-06
2.07317e-06
2.07548e-06
2.07787e-06
2.08037e-06
2.08301e-06
2.08571e-06
2.08846e-06
2.09126e-06
2.09407e-06
2.09689e-06
2.09971e-06
2.10255e-06
2.10538e-06
2.1082e-06
2.11099e-06
2.11374e-06
2.11649e-06
2.11921e-06
2.12184e-06
2.12439e-06
2.12693e-06
2.12941e-06
2.13183e-06
2.1342e-06
2.13645e-06
2.13868e-06
2.14085e-06
2.14295e-06
2.14495e-06
2.14683e-06
2.14865e-06
2.15044e-06
2.1521e-06
2.15365e-06
2.15515e-06
2.15658e-06
2.15793e-06
2.15916e-06
2.16029e-06
2.16138e-06
2.16243e-06
2.16344e-06
2.16446e-06
2.16535e-06
2.16594e-06
2.16654e-06
2.16701e-06
2.16739e-06
2.16764e-06
2.16769e-06
2.16759e-06
1.34135e-06
1.27404e-06
3.83779e-06
4.3943e-06
3.64354e-06
3.13041e-06
3.48707e-06
3.31943e-06
5.97018e-06
7.25871e-06
7.23725e-06
6.84531e-06
6.60001e-06
6.46744e-06
6.41006e-06
6.41894e-06
6.46807e-06
6.50788e-06
6.51828e-06
6.50944e-06
6.48315e-06
6.45448e-06
6.43917e-06
6.43676e-06
6.4436e-06
6.4525e-06
6.45794e-06
6.46073e-06
6.46291e-06
6.467e-06
6.47312e-06
6.48018e-06
6.48735e-06
6.49449e-06
6.50186e-06
6.50967e-06
6.51784e-06
6.52618e-06
6.53468e-06
6.54334e-06
6.55204e-06
6.56077e-06
6.56955e-06
6.57831e-06
6.58707e-06
6.5958e-06
6.6044e-06
6.61295e-06
6.62144e-06
6.62981e-06
6.638e-06
6.64597e-06
6.65382e-06
6.6615e-06
6.66897e-06
6.67628e-06
6.68332e-06
6.69018e-06
6.69683e-06
6.70328e-06
6.70948e-06
6.71533e-06
6.72095e-06
6.72639e-06
6.73156e-06
6.73641e-06
6.74105e-06
6.74541e-06
6.7495e-06
6.75333e-06
6.75685e-06
6.76016e-06
6.76334e-06
6.76646e-06
6.76957e-06
6.77232e-06
6.77413e-06
6.77588e-06
6.77732e-06
6.77841e-06
6.77912e-06
6.77928e-06
6.77893e-06
4.07482e-06
3.87516e-06
6.74137e-06
7.40392e-06
6.34563e-06
5.49989e-06
5.96711e-06
6.12819e-06
1.07375e-05
1.25614e-05
1.24794e-05
1.19637e-05
1.16139e-05
1.14256e-05
1.13495e-05
1.1369e-05
1.14405e-05
1.14947e-05
1.15058e-05
1.14881e-05
1.14469e-05
1.14047e-05
1.13832e-05
1.13814e-05
1.13928e-05
1.14068e-05
1.14154e-05
1.14204e-05
1.14249e-05
1.14325e-05
1.14432e-05
1.14554e-05
1.14677e-05
1.14801e-05
1.14929e-05
1.15065e-05
1.15207e-05
1.15352e-05
1.15499e-05
1.15648e-05
1.15799e-05
1.1595e-05
1.16103e-05
1.16255e-05
1.16407e-05
1.16558e-05
1.16708e-05
1.16856e-05
1.17003e-05
1.17148e-05
1.1729e-05
1.17429e-05
1.17565e-05
1.17698e-05
1.17828e-05
1.17954e-05
1.18077e-05
1.18195e-05
1.1831e-05
1.18421e-05
1.18528e-05
1.1863e-05
1.18727e-05
1.1882e-05
1.18909e-05
1.18993e-05
1.19073e-05
1.19148e-05
1.19218e-05
1.19284e-05
1.19344e-05
1.194e-05
1.19455e-05
1.19508e-05
1.19561e-05
1.19608e-05
1.19639e-05
1.19667e-05
1.1969e-05
1.19707e-05
1.19718e-05
1.1972e-05
1.19711e-05
6.91035e-06
6.60531e-06
1.01514e-05
1.04588e-05
9.22249e-06
8.10695e-06
8.58744e-06
1.00032e-05
1.62335e-05
1.82254e-05
1.80692e-05
1.75873e-05
1.72071e-05
1.70057e-05
1.69345e-05
1.69672e-05
1.70455e-05
1.70984e-05
1.71025e-05
1.70735e-05
1.70222e-05
1.69745e-05
1.69522e-05
1.69535e-05
1.69693e-05
1.69868e-05
1.69981e-05
1.70056e-05
1.70134e-05
1.70253e-05
1.7041e-05
1.70584e-05
1.70762e-05
1.70942e-05
1.71129e-05
1.71326e-05
1.71531e-05
1.7174e-05
1.71953e-05
1.72169e-05
1.72388e-05
1.72607e-05
1.72828e-05
1.73048e-05
1.73268e-05
1.73488e-05
1.73705e-05
1.7392e-05
1.74133e-05
1.74342e-05
1.74548e-05
1.74749e-05
1.74946e-05
1.75139e-05
1.75327e-05
1.7551e-05
1.75687e-05
1.75859e-05
1.76025e-05
1.76185e-05
1.76339e-05
1.76486e-05
1.76626e-05
1.76761e-05
1.76888e-05
1.77008e-05
1.77123e-05
1.7723e-05
1.7733e-05
1.77423e-05
1.77509e-05
1.77589e-05
1.77666e-05
1.77742e-05
1.77817e-05
1.77883e-05
1.77924e-05
1.77963e-05
1.77993e-05
1.78014e-05
1.78026e-05
1.78024e-05
1.78008e-05
9.82031e-06
9.94178e-06
1.47471e-05
1.35976e-05
1.22181e-05
1.09271e-05
1.14295e-05
1.51208e-05
2.24159e-05
2.42382e-05
2.40323e-05
2.37638e-05
2.34426e-05
2.32796e-05
2.32386e-05
2.32833e-05
2.33478e-05
2.33801e-05
2.33684e-05
2.3327e-05
2.32727e-05
2.32299e-05
2.32138e-05
2.32212e-05
2.32406e-05
2.32596e-05
2.32728e-05
2.32832e-05
2.32954e-05
2.33125e-05
2.33335e-05
2.33563e-05
2.33796e-05
2.34034e-05
2.34283e-05
2.34544e-05
2.34815e-05
2.35091e-05
2.35372e-05
2.35657e-05
2.35945e-05
2.36236e-05
2.36527e-05
2.36819e-05
2.37109e-05
2.37399e-05
2.37686e-05
2.37971e-05
2.38251e-05
2.38528e-05
2.388e-05
2.39065e-05
2.39326e-05
2.3958e-05
2.39829e-05
2.4007e-05
2.40303e-05
2.40529e-05
2.40747e-05
2.40958e-05
2.4116e-05
2.41353e-05
2.41537e-05
2.41712e-05
2.41879e-05
2.42035e-05
2.42184e-05
2.42323e-05
2.42452e-05
2.42572e-05
2.42682e-05
2.42785e-05
2.42883e-05
2.4298e-05
2.43076e-05
2.43161e-05
2.4321e-05
2.43256e-05
2.4329e-05
2.43312e-05
2.43321e-05
2.43311e-05
2.43282e-05
1.28257e-05
1.451e-05
2.0595e-05
1.6934e-05
1.53041e-05
1.39227e-05
1.48175e-05
2.17077e-05
2.91669e-05
3.06158e-05
3.04258e-05
3.05605e-05
3.03972e-05
3.03279e-05
3.03404e-05
3.03899e-05
3.04157e-05
3.04068e-05
3.03706e-05
3.03177e-05
3.02705e-05
3.02448e-05
3.02426e-05
3.02587e-05
3.02805e-05
3.02988e-05
3.0313e-05
3.0327e-05
3.03449e-05
3.03679e-05
3.03945e-05
3.04226e-05
3.04514e-05
3.04811e-05
3.05123e-05
3.0545e-05
3.05787e-05
3.0613e-05
3.0648e-05
3.06835e-05
3.07195e-05
3.07556e-05
3.07919e-05
3.08283e-05
3.08645e-05
3.09005e-05
3.09363e-05
3.09718e-05
3.10067e-05
3.10412e-05
3.1075e-05
3.11081e-05
3.11405e-05
3.11722e-05
3.1203e-05
3.12329e-05
3.12618e-05
3.12898e-05
3.13168e-05
3.13428e-05
3.13677e-05
3.13914e-05
3.14141e-05
3.14356e-05
3.14559e-05
3.1475e-05
3.1493e-05
3.15098e-05
3.15254e-05
3.15397e-05
3.15529e-05
3.15651e-05
3.15767e-05
3.15881e-05
3.15994e-05
3.16094e-05
3.16148e-05
3.16195e-05
3.16227e-05
3.16244e-05
3.16243e-05
3.16219e-05
3.16169e-05
1.59839e-05
2.03432e-05
2.77642e-05
2.10426e-05
1.85072e-05
1.70649e-05
1.97255e-05
3.00501e-05
3.6335e-05
3.74153e-05
3.73407e-05
3.80723e-05
3.8168e-05
3.82441e-05
3.83248e-05
3.83649e-05
3.83255e-05
3.82557e-05
3.81883e-05
3.81285e-05
3.81008e-05
3.81051e-05
3.81243e-05
3.81515e-05
3.81738e-05
3.81889e-05
3.82033e-05
3.82216e-05
3.82464e-05
3.82762e-05
3.83084e-05
3.83415e-05
3.83755e-05
3.84112e-05
3.84487e-05
3.84878e-05
3.8528e-05
3.85689e-05
3.86106e-05
3.86531e-05
3.86959e-05
3.87389e-05
3.87822e-05
3.88255e-05
3.88687e-05
3.89117e-05
3.89543e-05
3.89965e-05
3.90381e-05
3.90791e-05
3.91193e-05
3.91587e-05
3.91972e-05
3.92347e-05
3.92711e-05
3.93065e-05
3.93408e-05
3.93738e-05
3.94056e-05
3.9436e-05
3.94652e-05
3.94929e-05
3.95192e-05
3.95442e-05
3.95677e-05
3.95896e-05
3.96101e-05
3.96292e-05
3.96467e-05
3.96627e-05
3.96772e-05
3.96906e-05
3.97033e-05
3.97156e-05
3.97279e-05
3.97387e-05
3.97435e-05
3.97474e-05
3.97494e-05
3.97495e-05
3.97474e-05
3.97424e-05
3.97342e-05
1.95114e-05
2.75413e-05
3.62919e-05
2.68279e-05
2.19578e-05
2.04727e-05
2.63061e-05
3.95919e-05
4.37893e-05
4.4744e-05
4.49121e-05
4.64393e-05
4.68793e-05
4.71331e-05
4.72785e-05
4.72857e-05
4.7157e-05
4.70131e-05
4.69136e-05
4.68562e-05
4.6862e-05
4.69081e-05
4.69546e-05
4.69933e-05
4.70138e-05
4.70233e-05
4.70374e-05
4.7061e-05
4.70937e-05
4.71306e-05
4.71679e-05
4.72054e-05
4.72442e-05
4.72854e-05
4.73288e-05
4.73737e-05
4.74198e-05
4.74667e-05
4.75144e-05
4.75629e-05
4.7612e-05
4.76613e-05
4.77108e-05
4.77602e-05
4.78095e-05
4.78586e-05
4.79073e-05
4.79554e-05
4.80028e-05
4.80494e-05
4.80951e-05
4.81397e-05
4.81833e-05
4.82257e-05
4.82668e-05
4.83066e-05
4.8345e-05
4.83819e-05
4.84173e-05
4.84511e-05
4.84833e-05
4.85137e-05
4.85425e-05
4.85695e-05
4.85947e-05
4.86181e-05
4.86398e-05
4.86597e-05
4.86777e-05
4.86938e-05
4.87082e-05
4.87212e-05
4.87332e-05
4.87447e-05
4.87562e-05
4.87666e-05
4.8769e-05
4.87702e-05
4.87691e-05
4.87656e-05
4.87595e-05
4.87499e-05
4.87364e-05
2.45746e-05
3.6182e-05
4.62004e-05
3.42138e-05
2.61958e-05
2.43662e-05
3.48701e-05
4.93103e-05
5.14456e-05
5.27703e-05
5.33528e-05
5.58585e-05
5.66646e-05
5.70764e-05
5.72476e-05
5.71895e-05
5.69591e-05
5.67445e-05
5.66242e-05
5.65852e-05
5.66381e-05
5.67319e-05
5.68054e-05
5.68528e-05
5.68681e-05
5.68706e-05
5.68846e-05
5.6914e-05
5.69547e-05
5.69978e-05
5.7039e-05
5.70795e-05
5.71218e-05
5.71672e-05
5.7215e-05
5.72642e-05
5.73144e-05
5.73655e-05
5.74175e-05
5.74703e-05
5.75237e-05
5.75773e-05
5.7631e-05
5.76846e-05
5.77381e-05
5.77912e-05
5.78437e-05
5.78955e-05
5.79464e-05
5.79965e-05
5.80453e-05
5.80929e-05
5.81392e-05
5.81841e-05
5.82275e-05
5.82693e-05
5.83093e-05
5.83476e-05
5.83841e-05
5.84185e-05
5.84511e-05
5.84816e-05
5.85101e-05
5.85365e-05
5.85607e-05
5.85828e-05
5.86028e-05
5.86206e-05
5.86361e-05
5.86495e-05
5.86608e-05
5.86704e-05
5.86788e-05
5.86863e-05
5.8694e-05
5.87012e-05
5.8698e-05
5.86933e-05
5.86859e-05
5.86756e-05
5.86622e-05
5.8645e-05
5.86229e-05
3.11824e-05
4.63214e-05
5.75247e-05
4.3165e-05
3.21521e-05
2.98002e-05
4.58403e-05
5.89609e-05
5.92909e-05
6.17294e-05
6.30009e-05
6.65383e-05
6.75873e-05
6.80542e-05
6.81762e-05
6.80225e-05
6.77025e-05
6.74457e-05
6.73309e-05
6.73303e-05
6.74368e-05
6.75717e-05
6.76626e-05
6.77109e-05
6.77177e-05
6.77137e-05
6.77288e-05
6.77638e-05
6.78109e-05
6.78577e-05
6.79003e-05
6.79415e-05
6.7985e-05
6.80322e-05
6.80819e-05
6.81326e-05
6.81841e-05
6.82364e-05
6.82897e-05
6.83438e-05
6.83982e-05
6.84528e-05
6.85075e-05
6.85619e-05
6.86159e-05
6.86696e-05
6.87224e-05
6.87743e-05
6.88252e-05
6.88749e-05
6.89231e-05
6.897e-05
6.90152e-05
6.90587e-05
6.91005e-05
6.91403e-05
6.91781e-05
6.92138e-05
6.92473e-05
6.92785e-05
6.93075e-05
6.9334e-05
6.93582e-05
6.93798e-05
6.93989e-05
6.94154e-05
6.94296e-05
6.94411e-05
6.945e-05
6.94564e-05
6.94604e-05
6.94625e-05
6.94628e-05
6.94617e-05
6.94611e-05
6.94611e-05
6.94481e-05
6.94331e-05
6.94148e-05
6.93932e-05
6.93682e-05
6.93392e-05
6.93044e-05
3.93826e-05
5.80371e-05
7.02908e-05
5.37427e-05
3.98132e-05
3.70636e-05
5.97283e-05
6.84899e-05
6.75452e-05
7.19174e-05
7.42944e-05
7.85611e-05
7.95849e-05
7.99573e-05
7.99547e-05
7.96942e-05
7.93185e-05
7.90642e-05
7.89871e-05
7.90402e-05
7.91954e-05
7.93533e-05
7.94453e-05
7.94853e-05
7.94816e-05
7.94736e-05
7.94912e-05
7.95311e-05
7.95815e-05
7.96285e-05
7.96696e-05
7.97091e-05
7.97516e-05
7.97979e-05
7.98464e-05
7.98955e-05
7.99452e-05
7.99955e-05
8.00467e-05
8.00985e-05
8.01505e-05
8.02025e-05
8.02543e-05
8.03057e-05
8.03566e-05
8.04067e-05
8.04558e-05
8.05039e-05
8.05505e-05
8.05958e-05
8.06393e-05
8.06811e-05
8.0721e-05
8.07589e-05
8.07946e-05
8.08281e-05
8.08592e-05
8.08878e-05
8.09139e-05
8.09373e-05
8.09581e-05
8.0976e-05
8.09912e-05
8.10034e-05
8.10127e-05
8.10191e-05
8.10226e-05
8.10231e-05
8.10206e-05
8.10152e-05
8.10071e-05
8.09966e-05
8.09837e-05
8.09688e-05
8.09546e-05
8.09427e-05
8.09149e-05
8.08845e-05
8.08503e-05
8.08124e-05
8.07708e-05
8.07252e-05
8.06729e-05
4.92845e-05
7.14054e-05
8.45089e-05
6.60749e-05
4.92774e-05
4.63381e-05
7.35634e-05
7.7954e-05
7.67488e-05
8.36393e-05
8.74899e-05
9.1826e-05
9.25525e-05
9.2705e-05
9.25322e-05
9.21754e-05
9.17874e-05
9.15797e-05
9.15664e-05
9.16787e-05
9.18683e-05
9.20269e-05
9.21036e-05
9.21278e-05
9.21136e-05
9.21046e-05
9.21261e-05
9.21692e-05
9.22194e-05
9.22632e-05
9.23002e-05
9.2336e-05
9.23753e-05
9.24182e-05
9.24628e-05
9.25075e-05
9.25524e-05
9.25977e-05
9.26438e-05
9.26901e-05
9.27364e-05
9.27823e-05
9.28278e-05
9.28727e-05
9.29167e-05
9.29596e-05
9.30012e-05
9.30414e-05
9.30799e-05
9.31166e-05
9.31513e-05
9.31839e-05
9.32141e-05
9.32421e-05
9.32674e-05
9.32901e-05
9.331e-05
9.3327e-05
9.3341e-05
9.33519e-05
9.33598e-05
9.33644e-05
9.33658e-05
9.33637e-05
9.33582e-05
9.33494e-05
9.33372e-05
9.33216e-05
9.33025e-05
9.32802e-05
9.32547e-05
9.32263e-05
9.31947e-05
9.31601e-05
9.31266e-05
9.30973e-05
9.30493e-05
9.29979e-05
9.29422e-05
9.28823e-05
9.28187e-05
9.27511e-05
9.26759e-05
6.10473e-05
8.64916e-05
0.000100164
8.03234e-05
6.07667e-05
5.80873e-05
8.65848e-05
8.757e-05
8.73807e-05
9.70961e-05
0.000102376
0.000106174
0.000106432
0.000106291
0.000105936
0.000105509
0.000105152
0.000105026
0.000105091
0.000105258
0.000105463
0.000105601
0.000105649
0.000105653
0.000105629
0.000105622
0.000105648
0.000105692
0.000105739
0.000105776
0.000105807
0.000105837
0.000105871
0.000105908
0.000105946
0.000105984
0.000106021
0.000106059
0.000106097
0.000106135
0.000106172
0.000106209
0.000106244
0.000106279
0.000106313
0.000106345
0.000106375
0.000106403
0.00010643
0.000106454
0.000106475
0.000106494
0.000106511
0.000106524
0.000106535
0.000106542
0.000106546
0.000106546
0.000106543
0.000106537
0.000106527
0.000106513
0.000106495
0.000106474
0.000106448
0.000106419
0.000106385
0.000106348
0.000106307
0.000106262
0.000106213
0.000106161
0.000106104
0.000106043
0.000105984
0.000105931
0.000105857
0.000105778
0.000105694
0.000105606
0.000105514
0.000105419
0.000105315
7.49097e-05
0.000103353
0.000117209
9.66998e-05
7.45357e-05
7.30488e-05
9.86713e-05
9.7681e-05
9.99296e-05
0.000112281
0.00011857
0.000121494
0.00012122
0.00012076
0.000120237
0.000119777
0.000119487
0.000119465
0.000119612
0.00011982
0.000120019
0.000120119
0.00012013
0.000120111
0.00012008
0.000120077
0.000120106
0.000120149
0.000120188
0.000120216
0.000120239
0.000120261
0.000120288
0.000120317
0.000120346
0.000120373
0.000120401
0.000120428
0.000120454
0.00012048
0.000120506
0.000120529
0.000120552
0.000120573
0.000120592
0.000120609
0.000120624
0.000120637
0.000120646
0.000120654
0.000120658
0.000120658
0.000120656
0.00012065
0.000120641
0.000120628
0.00012061
0.000120589
0.000120564
0.000120535
0.000120501
0.000120463
0.000120421
0.000120374
0.000120322
0.000120266
0.000120205
0.00012014
0.00012007
0.000119996
0.000119918
0.000119835
0.000119746
0.000119652
0.000119559
0.000119475
0.000119367
0.000119254
0.000119136
0.000119012
0.000118885
0.000118755
0.000118615
9.12148e-05
0.000122033
0.000135559
0.000115479
9.10173e-05
9.19417e-05
0.00011004
0.000108659
0.000114654
0.000129014
0.000135788
0.000137736
0.000136947
0.00013618
0.000135522
0.000135064
0.00013487
0.00013496
0.00013518
0.000135411
0.000135585
0.000135634
0.000135602
0.00013556
0.000135525
0.000135526
0.000135557
0.000135595
0.000135624
0.00013564
0.000135652
0.000135665
0.000135682
0.0001357
0.000135717
0.000135732
0.000135746
0.000135759
0.000135771
0.000135782
0.000135791
0.000135799
0.000135804
0.000135808
0.000135808
0.000135806
0.000135801
0.000135794
0.000135782
0.000135767
0.000135749
0.000135727
0.0001357
0.00013567
0.000135635
0.000135596
0.000135552
0.000135504
0.00013545
0.000135392
0.000135329
0.00013526
0.000135187
0.000135108
0.000135024
0.000134934
0.00013484
0.00013474
0.000134634
0.000134524
0.000134408
0.000134287
0.000134158
0.000134022
0.000133887
0.000133763
0.000133615
0.000133459
0.000133298
0.000133131
0.000132961
0.000132788
0.000132606
0.000110418
0.000142552
0.00015508
0.000137011
0.000110934
0.00011022
0.000121117
0.000120803
0.000131425
0.000147057
0.000153887
0.000154905
0.000153656
0.000152619
0.000151867
0.000151445
0.000151361
0.000151559
0.000151836
0.00015207
0.000152202
0.000152192
0.000152115
0.000152052
0.000152013
0.000152019
0.000152049
0.000152078
0.000152093
0.000152095
0.000152094
0.000152095
0.0001521
0.000152104
0.000152106
0.000152105
0.000152103
0.000152099
0.000152093
0.000152086
0.000152075
0.000152062
0.000152047
0.000152028
0.000152006
0.00015198
0.00015195
0.000151917
0.000151879
0.000151838
0.000151791
0.00015174
0.000151684
0.000151624
0.000151558
0.000151486
0.000151409
0.000151327
0.000151239
0.000151145
0.000151046
0.00015094
0.000150828
0.00015071
0.000150586
0.000150456
0.00015032
0.000150178
0.000150029
0.000149875
0.000149714
0.000149546
0.000149368
0.00014918
0.000148993
0.000148819
0.000148621
0.000148415
0.000148202
0.000147983
0.000147761
0.000147538
0.000147305
0.000132988
0.000164783
0.000175565
0.00016175
0.000135042
0.000127161
0.0001323
0.000134256
0.000149887
0.000166209
0.000172812
0.000173024
0.000171391
0.000170135
0.000169332
0.000168969
0.000168997
0.000169289
0.000169602
0.000169819
0.000169896
0.000169822
0.000169701
0.000169619
0.000169578
0.000169586
0.000169612
0.000169629
0.000169627
0.000169612
0.000169596
0.000169584
0.000169573
0.000169561
0.000169544
0.000169525
0.000169503
0.000169478
0.000169451
0.00016942
0.000169386
0.000169349
0.000169307
0.000169262
0.000169212
0.000169157
0.000169098
0.000169034
0.000168965
0.00016889
0.00016881
0.000168725
0.000168633
0.000168536
0.000168432
0.000168322
0.000168206
0.000168082
0.000167953
0.000167816
0.000167673
0.000167523
0.000167365
0.000167201
0.000167029
0.00016685
0.000166664
0.000166471
0.000166271
0.000166064
0.000165849
0.000165625
0.000165388
0.000165138
0.000164887
0.000164651
0.000164395
0.000164128
0.000163853
0.000163573
0.00016329
0.000163008
0.000162717
0.000159145
0.000188534
0.000196646
0.000190084
0.000158175
0.000142477
0.000143974
0.000149429
0.000169668
0.000186325
0.00019255
0.000192109
0.000190185
0.000188767
0.000187949
0.000187657
0.000187787
0.000188149
0.000188475
0.000188658
0.000188672
0.000188535
0.000188374
0.000188275
0.000188231
0.000188239
0.000188258
0.000188258
0.000188237
0.000188203
0.000188169
0.00018814
0.000188112
0.00018808
0.000188042
0.000188
0.000187955
0.000187906
0.000187853
0.000187796
0.000187734
0.000187667
0.000187595
0.000187518
0.000187435
0.000187347
0.000187253
0.000187152
0.000187046
0.000186932
0.000186813
0.000186686
0.000186552
0.000186411
0.000186263
0.000186107
0.000185944
0.000185773
0.000185594
0.000185407
0.000185212
0.000185009
0.000184798
0.000184578
0.00018435
0.000184114
0.00018387
0.000183617
0.000183356
0.000183086
0.000182808
0.000182517
0.000182211
0.000181889
0.000181561
0.000181247
0.000180923
0.000180584
0.000180238
0.000179886
0.000179533
0.000179182
0.000178823
0.000184582
0.000213596
0.000217908
0.000222604
0.00017941
0.000156642
0.000156544
0.000166528
0.000190467
0.000207301
0.000213105
0.000212168
0.000210043
0.000208523
0.000207715
0.000207494
0.000207706
0.000208114
0.000208431
0.000208567
0.000208515
0.000208319
0.000208124
0.000208009
0.000207961
0.000207965
0.000207972
0.000207953
0.000207909
0.000207854
0.000207801
0.000207753
0.000207703
0.000207648
0.000207586
0.000207518
0.000207446
0.000207369
0.000207286
0.000207198
0.000207104
0.000207003
0.000206896
0.000206783
0.000206662
0.000206534
0.000206399
0.000206256
0.000206106
0.000205948
0.000205782
0.000205607
0.000205425
0.000205233
0.000205033
0.000204824
0.000204606
0.00020438
0.000204143
0.000203898
0.000203644
0.000203379
0.000203105
0.000202822
0.000202529
0.000202226
0.000201914
0.000201592
0.00020126
0.000200918
0.000200565
0.000200197
0.00019981
0.000199402
0.000198984
0.000198575
0.000198171
0.000197751
0.000197322
0.000196888
0.000196453
0.000196022
0.000195587
0.000207828
0.000238722
0.000238855
0.000252925
0.000198151
0.000170121
0.000170343
0.000185553
0.00021218
0.000229059
0.000234469
0.000233188
0.000230927
0.000229374
0.000228591
0.000228433
0.000228702
0.000229128
0.000229419
0.0002295
0.000229385
0.000229136
0.000228912
0.000228781
0.000228728
0.000228724
0.000228714
0.000228673
0.000228605
0.000228527
0.000228452
0.000228382
0.000228308
0.000228227
0.000228137
0.00022804
0.000227937
0.000227828
0.000227712
0.000227589
0.000227458
0.000227318
0.000227171
0.000227016
0.000226852
0.000226679
0.000226497
0.000226306
0.000226106
0.000225897
0.000225677
0.000225448
0.000225209
0.00022496
0.000224701
0.000224431
0.00022415
0.00022386
0.000223558
0.000223246
0.000222922
0.000222588
0.000222242
0.000221885
0.000221517
0.000221139
0.000220748
0.000220347
0.000219934
0.000219509
0.00021907
0.000218613
0.000218133
0.000217627
0.000217104
0.000216578
0.000216085
0.00021557
0.000215048
0.000214519
0.000213991
0.000213469
0.000212947
0.000228263
0.000259587
0.000259097
0.000280288
0.000214235
0.000183425
0.000185699
0.00020634
0.000234784
0.00025152
0.000256596
0.000255125
0.000252783
0.000251253
0.000250498
0.000250387
0.000250688
0.000251109
0.000251359
0.000251384
0.00025121
0.000250918
0.000250668
0.000250523
0.000250461
0.000250446
0.000250416
0.000250351
0.000250256
0.000250154
0.000250055
0.00024996
0.000249859
0.000249748
0.000249627
0.000249498
0.000249362
0.000249217
0.000249063
0.0002489
0.000248727
0.000248545
0.000248353
0.00024815
0.000247937
0.000247714
0.000247479
0.000247234
0.000246978
0.00024671
0.000246431
0.00024614
0.000245837
0.000245523
0.000245196
0.000244857
0.000244506
0.000244143
0.000243767
0.000243378
0.000242977
0.000242563
0.000242136
0.000241696
0.000241244
0.000240778
0.0002403
0.000239808
0.000239302
0.000238783
0.000238246
0.000237687
0.000237101
0.000236484
0.000235842
0.000245218
0.00027602
0.000278318
0.000304442
0.000227867
0.000197068
0.000202769
0.00022856
0.000258189
0.000274599
0.0002794
0.000277878
0.000275522
0.000274041
0.000273318
0.000273234
0.000273543
0.000273942
0.000274144
0.000274114
0.00027389
0.000273562
0.000273292
0.000273133
0.000273059
0.000273028
0.000272976
0.000272884
0.000272762
0.000272633
0.000272509
0.000272386
0.000272255
0.000272113
0.000271958
0.000271793
0.000271619
0.000271435
0.000271239
0.000271032
0.000270814
0.000270584
0.000270341
0.000270087
0.000269819
0.000269539
0.000269246
0.00026894
0.000268621
0.000268288
0.000267942
0.000267582
0.000267209
0.000266821
0.000266419
0.000266003
0.000265573
0.000265128
0.000264669
0.000264195
0.000263707
0.000263204
0.000262685
0.000262152
0.000261604
0.000261042
0.000260464
0.00025987
0.000259261
0.000258634
0.000257987
0.000257313
0.000256607
0.000255865
0.000255093
0.000257303
0.000288189
0.000296788
0.000324362
0.000240261
0.000211416
0.000221448
0.000252059
0.000282249
0.000298189
0.000302771
0.000301301
0.000299003
0.000297578
0.000296887
0.000296816
0.000297113
0.000297475
0.000297627
0.000297548
0.000297283
0.000296928
0.000296641
0.000296468
0.00029638
0.000296329
0.000296252
0.000296132
0.000295983
0.000295827
0.000295674
0.000295521
0.000295359
0.000295181
0.000294989
0.000294786
0.000294571
0.000294344
0.000294103
0.000293849
0.00029358
0.000293297
0.000293
0.000292688
0.000292361
0.000292019
0.000291661
0.000291289
0.0002909
0.000290496
0.000290076
0.00028964
0.000289187
0.000288718
0.000288233
0.000287732
0.000287214
0.000286679
0.000286127
0.000285559
0.000284974
0.000284371
0.000283751
0.000283114
0.00028246
0.000281789
0.0002811
0.000280393
0.000279667
0.000278921
0.000278149
0.000277347
0.000276508
0.000275629
0.000274717
0.000262462
0.000296363
0.000315165
0.000339601
0.000252154
0.000226803
0.000241994
0.000276637
0.00030677
0.000322133
0.000326529
0.000325186
0.000323021
0.000321654
0.000320999
0.000320928
0.0003212
0.000321518
0.00032162
0.000321499
0.000321204
0.000320829
0.000320531
0.000320343
0.000320238
0.000320165
0.000320062
0.000319914
0.000319737
0.000319552
0.00031937
0.000319185
0.000318988
0.000318773
0.000318542
0.000318297
0.000318039
0.000317765
0.000317476
0.000317169
0.000316847
0.000316507
0.00031615
0.000315776
0.000315384
0.000314975
0.000314547
0.000314101
0.000313637
0.000313155
0.000312654
0.000312134
0.000311596
0.000311038
0.000310462
0.000309866
0.000309252
0.000308618
0.000307965
0.000307292
0.0003066
0.000305888
0.000305156
0.000304404
0.000303633
0.000302842
0.00030203
0.000301197
0.000300342
0.000299462
0.000298553
0.000297608
0.000296622
0.000295594
0.000294533
0.000261576
0.000300951
0.000334154
0.000351012
0.000263941
0.00024354
0.000264465
0.000302001
0.000331517
0.000346216
0.000350439
0.000349281
0.000347302
0.000346016
0.000345401
0.000345322
0.00034556
0.000345829
0.000345886
0.000345731
0.000345415
0.000345031
0.000344723
0.000344521
0.000344397
0.0003443
0.00034417
0.000343995
0.00034379
0.000343576
0.000343363
0.000343144
0.000342911
0.000342657
0.000342385
0.000342097
0.000341792
0.000341469
0.000341127
0.000340766
0.000340385
0.000339985
0.000339564
0.000339123
0.000338662
0.000338179
0.000337676
0.000337152
0.000336606
0.000336039
0.000335451
0.00033484
0.000334208
0.000333555
0.000332879
0.000332181
0.000331461
0.00033072
0.000329955
0.000329169
0.00032836
0.000327528
0.000326674
0.000325796
0.000324897
0.000323973
0.000323026
0.000322055
0.000321057
0.00032003
0.000318969
0.000317867
0.000316721
0.000315532
0.000314315
0.000256323
0.000302377
0.000349167
0.000359458
0.000276126
0.000261881
0.000288611
0.000327783
0.000356217
0.00037016
0.000374212
0.000373278
0.000371523
0.000370352
0.000369782
0.000369693
0.000369893
0.000370113
0.000370129
0.00036995
0.000369622
0.000369236
0.000368923
0.000368708
0.000368565
0.000368443
0.000368287
0.000368084
0.000367851
0.000367608
0.000367363
0.00036711
0.000366839
0.000366546
0.000366231
0.000365897
0.000365543
0.000365168
0.000364772
0.000364353
0.000363911
0.000363446
0.000362958
0.000362446
0.00036191
0.00036135
0.000360766
0.000360158
0.000359525
0.000358867
0.000358185
0.000357477
0.000356745
0.000355987
0.000355205
0.000354397
0.000353563
0.000352705
0.00035182
0.000350911
0.000349975
0.000349013
0.000348025
0.000347011
0.000345971
0.000344904
0.000343809
0.000342685
0.000341531
0.000340343
0.000339115
0.000337843
0.000336524
0.000335163
0.000333781
0.000249637
0.000301249
0.000360239
0.000365923
0.000289141
0.000281833
0.000313832
0.000353582
0.000380539
0.00039363
0.000397503
0.000396819
0.00039532
0.000394288
0.000393772
0.000393674
0.000393834
0.000394007
0.000393989
0.000393793
0.000393464
0.000393083
0.00039277
0.000392543
0.000392381
0.000392235
0.000392053
0.000391825
0.000391565
0.000391293
0.000391017
0.000390729
0.000390419
0.000390085
0.000389726
0.000389344
0.00038894
0.000388512
0.000388058
0.000387579
0.000387073
0.000386541
0.000385981
0.000385395
0.000384781
0.00038414
0.00038347
0.000382773
0.000382047
0.000381294
0.000380511
0.0003797
0.000378861
0.000377993
0.000377095
0.000376169
0.000375214
0.00037423
0.000373217
0.000372174
0.000371102
0.000369999
0.000368867
0.000367705
0.000366513
0.00036529
0.000364034
0.000362745
0.00036142
0.000360056
0.000358649
0.000357193
0.000355688
0.000354145
0.000352587
0.000243159
0.000299046
0.000369508
0.000371587
0.000303125
0.000303041
0.000339658
0.000378947
0.000404095
0.000416228
0.000419901
0.000419474
0.000418253
0.000417379
0.000416927
0.000416824
0.000416946
0.000417075
0.000417029
0.000416825
0.000416503
0.000416136
0.000415827
0.000415591
0.000415411
0.000415243
0.000415036
0.000414784
0.0004145
0.0004142
0.000413892
0.000413569
0.000413221
0.000412845
0.000412442
0.000412012
0.000411557
0.000411074
0.000410561
0.000410019
0.000409447
0.000408845
0.000408212
0.000407548
0.000406853
0.000406126
0.000405367
0.000404577
0.000403754
0.000402899
0.000402011
0.000401091
0.000400138
0.000399153
0.000398134
0.000397083
0.000395998
0.00039488
0.000393729
0.000392544
0.000391326
0.000390073
0.000388786
0.000387465
0.000386109
0.000384716
0.000383287
0.000381818
0.000380309
0.000378756
0.000377154
0.000375501
0.000373799
0.000372062
0.000370314
0.000238577
0.000296987
0.000377376
0.000377507
0.000318145
0.000325545
0.000365557
0.000403375
0.000426435
0.000437486
0.000440922
0.000440734
0.0004398
0.0004391
0.000438722
0.00043862
0.000438707
0.000438795
0.000438729
0.000438525
0.000438219
0.000437873
0.000437573
0.000437333
0.000437137
0.000436947
0.000436719
0.000436445
0.000436138
0.000435813
0.000435475
0.000435117
0.000434731
0.000434314
0.000433866
0.000433389
0.000432882
0.000432343
0.00043177
0.000431165
0.000430525
0.000429851
0.000429143
0.000428399
0.000427619
0.000426804
0.000425953
0.000425065
0.000424141
0.000423181
0.000422183
0.000421149
0.000420077
0.000418968
0.000417822
0.000416638
0.000415416
0.000414157
0.00041286
0.000411524
0.00041015
0.000408736
0.000407284
0.000405792
0.00040426
0.000402686
0.000401069
0.000399408
0.0003977
0.000395943
0.000394133
0.00039227
0.000390359
0.000388414
0.000386458
0.000237564
0.000295582
0.000385263
0.000384381
0.000334608
0.000349074
0.000390881
0.000426323
0.000447034
0.000456869
0.000460013
0.000460005
0.000459354
0.000458833
0.000458538
0.000458444
0.000458501
0.000458554
0.000458475
0.000458279
0.000457998
0.00045768
0.000457393
0.000457153
0.000456945
0.000456736
0.000456489
0.000456197
0.00045587
0.000455521
0.000455154
0.000454763
0.000454341
0.000453884
0.000453392
0.000452868
0.000452308
0.000451714
0.000451082
0.000450412
0.000449704
0.000448957
0.000448172
0.000447346
0.000446481
0.000445575
0.000444628
0.000443641
0.000442613
0.000441543
0.000440431
0.000439277
0.000438082
0.000436844
0.000435564
0.000434241
0.000432876
0.000431468
0.000430016
0.000428521
0.000426981
0.000425398
0.000423769
0.000422095
0.000420375
0.000418606
0.000416789
0.000414922
0.000413001
0.000411026
0.000408994
0.000406908
0.000404773
0.000402601
0.000400417
0.000241525
0.000296112
0.000395559
0.000392189
0.000352212
0.000373016
0.000414894
0.00044719
0.000465284
0.000473752
0.000476566
0.000476604
0.000476209
0.000475864
0.000475656
0.000475577
0.000475609
0.000475633
0.000475549
0.000475369
0.000475121
0.00047484
0.000474569
0.000474333
0.000474116
0.000473892
0.000473629
0.000473323
0.000472979
0.00047261
0.000472216
0.000471794
0.000471337
0.000470841
0.000470307
0.000469736
0.000469126