/*--------------------------------*- C++ -*----------------------------------*\
| =========                 |                                                 |
| \\      /  F ield         | OpenFOAM: The Open Source CFD Toolbox           |
|  \\    /   O peration     | Version:  2412                                  |
|   \\  /    A nd           | Website:  www.openfoam.com                      |
|    \\/     M anipulation  |                                                 |
\*---------------------------------------------------------------------------*/
FoamFile
{
    version     2.0;
    format      ascii;
    arch        "LSB;label=32;scalar=64";
    class       surfaceScalarField;
    location    "140";
    object      phi;
}
// * * * * * * * * * * * * * * * * * * * * * * * * * * * * * * * * * * * * * //

dimensions      [0 3 -1 0 0 0 0];

oriented        oriented;

internalField   nonuniform List<scalar> 
14654
(
2.57939e-06
2.78786e-07
-2.85818e-06
2.0878e-06
4.91589e-07
1.01206e-06
1.07574e-06
1.34755e-06
-3.35488e-07
1.53278e-06
-1.85229e-07
-4.90417e-07
2.0232e-06
-3.64516e-06
3.15474e-06
-5.23274e-06
1.58758e-06
-4.76518e-06
-4.67564e-07
-4.0091e-06
-7.56083e-07
-3.61639e-06
-3.92708e-07
-3.41211e-06
-2.04282e-07
-3.34035e-06
-7.17627e-08
-3.38286e-06
4.25092e-08
-3.4759e-06
9.30321e-08
-3.53577e-06
5.98697e-08
-3.5518e-06
1.60365e-08
-3.53163e-06
-2.01788e-08
-3.48356e-06
-4.80682e-08
-3.44077e-06
-4.27906e-08
-3.42026e-06
-2.0512e-08
-3.41976e-06
-5.08204e-10
-3.43185e-06
1.20992e-08
-3.4436e-06
1.17418e-08
-3.44968e-06
6.08508e-09
-3.45169e-06
2.00115e-09
-3.45387e-06
2.19292e-09
-3.45916e-06
5.27596e-09
-3.46687e-06
7.72409e-09
-3.47565e-06
8.76793e-09
-3.48416e-06
8.50103e-09
-3.49278e-06
8.62498e-09
-3.50162e-06
8.83533e-09
-3.51106e-06
9.42608e-09
-3.52091e-06
9.8974e-09
-3.53088e-06
9.9078e-09
-3.54113e-06
1.03102e-08
-3.55141e-06
1.01996e-08
-3.56182e-06
1.04031e-08
-3.57209e-06
1.02705e-08
-3.58257e-06
1.04665e-08
-3.59295e-06
1.03714e-08
-3.60339e-06
1.04311e-08
-3.61367e-06
1.03763e-08
-3.62391e-06
1.01109e-08
-3.634e-06
1.01959e-08
-3.64412e-06
9.97259e-09
-3.654e-06
1.00027e-08
-3.66354e-06
9.38334e-09
-3.67291e-06
9.35008e-09
-3.68229e-06
9.35549e-09
-3.69125e-06
8.93384e-09
-3.70021e-06
8.92465e-09
-3.70874e-06
8.5012e-09
-3.71706e-06
8.28651e-09
-3.72529e-06
8.20157e-09
-3.7332e-06
8.06238e-09
-3.74088e-06
7.45578e-09
-3.74814e-06
7.38254e-09
-3.75504e-06
6.6821e-09
-3.76185e-06
6.96395e-09
-3.76838e-06
6.28926e-09
-3.77442e-06
5.99797e-09
-3.7802e-06
5.73335e-09
-3.78582e-06
5.55631e-09
-3.79106e-06
5.18289e-09
-3.79607e-06
4.9556e-09
-3.80057e-06
4.44224e-09
-3.80485e-06
4.22234e-09
-3.80903e-06
4.11954e-09
-3.81301e-06
3.90848e-09
-3.81684e-06
3.76108e-09
-3.82068e-06
3.74639e-09
-3.82348e-06
2.75752e-09
-3.82601e-06
2.455e-09
-3.82824e-06
2.19252e-09
-3.83011e-06
1.78916e-09
-3.83157e-06
1.40917e-09
-3.8325e-06
8.50515e-10
-3.8327e-06
1.52147e-10
-5.76224e-11
-2.51538e-06
1.22231e-06
-2.23659e-06
8.16166e-06
8.70105e-07
-1.18899e-05
7.16131e-06
1.49194e-06
3.69308e-06
4.54396e-06
4.53123e-06
-1.17363e-06
4.70075e-06
-3.54743e-07
-2.53743e-06
9.26137e-06
-1.29884e-05
1.36057e-05
-1.78923e-05
6.49152e-06
-1.64224e-05
-1.93742e-06
-1.40116e-05
-3.16696e-06
-1.27482e-05
-1.65613e-06
-1.20961e-05
-8.563e-07
-1.18775e-05
-2.90397e-07
-1.20223e-05
1.87295e-07
-1.23209e-05
3.91628e-07
-1.25117e-05
2.50714e-07
-1.25577e-05
6.19824e-08
-1.24857e-05
-9.216e-08
-1.23282e-05
-2.05553e-07
-1.21894e-05
-1.81569e-07
-1.21246e-05
-8.53624e-08
-1.21249e-05
-1.7812e-10
-1.21657e-05
5.2837e-08
-1.22049e-05
5.09517e-08
-1.22255e-05
2.67095e-08
-1.22336e-05
1.00869e-08
-1.22424e-05
1.10088e-08
-1.22614e-05
2.42871e-08
-1.22892e-05
3.55658e-08
-1.23193e-05
3.87831e-08
-1.23499e-05
3.9115e-08
-1.23797e-05
3.84571e-08
-1.24112e-05
4.02447e-08
-1.2445e-05
4.32055e-08
-1.24792e-05
4.41786e-08
-1.25147e-05
4.53332e-08
-1.25503e-05
4.59878e-08
-1.25869e-05
4.66548e-08
-1.2623e-05
4.65174e-08
-1.266e-05
4.73001e-08
-1.26968e-05
4.72586e-08
-1.27332e-05
4.66959e-08
-1.27701e-05
4.72995e-08
-1.28063e-05
4.67681e-08
-1.28421e-05
4.57023e-08
-1.28781e-05
4.63718e-08
-1.29132e-05
4.48524e-08
-1.2948e-05
4.49219e-08
-1.29823e-05
4.35303e-08
-1.30157e-05
4.27211e-08
-1.30483e-05
4.18704e-08
-1.30805e-05
4.11259e-08
-1.31113e-05
3.96264e-08
-1.31422e-05
3.93192e-08
-1.31714e-05
3.75007e-08
-1.32001e-05
3.68089e-08
-1.32275e-05
3.57448e-08
-1.32547e-05
3.42976e-08
-1.32805e-05
3.33217e-08
-1.33051e-05
3.09633e-08
-1.33287e-05
3.07614e-08
-1.33512e-05
2.83955e-08
-1.33733e-05
2.81209e-08
-1.33939e-05
2.62362e-08
-1.34135e-05
2.50101e-08
-1.34317e-05
2.33121e-08
-1.34489e-05
2.20657e-08
-1.34654e-05
2.08598e-08
-1.34806e-05
1.92899e-08
-1.34945e-05
1.79308e-08
-1.35086e-05
1.78608e-08
-1.35225e-05
1.75413e-08
-1.35351e-05
1.61733e-08
-1.35459e-05
1.34969e-08
-1.35541e-05
1.05344e-08
-1.3562e-05
9.98623e-09
-1.35683e-05
8.01368e-09
-1.35733e-05
6.34365e-09
-1.35765e-05
3.84722e-09
-1.35777e-05
1.33765e-09
-9.15466e-10
-8.04433e-06
4.67607e-06
-9.41081e-06
1.48123e-05
1.58104e-06
-2.82833e-05
1.37983e-05
2.50597e-06
7.53015e-06
1.08121e-05
8.64009e-06
-2.28357e-06
8.11698e-06
1.68371e-07
-6.43897e-06
2.38173e-05
-2.60954e-05
3.32621e-05
-3.47383e-05
1.51344e-05
-3.20229e-05
-4.65275e-06
-2.76873e-05
-7.50261e-06
-2.53951e-05
-3.94829e-06
-2.42208e-05
-2.03058e-06
-2.38459e-05
-6.65339e-07
-2.41279e-05
4.69271e-07
-2.46706e-05
9.34291e-07
-2.50135e-05
5.93673e-07
-2.50865e-05
1.34996e-07
-2.49431e-05
-2.35553e-07
-2.46504e-05
-4.98256e-07
-2.43958e-05
-4.36231e-07
-2.428e-05
-2.01186e-07
-2.42852e-05
5.02536e-09
-2.4363e-05
1.3065e-07
-2.44378e-05
1.25759e-07
-2.44772e-05
6.61614e-08
-2.44949e-05
2.77312e-08
-2.45156e-05
3.16894e-08
-2.4555e-05
6.37442e-08
-2.46089e-05
8.9456e-08
-2.46699e-05
9.97671e-08
-2.473e-05
9.92195e-08
-2.47902e-05
9.86254e-08
-2.48532e-05
1.03255e-07
-2.49198e-05
1.09829e-07
-2.49892e-05
1.13632e-07
-2.50594e-05
1.15367e-07
-2.51307e-05
1.17417e-07
-2.52027e-05
1.18537e-07
-2.52753e-05
1.19125e-07
-2.53485e-05
1.20412e-07
-2.54217e-05
1.20491e-07
-2.54952e-05
1.20212e-07
-2.55683e-05
1.20297e-07
-2.5641e-05
1.19685e-07
-2.57133e-05
1.178e-07
-2.57841e-05
1.17267e-07
-2.58543e-05
1.14863e-07
-2.59239e-05
1.14713e-07
-2.59917e-05
1.11065e-07
-2.60583e-05
1.09304e-07
-2.61234e-05
1.06952e-07
-2.61871e-05
1.04793e-07
-2.62497e-05
1.02099e-07
-2.63097e-05
9.92771e-08
-2.63691e-05
9.68706e-08
-2.64257e-05
9.33123e-08
-2.64814e-05
9.17527e-08
-2.65342e-05
8.67117e-08
-2.6586e-05
8.52444e-08
-2.66354e-05
8.00076e-08
-2.66822e-05
7.778e-08
-2.67279e-05
7.37975e-08
-2.67703e-05
7.0431e-08
-2.68113e-05
6.71514e-08
-2.68498e-05
6.33952e-08
-2.68862e-05
5.95984e-08
-2.69217e-05
5.74798e-08
-2.69537e-05
5.27472e-08
-2.69831e-05
4.85476e-08
-2.70114e-05
4.62069e-08
-2.70395e-05
4.58316e-08
-2.70669e-05
4.47911e-08
-2.70925e-05
4.16001e-08
-2.71128e-05
3.36765e-08
-2.71295e-05
2.7162e-08
-2.71446e-05
2.50224e-08
-2.71564e-05
1.96127e-08
-2.71657e-05
1.56089e-08
-2.71721e-05
1.01053e-08
-2.71738e-05
2.92529e-09
-2.4483e-09
-1.47067e-05
1.03256e-05
-2.25365e-05
2.25454e-05
2.38649e-06
-5.32152e-05
2.21352e-05
2.91616e-06
1.28341e-05
2.01132e-05
1.37933e-05
-3.24277e-06
1.13915e-05
2.57013e-06
-1.31735e-05
4.83823e-05
-4.40682e-05
6.41568e-05
-5.67166e-05
2.77828e-05
-5.24687e-05
-8.90065e-06
-4.60332e-05
-1.39381e-05
-4.2594e-05
-7.38748e-06
-4.0846e-05
-3.77859e-06
-4.03227e-05
-1.18865e-06
-4.07776e-05
9.24155e-07
-4.15981e-05
1.75479e-06
-4.21042e-05
1.0998e-06
-4.21951e-05
2.25868e-07
-4.1957e-05
-4.73623e-07
-4.15019e-05
-9.53362e-07
-4.11162e-05
-8.21907e-07
-4.09462e-05
-3.71206e-07
-4.09637e-05
2.25057e-08
-4.1089e-05
2.55943e-07
-4.12068e-05
2.43606e-07
-4.12715e-05
1.30795e-07
-4.13038e-05
6.00151e-08
-4.13411e-05
6.90099e-08
-4.14086e-05
1.31248e-07
-4.15023e-05
1.83203e-07
-4.16031e-05
2.00523e-07
-4.17028e-05
1.98883e-07
-4.18044e-05
2.00228e-07
-4.19108e-05
2.09646e-07
-4.20224e-05
2.21479e-07
-4.21377e-05
2.28979e-07
-4.22546e-05
2.32144e-07
-4.23742e-05
2.37093e-07
-4.24943e-05
2.38501e-07
-4.26174e-05
2.42256e-07
-4.27396e-05
2.42619e-07
-4.28624e-05
2.43256e-07
-4.29848e-05
2.42564e-07
-4.31063e-05
2.41819e-07
-4.32278e-05
2.41292e-07
-4.33483e-05
2.38075e-07
-4.34678e-05
2.36957e-07
-4.35857e-05
2.3249e-07
-4.3701e-05
2.30184e-07
-4.38142e-05
2.24057e-07
-4.39258e-05
2.20906e-07
-4.4035e-05
2.16028e-07
-4.41421e-05
2.11851e-07
-4.42467e-05
2.0662e-07
-4.43483e-05
2.00835e-07
-4.44465e-05
1.94972e-07
-4.45423e-05
1.89063e-07
-4.46337e-05
1.83377e-07
-4.47234e-05
1.76063e-07
-4.48084e-05
1.70437e-07
-4.48911e-05
1.62405e-07
-4.49701e-05
1.56961e-07
-4.50456e-05
1.48862e-07
-4.51168e-05
1.41602e-07
-4.51848e-05
1.34988e-07
-4.5251e-05
1.29483e-07
-4.53118e-05
1.20277e-07
-4.53682e-05
1.13819e-07
-4.54208e-05
1.05255e-07
-4.54712e-05
9.87899e-08
-4.55184e-05
9.32806e-08
-4.5564e-05
9.12969e-08
-4.56089e-05
8.95365e-08
-4.56523e-05
8.48074e-08
-4.56855e-05
6.67699e-08
-4.57127e-05
5.42076e-08
-4.57365e-05
4.87269e-08
-4.5757e-05
3.99846e-08
-4.5772e-05
3.0493e-08
-4.57802e-05
1.813e-08
-4.57826e-05
5.26976e-09
-6.5773e-09
-2.2504e-05
1.79706e-05
-4.2654e-05
3.10816e-05
3.20212e-06
-8.74989e-05
3.22101e-05
1.78774e-06
1.99155e-05
3.24078e-05
2.00783e-05
-3.40556e-06
1.38378e-05
8.81065e-06
-2.40962e-05
8.63162e-05
-6.81481e-05
0.000108209
-8.47992e-05
4.44339e-05
-7.87911e-05
-1.49088e-05
-7.02325e-05
-2.24966e-05
-6.55957e-05
-1.20243e-05
-6.32701e-05
-6.10417e-06
-6.26245e-05
-1.83431e-06
-6.32862e-05
1.58586e-06
-6.44019e-05
2.8705e-06
-6.50668e-05
1.76472e-06
-6.51564e-05
3.15422e-07
-6.47962e-05
-8.33759e-07
-6.41593e-05
-1.59031e-06
-6.36347e-05
-1.34655e-06
-6.34137e-05
-5.9216e-07
-6.34519e-05
6.06742e-08
-6.36353e-05
4.39351e-07
-6.3805e-05
4.13343e-07
-6.39021e-05
2.27911e-07
-6.39553e-05
1.13202e-07
-6.40197e-05
1.33398e-07
-6.41265e-05
2.38042e-07
-6.4267e-05
3.2371e-07
-6.44217e-05
3.55224e-07
-6.45765e-05
3.53606e-07
-6.4732e-05
3.55772e-07
-6.48937e-05
3.71336e-07
-6.50647e-05
3.92452e-07
-6.52419e-05
4.0619e-07
-6.54218e-05
4.12006e-07
-6.56032e-05
4.18513e-07
-6.57881e-05
4.23364e-07
-6.59738e-05
4.27951e-07
-6.61618e-05
4.30585e-07
-6.6349e-05
4.30427e-07
-6.65368e-05
4.30349e-07
-6.6723e-05
4.27952e-07
-6.69094e-05
4.27879e-07
-6.70933e-05
4.218e-07
-6.72759e-05
4.19609e-07
-6.74545e-05
4.10912e-07
-6.76325e-05
4.08328e-07
-6.78063e-05
3.9761e-07
-6.79771e-05
3.91765e-07
-6.81436e-05
3.82446e-07
-6.83073e-05
3.75438e-07
-6.84659e-05
3.65205e-07
-6.86207e-05
3.55592e-07
-6.87697e-05
3.43863e-07
-6.89161e-05
3.35414e-07
-6.90572e-05
3.2466e-07
-6.91935e-05
3.12044e-07
-6.93243e-05
3.0143e-07
-6.94494e-05
2.87138e-07
-6.95694e-05
2.77162e-07
-6.96836e-05
2.62676e-07
-6.97938e-05
2.51716e-07
-6.98975e-05
2.38585e-07
-6.99933e-05
2.25128e-07
-7.00871e-05
2.14043e-07
-7.01739e-05
2.00457e-07
-7.02548e-05
1.86068e-07
-7.03302e-05
1.74083e-07
-7.04019e-05
1.64836e-07
-7.04709e-05
1.60108e-07
-7.05394e-05
1.5789e-07
-7.06025e-05
1.47792e-07
-7.06545e-05
1.18658e-07
-7.06946e-05
9.41751e-08
-7.07301e-05
8.40937e-08
-7.07584e-05
6.81019e-08
-7.07811e-05
5.31283e-08
-7.0793e-05
2.98595e-08
-7.07931e-05
5.30385e-09
-1.47394e-08
-3.11596e-05
2.69411e-05
-7.06115e-05
3.99892e-05
3.92201e-06
-0.00013141
4.39081e-05
-2.13118e-06
2.89972e-05
4.73187e-05
2.74876e-05
-1.89597e-06
1.43707e-05
2.19276e-05
-4.09392e-05
0.000141626
-9.9629e-05
0.000166898
-0.000119929
6.4734e-05
-0.000112071
-2.27673e-05
-0.000101566
-3.30009e-05
-9.57937e-05
-1.77968e-05
-9.29414e-05
-8.95647e-06
-9.22255e-05
-2.55028e-06
-9.31132e-05
2.47358e-06
-9.4513e-05
4.27031e-06
-9.53081e-05
2.55981e-06
-9.53689e-05
3.7622e-07
-9.48658e-05
-1.33684e-06
-9.40405e-05
-2.41566e-06
-9.33783e-05
-2.00868e-06
-9.3118e-05
-8.52539e-07
-9.31891e-05
1.31752e-07
-9.34408e-05
6.91125e-07
-9.3669e-05
6.41545e-07
-9.38039e-05
3.62743e-07
-9.38888e-05
1.98151e-07
-9.399e-05
2.34545e-07
-9.41489e-05
3.96997e-07
-9.43547e-05
5.29516e-07
-9.45748e-05
5.75288e-07
-9.47946e-05
5.7341e-07
-9.502e-05
5.81191e-07
-9.52543e-05
6.05635e-07
-9.55004e-05
6.38492e-07
-9.5754e-05
6.59858e-07
-9.60128e-05
6.70743e-07
-9.62754e-05
6.81121e-07
-9.65423e-05
6.90216e-07
-9.6808e-05
6.93587e-07
-9.70778e-05
7.00336e-07
-9.73467e-05
6.99315e-07
-9.76169e-05
7.006e-07
-9.7885e-05
6.96013e-07
-9.81509e-05
6.93884e-07
-9.84157e-05
6.86424e-07
-9.86774e-05
6.81458e-07
-9.89359e-05
6.69162e-07
-9.91887e-05
6.61257e-07
-9.94383e-05
6.4695e-07
-9.96837e-05
6.37145e-07
-9.99248e-05
6.23492e-07
-0.000100158
6.08825e-07
-0.000100385
5.91441e-07
-0.000100607
5.7835e-07
-0.000100824
5.59994e-07
-0.000101032
5.43734e-07
-0.000101235
5.2813e-07
-0.000101428
5.03951e-07
-0.000101614
4.88554e-07
-0.000101794
4.66134e-07
-0.000101967
4.50597e-07
-0.000102132
4.2714e-07
-0.000102287
4.07088e-07
-0.000102434
3.8508e-07
-0.000102576
3.66975e-07
-0.000102706
3.44288e-07
-0.000102829
3.23221e-07
-0.000102944
3.00717e-07
-0.00010305
2.80195e-07
-0.000103152
2.66571e-07
-0.00010325
2.58207e-07
-0.000103348
2.55812e-07
-0.000103438
2.36633e-07
-0.000103509
1.90216e-07
-0.000103565
1.49836e-07
-0.000103614
1.32673e-07
-0.000103654
1.08403e-07
-0.000103682
8.0801e-08
-0.000103698
4.55678e-08
-0.000103695
2.40882e-09
-2.64438e-08
-4.02144e-05
3.60271e-05
-0.000106904
4.90259e-05
4.51573e-06
-0.000184952
5.68553e-05
-9.96062e-06
4.00906e-05
6.40835e-05
3.58122e-05
2.38236e-06
1.13775e-05
4.63623e-05
-6.58008e-05
0.000218804
-0.000139651
0.000240749
-0.000162873
8.79562e-05
-0.000153251
-3.23901e-05
-0.000141174
-4.5077e-05
-0.000134443
-2.45279e-05
-0.000131185
-1.22153e-05
-0.000130464
-3.27077e-06
-0.000131579
3.58846e-06
-0.000133213
5.90466e-06
-0.000134095
3.4415e-06
-0.000134094
3.75192e-07
-0.000133435
-1.99585e-06
-0.000132423
-3.42746e-06
-0.000131651
-2.78051e-06
-0.00013137
-1.13397e-06
-0.000131487
2.49339e-07
-0.000131814
1.01773e-06
-0.000132106
9.33398e-07
-0.000132287
5.43953e-07
-0.000132409
3.20338e-07
-0.000132562
3.87264e-07
-0.000132787
6.22291e-07
-0.000133066
8.07766e-07
-0.000133367
8.76774e-07
-0.00013367
8.76148e-07
-0.000133977
8.88188e-07
-0.000134298
9.26731e-07
-0.000134634
9.74962e-07
-0.000134982
1.00706e-06
-0.000135334
1.02344e-06
-0.000135692
1.03908e-06
-0.000136052
1.04964e-06
-0.000136418
1.05956e-06
-0.000136783
1.06556e-06
-0.000137152
1.06786e-06
-0.000137516
1.06473e-06
-0.000137882
1.06231e-06
-0.000138245
1.05667e-06
-0.000138605
1.04636e-06
-0.000138961
1.03806e-06
-0.000139312
1.01998e-06
-0.00013966
1.00901e-06
-0.00014
9.8634e-07
-0.000140332
9.6919e-07
-0.000140657
9.48348e-07
-0.000140974
9.26428e-07
-0.000141286
9.02759e-07
-0.000141587
8.79863e-07
-0.000141881
8.53679e-07
-0.000142164
8.26911e-07
-0.000142436
8.00565e-07
-0.000142701
7.68267e-07
-0.000142957
7.44797e-07
-0.000143197
7.06017e-07
-0.00014343
6.83738e-07
-0.000143653
6.49178e-07
-0.000143864
6.17893e-07
-0.000144065
5.86449e-07
-0.000144253
5.54333e-07
-0.000144431
5.23091e-07
-0.000144597
4.88615e-07
-0.000144753
4.56224e-07
-0.000144895
4.2262e-07
-0.000145032
4.03211e-07
-0.000145163
3.89228e-07
-0.000145293
3.85355e-07
-0.000145415
3.58402e-07
-0.000145511
2.85963e-07
-0.000145584
2.23314e-07
-0.000145649
1.96955e-07
-0.000145698
1.57305e-07
-0.000145734
1.17206e-07
-0.000145751
6.19008e-08
-0.000145747
-1.28104e-09
-4.87246e-08
-4.9381e-05
4.3909e-05
-0.000151769
5.7907e-05
4.93789e-06
-0.000247797
7.05145e-05
-2.25682e-05
5.29022e-05
8.16958e-05
4.44663e-05
1.08183e-05
2.69774e-06
8.81309e-05
-0.000100862
0.000322364
-0.000188981
0.000328867
-0.000214019
0.000112995
-0.00020282
-4.35889e-05
-0.000189621
-5.82765e-05
-0.000182198
-3.1951e-05
-0.00017869
-1.57229e-05
-0.000178031
-3.92937e-06
-0.000179354
4.91072e-06
-0.000181168
7.71853e-06
-0.000182081
4.35466e-06
-0.000181986
2.801e-07
-0.000181167
-2.81485e-06
-0.000180002
-4.59161e-06
-0.000179143
-3.63989e-06
-0.000178862
-1.41467e-06
-0.000179042
4.28793e-07
-0.000179445
1.42038e-06
-0.000179802
1.2911e-06
-0.000180033
7.74836e-07
-0.000180207
4.94553e-07
-0.000180418
5.97482e-07
-0.000180717
9.21879e-07
-0.000181084
1.17448e-06
-0.000181472
1.26532e-06
-0.000181866
1.26964e-06
-0.000182264
1.28614e-06
-0.000182684
1.34664e-06
-0.000183119
1.41017e-06
-0.000183569
1.45713e-06
-0.000184026
1.48013e-06
-0.000184487
1.50007e-06
-0.000184955
1.5179e-06
-0.00018543
1.53483e-06
-0.000185904
1.53911e-06
-0.000186378
1.54192e-06
-0.000186852
1.53924e-06
-0.000187324
1.53428e-06
-0.000187796
1.52808e-06
-0.000188261
1.51172e-06
-0.000188719
1.49545e-06
-0.000189174
1.47518e-06
-0.000189622
1.45675e-06
-0.000190061
1.42556e-06
-0.00019049
1.39811e-06
-0.000190909
1.36743e-06
-0.000191321
1.33792e-06
-0.000191723
1.30523e-06
-0.000192111
1.26771e-06
-0.000192488
1.23067e-06
-0.000192855
1.19415e-06
-0.00019321
1.15488e-06
-0.000193549
1.10761e-06
-0.000193873
1.06831e-06
-0.000194189
1.0218e-06
-0.00019449
9.84671e-07
-0.000194775
9.34394e-07
-0.000195046
8.88934e-07
-0.000195304
8.4437e-07
-0.000195547
7.96735e-07
-0.000195774
7.50057e-07
-0.000195988
7.02101e-07
-0.000196186
6.54982e-07
-0.000196373
6.08635e-07
-0.000196545
5.75052e-07
-0.000196716
5.60647e-07
-0.000196881
5.50502e-07
-0.000197037
5.13994e-07
-0.000197158
4.0716e-07
-0.000197254
3.18801e-07
-0.000197333
2.75683e-07
-0.000197401
2.24963e-07
-0.000197444
1.59929e-07
-0.000197463
8.07215e-08
-0.000197452
-1.16397e-08
-7.75207e-08
-5.82474e-05
4.92468e-05
-0.000205079
6.64847e-05
5.1451e-06
-0.000319426
8.4271e-05
-4.03545e-05
6.70522e-05
9.89146e-05
5.19387e-05
2.59318e-05
-1.44204e-05
0.00015449
-0.000147724
0.000455668
-0.000247798
0.000428942
-0.000273209
0.000138405
-0.000260584
-5.62139e-05
-0.000246595
-7.22647e-05
-0.000238722
-3.98247e-05
-0.000235103
-1.93416e-05
-0.000234577
-4.45555e-06
-0.0002361
6.43422e-06
-0.00023804
9.65873e-06
-0.000238945
5.25976e-06
-0.00023874
7.47816e-08
-0.000237761
-3.79419e-06
-0.000236461
-5.89161e-06
-0.000235543
-4.5573e-06
-0.000235287
-1.67103e-06
-0.000235532
6.74107e-07
-0.000236017
1.90539e-06
-0.000236439
1.71323e-06
-0.000236725
1.06021e-06
-0.000236948
7.17708e-07
-0.00023723
8.7916e-07
-0.00023761
1.30257e-06
-0.000238066
1.63059e-06
-0.000238546
1.74442e-06
-0.000239034
1.75828e-06
-0.000239532
1.7835e-06
-0.000240052
1.86724e-06
-0.000240592
1.94996e-06
-0.000241147
2.01212e-06
-0.000241713
2.04576e-06
-0.000242286
2.07371e-06
-0.000242866
2.0972e-06
-0.000243445
2.11466e-06
-0.000244034
2.12771e-06
-0.000244623
2.13091e-06
-0.000245208
2.12385e-06
-0.000245793
2.11926e-06
-0.000246373
2.10881e-06
-0.000246947
2.08548e-06
-0.000247518
2.06639e-06
-0.000248077
2.03411e-06
-0.000248628
2.00811e-06
-0.000249169
1.96601e-06
-0.000249701
1.93044e-06
-0.000250221
1.88697e-06
-0.000250728
1.84466e-06
-0.000251222
1.79945e-06
-0.000251703
1.74847e-06
-0.000252168
1.69587e-06
-0.000252621
1.64659e-06
-0.000253057
1.5914e-06
-0.000253477
1.52722e-06
-0.000253883
1.47458e-06
-0.000254268
1.40692e-06
-0.000254638
1.35478e-06
-0.000254994
1.28956e-06
-0.000255329
1.22389e-06
-0.000255645
1.16029e-06
-0.000255945
1.09714e-06
-0.000256231
1.03524e-06
-0.000256497
9.68584e-07
-0.000256741
8.9831e-07
-0.000256969
8.36489e-07
-0.000257185
7.9149e-07
-0.000257397
7.72639e-07
-0.000257604
7.56983e-07
-0.000257799
7.09357e-07
-0.00025795
5.58186e-07
-0.000258065
4.33023e-07
-0.000258171
3.81869e-07
-0.000258247
3.01163e-07
-0.000258305
2.17787e-07
-0.000258333
1.08013e-07
-0.000258322
-2.25178e-08
-1.12424e-07
-6.67807e-05
5.11703e-05
-0.000266714
7.45567e-05
5.17113e-06
-0.000399154
9.76598e-05
-6.34576e-05
8.17115e-05
0.000114863
5.57044e-05
5.19389e-05
-4.30711e-05
0.000253265
-0.000207181
0.000619778
-0.000315649
0.000537409
-0.000339871
0.000162627
-0.000325838
-7.02473e-05
-0.000311197
-8.69053e-05
-0.000303034
-4.79879e-05
-0.000299417
-2.29585e-05
-0.000299076
-4.79691e-06
-0.000300816
8.17473e-06
-0.000302866
1.17083e-05
-0.000303728
6.12217e-06
-0.000303393
-2.60181e-07
-0.000302255
-4.933e-06
-0.000300825
-7.32151e-06
-0.00029987
-5.51173e-06
-0.00029965
-1.89088e-06
-0.000299972
9.96067e-07
-0.000300541
2.47387e-06
-0.000301031
2.20373e-06
-0.00030137
1.39856e-06
-0.000301654
1.00234e-06
-0.000302003
1.22803e-06
-0.000302471
1.7706e-06
-0.00030302
2.17887e-06
-0.000303602
2.32658e-06
-0.000304182
2.33804e-06
-0.000304783
2.38525e-06
-0.000305406
2.48988e-06
-0.000306055
2.59899e-06
-0.000306723
2.67974e-06
-0.000307402
2.72518e-06
-0.000308086
2.75813e-06
-0.000308781
2.79217e-06
-0.000309481
2.8146e-06
-0.000310186
2.83199e-06
-0.000310886
2.83121e-06
-0.000311589
2.82707e-06
-0.000312288
2.81822e-06
-0.000312981
2.802e-06
-0.000313671
2.77461e-06
-0.000314351
2.74658e-06
-0.000315025
2.70825e-06
-0.000315683
2.66669e-06
-0.000316335
2.61783e-06
-0.00031697
2.56448e-06
-0.000317594
2.51175e-06
-0.000318203
2.45303e-06
-0.000318796
2.39218e-06
-0.000319374
2.32655e-06
-0.000319937
2.25873e-06
-0.000320476
2.18615e-06
-0.000321
2.11536e-06
-0.000321508
2.03538e-06
-0.000321992
1.95798e-06
-0.000322462
1.87711e-06
-0.000322908
1.80025e-06
-0.000323335
1.71712e-06
-0.000323744
1.63203e-06
-0.000324128
1.54446e-06
-0.000324492
1.46168e-06
-0.000324834
1.37688e-06
-0.000325154
1.2879e-06
-0.000325457
1.20149e-06
-0.000325737
1.11608e-06
-0.000326006
1.06066e-06
-0.000326264
1.03069e-06
-0.000326519
1.01187e-06
-0.000326754
9.44433e-07
-0.000326943
7.46998e-07
-0.000327093
5.8269e-07
-0.000327222
5.11019e-07
-0.000327327
4.05304e-07
-0.000327402
2.93051e-07
-0.000327441
1.47105e-07
-0.000327443
-2.0718e-08
-1.47323e-07
-7.48091e-05
4.93632e-05
-0.000336352
8.227e-05
5.04016e-06
-0.000486464
0.000110309
-9.14964e-05
9.55083e-05
0.000129663
5.25498e-05
9.48975e-05
-8.62984e-05
0.000392114
-0.000279121
0.000812601
-0.000391578
0.000649866
-0.000413521
0.000184571
-0.000398112
-8.56564e-05
-0.000382885
-0.000102132
-0.000374562
-5.63117e-05
-0.000371036
-2.64836e-05
-0.000370936
-4.89753e-06
-0.000372895
1.01337e-05
-0.000375022
1.38353e-05
-0.000375814
6.91479e-06
-0.000375327
-7.4753e-07
-0.000374019
-6.24127e-06
-0.000372476
-8.86433e-06
-0.000371496
-6.49211e-06
-0.000371327
-2.05943e-06
-0.000371738
1.40684e-06
-0.000372395
3.13132e-06
-0.000372958
2.76654e-06
-0.000373359
1.79953e-06
-0.000373708
1.35078e-06
-0.000374136
1.65618e-06
-0.000374698
2.33304e-06
-0.00037535
2.83091e-06
-0.000376034
3.01065e-06
-0.000376727
3.03097e-06
-0.000377435
3.09288e-06
-0.000378172
3.22685e-06
-0.000378944
3.37162e-06
-0.00037973
3.46539e-06
-0.000380527
3.52161e-06
-0.000381341
3.57247e-06
-0.000382157
3.6086e-06
-0.000382984
3.64122e-06
-0.000383813
3.6608e-06
-0.000384642
3.66037e-06
-0.000385472
3.65674e-06
-0.000386295
3.64136e-06
-0.000387117
3.62408e-06
-0.000387929
3.58622e-06
-0.000388733
3.55129e-06
-0.000389527
3.50236e-06
-0.000390307
3.44641e-06
-0.000391076
3.3872e-06
-0.000391832
3.32001e-06
-0.000392567
3.24661e-06
-0.000393291
3.17666e-06
-0.000393991
3.09302e-06
-0.000394679
3.01417e-06
-0.000395342
2.92195e-06
-0.000395988
2.83218e-06
-0.000396615
2.74195e-06
-0.000397217
2.63688e-06
-0.000397796
2.53746e-06
-0.000398356
2.43681e-06
-0.000398891
2.33503e-06
-0.000399401
2.2278e-06
-0.000399891
2.12159e-06
-0.000400355
2.0081e-06
-0.000400793
1.89961e-06
-0.00040121
1.79441e-06
-0.000401602
1.6791e-06
-0.000401966
1.56598e-06
-0.00040231
1.45952e-06
-0.000402633
1.38378e-06
-0.000402953
1.35119e-06
-0.000403271
1.32892e-06
-0.000403563
1.23721e-06
-0.000403802
9.85727e-07
-0.00040399
7.70585e-07
-0.00040416
6.80355e-07
-0.0004043
5.46135e-07
-0.000404409
4.01181e-07
-0.000404471
2.08964e-07
-0.000404488
-3.37082e-09
-1.66211e-07
-8.20771e-05
4.38055e-05
-0.000413389
9.00555e-05
4.77875e-06
-0.000581299
0.000122309
-0.000123749
0.000106995
0.000144977
3.90612e-05
0.000162831
-0.000146446
0.000577621
-0.000362928
0.00102908
-0.000475011
0.000761948
-0.000494362
0.000203922
-0.000477833
-0.000102185
-0.000462151
-0.000117814
-0.000453768
-6.46946e-05
-0.000450393
-2.98588e-05
-0.000450542
-4.74845e-06
-0.000452689
1.22808e-05
-0.000454861
1.60074e-05
-0.000455556
7.61007e-06
-0.000454909
-1.39501e-06
-0.000453442
-7.70767e-06
-0.000451798
-1.05084e-05
-0.000450811
-7.47953e-06
-0.00045071
-2.16057e-06
-0.000451223
1.91976e-06
-0.000451982
3.89113e-06
-0.000452624
3.40789e-06
-0.000453092
2.26821e-06
-0.000453518
1.77605e-06
-0.000454038
2.17617e-06
-0.000454707
3.00187e-06
-0.000455478
3.60199e-06
-0.000456282
3.81456e-06
-0.000457095
3.84481e-06
-0.000457929
3.92683e-06
-0.0004588
4.09729e-06
-0.0004597
4.27153e-06
-0.000460626
4.39195e-06
-0.000461567
4.46251e-06
-0.000462515
4.52023e-06
-0.000463479
4.57228e-06
-0.000464447
4.60935e-06
-0.000465418
4.63185e-06
-0.000466396
4.63837e-06
-0.000467366
4.6266e-06
-0.000468338
4.61376e-06
-0.000469298
4.58438e-06
-0.000470255
4.54312e-06
-0.000471199
4.49545e-06
-0.000472132
4.43474e-06
-0.000473059
4.37352e-06
-0.000473959
4.2869e-06
-0.000474844
4.2048e-06
-0.000475717
4.1197e-06
-0.00047657
4.02942e-06
-0.000477401
3.92408e-06
-0.00047821
3.82366e-06
-0.000478999
3.71103e-06
-0.000479764
3.59683e-06
-0.000480503
3.48113e-06
-0.000481221
3.35496e-06
-0.000481912
3.22786e-06
-0.000482573
3.09838e-06
-0.000483219
2.98096e-06
-0.000483833
2.84142e-06
-0.000484417
2.70505e-06
-0.000484974
2.56537e-06
-0.000485506
2.43193e-06
-0.000486007
2.29514e-06
-0.000486483
2.15473e-06
-0.000486927
2.01043e-06
-0.000487347
1.87899e-06
-0.000487751
1.78734e-06
-0.000488147
1.74762e-06
-0.000488536
1.71745e-06
-0.000488898
1.59926e-06
-0.000489195
1.28292e-06
-0.00048944
1.01537e-06
-0.000489661
9.01319e-07
-0.000489851
7.3578e-07
-0.000489999
5.48999e-07
-0.000490104
3.14056e-07
-0.000490144
3.65862e-08
-1.57338e-07
-8.85085e-05
3.46268e-05
-0.000497119
9.83297e-05
4.33494e-06
-0.000683963
0.000133612
-0.000159031
0.00011416
0.000164429
1.2025e-05
0.000264966
-0.000224205
0.00081385
-0.000458254
0.00126313
-0.000566489
0.000870183
-0.000583572
0.000221005
-0.000566364
-0.000119394
-0.000550399
-0.000133779
-0.000542007
-7.3086e-05
-0.000538785
-3.30809e-05
-0.000539147
-4.3864e-06
-0.000541451
1.45847e-05
-0.000543631
1.8187e-05
-0.000544211
8.19068e-06
-0.000543402
-2.20407e-06
-0.000541794
-9.31607e-06
-0.000540065
-1.22374e-05
-0.000539096
-8.44837e-06
-0.000539084
-2.17324e-06
-0.000539708
2.54454e-06
-0.000540578
4.76068e-06
-0.000541308
4.1377e-06
-0.00054186
2.82092e-06
-0.000542379
2.29429e-06
-0.000543013
2.8101e-06
-0.000543808
3.79721e-06
-0.000544713
4.50743e-06
-0.000545659
4.75984e-06
-0.000546612
4.79845e-06
-0.000547592
4.90625e-06
-0.000548611
5.11698e-06
-0.000549669
5.32902e-06
-0.000550753
5.47643e-06
-0.000551855
5.56396e-06
-0.000552967
5.63223e-06
-0.000554096
5.70147e-06
-0.000555231
5.74457e-06
-0.000556372
5.77276e-06
-0.000557508
5.77417e-06
-0.000558652
5.77023e-06
-0.000559785
5.74727e-06
-0.00056092
5.71875e-06
-0.00056204
5.6636e-06
-0.000563155
5.61038e-06
-0.00056425
5.53003e-06
-0.000565325
5.44862e-06
-0.000566392
5.35398e-06
-0.000567443
5.25528e-06
-0.000568468
5.14455e-06
-0.000569468
5.02939e-06
-0.000570449
4.90494e-06
-0.000571406
4.7806e-06
-0.000572337
4.64211e-06
-0.000573244
4.50421e-06
-0.000574121
4.35807e-06
-0.000574972
4.20607e-06
-0.000575794
4.0494e-06
-0.000576587
3.89166e-06
-0.000577348
3.74131e-06
-0.000578079
3.57307e-06
-0.000578782
3.40776e-06
-0.000579452
3.23579e-06
-0.00058009
3.06964e-06
-0.000580698
2.90254e-06
-0.000581271
2.72821e-06
-0.000581812
2.55171e-06
-0.000582328
2.39495e-06
-0.000582818
2.27702e-06
-0.000583302
2.23158e-06
-0.000583785
2.20013e-06
-0.000584237
2.05144e-06
-0.000584611
1.65656e-06
-0.000584925
1.32939e-06
-0.00058521
1.18598e-06
-0.000585457
9.82698e-07
-0.000585661
7.53035e-07
-0.000585804
4.57716e-07
-0.000585886
1.18282e-07
-1.18838e-07
-9.44829e-05
2.23714e-05
-0.000587267
0.000107346
3.60023e-06
-0.00079491
0.000144153
-0.000195838
0.000113998
0.000194583
-3.18246e-05
0.000410789
-0.000319363
0.00110139
-0.000565094
0.00150886
-0.000667385
0.000972475
-0.000683081
0.000236701
-0.000665685
-0.00013679
-0.000649544
-0.00014992
-0.000641122
-8.15081e-05
-0.000638022
-3.61804e-05
-0.000638544
-3.86418e-06
-0.000640945
1.69849e-05
-0.000643118
2.03602e-05
-0.000643587
8.66006e-06
-0.000642638
-3.15374e-06
-0.000640907
-1.10468e-05
-0.000639125
-1.40197e-05
-0.000638191
-9.38144e-06
-0.000638273
-2.09135e-06
-0.00063902
3.29129e-06
-0.000640008
5.74892e-06
-0.000640849
4.97881e-06
-0.000641506
3.47701e-06
-0.000642135
2.92353e-06
-0.0006429
3.57566e-06
-0.00064385
4.74694e-06
-0.00064491
5.56698e-06
-0.000646008
5.85822e-06
-0.000647135
5.92518e-06
-0.000648282
6.05366e-06
-0.000649481
6.31596e-06
-0.000650716
6.56371e-06
-0.000651985
6.74512e-06
-0.000653272
6.8517e-06
-0.000654575
6.93543e-06
-0.000655888
7.014e-06
-0.000657221
7.07756e-06
-0.000658554
7.10569e-06
-0.000659892
7.11269e-06
-0.000661225
7.10317e-06
-0.000662559
7.08041e-06
-0.00066388
7.04049e-06
-0.000665195
6.97831e-06
-0.000666493
6.90823e-06
-0.000667782
6.81948e-06
-0.000669054
6.72011e-06
-0.0006703
6.60038e-06
-0.000671527
6.48223e-06
-0.000672733
6.34983e-06
-0.000673915
6.21141e-06
-0.000675072
6.06212e-06
-0.000676197
5.90543e-06
-0.000677298
5.74296e-06
-0.000678366
5.57293e-06
-0.000679408
5.39935e-06
-0.000680409
5.20726e-06
-0.000681381
5.02178e-06
-0.000682323
4.83277e-06
-0.000683229
4.64742e-06
-0.000684103
4.44701e-06
-0.000684938
4.24335e-06
-0.000685738
4.03565e-06
-0.000686502
3.8335e-06
-0.000687232
3.6324e-06
-0.000687927
3.42263e-06
-0.000688583
3.20801e-06
-0.000689202
3.01419e-06
-0.000689811
2.88562e-06
-0.000690401
2.82149e-06
-0.000690986
2.78507e-06
-0.000691542
2.60767e-06
-0.000692006
2.12011e-06
-0.000692398
1.72151e-06
-0.000692762
1.54984e-06
-0.000693081
1.30151e-06
-0.00069335
1.02158e-06
-0.000693552
6.59536e-07
-0.000693676
2.42368e-07
-3.8418e-08
-0.000100442
7.95687e-06
-0.000684109
0.000117271
2.46198e-06
-0.000914643
0.000153726
-0.000232293
0.000104498
0.000243812
-9.45537e-05
0.000609841
-0.000432009
0.00143884
-0.00068398
0.00176083
-0.000779761
0.00106826
-0.000795205
0.000252144
-0.000778056
-0.000153938
-0.000761771
-0.000166205
-0.00075326
-9.00197e-05
-0.000750206
-3.92336e-05
-0.000750821