/*--------------------------------*- C++ -*----------------------------------*\
| =========                 |                                                 |
| \\      /  F ield         | OpenFOAM: The Open Source CFD Toolbox           |
|  \\    /   O peration     | Version:  2412                                  |
|   \\  /    A nd           | Website:  www.openfoam.com                      |
|    \\/     M anipulation  |                                                 |
\*---------------------------------------------------------------------------*/
FoamFile
{
    version     2.0;
    format      ascii;
    arch        "LSB;label=32;scalar=64";
    class       volVectorField;
    location    "140";
    object      U;
}
// * * * * * * * * * * * * * * * * * * * * * * * * * * * * * * * * * * * * * //

dimensions      [0 1 -1 0 0 0 0];

internalField   nonuniform List<vector> 
7418
(
(-0.0764947 -0.320112 0)
(-0.245296 -0.499704 -3.22491e-20)
(-0.143783 -0.169214 -6.13934e-20)
(-0.124371 -0.0944454 -6.06416e-20)
(-0.304761 -0.15366 5.53898e-20)
(-0.196534 -0.059426 4.43381e-20)
(0.416744 0.0524061 1.57966e-20)
(0.917215 0.0106954 -1.7964e-24)
(0.953354 -0.0451978 0)
(0.772082 -0.040153 1.92981e-20)
(0.679239 -0.0290541 -1.17225e-24)
(0.630064 -0.022318 9.14486e-21)
(0.605994 -0.0184393 8.56623e-21)
(0.605041 -0.0171001 -7.9129e-21)
(0.621755 -0.0183396 7.29831e-21)
(0.637569 -0.0210186 0)
(0.64336 -0.0230939 3.39795e-27)
(0.643015 -0.0243106 2.42022e-20)
(0.635603 -0.0244542 0)
(0.625945 -0.0236592 2.14245e-20)
(0.620293 -0.0228747 0)
(0.618641 -0.022492 0)
(0.620255 -0.0225403 -3.41198e-20)
(0.622914 -0.0229268 4.02269e-27)
(0.624461 -0.0232795 4.44707e-25)
(0.625035 -0.0235012 -1.35678e-20)
(0.625213 -0.0235983 0)
(0.625867 -0.0236893 -3.52919e-25)
(0.627116 -0.0238461 2.15266e-20)
(0.628676 -0.0240629 1.99216e-20)
(0.630248 -0.024302 2.79655e-25)
(0.631769 -0.0245366 -1.70908e-20)
(0.633331 -0.0247732 0)
(0.634987 -0.0250246 -2.22419e-25)
(0.636737 -0.0252952 -5.44865e-20)
(0.63853 -0.0255838 -5.05778e-20)
(0.640348 -0.0258848 0)
(0.642192 -0.0262004 0)
(0.644053 -0.0265296 0)
(0.64592 -0.0268753 0)
(0.647792 -0.0272351 3.52495e-20)
(0.649669 -0.027611 -1.24329e-25)
(0.65154 -0.0280023 -3.06901e-20)
(0.653402 -0.0284093 0)
(0.655247 -0.028832 -5.36447e-20)
(0.657071 -0.0292711 0)
(0.658881 -0.0297257 0)
(0.660668 -0.0301973 0)
(0.662411 -0.0306841 -4.14921e-20)
(0.664109 -0.0311859 7.24987e-26)
(0.665788 -0.0317038 7.34782e-20)
(0.667426 -0.0322383 6.92673e-20)
(0.669025 -0.0327877 -6.538e-20)
(0.670584 -0.0333543 -1.01074e-27)
(0.672087 -0.0339352 -1.11573e-25)
(0.673556 -0.0345327 1.05736e-25)
(0.674981 -0.0351462 -1.00346e-25)
(0.676357 -0.035775 4.80507e-26)
(0.677675 -0.0364184 -9.51552e-20)
(0.678928 -0.0370757 -1.81416e-19)
(0.680136 -0.0377482 -5.21594e-27)
(0.681306 -0.0384372 -1.65639e-19)
(0.682407 -0.0391408 7.93322e-20)
(0.683442 -0.0398578 -1.52241e-19)
(0.684432 -0.0405896 -3.26773e-27)
(0.685369 -0.0413362 7.04426e-20)
(0.686251 -0.0420984 1.35885e-19)
(0.687067 -0.0428755 0)
(0.687816 -0.0436665 0)
(0.688526 -0.0444741 -1.23259e-19)
(0.689204 -0.0452996 1.19759e-19)
(0.689862 -0.0461439 -1.16583e-19)
(0.690515 -0.0470086 -1.0152e-28)
(0.691082 -0.0478889 -5.54819e-26)
(0.69147 -0.0487786 -5.42274e-26)
(0.691844 -0.0496909 5.08564e-26)
(0.692146 -0.0506227 0)
(0.69238 -0.0515742 0)
(0.692533 -0.0525457 4.86827e-26)
(0.692567 -0.0535368 -4.78558e-26)
(0.692495 -0.054549 -1.99274e-19)
(-0.0470687 0.449958 1.62026e-20)
(0.0507579 0.41398 0)
(-0.22659 -0.892192 0)
(-0.717322 -1.44912 5.28035e-20)
(-0.458537 -0.549173 -5.0118e-23)
(-0.390192 -0.29638 9.96196e-20)
(-0.879453 -0.444764 -9.11274e-20)
(-0.473976 -0.154925 1.94594e-23)
(1.39168 0.162684 -2.58849e-20)
(2.80476 0.0273911 2.9454e-24)
(2.8795 -0.135128 0)
(2.37235 -0.120276 -1.58586e-20)
(2.10939 -0.0886999 -3.75444e-24)
(1.96983 -0.0690216 1.83257e-24)
(1.90293 -0.0576372 -1.73145e-24)
(1.90233 -0.053922 0)
(1.95063 -0.0578449 1.46682e-24)
(1.99526 -0.0659649 -1.37803e-24)
(2.01107 -0.0722286 1.74144e-26)
(2.0089 -0.0758968 -3.99832e-20)
(1.98682 -0.076329 0)
(1.95896 -0.0739489 -1.77113e-20)
(1.94287 -0.0716028 1.64863e-20)
(1.93846 -0.0704759 1.52756e-20)
(1.94338 -0.0706473 -1.9451e-26)
(1.95117 -0.0718372 -5.2281e-20)
(1.95571 -0.0729186 6.26047e-27)
(1.95748 -0.0736044 2.24752e-20)
(1.9582 -0.0739146 -6.32223e-25)
(1.96033 -0.0742072 1.17691e-24)
(1.96423 -0.0746998 -3.5691e-20)
(1.96902 -0.0753776 -3.30394e-20)
(1.97385 -0.0761199 3.06032e-20)
(1.97855 -0.0768537 2.83597e-20)
(1.98338 -0.0775907 4.04058e-25)
(1.98852 -0.0783752 0)
(1.99393 -0.0792209 4.52459e-20)
(1.99947 -0.0801197 4.20115e-20)
(2.00509 -0.0810603 0)
(2.01079 -0.0820436 7.25938e-20)
(2.01654 -0.0830725 6.75511e-20)
(2.02232 -0.0841501 -6.29091e-20)
(2.02813 -0.0852755 -5.86356e-20)
(2.03393 -0.0864489 0)
(2.03972 -0.0876701 5.10768e-20)
(2.04549 -0.0889417 1.83788e-25)
(2.0512 -0.0902619 -2.25387e-26)
(2.05686 -0.0916326 0)
(2.06246 -0.0930541 0)
(2.06798 -0.0945261 0)
(2.0734 -0.0960471 -1.30752e-25)
(2.07869 -0.0976167 6.50501e-20)
(2.08389 -0.0992356 -1.22523e-19)
(2.08897 -0.100905 4.40841e-25)
(2.09392 -0.102623 -2.09894e-25)
(2.09875 -0.104393 0)
(2.10343 -0.10621 0)
(2.10798 -0.108077 0)
(2.11238 -0.109994 0)
(2.11664 -0.111959 0)
(2.12073 -0.113971 -1.58942e-19)
(2.12463 -0.116026 3.03085e-19)
(2.12837 -0.118129 1.44711e-19)
(2.13197 -0.120281 1.38409e-19)
(2.13539 -0.122481 -1.32603e-19)
(2.13862 -0.124724 2.54515e-19)
(2.14169 -0.127012 2.4467e-19)
(2.14458 -0.129346 -1.17803e-19)
(2.14729 -0.131728 0)
(2.14982 -0.134158 0)
(2.15216 -0.136632 -1.01102e-25)
(2.15433 -0.139157 9.86238e-26)
(2.15641 -0.141736 -2.00386e-19)
(2.15846 -0.144377 0)
(2.16047 -0.14708 1.90351e-19)
(2.16222 -0.149833 1.86026e-19)
(2.16342 -0.152616 1.82103e-19)
(2.16455 -0.155467 -1.78601e-19)
(2.16547 -0.15838 1.67422e-25)
(2.16618 -0.161355 -8.22682e-26)
(2.16663 -0.164392 0)
(2.16673 -0.167493 0)
(2.16647 -0.170657 0)
(-0.139482 1.32443 -2.65321e-20)
(0.132521 1.16756 2.39114e-25)
(-0.390331 -1.40168 0)
(-1.18226 -2.38529 5.79293e-23)
(-0.821133 -0.998496 -1.1223e-19)
(-0.693433 -0.525688 5.35684e-23)
(-1.43812 -0.729171 -5.09059e-23)
(-0.609685 -0.227037 0)
(2.59653 0.280878 6.87562e-24)
(4.85173 0.0369866 3.27584e-21)
(4.92634 -0.228112 1.66926e-20)
(4.12455 -0.204053 -4.09451e-24)
(3.70345 -0.153227 -4.3227e-24)
(3.47972 -0.120728 4.09891e-24)
(3.37489 -0.101869 -1.91716e-24)
(3.37749 -0.0959828 1.80817e-24)
(3.45637 -0.102938 -1.35264e-20)
(3.52751 -0.116888 0)
(3.55177 -0.127617 -1.19001e-20)
(3.54625 -0.133876 2.24742e-20)
(3.50911 -0.134619 2.58176e-24)
(3.46369 -0.130594 0)
(3.43784 -0.126631 -1.85531e-20)
(3.43127 -0.124752 -1.72012e-20)
(3.43978 -0.125082 -2.97745e-26)
(3.45272 -0.127153 5.88892e-20)
(3.46028 -0.129032 3.33335e-24)
(3.46338 -0.130234 2.5326e-20)
(3.46491 -0.130794 0)
(3.46887 -0.131325 4.34792e-20)
(3.47574 -0.1322 0)
(3.48405 -0.133394 -1.88245e-26)
(3.49247 -0.1347 -3.45177e-20)
(3.50069 -0.135995 -3.19919e-20)
(3.50914 -0.137295 5.93207e-20)
(3.51816 -0.138679 -8.33457e-25)
(3.52762 -0.140172 -5.10569e-20)
(3.53731 -0.141756 -7.29265e-25)
(3.54713 -0.143416 6.67029e-25)
(3.55709 -0.145149 -8.1942e-20)
(3.56714 -0.146964 -1.52512e-19)
(3.57726 -0.148864 7.10212e-20)
(3.58744 -0.150851 -2.8917e-26)
(3.5976 -0.152921 -4.672e-25)
(3.60774 -0.155076 4.4405e-25)
(3.61784 -0.15732 -1.07818e-19)
(3.62785 -0.159651 2.0175e-19)
(3.63775 -0.16207 0)
(3.64756 -0.164579 0)
(3.65721 -0.167177 0)
(3.66671 -0.169862 7.81106e-20)
(3.676 -0.172634 5.60763e-25)
(3.6851 -0.175493 2.76804e-19)
(3.69401 -0.17844 1.30505e-19)
(3.70269 -0.181476 1.23213e-19)
(3.71114 -0.184599 -2.24122e-25)
(3.71935 -0.187809 -2.0863e-25)
(3.72731 -0.191107 3.98831e-25)
(3.735 -0.194491 -9.92122e-20)
(3.74245 -0.19796 1.78584e-25)
(3.74961 -0.201512 3.59161e-19)
(3.75646 -0.205143 -1.71225e-19)
(3.763 -0.208858 1.6351e-19)
(3.76929 -0.212658 1.56393e-19)
(3.77527 -0.216543 1.49835e-19)
(3.78094 -0.220507 -1.43796e-19)
(3.78629 -0.224548 -1.38235e-19)
(3.79133 -0.228669 -1.33116e-19)
(3.79607 -0.232876 2.56825e-19)
(3.8005 -0.237168 1.18815e-25)
(3.80457 -0.24154 1.14249e-25)
(3.80835 -0.245998 -2.33045e-19)
(3.81197 -0.250554 0)
(3.81556 -0.25522 0)
(3.81905 -0.259994 -2.15113e-19)
(3.82211 -0.264857 -2.10226e-19)
(3.82418 -0.269772 -9.81642e-26)
(3.82611 -0.274808 2.01838e-19)
(3.82768 -0.279953 9.4486e-26)
(3.82885 -0.285206 0)
(3.8296 -0.29057 0)
(3.82974 -0.296047 0)
(3.82924 -0.301635 -3.77025e-19)
(-0.223849 2.20662 -2.87654e-23)
(0.186965 1.86217 -1.06121e-24)
(-0.565333 -1.81304 3.41789e-23)
(-1.6232 -3.27253 1.3138e-19)
(-1.22851 -1.51634 1.24245e-19)
(-1.03793 -0.7865 0)
(-1.95674 -0.997539 -1.14671e-19)
(-0.541226 -0.265453 2.86465e-23)
(4.06661 0.405091 3.14123e-20)
(7.04627 0.0382655 -3.60406e-21)
(7.07874 -0.322315 -1.15036e-24)
(6.03222 -0.290943 -4.88089e-24)
(5.4736 -0.222754 1.95339e-20)
(5.1768 -0.177859 -1.87952e-20)
(5.04165 -0.151699 0)
(5.05065 -0.143938 0)
(5.15744 -0.154278 1.50783e-20)
(5.251 -0.174389 6.90346e-24)
(5.28135 -0.189819 -6.4949e-24)
(5.27072 -0.198802 6.13171e-24)
(5.21865 -0.199901 -5.78645e-24)
(5.1572 -0.194209 5.43195e-24)
(5.12286 -0.188601 -2.07636e-20)
(5.115 -0.185977 -4.6991e-24)
(5.12735 -0.186508 3.56121e-20)
(5.14524 -0.189536 -3.29888e-20)
(5.15577 -0.192283 1.85998e-24)
(5.16034 -0.194057 -2.83964e-20)
(5.16305 -0.194909 0)
(5.16921 -0.195719 -4.87702e-20)
(5.17937 -0.197028 -4.51532e-20)
(5.19152 -0.198799 8.36298e-20)
(5.20381 -0.200734 0)
(5.21588 -0.202654 3.59167e-20)
(5.22834 -0.204585 1.07179e-24)
(5.2416 -0.206641 -9.36056e-25)
(5.25549 -0.208855 8.3921e-25)
(5.2697 -0.211206 -8.06562e-25)
(5.28411 -0.213668 7.61559e-25)
(5.29872 -0.21624 6.96874e-25)
(5.31349 -0.218934 8.56969e-20)
(5.32838 -0.221756 -6.03946e-25)
(5.34332 -0.224705 7.44134e-20)
(5.35825 -0.227778 5.2519e-25)
(5.37315 -0.230979 6.48387e-20)
(5.38799 -0.234311 1.21217e-19)
(5.40271 -0.237773 -2.26839e-19)
(5.41728 -0.241368 4.01686e-25)
(5.43169 -0.245094 -3.83497e-25)
(5.44588 -0.248953 0)
(5.45983 -0.252942 -8.78423e-20)
(5.47349 -0.25706 -3.18149e-25)
(5.48687 -0.261309 -1.55658e-19)
(5.49996 -0.265688 -1.46782e-19)
(5.51274 -0.270199 -1.38586e-19)
(5.52517 -0.274841 0)
(5.53724 -0.279612 1.24024e-19)
(5.54894 -0.284513 2.26126e-25)
(5.56024 -0.289542 1.11602e-19)
(5.57117 -0.294699 0)
(5.58166 -0.299977 3.30188e-25)
(5.59173 -0.305375 -1.85041e-25)
(5.60135 -0.310897 1.23427e-25)
(5.61058 -0.316547 -1.75941e-19)
(5.61935 -0.322321 0)
(5.62763 -0.328211 0)
(5.63548 -0.334218 -1.55521e-19)
(5.64287 -0.340345 2.99528e-19)
(5.64981 -0.3466 -2.88947e-19)
(5.65627 -0.352979 0)
(5.66221 -0.359478 0)
(5.66773 -0.366105 2.622e-19)
(5.67302 -0.37288 -2.54781e-19)
(5.67825 -0.379817 2.48056e-19)
(5.68335 -0.386915 4.07451e-28)
(5.68781 -0.394144 2.36533e-19)
(5.69079 -0.401451 0)
(5.69355 -0.408936 -2.16777e-25)
(5.69577 -0.416584 4.25769e-25)
(5.69741 -0.424392 -2.19721e-19)
(5.6984 -0.432366 4.33486e-19)
(5.69851 -0.440507 4.28434e-19)
(5.69766 -0.448813 -4.64708e-25)
(-0.298867 3.06877 0)
(0.197804 2.44868 -4.14634e-20)
(-0.746133 -2.09374 4.54269e-20)
(-2.02032 -4.06846 1.65951e-22)
(-1.66872 -2.08816 0)
(-1.42501 -1.08245 1.39119e-19)
(-2.40598 -1.23896 2.55427e-19)
(-0.196286 -0.254224 -4.16957e-23)
(5.82427 0.533497 -3.32666e-20)
(9.36213 0.0307083 3.85668e-21)
(9.31591 -0.416074 -1.99475e-20)
(8.09299 -0.380664 5.29897e-24)
(7.42676 -0.297426 -4.26536e-20)
(7.07349 -0.240813 6.12997e-24)
(6.91825 -0.20763 1.93943e-20)
(6.93651 -0.198262 0)
(7.06633 -0.212256 4.0386e-24)
(7.17634 -0.23881 -5.74715e-27)
(7.20953 -0.259158 -3.56954e-24)
(7.19199 -0.271003 2.76829e-20)
(7.12596 -0.272549 0)
(7.05115 -0.265219 0)
(7.0103 -0.257966 4.59043e-20)
(7.00229 -0.254616 2.58562e-24)
(7.01857 -0.255387 -2.41982e-24)
(7.04098 -0.259443 3.6526e-20)
(7.0543 -0.263126 3.38981e-20)
(7.0605 -0.265532 0)
(7.06479 -0.266723 -2.91962e-20)
(7.07354 -0.267858 1.66061e-24)
(7.08729 -0.269651 1.00207e-19)
(7.10351 -0.272059 -4.64136e-20)
(7.1199 -0.274689 0)
(7.13611 -0.277301 -3.98896e-20)
(7.15288 -0.279932 -7.39991e-20)
(7.17068 -0.282732 0)
(7.1893 -0.285744 8.88017e-25)
(7.20835 -0.288944 -9.10637e-25)
(7.22765 -0.292293 0)
(7.24724 -0.295794 0)
(7.26706 -0.29946 7.21112e-25)
(7.28704 -0.303303 -1.15572e-26)
(7.30709 -0.307317 -8.27649e-20)
(7.32712 -0.311503 -5.84184e-25)
(7.34711 -0.315862 6.44326e-25)
(7.36701 -0.320399 0)
(7.38678 -0.325116 1.26187e-19)
(7.40634 -0.330013 1.18195e-19)
(7.42568 -0.33509 0)
(7.44471 -0.340348 -7.86688e-25)
(7.46344 -0.345784 7.52704e-25)
(7.48177 -0.351397 9.19573e-20)
(7.49974 -0.357187 -1.73222e-19)
(7.51731 -0.363156 0)
(7.53446 -0.369305 0)
(7.55114 -0.375633 -5.51673e-25)
(7.56733 -0.382137 -1.38026e-19)
(7.58302 -0.388819 -1.30843e-19)
(7.59817 -0.395676 -4.70248e-25)
(7.61282 -0.402706 4.53989e-25)
(7.62687 -0.409904 7.18763e-25)
(7.64036 -0.417264 2.14378e-19)
(7.65325 -0.424794 2.64539e-25)
(7.6656 -0.432497 -1.95816e-19)
(7.67731 -0.440371 0)
(7.68839 -0.448404 1.80051e-19)
(7.69887 -0.456596 1.73091e-19)
(7.70873 -0.464952 -1.66684e-19)
(7.71798 -0.473482 3.21592e-19)
(7.72656 -0.48218 -2.97557e-25)
(7.73447 -0.491044 0)
(7.74184 -0.500085 2.77661e-25)
(7.74886 -0.509326 2.83569e-19)
(7.7558 -0.518787 -2.76086e-19)
(7.76258 -0.528469 -2.69377e-19)
(7.76851 -0.538331 2.51233e-25)
(7.7724 -0.548298 2.57715e-19)
(7.77597 -0.558507 0)
(7.77881 -0.568937 0)
(7.78089 -0.579589 2.44558e-19)
(7.78206 -0.590464 -4.82495e-19)
(7.78202 -0.601567 -9.53755e-19)
(7.78068 -0.612895 4.722e-19)
(-0.362052 3.8833 0)
(0.15604 2.87383 4.48313e-20)
(-0.930956 -2.22636 -4.7547e-20)
(-2.35767 -4.73154 -1.60583e-19)
(-2.11662 -2.68418 -1.48682e-19)
(-1.85174 -1.41137 -1.54317e-19)
(-2.74793 -1.44117 -2.81862e-19)
(0.507264 -0.181405 -1.52802e-22)
(7.86725 0.661723 2.26141e-23)
(11.7539 0.0143196 -4.0247e-21)
(11.6069 -0.507938 5.43094e-24)
(10.2891 -0.472472 2.24238e-20)
(9.55396 -0.376856 2.26536e-20)
(9.16607 -0.309496 2.19617e-20)
(9.00289 -0.269682 -2.07501e-20)
(9.03207 -0.25892 4.74206e-24)
(9.17759 -0.276716 0)
(9.29631 -0.309889 -4.073e-24)
(9.32843 -0.335312 3.83716e-24)
(9.30259 -0.350159 -2.97927e-20)
(9.2248 -0.3523 0)
(9.14052 -0.343429 0)
(9.09583 -0.334573 -4.9569e-20)
(9.08893 -0.330527 0)
(9.10898 -0.331565 0)
(9.13517 -0.336703 1.73987e-25)
(9.15095 -0.341381 1.17234e-25)
(9.1589 -0.344478 0)
(9.16518 -0.346057 6.33119e-20)
(9.17686 -0.347559 3.60323e-24)
(9.19434 -0.349882 -1.08764e-19)
(9.21466 -0.35298 0)
(9.23522 -0.35636 0)
(9.25567 -0.359724 4.33437e-20)
(9.27687 -0.363114 8.04266e-20)
(9.29933 -0.366719 0)
(9.32278 -0.370597 6.93068e-20)
(9.34678 -0.374715 6.43902e-20)
(9.37111 -0.379028 1.8419e-24)
(9.3958 -0.383535 0)
(9.42077 -0.388258 0)
(9.44594 -0.393205 0)
(9.4712 -0.398377 9.00703e-20)
(9.49645 -0.40377 1.29414e-24)
(9.52165 -0.409387 -7.85059e-20)
(9.54674 -0.415234 -1.13022e-24)
(9.57165 -0.421314 0)
(9.59631 -0.427626 -2.57319e-19)
(9.62068 -0.434172 1.20636e-19)
(9.64466 -0.440951 8.71993e-25)
(9.66825 -0.44796 1.06405e-19)
(9.69137 -0.4552 -1.00101e-19)
(9.71403 -0.462669 3.77123e-19)
(9.73617 -0.470369 1.7781e-19)
(9.75775 -0.478302 -1.67879e-19)
(9.77875 -0.486466 0)
(9.79913 -0.494858 0)
(9.81887 -0.503479 2.01586e-25)
(9.83796 -0.512329 -5.19908e-25)
(9.85637 -0.521402 4.86679e-25)
(9.87403 -0.53069 -2.44697e-19)
(9.89098 -0.54019 -2.33309e-19)
(9.90718 -0.54991 -2.22796e-19)
(9.92268 -0.559855 4.26196e-19)
(9.93738 -0.570019 -2.04162e-19)
(9.95127 -0.58039 -1.95932e-19)
(9.96438 -0.590965 0)
(9.97672 -0.601753 0)
(9.98827 -0.612767 -6.99878e-19)
(9.99898 -0.623999 0)
(10.0088 -0.635444 3.27394e-19)
(10.018 -0.647122 3.1754e-19)
(10.0268 -0.659057 -3.08553e-19)
(10.0354 -0.671276 3.00407e-19)
(10.0439 -0.683781 2.93103e-19)
(10.0512 -0.696519 -5.4623e-25)
(10.056 -0.709394 -5.60826e-19)
(10.0603 -0.72258 0)
(10.0637 -0.736053 0)
(10.0661 -0.749813 -2.66109e-19)
(10.0674 -0.763862 -1.00169e-24)
(10.0671 -0.778205 5.18937e-19)
(10.0651 -0.792842 -9.80445e-25)
(-0.411563 4.60833 3.93964e-20)
(0.0624994 3.10932 4.72465e-20)
(-1.12101 -2.22182 4.81678e-20)
(-2.63126 -5.2258 -1.91209e-22)
(-2.53341 -3.26003 1.59242e-19)
(-2.3 -1.76688 0)
(-2.93517 -1.59697 1.52834e-19)
(1.65666 -0.0315587 1.02469e-19)
(10.1556 0.782015 3.3685e-20)
(14.1547 -0.0099465 -4.61953e-24)
(13.9036 -0.595186 4.58214e-24)
(12.5725 -0.564503 -4.54724e-20)
(11.8123 -0.459437 -2.30668e-20)
(11.4144 -0.38264 0)
(11.2555 -0.336737 -1.06171e-20)
(11.2955 -0.324746 -1.97322e-20)
(11.4478 -0.346335 0)
(11.5668 -0.386114 1.71736e-20)
(11.594 -0.416653 0)
(11.5594 -0.434608 0)
(11.4733 -0.437533 0)
(11.3842 -0.427295 0)
(11.3388 -0.416935 6.52157e-24)
(11.3341 -0.412238 -5.86671e-24)
(11.3575 -0.413554 -5.38533e-24)
(11.3864 -0.419795 -4.1144e-20)
(11.4041 -0.425501 2.07331e-25)
(11.4138 -0.429331 4.3208e-24)
(11.4223 -0.431335 -3.30253e-20)
(11.437 -0.433236 -6.12712e-20)
(11.4581 -0.436116 5.67938e-20)
(11.4822 -0.439931 5.2654e-20)
(11.5067 -0.444093 0)
(11.5311 -0.44824 0)
(11.5565 -0.452424 -8.41185e-20)
(11.5834 -0.45687 2.40101e-24)
(11.6114 -0.46165 -7.25232e-20)
(11.64 -0.466727 2.30412e-24)
(11.6691 -0.472043 0)
(11.6985 -0.477602 -1.76491e-24)
(11.7283 -0.483426 1.67068e-24)
(11.7584 -0.489528 1.01143e-19)
(11.7885 -0.495909 0)
(11.8187 -0.502563 0)
(11.8488 -0.509496 0)
(11.8787 -0.516714 0)
(11.9084 -0.52422 1.43817e-19)
(11.9379 -0.532015 1.34703e-19)
(11.9669 -0.540101 -1.26299e-19)
(11.9956 -0.548474 0)
(12.0237 -0.557135 -1.11386e-19)
(12.0513 -0.566081 7.92487e-25)
(12.0783 -0.575312 -3.94713e-19)
(12.1047 -0.58483 -1.86088e-19)
(12.1305 -0.594637 -1.35536e-24)
(12.1555 -0.60473 6.39087e-25)
(12.1798 -0.615107 -1.57195e-19)
(12.2033 -0.62577 -1.16548e-24)
(12.226 -0.636715 5.43895e-25)
(12.2479 -0.647937 0)
(12.269 -0.659427 2.55948e-19)
(12.2891 -0.671181 0)
(12.3084 -0.683208 -8.83226e-25)
(12.3268 -0.695514 -2.22848e-19)
(12.3442 -0.708093 -1.70982e-24)
(12.3607 -0.720929 7.86057e-25)
(12.3762 -0.73402 -1.96943e-19)
(12.3909 -0.747375 -1.89641e-19)
(12.4045 -0.76101 3.65863e-19)
(12.4172 -0.774917 0)
(12.4288 -0.789091 -3.42275e-19)
(12.4396 -0.803554 -3.31965e-19)
(12.4499 -0.818337 3.22564e-19)
(12.4601 -0.833473 -3.14041e-19)
(12.4701 -0.848963 -3.06401e-19)
(12.4787 -0.864742 -5.7151e-25)
(12.4842 -0.880696 5.86275e-19)
(12.4891 -0.897035 -2.87517e-19)
(12.493 -0.913732 -5.38418e-25)
(12.4956 -0.930786 2.78216e-19)
(12.4968 -0.9482 -5.48949e-19)
(12.4962 -0.965984 -5.42622e-19)
(12.4936 -0.984135 5.1081e-25)
(-0.446624 5.19239 -4.24124e-20)
(-0.0841596 3.17106 -4.8279e-20)
(-1.32384 -2.12345 -1.39062e-19)
(-2.8316 -5.54517 -3.6331e-22)
(-2.88072 -3.75613 -8.072e-24)
(-2.73849 -2.13344 4.4685e-26)
(-2.9065 -1.68884 -1.60267e-19)
(3.31023 0.197281 -1.92781e-19)
(12.6057 0.881132 -6.31699e-20)
(16.4774 -0.0404218 8.94176e-24)
(16.1327 -0.674429 -1.4337e-23)
(14.8513 -0.652964 2.18907e-20)
(14.1062 -0.541557 2.22223e-20)
(13.7207 -0.457046 0)
(13.5758 -0.405864 2.05361e-20)
(13.625 -0.392842 1.91061e-20)
(13.776 -0.418046 -1.77399e-20)
(13.8882 -0.464123 1.82827e-23)
(13.9078 -0.499599 -7.74366e-24)
(13.8653 -0.520662 0)
(13.7747 -0.524543 -6.9927e-24)
(13.6854 -0.513178 -2.69688e-20)
(13.6419 -0.501482 2.52304e-20)
(13.6401 -0.496204 5.87695e-26)
(13.6659 -0.497794 1.064e-23)
(13.6963 -0.505104 -4.52398e-26)
(13.7153 -0.511822 -4.28839e-24)
(13.7265 -0.516387 3.50385e-20)
(13.7372 -0.518829 0)
(13.7547 -0.521132 1.20863e-19)
(13.7787 -0.524563 5.60497e-20)
(13.8059 -0.529081 -5.19901e-20)
(13.8335 -0.534011 0)
(13.8613 -0.538929 0)
(13.8901 -0.543892 0)
(13.9206 -0.549162 0)
(13.9523 -0.554827 -3.91295e-25)
(13.9848 -0.560845 -6.66364e-20)
(14.0177 -0.567147 1.87625e-24)
(14.051 -0.573737 -1.15312e-19)
(14.0848 -0.580644 1.07359e-19)
(14.1188 -0.587884 -1.00029e-19)
(14.153 -0.595454 -9.32709e-20)
(14.1871 -0.603351 0)
(14.2211 -0.611581 8.12868e-20)
(14.255 -0.620152 1.51978e-19)
(14.2887 -0.629066 -1.42193e-19)
(14.322 -0.638327 -2.05103e-24)
(14.3549 -0.647934 1.24851e-19)
(14.3873 -0.657887 0)
(14.4192 -0.668184 -1.10083e-19)
(14.4504 -0.678822 1.0354e-19)
(14.4809 -0.689799 -2.69451e-24)
(14.5108 -0.70112 1.41533e-24)
(14.5399 -0.712788 1.73538e-19)
(14.5682 -0.724799 0)
(14.5957 -0.737151 -2.18143e-24)
(14.6223 -0.749844 1.47124e-19)
(14.6479 -0.762876 0)
(14.6727 -0.776238 -1.32712e-19)
(14.6964 -0.789923 -2.52648e-19)
(14.7191 -0.803924 -2.40853e-19)
(14.7409 -0.818254 0)
(14.7616 -0.832918 0)
(14.7813 -0.847909 4.21344e-19)
(14.7999 -0.86321 -7.7563e-25)
(14.8174 -0.878818 1.9432e-19)
(14.8338 -0.894742 3.74216e-19)
(14.8492 -0.911003 3.60972e-19)
(14.8634 -0.927592 3.4882e-19)
(14.8765 -0.944503 -6.42262e-25)
(14.8886 -0.961761 1.24976e-24)
(14.9002 -0.979405 -3.18246e-19)
(14.9116 -0.997468 5.92032e-25)
(14.9228 -1.01596 3.02299e-19)
(14.9325 -1.03479 -5.63365e-25)
(14.9386 -1.05385 -2.89234e-19)
(14.944 -1.07336 2.83712e-19)
(14.9482 -1.09331 5.32652e-25)
(14.951 -1.11369 2.74594e-19)
(14.9522 -1.1345 -3.8782e-24)
(14.9513 -1.15577 5.35703e-19)
(14.9481 -1.17748 0)
(-0.467253 5.59489 4.55704e-20)
(-0.2786 3.11269 4.69588e-20)
(-1.5463 -1.98591 5.70742e-22)
(-2.9456 -5.6706 -7.81995e-22)
(-3.14638 -4.15222 3.42413e-22)
(-3.12597 -2.47938 0)
(-2.5374 -1.67582 1.5631e-19)
(5.42806 0.486693 8.46856e-20)
(15.0921 0.959201 2.85767e-20)
(18.6247 -0.0747109 -2.95601e-23)
(18.1995 -0.741555 0)
(16.9983 -0.732158 -9.92585e-24)
(16.2948 -0.617791 9.62238e-24)
(15.936 -0.527792 0)
(15.8108 -0.47256 -1.86573e-20)
(15.868 -0.458868 0)
(16.0131 -0.487332 3.23878e-20)
(16.1147 -0.539002 -1.53328e-20)
(16.1257 -0.578916 0)
(16.0766 -0.602876 2.769e-20)
(15.9843 -0.607793 1.27885e-23)
(15.8978 -0.595588 9.96903e-25)
(15.8577 -0.582808 -2.32194e-20)
(15.859 -0.577057 1.06028e-23)
(15.8864 -0.578906 4.01365e-20)
(15.9173 -0.587189 3.73125e-20)
(15.9367 -0.594832 -3.47381e-20)
(15.949 -0.600084 -7.71241e-24)
(15.9614 -0.602941 0)
(15.981 -0.605621 -5.58535e-20)
(16.0071 -0.609556 -5.18206e-20)
(16.0364 -0.614716 0)
(16.0662 -0.620345 -5.4136e-24)
(16.0961 -0.625966 1.01181e-23)
(16.1274 -0.631637 -7.69573e-20)
(16.1604 -0.63766 0)
(16.1946 -0.644129 -5.5527e-25)
(16.2296 -0.651003 6.17042e-20)
(16.2651 -0.658205 5.61568e-26)
(16.3012 -0.665737 1.06798e-19)
(16.3376 -0.673632 -1.98866e-19)
(16.3743 -0.681911 0)
(16.4112 -0.69057 -7.55524e-25)
(16.448 -0.699606 8.06041e-20)
(16.4848 -0.709026 -1.60834e-24)
(16.5214 -0.718839 -1.40721e-19)
(16.5578 -0.729049 -1.9914e-24)
(16.5937 -0.739659 3.76372e-24)
(16.6293 -0.750668 -1.1558e-19)
(16.6642 -0.762076 0)
(16.6986 -0.773882 2.03773e-19)
(16.7323 -0.786083 -9.58208e-20)
(16.7653 -0.798677 -1.7172e-24)
(16.7976 -0.811668 -1.70109e-19)
(16.829 -0.82506 0)
(16.8596 -0.838851 0)
(16.8892 -0.853034 1.43605e-19)
(16.918 -0.867614 0)
(16.9457 -0.882587 -1.29151e-19)
(16.9724 -0.897943 1.22744e-19)
(16.9981 -0.913673 0)
(17.0226 -0.92977 2.22745e-19)
(17.0461 -0.946249 -2.12672e-19)
(17.0686 -0.963116 2.03383e-19)
(17.0899 -0.980364 -1.94828e-19)
(17.11 -0.997971 7.17302e-25)
(17.1289 -1.01594 -1.79712e-19)
(17.1467 -1.03427 -3.46096e-19)
(17.1633 -1.053 -6.67723e-19)
(17.1787 -1.0721 -3.22641e-19)
(17.1929 -1.09159 3.12372e-19)
(17.2061 -1.11148 3.02989e-19)
(17.2187 -1.13182 2.94433e-19)
(17.2311 -1.15264 1.09559e-24)
(17.2433 -1.17395 1.06641e-24)
(17.2539 -1.19567 -1.04365e-24)
(17.2605 -1.21765 1.0216e-24)
(17.2664 -1.24018 -2.62653e-19)
(17.271 -1.26321 1.97039e-24)
(17.2741 -1.28674 -2.54309e-19)
(17.2755 -1.31079 5.01956e-19)
(17.2745 -1.33536 9.442e-25)
(17.2711 -1.36047 9.41712e-25)
(-0.48003 5.80892 -4.7951e-20)
(-0.508455 2.99339 -4.30574e-20)
(-1.79297 -1.84566 7.28365e-20)
(-2.98912 -5.60564 7.15107e-22)
(-3.32509 -4.43387 -6.99629e-22)
(-3.39231 -2.76012 0)
(-1.70239 -1.52124 2.48771e-22)
(7.90961 0.795484 7.18524e-20)
(17.4648 0.999857 -1.14855e-22)
(20.5107 -0.108854 0)
(20.0153 -0.79211 -4.40671e-24)
(18.8969 -0.796595 1.72069e-20)
(18.2467 -0.683085 1.66079e-23)
(17.9214 -0.590301 -1.64874e-23)
(17.8182 -0.532653 1.61601e-20)
(17.8827 -0.518805 -1.50769e-20)
(18.0203 -0.549997 -1.40888e-20)
(18.1099 -0.606161 0)
(18.1122 -0.649691 1.27271e-20)
(18.0578 -0.676117 -2.4173e-20)
(17.9655 -0.682038 0)
(17.8829 -0.669322 1.21323e-24)
(17.8469 -0.655789 6.8167e-25)
(17.851 -0.649722 9.15983e-24)
(17.8794 -0.651815 -7.81835e-24)
(17.9101 -0.660919 -3.26209e-20)
(17.9295 -0.669346 -6.2962e-26)
(17.9423 -0.675195 -6.6599e-24)
(17.956 -0.678422 0)
(17.9769 -0.681438 -4.88872e-20)
(18.0044 -0.685809 4.53713e-20)
(18.0349 -0.691519 -5.10887e-24)
(18.0658 -0.697745 4.80506e-24)
(18.0971 -0.703966 3.631e-20)
(18.1298 -0.710245 1.34877e-19)
(18.1643 -0.71691 0)
(18.2 -0.724068 5.82007e-20)
(18.2366 -0.731674 -1.08207e-19)
(18.2737 -0.739646 -3.04727e-24)
(18.3113 -0.747985 2.88214e-24)
(18.3494 -0.75673 8.72079e-20)
(18.3878 -0.765901 -4.96064e-24)
(18.4263 -0.775497 1.37265e-24)
(18.4648 -0.785514 -7.07049e-20)
(18.5032 -0.79596 -6.60347e-20)
(18.5415 -0.806846 0)
(18.5795 -0.818176 1.74707e-24)
(18.6171 -0.829952 -2.98596e-26)
(18.6543 -0.842177 -3.09555e-24)
(18.6909 -0.854849 2.62679e-26)
(18.7269 -0.867966 -8.9398e-20)
(18.7622 -0.881526 -8.40839e-20)
(18.7968 -0.895528 1.58346e-19)
(18.8306 -0.909975 1.49277e-19)
(18.8635 -0.924872 0)
(18.8956 -0.940216 -1.33182e-19)
(18.9267 -0.956002 -1.26044e-19)
(18.9569 -0.972234 -1.80861e-24)
(18.9861 -0.988906 1.13374e-19)
(19.0142 -1.00601 0)
(19.0411 -1.02354 0)
(19.0671 -1.04148 -1.95593e-19)
(19.0918 -1.05985 -4.16538e-24)
(19.1155 -1.07865 -1.78629e-19)
(19.138 -1.09789 -1.31382e-24)
(19.1593 -1.11753 1.64253e-19)
(19.1794 -1.13758 1.57911e-19)
(19.1983 -1.15805 3.04166e-19)
(19.216 -1.17895 2.93462e-19)
(19.2324 -1.20029 2.16479e-24)
(19.2476 -1.22206 -5.49365e-19)
(19.2617 -1.24429 -2.66484e-19)
(19.2753 -1.26702 9.86357e-25)
(19.2888 -1.2903 -9.64039e-25)
(19.3019 -1.31412 2.46206e-19)
(19.3133 -1.3384 0)
(19.3207 -1.363 0)
(19.3274 -1.38821 2.31336e-19)
(19.3326 -1.414 -2.12975e-27)
(19.3363 -1.44036 8.5368e-25)
(19.3382 -1.4673 4.42544e-19)
(19.3377 -1.49485 -4.95853e-27)
(19.3346 -1.52301 8.24899e-25)
(-0.483217 5.8275 0)
(-0.762185 2.86516 3.67405e-20)
(-2.06094 -1.71223 5.99261e-20)
(-2.99207 -5.40997 -6.43316e-23)
(-3.38654 -4.58015 -6.91847e-22)
(-3.4685 -2.94888 0)
(-0.323476 -1.20115 -1.09112e-19)
(10.611 1.08381 -5.981e-20)
(19.5737 0.992484 1.43589e-22)
(22.087 -0.138988 -4.66252e-23)
(21.5359 -0.824102 3.73684e-24)
(20.4969 -0.843933 -1.44895e-20)
(19.9043 -0.735346 -1.46098e-20)
(19.615 -0.642614 5.07361e-26)
(19.5339 -0.584301 -6.84641e-21)
(19.6041 -0.570821 2.55745e-20)
(19.7329 -0.604066 0)
(19.8099 -0.663425 1.13672e-20)
(19.8037 -0.709597 -1.08204e-20)
(19.745 -0.737959 -2.05118e-20)
(19.6538 -0.744819 1.94675e-20)
(19.5759 -0.731952 1.83375e-20)
(19.5443 -0.718038 1.71949e-20)
(19.5509 -0.711838 -1.60199e-20)
(19.5799 -0.714163 8.15183e-24)
(19.6101 -0.723916 -2.77456e-20)
(19.6292 -0.732964 0)
(19.6424 -0.739309 -2.40741e-20)
(19.6569 -0.742863 -5.43733e-24)
(19.6788 -0.746178 8.31999e-20)
(19.7072 -0.750922 -3.86166e-20)
(19.7385 -0.757087 3.58587e-20)
(19.7702 -0.763807 -4.09192e-24)
(19.8024 -0.770526 4.24818e-24)
(19.836 -0.77731 -5.74631e-20)
(19.8714 -0.784509 4.82003e-26)
(19.9081 -0.792239 3.05152e-24)
(19.9457 -0.800454 4.61316e-20)
(19.9838 -0.809065 -5.28106e-24)
(20.0225 -0.818075 0)
(20.0616 -0.827527 7.43913e-20)
(20.1011 -0.837442 7.22107e-26)
(20.1407 -0.84782 6.46671e-20)
(20.1804 -0.858657 6.03557e-20)
(20.22 -0.869961 0)
(20.2594 -0.881745 1.05425e-19)
(20.2985 -0.894013 9.86568e-20)
(20.3373 -0.906769 -9.24143e-20)
(20.3757 -0.920014 2.669e-24)
(20.4135 -0.933748 8.13303e-20)
(20.4507 -0.947968 0)
(20.4872 -0.962674 -1.33393e-24)
(20.5229 -0.977862 0)
(20.5579 -0.993538 -1.93188e-24)
(20.5921 -1.00971 3.17686e-26)
(20.6253 -1.02636 1.13968e-19)
(20.6577 -1.04351 -3.70718e-24)
(20.689 -1.06114 2.52185e-26)
(20.7193 -1.07925 1.49351e-24)
(20.7486 -1.09784 1.39819e-24)
(20.7768 -1.11689 -1.35122e-24)
(20.8038 -1.13639 1.67615e-19)
(20.8298 -1.15637 3.2019e-19)
(20.8546 -1.17683 0)
(20.8783 -1.19776 1.46781e-19)
(20.9007 -1.21914 -2.81818e-19)
(20.9218 -1.24097 0)
(20.9419 -1.26325 3.63224e-24)
(20.9607 -1.28603 2.51979e-19)
(20.9782 -1.30928 0)
(20.9945 -1.333 4.71984e-19)
(21.0097 -1.35723 8.76207e-25)
(21.0244 -1.38202 0)
(21.039 -1.4074 2.16945e-19)
(21.0533 -1.43338 -2.11799e-19)
(21.0658 -1.45986 0)
(21.0741 -1.48671 -2.02925e-19)
(21.0819 -1.51425 -1.99215e-19)
(21.0881 -1.54241 7.46825e-25)
(21.0928 -1.57121 1.93152e-19)
(21.0957 -1.60065 -7.63027e-19)
(21.096 -1.63077 7.18151e-25)
(21.0938 -1.66158 0)
(-0.479054 5.66546 -4.57887e-20)
(-1.04084 2.74578 -1.6672e-22)
(-2.34553 -1.58229 -4.82239e-20)
(-2.9813 -5.15896 0)
(-3.33226 -4.58533 6.69306e-22)
(-3.30436 -3.02413 1.84544e-19)
(1.60467 -0.736135 8.45469e-20)
(13.3485 1.34034 0)
(21.3403 0.935473 0)
(23.3589 -0.161646 2.56826e-21)
(22.7786 -0.840614 -1.95857e-23)
(21.8227 -0.875603 -1.40393e-24)
(21.288 -0.775635 1.23239e-20)
(21.0344 -0.685453 -1.20961e-20)
(20.9728 -0.627985 -5.7728e-21)
(21.0458 -0.61527 -1.08718e-20)
(21.164 -0.649878 -1.01741e-20)
(21.2282 -0.711197 -9.64669e-21)
(21.2143 -0.759117 0)
(21.1526 -0.78894 1.73855e-20)
(21.0638 -0.796704 1.52676e-23)
(20.9914 -0.784037 -1.55798e-20)
(20.9642 -0.770097 -1.45772e-20)
(20.9732 -0.763933 1.36089e-20)
(21.0025 -0.766477 -2.52736e-20)
(21.0319 -0.776718 4.71008e-20)
(21.0506 -0.786242 0)
(21.0642 -0.792997 0)
(21.0796 -0.796848 9.24092e-24)
(21.1025 -0.800438 -8.11307e-24)
(21.1316 -0.805501 0)
(21.1634 -0.812044 -3.05035e-20)
(21.1958 -0.819171 -2.83238e-20)
(21.2286 -0.826304 5.56933e-25)
(21.263 -0.833509 -4.89152e-20)
(21.2992 -0.841152 4.54583e-20)
(21.3368 -0.849358 -4.22603e-20)
(21.3752 -0.858078 3.93059e-20)
(21.4141 -0.86722 0)
(21.4537 -0.876789 0)
(21.4938 -0.886829 -6.34491e-20)
(21.5342 -0.897363 -5.91596e-20)
(21.5748 -0.908392 0)
(21.6154 -0.919912 -5.1527e-20)
(21.656 -0.931932 -2.91346e-24)
(21.6964 -0.944466 -9.00587e-20)
(21.7366 -0.957518 1.97302e-24)
(21.7765 -0.971093 7.89956e-20)
(21.8159 -0.985192 0)
(21.8548 -0.999816 -6.95683e-20)
(21.8931 -1.01496 -1.97822e-24)