/*--------------------------------*- C++ -*----------------------------------*\
| =========                 |                                                 |
| \\      /  F ield         | OpenFOAM: The Open Source CFD Toolbox           |
|  \\    /   O peration     | Version:  2412                                  |
|   \\  /    A nd           | Website:  www.openfoam.com                      |
|    \\/     M anipulation  |                                                 |
\*---------------------------------------------------------------------------*/
FoamFile
{
    version     2.0;
    format      ascii;
    arch        "LSB;label=32;scalar=64";
    class       volScalarField;
    location    "200";
    object      p;
}
// * * * * * * * * * * * * * * * * * * * * * * * * * * * * * * * * * * * * * //

dimensions      [0 2 -2 0 0 0 0];

internalField   nonuniform List<scalar> 
7423
(
-2352.59
-3252.96
-3798.76
-3825.39
-3594.34
-3170.33
-2875.61
-2665.24
-2466.55
-2290.61
-2143.41
-2016.68
-1904.63
-1804.55
-1714.49
-1632.63
-1557.76
-1488.89
-1425.27
-1366.28
-1311.35
-1260.04
-1211.92
-1166.64
-1123.9
-1083.44
-1045.03
-1008.47
-973.59
-940.242
-908.298
-877.645
-848.184
-819.831
-792.505
-766.144
-740.681
-716.07
-692.259
-669.204
-646.868
-625.215
-604.213
-583.836
-564.047
-544.842
-526.149
-508.035
-490.382
-473.23
-456.516
-440.299
-424.482
-409.085
-394.072
-379.469
-365.23
-351.334
-337.777
-324.559
-311.659
-299.064
-286.745
-274.71
-262.951
-251.451
-240.2
-229.192
-218.399
-207.825
-197.472
-187.328
-177.383
-167.639
-158.068
-148.651
-2352.55
-3252.96
-3798.72
-3825.37
-3594.33
-3170.33
-2875.61
-2665.23
-2466.55
-2290.61
-2143.41
-2016.68
-1904.63
-1804.55
-1714.49
-1632.63
-1557.76
-1488.89
-1425.27
-1366.28
-1311.35
-1260.04
-1211.92
-1166.64
-1123.9
-1083.44
-1045.03
-1008.47
-973.59
-940.242
-908.298
-877.645
-848.184
-819.831
-792.505
-766.144
-740.681
-716.07
-692.259
-669.204
-646.868
-625.215
-604.213
-583.836
-564.047
-544.841
-526.149
-508.035
-490.382
-473.23
-456.516
-440.299
-424.482
-409.085
-394.072
-379.469
-365.229
-351.334
-337.777
-324.559
-311.659
-299.063
-286.745
-274.71
-262.951
-251.451
-240.2
-229.192
-218.399
-207.825
-197.472
-187.328
-177.383
-167.639
-158.068
-148.651
-2352.42
-3252.8
-3798.57
-3825.29
-3594.28
-3170.32
-2875.6
-2665.22
-2466.55
-2290.6
-2143.41
-2016.68
-1904.63
-1804.55
-1714.49
-1632.63
-1557.76
-1488.89
-1425.27
-1366.28
-1311.35
-1260.04
-1211.92
-1166.64
-1123.9
-1083.44
-1045.03
-1008.47
-973.59
-940.242
-908.298
-877.645
-848.184
-819.831
-792.505
-766.144
-740.681
-716.07
-692.258
-669.204
-646.868
-625.215
-604.213
-583.836
-564.047
-544.841
-526.149
-508.034
-490.382
-473.23
-456.516
-440.299
-424.482
-409.085
-394.072
-379.469
-365.229
-351.334
-337.777
-324.559
-311.659
-299.063
-286.745
-274.71
-262.951
-251.451
-240.2
-229.192
-218.399
-207.825
-197.472
-187.328
-177.383
-167.639
-158.068
-148.651
-2352.09
-3252.39
-3798.22
-3825.08
-3594.18
-3170.28
-2875.58
-2665.21
-2466.54
-2290.6
-2143.4
-2016.67
-1904.63
-1804.55
-1714.49
-1632.63
-1557.76
-1488.89
-1425.27
-1366.28
-1311.35
-1260.04
-1211.92
-1166.64
-1123.9
-1083.44
-1045.03
-1008.47
-973.589
-940.242
-908.298
-877.644
-848.184
-819.831
-792.505
-766.144
-740.681
-716.07
-692.258
-669.204
-646.867
-625.215
-604.213
-583.836
-564.047
-544.841
-526.149
-508.034
-490.382
-473.23
-456.516
-440.299
-424.482
-409.085
-394.072
-379.469
-365.229
-351.334
-337.777
-324.559
-311.659
-299.063
-286.745
-274.71
-262.951
-251.451
-240.2
-229.192
-218.399
-207.825
-197.472
-187.328
-177.383
-167.639
-158.067
-148.651
-2351.44
-3251.61
-3797.55
-3824.67
-3593.97
-3170.18
-2875.53
-2665.17
-2466.52
-2290.58
-2143.4
-2016.67
-1904.63
-1804.55
-1714.48
-1632.63
-1557.76
-1488.89
-1425.27
-1366.28
-1311.35
-1260.04
-1211.92
-1166.64
-1123.9
-1083.44
-1045.03
-1008.47
-973.589
-940.241
-908.298
-877.644
-848.183
-819.831
-792.505
-766.144
-740.681
-716.07
-692.258
-669.204
-646.867
-625.215
-604.213
-583.836
-564.047
-544.841
-526.149
-508.034
-490.382
-473.23
-456.516
-440.299
-424.482
-409.085
-394.072
-379.468
-365.229
-351.333
-337.777
-324.559
-311.659
-299.063
-286.745
-274.71
-262.951
-251.45
-240.199
-229.191
-218.399
-207.825
-197.472
-187.328
-177.383
-167.639
-158.067
-148.651
-2350.32
-3250.29
-3796.42
-3823.98
-3593.59
-3169.99
-2875.42
-2665.11
-2466.48
-2290.56
-2143.38
-2016.66
-1904.62
-1804.54
-1714.48
-1632.63
-1557.76
-1488.89
-1425.27
-1366.27
-1311.35
-1260.04
-1211.92
-1166.64
-1123.9
-1083.44
-1045.03
-1008.47
-973.589
-940.241
-908.298
-877.644
-848.183
-819.83
-792.505
-766.144
-740.681
-716.069
-692.258
-669.204
-646.867
-625.214
-604.213
-583.836
-564.047
-544.841
-526.149
-508.034
-490.381
-473.229
-456.516
-440.299
-424.482
-409.084
-394.072
-379.468
-365.229
-351.333
-337.777
-324.559
-311.659
-299.063
-286.745
-274.71
-262.951
-251.45
-240.199
-229.191
-218.399
-207.824
-197.472
-187.328
-177.383
-167.639
-158.067
-148.651
-2348.61
-3248.3
-3794.73
-3822.92
-3593.01
-3169.7
-2875.25
-2665
-2466.41
-2290.52
-2143.36
-2016.64
-1904.61
-1804.53
-1714.47
-1632.62
-1557.75
-1488.89
-1425.26
-1366.27
-1311.35
-1260.04
-1211.92
-1166.64
-1123.9
-1083.44
-1045.03
-1008.47
-973.588
-940.24
-908.297
-877.643
-848.183
-819.83
-792.504
-766.143
-740.68
-716.069
-692.258
-669.203
-646.867
-625.214
-604.212
-583.835
-564.046
-544.841
-526.149
-508.034
-490.381
-473.229
-456.516
-440.299
-424.481
-409.084
-394.072
-379.468
-365.229
-351.333
-337.776
-324.559
-311.658
-299.063
-286.745
-274.71
-262.951
-251.45
-240.199
-229.191
-218.398
-207.824
-197.472
-187.327
-177.382
-167.639
-158.067
-148.651
-2346.18
-3245.51
-3792.38
-3821.47
-3592.2
-3169.27
-2875
-2664.84
-2466.31
-2290.46
-2143.32
-2016.62
-1904.59
-1804.52
-1714.46
-1632.62
-1557.75
-1488.88
-1425.26
-1366.27
-1311.34
-1260.04
-1211.91
-1166.63
-1123.9
-1083.44
-1045.03
-1008.47
-973.587
-940.239
-908.296
-877.642
-848.182
-819.829
-792.503
-766.143
-740.68
-716.068
-692.257
-669.203
-646.866
-625.214
-604.212
-583.835
-564.046
-544.84
-526.148
-508.034
-490.381
-473.229
-456.516
-440.299
-424.481
-409.084
-394.072
-379.468
-365.229
-351.333
-337.776
-324.558
-311.658
-299.063
-286.745
-274.709
-262.95
-251.45
-240.199
-229.191
-218.398
-207.824
-197.471
-187.327
-177.382
-167.638
-158.067
-148.65
-2342.91
-3241.8
-3789.28
-3819.55
-3591.14
-3168.7
-2874.67
-2664.62
-2466.16
-2290.36
-2143.25
-2016.58
-1904.56
-1804.5
-1714.45
-1632.6
-1557.74
-1488.87
-1425.25
-1366.26
-1311.34
-1260.03
-1211.91
-1166.63
-1123.9
-1083.44
-1045.03
-1008.47
-973.585
-940.237
-908.294
-877.641
-848.18
-819.828
-792.502
-766.141
-740.679
-716.067
-692.256
-669.202
-646.865
-625.213
-604.211
-583.834
-564.045
-544.84
-526.148
-508.033
-490.38
-473.228
-456.515
-440.298
-424.481
-409.084
-394.071
-379.468
-365.228
-351.333
-337.776
-324.558
-311.658
-299.062
-286.744
-274.709
-262.95
-251.45
-240.199
-229.191
-218.398
-207.824
-197.471
-187.327
-177.382
-167.638
-158.067
-148.65
-3237.02
-3785.32
-3817.1
-3589.79
-3167.99
-2874.24
-2664.33
-2465.98
-2290.24
-2143.17
-2016.52
-1904.52
-1804.47
-1714.43
-1632.59
-1557.73
-1488.86
-1425.24
-1366.26
-1311.33
-1260.03
-1211.9
-1166.63
-1123.89
-1083.43
-1045.02
-1008.47
-973.582
-940.235
-908.292
-877.638
-848.178
-819.826
-792.5
-766.14
-740.677
-716.066
-692.255
-669.201
-646.864
-625.212
-604.21
-583.833
-564.044
-544.839
-526.147
-508.032
-490.38
-473.228
-456.514
-440.297
-424.48
-409.083
-394.071
-379.467
-365.228
-351.332
-337.775
-324.558
-311.657
-299.062
-286.744
-274.709
-262.95
-251.449
-240.198
-229.19
-218.398
-207.824
-197.471
-187.327
-177.382
-167.638
-158.066
-148.65
-3780.35
-3814.03
-3588.12
-3167.09
-2873.71
-2663.99
-2465.74
-2290.08
-2143.06
-2016.44
-1904.47
-1804.43
-1714.39
-1632.56
-1557.71
-1488.85
-1425.23
-1366.24
-1311.32
-1260.02
-1211.9
-1166.62
-1123.89
-1083.43
-1045.02
-1008.46
-973.578
-940.231
-908.288
-877.635
-848.175
-819.823
-792.497
-766.137
-740.674
-716.064
-692.253
-669.199
-646.862
-625.21
-604.208
-583.832
-564.043
-544.838
-526.146
-508.031
-490.378
-473.227
-456.513
-440.297
-424.479
-409.082
-394.07
-379.466
-365.227
-351.331
-337.775
-324.557
-311.657
-299.061
-286.743
-274.708
-262.949
-251.449
-240.198
-229.19
-218.397
-207.823
-197.47
-187.326
-177.381
-167.637
-158.066
-148.649
-3810.23
-3586.05
-3165.99
-2873.06
-2663.56
-2465.46
-2289.88
-2142.92
-2016.34
-1904.4
-1804.38
-1714.36
-1632.53
-1557.68
-1488.83
-1425.21
-1366.23
-1311.31
-1260.01
-1211.89
-1166.61
-1123.88
-1083.42
-1045.01
-1008.45
-973.572
-940.225
-908.283
-877.63
-848.171
-819.819
-792.494
-766.134
-740.671
-716.061
-692.25
-669.196
-646.86
-625.208
-604.206
-583.829
-564.041
-544.836
-526.144
-508.029
-490.377
-473.225
-456.512
-440.295
-424.478
-409.081
-394.069
-379.465
-365.226
-351.33
-337.774
-324.556
-311.656
-299.061
-286.743
-274.707
-262.948
-251.448
-240.197
-229.189
-218.396
-207.822
-197.47
-187.326
-177.381
-167.637
-158.065
-148.649
-3805.53
-3583.5
-3164.64
-2872.27
-2663.05
-2465.11
-2289.65
-2142.76
-2016.23
-1904.31
-1804.31
-1714.31
-1632.49
-1557.65
-1488.8
-1425.19
-1366.21
-1311.29
-1259.99
-1211.87
-1166.6
-1123.87
-1083.41
-1045
-1008.45
-973.564
-940.218
-908.277
-877.625
-848.165
-819.814
-792.489
-766.129
-740.667
-716.057
-692.246
-669.192
-646.857
-625.205
-604.203
-583.827
-564.038
-544.833
-526.142
-508.027
-490.375
-473.223
-456.51
-440.293
-424.476
-409.079
-394.067
-379.464
-365.225
-351.329
-337.772
-324.555
-311.655
-299.059
-286.741
-274.706
-262.947
-251.447
-240.196
-229.188
-218.396
-207.821
-197.469
-187.325
-177.38
-167.636
-158.064
-148.648
-3799.74
-3580.38
-3162.99
-2871.31
-2662.44
-2464.7
-2289.37
-2142.57
-2016.09
-1904.21
-1804.24
-1714.25
-1632.45
-1557.62
-1488.77
-1425.17
-1366.19
-1311.27
-1259.97
-1211.86
-1166.59
-1123.86
-1083.4
-1044.99
-1008.44
-973.555
-940.21
-908.269
-877.617
-848.158
-819.807
-792.483
-766.124
-740.662
-716.052
-692.242
-669.188
-646.852
-625.201
-604.2
-583.823
-564.035
-544.83
-526.139
-508.024
-490.372
-473.221
-456.508
-440.291
-424.474
-409.077
-394.065
-379.462
-365.223
-351.327
-337.771
-324.553
-311.653
-299.058
-286.74
-274.705
-262.946
-251.446
-240.195
-229.187
-218.394
-207.82
-197.468
-187.324
-177.379
-167.635
-158.063
-3792.59
-3576.56
-3160.97
-2870.15
-2661.69
-2464.21
-2289.04
-2142.34
-2015.92
-1904.09
-1804.14
-1714.18
-1632.39
-1557.57
-1488.73
-1425.13
-1366.16
-1311.25
-1259.95
-1211.84
-1166.57
-1123.84
-1083.38
-1044.98
-1008.42
-973.544
-940.2
-908.259
-877.608
-848.15
-819.799
-792.476
-766.117
-740.655
-716.046
-692.236
-669.183
-646.847
-625.196
-604.195
-583.819
-564.031
-544.826
-526.135
-508.021
-490.369
-473.218
-456.505
-440.288
-424.471
-409.075
-394.063
-379.459
-365.221
-351.325
-337.769
-324.551
-311.651
-299.056
-286.738
-274.703
-262.944
-251.444
-240.193
-229.185
-218.393
-207.819
-197.466
-187.322
-177.377
-167.633
-158.062
-3783.92
-3571.84
-3158.5
-2868.72
-2660.8
-2463.62
-2288.64
-2142.06
-2015.72
-1903.94
-1804.03
-1714.09
-1632.33
-1557.52
-1488.69
-1425.1
-1366.13
-1311.22
-1259.93
-1211.82
-1166.55
-1123.82
-1083.37
-1044.96
-1008.41
-973.531
-940.187
-908.248
-877.598
-848.14
-819.79
-792.467
-766.109
-740.648
-716.038
-692.229
-669.176
-646.841
-625.19
-604.19
-583.814
-564.026
-544.822
-526.131
-508.017
-490.365
-473.214
-456.501
-440.285
-424.468
-409.071
-394.06
-379.456
-365.218
-351.322
-337.766
-324.549
-311.649
-299.054
-286.736
-274.701
-262.942
-251.442
-240.191
-229.183
-218.391
-207.817
-197.464
-187.32
-177.375
-167.632
-158.06
-3773.9
-3565.83
-3155.49
-2866.99
-2659.71
-2462.91
-2288.16
-2141.72
-2015.48
-1903.77
-1803.9
-1713.99
-1632.25
-1557.45
-1488.63
-1425.05
-1366.09
-1311.19
-1259.9
-1211.79
-1166.52
-1123.8
-1083.35
-1044.94
-1008.39
-973.515
-940.172
-908.234
-877.585
-848.128
-819.779
-792.457
-766.099
-740.638
-716.03
-692.221
-669.169
-646.834
-625.183
-604.183
-583.808
-564.02
-544.816
-526.125
-508.012
-490.36
-473.209
-456.497
-440.281
-424.464
-409.068
-394.056
-379.453
-365.214
-351.319
-337.763
-324.546
-311.646
-299.051
-286.733
-274.698
-262.94
-251.439
-240.189
-229.181
-218.388
-207.815
-197.462
-187.318
-177.373
-167.629
-158.058
-3762.94
-3558.09
-3151.8
-2864.86
-2658.39
-2462.05
-2287.58
-2141.32
-2015.19
-1903.55
-1803.74
-1713.87
-1632.15
-1557.37
-1488.57
-1424.99
-1366.04
-1311.14
-1259.86
-1211.76
-1166.49
-1123.77
-1083.32
-1044.92
-1008.37
-973.496
-940.155
-908.218
-877.569
-848.114
-819.766
-792.444
-766.087
-740.627
-716.019
-692.211
-669.159
-646.825
-625.175
-604.175
-583.8
-564.014
-544.81
-526.119
-508.006
-490.355
-473.204
-456.492
-440.276
-424.459
-409.063
-394.052
-379.449
-365.211
-351.315
-337.759
-324.542
-311.642
-299.048
-286.73
-274.695
-262.937
-251.436
-240.186
-229.178
-218.386
-207.812
-197.459
-187.315
-177.371
-167.627
-158.056
-3750.7
-3548.56
-3147.26
-2862.25
-2656.79
-2461.01
-2286.88
-2140.83
-2014.85
-1903.3
-1803.55
-1713.72
-1632.03
-1557.28
-1488.49
-1424.93
-1365.98
-1311.09
-1259.81
-1211.72
-1166.46
-1123.74
-1083.29
-1044.89
-1008.35
-973.473
-940.134
-908.198
-877.551
-848.097
-819.75
-792.429
-766.073
-740.614
-716.007
-692.2
-669.149
-646.815
-625.166
-604.166
-583.792
-564.005
-544.802
-526.112
-507.999
-490.348
-473.198
-456.486
-440.27
-424.454
-409.058
-394.047
-379.444
-365.206
-351.311
-337.755
-324.538
-311.639
-299.044
-286.726
-274.692
-262.933
-251.433
-240.183
-229.175
-218.382
-207.809
-197.456
-187.312
-177.368
-167.624
-158.053
-3736.09
-3537.81
-3141.71
-2859.04
-2654.82
-2459.75
-2286.03
-2140.25
-2014.42
-1902.99
-1803.31
-1713.53
-1631.88
-1557.16
-1488.39
-1424.85
-1365.91
-1311.03
-1259.76
-1211.67
-1166.41
-1123.7
-1083.26
-1044.86
-1008.32
-973.446
-940.108
-908.175
-877.529
-848.077
-819.731
-792.412
-766.057
-740.599
-715.993
-692.186
-669.136
-646.803
-625.154
-604.156
-583.782
-563.996
-544.793
-526.103
-507.991
-490.34
-473.19
-456.479
-440.264
-424.448
-409.052
-394.041
-379.439
-365.201
-351.306
-337.75
-324.533
-311.634
-299.039
-286.722
-274.687
-262.929
-251.429
-240.179
-229.171
-218.379
-207.805
-197.453
-187.309
-177.364
-167.621
-158.05
-3718.61
-3526.09
-3134.95
-2855.11
-2652.41
-2458.2
-2284.99
-2139.53
-2013.91
-1902.61
-1803.03
-1713.31
-1631.71
-1557.02
-1488.28
-1424.75
-1365.83
-1310.96
-1259.7
-1211.61
-1166.36
-1123.65
-1083.21
-1044.82
-1008.28
-973.413
-940.078
-908.147
-877.504
-848.053
-819.708
-792.391
-766.037
-740.581
-715.976
-692.17
-669.121
-646.789
-625.141
-604.143
-583.77
-563.985
-544.782
-526.093
-507.981
-490.331
-473.182
-456.471
-440.256
-424.44
-409.045
-394.034
-379.432
-365.194
-351.3
-337.744
-324.528
-311.629
-299.034
-286.717
-274.683
-262.924
-251.425
-240.174
-229.167
-218.375
-207.801
-197.449
-187.305
-177.36
-167.617
-158.046
-3698.53
-3513.57
-3126.5
-2850.31
-2649.46
-2456.31
-2283.73
-2138.65
-2013.29
-1902.15
-1802.68
-1713.04
-1631.5
-1556.85
-1488.13
-1424.63
-1365.73
-1310.87
-1259.62
-1211.54
-1166.3
-1123.6
-1083.16
-1044.78
-1008.24
-973.374
-940.043
-908.114
-877.473
-848.024
-819.682
-792.366
-766.014
-740.559
-715.955
-692.151
-669.103
-646.772
-625.125
-604.128
-583.756
-563.971
-544.77
-526.081
-507.97
-490.321
-473.172
-456.461
-440.247
-424.432
-409.037
-394.026
-379.425
-365.187
-351.293
-337.738
-324.521
-311.622
-299.028
-286.711
-274.677
-262.919
-251.419
-240.169
-229.162
-218.37
-207.796
-197.444
-187.3
-177.356
-167.612
-158.041
-3675.93
-3500.21
-3116.01
-2844.47
-2645.83
-2453.99
-2282.17
-2137.58
-2012.52
-1901.59
-1802.25
-1712.71
-1631.24
-1556.64
-1487.96
-1424.48
-1365.6
-1310.76
-1259.53
-1211.46
-1166.23
-1123.53
-1083.1
-1044.72
-1008.19
-973.328
-940
-908.074
-877.436
-847.99
-819.65
-792.336
-765.986
-740.533
-715.931
-692.128
-669.082
-646.752
-625.106
-604.111
-583.739
-563.956
-544.755
-526.067
-507.957
-490.308
-473.16
-456.45
-440.236
-424.421
-409.027
-394.017
-379.416
-365.179
-351.285
-337.73
-324.514
-311.615
-299.021
-286.705
-274.67
-262.913
-251.413
-240.163
-229.156
-218.364
-207.791
-197.439
-187.295
-177.351
-167.607
-158.036
-3650.55
-3485.24
-3103.89
-2837.44
-2641.39
-2451.13
-2280.25
-2136.26
-2011.58
-1900.9
-1801.73
-1712.31
-1630.92
-1556.38
-1487.75
-1424.31
-1365.45
-1310.63
-1259.41
-1211.36
-1166.14
-1123.45
-1083.03
-1044.66
-1008.13
-973.273
-939.949
-908.027
-877.393
-847.95
-819.613
-792.302
-765.954
-740.503
-715.903
-692.102
-669.057
-646.729
-625.084
-604.09
-583.72
-563.937
-544.738
-526.051
-507.941
-490.293
-473.146
-456.437
-440.223
-424.409
-409.016
-394.006
-379.405
-365.169
-351.275
-337.721
-324.505
-311.607
-299.013
-286.697
-274.663
-262.905
-251.406
-240.156
-229.149
-218.357
-207.784
-197.432
-187.289
-177.345
-167.601
-158.031
-3622.19
-3467.65
-3090.9
-2829.08
-2636.01
-2447.6
-2277.89
-2134.62
-2010.43
-1900.05
-1801.09
-1711.82
-1630.53
-1556.07
-1487.49
-1424.09
-1365.27
-1310.48
-1259.27
-1211.24
-1166.03
-1123.35
-1082.94
-1044.58
-1008.06
-973.207
-939.888
-907.971
-877.341
-847.902
-819.568
-792.26
-765.915
-740.467
-715.869
-692.07
-669.027
-646.701
-625.058
-604.065
-583.697
-563.915
-544.717
-526.032
-507.923
-490.276
-473.129
-456.421
-440.209
-424.395
-409.002
-393.993
-379.393
-365.157
-351.264
-337.71
-324.495
-311.597
-299.004
-286.687
-274.654
-262.897
-251.398
-240.148
-229.141
-218.35
-207.777
-197.425
-187.282
-177.338
-167.595
-158.024
-3590.56
-3447.43
-3076.92
-2819.28
-2629.69
-2443.28
-2274.96
-2132.6
-2008.99
-1899
-1800.31
-1711.21
-1630.05
-1555.68
-1487.18
-1423.83
-1365.05
-1310.28
-1259.11
-1211.09
-1165.9
-1123.24
-1082.84
-1044.48
-1007.97
-973.128
-939.816
-907.905
-877.28
-847.845
-819.515
-792.211
-765.869
-740.424
-715.829
-692.033
-668.992
-646.668
-625.027
-604.036
-583.669
-563.89
-544.693
-526.009
-507.901
-490.256
-473.11
-456.403
-440.191
-424.379
-408.986
-393.978
-379.379
-365.143
-351.251
-337.698
-324.483
-311.585
-298.992
-286.677
-274.644
-262.887
-251.388
-240.139
-229.132
-218.341
-207.768
-197.416
-187.273
-177.329
-167.586
-158.016
-3555.16
-3425.09
-3061.31
-2808.02
-2622.27
-2438.1
-2271.35
-2130.09
-2007.21
-1897.7
-1799.33
-1710.46
-1629.46
-1555.21
-1486.79
-1423.51
-1364.78
-1310.05
-1258.91
-1210.91
-1165.74
-1123.1
-1082.71
-1044.37
-1007.87
-973.033
-939.729
-907.825
-877.206
-847.777
-819.452
-792.152
-765.815
-740.373
-715.782
-691.988
-668.951
-646.629
-624.991
-604.002
-583.637
-563.859
-544.664
-525.982
-507.876
-490.231
-473.087
-456.381
-440.171
-424.359
-408.968
-393.961
-379.362
-365.127
-351.236
-337.683
-324.469
-311.572
-298.979
-286.664
-274.631
-262.875
-251.377
-240.128
-229.121
-218.33
-207.758
-197.406
-187.264
-177.32
-167.577
-3515.3
-3400.28
-3043.76
-2795.38
-2613.6
-2431.99
-2266.95
-2126.99
-2005
-1896.08
-1798.12
-1709.53
-1628.73
-1554.62
-1486.31
-1423.11
-1364.44
-1309.77
-1258.66
-1210.7
-1165.55
-1122.93
-1082.56
-1044.23
-1007.74
-972.92
-939.626
-907.73
-877.119
-847.696
-819.377
-792.083
-765.75
-740.313
-715.726
-691.936
-668.901
-646.583
-624.948
-603.962
-583.599
-563.824
-544.631
-525.95
-507.846
-490.203
-473.06
-456.356
-440.147
-424.337
-408.946
-393.94
-379.342
-365.109
-351.218
-337.666
-324.452
-311.556
-298.964
-286.649
-274.617
-262.861
-251.363
-240.115
-229.109
-218.318
-207.746
-197.395
-187.252
-177.309
-167.566
-3470.64
-3372.92
-3023.96
-2781.16
-2603.66
-2424.87
-2261.68
-2123.16
-2002.25
-1894.07
-1796.6
-1708.37
-1627.82
-1553.9
-1485.72
-1422.63
-1364.03
-1309.42
-1258.36
-1210.44
-1165.32
-1122.72
-1082.38
-1044.07
-1007.59
-972.784
-939.501
-907.616
-877.014
-847.599
-819.288
-792
-765.674
-740.242
-715.659
-691.874
-668.843
-646.529
-624.897
-603.914
-583.554
-563.781
-544.591
-525.913
-507.811
-490.17
-473.029
-456.326
-440.118
-424.31
-408.921
-393.916
-379.319
-365.086
-351.197
-337.645
-324.433
-311.537
-298.946
-286.632
-274.6
-262.845
-251.348
-240.099
-229.094
-218.304
-207.732
-197.381
-187.239
-177.296
-167.553
-3342.94
-3001.69
-2765.14
-2592.41
-2416.66
-2255.47
-2118.51
-1998.84
-1891.55
-1794.72
-1706.92
-1626.69
-1553
-1485
-1422.02
-1363.53
-1308.99
-1257.99
-1210.12
-1165.04
-1122.47
-1082.16
-1043.87
-1007.41
-972.621
-939.353
-907.48
-876.889
-847.484
-819.182
-791.902
-765.582
-740.157
-715.58
-691.8
-668.775
-646.465
-624.836
-603.857
-583.501
-563.732
-544.544
-525.868
-507.769
-490.13
-472.992
-456.29
-440.085
-424.278
-408.89
-393.887
-379.292
-365.06
-351.172
-337.621
-324.41
-311.515
-298.925
-286.612
-274.581
-262.826
-251.329
-240.081
-229.077
-218.287
-207.715
-197.365
-187.223
-177.28
-167.538
-3309.31
-2976.64
-2747.31
-2579.7
-2407.3
-2248.3
-2112.99
-1994.66
-1888.42
-1792.36
-1705.11
-1625.28
-1551.88
-1484.09
-1421.28
-1362.91
-1308.46
-1257.54
-1209.72
-1164.7
-1122.17
-1081.89
-1043.63
-1007.2
-972.424
-939.174
-907.316
-876.739
-847.347
-819.055
-791.785
-765.474
-740.056
-715.486
-691.713
-668.693
-646.388
-624.765
-603.79
-583.438
-563.673
-544.488
-525.816
-507.72
-490.084
-472.948
-456.249
-440.045
-424.241
-408.855
-393.853
-379.26
-365.03
-351.142
-337.593
-324.383
-311.489
-298.9
-286.588
-274.558
-262.803
-251.307
-240.061
-229.056
-218.267
-207.696
-197.346
-187.205
-177.262
-167.52
-3271.46
-2948.51
-2727.55
-2565.33
-2396.71
-2240.11
-2106.56
-1989.65
-1884.57
-1789.42
-1702.85
-1623.52
-1550.48
-1482.96
-1420.35
-1362.14
-1307.81
-1256.98
-1209.24
-1164.28
-1121.8
-1081.56
-1043.33
-1006.93
-972.186
-938.958
-907.12
-876.559
-847.182
-818.903
-791.644
-765.344
-739.936
-715.374
-691.609
-668.596
-646.298
-624.681
-603.711
-583.364
-563.603
-544.423
-525.754
-507.662
-490.029
-472.896
-456.2
-439.999
-424.197
-408.813
-393.813
-379.222
-364.994
-351.108
-337.56
-324.351
-311.459
-298.871
-286.559
-274.53
-262.777
-251.282
-240.036
-229.032
-218.243
-207.673
-197.324
-187.183
-177.241
-167.5
-3228.94
-2917.08
-2705.53
-2549.1
-2384.74
-2230.83
-2099.18
-1983.78
-1879.93
-1785.78
-1700.02
-1621.31
-1548.72
-1481.55
-1419.2
-1361.18
-1307.01
-1256.3
-1208.65
-1163.76
-1121.35
-1081.16
-1042.98
-1006.61
-971.899
-938.698
-906.883
-876.343
-846.984
-818.721
-791.477
-765.189
-739.793
-715.241
-691.485
-668.481
-646.191
-624.58
-603.617
-583.276
-563.52
-544.345
-525.682
-507.593
-489.964
-472.835
-456.142
-439.944
-424.145
-408.764
-393.767
-379.177
-364.951
-351.067
-337.521
-324.314
-311.423
-298.837
-286.526
-274.499
-262.746
-251.252
-240.007
-229.004
-218.216
-207.646
-197.298
-187.158
-177.216
-167.475
-3181.3
-2882.23
-2680.89
-2530.86
-2371.19
-2220.33
-2090.8
-1977.03
-1874.46
-1781.38
-1696.52
-1618.54
-1546.53
-1479.78
-1417.75
-1359.98
-1306
-1255.44
-1207.92
-1163.13
-1120.8
-1080.67
-1042.54
-1006.22
-971.549
-938.382
-906.597
-876.082
-846.745
-818.503
-791.276
-765.004
-739.621
-715.083
-691.338
-668.344
-646.063
-624.461
-603.506
-583.172
-563.423
-544.254
-525.596
-507.512
-489.888
-472.763
-456.074
-439.88
-424.084
-408.706
-393.712
-379.125
-364.901
-351.02
-337.476
-324.271
-311.382
-298.796
-286.488
-274.461
-262.71
-251.217
-239.973
-228.971
-218.184
-207.615
-197.267
-187.128
-177.187
-167.447
-3128.01
-2843.72
-2653.3
-2510.35
-2355.87
-2208.47
-2081.31
-1969.34
-1868.15
-1776.19
-1692.28
-1615.12
-1543.78
-1477.56
-1415.95
-1358.49
-1304.75
-1254.38
-1207.01
-1162.34
-1120.11
-1080.07
-1042.01
-1005.75
-971.123
-937.998
-906.249
-875.767
-846.457
-818.239
-791.034
-764.781
-739.416
-714.893
-691.162
-668.181
-645.911
-624.32
-603.374
-583.049
-563.307
-544.145
-525.494
-507.417
-489.798
-472.678
-455.994
-439.804
-424.012
-408.638
-393.647
-379.064
-364.843
-350.964
-337.422
-324.219
-311.333
-298.749
-286.442
-274.417
-262.668
-251.177
-239.934
-228.933
-218.147
-207.579
-197.232
-187.093
-177.153
-167.413
-3068.52
-2801.25
-2622.51
-2487.26
-2338.58
-2195.08
-2070.59
-1960.63
-1860.97
-1770.2
-1687.29
-1610.99
-1540.39
-1474.8
-1413.68
-1356.62
-1303.19
-1253.06
-1205.89
-1161.37
-1119.27
-1079.33
-1041.35
-1005.17
-970.603
-937.53
-905.827
-875.384
-846.109
-817.921
-790.742
-764.513
-739.169
-714.665
-690.951
-667.985
-645.73
-624.151
-603.217
-582.902
-563.17
-544.017
-525.373
-507.303
-489.692
-472.577
-455.899
-439.715
-423.928
-408.558
-393.571
-378.991
-364.774
-350.898
-337.36
-324.159
-311.275
-298.694
-286.389
-274.366
-262.619
-251.129
-239.887
-228.888
-218.103
-207.536
-197.19
-187.053
-177.114
-167.374
-3002.26
-2754.54
-2588.26
-2461.31
-2319.08
-2179.98
-2058.47
-1950.76
-1852.82
-1763.38
-1681.53
-1606.12
-1536.31
-1471.4
-1410.87
-1354.28
-1301.24
-1251.41
-1204.48
-1160.16
-1118.22
-1078.41
-1040.54
-1004.45
-969.963
-936.957
-905.31
-874.917
-845.685
-817.534
-790.389
-764.189
-738.872
-714.391
-690.698
-667.751
-645.512
-623.949
-603.029
-582.726
-563.006
-543.864
-525.23
-507.169
-489.565
-472.458
-455.787
-439.61
-423.828
-408.463
-393.481
-378.906
-364.693
-350.821
-337.286
-324.089
-311.208
-298.63
-286.327
-274.306
-262.561
-251.073
-239.834
-228.836
-218.052
-207.487
-197.142
-187.006
-177.068
-167.329
-2928.71
-2703.29
-2550.26
-2432.23
-2297.12
-2162.94
-2044.78
-1939.6
-1843.59
-1755.63
-1674.96
-1600.53
-1531.53
-1467.33
-1407.43
-1351.38
-1298.8
-1249.36
-1202.73
-1158.66
-1116.91
-1077.27
-1039.54
-1003.56
-969.175
-936.253
-904.678
-874.346
-845.167
-817.064
-789.96
-763.797
-738.511
-714.06
-690.392
-667.469
-645.251
-623.707
-602.804
-582.517
-562.811
-543.681
-525.059
-507.009
-489.415
-472.317
-455.654
-439.485
-423.71
-408.351
-393.375
-378.806
-364.598
-350.73
-337.2
-324.007
-311.129
-298.554
-286.254
-274.237
-262.494
-251.008
-239.771
-228.775
-217.993
-207.429
-197.086
-186.951
-177.015
-167.277
-2847.34
-2647.22
-2508.18
-2399.72
-2272.46
-2143.78
-2029.34
-1926.98
-1833.14
-1746.85
-1667.5
-1594.15
-1526.04
-1462.6
-1403.34
-1347.88
-1295.8
-1246.8
-1200.54
-1156.78
-1115.29
-1075.85
-1038.3
-1002.47
-968.202
-935.384
-903.899
-873.645
-844.534
-816.489
-789.437
-763.319
-738.074
-713.658
-690.023
-667.128
-644.936
-623.415
-602.533
-582.265
-562.577
-543.463
-524.855
-506.819
-489.237
-472.15
-455.496
-439.336
-423.571
-408.219
-393.25
-378.688
-364.486
-350.624
-337.098
-323.91
-311.037
-298.466
-286.169
-274.155
-262.415
-250.933
-239.698
-228.705
-217.925
-207.362
-197.021
-186.888
-176.953
-167.217
-2757.88
-2586.2
-2461.73
-2363.3
-2244.71
-2122.2
-2011.93
-1912.72
-1821.32
-1736.91
-1659.05
-1586.9
-1519.78
-1457.17
-1398.62
-1343.76
-1292.21
-1243.68
-1197.84
-1154.44
-1113.26
-1074.09
-1036.76
-1001.11
-966.996
-934.31
-902.938
-872.781
-843.755
-815.784
-788.796
-762.735
-737.541
-713.169
-689.574
-666.715
-644.555
-623.063
-602.207
-581.963
-562.296
-543.201
-524.61
-506.591
-489.023
-471.949
-455.308
-439.16
-423.405
-408.062
-393.102
-378.548
-364.354
-350.498
-336.978
-323.795
-310.928
-298.362
-286.07
-274.059
-262.324
-250.844
-239.613
-228.623
-217.845
-207.285
-196.946
-186.815
-176.882
-167.147
-2659.7
-2520.43
-2411.13
-2322.93
-2213.66
-2097.96
-1992.32
-1896.62
-1807.95
-1725.66
-1649.47
-1578.68
-1512.68
-1450.99
-1393.21
-1339.01
-1288.03
-1239.99
-1194.6
-1151.59
-1110.76
-1071.9
-1034.84
-999.417
-965.5
-932.979
-901.749
-871.715
-842.794
-814.916
-788.009
-762.019
-736.888
-712.572
-689.027
-666.212
-644.092
-622.635
-601.812
-581.597
-561.956
-542.885
-524.316
-506.317
-488.767
-471.71
-455.083
-438.949
-423.207
-407.876
-392.925
-378.382
-364.197
-350.349
-336.836
-323.661
-310.8
-298.24
-285.953
-273.947
-262.216
-250.741
-239.514
-228.527
-217.752
-207.195
-196.859
-186.73
-176.8
-167.068
-2551.23
-2448.45
-2355.38
-2278
-2178.99
-2070.84
-1970.31
-1878.5
-1792.87
-1712.95
-1638.63
-1569.37
-1504.62
-1443.97
-1387.06
-1333.59
-1283.23
-1235.73
-1190.81
-1148.22
-1107.76
-1069.23
-1032.47
-997.321
-963.645
-931.33
-900.277
-870.396
-841.608
-813.845
-787.04
-761.139
-736.087
-711.841
-688.357
-665.597
-643.527
-622.115
-601.331
-581.152
-561.545
-542.503
-523.96
-505.987
-488.459
-471.421
-454.813
-438.697
-422.97
-407.652
-392.715
-378.184
-364.01
-350.171
-336.668
-323.501
-310.649
-298.096
-285.815
-273.815
-262.09
-250.62
-239.398
-228.416
-217.645
-207.091
-196.758
-186.633
-176.706
-166.976
-2436.38
-2372.02
-2294.59
-2228.05
-2140.14
-2040.39
-1945.58
-1858.09
-1775.87
-1698.6
-1626.39
-1558.84
-1495.5
-1436.01
-1380.08
-1327.42
-1277.77
-1230.85
-1186.44
-1144.31
-1104.25
-1066.08
-1029.64
-994.776
-961.363
-929.29
-898.454
-868.763
-840.141
-812.523
-785.844
-760.054
-735.1
-710.941
-687.535
-664.844
-642.836
-621.479
-600.746
-580.611
-561.044
-542.039
-523.529
-505.587
-488.087
-471.073
-454.487
-438.393
-422.685
-407.385
-392.462
-377.947
-363.787
-349.96
-336.468
-323.311
-310.47
-297.925
-285.652
-273.659
-261.941
-250.478
-239.262
-228.286
-217.519
-206.969
-196.641
-186.52
-176.597
-166.87
84.6006
-349.406
-835.188
-1328.09
-1771.47
-2091.27
-2315.24
-2291.55
-2229.57
-2173.45
-2097
-2006.36
-1917.83
-1835.09
-1756.67
-1682.39
-1612.55
-1546.93
-1485.17
-1427
-1372.16
-1320.43
-1271.55
-1225.31
-1181.47
-1139.83
-1100.21
-1062.42
-1026.33
-991.779
-958.648
-926.829
-896.226
-866.751
-838.328
-810.887
-784.367
-758.716
-733.884
-709.833
-686.523
-663.919
-641.987
-620.7
-600.028
-579.95
-560.433
-541.474
-523.004
-505.102
-487.635
-470.652
-454.093
-438.027
-422.342
-407.063
-392.159
-377.663
-363.52
-349.708
-336.228
-323.086
-310.256
-297.723
-285.459
-273.475
-261.766
-250.311
-239.102
-228.134
-217.372
-206.827
-196.504
-186.389
-176.471
-166.749
105.228
-299.794
-753.205
-1217.32
-1643.57
-1963.09
-2185.99
-2201.66
-2158.35
-2113.53
-2049.17
-1968.41
-1886.78
-1809.26
-1735.02
-1664.07
-1596.87
-1533.42
-1473.45
-1416.76
-1363.17
-1312.48
-1264.49
-1219
-1175.81
-1134.73
-1095.59
-1058.23
-1022.51
-988.305
-955.481
-923.942
-893.592
-864.347
-836.132
-808.886
-782.547
-757.063
-732.383
-708.468
-685.278
-662.781
-640.945
-619.743
-599.148
-579.139
-559.686
-540.783
-522.363
-504.51
-487.084
-470.14
-453.614
-437.583
-421.927
-406.673
-391.793
-377.321
-363.199
-349.405
-335.942
-322.815
-310.002
-297.483
-285.229
-273.257
-261.559
-250.113
-238.915
-227.955
-217.2
-206.661
-196.346
-186.236
-176.325
-166.609
124.007
-253.034
-674.4
-1108.86
-1514.96
-1830.22
-2053.53
-2104.72
-2082.35
-2049.12
-1996.82
-1926.51
-1852.35
-1780.47