/*--------------------------------*- C++ -*----------------------------------*\
| =========                 |                                                 |
| \\      /  F ield         | OpenFOAM: The Open Source CFD Toolbox           |
|  \\    /   O peration     | Version:  2412                                  |
|   \\  /    A nd           | Website:  www.openfoam.com                      |
|    \\/     M anipulation  |                                                 |
\*---------------------------------------------------------------------------*/
FoamFile
{
    version     2.0;
    format      ascii;
    arch        "LSB;label=32;scalar=64";
    class       volScalarField;
    location    "60";
    object      nuTilda;
}
// * * * * * * * * * * * * * * * * * * * * * * * * * * * * * * * * * * * * * //

dimensions      [0 2 -1 0 0 0 0];

internalField   nonuniform List<scalar> 
7373
(
2.35437e-06
2.35825e-06
2.36206e-06
2.36572e-06
2.36923e-06
2.37257e-06
2.37579e-06
2.37883e-06
2.38172e-06
2.38447e-06
2.38703e-06
2.38938e-06
2.39152e-06
2.39348e-06
2.39522e-06
2.39669e-06
2.39792e-06
2.39887e-06
2.39954e-06
2.39992e-06
2.39995e-06
2.39959e-06
2.39886e-06
2.39774e-06
2.39619e-06
2.39417e-06
2.39161e-06
2.38853e-06
2.3849e-06
2.38066e-06
2.37587e-06
2.37044e-06
2.36434e-06
2.35761e-06
2.35021e-06
2.34214e-06
2.33336e-06
2.32387e-06
2.31362e-06
2.30249e-06
2.29047e-06
2.27757e-06
2.26361e-06
2.24864e-06
2.23264e-06
2.21546e-06
2.19722e-06
2.17785e-06
2.15731e-06
2.13556e-06
2.1126e-06
2.0882e-06
2.06216e-06
2.03396e-06
2.00287e-06
1.96763e-06
1.92593e-06
1.87452e-06
1.80686e-06
1.7117e-06
1.56986e-06
1.34976e-06
1.01616e-06
6.20356e-07
8.98868e-07
1.75958e-06
2.7406e-06
3.61588e-06
7.37234e-06
7.38417e-06
7.39566e-06
7.4066e-06
7.41717e-06
7.42718e-06
7.43669e-06
7.4457e-06
7.45423e-06
7.46224e-06
7.46963e-06
7.47645e-06
7.48263e-06
7.48817e-06
7.49296e-06
7.49698e-06
7.50025e-06
7.50265e-06
7.50416e-06
7.50474e-06
7.50424e-06
7.50255e-06
7.49966e-06
7.49551e-06
7.49e-06
7.48297e-06
7.47424e-06
7.46386e-06
7.45168e-06
7.43756e-06
7.42163e-06
7.40367e-06
7.38361e-06
7.36142e-06
7.33706e-06
7.31053e-06
7.2817e-06
7.25045e-06
7.21672e-06
7.18006e-06
7.14051e-06
7.09801e-06
7.052e-06
7.00259e-06
6.94974e-06
6.89306e-06
6.83282e-06
6.76882e-06
6.70094e-06
6.62908e-06
6.55317e-06
6.47246e-06
6.38628e-06
6.29293e-06
6.19002e-06
6.07328e-06
5.93534e-06
5.76572e-06
5.54319e-06
5.23269e-06
4.7759e-06
4.08182e-06
3.05938e-06
1.88627e-06
2.81498e-06
5.38027e-06
8.23961e-06
1.08439e-05
1.30452e-05
1.30651e-05
1.30841e-05
1.31021e-05
1.31194e-05
1.31357e-05
1.3151e-05
1.31654e-05
1.31789e-05
1.31914e-05
1.32028e-05
1.32132e-05
1.32224e-05
1.32305e-05
1.32372e-05
1.32427e-05
1.32468e-05
1.32494e-05
1.32504e-05
1.32497e-05
1.32471e-05
1.32423e-05
1.32355e-05
1.32263e-05
1.32146e-05
1.32001e-05
1.31827e-05
1.31622e-05
1.31382e-05
1.31109e-05
1.30801e-05
1.30456e-05
1.30071e-05
1.29647e-05
1.29182e-05
1.28675e-05
1.28125e-05
1.27528e-05
1.26883e-05
1.26183e-05
1.25427e-05
1.24613e-05
1.23731e-05
1.22783e-05
1.21769e-05
1.2068e-05
1.19522e-05
1.1829e-05
1.16983e-05
1.15601e-05
1.14137e-05
1.12581e-05
1.10919e-05
1.09118e-05
1.07133e-05
1.04882e-05
1.0223e-05
9.89867e-06
9.47655e-06
8.89683e-06
8.06375e-06
6.83951e-06
5.10568e-06
3.19704e-06
4.95896e-06
9.15074e-06
1.36915e-05
1.79894e-05
1.94481e-05
1.94753e-05
1.9501e-05
1.95251e-05
1.95478e-05
1.9569e-05
1.95887e-05
1.9607e-05
1.96237e-05
1.96389e-05
1.96525e-05
1.96645e-05
1.96749e-05
1.96834e-05
1.96901e-05
1.96949e-05
1.96976e-05
1.96981e-05
1.96962e-05
1.96917e-05
1.96843e-05
1.96738e-05
1.966e-05
1.96426e-05
1.96213e-05
1.95958e-05
1.95657e-05
1.95307e-05
1.94904e-05
1.94449e-05
1.93938e-05
1.93367e-05
1.92735e-05
1.9204e-05
1.91278e-05
1.9045e-05
1.89549e-05
1.88573e-05
1.87516e-05
1.86369e-05
1.85128e-05
1.83791e-05
1.82343e-05
1.80786e-05
1.79115e-05
1.77324e-05
1.75415e-05
1.73384e-05
1.71229e-05
1.68947e-05
1.66532e-05
1.63965e-05
1.61225e-05
1.58255e-05
1.54991e-05
1.51294e-05
1.46964e-05
1.41714e-05
1.34962e-05
1.25878e-05
1.13186e-05
9.52108e-06
7.07913e-06
4.51823e-06
7.33543e-06
1.29904e-05
1.89263e-05
2.47868e-05
2.66577e-05
2.66905e-05
2.67207e-05
2.67486e-05
2.67743e-05
2.67979e-05
2.68193e-05
2.68386e-05
2.68557e-05
2.68706e-05
2.68834e-05
2.68938e-05
2.69021e-05
2.69079e-05
2.69112e-05
2.69119e-05
2.69097e-05
2.69046e-05
2.68961e-05
2.6884e-05
2.68679e-05
2.68474e-05
2.68221e-05
2.67919e-05
2.67559e-05
2.67139e-05
2.66655e-05
2.66099e-05
2.65468e-05
2.64759e-05
2.63969e-05
2.63091e-05
2.62124e-05
2.61064e-05
2.59903e-05
2.58641e-05
2.57272e-05
2.55786e-05
2.54176e-05
2.52429e-05
2.50538e-05
2.48496e-05
2.46289e-05
2.43912e-05
2.4136e-05
2.38626e-05
2.35709e-05
2.32606e-05
2.29315e-05
2.25832e-05
2.22149e-05
2.1824e-05
2.14075e-05
2.09568e-05
2.04632e-05
1.99065e-05
1.92598e-05
1.84839e-05
1.75006e-05
1.62064e-05
1.44496e-05
1.20505e-05
8.92492e-06
5.83294e-06
9.92389e-06
1.68236e-05
2.38109e-05
3.10271e-05
3.47491e-05
3.47841e-05
3.48151e-05
3.48429e-05
3.48676e-05
3.48893e-05
3.4908e-05
3.49238e-05
3.49367e-05
3.49468e-05
3.49538e-05
3.49579e-05
3.49591e-05
3.49572e-05
3.49521e-05
3.49435e-05
3.49312e-05
3.49149e-05
3.48943e-05
3.48688e-05
3.48379e-05
3.4801e-05
3.47578e-05
3.47076e-05
3.46496e-05
3.45834e-05
3.45084e-05
3.44234e-05
3.4328e-05
3.42219e-05
3.41044e-05
3.39746e-05
3.38323e-05
3.36768e-05
3.35071e-05
3.3323e-05
3.31233e-05
3.29065e-05
3.26716e-05
3.2417e-05
3.21415e-05
3.18436e-05
3.15222e-05
3.11761e-05
3.08047e-05
3.04072e-05
2.99832e-05
2.95327e-05
2.90557e-05
2.85516e-05
2.80198e-05
2.74567e-05
2.68584e-05
2.62131e-05
2.55101e-05
2.47212e-05
2.38135e-05
2.2737e-05
2.13926e-05
1.96613e-05
1.73745e-05
1.43602e-05
1.05988e-05
7.14461e-06
1.26728e-05
2.05673e-05
2.82158e-05
3.65242e-05
4.3781e-05
4.38129e-05
4.3839e-05
4.38607e-05
4.38781e-05
4.38915e-05
4.39009e-05
4.39063e-05
4.3908e-05
4.39059e-05
4.39001e-05
4.38904e-05
4.38771e-05
4.38599e-05
4.38385e-05
4.38127e-05
4.37822e-05
4.37466e-05
4.37053e-05
4.36578e-05
4.36029e-05
4.35403e-05
4.34692e-05
4.33889e-05
4.3298e-05
4.31963e-05
4.30828e-05
4.2956e-05
4.28152e-05
4.26601e-05
4.24896e-05
4.23026e-05
4.20987e-05
4.18767e-05
4.16356e-05
4.13746e-05
4.10918e-05
4.07854e-05
4.04536e-05
4.00947e-05
3.97069e-05
3.92878e-05
3.88367e-05
3.83518e-05
3.78321e-05
3.72772e-05
3.66861e-05
3.60595e-05
3.53976e-05
3.46999e-05
3.39663e-05
3.31916e-05
3.23715e-05
3.14902e-05
3.05353e-05
2.94693e-05
2.82549e-05
2.68297e-05
2.50747e-05
2.28607e-05
2.00114e-05
1.63861e-05
1.2066e-05
8.48653e-06
1.55058e-05
2.41266e-05
3.20078e-05
4.11027e-05
5.37333e-05
5.37555e-05
5.37688e-05
5.37764e-05
5.3778e-05
5.37743e-05
5.37652e-05
5.37509e-05
5.37317e-05
5.37077e-05
5.36788e-05
5.36452e-05
5.36069e-05
5.35638e-05
5.35154e-05
5.34615e-05
5.34017e-05
5.33354e-05
5.32619e-05
5.31803e-05
5.30893e-05
5.29882e-05
5.28762e-05
5.27521e-05
5.26143e-05
5.24626e-05
5.22955e-05
5.21111e-05
5.19088e-05
5.16879e-05
5.14469e-05
5.11845e-05
5.09002e-05
5.05922e-05
5.02591e-05
4.98998e-05
4.95117e-05
4.90922e-05
4.86387e-05
4.81498e-05
4.76226e-05
4.70539e-05
4.64438e-05
4.57896e-05
4.50899e-05
4.43449e-05
4.35531e-05
4.2716e-05
4.18341e-05
4.09069e-05
3.9935e-05
3.89113e-05
3.78312e-05
3.66743e-05
3.54267e-05
3.40403e-05
3.24758e-05
3.06561e-05
2.84445e-05
2.57096e-05
2.22773e-05
1.80684e-05
1.3306e-05
9.97166e-06
1.83297e-05
2.73945e-05
3.50542e-05
4.46046e-05
6.44223e-05
6.44284e-05
6.44218e-05
6.44076e-05
6.43851e-05
6.43556e-05
6.43189e-05
6.42755e-05
6.42256e-05
6.41695e-05
6.41072e-05
6.40388e-05
6.39647e-05
6.38845e-05
6.37978e-05
6.37041e-05
6.36029e-05
6.34938e-05
6.33756e-05
6.32472e-05
6.31068e-05
6.29537e-05
6.27869e-05
6.26048e-05
6.24055e-05
6.21888e-05
6.19528e-05
6.16952e-05
6.1415e-05
6.11117e-05
6.07831e-05
6.04279e-05
6.00451e-05
5.96326e-05
5.91888e-05
5.87114e-05
5.81974e-05
5.76436e-05
5.70465e-05
5.64048e-05
5.57143e-05
5.49714e-05
5.4177e-05
5.33272e-05
5.24203e-05
5.14572e-05
5.04359e-05
4.93585e-05
4.82261e-05
4.70379e-05
4.57952e-05
4.44888e-05
4.31135e-05
4.16442e-05
4.0065e-05
3.83168e-05
3.6361e-05
3.41032e-05
3.13941e-05
2.81099e-05
2.40906e-05
1.93578e-05
1.43196e-05
1.20858e-05
2.10392e-05
3.02545e-05
3.72345e-05
4.69008e-05
7.55869e-05
7.5573e-05
7.55419e-05
7.55007e-05
7.54486e-05
7.53874e-05
7.53166e-05
7.52369e-05
7.51489e-05
7.50528e-05
7.49488e-05
7.48371e-05
7.4718e-05
7.45913e-05
7.44564e-05
7.43127e-05
7.41597e-05
7.39968e-05
7.38227e-05
7.36358e-05
7.3434e-05
7.32165e-05
7.2982e-05
7.27288e-05
7.24546e-05
7.21591e-05
7.18402e-05
7.1495e-05
7.11223e-05
7.07216e-05
7.02903e-05
6.98267e-05
6.93296e-05
6.87965e-05
6.82251e-05
6.76127e-05
6.69553e-05
6.62491e-05
6.54896e-05
6.46757e-05
6.38022e-05
6.28646e-05
6.18647e-05
6.07975e-05
5.9661e-05
5.84565e-05
5.71816e-05
5.58387e-05
5.44299e-05
5.29533e-05
5.14109e-05
4.97915e-05
4.80881e-05
4.6272e-05
4.43236e-05
4.21742e-05
3.97885e-05
3.70522e-05
3.38118e-05
2.99645e-05
2.53779e-05
2.02243e-05
1.51399e-05
1.48615e-05
2.35186e-05
3.25879e-05
3.85076e-05
4.79094e-05
5.81533e-05
8.70427e-05
8.70066e-05
8.69482e-05
8.68768e-05
8.67913e-05
8.66939e-05
8.65842e-05
8.64629e-05
8.6331e-05
8.61887e-05
8.60361e-05
8.58738e-05
8.5702e-05
8.55206e-05
8.53285e-05
8.51255e-05
8.49109e-05
8.46839e-05
8.4443e-05
8.41864e-05
8.39114e-05
8.36172e-05
8.33025e-05
8.29652e-05
8.26025e-05
8.22146e-05
8.17988e-05
8.13516e-05
8.08719e-05
8.03589e-05
7.98096e-05
7.92222e-05
7.85952e-05
7.79253e-05
7.72102e-05
7.6446e-05
7.5628e-05
7.47517e-05
7.38119e-05
7.28074e-05
7.17319e-05
7.05803e-05
6.93552e-05
6.80503e-05
6.66635e-05
6.51961e-05
6.36458e-05
6.20145e-05
6.03052e-05
5.85151e-05
5.66458e-05
5.46848e-05
5.26215e-05
5.04255e-05
4.80707e-05
4.54826e-05
4.26313e-05
3.93806e-05
3.55868e-05
3.1185e-05
2.60871e-05
2.06702e-05
1.58513e-05
1.77127e-05
2.56488e-05
3.42858e-05
3.88904e-05
4.76238e-05
5.67545e-05
7.68621e-05
9.86918e-05
9.86316e-05
9.85434e-05
9.84387e-05
9.83164e-05
9.8179e-05
9.80258e-05
9.7858e-05
9.76766e-05
9.7482e-05
9.72742e-05
9.7054e-05
9.68219e-05
9.65772e-05
9.63191e-05
9.60472e-05
9.57606e-05
9.54587e-05
9.51395e-05
9.4801e-05
9.44402e-05
9.40561e-05
9.36475e-05
9.32119e-05
9.27464e-05
9.2251e-05
9.17229e-05
9.11581e-05
9.05555e-05
8.99139e-05
8.92302e-05
8.85022e-05
8.7728e-05
8.6904e-05
8.60272e-05
8.50929e-05
8.40957e-05
8.30301e-05
8.18904e-05
8.06753e-05
7.93773e-05
7.79912e-05
7.65198e-05
7.49558e-05
7.32972e-05
7.15447e-05
6.96964e-05
6.77533e-05
6.57191e-05
6.35901e-05
6.13658e-05
5.90345e-05
5.65785e-05
5.39698e-05
5.11712e-05
4.81095e-05
4.47607e-05
4.0968e-05
3.66177e-05
3.1706e-05
2.62007e-05
2.07482e-05
1.66874e-05
2.03936e-05
2.73207e-05
3.52644e-05
3.84453e-05
4.61478e-05
5.24771e-05
7.55769e-05
0.00010313
0.000110478
0.000110391
0.00011027
0.000110129
0.000109966
0.000109784
0.000109582
0.000109362
0.000109126
0.000108872
0.000108602
0.000108316
0.000108015
0.000107698
0.000107364
0.000107012
0.000106642
0.000106254
0.000105843
0.00010541
0.000104949
0.00010446
0.000103942
0.000103392
0.000102808
0.000102188
0.000101531
0.000100831
0.000100088
9.92998e-05
9.84633e-05
9.7576e-05
9.66358e-05
9.56383e-05
9.45799e-05
9.34552e-05
9.22578e-05
9.09816e-05
8.96202e-05
8.81723e-05
8.66291e-05
8.49856e-05
8.32444e-05
8.13975e-05
7.94434e-05
7.73813e-05
7.521e-05
7.29297e-05
7.05434e-05
6.80481e-05
6.54382e-05
6.27062e-05
5.98222e-05
5.6768e-05
5.34872e-05
4.9922e-05
4.60511e-05
4.17036e-05
3.68281e-05
3.15005e-05
2.57543e-05
2.05855e-05
1.84327e-05
2.27643e-05
2.84552e-05
3.5501e-05
3.73039e-05
4.37118e-05
4.59325e-05
7.16012e-05
0.000104299
0.000122357
0.00012224
0.000122081
0.000121899
0.00012169
0.000121458
0.000121202
0.000120924
0.000120624
0.000120304
0.000119963
0.000119603
0.000119223
0.000118824
0.000118402
0.000117959
0.000117493
0.000117004
0.000116488
0.000115944
0.000115368
0.000114758
0.000114114
0.000113432
0.00011271
0.000111949
0.000111143
0.000110289
0.000109386
0.000108431
0.000107422
0.000106355
0.000105228
0.000104036
0.000102774
0.000101437
0.000100017
9.85064e-05
9.68995e-05
9.51942e-05
9.3381e-05
9.14548e-05
8.94181e-05
8.7262e-05
8.49859e-05
8.2587e-05
8.00648e-05
7.74189e-05
7.465e-05
7.1758e-05
6.87282e-05
6.55625e-05
6.22122e-05
5.86798e-05
5.48799e-05
5.0791e-05
4.63883e-05
4.14992e-05
3.61838e-05
3.05993e-05
2.48644e-05
2.0453e-05
2.08402e-05
2.47122e-05
2.90265e-05
3.50911e-05
3.56791e-05
4.06431e-05
3.98311e-05
6.49725e-05
0.000102546
0.000134281
0.000134128
0.000133927
0.000133697
0.000133436
0.000133147
0.000132829
0.000132484
0.000132114
0.000131718
0.000131296
0.000130851
0.000130382
0.000129887
0.000129366
0.000128818
0.000128241
0.000127636
0.000126999
0.000126327
0.000125617
0.000124868
0.000124078
0.000123246
0.000122367
0.000121443
0.000120468
0.00011944
0.000118355
0.000117213
0.000116009
0.000114741
0.000113405
0.000111996
0.000110508
0.000108934
0.000107266
0.000105497
0.000103619
0.00010163
9.95199e-05
9.72837e-05
9.49238e-05
9.243e-05
8.98029e-05
8.70375e-05
8.4133e-05
8.10902e-05
7.79041e-05
7.45816e-05
7.10938e-05
6.7459e-05
6.36018e-05
5.95628e-05
5.52127e-05
5.06017e-05
4.56834e-05
4.03094e-05
3.47122e-05
2.91265e-05
2.37732e-05
2.13871e-05
2.30106e-05
2.61666e-05
2.9085e-05
3.42276e-05
3.38564e-05
3.73267e-05
3.53865e-05
5.62134e-05
9.74606e-05
0.000146196
0.000145998
0.000145747
0.000145462
0.00014514
0.000144785
0.000144396
0.000143975
0.000143522
0.000143039
0.000142526
0.000141983
0.000141411
0.000140808
0.000140172
0.000139502
0.000138799
0.00013806
0.000137283
0.000136465
0.000135601
0.000134692
0.000133737
0.000132732
0.000131675
0.000130566
0.0001294
0.000128175
0.000126886
0.000125534
0.000124113
0.000122621
0.000121052
0.000119401
0.000117663
0.000115827
0.000113887
0.000111832
0.000109656
0.000107356
0.00010492
0.000102345
9.96327e-05
9.67706e-05
9.37612e-05
9.05968e-05
8.72753e-05
8.38012e-05
8.01595e-05
7.63698e-05
7.23823e-05
6.82423e-05
6.38388e-05
5.9277e-05
5.43612e-05
4.92706e-05
4.38989e-05
3.81592e-05
3.25433e-05
2.73528e-05
2.36158e-05
2.32637e-05
2.47757e-05
2.71218e-05
2.87675e-05
3.31891e-05
3.21697e-05
3.4236e-05
3.25504e-05
4.62315e-05
8.89212e-05
0.000158036
0.000157785
0.000157473
0.000157121
0.000156728
0.000156295
0.000155823
0.000155313
0.000154766
0.000154182
0.000153562
0.000152907
0.000152216
0.000151488
0.000150719
0.000149911
0.000149061
0.000148169
0.000147231
0.000146245
0.000145206
0.000144115
0.00014297
0.00014177
0.000140511
0.000139194
0.000137814
0.000136367
0.000134852
0.000133266
0.000131604
0.000129863
0.000128038
0.000126121
0.000124105
0.000121983
0.000119742
0.000117374
0.000114871
0.000112232
0.000109441
0.000106497
0.0001034
0.000100138
9.67117e-05
9.31136e-05
8.93363e-05
8.5394e-05
8.12545e-05
7.69588e-05
7.24291e-05
6.77532e-05
6.27803e-05
5.76992e-05
5.22336e-05
4.67774e-05
4.10895e-05
3.51883e-05
2.99716e-05
2.60938e-05
2.46957e-05
2.49405e-05
2.60758e-05
2.76531e-05
2.82877e-05
3.22935e-05
3.10678e-05
3.20522e-05
3.11758e-05
3.8907e-05
7.74683e-05
0.000169728
0.000169408
0.000169022
0.00016859
0.00016811
0.000167585
0.000167015
0.0001664
0.000165742
0.000165041
0.000164297
0.000163512
0.000162684
0.000161811
0.000160889
0.00015992
0.000158902
0.000157834
0.000156712
0.000155534
0.000154296
0.000152998
0.00015164
0.000150219
0.000148733
0.000147183
0.000145564
0.000143872
0.000142105
0.000140259
0.000138332
0.000136318
0.000134211
0.000132002
0.000129684
0.000127246
0.000124678
0.000121968
0.00011911
0.0001161
0.000112924
0.000109578
0.000106065
0.000102367
9.84866e-05
9.44175e-05
9.01417e-05
8.56927e-05
8.10108e-05
7.61726e-05
7.10704e-05
6.58401e-05
6.03068e-05
5.47542e-05
4.88078e-05
4.32194e-05
3.74683e-05
3.17272e-05
2.80833e-05
2.62201e-05
2.59721e-05
2.62496e-05
2.69493e-05
2.79121e-05
2.79183e-05
3.18447e-05
3.12501e-05
3.17314e-05
3.11969e-05
3.46147e-05
6.4382e-05
0.000181184
0.000180777
0.0001803
0.000179769
0.000179185
0.000178549
0.000177861
0.000177122
0.000176334
0.000175494
0.000174606
0.000173669
0.000172681
0.000171639
0.000170541
0.000169387
0.000168176
0.000166906
0.000165575
0.000164178
0.000162714
0.000161183
0.000159584
0.000157917
0.000156178
0.000154369
0.000152485
0.000150522
0.000148477
0.000146348
0.00014413
0.000141817
0.000139402
0.000136875
0.000134227
0.000131446
0.000128522
0.000125441
0.000122197
0.000118784
0.000115191
0.00011141
0.000107445
0.000103275
9.88974e-05
9.43178e-05
8.94967e-05
8.45046e-05
7.9245e-05
7.38348e-05
6.81562e-05
6.2387e-05
5.63603e-05
5.04756e-05
4.41929e-05
3.88972e-05
3.35562e-05
2.96876e-05
2.76957e-05
2.71437e-05
2.70412e-05
2.7184e-05
2.75209e-05
2.81052e-05
2.8271e-05
3.21076e-05
3.23438e-05
3.26775e-05
3.22538e-05
3.31324e-05
5.15842e-05
0.0001923
0.000191784
0.000191193
0.000190541
0.000189829
0.000189059
0.00018823
0.000187344
0.0001864
0.000185398
0.00018434
0.000183225
0.000182051
0.000180814
0.000179512
0.000178145
0.000176712
0.000175212
0.000173642
0.000171998
0.000170279
0.000168486
0.00016662
0.000164678
0.00016266
0.000160565
0.00015839
0.00015613
0.000153782
0.000151344
0.000148809
0.000146171
0.000143422
0.00014055
0.000137544
0.000134392
0.000131081
0.0001276
0.000123936
0.000120088
0.000116045
0.000111793
0.000107337
0.000102653
9.77329e-05
9.26041e-05
8.72003e-05
8.16311e-05
7.5779e-05
6.97931e-05
6.3589e-05
5.73746e-05
5.10203e-05
4.51139e-05
3.87278e-05
3.47034e-05
3.12615e-05
2.92201e-05
2.83011e-05
2.79615e-05
2.78414e-05
2.78471e-05
2.79753e-05
2.85338e-05
2.95049e-05
3.31777e-05
3.39738e-05
3.42868e-05
3.39085e-05
3.35919e-05
4.38159e-05
0.00020421
0.000204241
0.000204192
0.000204064
0.000203865
0.000203599
0.00020329
0.000203008
0.000202956
0.000202301
0.000201568
0.000200768
0.0001999
0.000198967
0.000197969
0.000196906
0.000195777
0.000194583
0.000193325
0.000192002
0.000190611
0.000189148
0.00018761
0.000185999
0.000184313
0.000182551
0.000180711
0.000178789
0.000176786
0.000174702
0.000172539
0.000170296
0.000167971
0.000165564
0.000163071
0.000160488
0.000157812
0.000155039
0.000152163
0.000149174
0.000146064
0.000142819
0.000139427
0.000135873
0.000132145
0.000128231
0.000124114
0.000119794
0.000115268
0.000110505
0.000105515
0.000100277
9.47704e-05
8.90596e-05
8.30507e-05
7.68904e-05
7.04775e-05
6.39816e-05
5.74142e-05
5.1e-05
4.46275e-05
3.94124e-05
3.48139e-05
3.22943e-05
3.06513e-05
2.94759e-05
2.88697e-05
2.85964e-05
2.84532e-05
2.84134e-05
2.8587e-05
2.97979e-05
3.12651e-05
3.48157e-05
3.58271e-05
3.61121e-05
3.57744e-05
3.49634e-05
3.96152e-05
0.000215369
0.000215291
0.000215122
0.000214869
0.000214539
0.000214141
0.000213702
0.000213291
0.000213003
0.000212174
0.000211266
0.000210282
0.000209223
0.000208093
0.000206891
0.000205617
0.000204269
0.000202849
0.000201356
0.00019979
0.000198147
0.000196422
0.000194614
0.000192724
0.000190751
0.000188695
0.000186552
0.000184321
0.000182002
0.000179599
0.000177111
0.000174538
0.000171879
0.000169134
0.000166298
0.000163368
0.000160339
0.000157207
0.000153963
0.000150598
0.000147099
0.000143453
0.000139646
0.000135659
0.000131481
0.000127101
0.000122493
0.000117662
0.000112621
0.000107307
0.000101734
9.59106e-05
8.97815e-05
8.34802e-05
7.68801e-05
7.018e-05
6.33479e-05
5.65565e-05
4.99845e-05
4.39387e-05
3.90632e-05
3.55885e-05
3.27087e-05
3.16202e-05
3.05536e-05
2.97703e-05
2.93372e-05
2.91284e-05
2.9039e-05
2.91538e-05
2.99589e-05
3.15707e-05
3.32397e-05
3.67876e-05
3.7667e-05
3.78759e-05
3.75806e-05
3.66767e-05
3.78098e-05
0.000226051
0.000225826
0.000225498
0.00022508
0.000224582
0.000224013
0.000223405
0.000222814
0.000222258
0.000221214
0.000220088
0.000218879
0.000217589
0.000216222
0.000214775
0.00021325
0.000211644
0.000209957
0.000208191
0.000206342
0.000204408
0.000202384
0.000200268
0.000198063
0.000195768
0.000193383
0.000190904
0.000188332
0.000185669
0.000182917
0.000180076
0.000177148
0.000174132
0.000171024
0.000167822
0.000164521
0.000161116
0.0001576
0.000153965
0.000150197
0.00014628
0.000142203
0.000137952
0.000133498
0.000128834
0.000123953
0.000118815
0.000113443
0.000107847
0.000101944
9.57364e-05
8.9329e-05
8.25661e-05
7.57404e-05
6.86615e-05
6.16341e-05
5.47438e-05
4.81837e-05
4.3014e-05
3.8828e-05
3.56e-05
3.38234e-05
3.21377e-05
3.13282e-05
3.05961e-05
3.00694e-05
2.97926e-05
2.97194e-05
2.98871e-05
3.06145e-05
3.17924e-05
3.35417e-05
3.52001e-05
3.88293e-05
3.93238e-05
3.94268e-05
3.91747e-05
3.83645e-05
3.8923e-05
0.000236125
0.000235701
0.000235165
0.000234535
0.000233819
0.000233032
0.000232203
0.000231371
0.000230493
0.000229185
0.000227794
0.000226312
0.000224743
0.000223091
0.000221354
0.000219532
0.000217623
0.000215627
0.000213544
0.000211371
0.000209105
0.000206742
0.00020428
0.000201723
0.000199071
0.000196323
0.000193477
0.000190535
0.0001875
0.000184373
0.000181155
0.000177849
0.000174452
0.000170961
0.000167372
0.000163678
0.000159874
0.000155952
0.000151901
0.000147703
0.000143337
0.000138798
0.000134076
0.00012912
0.000123939
0.000118513
0.000112822
0.000106879
0.000100687
9.41733e-05
8.72971e-05
8.03964e-05
7.30644e-05
6.59796e-05
5.87462e-05
5.19736e-05
4.64804e-05
4.18564e-05
3.83521e-05
3.59759e-05
3.41185e-05
3.29001e-05
3.18345e-05
3.12483e-05
3.07775e-05
3.04729e-05
3.04033e-05
3.07143e-05
3.14258e-05
3.24885e-05
3.37998e-05
3.54858e-05
3.70018e-05
4.05293e-05
4.06885e-05
4.07029e-05
4.04959e-05
3.98693e-05
4.01974e-05
0.000245389
0.000244705
0.0002439
0.000242998
0.000242006
0.000240939
0.000239824
0.000238677
0.00023742
0.000235794
0.000234082
0.000232272
0.000230372
0.000228384
0.000226306
0.000224138
0.000221878
0.000219527
0.000217084
0.000214544
0.000211904
0.000209162
0.000206317
0.000203373
0.000200331
0.000197191
0.000193951
0.000190614
0.000187183
0.00018366
0.000180046
0.000176342
0.000172545
0.000168653
0.00016466
0.000160554
0.000156329
0.000151976
0.000147486
0.00014283
0.000137985
0.000132962
0.00012773
0.000122251
0.000116515
0.000110504
0.000104259
9.77218e-05
9.09279e-05
8.38621e-05
7.63414e-05
6.93003e-05
6.1615e-05
5.50698e-05
4.93003e-05
4.45167e-05
4.07385e-05
3.79741e-05
3.59862e-05
3.44379e-05
3.32345e-05
3.24194e-05
3.17769e-05
3.14185e-05
3.12043e-05
3.11677e-05
3.16097e-05
3.2346e-05
3.33275e-05
3.44947e-05
3.57711e-05
3.72623e-05
3.85693e-05
4.16915e-05
4.17421e-05
4.17059e-05
4.15506e-05
4.11475e-05
4.12807e-05
0.000253568
0.000252547
0.000251402
0.000250156
0.000248816
0.000247397
0.000245919
0.000244376
0.000242681
0.000240676
0.000238581
0.000236385
0.000234096
0.000231718
0.000229246
0.000226682
0.000224025
0.000221273
0.000218425
0.000215478
0.000212426
0.00020927
0.00020601
0.000202649
0.000199191
0.000195634
0.000191978
0.000188226
0.000184383
0.00018045
0.000176425
0.000172308
0.000168096
0.000163789
0.000159381
0.000154846
0.000150179
0.000145378
0.00014042
0.000135283
0.000129943
0.000124406
0.000118629
0.000112619
0.000106299
9.96831e-05
9.29476e-05
8.58557e-05
7.85808e-05
7.12964e-05
6.32384e-05
5.72367e-05
5.12905e-05
4.66077e-05
4.2643e-05
3.97545e-05
3.75884e-05
3.58424e-05
3.45411e-05
3.35632e-05
3.28393e-05
3.23653e-05
3.20539e-05
3.19546e-05
3.21214e-05
3.26024e-05
3.33542e-05
3.42724e-05
3.53158e-05
3.64358e-05
3.75739e-05
3.88008e-05
3.98791e-05
4.24523e-05
4.25432e-05
4.24754e-05
4.23793e-05
4.22352e-05
4.21707e-05
0.000260287
0.000258842
0.000257271
0.000255599
0.000253829
0.000251974
0.000250045
0.000248023
0.000245828
0.000243379
0.000240839
0.000238198
0.000235465
0.000232642
0.000229726
0.000226718
0.000223618
0.000220425
0.000217136
0.000213747
0.000210252
0.000206654
0.000202955
0.000199158
0.000195266
0.000191277
0.000187191
0.000183013
0.000178751
0.000174403
0.00016996
0.000165419
0.000160783
0.000156061
0.00015122
0.000146247
0.000141129
0.000135853
0.000130394
0.000124779
0.000118938
0.000112853
0.000106519
0.000100026
9.31482e-05
8.59752e-05
7.90385e-05
7.16289e-05
6.43564e-05
5.82624e-05
5.23871e-05
4.79553e-05
4.39686e-05
4.1169e-05
3.88551e-05
3.70514e-05
3.56714e-05
3.46175e-05
3.38511e-05
3.33129e-05
3.29623e-05
3.27998e-05
3.28257e-05
3.31792e-05
3.37271e-05
3.44488e-05
3.53004e-05
3.62304e-05
3.72074e-05
3.81927e-05
3.91412e-05
4.00817e-05
4.0942e-05
4.29401e-05
4.31669e-05
4.30581e-05
4.30331e-05
4.32308e-05
4.29377e-05
0.000265043
0.000263075
0.000260987
0.000258797
0.000256506
0.000254124
0.000251654
0.000249074
0.00024632
0.000243363
0.000240319
0.000237179
0.00023395
0.000230636
0.000227231
0.000223739
0.000220159
0.000216493
0.000212739
0.000208887
0.000204929
0.000200874
0.000196728
0.00019249
0.000188159
0.000183732
0.000179213
0.000174612
0.000169939
0.000165174
0.000160313
0.000155351
0.000150305
0.000145154
0.000139865
0.000134464
0.000128891
0.000123109
0.000117123
0.000111084
0.000104772
9.81529e-05
9.13173e-05
8.46016e-05
7.74159e-05
6.98917e-05
6.39064e-05
5.7979e-05
5.2804e-05
4.84428e-05
4.46714e-05
4.20787e-05
3.97476e-05
3.80022e-05
3.6606e-05
3.55602e-05
3.47887e-05
3.4242e-05
3.38858e-05
3.36972e-05
3.36781e-05
3.3915e-05
3.43439e-05
3.49347e-05
3.56257e-05
3.63945e-05
3.72141e-05
3.80569e-05
3.88987e-05
3.97101e-05
4.04538e-05
4.11186e-05
4.17877e-05
4.32442e-05
4.3676e-05
4.34904e-05
4.35625e-05
4.38354e-05
4.37853e-05
0.000267185
0.000264591
0.000261887
0.000259084
0.00025618
0.000253181
0.000250089
0.000246878
0.000243511
0.000239991
0.000236396
0.000232717
0.000228956
0.000225118
0.000221195
0.00021719
0.00021311
0.00020896
0.000204738
0.000200413
0.000195987
0.000191489
0.000186907
0.000182234
0.000177476
0.000172624
0.000167688
0.00016269
0.000157611
0.00015243
0.000147175
0.000141825
0.000136375
0.000130774
0.000125032
0.00011926
0.000113256
0.000106964
0.000100443
9.41916e-05
8.76253e-05
8.06538e-05
7.3574e-05
6.773e-05
6.18872e-05
5.65308e-05
5.2105e-05
4.809e-05
4.48966e-05
4.24359e-05
4.02774e-05
3.86814e-05
3.73688e-05
3.64038e-05
3.56801e-05
3.51726e-05
3.48385e-05
3.4658e-05
3.4629e-05
3.47882e-05
3.51419e-05
3.56274e-05
3.62063e-05
3.68516e-05
3.75363e-05
3.8245e-05
3.89614e-05
3.96684e-05
4.0348e-05
4.09775e-05
4.15236e-05
4.19428e-05
4.24529e-05
4.34254e-05
4.39344e-05
4.37909e-05
4.40068e-05
4.42403e-05
4.42717e-05
0.000265895
0.000262574
0.00025916
0.000255658
0.00025206
0.000248368
0.000244583
0.000240686
0.000236668
0.000232555
0.000228389
0.000224141
0.000219839
0.000215467
0.000211019
0.0002065
0.000201931
0.000197324
0.000192639
0.000187847
0.000182994
0.000178095
0.000173092
0.000168008
0.000162861
0.000157626
0.000152324
0.000146949
0.000141461
0.000135881
0.00013031
0.000124634
0.000118792
0.000112745
0.000106564
0.000100614
9.43736e-05
8.77404e-05
8.06413e-05
7.4989e-05
6.934e-05
6.37948e-05
5.87857e-05
5.44499e-05
5.04688e-05
4.71516e-05
4.46184e-05
4.23549e-05
4.05557e-05
3.91504e-05
3.80293e-05
3.72086e-05
3.65911e-05
3.6164e-05
3.58812e-05
3.57274e-05
3.56966e-05
3.58075e-05
3.60881e-05
3.64943e-05
3.69841e-05
3.75279e-05
3.8105e-05
3.87013e-05
3.93033e-05
3.99011e-05
4.0484e-05
4.10404e-05
4.15559e-05
4.20123e-05
4.23805e-05
4.25943e-05
4.29748e-05
4.3536e-05
4.40942e-05
4.40201e-05
4.42666e-05
4.4486e-05
4.45567e-05
4.45308e-05
0.000260191
0.000256056
0.000251851
0.000247594
0.000243249
0.000238818
0.000234295
0.000229689
0.000225023
0.000220327
0.00021556
0.000210751
0.000205938
0.000201068
0.000196128
0.000191138
0.000186144
0.000181115
0.000175988
0.000170792
0.000165592
0.000160341
0.000154944
0.000149495
0.000144047
0.000138524
0.000132923
0.000127193
0.000121315
0.000115365
0.000109669
0.000103836
9.77544e-05
9.13809e-05
8.4774e-05
7.94212e-05
7.4007e-05
6.86267e-05
6.3582e-05
5.92686e-05
5.51992e-05
5.15386e-05
4.84851e-05
4.60321e-05
4.38453e-05
4.2067e-05
4.06786e-05
3.95501e-05
3.8697e-05
3.80627e-05
3.7601e-05
3.72882e-05
3.70875e-05
3.69836e-05
3.69638e-05
3.7035e-05
3.72204e-05
3.75354e-05
3.79398e-05
3.83932e-05
3.88764e-05
3.93737e-05
3.98755e-05
4.03741e-05
4.08618e-05
4.13317e-05
4.17762e-05
4.21847e-05
4.25459e-05
4.28496e-05
4.30612e-05
4.31061e-05
4.33824e-05
4.36257e-05
4.4224e-05
4.42103e-05
4.44416e-05
4.46453e-05
4.4771e-05
4.48593e-05
0.000248967
0.000243931
0.000238914
0.000233902
0.000228817
0.000223636
0.000218381
0.00021311
0.000207856
0.000202545
0.000197171
0.000191845
0.000186629
0.000181359
0.000176028
0.000170678
0.000165343
0.000159947
0.00015447
0.000148982
0.000143514
0.000138011
0.000132269
0.000126514
0.00012096
0.000115349
0.000109607
0.000103659
9.74914e-05
9.11616e-05
8.59885e-05
8.08443e-05
7.56887e-05
7.06859e-05
6.60603e-05
6.19539e-05
5.80327e-05
5.44468e-05
5.13506e-05
4.88108e-05
4.65819e-05
4.46469e-05
4.30763e-05
4.18226e-05
4.08088e-05
4.00368e-05
3.94652e-05
3.90473e-05
3.8763e-05
3.85823e-05
3.84836e-05
3.84519e-05
3.84744e-05
3.85459e-05
3.86689e-05
3.8857e-05
3.91267e-05
3.94698e-05
3.98519e-05
4.02509e-05
4.06565e-05
4.10598e-05
4.14556e-05
4.18392e-05
4.2205e-05
4.25477e-05
4.28591e-05
4.31303e-05
4.33545e-05
4.35235e-05
4.36082e-05
4.3506e-05
4.36994e-05
4.38657e-05
4.43463e-05
4.43743e-05
4.45679e-05
4.47508e-05
4.4879e-05
4.49928e-05
0.00023714
0.000231026
0.000225085
0.000219286
0.000213634
0.000207893
0.000202047
0.000196161
0.000190349
0.000184503
0.000178528
0.000172538
0.000166734
0.000161339
0.000155897
0.000150396
0.00014484
0.000139292
0.000133658
0.000127953
0.000122334
0.000116736
0.000111326
0.000105374
9.93161e-05
9.42678e-05
8.92817e-05
8.42794e-05
7.93176e-05
7.45431e-05
7.01131e-05
6.61301e-05
6.23101e-05
5.87358e-05
5.55251e-05
5.27407e-05
5.03728e-05
4.82432e-05
4.63879e-05
4.4851e-05
4.36051e-05
4.25875e-05
4.17818e-05
4.11715e-05
4.07222e-05
4.04021e-05
4.01927e-05
4.00706e-05
4.00164e-05
4.00169e-05
4.00598e-05
4.01368e-05
4.0242e-05
4.0371e-05
4.05221e-05
4.06969e-05
4.08997e-05
4.11343e-05
4.13997e-05
4.16867e-05
4.19827e-05
4.22778e-05
4.25664e-05
4.28447e-05
4.31094e-05
4.33554e-05
4.35768e-05
4.37661e-05
4.3915e-05
4.40151e-05
4.40712e-05
4.40394e-05
4.38184e-05
4.39462e-05
4.4065e-05
4.44384e-05
4.45154e-05
4.46532e-05
4.48138e-05
4.49247e-05
4.50498e-05
0.000212414
0.00020543
0.000198585
0.000192013
0.000185988
0.000179892
0.000173677
0.000167368
0.000161167
0.000154705
0.000147942
0.000141088
0.00013456
0.000129415
0.000124394
0.000119294
0.000113931
0.000108774
0.000103697
9.87547e-05
9.39609e-05
8.91695e-05
8.44645e-05
7.98654e-05