/*--------------------------------*- C++ -*----------------------------------*\
| =========                 |                                                 |
| \\      /  F ield         | OpenFOAM: The Open Source CFD Toolbox           |
|  \\    /   O peration     | Version:  2412                                  |
|   \\  /    A nd           | Website:  www.openfoam.com                      |
|    \\/     M anipulation  |                                                 |
\*---------------------------------------------------------------------------*/
FoamFile
{
    version     2.0;
    format      ascii;
    arch        "LSB;label=32;scalar=64";
    class       volScalarField;
    location    "60";
    object      p;
}
// * * * * * * * * * * * * * * * * * * * * * * * * * * * * * * * * * * * * * //

dimensions      [0 2 -2 0 0 0 0];

internalField   nonuniform List<scalar> 
8637
(
-34.8287
-35.0486
-35.2572
-35.452
-35.6322
-35.8007
-35.9574
-36.1027
-36.2374
-36.3624
-36.4766
-36.5796
-36.673
-36.758
-36.8332
-36.8981
-36.9539
-37.0006
-37.0376
-37.0642
-37.0804
-37.0859
-37.0805
-37.0635
-37.0336
-36.9893
-36.9296
-36.855
-36.7627
-36.6499
-36.5161
-36.3596
-36.1783
-35.9697
-35.7304
-35.4563
-35.1466
-34.799
-34.4065
-33.9661
-33.4761
-32.9295
-32.3217
-31.6495
-30.9063
-30.0861
-29.1836
-28.1919
-27.1046
-25.9158
-24.6167
-23.1997
-21.6571
-19.9783
-18.1543
-16.1768
-14.0328
-11.7104
-9.19588
-6.47248
-3.52562
-0.333327
3.12585
6.87632
10.9499
15.3621
20.1507
25.3907
31.0917
37.2331
43.9047
51.1605
58.9859
67.4256
76.5268
86.2931
96.7986
108.081
120.218
133.303
147.419
162.708
179.313
197.402
217.171
238.852
262.668
288.696
-34.8286
-35.0486
-35.2572
-35.452
-35.6322
-35.8007
-35.9574
-36.1027
-36.2374
-36.3624
-36.4766
-36.5796
-36.673
-36.758
-36.8332
-36.8981
-36.9538
-37.0006
-37.0376
-37.0642
-37.0804
-37.0859
-37.0805
-37.0635
-37.0336
-36.9893
-36.9296
-36.855
-36.7626
-36.6499
-36.5161
-36.3596
-36.1783
-35.9697
-35.7303
-35.4563
-35.1466
-34.799
-34.4065
-33.9661
-33.4761
-32.9295
-32.3217
-31.6495
-30.9063
-30.0861
-29.1836
-28.1919
-27.1046
-25.9158
-24.6167
-23.1997
-21.6571
-19.9783
-18.1543
-16.1768
-14.0328
-11.7104
-9.19585
-6.47245
-3.52559
-0.333297
3.12588
6.87635
10.95
15.3622
20.1507
25.3908
31.0918
37.2331
43.9047
51.1605
58.9859
67.4256
76.5269
86.2931
96.7987
108.082
120.218
133.303
147.419
162.708
179.313
197.402
217.171
238.852
262.668
288.696
-34.8286
-35.0486
-35.2572
-35.452
-35.6321
-35.8007
-35.9574
-36.1026
-36.2374
-36.3623
-36.4765
-36.5795
-36.6729
-36.7579
-36.8332
-36.898
-36.9538
-37.0005
-37.0376
-37.0642
-37.0804
-37.0858
-37.0805
-37.0634
-37.0335
-36.9892
-36.9295
-36.8549
-36.7626
-36.6498
-36.516
-36.3596
-36.1782
-35.9696
-35.7303
-35.4563
-35.1465
-34.799
-34.4064
-33.966
-33.476
-32.9294
-32.3216
-31.6494
-30.9062
-30.086
-29.1835
-28.1918
-27.1045
-25.9156
-24.6166
-23.1996
-21.6569
-19.9781
-18.1542
-16.1767
-14.0326
-11.7102
-9.19568
-6.47228
-3.52541
-0.333111
3.12608
6.87656
10.9502
15.3624
20.151
25.391
31.092
37.2334
43.905
51.1609
58.9863
67.426
76.5272
86.2936
96.7991
108.082
120.218
133.303
147.419
162.709
179.314
197.403
217.172
238.853
262.669
288.698
-34.8285
-35.0485
-35.2571
-35.4519
-35.632
-35.8006
-35.9573
-36.1025
-36.2372
-36.3622
-36.4764
-36.5794
-36.6728
-36.7578
-36.8331
-36.8979
-36.9537
-37.0004
-37.0375
-37.064
-37.0803
-37.0857
-37.0803
-37.0633
-37.0334
-36.9891
-36.9294
-36.8548
-36.7624
-36.6497
-36.5159
-36.3594
-36.1781
-35.9694
-35.7301
-35.4561
-35.1463
-34.7988
-34.4062
-33.9658
-33.4758
-32.9292
-32.3214
-31.6492
-30.9059
-30.0857
-29.1832
-28.1915
-27.1042
-25.9153
-24.6163
-23.1992
-21.6566
-19.9778
-18.1538
-16.1763
-14.0322
-11.7098
-9.19523
-6.4718
-3.52491
-0.332579
3.12663
6.87714
10.9508
15.363
20.1516
25.3917
31.0928
37.2342
43.9059
51.1618
58.9872
67.427
76.5284
86.2948
96.8004
108.083
120.22
133.305
147.421
162.711
179.316
197.406
217.175
238.856
262.673
288.703
-34.8283
-35.0482
-35.2568
-35.4516
-35.6318
-35.8003
-35.957
-36.1023
-36.237
-36.362
-36.4762
-36.5792
-36.6726
-36.7576
-36.8328
-36.8976
-36.9534
-37.0001
-37.0372
-37.0638
-37.08
-37.0855
-37.0801
-37.063
-37.0331
-36.9888
-36.9291
-36.8545
-36.7621
-36.6493
-36.5155
-36.3591
-36.1777
-35.9691
-35.7297
-35.4557
-35.1459
-34.7984
-34.4058
-33.9654
-33.4753
-32.9287
-32.3209
-31.6487
-30.9054
-30.0852
-29.1827
-28.1909
-27.1036
-25.9147
-24.6156
-23.1985
-21.6559
-19.977
-18.153
-16.1755
-14.0314
-11.7089
-9.1943
-6.47083
-3.52389
-0.331511
3.12776
6.87833
10.952
15.3643
20.153
25.3932
31.0943
37.2358
43.9076
51.1636
58.9892
67.4292
76.5306
86.2972
96.8031
108.086
120.223
133.309
147.425
162.715
179.321
197.411
217.181
238.863
262.681
288.712
-34.8279
-35.0478
-35.2565
-35.4513
-35.6314
-35.7999
-35.9566
-36.1019
-36.2366
-36.3616
-36.4758
-36.5788
-36.6722
-36.7572
-36.8324
-36.8972
-36.953
-36.9997
-37.0368
-37.0633
-37.0796
-37.085
-37.0796
-37.0625
-37.0327
-36.9883
-36.9286
-36.854
-36.7616
-36.6488
-36.515
-36.3585
-36.1771
-35.9685
-35.7291
-35.455
-35.1453
-34.7977
-34.405
-33.9646
-33.4746
-32.9279
-32.3201
-31.6478
-30.9045
-30.0843
-29.1817
-28.1899
-27.1025
-25.9136
-24.6145
-23.1974
-21.6546
-19.9758
-18.1517
-16.1741
-14.0299
-11.7074
-9.19271
-6.46916
-3.52214
-0.32968
3.12968
6.88034
10.9542
15.3666
20.1554
25.3957
31.097
37.2387
43.9106
51.1668
58.9926
67.4328
76.5345
86.3014
96.8077
108.091
120.228
133.315
147.432
162.722
179.329
197.42
217.191
238.875
262.695
288.727
-34.8273
-35.0472
-35.2559
-35.4507
-35.6308
-35.7993
-35.956
-36.1013
-36.236
-36.361
-36.4752
-36.5782
-36.6716
-36.7566
-36.8318
-36.8966
-36.9524
-36.9991
-37.0361
-37.0627
-37.0789
-37.0843
-37.0789
-37.0618
-37.0319
-36.9876
-36.9278
-36.8532
-36.7608
-36.648
-36.5141
-36.3576
-36.1762
-35.9675
-35.7281
-35.4541
-35.1442
-34.7966
-34.4039
-33.9635
-33.4734
-32.9267
-32.3188
-31.6465
-30.9032
-30.0829
-29.1802
-28.1884
-27.1009
-25.912
-24.6128
-23.1956
-21.6528
-19.9738
-18.1496
-16.1719
-14.0277
-11.7051
-9.19027
-6.46661
-3.51947
-0.326875
3.13262
6.88344
10.9574
15.37
20.159
25.3995
31.101
37.2429
43.9152
51.1717
58.9978
67.4384
76.5405
86.3079
96.8146
108.099
120.237
133.324
147.442
162.733
179.342
197.434
217.207
238.893
262.716
288.752
-34.8264
-35.0464
-35.255
-35.4498
-35.63
-35.7985
-35.9552
-36.1004
-36.2352
-36.3601
-36.4743
-36.5773
-36.6707
-36.7557
-36.8309
-36.8957
-36.9515
-36.9982
-37.0352
-37.0617
-37.0779
-37.0833
-37.0779
-37.0608
-37.0309
-36.9865
-36.9267
-36.8521
-36.7597
-36.6468
-36.5129
-36.3564
-36.175
-35.9662
-35.7268
-35.4527
-35.1428
-34.7951
-34.4024
-33.9619
-33.4717
-32.925
-32.317
-31.6447
-30.9012
-30.0809
-29.1782
-28.1862
-27.0987
-25.9096
-24.6103
-23.193
-21.6501
-19.971
-18.1468
-16.1689
-14.0245
-11.7018
-9.18684
-6.46302
-3.51571
-0.322928
3.13677
6.8878
10.962
15.3749
20.1641
25.4049
31.1067
37.249
43.9216
51.1785
59.0051
67.4462
76.5489
86.317
96.8244
108.11
120.248
133.336
147.456
162.749
179.359
197.454
217.229
238.918
262.745
288.786
-34.8253
-35.0452
-35.2539
-35.4487
-35.6288
-35.7974
-35.9541
-36.0993
-36.234
-36.359
-36.4732
-36.5762
-36.6695
-36.7545
-36.8297
-36.8945
-36.9503
-36.9969
-37.0339
-37.0605
-37.0766
-37.082
-37.0766
-37.0594
-37.0295
-36.9851
-36.9253
-36.8506
-36.7581
-36.6452
-36.5113
-36.3547
-36.1733
-35.9645
-35.725
-35.4508
-35.1409
-34.7931
-34.4003
-33.9598
-33.4695
-32.9227
-32.3146
-31.6422
-30.8987
-30.0782
-29.1754
-28.1834
-27.0957
-25.9065
-24.6071
-23.1897
-21.6466
-19.9674
-18.1429
-16.165
-14.0204
-11.6974
-9.18228
-6.45825
-3.51071
-0.317684
3.14227
6.89358
10.9681
15.3813
20.1709
25.4121
31.1143
37.257
43.9301
51.1876
59.0148
67.4566
76.5601
86.329
96.8375
108.124
120.264
133.353
147.474
162.77
179.382
197.48
217.259
238.952
262.784
288.831
-34.8238
-35.0438
-35.2524
-35.4472
-35.6274
-35.7959
-35.9526
-36.0979
-36.2326
-36.3576
-36.4717
-36.5747
-36.6681
-36.753
-36.8282
-36.893
-36.9487
-36.9954
-37.0324
-37.0589
-37.075
-37.0804
-37.0749
-37.0577
-37.0278
-36.9833
-36.9235
-36.8487
-36.7562
-36.6433
-36.5093
-36.3526
-36.1711
-35.9623
-35.7227
-35.4484
-35.1384
-34.7906
-34.3977
-33.9571
-33.4667
-32.9198
-32.3116
-31.6391
-30.8954
-30.0748
-29.1719
-28.1797
-27.0919
-25.9026
-24.603
-23.1854
-21.6422
-19.9627
-18.1381
-16.1599
-14.0151
-11.6919
-9.17649
-6.45219
-3.50436
-0.311028
3.14926
6.90093
10.9758
15.3894
20.1795
25.4212
31.1239
37.2672
43.941
51.1992
59.0272
67.4698
76.5743
86.3443
96.854
108.142
120.283
133.375
147.498
162.796
179.411
197.513
217.296
238.995
262.833
288.888
-35.4455
-35.6256
-35.7942
-35.9509
-36.0961
-36.2308
-36.3558
-36.4699
-36.5729
-36.6663
-36.7512
-36.8264
-36.8911
-36.9469
-36.9935
-37.0304
-37.0569
-37.073
-37.0784
-37.0728
-37.0556
-37.0256
-36.9811
-36.9212
-36.8464
-36.7538
-36.6408
-36.5068
-36.3501
-36.1685
-35.9595
-35.7199
-35.4455
-35.1354
-34.7875
-34.3945
-33.9537
-33.4633
-32.9162
-32.3079
-31.6352
-30.8914
-30.0707
-29.1676
-28.1753
-27.0873
-25.8977
-24.598
-23.1801
-21.6367
-19.957
-18.1321
-16.1537
-14.0086
-11.6851
-9.16939
-6.44476
-3.49657
-0.302858
3.15783
6.90994
10.9853
15.3994
20.19
25.4323
31.1357
37.2797
43.9543
51.2133
59.0423
67.4861
76.5917
86.3631
96.8743
108.164
120.308
133.401
147.527
162.828
179.448
197.553
217.342
239.047
262.894
288.959
-35.4434
-35.6235
-35.792
-35.9487
-36.094
-36.2287
-36.3536
-36.4678
-36.5707
-36.6641
-36.749
-36.8242
-36.8889
-36.9446
-36.9912
-37.0281
-37.0546
-37.0706
-37.0759
-37.0704
-37.0531
-37.023
-36.9785
-36.9185
-36.8437
-36.751
-36.6379
-36.5038
-36.347
-36.1653
-35.9563
-35.7165
-35.442
-35.1318
-34.7838
-34.3907
-33.9498
-33.4592
-32.9119
-32.3035
-31.6306
-30.8867
-30.0657
-29.1625
-28.1699
-27.0817
-25.8919
-24.5919
-23.1739
-21.6301
-19.9502
-18.125
-16.1462
-14.0008
-11.677
-9.16089
-6.43586
-3.48725
-0.29308
3.1681
6.92073
10.9966
15.4114
20.2026
25.4456
31.1498
37.2947
43.9702
51.2303
59.0604
67.5055
76.6125
86.3856
96.8987
108.19
120.336
133.433
147.562
162.867
179.491
197.602
217.398
239.111
262.966
289.043
-35.4409
-35.621
-35.7896
-35.9462
-36.0915
-36.2262
-36.3511
-36.4653
-36.5682
-36.6615
-36.7464
-36.8216
-36.8863
-36.942
-36.9885
-37.0254
-37.0518
-37.0678
-37.0731
-37.0674
-37.0501
-37.02
-36.9754
-36.9154
-36.8404
-36.7477
-36.6345
-36.5003
-36.3434
-36.1616
-35.9524
-35.7125
-35.438
-35.1276
-34.7794
-34.3862
-33.9451
-33.4543
-32.9069
-32.2983
-31.6252
-30.8811
-30.0599
-29.1564
-28.1636
-27.0752
-25.8851
-24.5848
-23.1665
-21.6224
-19.9422
-18.1166
-16.1375
-13.9917
-11.6674
-9.1509
-6.4254
-3.47628
-0.281582
3.18017
6.93342
11.01
15.4254
20.2175
25.4613
31.1665
37.3123
43.9889
51.2503
59.0817
67.5283
76.6371
86.4121
96.9273
108.221
120.37
133.47
147.603
162.913
179.542
197.659
217.463
239.185
263.052
289.142
-35.438
-35.6181
-35.7867
-35.9434
-36.0886
-36.2233
-36.3482
-36.4623
-36.5653
-36.6586
-36.7435
-36.8186
-36.8832
-36.9389
-36.9854
-37.0222
-37.0486
-37.0646
-37.0698
-37.0641
-37.0467
-37.0165
-36.9718
-36.9117
-36.8366
-36.7438
-36.6305
-36.4962
-36.3392
-36.1572
-35.948
-35.7079
-35.4332
-35.1227
-34.7743
-34.3809
-33.9397
-33.4487
-32.9011
-32.2923
-31.619
-30.8746
-30.0532
-29.1494
-28.1563
-27.0676
-25.8772
-24.5766
-23.1579
-21.6135
-19.9328
-18.1069
-16.1273
-13.9811
-11.6563
-9.1393
-6.41326
-3.46356
-0.268235
3.19418
6.94816
11.0255
15.4418
20.2347
25.4795
31.1858
37.3328
44.0107
51.2735
59.1065
67.5549
76.6656
86.4429
96.9607
108.258
120.41
133.514
147.651
162.966
179.601
197.726
217.539
239.272
263.152
289.257
-35.4346
-35.6148
-35.7834
-35.94
-36.0853
-36.22
-36.3449
-36.459
-36.5619
-36.6552
-36.74
-36.8151
-36.8797
-36.9353
-36.9818
-37.0186
-37.0449
-37.0608
-37.0659
-37.0602
-37.0427
-37.0124
-36.9676
-36.9074
-36.8323
-36.7393
-36.626
-36.4915
-36.3343
-36.1523
-35.9428
-35.7026
-35.4278
-35.1171
-34.7685
-34.3749
-33.9334
-33.4422
-32.8944
-32.2853
-31.6117
-30.8671
-30.0454
-29.1413
-28.1479
-27.0588
-25.8681
-24.5671
-23.148
-21.6032
-19.9221
-18.0957
-16.1156
-13.9689
-11.6436
-9.12594
-6.39928
-3.44891
-0.252869
3.21031
6.96512
11.0433
15.4606
20.2546
25.5005
31.208
37.3564
44.0358
51.3002
59.1351
67.5856
76.6985
86.4784
96.9992
108.299
120.456
133.564
147.707
163.028
179.67
197.804
217.627
239.372
263.267
289.391
-35.4308
-35.611
-35.7796
-35.9362
-36.0815
-36.2161
-36.341
-36.4551
-36.558
-36.6513
-36.7361
-36.8111
-36.8757
-36.9313
-36.9777
-37.0145
-37.0407
-37.0565
-37.0616
-37.0557
-37.0382
-37.0078
-36.9629
-36.9026
-36.8273
-36.7343
-36.6207
-36.4861
-36.3288
-36.1466
-35.937
-35.6966
-35.4215
-35.1106
-34.7618
-34.368
-33.9263
-33.4348
-32.8867
-32.2774
-31.6035
-30.8585
-30.0365
-29.132
-28.1383
-27.0488
-25.8577
-24.5563
-23.1367
-21.5914
-19.9098
-18.0829
-16.1023
-13.9549
-11.629
-9.11066
-6.38328
-3.43214
-0.235278
3.22879
6.98454
11.0637
15.4821
20.2773
25.5245
31.2335
37.3834
44.0646
51.3309
59.1679
67.6208
76.7363
86.5193
97.0434
108.348
120.508
133.622
147.771
163.099
179.75
197.893
217.728
239.487
263.398
289.542
-35.4265
-35.6067
-35.7752
-35.9319
-36.0771
-36.2118
-36.3367
-36.4507
-36.5536
-36.6468
-36.7316
-36.8066
-36.8712
-36.9267
-36.973
-37.0097
-37.0359
-37.0517
-37.0566
-37.0507
-37.033
-37.0025
-36.9575
-36.8971
-36.8217
-36.7285
-36.6148
-36.48
-36.3225
-36.1401
-35.9303
-35.6897
-35.4144
-35.1033
-34.7542
-34.3601
-33.9182
-33.4264
-32.878
-32.2683
-31.5941
-30.8487
-30.0263
-29.1215
-28.1273
-27.0374
-25.8459
-24.5439
-23.1239
-21.578
-19.8958
-18.0683
-16.087
-13.939
-11.6123
-9.09323
-6.36503
-3.41301
-0.215205
3.24987
7.00672
11.0871
15.5067
20.3033
25.552
31.2626
37.4143
44.0975
51.366
59.2054
67.661
76.7796
86.5661
97.0941
108.403
120.569
133.688
147.844
163.18
179.841
197.996
217.844
239.619
263.547
289.709
-35.4216
-35.6018
-35.7703
-35.927
-36.0722
-36.2069
-36.3317
-36.4457
-36.5486
-36.6418
-36.7265
-36.8015
-36.866
-36.9214
-36.9677
-37.0043
-37.0304
-37.0461
-37.051
-37.0449
-37.0272
-36.9965
-36.9514
-36.8908
-36.8152
-36.7219
-36.608
-36.4731
-36.3154
-36.1327
-35.9227
-35.6819
-35.4063
-35.0949
-34.7456
-34.3512
-33.9089
-33.4168
-32.868
-32.258
-31.5834
-30.8376
-30.0148
-29.1095
-28.1149
-27.0245
-25.8324
-24.5299
-23.1092
-21.5628
-19.8799
-18.0517
-16.0697
-13.9208
-11.5934
-9.07338
-6.34425
-3.39122
-0.192336
3.27389
7.03199
11.1137
15.5348
20.333
25.5834
31.2958
37.4496
44.135
51.406
59.2483
67.7071
76.8292
86.6196
97.1522
108.466
120.638
133.764
147.928
163.274
179.946
198.114
217.976
239.768
263.714
289.895
-35.416
-35.5962
-35.7647
-35.9214
-36.0666
-36.2013
-36.3261
-36.4401
-36.5429
-36.6361
-36.7208
-36.7957
-36.8601
-36.9155
-36.9617
-36.9982
-37.0242
-37.0398
-37.0446
-37.0384
-37.0205
-36.9897
-36.9444
-36.8837
-36.808
-36.7144
-36.6003
-36.4652
-36.3073
-36.1244
-35.9141
-35.673
-35.3971
-35.0855
-34.7358
-34.341
-33.8984
-33.4059
-32.8568
-32.2463
-31.5713
-30.825
-30.0017
-29.0959
-28.1007
-27.0098
-25.817
-24.5139
-23.0926
-21.5454
-19.8618
-18.0328
-16.0499
-13.9002
-11.5718
-9.0508
-6.3206
-3.36642
-0.166303
3.30124
7.06077
11.144
15.5667
20.3668
25.6191
31.3338
37.4898
44.1779
51.4518
59.2973
67.7598
76.8858
86.681
97.2188
108.539
120.718
133.852
148.025
163.381
180.066
198.248
218.126
239.935
263.901
290.101
-35.4097
-35.5899
-35.7584
-35.9151
-36.0603
-36.1949
-36.3197
-36.4337
-36.5364
-36.6296
-36.7142
-36.789
-36.8535
-36.9087
-36.9549
-36.9913
-37.0172
-37.0327
-37.0373
-37.031
-37.0129
-36.982
-36.9365
-36.8756
-36.7997
-36.7059
-36.5916
-36.4562
-36.2981
-36.1149
-35.9043
-35.6629
-35.3867
-35.0747
-34.7247
-34.3295
-33.8865
-33.3936
-32.844
-32.233
-31.5575
-30.8107
-29.9869
-29.0805
-28.0847
-26.993
-25.7996
-24.4958
-23.0737
-21.5257
-19.8413
-18.0114
-16.0275
-13.8768
-11.5473
-9.02512
-6.29369
-3.33819
-0.136666
3.33239
7.09356
11.1785
15.6032
20.4053
25.6599
31.377
37.5358
44.2269
51.5042
59.3534
67.82
76.9507
86.7513
97.2951
108.622
120.809
133.952
148.136
163.504
180.203
198.4
218.296
240.124
264.108
290.325
-35.4025
-35.5827
-35.7512
-35.9079
-36.0531
-36.1877
-36.3125
-36.4264
-36.5291
-36.6222
-36.7068
-36.7816
-36.8459
-36.9011
-36.9471
-36.9834
-37.0092
-37.0246
-37.0291
-37.0226
-37.0044
-36.9733
-36.9276
-36.8665
-36.7903
-36.6963
-36.5818
-36.4461
-36.2876
-36.1041
-35.8932
-35.6515
-35.3749
-35.0625
-34.7121
-34.3165
-33.873
-33.3796
-32.8295
-32.218
-31.5419
-30.7945
-29.97
-29.0629
-28.0664
-26.9741
-25.7799
-24.4752
-23.0522
-21.5033
-19.8179
-17.987
-16.002
-13.8501
-11.5194
-8.9959
-6.26306
-3.30605
-0.102915
3.36787
7.13092
11.2179
15.6448
20.4492
25.7064
31.4264
37.5883
44.2829
51.564
59.4175
67.8891
77.0251
86.8319
97.3827
108.718
120.914
134.067
148.263
163.645
180.359
198.573
218.487
240.333
264.337
290.57
-35.3943
-35.5746
-35.7431
-35.8998
-36.045
-36.1795
-36.3043
-36.4181
-36.5208
-36.6139
-36.6984
-36.7731
-36.8373
-36.8924
-36.9384
-36.9745
-37.0002
-37.0154
-37.0197
-37.0131
-36.9947
-36.9633
-36.9175
-36.8561
-36.7797
-36.6854
-36.5706
-36.4346
-36.2758
-36.092
-35.8807
-35.6385
-35.3616
-35.0487
-34.6978
-34.3017
-33.8577
-33.3637
-32.813
-32.2009
-31.5242
-30.7761
-29.9509
-29.043
-28.0457
-26.9525
-25.7574
-24.4518
-23.0278
-21.4779
-19.7913
-17.9592
-15.973
-13.8198
-11.4876
-8.96262
-6.22818
-3.26944
-0.0644513
3.40833
7.17353
11.2628
15.6922
20.4994
25.7596
31.4829
37.6484
44.347
51.6326
59.491
67.9683
77.1106
86.9245
97.4835
108.828
121.034
134.2
148.409
163.806
180.536
198.768
218.701
240.567
264.588
290.837
-35.3851
-35.5654
-35.7339
-35.8906
-36.0357
-36.1703
-36.295
-36.4088
-36.5115
-36.6044
-36.6889
-36.7634
-36.8276
-36.8826
-36.9284
-36.9645
-36.9899
-37.005
-37.0091
-37.0023
-36.9837
-36.9521
-36.906
-36.8444
-36.7676
-36.673
-36.5579
-36.4216
-36.2624
-36.0781
-35.8664
-35.6238
-35.3464
-35.033
-34.6815
-34.2849
-33.8403
-33.3457
-32.7943
-32.1815
-31.504
-30.7552
-29.9291
-29.0204
-28.0222
-26.928
-25.7319
-24.4252
-23.0001
-21.4489
-19.7611
-17.9276
-15.94
-13.7852
-11.4514
-8.92472
-6.18843
-3.22771
-0.0205852
3.45448
7.22216
11.3141
15.7464
20.5568
25.8203
31.5475
37.7171
44.4204
51.7112
59.5754
68.0592
77.2087
87.0311
97.5995
108.954
121.173
134.352
148.576
163.989
180.736
198.987
218.94
240.825
264.864
291.126
-35.3746
-35.5549
-35.7235
-35.8801
-36.0253
-36.1598
-36.2844
-36.3982
-36.5008
-36.5937
-36.6781
-36.7525
-36.8166
-36.8715
-36.9171
-36.953
-36.9783
-36.9932
-36.9971
-36.9901
-36.9712
-36.9394
-36.893
-36.8311
-36.754
-36.659
-36.5435
-36.4068
-36.2472
-36.0625
-35.8503
-35.6071
-35.3292
-35.0153
-34.6631
-34.2659
-33.8206
-33.3253
-32.7731
-32.1595
-31.4812
-30.7314
-29.9045
-28.9948
-27.9955
-26.9002
-25.7029
-24.395
-22.9686
-21.416
-19.7267
-17.8917
-15.9024
-13.7459
-11.4102
-8.88151
-6.1431
-3.18009
0.0294789
3.50717
7.27771
11.3726
15.8083
20.6224
25.8899
31.6215
37.7959
44.5046
51.8014
59.6723
68.1638
77.3218
87.154
97.7331
109.1
121.332
134.526
148.766
164.197
180.963
199.234
219.206
241.111
265.166
291.44
-35.3628
-35.5431
-35.7116
-35.8683
-36.0134
-36.1479
-36.2725
-36.3862
-36.4887
-36.5816
-36.6658
-36.7402
-36.8041
-36.8589
-36.9044
-36.9401
-36.9652
-36.9798
-36.9835
-36.9762
-36.9571
-36.9249
-36.8782
-36.816
-36.7385
-36.6431
-36.5272
-36.39
-36.2299
-36.0447
-35.8319
-35.5882
-35.3096
-34.9951
-34.6423
-34.2442
-33.7982
-33.3021
-32.749
-32.1346
-31.4552
-30.7045
-29.8764
-28.9656
-27.9651
-26.8686
-25.6699
-24.3606
-22.9327
-21.3785
-19.6875
-17.8508
-15.8596
-13.701
-11.3632
-8.8322
-6.09137
-3.12573
0.0866559
3.56737
7.34119
11.4396
15.8792
20.6975
25.9695
31.7063
37.8863
44.6013
51.905
59.7839
68.2844
77.4522
87.2956
97.8871
109.268
121.515
134.725
148.983
164.433
181.219
199.51
219.503
241.426
265.497
291.781
-35.3494
-35.5297
-35.6982
-35.8548
-36
-36.1344
-36.2589
-36.3726
-36.4751
-36.5678
-36.6519
-36.7262
-36.79
-36.8446
-36.8899
-36.9254
-36.9503
-36.9647
-36.9681
-36.9605
-36.9411
-36.9086
-36.8615
-36.7988
-36.721
-36.6251
-36.5087
-36.371
-36.2103
-36.0245
-35.8111
-35.5667
-35.2875
-34.9722
-34.6186
-34.2197
-33.7728
-33.2757
-32.7217
-32.1062
-31.4257
-30.6738
-29.8445
-28.9324
-27.9305
-26.8326
-25.6324
-24.3214
-22.8918
-21.3358
-19.6429
-17.8041
-15.8107
-13.6498
-11.3096
-8.77593
-6.03229
-3.06363
0.15199
3.63619
7.41379
11.5163
15.9603
20.7834
26.0608
31.8035
37.99
44.7124
52.0244
59.9125
68.4234
77.6027
87.459
98.0646
109.461
121.725
134.952
149.23
164.7
181.507
199.819
219.831
241.772
265.859
292.151
-35.3341
-35.5145
-35.683
-35.8396
-35.9847
-36.1191
-36.2436
-36.3572
-36.4596
-36.5522
-36.6362
-36.7103
-36.7739
-36.8283
-36.8734
-36.9087
-36.9334
-36.9475
-36.9507
-36.9427
-36.9229
-36.89
-36.8425
-36.7794
-36.7011
-36.6047
-36.4877
-36.3494
-36.1881
-36.0017
-35.7876
-35.5424
-35.2623
-34.9462
-34.5916
-34.1918
-33.7439
-33.2458
-32.6906
-32.0739
-31.3922
-30.6389
-29.8082
-28.8946
-27.8912
-26.7916
-25.5896
-24.2768
-22.8452
-21.2871
-19.592
-17.7508
-15.755
-13.5914
-11.2483
-8.71167
-5.96481
-2.99267
0.226671
3.71488
7.49684
11.604
16.0532
20.882
26.1655
31.9152
38.1094
44.8405
52.1621
60.061
68.5841
77.7765
87.6476
98.269
109.682
121.965
135.212
149.51
165.001
181.829
200.161
220.194
242.153
266.254
292.554
-35.3169
-35.4972
-35.6658
-35.8224
-35.9674
-36.1018
-36.2262
-36.3397
-36.442
-36.5345
-36.6184
-36.6923
-36.7558
-36.81
-36.8548
-36.8898
-36.9142
-36.928
-36.9308
-36.9225
-36.9023
-36.869
-36.821
-36.7574
-36.6785
-36.5815
-36.4639
-36.325
-36.163
-35.9757
-35.7608
-35.5147
-35.2338
-34.9167
-34.5611
-34.1602
-33.7111
-33.2117
-32.6553
-32.0372
-31.3541
-30.5993
-29.767
-28.8516
-27.8464
-26.7449
-25.5409
-24.2259
-22.7921
-21.2316
-19.534
-17.6901
-15.6914
-13.5248
-11.1784
-8.63827
-5.88771
-2.91157
0.312061
3.80489
7.59188
11.7044
16.1596
20.995
26.2857
32.0437
38.2468
44.9882
52.3212
60.2327
68.7699
77.9773
87.865
98.5041
109.936
122.239
135.506
149.826
165.338
182.187
200.541
220.593
242.571
266.685
292.992
-35.2973
-35.4777
-35.6462
-35.8028
-35.9478
-36.0822
-36.2065
-36.3198
-36.422
-36.5145
-36.5981
-36.6719
-36.7351
-36.7891
-36.8337
-36.8684
-36.8925
-36.9059
-36.9084
-36.8996
-36.8789
-36.8451
-36.7965
-36.7324
-36.6528
-36.5552
-36.4369
-36.2972
-36.1343
-35.9462
-35.7304
-35.4833
-35.2013
-34.8831
-34.5263
-34.1242
-33.6738
-33.173
-32.6151
-31.9955
-31.3107
-30.5541
-29.72
-28.8027
-27.7954
-26.6917
-25.4854
-24.168
-22.7316
-21.1683
-19.4678
-17.6208
-15.6188
-13.4487
-11.0986
-8.55442
-5.79959
-2.81886
0.409717
3.90788
7.70069
11.8195
16.2817
21.1248
26.4241
32.1917
38.4055
45.1588
52.5052
60.4312
68.9845
78.2088
88.1152
98.7735
110.226
122.55
135.839
150.18
165.714
182.585
200.961
221.033
243.028
267.156
293.467
-35.2751
-35.4555
-35.6241
-35.7806
-35.9256
-36.0599
-36.1841
-36.2973
-36.3994
-36.4917
-36.5752
-36.6487
-36.7117
-36.7654
-36.8097
-36.8441
-36.8678
-36.8808
-36.8828
-36.8736
-36.8524
-36.818
-36.7688
-36.704
-36.6237
-36.5253
-36.4062
-36.2656
-36.1019
-35.9128
-35.6958
-35.4477
-35.1645
-34.845
-34.4868
-34.0833
-33.6314
-33.129
-32.5694
-31.948
-31.2613
-30.5028
-29.6665
-28.747
-27.7373
-26.6311
-25.4222
-24.102
-22.6626
-21.0961
-19.3922
-17.5418
-15.5359
-13.3618
-11.0074
-8.45862
-5.69889
-2.71285
0.521434
4.02578
7.82537
11.9516
16.422
21.2741
26.5834
32.3625
38.5888
45.3562
52.7179
60.6606
69.232
78.4752
88.4019
99.0811
110.555
122.901
136.212
150.576
166.133
183.026
201.424
221.517
243.53
267.669
293.981
-35.2499
-35.4304
-35.5989
-35.7554
-35.9004
-36.0346
-36.1587
-36.2718
-36.3738
-36.4659
-36.5492
-36.6224
-36.6852
-36.7386
-36.7825
-36.8165
-36.8398
-36.8524
-36.8539
-36.8441
-36.8223
-36.7872
-36.7373
-36.6718
-36.5907
-36.4914
-36.3714
-36.2298
-36.065
-35.8747
-35.6566
-35.4071
-35.1226
-34.8017
-34.442
-34.0368
-33.5832
-33.079
-32.5174
-31.894
-31.2051
-30.4443
-29.6056
-28.6835
-27.6712
-26.5621
-25.3502
-24.0267
-22.5839
-21.0138
-19.3061
-17.4515
-15.4413
-13.2626
-10.9032
-8.34916
-5.58378
-2.59161
0.649286
4.16082
7.96832
12.1031
16.5832
21.446
26.7672
32.5598
38.8006
45.5842
52.9635
60.9251
69.5166
78.7804
88.729
99.4302
110.927
123.296
136.629
151.017
166.597
183.513
201.933
222.047
244.077
268.226
294.535
-35.2214
-35.4018
-35.5704
-35.7269
-35.8718
-36.0059
-36.1299
-36.2429
-36.3447
-36.4366
-36.5196
-36.5926
-36.6551
-36.7081
-36.7517
-36.7852
-36.808
-36.8201
-36.821
-36.8106
-36.7881
-36.7523
-36.7016
-36.6353
-36.5532
-36.4529
-36.3318
-36.1891
-36.0231
-35.8315
-35.612
-35.3611
-35.075
-34.7525
-34.391
-33.9839
-33.5284
-33.0221
-32.4583
-31.8326
-31.1412
-30.3777
-29.5363
-28.6113
-27.5959
-26.4835
-25.2681
-23.9409
-22.4942
-20.92
-19.2078
-17.3486
-15.3334
-13.1493
-10.7843
-8.2241
-5.45219
-2.45293
0.795657
4.31557
8.13233
12.2773
16.7687
21.6441
26.9792
32.7875
39.0452
45.8473
53.2463
61.2288
69.8423
79.1282
89.0999
99.8242
111.344
123.737
137.094
151.506
167.11
184.05
202.493
222.627
244.673
268.829
295.13
-35.189
-35.3695
-35.538
-35.6945
-35.8393
-35.9734
-36.0972
-36.21
-36.3117
-36.4034
-36.4861
-36.5588
-36.6209
-36.6736
-36.7167
-36.7497
-36.772
-36.7835
-36.7837
-36.7726
-36.7493
-36.7126
-36.6611
-36.5937
-36.5106
-36.4091
-36.2869
-36.1429
-35.9755
-35.7825
-35.5613
-35.3087
-35.0209
-34.6965
-34.333
-33.9238
-33.4661
-32.9573
-32.391
-31.7627
-31.0685
-30.302
-29.4574
-28.529
-27.5101
-26.394
-25.1745
-23.8431
-22.3919
-20.8129
-19.0958
-17.2312
-15.2102
-13.02
-10.6484
-8.08121
-5.30175
-2.29426
0.96327
4.49298
8.32058
12.4774
16.9822
21.8722
27.2235
33.05
39.3268
46.1497
53.5706
61.5758
70.213
79.5224
89.5184
100.267
111.811
124.228
137.61
152.047
167.676
184.64
203.106
223.26
245.319
269.478
295.763
-35.1522
-35.3327
-35.5013
-35.6577
-35.8025
-35.9364
-36.0601
-36.1727
-36.2742
-36.3657
-36.4481
-36.5203
-36.5821
-36.6343
-36.6769
-36.7094
-36.731
-36.7418
-36.7414
-36.7294
-36.7052
-36.6676
-36.615
-36.5466
-36.4623
-36.3595
-36.2358
-36.0904
-35.9214
-35.7267
-35.5038
-35.2492
-34.9594
-34.6329
-34.267
-33.8554
-33.3952
-32.8837
-32.3145
-31.6831
-30.9857
-30.2158
-29.3676
-28.4354
-27.4124
-26.292
-25.068
-23.7318
-22.2754
-20.691
-18.968
-17.0973
-15.0697
-12.8725
-10.4933
-7.91798
-5.12978
-2.11275
1.15519
4.69632
8.53658
12.7073
17.2276
22.1346
27.5045
33.3518
39.65
46.4959
53.9406
61.9703
70.6327
79.9668
89.9883
100.762
112.332
124.775
138.182
152.645
168.299
185.287
203.775
223.947
246.016
270.173
296.434
-35.1105
-35.291
-35.4596
-35.616
-35.7607
-35.8945
-36.018
-36.1304
-36.2316
-36.3228
-36.4049
-36.4767
-36.5381
-36.5898
-36.6318
-36.6636
-36.6846
-36.6946
-36.6933
-36.6804
-36.6552
-36.6165
-36.5627
-36.493
-36.4073
-36.303
-36.1778
-36.0307
-35.86
-35.6633
-35.4383
-35.1816
-34.8896
-34.5606
-34.1921
-33.7777
-33.3146
-32.8
-32.2275
-31.5927
-30.8915
-30.1177
-29.2654
-28.3288
-27.3012
-26.1759
-24.9467
-23.6049
-22.1427
-20.552
-18.8224
-16.9446
-14.9095
-12.7041
-10.3163
-7.73159
-4.93328
-1.90519
1.37482
4.92923
8.7842
12.9711
17.5092
22.4356
27.8267
33.6974
40.0193
46.8902
54.3606
62.4165
71.1056
80.4657
90.514
101.314
112.91
125.38
138.813
153.302
168.982
185.994
204.503
224.69
246.766
270.913
297.139
-35.0631
-35.2437
-35.4122
-35.5686
-35.7132
-35.8469
-35.9702
-36.0823
-36.1833
-36.2742
-36.3558
-36.4272
-36.4881
-36.5392
-36.5805
-36.6116
-36.6318
-36.6409
-36.6387
-36.6248
-36.5984
-36.5584
-36.5033
-36.4322
-36.3449
-36.2389
-36.112
-35.963
-35.7901
-35.5913
-35.364
-35.1048
-34.8101
-34.4784
-34.1069
-33.6894
-33.2229
-32.7048
-32.1286
-31.4897
-30.7844
-30.0062
-29.1491
-28.2075
-27.1746
-26.0437
-24.8085
-23.4605
-21.9916
-20.3937
-18.6565
-16.7707
-14.7268
-12.5122
-10.1144
-7.51888
-4.70891
-1.66806
1.62592
5.19568
9.06763
13.273
17.8316
22.78
28.1949
34.0914
40.4393
47.3372
54.8349
62.9188
71.6361
81.0236
91.0999
101.927
113.551
126.048
139.508
154.023
169.727
186.763
205.29
225.49
247.567
271.694
297.872
-35.0093
-35.19
-35.3585
-35.5148
-35.6594
-35.7929
-35.9159
-36.0278
-36.1285
-36.219
-36.3001
-36.371
-36.4313
-36.4817
-36.5223
-36.5526
-36.5718
-36.58
-36.5766
-36.5615
-36.5338
-36.4924
-36.4358
-36.363
-36.274
-36.1661
-36.0371
-35.8859
-35.7108
-35.5095
-35.2795
-35.0175
-34.7198
-34.3849
-34.01
-33.5889
-33.1187
-32.5965
-32.016
-31.3727
-30.6626
-29.8793
-29.0168
-28.0696
-27.0306
-25.8934
-24.6514
-23.2961
-21.8195
-20.2135
-18.4676
-16.5726
-14.5188
-12.2935
-9.88427
-7.27636
-4.45299
-1.39744
1.9126
5.49998
9.39134
13.6179
18.1997
23.1727
28.6136
34.5398
40.9139
47.8413
55.3684
63.482
72.2291
81.6452
91.7506
102.606
114.258
126.783
140.269
154.81
170.539
187.595
206.139
226.346
248.416
272.513
298.623
-34.9483
-35.129
-35.2975
-35.4537
-35.5982
-35.7315
-35.8543
-35.9658
-36.0662
-36.1563
-36.2369
-36.3072
-36.3668
-36.4165
-36.4562
-36.4855
-36.5037
-36.5108
-36.5062
-36.4897
-36.4605
-36.4174
-36.3591
-36.2845
-36.1934
-36.0833
-35.952
-35.7984
-35.6206
-35.4165
-35.1835
-34.9182
-34.6172
-34.2787
-33.8999
-33.4748
-33.0003
-32.4735
-31.8881
-31.2397
-30.5241
-29.735
-28.8665
-27.9127
-26.8669
-25.7224
-24.4726
-23.1091
-21.6238
-20.0085
-18.2527
-16.3471
-14.282
-12.0446
-9.62224
-7.00015
-4.16143
-1.08907
2.23933
5.84681
9.76028
14.0106
18.6183
23.6172
29.091
35.0486
41.4452
48.4079
55.9664
64.1113
72.8895
82.3353
92.4707
103.355
115.036
127.588
141.1
155.667
171.417
188.492
207.048
227.256
249.31
273.361
299.381
-35.0598
-35.2283
-35.3844
-35.5287
-35.6619
-35.7843
-35.8955
-35.9954
-36.0851
-36.1651
-36.2346
-36.2935
-36.3424
-36.3811
-36.4093
-36.4264
-36.4321
-36.4261
-36.4081
-36.3772
-36.3323
-36.2719
-36.1953
-36.1019
-35.9893
-35.8554
-35.699
-35.5182
-35.3108
-35.0744
-34.8055
-34.5006
-34.1581
-33.7748
-33.345
-32.8657
-32.3336
-31.7427
-31.0885
-30.3667
-29.571
-28.6955
-27.7344
-26.6808
-25.528
-24.2695
-22.8966
-21.4014
-19.7754
-18.0084
-16.0908
-14.0128
-11.7615
-9.32421
-6.68595
-3.82973
-0.738226
2.61103
6.24129
10.1796
14.4564
19.0922
24.1207
29.637
35.6141
42.0416
49.0434
56.6338
64.8116
73.6221
83.0985
93.2645
104.178
115.887
128.466
142.004
156.594
172.364
189.454
208.016
228.217
250.241
274.228
300.131
-34.9812
-35.1497
-35.3057
-35.4499
-35.5828
-35.7048
-35.8156
-35.9151
-36.0042
-36.0835
-36.1523
-36.2103
-36.2582
-36.2959
-36.3228
-36.3385
-36.3428
-36.3352
-36.3154
-36.2825
-36.2355
-36.173
-36.0939
-35.9979
-35.8825
-35.7456
-35.586
-35.4018
-35.1908
-34.9504
-34.6774
-34.3682
-34.021
-33.6327
-33.1977
-32.7128
-32.1747
-31.5776
-30.9167
-30.1879
-29.3847
-28.5014