/*--------------------------------*- C++ -*----------------------------------*\
| =========                 |                                                 |
| \\      /  F ield         | OpenFOAM: The Open Source CFD Toolbox           |
|  \\    /   O peration     | Version:  2412                                  |
|   \\  /    A nd           | Website:  www.openfoam.com                      |
|    \\/     M anipulation  |                                                 |
\*---------------------------------------------------------------------------*/
FoamFile
{
    version     2.0;
    format      ascii;
    arch        "LSB;label=32;scalar=64";
    class       volScalarField;
    location    "60";
    object      p;
}
// * * * * * * * * * * * * * * * * * * * * * * * * * * * * * * * * * * * * * //

dimensions      [0 2 -2 0 0 0 0];

internalField   nonuniform List<scalar> 
7373
(
35.2142
34.9569
34.7523
34.6109
34.5378
34.5355
34.6103
34.7662
35.0051
35.3327
35.7593
36.2924
36.9379
37.7024
38.5976
39.6364
40.8287
42.182
43.7167
45.4441
47.3789
49.5409
51.9445
54.6109
57.5606
60.816
64.3993
68.3347
72.6492
77.3711
82.5309
88.16
94.2908
100.957
108.2
116.057
124.572
133.787
143.752
154.519
166.144
178.682
192.202
206.774
222.474
239.387
257.605
277.233
298.388
321.188
345.782
372.32
400.974
431.923
465.367
501.465
540.399
582.228
626.83
673.749
721.794
767.924
804.804
817.638
771.234
608.354
263.455
-456.599
35.2143
34.9569
34.7523
34.6109
34.5378
34.5355
34.6103
34.7662
35.0051
35.3327
35.7593
36.2924
36.9379
37.7023
38.5976
39.6363
40.8287
42.1819
43.7167
45.444
47.3788
49.5409
51.9444
54.6108
57.5605
60.8159
64.3992
68.3346
72.649
77.371
82.5308
88.1598
94.2907
100.957
108.2
116.057
124.571
133.787
143.752
154.519
166.143
178.682
192.202
206.774
222.473
239.387
257.604
277.233
298.387
321.188
345.781
372.319
400.973
431.922
465.366
501.464
540.398
582.227
626.829
673.748
721.793
767.922
804.802
817.634
771.228
608.348
263.455
-456.552
35.2143
34.9569
34.7523
34.6109
34.5379
34.5355
34.6103
34.7662
35.0051
35.3327
35.7593
36.2924
36.9379
37.7023
38.5976
39.6363
40.8286
42.1819
43.7166
45.444
47.3788
49.5408
51.9444
54.6107
57.5604
60.8158
64.3991
68.3345
72.6489
77.3708
82.5306
88.1596
94.2905
100.956
108.199
116.056
124.571
133.787
143.751
154.519
166.143
178.681
192.201
206.773
222.473
239.386
257.604
277.232
298.387
321.187
345.78
372.318
400.972
431.921
465.365
501.463
540.396
582.226
626.828
673.746
721.791
767.92
804.799
817.628
771.217
608.331
263.426
-456.538
35.2143
34.957
34.7524
34.6109
34.5379
34.5355
34.6104
34.7662
35.0051
35.3327
35.7593
36.2924
36.9379
37.7023
38.5975
39.6363
40.8286
42.1819
43.7166
45.444
47.3787
49.5408
51.9443
54.6107
57.5604
60.8157
64.399
68.3344
72.6488
77.3707
82.5305
88.1595
94.2903
100.956
108.199
116.056
124.571
133.786
143.751
154.518
166.142
178.681
192.201
206.773
222.472
239.386
257.603
277.231
298.386
321.186
345.78
372.317
400.971
431.919
465.364
501.462
540.395
582.224
626.826
673.745
721.79
767.918
804.796
817.622
771.204
608.307
263.389
-456.497
35.2144
34.9571
34.7525
34.611
34.538
34.5356
34.6104
34.7663
35.0052
35.3328
35.7594
36.2925
36.9379
37.7024
38.5976
39.6363
40.8287
42.1819
43.7166
45.444
47.3788
49.5408
51.9443
54.6107
57.5604
60.8157
64.399
68.3344
72.6488
77.3707
82.5304
88.1594
94.2903
100.956
108.199
116.056
124.571
133.786
143.751
154.518
166.142
178.68
192.2
206.773
222.472
239.385
257.603
277.231
298.385
321.185
345.779
372.316
400.97
431.919
465.363
501.461
540.394
582.224
626.826
673.744
721.789
767.917
804.793
817.614
771.188
608.283
263.368
-456.376
35.2146
34.9573
34.7527
34.6112
34.5382
34.5358
34.6106
34.7664
35.0053
35.3329
35.7595
36.2926
36.9381
37.7025
38.5977
39.6365
40.8288
42.1821
43.7168
45.4441
47.3789
49.5409
51.9445
54.6108
57.5605
60.8159
64.3992
68.3345
72.6489
77.3708
82.5306
88.1596
94.2904
100.956
108.199
116.056
124.571
133.786
143.751
154.518
166.142
178.68
192.2
206.772
222.472
239.385
257.602
277.23
298.385
321.185
345.779
372.316
400.97
431.918
465.363
501.461
540.394
582.224
626.826
673.745
721.79
767.917
804.791
817.606
771.17
608.262
263.379
-456.132
35.2149
34.9576
34.753
34.6115
34.5385
34.5361
34.6109
34.7667
35.0056
35.3332
35.7598
36.293
36.9384
37.7028
38.5981
39.6368
40.8291
42.1824
43.7171
45.4445
47.3793
49.5413
51.9449
54.6112
57.5609
60.8163
64.3996
68.335
72.6494
77.3713
82.5311
88.1601
94.2909
100.957
108.2
116.057
124.571
133.787
143.752
154.519
166.143
178.681
192.201
206.773
222.472
239.386
257.603
277.231
298.385
321.186
345.779
372.317
400.971
431.919
465.364
501.462
540.396
582.226
626.828
673.747
721.792
767.919
804.79
817.598
771.151
608.248
263.438
-455.718
35.2154
34.958
34.7534
34.612
34.5389
34.5365
34.6114
34.7672
35.0061
35.3337
35.7604
36.2935
36.9389
37.7034
38.5986
39.6374
40.8298
42.183
43.7178
45.4452
47.38
49.542
51.9456
54.612
57.5617
60.8171
64.4004
68.3359
72.6503
77.3722
82.532
88.1611
94.2919
100.958
108.201
116.058
124.573
133.788
143.753
154.52
166.144
178.682
192.202
206.774
222.474
239.387
257.604
277.233
298.387
321.187
345.781
372.319
400.973
431.922
465.367
501.465
540.4
582.23
626.833
673.753
721.798
767.924
804.792
817.589
771.13
608.244
263.557
-455.081
35.2161
34.9587
34.7542
34.6127
34.5397
34.5373
34.6121
34.768
35.0069
35.3345
35.7612
36.2943
36.9398
37.7043
38.5996
39.6384
40.8307
42.1841
43.7188
45.4463
47.3811
49.5432
51.9468
54.6133
57.563
60.8185
64.4019
68.3373
72.6518
77.3738
82.5337
88.1627
94.2937
100.96
108.203
116.06
124.575
133.79
143.755
154.522
166.146
178.685
192.205
206.777
222.476
239.39
257.607
277.236
298.39
321.191
345.785
372.323
400.977
431.927
465.372
501.471
540.407
582.238
626.842
673.763
721.808
767.933
804.795
817.578
771.109
608.257
263.746
-454.163
35.2171
34.9597
34.7552
34.6137
34.5407
34.5384
34.6132
34.7691
35.0081
35.3357
35.7624
36.2956
36.9411
37.7056
38.6009
39.6397
40.8322
42.1855
43.7204
45.4479
47.3828
49.5449
51.9486
54.6151
57.565
60.8205
64.404
68.3395
72.6541
77.3762
82.5361
88.1653
94.2964
100.963
108.206
116.063
124.578
133.793
143.758
154.526
166.15
178.689
192.209
206.781
222.481
239.395
257.612
277.241
298.396
321.197
345.791
372.33
400.985
431.935
465.381
501.481
540.418
582.251
626.856
673.778
721.824
767.946
804.801
817.567
771.087
608.292
264.019
-452.894
-1282.02
35.2184
34.9611
34.7565
34.6151
34.5421
34.5398
34.6147
34.7706
35.0096
35.3373
35.764
36.2972
36.9428
37.7074
38.6028
39.6417
40.8342
42.1876
43.7225
45.4501
47.3851
49.5473
51.9511
54.6177
57.5677
60.8233
64.4069
68.3426
72.6573
77.3796
82.5397
88.169
94.3002
100.967
108.21
116.067
124.582
133.798
143.763
154.531
166.156
178.695
192.215
206.788
222.488
239.402
257.62
277.249
298.404
321.206
345.801
372.34
400.996
431.947
465.395
501.496
540.434
582.269
626.876
673.799
721.846
767.965
804.809
817.554
771.066
608.354
264.398
-451.203
-1278.94
-2055.6
35.2201
34.9628
34.7583
34.6169
34.5439
34.5417
34.6166
34.7726
35.0116
35.3394
35.7662
36.2994
36.9451
37.7097
38.6052
39.6442
40.8368
42.1903
43.7254
45.453
47.3882
49.5505
51.9545
54.6212
57.5713
60.8272
64.4109
68.3468
72.6617
77.3841
82.5444
88.174
94.3054
100.972
108.216
116.073
124.589
133.805
143.77
154.538
166.163
178.703
192.224
206.797
222.497
239.412
257.631
277.26
298.417
321.219
345.815
372.355
401.012
431.965
465.414
501.518
540.458
582.295
626.904
673.829
721.875
767.99
804.82
817.54
771.046
608.451
264.882
-449.034
-1275.07
-2050.89
-2538.35
35.2222
34.9649
34.7605
34.6191
34.5462
34.544
34.619
34.7751
35.0141
35.342
35.7689
36.3022
36.948
37.7127
38.6083
39.6474
40.8401
42.1938
43.729
45.4568
47.3921
49.5547
51.9588
54.6258
57.5761
60.8321
64.4161
68.3522
72.6673
77.3901
82.5507
88.1805
94.3123
100.979
108.223
116.081
124.597
133.814
143.78
154.548
166.174
178.713
192.235
206.809
222.51
239.425
257.645
277.276
298.433
321.236
345.834
372.376
401.034
431.989
465.44
501.546
540.489
582.329
626.941
673.868
721.913
768.02
804.831
817.523
771.028
608.595
265.449
-446.343
-1270.26
-2045.21
-2533.88
35.2248
34.9676
34.7632
34.6219
34.5491
34.5469
34.622
34.7782
35.0173
35.3453
35.7723
36.3057
36.9516
37.7165
38.6122
39.6515
40.8444
42.1983
43.7336
45.4617
47.3972
49.5599
51.9643
54.6315
57.5821
60.8384
64.4227
68.3591
72.6746
77.3977
82.5587
88.1889
94.3211
100.988
108.233
116.091
124.608
133.825
143.792
154.561
166.187
178.727
192.25
206.825
222.527
239.443
257.664
277.296
298.454
321.26
345.858
372.402
401.063
432.021
465.475
501.584
540.531
582.374
626.989
673.916
721.959
768.056
804.844
817.504
771.013
608.799
266.075
-443.112
-1264.5
-2038.46
-2528.37
35.228
34.9709
34.7665
34.6253
34.5526
34.5505
34.6257
34.782
35.0213
35.3493
35.7765
36.3101
36.9561
37.7212
38.6171
39.6566
40.8497
42.2038
43.7394
45.4677
47.4035
49.5665
51.9712
54.6387
57.5897
60.8463
64.431
68.3678
72.6837
77.4073
82.5687
88.1995
94.3322
101
108.245
116.104
124.621
133.839
143.807
154.577
166.204
178.745
192.269
206.845
222.548
239.466
257.688
277.322
298.482
321.289
345.89
372.437
401.101
432.061
465.519
501.633
540.583
582.43
627.048
673.976
722.013
768.096
804.856
817.481
771
609.071
266.755
-439.351
-1257.89
-2030.45
-2521.52
35.232
34.9749
34.7706
34.6295
34.5569
34.555
34.6303
34.7867
35.0261
35.3544
35.7817
36.3155
36.9617
37.727
38.6232
39.6629
40.8562
42.2106
43.7465
45.4751
47.4113
49.5747
51.9797
54.6477
57.599
60.8561
64.4413
68.3786
72.6951
77.4192
82.5812
88.2126
94.346
101.015
108.26
116.12
124.638
133.857
143.826
154.597
166.225
178.768
192.292
206.87
222.575
239.494
257.718
277.354
298.517
321.327
345.931
372.48
401.148
432.112
465.575
501.693
540.648
582.499
627.119
674.046
722.076
768.141
804.867
817.454
770.988
609.409
267.501
-435.071
-1250.47
-2021.06
-2513.07
35.2368
34.9798
34.7757
34.6347
34.5622
34.5604
34.6359
34.7924
35.0321
35.3605
35.788
36.3221
36.9686
37.7341
38.6306
39.6706
40.8643
42.219
43.7553
45.4843
47.4208
49.5847
51.9902
54.6586
57.6105
60.8682
64.4539
68.3919
72.709
77.4338
82.5966
88.2288
94.363
101.033
108.279
116.14
124.659
133.879
143.849
154.621
166.251
178.795
192.322
206.901
222.608
239.529
257.756
277.394
298.56
321.373
345.98
372.534
401.206
432.175
465.643
501.766
540.726
582.581
627.202
674.126
722.146
768.189
804.877
817.422
770.976
609.809
268.331
-430.259
-1242.14
-2010.27
-2502.92
35.2426
34.9858
34.7818
34.641
34.5686
34.567
34.6427
34.7995
35.0393
35.368
35.7958
36.3301
36.9769
37.7428
38.6396
39.68
40.874
42.2292
43.7659
45.4954
47.4325
49.5969
52.003
54.672
57.6245
60.8829
64.4693
68.4081
72.726
77.4516
82.6153
88.2485
94.3837
101.054
108.302
116.164
124.685
133.906
143.877
154.651
166.283
178.829
192.357
206.939
222.648
239.572
257.802
277.443
298.612
321.429
346.041
372.599
401.277
432.251
465.725
501.852
540.817
582.676
627.297
674.216
722.222
768.24
804.885
817.384
770.961
610.269
269.255
-424.866
-1232.78
-1998.03
-2491.16
35.2497
34.9931
34.7893
34.6486
34.5765
34.575
34.651
34.808
35.0481
35.3771
35.8052
36.3399
36.987
37.7533
38.6505
39.6913
40.8859
42.2416
43.7788
45.5089
47.4466
49.6116
52.0184
54.6882
57.6415
60.9007
64.488
68.4276
72.7465
77.4732
82.6379
88.2723
94.4087
101.081
108.33
116.194
124.716
133.938
143.912
154.687
166.321
178.869
192.4
206.984
222.696
239.624
257.857
277.502
298.675
321.497
346.114
372.678
401.361
432.342
465.821
501.953
540.924
582.783
627.404
674.315
722.306
768.294
804.89
817.338
770.94
610.792
270.274
-418.835
-1222.3
-1984.22
-2477.81
35.2583
35.0019
34.7983
34.6578
34.5859
34.5847
34.6609
34.8182
35.0586
35.388
35.8165
36.3515
36.9991
37.7659
38.6636
39.705
40.9001
42.2564
43.7943
45.5251
47.4635
49.6293
52.0369
54.7076
57.6618
60.922
64.5103
68.4511
72.7711
77.499
82.6651
88.3008
94.4387
101.112
108.363
116.229
124.752
133.977
143.953
154.731
166.367
178.918
192.452
207.039
222.755
239.686
257.923
277.573
298.751
321.578
346.201
372.771
401.46
432.448
465.927
502.074
541.044
582.904
627.522
674.425
722.398
768.352
804.891
817.282
770.909
611.377
271.391
-412.104
-1210.59
-1968.76
-2462.72
39.3419
38.6586
38.0261
37.4415
36.903
36.4115
35.9745
35.5894
35.2686
35.0125
34.809
34.6688
34.5972
34.5963
34.6728
34.8305
35.0713
35.4011
35.83
36.3655
37.0136
37.781
38.6793
39.7213
40.9171
42.2742
43.8128
45.5444
47.4837
49.6504
52.059
54.7308
57.6861
60.9474
64.537
68.479
72.8005
77.5299
82.6975
88.3348
94.4745
101.15
108.403
116.27
124.796
134.024
144.002
154.783
166.421
178.976
192.513
207.104
222.824
239.759
258.001
277.656
298.84
321.673
346.302
372.879
401.575
432.569
466.05
502.208
541.178
583.039
627.653
674.546
722.498
768.413
804.888
817.213
770.866
612.027
272.615
-404.606
-1197.53
-1951.52
-2445.67
39.353
38.6698
38.0373
37.4528
36.9144
36.423
35.9862
35.6013
35.2809
35.025
34.8219
34.6819
34.6106
34.6101
34.687
34.8451
35.0863
35.4166
35.846
36.3822
37.0309
37.7989
38.6979
39.7407
40.9373
42.2952
43.8348
45.5673
47.5077
49.6755
52.0853
54.7582
57.7149
60.9776
64.5686
68.5122
72.8353
77.5664
82.7359
88.3751
94.5168
101.194
108.45
116.32
124.848
134.079
144.059
154.844
166.486
179.044
192.585
207.181
222.905
239.846
258.093
277.754
298.944
321.784
346.42
373.003
401.705
432.706
466.193
502.354
541.327
583.189
627.799
674.68
722.607
768.477
804.879
817.127
770.805
612.735
273.962
-396.267
-1182.99
-1932.35
-2426.49
39.3662
38.6831
38.0507
37.4663
36.928
36.4368
36.0002
35.6155
35.2955
35.0399
34.8371
34.6975
34.6265
34.6264
34.7038
34.8623
35.1041
35.435
35.8651
36.4019
37.0513
37.8201
38.72
39.7636
40.9611
42.3201
43.8608
45.5945
47.536
49.7052
52.1163
54.7907
57.7489
61.0132
64.6059
68.5514
72.8763
77.6095
82.7811
88.4227
94.5668
101.247
108.505
116.378
124.91
134.143
144.127
154.915
166.562
179.124
192.67
207.271
223
239.947
258.201
277.868
299.064
321.911
346.553
373.143
401.851
432.858
466.352
502.517
541.494
583.355
627.96
674.827
722.725
768.545
804.863
817.021
770.722
613.489
275.452
-387.009
-1166.84
-1911.03
-2405.14
39.3819
38.6989
38.0667
37.4824
36.9443
36.4533
36.0169
35.6325
35.3128
35.0575
34.855
34.7158
34.6453
34.6457
34.7236
34.8827
35.1251
35.4567
35.8875
36.4251
37.0753
37.845
38.7459
39.7906
40.9892
42.3494
43.8913
45.6263
47.5694
49.74
52.1527
54.8288
57.7888
61.055
64.6498
68.5973
72.9245
77.6601
82.8342
88.4784
94.6253
101.308
108.57
116.446
124.981
134.218
144.207
154.999
166.65
179.218
192.769
207.375
223.111
240.064
258.324
277.998
299.201
322.054
346.703
373.3
402.015
433.029
466.529
502.699
541.679
583.54
628.138
674.989
722.855
768.615
804.835
816.89
770.611
614.282
277.104
-376.755
-1148.94
-1887.32
-2381.49
39.4004
38.7176
38.0855
37.5014
36.9635
36.4727
36.0365
35.6525
35.3331
35.0782
34.8761
34.7373
34.6673
34.6683
34.7468
34.9066
35.1497
35.4821
35.9138
36.4523
37.1035
37.8743
38.7763
39.8222
41.0221
42.3837
43.9271
45.6637
47.6084
49.7808
52.1954
54.8735
57.8355
61.1039
64.701
68.651
72.9809
77.7191
82.8962
88.5434
94.6936
101.38
108.645
116.525
125.065
134.306
144.299
155.097
166.753
179.326
192.883
207.495
223.238
240.197
258.463
278.144
299.354
322.215
346.871
373.475
402.199
433.22
466.726
502.902
541.885
583.745
628.336
675.167
722.995
768.686
804.793
816.727
770.464
615.108
278.933
-365.426
-1129.15
-1861.02
-2355.26
39.422
38.7394
38.1075
37.5236
36.9859
36.4954
36.0594
35.6758
35.3569
35.1023
34.9008
34.7625
34.6931
34.6947
34.774
34.9346
35.1785
35.5118
35.9445
36.484
37.1364
37.9085
38.8118
39.8592
41.0605
42.4238
43.9689
45.7073
47.6539
49.8283
52.2451
54.9255
57.89
61.1609
64.7607
68.7135
73.0464
77.7879
82.9682
88.619
94.7729
101.464
108.732
116.617
125.161
134.408
144.406
155.209
166.872
179.451
193.014
207.632
223.381
240.347
258.621
278.309
299.527
322.395
347.06
373.672
402.404
433.434
466.948
503.129
542.116
583.974
628.555
675.363
723.146
768.757
804.733
816.524
770.27
615.957
280.959
-352.943
-1107.32
-1831.94
-2326.21
39.4472
38.7648
38.1331
37.5494
37.0119
36.5218
36.0862
35.703
35.3846
35.1304
34.9295
34.7919
34.7231
34.7255
34.8056
34.9671
35.2121
35.5465
35.9803
36.5211
37.1748
37.9483
38.8532
39.9021
41.1052
42.4704
44.0174
45.7579
47.7068
49.8835
52.3028
54.9858
57.9531
61.227
64.8299
68.786
73.1223
77.8674
83.0517
88.7066
94.8647
101.56
108.834
116.723
125.273
134.525
144.529
155.338
167.006
179.592
193.162
207.787
223.543
240.516
258.797
278.494
299.72
322.597
347.271
373.893
402.634
433.673
467.195
503.383
542.372
584.228
628.797
675.578
723.308
768.824
804.648
816.273
770.018
616.814
283.211
-339.229
-1083.31
-1799.9
-2294.08
39.4765
38.7944
38.1629
37.5794
37.0423
36.5525
36.1173
35.7347
35.4168
35.1632
34.9629
34.826
34.758
34.7613
34.8424
35.0049
35.251
35.5867
36.0218
36.564
37.2193
37.9944
38.9011
39.952
41.157
42.5244
44.0737
45.8166
47.768
49.9475
52.3696
55.0557
58.0261
61.3034
64.9098
68.8697
73.21
77.9593
83.1479
88.8074
94.9705
101.671
108.95
116.845
125.4
134.658
144.669
155.484
167.159
179.751
193.328
207.96
223.724
240.706
258.996
278.701
299.937
322.824
347.508
374.141
402.892
433.94
467.471
503.665
542.658
584.509
629.063
675.811
723.478
768.884
804.53
815.96
769.693
617.664
285.735
-324.23
-1057
-1764.68
-2258.59
39.5104
38.8287
38.1974
37.6143
37.0774
36.5881
36.1534
35.7714
35.4541
35.2011
35.0015
34.8655
34.7985
34.8028
34.885
35.0487
35.2961
35.6332
36.0699
36.6137
37.2707
38.0478
38.9566
40.0096
41.2169
42.5867
44.1386
45.8843
47.8387
50.0212
52.4466
55.1361
58.1103
61.3914
65.0018
68.966
73.3108
78.0648
83.2584
88.9231
95.0914
101.797
109.082
116.983
125.545
134.809
144.826
155.648
167.33
179.93
193.515
208.156
223.928
240.919
259.218
278.934
300.18
323.078
347.774
374.418
403.181
434.24
467.78
503.98
542.975
584.821
629.356
676.064
723.656
768.932
804.37
815.571
769.277
618.494
288.588
-307.916
-1028.27
-1726.12
-2219.49
39.5496
38.8683
38.2373
37.6545
37.1181
36.6292
36.1951
35.8138
35.4972
35.2449
35.0462
34.9111
34.8452
34.8507
34.9342
35.0993
35.3482
35.6869
36.1253
36.671
37.3301
38.1094
39.0204
40.0759
41.2859
42.6585
44.2134
45.9622
47.92
50.106
52.5352
55.2286
58.2068
61.4923
65.1073
69.0763
73.426
78.1852
83.3842
89.0545
95.2286
101.941
109.232
117.139
125.707
134.979
145.003
155.833
167.523
180.131
193.725
208.375
224.157
241.158
259.469
279.196
300.454
323.364
348.072
374.729
403.504
434.574
468.124
504.331
543.326
585.164
629.676
676.335
723.839
768.96
804.156
815.087
768.746
619.292
291.825
-290.269
-997.035
-1684.08
-2176.39
-2410.42
39.5948
38.914
38.2834
37.701
37.165
36.6767
36.2431
35.8627
35.547
35.2954
35.0978
34.9638
34.899
34.9058
34.9908
35.1575
35.4081
35.7488
36.1891
36.7369
37.3984
38.1801
39.0939
40.1522
41.3651
42.7409
44.2991
46.0515
48.0131
50.203
52.6364
55.3342
58.3171
61.6073
65.2273
69.2015
73.5567
78.3216
83.5265
89.2029
95.3833
102.102
109.4
117.315
125.89
135.17
145.202
156.041
167.74
180.357
193.961
208.622
224.415
241.427
259.75
279.49
300.761
323.685
348.406
375.077
403.865
434.947
468.507
504.72
543.715
585.541
630.023
676.623
724.021
768.96
803.872
814.485
768.074
619.98
295.495
-271.278
-963.216
-1638.39
-2128.96
-2369.96
39.647
38.9666
38.3364
37.7544
37.2189
36.7314
36.2985
35.919
35.6042
35.3535
35.1571
35.0242
34.9608
34.9691
35.0559
35.2246
35.477
35.8197
36.2623
36.8127
37.4767
38.2612
39.1779
40.2394
41.4556
42.835
44.397
46.1533
48.1191
50.3134
52.7514
55.4541
58.442
61.7375
65.3631
69.343
73.7042
78.4754
83.6868
89.37
95.5576
102.284
109.589
117.512
126.096
135.385
145.427
156.275
167.984
180.612
194.227
208.899
224.705
241.73
260.066
279.82
301.105
324.044
348.78
375.466
404.268
435.363
468.933
505.151
544.143
585.953
630.398
676.926
724.196
768.92
803.498
813.737
767.228
620.455
299.627
-250.967
-926.786
-1588.93
-2077.35
-2325.42
40.4298
39.7069
39.0271
38.3973
37.8158
37.281
36.7941
36.362
35.9836
35.67
35.4204
35.2252
35.0936
35.0317
35.0419
35.1307
35.3013
35.5558
35.9008
36.3458
36.899
37.5659
38.3535
39.2735
40.3385
41.5584
42.9419
44.508
46.2687
48.2392
50.4383
52.8814
55.5895
58.583
61.8844
65.5161
69.5025
73.8705
78.6487
83.8675
89.5584
95.754
102.489
109.803
117.735
126.329
135.627
145.679
156.538
168.259
180.899
194.526
209.212
225.031
242.07
260.421
280.19
301.491
324.446
349.199
375.9
404.717
435.826
469.405
505.626
544.613
586.401
630.799
677.24
724.356
768.823
803.01
812.808
766.164
620.751
304.227
-229.413
-887.761
-1535.69
-2021.36
-2276.54
40.4982
39.7757
39.0965
38.4672
37.8864
37.3521
36.8661
36.4349
36.0578
35.7455
35.4968
35.3026
35.1726
35.1125
35.1247
35.2158
35.3883
35.6451
35.9927
36.4406
36.9969
37.667
38.4581
39.3818
40.4508
41.6747
43.0627
44.6334
46.399
48.3747
50.5792
53.0281
55.7421
58.742
62.05
65.6886
69.6823
74.0579
78.8441
84.0712
89.7707
95.9753
102.719
110.044
117.986
126.59
135.9
145.964
156.835
168.568
181.222
194.863
209.562
225.397
242.452
260.819
280.605
301.923
324.896
349.666
376.384
405.217
436.339
469.927
506.15
545.126
586.886
631.224
677.557
724.488
768.651
802.378
811.658
764.834
620.884
309.288
-206.709
-846.2
-1478.67
-1960.94
-2223.16
40.5766
39.8545
39.176
38.5473
37.9668
37.4329
36.9479
36.5178
36.1422
35.831
35.5833
35.3902
35.2623
35.2042
35.2185
35.3119
35.4868
35.7462
36.0968
36.5479
37.1076
37.7812
38.5762
39.5041
40.5774
41.8059
43.1989
44.7749
46.546
48.5275
50.7381
53.1935
55.9143
58.9213
62.2367
65.8832
69.885
74.2692
79.0644
84.3008
90.0101
96.2248
102.98
110.315
118.269
126.885
136.207
146.284
157.168
168.916
181.584
195.241
209.956
225.807
242.88
261.265
281.069
302.406
325.398
350.187
376.923
405.772
436.906
470.502
506.723
545.684
587.405
631.669
677.869
724.577
768.377
801.565
810.236
763.181
620.785
314.811
-182.965
-802.222
-1417.99
-1896.09
-2165.1
40.6658
39.9441
39.2664
38.638
38.0577
37.5245
37.0407
36.6116
36.2373
35.9274
35.6808
35.4896
35.3637
35.3077
35.3245
35.4203
35.5979
35.8604
36.2143
36.6689
37.2324
37.9101
38.7094
39.642
40.7203
41.954
43.3526
44.9345
46.7118
48.6999
50.9174
53.3801
56.1086
59.1236
62.4474
66.1026
70.1137
74.5076
79.3128
84.5597
90.2799
96.506
103.273
110.62
118.587
127.217
136.553
146.644
157.544
169.307
181.992
195.665
210.399
226.268
243.359
261.764
281.589
302.946
325.958
350.767
377.522
406.387
437.533
471.133
507.348
546.286
587.956
632.125
678.163
724.601
767.97
800.525
808.483
761.138
620.391
320.8
-158.359
-756.025
-1353.81
-1826.89
-2102.24
40.7665
40.0451
39.368
38.74
38.1603
37.6279
37.1453
36.7174
36.3446
36.0362
35.791
35.6017
35.478
35.4244
35.4439
35.5426
35.7233
35.9892
36.3469
36.8056
37.3733
38.0555
38.8599
39.7978
40.8816
42.1211
43.5262
45.1146
46.899
48.8945
51.1198
53.5907
56.3278
59.3518
62.685
66.3501
70.3716
74.7762
79.5928
84.8514
90.5838
96.8227
103.603
110.964
118.945
127.59
136.941
147.049
157.965
169.746
182.449
196.141
210.894
226.784
243.896
262.323
282.169
303.548
326.581
351.411
378.184
407.065
438.221
471.823
508.025
546.93
588.533
632.584
678.422
724.536
767.391
799.202
806.326
758.625
619.621
327.268
-133.075
-707.863
-1286.42
-1753.51
-2034.54
40.8799
40.1588
39.4824
38.855
38.2758
37.7444
37.2631
36.8365
36.4654
36.1587
35.9151
35.7282
35.607
35.5562
35.5787
35.6807
35.8649
36.1346
36.4966
36.9599
37.5324
38.2198
39.0297
39.9736
41.0637
42.3098
43.722
45.318
47.1102
49.1141
51.3481
53.8282
56.575
59.6092
62.953
66.6292
70.6622
75.079
79.9082
85.18
90.9262
97.1792
103.974
111.351
119.348
128.009
137.378
147.504
158.439
170.239
182.962
196.675
211.449
227.361
244.496
262.946
282.815
304.217
327.273
352.124
378.916
407.811
438.974
472.572
508.754
547.613
589.129
633.031
678.624
724.345
766.59
797.532
803.682
755.55
618.385
334.23
-107.308
-658.038
-1216.21
-1676.31
-1962.07
41.0075
40.2868
39.6112
38.9843
38.4059
37.8757
37.3959
36.9708
36.6017
36.2969
36.0552
35.871
35.7528
35.705
35.731
35.8366
36.0248
36.2989
36.6657
37.1342
37.7121
38.4052
39.2214
40.1721
41.2693
42.5228
43.9431
45.5474
47.3485
49.3618
51.6056
54.0961
56.8537
59.8993
63.255
66.9436
70.9897
75.4201
80.2634
85.55
91.3115
97.5805
104.392
111.786
119.801
128.481
137.869
148.014
158.97
170.791
183.536
197.273
212.07
228.006
245.165
263.64
283.534
304.96
328.04
352.912
379.721
408.628
439.794
473.381
509.531
548.327
589.731
633.446
678.739
723.987
765.507
795.434
800.455
751.81
616.591
341.357
-81.4108
-606.935
-1143.63
-1595.7
-1885.01
41.151
40.4311
39.7564
39.1301
38.5528
38.024
37.5458
37.1225
36.7557
36.4531
36.2135
36.0323
35.9173
35.873
35.9029
36.0127
36.2053
36.4843
36.8566
37.3309
37.9149
38.6145
39.4378
40.3961
41.5012
42.7631
44.1924
45.8062
47.6172
49.6411
51.8959
54.3981
57.1679
60.2262
63.5953
67.2978
71.3585
75.8041
80.6633
85.9663
91.7449
98.0316
104.862
112.275
120.31
129.01
138.419
148.587
159.565
171.41
184.179
197.94
212.764
228.725
245.911
264.412
284.332
305.783
328.886
353.778
380.604
409.518
440.681
474.247
510.351
549.062
590.322
633.804
678.73
723.409
764.071
792.818
796.535
747.293
614.139
347.877
-55.9052
-555.113
-1069.14
-1511.53
-1803.67
41.3132
40.5939
39.9201
39.2947
38.7186
38.1913
37.715
37.2938
36.9295
36.6293
36.3922
36.2143
36.103
36.0627
36.097
36.2114
36.4091
36.6937
37.072
37.5529
38.1437
38.8507
39.682
40.6487
41.7628
43.0341
44.4736
46.098
47.9202
49.956
52.2231
54.7383
57.5218
60.5944
63.9784
67.6966
71.7735
76.2361
81.113
86.4345
92.2321
98.5386
105.389
112.824
120.881
129.604
139.036
149.228
160.232
172.102
184.898
198.686
213.537
229.526
246.74
265.268
285.216
306.692
329.818
354.728
381.566
410.483
441.633
475.166
511.203
549.802
590.879
634.071
678.548
722.543
762.194
789.574
791.798
741.88
610.916
353.722
-30.8287
-503.167
-993.289
-1423.7
-1718.28
41.4961
40.7777
40.1049
39.4805
38.9057
38.3801
37.9059
37.487
37.1255
36.8281
36.594
36.4198
36.3126
36.2768
36.316
36.4357
36.639
36.9299
37.3151
37.8033
38.4019
39.1171
39.9574
40.9337
42.0578
43.3396
44.7906
46.4269
48.2616
50.3106
52.5917
55.1215
57.9203
61.0089
64.4096
68.1452
72.2404
76.722
81.6186
86.9605
92.7793
99.1078
105.981
113.439
121.521
130.269
139.727
149.946
160.977
172.875
185.7
199.517
214.397
230.416
247.659
266.216
286.191
307.692
330.839
355.765
382.609
411.52
442.647
476.128
512.075
550.527
591.37
634.203
678.134
721.312
759.776
785.582
786.108
735.428
606.77
361.118
-4.27706
-451.128
-917.882
-1335
-1630.16
41.7026
40.9849
40.3132
39.6901
39.1167
38.5931
38.1213
37.7051
37.3467
37.0525
36.8216
36.6516
36.5491
36.5183
36.5631
36.6887
36.8984
37.1963
37.5893
38.0857
38.693
39.4175
40.2678
41.2549
42.3902
43.684
45.1477
46.7973
48.6462
50.7101
53.0066
55.5528
58.3687
61.4752
64.8946
68.6496
72.7651
77.2679
82.1864
87.5511
93.3935
99.7464
106.645
114.129
122.237
131.013
140.5
150.748
161.808
173.737
186.592
200.441
215.352
231.402
248.675
267.262
287.263
308.788
331.953
356.889
383.733
412.627
443.713
477.121
512.947
551.206
591.756
634.144
677.413
719.619
756.697
780.705
779.322
727.778
601.521
370.813
24.8536
-398.846
-844.469
-1249.12
-1544.02
41.9353
41.2185
40.5481
39.9263
39.3547
38.8332
38.3641
37.9509
37.5961
37.3054
37.0783
36.9131
36.8158
36.7907
36.8417
36.974
37.1909
37.4967
37.8984
38.404
39.0211
39.7561
40.6177
41.6168
42.7647
44.0718
45.5499
47.2145
49.0791
51.1596
53.4735
56.038
58.873
61.9995
65.4397
69.2164
73.3545
77.8808
82.8238
88.2137
94.0822
100.462
107.389
114.901
123.039
131.845
141.363
151.642
162.735
174.696
187.585
201.466
216.41
232.493
249.796
268.412
288.438
309.983
333.161
358.101
384.933
413.795
444.82
478.126
513.789
551.803
591.984
633.826
676.297
717.352
752.824
774.794
771.283
718.802
595.088
42.1975
41.4818
40.8128
40.1926
39.6229
39.1039
38.6379
38.228
37.8772
37.5905
37.3677
37.2078
37.1165
37.0977
37.1558
37.2955
37.5206
37.8354
38.2467
38.7628
39.3908
40.1375
41.0118
42.0243
43.1865
44.5085
46.0026
47.6839
49.5662
51.6653
53.9986
56.5835
59.4398
62.5886
66.0519
69.8528
74.016
78.5683
83.5384
88.9562
94.8535
101.263
108.221
115.765
123.935
132.773
142.325
152.639
163.766
175.762
188.685
202.601
217.579
233.694
251.028
269.67
289.719
311.279
334.464
359.396
386.202
415.013
445.949
479.114
514.566
552.266
591.987
633.163
674.676
714.38
748.007
767.688
761.828
708.384
587.542
42.4929
41.7783
41.1109
40.4925
39.925
39.4088
38.9463
38.5403
38.1939
37.9118
37.6939
37.54
37.4553
37.4437
37.5096
37.6579
37.8921
38.2169
38.6392
39.1668
39.8072
40.5671
41.4555
42.4831
43.6611
44.9999
46.5118
48.2119
50.1138
52.2337
54.5886
57.1962
60.0763
63.2499
66.7389
70.5665
74.7576
79.3388
84.3387
89.7873
95.7163
102.159
109.15
116.728
124.933
133.807
143.395
153.746
164.91
176.942
189.902
203.853
218.865
235.012
252.375
271.041
291.107
312.676
335.856
360.766
387.527
416.26
447.072
480.051
515.228
552.532
591.685
632.052
672.426
710.555
742.083
759.215
750.808
696.408
578.639
42.8253
42.112
41.4464
40.8301
40.2652
39.7522
39.2935
38.8919
38.5505
38.2736
38.0613
37.9141
37.8368
37.8334
37.9082
38.0659
38.3104
38.6465
39.081
39.6217
40.2758
41.0505
41.9547
42.9992
44.1949
45.5524
47.0843
48.8052
50.7291
52.872
55.2511
57.884
60.7904
63.9914
67.5089
71.3662
75.588
80.2011
85.2338
90.7163
96.6801
103.158
110.186
117.801
126.044
134.957
144.584
154.973
166.176
178.246
191.243
205.23
220.275
236.452
253.84
272.525
292.601
314.168
337.33
362.199
388.889
417.509
448.154
480.887
515.714
552.522
590.978
630.371
669.401
705.713
734.877
749.208
738.11
682.782
567.737
43.1992
42.4873
41.8237
41.2099
40.6479
40.1386
39.6842
39.2875
38.9518
38.6807
38.4748
38.3353
38.2663
38.2721
38.3568
38.5252
38.7812
39.1299
39.5781
40.1333
40.8029
41.5941
42.5161
43.5793
44.7948
46.1732
47.7273
49.4714
51.4197
53.5883
55.9941
58.655
61.5906
64.8219
68.371
72.2609
76.5166
81.1646
86.2334
91.7529
97.7546
104.271
111.339
118.994
127.278
136.231
145.899
156.329
167.572
179.681
192.716
206.737
221.814
238.017
255.425
274.121
294.196
315.746
338.87
363.673
390.259
418.724
449.145
481.561
515.944
552.137
589.746
627.977
665.436
699.671
726.208
737.51
723.638
667.428
555.222
43.6191
42.909
42.2478
41.6367
41.0781
40.5729
40.1235
39.7325
39.403
39.1386
38.9401
38.809
38.7494
38.7654
38.8613
39.0416
39.3106
39.6735
40.1369
40.7084
41.3953
42.2049
43.1466
44.2308
45.4683
46.87
48.4487
50.2186
52.1941
54.391
56.8264
59.5183
62.4862
65.751
69.3347
73.2605
77.5533
82.2396
87.3477
92.9074
98.9502
105.509
112.619
120.317
128.644
137.641
147.351
157.823
169.106
181.254
194.325
208.379
223.483
239.706
257.125
275.821
295.881
317.394
340.455
365.159
391.598
419.854
449.982
481.993