/*--------------------------------*- C++ -*----------------------------------*\
| =========                 |                                                 |
| \\      /  F ield         | OpenFOAM: The Open Source CFD Toolbox           |
|  \\    /   O peration     | Version:  2412                                  |
|   \\  /    A nd           | Website:  www.openfoam.com                      |
|    \\/     M anipulation  |                                                 |
\*---------------------------------------------------------------------------*/
FoamFile
{
    version     2.0;
    format      ascii;
    arch        "LSB;label=32;scalar=64";
    class       surfaceScalarField;
    location    "60";
    object      phi;
}
// * * * * * * * * * * * * * * * * * * * * * * * * * * * * * * * * * * * * * //

dimensions      [0 3 -1 0 0 0 0];

oriented        oriented;

internalField   nonuniform List<scalar> 
14486
(
5.79235e-06
6.94301e-08
-5.8618e-06
3.11321e-06
2.67912e-06
-4.28322e-07
3.54152e-06
7.01472e-07
-1.1298e-06
1.88779e-06
-1.18633e-06
-5.49604e-07
2.43738e-06
-4.0269e-06
3.47728e-06
-5.69853e-06
1.67161e-06
-5.23237e-06
-4.66174e-07
-4.36641e-06
-8.65985e-07
-3.88366e-06
-4.82758e-07
-3.63326e-06
-2.50414e-07
-3.53621e-06
-9.70917e-08
-3.56545e-06
2.91645e-08
-3.64698e-06
8.1508e-08
-3.6937e-06
4.66948e-08
-3.69244e-06
-1.31248e-09
-3.65243e-06
-4.00429e-08
-3.58592e-06
-6.65514e-08
-3.52765e-06
-5.82948e-08
-3.4956e-06
-3.22427e-08
-3.48663e-06
-8.93128e-09
-3.49139e-06
4.70652e-09
-3.496e-06
4.54944e-09
-3.49483e-06
-1.22779e-09
-3.49008e-06
-4.83299e-09
-3.48641e-06
-3.86445e-09
-3.48714e-06
7.13251e-10
-3.49127e-06
3.92668e-09
4.69686e-10
3.49146e-06
7.19423e-09
3.48288e-06
8.47906e-09
3.47435e-06
8.40482e-09
3.46572e-06
8.5213e-09
3.45735e-06
8.29456e-09
3.44936e-06
8.24521e-09
3.44193e-06
6.98789e-09
3.43473e-06
7.13862e-09
3.42818e-06
6.50332e-09
3.42233e-06
5.78826e-09
3.4169e-06
5.37436e-09
3.41164e-06
5.5864e-09
3.40629e-06
4.89609e-09
3.40215e-06
4.37748e-09
3.40075e-06
1.00284e-09
3.40284e-06
-2.12714e-09
3.40544e-06
-2.63705e-09
3.40419e-06
1.20761e-09
3.39712e-06
7.02625e-09
3.38993e-06
7.32393e-09
3.39619e-06
-6.47486e-09
3.42487e-06
-2.8584e-08
3.47897e-06
-5.42815e-08
3.54104e-06
-6.20949e-08
3.57728e-06
-3.62669e-08
3.57601e-06
1.2424e-09
3.52839e-06
4.75969e-08
3.44714e-06
8.12562e-08
3.4169e-06
3.01582e-08
3.50874e-06
-9.18493e-08
3.74769e-06
-2.38997e-07
4.20873e-06
-4.61059e-07
5.03622e-06
-8.27508e-07
5.4787e-06
-4.42497e-07
3.85475e-06
1.62393e-06
5.19423e-07
3.33528e-06
-1.82426e-06
2.34369e-06
-6.93779e-07
-1.13049e-06
4.79732e-07
-1.17352e-06
-2.91471e-06
3.39443e-06
-5.70119e-06
2.78647e-06
-5.63177e-06
1.77446e-05
2.31447e-07
-2.38379e-05
1.10156e-05
9.40807e-06
-4.06179e-07
1.49633e-05
2.36549e-06
-3.90147e-06
5.78802e-06
-4.60888e-06
-2.79726e-06
1.10227e-05
-1.4381e-05
1.5061e-05
-1.94824e-05
6.77302e-06
-1.79616e-05
-1.98707e-06
-1.51917e-05
-3.63588e-06
-1.36305e-05
-2.04402e-06
-1.28235e-05
-1.0574e-06
-1.25203e-05
-4.0031e-07
-1.26198e-05
1.28487e-07
-1.28781e-05
3.39757e-07
-1.30219e-05
1.9048e-07
-1.30071e-05
-1.62586e-08
-1.28658e-05
-1.81308e-07
-1.26439e-05
-2.88531e-07
-1.24512e-05
-2.51104e-07
-1.23458e-05
-1.37943e-07
-1.23161e-05
-3.85482e-08
-1.23308e-05
1.92712e-08
-1.23446e-05
1.82673e-08
-1.23396e-05
-6.36556e-09
-1.23231e-05
-2.14706e-08
-1.23109e-05
-1.63291e-08
-1.23135e-05
3.28787e-09
-1.23286e-05
1.86822e-08
1.73951e-09
1.23345e-05
3.36066e-08
1.23036e-05
3.91805e-08
1.22724e-05
3.93806e-08
1.22416e-05
3.91572e-08
1.22115e-05
3.82378e-08
1.21833e-05
3.68771e-08
1.2156e-05
3.35288e-08
1.21307e-05
3.2349e-08
1.21068e-05
3.02638e-08
1.20857e-05
2.68015e-08
1.20665e-05
2.45116e-08
1.20475e-05
2.51225e-08
1.20291e-05
2.24936e-08
1.20138e-05
2.01309e-08
1.20084e-05
5.69699e-09
1.20146e-05
-8.39706e-09
1.20233e-05
-1.13498e-08
1.20196e-05
4.83642e-09
1.19969e-05
2.96493e-08
1.19734e-05
3.09806e-08
1.19935e-05
-2.68791e-08
1.20872e-05
-1.22142e-07
1.22658e-05
-2.33184e-07
1.24726e-05
-2.68949e-07
1.26007e-05
-1.6442e-07
1.26064e-05
-4.53596e-09
1.24588e-05
1.95209e-07
1.22006e-05
3.39471e-07
1.20976e-05
1.32945e-07
1.23846e-05
-3.78828e-07
1.31557e-05
-1.01023e-06
1.46493e-05
-1.95462e-06
1.73005e-05
-3.47874e-06
1.87488e-05
-1.89082e-06
1.37911e-05
6.58156e-06
2.68126e-06
1.44451e-05
-5.61738e-06
1.06423e-05
-2.33139e-06
-4.41649e-06
6.13543e-07
-4.11848e-06
-1.03994e-05
1.44074e-05
-1.76336e-05
1.00206e-05
-2.30339e-05
3.1342e-05
5.07401e-07
-5.56874e-05
2.15582e-05
1.91919e-05
8.28345e-07
3.56932e-05
4.55386e-06
-7.62699e-06
9.98512e-06
-1.00402e-05
-7.01524e-06
2.8023e-05
-2.88248e-05
3.68705e-05
-3.77304e-05
1.56786e-05
-3.48258e-05
-4.89172e-06
-2.98165e-05
-8.64518e-06
-2.69713e-05
-4.88922e-06
-2.55053e-05
-2.52344e-06
-2.49698e-05
-9.35895e-07
-2.5165e-05
3.23529e-07
-2.5629e-05
8.03769e-07
-2.58786e-05
4.39982e-07
-2.58322e-05
-6.27425e-08
-2.5553e-05
-4.60573e-07
-2.51336e-05
-7.07945e-07
-2.47737e-05
-6.11073e-07
-2.45775e-05
-3.34452e-07
-2.45234e-05
-9.26295e-08
-2.45489e-05
4.47243e-08
-2.45728e-05
4.19796e-08
-2.45613e-05
-1.7888e-08
-2.45307e-05
-5.22362e-08
-2.4509e-05
-3.83318e-08
-2.45161e-05
1.03019e-08
-2.4546e-05
4.82621e-08
6.60983e-09
2.45827e-05
8.94074e-08
2.45185e-05
1.03219e-07
2.44545e-05
1.03239e-07
2.43908e-05
1.02598e-07
2.43293e-05
9.96683e-08
2.42704e-05
9.60364e-08
2.42151e-05
8.81362e-08
2.41623e-05
8.50437e-08
2.41135e-05
7.89919e-08
2.40696e-05
7.05844e-08
2.40296e-05
6.44115e-08
2.39909e-05
6.43099e-08
2.39524e-05
6.03083e-08
2.3922e-05
5.09039e-08
2.39087e-05
1.83878e-08
2.39178e-05
-1.75911e-08
2.39322e-05
-2.58084e-08
2.39256e-05
1.13217e-08
2.38835e-05
7.16845e-08
2.38398e-05
7.48764e-08
2.38744e-05
-6.17667e-08
2.40474e-05
-2.95064e-07
2.43798e-05
-5.65814e-07
2.47697e-05
-6.58932e-07
2.50229e-05
-4.17621e-07
2.50504e-05
-3.2094e-08
2.47916e-05
4.53917e-07
2.43257e-05
8.05433e-07
2.41232e-05
3.35223e-07
2.46295e-05
-8.85149e-07
2.60315e-05
-2.41228e-06
2.87564e-05
-4.67956e-06
3.3558e-05
-8.28032e-06
3.63262e-05
-4.65911e-06
2.76615e-05
1.52462e-05
6.71412e-06
3.53924e-05
-9.73562e-06
2.70921e-05
-4.50223e-06
-9.64991e-06
-3.87674e-07
-8.23305e-06
-2.04231e-05
3.44428e-05
-3.12534e-05
2.08508e-05
-5.37799e-05
4.60207e-05
8.20788e-07
-0.000102529
3.47969e-05
3.04156e-05
3.90184e-06
6.65882e-05
7.50765e-06
-1.12328e-05
1.39806e-05
-1.65131e-05
-1.4217e-05
5.62205e-05
-4.83778e-05
7.10313e-05
-6.12447e-05
2.85455e-05
-5.65578e-05
-9.57866e-06
-4.90732e-05
-1.61298e-05
-4.47882e-05
-9.17428e-06
-4.25846e-05
-4.72701e-06
-4.18115e-05
-1.70912e-06
-4.21289e-05
6.40802e-07
-4.28222e-05
1.497e-06
-4.31743e-05
7.92077e-07
-4.30688e-05
-1.68411e-07
-4.26097e-05
-9.19702e-07
-4.19483e-05
-1.36944e-06
-4.13892e-05
-1.17024e-06
-4.10881e-05
-6.35849e-07
-4.10064e-05
-1.74307e-07
-4.10458e-05
8.39891e-08
-4.10804e-05
7.64865e-08
-4.10612e-05
-3.72048e-08
-4.10136e-05
-1.00027e-07
-4.09826e-05
-6.97067e-08
-4.09967e-05
2.43116e-08
-4.10518e-05
1.02973e-07
1.78409e-08
4.11809e-05
1.89607e-07
4.10671e-05
2.16797e-07
4.09545e-05
2.1562e-07
4.08416e-05
2.1529e-07
4.07332e-05
2.07907e-07
4.06302e-05
1.9933e-07
4.05325e-05
1.85101e-07
4.044e-05
1.77392e-07
4.03536e-05
1.65358e-07
4.02754e-05
1.48639e-07
4.02041e-05
1.3559e-07
4.01362e-05
1.32735e-07
4.00691e-05
1.26609e-07
4.00123e-05
1.08073e-07
3.99861e-05
4.38592e-08
3.99946e-05
-2.61674e-08
4.00138e-05
-4.51086e-08
4.00018e-05
2.32862e-08
3.99353e-05
1.38123e-07
3.98641e-05
1.46208e-07
3.99121e-05
-1.10097e-07
4.01743e-05
-5.57101e-07
4.06879e-05
-1.07981e-06
4.13009e-05
-1.27197e-06
4.17161e-05
-8.32836e-07
4.17882e-05
-1.04308e-07
4.14172e-05
8.249e-07
4.07164e-05
1.50623e-06
4.03852e-05
6.6629e-07
4.11138e-05
-1.61383e-06
4.32219e-05
-4.52039e-06
4.73299e-05
-8.78767e-06
5.4514e-05
-1.54645e-05
5.89849e-05
-9.13004e-06
4.64478e-05
2.77833e-05
1.35951e-05
6.8245e-05
-1.36862e-05
5.43734e-05
-7.40838e-06
-1.59277e-05
-3.15105e-06
-1.24904e-05
-3.31675e-05
6.44592e-05
-4.60732e-05
3.37565e-05
-9.90323e-05
6.07603e-05
1.11476e-06
-0.000164404
5.04841e-05
4.06917e-05
9.4838e-06
0.000107589
1.14802e-05
-1.32293e-05
1.69597e-05
-2.19926e-05
-2.57481e-05
9.89283e-05
-7.41251e-05
0.000119408
-9.07798e-05
4.52001e-05
-8.395e-05
-1.64085e-05
-7.39029e-05
-2.61769e-05
-6.80973e-05
-1.498e-05
-6.51263e-05
-7.69797e-06
-6.41269e-05
-2.70866e-06
-6.45935e-05
1.10733e-06
-6.55256e-05
2.42902e-06
-6.59614e-05
1.22779e-06
-6.57607e-05
-3.69204e-07
-6.50748e-05
-1.60564e-06
-6.41306e-05
-2.31372e-06
-6.33484e-05
-1.95249e-06
-6.29316e-05
-1.05297e-06
-6.28216e-05
-2.84266e-07
-6.28771e-05
1.3937e-07
-6.29234e-05
1.2269e-07
-6.28959e-05
-6.4913e-08
-6.28318e-05
-1.64223e-07
-6.27948e-05
-1.07091e-07
-6.2825e-05
5.4393e-08
-6.29124e-05
1.90034e-07
4.40668e-08
6.32584e-05
3.58092e-07
6.30726e-05
4.02374e-07
6.2887e-05
4.00927e-07
6.27047e-05
3.9737e-07
6.25276e-05
3.84876e-07
6.23601e-05
3.67078e-07
6.22e-05
3.44517e-07
6.20474e-05
3.29907e-07
6.19061e-05
3.06529e-07
6.17776e-05
2.76991e-07
6.16592e-05
2.53964e-07
6.15459e-05
2.4642e-07
6.14358e-05
2.35994e-07
6.13438e-05
2.00364e-07
6.1292e-05
9.50781e-08
6.1292e-05
-2.61736e-08
6.13103e-05
-6.35343e-08
6.1288e-05
4.55473e-08
6.11905e-05
2.35546e-07
6.10837e-05
2.53085e-07
6.11399e-05
-1.66582e-07
6.14964e-05
-9.13531e-07
6.22097e-05
-1.79334e-06
6.30806e-05
-2.14287e-06
6.36982e-05
-1.45056e-06
6.38443e-05
-2.50481e-07
6.33733e-05
1.29589e-06
6.24218e-05
2.45768e-06
6.193e-05
1.15804e-06
6.28663e-05
-2.55024e-06
6.57082e-05
-7.36229e-06
7.12789e-05
-1.43585e-05
8.09362e-05
-2.51218e-05
8.7457e-05
-1.56509e-05
7.11969e-05
4.40433e-05
2.46092e-05
0.000114833
-1.66847e-05
9.56672e-05
-1.12746e-05
-2.13378e-05
-8.37153e-06
-1.53935e-05
-4.85395e-05
0.000104627
-6.11126e-05
4.63295e-05
-0.00015903
7.46866e-05
1.49137e-06
-0.000240582
6.81566e-05
4.72217e-05
1.81719e-05
0.000157573
1.6765e-05
-1.18224e-05
1.77475e-05
-2.29752e-05
-4.3264e-05
0.00015994
-0.000107141
0.000183285
-0.000127031
6.50904e-05
-0.000117816
-2.56236e-05
-0.000105307
-3.86858e-05
-9.80091e-05
-2.2278e-05
-9.42946e-05
-1.14126e-05
-9.31083e-05
-3.89498e-06
-9.37387e-05
1.73753e-06
-9.48939e-05
3.58416e-06
-9.5377e-05
1.71083e-06
-9.50361e-05
-7.10253e-07
-9.40816e-05
-2.56017e-06
-9.28277e-05
-3.56774e-06
-9.18071e-05
-2.97317e-06
-9.1272e-05
-1.58837e-06
-9.11366e-05
-4.19692e-07
-9.12114e-05
2.14039e-07
-9.12711e-05
1.82257e-07
-9.12371e-05
-9.90871e-08
-9.11609e-05
-2.40575e-07
-9.11244e-05
-1.43987e-07
-9.11796e-05
1.09506e-07
-9.13166e-05
3.26644e-07
9.20883e-05
6.266e-07
9.17999e-05
6.90546e-07
9.15124e-05
6.88063e-07
9.12308e-05
6.78705e-07
9.09559e-05
6.59626e-07
9.06937e-05
6.29537e-07
9.04443e-05
5.93233e-07
9.02084e-05
5.65589e-07
8.99871e-05
5.27745e-07
8.97843e-05
4.79621e-07
8.95966e-05
4.41526e-07
8.94193e-05
4.24208e-07
8.92478e-05
4.06749e-07
8.90978e-05
3.50655e-07
8.90058e-05
1.86383e-07
8.89845e-05
-4.98838e-09
8.89914e-05
-7.04662e-08
8.89501e-05
8.67679e-08
8.88128e-05
3.72752e-07
8.86597e-05
4.0627e-07
8.87139e-05
-2.21084e-07
8.916e-05
-1.35956e-06
9.00813e-05
-2.71491e-06
9.12299e-05
-3.29159e-06
9.20841e-05
-2.30475e-06
9.23406e-05
-5.07094e-07
9.17966e-05
1.83986e-06
9.06008e-05
3.65344e-06
8.99261e-05
1.83264e-06
9.10262e-05
-3.65039e-06
9.45766e-05
-1.09128e-05
0.000101584
-2.13663e-05
0.000113624
-3.71613e-05
0.000122429
-2.4456e-05
0.000102956
6.35163e-05
4.13427e-05
0.000176446
-1.76055e-05
0.000154615
-1.63793e-05
-2.25641e-05
-1.66554e-05
-1.51174e-05
-6.60173e-05
0.000153989
-7.55068e-05
5.5819e-05
-0.000233046
8.79462e-05
1.9371e-06
-0.000330465
8.71326e-05
4.80353e-05
3.02258e-05
0.00021448
2.35314e-05
-5.12791e-06
1.47985e-05
-1.42423e-05
-6.86497e-05
0.000243388
-0.00014836
0.000262996
-0.000170602
8.73317e-05
-0.000158953
-3.72719e-05
-0.000144267
-5.33722e-05
-0.000135612
-3.09331e-05
-0.000131243
-1.57813e-05
-0.000129925
-5.21399e-06
-0.00013072
2.53276e-06
-0.000132051
4.9155e-06
-0.00013253
2.18981e-06
-0.000132005
-1.23598e-06
-0.000130751
-3.81435e-06
-0.000129171
-5.14741e-06
-0.000127918
-4.22619e-06
-0.000127274
-2.23278e-06
-0.00012712
-5.73609e-07
-0.000127218
3.12005e-07
-0.000127293
2.56842e-07
-0.000127258
-1.34353e-07
-0.000127177
-3.21594e-07
-0.000127156
-1.65079e-07
-0.000127251
2.04476e-07
5.11986e-07
0.000128945
1.03e-06
0.000128516
1.1185e-06
0.000128092
1.11189e-06
0.000127674
1.09703e-06
0.00012727
1.06343e-06
0.000126882
1.01736e-06
0.000126512
9.62537e-07
0.000126159
9.18706e-07
0.000125827
8.59124e-07
0.000125522
7.85134e-07
0.000125239
7.23885e-07
0.000124971
6.92576e-07
0.000124712
6.65554e-07
0.000124486
5.77203e-07
0.00012433
3.4097e-07
0.000124266
5.94454e-08
0.000124247
-5.12819e-08
0.000124174
1.59802e-07
0.000123987
5.5941e-07
0.000123775
6.182e-07
0.000123811
-2.57747e-07
0.00012433
-1.87786e-06
0.000125445
-3.83044e-06
0.000126879
-4.72587e-06
0.000127992
-3.41762e-06
0.000128393
-9.08569e-07
0.000127817
2.41664e-06
0.000126412
5.05849e-06
0.000125543
2.70141e-06
0.000126746
-4.85397e-06
0.000130915
-1.50812e-05
0.000139228
-2.96799e-05
0.000153378
-5.13114e-05
0.000164513
-3.55904e-05
0.000142653
8.5376e-05
6.55987e-05
0.0002535
-1.49842e-05
0.000235198
-2.29061e-05
-1.46422e-05
-2.83347e-05
-9.68883e-06
-8.49493e-05
0.000210604
-8.93485e-05
6.02181e-05
-0.000320457
0.000100969
2.4104e-06
-0.000433845
0.000106768
4.22368e-05
4.53036e-05
0.000275944
3.16245e-05
8.55115e-06
6.20656e-06
1.11756e-05
-0.000103918
0.000353512
-0.000198523
0.000357601
-0.000222009
0.000110817
-0.000208079
-5.12017e-05
-0.000191616
-6.98351e-05
-0.000181842
-4.07074e-05
-0.000176958
-2.06653e-05
-0.00017556
-6.61138e-06
-0.000176496
3.46795e-06
-0.000177943
6.36241e-06
-0.000178351
2.5979e-06
-0.000177596
-1.99085e-06
-0.000176028
-5.38257e-06
-0.000174139
-7.03634e-06
-0.000172673
-5.69222e-06
-0.000171933
-2.97366e-06
-0.000171773
-7.32882e-07
-0.000171898
4.35921e-07
-0.000171994
3.52681e-07
-0.000171963
-1.64531e-07
-0.000171894
-3.91401e-07
-0.000171899
-1.60122e-07
-0.000172048
3.52983e-07
7.66067e-07
0.000174849
1.60447e-06
0.000174249
1.71879e-06
0.000173656
1.70483e-06
0.000173069
1.68311e-06
0.000172502
1.63063e-06
0.000171958
1.56145e-06
0.000171436
1.48396e-06
0.000170938
1.41626e-06
0.000170469
1.32784e-06
0.000170032
1.22188e-06
0.000169629
1.12713e-06
0.000169244
1.07747e-06
0.000168876
1.0338e-06
0.000168545
9.08156e-07
0.000168303
5.81973e-07
0.000168178
1.84346e-07
0.000168111
1.633e-08
0.000167993
2.77763e-07
0.000167743
8.09147e-07
0.000167461
8.99797e-07
0.000167458
-2.55281e-07
0.000168028
-2.44719e-06
0.00016931
-5.11261e-06
0.000171005
-6.42133e-06
0.000172382
-4.79457e-06
0.000172962
-1.48889e-06
0.000172407
2.97139e-06
0.000170841
6.62451e-06
0.000169792
3.75054e-06
0.000171037
-6.09896e-06
0.000175682
-1.97265e-05
0.000185068
-3.90661e-05
0.000200938
-6.71807e-05
0.000214248
-4.89008e-05
0.00019104
0.000108584
9.93432e-05
0.000345196
-6.99543e-06
0.000341537
-3.07696e-05
9.13191e-06
-4.31936e-05
2.73516e-06
-0.000104674
0.000272084
-0.000102879
5.84226e-05
-0.000420926
0.000113778
2.87548e-06
-0.000550498
0.000126135
2.98792e-05
6.30549e-05
0.000339025
3.98856e-05
3.17204e-05
-1.06851e-05
6.17463e-05
-0.000150928
0.000493755
-0.000258159
0.000464832
-0.000281705
0.000134363
-0.000265805
-6.71021e-05
-0.000247995
-8.76447e-05
-0.000237385
-5.13174e-05
-0.000232135
-2.5915e-05
-0.000230717
-8.02957e-06
-0.000231748
4.49843e-06
-0.000233226
7.84037e-06
-0.000233501
2.87346e-06
-0.000232486
-3.00677e-06
-0.0002306
-7.2684e-06
-0.000228426
-9.21013e-06
-0.000226774
-7.3444e-06
-0.000225968
-3.78013e-06
-0.000225808
-8.92567e-07
-0.000225963
5.91016e-07
-0.000226079
4.68096e-07
-0.000226062
-1.81222e-07
-0.000226009
-4.44406e-07
-0.000226062
-1.08053e-07
-0.000226274
5.64637e-07
1.08246e-06
0.000230373
2.36486e-06
0.000229584
2.50752e-06
0.0002288
2.48872e-06
0.000228033
2.44982e-06
0.000227283
2.37994e-06
0.000226562
2.28256e-06
0.000225871
2.17481e-06
0.000225208
2.07912e-06
0.000224583
1.95272e-06
0.000223996
1.80836e-06
0.000223452
1.67165e-06
0.000222933
1.59632e-06
0.000222438
1.52849e-06
0.000221989
1.35705e-06
0.000221643
9.2757e-07
0.000221432
3.95322e-07
0.000221306
1.42461e-07
0.00022113
4.53695e-07
0.000220814
1.12559e-06
0.000220451
1.26198e-06
0.000220398
-2.01812e-07
0.000220981
-3.03041e-06
0.000222396
-6.52744e-06
0.000224321
-8.34642e-06
0.000225957
-6.43129e-06
0.000226739
-2.271e-06
0.000226258
3.45294e-06
0.000224604
8.27844e-06
0.000223408
4.9461e-06
0.000224629
-7.31972e-06
0.000229597
-2.46947e-05
0.000239773
-4.9242e-05
0.000256935
-8.4343e-05
0.000272109
-6.40749e-05
0.000248673
0.00013202
0.000144429
0.000449441
8.85917e-06
0.000477106
-3.89773e-05
5.69684e-05
-6.07772e-05
2.4535e-05
-0.000124326
0.000335634
-0.000116266
5.03622e-05
-0.000534316
0.000126163
3.29758e-06
-0.000679959
0.000144824
1.12183e-05
8.26725e-05
0.000401176
4.62937e-05
6.80991e-05
-3.88982e-05
0.000146938
-0.000211166
0.000666022
-0.000327549
0.000581216
-0.00035019
0.000157003
-0.000332687
-8.46045e-05
-0.000313909
-0.000106423
-0.000302733
-6.24935e-05
-0.000297262
-3.13866e-05
-0.000295838
-9.4528e-06
-0.000296917
5.57662e-06
-0.000298345
9.26822e-06
-0.000298419
2.94774e-06
-0.000297117
-4.30848e-06
-0.000294927
-9.45932e-06
-0.000292493
-1.16441e-05
-0.000290694
-9.14327e-06
-0.000289833
-4.64122e-06
-0.000289679
-1.04635e-06
-0.000289861
7.72538e-07
-0.000289995
6.02055e-07
-0.000289993
-1.83191e-07
-0.000289969
-4.6857e-07
-0.000290066
-1.18401e-08
-0.000290344
8.42792e-07
1.46997e-06
0.000295702
3.30807e-06
0.000294729
3.47978e-06
0.000293758
3.45911e-06
0.000292803
3.4047e-06
0.000291872
3.31068e-06
0.000290974
3.18076e-06
0.000290109
3.03999e-06
0.000289279
2.90852e-06
0.000288492
2.73928e-06
0.000287755
2.54519e-06
0.000287062
2.36445e-06
0.000286409
2.24973e-06
0.000285779
2.15852e-06
0.000285204
1.93138e-06
0.000284747
1.38489e-06
0.00028445
6.92254e-07
0.000284251
3.40696e-07
0.000284014
6.90629e-07
0.00028363
1.50991e-06
0.000283189
1.70311e-06
0.000283074
-8.7578e-08
0.000283656
-3.61174e-06
0.000285159
-8.03123e-06
0.000287284
-1.04714e-05
0.000289163
-8.3101e-06
0.000290165
-3.27334e-06
0.000289818
3.80056e-06
0.000288148
9.94798e-06
0.000286844
6.24983e-06
0.000288015
-8.49106e-06
0.000293156
-2.98352e-05
0.000303848
-5.99343e-05
0.000321923
-0.000102418
0.000338593
-8.07455e-05
0.000315881
0.000154733
0.000202378
0.000562943
3.55438e-05
0.000643941
-4.5589e-05
0.000138101
-8.03614e-05
5.93074e-05
-0.000143513
0.000398785
-0.000129244
3.60933e-05
-0.000660263
0.000138329
3.61854e-06
-0.000821907
0.000162948
-1.34009e-05
0.000102791
0.000461334
4.86271e-05
0.000122263
-8.07482e-05
0.000276314
-0.000285033
0.000870307
-0.000406652
0.000702835
-0.000428112
0.000178463
-0.000409359
-0.000103357
-0.00038992
-0.000125861
-0.00037839
-7.40241e-05
-0.00037279
-3.69861e-05
-0.000371372
-1.08715e-05
-0.00037243
6.63525e-06
-0.000373733
1.05704e-05
-0.000373551
2.76636e-06
-0.000371941
-5.91926e-06
-0.000369451
-1.19493e-05
-0.000366787
-1.43082e-05
-0.000364861
-1.1069e-05
-0.000363962
-5.54052e-06
-0.000363813
-1.1958e-06
-0.000364012
9.72215e-07
-0.000364157
7.46368e-07
-0.000364166
-1.73939e-07
-0.000364165
-4.70274e-07
-0.000364311
1.3443e-07
-0.00036465
1.18144e-06
1.92963e-06
0.000371039
4.4152e-06
0.000369891
4.62761e-06
0.000368748
4.60144e-06
0.000367619
4.53368e-06
0.000366516
4.41315e-06
0.000365444
4.25252e-06
0.000364417
4.06728e-06
0.000363428
3.89706e-06
0.000362483
3.68481e-06
0.000361597
3.43076e-06
0.000360768
3.1938e-06
0.000359978
3.03943e-06
0.000359221
2.915e-06
0.000358525
2.62788e-06
0.00035796
1.9498e-06
0.00035757
1.08196e-06
0.000357305
6.05106e-07
0.000357011
9.85184e-07
0.000356566
1.95434e-06
0.000356054
2.21585e-06
0.000355878
8.81542e-08
0.000356438
-4.17253e-06
0.000358008
-9.60076e-06
0.0003603
-1.27631e-05
0.000362411
-1.04215e-05
0.000363653
-4.51519e-06
0.000363488
3.96506e-06
0.000361872
1.15644e-05
0.000360518
7.60354e-06
0.00036162
-9.59357e-06
0.000366829
-3.50442e-05
0.000377818
-7.09227e-05
0.00039649
-0.00012109
0.000414311
-9.85669e-05
0.00039261
0.000176434
0.000273628
0.000681925
7.53234e-05
0.000842246
-4.8532e-05
0.000261956
-0.000100625
0.0001114
-0.000161935
0.000460096
-0.000141813
1.59704e-05
-0.000798457
0.000150644
3.74226e-06
-0.000976293
0.000181094
-4.38504e-05
0.000121657
0.000520771
4.39672e-05
0.000199952
-0.000138221
0.000458501
-0.000372991
0.00110508
-0.000496021
0.000825866
-0.00051636
0.000198801
-0.0004967
-0.000123017
-0.000476809
-0.000145753
-0.000465067
-8.57656e-05
-0.000459384
-4.26687e-05
-0.000457939
-1.23172e-05
-0.000458908
7.60471e-06
-0.000460016
1.16779e-05
-0.00045954
2.29057e-06
-0.000457615
-7.8451e-06
-0.000454843
-1.47207e-05
-0.000451966
-1.7185e-05
-0.000449926
-1.31093e-05
-0.00044899
-6.47721e-06
-0.000448844
-1.34173e-06
-0.000449051
1.17969e-06
-0.000449196
8.91206e-07
-0.000449208
-1.62492e-07
-0.000449231
-4.47778e-07
-0.000449414
3.17602e-07
-0.000449812
1.579e-06
2.45918e-06
0.000456958
5.66836e-06
0.000455645
5.94106e-06
0.000454337
5.90884e-06
0.000453043
5.82728e-06
0.000451774
5.68201e-06
0.000450547
5.47989e-06
0.000449357
5.25661e-06
0.000448213
5.04114e-06
0.000447123
4.77468e-06
0.000446094
4.45931e-06
0.00044513
4.15835e-06
0.000444214
3.95516e-06
0.000443334
3.79446e-06
0.000442521
3.44131e-06
0.00044185
2.62075e-06
0.000441378
1.55311e-06
0.000441045
9.38264e-07
0.000440701
1.32893e-06
0.000440206
2.44967e-06
0.000439631
2.79121e-06
0.000439392
3.26451e-07
0.000439928
-4.7085e-06
0.000441547
-1.12203e-05
0.000443985
-1.52003e-05
0.000446308
-1.27447e-05
0.000447792
-5.99913e-06
0.000447845
3.91203e-06
0.000446344
1.30646e-05
0.000445001
8.94688e-06
0.000446054
-1.06469e-05
0.000451274
-4.02644e-05
0.000462402
-8.20507e-05
0.000481452
-0.000140139
0.00050009
-0.000117205
0.000479375
0.000197149
0.000358625
0.000802675
0.000130066
0.0010708
-4.49864e-05
0.000437008
-0.000119822
0.000186236
-0.000179923
0.000520196
-0.000154107
-9.84546e-06
-0.000948822
0.00016357
3.53688e-06
-0.0011434
0.000198784
-7.90643e-05
0.000137371
0.000582183
2.69621e-05
0.000310361
-0.000215623
0.000701087
-0.000475681
0.00136513
-0.000596582
0.000946767
-0.000616076
0.000218295
-0.000595855
-0.000143238
-0.000575673
-0.000165934
-0.000563786
-9.7653e-05
-0.000558006
-4.84489e-05
-0.00055648
-1.38433e-05
-0.000557302
8.42656e-06
-0.000558166
1.25427e-05
-0.000557373
1.49725e-06
-0.000555131
-1.00878e-05
-0.000552091
-1.77599e-05
-0.000549014
-2.02624e-05
-0.000546874
-1.52493e-05
-0.000545905
-7.44596e-06
-0.000545746
-1.5008e-06
-0.000545956
1.38891e-06
-0.000546092
1.02773e-06
-0.000546109
-1.46172e-07
-0.000546149
-4.08082e-07
-0.000546377
5.46069e-07
-0.000546833
2.03467e-06
3.05807e-06
0.000554529
7.07169e-06
0.000553058
7.41159e-06
0.000551581
7.38548e-06
0.000550121
7.28691e-06
0.000548688
7.11561e-06
0.000547296
6.8719e-06
0.000545947
6.60492e-06
0.00054465
6.33861e-06
0.000543408
6.01586e-06
0.000542238
5.62934e-06
0.00054114
5.25603e-06
0.000540096
4.9995e-06
0.000539094
4.79685e-06
0.000538166
4.36911e-06
0.000537388
3.39793e-06
0.000536825
2.11611e-06
0.000536428
1.33572e-06
0.00053603
1.72661e-06
0.000535491
2.98927e-06
0.000534856
3.42568e-06
0.000534567
6.14989e-07
0.000535069
-5.20991e-06
0.000536718
-1.28693e-05
0.000539282
-1.77649e-05
0.000541798
-1.52603e-05
0.00054352
-7.7215e-06
0.000543808
3.6242e-06
0.000542465
1.44076e-05
0.000541181
1.02313e-05
0.000542225
-1.16913e-05
0.000547455
-4.54946e-05
0.000558641
-9.32365e-05
0.000577891
-0.00015939
0.000597003
-0.000136316
0.000577042
0.00021711
0.00045803
0.000921686
0.000203953
0.00132488
-2.97927e-05
0.000670754
-0.000136024
0.000292468
-0.00019748
0.000581652
-0.000166472
-4.08538e-05
-0.00111176
0.00017728
2.87671e-06
-0.00132356
0.000215149
-0.000116933
0.000148336
0.000648996
-6.17279e-06
0.00046487
-0.000315185
0.0010101
-0.000593403
0.00164335
-0.000709637
0.001063
-0.000728713
0.00023737
-0.000708245
-0.000163705
-0.000687878
-0.000186302
-0.000675847
-0.000109684
-0.00066994
-5.43569e-05
-0.000668269
-1.55138e-05
-0.000668886
9.04311e-06
-0.000669488
1.31446e-05
-0.000668372
3.81708e-07
-0.000665833
-1.26273e-05
-0.000662539
-2.10538e-05
-0.000659281
-2.35203e-05
-0.000657047
-1.74837e-05
-0.000656035
-8.45845e-06
-0.000655867
-1.66893e-06
-0.000656069
1.59118e-06
-0.000656207
1.16531e-06
-0.000656227
-1.25892e-07
-0.000656293
-3.42604e-07
-0.000656573
8.25822e-07
-0.000657095
2.55658e-06
3.7383e-06
0.00066527
8.63113e-06
0.00066362
9.06186e-06
0.000661966
9.03901e-06
0.000660324
8.92865e-06
0.000658716
8.72363e-06
0.000657149
8.43861e-06
0.00065563
8.12398e-06
0.000654163
7.80538e-06
0.000652766
7.41329e-06
0.00065144
6.95506e-06
0.000650195
6.50024e-06
0.000649009
6.18597e-06
0.00064788
5.92542e-06
0.000646827
5.42189e-06
0.000645935
4.29034e-06
0.000645271
2.77969e-06
0.000644797
1.80927e-06
0.000644343
2.18091e-06
0.000643746
3.58627e-06
0.000643057
4.1148e-06
0.000642709
9.62988e-07
0.00064318
-5.68102e-06
0.000644845
-1.45347e-05
0.000647508
-2.04281e-05
0.000650194
-1.79465e-05
0.000652126
-9.65342e-06
0.000652645
3.10583e-06
0.00065147
1.55821e-05
0.000650291
1.14107e-05
0.000651375
-1.27756e-05
0.000656628
-5.07482e-05
0.00066785
-0.000104458
0.000687178
-0.000178718
0.000706436
-0.000155574
0.000686828
0.000236718
0.000572131
0.00103638
0.000299608
0.00159741
1.02435e-06
0.000969338
-0.000147622
0.000441114
-0.000213735
0.000647764
-0.000179034
-7.55548e-05
-0.00128791
0.000192062
1.65011e-06
-0.00151727
0.000229658
-0.000154529
0.000150865
0.000727789
-6.01528e-05
0.000675888
-0.000437015
0.00138696
-0.000726698
0.00193303
-0.000836754
0.00117306
-0.00085591
0.000256527
-0.000835501
-0.000184115
-0.000815038
-0.000206764
-0.000802833
-0.000121888
-0.000796736
-6.04541e-05
-0.000794865
-1.73852e-05
-0.00079525
9.42868e-06
-0.000795579
1.34734e-05
-0.000794165
-1.03264e-06
-0.000791349
-1.54431e-05
-0.000787828
-2.45746e-05
-0.0007844
-2.69486e-05
-0.000782073
-1.98105e-05
-0.000781031
-9.50095e-06
-0.000780849
-1.85128e-06
-0.00078106
1.80279e-06
-0.000781205
1.31002e-06
-0.000781246
-8.52585e-08
-0.000781353
-2.3554e-07
-0.000781694
1.16706e-06
-0.000782305
3.16662e-06
4.51938e-06
0.000791026
1.0377e-05
0.000789176
1.0912e-05
0.000787313
1.09023e-05
0.000785472
1.07693e-05
0.000783659
1.05369e-05
0.000781889
1.02079e-05
0.000780175
9.83756e-06
0.000778523
9.45826e-06
0.000776936
9.00001e-06
0.000775436
8.4547e-06
0.000774023
7.91308e-06
0.000772684
7.52493e-06
0.000771401
7.20883e-06
0.000770204
6.61858e-06
0.000769175
5.31929e-06
0.000768399
3.55544e-06
0.000767831
2.37746e-06
0.0007673
2.71174e-06
0.000766636
4.25021e-06
0.000765871
4.8801e-06
0.000765462
1.37201e-06
0.000765881
-6.10057e-06
0.000767551
-1.62044e-05
0.000770291
-2.31687e-05
0.000773109
-2.07641e-05
0.000775217
-1.17617e-05
0.00077593
2.39276e-06
0.000774923
1.6589e-05
0.000773862
1.24723e-05
0.000775026
-1.39402e-05
0.000780346
-5.60678e-05
0.000791613
-0.000115725
0.000810909
-0.000198015
0.000829989
-0.000174655
0.00081024
0.000256468
0.000701443
0.00114518
0.000417244
0.0018816
5.21542e-05
0.00133443
-0.00015114
0.000644408
-0.000227827
0.000724452
-0.000191959
-0.000111423
-0.00147822
0.000207599
-2.11063e-07
-0.00172466
0.000242256
-0.000189186
0.000141286
0.000828759
-0.000139041
0.000956215
-0.000581999
0.00182992
-0.000876722
0.00222776
-0.000979985
0.00127632
-0.000999491
0.000276033
-0.000979396
-0.00020421
-0.00095894
-0.000227221
-0.000946528
-0.0001343
-0.000940194
-6.6788e-05
-0.000938085
-1.94943e-05
-0.00093823
9.57352e-06
-0.000938316
1.356e-05
-0.000936629
-2.72014e-06
-0.000933573
-1.84988e-05
-0.000929852
-2.8296e-05
-0.000926267
-3.05341e-05
-0.000923862
-2.22148e-05
-0.000922788
-1.05753e-05
-0.000922614
-2.02517e-06
-0.000922853
2.04088e-06
-0.000923023
1.48081e-06
-0.000923115
6.11522e-09
-0.000923297
-5.31397e-08
-0.000923732
1.60095e-06
-0.000924452
3.88656e-06
5.43521e-06
0.000933926
1.23461e-05
0.000931832
1.30064e-05
0.00092973
1.30036e-05
0.000927641
1.28583e-05
0.000925592
1.2586e-05
0.000923591
1.22082e-05
0.000921648
1.17807e-05
0.000919765
1.13411e-05
0.000917962
1.08026e-05
0.000916252
1.01652e-05
0.000914642
9.52234e-06
0.000913113
9.05439e-06
0.000911648
8.67308e-06
0.000910275
7.99169e-06
0.00090909
6.5046e-06
0.000908171
4.47381e-06
0.000907474
3.07437e-06
0.000906835
3.35115e-06
0.000906081
5.00371e-06
0.00090522
5.74189e-06
0.000904722
1.86976e-06
0.000905083
-6.46228e-06
0.000906733
-1.78541e-05
0.000909526
-2.59614e-05
0.000912435
-2.36734e-05
0.000914667
-1.39945e-05
0.000915534
1.5263e-06
0.000914649
1.74735e-05
0.0009137
1.34215e-05
0.000914964
-1.52044e-05
0.000920378
-6.14814e-05
0.000931703
-0.00012705
0.000950851
-0.000217163
0.000969474
-0.000193277
0.000949214
0.000276727
0.000846978
0.00124742
0.000557603
0.00217098
0.000127624
0.00176441
-0.000142848
0.00091488
-0.000239772
0.000821376
-0.000204925
-0.00014627
-0.00168336
0.0002241
-2.8184e-06
-0.00194594
0.000252041
-0.000217127
0.000116254
0.000964545
-0.000248013
0.00132048
-0.000752843
0.00233475
-0.00104372
0.00251863
-0.00114063
0.00137324
-0.00116135
0.00029675
-0.0011419
-0.000223662
-0.00112157
-0.000247551
-0.00110894
-0.00014693
-0.00110233
-7.33988e-05
-0.00109997
-2.1852e-05
-0.00109989
9.49454e-06
-0.00109977
1.3437e-05
-0.00109785
-4.63447e-06
-0.0010946
-2.17507e-05
-0.00109071
-3.21876e-05
-0.001087
-3.42471e-05
-0.00108453
-2.46837e-05
-0.00108345
-1.16495e-05
-0.00108331
-2.1697e-06
-0.00108361
2.33892e-06
-0.00108386
1.73166e-06
-0.00108404
1.88876e-07
-0.00108433
2.35005e-07
-0.00108491
2.17648e-06
-0.00108579
4.76605e-06
6.51994e-06
0.00109634
1.45917e-05
0.00109396
1.53888e-05
0.00109156
1.54032e-05
0.00108919
1.52284e-05
0.00108685
1.49246e-05
0.00108456
1.44935e-05
0.00108234
1.39997e-05
0.00108019
1.34886e-05
0.00107813
1.28693e-05
0.00107617
1.21257e-05
0.00107431
1.13782e-05
0.00107255
1.08153e-05
0.00107086
1.03638e-05
0.00106928
9.57261e-06
0.00106789
7.89211e-06
0.00106679
5.57936e-06
0.00106593
3.92717e-06
0.00106515
4.13781e-06
0.00106425
5.89972e-06
0.00106326
6.73442e-06
0.00106265
2.47994e-06
0.00106291
-6.72948e-06
0.00106452