/*--------------------------------*- C++ -*----------------------------------*\
| =========                 |                                                 |
| \\      /  F ield         | OpenFOAM: The Open Source CFD Toolbox           |
|  \\    /   O peration     | Version:  2412                                  |
|   \\  /    A nd           | Website:  www.openfoam.com                      |
|    \\/     M anipulation  |                                                 |
\*---------------------------------------------------------------------------*/
FoamFile
{
    version     2.0;
    format      ascii;
    arch        "LSB;label=32;scalar=64";
    class       volVectorField;
    location    "360";
    object      U;
}
// * * * * * * * * * * * * * * * * * * * * * * * * * * * * * * * * * * * * * //

dimensions      [0 1 -1 0 0 0 0];

internalField   nonuniform List<vector> 
8637
(
(0.38207 -0.0238493 1.46081e-26)
(0.382385 -0.0242149 2.97084e-20)
(0.382702 -0.0245879 -4.86349e-28)
(0.383029 -0.0249694 1.37651e-20)
(0.383459 -0.0253655 0)
(0.383909 -0.0257713 5.93937e-28)
(0.384384 -0.0261872 2.47475e-20)
(0.38489 -0.026614 1.13349e-26)
(0.385417 -0.0270516 7.41553e-28)
(0.385978 -0.0275012 2.2479e-20)
(0.386582 -0.0279644 2.18243e-20)
(0.387225 -0.0284413 -1.16746e-26)
(0.387898 -0.0289314 9.90559e-27)
(0.388597 -0.0294352 -1.07838e-26)
(0.389348 -0.0299557 8.3606e-29)
(0.390145 -0.0304934 1.92222e-20)
(0.390982 -0.0310479 8.94804e-27)
(0.391861 -0.0316207 -8.83233e-27)
(0.392787 -0.0322132 1.81391e-20)
(0.393765 -0.0328269 -1.78525e-20)
(0.39479 -0.0334623 -8.4045e-27)
(0.395863 -0.0341205 -3.47727e-20)
(0.396978 -0.0348023 3.44105e-20)
(0.398142 -0.0355098 -8.12859e-27)
(0.39936 -0.0362448 -8.09954e-27)
(0.400624 -0.037008 8.02759e-27)
(0.401933 -0.0378006 6.7337e-20)
(0.403282 -0.0386235 -3.36622e-20)
(0.404671 -0.039479 -3.37312e-20)
(0.406097 -0.0403683 8.03206e-27)
(0.407557 -0.0412923 -8.1935e-27)
(0.409044 -0.0422522 3.44211e-20)
(0.410561 -0.0432506 0)
(0.412095 -0.0442878 -3.53072e-20)
(0.413641 -0.0453655 4.88717e-27)
(0.415192 -0.0464847 3.65806e-20)
(0.416734 -0.0476451 -8.80163e-27)
(0.418271 -0.0488499 2.44601e-27)
(0.419789 -0.0500998 -4.34577e-27)
(0.421275 -0.0513945 0)
(0.422724 -0.0527353 0)
(0.42412 -0.0541228 0)
(0.425456 -0.0555577 0)
(0.42673 -0.057041 -4.6595e-20)
(0.427928 -0.058574 9.71051e-20)
(0.429024 -0.0601536 -2.36821e-26)
(0.430011 -0.0617812 0)
(0.430906 -0.0634604 1.1135e-19)
(0.431698 -0.0651909 1.17044e-19)
(0.432358 -0.0669705 1.23265e-19)
(0.432868 -0.0687979 2.60125e-19)
(0.433235 -0.0706745 -1.37488e-19)
(0.433494 -0.0726087 -6.94949e-26)
(0.43364 -0.0745998 7.3713e-26)
(0.4336 -0.076638 -8.3327e-26)
(0.433382 -0.0787248 -2.30266e-27)
(0.433041 -0.0808713 -1.85948e-19)
(0.432605 -0.0830856 -4.86922e-26)
(0.431998 -0.0853552 9.6394e-26)
(0.431195 -0.0876761 2.2663e-19)
(0.430261 -0.0900624 0)
(0.429245 -0.0925291 -6.39111e-26)
(0.428054 -0.0950583 2.79101e-19)
(0.426663 -0.0976485 2.99782e-19)
(0.425139 -0.100316 3.22327e-19)
(0.423537 -0.10308 3.46886e-19)
(0.421733 -0.105915 3.7366e-19)
(0.419725 -0.108829 -2.26029e-25)
(0.417612 -0.111849 -4.34775e-19)
(0.415356 -0.114976 -4.4842e-25)
(0.412857 -0.118193 2.35002e-25)
(0.410174 -0.121525 -5.49432e-19)
(0.407348 -0.124997 -1.19023e-18)
(0.404254 -0.12859 -6.45212e-19)
(0.400891 -0.132316 -6.68693e-25)
(0.397323 -0.136219 3.51965e-25)
(0.3934 -0.140274 -6.37139e-26)
(0.389073 -0.144487 4.43582e-25)
(0.384368 -0.148907 -4.54094e-25)
(0.379097 -0.153501 2.14285e-18)
(0.373207 -0.158287 5.76782e-25)
(0.366467 -0.163229 -1.28053e-18)
(0.358611 -0.168258 0)
(0.34933 -0.173294 -8.82451e-25)
(0.338014 -0.178074 -5.13581e-26)
(0.32394 -0.182241 9.26272e-19)
(0.305815 -0.184986 -1.01692e-18)
(0.281692 -0.184826 1.11506e-18)
(1.19141 -0.0743697 -2.42593e-26)
(1.19248 -0.0755156 -2.46685e-20)
(1.19356 -0.0766845 2.37357e-20)
(1.19467 -0.0778803 -4.07167e-26)
(1.19609 -0.0791214 2.1197e-26)
(1.19759 -0.0803933 -2.12712e-20)
(1.19918 -0.0816978 -1.97547e-26)
(1.20086 -0.0830365 0)
(1.20262 -0.0844096 -3.85089e-20)
(1.20449 -0.0858213 -3.73399e-20)
(1.20649 -0.0872752 -1.71848e-26)
(1.2086 -0.0887715 7.04945e-20)
(1.21082 -0.0903099 1.64554e-26)
(1.21315 -0.0918934 3.34526e-20)
(1.21562 -0.0935285 0)
(1.21823 -0.0952165 -6.38751e-20)
(1.22097 -0.0969585 0)
(1.22386 -0.0987589 3.06802e-20)
(1.2269 -0.100621 3.0143e-20)
(1.23008 -0.102549 0)
(1.23342 -0.104546 2.92529e-20)
(1.23691 -0.106614 5.77927e-20)
(1.24054 -0.108757 -5.71943e-20)
(1.24431 -0.11098 1.35111e-26)
(1.24824 -0.113289 0)
(1.25232 -0.115686 5.60993e-20)
(1.25653 -0.118175 1.71972e-26)
(1.26087 -0.120759 5.59655e-20)
(1.26533 -0.123445 0)
(1.2699 -0.126236 0)
(1.27456 -0.129135 0)
(1.2793 -0.132147 2.75264e-26)
(1.28411 -0.135277 5.7904e-20)
(1.28897 -0.138527 0)
(1.29387 -0.141905 5.9693e-20)
(1.29876 -0.14541 -6.08406e-20)
(1.30362 -0.149045 2.92783e-26)
(1.30845 -0.152815 2.02361e-26)
(1.3132 -0.156725 1.30784e-19)
(1.31783 -0.160774 6.73225e-20)
(1.32233 -0.164964 6.94794e-20)
(1.32665 -0.169298 -3.36915e-26)
(1.33078 -0.17378 7.4558e-20)
(1.33469 -0.17841 7.7512e-20)
(1.33835 -0.183191 0)
(1.34166 -0.188117 -4.11223e-26)
(1.34463 -0.193188 4.1202e-26)
(1.34728 -0.198418 -1.85233e-19)
(1.34961 -0.203807 0)
(1.35152 -0.209346 -4.10103e-19)
(1.35294 -0.215029 -2.16356e-19)
(1.35389 -0.220864 4.5741e-19)
(1.3545 -0.226873 5.93164e-26)
(1.35474 -0.23306 -5.9666e-26)
(1.35441 -0.23939 2.72872e-19)
(1.3535 -0.245865 1.38573e-25)
(1.3522 -0.252526 3.09279e-19)
(1.3506 -0.259395 3.29946e-19)
(1.34846 -0.26643 -3.52432e-19)
(1.34568 -0.27362 3.76908e-19)
(1.34249 -0.281011 0)
(1.33905 -0.288649 -4.32553e-19)
(1.33506 -0.296478 -1.31149e-26)
(1.33043 -0.304487 2.30891e-25)
(1.32538 -0.312737 -5.35958e-19)
(1.32007 -0.321275 0)
(1.31413 -0.330035 -6.21258e-19)
(1.30755 -0.339028 -6.69816e-19)
(1.30063 -0.348343 7.22805e-19)
(1.29326 -0.357991 0)
(1.28512 -0.367902 0)
(1.27639 -0.378163 1.82658e-18)
(1.26722 -0.388853 9.89188e-19)
(1.25719 -0.399896 1.0724e-18)
(1.24632 -0.411353 -1.16383e-18)
(1.23479 -0.423328 0)
(1.22211 -0.435761 -1.37489e-18)
(1.20818 -0.448667 0)
(1.19305 -0.462191 1.6314e-18)
(1.17613 -0.476222 -1.55158e-26)
(1.15725 -0.490811 -9.58268e-25)
(1.1357 -0.505843 2.12735e-18)
(1.11065 -0.521102 2.29628e-24)
(1.08114 -0.536305 -2.55409e-18)
(1.04527 -0.550659 0)
(1.00082 -0.563008 -1.53843e-18)
(0.943804 -0.570856 1.68886e-18)
(0.868274 -0.569642 -3.6344e-24)
(2.09658 -0.130873 0)
(2.09871 -0.132904 0)
(2.10083 -0.134977 0)
(2.10302 -0.137097 -2.58687e-20)
(2.10577 -0.139298 -2.49411e-20)
(2.10866 -0.141554 -2.40704e-20)
(2.11172 -0.143869 4.65123e-20)
(2.11494 -0.146245 4.49944e-20)
(2.11833 -0.148683 4.35766e-20)
(2.12192 -0.151191 4.22538e-20)
(2.12574 -0.153774 1.96894e-26)
(2.12976 -0.156432 1.36911e-26)
(2.13398 -0.159166 3.68422e-26)
(2.13841 -0.161982 -3.78544e-20)
(2.14311 -0.164891 -3.69578e-20)
(2.14804 -0.167893 3.61398e-20)
(2.15322 -0.170991 -3.53942e-20)
(2.15867 -0.174194 -3.47164e-20)
(2.16437 -0.177508 -3.41084e-20)
(2.17034 -0.180939 -3.20786e-26)
(2.17658 -0.18449 -3.31009e-20)
(2.18307 -0.18817 0)
(2.18982 -0.191982 0)
(2.19683 -0.195937 -3.06438e-26)
(2.2041 -0.200043 -1.1433e-28)
(2.21161 -0.204305 -1.26951e-19)
(2.21935 -0.208728 -6.33319e-20)
(2.2273 -0.21332 0)
(2.23545 -0.218093 0)
(2.24378 -0.22305 3.0594e-26)
(2.25225 -0.228196 -3.03982e-26)
(2.26085 -0.233541 -3.11434e-26)
(2.26954 -0.23909 -1.31023e-19)
(2.27829 -0.244853 0)
(2.28707 -0.250837 3.25747e-26)
(2.29581 -0.257044 -3.24488e-26)
(2.30448 -0.263477 7.03292e-20)
(2.31304 -0.270146 -7.2037e-20)
(2.32144 -0.277058 -7.39759e-20)
(2.3296 -0.284211 -7.61582e-20)
(2.33746 -0.291606 -7.85967e-20)
(2.34498 -0.299254 8.13174e-20)
(2.35213 -0.307156 -8.43388e-20)
(2.35887 -0.315316 -4.10183e-26)
(2.3651 -0.323734 -1.82721e-19)
(2.37069 -0.332401 9.10752e-26)
(2.37563 -0.341319 -4.66034e-26)
(2.37999 -0.350508 2.09512e-19)
(2.38375 -0.359976 0)
(2.38674 -0.3697 2.31919e-19)
(2.38881 -0.379667 -1.19728e-25)
(2.39004 -0.389895 -2.58661e-19)
(2.39064 -0.400423 0)
(2.39059 -0.411259 0)
(2.38949 -0.422339 -3.08593e-19)
(2.38735 -0.433665 1.61041e-25)
(2.38451 -0.445312 -3.3391e-25)
(2.38113 -0.457317 -7.46226e-19)
(2.37678 -0.469606 0)
(2.37129 -0.482158 -4.262e-19)
(2.36507 -0.495055 -4.56314e-19)
(2.3584 -0.508379 9.78194e-19)
(2.35074 -0.522028 -5.24777e-19)
(2.34194 -0.535981 5.63626e-19)
(2.33238 -0.550347 0)
(2.32237 -0.565206 6.5209e-19)
(2.31123 -0.580446 0)
(2.29897 -0.596082 0)
(2.28607 -0.612266 8.17128e-19)
(2.27238 -0.629021 0)
(2.25734 -0.646218 0)
(2.24123 -0.664014 -2.06474e-18)
(2.22433 -0.682541 -1.11812e-18)
(2.20591 -0.701663 1.21213e-18)
(2.186 -0.721491 2.63086e-18)
(2.16491 -0.742195 8.46742e-26)
(2.14177 -0.763666 -1.43769e-24)
(2.11641 -0.785938 1.69158e-18)
(2.08892 -0.809243 -1.84361e-18)
(2.05826 -0.833381 -2.01168e-18)
(2.02411 -0.858445 0)
(1.98523 -0.884208 0)
(1.94017 -0.91028 0)
(1.88723 -0.936141 -2.88572e-18)
(1.82309 -0.960387 0)
(1.74387 -0.980947 0)
(1.64261 -0.993444 0)
(1.50903 -0.989902 -2.09186e-18)
(3.10199 -0.193635 0)
(3.10562 -0.196671 0)
(3.10927 -0.199771 0)
(3.11308 -0.202945 0)
(3.1177 -0.20624 5.63773e-20)
(3.12255 -0.209618 5.44084e-20)
(3.12765 -0.213086 -5.25678e-20)
(3.13302 -0.216646 1.27656e-25)
(3.13867 -0.220303 -4.92493e-20)
(3.14465 -0.224066 0)
(3.15096 -0.227941 0)
(3.1576 -0.231931 -9.01521e-20)
(3.16455 -0.236036 4.16362e-26)
(3.17184 -0.240267 -7.12841e-26)
(3.17953 -0.244637 4.17654e-20)
(3.18759 -0.249148 -3.91124e-26)
(3.19602 -0.253806 3.9997e-20)
(3.20484 -0.25862 3.73172e-26)
(3.21406 -0.263602 -3.68526e-26)
(3.22369 -0.268759 0)
(3.2337 -0.274098 0)
(3.24407 -0.279627 -7.38897e-20)
(3.25483 -0.285357 0)
(3.26597 -0.2913 7.25027e-20)
(3.27748 -0.297467 0)
(3.28931 -0.303866 7.17144e-20)
(3.30144 -0.310504 7.15506e-20)
(3.31388 -0.317393 -6.82536e-26)
(3.32659 -0.32455 3.40199e-26)
(3.33949 -0.331978 -3.45609e-26)
(3.35258 -0.339686 3.43388e-26)
(3.36581 -0.347686 0)
(3.37912 -0.355987 -8.15477e-26)
(3.39246 -0.364601 3.6156e-26)
(3.40577 -0.373537 -3.59967e-26)
(3.41895 -0.382799 0)
(3.43197 -0.392391 -7.94312e-20)
(3.44476 -0.402327 0)
(3.45724 -0.412618 0)
(3.46927 -0.423255 0)
(3.48078 -0.434244 -8.87583e-20)
(3.49171 -0.445597 -1.83657e-19)
(3.502 -0.457316 9.52382e-20)
(3.51161 -0.46941 0)
(3.52039 -0.481874 4.12649e-19)
(3.52813 -0.494691 1.05043e-25)
(3.53483 -0.507869 -1.05242e-25)
(3.54059 -0.521437 -2.36561e-19)
(3.54543 -0.535406 -1.21496e-25)
(3.54907 -0.549742 1.21929e-25)
(3.55124 -0.564421 2.76279e-19)
(3.55213 -0.57947 2.92038e-19)
(3.55205 -0.594956 0)
(3.55098 -0.610883 0)
(3.54828 -0.627153 3.48403e-19)
(3.54399 -0.643771 1.81815e-25)
(3.53866 -0.660851 1.05664e-26)
(3.53251 -0.678448 -5.68878e-25)
(3.52488 -0.696449 4.49928e-19)
(3.51555 -0.714818 2.2304e-25)
(3.50511 -0.733684 5.15153e-19)
(3.49399 -0.753165 -5.52161e-19)
(3.48138 -0.773105 5.92439e-19)
(3.46706 -0.793476 -6.36294e-19)
(3.45162 -0.814436 -6.84096e-19)
(3.43548 -0.836106 -7.3616e-19)
(3.41766 -0.85831 7.34254e-25)
(3.39817 -0.881079 -8.40932e-25)
(3.37771 -0.904628 1.51261e-24)
(3.35606 -0.928986 0)
(3.33241 -0.953978 -1.07705e-18)
(3.30718 -0.979816 2.33084e-18)
(3.28074 -1.00669 1.26222e-18)
(3.25203 -1.03441 -2.73669e-18)
(3.22113 -1.06313 -1.48494e-18)
(3.18846 -1.09309 0)
(3.15274 -1.12412 1.75409e-18)
(3.11373 -1.15628 -1.90955e-18)
(3.07151 -1.18987 0)
(3.02458 -1.22463 -2.23742e-24)
(2.97247 -1.26063 -1.50429e-25)
(2.91332 -1.29754 2.71355e-18)
(2.84499 -1.33475 -2.92894e-24)
(2.76493 -1.37147 6.51546e-18)
(2.66832 -1.40557 0)
(2.54935 -1.43396 0)
(2.3979 -1.45012 -4.2383e-24)
(2.19897 -1.4423 2.36201e-18)
(4.21172 -0.262912 -7.12041e-26)
(4.21759 -0.267094 3.55576e-20)
(4.22353 -0.271366 3.42123e-20)
(4.22976 -0.275747 0)
(4.23706 -0.280292 -3.17681e-20)
(4.2447 -0.284954 -3.06574e-20)
(4.25273 -0.289742 -1.13023e-25)
(4.26116 -0.294662 -5.73032e-20)
(4.27002 -0.299718 -5.5495e-20)
(4.27934 -0.304922 -5.38074e-20)
(4.28915 -0.310283 4.95238e-26)
(4.29943 -0.315806 1.0157e-19)
(4.31016 -0.321491 -4.69075e-26)
(4.3214 -0.327352 -1.79186e-26)
(4.33318 -0.333407 -4.46834e-26)
(4.34549 -0.339659 4.40563e-26)
(4.35832 -0.346114 -4.505e-20)
(4.37168 -0.352787 -4.20289e-26)
(4.3856 -0.359692 1.87835e-28)
(4.40005 -0.36684 4.08189e-26)
(4.41502 -0.374238 -4.21158e-20)
(4.43047 -0.381898 -1.37755e-25)
(4.44643 -0.389833 -3.92846e-26)
(4.46287 -0.398062 -8.16213e-20)
(4.47976 -0.406595 -7.75048e-26)
(4.49706 -0.415445 -8.07217e-20)
(4.51473 -0.424622 -8.0531e-20)
(4.53272 -0.434139 -7.64821e-26)
(4.55102 -0.444017 0)
(4.56953 -0.454263 -8.10212e-20)
(4.58819 -0.464887 7.83731e-26)
(4.60694 -0.475902 -7.79029e-26)
(4.62571 -0.487322 8.32488e-20)
(4.64441 -0.499162 7.97462e-26)
(4.66295 -0.51143 -8.5801e-20)
(4.6812 -0.524132 -1.99517e-27)
(4.6991 -0.537275 8.93364e-20)
(4.71657 -0.550874 -8.8536e-26)
(4.73348 -0.564944 8.83227e-26)
(4.74962 -0.579467 9.67158e-20)
(4.76491 -0.594452 9.98051e-20)
(4.77928 -0.609917 1.03253e-19)
(4.79265 -0.625865 2.34659e-25)
(4.80498 -0.642305 -1.08345e-25)
(4.81604 -0.659228 -2.31974e-19)
(4.8255 -0.676604 1.13141e-25)
(4.83342 -0.69445 2.53556e-19)
(4.83998 -0.712807 -2.65961e-19)
(4.84521 -0.731691 1.36595e-25)
(4.84869 -0.751053 -2.81032e-25)
(4.85004 -0.770847 -3.10619e-19)
(4.84954 -0.791123 -3.28343e-19)
(4.84771 -0.811975 -3.47685e-19)
(4.84448 -0.833409 -3.68773e-19)
(4.83895 -0.855274 3.91748e-19)
(4.83116 -0.877584 -4.08882e-25)
(4.82194 -0.900504 4.12029e-25)
(4.8116 -0.924104 9.47394e-19)
(4.79918 -0.948221 -5.05986e-19)
(4.7844 -0.972808 -5.41139e-19)
(4.7681 -0.998046 0)
(4.75087 -1.02409 6.10394e-25)
(4.73157 -1.05073 -6.1742e-25)
(4.70994 -1.07791 0)
(4.68678 -1.10587 7.69597e-19)
(4.66263 -1.13475 -8.28221e-19)
(4.63618 -1.16432 -8.26136e-25)
(4.60745 -1.19461 9.6191e-19)
(4.5774 -1.22592 -1.03804e-18)
(4.54569 -1.25827 1.03801e-24)
(4.51127 -1.29144 1.21219e-18)
(4.47471 -1.3257 -1.31175e-18)
(4.43647 -1.36131 -1.42083e-18)
(4.39517 -1.398 1.54042e-18)
(4.35089 -1.43598 -1.67183e-18)
(4.30415 -1.47555 -1.68061e-24)
(4.25327 -1.51649 -1.97521e-18)
(4.19795 -1.55887 -2.15049e-18)
(4.13821 -1.60307 2.30904e-24)
(4.0721 -1.64872 -2.55802e-18)
(3.99889 -1.6959 5.50835e-24)
(3.91608 -1.7441 -2.54901e-25)
(3.82078 -1.7925 -3.34875e-18)
(3.70949 -1.83992 -3.67185e-18)
(3.57569 -1.88345 -7.45173e-24)
(3.41151 -1.91877 8.71688e-24)
(3.20333 -1.93701 -1.85533e-23)
(2.93109 -1.92222 -5.87356e-25)
(5.42877 -0.338893 -7.98075e-26)
(5.4379 -0.344381 -3.98505e-20)
(5.44721 -0.349995 6.78305e-26)
(5.45699 -0.355761 6.98495e-26)
(5.46811 -0.361736 -1.35809e-25)
(5.47971 -0.367871 -3.43447e-20)
(5.49187 -0.374175 -6.28188e-26)
(5.50463 -0.380657 -6.41796e-20)
(5.51797 -0.387322 6.21461e-20)
(5.53195 -0.394185 6.02479e-20)
(5.54659 -0.401259 -1.10888e-25)
(5.56189 -0.408548 -1.13695e-19)
(5.57782 -0.416055 0)
(5.59442 -0.423796 1.07857e-19)
(5.61174 -0.431793 0)
(5.62975 -0.440052 0)
(5.64845 -0.44858 5.03856e-20)
(5.66784 -0.457396 -9.45384e-26)
(5.68791 -0.466516 0)
(5.70866 -0.475953 -4.77506e-20)
(5.73004 -0.485718 4.70684e-20)
(5.75202 -0.495825 9.29613e-20)
(5.77458 -0.50629 8.77081e-26)
(5.79771 -0.517135 0)
(5.82134 -0.528374 9.05503e-20)
(5.84541 -0.540022 9.01257e-20)
(5.86986 -0.55209 0)
(5.89462 -0.564594 0)
(5.91964 -0.577558 8.63356e-26)
(5.9448 -0.590994 9.03911e-20)
(5.97002 -0.60491 -9.09804e-20)
(5.99519 -0.619322 8.68818e-26)
(6.02022 -0.634248 9.28288e-20)
(6.04498 -0.649702 -9.41084e-20)
(6.06934 -0.665694 9.56448e-20)
(6.09313 -0.682231 -9.74598e-20)
(6.11628 -0.69932 -1.99121e-19)
(6.13868 -0.716982 1.01958e-19)
(6.16015 -0.735228 -1.01397e-25)
(6.1804 -0.754036 -1.07753e-19)
(6.19932 -0.773412 3.58801e-27)
(6.21682 -0.79338 1.15023e-19)
(6.23287 -0.813949 5.968e-25)
(6.24741 -0.835128 -1.16021e-25)
(6.26009 -0.856899 0)
(6.27047 -0.879215 0)
(6.27867 -0.902103 -5.64918e-19)
(6.285 -0.925625 2.96292e-19)
(6.28951 -0.949803 0)
(6.2916 -0.974558 0)
(6.29073 -0.999826 0)
(6.28738 -1.02568 0)
(6.28228 -1.05226 3.87525e-19)
(6.27531 -1.07955 4.11085e-19)
(6.26524 -1.10736 -4.36761e-19)
(6.25217 -1.13571 -4.31421e-25)
(6.23724 -1.16481 0)
(6.22084 -1.19475 -1.05681e-18)
(6.20168 -1.22532 5.54431e-25)
(6.17943 -1.25645 -2.53756e-24)
(6.15524 -1.28839 6.35479e-25)
(6.12981 -1.32132 6.93362e-19)
(6.10167 -1.35497 -6.89455e-25)
(6.0705 -1.38928 0)
(6.03736 -1.42453 0)
(6.00292 -1.46092 9.25513e-19)
(5.96547 -1.49814 9.80848e-25)
(5.92512 -1.53624 -2.15091e-18)
(5.88304 -1.57557 -1.16089e-18)
(5.83878 -1.61619 0)
(5.79104 -1.65777 -1.35639e-18)
(5.74057 -1.70071 0)
(5.68788 -1.74528 1.59074e-18)
(5.63128 -1.79114 0)
(5.57086 -1.83859 -5.36233e-24)
(5.50721 -1.88795 -2.03527e-18)
(5.43827 -1.93896 0)
(5.36364 -1.9917 4.82299e-18)
(5.28327 -2.0466 -3.15819e-25)
(5.19471 -2.10319 2.87057e-18)
(5.09694 -2.16151 6.18384e-24)
(4.98675 -2.22088 -3.43387e-18)
(4.86046 -2.28017 7.5255e-18)
(4.71344 -2.33777 4.12788e-18)
(4.53741 -2.38987 -8.38168e-24)
(4.32211 -2.43072 0)
(4.05021 -2.44881 -2.73625e-18)
(3.69619 -2.42353 0)
(6.75302 -0.421572 0)
(6.76675 -0.42855 0)
(6.78081 -0.435695 -4.25189e-20)
(6.79562 -0.443045 2.62448e-27)
(6.81198 -0.450653 -3.94499e-20)
(6.82903 -0.45847 2.10926e-26)
(6.84686 -0.466509 1.3917e-25)
(6.86546 -0.474777 7.10688e-20)
(6.88486 -0.483284 1.32165e-25)
(6.90511 -0.492047 6.66696e-20)
(6.92621 -0.501082 0)
(6.94816 -0.510393 6.28601e-20)
(6.97093 -0.519986 0)
(6.99455 -0.529878 -5.95851e-20)
(7.01907 -0.540097 -1.11413e-25)
(7.04443 -0.550649 -1.07967e-25)
(7.07063 -0.561543 -5.56009e-20)
(7.09766 -0.572802 0)
(7.12549 -0.584443 0)
(7.15408 -0.596484 5.26232e-20)
(7.1834 -0.608935 0)
(7.21336 -0.621813 -1.02356e-19)
(7.24395 -0.635138 0)
(7.2751 -0.648933 1.00289e-19)
(7.30676 -0.663218 -1.99133e-19)
(7.33881 -0.678007 5.06932e-28)
(7.37115 -0.693313 -9.38941e-26)
(7.40369 -0.709154 -9.86755e-20)
(7.43636 -0.725559 0)
(7.46898 -0.742539 -9.91855e-20)
(7.50147 -0.760103 9.97939e-20)
(7.53366 -0.77827 -1.92067e-25)
(7.56542 -0.797059 -1.01752e-19)
(7.59658 -0.816483 1.03123e-19)
(7.62696 -0.836554 9.88932e-26)
(7.65636 -0.857279 2.13483e-19)
(7.68469 -0.878665 -3.31433e-25)
(7.71184 -0.900738 5.62388e-25)
(7.73755 -0.92351 0)
(7.76144 -0.946944 0)
(7.78335 -0.971045 1.21692e-19)
(7.80323 -0.995847 -1.25885e-19)
(7.82108 -1.02136 -1.30552e-19)
(7.83687 -1.04761 1.3572e-19)
(7.85006 -1.07455 -2.6442e-25)
(7.86009 -1.10211 -2.95433e-19)
(7.86719 -1.13034 3.09282e-19)
(7.87183 -1.15933 3.0262e-25)
(7.8741 -1.1891 3.33423e-25)
(7.87316 -1.21954 -3.59436e-19)
(7.86835 -1.25056 3.79408e-19)
(7.86032 -1.28228 3.7321e-25)
(7.85011 -1.31486 4.16474e-25)
(7.83749 -1.34829 -8.61337e-25)
(7.82089 -1.38231 -4.79506e-19)
(7.80048 -1.41695 -5.00798e-25)
(7.77777 -1.45249 -5.44199e-19)
(7.75321 -1.48904 -4.05199e-24)
(7.72514 -1.52631 5.75881e-25)
(7.69319 -1.56422 -3.86221e-24)
(7.65885 -1.6031 0)
(7.62294 -1.64316 5.04318e-24)
(7.58362 -1.68404 -7.60115e-25)
(7.54053 -1.72568 -8.81939e-19)
(7.49501 -1.76845 1.86649e-24)
(7.4478 -1.81254 -1.8934e-24)
(7.39686 -1.85758 0)
(7.34233 -1.90365 1.18935e-18)
(7.28563 -1.95118 1.28467e-18)
(7.22618 -2.00019 2.73319e-24)
(7.16246 -2.05033 -1.02487e-23)
(7.09536 -2.10204 -3.20446e-24)
(7.02544 -2.15565 3.26761e-24)
(6.9507 -2.21077 0)
(6.87128 -2.26773 -6.10858e-24)
(6.78778 -2.3269 -1.52998e-23)
(6.69777 -2.38796 4.85334e-24)
(6.60074 -2.45101 -2.68598e-18)
(6.49651 -2.51651 -2.93112e-18)
(6.38215 -2.58387 6.31082e-24)
(6.25626 -2.65306 -6.48035e-24)
(6.11491 -2.72319 3.83805e-18)
(5.9535 -2.79281 -8.41955e-18)
(5.76614 -2.85972 3.60367e-23)
(5.54265 -2.91911 -9.39753e-24)
(5.27015 -2.96359 -2.79532e-18)
(4.92725 -2.97866 6.14997e-18)
(4.48266 -2.93855 -2.50339e-23)
(8.17794 -0.510549 1.89854e-25)
(8.1978 -0.519202 -1.85622e-25)
(8.21816 -0.528074 0)
(8.23963 -0.537211 4.45966e-20)
(8.26281 -0.546658 -3.86617e-25)
(8.2869 -0.556369 4.14074e-20)
(8.31199 -0.56636 3.04972e-25)
(8.33807 -0.57664 -2.94659e-25)
(8.36514 -0.587219 -7.46958e-20)
(8.39325 -0.598116 -7.23345e-20)
(8.42242 -0.609353 1.6632e-27)
(8.45261 -0.620933 1.3067e-25)
(8.48377 -0.632861 -1.25619e-25)
(8.51593 -0.64516 6.44408e-20)
(8.54912 -0.657859 1.19325e-25)
(8.58327 -0.670966 -1.17479e-25)
(8.61834 -0.684491 5.99748e-20)
(8.65432 -0.698459 0)
(8.69115 -0.712891 5.76119e-20)
(8.72877 -0.727806 0)
(8.7671 -0.743214 5.57284e-20)
(8.80604 -0.759136 1.09917e-19)
(8.84553 -0.775592 -2.07291e-25)
(8.88551 -0.79261 -1.07509e-19)
(8.92587 -0.810211 1.06644e-19)
(8.96645 -0.828409 2.02823e-25)
(9.00713 -0.847219 -1.0561e-19)
(9.04778 -0.86666 1.05436e-19)
(9.08829 -0.886766 -1.05506e-19)
(9.12847 -0.907547 -1.2726e-24)
(9.16817 -0.929013 0)
(9.20722 -0.951185 -2.06314e-25)
(9.24543 -0.974083 1.08374e-19)
(9.28257 -0.997718 -1.09781e-19)
(9.31842 -1.0221 -1.11497e-19)
(9.35276 -1.04725 -1.13543e-19)
(9.38549 -1.07316 1.15932e-19)
(9.41651 -1.09986 -2.37353e-19)
(9.44549 -1.12738 -2.35979e-25)
(9.47191 -1.15565 4.78576e-25)
(9.49561 -1.18468 -1.29357e-19)
(9.51657 -1.21452 -1.33833e-19)
(9.53489 -1.24518 0)
(9.5505 -1.27669 -2.88696e-19)
(9.5627 -1.30899 3.00934e-19)
(9.57081 -1.34198 3.14457e-19)
(9.5752 -1.37575 3.29373e-19)
(9.57651 -1.41039 3.45778e-19)
(9.57487 -1.44594 -3.55503e-25)
(9.56921 -1.48225 3.83501e-19)
(9.55867 -1.51921 -4.05127e-19)
(9.54422 -1.55697 0)
(9.52712 -1.59574 4.45468e-25)
(9.50707 -1.6355 -4.4873e-25)
(9.4821 -1.67591 1.02768e-18)
(9.45253 -1.71702 5.47569e-19)
(9.42022 -1.7592 1.16875e-18)
(9.38562 -1.80253 6.24504e-19)
(9.34674 -1.84667 0)
(9.30322 -1.89156 7.16063e-19)
(9.25683 -1.93755 -1.42401e-24)
(9.20848 -1.9849 -8.25012e-19)
(9.15598 -2.03316 0)
(9.09897 -2.0823 1.90944e-18)
(9.03904 -2.13272 -1.90553e-24)
(8.97696 -2.18464 -1.10938e-18)
(8.9104 -2.23763 0)
(8.83956 -2.29179 0)
(8.76604 -2.3476 0)
(8.68912 -2.40507 0)
(8.60713 -2.46382 1.64196e-18)
(8.52107 -2.52435 0)
(8.43148 -2.58701 0)
(8.33616 -2.65137 -2.10151e-18)
(8.23525 -2.71781 2.2864e-18)
(8.12928 -2.78669 2.49006e-18)
(8.01552 -2.8577 2.71507e-18)
(7.89337 -2.9309 0)
(7.7624 -3.00676 6.47862e-18)
(7.61923 -3.08459 3.54502e-18)
(7.46198 -3.16422 0)
(7.28597 -3.24454 -4.26263e-18)
(7.08559 -3.32368 4.68379e-18)
(6.85351 -3.39874 -5.15308e-18)
(6.57751 -3.46381 -5.67569e-18)
(6.24176 -3.50952 3.12774e-18)
(5.82059 -3.51808 -3.44714e-18)
(5.2765 -3.45801 -3.79373e-18)
(9.68648 -0.604763 -2.05982e-25)
(9.71382 -0.615254 5.13329e-20)
(9.74185 -0.626017 -4.92905e-20)
(9.77131 -0.637112 -9.47189e-20)
(9.8026 -0.648567 4.55604e-20)
(9.835 -0.660345 -3.3213e-25)
(9.86857 -0.672461 3.2515e-25)
(9.90329 -0.684927 -8.16049e-20)
(9.93915 -0.697753 7.88302e-20)
(9.9762 -0.710961 0)
(10.0144 -0.724574 7.38158e-20)
(10.0538 -0.738597 7.15662e-20)
(10.0941 -0.753033 -2.85654e-27)
(10.1356 -0.767906 -1.35059e-19)
(10.1781 -0.78325 -6.57332e-20)
(10.2215 -0.799074 -2.43576e-25)
(10.2659 -0.815386 -6.25701e-20)
(10.3111 -0.832214 2.34136e-25)
(10.3571 -0.849583 4.86836e-25)
(10.4038 -0.86751 2.24734e-25)
(10.451 -0.886008 -5.77944e-20)
(10.4987 -0.905096 -2.17116e-25)
(10.5467 -0.9248 2.14204e-25)
(10.595 -0.945149 -2.12078e-25)
(10.6435 -0.966163 4.19727e-25)
(10.6919 -0.987863 -2.07793e-25)
(10.74 -1.01026 -1.62095e-24)
(10.7878 -1.03337 -1.08344e-19)
(10.8351 -1.05725 2.16596e-19)
(10.8816 -1.08189 1.08521e-19)
(10.9273 -1.1073 -1.09018e-19)
(10.9719 -1.13352 0)
(11.0151 -1.16057 -1.10856e-19)
(11.0567 -1.18844 1.12227e-19)
(11.0965 -1.21716 1.13924e-19)
(11.1342 -1.24674 1.15975e-19)
(11.1697 -1.27719 2.23019e-25)
(11.203 -1.30855 2.42337e-19)
(11.2336 -1.34082 2.33833e-25)
(11.2609 -1.37394 1.28014e-19)
(11.2848 -1.40791 1.32127e-19)
(11.3052 -1.4428 2.73506e-19)
(11.3224 -1.47864 -2.65817e-25)
(11.3364 -1.51543 1.47667e-19)
(11.3461 -1.55312 -3.08089e-19)
(11.3509 -1.59158 -6.28363e-25)
(11.3512 -1.63092 -3.37874e-19)
(11.3479 -1.67127 -3.55109e-19)
(11.3411 -1.71267 0)
(11.3296 -1.75492 0)
(11.3122 -1.7979 0)
(11.2903 -1.8418 -8.67202e-25)
(11.2653 -1.88687 4.70302e-19)
(11.2369 -1.93306 -5.00347e-19)
(11.2026 -1.97998 -5.33251e-19)
(11.1631 -2.02771 -5.69278e-19)
(11.1203 -2.07666 8.69748e-24)
(11.0749 -2.12692 0)
(11.0243 -2.17808 0)
(10.9685 -2.2301 7.50152e-19)
(10.9093 -2.28338 8.06372e-19)
(10.8476 -2.33817 -1.70575e-24)
(10.7811 -2.39398 3.57051e-24)
(10.7093 -2.45077 -1.0084e-18)
(10.6341 -2.50901 0)
(10.5562 -2.56889 2.3536e-18)
(10.473 -2.62996 0)
(10.3848 -2.69235 0)
(10.2934 -2.75655 1.49465e-18)
(10.1978 -2.82258 0)
(10.0963 -2.89002 0)
(9.99003 -2.95944 0)
(9.87939 -3.03117 8.20439e-24)
(9.76206 -3.10478 -2.79908e-23)
(9.63815 -3.18068 2.47594e-18)
(9.50806 -3.25921 -1.00049e-23)
(9.36886 -3.34006 -2.9545e-18)
(9.21976 -3.42326 3.23333e-18)
(9.06004 -3.50924 -3.54286e-18)
(8.88591 -3.59722 -3.88734e-18)
(8.69488 -3.68682 4.27137e-18)
(8.48145 -3.77667 0)
(8.23893 -3.86439 0)
(7.95836 -3.94629 0)
(7.62526 -4.0151 6.31133e-18)
(7.22057 -4.05923 0)
(6.71398 -4.05716 0)
(6.06154 -3.97116 -2.96343e-23)
(11.2484 -0.702331 4.25867e-25)
(11.2839 -0.714753 -5.29754e-20)
(11.3202 -0.727498 5.07786e-20)
(11.3581 -0.740632 -2.03172e-25)
(11.3979 -0.754176 -3.59661e-25)
(11.439 -0.768097 0)
(11.4812 -0.78241 0)
(11.5247 -0.797126 -1.09396e-24)
(11.5694 -0.812257 0)
(11.6152 -0.827825 0)
(11.6622 -0.843854 -7.48471e-20)
(11.7102 -0.860349 -7.24153e-20)
(11.7592 -0.877311 -5.35369e-25)
(11.8092 -0.894767 6.80466e-20)
(11.8601 -0.912751 6.60978e-20)
(11.9118 -0.931275 2.44421e-25)
(11.9642 -0.950343 1.25314e-19)
(12.0173 -0.969988 -6.11434e-20)
(12.071 -0.990235 -1.1953e-19)
(12.1251 -1.0111 2.22966e-25)
(12.1795 -1.0326 -5.74178e-20)
(12.234 -1.05476 2.15296e-25)
(12.2886 -1.07759 -4.24212e-25)
(12.3431 -1.10114 2.09095e-25)
(12.3974 -1.12543 -2.07421e-25)
(12.4513 -1.15047 2.04671e-25)
(12.5045 -1.17629 1.06858e-19)
(12.557 -1.2029 1.06418e-19)
(12.6086 -1.23035 -1.06243e-19)
(12.6591 -1.25865 0)
(12.7082 -1.28782 1.06728e-19)
(12.7558 -1.31787 -2.09868e-25)
(12.8016 -1.34884 1.08367e-19)
(12.8454 -1.38074 1.09649e-19)
(12.8867 -1.41358 1.11268e-19)
(12.9256 -1.44737 -1.13244e-19)
(12.9618 -1.48214 0)
(12.9953 -1.51793 3.75353e-24)
(13.0257 -1.55475 -4.56824e-25)
(13.0521 -1.59251 -1.25103e-19)
(13.0746 -1.63124 -1.2921e-19)
(13.0931 -1.67099 -2.67702e-19)
(13.108 -1.71183 5.40855e-25)
(13.1192 -1.75376 -1.44844e-19)
(13.1255 -1.7967 3.0259e-19)
(13.1263 -1.84052 3.16962e-19)
(13.122 -1.88535 0)
(13.1138 -1.93133 -3.50502e-19)
(13.1016 -1.97851 3.6988e-19)
(13.084 -2.02666 -7.6517e-25)
(13.06 -2.07566 7.7206e-25)
(13.031 -2.12573 0)
(12.9985 -2.17713 -4.69126e-19)
(12.962 -2.2298 5.00285e-19)
(12.9191 -2.28331 9.92855e-25)
(12.8703 -2.33776 -1.12266e-24)
(12.8178 -2.39361 -1.22674e-18)
(12.7622 -2.45092 1.22164e-24)
(12.7009 -2.50926 1.39053e-24)
(12.6335 -2.56858 -7.62226e-19)
(12.5624 -2.62933 -1.64348e-18)
(12.4883 -2.69174 -1.64372e-24)
(12.4085 -2.75529 9.58385e-19)
(12.3229 -2.81995 1.03687e-18)
(12.2332 -2.88623 4.41733e-24)
(12.1402 -2.95428 1.57598e-23)
(12.0411 -3.02365 1.00935e-23)
(11.9363 -3.09449 -5.31737e-24)
(11.8275 -3.1673 3.06718e-23)
(11.7138 -3.24207 -6.68965e-24)
(11.5933 -3.31839 -1.85232e-18)
(11.4671 -3.39689 2.0207e-18)
(11.3356 -3.47783 -5.17612e-25)
(11.1964 -3.56082 2.41209e-18)
(11.0495 -3.6463 -2.63991e-18)
(10.8952 -3.73453 0)
(10.7303 -3.82523 0)
(10.5538 -3.9184 6.56173e-23)
(10.3647 -4.01436 0)
(10.1587 -4.11224 -1.6638e-23)
(9.93268 -4.21139 -4.65666e-18)
(9.68019 -4.31011 5.14398e-18)
(9.39333 -4.40545 -4.34819e-23)
(9.06129 -4.49269 -1.54117e-24)
(8.66714 -4.56304 -2.92571e-23)
(8.18821 -4.60233 -3.87808e-18)
(7.5893 -4.58484 0)
(6.81978 -4.46605 -1.00844e-22)
(12.9554 -0.844868 4.83103e-20)
(13.003 -0.860459 4.6281e-20)
(13.0516 -0.876466 4.43707e-20)
(13.1015 -0.892907 6.49926e-25)
(13.1524 -0.909792 8.18141e-20)
(13.2044 -0.92713 2.98133e-25)
(13.2574 -0.944946 -2.90951e-25)
(13.3113 -0.963266 0)
(13.3661 -0.98209 0)
(13.4217 -1.00142 -6.80971e-20)
(13.4779 -1.02128 6.58937e-20)
(13.5348 -1.04171 6.3855e-20)
(13.5922 -1.06273 6.19788e-20)
(13.65 -1.08433 1.47916e-24)
(13.7082 -1.10654 -1.93097e-24)
(13.7666 -1.12941 -1.49065e-24)
(13.8251 -1.15294 1.39085e-27)
(13.8835 -1.17715 5.47519e-20)
(13.9417 -1.20206 0)
(13.9996 -1.22771 0)
(14.0572 -1.25413 1.04066e-19)
(14.1141 -1.28134 1.47499e-27)
(14.1703 -1.30938 2.08289e-27)
(14.2255 -1.33824 2.69079e-27)
(14.2796 -1.36797 -3.81528e-25)
(14.3324 -1.39862 0)
(14.3837 -1.43019 0)
(14.4335 -1.46271 -1.00449e-19)
(14.4813 -1.4962 3.82483e-25)
(14.5271 -1.5307 3.83077e-24)
(14.5705 -1.56621 -1.0308e-19)
(14.6111 -1.60277 -1.04601e-19)
(14.6489 -1.64039 1.06485e-19)
(14.6839 -1.67909 -1.08732e-19)
(14.7158 -1.71894 -2.22714e-19)
(14.7444 -1.75993 -4.43263e-25)
(14.7687 -1.80198 9.00306e-25)
(14.7886 -1.84511 -4.57599e-25)
(14.8044 -1.88942 1.26461e-19)
(14.8164 -1.93495 1.00455e-24)
(14.8243 -1.98172 1.37252e-19)
(14.8272 -2.02962 -5.74464e-19)
(14.824 -2.07856 1.17462e-23)
(14.8156 -2.12866 5.92254e-25)
(14.803 -2.1801 6.69615e-19)
(14.7861 -2.23288 -3.54126e-19)
(14.7635 -2.28678 3.75494e-19)
(14.734 -2.34169 -3.8222e-26)
(14.6993 -2.39785 4.25274e-19)
(14.6609 -2.45552 0)
(14.618 -2.51462 4.85532e-19)
(14.5682 -2.57472 0)
(14.5122 -2.63594 0)
(14.4522 -2.69875 6.00854e-19)
(14.3885 -2.76317 6.47155e-19)
(14.3185 -2.82878 2.58945e-24)
(14.2421 -2.89555 7.54229e-19)
(14.1615 -2.96393 8.15956e-19)
(14.0772 -3.03412 -3.47456e-24)
(13.9866 -3.1056 -1.91705e-18)
(13.8896 -3.17837 -1.0409e-18)
(13.7879 -3.25292 -4.19298e-24)
(13.6821 -3.32939 -1.23173e-18)
(13.5695 -3.40732 0)
(13.4505 -3.4869 5.76115e-24)
(13.3266 -3.56859 -1.59888e-18)
(13.1968 -3.65239 -6.87905e-24)
(13.0594 -3.73791 1.91289e-18)
(12.9155 -3.82576 6.55661e-23)
(12.765 -3.9162 -8.51091e-24)
(12.6057 -4.00884 0)
(12.4376 -4.10414 0)
(12.2604 -4.20226 0)
(12.0711 -4.30299 0)
(11.8684 -4.40621 -3.71642e-18)
(11.6507 -4.51214 3.03969e-23)
(11.4134 -4.61979 -4.54676e-18)
(11.1523 -4.72813 -7.70286e-23)
(10.8603 -4.8351 -5.59646e-18)
(10.5279 -4.93698 -4.90726e-23)
(10.1421 -5.02789 -6.92882e-18)
(9.68345 -5.0972 7.72127e-18)
(9.12525 -5.12777 8.60496e-18)
(8.42712 -5.08923 0)
(7.53196 -4.92983 5.3128e-18)
(14.5167 -0.946789 -7.1505e-25)