/*--------------------------------*- C++ -*----------------------------------*\
| =========                 |                                                 |
| \\      /  F ield         | OpenFOAM: The Open Source CFD Toolbox           |
|  \\    /   O peration     | Version:  2412                                  |
|   \\  /    A nd           | Website:  www.openfoam.com                      |
|    \\/     M anipulation  |                                                 |
\*---------------------------------------------------------------------------*/
FoamFile
{
    version     2.0;
    format      ascii;
    arch        "LSB;label=32;scalar=64";
    class       volScalarField;
    location    "240";
    object      nut;
}
// * * * * * * * * * * * * * * * * * * * * * * * * * * * * * * * * * * * * * //

dimensions      [0 2 -1 0 0 0 0];

internalField   nonuniform List<scalar> 
8553
(
3.10712e-12
4.68971e-12
6.74532e-13
2.02195e-13
4.96796e-13
1.20485e-12
1.47143e-11
2.59616e-11
2.0843e-11
1.53031e-11
1.31545e-11
1.19623e-11
1.15696e-11
1.16728e-11
1.18562e-11
1.18111e-11
1.15994e-11
1.1262e-11
1.08699e-11
1.05602e-11
1.03751e-11
1.02714e-11
1.02201e-11
1.01686e-11
1.0095e-11
1.00089e-11
9.92357e-12
9.85357e-12
9.79933e-12
9.75417e-12
9.71075e-12
9.66829e-12
9.62854e-12
9.59117e-12
9.55751e-12
9.52757e-12
9.50002e-12
9.47308e-12
9.44807e-12
9.42568e-12
9.40421e-12
9.38403e-12
9.36446e-12
9.34632e-12
9.32947e-12
9.31317e-12
9.29767e-12
9.28344e-12
9.2697e-12
9.25605e-12
9.24299e-12
9.2308e-12
9.21911e-12
9.2077e-12
9.19692e-12
9.18652e-12
9.17667e-12
9.16683e-12
9.15653e-12
9.14742e-12
9.13902e-12
9.13042e-12
9.12262e-12
9.11464e-12
9.10732e-12
9.1003e-12
9.09273e-12
9.08574e-12
9.07968e-12
9.07363e-12
9.06755e-12
9.06201e-12
9.05642e-12
9.05149e-12
9.04699e-12
9.04343e-12
9.04141e-12
9.04049e-12
8.32983e-12
8.21868e-12
8.16468e-12
8.4302e-12
9.20097e-12
1.06727e-11
1.41588e-11
1.71544e-11
1.08986e-11
1.0512e-12
5.4116e-13
1.33727e-13
5.31665e-13
5.7868e-12
2.98317e-12
2.26754e-10
3.58766e-10
6.67446e-11
1.97307e-11
3.94662e-11
1.14326e-10
1.30092e-09
2.10491e-09
1.74516e-09
1.34191e-09
1.17108e-09
1.07704e-09
1.04586e-09
1.05314e-09
1.06551e-09
1.05984e-09
1.04075e-09
1.01183e-09
9.79204e-10
9.53508e-10
9.37942e-10
9.2911e-10
9.24444e-10
9.19695e-10
9.13146e-10
9.0567e-10
8.98343e-10
8.92303e-10
8.8756e-10
8.83563e-10
8.79761e-10
8.76038e-10
8.72554e-10
8.69331e-10
8.66416e-10
8.63794e-10
8.61362e-10
8.59031e-10
8.56875e-10
8.54894e-10
8.53021e-10
8.51277e-10
8.49606e-10
8.48032e-10
8.46563e-10
8.45161e-10
8.4383e-10
8.42573e-10
8.41353e-10
8.40185e-10
8.39067e-10
8.38005e-10
8.37007e-10
8.36023e-10
8.35072e-10
8.3417e-10
8.33311e-10
8.32458e-10
8.316e-10
8.30809e-10
8.3006e-10
8.29328e-10
8.28634e-10
8.27943e-10
8.27313e-10
8.26682e-10
8.26037e-10
8.25446e-10
8.24898e-10
8.24366e-10
8.23839e-10
8.23358e-10
8.22872e-10
8.22432e-10
8.2205e-10
8.21736e-10
8.21544e-10
8.2145e-10
7.4659e-10
7.38897e-10
7.34993e-10
7.55972e-10
8.16742e-10
9.32887e-10
1.18733e-09
1.39909e-09
9.40871e-10
1.15286e-10
4.18876e-11
1.15958e-11
5.60387e-11
4.00129e-10
2.27061e-10
1.52602e-09
2.58534e-09
6.99114e-10
2.07231e-10
3.04123e-10
1.47365e-09
1.08143e-08
1.60108e-08
1.38773e-08
1.13181e-08
1.00907e-08
9.42801e-09
9.20251e-09
9.23816e-09
9.29713e-09
9.2306e-09
9.06694e-09
8.8363e-09
8.58699e-09
8.39133e-09
8.27051e-09
8.20002e-09
8.1589e-09
8.11663e-09
8.06139e-09
8.00009e-09
7.94108e-09
7.89217e-09
7.8531e-09
7.81975e-09
7.78823e-09
7.75758e-09
7.72882e-09
7.70254e-09
7.67881e-09
7.65724e-09
7.63723e-09
7.61826e-09
7.60065e-09
7.58433e-09
7.56904e-09
7.5549e-09
7.54146e-09
7.52868e-09
7.51669e-09
7.5053e-09
7.49451e-09
7.48427e-09
7.47444e-09
7.4651e-09
7.45608e-09
7.44743e-09
7.43926e-09
7.43129e-09
7.42356e-09
7.41617e-09
7.40912e-09
7.40223e-09
7.39533e-09
7.38883e-09
7.38271e-09
7.37682e-09
7.37106e-09
7.36541e-09
7.36014e-09
7.35487e-09
7.34967e-09
7.34483e-09
7.34017e-09
7.33577e-09
7.33149e-09
7.32749e-09
7.32355e-09
7.31996e-09
7.31679e-09
7.31415e-09
7.31256e-09
7.31168e-09
6.49162e-09
6.4522e-09
6.43191e-09
6.58158e-09
7.00944e-09
7.83375e-09
9.45225e-09
1.07244e-08
7.64679e-09
1.41208e-09
3.10325e-10
1.04419e-10
6.42123e-10
2.6321e-09
1.75021e-09
5.1977e-09
9.04996e-09
3.51406e-09
1.12043e-09
1.15507e-09
9.91077e-09
4.17831e-08
5.83156e-08
5.3102e-08
4.59247e-08
4.19096e-08
3.98051e-08
3.90429e-08
3.90554e-08
3.91006e-08
3.87641e-08
3.81132e-08
3.72663e-08
3.63934e-08
3.57095e-08
3.5276e-08
3.50127e-08
3.48414e-08
3.46646e-08
3.44472e-08
3.4213e-08
3.39919e-08
3.38079e-08
3.36585e-08
3.35295e-08
3.34078e-08
3.32905e-08
3.3181e-08
3.30813e-08
3.29916e-08
3.29096e-08
3.28338e-08
3.27625e-08
3.26963e-08
3.26351e-08
3.25781e-08
3.25251e-08
3.24751e-08
3.24277e-08
3.2383e-08
3.23406e-08
3.23007e-08
3.22629e-08
3.22267e-08
3.21921e-08
3.21588e-08
3.2127e-08
3.20963e-08
3.20666e-08
3.2038e-08
3.20101e-08
3.19836e-08
3.19578e-08
3.19322e-08
3.19078e-08
3.18847e-08
3.18623e-08
3.18403e-08
3.1819e-08
3.17989e-08
3.17789e-08
3.17593e-08
3.17409e-08
3.17231e-08
3.17062e-08
3.16902e-08
3.16751e-08
3.16605e-08
3.1647e-08
3.1635e-08
3.16253e-08
3.16198e-08
3.1616e-08
2.71648e-08
2.71148e-08
2.7099e-08
2.75918e-08
2.89448e-08
3.15966e-08
3.61283e-08
3.9311e-08
2.91887e-08
8.51071e-09
1.11618e-09
5.38181e-10
3.36246e-09
8.50726e-09
6.96083e-09
1.47097e-08
2.24161e-08
1.13211e-08
4.16523e-09
3.12249e-09
4.28134e-08
1.07859e-07
1.46859e-07
1.40604e-07
1.28208e-07
1.19703e-07
1.15404e-07
1.13632e-07
1.13266e-07
1.12908e-07
1.11858e-07
1.10171e-07
1.08152e-07
1.06174e-07
1.04619e-07
1.03597e-07
1.02944e-07
1.02471e-07
1.01984e-07
1.01422e-07
1.00837e-07
1.00295e-07
9.98419e-08
9.94696e-08
9.91442e-08
9.88385e-08
9.8547e-08
9.82764e-08
9.80321e-08
9.78129e-08
9.76132e-08
9.7429e-08
9.72577e-08
9.70993e-08
9.69537e-08
9.68189e-08
9.66935e-08
9.65756e-08
9.64647e-08
9.63604e-08
9.6262e-08
9.61694e-08
9.60818e-08
9.59976e-08
9.59168e-08
9.58401e-08
9.57663e-08
9.5695e-08
9.56259e-08
9.55586e-08
9.54929e-08
9.54302e-08
9.53691e-08
9.53082e-08
9.525e-08
9.51942e-08
9.51401e-08
9.50874e-08
9.50358e-08
9.49869e-08
9.49389e-08
9.48917e-08
9.48468e-08
9.48039e-08
9.47631e-08
9.47247e-08
9.4689e-08
9.46545e-08
9.46232e-08
9.45964e-08
9.45759e-08
9.45645e-08
9.4554e-08
7.79753e-08
7.8107e-08
7.82646e-08
7.93534e-08
8.20801e-08
8.75559e-08
9.52963e-08
9.93403e-08
7.506e-08
3.26132e-08
2.86613e-09
2.18946e-09
1.0866e-08
1.98077e-08
2.57736e-08
4.27994e-08
4.56943e-08
2.70756e-08
1.17508e-08
7.06009e-09
1.25168e-07
2.15091e-07
2.95852e-07
2.97135e-07
2.83421e-07
2.70279e-07
2.63876e-07
2.60545e-07
2.589e-07
2.57293e-07
2.54953e-07
2.51733e-07
2.48221e-07
2.44968e-07
2.42377e-07
2.40591e-07
2.39372e-07
2.3839e-07
2.37401e-07
2.36326e-07
2.3525e-07
2.34276e-07
2.33461e-07
2.32784e-07
2.32188e-07
2.31632e-07
2.31109e-07
2.30631e-07
2.30205e-07
2.29827e-07
2.29486e-07
2.29176e-07
2.2889e-07
2.2863e-07
2.28393e-07
2.28177e-07
2.27978e-07
2.27793e-07
2.27621e-07
2.27461e-07
2.27312e-07
2.27171e-07
2.27038e-07
2.26911e-07
2.26789e-07
2.26672e-07
2.2656e-07
2.26452e-07
2.26346e-07
2.26241e-07
2.26139e-07
2.2604e-07
2.25943e-07
2.25846e-07
2.25753e-07
2.25662e-07
2.25575e-07
2.25489e-07
2.25404e-07
2.25323e-07
2.25244e-07
2.25166e-07
2.25092e-07
2.25022e-07
2.24956e-07
2.24895e-07
2.2484e-07
2.24787e-07
2.24742e-07
2.24707e-07
2.24686e-07
2.24677e-07
2.24656e-07
1.76554e-07
1.7729e-07
1.78054e-07
1.79935e-07
1.83851e-07
1.91941e-07
2.00158e-07
2.00126e-07
1.5003e-07
8.95235e-08
6.7452e-09
7.57862e-09
2.59437e-08
3.92145e-08
8.59313e-08
1.16289e-07
8.21102e-08
5.35378e-08
2.64989e-08
1.82554e-08
2.79364e-07
3.65039e-07
5.12912e-07
5.37507e-07
5.31881e-07
5.16939e-07
5.09836e-07
5.04402e-07
5.00052e-07
4.96124e-07
4.92164e-07
4.87499e-07
4.82988e-07
4.7911e-07
4.75911e-07
4.73532e-07
4.71758e-07
4.70176e-07
4.68632e-07
4.67079e-07
4.65604e-07
4.64316e-07
4.63243e-07
4.62348e-07
4.61561e-07
4.60841e-07
4.60184e-07
4.59606e-07
4.59108e-07
4.58679e-07
4.58307e-07
4.57982e-07
4.57693e-07
4.57444e-07
4.57229e-07
4.57042e-07
4.56881e-07
4.56738e-07
4.5661e-07
4.56496e-07
4.56395e-07
4.56303e-07
4.56217e-07
4.56137e-07
4.5606e-07
4.55986e-07
4.55914e-07
4.55843e-07
4.55771e-07
4.55695e-07
4.55619e-07
4.55543e-07
4.55466e-07
4.55387e-07
4.5531e-07
4.55234e-07
4.55157e-07
4.55081e-07
4.55006e-07
4.54935e-07
4.54862e-07
4.54792e-07
4.54726e-07
4.54667e-07
4.54613e-07
4.54569e-07
4.54535e-07
4.54507e-07
4.54491e-07
4.54495e-07
4.54521e-07
4.54557e-07
4.54532e-07
3.38211e-07
3.40054e-07
3.42102e-07
3.44825e-07
3.48753e-07
3.57079e-07
3.59364e-07
3.45816e-07
2.54351e-07
1.93367e-07
1.798e-08
2.06102e-08
5.14286e-08
7.27852e-08
2.44146e-07
2.89e-07
1.3476e-07
9.3288e-08
5.02707e-08
4.86996e-08
5.15886e-07
5.57915e-07
7.97575e-07
8.64907e-07
8.80934e-07
8.70586e-07
8.65537e-07
8.5773e-07
8.49253e-07
8.42383e-07
8.37355e-07
8.32585e-07
8.28966e-07
8.26359e-07
8.23918e-07
8.21748e-07
8.19854e-07
8.17947e-07
8.16213e-07
8.14688e-07
8.13397e-07
8.12377e-07
8.11561e-07
8.10902e-07
8.10346e-07
8.09884e-07
8.09524e-07
8.09271e-07
8.09113e-07
8.09033e-07
8.0902e-07
8.09058e-07
8.09142e-07
8.09267e-07
8.09427e-07
8.09613e-07
8.09821e-07
8.10041e-07
8.10271e-07
8.10506e-07
8.10745e-07
8.10983e-07
8.11216e-07
8.11442e-07
8.1166e-07
8.11869e-07
8.12066e-07
8.12251e-07
8.1242e-07
8.12575e-07
8.12716e-07
8.12846e-07
8.12964e-07
8.13071e-07
8.13171e-07
8.13261e-07
8.13344e-07
8.13421e-07
8.13495e-07
8.13567e-07
8.13634e-07
8.13701e-07
8.1377e-07
8.13847e-07
8.13934e-07
8.14032e-07
8.14145e-07
8.1427e-07
8.14415e-07
8.14591e-07
8.14795e-07
8.14981e-07
8.14992e-07
5.70493e-07
5.73614e-07
5.77593e-07
5.80943e-07
5.82696e-07
5.86435e-07
5.73699e-07
5.34571e-07
3.85565e-07
3.49827e-07
4.94709e-08
4.53376e-08
9.09585e-08
1.41351e-07
5.95644e-07
6.49231e-07
2.09891e-07
1.49357e-07
8.5573e-08
1.26519e-07
8.27819e-07
7.95095e-07
1.13975e-06
1.26577e-06
1.31806e-06
1.32156e-06
1.32239e-06
1.31284e-06
1.29991e-06
1.29091e-06
1.2869e-06
1.28513e-06
1.28597e-06
1.28793e-06
1.28872e-06
1.28842e-06
1.28755e-06
1.2863e-06
1.28548e-06
1.28525e-06
1.28548e-06
1.286e-06
1.2866e-06
1.28721e-06
1.28787e-06
1.28863e-06
1.28952e-06
1.29053e-06
1.29161e-06
1.29274e-06
1.29392e-06
1.29513e-06
1.29637e-06
1.29763e-06
1.2989e-06
1.30016e-06
1.30143e-06
1.30267e-06
1.3039e-06
1.3051e-06
1.30628e-06
1.30742e-06
1.30852e-06
1.30958e-06
1.31061e-06
1.31159e-06
1.31252e-06
1.31341e-06
1.31426e-06
1.31506e-06
1.31582e-06
1.31654e-06
1.31722e-06
1.31787e-06
1.31849e-06
1.31907e-06
1.31964e-06
1.32018e-06
1.32071e-06
1.32122e-06
1.32171e-06
1.3222e-06
1.32269e-06
1.32318e-06
1.32369e-06
1.32421e-06
1.32475e-06
1.3253e-06
1.32589e-06
1.32653e-06
1.32718e-06
1.32774e-06
1.3279e-06
8.68564e-07
8.72192e-07
8.78155e-07
8.8141e-07
8.78109e-07
8.70673e-07
8.33391e-07
7.58255e-07
5.40938e-07
5.52652e-07
1.3273e-07
8.3289e-08
1.501e-07
3.14828e-07
1.26469e-06
1.32545e-06
3.74772e-07
2.27732e-07
1.36212e-07
3.1008e-07
1.19331e-06
1.07372e-06
1.51726e-06
1.70668e-06
1.80759e-06
1.83534e-06
1.84674e-06
1.83791e-06
1.82255e-06
1.81448e-06
1.81544e-06
1.82153e-06
1.83182e-06
1.84274e-06
1.85027e-06
1.85449e-06
1.85677e-06
1.85816e-06
1.86035e-06
1.86366e-06
1.86766e-06
1.87186e-06
1.8758e-06
1.87949e-06
1.88308e-06
1.88675e-06
1.89053e-06
1.89439e-06
1.89824e-06
1.90205e-06
1.90583e-06
1.90959e-06
1.91331e-06
1.91698e-06
1.92059e-06
1.92413e-06
1.9276e-06
1.93099e-06
1.93428e-06
1.93748e-06
1.94059e-06
1.94359e-06
1.94649e-06
1.94929e-06
1.95197e-06
1.95455e-06
1.95701e-06
1.95938e-06
1.96163e-06
1.96379e-06
1.96585e-06
1.96782e-06
1.96971e-06
1.97151e-06
1.97325e-06
1.97492e-06
1.97653e-06
1.9781e-06
1.97961e-06
1.98109e-06
1.98254e-06
1.98397e-06
1.98538e-06
1.98679e-06
1.98822e-06
1.98967e-06
1.99114e-06
1.99264e-06
1.99419e-06
1.99579e-06
1.99738e-06
1.99874e-06
1.99932e-06
1.21485e-06
1.22155e-06
1.2231e-06
1.21156e-06
1.18605e-06
1.11674e-06
1.00172e-06
7.15115e-07
7.83502e-07
3.05112e-07
1.37417e-07
2.34176e-07
6.96053e-07
2.36221e-06
2.48446e-06
7.02629e-07
3.35701e-07
2.03824e-07
6.98739e-07
1.57805e-06
1.37613e-06
1.89406e-06
2.13612e-06
2.2933e-06
2.35485e-06
2.38237e-06
2.37934e-06
2.36671e-06
2.36498e-06
2.37629e-06
2.39615e-06
2.42144e-06
2.44621e-06
2.4647e-06
2.47701e-06
2.48561e-06
2.49278e-06
2.50117e-06
2.51123e-06
2.52212e-06
2.53295e-06
2.54302e-06
2.55239e-06
2.56143e-06
2.57045e-06
2.57952e-06
2.58853e-06
2.59736e-06
2.60599e-06
2.61443e-06
2.62272e-06
2.63084e-06
2.63878e-06
2.64653e-06
2.65408e-06
2.66142e-06
2.66856e-06
2.67548e-06
2.68219e-06
2.68867e-06
2.69494e-06
2.70099e-06
2.70682e-06
2.71242e-06
2.71781e-06
2.72298e-06
2.72794e-06
2.7327e-06
2.73727e-06
2.74165e-06
2.74587e-06
2.74992e-06
2.75383e-06
2.75759e-06
2.76124e-06
2.76477e-06
2.76821e-06
2.77156e-06
2.77483e-06
2.77805e-06
2.78122e-06
2.78437e-06
2.78751e-06
2.79067e-06
2.79385e-06
2.79707e-06
2.80033e-06
2.80365e-06
2.80704e-06
2.81035e-06
2.81322e-06
2.81475e-06
2.81091e-06
2.81544e-06
2.82148e-06
1.56709e-06
1.57155e-06
1.56851e-06
1.54549e-06
1.49626e-06
1.39133e-06
1.24195e-06
8.99144e-07
1.01458e-06
6.11758e-07
2.21456e-07
3.5008e-07
1.43918e-06
3.91832e-06
4.32866e-06
1.30743e-06
4.78101e-07
2.94856e-07
1.28412e-06
1.94182e-06
1.67428e-06
2.22183e-06
2.49273e-06
2.70755e-06
2.81002e-06
2.85998e-06
2.87034e-06
2.86816e-06
2.8794e-06
2.90686e-06
2.94607e-06
2.99134e-06
3.0345e-06
3.06838e-06
3.09301e-06
3.11205e-06
3.12909e-06
3.14767e-06
3.16837e-06
3.18992e-06
3.21095e-06
3.23056e-06
3.24892e-06
3.26661e-06
3.2841e-06
3.30147e-06
3.31854e-06
3.33518e-06
3.35133e-06
3.36706e-06
3.38242e-06
3.39741e-06
3.41201e-06
3.4262e-06
3.43998e-06
3.45335e-06
3.46633e-06
3.47889e-06
3.49105e-06
3.50281e-06
3.51416e-06
3.52511e-06
3.53568e-06
3.54585e-06
3.55565e-06
3.56506e-06
3.57413e-06
3.58285e-06
3.59124e-06
3.59932e-06
3.60711e-06
3.61464e-06
3.62192e-06
3.62897e-06
3.6358e-06
3.64247e-06
3.64897e-06
3.65533e-06
3.66157e-06
3.66772e-06
3.6738e-06
3.67984e-06
3.68588e-06
3.69193e-06
3.69802e-06
3.70416e-06
3.71038e-06
3.71668e-06
3.72304e-06
3.72924e-06
3.73469e-06
3.73819e-06
3.73635e-06
3.74505e-06
3.75608e-06
1.88601e-06
1.88382e-06
1.87212e-06
1.83443e-06
1.75834e-06
1.61887e-06
1.44902e-06
1.07835e-06
1.22156e-06
1.03763e-06
3.20486e-07
5.87065e-07
2.72682e-06
5.8321e-06
7.1098e-06
2.36411e-06
7.55466e-07
4.26819e-07
1.99721e-06
2.24346e-06
1.93131e-06
2.44753e-06
2.71863e-06
2.98547e-06
3.13223e-06
3.21076e-06
3.243e-06
3.25959e-06
3.28968e-06
3.33801e-06
3.4004e-06
3.46893e-06
3.5339e-06
3.58717e-06
3.62848e-06
3.66244e-06
3.69385e-06
3.72687e-06
3.76223e-06
3.79829e-06
3.83328e-06
3.86614e-06
3.89712e-06
3.92702e-06
3.95643e-06
3.98545e-06
4.01385e-06
4.04145e-06
4.0682e-06
4.09421e-06
4.11955e-06
4.14422e-06
4.1682e-06
4.19148e-06
4.21406e-06
4.23596e-06
4.25719e-06
4.27774e-06
4.29763e-06
4.31686e-06
4.33543e-06
4.35337e-06
4.37069e-06
4.38739e-06
4.40349e-06
4.41901e-06
4.43398e-06
4.44841e-06
4.46234e-06
4.4758e-06
4.48883e-06
4.50145e-06
4.51369e-06
4.52559e-06
4.53718e-06
4.54851e-06
4.5596e-06
4.57049e-06
4.58121e-06
4.59182e-06
4.60234e-06
4.61281e-06
4.62329e-06
4.6338e-06
4.64438e-06
4.65505e-06
4.66584e-06
4.67676e-06
4.68773e-06
4.69842e-06
4.70805e-06
4.71518e-06
4.71755e-06
4.73273e-06
4.7512e-06
2.12784e-06
2.11436e-06
2.08962e-06
2.0347e-06
1.93173e-06
1.76342e-06
1.59073e-06
1.23188e-06
1.38738e-06
1.49601e-06
4.46881e-07
1.05489e-06
4.76233e-06
7.88558e-06
1.1157e-05
4.15019e-06
1.2682e-06
6.45674e-07
2.72945e-06
2.44149e-06
2.10467e-06
2.527e-06
2.77383e-06
3.08023e-06
3.26948e-06
3.38041e-06
3.44109e-06
3.48259e-06
3.5348e-06
3.60592e-06
3.69242e-06
3.78502e-06
3.87343e-06
3.94889e-06
4.0105e-06
4.06339e-06
4.1131e-06
4.1642e-06
4.21761e-06
4.27147e-06
4.32374e-06
4.37322e-06
4.42023e-06
4.4657e-06
4.51032e-06
4.55421e-06
4.59709e-06
4.63874e-06
4.67914e-06
4.7184e-06
4.75662e-06
4.79381e-06
4.82995e-06
4.86502e-06
4.89905e-06
4.93205e-06
4.96404e-06
4.99503e-06
5.02502e-06
5.05405e-06
5.08213e-06
5.10927e-06
5.1355e-06
5.16084e-06
5.18532e-06
5.20896e-06
5.23181e-06
5.25391e-06
5.2753e-06
5.29603e-06
5.31616e-06
5.33572e-06
5.35477e-06
5.37336e-06
5.39152e-06
5.40934e-06
5.42685e-06
5.44411e-06
5.46117e-06
5.4781e-06
5.49494e-06
5.51175e-06
5.52861e-06
5.54555e-06
5.56262e-06
5.57986e-06
5.5973e-06
5.61494e-06
5.63266e-06
5.65e-06
5.666e-06
5.67928e-06
5.68921e-06
5.71386e-06
5.74277e-06
2.25651e-06
2.2285e-06
2.18767e-06
2.11462e-06
1.9884e-06
1.80099e-06
1.64102e-06
1.33625e-06
1.50209e-06
1.90264e-06
6.95024e-07
1.95177e-06
7.78551e-06
9.83172e-06
1.68663e-05
7.07945e-06
2.19863e-06
1.09416e-06
3.31125e-06
2.48471e-06
2.156e-06
2.43969e-06
2.64747e-06
2.97497e-06
3.19826e-06
3.34032e-06
3.43102e-06
3.49889e-06
3.57256e-06
3.66469e-06
3.77283e-06
3.88743e-06
3.99843e-06
4.09677e-06
4.18045e-06
4.25454e-06
4.32486e-06
4.39604e-06
4.46937e-06
4.54294e-06
4.61458e-06
4.683e-06
4.74847e-06
4.81198e-06
4.87428e-06
4.93548e-06
4.99529e-06
5.05346e-06
5.10996e-06
5.16493e-06
5.21846e-06
5.27058e-06
5.32125e-06
5.37048e-06
5.41827e-06
5.46467e-06
5.50968e-06
5.55333e-06
5.59563e-06
5.63662e-06
5.67631e-06
5.71476e-06
5.75197e-06
5.78799e-06
5.82286e-06
5.85663e-06
5.88936e-06
5.9211e-06
5.95192e-06
5.98189e-06
6.01107e-06
6.03955e-06
6.06738e-06
6.09464e-06
6.12139e-06
6.14772e-06
6.17371e-06
6.19943e-06
6.22495e-06
6.25035e-06
6.27572e-06
6.30112e-06
6.32666e-06
6.35239e-06
6.37836e-06
6.40464e-06
6.43128e-06
6.45825e-06
6.48539e-06
6.51213e-06
6.53747e-06
6.56038e-06
6.58211e-06
6.61991e-06
6.66286e-06
2.25179e-06
2.20863e-06
2.15164e-06
2.0626e-06
1.92077e-06
1.72714e-06
1.58957e-06
1.37133e-06
1.54981e-06
2.1982e-06
1.16663e-06
3.65637e-06
1.22682e-05
1.15354e-05
2.42981e-05
1.18001e-05
3.91851e-06
1.95202e-06
3.63117e-06
2.38325e-06
2.06162e-06
2.19798e-06
2.36222e-06
2.68779e-06
2.92954e-06
3.09442e-06
3.20991e-06
3.29977e-06
3.39014e-06
3.49781e-06
3.62177e-06
3.75321e-06
3.88289e-06
4.00165e-06
4.10612e-06
4.20078e-06
4.29119e-06
4.38192e-06
4.47464e-06
4.56761e-06
4.65865e-06
4.74637e-06
4.8309e-06
4.9132e-06
4.99401e-06
5.07345e-06
5.15123e-06
5.22706e-06
5.30091e-06
5.3729e-06
5.44311e-06
5.51157e-06
5.57824e-06
5.6431e-06
5.70619e-06
5.76753e-06
5.82714e-06
5.88505e-06
5.94127e-06
5.99584e-06
6.0488e-06
6.1002e-06
6.15007e-06
6.19845e-06
6.24542e-06
6.29104e-06
6.33538e-06
6.37854e-06
6.42059e-06
6.46163e-06
6.50176e-06
6.54106e-06
6.57963e-06
6.61756e-06
6.65495e-06
6.69192e-06
6.72855e-06
6.76495e-06
6.80122e-06
6.83747e-06
6.8738e-06
6.91032e-06
6.94714e-06
6.98433e-06
7.02199e-06
7.06019e-06
7.09901e-06
7.13842e-06
7.17821e-06
7.2178e-06
7.25631e-06
7.29335e-06
7.33191e-06
7.38729e-06
7.44863e-06
2.11551e-06
2.05911e-06
1.98998e-06
1.89082e-06
1.74476e-06
1.55976e-06
1.44802e-06
1.32536e-06
1.51443e-06
2.34719e-06
1.7524e-06
6.34054e-06
1.93887e-05
1.30534e-05
3.11029e-05
1.91089e-05
6.79232e-06
3.05218e-06
3.66134e-06
2.17313e-06
1.83144e-06
1.84586e-06
1.96948e-06
2.26839e-06
2.50772e-06
2.68063e-06
2.80932e-06
2.91164e-06
3.01082e-06
3.12564e-06
3.25681e-06
3.39689e-06
3.53788e-06
3.67075e-06
3.79082e-06
3.90164e-06
4.00811e-06
4.11458e-06
4.22311e-06
4.33221e-06
4.43982e-06
4.54443e-06
4.64598e-06
4.74528e-06
4.84304e-06
4.93939e-06
5.03402e-06
5.12663e-06
5.21714e-06
5.30562e-06
5.39215e-06
5.47674e-06
5.55932e-06
5.63989e-06
5.71844e-06
5.79501e-06
5.86959e-06
5.94223e-06
6.01294e-06
6.08175e-06
6.14871e-06
6.21387e-06
6.27728e-06
6.339e-06
6.39912e-06
6.45772e-06
6.51491e-06
6.57077e-06
6.62544e-06
6.67901e-06
6.73162e-06
6.78339e-06
6.83443e-06
6.88485e-06
6.9348e-06
6.98441e-06
7.0338e-06
7.0831e-06
7.13243e-06
7.18196e-06
7.2318e-06
7.28209e-06
7.33297e-06
7.38455e-06
7.43696e-06
7.49031e-06
7.5447e-06
7.60012e-06
7.6564e-06
7.71301e-06
7.7694e-06
7.82603e-06
7.88718e-06
7.96537e-06
8.0503e-06
1.80926e-06
1.73439e-06
1.63342e-06
1.49699e-06
1.33553e-06
1.24611e-06
1.21068e-06
1.40905e-06
2.33514e-06
2.37042e-06
1.00605e-05
2.79687e-05
1.45999e-05
3.6969e-05
2.70169e-05
1.06027e-05
4.14479e-06
3.44037e-06
1.88633e-06
1.51286e-06
1.44595e-06
1.53551e-06
1.78682e-06
2.00182e-06
2.16518e-06
2.29209e-06
2.39497e-06
2.49318e-06
2.60528e-06
2.73332e-06
2.87154e-06
3.01339e-06
3.15039e-06
3.27706e-06
3.39584e-06
3.51078e-06
3.62583e-06
3.74329e-06
3.86201e-06
3.98007e-06
4.09592e-06
4.20925e-06
4.32072e-06
4.43092e-06
4.53999e-06
4.64761e-06
4.75345e-06
4.85737e-06
4.95939e-06
5.05955e-06
5.15782e-06
5.25412e-06
5.34842e-06
5.44069e-06
5.53093e-06
5.61915e-06
5.70536e-06
5.78958e-06
5.87183e-06
5.95216e-06
6.03062e-06
6.10727e-06
6.18219e-06
6.25548e-06
6.32724e-06
6.39758e-06
6.46665e-06
6.53455e-06
6.60145e-06
6.66749e-06
6.7328e-06
6.79753e-06
6.86183e-06
6.92586e-06
6.98977e-06
7.05373e-06
7.1179e-06
7.18243e-06
7.24751e-06
7.31331e-06
7.37999e-06
7.44773e-06
7.5167e-06
7.58706e-06
7.65899e-06
7.73264e-06
7.80808e-06
7.88521e-06
7.96373e-06
8.0436e-06
8.12614e-06
8.21624e-06
8.32332e-06
8.43815e-06
1.34224e-06
1.22754e-06
1.1009e-06
1.02367e-06
1.04548e-06
1.25536e-06
2.18668e-06
2.89406e-06
1.45105e-05
3.69317e-05
1.64001e-05
4.16397e-05
3.50183e-05
1.49583e-05
4.79456e-06
3.03704e-06
1.55715e-06
1.16863e-06
1.06146e-06
1.12366e-06
1.31571e-06
1.48962e-06
1.62822e-06
1.73957e-06
1.83179e-06
1.91975e-06
2.01971e-06
2.13434e-06
2.25961e-06
2.39052e-06
2.51969e-06
2.64156e-06
2.75761e-06
2.87092e-06
2.98489e-06
3.10185e-06
3.22092e-06
3.34046e-06
3.45891e-06
3.57581e-06
3.6916e-06
3.80678e-06
3.92146e-06
4.03532e-06
4.148e-06
4.25928e-06
4.36914e-06
4.47757e-06
4.5845e-06
4.68982e-06
4.79346e-06
4.89536e-06
4.9955e-06
5.09385e-06
5.19042e-06
5.2852e-06
5.37821e-06
5.46949e-06
5.5591e-06
5.64709e-06
5.73356e-06
5.81862e-06
5.90238e-06
5.98496e-06
6.06653e-06
6.14721e-06
6.22719e-06
6.30661e-06
6.38565e-06
6.46447e-06
6.54324e-06
6.62215e-06
6.70138e-06
6.78113e-06
6.86158e-06
6.94294e-06
7.02542e-06
7.10924e-06
7.19462e-06
7.28178e-06
7.37097e-06
7.46241e-06
7.55638e-06
7.65313e-06
7.75287e-06
7.85569e-06
7.96166e-06
8.07132e-06
8.18671e-06
8.3127e-06
8.45574e-06
8.60814e-06
1.0762e-06
9.88499e-07
9.01414e-07
8.14793e-07
8.67691e-07
1.07993e-06
1.95284e-06
3.25563e-06
1.87131e-05
4.61508e-05
1.85796e-05
4.4806e-05
4.29623e-05
1.89979e-05
4.89858e-06
2.51371e-06
1.21976e-06
8.47543e-07
7.38273e-07
7.79258e-07
9.12022e-07
1.03826e-06
1.14326e-06
1.23035e-06
1.30431e-06
1.37549e-06
1.45647e-06
1.54987e-06
1.65319e-06
1.76297e-06
1.87337e-06
1.97952e-06
2.08219e-06
2.18355e-06
2.28631e-06
2.39257e-06
2.50172e-06
2.61245e-06
2.72336e-06
2.8339e-06
2.94435e-06
3.05508e-06
3.16617e-06
3.27733e-06
3.38819e-06
3.49849e-06
3.60817e-06
3.71715e-06
3.82535e-06
3.93263e-06
4.03889e-06
4.14402e-06
4.248e-06
4.35076e-06
4.4523e-06
4.55258e-06
4.65163e-06
4.74947e-06
4.84616e-06
4.94177e-06
5.03638e-06
5.13011e-06
5.22309e-06
5.31544e-06
5.40733e-06
5.49891e-06
5.59035e-06
5.68183e-06
5.77353e-06
5.86563e-06
5.95832e-06
6.05182e-06
6.14634e-06
6.2421e-06
6.33934e-06
6.43829e-06
6.53922e-06
6.64241e-06
6.74814e-06
6.85672e-06
6.96849e-06
7.0838e-06
7.20306e-06
7.32669e-06
7.45512e-06
7.58877e-06
7.72815e-06
7.87443e-06
8.0301e-06
8.19954e-06
8.38684e-06
8.58614e-06
8.83485e-07
8.22779e-07
7.7783e-07
7.32325e-07
7.41459e-07
9.20192e-07
1.68768e-06
3.38691e-06
2.18037e-05
5.57376e-05
2.01258e-05
4.61884e-05
5.05163e-05
2.15727e-05
4.57242e-06
1.93964e-06
9.06513e-07
5.84017e-07
4.93938e-07
5.21854e-07
6.04604e-07
6.86743e-07
7.57869e-07
8.18794e-07
8.71951e-07
9.23901e-07
9.83234e-07
1.05207e-06
1.12907e-06
1.21205e-06
1.29701e-06
1.38018e-06
1.46191e-06
1.54362e-06
1.6273e-06
1.71464e-06
1.80528e-06
1.89828e-06
1.99249e-06
2.08743e-06
2.18326e-06
2.28024e-06
2.37845e-06
2.47762e-06
2.57744e-06
2.67767e-06
2.7782e-06
2.87896e-06
2.97984e-06
3.08071e-06
3.18143e-06
3.28192e-06
3.38212e-06
3.48197e-06
3.58143e-06
3.68051e-06
3.7792e-06
3.87754e-06
3.97558e-06
4.07341e-06
4.17111e-06
4.2688e-06
4.3666e-06
4.46466e-06
4.56312e-06
4.66215e-06
4.76191e-06
4.8626e-06
4.96439e-06
5.0675e-06
5.17215e-06
5.27855e-06
5.38696e-06
5.49765e-06
5.6109e-06
5.727e-06
5.84629e-06
5.96913e-06
6.0959e-06
6.22704e-06
6.36303e-06
6.50439e-06
6.65175e-06
6.80578e-06
6.96724e-06
7.13696e-06
7.31601e-06
7.50607e-06
7.70991e-06
7.93126e-06
8.17271e-06
8.43045e-06
8.23909e-07
8.22146e-07
8.32718e-07
8.00655e-07
7.4938e-07
8.2129e-07
1.43433e-06
3.29138e-06
2.30476e-05
6.54705e-05
2.12666e-05
4.56362e-05
5.73602e-05
2.20155e-05
3.92434e-06
1.42513e-06
6.44858e-07
3.95559e-07
3.33535e-07
3.48195e-07
3.9474e-07
4.42559e-07
4.85695e-07
5.23894e-07
5.58288e-07
5.92544e-07
6.31847e-07
6.77622e-07
7.29293e-07
7.85688e-07
8.44379e-07
9.02792e-07
9.61123e-07
1.02023e-06
1.08146e-06
1.14604e-06
1.2138e-06
1.28412e-06
1.35622e-06
1.42973e-06
1.50474e-06
1.58145e-06
1.65995e-06
1.74007e-06
1.82156e-06
1.90427e-06
1.9881e-06
2.073e-06
2.15887e-06
2.24561e-06
2.33312e-06
2.42134e-06
2.51022e-06
2.59973e-06
2.68986e-06
2.78063e-06
2.87208e-06
2.96425e-06
3.05723e-06
3.15109e-06
3.24595e-06
3.34191e-06
3.4391e-06
3.53767e-06
3.63776e-06
3.73954e-06
3.84318e-06
3.94887e-06
4.05682e-06
4.16727e-06
4.28046e-06
4.39665e-06
4.51615e-06
4.63928e-06
4.7664e-06
4.89788e-06
5.03418e-06
5.17578e-06
5.32322e-06
5.47711e-06
5.63813e-06
5.80707e-06
5.98486e-06
6.17254e-06
6.3713e-06
6.58251e-06
6.8078e-06
7.0494e-06
7.31022e-06
7.59358e-06
7.9015e-06
8.23233e-06
1.07369e-06
9.29658e-07
8.28758e-07
1.24189e-06
3.03551e-06
2.21101e-05
7.43116e-05
2.2172e-05
4.33932e-05
6.31191e-05
2.01192e-05
3.14504e-06
1.01618e-06
4.50182e-07
2.74265e-07
2.34712e-07
2.42139e-07
2.65773e-07
2.89947e-07
3.12953e-07
3.34367e-07
3.54543e-07
3.75245e-07
3.99083e-07
4.26618e-07
4.57855e-07
4.92278e-07
5.28585e-07
5.65345e-07
6.02665e-07
6.41082e-07
6.81419e-07
7.24443e-07
7.70065e-07
8.17924e-07
8.67533e-07
9.1867e-07
9.71426e-07
1.02598e-06
1.08243e-06
1.14073e-06
1.20076e-06
1.26243e-06
1.32569e-06
1.39052e-06
1.45689e-06
1.52475e-06
1.59408e-06
1.66486e-06
1.73712e-06
1.8109e-06
1.88623e-06
1.96321e-06
2.0419e-06
2.12241e-06
2.20485e-06
2.28932e-06
2.37595e-06
2.46487e-06
2.55619e-06
2.65009e-06
2.7467e-06
2.84622e-06
2.94883e-06
3.05477e-06
3.16428e-06
3.27763e-06
3.39513e-06
3.51714e-06
3.64399e-06
3.77615e-06
3.91409e-06
4.05835e-06
4.20951e-06
4.36826e-06
4.53534e-06
4.71163e-06
4.89814e-06
5.09601e-06
5.30659e-06
5.53144e-06
5.77233e-06
6.03126e-06
6.31057e-06
6.61304e-06
6.94196e-06
7.30068e-06
7.69155e-06
8.11511e-06
1.47093e-06
1.23801e-06
9.59456e-07
1.13997e-06
2.69926e-06
2.00377e-05
7.87946e-05
2.29602e-05
4.04587e-05
6.59764e-05
1.65263e-05
2.3933e-06
7.1892e-07
3.25292e-07
2.14161e-07
1.9133e-07
1.92141e-07
1.97373e-07
2.04863e-07
2.1369e-07
2.2334e-07
2.33543e-07
2.45784e-07
2.6103e-07
2.75764e-07
2.92388e-07
3.10843e-07
3.30634e-07
3.5116e-07
3.72691e-07
3.95498e-07
4.1989e-07
4.4615e-07
4.74145e-07
5.03673e-07
5.34499e-07
5.66555e-07
5.99969e-07
6.34932e-07
6.71602e-07
7.1001e-07
7.50105e-07
7.91845e-07
8.35231e-07
8.80284e-07
9.27038e-07
9.75538e-07
1.02585e-06
1.07807e-06
1.13229e-06
1.18865e-06
1.24727e-06
1.30829e-06
1.37187e-06
1.43816e-06
1.50729e-06
1.57941e-06
1.65467e-06
1.7332e-06
1.81516e-06
1.90073e-06
1.99011e-06
2.08353e-06
2.18122e-06
2.2835e-06
2.39066e-06
2.50307e-06
2.62118e-06
2.74545e-06
2.8764e-06
3.01462e-06
3.16076e-06
3.31558e-06
3.4799e-06
3.6547e-06
3.84105e-06
4.04023e-06
4.25367e-06
4.48307e-06
4.73036e-06
4.9978e-06
5.28792e-06
5.60359e-06
5.94803e-06
6.32487e-06
6.73812e-06
7.19181e-06
7.68943e-06
8.23378e-06
1.97479e-06
1.65957e-06
1.19969e-06
1.12502e-06
2.36398e-06
1.71566e-05
7.77048e-05
2.36999e-05
3.67432e-05
6.26983e-05
1.27869e-05
1.72489e-06
5.21397e-07
2.58687e-07
1.96882e-07
1.86456e-07
1.84338e-07
1.80727e-07
1.7911e-07
1.79414e-07
1.81087e-07
1.83716e-07
1.87104e-07
1.9129e-07
1.96287e-07
2.023e-07
2.09435e-07
2.17741e-07
2.26993e-07
2.3906e-07
2.52552e-07
2.66952e-07
2.82112e-07
2.97889e-07
3.14365e-07
3.31597e-07
3.49695e-07
3.68841e-07
3.89314e-07
4.11381e-07
4.34959e-07
4.59903e-07
4.86156e-07
5.13762e-07
5.42806e-07
5.7343e-07
6.05805e-07
6.4011e-07
6.76517e-07
7.15205e-07
7.56375e-07
8.0024e-07
8.47011e-07
8.96883e-07
9.50033e-07
1.00663e-06
1.06682e-06
1.13079e-06
1.19871e-06
1.27078e-06
1.34724e-06
1.42835e-06
1.51444e-06
1.60586e-06
1.70302e-06
1.80638e-06
1.91647e-06
2.03387e-06
2.15923e-06
2.2933e-06
2.43692e-06
2.59101e-06
2.75665e-06
2.93505e-06
3.12758e-06
3.33583e-06
3.56162e-06
3.80705e-06
4.07454e-06
4.36691e-06
4.68735e-06
5.03948e-06
5.42734e-06
5.8554e-06
6.32858e-06
6.85218e-06
7.43165e-06
8.07224e-06
8.7792e-06
1.39334e-05
6.90597e-05
2.44727e-05
3.28575e-05
5.55953e-05
9.32884e-06
1.21616e-06
4.00476e-07
2.3608e-07
2.09389e-07
2.09255e-07
2.05548e-07
1.96515e-07
1.89294e-07
1.84428e-07
1.81343e-07
1.79481e-07
1.7834e-07
1.77563e-07
1.7717e-07
1.77299e-07
1.78079e-07
1.79627e-07
1.82014e-07
1.85284e-07
1.89374e-07
1.94215e-07
1.99765e-07
2.05977e-07
2.12873e-07
2.20516e-07
2.29004e-07
2.38572e-07
2.50125e-07
2.6421e-07
2.79167e-07
2.94545e-07
3.1049e-07
3.27301e-07
3.45262e-07
3.64757e-07
3.86129e-07
4.09559e-07
4.35206e-07
4.63293e-07
4.94103e-07
5.2792e-07
5.64971e-07
6.05444e-07
6.49503e-07
6.9731e-07
7.49042e-07
8.04905e-07
8.65137e-07
9.30022e-07
9.99895e-07
1.07514e-06
1.1562e-06
1.24359e-06
1.33788e-06
1.43973e-06
1.54988e-06
1.66917e-06
1.79853e-06
1.93902e-06
2.09184e-06
2.25834e-06
2.44006e-06
2.63873e-06
2.85635e-06
3.09522e-06
3.35795e-06
3.6476e-06
3.96764e-06
4.32209e-06
4.71549e-06
5.15295e-06
5.64015e-06
6.18333e-06
6.78925e-06
7.46517e-06
8.21862e-06
9.05715e-06
9.98857e-06
1.08758e-05
5.54167e-05
2.39782e-05
2.88437e-05
4.64276e-05
6.51281e-06
8.76225e-07
3.37559e-07
2.44995e-07
2.47479e-07
2.56798e-07
2.52065e-07
2.38742e-07
2.27023e-07
2.18133e-07
2.11517e-07
2.0647e-07
2.02226e-07
1.98155e-07
1.94218e-07
1.90589e-07
1.87444e-07
1.84975e-07
1.83286e-07
1.82304e-07
1.81949e-07
1.82136e-07
1.82812e-07
1.83986e-07
1.85691e-07
1.8798e-07
1.90922e-07
1.94588e-07
1.99081e-07
2.04475e-07
2.10738e-07
2.17855e-07
2.25879e-07
2.3499e-07
2.45682e-07
2.58952e-07
2.75006e-07
2.93223e-07
3.13628e-07
3.36676e-07
3.62923e-07
3.92634e-07
4.2591e-07
4.62835e-07
5.03521e-07
5.48131e-07
5.96882e-07
6.50052e-07
7.0798e-07