/*--------------------------------*- C++ -*----------------------------------*\
| =========                 |                                                 |
| \\      /  F ield         | OpenFOAM: The Open Source CFD Toolbox           |
|  \\    /   O peration     | Version:  2412                                  |
|   \\  /    A nd           | Website:  www.openfoam.com                      |
|    \\/     M anipulation  |                                                 |
\*---------------------------------------------------------------------------*/
FoamFile
{
    version     2.0;
    format      ascii;
    arch        "LSB;label=32;scalar=64";
    class       surfaceScalarField;
    location    "240";
    object      phi;
}
// * * * * * * * * * * * * * * * * * * * * * * * * * * * * * * * * * * * * * //

dimensions      [0 3 -1 0 0 0 0];

oriented        oriented;

internalField   nonuniform List<scalar> 
14663
(
2.43114e-05
-2.31054e-06
2.44285e-05
-1.13851e-07
2.27466e-05
1.68409e-06
1.99015e-05
2.84274e-06
1.6597e-05
3.30455e-06
1.4174e-05
2.423e-06
1.25257e-05
1.64822e-06
1.09785e-05
1.54729e-06
9.47902e-06
1.49942e-06
8.1867e-06
1.29232e-06
7.11861e-06
1.06809e-06
6.25524e-06
8.63359e-07
5.57391e-06
6.8132e-07
5.04945e-06
5.24457e-07
4.65053e-06
3.98906e-07
4.34523e-06
3.053e-07
4.10966e-06
2.36058e-07
3.9255e-06
1.83685e-07
3.77849e-06
1.48414e-07
3.65765e-06
1.19447e-07
3.55567e-06
1.02812e-07
3.46711e-06
8.77121e-08
3.38842e-06
7.95149e-08
3.31723e-06
7.0367e-08
3.25155e-06
6.65826e-08
3.19014e-06
6.04961e-08
3.13224e-06
5.88192e-08
3.07703e-06
5.42949e-08
3.02414e-06
5.28912e-08
2.97301e-06
5.11296e-08
2.92349e-06
4.95184e-08
2.8753e-06
4.81867e-08
2.82834e-06
4.69607e-08
2.78254e-06
4.58011e-08
2.73797e-06
4.45747e-08
2.69447e-06
4.34987e-08
2.6512e-06
4.32697e-08
2.60809e-06
4.31098e-08
2.56542e-06
4.26732e-08
2.52348e-06
4.19431e-08
2.48219e-06
4.12844e-08
2.44149e-06
4.07041e-08
2.40147e-06
4.00233e-08
2.36205e-06
3.94204e-08
2.3232e-06
3.88462e-08
2.28499e-06
3.82195e-08
2.24742e-06
3.75646e-08
2.2106e-06
3.68293e-08
2.17418e-06
3.64169e-08
2.13836e-06
3.5821e-08
2.10319e-06
3.51707e-08
2.06866e-06
3.45339e-08
2.03452e-06
3.4141e-08
2.00095e-06
3.35817e-08
1.96793e-06
3.30123e-08
1.93548e-06
3.24524e-08
1.90344e-06
3.20469e-08
1.87177e-06
3.16715e-08
1.84062e-06
3.11501e-08
1.80993e-06
3.07e-08
1.77962e-06
3.03049e-08
1.74968e-06
2.99536e-08
1.71997e-06
2.97092e-08
1.6907e-06
2.92767e-08
1.66178e-06
2.89141e-08
1.63319e-06
2.89102e-08
1.60481e-06
2.80812e-08
1.57667e-06
2.83347e-08
1.5488e-06
2.76796e-08
1.52119e-06
2.78079e-08
1.49398e-06
2.70368e-08
1.46706e-06
2.70955e-08
1.44039e-06
2.65148e-08
1.41385e-06
2.66106e-08
1.38769e-06
2.61784e-08
2.5956e-08
8.29395e-05
-1.0879e-05
8.44143e-05
-1.58418e-06
7.97984e-05
6.30315e-06
7.06204e-05
1.20177e-05
5.94074e-05
1.45175e-05
5.07377e-05
1.10927e-05
4.48263e-05
7.55959e-06
3.93802e-05
6.99337e-06
3.40091e-05
6.87055e-06
2.93587e-05
5.94266e-06
2.55166e-05
4.91023e-06
2.24122e-05
3.96776e-06
1.99523e-05
3.1412e-06
1.80647e-05
2.41202e-06
1.66381e-05
1.82547e-06
1.55364e-05
1.40705e-06
1.46819e-05
1.09119e-06
1.40158e-05
8.49127e-07
1.3487e-05
6.79237e-07
1.30489e-05
5.5549e-07
1.26792e-05
4.73791e-07
1.23584e-05
4.07217e-07
1.20735e-05
3.65678e-07
1.18159e-05
3.26707e-07
1.15788e-05
3.04998e-07
1.13577e-05
2.80277e-07
1.1149e-05
2.68891e-07
1.09503e-05
2.51668e-07
1.07599e-05
2.43288e-07
1.05764e-05
2.3465e-07
1.03989e-05
2.26996e-07
1.02262e-05
2.20845e-07
1.00579e-05
2.15241e-07
9.89396e-06
2.0979e-07
9.73456e-06
2.03971e-07
9.57895e-06
1.99115e-07
9.42468e-06
1.97541e-07
9.27076e-06
1.97024e-07
9.11873e-06
1.94713e-07
8.96915e-06
1.91524e-07
8.82203e-06
1.88401e-07
8.67707e-06
1.85671e-07
8.53439e-06
1.82705e-07
8.39418e-06
1.7963e-07
8.25595e-06
1.7708e-07
8.11996e-06
1.74219e-07
7.98635e-06
1.71169e-07
7.85513e-06
1.68052e-07
7.7258e-06
1.65755e-07
7.59818e-06
1.63447e-07
7.47324e-06
1.60107e-07
7.35044e-06
1.57342e-07
7.22921e-06
1.55378e-07
7.10966e-06
1.53136e-07
6.99248e-06
1.50195e-07
6.87714e-06
1.47795e-07
6.76309e-06
1.46101e-07
6.65052e-06
1.44247e-07
6.53988e-06
1.41789e-07
6.43092e-06
1.39665e-07
6.3232e-06
1.38034e-07
6.21665e-06
1.36515e-07
6.1114e-06
1.3496e-07
6.00737e-06
1.3332e-07
5.90449e-06
1.31794e-07
5.80296e-06
1.30883e-07
5.70243e-06
1.28203e-07
5.60255e-06
1.28487e-07
5.50339e-06
1.26575e-07
5.4055e-06
1.25972e-07
5.30878e-06
1.23521e-07
5.21315e-06
1.22975e-07
5.11841e-06
1.21047e-07
5.02427e-06
1.20856e-07
4.93138e-06
1.19107e-07
1.17958e-07
0.000159658
-2.84767e-05
0.000164185
-6.10657e-06
0.0001571
1.33916e-05
0.000140497
2.86178e-05
0.000119191
3.58228e-05
0.000102013
2.82713e-05
9.0255e-05
1.93172e-05
7.95575e-05
1.76909e-05
6.87896e-05
1.76385e-05
5.94111e-05
1.53212e-05
5.16395e-05
1.26818e-05
4.53565e-05
1.02508e-05
4.03395e-05
8.15814e-06
3.65056e-05
6.24596e-06
3.36356e-05
4.69546e-06
3.13916e-05
3.65101e-06
2.96353e-05
2.84827e-06
2.82729e-05
2.21073e-06
2.72054e-05
1.74904e-06
2.63094e-05
1.44929e-06
2.55511e-05
1.23334e-06
2.48948e-05
1.06222e-06
2.43127e-05
9.49083e-07
2.37863e-05
8.51751e-07
2.33031e-05
7.89701e-07
2.28517e-05
7.30144e-07
2.24271e-05
6.94994e-07
2.20232e-05
6.54097e-07
2.16361e-05
6.30361e-07
2.12638e-05
6.07004e-07
2.09037e-05
5.87041e-07
2.05537e-05
5.70892e-07
2.02134e-05
5.55565e-07
1.98818e-05
5.41356e-07
1.95596e-05
5.26154e-07
1.92453e-05
5.13429e-07
1.89334e-05
5.09399e-07
1.86227e-05
5.07714e-07
1.83166e-05
5.00819e-07
1.80153e-05
4.92846e-07
1.77187e-05
4.85023e-07
1.74273e-05
4.77094e-07
1.71403e-05
4.69694e-07
1.6858e-05
4.61951e-07
1.65804e-05
4.5469e-07
1.63068e-05
4.47808e-07
1.60382e-05
4.39739e-07
1.57744e-05
4.31831e-07
1.55141e-05
4.26136e-07
1.52579e-05
4.19588e-07
1.50066e-05
4.11454e-07
1.47598e-05
4.04129e-07
1.45162e-05
3.98976e-07
1.4276e-05
3.9335e-07
1.40402e-05
3.86024e-07
1.38086e-05
3.79352e-07
1.35797e-05
3.75e-07
1.3354e-05
3.69965e-07
1.31314e-05
3.64412e-07
1.29125e-05
3.58517e-07
1.26966e-05
3.54e-07
1.24827e-05
3.50403e-07
1.22708e-05
3.46832e-07
1.20618e-05
3.42323e-07
1.18559e-05
3.37729e-07
1.1652e-05
3.35295e-07
1.14499e-05
3.2981e-07
1.12494e-05
3.29352e-07
1.10506e-05
3.25052e-07
1.0854e-05
3.22875e-07
1.06598e-05
3.17462e-07
1.04678e-05
3.15241e-07
1.02775e-05
3.11062e-07
1.00888e-05
3.09707e-07
9.9026e-06
3.0535e-07
3.03001e-07
0.000255882
-5.81547e-05
0.000265552
-1.57692e-05
0.000256825
2.21209e-05
0.000232118
5.33232e-05
0.000198896
6.90443e-05
0.000171071
5.60967e-05
0.00015169
3.86984e-05
0.000134253
3.51276e-05
0.000116547
3.53446e-05
0.000100934
3.09344e-05
8.78878e-05
2.57277e-05
7.72809e-05
2.08577e-05
6.87019e-05
1.67371e-05
6.21689e-05
1.27789e-05
5.73377e-05
9.52668e-06
5.34919e-05
7.49682e-06
5.04373e-05
5.90363e-06
4.80907e-05
4.55655e-06
4.62843e-05
3.55756e-06
4.47366e-05
2.99487e-06
4.34282e-05
2.54299e-06
4.22938e-05
2.19543e-06
4.12879e-05
1.95609e-06
4.03795e-05
1.75897e-06
3.95449e-05
1.62561e-06
3.87693e-05
1.50444e-06
3.80378e-05
1.42779e-06
3.73439e-05
1.34674e-06
3.66806e-05
1.29361e-06
3.6043e-05
1.24464e-06
3.54265e-05
1.20352e-06
3.48291e-05
1.16828e-06
3.42471e-05
1.13758e-06
3.36809e-05
1.1076e-06
3.31299e-05
1.07708e-06
3.25937e-05
1.04962e-06
3.20619e-05
1.04121e-06
3.15327e-05
1.03699e-06
3.10116e-05
1.02191e-06
3.04997e-05
1.00467e-06
2.99968e-05
9.87932e-07
2.95017e-05
9.72273e-07
2.90149e-05
9.56474e-07
2.85361e-05
9.40686e-07
2.80652e-05
9.25627e-07
2.76016e-05
9.11447e-07
2.71462e-05
8.95122e-07
2.6699e-05
8.79046e-07
2.62582e-05
8.66961e-07
2.58244e-05
8.534e-07
2.53988e-05
8.37041e-07
2.49803e-05
8.22622e-07
2.45677e-05
8.11569e-07
2.41612e-05
7.99866e-07
2.37624e-05
7.84865e-07
2.33697e-05
7.71992e-07
2.29822e-05
7.62506e-07
2.25998e-05
7.52434e-07
2.22234e-05
7.40751e-07
2.18528e-05
7.29181e-07
2.14869e-05
7.19886e-07
2.11244e-05
7.12881e-07
2.07663e-05
7.04924e-07
2.04127e-05
6.95924e-07
2.00637e-05
6.86734e-07
1.97184e-05
6.8105e-07
1.93768e-05
6.71055e-07
1.90376e-05
6.68817e-07
1.87008e-05
6.61555e-07
1.83683e-05
6.55633e-07
1.80395e-05
6.46019e-07
1.7715e-05
6.40028e-07
1.73929e-05
6.32929e-07
1.70731e-05
6.2969e-07
1.6758e-05
6.20512e-07
6.15737e-07
0.000369799
-0.000101803
0.000385497
-3.14682e-05
0.000375317
3.23038e-05
0.000342832
8.58063e-05
0.000297774
0.000114102
0.000258394
9.54772e-05
0.000229717
6.73749e-05
0.000204073
6.07716e-05
0.00017861
6.08077e-05
0.000155731
5.38136e-05
0.000136306
4.51525e-05
0.00012031
3.68539e-05
0.000107151
2.98962e-05
9.70992e-05
2.28305e-05
8.96879e-05
1.6938e-05
8.3695e-05
1.34897e-05
7.88533e-05
1.07461e-05
7.51613e-05
8.24786e-06
7.23748e-05
6.34608e-06
6.99286e-05
5.43905e-06
6.78568e-05
4.61599e-06
6.60596e-05
3.99136e-06
6.44669e-05
3.54993e-06
6.30298e-05
3.1949e-06
6.171e-05
2.94678e-06
6.04832e-05
2.7299e-06
5.93292e-05
2.58305e-06
5.82342e-05
2.44042e-06
5.7188e-05
2.33978e-06
5.61841e-05
2.24861e-06
5.52146e-05
2.173e-06
5.42743e-05
2.1086e-06
5.33605e-05
2.05136e-06
5.24704e-05
1.99773e-06
5.16063e-05
1.94116e-06
5.07629e-05
1.89304e-06
4.99253e-05
1.87884e-06
4.9095e-05
1.8672e-06
4.82808e-05
1.83614e-06
4.74825e-05
1.80304e-06
4.66977e-05
1.77268e-06
4.59267e-05
1.74329e-06
4.51676e-05
1.71555e-06
4.44216e-05
1.68666e-06
4.36874e-05
1.65989e-06
4.29655e-05
1.63331e-06
4.22564e-05
1.60429e-06
4.15603e-05
1.57506e-06
4.08739e-05
1.55345e-06
4.01976e-05
1.52966e-06
3.95356e-05
1.49909e-06
3.88846e-05
1.47357e-06
3.82421e-05
1.45412e-06
3.761e-05
1.43196e-06
3.69881e-05
1.40673e-06
3.63768e-05
1.38327e-06
3.57742e-05
1.36517e-06
3.51794e-05
1.34718e-06
3.45937e-05
1.32649e-06
3.40164e-05
1.30646e-06
3.34471e-05
1.2892e-06
3.28841e-05
1.27597e-06
3.23264e-05
1.26256e-06
3.17758e-05
1.24656e-06
3.12322e-05
1.23029e-06
3.06957e-05
1.21806e-06
3.01637e-05
1.20263e-06
2.96359e-05
1.19688e-06
2.91117e-05
1.1855e-06
2.8594e-05
1.17359e-06
2.80828e-05
1.15704e-06
2.75771e-05
1.14596e-06
2.70757e-05
1.13408e-06
2.65784e-05
1.12709e-06
2.60879e-05
1.1111e-06
1.10327e-06
0.000498021
-0.000159475
0.000518162
-5.15946e-05
0.00050441
4.60581e-05
0.000463331
0.000126883
0.000407329
0.000170104
0.000357768
0.000145037
0.000320152
0.000104992
0.000286163
9.47604e-05
0.000253305
9.36655e-05
0.000223231
8.38875e-05
0.000197193
7.11912e-05
0.000175349
5.8697e-05
0.000157152
4.8094e-05
0.000142996
3.69864e-05
0.000132335
2.75985e-05
0.000123703
2.21221e-05
0.00011664
1.78099e-05
0.000111243
1.36435e-05
0.000107175
1.04161e-05
0.000103569
9.04292e-06
0.000100503
7.68327e-06
9.78382e-05
6.65522e-06
9.54734e-05
5.91587e-06
9.33357e-05
5.33151e-06
9.13742e-05
4.90942e-06
8.95483e-05
4.55456e-06
8.78336e-05
4.299e-06
8.62051e-05
4.06773e-06
8.46512e-05
3.89364e-06
8.3159e-05
3.74084e-06
8.1719e-05
3.61292e-06
8.03231e-05
3.50454e-06
7.89673e-05
3.40715e-06
7.7646e-05
3.31907e-06
7.63602e-05
3.22695e-06
7.51022e-05
3.15104e-06
7.38536e-05
3.12742e-06
7.26191e-05
3.10168e-06
7.1415e-05
3.04023e-06
7.02354e-05
2.98269e-06
6.90775e-05
2.93058e-06
6.79392e-05
2.8816e-06
6.68202e-05
2.83451e-06
6.57188e-05
2.78812e-06
6.46365e-05
2.74216e-06
6.35714e-05
2.69844e-06
6.25243e-05
2.65136e-06
6.14969e-05
2.60245e-06
6.04836e-05
2.56683e-06
5.9487e-05
2.52626e-06
5.85083e-05
2.47779e-06
5.7548e-05
2.4339e-06
5.65999e-05
2.40221e-06
5.56655e-05
2.36632e-06
5.47485e-05
2.32374e-06
5.3847e-05
2.28478e-06
5.29564e-05
2.25583e-06
5.20769e-05
2.22669e-06
5.12119e-05
2.19144e-06
5.036e-05
2.15838e-06
4.95188e-05
2.13046e-06
4.86862e-05
2.10854e-06
4.78625e-05
2.08623e-06
4.70496e-05
2.05949e-06
4.62467e-05
2.03319e-06
4.54525e-05
2.01268e-06
4.46661e-05
1.98871e-06
4.38859e-05
1.97733e-06
4.3112e-05
1.95915e-06
4.23457e-05
1.9402e-06
4.15898e-05
1.91271e-06
4.08411e-05
1.89491e-06
4.00998e-05
1.87519e-06
3.93638e-05
1.86321e-06
3.86381e-05
1.83687e-06
1.82455e-06
0.000639728
-0.000230915
0.000662485
-7.43355e-05
0.000642453
6.609e-05
0.000590267
0.00017907
0.000521889
0.000238481
0.000462114
0.000204813
0.000416775
0.00015033
0.000375858
0.000135678
0.000336514
0.000133009
0.000300153
0.000120248
0.000268209
0.000103136
0.000240956
8.59498e-05
0.000218261
7.07886e-05
0.000200005
5.52426e-05
0.000185602
4.20011e-05
0.000174137
3.35872e-05
0.000164797
2.71508e-05
0.000157491
2.09485e-05
0.000151789
1.61204e-05
0.000146827
1.40027e-05
0.000142594
1.19177e-05
0.000138901
1.0347e-05
0.000135613
9.20484e-06
0.000132633
8.31004e-06
0.000129892
7.65172e-06
0.000127339
7.10619e-06
0.000124934
6.70565e-06
0.000122651
6.34955e-06
0.000120468
6.07646e-06
0.00011837
5.83853e-06
0.000116345
5.63879e-06
0.000114381
5.46842e-06
0.00011247
5.31801e-06
0.000110606
5.18279e-06
0.00010879
5.04325e-06
0.000107002
4.93837e-06
0.000105229
4.9011e-06
0.000103487
4.84332e-06
0.00010179
4.73744e-06
0.000100128
4.64435e-06
9.84954e-05
4.56344e-06
9.68899e-05
4.48715e-06
9.53104e-05
4.41399e-06
9.3758e-05
4.34053e-06
9.22288e-05
4.27129e-06
9.07237e-05
4.20358e-06
8.9245e-05
4.13008e-06
8.77932e-05
4.0542e-06
8.63612e-05
3.99882e-06
8.49503e-05
3.93719e-06
8.35668e-05
3.86135e-06
8.22055e-05
3.79514e-06
8.08636e-05
3.74413e-06
7.95402e-05
3.68971e-06
7.82395e-05
3.62453e-06
7.6961e-05
3.56321e-06
7.56987e-05
3.51811e-06
7.44518e-05
3.47362e-06
7.32231e-05
3.42012e-06
7.20134e-05
3.36811e-06
7.08184e-05
3.32546e-06
6.96371e-05
3.28987e-06
6.8466e-05
3.25734e-06
6.7309e-05
3.21651e-06
6.61677e-05
3.17443e-06
6.50386e-05
3.14225e-06
6.39202e-05
3.10671e-06
6.28091e-05
3.08863e-06
6.17065e-05
3.06152e-06
6.06157e-05
3.03131e-06
5.95377e-05
2.99053e-06
5.84712e-05
2.96159e-06
5.74139e-05
2.93236e-06
5.63648e-05
2.91242e-06
5.53295e-05
2.87219e-06
2.85451e-06
0.000796851
-0.000317115
0.000821643
-9.91073e-05
0.000793558
9.41804e-05
0.00072788
0.000244743
0.000644526
0.000321836
0.000572396
0.000276942
0.00051867
0.000204057
0.00047097
0.000183377
0.00042512
0.00017886
0.000382874
0.000162494
0.000345729
0.000140281
0.000313865
0.000117814
0.000287485
9.71685e-05
0.000265692
7.70359e-05
0.000247825
5.98675e-05
0.000233769
4.76435e-05
0.000222545
3.83754e-05
0.000213419
3.00738e-05
0.000205859
2.36823e-05
0.000199553
2.03068e-05
0.000194137
1.73345e-05
0.000189387
1.50962e-05
0.000185138
1.3455e-05
0.000181272
1.2175e-05
0.000177705
1.12199e-05
0.000174369
1.04409e-05
0.000171221
9.85448e-06
0.000168222
9.34751e-06
0.000165347
8.95153e-06
0.000162582
8.60378e-06
0.000159904
8.3166e-06
0.000157301
8.07115e-06
0.000154764
7.85574e-06
0.000152287
7.65983e-06
0.00014986
7.4697e-06
0.00014747
7.32878e-06
0.000145105
7.2659e-06
0.000142785
7.16336e-06
0.000140516
7.00669e-06
0.000138287
6.87265e-06
0.000136095
6.75634e-06
0.000133936
6.64617e-06
0.000131811
6.5383e-06
0.000129717
6.43448e-06
0.000127655
6.33323e-06
0.000125624
6.23447e-06
0.000123624
6.13013e-06
0.000121658
6.02032e-06
0.000119719
5.93833e-06
0.000117807
5.84941e-06
0.000115927
5.74124e-06
0.00011408
5.64227e-06
0.000112254
5.57016e-06
0.000110453
5.49076e-06
0.000108682
5.39523e-06
0.000106937
5.30787e-06
0.000105214
5.24128e-06
0.000103512
5.17583e-06
0.000101833
5.09885e-06
0.000100177
5.02386e-06
9.8542e-05
4.96088e-06
9.69223e-05
4.90953e-06
9.53169e-05
4.86273e-06
9.37313e-05
4.80219e-06
9.21632e-05
4.74249e-06
9.06117e-05
4.69414e-06
8.90735e-05
4.64465e-06
8.75449e-05
4.61739e-06
8.60273e-05
4.57898e-06
8.45236e-05
4.53527e-06
8.30367e-05
4.47722e-06
8.15655e-05
4.43295e-06
8.01061e-05
4.39161e-06
7.86555e-05
4.3631e-06
7.72252e-05
4.30265e-06
4.27937e-06
0.00097248
0.000999971
-0.000126578
0.000962868
0.000131286
0.000881566
0.000326043
0.000780417
0.000422985
0.000693271
0.000364089
0.000629135
0.000268193
0.000573213
0.000239299
0.000519713
0.00023236
0.000470806
0.000211401
0.000428121
0.000182965
0.000391698
0.000154237
0.000361624
0.000127242
0.000336741
0.000101919
0.000316251
8.03572e-05
0.000300053
6.38413e-05
0.000287261
5.11676e-05
0.000276627
4.0708e-05
0.000267529
3.27812e-05
0.000260071
2.77642e-05
0.000253638
2.37679e-05
0.000247965
2.07683e-05
0.000242864
1.85565e-05
0.000238204
1.68343e-05
0.000233886
1.55385e-05
0.000229833
1.44932e-05
0.000225992
1.36959e-05
0.00022232
1.30195e-05
0.000218792
1.24795e-05
0.000215381
1.20141e-05
0.000212073
1.16254e-05
0.000208846
1.12973e-05
0.000205692
1.10099e-05
0.000202601
1.07512e-05
0.000199568
1.05021e-05
0.00019658
1.03173e-05
0.000193638
1.02082e-05
0.000190741
1.00595e-05
0.000187882
9.8658e-06
0.000185062
9.69306e-06
0.000182279
9.53897e-06
0.000179532
9.3938e-06
0.000176821
9.24883e-06
0.000174146
9.10934e-06
0.000171508
8.97153e-06
0.000168901
8.84173e-06
0.000166333
8.69777e-06
0.000163803
8.55059e-06
0.000161301
8.43966e-06
0.00015883
8.32052e-06
0.000156398
8.17399e-06
0.000154002
8.03791e-06
0.000151632
7.93995e-06
0.000149291
7.83221e-06
0.000146981
7.70495e-06
0.000144706
7.58336e-06
0.000142455
7.49198e-06
0.000140226
7.4044e-06
0.000138026
7.29918e-06
0.000135853
7.19729e-06
0.000133704
7.10932e-06
0.000131572
7.04166e-06
0.000129457
6.97801e-06
0.000127363
6.89618e-06
0.000125291
6.81429e-06
0.000123237
6.74887e-06
0.000121199
6.68217e-06
0.000119173
6.6432e-06
0.000117157
6.59498e-06
0.000115158
6.53464e-06
0.000113178
6.45691e-06
0.000111215
6.39592e-06
0.000109266
6.34102e-06
0.000107331
6.29807e-06
0.000105415
6.21816e-06
6.1874e-06
0.00120184
0.00115544
0.000177693
0.00105648
0.000424999
0.000934546
0.000544914
0.000829407
0.000469228
0.000752381
0.000345219
0.000686232
0.000305447
0.000623411
0.000295181
0.00056637
0.000268442
0.00051696
0.000232375
0.000475129
0.000196068
0.000440655
0.000161716
0.000412442
0.000130132
0.000389504
0.000103294
0.000371286
8.20593e-05
0.000356861
6.55932e-05
0.000344925
5.26441e-05
0.000334767
4.29391e-05
0.00032638
3.61509e-05
0.000319124
3.10249e-05
0.000312712
2.71791e-05
0.000306929
2.43399e-05
0.000301629
2.21343e-05
0.000296697
2.04708e-05
0.000292058
1.91322e-05
0.00028764
1.81136e-05
0.00028341
1.72493e-05
0.000279326
1.65633e-05
0.00027537
1.59702e-05
0.000271518
1.54772e-05
0.000267752
1.50635e-05
0.000264057
1.47055e-05
0.000260427
1.43809e-05
0.00025685
1.40795e-05
0.000253332
1.38351e-05
0.000249875
1.36654e-05
0.000246453
1.3481e-05
0.000243056
1.32626e-05
0.000239687
1.30622e-05
0.000236353
1.28737e-05
0.000233056
1.26907e-05
0.000229792
1.25127e-05
0.000226563
1.23381e-05
0.000223369
1.21658e-05
0.000220209
1.20018e-05
0.000217085
1.1822e-05
0.000214001
1.16341e-05
0.000210944
1.14961e-05
0.000207919
1.13461e-05
0.000204934
1.11585e-05
0.000201985
1.09875e-05
0.000199064
1.08608e-05
0.000196169
1.07266e-05
0.000193311
1.05633e-05
0.000190487
1.04073e-05
0.000187687
1.02919e-05
0.00018491
1.01814e-05
0.000182161
1.00481e-05
0.000179442
9.91666e-06
0.000176747
9.80463e-06
0.000174069
9.71937e-06
0.000171406
9.64132e-06
0.000168764
9.53828e-06
0.000166145
9.43331e-06
0.000163544
9.35013e-06
0.000160959
9.26662e-06
0.000158383
9.21987e-06
0.000155815
9.16253e-06
0.000153264
9.08566e-06
0.000150731
8.98978e-06
0.000148218
8.90944e-06
0.000145718
8.84072e-06
0.000143229
8.78721e-06
0.000140766
8.68135e-06
8.65046e-06
0.00137629
0.00125777
0.000543517
0.00111177
0.000690915
0.000985376
0.00059562
0.000892672
0.000437923
0.000814034
0.000384085
0.000739989
0.000369226
0.000673085
0.000335346
0.000615428
0.000290032
0.000566911
0.000244585
0.000527032
0.000201596
0.000494714
0.00016245
0.000468763
0.000129246
0.000448161
0.000102661
0.000431808
8.19463e-05
0.000418447
6.60056e-05
0.000407266
5.41197e-05
0.000397951
4.5466e-05
0.000389912
3.90636e-05
0.000382808
3.42831e-05
0.000376408
3.07404e-05
0.000370537
2.80046e-05
0.00036507
2.59386e-05
0.000359915
2.42865e-05
0.000355006
2.30229e-05
0.000350288
2.1967e-05
0.000345728
2.11232e-05
0.000341301
2.03979e-05
0.000336979
1.97984e-05
0.000332745
1.92977e-05
0.000328585
1.88661e-05
0.000324483
1.84825e-05
0.000320435
1.8127e-05
0.000316443
1.78272e-05
0.000312511
1.75982e-05
0.000308616
1.73757e-05
0.00030474
1.71387e-05
0.000300891
1.69108e-05
0.000297073
1.6692e-05
0.000293287
1.64765e-05
0.000289533
1.62662e-05
0.000285813
1.6059e-05
0.000282122
1.58559e-05
0.000278464
1.56605e-05
0.000274839
1.54467e-05
0.000271253
1.52203e-05
0.000267693
1.50558e-05
0.000264159
1.48802e-05
0.000260667
1.46511e-05
0.000257211
1.44431e-05
0.000253778
1.42943e-05
0.000250368
1.41357e-05
0.000246997
1.39347e-05
0.000243655
1.3749e-05
0.000240336
1.36114e-05
0.000237038
1.34791e-05
0.000233767
1.33195e-05
0.000230523
1.31599e-05
0.0002273
1.30279e-05
0.00022409
1.2929e-05
0.000220894
1.28381e-05
0.000217715
1.2717e-05
0.000214556
1.25917e-05
0.000211414
1.24924e-05
0.000208281
1.23993e-05
0.000205155
1.23461e-05
0.000202031
1.22872e-05
0.00019892
1.21963e-05
0.000195826
1.20837e-05
0.000192748
1.19878e-05
0.000189678
1.19101e-05
0.000186616
1.18493e-05
0.000183579
1.17183e-05
1.16939e-05
0.00149089
0.000682012
0.00131726
0.000864546
0.00116588
0.000746997
0.00105437
0.000549434
0.000960727
0.000477731
0.000873333
0.000456621
0.00079465
0.000414028
0.000727031
0.000357651
0.000670348
0.000301267
0.000623881
0.000248063
0.000586451
0.00019988
0.000556623
0.000159074
0.000533004
0.00012628
0.000514266
0.000100685
0.00049911
8.11605e-05
0.000486598
6.66329e-05
0.000476139
5.59246e-05
0.000467153
4.80494e-05
0.000459244
4.21917e-05
0.000452129
3.78558e-05
0.000445614
3.45199e-05
0.000439557
3.19956e-05
0.000433848
2.9995e-05
0.000428409
2.84623e-05
0.000423181
2.7195e-05
0.00041813
2.61743e-05
0.000413222
2.53059e-05
0.000408424
2.45958e-05
0.00040372
2.40025e-05
0.000399091
2.34947e-05
0.000394525
2.30485e-05
0.00039001
2.26423e-05
0.000385545
2.22922e-05
0.000381137
2.20054e-05
0.000376771
2.17417e-05
0.000372431
2.14795e-05
0.000368118
2.12231e-05
0.000363838
2.09722e-05
0.000359586
2.07286e-05
0.000355367
2.04851e-05
0.000351181
2.02456e-05
0.000347022
2.00149e-05
0.000342893
1.97895e-05
0.000338799
1.95399e-05
0.000334743
1.92763e-05
0.000330709
1.90898e-05
0.000326705
1.88844e-05
0.000322739
1.86177e-05
0.000318807
1.83748e-05
0.000314898
1.82032e-05
0.000311013
1.80208e-05
0.000307159
1.77887e-05
0.00030334
1.7568e-05
0.000299541
1.74105e-05
0.000295757
1.72627e-05
0.000291999
1.70776e-05
0.000288266
1.68929e-05
0.000284554
1.67401e-05
0.00028085
1.66328e-05
0.000277154
1.65345e-05
0.000273472
1.63991e-05
0.000269808
1.62553e-05
0.000266155
1.61465e-05
0.00026251
1.60438e-05
0.000258862
1.59942e-05
0.000255213
1.59359e-05
0.000251569
1.58403e-05
0.000247942
1.57108e-05
0.000244321
1.56087e-05
0.000240706
1.55249e-05
0.000237093
1.54626e-05
0.000233504
1.53077e-05
1.53001e-05
0.00176173
0.000841545
0.00155669
0.00106959
0.00137618
0.000927508
0.00124226
0.00068335
0.0011307
0.000589294
0.00102751
0.000559803
0.000934869
0.000506672
0.000855361
0.00043716
0.000788848
0.00036778
0.000734417
0.000302494
0.000690718
0.000243579
0.000656033
0.000193758
0.000628638
0.000153675
0.000606932
0.000122391
0.000589489
9.8604e-05
0.000575193
8.09285e-05
0.000563269
6.78482e-05
0.000553054
5.82648e-05
0.000544096
5.11503e-05
0.000536069
4.58825e-05
0.00052874
4.18486e-05
0.000521937
3.87989e-05
0.000515539
3.63929e-05
0.000509454
3.45474e-05
0.000503611
3.30381e-05
0.000497963
3.18219e-05
0.000492479
3.07901e-05
0.000487123
2.99519e-05
0.000481872
2.92532e-05
0.000476703
2.8664e-05
0.000471604
2.81472e-05
0.000466559
2.76873e-05
0.000461562
2.72892e-05
0.00045662
2.69473e-05
0.00045173
2.66314e-05
0.000446876
2.63338e-05
0.000442052
2.6047e-05
0.000437259
2.57654e-05
0.000432501
2.54864e-05
0.000427776
2.52102e-05
0.000423084
2.49372e-05
0.000418427
2.46726e-05
0.000413796
2.44204e-05
0.000409203
2.41329e-05
0.000404653
2.38263e-05
0.000400124
2.36184e-05
0.000395622
2.33868e-05
0.000391163
2.30762e-05
0.000386745
2.27932e-05
0.000382345
2.26026e-05
0.000377969
2.23965e-05
0.000373631
2.21276e-05
0.000369325
2.18734e-05
0.000365038
2.16972e-05
0.00036077
2.15308e-05
0.000356524
2.13243e-05
0.000352306
2.11104e-05
0.000348105
2.09413e-05
0.000343913
2.08251e-05
0.000339726
2.07213e-05
0.00033555
2.05751e-05
0.000331391
2.04144e-05
0.000327242
2.02955e-05
0.000323096
2.01898e-05
0.000318947
2.01437e-05
0.000314786
2.00969e-05
0.000310632
1.99941e-05
0.000306486
1.98569e-05
0.000302349
1.97458e-05
0.000298211
1.96627e-05
0.000294069
1.96047e-05
0.000289955
1.94218e-05
0.00207653
0.00101986
0.00183639
0.00130973
0.00162219
0.00114171
0.00146173
0.000843814
0.00132886
0.000722162
0.00120705
0.000681614
0.00109794
0.000615777
0.0010043
0.000530803
0.000926013
0.000446067
0.000862008
0.000366499
0.000810701
0.000294885
0.000770063
0.000234397
0.000738003
0.000185735
0.000712633
0.000147761
0.000692311
0.000118927
0.000675731
9.75083e-05
0.000661921
8.16581e-05
0.000650138
7.00476e-05
0.000639838
6.14506e-05
0.000630636
5.50844e-05
0.000622258
5.02263e-05
0.000614507
4.65501e-05
0.000607232
4.3668e-05
0.000600323
4.14564e-05
0.000593698
3.96627e-05
0.000587308
3.82126e-05
0.000581109
3.69892e-05
0.000575061
3.59991e-05
0.000569132
3.51826e-05
0.000563301
3.44954e-05
0.000557551
3.38966e-05
0.000551864
3.33748e-05
0.000546228
3.2925e-05
0.000540656
3.2519e-05
0.000535143
3.21442e-05
0.000529671
3.18065e-05
0.000524237
3.14811e-05
0.000518844
3.11582e-05
0.000513487
3.08428e-05
0.000508167
3.05307e-05
0.000502884
3.02198e-05
0.000497638
2.99191e-05
0.000492427
2.96316e-05
0.000487258
2.93018e-05
0.000482132
2.8952e-05
0.000477035
2.87158e-05
0.000471966
2.84552e-05
0.000466948
2.8094e-05
0.000461971
2.77704e-05
0.000457018
2.75558e-05
0.00045209
2.73248e-05
0.000447204
2.70138e-05
0.000442356
2.6721e-05
0.000437528
2.65253e-05
0.000432715
2.63432e-05
0.000427936
2.61036e-05
0.000423182
2.58642e-05
0.000418449
2.56742e-05
0.000413725
2.55498e-05
0.000409002
2.5444e-05
0.000404297
2.528e-05
0.000399605
2.5106e-05
0.000394925
2.49761e-05
0.000390246
2.48687e-05
0.00038556
2.48295e-05
0.000380867
2.47904e-05
0.000376172
2.46894e-05
0.000371489
2.4539e-05
0.000366815
2.44206e-05
0.000362135
2.43424e-05
0.00035745
2.42902e-05
2.408e-05
0.00244172
0.00120983
0.00216334
0.00158811
0.00191076
0.00139429
0.00171905
0.00103552
0.00156087
0.000880339
0.0014171
0.00082539
0.0012886
0.000744275
0.00117822
0.000641185
0.00108588
0.000538411
0.00101037
0.000442005
0.000949865
0.000355391
0.000901969
0.000282293
0.000864213
0.00022349
0.000834352
0.000177622
0.000810466
0.000142812
0.000791021
0.000116954
0.000774854
9.78254e-05
0.000761091
8.38103e-05
0.0007491
7.34416e-05
0.000738414
6.57704e-05
0.000728714
5.99259e-05
0.000719758
5.55068e-05
0.000711373
5.20527e-05
0.000703431
4.93982e-05
0.000695835
4.72588e-05
0.000688511
4.55369e-05
0.000681421
4.40787e-05
0.000674512
4.29082e-05
0.000667747
4.19477e-05
0.000661099
4.11431e-05
0.000654547
4.04487e-05
0.000648073
3.98486e-05
0.000641665
3.9333e-05
0.00063533
3.88544e-05
0.000629062
3.84127e-05
0.000622846
3.80223e-05
0.000616677
3.765e-05
0.000610552
3.72826e-05
0.000604475
3.69205e-05
0.000598439
3.65667e-05
0.000592447
3.62114e-05
0.000586498
3.58683e-05
0.000580591
3.55388e-05
0.000574729
3.51632e-05
0.00056892
3.47607e-05
0.000563144
3.4492e-05
0.000557404
3.41957e-05
0.000551717
3.37807e-05
0.000546084
3.3403e-05
0.000540476
3.31645e-05
0.000534897
3.29034e-05
0.000529366
3.25449e-05
0.00052388
3.22073e-05
0.000518416
3.19895e-05
0.000512975
3.17838e-05
0.000507564
3.15145e-05
0.00050219
3.12382e-05
0.000496838
3.10268e-05
0.000491493
3.08946e-05
0.000486155
3.07821e-05
0.000480833
3.0602e-05
0.000475532
3.04067e-05
0.000470242
3.02659e-05
0.000464957
3.01542e-05
0.000459662
3.0124e-05
0.000454355
3.00979e-05
0.000449054
2.99901e-05
0.000443766
2.98267e-05
0.000438484
2.97032e-05
0.0004332
2.96262e-05
0.000427907
2.95833e-05
2.93368e-05
0.00286356
0.0013975
0.0025449
0.00190677
0.00224975
0.00168943
0.00202156
0.00126372
0.00183338
0.00106851
0.00166371
0.00099506
0.00151238
0.000895607
0.00138218
0.000771384
0.00127307
0.000647528
0.00118375
0.00053132
0.00111214
0.000427006
0.00105543
0.000338996
0.00101073
0.000268197
0.000975361
0.000212988
0.000947095
0.000171078
0.000924103
0.000139946
0.000905011
0.000116917
0.000888794
0.000100028
0.000874689
8.75468e-05
0.000862153
7.83059e-05
0.000850804
7.12745e-05
0.000840352
6.59591e-05
0.000830594
6.18111e-05
0.000821369
5.86227e-05
0.000812561
5.60671e-05
0.000804093
5.40051e-05
0.000795904
5.22672e-05
0.00078794
5.08726e-05
0.000780149
4.97386e-05
0.000772508
4.87844e-05
0.000764979
4.7977e-05
0.00075755
4.72783e-05
0.000750203
4.66793e-05
0.000742946
4.61118e-05
0.000735767
4.55912e-05
0.000728652
4.51381e-05
0.000721595
4.47067e-05
0.000714593
4.42842e-05
0.000707645
4.38693e-05
0.00070075
4.34617e-05
0.000693908
4.30527e-05
0.000687116
4.26601e-05
0.000680372
4.22836e-05
0.000673685
4.185e-05
0.000667062
4.13839e-05
0.000660475
4.10786e-05
0.000653929
4.07418e-05
0.000647452
4.02581e-05
0.000641029
3.98252e-05
0.000634641
3.95533e-05
0.000628289
3.92552e-05
0.000621989
3.88444e-05
0.000615745
3.84513e-05
0.000609529
3.82055e-05
0.000603336
3.79771e-05
0.000597184
3.7667e-05
0.000591068
3.73533e-05
0.000584983
3.71127e-05
0.00057891
3.69672e-05
0.000572841
3.6851e-05
0.000566794
3.66491e-05
0.000560771
3.64294e-05
0.000554763
3.62739e-05
0.000548763
3.61549e-05
0.000542751
3.61356e-05
0.000536727
3.61219e-05
0.000530712
3.60058e-05
0.000524711
3.58273e-05
0.000518726
3.56887e-05
0.000512734
3.56172e-05
0.000506735
3.55827e-05
3.52988e-05
0.00334695
0.00156125
0.00298864
0.00226509
0.00264811
0.00202996
0.00237786
0.00153397
0.00215425
0.00129212
0.00195407
0.00119525
0.00177586
0.00107382
0.0016222
0.000925041
0.00149309
0.000776644
0.00138716
0.000637241
0.0013021
0.000512068
0.00123468
0.000406415
0.00118149
0.000321389
0.0011394
0.000255082
0.00110574
0.000204738
0.00107838
0.0001673
0.00105568
0.000139616
0.00103643
0.000119285
0.00101971
0.00010426
0.00100489
9.31236e-05
0.000991506
8.46634e-05
0.000979214
7.82506e-05
0.000967762
7.32633e-05
0.000956963
6.94217e-05
0.000946672
6.63583e-05
0.000936805
6.38723e-05
0.000927277
6.17946e-05
0.000918024
6.01261e-05
0.000908991
5.87709e-05
0.000900139
5.76369e-05
0.000891437
5.66791e-05
0.000882853
5.58624e-05
0.000874382
5.51499e-05
0.000866017
5.44775e-05
0.000857743
5.38643e-05
0.000849553
5.33284e-05
0.000841433
5.28269e-05
0.00083338
5.23373e-05
0.000825394
5.18548e-05
0.000817474