/*--------------------------------*- C++ -*----------------------------------*\
| =========                 |                                                 |
| \\      /  F ield         | OpenFOAM: The Open Source CFD Toolbox           |
|  \\    /   O peration     | Version:  2412                                  |
|   \\  /    A nd           | Website:  www.openfoam.com                      |
|    \\/     M anipulation  |                                                 |
\*---------------------------------------------------------------------------*/
FoamFile
{
    version     2.0;
    format      ascii;
    arch        "LSB;label=32;scalar=64";
    class       volVectorField;
    location    "240";
    object      U;
}
// * * * * * * * * * * * * * * * * * * * * * * * * * * * * * * * * * * * * * //

dimensions      [0 1 -1 0 0 0 0];

internalField   nonuniform List<vector> 
7423
(
(0.75243 4.26806 -5.62674e-18)
(1.89564 4.12903 5.70774e-24)
(2.71121 3.42029 -2.82879e-23)
(2.98484 2.54865 6.088e-17)
(2.79044 1.75459 -2.66955e-23)
(2.45498 1.19281 -4.53616e-17)
(2.2398 0.866831 0)
(2.03344 0.637626 -3.45611e-17)
(1.7858 0.457583 -1.51671e-23)
(1.55391 0.326324 0)
(1.35546 0.232514 6.07145e-18)
(1.19016 0.165309 5.48362e-18)
(1.0567 0.116846 0)
(0.951792 0.0815563 -4.54902e-18)
(0.871823 0.0553883 4.1727e-18)
(0.810326 0.0353217 -1.01831e-24)
(0.762917 0.0194027 8.67663e-25)
(0.725896 0.00641238 4.11785e-19)
(0.696525 -0.00451918 -3.82993e-19)
(0.672577 -0.013924 -1.42879e-18)
(0.652441 -0.0221503 0)
(0.635089 -0.029452 0)
(0.619714 -0.0359692 -2.3523e-18)
(0.605846 -0.0418319 2.21407e-18)
(0.593092 -0.0471313 -1.99262e-24)
(0.581195 -0.0519278 9.58329e-25)
(0.569971 -0.0562659 -8.74614e-25)
(0.559289 -0.0602102 1.68812e-24)
(0.549055 -0.0637786 -3.35835e-18)
(0.539185 -0.06702 -3.192e-18)
(0.529631 -0.0699478 6.07555e-18)
(0.520349 -0.0725864 5.78902e-18)
(0.511307 -0.0749599 0)
(0.502489 -0.0770891 5.27359e-18)
(0.493898 -0.0789942 -1.18201e-24)
(0.485566 -0.0806927 4.82377e-18)
(0.477374 -0.0821954 0)
(0.469179 -0.0834761 4.42863e-18)
(0.461076 -0.0845763 -3.43409e-26)
(0.453107 -0.0855031 4.07935e-18)
(0.445281 -0.0862796 -7.83947e-18)
(0.437587 -0.0869124 3.76905e-18)
(0.430028 -0.0874075 -8.79739e-25)
(0.422604 -0.0877842 0)
(0.415308 -0.0880414 6.72853e-18)
(0.408139 -0.0881911 -1.54688e-24)
(0.401094 -0.0882421 9.38747e-25)
(0.394206 -0.0882047 6.03776e-18)
(0.387436 -0.0880882 1.16607e-17)
(0.380756 -0.0878787 6.83602e-25)
(0.374215 -0.0876092 -2.47242e-25)
(0.367817 -0.0872754 5.26261e-18)
(0.361518 -0.0868798 0)
(0.35531 -0.086419 -4.92531e-18)
(0.349218 -0.0859162 0)
(0.343252 -0.0853674 -4.61508e-18)
(0.337382 -0.0847733 8.93849e-18)
(0.331583 -0.0841368 -4.32883e-18)
(0.32588 -0.0834634 -4.19333e-18)
(0.320279 -0.0827617 4.06249e-18)
(0.314765 -0.082027 -3.93603e-18)
(0.309325 -0.0812628 3.81359e-18)
(0.303938 -0.0804715 0)
(0.298623 -0.0796493 -8.34784e-25)
(0.293394 -0.0788117 6.9322e-18)
(0.288229 -0.0779549 8.18433e-25)
(0.283123 -0.077079 0)
(0.278066 -0.0761796 -7.31281e-25)
(0.27305 -0.0752592 3.57168e-26)
(0.268086 -0.0743281 1.46776e-18)
(0.263197 -0.0733842 0)
(0.258368 -0.0724338 -1.36662e-18)
(0.2536 -0.0714738 6.45452e-25)
(0.248863 -0.0705009 0)
(0.244164 -0.0695138 1.21708e-18)
(0.239564 -0.0685366 1.16707e-18)
(2.26345 12.8257 4.54007e-23)
(5.76591 12.5379 -2.40564e-17)
(8.36152 10.5384 -5.2866e-17)
(9.32637 7.96369 -5.02774e-17)
(8.80984 5.54114 0)
(7.78773 3.7865 7.50769e-17)
(7.084 2.74273 3.2551e-23)
(6.45179 2.0236 1.02236e-22)
(5.66879 1.45326 -2.5022e-23)
(4.93151 1.03609 0)
(4.29904 0.737912 -9.30057e-24)
(3.77292 0.524306 1.73726e-23)
(3.34828 0.370492 -8.11679e-24)
(3.01098 0.258215 7.55295e-18)
(2.75932 0.175431 -6.92435e-18)
(2.56304 0.111804 -6.37905e-18)
(2.4115 0.0614266 -1.4405e-24)
(2.29182 0.0203015 -6.84002e-19)
(2.19887 -0.014229 5.55427e-25)
(2.12203 -0.0439031 1.18654e-18)
(2.0574 -0.0698127 2.21911e-18)
(2.00172 -0.0927956 -4.16011e-18)
(1.95241 -0.113302 7.81586e-18)
(1.90798 -0.131717 0)
(1.86716 -0.148356 1.62477e-24)
(1.82915 -0.163394 -1.59244e-24)
(1.79333 -0.17702 -6.20372e-18)
(1.75928 -0.189379 2.7557e-24)
(1.72669 -0.200565 5.58138e-18)
(1.69531 -0.210709 5.30513e-18)
(1.66497 -0.219872 1.00981e-17)
(1.63552 -0.228133 -9.62227e-18)
(1.60685 -0.235563 -7.46947e-26)
(1.57891 -0.242218 -8.76621e-18)
(1.5517 -0.248168 0)
(1.52533 -0.25348 -8.01905e-18)
(1.49947 -0.258166 0)
(1.47359 -0.262172 -7.36267e-18)
(1.44801 -0.265601 -7.06381e-18)
(1.42288 -0.268495 -6.78244e-18)
(1.39821 -0.270912 1.58076e-24)
(1.37396 -0.272884 -6.26681e-18)
(1.35014 -0.274426 2.92556e-24)
(1.32676 -0.275586 0)
(1.3038 -0.276386 -1.11884e-17)
(1.28123 -0.276841 2.61704e-24)
(1.25907 -0.276991 1.04041e-17)
(1.23739 -0.276866 -1.00403e-17)
(1.2161 -0.276482 -2.77639e-24)
(1.19509 -0.275827 2.27362e-24)
(1.17452 -0.274962 -1.81042e-17)
(1.15441 -0.273911 -8.75177e-18)
(1.13461 -0.272661 -8.46553e-18)
(1.1151 -0.271215 8.19106e-18)
(1.09597 -0.269624 -7.92799e-18)
(1.07722 -0.267901 7.67524e-18)
(1.05878 -0.266035 -7.43273e-18)
(1.04056 -0.264032 -7.19921e-18)
(1.02266 -0.261912 -6.97389e-18)
(1.00507 -0.259708 -1.35127e-17)
(0.987759 -0.257405 6.54609e-18)
(0.970677 -0.255004 0)
(0.953776 -0.252512 0)
(0.937099 -0.24994 0)
(0.920682 -0.247315 -5.76441e-18)
(0.904475 -0.24462 -1.30045e-24)
(0.888463 -0.24187 1.31809e-24)
(0.872604 -0.239054 1.21614e-24)
(0.856869 -0.236173 -1.23443e-24)
(0.8413 -0.233246 -1.38287e-24)
(0.825967 -0.230292 2.35631e-18)
(0.810821 -0.22731 4.54512e-18)
(0.795865 -0.2243 -1.07331e-24)
(0.781015 -0.221249 9.75196e-25)
(0.766289 -0.218159 -5.86251e-26)
(0.751875 -0.215092 -9.54654e-25)
(3.84202 21.7607 0)
(9.88212 21.4543 0)
(14.4888 18.2514 3.52034e-21)
(16.3432 13.9589 1.05647e-22)
(15.5924 9.81179 0)
(13.8637 6.74417 -8.35822e-17)
(12.595 4.87834 6.65957e-23)
(11.5236 3.61569 3.09023e-17)
(10.141 2.60091 0)
(8.82816 1.8556 2.47503e-17)
(7.69655 1.32178 -1.1172e-17)
(6.7544 0.939117 -1.01437e-17)
(5.99315 0.663537 1.76812e-23)
(5.3785 0.461563 -4.32897e-25)
(4.93466 0.313963 -7.62252e-24)
(4.58101 0.199986 3.58893e-18)
(4.30749 0.109875 7.74474e-25)
(4.0873 0.0363079 -8.44001e-25)
(3.92284 -0.0252942 8.74111e-26)
(3.78362 -0.0782091 1.2508e-24)
(3.66645 -0.124381 -2.50334e-18)
(3.5655 -0.165232 4.69414e-18)
(3.4762 -0.20168 -4.41059e-18)
(3.39577 -0.234392 4.15252e-18)
(3.322 -0.263897 3.66886e-24)
(3.25338 -0.29058 -3.59642e-24)
(3.18879 -0.31473 5.5313e-25)
(3.12747 -0.336625 0)
(3.06882 -0.356447 0)
(3.01242 -0.374388 0)
(2.95797 -0.390596 -2.28196e-17)
(2.90515 -0.405215 2.54909e-24)
(2.85379 -0.41834 1.03735e-17)
(2.80376 -0.430102 5.53013e-24)
(2.75507 -0.440599 -4.59508e-24)
(2.70789 -0.449987 -9.06459e-18)
(2.66171 -0.458252 0)
(2.61547 -0.465316 -3.90349e-24)
(2.56985 -0.471347 7.98703e-18)
(2.52505 -0.47646 -7.66937e-18)
(2.48109 -0.480718 0)
(2.43792 -0.484179 7.08705e-18)
(2.39553 -0.486896 0)
(2.35392 -0.488924 0)
(2.31307 -0.49032 0)
(2.27295 -0.491114 0)
(2.23354 -0.491356 1.17687e-17)
(2.19499 -0.491121 1.13577e-17)
(2.15714 -0.490417 -1.0968e-17)
(2.11981 -0.489246 1.05957e-17)
(2.08327 -0.487693 -2.05156e-24)
(2.04753 -0.485814 0)
(2.01238 -0.483583 5.49186e-25)
(1.97773 -0.481017 -7.11453e-25)
(1.94373 -0.478177 5.10362e-25)
(1.91046 -0.47511 -1.73692e-17)
(1.87771 -0.471798 -1.96679e-24)
(1.84538 -0.468233 8.14645e-18)
(1.8136 -0.464473 1.57834e-17)
(1.78239 -0.460552 7.64565e-18)
(1.75167 -0.456465 1.73012e-24)
(1.72136 -0.452207 -1.74734e-24)
(1.69137 -0.447781 0)
(1.66179 -0.443219 0)
(1.63266 -0.438557 1.52092e-24)
(1.60392 -0.433778 6.31655e-18)
(1.57552 -0.4289 2.91547e-24)
(1.5474 -0.42391 -1.44406e-24)
(1.5195 -0.418802 1.32989e-24)
(1.4919 -0.413609 -5.52533e-18)
(1.46471 -0.408375 1.04417e-24)
(1.43785 -0.403087 -2.57223e-18)
(1.41132 -0.397748 0)
(1.385 -0.392336 0)
(1.35891 -0.386866 -2.29064e-18)
(1.33336 -0.381429 -2.1965e-18)
(5.43162 30.748 9.12432e-23)
(14.0816 30.5508 -9.22477e-23)
(20.8586 26.2715 1.21577e-16)
(23.7715 20.3104 2.11765e-22)
(22.9335 14.4386 5.20551e-17)
(20.5611 10.0072 4.45177e-17)
(18.7009 7.24596 0)
(17.1693 5.38906 -3.13629e-17)
(15.1779 3.89442 0)
(13.256 2.78771 -2.61401e-17)
(11.5803 1.9898 -8.4772e-24)
(10.1763 1.41572 1.10131e-17)
(9.03612 1.00108 0)
(8.09354 0.694996 8.8791e-24)
(7.44061 0.473733 -8.6222e-18)
(6.90481 0.301696 3.7183e-24)
(6.48919 0.165724 -5.3412e-24)
(6.14474 0.0547231 1.69644e-24)
(5.90261 -0.0379399 -8.01694e-19)
(5.68984 -0.117494 1.4001e-24)
(5.51058 -0.186871 -2.80482e-18)
(5.35609 -0.248134 5.26364e-18)
(5.21953 -0.302749 0)
(5.09661 -0.351744 -4.66216e-18)
(4.98396 -0.395867 8.39797e-24)
(4.87933 -0.435763 -4.04165e-24)
(4.78098 -0.471838 1.26219e-24)
(4.68771 -0.504517 -3.50064e-24)
(4.59861 -0.534098 1.00933e-23)
(4.51305 -0.560852 6.74513e-18)
(4.43054 -0.58502 2.56881e-17)
(4.35059 -0.606793 5.74056e-24)
(4.27291 -0.62634 -1.16836e-17)
(4.19731 -0.643838 1.46745e-24)
(4.12373 -0.659454 5.17769e-24)
(4.05246 -0.673394 1.02159e-17)
(3.98275 -0.685667 0)
(3.91294 -0.696124 4.40234e-24)
(3.84426 -0.705065 -8.59536e-24)
(3.77694 -0.71266 8.65289e-18)
(3.71091 -0.718979 7.93328e-24)
(3.64611 -0.724105 -7.99798e-18)
(3.5825 -0.728126 3.60846e-24)
(3.52008 -0.731124 -3.59653e-24)
(3.45883 -0.733168 -1.4286e-17)
(3.39868 -0.734331 0)
(3.33961 -0.73466 -1.18843e-24)
(3.28184 -0.734281 -3.0048e-24)
(3.22512 -0.733202 1.23869e-17)
(3.16922 -0.731419 -1.19676e-17)
(3.11448 -0.729086 1.15679e-17)
(3.06096 -0.726253 -2.61877e-24)
(3.00832 -0.722895 1.08208e-17)
(2.95645 -0.719044 -1.04711e-17)
(2.90557 -0.714781 1.01359e-17)
(2.85576 -0.710179 9.81368e-18)
(2.80675 -0.705214 4.62052e-24)
(2.75839 -0.699874 0)
(2.71083 -0.694249 -8.91955e-18)
(2.66414 -0.688371 0)
(2.61819 -0.682252 8.37377e-18)
(2.57285 -0.675884 0)
(2.52801 -0.669262 3.66901e-24)
(2.48375 -0.662434 -3.71102e-24)
(2.44021 -0.655454 0)
(2.39723 -0.648316 -1.42839e-17)
(2.35477 -0.641018 3.21959e-24)
(2.31274 -0.633558 6.68801e-18)
(2.27103 -0.625918 0)
(2.22976 -0.618157 3.12422e-18)
(2.18911 -0.610333 -6.0323e-18)
(2.14896 -0.602423 2.9091e-18)
(2.10931 -0.594444 2.59794e-24)
(2.06996 -0.586353 -2.69683e-18)
(2.03097 -0.578179 2.5909e-18)
(1.99279 -0.570055 2.48451e-18)
(6.9396 39.2597 0)
(18.0497 39.1491 0)
(26.8783 33.854 -5.57908e-17)
(30.8633 26.3787 5.08437e-17)
(30.211 19.0303 -4.71336e-17)
(27.4168 13.3515 -4.16856e-17)
(25.065 9.716 0)
(23.0002 7.22233 2.8841e-17)
(20.5085 5.26472 -2.70601e-17)
(18.0463 3.79713 -2.54822e-17)
(15.8564 2.72612 1.44369e-22)
(13.9941 1.94804 -2.22346e-23)
(12.4631 1.38168 0)
(11.1674 0.959598 -9.75495e-24)
(10.2912 0.65574 4.35034e-23)
(9.55384 0.417821 -4.30419e-18)
(8.97886 0.229595 1.87373e-24)
(8.48677 0.0758084 -2.11408e-24)
(8.16238 -0.0523002 8.77728e-19)
(7.86495 -0.162282 0)
(7.61391 -0.258054 1.77444e-24)
(7.39733 -0.342603 -5.80568e-18)
(7.20585 -0.417879 5.46825e-18)
(7.03352 -0.485335 -5.15918e-18)
(6.87568 -0.546073 0)
(6.72921 -0.600888 0)
(6.59165 -0.650491 -4.63291e-24)
(6.46133 -0.695353 8.06452e-24)
(6.33696 -0.735941 7.39941e-24)
(6.21769 -0.77264 -7.51179e-18)
(6.10277 -0.805783 -1.43148e-17)
(5.99153 -0.835609 1.36549e-17)
(5.88354 -0.862396 6.32652e-24)
(5.77848 -0.886339 1.24645e-17)
(5.67625 -0.907692 0)
(5.5772 -0.926718 -1.14216e-17)
(5.48015 -0.943423 0)
(5.38304 -0.957616 4.93264e-24)
(5.28796 -0.969822 -1.01019e-17)
(5.19499 -0.980192 -1.09163e-23)
(5.10389 -0.988828 9.05316e-24)
(5.01453 -0.995839 -8.97701e-18)
(4.92684 -1.00133 -1.64883e-23)
(4.84081 -1.00541 8.0783e-24)
(4.75641 -1.00819 1.60486e-17)
(4.67356 -1.00976 1.54778e-17)
(4.59221 -1.01018 -2.98718e-17)
(4.51265 -1.00963 -6.75626e-24)
(4.43457 -1.00813 -1.39293e-17)
(4.35762 -1.00566 -1.34608e-17)
(4.28229 -1.00243 6.31922e-24)
(4.20862 -0.998527 5.89364e-24)
(4.13618 -0.993893 -5.91545e-24)
(4.06483 -0.988582 -1.17876e-17)
(3.99482 -0.982716 -5.34025e-24)
(3.92628 -0.976381 5.37155e-24)
(3.85887 -0.969537 -1.07055e-17)
(3.79236 -0.962194 -1.93996e-25)
(3.72696 -0.954453 1.005e-17)
(3.66274 -0.946372 -4.73854e-24)
(3.59954 -0.937951 -9.43802e-18)
(3.5372 -0.929194 -9.14646e-18)
(3.47554 -0.920085 4.31708e-24)
(3.4147 -0.910699 0)
(3.35481 -0.901101 0)
(3.29572 -0.891282 1.29383e-24)
(3.23735 -0.881249 -3.6318e-24)
(3.17957 -0.870994 -7.54522e-18)
(3.12223 -0.860499 -3.39367e-24)
(3.0655 -0.849822 3.4478e-24)
(3.00961 -0.839067 3.40392e-18)
(2.9544 -0.828188 -6.66303e-24)
(2.89989 -0.817221 6.03452e-24)
(2.84579 -0.806097 3.04448e-18)
(2.7922 -0.794861 2.9252e-18)
(2.73971 -0.783689 0)
(8.28756 46.8432 0)
(21.4998 46.6205 0)
(31.9473 40.2384 1.7827e-22)
(36.7322 31.4031 -4.005e-17)
(36.34 22.9013 -1.26214e-23)
(33.4274 16.2872 3.27205e-17)
(30.8873 11.9787 0)
(28.3876 8.91814 0)
(25.6 6.57521 2.3212e-17)
(22.781 4.7962 2.25365e-17)
(20.2157 3.47784 8.34523e-23)
(17.9883 2.50581 2.21345e-23)
(16.1226 1.7887 -1.02208e-17)
(14.5333 1.24983 -1.09333e-17)
(13.4164 0.855578 4.62997e-23)
(12.48 0.546354 4.39292e-18)
(11.7434 0.300741 -8.10222e-24)
(11.1022 0.0994908 0)
(10.6867 -0.0682301 9.21096e-19)
(10.2987 -0.212276 0)
(9.97008 -0.337744 3.27505e-18)
(9.68584 -0.448457 -6.02021e-24)
(9.43416 -0.546975 -5.8473e-18)
(9.20741 -0.635221 5.53487e-18)
(8.99962 -0.71465 -1.04917e-17)
(8.80674 -0.78632 0)
(8.62563 -0.85111 1.89207e-17)
(8.45408 -0.909732 8.99984e-18)
(8.29037 -0.962727 0)
(8.13347 -1.01063 -8.17306e-18)
(7.98237 -1.05389 0)
(7.83614 -1.09281 -1.49079e-17)
(7.69423 -1.12774 1.33716e-23)
(7.55621 -1.15897 -1.32442e-23)
(7.42187 -1.18677 0)
(7.29148 -1.21151 4.33175e-24)
(7.1631 -1.2331 0)
(7.03514 -1.25147 1.08921e-23)
(6.91057 -1.26736 2.23422e-17)
(6.78904 -1.28091 -3.6356e-24)
(6.67005 -1.29221 9.69352e-24)
(6.55337 -1.30139 1.99044e-17)
(6.4389 -1.30859 0)
(6.32661 -1.31396 -8.66451e-24)
(6.21644 -1.31763 -1.78282e-17)
(6.10832 -1.3197 -1.72049e-17)
(6.00215 -1.3203 1.66127e-17)
(5.89831 -1.31961 -1.60475e-17)
(5.79642 -1.31769 2.62854e-25)
(5.69601 -1.31451 1.49974e-17)
(5.5977 -1.31032 0)
(5.50156 -1.30524 -1.4038e-17)
(5.40704 -1.29923 -6.60082e-24)
(5.31393 -1.29233 2.65792e-24)
(5.22256 -1.2847 -5.96452e-24)
(5.13309 -1.27645 6.00217e-24)
(5.04511 -1.26754 2.39349e-17)
(4.95832 -1.25798 5.6404e-24)
(4.87295 -1.2479 -1.12438e-17)
(4.78911 -1.23737 0)
(4.70661 -1.22639 1.05672e-17)
(4.62523 -1.21497 1.02445e-17)
(4.54475 -1.2031 -9.93075e-18)
(4.46531 -1.19086 0)
(4.38711 -1.17835 4.34856e-24)
(4.30995 -1.16553 9.03453e-18)
(4.23373 -1.15244 -8.34399e-24)
(4.15828 -1.13906 4.13479e-24)
(4.08341 -1.12537 -3.80965e-24)
(4.00931 -1.11143 3.87152e-24)
(3.9363 -1.09738 3.55072e-24)
(3.86417 -1.08318 -3.68899e-18)
(3.79293 -1.06885 0)
(3.72224 -1.05432 -3.42224e-18)
(3.65224 -1.03965 -6.57791e-18)
(3.58363 -1.02506 -3.15491e-18)
(9.45374 53.3711 1.89603e-22)
(24.3979 52.8911 3.79397e-23)
(36.0567 45.4147 -1.37269e-22)
(41.3442 35.3548 0)
(41.0481 25.8791 2.71669e-17)
(38.059 18.5531 2.39271e-17)
(35.4617 13.759 2.27285e-17)
(32.8253 10.3171 7.01585e-23)
(29.9218 7.68954 1.85206e-17)
(26.95 5.67759 0)
(24.2014 4.16649 2.04261e-22)
(21.7703 3.03499 -3.57573e-23)
(19.6953 2.1869 1.79864e-17)
(17.9673 1.54654 6.8326e-23)
(16.6083 1.06019 8.58997e-18)
(15.5135 0.679955 -4.13888e-18)
(14.6423 0.37559 0)
(13.9012 0.125052 -4.94312e-25)
(13.3748 -0.0850338 -3.21997e-24)
(12.9034 -0.265651 0)
(12.5022 -0.423268 3.26923e-18)
(12.1535 -0.562489 1.18695e-23)
(11.8437 -0.686483 5.91452e-18)
(11.5638 -0.797629 0)
(11.3067 -0.8977 1.07251e-17)
(11.0676 -0.988055 -1.02249e-17)
(10.8428 -1.06976 -9.75672e-18)
(10.6296 -1.14372 -9.31855e-18)
(10.426 -1.21061 0)
(10.2306 -1.27112 8.52353e-18)
(10.0423 -1.32576 0)
(9.85999 -1.37496 0)
(9.68295 -1.41913 0)
(9.51062 -1.45865 1.44102e-17)
(9.34273 -1.49385 0)
(9.17923 -1.5251 1.33127e-17)
(9.01737 -1.55222 0)
(8.85717 -1.57551 1.24563e-17)
(8.7017 -1.59577 -2.40347e-17)
(8.55007 -1.6131 -3.47418e-17)
(8.40158 -1.6276 0)
(8.25595 -1.63943 1.00912e-23)
(8.11305 -1.64877 -1.98099e-23)
(7.97282 -1.6558 1.9123e-23)
(7.83521 -1.66067 1.93616e-17)
(7.70011 -1.66355 0)
(7.56742 -1.66456 1.8089e-17)
(7.43758 -1.66393 7.70978e-24)
(7.31016 -1.66174 -1.69307e-17)
(7.18457 -1.65797 1.63894e-17)
(7.06153 -1.65292 0)
(6.94116 -1.64674 1.53748e-17)
(6.82281 -1.63937 1.48997e-17)
(6.7062 -1.63088 5.62887e-24)
(6.59171 -1.62145 1.40032e-17)
(6.47957 -1.61122 2.59062e-23)
(6.36928 -1.60018 -1.76501e-23)
(6.26044 -1.5883 0)
(6.15335 -1.57574 -1.15894e-23)
(6.04814 -1.56261 -1.20282e-17)
(5.9446 -1.54892 -4.00689e-24)
(5.84244 -1.53467 0)
(5.74139 -1.51983 1.09847e-17)
(5.6416 -1.50452 9.94036e-24)
(5.54334 -1.48885 -1.00734e-23)
(5.44636 -1.4728 0)
(5.35053 -1.45639 9.0398e-24)
(5.25567 -1.43962 -1.79293e-23)
(5.16152 -1.42244 -4.54911e-18)
(5.06829 -1.40495 8.17941e-24)
(4.97639 -1.38729 4.25206e-18)
(4.88557 -1.36945 -1.56604e-23)
(4.79585 -1.35142 7.76296e-24)
(4.70682 -1.33315 3.81267e-18)
(4.61865 -1.3147 7.33235e-18)
(4.53218 -1.29632 3.51862e-18)
(10.4565 58.9485 3.114e-23)
(26.8527 58.1998 3.48264e-22)
(39.4788 49.7296 1.97887e-23)
(45.1133 38.5902 -1.98453e-22)
(44.7979 28.2569 -4.31634e-17)
(41.6531 20.3159 -1.82979e-17)
(38.9338 15.1134 -1.68718e-17)
(36.2691 11.4053 -1.49749e-17)
(33.3015 8.56324 -1.43795e-17)
(30.2685 6.38112 -5.2197e-23)
(27.4609 4.73131 1.41715e-17)
(24.9654 3.48336 2.82329e-23)
(22.8155 2.53566 -9.40717e-23)
(21.0668 1.81515 9.31804e-23)
(19.5575 1.24987 -7.24054e-18)
(18.376 0.806482 7.12165e-18)
(17.4251 0.447786 3.55126e-24)
(16.6617 0.15053 3.27569e-24)
(16.0211 -0.101324 -8.15829e-19)
(15.491 -0.318511 -1.56971e-18)
(15.0369 -0.508731 -3.01654e-18)
(14.64 -0.677259 5.79008e-18)
(14.2855 -0.827744 -5.55357e-18)
(13.9636 -0.962928 5.32589e-18)
(13.667 -1.08489 0)
(13.3901 -1.1952 1.96052e-17)
(13.129 -1.29515 9.40978e-18)
(12.8807 -1.38576 -1.7554e-23)
(12.6429 -1.46788 0)
(12.4143 -1.54229 -8.35319e-18)
(12.1935 -1.60962 -1.60765e-17)
(11.9793 -1.67037 -1.54806e-17)
(11.7709 -1.72502 0)
(11.5677 -1.77403 -1.43826e-17)
(11.3693 -1.81777 1.3013e-23)
(11.1753 -1.85663 -1.30005e-23)
(10.9833 -1.89052 0)
(10.7945 -1.92002 -1.27143e-17)
(10.6105 -1.94572 1.23201e-17)
(10.4304 -1.96776 2.38246e-17)
(10.2538 -1.98633 -1.15151e-17)
(10.0804 -2.00162 2.16071e-23)
(9.91003 -2.01387 -2.15438e-17)
(9.74271 -2.02327 2.08517e-17)
(9.57837 -2.03005 2.01909e-17)
(9.41687 -2.03436 0)
(9.25811 -2.03636 -3.79118e-17)
(9.1026 -2.03635 1.335e-23)
(8.94986 -2.0344 3.56467e-17)
(8.79922 -2.0305 -1.72912e-17)
(8.65147 -2.025 -1.67806e-17)
(8.50679 -2.0181 0)
(8.36446 -2.00972 -9.81864e-24)
(8.22411 -1.99994 1.53611e-17)
(8.08619 -1.98899 -2.98434e-17)
(7.95097 -1.97704 -1.44966e-17)
(7.8179 -1.96405 -2.81724e-17)
(7.68652 -1.95003 -1.36887e-17)
(7.55712 -1.93515 1.33028e-17)
(7.4299 -1.91954 2.58556e-17)
(7.3046 -1.90321 -1.25632e-17)
(7.18092 -1.88618 1.22078e-17)
(7.0585 -1.86842 -1.18608e-17)
(6.93751 -1.85005 -1.07489e-23)
(6.81829 -1.83121 4.75437e-25)
(6.70055 -1.81189 -1.08602e-17)
(6.58415 -1.79211 0)
(6.46885 -1.77186 -1.02196e-17)
(6.35435 -1.75109 1.20377e-23)
(6.24089 -1.72993 -4.79618e-18)
(6.12894 -1.70853 -4.6406e-18)
(6.01826 -1.68687 0)
(5.90884 -1.66498 0)
(5.80022 -1.64277 0)
(5.69263 -1.62034 -9.97479e-24)
(5.587 -1.59796 3.86197e-18)
(11.3237 63.7354 0)
(28.98 62.7966 2.09102e-17)
(42.4481 53.4805 0)
(48.3706 41.3935 0)
(47.9896 30.2876 1.84852e-17)
(44.6365 21.7846 0)
(41.728 16.207 0)
(38.9883 12.2676 2.42572e-17)
(35.9311 9.24571 4.19131e-23)
(32.8274 6.92598 -1.09763e-17)
(29.9757 5.16901 -5.42794e-18)
(27.4565 3.8345 0)
(25.2925 2.81371 -5.53727e-18)
(23.5338 2.02991 1.25894e-22)
(22.0068 1.40811 5.65986e-18)
(20.8058 0.914421 -3.09294e-23)
(19.833 0.51067 -1.4026e-18)
(19.0762 0.173158 7.54238e-19)
(18.3822 -0.115595 6.77014e-19)
(17.8274 -0.36601 1.31888e-18)
(17.3495 -0.586518 2.56295e-18)
(16.9292 -0.782779 -4.96944e-18)
(16.5517 -0.958726 0)
(16.2073 -1.11735 -9.30509e-18)
(15.8883 -1.26094 0)
(15.5893 -1.39125 -2.84614e-23)
(15.3063 -1.50969 -2.5399e-23)
(15.0361 -1.61744 0)
(14.7765 -1.7154 0)
(14.5261 -1.80446 7.60019e-18)
(14.2836 -1.88534 2.94221e-17)
(14.0477 -1.9586 2.84883e-17)
(13.8175 -2.02478 0)
(13.5924 -2.08437 -2.50861e-23)
(13.3721 -2.13782 2.5163e-23)
(13.1559 -2.18551 1.2589e-17)
(12.9431 -2.22772 0)
(12.7345 -2.26495 1.20882e-17)
(12.5292 -2.29743 0)
(12.3271 -2.32545 -1.14341e-17)
(12.1282 -2.3493 1.11017e-17)
(11.9325 -2.36927 -1.07808e-17)
(11.7399 -2.38561 8.61599e-24)
(11.5504 -2.39857 -2.03547e-17)
(11.364 -2.40838 -1.97875e-17)
(11.1805 -2.41524 -1.9242e-17)
(10.9998 -2.41933 3.74366e-17)
(10.8224 -2.42098 1.82124e-17)
(10.648 -2.42029 -3.5454e-17)
(10.4757 -2.41726 0)
(10.3064 -2.41226 3.36093e-17)
(10.1404 -2.40553 1.63657e-17)
(9.97684 -2.39702 -1.31625e-24)
(9.81534 -2.38679 -1.50917e-23)
(9.65637 -2.37511 2.8423e-23)
(9.50028 -2.36218 1.35319e-23)
(9.34647 -2.34797 1.27443e-23)
(9.19443 -2.33248 2.80118e-17)
(9.04447 -2.31591 -2.72981e-17)
(8.89681 -2.29842 -1.33005e-17)
(8.75121 -2.28003 1.21071e-23)
(8.60732 -2.26075 -1.26261e-17)
(8.46473 -2.24057 2.45968e-17)
(8.32362 -2.21959 1.11734e-23)
(8.18437 -2.19801 -1.13668e-23)
(8.04671 -2.1758 1.13439e-17)
(7.91043 -2.15301 -1.07686e-23)
(7.77532 -2.12961 2.14487e-17)
(7.64101 -2.10557 5.2088e-18)
(7.50773 -2.08099 4.57595e-24)
(7.37603 -2.05607 0)
(7.24569 -2.03082 0)
(7.11669 -2.00523 -8.51684e-24)
(6.98851 -1.97923 8.71278e-24)
(6.86146 -1.95293 -4.28126e-18)
(6.73654 -1.92664 -8.24272e-18)
(30.8641 66.8516 -2.19674e-17)
(45.1164 56.8562 3.1052e-17)
(51.3195 43.9391 0)
(50.8642 32.1238 2.42386e-22)
(47.2804 23.0916 1.33567e-17)
(44.1422 17.1558 -9.27669e-23)
(41.2673 12.9935 -1.03344e-17)
(38.0877 9.80837 0)
(34.8815 7.36596 8.89548e-18)
(31.9563 5.51591 0)
(29.3927 4.10918 -4.24057e-18)
(27.2066 3.02999 3.33603e-23)
(25.4194 2.19517 4.39357e-18)
(23.9152 1.53227 -1.6867e-23)
(22.7191 1.00006 -2.16003e-18)
(21.7518 0.561251 1.0786e-18)
(20.9923 0.191507 -5.59992e-19)
(20.3085 -0.126915 -5.29479e-19)
(19.7548 -0.404956 0)
(19.2764 -0.651129 -4.08187e-18)
(18.8542 -0.871325 -7.46773e-24)
(18.4736 -1.06964 -3.89373e-18)
(18.1249 -1.24919 3.79421e-18)
(17.8007 -1.41238 0)
(17.4957 -1.56108 -7.18834e-18)
(17.2059 -1.69678 -3.078e-23)
(16.9283 -1.82072 0)
(16.6607 -1.93388 -6.61549e-18)
(16.4018 -2.03723 0)
(16.1503 -2.1315 -2.50508e-17)
(15.9048 -2.21731 -2.43839e-17)
(15.6647 -2.29525 -2.22668e-23)
(15.4292 -2.36584 4.41325e-23)
(15.198 -2.42954 -4.30028e-23)
(14.9705 -2.48679 -1.09919e-17)
(14.7477 -2.53813 2.02573e-23)
(14.5289 -2.58392 -1.06145e-17)
(14.312 -2.62417 -2.01423e-23)
(14.0976 -2.65927 3.0399e-17)
(13.8859 -2.6896 -1.85439e-23)
(13.677 -2.71549 1.92992e-17)
(13.4711 -2.73722 1.88397e-17)
(13.268 -2.75507 -1.83963e-17)
(13.0677 -2.76928 -1.79685e-17)
(12.8701 -2.78009 3.51097e-17)
(12.6751 -2.78767 -1.71557e-17)
(12.4834 -2.79239 0)
(12.2944 -2.79438 3.27871e-17)
(12.1074 -2.79363 3.00328e-23)
(11.9232 -2.79054 -1.56768e-17)
(11.7422 -2.78538 -1.53325e-17)
(11.5636 -2.77811 -1.49988e-17)
(11.3868 -2.76879 0)
(11.2125 -2.75773 1.43557e-17)
(11.0409 -2.74512 1.40449e-17)
(10.8716 -2.73098 1.37412e-17)
(10.7039 -2.71529 -1.34439e-17)
(10.5382 -2.69827 2.63038e-17)
(10.3747 -2.6801 -2.40451e-23)
(10.2132 -2.6608 1.25822e-17)
(10.0533 -2.64041 -2.39611e-23)
(9.89455 -2.6189 -1.20276e-17)
(9.73716 -2.5964 0)
(9.58156 -2.57311 1.14829e-17)
(9.42745 -2.54903 0)
(9.27463 -2.52418 0)
(9.12287 -2.49857 -1.06732e-17)
(8.97175 -2.47214 -2.03324e-23)
(8.8215 -2.445 5.06533e-18)
(8.67274 -2.4174 4.9279e-18)
(8.52527 -2.38932 0)
(8.37906 -2.36079 0)
(8.23356 -2.3317 0)
(8.08913 -2.30222 0)
(7.94689 -2.27266 6.63088e-24)
(47.5769 59.9656 -4.71362e-20)
(54.0817 46.3313 -2.15744e-17)
(53.5642 33.8559 -1.61217e-17)
(49.7449 24.3157 -1.24463e-17)
(46.3544 18.0293 0)
(43.3041 13.6455 0)
(39.9796 10.305 0)
(36.6477 7.74689 0)
(33.6215 5.80982 0)
(30.9852 4.337 3.46143e-18)
(28.7512 3.20605 -3.39627e-18)
(26.9207 2.32795 0)
(25.4178 1.63098 0)
(24.2179 1.06788 1.67347e-18)
(23.2524 0.601362 -3.40275e-24)
(22.4834 0.206221 -4.20924e-19)
(21.8209 -0.13545 3.05919e-24)
(21.2742 -0.435366 -3.14683e-24)
(20.8025 -0.702063 1.5307e-23)
(20.3862 -0.941596 0)
(20.0107 -1.15818 6.1089e-18)
(19.6664 -1.35501 -2.98894e-18)
(19.3457 -1.53459 -1.13617e-23)
(19.0435 -1.69883 0)
(18.7557 -1.84929 -5.57761e-18)
(18.4794 -1.98724 0)
(18.2125 -2.11372 5.31925e-18)
(17.9538 -2.22972 5.19492e-18)
(17.7018 -2.33601 1.00313e-23)
(17.4555 -2.43324 9.91542e-18)
(17.214 -2.52201 -1.81757e-23)
(16.9767 -2.60288 1.83849e-23)
(16.7432 -2.67632 -9.26534e-18)
(16.5129 -2.74277 9.06766e-18)
(16.2869 -2.80282 0)
(16.0648 -2.85685 3.28708e-23)
(15.8443 -2.9049 -3.33488e-23)
(15.6259 -2.94736 -1.68404e-17)
(15.41 -2.98462 0)
(15.1966 -3.01699 -8.08432e-18)
(14.9858 -3.0448 1.58489e-17)
(14.7775 -3.06833 3.108e-17)
(14.5717 -3.08783 1.52414e-17)
(14.3683 -3.10354 -1.49521e-17)
(14.1673 -3.11567 9.8167e-25)
(13.9692 -3.12458 5.49473e-23)
(13.7737 -3.13042 -1.41369e-17)
(13.5798 -3.13318 0)
(13.3884 -3.13329 1.36308e-17)
(13.2001 -3.13104 -9.32277e-25)
(13.0138 -3.12636 -1.31491e-17)
(12.8292 -3.11936 1.29166e-17)
(12.6468 -3.11033 -2.3751e-23)
(12.467 -3.09951 2.42354e-23)
(12.2891 -3.08689 -1.22464e-17)
(12.1126 -3.07248 -1.20306e-17)
(11.9379 -3.05649 -1.18177e-17)
(11.7652 -3.03913 1.16071e-17)
(11.5942 -3.02043 -2.27972e-17)
(11.4246 -3.00042 2.09018e-23)
(11.256 -2.97908 -2.14028e-23)
(11.0884 -2.95654 -2.01146e-23)
(10.9224 -2.93301 -1.05738e-17)
(10.7576 -2.90852 -3.95514e-23)
(10.5939 -2.88307 9.0542e-25)
(10.4311 -2.85669 1.94324e-23)
(10.2685 -2.8293 -4.86809e-18)
(10.1066 -2.80102 -4.76e-18)
(9.94594 -2.77212 -4.6498e-18)
(9.78633 -2.74258 4.53706e-18)
(9.62776 -2.71243 0)
(9.46962 -2.68158 0)
(9.31235 -2.65018 -4.17949e-18)
(9.1572 -2.61861 4.05225e-18)
(56.7297 48.6325 2.21621e-17)
(56.1763 35.5394 3.20392e-17)
(52.128 25.5052 -1.96511e-22)
(48.4729 18.8699 0)
(45.2224 14.2629 0)
(41.7389 10.7697 -5.60314e-23)
(38.2671 8.09878 -6.84198e-18)
(35.1218 6.07685 4.99014e-23)
(32.3917 4.54009 2.98305e-18)
(30.0882 3.35999 2.87102e-18)
(28.2014 2.44245 0)
(26.6726 1.71438 2.75125e-18)
(25.4523 1.1245 -3.38486e-23)
(24.4751 0.634653 0)
(23.6915 0.218613 3.32699e-19)
(23.0361 -0.141929 2.43648e-24)
(22.4903 -0.459399 -2.50072e-24)
(22.0208 -0.74246 1.26045e-18)
(21.6077 -0.997398 1.88846e-23)
(21.2357 -1.22853 -2.42338e-18)
(20.8949 -1.43917 2.37265e-18)
(20.5777 -1.63188 0)
(20.2789 -1.80863 1.70196e-23)
(19.9942 -1.97103 -4.44093e-18)
(19.7209 -2.12039 1.68684e-23)
(19.4566 -2.25776 -4.2464e-18)
(19.2002 -2.38419 -8.30625e-18)
(18.9504 -2.50046 8.12543e-18)
(18.7059 -2.60724 -2.98232e-23)
(18.466 -2.70515 3.02067e-23)
(18.23 -2.79477 0)
(17.9976 -2.87656 7.46471e-18)
(17.7681 -2.95099 -7.31541e-18)
(17.542 -3.01854 0)
(17.3196 -3.07975 -2.64783e-23)
(17.0993 -3.13474 8.9625e-25)
(16.8811 -3.18386 -6.80237e-18)
(16.6652 -3.22748 -8.67691e-25)
(16.4517 -3.26593 6.55912e-18)
(16.2406 -3.29951 -2.57762e-17)
(16.0318 -3.32853 -1.26662e-17)
(15.8253 -3.35325 0)
(15.6211 -3.3739 1.22455e-17)
(15.419 -3.39072 -2.25791e-23)
(15.2197 -3.40406 -1.18527e-17)
(15.0227 -3.41409 0)
(14.8272 -3.42079 0)
(14.6342 -3.42462 -1.13088e-17)
(14.4439 -3.42586 -1.11369e-17)
(14.2555 -3.42445 1.09701e-17)
(14.0686 -3.42051 -3.29234e-23)
(13.8837 -3.41433 0)
(13.7012 -3.40616 1.04915e-17)
(13.5205 -3.396 3.00764e-23)
(13.341 -3.38385 1.01872e-17)
(13.163 -3.36995 -1.00384e-17)
(12.9868 -3.3545 -1.97823e-17)
(12.8122 -3.33753 2.66024e-23)
(12.6388 -3.31909 -1.86955e-23)
(12.466 -3.29914 -9.45427e-18)
(12.2941 -3.27783 3.47409e-23)
(12.1236 -3.25539 -3.57373e-23)
(11.9541 -3.23181 -9.0158e-18)
(11.7855 -3.20714 0)
(11.6174 -3.18137 0)
(11.4494 -3.15444 4.27998e-18)
(11.2817 -3.12648 4.20084e-18)
(11.115 -3.09775 -3.06052e-23)
(10.9491 -3.06823 1.90857e-23)
(10.784 -3.03797 0)
(10.6191 -3.00685 0)
(10.4547 -2.97505 1.2798e-23)
(10.2924 -2.94301 0)
(59.302 50.8758 2.35297e-17)
(58.7535 37.2086 -3.28149e-17)
(54.4927 26.6917 -1.75413e-22)
(50.5674 19.7053 2.99764e-22)
(47.0999 14.8705 -2.5476e-22)
(43.4475 11.2239 -7.23214e-18)
(39.8272 8.44028 6.39345e-18)
(36.5506 6.33333 0)
(33.7119 4.73251 -2.69133e-18)
(31.3227 3.50362 0)
(29.3677 2.54792 0)
(27.7933 1.78982 -2.37286e-18)
(26.538 1.17507 -2.31503e-18)
(25.5361 0.664162 -5.6644e-19)
(24.7314 0.229768 -4.34258e-24)
(24.0681 -0.14704 0)
(23.5146 -0.479312 5.32826e-19)
(23.0401 -0.775983 0)
(22.6238 -1.04358 2.04085e-18)
(22.2499 -1.28658 1.99532e-18)
(21.9082 -1.5084 -1.95006e-18)
(21.5907 -1.7117 1.48159e-23)
(21.292 -1.89851 0)
(21.0077 -2.07049 3.56253e-23)
(20.735 -2.22901 0)
(20.4714 -2.37513 3.05166e-23)
(20.2158 -2.50992 3.39485e-18)
(19.9668 -2.63421 0)
(19.7231 -2.74868 0)
(19.484 -2.85395 -2.38396e-23)
(19.2489 -2.95063 2.41467e-23)
(19.0172 -3.0392 2.28598e-23)
(18.7883 -3.12011 -7.71308e-25)
(18.5624 -3.19382 -2.27191e-23)
(18.34 -3.26091 0)
(18.1202 -3.3216 0)
(17.9026 -3.37623 5.53597e-18)
(17.6874 -3.42515 0)
(17.4744 -3.46868 5.34096e-18)
(17.2638 -3.50713 2.09975e-17)
(17.0555 -3.54081 3.87105e-23)
(16.8495 -3.57001 -3.94142e-23)
(16.6457 -3.59494 -9.99067e-18)
(16.444 -3.61586 -7.50493e-23)
(16.2451 -3.63313 8.15945e-23)
(16.0484 -3.64691 3.57467e-23)
(15.8531 -3.6572 -1.28566e-24)
(15.6602 -3.66446 -9.26209e-18)
(15.47 -3.66899 1.82607e-17)
(15.2817 -3.6707 -3.37172e-23)
(15.0948 -3.66975 -8.8788e-18)
(14.9098 -3.66642 3.27873e-23)
(14.7271 -3.66097 -8.64097e-18)
(14.5462 -3.65339 -3.1968e-23)
(14.3664 -3.6437 3.27289e-23)
(14.1881 -3.63214 6.29064e-23)
(14.0114 -3.61891 -3.1283e-23)
(13.8363 -3.60406 1.61723e-17)
(13.6622 -3.58761 -3.10791e-23)
(13.4887 -3.56955 6.06827e-25)
(13.316 -3.55003 1.29205e-24)
(13.1445 -3.52927 -7.65958e-18)
(12.974 -3.50728 7.5521e-18)
(12.8041 -3.48409 0)
(12.6347 -3.45971 -7.33207e-18)
(12.4652 -3.43406 2.82178e-23)
(12.2959 -3.40729 0)
(12.1275 -3.37966 0)
(11.9597 -3.35115 -3.42905e-18)
(11.7925 -3.32179 -2.49464e-23)
(11.6253 -3.29149 2.58815e-23)
(11.4584 -3.26039 3.22397e-18)
(11.2938 -3.22905 2.47913e-23)
(61.8093 53.0697 -5.18445e-17)
(61.3244 38.8819 3.45153e-17)
(56.8799 27.8961 3.58983e-22)
(52.6857 20.5548 -9.77425e-18)
(48.9882 15.4852 -8.23719e-18)
(45.1585 11.6818 7.05553e-18)
(41.3833 8.78343 0)