/*--------------------------------*- C++ -*----------------------------------*\
| =========                 |                                                 |
| \\      /  F ield         | OpenFOAM: The Open Source CFD Toolbox           |
|  \\    /   O peration     | Version:  2412                                  |
|   \\  /    A nd           | Website:  www.openfoam.com                      |
|    \\/     M anipulation  |                                                 |
\*---------------------------------------------------------------------------*/
FoamFile
{
    version     2.0;
    format      ascii;
    arch        "LSB;label=32;scalar=64";
    class       volScalarField;
    location    "500";
    object      p;
}
// * * * * * * * * * * * * * * * * * * * * * * * * * * * * * * * * * * * * * //

dimensions      [0 2 -2 0 0 0 0];

internalField   nonuniform List<scalar> 
7373
(
65.774
66.5175
67.3398
68.2427
69.2189
70.2754
71.4292
72.6886
74.0562
75.5206
77.0906
78.7948
80.6404
82.6319
84.7565
87.0394
89.5214
92.1941
95.0542
98.1212
101.45
105.025
108.858
112.986
117.445
122.225
127.352
132.886
138.821
145.193
152.042
159.392
167.277
175.732
184.797
194.508
204.91
216.044
227.958
240.703
254.33
268.894
284.457
301.08
318.831
337.781
358.005
379.584
402.603
427.132
453.302
481.135
510.742
542.186
575.455
610.474
646.997
684.53
722.092
757.798
788.03
806.213
798.07
744.763
599.421
274.999
-316.022
-1382.65
65.774
66.5175
67.3398
68.2427
69.2189
70.2754
71.4292
72.6886
74.0562
75.5206
77.0906
78.7949
80.6404
82.6319
84.7565
87.0394
89.5214
92.1941
95.0542
98.1212
101.45
105.025
108.858
112.986
117.445
122.225
127.352
132.886
138.821
145.193
152.042
159.392
167.277
175.732
184.797
194.508
204.91
216.044
227.958
240.703
254.33
268.894
284.457
301.08
318.831
337.781
358.005
379.584
402.603
427.132
453.302
481.134
510.741
542.186
575.455
610.474
646.997
684.53
722.092
757.798
788.029
806.211
798.068
744.76
599.416
274.998
-316.008
-1382.56
65.774
66.5175
67.3398
68.2427
69.2189
70.2754
71.4292
72.6886
74.0562
75.5206
77.0907
78.7948
80.6404
82.6319
84.7565
87.0394
89.5214
92.1941
95.0542
98.1212
101.45
105.025
108.858
112.986
117.445
122.225
127.352
132.886
138.821
145.193
152.042
159.392
167.277
175.732
184.797
194.508
204.91
216.044
227.958
240.703
254.33
268.894
284.457
301.08
318.831
337.781
358.005
379.584
402.603
427.132
453.302
481.134
510.741
542.186
575.455
610.474
646.997
684.53
722.092
757.797
788.029
806.21
798.065
744.755
599.405
274.983
-316.024
-1382.5
65.774
66.5175
67.3398
68.2427
69.2189
70.2754
71.4292
72.6886
74.0563
75.5206
77.0907
78.7949
80.6404
82.632
84.7565
87.0395
89.5215
92.1942
95.0542
98.1213
101.45
105.025
108.858
112.986
117.445
122.225
127.352
132.886
138.821
145.193
152.042
159.392
167.277
175.732
184.797
194.508
204.91
216.044
227.958
240.703
254.33
268.894
284.457
301.08
318.831
337.781
358.005
379.584
402.603
427.132
453.302
481.134
510.742
542.186
575.455
610.474
646.997
684.53
722.092
757.797
788.028
806.209
798.063
744.748
599.392
274.968
-316.02
-1382.33
65.7741
66.5176
67.3398
68.2428
69.2189
70.2755
71.4293
72.6886
74.0563
75.5207
77.0907
78.7949
80.6404
82.632
84.7566
87.0395
89.5215
92.1942
95.0543
98.1213
101.45
105.025
108.858
112.987
117.445
122.226
127.352
132.886
138.821
145.194
152.042
159.392
167.278
175.732
184.797
194.508
204.91
216.044
227.958
240.703
254.33
268.894
284.457
301.08
318.831
337.782
358.005
379.584
402.603
427.132
453.302
481.135
510.742
542.186
575.455
610.474
646.998
684.53
722.092
757.797
788.028
806.208
798.06
744.742
599.381
274.971
-315.947
-1381.96
65.7741
66.5176
67.3399
68.2428
69.219
70.2755
71.4293
72.6887
74.0564
75.5207
77.0908
78.795
80.6405
82.6321
84.7566
87.0396
89.5216
92.1943
95.0544
98.1214
101.45
105.025
108.858
112.987
117.445
122.226
127.353
132.886
138.822
145.194
152.043
159.392
167.278
175.732
184.797
194.509
204.91
216.044
227.959
240.704
254.331
268.894
284.457
301.081
318.831
337.782
358.005
379.585
402.603
427.132
453.303
481.135
510.742
542.187
575.456
610.475
646.998
684.531
722.093
757.797
788.028
806.206
798.056
744.736
599.376
275.005
-315.8
-1381.3
65.7742
66.5177
67.34
68.2429
69.2191
70.2757
71.4294
72.6888
74.0565
75.5209
77.0909
78.7951
80.6407
82.6322
84.7568
87.0398
89.5218
92.1945
95.0546
98.1216
101.45
105.026
108.859
112.987
117.445
122.226
127.353
132.886
138.822
145.194
152.043
159.392
167.278
175.733
184.798
194.509
204.911
216.045
227.959
240.704
254.331
268.895
284.458
301.081
318.832
337.782
358.006
379.585
402.604
427.133
453.303
481.135
510.743
542.187
575.456
610.475
646.999
684.532
722.093
757.798
788.027
806.204
798.053
744.731
599.38
275.085
-315.569
-1380.24
65.7744
66.5179
67.3402
68.2431
69.2193
70.2759
71.4296
72.689
74.0567
75.5211
77.0912
78.7954
80.6409
82.6325
84.7571
87.04
89.5221
92.1948
95.0549
98.1219
101.45
105.026
108.859
112.987
117.446
122.226
127.353
132.887
138.822
145.195
152.043
159.393
167.279
175.733
184.798
194.51
204.911
216.046
227.96
240.705
254.332
268.896
284.458
301.082
318.833
337.783
358.007
379.586
402.605
427.134
453.304
481.137
510.744
542.188
575.458
610.477
647
684.533
722.095
757.799
788.027
806.203
798.049
744.727
599.397
275.226
-315.171
-1378.64
65.7747
66.5182
67.3405
68.2434
69.2196
70.2762
71.43
72.6894
74.0571
75.5215
77.0915
78.7958
80.6413
82.6329
84.7575
87.0405
89.5225
92.1953
95.0554
98.1225
101.451
105.027
108.86
112.988
117.447
122.227
127.354
132.888
138.823
145.195
152.044
159.394
167.28
175.734
184.799
194.511
204.912
216.047
227.961
240.706
254.333
268.897
284.46
301.083
318.834
337.785
358.009
379.588
402.606
427.136
453.306
481.138
510.746
542.19
575.46
610.479
647.003
684.535
722.097
757.8
788.028
806.201
798.045
744.727
599.431
275.442
-314.547
-1376.4
65.7751
66.5187
67.341
68.2439
69.2201
70.2767
71.4305
72.6899
74.0576
75.522
77.0921
78.7964
80.642
82.6336
84.7582
87.0412
89.5233
92.196
95.0562
98.1233
101.452
105.027
108.86
112.989
117.448
122.228
127.355
132.889
138.824
145.197
152.046
159.395
167.281
175.736
184.801
194.512
204.914
216.049
227.963
240.708
254.335
268.899
284.462
301.086
318.837
337.787
358.011
379.59
402.609
427.139
453.309
481.141
510.749
542.193
575.463
610.482
647.006
684.539
722.1
757.803
788.029
806.199
798.042
744.73
599.489
275.745
-313.719
-1373.42
-2457.74
65.7758
66.5193
67.3416
68.2446
69.2208
70.2774
71.4312
72.6907
74.0584
75.5228
77.0929
78.7972
80.6428
82.6345
84.7591
87.0422
89.5243
92.1971
95.0573
98.1245
101.453
105.029
108.862
112.99
117.449
122.23
127.357
132.89
138.826
145.199
152.048
159.397
167.283
175.738
184.803
194.515
204.917
216.051
227.966
240.711
254.338
268.902
284.465
301.089
318.84
337.791
358.015
379.594
402.613
427.143
453.313
481.146
510.753
542.198
575.468
610.487
647.011
684.544
722.105
757.807
788.03
806.196
798.038
744.739
599.572
276.152
-312.701
-1369.62
-2452.17
-3362.91
65.7766
66.5202
67.3425
68.2455
69.2217
70.2784
71.4322
72.6917
74.0594
75.5239
77.0941
78.7984
80.644
82.6357
84.7604
87.0435
89.5257
92.1986
95.0589
98.1261
101.455
105.03
108.864
112.992
117.451
122.232
127.359
132.893
138.829
145.201
152.05
159.4
167.286
175.741
184.806
194.518
204.92
216.055
227.97
240.715
254.343
268.907
284.47
301.094
318.845
337.796
358.02
379.6
402.619
427.149
453.319
481.152
510.759
542.205
575.475
610.495
647.019
684.552
722.112
757.813
788.033
806.194
798.034
744.752
599.683
276.692
-311.475
-1365
-2445.34
-3355.17
-3915.11
65.7778
66.5213
67.3437
68.2467
69.223
70.2796
71.4335
72.693
74.0608
75.5253
77.0955
78.7999
80.6456
82.6373
84.7621
87.0453
89.5275
92.2005
95.0608
98.1282
101.457
105.033
108.866
112.995
117.454
122.234
127.362
132.896
138.832
145.204
152.054
159.404
167.29
175.745
184.811
194.523
204.925
216.06
227.975
240.72
254.348
268.913
284.476
301.1
318.852
337.803
358.028
379.607
402.627
427.157
453.328
481.161
510.769
542.214
575.485
610.505
647.03
684.562
722.122
757.82
788.036
806.19
798.03
744.77
599.825
277.385
-310.029
-1359.53
-2437.14
-3345.89
-3907.05
65.7792
66.5228
67.3452
68.2482
69.2245
70.2812
71.4352
72.6947
74.0625
75.5271
77.0974
78.8018
80.6476
82.6394
84.7643
87.0475
89.5299
92.2029
95.0634
98.1308
101.46
105.036
108.869
112.998
117.457
122.238
127.365
132.9
138.836
145.208
152.058
159.408
167.295
175.75
184.816
194.528
204.931
216.066
227.981
240.727
254.355
268.92
284.484
301.109
318.86
337.812
358.037
379.617
402.637
427.168
453.339
481.173
510.781
542.228
575.499
610.519
647.044
684.577
722.136
757.831
788.04
806.187
798.026
744.794
599.996
278.223
-308.369
-1353.2
-2427.45
-3335.02
-3897.14
65.781
66.5246
67.347
68.2501
69.2265
70.2832
71.4372
72.6968
74.0647
75.5293
77.0997
78.8042
80.65
82.6419
84.7669
87.0503
89.5327
92.2059
95.0665
98.134
101.463
105.039
108.873
113.002
117.461
122.242
127.37
132.904
138.841
145.214
152.064
159.414
167.301
175.756
184.823
194.535
204.938
216.074
227.989
240.736
254.364
268.93
284.494
301.119
318.871
337.824
358.049
379.63
402.651
427.182
453.354
481.188
510.798
542.245
575.517
610.538
647.064
684.596
722.153
757.844
788.046
806.182
798.021
744.823
600.196
279.191
-306.482
-1345.96
-2416.24
-3322.48
-3885.3
65.7831
66.5268
67.3493
68.2524
69.2288
70.2856
71.4396
72.6993
74.0673
75.532
77.1024
78.807
80.653
82.645
84.7701
87.0536
89.5362
92.2095
95.0703
98.138
101.467
105.043
108.877
113.006
117.466
122.247
127.375
132.91
138.847
145.22
152.07
159.421
167.308
175.764
184.831
194.544
204.947
216.083
227.999
240.746
254.375
268.941
284.506
301.132
318.885
337.838
358.065
379.647
402.668
427.2
453.373
481.209
510.819
542.268
575.541
610.563
647.089
684.621
722.175
757.86
788.052
806.177
798.014
744.855
600.423
280.273
-304.338
-1337.79
-2403.48
-3308.16
-3871.57
65.7857
66.5294
67.3519
68.2551
69.2316
70.2885
71.4426
72.7023
74.0704
75.5353
77.1058
78.8105
80.6566
82.6488
84.774
87.0576
89.5404
92.2139
95.0748
98.1427
101.472
105.049
108.883
113.012
117.472
122.254
127.382
132.917
138.854
145.228
152.078
159.43
167.317
175.774
184.841
194.554
204.958
216.095
228.012
240.759
254.389
268.956
284.522
301.148
318.902
337.857
358.084
379.667
402.689
427.223
453.398
481.235
510.847
542.297
575.572
610.595
647.122
684.652
722.203
757.88
788.06
806.169
798.005
744.89
600.677
281.459
-301.906
-1328.62
-2389.14
-3291.9
-3855.81
65.7888
66.5326
67.3552
68.2584
69.235
70.2919
71.4461
72.706
74.0742
75.5391
77.1098
78.8147
80.6609
82.6532
84.7786
87.0625
89.5454
92.2191
95.0803
98.1485
101.478
105.055
108.889
113.019
117.479
122.261
127.39
132.925
138.863
145.237
152.088
159.44
167.328
175.785
184.852
194.567
204.971
216.109
228.026
240.775
254.406
268.973
284.54
301.168
318.923
337.879
358.107
379.692
402.716
427.251
453.428
481.267
510.882
542.334
575.61
610.635
647.162
684.69
722.236
757.903
788.068
806.16
797.993
744.925
600.956
282.761
-299.156
-1318.37
-2373.12
-3273.58
-3837.85
65.7925
66.5364
67.359
68.2623
69.239
70.296
71.4504
72.7103
74.0787
75.5438
77.1146
78.8196
80.666
82.6586
84.7842
87.0682
89.5514
92.2254
95.0868
98.1553
101.485
105.062
108.897
113.027
117.488
122.27
127.399
132.935
138.873
145.248
152.1
159.452
167.341
175.799
184.867
194.582
204.987
216.126
228.044
240.794
254.426
268.995
284.563
301.192
318.949
337.906
358.136
379.723
402.749
427.286
453.466
481.307
510.925
542.379
575.658
610.685
647.21
684.736
722.274
757.929
788.076
806.148
797.976
744.962
601.263
284.194
-296.059
-1306.93
-2355.25
-3253.06
-3817.54
65.7969
66.5408
67.3636
68.267
69.2437
70.3009
71.4554
72.7155
74.084
75.5493
77.1203
78.8255
80.6721
82.6649
84.7908
87.0751
89.5585
92.2328
95.0946
98.1634
101.494
105.071
108.906
113.037
117.498
122.281
127.411
132.947
138.886
145.261
152.113
159.467
167.356
175.815
184.884
194.6
205.007
216.146
228.066
240.817
254.45
269.02
284.59
301.221
318.979
337.938
358.171
379.76
402.789
427.329
453.512
481.357
510.977
542.435
575.717
610.744
647.268
684.789
722.318
757.959
788.084
806.132
797.955
744.997
601.597
285.769
-292.574
-1294.17
-2335.33
-3230.17
-3794.76
62.3536
62.5593
62.8277
63.162
63.562
64.0245
64.549
65.1377
65.8021
66.5461
67.369
68.2725
69.2494
70.3067
71.4613
72.7216
74.0903
75.5558
77.127
78.8325
80.6794
82.6724
84.7986
87.0832
89.567
92.2417
95.1039
98.1731
101.504
105.082
108.918
113.049
117.51
122.294
127.424
132.961
138.901
145.277
152.13
159.484
167.375
175.834
184.905
194.622
205.03
216.17
228.091
240.844
254.479
269.051
284.622
301.255
319.016
337.978
358.213
379.805
402.837
427.381
453.567
481.417
511.041
542.503
575.786
610.813
647.335
684.849
722.367
757.991
788.092
806.111
797.926
745.029
601.963
287.501
-288.65
-1279.98
-2313.16
-3204.61
-3769.32
62.3592
62.565
62.8335
63.1678
63.5678
64.0304
64.5549
65.1437
65.8082
66.5524
67.3753
68.279
69.2561
70.3136
71.4684
72.7289
74.0978
75.5635
77.135
78.8407
80.688
82.6813
84.8079
87.0929
89.5771
92.2522
95.1149
98.1846
101.516
105.095
108.931
113.063
117.525
122.309
127.44
132.978
138.918
145.296
152.15
159.505
167.396
175.857
184.929
194.648
205.057
216.199
228.122
240.876
254.513
269.088
284.661
301.297
319.061
338.025
358.264
379.859
402.895
427.444
453.635
481.489
511.118
542.583
575.868
610.893
647.411
684.917
722.422
758.026
788.098
806.085
797.889
745.058
602.359
289.408
-284.229
-1264.21
-2288.53
-3176.14
-3740.93
62.3659
62.5717
62.8402
63.1746
63.5746
64.0373
64.5619
65.1509
65.8155
66.5598
67.3829
68.2868
69.264
70.3217
71.4767
72.7375
74.1066
75.5727
77.1445
78.8505
80.6981
82.6919
84.8189
87.1043
89.589
92.2647
95.1279
98.1982
101.53
105.109
108.946
113.079
117.542
122.327
127.459
132.998
138.94
145.318
152.173
159.53
167.423
175.885
184.958
194.678
205.089
216.234
228.159
240.915
254.554
269.131
284.708
301.347
319.114
338.082
358.325
379.925
402.965
427.519
453.716
481.575
511.208
542.676
575.961
610.984
647.497
684.993
722.483
758.063
788.103
806.05
797.841
745.08
602.789
291.501
-279.24
-1246.73
-2261.23
-3144.47
-3709.28
62.3737
62.5796
62.8482
63.1826
63.5827
64.0455
64.5703
65.1593
65.8241
66.5685
67.3918
68.2959
69.2734
70.3313
71.4866
72.7476
74.1171
75.5835
77.1557
78.8621
80.7102
82.7044
84.8319
87.1179
89.6031
92.2794
95.1433
98.2143
101.547
105.127
108.965
113.098
117.562
122.349
127.482
133.022
138.965
145.344
152.201
159.559
167.454
175.918
184.993
194.715
205.128
216.275
228.202
240.962
254.604
269.184
284.764
301.406
319.177
338.15
358.397
380.003
403.049
427.609
453.812
481.677
511.313
542.782
576.066
611.087
647.592
685.078
722.55
758.102
788.103
806.006
797.778
745.093
603.252
293.757
-273.611
-1227.39
-2231.01
-3109.3
-3674.02
62.383
62.5889
62.8575
63.1921
63.5923
64.0552
64.5801
65.1693
65.8343
66.5789
67.4024
68.3067
69.2844
70.3426
71.4983
72.7596
74.1295
75.5963
77.1689
78.8758
80.7244
82.7192
84.8473
87.1339
89.6198
92.2969
95.1615
98.2334
101.567
105.148
108.987
113.121
117.587
122.374
127.509
133.05
138.994
145.375
152.234
159.594
167.49
175.957
185.034
194.759
205.174
216.324
228.254
241.017
254.662
269.246
284.83
301.477
319.253
338.231
358.484
380.096
403.149
427.716
453.925
481.79
511.436
542.902
576.185
611.201
647.699
685.171
722.622
758.142
788.099
805.948
797.698
745.093
603.75
296.196
-267.268
-1206.06
-2197.65
-3070.33
-3634.83
62.3939
62.5998
62.8686
63.2032
63.6035
64.0666
64.5916
65.181
65.8462
66.5911
67.4148
68.3194
69.2974
70.356
71.512
72.7738
74.1441
75.6114
77.1845
78.892
80.7412
82.7367
84.8655
87.1529
89.6396
92.3175
95.1831
98.2559
101.591
105.173
109.013
113.149
117.615
122.404
127.54
133.084
139.029
145.413
152.273
159.635
167.534
176.003
185.083
194.81
205.229
216.382
228.316
241.082
254.732
269.32
284.909
301.561
319.343
338.327
358.587
380.206
403.267
427.842
454.051
481.921
511.573
543.036
576.317
611.329
647.817
685.274
722.7
758.183
788.088
805.875
797.596
745.075
604.281
298.879
-260.145
-1182.63
-2160.93
-3027.25
-3591.42
62.4067
62.6128
62.8816
63.2164
63.6168
64.0801
64.6053
65.1949
65.8603
66.6054
67.4295
68.3344
69.3128
70.3718
71.5283
72.7905
74.1614
75.6293
77.203
78.9112
80.761
82.7573
84.887
87.1752
89.6629
92.3419
95.2086
98.2826
101.619
105.202
109.044
113.181
117.649
122.44
127.578
133.123
139.071
145.457
152.32
159.684
167.586
176.058
185.141
194.872
205.294
216.451
228.389
241.16
254.815
269.408
285.003
301.661
319.45
338.441
358.709
380.336
403.405
427.987
454.191
482.073
511.723
543.186
576.465
611.47
647.948
685.386
722.783
758.223
788.067
805.781
797.465
745.033
604.843
301.816
-252.158
-1156.98
-2120.61
-2979.76
-3543.55
62.4218
62.628
62.897
63.2318
63.6325
64.0959
64.6214
65.2112
65.877
66.6224
67.4468
68.3522
69.331
70.3904
71.5474
72.8103
74.1817
75.6503
77.2248
78.9337
80.7845
82.7817
84.9124
87.2017
89.6905
92.3708
95.2388
98.3142
101.652
105.237
109.08
113.219
117.69
122.482
127.623
133.17
139.121
145.509
152.375
159.742
167.647
176.123
185.21
194.945
205.371
216.533
228.476
241.252
254.913
269.513
285.114
301.78
319.576
338.576
358.853
380.487
403.561
428.15
454.35
482.242
511.89
543.354
576.629
611.627
648.092
685.508
722.871
758.26
788.033
805.661
797.298
744.959
605.433
305.026
-243.214
-1129.04
-2076.67
-2927.47
-3490.88
62.4395
62.6459
62.915
63.2501
63.6509
64.1146
64.6403
65.2305
65.8966
66.6424
67.4672
68.373
69.3524
70.4124
71.57
72.8335
74.2058
75.6752
77.2505
78.9604
80.8122
82.8105
84.9424
87.2329
89.7231
92.4049
95.2744
98.3515
101.691
105.278
109.123
113.265
117.737
122.533
127.675
133.226
139.179
145.571
152.44
159.811
167.72
176.2
185.291
195.031
205.463
216.63
228.579
241.361
255.029
269.636
285.245
301.92
319.725
338.734
359.018
380.658
403.736
428.33
454.534
482.427
512.078
543.54
576.812
611.801
648.25
685.64
722.963
758.292
787.982
805.508
797.087
744.842
606.043
308.52
-233.223
-1098.73
-2029.19
-2869.79
-3432.81
62.4604
62.6669
62.9363
63.2715
63.6726
64.1366
64.6626
65.2532
65.9196
66.6659
67.4913
68.3977
69.3776
70.4383
71.5967
72.861
74.2341
75.7046
77.2809
78.9919
80.8449
82.8446
84.9778
87.2698
89.7616
92.4452
95.3166
98.3956
101.737
105.326
109.174
113.318
117.793
122.592
127.738
133.291
139.249
145.644
152.517
159.893
167.806
176.291
185.388
195.133
205.571
216.744
228.701
241.491
255.166
269.782
285.4
302.084
319.898
338.915
359.205
380.85
403.933
428.531
454.739
482.635
512.287
543.748
577.015
611.993
648.422
685.782
723.057
758.315
787.907
805.313
796.819
744.669
606.665
312.31
-222.093
-1065.99
-1977.94
-2806.34
-3368.79
-3539.5
62.485
62.6917
62.9613
63.2967
63.6981
64.1625
64.6889
65.2799
65.9468
66.6936
67.5196
68.4267
69.4074
70.4689
71.6281
72.8934
74.2676
75.7392
77.3167
79.029
80.8834
82.8847
85.0196
87.3134
89.8071
92.4928
95.3664
98.4477
101.792
105.384
109.234
113.381
117.86
122.662
127.811
133.369
139.331
145.73
152.609
159.989
167.908
176.399
185.502
195.254
205.699
216.88
228.844
241.643
255.327
269.953
285.581
302.274
320.095
339.118
359.414
381.065
404.153
428.756
454.968
482.867
512.52
543.979
577.239
612.203
648.609
685.932
723.151
758.324
787.801
805.065
796.48
744.425
607.289
316.403
-209.731
-1030.73
-1922.58
-2737.2
-3298.38
-3482.01
62.5139
62.7208
62.9907
63.3264
63.7281
64.193
64.7199
65.3113
65.9789
66.7263
67.553
68.4609
69.4425
70.5049
71.6651
72.9316
74.3071
75.78
77.359
79.0728
80.929
82.9322
85.069
87.3649
89.8608
92.5491
95.4252
98.5093
101.856
105.452
109.305
113.456
117.939
122.745
127.899
133.461
139.428
145.833
152.717
160.104
168.029
176.526
185.637
195.397
205.85
217.04
229.013
241.822
255.516
270.152
285.789
302.488
320.317
339.346
359.648
381.305
404.399
429.008
455.224
483.126
512.779
544.235
577.486
612.433
648.811
686.089
723.24
758.314
787.654
804.749
796.052
744.089
607.907
320.803
-196.04
-992.941
-1863.06
-2662.32
-3221.66
-3418.78
62.3999
62.5478
62.7551
63.0253
63.3614
63.7635
64.2289
64.7563
65.3484
66.0166
66.7648
67.5924
68.5012
69.4838
70.5473
71.7088
72.9767
74.3537
75.8282
77.4089
79.1245
80.9828
82.9882
85.1274
87.4257
89.9243
92.6155
95.4948
98.582
101.933
105.532
109.39
113.545
118.032
122.843
128.002
133.57
139.542
145.954
152.844
160.238
168.171
176.677
185.795
195.564
206.027
217.227
229.211
242.03
255.734
270.377
286.022
302.729
320.564
339.6
359.91
381.574
404.675
429.289
455.51
483.414
513.067
544.517
577.756
612.682
649.025
686.25
723.32
758.276
787.453
804.348
795.513
743.635
608.486
325.51
-180.907
-952.689
-1799.35
-2581.53
-3138.3
-3349.26
62.4396
62.5878
62.7954
63.066
63.4025
63.8051
64.2711
64.7992
65.392
66.0611
66.8101
67.6388
68.5488
69.5326
70.5974
71.7604
73.0298
74.4086
75.8851
77.4677
79.1856
81.0462
83.0543
85.1963
87.4975
89.9993
92.6941
95.5769
98.668
102.023
105.627
109.489
113.649
118.142
122.959
128.124
133.698
139.678
146.096
152.995
160.397
168.339
176.853
185.982
195.761
206.235
217.445
229.439
242.267
255.979
270.63
286.283
302.998
320.842
339.886
360.204
381.876
404.982
429.603
455.827
483.733
513.384
544.827
578.051
612.95
649.251
686.411
723.385
758.199
787.184
803.841
794.835
743.034
608.934
330.506
-164.214
-910.094
-1731.43
-2494.8
-3048.22
-3273.23
62.4863
62.6348
62.8428
63.1138
63.451
63.8542
64.3209
64.8498
65.4434
66.1135
66.8636
67.6934
68.6048
69.59
70.6564
71.8212
73.0926
74.4734
75.9522
77.5372
79.2576
81.1211
83.1324
85.2776
87.5822
90.0878
92.7868
95.674
98.7696
102.13
105.738
109.607
113.773
118.272
123.095
128.268
133.85
139.837
146.264
153.172
160.584
168.535
177.061
186.2
195.99
206.473
217.693
229.696
242.532
256.253
270.914
286.575
303.299
321.152
340.206
360.532
382.212
405.326
429.952
456.18
484.086
513.733
545.166
578.37
613.237
649.486
686.567
723.424
758.07
786.826
803.2
793.985
742.244
609.229
335.739
-145.956
-865.359
-1659.35
-2402.31
-2951.5
-3190.51
62.5412
62.6901
62.8985
63.1702
63.508
63.9119
64.3795
64.9093
65.504
66.1752
66.9266
67.7579
68.6709
69.6578
70.726
71.8928
73.1665
74.5499
76.0314
77.6192
79.3426
81.2096
83.2245
85.3736
87.6822
90.1923
92.8963
95.7885
98.8894
102.255
105.87
109.745
113.918
118.425
123.256
128.437
134.028
140.024
146.461
153.379
160.802
168.764
177.3
186.45
196.249
206.742
217.971
229.984
242.83
256.56
271.231
286.903
303.637
321.501
340.563
360.899
382.587
405.708
430.339
456.57
484.475
514.116
545.534
578.713
613.539
649.725
686.71
723.427
757.872
786.355
802.392
792.922
741.216
609.648
341.13
-126.366
-818.572
-1583.31
-2304.36
-2848.25
-3100.97
62.6057
62.7551
62.9642
63.2365
63.575
63.9799
64.4486
64.9795
65.5753
66.2479
67.0008
67.8339
68.7488
69.7378
70.8081
71.9773
73.2537
74.6402
76.1249
77.7158
79.4429
81.3139
83.3333
85.4869
87.8001
90.3155
93.0253
95.9235
99.0305
102.403
106.026
109.908
114.089
118.604
123.445
128.635
134.236
140.244
146.691
153.62
161.053
169.026
177.572
186.731
196.541
207.044
218.283
230.306
243.163
256.905
271.587
287.27
304.016
321.89
340.963
361.308
383.005
406.132
430.768
457
484.902
514.533
545.932
579.079
613.853
649.96
686.83
723.378
757.581
785.739
801.376
791.595
739.909
609.926
346.702
-105.668
-769.661
-1503.6
-2201.3
-2738.7
-3004.55
62.6817
62.8316
63.0414
63.3146
63.654
64.0599
64.5299
65.0621
65.6594
66.3335
67.0882
67.9234
68.8406
69.832
70.9049
72.0769
73.3566
74.7465
76.235
77.8298
79.5611
81.4368
83.4614
85.6203
87.939
90.4605
93.1772
96.0822
99.1963
102.577
106.208
110.099
114.289
118.815
123.666
128.866
134.479
140.495
146.954
153.893
161.337
169.32
177.876
187.046
196.867
207.382
218.633
230.669
243.538
257.292
271.986
287.682
304.439
322.324
341.408
361.763
383.468
406.601
431.241
457.473
485.368
514.985
546.359
579.464
614.173
650.184
686.912
723.256
757.169
784.941
800.103
789.946
738.246
609.673
352.489
-83.9524
-718.678
-1420.65
-2093.67
-2623.23
-2901.36
62.771
62.9217
63.1322
63.4064
63.747
64.1541
64.6257
65.1594
65.7583
66.4344
67.1912
68.0289
68.9488
69.943
71.0188
72.1942
73.4777
74.8718
76.3647
77.9639
79.7001
81.5813
83.612
85.7771
88.1021
90.6305
93.3552
96.2684
99.3903
102.781
106.422
110.322
114.523
119.061
123.918
129.13
134.754
140.78
147.25
154.2
161.655
169.649
178.218
187.401
197.234
207.762
219.026
231.075
243.957
257.725
272.433
288.141
304.911
322.809
341.904
362.268
383.981
407.119
431.761
457.989
485.874
515.471
546.811
579.862
614.49
650.382
686.938
723.035
756.602
783.913
798.513
787.902
736.148
609.122
358.318
-61.4919
-666.024
-1334.98
-1982.09
-2502.43
-2791.69
62.876
63.0275
63.239
63.5144
63.8563
64.265
64.7384
65.274
65.8748
66.553
67.3125
68.153
69.0761
70.0736
71.1528
72.3322
73.62
75.019
76.5171
78.1213
79.8632
81.7507
83.7885
85.9608
88.2927
90.8295
93.5644
96.4864
99.6168
103.018
106.668
110.577
114.789
119.338
124.202
129.429
135.063
141.1
147.583
154.545
162.012
170.02
178.602
187.798
197.646
208.188
219.467
231.53
244.427
258.209
272.932
288.654
305.437
323.347
342.453
362.827
384.547
407.689
432.33
458.551
486.42
515.989
547.284
580.267
614.794
650.539
686.885
722.684
755.835
782.599
796.535
785.379
733.524
608.109
364.091
-39.0064
-612.708
-1247.46
-1867.23
-2376.86
-2676.03
62.9993
63.1519
63.3645
63.6414
63.9848
64.3953
64.8708
65.4086
66.0116
66.6924
67.4548
68.2987
69.2256
70.2269
71.31
72.4938
73.7866
75.1914
76.6956
78.3054
80.0538
81.9491
83.9958
86.1757
88.5151
91.0619
93.8063
96.7328
99.8753
103.288
106.945
110.865
115.09
119.649
124.525
129.764
135.409
141.46
147.957
154.932
162.414
170.436
179.033
188.245
198.108
208.666
219.96
232.039
244.952
258.75
273.488
289.225
306.022
323.944
343.061
363.444
385.169
408.312
432.949
459.157
487.003
516.535
547.771
580.668
615.068
650.632
686.721
722.16
754.815
780.929
794.083
782.28
730.266
606.565
369.737
-16.6228
-559.381
-1159.08
-1749.96
-2246.91
-2554.45
63.1441
63.2978
63.5118
63.7903
64.1355
64.5481
65.0261
65.5663
66.1718
66.8556
67.6214
68.469
69.4004
70.4062
71.4937
72.6828
73.9817
75.3937
76.9046
78.5202
80.2759
82.1797
84.2338
86.4184
88.7686
91.3256
94.0781
97.0113
100.168
103.59
107.258
111.19
115.428
119.998
124.887
130.141
135.8
141.865
148.377
155.368
162.865
170.903
179.517
188.745
198.625
209.2
220.512
232.608
245.538
259.353
274.107
289.859
306.67
324.605
343.732
364.122
385.85
408.991
433.618
459.807
487.62
517.101
548.262
581.047
615.289
650.631
686.408
721.413
753.476
778.822
791.058
778.491
726.256
604.353
375.096
8.72959
-503.578
-1069.89
-1632.46
-2115.14
-2428
63.3132
63.4683
63.6837
63.9641
64.3114
64.7264
65.2075
65.7507
66.3592
67.0464
67.8163
68.6687
69.6053
70.6157
71.7075
72.9022
74.2074
75.6259
77.1408
78.7633
80.5283
82.4403
84.501
86.6928
89.0559
91.6219
94.3838
97.328
100.498
103.93
107.61
111.556
115.808
120.39
125.295
130.565
136.238
142.32
148.848
155.856
163.371
171.427
180.059
189.305
199.204
209.797
221.128
233.243
246.191
260.023
274.793
290.561
307.386
325.333
344.469
364.864
386.591
409.724
434.335
460.495
488.263
517.677
548.74
581.386
615.431
650.499
685.897
720.379
751.738
776.178
787.347
773.886
721.362
601.322
379.816
38.4494
-443.458
-979.576
-1516.7
-1985.91
-2302.65
63.5109
63.6677
63.8847
64.1672
64.517
64.9349
65.4193
65.9654
66.5762
67.2665
68.0405
68.8974
69.8381
70.8519
71.9493
73.1512
74.463
75.8868
77.4072
79.0396
80.8133
82.7337
84.8025
87.0047
89.3792
91.9553
94.727
97.6845
100.868
104.313
108.006
111.968
116.235
120.831
125.753
131.041
136.73
142.83
149.377
156.404
163.938
172.013
180.665
189.932
199.851
210.464
221.815
233.949
246.916
260.766
275.554
291.337
308.175
326.132
345.274
365.67
387.392
410.511
435.097
461.216
488.923
518.248
549.186
581.656
615.457
650.188
685.125
718.982
749.506
772.885
782.82
768.323
715.44
597.344
383.527
63.7389
63.8968
64.1148
64.3993
64.7515
65.1719
65.6589
66.2076
66.8216
67.5164
68.2949
69.1558
70.1002
71.1191
72.2239
73.4327
74.751
76.1811
77.7095
79.3515
81.1342
83.0637
85.1413
87.3558
89.7434
92.3309
95.1136
98.0856
101.285
104.743
108.452
112.43
116.715
121.327
126.267
131.575
137.283
143.403
149.97
157.017
164.572
172.669
181.343
190.631
200.571
211.206
222.578
234.733
247.72
261.588
276.393
292.191
309.04
327.005
346.15
366.542
388.252
411.348
435.896
461.959
489.584
518.794
549.571
581.821
615.319
649.639
684.02
717.13
746.669
768.812
777.332
761.651
708.333
592.292
386.711
63.9972
64.156
64.3758
64.6629
65.0174
65.4398
65.929
66.481
67.0999
67.7994
68.5818
69.4475
70.3963
71.4214
72.5336
73.7496
75.0752
76.5121
78.0497
79.7029
81.4958
83.4356
85.523
87.751
90.153
92.7534
95.5487
98.5369
101.754
105.227
108.952
112.95
117.254
121.884
126.844
132.173
137.901
144.043
150.633
157.703
165.281
173.401
182.098
191.409
201.373
212.03
223.424
235.601
248.608
262.495
277.315
293.126
309.985
327.954
347.096
367.478
389.166
412.226
436.721
462.707
490.224
519.286
549.86
581.833
614.959
648.777
682.489
714.712
743.098
763.812
770.728
753.709
699.883
586.007
388.972
64.2878
64.4487
64.6711
64.9604
65.3171
65.7421
66.2338
66.7896
67.4136
68.1178
68.9049
69.7756
70.7296
71.7619
72.8827
74.1068
75.4406
76.8851
78.4329
80.0983
81.9028
83.8541
85.9528
88.1957
90.6135
93.2282
96.038
99.0441
102.28
105.77
109.514
113.533
117.857
122.507
127.49
132.843
138.594
144.759
151.374
158.468
166.071
174.216
182.938
192.274
202.262
212.943
224.36
236.558
249.585
263.489
278.324
294.145
311.009
328.977
348.109
368.471
390.125
413.134
437.555
463.439
490.815
519.686
550.005
581.635
614.303
647.514
680.424
711.6
738.645
757.724
762.843
744.336
689.961
578.365
389.322
64.6145
64.7777
65.0031
65.2948
65.6541
66.0819
66.5769
67.1371
67.7669
68.4766
69.2689
70.1452
71.1051
72.1453
73.2755
74.5088
75.8517
77.3052
78.8644
80.543
82.3604
84.3246
86.4362
88.6957
91.1308
93.7614
96.5875
99.6134
102.87
106.379
110.144
114.186
118.533
123.205
128.213
133.591
139.366
145.558
152.199
159.32
166.949
175.121
183.87
193.232
203.246
213.951
225.392
237.611
250.656
264.576
279.422
295.249
312.112
330.071
349.184
369.513
391.117
414.054
438.376
464.124
491.319
519.948
549.945
581.152
613.261
645.741
677.697
707.647
733.148
750.372
753.505
733.373
678.474
569.33
387.89
64.9817
65.1476
65.3763
65.6709
66.0333
66.4643
66.9629
67.5281
68.1643
68.88
69.6784
70.5612
71.5279
72.577
73.7174
74.9609
76.3141
77.7778
79.3498
81.043
82.8747
84.853
86.9794
89.2571
91.7112
94.3596
97.204
100.252
103.531
107.061
110.85
114.916
119.288
123.985
129.02
134.426
140.228
146.448
153.118
160.266
167.924
176.125
184.901
194.29
204.33
215.06
226.523
238.762
251.824
265.756
280.609
296.436
313.291
331.23
350.31
370.589
392.122
414.961
439.15
464.722
491.685