/*--------------------------------*- C++ -*----------------------------------*\
| =========                 |                                                 |
| \\      /  F ield         | OpenFOAM: The Open Source CFD Toolbox           |
|  \\    /   O peration     | Version:  2412                                  |
|   \\  /    A nd           | Website:  www.openfoam.com                      |
|    \\/     M anipulation  |                                                 |
\*---------------------------------------------------------------------------*/
FoamFile
{
    version     2.0;
    format      ascii;
    arch        "LSB;label=32;scalar=64";
    class       surfaceScalarField;
    location    "500";
    object      phi;
}
// * * * * * * * * * * * * * * * * * * * * * * * * * * * * * * * * * * * * * //

dimensions      [0 3 -1 0 0 0 0];

oriented        oriented;

internalField   nonuniform List<scalar> 
17078
(
-2.01664e-06
1.09518e-08
-2.02794e-06
1.12595e-08
-2.0397e-06
1.17161e-08
-2.05129e-06
1.15762e-08
-2.06249e-06
1.11878e-08
-2.0735e-06
1.09903e-08
-2.08444e-06
1.09275e-08
-2.09525e-06
1.07888e-08
-2.10582e-06
1.05574e-08
-2.11636e-06
1.05333e-08
-2.12679e-06
1.04097e-08
-2.1371e-06
1.02865e-08
-2.14708e-06
9.95816e-09
-2.15682e-06
9.72677e-09
-2.16651e-06
9.67239e-09
-2.17588e-06
9.35106e-09
-2.18503e-06
9.14012e-09
-2.19384e-06
8.76518e-09
-2.20247e-06
8.62314e-09
-2.21078e-06
8.27872e-09
-2.21883e-06
8.05084e-09
-2.2265e-06
7.63306e-09
-2.23376e-06
7.2495e-09
-2.2407e-06
6.90865e-09
-2.24727e-06
6.56595e-09
-2.25341e-06
6.1102e-09
-2.2591e-06
5.67578e-09
-2.26427e-06
5.13599e-09
-2.26897e-06
4.7064e-09
-2.27318e-06
4.18013e-09
-2.27688e-06
3.69052e-09
-2.27999e-06
3.07404e-09
-2.28259e-06
2.60311e-09
-2.28442e-06
1.8102e-09
-2.28572e-06
1.29833e-09
-2.28633e-06
5.86702e-10
-2.28635e-06
1.13883e-11
-2.28573e-06
-6.49213e-10
-2.28434e-06
-1.3951e-09
-2.28219e-06
-2.17032e-09
-2.27936e-06
-2.82727e-09
-2.27581e-06
-3.58685e-09
-2.27166e-06
-4.14708e-09
-2.26676e-06
-4.91826e-09
-2.26111e-06
-5.64574e-09
-2.25461e-06
-6.52216e-09
-2.24753e-06
-7.07284e-09
-2.23993e-06
-7.62262e-09
-2.23152e-06
-8.40856e-09
-2.22235e-06
-9.17932e-09
-2.21255e-06
-9.80437e-09
-2.20219e-06
-1.03761e-08
-2.1914e-06
-1.07853e-08
-2.17984e-06
-1.15747e-08
-2.16758e-06
-1.22632e-08
-2.15483e-06
-1.27687e-08
-2.14162e-06
-1.32104e-08
-2.12791e-06
-1.37337e-08
-2.11351e-06
-1.43971e-08
-2.09865e-06
-1.48785e-08
-2.08336e-06
-1.52906e-08
-2.06757e-06
-1.58061e-08
-2.05118e-06
-1.63863e-08
-2.03438e-06
-1.68122e-08
-2.01721e-06
-1.7173e-08
-1.99965e-06
-1.75699e-08
-1.98154e-06
-1.81092e-08
-1.96319e-06
-1.8366e-08
-1.94457e-06
-1.86147e-08
-1.92557e-06
-1.90102e-08
-1.90637e-06
-1.91999e-08
-1.88702e-06
-1.93553e-08
-1.86748e-06
-1.95377e-08
-1.84788e-06
-1.9607e-08
-1.82808e-06
-1.98055e-08
-1.80827e-06
-1.9814e-08
-1.78823e-06
-2.0051e-08
-1.76779e-06
-2.04423e-08
-1.74676e-06
-2.10332e-08
-1.72459e-06
-2.21747e-08
-1.7006e-06
-2.39903e-08
-1.67358e-06
-2.70228e-08
-1.64163e-06
-3.19586e-08
-1.60182e-06
-3.98086e-08
-1.54949e-06
-5.23366e-08
-1.47715e-06
-7.23437e-08
-1.37194e-06
-1.05214e-07
-1.58872e-07
-7.16425e-06
4.99944e-08
-7.20445e-06
5.14143e-08
-7.24596e-06
5.31537e-08
-7.28693e-06
5.25243e-08
-7.3263e-06
5.05342e-08
-7.36527e-06
4.99458e-08
-7.40396e-06
4.95879e-08
-7.44186e-06
4.86636e-08
-7.47953e-06
4.82117e-08
-7.51664e-06
4.76228e-08
-7.55321e-06
4.695e-08
-7.58901e-06
4.60576e-08
-7.6242e-06
4.51129e-08
-7.65875e-06
4.42617e-08
-7.69219e-06
4.30838e-08
-7.725e-06
4.21327e-08
-7.75681e-06
4.09262e-08
-7.78798e-06
3.98811e-08
-7.81772e-06
3.83574e-08
-7.8466e-06
3.71094e-08
-7.87437e-06
3.58135e-08
-7.90093e-06
3.41489e-08
-7.92633e-06
3.2636e-08
-7.95e-06
3.05286e-08
-7.97256e-06
2.91218e-08
-7.99349e-06
2.69919e-08
-8.01276e-06
2.49331e-08
-8.03041e-06
2.27404e-08
-8.04635e-06
2.06411e-08
-8.06055e-06
1.8339e-08
-8.07278e-06
1.5913e-08
-8.08318e-06
1.34201e-08
-8.09088e-06
1.02993e-08
-8.09687e-06
7.77812e-09
-8.10044e-06
4.86363e-09
-8.10175e-06
1.85271e-09
-8.10137e-06
-3.79326e-10
-8.09792e-06
-4.13388e-09
-8.0922e-06
-7.12697e-09
-8.08371e-06
-1.0687e-08
-8.07256e-06
-1.39825e-08
-8.05933e-06
-1.68597e-08
-8.0438e-06
-1.96717e-08
-8.02572e-06
-2.30296e-08
-8.0045e-06
-2.68553e-08
-7.98079e-06
-3.02595e-08
-7.95468e-06
-3.31794e-08
-7.92677e-06
-3.55545e-08
-7.89631e-06
-3.88795e-08
-7.86301e-06
-4.24881e-08
-7.82725e-06
-4.55677e-08
-7.78982e-06
-4.78278e-08
-7.75026e-06
-5.03515e-08
-7.70865e-06
-5.32053e-08
-7.66442e-06
-5.64964e-08
-7.61816e-06
-5.90544e-08
-7.57055e-06
-6.08267e-08
-7.52103e-06
-6.32766e-08
-7.46898e-06
-6.64552e-08
-7.41508e-06
-6.87978e-08
-7.35978e-06
-7.05934e-08
-7.30272e-06
-7.28896e-08
-7.24362e-06
-7.54875e-08
-7.18264e-06
-7.78099e-08
-7.12054e-06
-7.92703e-08
-7.05671e-06
-8.1418e-08
-6.99137e-06
-8.34492e-08
-6.92463e-06
-8.51309e-08
-6.85696e-06
-8.62825e-08
-6.78822e-06
-8.77628e-08
-6.71824e-06
-8.91779e-08
-6.64781e-06
-8.97911e-08
-6.57682e-06
-9.05341e-08
-6.50516e-06
-9.12716e-08
-6.43317e-06
-9.18041e-08
-6.36036e-06
-9.26288e-08
-6.2866e-06
-9.38237e-08
-6.21168e-06
-9.53678e-08
-6.13436e-06
-9.8358e-08
-6.05271e-06
-1.03832e-07
-5.9645e-06
-1.12211e-07
-5.86535e-06
-1.26177e-07
-5.74884e-06
-1.48471e-07
-5.60425e-06
-1.84403e-07
-5.41571e-06
-2.40888e-07
-5.15665e-06
-3.31402e-07
-4.78279e-06
-4.79078e-07
-7.19121e-07
-1.43972e-05
1.28205e-07
-1.4478e-05
1.32164e-07
-1.45604e-05
1.3545e-07
-1.46425e-05
1.34586e-07
-1.47211e-05
1.29193e-07
-1.47989e-05
1.2765e-07
-1.48752e-05
1.2586e-07
-1.4951e-05
1.24458e-07
-1.50254e-05
1.22595e-07
-1.50988e-05
1.20994e-07
-1.51711e-05
1.19229e-07
-1.52419e-05
1.16859e-07
-1.5311e-05
1.14171e-07
-1.53789e-05
1.12123e-07
-1.54453e-05
1.09513e-07
-1.55096e-05
1.06305e-07
-1.55719e-05
1.03229e-07
-1.56323e-05
1.00228e-07
-1.56909e-05
9.69543e-08
-1.57471e-05
9.33085e-08
-1.58011e-05
8.97755e-08
-1.58526e-05
8.56219e-08
-1.5901e-05
8.10201e-08
-1.59474e-05
7.68711e-08
-1.59905e-05
7.21935e-08
-1.60305e-05
6.69214e-08
-1.60667e-05
6.11016e-08
-1.61002e-05
5.62787e-08
-1.613e-05
5.0351e-08
-1.61559e-05
4.42242e-08
-1.61783e-05
3.83513e-08
-1.61966e-05
3.16269e-08
-1.62107e-05
2.44118e-08
-1.62199e-05
1.6964e-08
-1.62248e-05
9.69953e-09
-1.62253e-05
2.39148e-09
-1.62211e-05
-4.64214e-09
-1.62129e-05
-1.23581e-08
-1.61991e-05
-2.09856e-08
-1.61796e-05
-3.013e-08
-1.61554e-05
-3.82479e-08
-1.61264e-05
-4.58463e-08
-1.60929e-05
-5.32565e-08
-1.60541e-05
-6.179e-08
-1.601e-05
-7.09928e-08
-1.59601e-05
-8.01381e-08
-1.59061e-05
-8.7176e-08
-1.58478e-05
-9.3884e-08
-1.57848e-05
-1.0189e-07
-1.57159e-05
-1.1143e-07
-1.56426e-05
-1.18811e-07
-1.55651e-05
-1.25353e-07
-1.54845e-05
-1.30975e-07
-1.53985e-05
-1.39261e-07
-1.53078e-05
-1.4724e-07
-1.52134e-05
-1.5345e-07
-1.51156e-05
-1.58603e-07
-1.50136e-05
-1.65293e-07
-1.49076e-05
-1.72525e-07
-1.47975e-05
-1.78866e-07
-1.46844e-05
-1.83736e-07
-1.45674e-05
-1.89882e-07
-1.44462e-05
-1.9665e-07
-1.43218e-05
-2.02226e-07
-1.41942e-05
-2.06913e-07
-1.40635e-05
-2.12093e-07
-1.39294e-05
-2.17607e-07
-1.37929e-05
-2.2166e-07
-1.3654e-05
-2.25202e-07
-1.35123e-05
-2.29472e-07
-1.33688e-05
-2.32675e-07
-1.32237e-05
-2.34823e-07
-1.30771e-05
-2.3722e-07
-1.29294e-05
-2.38947e-07
-1.27803e-05
-2.4088e-07
-1.26303e-05
-2.42626e-07
-1.24779e-05
-2.46259e-07
-1.23226e-05
-2.50719e-07
-1.21622e-05
-2.58746e-07
-1.19929e-05
-2.73086e-07
-1.18104e-05
-2.94739e-07
-1.16058e-05
-3.30761e-07
-1.13656e-05
-3.88737e-07
-1.10698e-05
-4.80174e-07
-1.06857e-05
-6.24984e-07
-1.01619e-05
-8.55233e-07
-9.41112e-06
-1.22984e-06
-1.83721e-06
-2.44099e-05
2.6016e-07
-2.45449e-05
2.67048e-07
-2.4684e-05
2.74496e-07
-2.48218e-05
2.72365e-07
-2.49529e-05
2.6029e-07
-2.5083e-05
2.57734e-07
-2.52106e-05
2.53354e-07
-2.53361e-05
2.49926e-07
-2.546e-05
2.4655e-07
-2.55821e-05
2.43038e-07
-2.57015e-05
2.38628e-07
-2.58184e-05
2.33703e-07
-2.59328e-05
2.28508e-07
-2.60444e-05
2.23704e-07
-2.61527e-05
2.17746e-07
-2.62581e-05
2.11658e-07
-2.63602e-05
2.05298e-07
-2.64582e-05
1.98231e-07
-2.6553e-05
1.91735e-07
-2.66444e-05
1.84668e-07
-2.67308e-05
1.76126e-07
-2.68132e-05
1.67996e-07
-2.68918e-05
1.59624e-07
-2.6965e-05
1.50022e-07
-2.7033e-05
1.40102e-07
-2.70954e-05
1.29343e-07
-2.71527e-05
1.18313e-07
-2.72036e-05
1.07138e-07
-2.72494e-05
9.61612e-08
-2.7288e-05
8.2758e-08
-2.7321e-05
7.1399e-08
-2.73463e-05
5.68503e-08
-2.73646e-05
4.26684e-08
-2.73753e-05
2.76475e-08
-2.73779e-05
1.23028e-08
-2.73734e-05
-2.11336e-09
-2.73619e-05
-1.62113e-08
-2.73421e-05
-3.22235e-08
-2.73135e-05
-4.95937e-08
-2.72756e-05
-6.80497e-08
-2.72297e-05
-8.41095e-08
-2.71763e-05
-9.93018e-08
-2.7115e-05
-1.14593e-07
-2.70452e-05
-1.31599e-07
-2.69651e-05
-1.51113e-07
-2.68766e-05
-1.68676e-07
-2.67808e-05
-1.82985e-07
-2.66782e-05
-1.9648e-07
-2.6567e-05
-2.13088e-07
-2.64471e-05
-2.31385e-07
-2.63186e-05
-2.47257e-07
-2.61844e-05
-2.59578e-07
-2.60439e-05
-2.71533e-07
-2.58951e-05
-2.88054e-07
-2.57377e-05
-3.04669e-07
-2.55739e-05
-3.17242e-07
-2.54048e-05
-3.27739e-07
-2.52288e-05
-3.41296e-07
-2.50448e-05
-3.56545e-07
-2.48541e-05
-3.69615e-07
-2.46582e-05
-3.79653e-07
-2.44562e-05
-3.91915e-07
-2.42465e-05
-4.0634e-07
-2.40308e-05
-4.17944e-07
-2.38105e-05
-4.27248e-07
-2.35841e-05
-4.38452e-07
-2.33515e-05
-4.50208e-07
-2.31142e-05
-4.59005e-07
-2.28727e-05
-4.66653e-07
-2.26271e-05
-4.7511e-07
-2.23775e-05
-4.82262e-07
-2.21251e-05
-4.8723e-07
-2.18703e-05
-4.92097e-07
-2.16123e-05
-4.9688e-07
-2.1353e-05
-5.00204e-07
-2.10905e-05
-5.05148e-07
-2.08238e-05
-5.12978e-07
-2.05523e-05
-5.22269e-07
-2.02712e-05
-5.39776e-07
-1.99758e-05
-5.68508e-07
-1.96566e-05
-6.13983e-07
-1.92995e-05
-6.87826e-07
-1.88829e-05
-8.05363e-07
-1.83715e-05
-9.9155e-07
-1.77119e-05
-1.28465e-06
-1.6818e-05
-1.74911e-06
-1.55459e-05
-2.50197e-06
-3.71848e-06
-3.80978e-05
4.63454e-07
-3.83064e-05
4.75573e-07
-3.85199e-05
4.87958e-07
-3.87309e-05
4.83317e-07
-3.89321e-05
4.61424e-07
-3.91286e-05
4.54253e-07
-3.9324e-05
4.48641e-07
-3.95156e-05
4.41584e-07
-3.97032e-05
4.34088e-07
-3.98865e-05
4.26285e-07
-4.00669e-05
4.19052e-07
-4.02433e-05
4.10011e-07
-4.04141e-05
3.99268e-07
-4.05812e-05
3.90837e-07
-4.07427e-05
3.79147e-07
-4.08991e-05
3.68073e-07
-4.10493e-05
3.55416e-07
-4.11949e-05
3.43782e-07
-4.13343e-05
3.31159e-07
-4.1467e-05
3.17309e-07
-4.15937e-05
3.02833e-07
-4.17132e-05
2.87399e-07
-4.18249e-05
2.71321e-07
-4.19292e-05
2.54275e-07
-4.20255e-05
2.36381e-07
-4.21139e-05
2.17673e-07
-4.21929e-05
1.97301e-07
-4.2262e-05
1.76186e-07
-4.23214e-05
1.55602e-07
-4.23729e-05
1.34148e-07
-4.24126e-05
1.11117e-07
-4.24428e-05
8.69549e-08
-4.24606e-05
6.05034e-08
-4.24667e-05
3.37283e-08
-4.2461e-05
6.59447e-09
-4.24443e-05
-1.88885e-08
-4.24164e-05
-4.40577e-08
-4.23763e-05
-7.24239e-08
-4.23221e-05
-1.03767e-07
-4.22536e-05
-1.36564e-07
-4.2173e-05
-1.64777e-07
-4.20807e-05
-1.91645e-07
-4.19771e-05
-2.18214e-07
-4.18592e-05
-2.49474e-07
-4.17275e-05
-2.82791e-07
-4.1582e-05
-3.14218e-07
-4.14252e-05
-3.39799e-07
-4.12578e-05
-3.63893e-07
-4.10783e-05
-3.92655e-07
-4.08843e-05
-4.25338e-07
-4.06778e-05
-4.53749e-07
-4.04623e-05
-4.75173e-07
-4.02364e-05
-4.97398e-07
-3.99985e-05
-5.25949e-07
-3.97471e-05
-5.56086e-07
-3.9486e-05
-5.78372e-07
-3.92159e-05
-5.97852e-07
-3.8935e-05
-6.22222e-07
-3.86423e-05
-6.49301e-07
-3.83387e-05
-6.7326e-07
-3.80267e-05
-6.91651e-07
-3.7704e-05
-7.1461e-07
-3.73704e-05
-7.39975e-07
-3.7027e-05
-7.61297e-07
-3.66745e-05
-7.79797e-07
-3.63131e-05
-7.99885e-07
-3.5942e-05
-8.21287e-07
-3.55628e-05
-8.38221e-07
-3.5177e-05
-8.52472e-07
-3.47834e-05
-8.68708e-07
-3.43827e-05
-8.82909e-07
-3.39781e-05
-8.9191e-07
-3.35696e-05
-9.0056e-07
-3.31555e-05
-9.11005e-07
-3.27372e-05
-9.18508e-07
-3.23144e-05
-9.2794e-07
-3.18853e-05
-9.42054e-07
-3.14473e-05
-9.60359e-07
-3.09948e-05
-9.92258e-07
-3.05179e-05
-1.04544e-06
-3.00047e-05
-1.12717e-06
-2.94318e-05
-1.26068e-06
-2.87649e-05
-1.47236e-06
-2.79515e-05
-1.80492e-06
-2.69086e-05
-2.32758e-06
-2.55041e-05
-3.15353e-06
-2.35198e-05
-4.4863e-06
-6.6314e-06
-5.65813e-05
7.58844e-07
-5.68842e-05
7.78446e-07
-5.71935e-05
7.97124e-07
-5.74974e-05
7.87206e-07
-5.77872e-05
7.51193e-07
-5.80711e-05
7.3815e-07
-5.83493e-05
7.26733e-07
-5.86223e-05
7.14598e-07
-5.88893e-05
7.01091e-07
-5.91511e-05
6.87965e-07
-5.94056e-05
6.73527e-07
-5.96533e-05
6.57662e-07
-5.98953e-05
6.41243e-07
-6.01281e-05
6.236e-07
-6.03535e-05
6.04483e-07
-6.05694e-05
5.8401e-07
-6.07797e-05
5.65604e-07
-6.09788e-05
5.42902e-07
-6.11689e-05
5.21182e-07
-6.13498e-05
4.98127e-07
-6.152e-05
4.73063e-07
-6.16811e-05
4.48469e-07
-6.18301e-05
4.20216e-07
-6.19669e-05
3.9107e-07
-6.20926e-05
3.62074e-07
-6.22044e-05
3.29383e-07
-6.23029e-05
2.9577e-07
-6.23887e-05
2.61945e-07
-6.24597e-05
2.26598e-07
-6.25167e-05
1.91121e-07
-6.25587e-05
1.53e-07
-6.25852e-05
1.1343e-07
-6.25944e-05
6.96737e-08
-6.2586e-05
2.53161e-08
-6.25604e-05
-1.89854e-08
-6.25191e-05
-6.02434e-08
-6.24607e-05
-1.02464e-07
-6.23852e-05
-1.47976e-07
-6.22893e-05
-1.99701e-07
-6.21737e-05
-2.52168e-07
-6.20398e-05
-2.98766e-07
-6.18885e-05
-3.42913e-07
-6.17209e-05
-3.85833e-07
-6.15347e-05
-4.35697e-07
-6.13265e-05
-4.91045e-07
-6.10991e-05
-5.41678e-07
-6.08556e-05
-5.83256e-07
-6.0597e-05
-6.22539e-07
-6.03204e-05
-6.69284e-07
-6.00233e-05
-7.22384e-07
-5.97078e-05
-7.69284e-07
-5.93789e-05
-8.04075e-07
-5.90351e-05
-8.41296e-07
-5.86728e-05
-8.88222e-07
-5.82929e-05
-9.36051e-07
-5.78965e-05
-9.74757e-07
-5.7488e-05
-1.00634e-06
-5.70629e-05
-1.04742e-06
-5.66189e-05
-1.09325e-06
-5.61596e-05
-1.13259e-06
-5.56874e-05
-1.16383e-06
-5.51986e-05
-1.20345e-06
-5.46932e-05
-1.24543e-06
-5.41717e-05
-1.28277e-06
-5.36379e-05
-1.31365e-06
-5.30895e-05
-1.34825e-06
-5.25253e-05
-1.3855e-06
-5.19491e-05
-1.41445e-06
-5.13615e-05
-1.4401e-06
-5.07617e-05
-1.46856e-06
-5.01518e-05
-1.49279e-06
-4.9534e-05
-1.50967e-06
-4.89081e-05
-1.5265e-06
-4.82747e-05
-1.54442e-06
-4.76347e-05
-1.55847e-06
-4.69875e-05
-1.57517e-06
-4.63293e-05
-1.6003e-06
-4.56578e-05
-1.63184e-06
-4.4963e-05
-1.68705e-06
-4.42323e-05
-1.77615e-06
-4.34457e-05
-1.91388e-06
-4.25711e-05
-2.13524e-06
-4.15565e-05
-2.48696e-06
-4.03244e-05
-3.03702e-06
-3.87537e-05
-3.89827e-06
-3.66535e-05
-5.25376e-06
-3.37075e-05
-7.43233e-06
-1.09237e-05
-8.11643e-05
1.16997e-06
-8.15832e-05
1.19727e-06
-8.20094e-05
1.22323e-06
-8.24267e-05
1.20449e-06
-8.28228e-05
1.14725e-06
-8.32116e-05
1.12692e-06
-8.35918e-05
1.10693e-06
-8.39605e-05
1.08318e-06
-8.43225e-05
1.06308e-06
-8.46732e-05
1.03865e-06
-8.50159e-05
1.01625e-06
-8.53472e-05
9.88829e-07
-8.56676e-05
9.61646e-07
-8.59768e-05
9.32787e-07
-8.62751e-05
9.02776e-07
-8.65603e-05
8.69094e-07
-8.68315e-05
8.36851e-07
-8.70909e-05
8.02236e-07
-8.73363e-05
7.66469e-07
-8.75668e-05
7.28651e-07
-8.77849e-05
6.91119e-07
-8.79846e-05
6.48154e-07
-8.81691e-05
6.04628e-07
-8.8338e-05
5.59925e-07
-8.84892e-05
5.13262e-07
-8.86207e-05
4.60825e-07
-8.87341e-05
4.09181e-07
-8.88264e-05
3.54141e-07
-8.89018e-05
3.01983e-07
-8.89542e-05
2.43569e-07
-8.8988e-05
1.86736e-07
-8.8997e-05
1.22407e-07
-8.89843e-05
5.69317e-08
-8.89456e-05
-1.33784e-08
-8.88848e-05
-7.9843e-08
-8.87998e-05
-1.45315e-07
-8.8693e-05
-2.09242e-07
-8.85619e-05
-2.79177e-07
-8.84025e-05
-3.59032e-07
-8.82165e-05
-4.38231e-07
-8.80042e-05
-5.11055e-07
-8.77701e-05
-5.77045e-07
-8.75123e-05
-6.43644e-07
-8.72278e-05
-7.20245e-07
-8.69141e-05
-8.04775e-07
-8.65742e-05
-8.81549e-07
-8.6213e-05
-9.44496e-07
-8.58287e-05
-1.00684e-06
-8.54199e-05
-1.07815e-06
-8.49836e-05
-1.15867e-06
-8.45228e-05
-1.23008e-06
-8.40405e-05
-1.2864e-06
-8.35393e-05
-1.3425e-06
-8.30114e-05
-1.41612e-06
-8.24567e-05
-1.49079e-06
-8.18816e-05
-1.54989e-06
-8.12865e-05
-1.60144e-06
-8.06678e-05
-1.6662e-06
-8.00233e-05
-1.73774e-06
-7.93555e-05
-1.80043e-06
-7.86676e-05
-1.85177e-06
-7.79571e-05
-1.91389e-06
-7.722e-05
-1.9826e-06
-7.64607e-05
-2.04211e-06
-7.56802e-05
-2.0941e-06
-7.48784e-05
-2.15004e-06
-7.40531e-05
-2.21083e-06
-7.32088e-05
-2.25878e-06
-7.23475e-05
-2.30144e-06
-7.1468e-05
-2.34805e-06
-7.05707e-05
-2.39003e-06
-6.96617e-05
-2.41876e-06
-6.87386e-05
-2.44958e-06
-6.7805e-05
-2.47802e-06
-6.68596e-05
-2.50385e-06
-6.59021e-05
-2.53268e-06
-6.49284e-05
-2.57398e-06
-6.39332e-05
-2.62705e-06
-6.29049e-05
-2.71536e-06
-6.18222e-05
-2.85894e-06
-6.06603e-05
-3.07574e-06
-5.93689e-05
-3.42661e-06
-5.78769e-05
-3.97898e-06
-5.60727e-05
-4.8412e-06
-5.37867e-05
-6.18429e-06
-5.07482e-05
-8.29229e-06
-4.65172e-05
-1.16634e-05
-1.70403e-05
-0.000113159
1.7144e-06
-0.000113711
1.74945e-06
-0.000114269
1.78095e-06
-0.000114818
1.75309e-06
-0.000115335
1.66462e-06
-0.000115839
1.63081e-06
-0.00011633
1.5975e-06
-0.000116809
1.56257e-06
-0.000117272
1.52643e-06
-0.000117724
1.48997e-06
-0.000118161
1.45391e-06
-0.000118584
1.41166e-06
-0.00011899
1.36694e-06
-0.000119379
1.32231e-06
-0.000119752
1.27515e-06
-0.000120105
1.22238e-06
-0.000120442
1.17365e-06
-0.00012076
1.12043e-06
-0.00012106
1.06611e-06
-0.00012134
1.00907e-06
-0.000121599
9.49646e-07
-0.000121837
8.86622e-07
-0.000122052
8.19396e-07
-0.000122245
7.52339e-07
-0.000122412
6.80424e-07
-0.000122556
6.05299e-07
-0.000122671
5.24183e-07
-0.000122764
4.46458e-07
-0.000122826
3.63849e-07
-0.000122864
2.81721e-07
-0.000122871
1.93719e-07
-0.000122851
1.02314e-07
-0.000122797
3.1868e-09
-0.000122712
-9.86583e-08
-0.000122594
-1.97113e-07
-0.000122448
-2.91732e-07
-0.000122271
-3.8629e-07
-0.000122061
-4.89451e-07
-0.000121814
-6.05478e-07
-0.000121531
-7.21229e-07
-0.000121217
-8.25924e-07
-0.000120871
-9.22973e-07
-0.000120493
-1.02103e-06
-0.00012008
-1.13376e-06
-0.00011963
-1.25421e-06
-0.000119145
-1.36704e-06
-0.00011863
-1.45947e-06
-0.000118086
-1.55042e-06
-0.00011751
-1.6548e-06
-0.000116894
-1.77408e-06
-0.000116246
-1.87823e-06
-0.000115573
-1.95993e-06
-0.000114868
-2.04747e-06
-0.000114129
-2.15462e-06
-0.000113354
-2.26592e-06
-0.00011255
-2.35403e-06
-0.000111718
-2.43346e-06
-0.000110851
-2.53301e-06
-0.000109949
-2.6406e-06
-0.000109015
-2.73369e-06
-0.000108051
-2.81655e-06
-0.000107052
-2.91249e-06
-0.000106017
-3.01758e-06
-0.000104949
-3.1104e-06
-0.00010385
-3.19317e-06
-0.000102718
-3.28185e-06
-0.000101553
-3.37537e-06
-0.000100358
-3.45392e-06
-9.91361e-05
-3.52359e-06
-9.78861e-05
-3.59806e-06
-9.66119e-05
-3.66428e-06
-9.53147e-05
-3.71596e-06
-9.39993e-05
-3.76496e-06
-9.26633e-05
-3.81408e-06
-9.13094e-05
-3.85775e-06
-8.99359e-05
-3.90616e-06
-8.85385e-05
-3.97136e-06
-8.71093e-05
-4.05635e-06
-8.56298e-05
-4.19486e-06
-8.40748e-05
-4.41391e-06
-8.24041e-05
-4.74647e-06
-8.05527e-05
-5.27797e-06
-7.8417e-05
-6.11469e-06
-7.5845e-05
-7.41329e-06
-7.25995e-05
-9.4298e-06
-6.83109e-05
-1.25808e-05
-6.23811e-05
-1.75933e-05
-2.55453e-05
-0.000153526
2.40126e-06
-0.000154218
2.44218e-06
-0.000154916
2.4788e-06
-0.000155593
2.42978e-06
-0.000156236
2.30769e-06
-0.000156861
2.25598e-06
-0.000157468
2.2039e-06
-0.000158055
2.14989e-06
-0.000158626
2.09757e-06
-0.000159178
2.0418e-06
-0.000159709
1.98505e-06
-0.00016022
1.92282e-06
-0.000160712
1.85868e-06
-0.000161179
1.78884e-06
-0.000161624
1.72026e-06
-0.000162045
1.64327e-06
-0.000162442
1.57093e-06
-0.000162816
1.49429e-06
-0.000163166
1.41573e-06
-0.000163488
1.33121e-06
-0.000163783
1.24442e-06
-0.00016405
1.15416e-06
-0.000164289
1.05851e-06
-0.000164497
9.60058e-07
-0.000164674
8.57137e-07
-0.00016482
7.51309e-07
-0.000164931
6.3519e-07
-0.000165007
5.22543e-07
-0.000165052
4.09082e-07
-0.000165058
2.87355e-07
-0.000165032
1.68001e-07
-0.000164966
3.62995e-08
-0.000164859
-1.04369e-07
-0.00016471
-2.47014e-07
-0.000164523
-3.84852e-07
-0.000164297
-5.17295e-07
-0.000164033
-6.50406e-07
-0.000163727
-7.95858e-07
-0.000163376
-9.56028e-07
-0.000162976
-1.12117e-06
-0.000162536
-1.26596e-06
-0.000162059
-1.40074e-06
-0.000161539
-1.5404e-06
-0.000160976
-1.69653e-06
-0.000160365
-1.86556e-06
-0.000159709
-2.02353e-06
-0.000159015
-2.15353e-06
-0.000158284
-2.28149e-06
-0.000157507
-2.43088e-06
-0.000156683
-2.59853e-06
-0.000155818
-2.74282e-06
-0.000154914
-2.86453e-06
-0.000153973
-2.98837e-06
-0.000152984
-3.14378e-06
-0.000151949
-3.30109e-06
-0.000150872
-3.431e-06
-0.000149756
-3.54962e-06
-0.000148596
-3.69275e-06
-0.000147385
-3.85154e-06
-0.000146129
-3.9893e-06
-0.000144831
-4.11514e-06
-0.000143484
-4.25909e-06
-0.000142087
-4.41511e-06
-0.000140641
-4.55563e-06
-0.000139152
-4.68277e-06
-0.000137614
-4.81996e-06
-0.000136027
-4.96243e-06
-0.000134396
-5.08481e-06
-0.000132725
-5.19485e-06
-0.00013101
-5.31298e-06
-0.000129256
-5.41769e-06
-0.000127471
-5.5014e-06
-0.000125652
-5.58335e-06
-0.000123803
-5.66393e-06
-0.000121924
-5.73596e-06
-0.000120017
-5.8135e-06
-0.00011807
-5.91894e-06
-0.000116075
-6.0513e-06
-0.000114008
-6.26174e-06
-0.000111832
-6.58973e-06
-0.000109495
-7.08312e-06
-0.000106903
-7.86979e-06
-0.000103919
-9.09883e-06
-0.000100332
-1.10004e-05
-9.58213e-05
-1.39407e-05
-8.9888e-05
-1.85142e-05
-8.17348e-05
-2.57465e-05
-3.71447e-05
-0.000202529
-0.000203352
-0.000204173
-0.000204977
3.23343e-06
-0.000205739
3.06983e-06
-0.000206476
2.99253e-06
-0.000207192
2.92028e-06
-0.000207884
2.84123e-06
-0.000208551
2.76509e-06
-0.000209195
2.68591e-06
-0.000209817
2.60704e-06
-0.000210414
2.51934e-06
-0.000210983
2.42772e-06
-0.000211524
2.33032e-06
-0.000212035
2.23098e-06
-0.000212522
2.12996e-06
-0.000212976
2.02465e-06
-0.000213401
1.91911e-06
-0.000213793
1.8085e-06
-0.000214157
1.69445e-06
-0.000214488
1.57583e-06
-0.000214782
1.4483e-06
-0.000215042
1.31801e-06
-0.000215265
1.18306e-06
-0.000215451
1.04362e-06
-0.000215594
8.93942e-07
-0.0002157
7.40909e-07
-0.000215765
5.87387e-07
-0.000215786
4.29975e-07
-0.000215765
2.66747e-07
-0.000215699
1.01566e-07
-0.000215586
-7.60691e-08
-0.000215428
-2.63229e-07
-0.000215216
-4.58714e-07
-0.000214958
-6.42766e-07
-0.000214652
-8.23567e-07
-0.000214298
-1.00387e-06
-0.000213895
-1.19892e-06
-0.000213434
-1.41784e-06
-0.000212919
-1.63577e-06
-0.000212352
-1.83244e-06
-0.000211737
-2.01652e-06
-0.000211074
-2.20367e-06
-0.000210355
-2.41533e-06
-0.000209575
-2.64542e-06
-0.000208742
-2.85638e-06
-0.000207862
-3.03346e-06
-0.000206932
-3.21201e-06
-0.000205945
-3.41747e-06
-0.000204902
-3.64193e-06
-0.000203804
-3.84085e-06
-0.000202656
-4.01175e-06
-0.000201459
-4.18621e-06
-0.000200203
-4.39993e-06
-0.000198884
-4.61927e-06
-0.000197513
-4.8026e-06
-0.000196089
-4.97369e-06
-0.000194602
-5.17934e-06
-0.000193052
-5.40156e-06
-0.00019144
-5.60125e-06
-0.000189769
-5.78623e-06
-0.000188032
-5.9966e-06
-0.000186225
-6.22148e-06
-0.000184352
-6.42924e-06
-0.000182414
-6.62045e-06
-0.000180408
-6.82625e-06
-0.000178334
-7.03602e-06
-0.000176196
-7.22265e-06
-0.000173996
-7.39537e-06
-0.000171733
-7.57615e-06
-0.000169412
-7.73806e-06
-0.00016704
-7.87348e-06
-0.000164615
-8.00875e-06
-0.000162143
-8.13569e-06
-0.000159624
-8.25493e-06
-0.000157056
-8.38214e-06
-0.000154429
-8.54574e-06
-0.000151729
-8.75121e-06
-0.000148924
-9.0666e-06
-0.000145965
-9.54859e-06
-0.000142778
-1.02701e-05
-0.00013924
-1.14083e-05
-0.00013516
-1.31784e-05
-0.000130257
-1.59041e-05
-0.000124099
-2.00979e-05
-0.000116026
-2.6587e-05
-0.000104995
-3.67783e-05
-5.27145e-05
-0.000262642
4.14151e-06
-0.000263508
3.93486e-06
-0.000264345
3.82988e-06
-0.000265157
3.73271e-06
-0.000265943
3.62643e-06
-0.000266703
3.52504e-06
-0.000267436
3.41916e-06
-0.000268141
3.31234e-06
-0.000268816
3.19443e-06
-0.000269459
3.07074e-06
-0.000270073
2.94438e-06
-0.000270653
2.81025e-06
-0.000271199
2.67626e-06
-0.000271713
2.53847e-06
-0.00027219
2.3964e-06
-0.000272635
2.25319e-06
-0.000273043
2.10265e-06
-0.000273412
1.94469e-06
-0.000273742
1.77877e-06
-0.00027403
1.60592e-06
-0.000274277
1.42927e-06
-0.000274479
1.24637e-06
-0.000274638
1.05249e-06
-0.000274745
8.48035e-07
-0.000274807
6.49122e-07
-0.000274819
4.42437e-07
-0.000274785
2.31953e-07
-0.000274698
1.47839e-08
-0.000274556
-2.17638e-07
-0.000274356
-4.63836e-07
-0.0002741
-7.14826e-07
-0.000273787
-9.55258e-07
-0.000273419
-1.1922e-06
-0.000272995
-1.42788e-06
-0.000272511
-1.68282e-06
-0.00027196
-1.96822e-06
-0.000271344
-2.25258e-06
-0.000270668
-2.50794e-06
-0.000269935
-2.74915e-06
-0.000269142
-2.99742e-06
-0.000268281
-3.27625e-06
-0.000267352
-3.57431e-06
-0.000266358
-3.85038e-06
-0.000265301
-4.09003e-06
-0.000264189
-4.32412e-06
-0.000263007
-4.59943e-06
-0.000261754
-4.89494e-06
-0.000260432
-5.16363e-06
-0.000259052
-5.39117e-06
-0.000257608
-5.63063e-06
-0.000256088
-5.92019e-06
-0.000254493
-6.21365e-06
-0.000252829
-6.4671e-06
-0.000251094
-6.70862e-06
-0.000249284
-6.98933e-06
-0.000247387
-7.29801e-06
-0.000245411
-7.57748e-06
-0.000243356
-7.84137e-06
-0.000241215
-8.13754e-06
-0.000238981
-8.45545e-06
-0.000236657
-8.75308e-06
-0.000234246
-9.03165e-06
-0.000231741
-9.33142e-06
-0.000229142
-9.63501e-06
-0.000226452
-9.91302e-06
-0.000223673
-1.01742e-05
-0.000220804
-1.04449e-05
-0.000217852
-1.06897e-05
-0.000214817
-1.09091e-05
-0.000211709
-1.11166e-05
-0.000208522
-1.13223e-05
-0.000205261
-1.15162e-05
-0.000201923
-1.17208e-05
-0.000198495
-1.19732e-05
-0.000194956
-1.22904e-05
-0.000191261
-1.27619e-05
-0.000187348
-1.34616e-05
-0.000183115
-1.45029e-05
-0.000178393
-1.613e-05
-0.00017293
-1.86417e-05
-0.000166344
-2.24896e-05
-0.000158072
-2.83703e-05
-0.000147243
-3.74166e-05
-0.000132518
-5.15031e-05
-7.3321e-05
-0.000328419
5.13754e-06
-0.000329379
4.89477e-06
-0.000330312
4.76253e-06
-0.000331211
4.63156e-06
-0.000332085
4.50067e-06
-0.000332927
4.36678e-06
-0.000333743
4.23555e-06
-0.000334528
4.09673e-06
-0.00033528
3.94716e-06
-0.000336002
3.79192e-06
-0.000336686
3.62919e-06
-0.000337338
3.46158e-06
-0.000337947
3.28591e-06
-0.000338526
3.11658e-06
-0.000339068
2.93881e-06
-0.000339569
2.754e-06
-0.00034003
2.56377e-06
-0.000340448
2.36274e-06
-0.000340823
2.15386e-06
-0.000341155
1.93796e-06
-0.000341442
1.71546e-06
-0.000341677
1.48187e-06
-0.000341861
1.23622e-06
-0.000341995
9.81762e-07
-0.000342073
7.27841e-07
-0.000342101
4.70097e-07
-0.00034207
2.00396e-07
-0.000341982
-7.27351e-08
-0.000341835
-3.64411e-07
-0.000341622
-6.76753e-07
-0.000341345
-9.92652e-07
-0.000341002
-1.2975e-06
-0.0003406
-1.59509e-06
-0.000340134
-1.8933e-06
-0.000339597
-2.22035e-06
-0.000338985
-2.58039e-06
-0.000338301
-2.93627e-06
-0.000337542
-3.26662e-06
-0.000336719
-3.57212e-06
-0.000335826
-3.89073e-06
-0.000334857
-4.24539e-06
-0.000333803
-4.62779e-06
-0.000332671
-4.98277e-06
-0.000331474
-5.28704e-06
-0.000330203
-5.5955e-06
-0.000328852
-5.94971e-06
-0.000327415
-6.33212e-06
-0.000325899
-6.67937e-06
-0.000324309
-6.98194e-06
-0.000322641
-7.29861e-06
-0.000320881
-7.68012e-06
-0.000319028
-8.06662e-06
-0.000317093
-8.40228e-06
-0.000315071
-8.7301e-06
-0.00031295
-9.11068e-06
-0.000310727
-9.52057e-06
-0.000308403
-9.90239e-06
-0.000305978
-1.02658e-05
-0.000303442
-1.06734e-05
-0.000300788
-1.11094e-05
-0.00029802
-1.1521e-05
-0.000295135
-1.19168e-05
-0.000292132
-1.23348e-05
-0.000289
-1.27671e-05
-0.000285747
-1.31664e-05
-0.000282372
-1.3549e-05
-0.000278873
-1.39432e-05
-0.000275254
-1.43089e-05
-0.000271523
-1.46406e-05
-0.000267676
-1.49636e-05
-0.000263714
-1.52838e-05
-0.000259641
-1.55892e-05
-0.000255449
-1.59135e-05
-0.000251117
-1.63044e-05
-0.000246619
-1.67884e-05
-0.000241895
-1.74861e-05
-0.000236856
-1.85004e-05
-0.000231367
-1.99923e-05
-0.000225199
-2.22979e-05
-0.000218014
-2.58273e-05
-0.00020931
-3.1193e-05
-0.000198341
-3.93391e-05
-0.000183989
-5.17694e-05
-0.000164566
-7.09258e-05
-0.000100244
-0.000402849
6.21419e-06
-0.000403895
5.94094e-06
-0.00040491
5.77762e-06
-0.000405896
5.61787e-06
-0.000406853
5.45701e-06
-0.00040778
5.29405e-06
-0.000408675
5.13073e-06
-0.000409536
4.95771e-06
-0.000410369
4.78004e-06
-0.000411164
4.58687e-06
-0.000411922
4.38669e-06
-0.000412643
4.18261e-06
-0.000413328
3.97108e-06
-0.000413974
3.76279e-06
-0.00041458
3.54505e-06
-0.000415148
3.32205e-06
-0.000415669
3.08453e-06
-0.000416148
2.8415e-06
-0.000416583
2.58902e-06
-0.000416966
2.32096e-06
-0.000417297
2.0466e-06
-0.000417581
1.76578e-06
-0.00041781
1.46504e-06
-0.000417982
1.15401e-06
-0.000418098
8.43203e-07
-0.000418153
5.25431e-07
-0.00041815
1.96987e-07
-0.000418082
-1.39872e-07
-0.000417949
-4.97659e-07
-0.000417748
-8.78321e-07
-0.000417471
-1.26957e-06
-0.000417125
-1.6435e-06
-0.00041671
-2.01039e-06
-0.000416222
-2.38124e-06
-0.000415662
-2.78026e-06
-0.000415015
-3.22715e-06
-0.00041428
-3.6711e-06
-0.000413471
-4.07578e-06
-0.000412586
-4.45701e-06
-0.00041162
-4.85728e-06
-0.000410566
-5.29924e-06
-0.000409416
-5.77762e-06
-0.000408183
-6.21592e-06
-0.000406866
-6.60427e-06
-0.000405467
-6.99455e-06
-0.000403971
-7.44493e-06
-0.000402377
-7.92688e-06
-0.000400692
-8.36345e-06
-0.00039892
-8.75401e-06
-0.000397053
-9.1662e-06
-0.000395079
-9.65402e-06
-0.000392998
-1.0148e-05
-0.000390814
-1.05857e-05
-0.000388526
-1.10181e-05
-0.000386121
-1.15163e-05
-0.000383593
-1.20479e-05
-0.000380944
-1.25517e-05
-0.00037817
-1.30397e-05
-0.000375262
-1.35818e-05
-0.00037221
-1.41616e-05
-0.000369016
-1.47147e-05
-0.000365677
-1.52561e-05
-0.000362182
-1.58289e-05
-0.000358532
-1.64174e-05
-0.000354723
-1.69755e-05
-0.000350758
-1.75143e-05
-0.000346627
-1.80735e-05
-0.000342338
-1.8598e-05
-0.000337893
-1.90856e-05
-0.000333287
-1.95701e-05
-0.000328521
-2.00498e-05
-0.000323592
-2.05182e-05
-0.000318483
-2.10223e-05
-0.000313173
-2.16151e-05
-0.000307614
-2.23469e-05
-0.000301728
-2.33719e-05
-0.000295393
-2.48355e-05
-0.000288421
-2.6964e-05
-0.000280506
-3.02135e-05
-0.000271195
-3.51382e-05
-0.000259825
-4.2563e-05
-0.000245435
-5.37295e-05
-0.000226603
-7.06011e-05
-0.000201259
-9.62697e-05
-0.000134984
-0.000487161
7.36915e-06
-0.000488292
7.07215e-06
-0.000489389
6.87492e-06
-0.000490455
6.68364e-06
-0.000491491
6.49271e-06
-0.000492498
6.30072e-06
-0.000493475
6.10814e-06
-0.000494417
5.90005e-06
-0.000495321
5.6833e-06
-0.00049619
5.45667e-06
-0.000497026
5.22255e-06
-0.000497821
4.97683e-06
-0.000498578
4.72798e-06
-0.00049929
4.47533e-06
-0.000499968
4.22253e-06
-0.000500598
3.9526e-06
-0.000501189
3.67575e-06
-0.000501732