/*--------------------------------*- C++ -*----------------------------------*\
| =========                 |                                                 |
| \\      /  F ield         | OpenFOAM: The Open Source CFD Toolbox           |
|  \\    /   O peration     | Version:  2412                                  |
|   \\  /    A nd           | Website:  www.openfoam.com                      |
|    \\/     M anipulation  |                                                 |
\*---------------------------------------------------------------------------*/
FoamFile
{
    version     2.0;
    format      ascii;
    arch        "LSB;label=32;scalar=64";
    class       surfaceScalarField;
    location    "500";
    object      phi;
}
// * * * * * * * * * * * * * * * * * * * * * * * * * * * * * * * * * * * * * //

dimensions      [0 3 -1 0 0 0 0];

oriented        oriented;

internalField   nonuniform List<scalar> 
14564
(
-2.68571e-06
4.52949e-09
-2.69032e-06
4.587e-09
-2.69503e-06
4.70542e-09
-2.69964e-06
4.62505e-09
-2.70431e-06
4.62805e-09
-2.70906e-06
4.73923e-09
-2.71383e-06
4.76378e-09
-2.71852e-06
4.68939e-09
-2.72331e-06
4.77502e-09
-2.7282e-06
4.88921e-09
-2.73312e-06
4.91113e-09
-2.73803e-06
4.89761e-09
-2.74284e-06
4.80126e-09
-2.7477e-06
4.85512e-09
-2.7526e-06
4.89492e-09
-2.75746e-06
4.84675e-09
-2.76215e-06
4.68105e-09
-2.76667e-06
4.51713e-09
-2.7712e-06
4.51802e-09
-2.77564e-06
4.43546e-09
-2.77967e-06
4.01786e-09
-2.78339e-06
3.71264e-09
-2.78688e-06
3.48783e-09
-2.79e-06
3.10739e-09
-2.79255e-06
2.54409e-09
-2.79453e-06
1.9726e-09
-2.79588e-06
1.34001e-09
-2.79646e-06
5.64588e-10
-2.79606e-06
-4.05184e-10
-2.79466e-06
-1.41347e-09
-2.79213e-06
-2.54219e-09
-2.78806e-06
-4.07865e-09
-2.78239e-06
-5.68415e-09
-2.77502e-06
-7.37767e-09
-2.76559e-06
-9.44704e-09
-2.75375e-06
-1.18491e-08
-2.73931e-06
-1.4452e-08
-2.72196e-06
-1.73613e-08
-2.70125e-06
-2.07278e-08
-2.67687e-06
-2.43964e-08
-2.64827e-06
-2.86077e-08
-2.6152e-06
-3.30763e-08
-2.57709e-06
-3.81276e-08
-2.53357e-06
-4.35286e-08
-2.48402e-06
-4.95682e-08
-2.428e-06
-5.60212e-08
-2.36535e-06
-6.26624e-08
-2.29586e-06
-6.94938e-08
-2.2199e-06
-7.59751e-08
-2.13852e-06
-8.13841e-08
-2.05339e-06
-8.51312e-08
-1.96743e-06
-8.59666e-08
-1.88361e-06
-8.3831e-08
-1.80343e-06
-8.01823e-08
-1.72589e-06
-7.75543e-08
-1.64503e-06
-8.08595e-08
-1.54929e-06
-9.5748e-08
-1.42036e-06
-1.28933e-07
-1.22984e-06
-1.90523e-07
-9.32565e-07
-2.97282e-07
-4.52641e-07
-4.79925e-07
3.03668e-07
-7.56308e-07
1.5014e-06
-1.19773e-06
3.50635e-06
-2.00494e-06
6.69411e-06
-3.18775e-06
1.15764e-05
-4.8823e-06
1.76077e-05
-6.03121e-06
-4.75984e-06
-9.52324e-06
2.07837e-08
-9.5396e-06
2.09103e-08
-9.5556e-06
2.06955e-08
-9.57183e-06
2.08711e-08
-9.58869e-06
2.14337e-08
-9.60527e-06
2.12999e-08
-9.62172e-06
2.1209e-08
-9.63863e-06
2.15783e-08
-9.6553e-06
2.14318e-08
-9.67216e-06
2.17397e-08
-9.68932e-06
2.20598e-08
-9.70677e-06
2.23352e-08
-9.72389e-06
2.19084e-08
-9.74049e-06
2.14382e-08
-9.75737e-06
2.17654e-08
-9.7744e-06
2.18602e-08
-9.79075e-06
2.10144e-08
-9.80647e-06
2.02309e-08
-9.822e-06
2.00331e-08
-9.83716e-06
1.95786e-08
-9.85119e-06
1.80314e-08
-9.86396e-06
1.64776e-08
-9.87587e-06
1.53807e-08
-9.88622e-06
1.34405e-08
-9.89479e-06
1.10941e-08
-9.90104e-06
8.2141e-09
-9.90526e-06
5.53964e-09
-9.90645e-06
1.73726e-09
-9.90404e-06
-2.83344e-09
-9.89814e-06
-7.32344e-09
-9.88809e-06
-1.26076e-08
-9.87295e-06
-1.92425e-08
-9.85188e-06
-2.67752e-08
-9.82442e-06
-3.48568e-08
-9.7898e-06
-4.4093e-08
-9.74668e-06
-5.49824e-08
-9.6942e-06
-6.69604e-08
-9.63105e-06
-8.05265e-08
-9.55593e-06
-9.58731e-08
-9.4677e-06
-1.12656e-07
-9.36471e-06
-1.31612e-07
-9.24544e-06
-1.52368e-07
-9.1082e-06
-1.75398e-07
-8.95118e-06
-2.00555e-07
-8.77297e-06
-2.27811e-07
-8.57174e-06
-2.57262e-07
-8.34672e-06
-2.87694e-07
-8.09717e-06
-3.19058e-07
-7.82451e-06
-3.48644e-07
-7.53249e-06
-3.7342e-07
-7.22677e-06
-3.9086e-07
-6.91763e-06
-3.95112e-07
-6.61566e-06
-3.85816e-07
-6.32654e-06
-3.69314e-07
-6.04629e-06
-3.57813e-07
-5.75449e-06
-3.72671e-07
-5.41088e-06
-4.39371e-07
-4.95183e-06
-5.8799e-07
-4.27867e-06
-8.63695e-07
-3.23678e-06
-1.33918e-06
-1.56684e-06
-2.14986e-06
1.04462e-06
-3.36778e-06
5.15174e-06
-5.30484e-06
1.1968e-05
-8.82122e-06
2.27146e-05
-1.39343e-05
3.90704e-05
-2.1238e-05
5.91861e-05
-2.61468e-05
-2.11868e-05
-1.90867e-05
5.27484e-08
-1.91191e-05
5.32225e-08
-1.91515e-05
5.3133e-08
-1.91839e-05
5.32688e-08
-1.92163e-05
5.37423e-08
-1.925e-05
5.49946e-08
-1.92834e-05
5.46146e-08
-1.93162e-05
5.43628e-08
-1.93491e-05
5.43325e-08
-1.93827e-05
5.53078e-08
-1.94175e-05
5.68101e-08
-1.94508e-05
5.56329e-08
-1.94845e-05
5.56255e-08
-1.95176e-05
5.45198e-08
-1.95512e-05
5.52943e-08
-1.95848e-05
5.54513e-08
-1.96167e-05
5.29429e-08
-1.96477e-05
5.12342e-08
-1.96782e-05
5.04987e-08
-1.97075e-05
4.88424e-08
-1.97346e-05
4.50986e-08
-1.97596e-05
4.14749e-08
-1.97821e-05
3.78834e-08
-1.98018e-05
3.3148e-08
-1.98172e-05
2.64316e-08
-1.9829e-05
2.00029e-08
-1.98359e-05
1.24266e-08
-1.98366e-05
2.43734e-09
-1.98307e-05
-8.76646e-09
-1.98175e-05
-2.04888e-08
-1.97952e-05
-3.49409e-08
-1.97627e-05
-5.1759e-08
-1.97186e-05
-7.08694e-08
-1.96618e-05
-9.16879e-08
-1.95894e-05
-1.16549e-07
-1.95005e-05
-1.4385e-07
-1.93922e-05
-1.7529e-07
-1.92632e-05
-2.09555e-07
-1.91098e-05
-2.49337e-07
-1.89297e-05
-2.92806e-07
-1.87199e-05
-3.41431e-07
-1.8477e-05
-3.95279e-07
-1.81976e-05
-4.5483e-07
-1.78791e-05
-5.19068e-07
-1.75166e-05
-5.90315e-07
-1.71084e-05
-6.65516e-07
-1.66515e-05
-7.44566e-07
-1.61455e-05
-8.2507e-07
-1.55935e-05
-9.00648e-07
-1.50011e-05
-9.65827e-07
-1.43809e-05
-1.01105e-06
-1.37539e-05
-1.02217e-06
-1.31399e-05
-9.99821e-07
-1.25512e-05
-9.57991e-07
-1.19804e-05
-9.28658e-07
-1.13864e-05
-9.66686e-07
-1.069e-05
-1.13573e-06
-9.76619e-06
-1.51186e-06
-8.4225e-06
-2.20739e-06
-6.35744e-06
-3.40424e-06
-3.07174e-06
-5.43556e-06
2.03017e-06
-8.46969e-06
9.99655e-06
-1.32712e-05
2.31066e-05
-2.19313e-05
4.36079e-05
-3.44356e-05
7.45616e-05
-5.21916e-05
0.000112553
-6.41385e-05
-5.30597e-05
-3.22345e-05
1.06976e-07
-3.22888e-05
1.0741e-07
-3.23429e-05
1.07204e-07
-3.23973e-05
1.07731e-07
-3.24526e-05
1.08994e-07
-3.25078e-05
1.10165e-07
-3.25632e-05
1.09951e-07
-3.26191e-05
1.10293e-07
-3.26744e-05
1.09636e-07
-3.27304e-05
1.11279e-07
-3.2787e-05
1.13335e-07
-3.28442e-05
1.1283e-07
-3.28995e-05
1.10898e-07
-3.29549e-05
1.09954e-07
-3.301e-05
1.1041e-07
-3.30654e-05
1.10844e-07
-3.31185e-05
1.06013e-07
-3.31696e-05
1.02253e-07
-3.32198e-05
1.00745e-07
-3.32678e-05
9.67799e-08
-3.33118e-05
8.91447e-08
-3.33524e-05
8.19909e-08
-3.33891e-05
7.45507e-08
-3.34204e-05
6.44583e-08
-3.34443e-05
5.03615e-08
-3.34612e-05
3.68085e-08
-3.3471e-05
2.22833e-08
-3.34701e-05
1.46115e-09
-3.34575e-05
-2.13557e-08
-3.34319e-05
-4.61358e-08
-3.3391e-05
-7.58544e-08
-3.33328e-05
-1.09988e-07
-3.3255e-05
-1.48658e-07
-3.31543e-05
-1.92403e-07
-3.30293e-05
-2.41568e-07
-3.28738e-05
-2.99385e-07
-3.26873e-05
-3.61886e-07
-3.24631e-05
-4.33706e-07
-3.21989e-05
-5.13573e-07
-3.18886e-05
-6.0317e-07
-3.15277e-05
-7.02386e-07
-3.1111e-05
-8.12009e-07
-3.06331e-05
-9.32696e-07
-3.00865e-05
-1.06575e-06
-2.94673e-05
-1.20948e-06
-2.87692e-05
-1.36367e-06
-2.79885e-05
-1.52532e-06
-2.71239e-05
-1.68968e-06
-2.61793e-05
-1.84519e-06
-2.51668e-05
-1.97839e-06
-2.41068e-05
-2.07107e-06
-2.30328e-05
-2.09612e-06
-2.19807e-05
-2.05192e-06
-2.09699e-05
-1.96885e-06
-1.99878e-05
-1.91072e-06
-1.89682e-05
-1.98631e-06
-1.77784e-05
-2.32562e-06
-1.62116e-05
-3.07861e-06
-1.39514e-05
-4.4676e-06
-1.05058e-05
-6.84983e-06
-5.06742e-06
-1.0874e-05
3.31105e-06
-1.68482e-05
1.62834e-05
-2.62435e-05
3.74216e-05
-4.30695e-05
7.01597e-05
-6.71737e-05
0.000119019
-0.000101051
0.000178746
-0.000123866
-0.000104199
-5.00397e-05
1.90703e-07
-5.01239e-05
1.91648e-07
-5.02067e-05
1.89955e-07
-5.02894e-05
1.90461e-07
-5.03742e-05
1.93729e-07
-5.04606e-05
1.96489e-07
-5.05459e-05
1.95276e-07
-5.06297e-05
1.94117e-07
-5.07145e-05
1.94342e-07
-5.08014e-05
1.98238e-07
-5.0888e-05
1.99854e-07
-5.09735e-05
1.98356e-07
-5.10581e-05
1.95482e-07
-5.11425e-05
1.94322e-07
-5.12285e-05
1.96372e-07
-5.13114e-05
1.93703e-07
-5.13917e-05
1.86377e-07
-5.14692e-05
1.79672e-07
-5.1544e-05
1.75535e-07
-5.16167e-05
1.69474e-07
-5.16826e-05
1.55e-07
-5.17422e-05
1.41637e-07
-5.17964e-05
1.28748e-07
-5.18413e-05
1.09308e-07
-5.18758e-05
8.48348e-08
-5.18997e-05
6.07238e-08
-5.19103e-05
3.28314e-08
-5.19046e-05
-4.26659e-09
-5.18805e-05
-4.54878e-08
-5.18361e-05
-9.05808e-08
-5.17683e-05
-1.43626e-07
-5.16721e-05
-2.06184e-07
-5.15464e-05
-2.74456e-07
-5.13844e-05
-3.54392e-07
-5.1182e-05
-4.44006e-07
-5.09356e-05
-5.45763e-07
-5.06379e-05
-6.59614e-07
-5.02837e-05
-7.8799e-07
-4.9865e-05
-9.32234e-07
-4.93747e-05
-1.09358e-06
-4.88058e-05
-1.27129e-06
-4.8149e-05
-1.46881e-06
-4.73955e-05
-1.68626e-06
-4.65361e-05
-1.9251e-06
-4.55622e-05
-2.18338e-06
-4.44642e-05
-2.46173e-06
-4.32375e-05
-2.75203e-06
-4.18797e-05
-3.04748e-06
-4.03967e-05
-3.32824e-06
-3.88059e-05
-3.56924e-06
-3.71381e-05
-3.7388e-06
-3.54476e-05
-3.7867e-06
-3.37873e-05
-3.7122e-06
-3.21896e-05
-3.56659e-06
-3.0636e-05
-3.46428e-06
-2.9024e-05
-3.59834e-06
-2.71528e-05
-4.19681e-06
-2.4708e-05
-5.52349e-06
-2.12129e-05
-7.96264e-06
-1.59316e-05
-1.21311e-05
-7.67037e-06
-1.91353e-05
4.94417e-06
-2.94627e-05
2.4283e-05
-4.55824e-05
5.54287e-05
-7.42152e-05
0.000103091
-0.000114836
0.000173108
-0.000171068
0.000257974
-0.000208732
-0.000177421
-7.37719e-05
3.10968e-07
-7.38932e-05
3.12859e-07
-7.40147e-05
3.11516e-07
-7.41363e-05
3.12067e-07
-7.42598e-05
3.1717e-07
-7.43827e-05
3.19353e-07
-7.4507e-05
3.19554e-07
-7.46302e-05
3.17238e-07
-7.4753e-05
3.17127e-07
-7.48766e-05
3.21875e-07
-7.50027e-05
3.25936e-07
-7.51274e-05
3.23009e-07
-7.52498e-05
3.17822e-07
-7.53704e-05
3.14993e-07
-7.54919e-05
3.17775e-07
-7.56124e-05
3.14189e-07
-7.57269e-05
3.00901e-07
-7.58363e-05
2.89074e-07
-7.59444e-05
2.83551e-07
-7.60462e-05
2.71315e-07
-7.61392e-05
2.4794e-07
-7.62234e-05
2.25781e-07
-7.62984e-05
2.03792e-07
-7.63598e-05
1.70713e-07
-7.64045e-05
1.29489e-07
-7.64336e-05
8.97798e-08
-7.64437e-05
4.29155e-08
-7.64288e-05
-1.92191e-08
-7.63871e-05
-8.72034e-08
-7.63159e-05
-1.61817e-07
-7.62077e-05
-2.51844e-07
-7.60604e-05
-3.53496e-07
-7.5865e-05
-4.69859e-07
-7.56192e-05
-6.00273e-07
-7.5314e-05
-7.49169e-07
-7.49422e-05
-9.17599e-07
-7.44936e-05
-1.1083e-06
-7.39617e-05
-1.31989e-06
-7.33349e-05
-1.55909e-06
-7.26025e-05
-1.82597e-06
-7.17521e-05
-2.12177e-06
-7.0773e-05
-2.44791e-06
-6.96491e-05
-2.8102e-06
-6.83698e-05
-3.20437e-06
-6.69189e-05
-3.63433e-06
-6.52856e-05
-4.0951e-06
-6.34591e-05
-4.57853e-06
-6.14369e-05
-5.06974e-06
-5.9227e-05
-5.53808e-06
-5.68524e-05
-5.94387e-06
-5.43639e-05
-6.22731e-06
-5.1835e-05
-6.31564e-06
-4.93467e-05
-6.20051e-06
-4.69459e-05
-5.96744e-06
-4.46078e-05
-5.80239e-06
-4.21836e-05
-6.02257e-06
-3.93838e-05
-6.99664e-06
-3.57555e-05
-9.15181e-06
-3.06172e-05
-1.3101e-05
-2.29256e-05
-1.98227e-05
-1.10151e-05
-3.10458e-05
6.98905e-06
-4.74669e-05
3.42759e-05
-7.28692e-05
7.76181e-05
-0.000117557
0.000142985
-0.000180203
0.000237156
-0.000265238
0.000349933
-0.000321508
-0.000274277
-0.00010477
4.79362e-07
-0.00010494
4.82954e-07
-0.000105107
4.78547e-07
-0.000105276
4.80486e-07
-0.000105446
4.87133e-07
-0.000105619
4.92403e-07
-0.00010579
4.90737e-07
-0.000105958
4.85623e-07
-0.000106128
4.87172e-07
-0.0001063
4.93183e-07
-0.000106473
4.99341e-07
-0.000106645
4.94368e-07
-0.000106812
4.85155e-07
-0.000106978
4.80889e-07
-0.000107145
4.84669e-07
-0.00010731
4.79524e-07
-0.000107466
4.57123e-07
-0.000107615
4.38144e-07
-0.000107761
4.29389e-07
-0.000107899
4.09492e-07
-0.000108024
3.7202e-07
-0.000108135
3.37477e-07
-0.000108234
3.02729e-07
-0.000108313
2.49097e-07
-0.00010837
1.86965e-07
-0.000108402
1.21877e-07
-0.000108408
4.8872e-08
-0.000108379
-4.81729e-08
-0.000108313
-1.53874e-07
-0.000108202
-2.72772e-07
-0.000108042
-4.12015e-07
-0.000107822
-5.72979e-07
-0.000107539
-7.52996e-07
-0.000107182
-9.56867e-07
-0.000106741
-1.19075e-06
-0.000106206
-1.45216e-06
-0.000105564
-1.75087e-06
-0.000104802
-2.08193e-06
-0.000103906
-2.45442e-06
-0.000102861
-2.87122e-06
-0.000101649
-3.33396e-06
-0.000100252
-3.84459e-06
-9.86534e-05
-4.4093e-06
-9.68296e-05
-5.02816e-06
-9.47628e-05
-5.70113e-06
-9.24337e-05
-6.42422e-06
-8.98272e-05
-7.1851e-06
-8.69382e-05
-7.95867e-06
-8.3778e-05
-8.69832e-06
-8.03798e-05
-9.34212e-06
-7.68062e-05
-9.80092e-06
-7.31669e-05
-9.95497e-06
-6.95742e-05
-9.79317e-06
-6.6097e-05
-9.44473e-06
-6.27013e-05
-9.19812e-06
-5.91836e-05
-9.54026e-06
-5.51365e-05
-1.10437e-05
-4.99333e-05
-1.4355e-05
-4.26345e-05
-2.03997e-05
-3.18174e-05
-3.06399e-05
-1.52519e-05
-4.76112e-05
9.50468e-06
-7.22235e-05
4.65347e-05
-0.000109899
0.000104411
-0.000175434
0.000190248
-0.000266039
0.000311217
-0.000386208
0.000454302
-0.000464593
-0.000396078
-0.000144117
7.01983e-07
-0.000144342
7.07138e-07
-0.000144565
7.01857e-07
-0.000144787
7.02868e-07
-0.000145012
7.12116e-07
-0.000145237
7.17304e-07
-0.000145463
7.16747e-07
-0.000145687
7.09413e-07
-0.000145911
7.10642e-07
-0.000146137
7.19586e-07
-0.000146364
7.2606e-07
-0.000146588
7.18315e-07
-0.000146808
7.04923e-07
-0.000147027
7.00123e-07
-0.000147244
7.01396e-07
-0.000147456
6.91964e-07
-0.000147661
6.61907e-07
-0.000147854
6.31653e-07
-0.000148043
6.18085e-07
-0.000148219
5.85516e-07
-0.000148379
5.31972e-07
-0.000148521
4.79375e-07
-0.000148646
4.27658e-07
-0.000148743
3.46366e-07
-0.000148808
2.52016e-07
-0.000148845
1.58105e-07
-0.000148841
4.49289e-08
-0.000148793
-9.61064e-08
-0.000148693
-2.53544e-07
-0.000148534
-4.31907e-07
-0.000148308
-6.37749e-07
-0.000148005
-8.76409e-07
-0.000147614
-1.14356e-06
-0.000147122
-1.44925e-06
-0.00014652
-1.79242e-06
-0.000145787
-2.1856e-06
-0.000144913
-2.62457e-06
-0.000143877
-3.11826e-06
-0.00014266
-3.67172e-06
-0.000141238
-4.29258e-06
-0.000139593
-4.97901e-06
-0.000137696
-5.74188e-06
-0.00013552
-6.58509e-06
-0.00013304
-7.50839e-06
-0.000130223
-8.51798e-06
-0.000127045
-9.60274e-06
-0.000123482
-1.07482e-05
-0.000119522
-1.19182e-05
-0.000115179
-1.30415e-05
-0.000110491
-1.40306e-05
-0.000105547
-1.47449e-05
-0.00010049
-1.50115e-05
-9.54741e-05
-1.48094e-05
-9.05964e-05
-1.43224e-05
-8.58155e-05
-1.39791e-05
-8.08546e-05
-1.45012e-05
-7.51642e-05
-1.67342e-05
-6.78957e-05
-2.16235e-05
-5.77915e-05
-3.0504e-05
-4.29686e-05
-4.54627e-05
-2.05432e-05
-7.00367e-05
1.25449e-05
-0.000105311
6.12998e-05
-0.000158654
0.000136121
-0.000250255
0.000245087
-0.000375005
0.000395227
-0.000536348
0.000571036
-0.000640402
-0.000544989
-0.000192162
9.82734e-07
-0.000192442
9.87283e-07
-0.000192721
9.81004e-07
-0.000193003
9.84143e-07
-0.000193283
9.92955e-07
-0.000193569
1.00259e-06
-0.000193851
9.99419e-07
-0.000194131
9.89282e-07
-0.00019441
9.89063e-07
-0.000194693
1.00283e-06
-0.000194977
1.00968e-06
-0.000195257
9.98395e-07
-0.000195529
9.7748e-07
-0.0001958
9.70704e-07
-0.000196073
9.74267e-07
-0.000196337
9.56601e-07
-0.000196587
9.11617e-07
-0.000196827
8.71614e-07
-0.000197059
8.49574e-07
-0.000197278
8.05163e-07
-0.000197472
7.25534e-07
-0.000197646
6.53295e-07
-0.000197791
5.73068e-07
-0.000197908
4.63601e-07
-0.000197985
3.2876e-07
-0.000198021
1.9418e-07
-0.000198012
3.56128e-08
-0.000197941
-1.66763e-07
-0.000197804
-3.90519e-07
-0.000197597
-6.39529e-07
-0.000197301
-9.33285e-07
-0.000196908
-1.27012e-06
-0.000196403
-1.64868e-06
-0.000195773
-2.07842e-06
-0.000194997
-2.56846e-06
-0.000194061
-3.12187e-06
-0.00019294
-3.7456e-06
-0.000191613
-4.44509e-06
-0.000190053
-5.23237e-06
-0.000188233
-6.11199e-06
-0.000186119
-7.0932e-06
-0.000183682
-8.17908e-06
-0.000180881
-9.38651e-06
-0.000177678
-1.07113e-05
-0.000174031
-1.21643e-05
-0.000169903
-1.37308e-05
-0.000165259
-1.53923e-05
-0.000160077
-1.71004e-05
-0.000154364
-1.87551e-05
-0.000148167
-2.02268e-05
-0.000141592
-2.13202e-05
-0.000134823
-2.17807e-05
-0.00012806
-2.1572e-05
-0.000121438
-2.09447e-05
-0.000114904
-2.05133e-05
-0.000108096
-2.13092e-05
-0.000100287
-2.45429e-05
-9.03569e-05
-3.15538e-05
-7.66565e-05
-4.42044e-05
-5.67606e-05
-6.53587e-05
-2.70545e-05
-9.97428e-05
1.61531e-05
-0.000148519
7.87595e-05
-0.000221261
0.000172913
-0.000344409
0.000307514
-0.000509606
0.000488993
-0.000717826
0.000700262
-0.000851672
-0.000724521
-0.000248294
1.31998e-06
-0.000248631
1.32436e-06
-0.000248963
1.31352e-06
-0.0002493
1.32049e-06
-0.000249638
1.33159e-06
-0.000249978
1.3417e-06
-0.000250315
1.33679e-06
-0.000250649
1.32376e-06
-0.000250982
1.32181e-06
-0.000251318
1.33876e-06
-0.000251656
1.34785e-06
-0.000251989
1.33101e-06
-0.000252314
1.3027e-06
-0.000252636
1.29282e-06
-0.000252957
1.29501e-06
-0.000253273
1.27194e-06
-0.000253571
1.21039e-06
-0.000253859
1.1588e-06
-0.000254134
1.12482e-06
-0.00025439
1.0618e-06
-0.000254623
9.57913e-07
-0.000254826
8.56911e-07
-0.000255005
7.5191e-07
-0.000255141
5.98959e-07
-0.00025523
4.17714e-07
-0.000255275
2.39681e-07
-0.000255262
2.23901e-08
-0.000255177
-2.5193e-07
-0.000255016
-5.50967e-07
-0.000254769
-8.86575e-07
-0.000254416
-1.2868e-06
-0.00025395
-1.73606e-06
-0.000253349
-2.25017e-06
-0.000252597
-2.83028e-06
-0.000251675
-3.49054e-06
-0.000250554
-4.24298e-06
-0.000249216
-5.08298e-06
-0.000247626
-6.03497e-06
-0.000245755
-7.10358e-06
-0.000243567
-8.30064e-06
-0.000241021
-9.63853e-06
-0.000238071
-1.11292e-05
-0.000234676
-1.27819e-05
-0.000230774
-1.46131e-05
-0.000226316
-1.66224e-05
-0.000221242
-1.88044e-05
-0.000215502
-2.11326e-05
-0.000209057
-2.35459e-05
-0.000201906
-2.59058e-05
-0.000194087
-2.80455e-05
-0.000185723
-2.96849e-05
-0.000177032
-3.04718e-05
-0.000168264
-3.03394e-05
-0.000159584
-2.96248e-05
-0.000150931
-2.91667e-05
-0.000141838
-3.04018e-05
-0.000131366
-3.50149e-05
-0.000118062
-4.48584e-05
-9.98126e-05
-6.24533e-05
-7.35715e-05
-9.15999e-05
-3.49443e-05
-0.00013837
2.03569e-05
-0.00020382
9.90163e-05
-0.00029992
0.000214787
-0.000460179
0.000377345
-0.000672164
0.000592206
-0.000932687
0.000841873
-0.00110134
0.00105662
-0.000939276
-0.000548802
-0.000311523
1.7105e-06
-0.000311913
1.71476e-06
-0.000312302
1.70251e-06
-0.000312686
1.70433e-06
-0.000313077
1.7229e-06
-0.00031347
1.73424e-06
-0.000313861
1.72782e-06
-0.000314247
1.71016e-06
-0.000314633
1.70724e-06
-0.000315024
1.72986e-06
-0.000315413
1.73719e-06
-0.000315798
1.71623e-06
-0.000316178
1.68248e-06
-0.000316553
1.66778e-06
-0.000316925
1.66643e-06
-0.000317291
1.63856e-06
-0.000317639
1.55841e-06
-0.000317971
1.4908e-06
-0.000318294
1.44763e-06
-0.000318599
1.36672e-06
-0.000318872
1.23094e-06
-0.000319116
1.10034e-06
-0.000319329
9.65668e-07
-0.000319497
7.66851e-07
-0.000319615
5.35736e-07
-0.000319677
3.01232e-07
-0.000319679
2.4915e-08
-0.000319603
-3.28432e-07
-0.000319439
-7.14592e-07
-0.000319175
-1.15058e-06
-0.000318798
-1.66432e-06
-0.000318287
-2.24673e-06
-0.000317629
-2.90863e-06
-0.000316799
-3.66043e-06
-0.000315772
-4.51702e-06
-0.000314528
-5.48736e-06
-0.000313027
-6.58406e-06
-0.000311241
-7.8207e-06
-0.000309131
-9.21342e-06
-0.000306652
-1.07795e-05
-0.000303758
-1.25331e-05
-0.000300392
-1.44947e-05
-0.000296494
-1.66801e-05
-0.000291999
-1.91083e-05
-0.000286832
-2.17891e-05
-0.000280915
-2.47211e-05
-0.000274179
-2.78693e-05
-0.000266563
-3.11613e-05
-0.000258039
-3.44306e-05
-0.000248636
-3.74476e-05
-0.000238475
-3.98461e-05
-0.000227797
-4.11502e-05
-0.000216881
-4.12552e-05
-0.00020592
-4.05854e-05
-0.000194828
-4.02596e-05
-0.00018301
-4.22195e-05
-0.00016927
-4.87549e-05
-0.000151759
-6.23699e-05
-0.000127826
-8.6386e-05
-9.37456e-05
-0.00012568
-4.43456e-05
-0.00018777
2.51644e-05
-0.00027333
0.00012208
-0.000396836
0.000261559
-0.000599659
0.000454176
-0.00086478
0.000704427
-0.00118294
0.000995229
-0.00139214
0.00125206
-0.00119611
0.00140671
-0.000703452
-0.000201449
-0.000381481
2.15325e-06
-0.00038193
2.16329e-06
-0.00038237
2.14225e-06
-0.000382816
2.15057e-06
-0.00038326
2.16716e-06
-0.000383711
2.18455e-06
-0.000384156
2.17332e-06
-0.000384599
2.15329e-06
-0.00038504
2.1482e-06
-0.000385488
2.17732e-06
-0.000385938
2.18699e-06
-0.000386381
2.15935e-06
-0.000386815
2.11678e-06
-0.000387246
2.09906e-06
-0.000387683
2.10268e-06
-0.000388108
2.06375e-06
-0.000388513
1.9635e-06
-0.000388904
1.88163e-06
-0.000389283
1.82713e-06
-0.000389642
1.72587e-06
-0.000389972
1.56063e-06
-0.00039027
1.39814e-06
-0.000390535
1.2304e-06
-0.000390754
9.86135e-07
-0.000390915
6.96878e-07
-0.000391021
4.07254e-07
-0.000391059
6.30484e-08
-0.000391014
-3.73355e-07
-0.000390874
-8.55404e-07
-0.000390628
-1.39595e-06
-0.000390261
-2.03171e-06
-0.000389749
-2.75904e-06
-0.000389073
-3.58395e-06
-0.000388212
-4.522e-06
-0.000387139
-5.58989e-06
-0.000385821
-6.80569e-06
-0.000384226
-8.17812e-06
-0.000382316
-9.73097e-06
-0.000380046
-1.14834e-05
-0.000377363
-1.34632e-05
-0.000374211
-1.56843e-05
-0.000370534
-1.81722e-05
-0.000366252
-2.0962e-05
-0.000361284
-2.40761e-05
-0.000355541
-2.75326e-05
-0.000348928
-3.13335e-05
-0.000341347
-3.54506e-05
-0.00033271
-3.97983e-05
-0.000322969
-4.41715e-05
-0.000312131
-4.82855e-05
-0.000300292
-5.16856e-05
-0.000287697
-5.37451e-05
-0.000274631
-5.43213e-05
-0.000261281
-5.39355e-05
-0.000247499
-5.40412e-05
-0.000232527
-5.7192e-05
-0.00021485
-6.64314e-05
-0.000192159
-8.50611e-05
-0.000161202
-0.000117343
-0.000117557
-0.000169326
-5.53472e-05
-0.000249979
3.05629e-05
-0.00035924
0.000147854
-0.000514126
0.000312931
-0.000764736
0.000537451
-0.0010893
0.000825208
-0.0014707
0.00115925
-0.00172618
0.00146635
-0.00150321
0.00165793
-0.000895034
0.00170882
-0.000252337
0.000286644
-0.000458853
2.66371e-06
-0.000459363
2.67278e-06
-0.000459869
2.64797e-06
-0.000460374
2.65553e-06
-0.000460888
2.68169e-06
-0.000461404
2.70071e-06
-0.000461915
2.68397e-06
-0.000462421
2.65975e-06
-0.000462932
2.65845e-06
-0.000463446
2.69214e-06
-0.000463967
2.70706e-06
-0.000464476
2.66922e-06
-0.000464981
2.62148e-06
-0.000465484
2.60234e-06
-0.00046599
2.60838e-06
-0.000466489
2.56218e-06
-0.000466967
2.44192e-06
-0.000467427
2.34181e-06
-0.000467882
2.28232e-06
-0.000468319
2.16233e-06
-0.000468721
1.96258e-06
-0.000469089
1.7665e-06
-0.000469427
1.56816e-06
-0.000469717
1.27615e-06
-0.000469945
9.24945e-07
-0.000470116
5.77845e-07
-0.000470219
1.66161e-07
-0.000470231
-3.61072e-07
-0.000470148
-9.38805e-07
-0.000469953
-1.59058e-06
-0.00046962
-2.36447e-06
-0.000469139
-3.23996e-06
-0.00046849
-4.23345e-06
-0.000467639
-5.37276e-06
-0.000466559
-6.67027e-06
-0.000465218
-8.14603e-06
-0.00046358
-9.81644e-06
-0.000461598
-1.17127e-05
-0.000459228
-1.38541e-05
-0.000456409
-1.62814e-05
-0.00045308
-1.90138e-05
-0.000449166
-2.20863e-05
-0.000444584
-2.55442e-05
-0.000439242
-2.94183e-05
-0.000433033
-3.37415e-05
-0.000425839
-3.85271e-05
-0.000417545
-4.37445e-05
-0.000408044
-4.92998e-05
-0.000397253
-5.49626e-05
-0.000385143
-6.03947e-05
-0.000371801
-6.50275e-05
-0.000357438
-6.81088e-05
-0.000342309
-6.945e-05
-0.000326543
-6.97015e-05
-0.000309875
-7.07099e-05
-0.000291301
-7.57658e-05
-0.000268922
-8.88098e-05
-0.000239891
-0.000114093
-0.000200326
-0.000156908
-0.000145163
-0.000224489
-6.79744e-05
-0.000327168
3.65247e-05
-0.000463739
0.000176175
-0.000653777
0.000368574
-0.000957135
0.000626724
-0.00134745
0.000954375
-0.00179835
0.0013333
-0.0021051
0.00169962
-0.00186954
0.00193658
-0.00113199
0.00200316
-0.00031892
0.000347264
-0.000545111
3.24508e-06
-0.000545695
3.25704e-06
-0.00054628
3.23251e-06
-0.000546864
3.23909e-06
-0.000547455
3.27347e-06
-0.000548048
3.29337e-06
-0.00054864
3.27623e-06
-0.000549228
3.24747e-06
-0.000549816
3.24597e-06
-0.000550415
3.29142e-06
-0.000551016
3.308e-06
-0.000551617
3.27009e-06
-0.000552206
3.21038e-06
-0.000552794
3.19091e-06
-0.000553389
3.20352e-06
-0.000553977
3.15018e-06
-0.000554547
3.0112e-06
-0.000555102
2.89721e-06
-0.000555649
2.82915e-06
-0.000556179
2.6925e-06
-0.00055667
2.45381e-06
-0.000557139
2.2349e-06
-0.000557566
1.99584e-06
-0.000557944
1.65378e-06
-0.000558265
1.24617e-06
-0.00055853
8.42465e-07
-0.00055872
3.5638e-07
-0.000558819
-2.62639e-07
-0.000558812
-9.45712e-07
-0.000558692
-1.71064e-06
-0.000558436
-2.61976e-06
-0.000558017
-3.65939e-06
-0.000557415
-4.83516e-06
-0.00055661
-6.1784e-06
-0.000555559
-7.72126e-06
-0.00055423
-9.47488e-06
-0.000552583
-1.14629e-05
-0.000550572
-1.37246e-05
-0.000548138
-1.62872e-05
-0.000545224
-1.91961e-05
-0.000541757
-2.24809e-05
-0.000537657
-2.61858e-05
-0.00053283
-3.03718e-05
-0.000527167
-3.50809e-05
-0.00052055
-4.03586e-05
-0.000512851
-4.62257e-05
-0.00050393
-5.2666e-05
-0.000493657
-5.95722e-05
-0.00048193
-6.66904e-05
-0.000468696
-7.3628e-05
-0.000454002
-7.97215e-05
-0.000438023
-8.40885e-05
-0.000420938
-8.65342e-05
-0.00040275
-8.78897e-05
-0.000382974
-9.04862e-05
-0.000360269
-9.8471e-05
-0.000332243
-0.000116836
-0.000295454
-0.000150881
-0.000245421
-0.00020694
-0.000176579
-0.000293331
-8.21805e-05
-0.000421567
4.30195e-05
-0.000588939
0.000206876
-0.000817633
0.000428335
-0.00117859
0.000722064
-0.00164118
0.00109265
-0.00216893
0.00151893
-0.00253138
0.00195128
-0.00230189
0.0022404
-0.00142111
0.00232928
-0.000407794
0.000397763
-0.00064219
3.92297e-06
-0.00064287
3.93677e-06
-0.000643542
3.90458e-06
-0.000644219
3.9168e-06
-0.000644903
3.95755e-06
-0.000645594
3.98353e-06
-0.000646282
3.96487e-06
-0.000646966
3.93152e-06
-0.000647654
3.93407e-06
-0.00064835
3.98737e-06
-0.00064906
4.01749e-06
-0.000649759
3.96897e-06
-0.000650456
3.90773e-06
-0.000651153
3.88782e-06
-0.000651857
3.90739e-06
-0.000652559
3.85265e-06
-0.000653239
3.69034e-06
-0.000653903
3.56155e-06
-0.000654567
3.49323e-06
-0.000655212
3.33786e-06
-0.000655823
3.06419e-06
-0.000656406
2.81865e-06
-0.000656958
2.54765e-06
-0.000657455
2.15085e-06
-0.000657892
1.68249e-06
-0.000658269
1.21946e-06
-0.000658575
6.62784e-07
-0.000658782
-5.59227e-08
-0.000658886
-8.41415e-07
-0.000658867
-1.72952e-06
-0.000658706
-2.78099e-06
-0.000658378
-3.98711e-06
-0.000657858
-5.35505e-06
-0.000657118
-6.91903e-06
-0.000656122
-8.71692e-06
-0.000654833
-1.07645e-05
-0.000653205
-1.30909e-05
-0.000651186
-1.57432e-05
-0.000648717
-1.8756e-05
-0.00064573
-2.21835e-05
-0.000642151
-2.60596e-05
-0.000637883
-3.04543e-05
-0.000632827
-3.5427e-05
-0.00062687
-4.10384e-05
-0.000619874
-4.73544e-05
-0.000611694
-5.44063e-05
-0.000602178
-6.21812e-05
-0.000591177
-7.05739e-05
-0.000578577
-7.92906e-05
-0.000564296
-8.79085e-05
-0.00054835
-9.56678e-05
-0.000530853
-0.000101586
-0.000511867
-0.00010552
-0.000491179
-0.000108578
-0.000467967
-0.000113698
-0.000440394
-0.000126044
-0.00040547
-0.00015176
-0.00035915
-0.000197201
-0.000296484
-0.000269606
-0.000211661
-0.000378154
-9.7855e-05
-0.000535373
5.00335e-05
-0.000736828
0.000239891
-0.00100749
0.000492441
-0.00143114
0.000824394
-0.00197313
0.00124203
-0.00258657
0.0017206
-0.00300995
0.00222241
-0.0028037
0.00256724
-0.00176594
0.00268615
-0.000526694
0.000425554
-0.000752305
4.70966e-06
-0.000753095
4.72717e-06
-0.000753877
4.68617e-06
-0.000754667
4.707e-06
-0.000755467
4.75768e-06
-0.000756273
4.79002e-06
-0.000757079
4.7704e-06
-0.000757877
4.72961e-06
-0.000758684
4.74053e-06
-0.000759509
4.81237e-06
-0.000760336
4.84527e-06
-0.000761167
4.79965e-06
-0.000761987
4.72764e-06
-0.000762811
4.71152e-06
-0.000763652
4.74838e-06
-0.000764489
4.68965e-06
-0.000765305
4.5065e-06
-0.00076611
4.36687e-06
-0.000766915
4.29848e-06
-0.000767704
4.1265e-06
-0.000768461
3.82071e-06
-0.000769186
3.54408e-06
-0.000769882
3.24373e-06
-0.000770528
2.79651e-06
-0.000771108
2.26301e-06
-0.000771629
1.74025e-06
-0.00077208
1.11345e-06
-0.000772428
2.92699e-07
-0.000772667
-6.02935e-07
-0.000772782
-1.61411e-06
-0.000772745
-2.81856e-06
-0.000772533
-4.1986e-06
-0.000772123
-5.76583e-06
-0.000771478
-7.56376e-06
-0.000770562
-9.63268e-06
-0.000769337
-1.19894e-05
-0.000767744
-1.46845e-05
-0.000765739
-1.7748e-05
-0.000763249
-2.1246e-05
-0.000760203
-2.52292e-05
-0.000756516
-2.97464e-05
-0.000752092
-3.48785e-05
-0.000746814
-4.0705e-05
-0.000740556
-4.7297e-05
-0.000733175
-5.47351e-05
-0.000724507
-6.30737e-05
-0.000714394
-7.22946e-05
-0.000702669
-8.22989e-05
-0.0006892
-9.27596e-05
-0.000673896
-0.000103212
-0.000656731
-0.000112833
-0.000637736
-0.000120581
-0.000616804
-0.000126452
-0.000593385
-0.000131997
-0.000566149
-0.000140934
-0.000532599
-0.000159594
-0.000489067
-0.000195292
-0.00043101
-0.000255259
-0.000353288
-0.000347328
-0.000250152
-0.00048129
-0.000114867
-0.000670658
5.75908e-05
-0.000909286
0.000275377
-0.00122528
0.000561659
-0.00171743
0.000935559
-0.00234703
0.00140565
-0.00305666
0.00194405
-0.00354835
0.00251651
-0.00337617
0.00291706
-0.00216649
0.00307409
-0.00068372
0.000418844
-0.000877911
5.62352e-06
-0.000878834
5.64969e-06
-0.000879752
5.60403e-06
-0.000880677
5.63208e-06
-0.000881613
5.69423e-06
-0.000882558
5.73476e-06
-0.000883502
5.71454e-06
-0.000884449
5.676e-06
-0.000885396
5.68811e-06
-0.000886365
5.7806e-06
-0.000887351
5.83201e-06
-0.000888327
5.77576e-06
-0.000889307
5.70704e-06
-0.000890292
5.69651e-06
-0.000891292
5.74889e-06
-0.000892294
5.6917e-06
-0.000893278
5.49058e-06
-0.000894253
5.34124e-06
-0.000895228
5.27394e-06
-0.000896196
5.09425e-06
-0.000897127
4.75143e-06
-0.00089803
4.44718e-06
-0.000898907
4.12126e-06
-0.00089973
3.6192e-06
-0.000900489
3.02184e-06
-0.000901191
2.44203e-06
-0.000901818
1.74069e-06
-0.000902341
8.15838e-07
-0.000902752
-1.92577e-07
-0.000903032
-1.33388e-06
-0.000903154
-2.69631e-06
-0.000903097
-4.25588e-06
-0.000902823
-6.03963e-06
-0.000902301
-8.08575e-06
-0.000901497
-1.04368e-05
-0.000900351
-1.31349e-05
-0.000898823
-1.6213e-05
-0.000896846
-1.97248e-05
-0.000894351
-2.37408e-05
-0.000891257
-2.83238e-05
-0.000887465
-3.35384e-05
-0.00088288
-3.94635e-05
-0.000877369
-4.62152e-05
-0.000870796
-5.38702e-05
-0.000863001
-6.25304e-05
-0.000853822
-7.22525e-05
-0.000843073
-8.30442e-05
-0.000830588
-9.4783e-05
-0.000816224
-0.000107124
-0.000799867
-0.00011957
-0.00078144
-0.00013126
-0.000760873
-0.000141148
-0.000737777
-0.000149548
-0.000711123
-0.000158651
-0.000678852