/*--------------------------------*- C++ -*----------------------------------*\
| =========                 |                                                 |
| \\      /  F ield         | OpenFOAM: The Open Source CFD Toolbox           |
|  \\    /   O peration     | Version:  2412                                  |
|   \\  /    A nd           | Website:  www.openfoam.com                      |
|    \\/     M anipulation  |                                                 |
\*---------------------------------------------------------------------------*/
FoamFile
{
    version     2.0;
    format      ascii;
    arch        "LSB;label=32;scalar=64";
    class       volVectorField;
    location    "440";
    object      U;
}
// * * * * * * * * * * * * * * * * * * * * * * * * * * * * * * * * * * * * * //

dimensions      [0 1 -1 0 0 0 0];

internalField   nonuniform List<vector> 
7373
(
(0.495497 -0.0397811 0)
(0.496095 -0.0406042 5.43934e-26)
(0.496686 -0.0414543 -2.26328e-19)
(0.497271 -0.0423322 -2.26286e-19)
(0.497851 -0.0432404 0)
(0.498433 -0.0441819 0)
(0.499006 -0.0451576 -5.49537e-26)
(0.499561 -0.0461687 -2.30074e-19)
(0.500102 -0.0472184 -1.0559e-27)
(0.500655 -0.0483108 2.34518e-19)
(0.501211 -0.0494483 -2.37398e-19)
(0.501743 -0.0506308 -2.4081e-19)
(0.502245 -0.0518598 4.89494e-19)
(0.502734 -0.0531412 5.87008e-26)
(0.503223 -0.0544782 -5.0843e-19)
(0.503688 -0.0558719 5.19673e-19)
(0.504109 -0.0573231 -5.3234e-19)
(0.504488 -0.0588342 0)
(0.504837 -0.060412 0)
(0.505155 -0.0620575 2.20757e-27)
(0.505398 -0.0637686 -5.98024e-19)
(0.505558 -0.0655495 -1.44491e-25)
(0.505667 -0.0674052 -1.55917e-25)
(0.505688 -0.0693358 1.56097e-25)
(0.505596 -0.0713395 -1.67875e-26)
(0.505388 -0.0734201 7.24914e-19)
(0.505047 -0.0755762 -7.5806e-19)
(0.504556 -0.0778099 7.9444e-19)
(0.503891 -0.0801185 1.6685e-18)
(0.503025 -0.0825002 -8.77835e-19)
(0.501945 -0.0849557 0)
(0.500609 -0.0874766 2.2219e-26)
(0.498978 -0.0900603 -1.035e-18)
(0.497033 -0.0927025 -2.55413e-25)
(0.49473 -0.0953941 1.16621e-18)
(0.492014 -0.0981225 -1.24135e-18)
(0.488835 -0.100879 -1.3237e-18)
(0.485144 -0.103648 -1.414e-18)
(0.480874 -0.10641 -1.95519e-26)
(0.475954 -0.109144 3.24361e-18)
(0.47031 -0.111823 0)
(0.463865 -0.114423 0)
(0.456542 -0.116907 -4.03408e-18)
(0.448251 -0.119242 -1.00927e-24)
(0.438912 -0.121376 2.35158e-18)
(0.428429 -0.123267 -7.04916e-26)
(0.416744 -0.12487 2.75894e-18)
(0.403823 -0.126141 1.38818e-24)
(0.389667 -0.127039 0)
(0.374412 -0.127576 0)
(0.358253 -0.127784 0)
(0.341593 -0.127776 4.22759e-18)
(0.324997 -0.127765 -4.6256e-18)
(0.308863 -0.127927 -5.06856e-18)
(0.293284 -0.128377 -5.56121e-18)
(0.277725 -0.128938 -6.10843e-18)
(0.260737 -0.128952 6.71386e-18)
(0.240011 -0.127141 -7.37903e-18)
(0.212178 -0.121231 0)
(0.172323 -0.107113 -8.86274e-18)
(0.113246 -0.0774721 -9.62718e-18)
(0.0236886 -0.018053 -1.03092e-17)
(-0.101887 0.0893318 1.08647e-23)
(-0.279837 0.290031 5.25002e-18)
(-0.52599 0.680583 -3.06853e-24)
(-0.761779 1.35663 2.16312e-18)
(-0.824012 2.50551 2.59551e-18)
(-0.298199 3.71456 1.51214e-18)
(1.55155 -0.124567 0)
(1.55342 -0.127145 3.77068e-19)
(1.55525 -0.129804 3.76369e-19)
(1.55706 -0.132552 -3.76296e-19)
(1.55888 -0.135396 0)
(1.56069 -0.138343 0)
(1.56246 -0.141395 3.79948e-19)
(1.56419 -0.144561 3.82593e-19)
(1.56588 -0.147847 -9.11669e-26)
(1.56759 -0.151264 -3.89978e-19)
(1.5693 -0.154824 3.94762e-19)
(1.57095 -0.158525 4.00434e-19)
(1.57252 -0.162373 6.22309e-26)
(1.57402 -0.166381 0)
(1.57552 -0.170563 0)
(1.57694 -0.174924 -8.64108e-19)
(1.57824 -0.179464 8.85164e-19)
(1.57939 -0.184192 6.50642e-27)
(1.58045 -0.189127 -4.45751e-25)
(1.5814 -0.194273 1.92546e-18)
(1.58212 -0.199625 9.94321e-19)
(1.58259 -0.205194 -1.9341e-25)
(1.58288 -0.210998 -1.06698e-18)
(1.58289 -0.217032 1.10887e-18)
(1.58254 -0.223297 1.15486e-18)
(1.58183 -0.229799 -2.81719e-25)
(1.58069 -0.236538 -3.07022e-25)
(1.57908 -0.243517 6.30291e-25)
(1.57691 -0.250726 -1.38688e-18)
(1.5741 -0.258164 1.4593e-18)
(1.57062 -0.26583 0)
(1.56633 -0.273702 -1.62541e-18)
(1.56112 -0.281764 0)
(1.5549 -0.290003 0)
(1.54755 -0.298397 -1.06214e-25)
(1.5389 -0.306901 2.06328e-18)
(1.52879 -0.315487 -1.02258e-24)
(1.51705 -0.324102 3.95993e-27)
(1.50349 -0.332691 2.51468e-18)
(1.48787 -0.341187 -2.69534e-18)
(1.46997 -0.349502 -2.89378e-18)
(1.44955 -0.357557 -2.97123e-24)
(1.42634 -0.365238 3.35191e-18)
(1.40008 -0.372426 0)
(1.37051 -0.378987 -7.81504e-18)
(1.33733 -0.384761 0)
(1.30036 -0.389617 -4.58408e-18)
(1.25949 -0.393401 2.44605e-24)
(1.21471 -0.395997 -2.50758e-24)
(1.16645 -0.397436 0)
(1.11532 -0.397798 0)
(1.06258 -0.397437 -7.02311e-18)
(1.00999 -0.397022 0)
(0.958804 -0.397101 -8.41944e-18)
(0.909351 -0.398005 9.23738e-18)
(0.859961 -0.39921 1.01458e-17)
(0.806182 -0.398674 0)
(0.740898 -0.392443 1.2255e-17)
(0.653801 -0.373477 1.34523e-17)
(0.529893 -0.329288 2.94355e-17)
(0.347443 -0.237526 1.54268e-23)
(0.0728034 -0.0552733 -1.71177e-17)
(-0.309633 0.271759 3.55388e-17)
(-0.847149 0.878204 -6.7093e-23)
(-1.58382 2.04857 0)
(-2.28302 4.06055 0)
(-2.4607 7.45412 -6.4365e-18)
(-0.895735 11.0697 -7.47542e-18)
(2.74609 -0.220474 0)
(2.7494 -0.225034 -8.52978e-19)
(2.75261 -0.229739 0)
(2.75579 -0.2346 4.25614e-19)
(2.75899 -0.239632 2.98423e-27)
(2.76219 -0.244846 -2.02329e-25)
(2.76531 -0.250248 -4.29736e-19)
(2.76834 -0.255849 0)
(2.77131 -0.261661 4.36534e-19)
(2.77429 -0.267706 0)
(2.7773 -0.274004 4.46477e-19)
(2.78019 -0.28055 2.18479e-25)
(2.78293 -0.287357 -9.75121e-26)
(2.78556 -0.294446 -2.26352e-25)
(2.78815 -0.301842 2.25093e-25)
(2.79064 -0.309556 9.77245e-19)
(2.79288 -0.317585 1.00105e-18)
(2.79489 -0.325946 0)
(2.79671 -0.334671 -1.05658e-18)
(2.79831 -0.343768 -2.17743e-18)
(2.79951 -0.353231 1.12441e-18)
(2.80027 -0.363077 -1.16359e-18)
(2.80071 -0.373334 -4.68096e-25)
(2.80063 -0.383998 -1.25388e-18)
(2.79991 -0.395068 1.30585e-18)
(2.79854 -0.406555 -1.36274e-18)
(2.79642 -0.418461 0)
(2.79344 -0.430785 1.49332e-18)
(2.78945 -0.443516 0)
(2.78435 -0.456651 1.64993e-18)
(2.77801 -0.470179 0)
(2.77024 -0.484072 -1.83764e-18)
(2.76083 -0.498295 -9.05656e-25)
(2.74962 -0.512825 2.0626e-18)
(2.73637 -0.527617 -2.19139e-18)
(2.72081 -0.542606 0)
(2.70265 -0.55772 -1.21841e-24)
(2.68158 -0.572884 2.65659e-18)
(2.65725 -0.587985 -2.84256e-18)
(2.62926 -0.602911 1.41455e-24)
(2.59721 -0.617507 3.27095e-18)
(2.56066 -0.631615 0)
(2.51913 -0.645043 0)
(2.47216 -0.657579 0)
(2.41927 -0.668971 -1.53999e-25)
(2.35997 -0.678957 4.77977e-18)
(2.29391 -0.687269 0)
(2.22086 -0.693649 0)
(2.14087 -0.697902 -6.01313e-24)
(2.05466 -0.70003 -3.7759e-25)
(1.9633 -0.700191 6.73185e-24)
(1.86901 -0.69902 0)
(1.7749 -0.697644 8.54108e-24)
(1.68323 -0.69708 9.51526e-18)
(1.59459 -0.697866 -1.04395e-17)
(1.5061 -0.699081 1.14658e-17)
(1.40995 -0.697175 0)
(1.29379 -0.685212 -1.35771e-23)
(1.13973 -0.650912 -1.52014e-17)
(0.921921 -0.572705 -5.78477e-24)
(0.603183 -0.412024 0)
(0.126653 -0.0956575 1.93404e-17)
(-0.532504 0.468134 -4.01419e-17)
(-1.45147 1.50575 -5.63904e-23)
(-2.69923 3.49164 1.14735e-23)
(-3.87195 6.88093 4.02534e-18)
(-4.15449 12.548 4.79612e-18)
(-1.5242 18.6387 5.51918e-18)
(4.09525 -0.328794 4.82973e-19)
(4.10015 -0.335593 -1.61786e-25)
(4.10492 -0.342607 -2.30554e-25)
(4.10964 -0.349855 -4.80221e-19)
(4.11438 -0.357357 0)
(4.11912 -0.36513 2.3192e-25)
(4.12375 -0.373183 4.84857e-19)
(4.12825 -0.381533 0)
(4.13264 -0.390197 -4.92515e-19)
(4.13705 -0.399208 -2.34985e-25)
(4.14149 -0.408595 1.59699e-25)
(4.14575 -0.418351 5.10942e-19)
(4.14978 -0.428496 6.03004e-25)
(4.15366 -0.439061 -1.05749e-18)
(4.15747 -0.450083 -1.07865e-18)
(4.16111 -0.461579 2.59374e-25)
(4.16438 -0.473542 -1.12927e-18)
(4.1673 -0.486 5.44654e-25)
(4.16994 -0.499002 1.19187e-18)
(4.17222 -0.51255 1.2281e-18)
(4.1739 -0.526645 -1.26834e-18)
(4.17494 -0.541314 1.3125e-18)
(4.17547 -0.556589 -1.18753e-24)
(4.17521 -0.572469 0)
(4.17399 -0.588948 1.3292e-24)
(4.17177 -0.606049 -1.29286e-24)
(4.16844 -0.623772 -7.83075e-25)
(4.16381 -0.642112 2.28137e-24)
(4.15766 -0.661057 -8.25279e-25)
(4.14983 -0.680597 -1.86081e-18)
(4.14012 -0.700712 4.37744e-26)
(4.12825 -0.721367 4.14489e-18)
(4.11393 -0.742509 1.02137e-24)
(4.0969 -0.764098 7.38465e-25)
(4.07679 -0.786064 0)
(4.0532 -0.80831 -1.28809e-24)
(4.02569 -0.830735 1.30364e-24)
(3.99382 -0.853214 1.46834e-24)
(3.95705 -0.875586 -1.48891e-24)
(3.91477 -0.89767 -3.4361e-18)
(3.86638 -0.919242 -3.61993e-24)
(3.81123 -0.940059 -3.96725e-18)
(3.74862 -0.959837 4.27335e-18)
(3.67781 -0.978244 4.61049e-18)
(3.5981 -0.994899 4.98215e-18)
(3.50876 -1.00942 -5.39236e-18)
(3.40925 -1.02138 -5.74493e-24)
(3.29924 -1.03041 -6.34691e-18)
(3.17878 -1.03619 6.90217e-18)
(3.04892 -1.0387 0)
(2.91125 -1.0382 -8.06511e-24)
(2.76911 -1.0356 8.96032e-18)
(2.62712 -1.03254 0)
(2.48864 -1.03055 0)
(2.35464 -1.03042 1.17884e-17)
(2.22088 -1.03078 -2.58969e-17)
(2.07594 -1.02637 0)
(1.90166 -1.007 0)
(1.672 -0.954695 1.71717e-17)
(1.34954 -0.837998 -3.75764e-17)
(0.8808 -0.60112 0)
(0.18538 -0.139143 0)
(-0.769327 0.677782 2.26617e-17)
(-2.08793 2.16843 -1.10904e-17)
(-3.85814 4.99385 -9.36014e-18)
(-5.49833 9.77267 -8.99948e-18)
(-5.8541 17.6642 2.64964e-18)
(-2.14671 26.1734 5.97505e-18)
(5.61322 -0.45067 -5.41594e-19)
(5.61991 -0.459987 5.39615e-19)
(5.62641 -0.469597 -3.29046e-27)
(5.63283 -0.479527 5.38476e-19)
(5.63929 -0.489806 0)
(5.64573 -0.500455 0)
(5.65202 -0.511488 -1.08728e-18)
(5.65813 -0.522928 0)
(5.6641 -0.534798 5.52196e-19)
(5.6701 -0.547143 -5.57914e-19)
(5.67611 -0.56 4.18026e-25)
(5.68186 -0.573364 -5.72809e-19)
(5.68729 -0.587257 -1.16427e-18)
(5.69253 -0.60173 1.18547e-18)
(5.69768 -0.616827 1.20915e-18)
(5.70256 -0.632568 0)
(5.70693 -0.648951 -1.26582e-18)
(5.71082 -0.666011 -1.86078e-26)
(5.71431 -0.683813 6.27407e-25)
(5.7173 -0.702362 -1.37648e-18)
(5.71944 -0.721656 6.89795e-25)
(5.72071 -0.741736 1.20751e-24)
(5.72127 -0.762644 1.52523e-18)
(5.72072 -0.784375 -7.70731e-25)
(5.71883 -0.806925 1.3174e-24)
(5.71558 -0.830321 1.7225e-18)
(5.71077 -0.854567 1.80113e-18)
(5.70416 -0.879652 -1.88743e-18)
(5.69545 -0.905559 1.98189e-18)
(5.68441 -0.932273 1.99048e-24)
(5.67077 -0.959769 -2.09863e-24)
(5.65413 -0.987989 -4.64512e-18)
(5.63412 -1.01688 0)
(5.61034 -1.04635 -5.21405e-18)
(5.58231 -1.07634 -2.76994e-18)
(5.54946 -1.10669 2.74193e-24)
(5.51122 -1.13727 3.14417e-18)
(5.46694 -1.1679 3.35885e-18)
(5.41587 -1.19836 1.85783e-25)
(5.35722 -1.2284 3.85323e-18)
(5.29012 -1.25771 -4.06005e-24)
(5.21369 -1.28595 4.45046e-18)
(5.12695 -1.31273 -4.79488e-18)
(5.0289 -1.33756 -5.17445e-18)
(4.91853 -1.35996 0)
(4.79487 -1.37936 6.05558e-18)
(4.65714 -1.39517 -6.56681e-18)
(4.50486 -1.40687 -1.07689e-23)
(4.33811 -1.414 -7.75993e-18)
(4.15827 -1.41655 -8.45549e-18)
(3.96754 -1.41478 -8.55034e-24)
(3.77047 -1.40997 -1.00873e-17)
(3.57335 -1.40433 -2.10905e-23)
(3.38088 -1.39991 -1.21055e-17)
(3.19443 -1.39779 -1.32876e-17)
(3.00834 -1.39614 1.46006e-17)
(2.80724 -1.38778 0)
(2.56668 -1.35895 0)
(2.25185 -1.28547 -3.87686e-17)
(1.81308 -1.12535 2.12158e-17)
(1.18005 -0.80453 2.30479e-17)
(0.248993 -0.185555 0)
(-1.01817 0.899322 2.55715e-17)
(-2.74932 2.85936 -4.28906e-23)
(-5.04116 6.53189 2.09855e-17)
(-7.12404 12.6724 4.99277e-18)
(-7.5022 22.6421 -5.7784e-18)
(-2.73268 33.3546 -3.15505e-18)
(7.30594 -0.586578 -5.68411e-25)
(7.31455 -0.598696 5.72727e-25)
(7.32291 -0.611197 -5.95718e-19)
(7.33118 -0.624112 0)
(7.33948 -0.637482 0)
(7.34776 -0.651332 -5.75156e-25)
(7.35584 -0.665681 6.01171e-19)
(7.36368 -0.680559 6.053e-19)
(7.37134 -0.695997 -6.10569e-19)
(7.37903 -0.712053 6.16856e-19)
(7.38672 -0.728771 -6.24357e-19)
(7.39405 -0.746147 -5.97331e-25)
(7.40098 -0.764213 0)
(7.40766 -0.78303 1.31043e-18)
(7.41421 -0.802662 0)
(7.42039 -0.823125 0)
(7.4259 -0.844422 2.79805e-18)
(7.43078 -0.8666 0)
(7.43512 -0.889739 1.47635e-18)
(7.4388 -0.913848 -2.31067e-24)
(7.44136 -0.938924 -1.57085e-18)
(7.4428 -0.96502 -1.62545e-18)
(7.44328 -0.992189 8.18937e-25)
(7.44231 -1.02042 -1.75135e-18)
(7.43957 -1.04972 2.86789e-24)
(7.43505 -1.08012 -1.90322e-18)
(7.42849 -1.11161 -1.99012e-18)
(7.41955 -1.14418 -2.08552e-18)
(7.40788 -1.17782 -2.18997e-18)
(7.39315 -1.21251 2.30439e-18)
(7.375 -1.2482 -2.26506e-24)
(7.35294 -1.28483 2.567e-18)
(7.32647 -1.32231 2.65744e-24)
(7.29506 -1.36055 2.88218e-18)
(7.25808 -1.39943 3.06285e-18)
(7.21481 -1.43878 3.03258e-24)
(7.16448 -1.47841 -3.47837e-18)
(7.10625 -1.51808 -3.71702e-18)
(7.03916 -1.55752 3.69623e-24)
(6.96212 -1.59637 0)
(6.87404 -1.63424 -4.49867e-24)
(6.77375 -1.67069 -4.93394e-18)
(6.65996 -1.70519 -5.31908e-18)
(6.53134 -1.73711 -5.74413e-18)
(6.38659 -1.7658 6.10409e-24)
(6.22438 -1.7905 -1.34666e-17)
(6.04367 -1.81045 1.46173e-17)
(5.84382 -1.82492 7.94667e-18)
(5.62488 -1.8333 0)
(5.38855 -1.83551 9.44171e-18)
(5.13769 -1.8319 1.91183e-23)
(4.87821 -1.82405 -2.22093e-23)
(4.6182 -1.81479 -1.2375e-17)
(4.36388 -1.80677 -1.24301e-23)
(4.11718 -1.80139 1.49243e-17)
(3.87093 -1.79626 0)
(3.60548 -1.78218 3.548e-23)
(3.28965 -1.74142 -3.69054e-23)
(2.87924 -1.64316 2.18569e-17)
(2.31183 -1.43419 -2.39401e-17)
(1.4999 -1.02139 -5.20345e-17)
(0.317342 -0.234558 5.25182e-23)
(-1.27618 1.13059 -2.88297e-17)
(-3.42564 3.56884 5.54162e-23)
(-6.22378 8.07496 -1.17123e-17)
(-8.70535 15.504 -3.29167e-23)
(-9.03636 27.3191 3.26071e-23)
(-3.25858 39.9079 3.2744e-18)
(9.15845 -0.735318 6.18866e-25)
(9.16901 -0.750491 -6.42841e-19)
(9.17927 -0.766141 6.41535e-19)
(9.18941 -0.782313 6.41296e-19)
(9.19959 -0.799051 -6.16987e-25)
(9.20974 -0.81639 6.09492e-25)
(9.21962 -0.834354 0)
(9.22921 -0.852979 -6.51517e-19)
(9.23857 -0.872305 0)
(9.24796 -0.892403 6.63821e-19)
(9.25732 -0.913331 -6.71823e-19)
(9.26625 -0.935079 6.8133e-19)
(9.27467 -0.957692 -6.68366e-25)
(9.28277 -0.981244 -1.40962e-18)
(9.29069 -1.00581 -1.43756e-18)
(9.29814 -1.03142 0)
(9.30474 -1.05807 3.9331e-24)
(9.31055 -1.08583 0)
(9.31569 -1.11478 -1.58741e-18)
(9.31996 -1.14495 1.63543e-18)
(9.32285 -1.17633 1.68882e-18)
(9.32433 -1.20898 -1.69696e-24)
(9.32461 -1.24297 1.81177e-18)
(9.32305 -1.2783 1.88273e-18)
(9.31928 -1.31495 -1.96068e-18)
(9.31328 -1.35297 2.04608e-18)
(9.30473 -1.39237 1.99939e-24)
(9.2932 -1.43312 2.24239e-18)
(9.27825 -1.4752 2.355e-18)
(9.2595 -1.51859 -2.47844e-18)
(9.23645 -1.56324 0)
(9.20851 -1.60905 2.7622e-18)
(9.17506 -1.65593 -2.92497e-18)
(9.13545 -1.70377 3.10354e-18)
(9.08887 -1.75241 3.29959e-18)
(9.03443 -1.80163 -3.51492e-18)
(8.97117 -1.85119 -3.75159e-18)
(8.89802 -1.90081 -4.01191e-18)
(8.81377 -1.95013 -4.2985e-18)
(8.7171 -1.99873 4.61436e-18)
(8.60658 -2.04608 0)
(8.48074 -2.09164 5.34758e-18)
(8.33794 -2.13473 1.15462e-17)
(8.17649 -2.17458 6.24433e-18)
(7.99472 -2.21032 -6.76671e-18)
(7.7909 -2.24101 -2.96704e-23)
(7.56366 -2.26563 -7.99146e-18)
(7.31208 -2.28326 3.32661e-23)
(7.03615 -2.2931 9.50888e-18)
(6.73784 -2.29491 0)
(6.42064 -2.28913 2.24136e-23)
(6.09189 -2.27763 -1.25059e-17)
(5.76161 -2.26387 -4.99364e-23)
(5.43771 -2.25113 3.02465e-17)
(5.12283 -2.24115 1.66589e-17)
(4.80828 -2.23096 0)
(4.46989 -2.20913 0)
(4.06928 -2.1537 -4.38045e-23)
(3.55238 -2.02667 2.46023e-17)
(2.84358 -1.76305 2.6986e-17)
(1.83826 -1.2501 2.9348e-17)
(0.39005 -0.28559 0)
(-1.53941 1.36855 -3.24609e-17)
(-4.10399 4.28415 0)
(-7.37696 9.58647 0)
(-10.197 18.1888 6.0066e-18)
(-10.4156 31.5572 -3.33154e-18)
(-3.71612 45.6851 -3.39579e-18)
(11.1168 -0.892563 0)
(11.1292 -0.91094 -2.42804e-24)
(11.1411 -0.929897 6.60398e-19)
(11.153 -0.949485 -6.60033e-19)
(11.1649 -0.969757 -1.26981e-24)
(11.1767 -0.990756 1.25416e-24)
(11.1882 -1.01251 0)
(11.1993 -1.03507 6.70087e-19)
(11.2102 -1.05847 0)
(11.2211 -1.08282 -1.36501e-18)
(11.232 -1.10816 6.90613e-19)
(11.2423 -1.13449 -7.00271e-19)
(11.252 -1.16187 2.71504e-24)
(11.2613 -1.1904 -2.76356e-24)
(11.2704 -1.22015 1.47685e-18)
(11.2789 -1.25116 1.50896e-18)
(11.2865 -1.28343 -1.54521e-18)
(11.293 -1.31704 0)
(11.2988 -1.3521 0)
(11.3035 -1.38863 1.6792e-18)
(11.3065 -1.42662 1.6264e-24)
(11.3079 -1.46617 0)
(11.3078 -1.50734 -3.72015e-18)
(11.3055 -1.55012 -1.933e-18)
(11.3006 -1.59452 -2.01318e-18)
(11.2931 -1.64058 2.10111e-18)
(11.2825 -1.68832 0)
(11.2683 -1.7377 2.30361e-18)
(11.2501 -1.78872 -2.41999e-18)
(11.2274 -1.84132 0)
(11.1995 -1.89547 0)
(11.1658 -1.95105 -5.6847e-18)
(11.1256 -2.00795 3.01184e-18)
(11.078 -2.06604 -3.19823e-18)
(11.0221 -2.12513 9.02124e-24)
(10.9569 -2.18497 -9.81372e-24)
(10.8811 -2.24527 7.75732e-18)
(10.7935 -2.30569 8.30757e-18)
(10.6926 -2.3658 4.45786e-18)
(10.5769 -2.42509 1.14217e-23)
(10.4445 -2.48295 9.59405e-24)
(10.2937 -2.53869 -5.58174e-18)
(10.1225 -2.59151 -6.0423e-18)
(9.92868 -2.64045 0)
(9.71019 -2.68446 7.12779e-18)
(9.46483 -2.72234 -1.38511e-23)
(9.19076 -2.75282 -8.48413e-18)
(8.88666 -2.77472 0)
(8.55233 -2.78697 3.38931e-23)
(8.18983 -2.78918 0)
(7.80316 -2.78172 0)
(7.40098 -2.76675 -4.02186e-23)
(6.99527 -2.74827 -1.02053e-22)
(6.59578 -2.7302 -1.66376e-17)
(6.20598 -2.71465 -3.68327e-17)
(5.81575 -2.69803 2.03946e-17)
(5.39623 -2.66648 2.2588e-17)
(4.90146 -2.59351 9.80577e-23)
(4.26712 -2.43352 -5.52529e-17)
(3.40422 -2.10922 -3.03756e-17)
(2.19176 -1.48815 1.23784e-22)
(0.466453 -0.337824 0)
(-1.80279 1.60923 3.64837e-17)
(-4.76877 4.9898 1.20788e-22)
(-8.46897 11.0265 -1.22606e-22)
(-11.558 20.6553 -1.30622e-17)
(-11.6237 35.2676 7.1354e-18)
(-4.09867 50.6513 -7.11201e-18)
(13.0766 -1.04992 1.21875e-24)
(13.0902 -1.07147 6.39552e-19)
(13.1035 -1.09369 -6.37986e-19)
(13.1166 -1.11666 -1.20783e-24)
(13.1297 -1.14043 1.22613e-24)
(13.1427 -1.16505 -1.21073e-24)
(13.1554 -1.19055 0)
(13.1677 -1.217 2.66363e-24)
(13.1796 -1.24444 6.51898e-19)
(13.1916 -1.27298 6.58274e-19)
(13.2035 -1.30269 6.65959e-19)
(13.2148 -1.33356 1.30277e-24)
(13.2255 -1.36567 -1.37156e-18)
(13.2357 -1.39911 0)
(13.2456 -1.43399 0)
(13.2548 -1.47035 -2.90752e-18)
(13.2629 -1.50819 -1.4885e-18)
(13.2699 -1.5476 1.47902e-24)
(13.276 -1.58872 4.67926e-26)
(13.2809 -1.63157 8.15878e-24)
(13.284 -1.67614 -5.4263e-26)
(13.2852 -1.72254 1.72783e-18)
(13.2847 -1.77086 1.79154e-18)
(13.2817 -1.82108 -1.33656e-23)
(13.2758 -1.87321 -1.4038e-23)
(13.2669 -1.92732 -2.02493e-18)
(13.2545 -1.98342 2.11864e-18)
(13.2382 -2.04148 1.1872e-23)
(13.2173 -2.10149 2.33549e-18)
(13.1913 -2.16341 2.14195e-25)
(13.1596 -2.22719 -4.84419e-24)
(13.1213 -2.29272 2.74988e-18)
(13.0757 -2.35988 0)
(13.0217 -2.42851 -3.10195e-18)
(12.9584 -2.49842 -3.30608e-18)
(12.8845 -2.56932 3.53201e-18)
(12.7987 -2.64091 -3.78244e-18)
(12.6995 -2.71278 2.80352e-23)
(12.5853 -2.78447 8.11762e-24)
(12.454 -2.85539 -4.71399e-18)
(12.3038 -2.92484 0)
(12.1324 -2.99202 5.52899e-18)
(11.9374 -3.05601 0)
(11.7163 -3.11568 -1.28745e-23)
(11.4664 -3.16976 1.32915e-23)
(11.1849 -3.21685 7.85734e-18)
(10.8695 -3.25537 1.72797e-17)
(10.5182 -3.28382 0)
(10.1303 -3.30083 -1.05362e-17)
(9.70765 -3.30571 -1.16824e-17)
(9.2545 -3.29869 0)
(8.78046 -3.282 2.89207e-17)
(8.29919 -3.26007 3.22521e-17)
(7.82223 -3.23739 0)
(7.35399 -3.21633 -9.02628e-23)
(6.88302 -3.19262 -2.24216e-17)
(6.37577 -3.14986 -5.0013e-17)
(5.77853 -3.05672 2.78527e-17)
(5.01644 -2.85958 6.186e-17)
(3.98737 -2.46855 3.41278e-17)
(2.55549 -1.73191 3.72129e-17)
(0.545515 -0.390102 1.5009e-22)
(-2.06018 1.84775 0)
(-5.40224 5.66812 0)
(-9.4681 12.3553 0)
(-12.7555 22.8461 7.0816e-18)
(-12.6253 38.4125 -7.65797e-18)
(-4.40722 54.8201 3.81471e-18)
(14.904 -1.19666 0)
(14.9183 -1.22112 -5.76539e-19)
(14.9322 -1.24635 -5.74993e-19)
(14.946 -1.27243 1.10333e-24)
(14.9598 -1.29941 -1.08843e-24)
(14.9735 -1.32735 -1.10778e-24)
(14.9868 -1.35631 -1.87221e-26)
(14.9997 -1.38633 -5.82078e-19)
(15.0123 -1.41749 -5.86732e-19)
(15.0248 -1.44989 -1.11888e-24)
(15.0373 -1.48362 -5.99159e-19)
(15.0491 -1.51868 6.07317e-19)
(15.0602 -1.55513 1.23359e-18)
(15.0708 -1.59311 0)
(15.0811 -1.63273 0)
(15.0907 -1.67402 1.30708e-18)
(15.0991 -1.71701 1.33825e-18)
(15.1064 -1.76179 -2.65941e-24)
(15.1127 -1.80852 -8.41387e-26)
(15.1177 -1.85722 2.03452e-23)
(15.1207 -1.9079 -1.50157e-18)
(15.1218 -1.96068 -1.55393e-18)
(15.121 -2.01565 1.61164e-18)
(15.1177 -2.07282 1.67556e-18)
(15.1112 -2.1322 1.74612e-18)
(15.1016 -2.19386 0)
(15.0884 -2.25783 -1.90933e-18)
(15.0709 -2.32409 -2.00388e-18)
(15.0486 -2.39264 -4.21629e-18)
(15.0209 -2.46346 -8.48869e-24)
(14.9871 -2.53648 4.38249e-24)
(14.9464 -2.61161 -2.49132e-18)
(14.8979 -2.68873 0)
(14.8406 -2.76769 5.64033e-18)
(14.7733 -2.84829 5.60512e-24)
(14.6947 -2.93024 -3.22623e-18)
(14.6034 -3.01323 6.44153e-24)
(14.4977 -3.09682 -7.46288e-18)
(14.3758 -3.18054 0)
(14.2356 -3.26375 4.36612e-18)
(14.0748 -3.34571 -4.74454e-18)
(13.8909 -3.42554 0)
(13.6811 -3.50222 0)
(13.4424 -3.57449 -2.43915e-23)
(13.1717 -3.64092 5.22415e-23)
(12.8654 -3.69989 7.56054e-18)
(12.5206 -3.74954 -8.38991e-18)
(12.1345 -3.78805 3.67483e-23)
(11.7055 -3.81366 -3.87415e-23)
(11.235 -3.82531 1.1729e-17)
(10.7266 -3.82286 0)
(10.1904 -3.80842 -1.49095e-17)
(9.64103 -3.78655 -3.37194e-17)
(9.09131 -3.76199 -1.90762e-17)
(8.54645 -3.73719 2.15722e-17)
(7.99374 -3.70707 -2.43608e-17)
(7.39506 -3.65254 -1.83895e-22)
(6.68894 -3.53712 -3.08572e-17)
(5.79009 -3.29886 -6.90247e-17)
(4.584 -2.83523 -2.97847e-22)
(2.92281 -1.97653 -8.35845e-17)
(0.625789 -0.440912 6.75795e-22)
(-2.30454 2.0785 -4.57029e-17)
(-5.98569 6.30046 2.1661e-17)
(-10.3455 13.5363 4.85817e-22)
(-13.7637 24.7204 -7.67914e-18)
(-13.4184 40.9732 1.21941e-20)
(-4.64402 58.1973 8.29362e-18)
(12.2049 68.5754 0)
(16.4964 -1.32454 0)
(16.5111 -1.35151 4.92501e-19)
(16.5252 -1.37933 4.91106e-19)
(16.5392 -1.40808 0)
(16.5533 -1.43783 0)
(16.5672 -1.46865 0)
(16.5807 -1.50058 1.90051e-24)
(16.5939 -1.53369 -1.87878e-24)
(16.6067 -1.56806 -5.0078e-19)
(16.6195 -1.60379 -1.90977e-24)
(16.6322 -1.641 -1.97208e-24)
(16.6442 -1.67966 1.0644e-23)
(16.6555 -1.71989 4.78112e-26)
(16.6664 -1.7618 -4.0876e-24)
(16.677 -1.80551 2.05649e-24)
(16.6868 -1.85109 2.15789e-24)
(16.6954 -1.89855 -2.14816e-24)
(16.7029 -1.948 2.27001e-24)
(16.7095 -1.99962 -2.26363e-24)
(16.7147 -2.05343 -1.2416e-18)
(16.7179 -2.10945 1.28256e-18)
(16.7192 -2.16782 0)
(16.7188 -2.22864 1.99763e-23)
(16.7157 -2.29192 2.78731e-24)
(16.7094 -2.3577 -2.79603e-24)
(16.7 -2.42607 -1.56185e-18)
(16.687 -2.49705 -1.63645e-18)
(16.6697 -2.57064 -1.71911e-18)
(16.6476 -2.64687 -2.34853e-23)
(16.6201 -2.72571 -3.56656e-24)
(16.5865 -2.80713 0)
(16.5459 -2.89106 -3.20817e-23)
(16.4974 -2.97737 0)
(16.4401 -3.06594 -2.4426e-18)
(16.3727 -3.1566 0)
(16.2938 -3.24905 2.80901e-18)
(16.2021 -3.34301 -3.02634e-18)
(16.0957 -3.43806 3.27091e-18)
(15.9727 -3.53371 3.54718e-18)
(15.8308 -3.62934 -3.86024e-18)
(15.6677 -3.72419 4.21637e-18)
(15.4805 -3.81736 -1.81511e-23)
(15.2663 -3.9078 5.08943e-18)
(15.0216 -3.99416 2.08762e-23)
(14.7428 -4.07492 6.24824e-18)
(14.4259 -4.14829 -1.39424e-17)
(14.067 -4.21223 7.81617e-18)
(13.6626 -4.26462 3.46331e-23)
(13.2102 -4.30335 -3.69872e-23)
(12.7099 -4.32688 0)
(12.1646 -4.33463 0)
(11.5834 -4.32827 0)
(10.981 -4.31205 1.7185e-17)
(10.3705 -4.29048 1.98011e-17)
(9.75714 -4.26572 2.27892e-17)
(9.12665 -4.23147 5.23073e-17)
(8.43647 -4.1657 5.97971e-17)
(7.61752 -4.02654 2.66713e-22)
(6.57453 -3.74343 3.83786e-17)
(5.18229 -3.20166 3.18823e-22)
(3.2853 -2.21591 4.68134e-17)
(0.705381 -0.48836 0)
(-2.52843 2.29549 1.01684e-16)
(-6.50099 6.86871 -2.38317e-17)
(-11.0781 14.5404 -1.87934e-17)
(-14.5669 26.2474 8.28125e-18)
(-14.0085 42.9555 4.43176e-18)
(-4.80302 60.7585 -4.57965e-18)
(12.8659 72.1334 -4.72323e-22)
(32.8432 71.1317 1.13926e-21)
(17.8264 -1.43135 0)
(17.8411 -1.4604 0)
(17.8554 -1.49038 0)
(17.8695 -1.52136 4.09316e-19)
(17.8837 -1.55342 0)
(17.8977 -1.58662 0)
(17.9114 -1.62103 0)
(17.9247 -1.65671 0)
(17.9377 -1.69376 4.17913e-19)
(17.9507 -1.73228 0)
(17.9636 -1.77238 -4.26774e-19)
(17.9759 -1.81407 -8.65208e-19)
(17.9875 -1.85744 0)
(17.9986 -1.90264 0)
(18.0095 -1.9498 1.76276e-24)
(18.0197 -1.99897 -3.55619e-24)
(18.0288 -2.05019 9.54282e-19)
(18.0367 -2.10357 -3.73814e-24)
(18.0438 -2.15932 1.89242e-24)
(18.0496 -2.21743 -1.03839e-18)
(18.0535 -2.27798 1.0731e-18)
(18.0555 -2.34109 0)
(18.0558 -2.40688 -1.15384e-18)
(18.0536 -2.47538 4.4974e-24)
(18.0484 -2.54663 0)
(18.0401 -2.62075 1.31091e-18)
(18.0283 -2.69776 1.37476e-18)
(18.0125 -2.7777 -2.85925e-23)
(17.9919 -2.86059 1.52435e-18)
(17.9662 -2.94644 -6.01351e-24)
(17.9345 -3.03525 0)
(17.896 -3.12693 -3.61656e-23)
(17.8499 -3.22143 -1.93842e-18)
(17.7952 -3.31862 -7.72133e-24)
(17.7307 -3.41837 0)
(17.6551 -3.52041 -9.38971e-24)
(17.5667 -3.62449 2.58992e-18)
(17.464 -3.73022 0)
(17.3449 -3.83716 -3.05716e-18)
(17.2071 -3.9447 -3.34102e-18)
(17.0481 -4.05212 -3.66642e-18)
(16.865 -4.15854 0)
(16.6547 -4.26293 8.31228e-23)
(16.4134 -4.36392 0)
(16.1373 -4.45999 -5.5734e-18)
(15.8219 -4.54928 1.25439e-17)
(15.4627 -4.62964 -7.10118e-18)
(15.0555 -4.6988 -8.09271e-18)
(14.5968 -4.75437 7.30311e-23)
(14.0856 -4.79444 -7.95299e-23)
(13.5232 -4.81791 0)
(12.9176 -4.82586 -1.46039e-17)
(12.2817 -4.82179 -1.35034e-22)
(11.6274 -4.80943 -2.02028e-17)
(10.9586 -4.78984 -2.37513e-17)
(10.2585 -4.75497 1.95028e-22)
(9.47992 -4.67934 -6.46932e-17)
(8.54624 -4.51528 0)
(7.35318 -4.18363 -4.25513e-17)
(5.76779 -3.55856 -3.71273e-22)
(3.63298 -2.44285 5.22603e-17)
(0.782029 -0.530248 -5.56667e-17)
(-2.72454 2.49285 -1.12481e-16)
(-6.93282 7.35749 0)
(-11.6511 15.3496 2.02657e-17)
(-15.159 27.4101 0)
(-14.4098 44.3901 0)
(-4.87524 62.4734 1.50374e-17)
(13.4419 75.1662 9.11997e-23)
(34.2749 74.2588 0)
(50.3699 63.5073 3.53445e-17)
(18.9267 -1.51972 1.32857e-24)
(18.9416 -1.55051 -1.30769e-24)
(18.956 -1.58227 -3.43808e-19)
(18.9703 -1.6151 -3.43435e-19)
(18.9846 -1.64907 -1.30155e-24)
(18.9989 -1.68426 0)
(19.0128 -1.72073 0)
(19.0264 -1.75856 0)
(19.0396 -1.79784 3.50907e-19)
(19.053 -1.83868 1.33854e-24)
(19.0663 -1.8812 7.16949e-19)
(19.0789 -1.92541 3.63446e-19)
(19.091 -1.97142 -7.38506e-19)
(19.1026 -2.01937 0)
(19.1141 -2.06941 0)
(19.1249 -2.12159 -7.83658e-19)
(19.1346 -2.17596 -8.02859e-19)
(19.1433 -2.23265 0)
(19.1512 -2.29187 0)
(19.158 -2.35362 8.747e-19)
(19.1629 -2.41798 -9.04379e-19)
(19.166 -2.4851 -3.51435e-24)
(19.1677 -2.55511 3.78458e-24)
(19.1669 -2.62804 1.47351e-25)
(19.1632 -2.70395 -3.96253e-24)
(19.1567 -2.78297 0)
(19.1469 -2.86515 4.53517e-24)
(19.1333 -2.95053 2.44944e-18)
(19.1152 -3.03917 4.82608e-24)
(19.0921 -3.13109 5.34411e-24)
(19.0635 -3.2263 -1.45297e-18)
(19.0284 -3.32476 1.54731e-18)
(18.9861 -3.42643 -4.22876e-23)
(18.9356 -3.53122 0)
(18.8756 -3.63904 1.90535e-18)
(18.8051 -3.74964 7.64893e-24)
(18.7223 -3.86283 1.74587e-23)
(18.6258 -3.97826 -3.69965e-23)
(18.5133 -4.09552 4.03946e-23)
(18.3828 -4.21407 5.79926e-18)
(18.2316 -4.33323 3.19413e-18)
(18.0569 -4.4522 0)
(17.8554 -4.56997 -3.93436e-18)
(17.6233 -4.68525 0)
(17.3564 -4.79653 0)
(17.0503 -4.90202 -5.61768e-18)
(16.7 -4.99955 -6.41299e-18)
(16.3008 -5.08681 -1.6925e-22)
(15.8486 -5.16133 6.73398e-23)
(15.3413 -5.22097 -7.43136e-23)
(14.7788 -5.26423 1.18463e-17)
(14.167 -5.29156 2.82372e-17)
(13.5167 -5.30546 1.69433e-17)
(12.8365 -5.30827 2.04053e-17)
(12.1271 -5.29918 2.45607e-17)
(11.3676 -5.2674 -2.94007e-17)
(10.5049 -5.18321 3.48764e-17)
(9.45529 -4.9927 -4.08608e-17)
(8.107 -4.60832 -7.54823e-22)
(6.32383 -3.89524 -8.25051e-22)
(3.95484 -2.64939 -1.16165e-16)
(0.853269 -0.564217 6.16999e-17)
(-2.88666 2.66563 6.17746e-17)
(-7.27076 7.75664 -2.81664e-17)
(-12.0617 15.9605 -2.16402e-17)
(-15.5406 28.2219 -9.43766e-18)
(-14.6321 45.3338 -4.92577e-18)
(-4.86998 63.3842 -1.6213e-17)
(13.9243 77.6591 0)
(35.4343 76.7711 -3.62318e-17)
(52.4864 66.222 0)
(19.8512 -1.59398 2.25631e-24)
(19.8663 -1.62624 0)
(19.881 -1.65952 2.95194e-19)
(19.8956 -1.69391 0)
(19.9103 -1.72951 0)
(19.925 -1.76639 0)
(19.9393 -1.80461 2.97249e-19)
(19.9533 -1.84426 -2.99167e-19)
(19.967 -1.88543 7.95765e-24)
(19.9808 -1.92825 2.34863e-24)
(19.9947 -1.97283 -6.16641e-19)
(20.0079 -2.01919 3.12689e-19)
(20.0206 -2.06745 -1.51061e-23)
(20.033 -2.11775 6.47169e-19)
(20.0452 -2.17025 0)
(20.0569 -2.225 -1.93494e-23)
(20.0675 -2.28208 6.91881e-19)
(20.0773 -2.3416 0)
(20.0863 -2.40379 7.31557e-19)
(20.0942 -2.46867 7.54769e-19)
(20.1005 -2.53631 2.92937e-24)
(20.1051 -2.60689 3.14459e-24)
(20.1084 -2.68052 -3.15312e-24)
(20.1093 -2.75728 -3.41119e-24)
(20.1077 -2.83722 3.42908e-24)
(20.1033 -2.92049 0)
(20.0959 -3.00716 0)
(20.0849 -3.09728 -1.06234e-18)
(20.0697 -3.19093 1.12241e-18)
(20.0499 -3.28815 8.87498e-24)
(20.0248 -3.38897 1.26412e-18)
(19.9937 -3.49339 0)
(19.9557 -3.60138 1.44181e-18)
(19.91 -3.7129 0)
(19.8554 -3.82787 -3.33375e-18)
(19.7908 -3.94611 1.80205e-18)
(19.7145 -4.06745 7.85704e-25)
(19.6251 -4.19159 2.13095e-18)
(19.5205 -4.31818 1.82932e-23)
(19.3986 -4.44675 -5.12719e-18)
(19.2567 -4.57666 0)
(19.0921 -4.70718 0)
(18.9015 -4.8374 0)
(18.681 -4.96609 0)
(18.4267 -5.09185 0)
(18.1336 -5.21295 3.99802e-23)
(17.797 -5.32734 1.16867e-17)
(17.4118 -5.43279 6.77472e-18)
(16.9736 -5.52684 6.24038e-23)
(16.4794 -5.60732 -6.96481e-23)
(15.9282 -5.67256 5.02679e-22)
(15.324 -5.72243 -1.36448e-17)
(14.6741 -5.75838 -1.67062e-17)
(13.9831 -5.7809 -2.05855e-17)
(13.2461 -5.78645 -2.53812e-17)
(12.4359 -5.76035 -3.10985e-17)
(11.4922 -5.66764 5.91181e-22)
(10.324 -5.44764 4.47366e-17)
(8.81517 -5.00534 5.19575e-17)
(6.83262 -4.20028 5.86407e-17)
(4.23996 -2.82762 6.41935e-17)
(0.916806 -0.588048 -6.79263e-17)
(-3.01058 2.81062 0)
(-7.51184 8.06349 3.01551e-17)
(-12.3205 16.3877 2.28019e-17)
(-15.7369 28.7273 1.96599e-17)
(-14.7084 45.8758 5.08089e-18)
(-4.79798 63.6825 -5.57214e-18)
(14.2969 79.4555 0)
(36.2656 78.5635 -4.52459e-17)
(54.3827 68.6608 0)
(20.6497 -1.65814 0)
(20.6653 -1.69168 0)
(20.6804 -1.72628 2.61183e-19)
(20.6955 -1.76205 1.97807e-24)
(20.7107 -1.79908 2.00835e-24)
(20.7259 -1.83743 -1.98355e-24)
(20.7407 -1.87718 -2.63219e-19)
(20.7553 -1.91843 2.64981e-19)
(20.7697 -1.96126 -2.67262e-19)
(20.7842 -2.00581 -2.08141e-24)
(20.7988 -2.05221 2.73315e-19)
(20.8128 -2.10046 1.14176e-23)
(20.8263 -2.15068 5.63708e-19)
(20.8396 -2.20305 1.96922e-23)
(20.8528 -2.25772 0)
(20.8655 -2.31474 1.19878e-18)
(20.8773 -2.3742 -6.14541e-19)
(20.8882 -2.43622 -2.37404e-24)