/*--------------------------------*- C++ -*----------------------------------*\
| =========                 |                                                 |
| \\      /  F ield         | OpenFOAM: The Open Source CFD Toolbox           |
|  \\    /   O peration     | Version:  2412                                  |
|   \\  /    A nd           | Website:  www.openfoam.com                      |
|    \\/     M anipulation  |                                                 |
\*---------------------------------------------------------------------------*/
FoamFile
{
    version     2.0;
    format      ascii;
    arch        "LSB;label=32;scalar=64";
    class       volScalarField;
    location    "240";
    object      p;
}
// * * * * * * * * * * * * * * * * * * * * * * * * * * * * * * * * * * * * * //

dimensions      [0 2 -2 0 0 0 0];

internalField   nonuniform List<scalar> 
8659
(
383.052
408.854
431.465
444.905
434.35
373.612
230.307
-90.83
-492.428
-891.743
-1158.84
-1248.37
-1220.87
-1160.68
-1095.03
-1031.67
-973.524
-920.523
-872.814
-830.121
-791.657
-756.829
-725.142
-696.171
-669.536
-644.904
-622.054
-600.719
-580.734
-561.955
-544.211
-527.442
-511.495
-496.319
-481.83
-467.958
-454.663
-441.873
-429.564
-417.684
-406.206
-395.106
-384.345
-373.907
-363.768
-353.91
-344.32
-334.982
-325.883
-317.011
-308.356
-299.906
-291.656
-283.592
-275.716
-268.021
-260.484
-253.147
-245.965
-238.929
-232.078
-225.367
-218.797
-212.389
-206.121
-200
-194.014
-188.174
-182.481
-176.94
-171.546
-166.299
-161.198
-156.24
-151.422
-146.741
-142.193
-137.772
-133.473
-129.295
-125.231
-121.269
-117.415
-113.658
-109.997
-106.428
383.052
408.853
431.464
444.904
434.347
373.606
230.295
-90.8371
-492.426
-891.738
-1158.83
-1248.36
-1220.87
-1160.68
-1095.03
-1031.67
-973.524
-920.523
-872.814
-830.12
-791.657
-756.828
-725.142
-696.171
-669.536
-644.904
-622.054
-600.719
-580.734
-561.955
-544.211
-527.442
-511.495
-496.319
-481.83
-467.958
-454.663
-441.873
-429.564
-417.684
-406.206
-395.106
-384.345
-373.907
-363.768
-353.91
-344.32
-334.982
-325.883
-317.011
-308.356
-299.906
-291.656
-283.592
-275.716
-268.021
-260.484
-253.147
-245.965
-238.929
-232.078
-225.367
-218.797
-212.389
-206.121
-200
-194.014
-188.174
-182.481
-176.94
-171.546
-166.299
-161.198
-156.24
-151.422
-146.741
-142.193
-137.772
-133.473
-129.295
-125.231
-121.269
-117.415
-113.658
-109.997
-106.428
383.052
408.853
431.464
444.902
434.342
373.597
230.274
-90.8483
-492.413
-891.703
-1158.79
-1248.34
-1220.87
-1160.68
-1095.03
-1031.67
-973.524
-920.523
-872.814
-830.12
-791.656
-756.828
-725.142
-696.171
-669.536
-644.904
-622.054
-600.719
-580.734
-561.955
-544.211
-527.442
-511.495
-496.319
-481.83
-467.958
-454.663
-441.873
-429.564
-417.684
-406.206
-395.106
-384.345
-373.907
-363.768
-353.91
-344.32
-334.981
-325.883
-317.011
-308.356
-299.906
-291.656
-283.592
-275.716
-268.021
-260.484
-253.147
-245.965
-238.929
-232.078
-225.367
-218.797
-212.389
-206.121
-200
-194.014
-188.174
-182.481
-176.94
-171.546
-166.299
-161.198
-156.24
-151.422
-146.741
-142.193
-137.772
-133.473
-129.295
-125.231
-121.269
-117.415
-113.658
-109.997
-106.428
383.052
408.854
431.464
444.901
434.337
373.585
230.251
-90.8462
-492.37
-891.631
-1158.73
-1248.31
-1220.86
-1160.68
-1095.03
-1031.67
-973.523
-920.522
-872.813
-830.12
-791.656
-756.828
-725.142
-696.171
-669.536
-644.904
-622.054
-600.719
-580.734
-561.955
-544.211
-527.442
-511.495
-496.319
-481.83
-467.958
-454.663
-441.873
-429.564
-417.684
-406.206
-395.106
-384.345
-373.907
-363.768
-353.91
-344.32
-334.981
-325.883
-317.011
-308.356
-299.906
-291.656
-283.592
-275.716
-268.021
-260.484
-253.147
-245.965
-238.929
-232.078
-225.367
-218.797
-212.389
-206.121
-200
-194.014
-188.174
-182.481
-176.94
-171.546
-166.299
-161.198
-156.24
-151.422
-146.741
-142.193
-137.772
-133.473
-129.295
-125.231
-121.269
-117.415
-113.658
-109.997
-106.428
383.054
408.855
431.464
444.899
434.331
373.572
230.231
-90.8241
-492.278
-891.494
-1158.62
-1248.25
-1220.83
-1160.67
-1095.02
-1031.67
-973.521
-920.521
-872.812
-830.119
-791.656
-756.828
-725.141
-696.171
-669.535
-644.904
-622.054
-600.718
-580.734
-561.954
-544.211
-527.442
-511.494
-496.318
-481.83
-467.958
-454.663
-441.873
-429.564
-417.684
-406.206
-395.106
-384.345
-373.907
-363.768
-353.91
-344.32
-334.981
-325.882
-317.011
-308.355
-299.906
-291.656
-283.592
-275.716
-268.021
-260.484
-253.147
-245.965
-238.929
-232.078
-225.367
-218.797
-212.389
-206.121
-200
-194.014
-188.174
-182.481
-176.94
-171.546
-166.299
-161.198
-156.24
-151.422
-146.741
-142.193
-137.772
-133.473
-129.295
-125.231
-121.269
-117.415
-113.658
-109.997
-106.428
383.056
408.858
431.466
444.898
434.324
373.558
230.215
-90.7681
-492.106
-891.257
-1158.42
-1248.15
-1220.79
-1160.65
-1095.01
-1031.66
-973.517
-920.518
-872.81
-830.118
-791.654
-756.827
-725.14
-696.17
-669.535
-644.903
-622.053
-600.718
-580.734
-561.954
-544.21
-527.441
-511.494
-496.318
-481.829
-467.958
-454.662
-441.873
-429.564
-417.684
-406.206
-395.106
-384.345
-373.907
-363.768
-353.909
-344.32
-334.981
-325.882
-317.011
-308.355
-299.906
-291.656
-283.592
-275.716
-268.021
-260.484
-253.147
-245.965
-238.929
-232.078
-225.367
-218.797
-212.389
-206.121
-200
-194.014
-188.174
-182.481
-176.94
-171.546
-166.299
-161.198
-156.24
-151.422
-146.741
-142.193
-137.772
-133.473
-129.295
-125.231
-121.269
-117.415
-113.658
-109.997
-106.428
383.061
408.862
431.469
444.898
434.315
373.544
230.21
-90.6598
-491.818
-890.871
-1158.09
-1247.97
-1220.71
-1160.61
-1094.99
-1031.65
-973.508
-920.512
-872.806
-830.114
-791.652
-756.824
-725.138
-696.168
-669.533
-644.902
-622.052
-600.717
-580.733
-561.953
-544.21
-527.441
-511.493
-496.317
-481.829
-467.957
-454.662
-441.872
-429.563
-417.683
-406.205
-395.105
-384.345
-373.906
-363.768
-353.909
-344.319
-334.981
-325.882
-317.01
-308.355
-299.906
-291.655
-283.591
-275.716
-268.021
-260.484
-253.147
-245.965
-238.928
-232.078
-225.366
-218.797
-212.388
-206.121
-199.999
-194.014
-188.174
-182.481
-176.94
-171.546
-166.299
-161.198
-156.24
-151.422
-146.741
-142.193
-137.772
-133.473
-129.295
-125.23
-121.269
-117.415
-113.658
-109.997
-106.428
383.068
408.869
431.475
444.898
434.305
373.531
230.223
-90.4767
-491.373
-890.283
-1157.59
-1247.68
-1220.57
-1160.55
-1094.95
-1031.63
-973.493
-920.501
-872.798
-830.108
-791.647
-756.821
-725.135
-696.166
-669.531
-644.9
-622.05
-600.715
-580.731
-561.952
-544.208
-527.439
-511.492
-496.316
-481.828
-467.956
-454.661
-441.871
-429.563
-417.683
-406.204
-395.104
-384.344
-373.906
-363.767
-353.908
-344.319
-334.98
-325.881
-317.01
-308.355
-299.905
-291.655
-283.591
-275.715
-268.02
-260.484
-253.147
-245.965
-238.928
-232.077
-225.366
-218.796
-212.388
-206.121
-199.999
-194.014
-188.173
-182.481
-176.939
-171.546
-166.299
-161.197
-156.239
-151.422
-146.74
-142.193
-137.772
-133.472
-129.295
-125.23
-121.269
-117.415
-113.658
-109.997
-106.428
383.078
408.879
431.483
444.899
434.294
373.519
230.26
-90.1925
-490.729
-889.437
-1156.86
-1247.25
-1220.36
-1160.44
-1094.89
-1031.59
-973.466
-920.482
-872.784
-830.098
-791.639
-756.814
-725.13
-696.161
-669.528
-644.897
-622.047
-600.713
-580.729
-561.95
-544.206
-527.438
-511.491
-496.315
-481.826
-467.955
-454.66
-441.87
-429.562
-417.682
-406.203
-395.103
-384.343
-373.905
-363.766
-353.908
-344.318
-334.98
-325.881
-317.009
-308.354
-299.905
-291.654
-283.59
-275.715
-268.02
-260.483
-253.146
-245.964
-238.928
-232.077
-225.366
-218.796
-212.388
-206.12
-199.999
-194.013
-188.173
-182.48
-176.939
-171.545
-166.298
-161.197
-156.239
-151.421
-146.74
-142.192
-137.771
-133.472
-129.294
-125.23
-121.268
-117.415
-113.658
-109.996
-106.428
383.093
408.894
431.494
444.9
434.281
373.511
230.332
-89.7827
-489.837
-888.27
-1155.85
-1246.65
-1220.06
-1160.28
-1094.8
-1031.53
-973.425
-920.453
-872.763
-830.082
-791.627
-756.805
-725.122
-696.155
-669.522
-644.892
-622.043
-600.709
-580.726
-561.947
-544.204
-527.435
-511.488
-496.313
-481.824
-467.953
-454.658
-441.868
-429.56
-417.68
-406.202
-395.102
-384.342
-373.903
-363.765
-353.906
-344.317
-334.978
-325.88
-317.008
-308.353
-299.904
-291.653
-283.59
-275.714
-268.019
-260.482
-253.145
-245.963
-238.927
-232.076
-225.365
-218.795
-212.387
-206.12
-199.998
-194.013
-188.172
-182.48
-176.939
-171.545
-166.298
-161.197
-156.239
-151.421
-146.74
-142.192
-137.771
-133.472
-129.294
-125.23
-121.268
-117.414
-113.658
-109.996
-106.427
383.113
408.913
431.508
444.901
434.266
373.509
230.443
-89.2226
-488.654
-886.714
-1154.54
-1245.84
-1219.64
-1160.05
-1094.66
-1031.44
-973.366
-920.41
-872.732
-830.058
-791.608
-756.79
-725.11
-696.145
-669.514
-644.885
-622.037
-600.704
-580.721
-561.942
-544.2
-527.431
-511.485
-496.309
-481.821
-467.95
-454.655
-441.866
-429.557
-417.678
-406.2
-395.1
-384.34
-373.902
-363.763
-353.905
-344.315
-334.977
-325.878
-317.007
-308.351
-299.902
-291.652
-283.588
-275.713
-268.018
-260.481
-253.144
-245.962
-238.926
-232.075
-225.364
-218.794
-212.386
-206.119
-199.998
-194.012
-188.172
-182.479
-176.938
-171.544
-166.297
-161.196
-156.238
-151.42
-146.739
-142.191
-137.77
-133.471
-129.293
-125.229
-121.268
-117.414
-113.657
-109.996
-106.427
383.139
408.937
431.524
444.901
434.25
373.516
230.593
-88.4773
-487.12
-884.731
-1152.83
-1244.79
-1219.09
-1159.75
-1094.48
-1031.32
-973.283
-920.351
-872.687
-830.024
-791.582
-756.769
-725.093
-696.131
-669.502
-644.875
-622.028
-600.696
-580.714
-561.936
-544.194
-527.426
-511.48
-496.305
-481.817
-467.946
-454.651
-441.862
-429.554
-417.675
-406.197
-395.097
-384.337
-373.899
-363.76
-353.902
-344.313
-334.975
-325.876
-317.005
-308.35
-299.901
-291.65
-283.587
-275.711
-268.016
-260.48
-253.143
-245.961
-238.925
-232.074
-225.363
-218.793
-212.385
-206.118
-199.996
-194.011
-188.171
-182.478
-176.937
-171.543
-166.296
-161.195
-156.237
-151.419
-146.738
-142.191
-137.77
-133.47
-129.293
-125.228
-121.267
-117.413
-113.656
-109.995
-106.426
383.171
408.965
431.543
444.899
434.232
373.534
230.789
-87.5133
-485.16
-882.298
-1150.65
-1243.43
-1218.37
-1159.36
-1094.25
-1031.17
-973.174
-920.271
-872.627
-829.978
-791.545
-756.74
-725.07
-696.111
-669.485
-644.861
-622.016
-600.685
-580.705
-561.928
-544.187
-527.419
-511.474
-496.299
-481.812
-467.941
-454.647
-441.858
-429.55
-417.67
-406.193
-395.093
-384.333
-373.896
-363.757
-353.899
-344.31
-334.972
-325.873
-317.002
-308.347
-299.898
-291.648
-283.584
-275.709
-268.014
-260.478
-253.141
-245.959
-238.923
-232.072
-225.361
-218.792
-212.384
-206.116
-199.995
-194.01
-188.169
-182.477
-176.936
-171.542
-166.295
-161.194
-156.236
-151.418
-146.737
-142.19
-137.769
-133.469
-129.292
-125.228
-121.266
-117.412
-113.655
-109.994
-106.425
383.209
408.999
431.564
444.895
434.214
373.565
231.032
-86.3126
-482.77
-879.307
-1147.93
-1241.71
-1217.45
-1158.86
-1093.94
-1030.96
-973.031
-920.166
-872.548
-829.917
-791.497
-756.701
-725.038
-696.085
-669.463
-644.842
-622
-600.671
-580.692
-561.917
-544.177
-527.41
-511.466
-496.292
-481.805
-467.935
-454.64
-441.852
-429.544
-417.665
-406.188
-395.089
-384.329
-373.891
-363.753
-353.895
-344.306
-334.968
-325.87
-316.999
-308.344
-299.895
-291.645
-283.581
-275.706
-268.011
-260.475
-253.138
-245.957
-238.921
-232.07
-225.359
-218.79
-212.382
-206.114
-199.993
-194.008
-188.168
-182.475
-176.934
-171.54
-166.293
-161.193
-156.235
-151.417
-146.736
-142.188
-137.767
-133.468
-129.29
-125.226
-121.265
-117.411
-113.654
-109.993
-106.424
383.254
409.036
431.585
444.889
434.195
373.611
231.311
-84.868
-479.983
-875.644
-1144.55
-1239.55
-1216.27
-1158.21
-1093.55
-1030.7
-972.848
-920.032
-872.445
-829.837
-791.434
-756.65
-724.996
-696.05
-669.434
-644.817
-621.978
-600.652
-580.676
-561.902
-544.163
-527.399
-511.455
-496.282
-481.796
-467.926
-454.633
-441.845
-429.537
-417.659
-406.182
-395.083
-384.323
-373.886
-363.748
-353.89
-344.301
-334.963
-325.865
-316.994
-308.34
-299.891
-291.641
-283.578
-275.703
-268.008
-260.472
-253.135
-245.954
-238.918
-232.067
-225.356
-218.787
-212.379
-206.112
-199.991
-194.006
-188.165
-182.473
-176.932
-171.538
-166.291
-161.191
-156.233
-151.415
-146.734
-142.186
-137.766
-133.467
-129.289
-125.225
-121.263
-117.409
-113.653
-109.991
-106.423
383.304
409.076
431.606
444.88
434.175
373.672
231.623
-83.177
-476.775
-871.305
-1140.45
-1236.85
-1214.79
-1157.39
-1093.05
-1030.37
-972.616
-919.861
-872.315
-829.736
-791.353
-756.584
-724.942
-696.005
-669.396
-644.785
-621.95
-600.628
-580.654
-561.883
-544.147
-527.383
-511.441
-496.269
-481.784
-467.916
-454.623
-441.835
-429.529
-417.651
-406.174
-395.075
-384.316
-373.879
-363.741
-353.884
-344.295
-334.958
-325.86
-316.989
-308.335
-299.886
-291.636
-283.573
-275.698
-268.004
-260.468
-253.131
-245.95
-238.914
-232.064
-225.353
-218.784
-212.376
-206.109
-199.988
-194.003
-188.162
-182.47
-176.929
-171.536
-166.289
-161.188
-156.23
-151.413
-146.732
-142.184
-137.764
-133.464
-129.287
-125.223
-121.261
-117.407
-113.651
-109.99
-106.421
383.359
409.119
431.627
444.868
434.153
373.752
231.968
-81.2408
-473.106
-866.311
-1135.55
-1233.47
-1212.93
-1156.35
-1092.42
-1029.96
-972.322
-919.645
-872.152
-829.608
-791.251
-756.502
-724.874
-695.948
-669.348
-644.744
-621.915
-600.597
-580.627
-561.859
-544.125
-527.364
-511.424
-496.254
-481.77
-467.903
-454.611
-441.824
-429.518
-417.641
-406.164
-395.066
-384.308
-373.871
-363.734
-353.877
-344.288
-334.951
-325.853
-316.983
-308.328
-299.88
-291.631
-283.568
-275.693
-267.999
-260.463
-253.127
-245.945
-238.909
-232.059
-225.349
-218.78
-212.372
-206.105
-199.984
-193.999
-188.159
-182.467
-176.926
-171.533
-166.286
-161.185
-156.228
-151.41
-146.729
-142.182
-137.761
-133.462
-129.284
-125.22
-121.259
-117.405
-113.649
-109.987
-106.419
383.419
409.165
431.647
444.852
434.127
373.853
232.35
-79.0577
-468.959
-860.57
-1129.91
-1229.38
-1210.55
-1155.04
-1091.62
-1029.43
-971.954
-919.375
-871.946
-829.448
-791.124
-756.398
-724.789
-695.877
-669.288
-644.692
-621.871
-600.559
-580.593
-561.829
-544.099
-527.34
-511.402
-496.234
-481.752
-467.886
-454.596
-441.81
-429.505
-417.629
-406.153
-395.056
-384.297
-373.861
-363.724
-353.868
-344.28
-334.943
-325.845
-316.975
-308.321
-299.873
-291.624
-283.561
-275.687
-267.993
-260.457
-253.121
-245.94
-238.904
-232.054
-225.344
-218.775
-212.367
-206.101
-199.98
-193.995
-188.155
-182.463
-176.922
-171.529
-166.282
-161.182
-156.224
-151.407
-146.726
-142.178
-137.758
-133.459
-129.281
-125.217
-121.256
-117.402
-113.646
-109.985
-106.416
-102.926
383.483
409.212
431.666
444.833
434.097
373.972
232.773
-76.6118
-464.301
-854.016
-1123.49
-1224.93
-1207.34
-1153.39
-1090.62
-1028.77
-971.493
-919.037
-871.691
-829.249
-790.966
-756.27
-724.683
-695.789
-669.213
-644.629
-621.816
-600.511
-580.551
-561.792
-544.066
-527.311
-511.376
-496.21
-481.73
-467.866
-454.577
-441.793
-429.49
-417.614
-406.14
-395.043
-384.286
-373.85
-363.714
-353.857
-344.27
-334.933
-325.836
-316.966
-308.313
-299.865
-291.616
-283.553
-275.679
-267.985
-260.45
-253.114
-245.933
-238.898
-232.048
-225.338
-218.769
-212.362
-206.095
-199.975
-193.99
-188.15
-182.459
-176.918
-171.525
-166.278
-161.178
-156.22
-151.403
-146.722
-142.175
-137.754
-133.455
-129.278
-125.214
-121.253
-117.399
-113.643
-109.981
-106.413
-102.922
383.552
409.263
431.685
444.808
434.059
374.108
233.236
-73.8787
-459.091
-846.683
-1116.18
-1219.82
-1203.39
-1151.31
-1089.35
-1027.94
-970.917
-918.617
-871.373
-829.002
-790.77
-756.111
-724.553
-695.68
-669.121
-644.551
-621.748
-600.452
-580.5
-561.747
-544.025
-527.275
-511.343
-496.181
-481.704
-467.842
-454.555
-441.773
-429.471
-417.597
-406.124
-395.028
-384.271
-373.837
-363.701
-353.845
-344.258
-334.922
-325.826
-316.956
-308.303
-299.856
-291.607
-283.545
-275.671
-267.977
-260.442
-253.107
-245.926
-238.891
-232.041
-225.331
-218.763
-212.356
-206.089
-199.969
-193.984
-188.145
-182.454
-176.913
-171.52
-166.273
-161.173
-156.215
-151.398
-146.717
-142.17
-137.75
-133.451
-129.274
-125.21
-121.248
-117.395
-113.639
-109.978
-106.409
-102.919
383.627
409.316
431.702
444.776
434.011
374.261
233.738
-70.8322
-453.28
-838.513
-1107.94
-1213.49
-1198.92
-1148.73
-1087.76
-1026.9
-970.197
-918.094
-870.979
-828.697
-790.528
-755.916
-724.392
-695.547
-669.009
-644.455
-621.666
-600.381
-580.437
-561.692
-543.976
-527.231
-511.304
-496.145
-481.672
-467.813
-454.528
-441.749
-429.448
-417.576
-406.104
-395.01
-384.255
-373.821
-363.686
-353.832
-344.245
-334.91
-325.814
-316.945
-308.292
-299.845
-291.596
-283.535
-275.661
-267.968
-260.433
-253.098
-245.917
-238.882
-232.033
-225.323
-218.755
-212.348
-206.082
-199.962
-193.978
-188.138
-182.447
-176.906
-171.514
-166.267
-161.167
-156.21
-151.393
-146.712
-142.165
-137.745
-133.446
-129.269
-125.205
-121.244
-117.39
-113.634
-109.973
-106.405
-102.915
383.708
409.373
431.718
444.735
433.952
374.43
234.279
-67.4446
-446.813
-829.401
-1098.72
-1206.12
-1194
-1145.42
-1085.77
-1025.61
-969.3
-917.445
-870.491
-828.32
-790.23
-755.676
-724.196
-695.384
-668.872
-644.338
-621.566
-600.294
-580.362
-561.625
-543.917
-527.178
-511.257
-496.103
-481.633
-467.778
-454.497
-441.719
-429.422
-417.551
-406.082
-394.989
-384.235
-373.803
-363.669
-353.816
-344.23
-334.895
-325.8
-316.932
-308.279
-299.833
-291.585
-283.523
-275.65
-267.957
-260.423
-253.088
-245.908
-238.873
-232.024
-225.315
-218.747
-212.34
-206.074
-199.954
-193.97
-188.131
-182.44
-176.899
-171.507
-166.261
-161.161
-156.204
-151.387
-146.706
-142.159
-137.739
-133.44
-129.263
-125.2
-121.239
-117.385
-113.629
-109.968
-106.4
-102.91
383.796
409.433
431.731
444.684
433.877
374.615
234.858
-63.6871
-439.632
-819.271
-1088.44
-1197.84
-1188.65
-1141.19
-1083.29
-1023.98
-968.182
-916.638
-869.886
-827.854
-789.863
-755.381
-723.955
-695.184
-668.704
-644.196
-621.444
-600.189
-580.27
-561.545
-543.846
-527.115
-511.2
-496.052
-481.587
-467.736
-454.459
-441.685
-429.39
-417.522
-406.055
-394.964
-384.212
-373.781
-363.649
-353.797
-344.212
-334.879
-325.784
-316.917
-308.265
-299.819
-291.572
-283.511
-275.638
-267.946
-260.412
-253.077
-245.897
-238.863
-232.014
-225.305
-218.737
-212.331
-206.065
-199.946
-193.962
-188.123
-182.432
-176.892
-171.499
-166.254
-161.154
-156.197
-151.38
-146.7
-142.153
-137.733
-133.434
-129.257
-125.194
-121.233
-117.379
-113.623
-109.962
-106.394
-102.904
383.892
409.497
431.74
444.619
433.782
374.814
235.474
-59.5299
-431.678
-808.025
-1077
-1188.56
-1182.32
-1136.35
-1080.27
-1021.97
-966.791
-915.637
-869.139
-827.28
-789.411
-755.019
-723.659
-694.94
-668.5
-644.024
-621.296
-600.062
-580.159
-561.447
-543.761
-527.039
-511.133
-495.991
-481.532
-467.687
-454.414
-441.644
-429.352
-417.488
-406.023
-394.935
-384.185
-373.756
-363.626
-353.775
-344.192
-334.86
-325.766
-316.9
-308.249
-299.804
-291.557
-283.497
-275.625
-267.933
-260.399
-253.065
-245.886
-238.852
-232.003
-225.295
-218.727
-212.321
-206.056
-199.936
-193.953
-188.114
-182.423
-176.883
-171.491
-166.246
-161.146
-156.189
-151.373
-146.692
-142.146
-137.726
-133.427
-129.251
-125.187
-121.226
-117.373
-113.617
-109.956
-106.388
-102.898
-99.4861
-96.1511
-92.8932
383.997
409.564
431.743
444.537
433.664
375.025
236.12
-54.9435
-422.888
-795.582
-1064.26
-1178.22
-1174.83
-1131.35
-1076.45
-1019.47
-965.065
-914.397
-868.214
-826.57
-788.855
-754.573
-723.297
-694.641
-668.25
-643.813
-621.117
-599.907
-580.025
-561.33
-543.658
-526.948
-511.051
-495.919
-481.467
-467.628
-454.36
-441.595
-429.308
-417.447
-405.985
-394.9
-384.153
-373.727
-363.599
-353.749
-344.168
-334.837
-325.745
-316.88
-308.23
-299.786
-291.54
-283.481
-275.609
-267.918
-260.385
-253.051
-245.873
-238.839
-231.991
-225.283
-218.716
-212.31
-206.045
-199.926
-193.943
-188.104
-182.414
-176.874
-171.482
-166.237
-161.137
-156.181
-151.364
-146.684
-142.138
-137.718
-133.42
-129.243
-125.18
-121.219
-117.366
-113.61
-109.949
-106.381
-102.891
-99.4794
-96.1445
-92.8865
384.11
409.633
431.739
444.434
433.515
375.26
236.792
-49.8995
-413.204
-781.846
-1050.12
-1166.68
-1166.5
-1125.68
-1071.95
-1016.46
-962.939
-912.862
-867.072
-825.696
-788.17
-754.026
-722.853
-694.275
-667.945
-643.556
-620.898
-599.719
-579.862
-561.188
-543.533
-526.838
-510.954
-495.832
-481.389
-467.558
-454.296
-441.537
-429.255
-417.399
-405.942
-394.86
-384.116
-373.692
-363.567
-353.72
-344.14
-334.812
-325.721
-316.858
-308.209
-299.766
-291.521
-283.463
-275.592
-267.902
-260.369
-253.036
-245.858
-238.825
-231.978
-225.27
-218.703
-212.298
-206.033
-199.914
-193.931
-188.093
-182.403
-176.864
-171.472
-166.227
-161.128
-156.172
-151.355
-146.676
-142.129
-137.71
-133.412
-129.235
-125.172
-121.211
-117.358
-113.602
-109.942
-106.373
-102.883
-99.4721
-96.1372
-92.8793
384.231
409.703
431.724
444.305
433.329
375.503
237.5
-44.3672
-402.567
-766.729
-1034.47
-1153.82
-1157.2
-1118.94
-1067.14
-1012.83
-960.37
-910.972
-865.664
-824.619
-787.327
-753.354
-722.307
-693.826
-667.571
-643.241
-620.63
-599.49
-579.665
-561.016
-543.383
-526.705
-510.836
-495.727
-481.295
-467.473
-454.221
-441.469
-429.193
-417.342
-405.89
-394.812
-384.072
-373.652
-363.529
-353.685
-344.108
-334.782
-325.693
-316.832
-308.184
-299.743
-291.5
-283.442
-275.573
-267.883
-260.352
-253.019
-245.842
-238.81
-231.963
-225.255
-218.689
-212.284
-206.02
-199.902
-193.919
-188.081
-182.392
-176.853
-171.461
-166.216
-161.118
-156.161
-151.346
-146.666
-142.12
-137.7
-133.403
-129.226
-125.163
-121.203
-117.35
-113.594
-109.933
-106.365
-102.875
-99.464
-96.1293
-92.8713
384.36
409.772
431.694
444.142
433.096
375.713
238.271
-38.3199
-390.924
-750.142
-1017.18
-1139.53
-1146.79
-1111.43
-1061.83
-1008.53
-957.337
-908.685
-863.936
-823.295
-786.291
-752.527
-721.638
-693.276
-667.114
-642.857
-620.304
-599.211
-579.424
-560.807
-543.2
-526.544
-510.694
-495.6
-481.182
-467.372
-454.13
-441.387
-429.118
-417.274
-405.828
-394.756
-384.02
-373.605
-363.486
-353.645
-344.071
-334.747
-325.661
-316.801
-308.156
-299.716
-291.474
-283.418
-275.55
-267.862
-260.331
-253
-245.824
-238.792
-231.946
-225.239
-218.674
-212.269
-206.006
-199.888
-193.906
-188.068
-182.379
-176.841
-171.45
-166.205
-161.106
-156.15
-151.335
-146.656
-142.11
-137.69
-133.393
-129.216
-125.154
-121.193
-117.34
-113.585
-109.924
-106.356
-102.867
-99.4553
-96.1206
-92.8627
384.497
409.837
431.644
443.938
432.806
375.88
239.103
-31.7404
-378.231
-732.009
-998.143
-1123.67
-1135.17
-1103.02
-1055.76
-1003.73
-953.804
-905.979
-861.846
-821.677
-785.021
-751.514
-720.816
-692.6
-666.552
-642.385
-619.904
-598.869
-579.13
-560.552
-542.977
-526.348
-510.522
-495.447
-481.046
-467.25
-454.02
-441.288
-429.029
-417.194
-405.754
-394.689
-383.959
-373.548
-363.434
-353.598
-344.027
-334.706
-325.623
-316.766
-308.123
-299.686
-291.445
-283.391
-275.524
-267.837
-260.308
-252.978
-245.803
-238.772
-231.927
-225.221
-218.657
-212.253
-205.99
-199.873
-193.891
-188.054
-182.365
-176.827
-171.436
-166.192
-161.094
-156.138
-151.323
-146.644
-142.098
-137.679
-133.382
-129.206
-125.143
-121.183
-117.33
-113.575
-109.915
-106.347
-102.857
-99.4458
-96.1112
-92.8532
384.639
409.895
431.567
443.681
432.444
375.988
239.998
-24.6121
-364.448
-712.268
-977.276
-1106.12
-1122.21
-1093.59
-1048.87
-998.442
-949.761
-902.852
-859.379
-819.727
-783.475
-750.275
-719.811
-691.773
-665.864
-641.808
-619.414
-598.451
-578.77
-560.24
-542.706
-526.11
-510.312
-495.261
-480.881
-467.103
-453.887
-441.169
-428.922
-417.096
-405.666
-394.608
-383.886
-373.482
-363.373
-353.541
-343.975
-334.658
-325.579
-316.725
-308.085
-299.65
-291.412
-283.359
-275.494
-267.808
-260.281
-252.953
-245.779
-238.75
-231.906
-225.201
-218.637
-212.234
-205.972
-199.856
-193.875
-188.038
-182.35
-176.812
-171.422
-166.178
-161.08
-156.125
-151.31
-146.632
-142.086
-137.668
-133.37
-129.194
-125.132
-121.172
-117.32
-113.564
-109.904
-106.336
-102.847
-99.4356
-96.1011
-92.8431
384.785
409.941
431.455
443.36
431.994
376.04
240.96
-16.9272
-349.555
-690.874
-954.497
-1086.71
-1107.78
-1083.06
-1041.11
-992.522
-945.194
-899.293
-856.533
-817.436
-781.624
-748.774
-718.585
-690.763
-665.023
-641.101
-618.814
-597.939
-578.329
-559.858
-542.373
-525.818
-510.055
-495.034
-480.679
-466.923
-453.726
-441.024
-428.791
-416.979
-405.56
-394.512
-383.798
-373.401
-363.299
-353.474
-343.913
-334.601
-325.527
-316.676
-308.04
-299.608
-291.373
-283.322
-275.459
-267.776
-260.25
-252.924
-245.752
-238.724
-231.881
-225.178
-218.615
-212.214
-205.952
-199.837
-193.856
-188.021
-182.333
-176.796
-171.406
-166.163
-161.066
-156.111
-151.296
-146.618
-142.073
-137.655
-133.358
-129.182
-125.12
-121.16
-117.308
-113.553
-109.893
-106.325
-102.835
-99.4245
-96.0901
-92.8321
384.93
409.968
431.297
442.957
431.437
375.985
241.989
-8.68653
-333.544
-667.797
-929.727
-1065.33
-1091.75
-1071.31
-1032.37
-985.884
-940.047
-895.279
-853.299
-814.803
-779.463
-746.99
-717.109
-689.536
-663.997
-640.237
-618.08
-597.311
-577.789
-559.39
-541.966
-525.461
-509.741
-494.757
-480.433
-466.703
-453.53
-440.848
-428.633
-416.836
-405.43
-394.394
-383.691
-373.304
-363.211
-353.393
-343.839
-334.533
-325.464
-316.619
-307.986
-299.558
-291.326
-283.279
-275.418
-267.737
-260.215
-252.89
-245.72
-238.694
-231.853
-225.151
-218.59
-212.19
-205.93
-199.815
-193.836
-188.001
-182.314
-176.778
-171.389
-166.146
-161.049
-156.095
-151.281
-146.603
-142.059
-137.641
-133.344
-129.169
-125.107
-121.147
-117.295
-113.54
-109.88
-106.313
-102.823
-99.4125
-96.0783
-92.8202
385.069
409.967
431.08
442.455
430.749
375.709
243.078
0.101756
-316.429
-643.046
-902.913
-1041.84
-1074
-1058.22
-1022.58
-978.448
-934.236
-890.748
-849.648
-811.816
-776.991
-744.925
-715.372
-688.071
-662.758
-639.187
-617.185
-596.544
-577.127
-558.816
-541.466
-525.023
-509.356
-494.416
-480.13
-466.434
-453.29
-440.633
-428.439
-416.661
-405.273
-394.252
-383.562
-373.186
-363.104
-353.295
-343.75
-334.451
-325.388
-316.549
-307.922
-299.499
-291.271
-283.227
-275.37
-267.693
-260.173
-252.851
-245.683
-238.66
-231.821
-225.121
-218.561
-212.162
-205.903
-199.79
-193.812
-187.979
-182.293
-176.758
-171.37
-166.128
-161.031
-156.078
-151.264
-146.587
-142.043
-137.625
-133.329
-129.154
-125.092
-121.133
-117.281
-113.526
-109.867
-106.3
-102.81
-99.3996
-96.0656
-92.8075
385.197
409.927
430.786
441.83
429.898
375.244
244.229
9.39331
-298.248
-616.66
-874.026
-1016.13
-1054.39
-1043.67
-1011.62
-970.114
-927.707
-885.62
-845.519
-808.436
-774.186
-742.568
-713.374
-686.365
-661.296
-637.93
-616.103
-595.612
-576.321
-558.115
-540.854
-524.486
-508.883
-493.998
-479.76
-466.104
-452.995
-440.368
-428.202
-416.447
-405.08
-394.077
-383.403
-373.042
-362.973
-353.176
-343.64
-334.351
-325.297
-316.465
-307.845
-299.427
-291.205
-283.166
-275.313
-267.639
-260.123
-252.805
-245.64
-238.619
-231.783
-225.085
-218.527
-212.13
-205.873
-199.762
-193.785
-187.953
-182.269
-176.734
-171.347
-166.106
-161.011
-156.058
-151.245
-146.569
-142.025
-137.608
-133.312
-129.137
-125.076
-121.117
-117.266
-113.512
-109.852
-106.285
-102.796
-99.3857
-96.0519
-92.7938
385.303
409.834
430.394
441.053
428.851
374.612
245.468
19.0683
-279.071
-588.665
-843.068
-988.135
-1032.8
-1027.51
-999.398
-960.722
-920.391
-879.857
-840.864
-804.616
-771.012
-739.896
-711.099
-684.41
-659.605
-636.462
-614.823
-594.494
-575.345
-557.262
-540.108
-523.83
-508.304
-493.485
-479.304
-465.698
-452.632
-440.043
-427.909
-416.184
-404.842
-393.862
-383.209
-372.866
-362.812
-353.029
-343.507
-334.229
-325.185
-316.363
-307.751
-299.341
-291.125
-283.092
-275.245
-267.576
-260.064
-252.75
-245.589
-238.572
-231.738
-225.043
-218.488
-212.094
-205.839
-199.729
-193.754
-187.924
-182.241
-176.708
-171.322
-166.082
-160.988
-156.036
-151.224
-146.548
-142.005
-137.589
-133.293
-129.119
-125.058
-121.1
-117.249
-113.495
-109.836
-106.269
-102.781
-99.3704
-96.0368
-92.7788
385.376
409.669
429.88
440.09
427.57
373.747
246.793
29.0032
-258.986
-559.123
-810.106
-957.804
-1009.15
-1009.65
-985.776
-950.31
-912.087
-873.342
-835.613
-800.304
-767.425
-736.873
-708.522
-682.192
-657.678
-634.777
-613.342
-593.189
-574.192
-556.241
-539.205
-523.031
-507.597
-492.858
-478.745
-465.2
-452.185
-439.643
-427.55
-415.86
-404.55
-393.597
-382.969
-372.648
-362.614
-352.85
-343.343
-334.08
-325.048
-316.237
-307.636
-299.235
-291.028
-283.002
-275.162
-267.499
-259.993
-252.685
-245.528
-238.515
-231.685
-224.994
-218.442
-212.05
-205.798
-199.691
-193.718
-187.889
-182.208
-176.677
-171.292
-166.054
-160.961
-156.01
-151.199
-146.524
-141.982
-137.567
-133.272
-129.1
-125.038
-121.081
-117.231
-113.477
-109.818
-106.251
-102.763
-99.353
-96.02
-92.7622
385.4
409.41
429.212
438.903
426.006
372.612
248.185
39.1051
-238.113
-528.182
-775.295
-925.028
-983.292
-989.923
-970.597
-938.688
-902.794
-866.001
-829.685
-795.43
-763.367
-733.452
-705.605
-679.678
-655.492
-632.861
-611.651
-591.689
-572.857
-555.049
-538.14
-522.076
-506.744
-492.095
-478.063
-464.59
-451.638
-439.151
-427.106
-415.46
-404.189
-393.27
-382.673
-372.379
-362.37
-352.627
-343.14
-333.895
-324.879
-316.083
-307.494
-299.106
-290.909
-282.893
-275.061
-267.406
-259.907
-252.605
-245.454
-238.446
-231.622
-224.935
-218.387
-211.999
-205.749
-199.645
-193.675
-187.849
-182.17
-176.641
-171.258
-166.021
-160.93
-155.981
-151.171
-146.498
-141.956
-137.542
-133.248
-129.076
-125.016
-121.059
-117.209
-113.456
-109.799
-106.232
-102.744
-99.3344
-96.0019
-92.7436
385.355
409.03
428.352
437.443
424.11
371.146
249.643
49.2517
-216.607
-496.034
-738.57
-889.796
-955.081
-968.122
-953.736
-925.615
-892.366
-857.74
-822.998
-789.918
-758.768
-729.57
-702.291
-676.822
-653.007
-630.684
-609.727
-589.98
-571.329
-553.678
-536.907
-520.963
-505.739
-491.186
-477.242
-463.848
-450.969
-438.549
-426.562
-414.969
-403.744
-392.867
-382.306
-372.046
-362.067
-352.352
-342.889
-333.666
-324.67
-315.892
-307.319
-298.945
-290.762
-282.757
-274.936
-267.291
-259.801
-252.508
-245.365
-238.363
-231.545
-224.864
-218.32