/*--------------------------------*- C++ -*----------------------------------*\
| =========                 |                                                 |
| \\      /  F ield         | OpenFOAM: The Open Source CFD Toolbox           |
|  \\    /   O peration     | Version:  2412                                  |
|   \\  /    A nd           | Website:  www.openfoam.com                      |
|    \\/     M anipulation  |                                                 |
\*---------------------------------------------------------------------------*/
FoamFile
{
    version     2.0;
    format      ascii;
    arch        "LSB;label=32;scalar=64";
    class       surfaceScalarField;
    location    "240";
    object      phi;
}
// * * * * * * * * * * * * * * * * * * * * * * * * * * * * * * * * * * * * * //

dimensions      [0 3 -1 0 0 0 0];

oriented        oriented;

internalField   nonuniform List<scalar> 
14654
(
1.11985e-06
5.03705e-07
-1.62356e-06
1.46394e-06
-3.44091e-07
1.0967e-06
3.67237e-07
1.21084e-06
-1.14132e-07
1.20076e-06
1.00721e-08
-4.56074e-07
1.65684e-06
-3.08847e-06
2.6324e-06
-4.42731e-06
1.33883e-06
-4.03475e-06
-3.92559e-07
-3.40196e-06
-6.32789e-07
-3.07652e-06
-3.25433e-07
-2.90906e-06
-1.67466e-07
-2.85324e-06
-5.58142e-08
-2.8938e-06
4.0557e-08
-2.97623e-06
8.24246e-08
-3.0293e-06
5.30743e-08
-3.04435e-06
1.50531e-08
-3.02798e-06
-1.63758e-08
-2.98731e-06
-4.06652e-08
-2.95092e-06
-3.63988e-08
-2.9333e-06
-1.76109e-08
-2.93249e-06
-8.16657e-10
-2.94218e-06
9.69247e-09
-2.95131e-06
9.13041e-09
-2.95541e-06
4.09367e-09
-2.95585e-06
4.39879e-10
-2.95629e-06
4.48055e-10
-2.95927e-06
2.97546e-09
-2.9642e-06
4.93579e-09
-2.96997e-06
5.76524e-09
-2.97543e-06
5.4548e-09
-2.98094e-06
5.50972e-09
-2.9866e-06
5.6593e-09
-2.99274e-06
6.14845e-09
-2.99925e-06
6.51684e-09
-3.00587e-06
6.60569e-09
-3.01275e-06
6.89281e-09
-3.01968e-06
6.91394e-09
-3.02676e-06
7.07911e-09
-3.03377e-06
7.00809e-09
-3.04099e-06
7.22185e-09
-3.04818e-06
7.18853e-09
-3.05547e-06
7.29094e-09
-3.06267e-06
7.22248e-09
-3.06989e-06
7.19392e-09
-3.07704e-06
7.16965e-09
-3.08425e-06
7.18161e-09
-3.09131e-06
7.09157e-09
-3.09813e-06
6.78158e-09
-3.10485e-06
6.71727e-09
-3.11162e-06
6.76908e-09
-3.11808e-06
6.45464e-09
-3.12458e-06
6.49412e-09
-3.13076e-06
6.17459e-09
-3.1368e-06
6.03861e-09
-3.1428e-06
5.99354e-09
-3.14857e-06
5.81899e-09
-3.15418e-06
5.55368e-09
-3.15947e-06
5.3432e-09
-3.1645e-06
4.95562e-09
-3.16949e-06
5.05055e-09
-3.17427e-06
4.71336e-09
-3.17869e-06
4.40619e-09
-3.18293e-06
4.23585e-09
-3.18708e-06
4.1421e-09
-3.19097e-06
3.88056e-09
-3.19474e-06
3.76502e-09
-3.19815e-06
3.4022e-09
-3.20146e-06
3.29232e-09
-3.20472e-06
3.25034e-09
-3.2078e-06
3.07091e-09
-3.21068e-06
2.87066e-09
-3.21347e-06
2.77968e-09
-3.21544e-06
1.95917e-09
-3.21722e-06
1.76981e-09
-3.21875e-06
1.52403e-09
-3.21998e-06
1.21149e-09
-3.22089e-06
9.07063e-10
-3.22147e-06
5.64397e-10
-3.22161e-06
1.44192e-10
1.73997e-10
-1.15471e-06
7.3037e-07
-6.51007e-07
3.61183e-06
1.60116e-06
-6.83654e-06
4.94382e-06
-1.67608e-06
3.80815e-06
1.50291e-06
4.09433e-06
-4.00318e-07
3.70029e-06
4.04113e-07
-2.26253e-06
7.61966e-06
-1.09998e-05
1.13696e-05
-1.51684e-05
5.50748e-06
-1.39316e-05
-1.62936e-06
-1.19032e-05
-2.66118e-06
-1.08514e-05
-1.3773e-06
-1.03145e-05
-7.04287e-07
-1.01444e-05
-2.25989e-07
-1.02823e-05
1.78459e-07
-1.05485e-05
3.48679e-07
-1.07192e-05
2.23701e-07
-1.07636e-05
5.95125e-08
-1.07053e-05
-7.47414e-08
-1.05717e-05
-1.74176e-07
-1.04532e-05
-1.54891e-07
-1.03972e-05
-7.36231e-08
-1.03961e-05
-1.96121e-09
-1.04288e-05
4.23684e-08
-1.04593e-05
3.96617e-08
-1.04732e-05
1.79817e-08
-1.04757e-05
2.9833e-09
-1.04783e-05
3.06515e-09
-1.04893e-05
1.39174e-08
-1.05074e-05
2.3032e-08
-1.05271e-05
2.54546e-08
-1.0547e-05
2.5389e-08
-1.05661e-05
2.45912e-08
-1.05864e-05
2.59761e-08
-1.06087e-05
2.84339e-08
-1.06313e-05
2.91743e-08
-1.06551e-05
3.03763e-08
-1.06791e-05
3.08341e-08
-1.07039e-05
3.17436e-08
-1.07285e-05
3.16792e-08
-1.0754e-05
3.25266e-08
-1.07795e-05
3.26963e-08
-1.08047e-05
3.24289e-08
-1.08306e-05
3.31677e-08
-1.08561e-05
3.27573e-08
-1.08814e-05
3.24414e-08
-1.09071e-05
3.28673e-08
-1.09321e-05
3.21763e-08
-1.0957e-05
3.20421e-08
-1.09818e-05
3.14865e-08
-1.10059e-05
3.08054e-08
-1.10294e-05
3.02891e-08
-1.10528e-05
2.98486e-08
-1.10751e-05
2.8783e-08
-1.10976e-05
2.86984e-08
-1.1119e-05
2.73559e-08
-1.11399e-05
2.69143e-08
-1.11599e-05
2.59464e-08
-1.11799e-05
2.54123e-08
-1.11988e-05
2.42929e-08
-1.12168e-05
2.28825e-08
-1.12341e-05
2.24324e-08
-1.12506e-05
2.10889e-08
-1.1267e-05
2.07887e-08
-1.12822e-05
1.94209e-08
-1.12967e-05
1.86282e-08
-1.13102e-05
1.7447e-08
-1.13232e-05
1.67295e-08
-1.13359e-05
1.6039e-08
-1.13476e-05
1.50475e-08
-1.13585e-05
1.41031e-08
-1.13695e-05
1.40158e-08
-1.138e-05
1.33891e-08
-1.13891e-05
1.187e-08
-1.13969e-05
9.71934e-09
-1.14027e-05
7.5048e-09
-1.14081e-05
6.96059e-09
-1.14123e-05
5.38736e-09
-1.14155e-05
4.08757e-09
-1.14175e-05
2.52895e-09
-1.14185e-05
1.21179e-09
2.09061e-10
-3.82147e-06
3.01941e-06
-2.87132e-06
6.68383e-06
2.94354e-06
-1.64639e-05
9.44287e-06
-4.43511e-06
7.46324e-06
3.48254e-06
7.82798e-06
-7.65065e-07
6.42138e-06
1.81072e-06
-5.62663e-06
1.96677e-05
-2.21035e-05
2.78465e-05
-2.95061e-05
1.291e-05
-2.7219e-05
-3.91647e-06
-2.35507e-05
-6.32947e-06
-2.16326e-05
-3.29539e-06
-2.06612e-05
-1.67566e-06
-2.03691e-05
-5.1808e-07
-2.0637e-05
4.46365e-07
-2.1124e-05
8.35667e-07
-2.14334e-05
5.33113e-07
-2.15068e-05
1.32905e-07
-2.13905e-05
-1.91049e-07
-2.11417e-05
-4.22949e-07
-2.09234e-05
-3.73258e-07
-2.08226e-05
-1.74391e-07
-2.0824e-05
-5.20098e-10
-2.08865e-05
1.04819e-07
-2.09448e-05
9.79981e-08
-2.09714e-05
4.45161e-08
-2.09779e-05
9.54394e-09
-2.0986e-05
1.11167e-08
-2.10093e-05
3.72664e-08
-2.10443e-05
5.80187e-08
-2.10848e-05
6.597e-08
-2.11241e-05
6.46404e-08
-2.1163e-05
6.35247e-08
-2.12041e-05
6.71123e-08
-2.12483e-05
7.25503e-08
-2.12947e-05
7.5637e-08
-2.13419e-05
7.75098e-08
-2.13902e-05
7.91696e-08
-2.14393e-05
8.07914e-08
-2.14891e-05
8.15225e-08
-2.15396e-05
8.30724e-08
-2.15906e-05
8.36508e-08
-2.16421e-05
8.3943e-08
-2.16935e-05
8.4581e-08
-2.17451e-05
8.43179e-08
-2.17965e-05
8.38808e-08
-2.1847e-05
8.33943e-08
-2.18974e-05
8.25267e-08
-2.19476e-05
8.2274e-08
-2.19966e-05
8.0387e-08
-2.20449e-05
7.90907e-08
-2.20922e-05
7.76037e-08
-2.21386e-05
7.62591e-08
-2.21843e-05
7.44799e-08
-2.22282e-05
7.25453e-08
-2.22718e-05
7.09902e-08
-2.23133e-05
6.83766e-08
-2.23543e-05
6.70891e-08
-2.23931e-05
6.41114e-08
-2.24313e-05
6.25368e-08
-2.24677e-05
5.92164e-08
-2.25022e-05
5.70307e-08
-2.25362e-05
5.48927e-08
-2.25675e-05
5.21144e-08
-2.2598e-05
4.98907e-08
-2.26267e-05
4.73242e-08
-2.2654e-05
4.4774e-08
-2.26811e-05
4.38212e-08
-2.27058e-05
4.06774e-08
-2.27287e-05
3.79651e-08
-2.27511e-05
3.64955e-08
-2.27732e-05
3.60699e-08
-2.27941e-05
3.42554e-08
-2.28129e-05
3.06149e-08
-2.28274e-05
2.42824e-08
-2.28395e-05
1.94942e-08
-2.285e-05
1.7525e-08
-2.28578e-05
1.3149e-08
-2.28638e-05
1.01045e-08
-2.28682e-05
6.81639e-09
-2.28698e-05
2.85903e-09
5.54037e-10
-7.18342e-06
7.13523e-06
-7.11119e-06
1.04118e-05
4.55753e-06
-3.14332e-05
1.50802e-05
-9.10356e-06
1.22624e-05
6.3004e-06
1.25115e-05
-1.01425e-06
9.06943e-06
5.25283e-06
-1.13596e-05
4.00967e-05
-3.73592e-05
5.38461e-05
-4.8288e-05
2.38388e-05
-4.47036e-05
-7.50091e-06
-3.92197e-05
-1.18133e-05
-3.63228e-05
-6.1923e-06
-3.48679e-05
-3.13061e-06
-3.44598e-05
-9.26102e-07
-3.48917e-05
8.78268e-07
-3.56338e-05
1.57775e-06
-3.60958e-05
9.95116e-07
-3.61927e-05
2.29836e-07
-3.59993e-05
-3.84517e-07
-3.5611e-05
-8.11219e-07
-3.52784e-05
-7.05905e-07
-3.51289e-05
-3.23827e-07
-3.51385e-05
9.08764e-09
-3.52392e-05
2.05473e-07
-3.53311e-05
1.89907e-07
-3.53748e-05
8.81719e-08
-3.53884e-05
2.3174e-08
-3.54045e-05
2.71966e-08
-3.54452e-05
7.7971e-08
-3.55073e-05
1.20128e-07
-3.55745e-05
1.332e-07
-3.564e-05
1.30107e-07
-3.57065e-05
1.30029e-07
-3.57767e-05
1.3734e-07
-3.58513e-05
1.47109e-07
-3.59289e-05
1.53282e-07
-3.6008e-05
1.56593e-07
-3.60896e-05
1.60831e-07
-3.6172e-05
1.63147e-07
-3.62574e-05
1.66919e-07
-3.63425e-05
1.68136e-07
-3.64285e-05
1.69694e-07
-3.65148e-05
1.70165e-07
-3.66008e-05
1.70659e-07
-3.66874e-05
1.70907e-07
-3.67737e-05
1.70129e-07
-3.68597e-05
1.69487e-07
-3.69449e-05
1.67653e-07
-3.70285e-05
1.6587e-07
-3.71108e-05
1.62657e-07
-3.71923e-05
1.60594e-07
-3.72722e-05
1.57467e-07
-3.73508e-05
1.54901e-07
-3.74278e-05
1.51466e-07
-3.75028e-05
1.47487e-07
-3.75753e-05
1.4348e-07
-3.76462e-05
1.39307e-07
-3.77139e-05
1.34806e-07
-3.77805e-05
1.30654e-07
-3.78436e-05
1.25713e-07
-3.79052e-05
1.2071e-07
-3.7964e-05
1.15971e-07
-3.80204e-05
1.11089e-07
-3.80736e-05
1.05362e-07
-3.81246e-05
1.00853e-07
-3.81747e-05
9.7409e-08
-3.82209e-05
9.09717e-08
-3.82643e-05
8.71883e-08
-3.83053e-05
8.16799e-08
-3.83452e-05
7.7866e-08
-3.8383e-05
7.42037e-08
-3.84192e-05
7.22435e-08
-3.84537e-05
6.88181e-08
-3.8486e-05
6.28985e-08
-3.85103e-05
4.8501e-08
-3.85301e-05
3.93354e-08
-3.85471e-05
3.44274e-08
-3.85613e-05
2.73891e-08
-3.85714e-05
2.01254e-08
-3.8577e-05
1.24094e-08
-3.858e-05
5.86294e-09
2.93152e-10
-1.13121e-05
1.33469e-05
-1.38658e-05
1.47702e-05
6.4403e-06
-5.26437e-05
2.19269e-05
-1.62603e-05
1.83927e-05
9.83464e-06
1.82114e-05
-8.32989e-07
1.11102e-05
1.2354e-05
-2.0598e-05
7.1805e-05
-5.78759e-05
9.1124e-05
-7.24183e-05
3.83813e-05
-6.73296e-05
-1.25897e-05
-5.9971e-05
-1.91719e-05
-5.60323e-05
-1.0131e-05
-5.4081e-05
-5.08187e-06
-5.35772e-05
-1.42991e-06
-5.42066e-05
1.50764e-06
-5.52259e-05
2.59702e-06
-5.58422e-05
1.61149e-06
-5.5949e-05
3.36624e-07
-5.56551e-05
-6.78492e-07
-5.51086e-05
-1.35765e-06
-5.46525e-05
-1.16206e-06
-5.44554e-05
-5.2086e-07
-5.44795e-05
3.3137e-08
-5.4627e-05
3.53016e-07
-5.47595e-05
3.22397e-07
-5.48255e-05
1.54146e-07
-5.48501e-05
4.77546e-08
-5.48814e-05
5.85502e-08
-5.49474e-05
1.43961e-07
-5.50409e-05
2.13586e-07
-5.51452e-05
2.37553e-07
-5.52484e-05
2.33253e-07
-5.53513e-05
2.32948e-07
-5.54589e-05
2.44985e-07
-5.55743e-05
2.6248e-07
-5.5695e-05
2.7393e-07
-5.58182e-05
2.79791e-07
-5.59429e-05
2.85599e-07
-5.60713e-05
2.91467e-07
-5.62009e-05
2.96523e-07
-5.63331e-05
3.0037e-07
-5.64654e-05
3.02021e-07
-5.65991e-05
3.03827e-07
-5.67322e-05
3.0377e-07
-5.68664e-05
3.05139e-07
-5.69993e-05
3.03006e-07
-5.71319e-05
3.02104e-07
-5.7262e-05
2.97741e-07
-5.73924e-05
2.96321e-07
-5.75201e-05
2.9025e-07
-5.76461e-05
2.86603e-07
-5.77691e-05
2.80468e-07
-5.78905e-05
2.76251e-07
-5.80083e-05
2.69321e-07
-5.81237e-05
2.62811e-07
-5.82348e-05
2.5455e-07
-5.83444e-05
2.48892e-07
-5.84501e-05
2.40601e-07
-5.85524e-05
2.32923e-07
-5.86508e-05
2.24144e-07
-5.87449e-05
2.14737e-07
-5.88354e-05
2.0657e-07
-5.89217e-05
1.97239e-07
-5.90053e-05
1.88991e-07
-5.90843e-05
1.79775e-07
-5.91574e-05
1.70519e-07
-5.923e-05
1.63535e-07
-5.92978e-05
1.54987e-07
-5.9362e-05
1.45873e-07
-5.94228e-05
1.38593e-07
-5.9481e-05
1.32453e-07
-5.95366e-05
1.27824e-07
-5.95903e-05
1.22422e-07
-5.96379e-05
1.10466e-07
-5.96769e-05
8.75014e-08
-5.9707e-05
6.94053e-08
-5.9733e-05
6.04489e-08
-5.97531e-05
4.75108e-08
-5.97693e-05
3.62999e-08
-5.97784e-05
2.14682e-08
-5.9781e-05
8.46175e-09
-7.26911e-10
-1.61724e-05
2.18209e-05
-2.35978e-05
1.96788e-05
8.46447e-06
-8.07869e-05
2.99905e-05
-2.6572e-05
2.59935e-05
1.38317e-05
2.49103e-05
2.5015e-07
1.16946e-05
2.55698e-05
-3.48178e-05
0.000118317
-8.48639e-05
0.00014117
-0.000102828
5.63457e-05
-9.61347e-05
-1.92834e-05
-8.70072e-05
-2.82993e-05
-8.20525e-05
-1.50857e-05
-7.96354e-05
-7.49905e-06
-7.90775e-05
-1.98773e-06
-7.99262e-05
2.3563e-06
-8.12214e-05
3.89221e-06
-8.19733e-05
2.36343e-06
-8.20686e-05
4.31879e-07
-8.16551e-05
-1.09201e-06
-8.09415e-05
-2.07119e-06
-8.03598e-05
-1.74379e-06
-8.0123e-05
-7.57711e-07
-8.01711e-05
8.12453e-08
-8.03741e-05
5.56069e-07
-8.05524e-05
5.00726e-07
-8.06443e-05
2.45973e-07
-8.06877e-05
9.11901e-08
-8.07411e-05
1.11939e-07
-8.08419e-05
2.44802e-07
-8.09812e-05
3.529e-07
-8.11311e-05
3.87423e-07
-8.12791e-05
3.8122e-07
-8.14306e-05
3.84453e-07
-8.1589e-05
4.03408e-07
-8.17573e-05
4.30734e-07
-8.19321e-05
4.4872e-07
-8.21116e-05
4.59325e-07
-8.22949e-05
4.68869e-07
-8.24826e-05
4.79223e-07
-8.26702e-05
4.84112e-07
-8.28624e-05
4.92494e-07
-8.30549e-05
4.94532e-07
-8.32497e-05
4.98679e-07
-8.3444e-05
4.97992e-07
-8.36375e-05
4.98722e-07
-8.38314e-05
4.96877e-07
-8.40239e-05
4.94649e-07
-8.42149e-05
4.88657e-07
-8.44022e-05
4.83679e-07
-8.4588e-05
4.75947e-07
-8.47713e-05
4.69989e-07
-8.49522e-05
4.61262e-07
-8.51275e-05
4.51611e-07
-8.52979e-05
4.39672e-07
-8.54663e-05
4.3123e-07
-8.56301e-05
4.1836e-07
-8.57883e-05
4.07031e-07
-8.5943e-05
3.95402e-07
-8.60893e-05
3.79147e-07
-8.62321e-05
3.66973e-07
-8.63693e-05
3.51836e-07
-8.65023e-05
3.39643e-07
-8.66291e-05
3.2394e-07
-8.6749e-05
3.08911e-07
-8.68626e-05
2.93308e-07
-8.69735e-05
2.81411e-07
-8.70761e-05
2.66087e-07
-8.71741e-05
2.52987e-07
-8.72671e-05
2.38851e-07
-8.73545e-05
2.25988e-07
-8.74391e-05
2.17019e-07
-8.752e-05
2.08684e-07
-8.75983e-05
2.00757e-07
-8.76668e-05
1.78946e-07
-8.7722e-05
1.42603e-07
-8.77653e-05
1.12724e-07
-8.78024e-05
9.75398e-08
-8.78329e-05
7.7917e-08
-8.78536e-05
5.70522e-08
-8.78673e-05
3.51435e-08
-8.78702e-05
1.13258e-08
-6.44237e-10
-2.15987e-05
3.25037e-05
-3.67321e-05
2.51436e-05
1.04719e-05
-0.000116402
3.91632e-05
-4.05917e-05
3.50958e-05
1.7899e-05
3.24539e-05
2.89209e-06
9.54818e-06
4.84755e-05
-5.58606e-05
0.000183726
-0.000119485
0.000204794
-0.000140371
7.72316e-05
-0.000132126
-2.7528e-05
-0.000121519
-3.89061e-05
-0.000115676
-2.09294e-05
-0.000112884
-1.02907e-05
-0.000112327
-2.54493e-06
-0.0001134
3.42944e-06
-0.000114934
5.42634e-06
-0.000115787
3.21658e-06
-0.000115842
4.87118e-07
-0.000115296
-1.63883e-06
-0.000114413
-2.95393e-06
-0.000113726
-2.43023e-06
-0.000113464
-1.02015e-06
-0.000113547
1.64803e-07
-0.000113812
8.20456e-07
-0.00011404
7.29331e-07
-0.000114165
3.70624e-07
-0.000114231
1.57427e-07
-0.000114319
1.99395e-07
-0.000114466
3.92162e-07
-0.000114657
5.43839e-07
-0.000114866
5.96267e-07
-0.000115074
5.88997e-07
-0.000115284
5.9429e-07
-0.000115505
6.24568e-07
-0.000115739
6.64925e-07
-0.000115982
6.92269e-07
-0.000116231
7.08175e-07
-0.000116485
7.22948e-07
-0.000116742
7.35723e-07
-0.000117005
7.47502e-07
-0.00011727
7.56678e-07
-0.000117538
7.6313e-07
-0.000117805
7.6513e-07
-0.000118075
7.68006e-07
-0.000118343
7.67328e-07
-0.000118611
7.64944e-07
-0.000118878
7.61399e-07
-0.000119142
7.52311e-07
-0.000119404
7.46166e-07
-0.000119661
7.33056e-07
-0.000119914
7.22321e-07
-0.000120161
7.08936e-07
-0.000120404
6.94546e-07
-0.000120643
6.78674e-07
-0.000120875
6.63246e-07
-0.000121102
6.45058e-07
-0.000121321
6.26058e-07
-0.000121532
6.06378e-07
-0.000121738
5.84692e-07
-0.000121937
5.66648e-07
-0.000122124
5.38986e-07
-0.000122307
5.22098e-07
-0.000122481
4.98435e-07
-0.000122648
4.75136e-07
-0.000122807
4.53005e-07
-0.000122957
4.309e-07
-0.000123101
4.10296e-07
-0.000123236
3.88149e-07
-0.000123365
3.68048e-07
-0.000123486
3.46167e-07
-0.000123602
3.33315e-07
-0.000123712
3.19153e-07
-0.000123818
3.066e-07
-0.000123915
2.75214e-07
-0.000123991
2.18521e-07
-0.00012405
1.71967e-07
-0.000124101
1.4863e-07
-0.000124139
1.16327e-07
-0.000124169
8.63129e-08
-0.000124185
5.1499e-08
-0.000124191
1.73965e-08
-4.18472e-09
-2.73815e-05
4.51149e-05
-5.36417e-05
3.10057e-05
1.20851e-05
-0.000159493
4.92478e-05
-5.88337e-05
4.55809e-05
2.15659e-05
4.03825e-05
8.09046e-06
2.87007e-06
8.59879e-05
-8.57491e-05
0.000272345
-0.000162667
0.000281712
-0.000185645
0.00010021
-0.000176024
-3.71495e-05
-0.00016434
-5.059e-05
-0.000157833
-2.74366e-05
-0.000154802
-1.33217e-05
-0.000154303
-3.04412e-06
-0.000155581
4.70832e-06
-0.000157304
7.14913e-06
-0.000158208
4.12017e-06
-0.000158192
4.71333e-07
-0.000157506
-2.32513e-06
-0.000156482
-3.97773e-06
-0.00015571
-3.20246e-06
-0.000155441
-1.28894e-06
-0.000155574
2.97741e-07
-0.000155901
1.14772e-06
-0.000156182
1.01036e-06
-0.000156343
5.31275e-07
-0.000156445
2.59753e-07
-0.000156573
3.26827e-07
-0.000156774
5.93898e-07
-0.000157032
8.01293e-07
-0.000157306
8.70093e-07
-0.000157581
8.64572e-07
-0.000157859
8.71867e-07
-0.000158154
9.203e-07
-0.000158463
9.73787e-07
-0.000158785
1.0143e-06
-0.000159114
1.03675e-06
-0.000159447
1.05628e-06
-0.000159788
1.07691e-06
-0.000160137
1.09645e-06
-0.000160487
1.10605e-06
-0.000160839
1.115e-06
-0.000161193
1.11954e-06
-0.000161548
1.12247e-06
-0.000161904
1.12343e-06
-0.000162257
1.11823e-06
-0.000162605
1.10986e-06
-0.000162954
1.10122e-06
-0.000163299
1.09057e-06
-0.000163638
1.07233e-06
-0.00016397
1.05466e-06
-0.000164296
1.03469e-06
-0.000164617
1.01561e-06
-0.000164932
9.93794e-07
-0.000165237
9.67512e-07
-0.000165533
9.41691e-07
-0.000165823
9.15917e-07
-0.000166103
8.86532e-07
-0.000166372
8.53761e-07
-0.000166629
8.23418e-07
-0.000166881
7.90817e-07
-0.000167121
7.62508e-07
-0.00016735
7.27145e-07
-0.000167568
6.93303e-07
-0.000167777
6.61781e-07
-0.000167975
6.28505e-07
-0.000168162
5.97161e-07
-0.00016834
5.6642e-07
-0.000168509
5.36724e-07
-0.000168669
5.06479e-07
-0.000168818
4.82586e-07
-0.000168966
4.66474e-07
-0.000169103
4.44012e-07
-0.000169228
4.00612e-07
-0.000169327
3.16728e-07
-0.000169406
2.5095e-07
-0.00016947
2.1273e-07
-0.000169525
1.71419e-07
-0.000169561
1.21934e-07
-0.000169581
7.20375e-08
-0.000169585
2.15806e-08
-8.00571e-09
-3.30749e-05
5.89059e-05
-7.46315e-05
3.72002e-05
1.28682e-05
-0.000209562
5.99078e-05
-8.15413e-05
5.71077e-05
2.4366e-05
4.74452e-05
1.7753e-05
-1.07733e-05
0.000144206
-0.000126195
0.000387767
-0.00021488
0.000370397
-0.000238794
0.000124124
-0.000227974
-4.79693e-05
-0.000215572
-6.29928e-05
-0.000208634
-3.43742e-05
-0.000205493
-1.64623e-05
-0.000205114
-3.4235e-06
-0.000206586
6.17978e-06
-0.000208441
9.0045e-06
-0.000209354
5.03276e-06
-0.000209249
3.66848e-07
-0.000208423
-3.1514e-06
-0.000207275
-5.12562e-06
-0.000206446
-4.0317e-06
-0.000206193
-1.54143e-06
-0.00020638
4.84419e-07
-0.000206775
1.54339e-06
-0.000207108
1.34265e-06
-0.000207309
7.32801e-07
-0.000207446
3.96671e-07
-0.000207627
5.07831e-07
-0.000207891
8.5733e-07
-0.000208217
1.12746e-06
-0.00020856
1.21327e-06
-0.000208909
1.21321e-06
-0.000209263
1.22606e-06
-0.000209636
1.29384e-06
-0.000210027
1.36398e-06
-0.00021043
1.4182e-06
-0.000210845
1.45096e-06
-0.000211267
1.47884e-06
-0.000211697
1.5063e-06
-0.000212129
1.52844e-06
-0.000212571
1.54804e-06
-0.000213015
1.55985e-06
-0.000213459
1.5632e-06
-0.000213906
1.56915e-06
-0.000214351
1.56903e-06
-0.000214794
1.56057e-06
-0.000215236
1.55228e-06
-0.000215671
1.5359e-06
-0.000216101
1.52106e-06
-0.000216525
1.49586e-06
-0.000216944
1.47345e-06
-0.000217354
1.44459e-06
-0.000217755
1.41658e-06
-0.000218147
1.38599e-06
-0.000218529
1.35003e-06
-0.0002189
1.31267e-06
-0.000219262
1.27769e-06
-0.000219612
1.23616e-06
-0.000219949
1.19062e-06
-0.000220275
1.15029e-06
-0.000220586
1.10119e-06
-0.000220885
1.0615e-06
-0.000221173
1.01512e-06
-0.000221445
9.65691e-07
-0.000221703
9.19835e-07
-0.00022195
8.75631e-07
-0.000222187
8.3408e-07
-0.000222412
7.90661e-07
-0.000222619
7.44507e-07
-0.000222817
7.0383e-07
-0.000223005
6.71193e-07
-0.000223188
6.48971e-07
-0.00022336
6.1598e-07
-0.000223518
5.58312e-07
-0.00022364
4.38804e-07
-0.000223733
3.44323e-07
-0.000223819
2.98412e-07
-0.000223879
2.31596e-07
-0.000223926
1.68597e-07
-0.000223953
9.8901e-08
-0.000223957
2.60215e-08
-1.51114e-08
-3.83333e-05
7.27445e-05
-0.000100097
4.3654e-05
1.23915e-05
-0.000265607
7.07775e-05
-0.000108665
6.90693e-05
2.60741e-05
5.15244e-05
3.52979e-05
-3.4236e-05
0.000229967
-0.000178222
0.000531753
-0.000275993
0.000468168
-0.000299462
0.000147593
-0.000287484
-5.99471e-05
-0.000274533
-7.59443e-05
-0.000267323
-4.15835e-05
-0.000264178
-1.96071e-05
-0.000263967
-3.63518e-06
-0.000265643
7.8564e-06
-0.000267614
1.09749e-05
-0.000268503
5.9223e-06
-0.000268292
1.56019e-07
-0.000267327
-4.11658e-06
-0.000266062
-6.39108e-06
-0.000265195
-4.89846e-06
-0.00026497
-1.76659e-06
-0.000265219
7.33957e-07
-0.000265684
2.0078e-06
-0.00026607
1.72911e-06
-0.000266311
9.73471e-07
-0.000266493
5.78776e-07
-0.000266723
7.38171e-07
-0.000267053
1.18724e-06
-0.00026745
1.52388e-06
-0.000267872
1.63581e-06
-0.000268289
1.63029e-06
-0.000268723
1.66013e-06
-0.000269175
1.74504e-06
-0.000269649
1.83815e-06
-0.00027014
1.90914e-06
-0.000270642
1.95337e-06
-0.000271151
1.98715e-06
-0.00027167
2.02597e-06
-0.000272197
2.05488e-06
-0.00027273
2.08092e-06
-0.000273262
2.09206e-06
-0.000273799
2.10092e-06
-0.000274336
2.10617e-06
-0.000274871
2.1039e-06
-0.000275406
2.09502e-06
-0.000275935
2.08172e-06
-0.000276462
2.06303e-06
-0.000276979
2.03721e-06
-0.000277492
2.00889e-06
-0.000277992
1.97345e-06
-0.000278486
1.93893e-06
-0.000278968
1.89892e-06
-0.000279439
1.85694e-06
-0.0002799
1.81035e-06
-0.000280349
1.76178e-06
-0.000280779
1.70842e-06
-0.000281198
1.65504e-06
-0.000281605
1.59776e-06
-0.000281993
1.53748e-06
-0.00028237
1.47882e-06
-0.000282728
1.41925e-06
-0.000283072
1.35933e-06
-0.000283402
1.29505e-06
-0.000283713
1.23066e-06
-0.000284009
1.17214e-06
-0.000284289
1.11397e-06
-0.000284553
1.05511e-06
-0.000284808
9.99035e-07
-0.000285045
9.41142e-07
-0.000285275
9.00536e-07
-0.000285491
8.65604e-07
-0.000285698
8.22844e-07
-0.000285882
7.42503e-07
-0.000286029
5.8574e-07
-0.000286145
4.60409e-07
-0.000286243
3.95493e-07
-0.000286318
3.07259e-07
-0.000286371
2.2182e-07
-0.000286401
1.28552e-07
-0.000286411
3.57275e-08
-2.68431e-08
-4.28448e-05
8.52053e-05
-0.00013055
5.03594e-05
1.06393e-05
-0.000326606
8.15264e-05
-0.000139832
8.06646e-05
2.69358e-05
4.98117e-05
6.61508e-05
-7.06801e-05
0.000350459
-0.000242258
0.000703331
-0.000345305
0.000571215
-0.000367085
0.000169373
-0.000353909
-7.31227e-05
-0.000340437
-8.94168e-05
-0.000333066
-4.89538e-05
-0.000330001
-2.26728e-05
-0.000330017
-3.61852e-06
-0.000331913
9.75182e-06
-0.000333978
1.30398e-05
-0.000334823
6.76761e-06
-0.000334484
-1.82597e-07
-0.000333367
-5.23362e-06
-0.000331995
-7.76372e-06
-0.000331097
-5.79654e-06
-0.00033091
-1.95358e-06
-0.000331232
1.05595e-06
-0.000331769
2.5448e-06
-0.000332211
2.17176e-06
-0.000332497
1.25948e-06
-0.000332724
8.05229e-07
-0.000333011
1.02527e-06
-0.00033341
1.58657e-06
-0.000333884
1.99738e-06
-0.000334381
2.13311e-06
-0.000334882
2.13138e-06
-0.000335393
2.17117e-06
-0.000335928
2.28032e-06
-0.000336495
2.40438e-06
-0.000337072
2.48704e-06
-0.000337661
2.54172e-06
-0.000338266
2.59284e-06
-0.000338876
2.63555e-06
-0.000339497
2.67592e-06
-0.000340123
2.70662e-06
-0.000340752
2.72102e-06
-0.000341384
2.73343e-06
-0.000342014
2.73609e-06
-0.000342646
2.73603e-06
-0.000343272
2.72112e-06
-0.000343895
2.70481e-06
-0.000344512
2.67984e-06
-0.000345119
2.6442e-06
-0.00034572
2.60964e-06
-0.000346311
2.56472e-06
-0.000346887
2.51452e-06
-0.000347455
2.46712e-06
-0.000348006
2.40745e-06
-0.000348547
2.35154e-06
-0.000349069
2.28368e-06
-0.000349578
2.21729e-06
-0.000350071
2.14871e-06
-0.000350545
2.0714e-06
-0.000351001
1.9936e-06
-0.000351442
1.91954e-06
-0.000351863
1.83996e-06
-0.000352264
1.76099e-06
-0.00035265
1.6805e-06
-0.000353015
1.59592e-06
-0.000353361
1.51793e-06
-0.000353692
1.44567e-06
-0.000354006
1.3683e-06
-0.0003543
1.29356e-06
-0.00035458
1.22103e-06
-0.000354843
1.16368e-06
-0.0003551
1.12266e-06
-0.000355346
1.0685e-06
-0.000355564
9.60716e-07
-0.000355738
7.5997e-07
-0.000355871
5.93313e-07
-0.000355986
5.10591e-07
-0.000356077
3.97612e-07
-0.000356142
2.86684e-07
-0.000356175
1.62215e-07
-0.000356185
4.51058e-08
-3.73088e-08
-4.65113e-05
9.51538e-05
-0.000166422
5.74849e-05
8.11119e-06
-0.000392202
9.22364e-05
-0.000174583
9.08568e-05
2.83154e-05
3.89888e-05
0.000118019
-0.000122755
0.000512202
-0.000317747
0.000898323
-0.000421924
0.000675392
-0.00044146
0.00018891
-0.000427198
-8.73851e-05
-0.000413273
-0.000103342
-0.000405842
-5.63845e-05
-0.000402924
-2.5591e-05
-0.000403195
-3.34728e-06
-0.000405296
1.18522e-05
-0.000407431
1.51745e-05
-0.000408205
7.54203e-06
-0.000407726
-6.6177e-07
-0.00040646
-6.49963e-06
-0.000404985
-9.23893e-06
-0.000404069
-6.71256e-06
-0.000403932
-2.08973e-06
-0.000404338
1.4613e-06
-0.000404958
3.16479e-06
-0.00040546
2.67359e-06
-0.000405792
1.59181e-06
-0.00040607
1.08365e-06
-0.000406421
1.37621e-06
-0.000406897
2.06188e-06
-0.000407457
2.55737e-06
-0.00040804
2.71663e-06
-0.000408627
2.71861e-06
-0.000409229
2.77232e-06
-0.00040986
2.91147e-06
-0.000410516
3.06053e-06
-0.000411195
3.16664e-06
-0.000411888
3.23465e-06
-0.000412589
3.29306e-06
-0.000413305
3.35185e-06
-0.000414027
3.39851e-06
-0.000414755
3.43449e-06
-0.000415492
3.45801e-06
-0.000416225
3.46628e-06
-0.000416964
3.47444e-06
-0.000417694
3.4668e-06
-0.000418425
3.45222e-06
-0.000419148
3.4277e-06
-0.000419864
3.3955e-06
-0.000420578
3.35813e-06
-0.00042127
3.30221e-06
-0.000421953
3.24686e-06
-0.000422627
3.18893e-06
-0.000423286
3.12607e-06
-0.000423928
3.04964e-06
-0.000424554
2.97698e-06
-0.000425163
2.89335e-06
-0.000425753
2.80746e-06
-0.000426323
2.7183e-06
-0.000426876
2.62447e-06
-0.000427407
2.52407e-06
-0.000427914
2.42661e-06
-0.000428409
2.33519e-06
-0.000428878
2.22994e-06
-0.000429323
2.12529e-06
-0.000429747
2.02044e-06
-0.000430153
1.92387e-06
-0.000430536
1.82801e-06
-0.000430901
1.73379e-06
-0.000431244
1.63705e-06
-0.00043157
1.54685e-06
-0.000431883
1.47652e-06
-0.000432185
1.42444e-06
-0.00043247
1.35338e-06
-0.000432724
1.21521e-06
-0.000432926
9.61076e-07
-0.000433084
7.51541e-07
-0.000433219
6.45717e-07
-0.000433327
5.0528e-07
-0.000433401
3.61161e-07
-0.000433449
2.10188e-07
-0.000433457
5.28551e-08
-4.33358e-08
-4.95317e-05
0.000102271
-0.000207842
6.53634e-05
4.93673e-06
-0.000462502
0.000103121
-0.000212341
9.79189e-05
3.35173e-05
1.5702e-05
0.000200236
-0.000191496
0.0007194
-0.000404223
0.00111105
-0.00050593
0.000777099
-0.000523245
0.000206225
-0.00050824
-0.00010239
-0.000494033
-0.000117549
-0.000486618
-6.37991e-05
-0.000483873
-2.83363e-05
-0.00048438
-2.84012e-06
-0.000486661
1.41333e-05
-0.000488827
1.73403e-05
-0.000489507
8.22199e-06
-0.000488878
-1.29059e-06
-0.000487472
-7.90588e-06
-0.000485906
-1.08048e-05
-0.000484995
-7.6242e-06
-0.000484928
-2.15653e-06
-0.000485424
1.95761e-06
-0.000486131
3.87202e-06
-0.000486698
3.24015e-06
-0.000487087
1.98132e-06
-0.000487428
1.42475e-06
-0.000487859
1.80712e-06
-0.000488425
2.62744e-06
-0.000489081
3.21358e-06
-0.000489766
3.40139e-06
-0.000490452
3.40443e-06
-0.000491156
3.47612e-06
-0.000491892
3.64789e-06
-0.00049266
3.82883e-06
-0.000493452
3.95822e-06
-0.000494259
4.0415e-06
-0.000495076
4.11021e-06
-0.00049591
4.18596e-06
-0.000496752
4.24017e-06
-0.000497601
4.28378e-06
-0.000498448
4.3056e-06
-0.000499306
4.32394e-06
-0.000500158
4.32627e-06
-0.000501014
4.32262e-06
-0.000501861
4.29895e-06
-0.000502705
4.27269e-06
-0.000503536
4.22615e-06
-0.000504352
4.17383e-06
-0.000505163
4.11372e-06
-0.000505963
4.04645e-06
-0.000506742
3.96833e-06
-0.000507502
3.88592e-06
-0.000508248
3.79498e-06
-0.000508974
3.70344e-06
-0.00050968
3.59911e-06
-0.000510367
3.49434e-06
-0.000511028
3.38012e-06
-0.000511669
3.26546e-06
-0.000512286
3.14075e-06
-0.00051288
3.02028e-06
-0.000513446
2.90171e-06
-0.00051399
2.77332e-06
-0.00051451
2.64571e-06
-0.000515005
2.51532e-06
-0.000515475
2.39354e-06
-0.000515922
2.27567e-06
-0.000516346
2.15742e-06
-0.000516747
2.03846e-06
-0.000517131
1.93073e-06
-0.000517493
1.83797e-06
-0.000517843
1.77485e-06
-0.000518181
1.6908e-06
-0.000518483
1.51743e-06
-0.00051872
1.19809e-06
-0.000518908
9.39217e-07
-0.000519067
8.04639e-07
-0.000519192
6.30785e-07
-0.000519284
4.53085e-07
-0.000519336
2.61836e-07
-0.000519353
6.98422e-08
-4.9075e-08
-5.17812e-05
0.000106646
-0.000254687
7.42077e-05
9.98761e-07
-0.000537708
0.000113909
-0.000252042
9.92047e-05
4.82212e-05
-2.27532e-05
0.000322194
-0.000276705
0.000973352
-0.000501445
0.00133579
-0.000598243
0.000873896
-0.000613979
0.000221961
-0.000598713
-0.000117656
-0.000584375
-0.000131887
-0.000576988
-7.1187e-05
-0.000574405
-3.09187e-05
-0.000575106
-2.13926e-06
-0.000577509
1.6536e-05
-0.000579683
1.95149e-05
-0.000580262
8.80128e-06
-0.000579497
-2.05654e-06
-0.000577965
-9.43744e-06
-0.000576337
-1.24326e-05
-0.000575446
-8.51519e-06
-0.000575454
-2.14877e-06
-0.000576049
2.55221e-06
-0.000576848
4.67138e-06
-0.000577496
3.88824e-06
-0.000577956
2.44176e-06
-0.000578373
1.8413e-06
-0.000578896
2.33056e-06
-0.000579574
3.30478e-06
-0.00058034
3.97997e-06
-0.000581133
4.19396e-06
-0.000581943
4.21467e-06
-0.000582765
4.29864e-06
-0.00058363
4.51236e-06
-0.000584524
4.72261e-06
-0.000585447
4.88104e-06
-0.000586386
4.98099e-06
-0.00058734
5.06402e-06
-0.000588303
5.14946e-06
-0.000589287
5.22397e-06
-0.000590273
5.26991e-06
-0.000591267
5.29951e-06
-0.000592259
5.31587e-06
-0.000593254
5.32156e-06
-0.000594243
5.31089e-06
-0.000595228
5.28427e-06
-0.000596201
5.24611e-06
-0.000597171
5.19529e-06
-0.000598127
5.12992e-06
-0.000599063
5.05042e-06
-0.000599986
4.9686e-06
-0.000600891
4.87378e-06
-0.000601778
4.77319e-06
-0.000602646
4.66259e-06
-0.000603487
4.54457e-06
-0.000604309
4.42116e-06
-0.000605105
4.28989e-06
-0.000605878
4.15318e-06
-0.000606617
4.0049e-06
-0.000607333
3.85645e-06
-0.000608023
3.71026e-06
-0.000608684
3.5626e-06
-0.000609318
3.40804e-06
-0.000609922
3.24914e-06
-0.000610497
3.09031e-06
-0.000611044
2.94071e-06
-0.000611566
2.79807e-06
-0.000612064
2.65513e-06
-0.000612535
2.50939e-06
-0.000612978
2.37404e-06
-0.000613413
2.27228e-06
-0.000613823
2.18497e-06
-0.000614214
2.08225e-06
-0.000614571
1.87373e-06
-0.00061485
1.47717e-06
-0.000615069
1.15871e-06
-0.00061526
9.95469e-07
-0.000615411
7.81537e-07
-0.000615522
5.64435e-07
-0.00061559
3.29586e-07
-0.000615612
9.22052e-08
-4.76385e-08
-5.25384e-05
0.000108581
-0.000306227
8.41489e-05
-3.88811e-06
-0.000617969
0.000124053
-0.000291946
9.23522e-05
7.99221e-05
-7.82046e-05
0.00049275
-0.000378091
0.00127324
-0.000609652
0.00156735
-0.000700575
0.000964819
-0.000715751
0.000237138
-0.000700699
-0.000132709
-0.00068631
-0.000146275
-0.000678912
-7.85847e-05
-0.000676432
-3.33987e-05
-0.000677263
-1.30844e-06
-0.000679751
1.90236e-05