/*--------------------------------*- C++ -*----------------------------------*\
| =========                 |                                                 |
| \\      /  F ield         | OpenFOAM: The Open Source CFD Toolbox           |
|  \\    /   O peration     | Version:  2412                                  |
|   \\  /    A nd           | Website:  www.openfoam.com                      |
|    \\/     M anipulation  |                                                 |
\*---------------------------------------------------------------------------*/
FoamFile
{
    version     2.0;
    format      ascii;
    arch        "LSB;label=32;scalar=64";
    class       volScalarField;
    location    "100";
    object      p;
}
// * * * * * * * * * * * * * * * * * * * * * * * * * * * * * * * * * * * * * //

dimensions      [0 2 -2 0 0 0 0];

internalField   nonuniform List<scalar> 
8637
(
-13.4981
-14.0491
-14.5859
-15.1041
-15.6026
-16.0863
-16.5543
-17.007
-17.4452
-17.8693
-18.2784
-18.6719
-19.0512
-19.4173
-19.7688
-20.1049
-20.4267
-20.7342
-21.0264
-21.3025
-21.5624
-21.8056
-22.0318
-22.2402
-22.4293
-22.5976
-22.7438
-22.8686
-22.9687
-23.0416
-23.0866
-23.1019
-23.0854
-23.0344
-22.9456
-22.8148
-22.641
-22.4221
-22.1502
-21.8223
-21.436
-20.9834
-20.4585
-19.8565
-19.168
-18.3841
-17.4955
-16.4903
-15.3562
-14.0808
-12.6477
-11.0412
-9.24688
-7.25574
-5.05791
-2.62358
0.0655451
2.97615
6.09768
9.47363
13.1002
16.9766
21.1202
25.5373
30.2474
35.2598
40.6015
46.2994
52.3698
58.8549
65.7767
73.1812
81.1062
89.594
98.7137
108.497
119.034
130.387
142.645
155.914
170.291
185.917
202.937
221.513
241.823
264.059
288.408
314.912
-13.4981
-14.0491
-14.5859
-15.1041
-15.6026
-16.0863
-16.5543
-17.007
-17.4451
-17.8693
-18.2784
-18.6719
-19.0512
-19.4173
-19.7688
-20.1049
-20.4267
-20.7342
-21.0264
-21.3025
-21.5624
-21.8056
-22.0318
-22.2402
-22.4293
-22.5975
-22.7438
-22.8686
-22.9687
-23.0416
-23.0866
-23.1019
-23.0854
-23.0344
-22.9456
-22.8148
-22.641
-22.4221
-22.1502
-21.8223
-21.436
-20.9834
-20.4585
-19.8564
-19.168
-18.3841
-17.4955
-16.4903
-15.3562
-14.0808
-12.6477
-11.0412
-9.24688
-7.25572
-5.0579
-2.62358
0.0655579
2.97616
6.09769
9.47363
13.1002
16.9766
21.1202
25.5373
30.2474
35.2598
40.6015
46.2994
52.3698
58.8549
65.7767
73.1812
81.1062
89.594
98.7138
108.497
119.034
130.387
142.645
155.914
170.291
185.917
202.937
221.513
241.823
264.059
288.408
314.912
-13.498
-14.049
-14.5859
-15.1041
-15.6026
-16.0863
-16.5543
-17.007
-17.4451
-17.8693
-18.2784
-18.6719
-19.0512
-19.4173
-19.7688
-20.1049
-20.4267
-20.7342
-21.0264
-21.3025
-21.5624
-21.8055
-22.0318
-22.2401
-22.4293
-22.5975
-22.7438
-22.8685
-22.9687
-23.0416
-23.0866
-23.1019
-23.0853
-23.0344
-22.9456
-22.8148
-22.641
-22.422
-22.1501
-21.8222
-21.436
-20.9834
-20.4585
-19.8564
-19.1679
-18.3841
-17.4955
-16.4902
-15.3562
-14.0807
-12.6476
-11.0412
-9.24682
-7.25567
-5.05784
-2.62351
0.0656229
2.97622
6.09777
9.47372
13.1003
16.9767
21.1203
25.5374
30.2475
35.2599
40.6016
46.2996
52.3699
58.855
65.7768
73.1814
81.1064
89.5942
98.7139
108.497
119.035
130.387
142.645
155.915
170.291
185.918
202.938
221.513
241.824
264.06
288.409
314.913
-13.498
-14.049
-14.5858
-15.104
-15.6026
-16.0862
-16.5543
-17.007
-17.4451
-17.8693
-18.2784
-18.6718
-19.0511
-19.4173
-19.7688
-20.1049
-20.4267
-20.7341
-21.0263
-21.3024
-21.5623
-21.8055
-22.0317
-22.2401
-22.4292
-22.5975
-22.7437
-22.8685
-22.9686
-23.0415
-23.0865
-23.1018
-23.0853
-23.0343
-22.9455
-22.8147
-22.6409
-22.4219
-22.15
-21.8221
-21.4359
-20.9833
-20.4584
-19.8563
-19.1678
-18.384
-17.4953
-16.4901
-15.356
-14.0806
-12.6475
-11.041
-9.24665
-7.25549
-5.05766
-2.62332
0.0658236
2.97644
6.09798
9.47394
13.1005
16.9769
21.1205
25.5376
30.2478
35.2602
40.6019
46.2999
52.3703
58.8554
65.7772
73.1818
81.1068
89.5947
98.7145
108.498
119.035
130.388
142.646
155.915
170.292
185.919
202.939
221.515
241.825
264.061
288.411
314.915
-13.4979
-14.0489
-14.5857
-15.1039
-15.6024
-16.0861
-16.5541
-17.0068
-17.445
-17.8691
-18.2782
-18.6717
-19.051
-19.4171
-19.7686
-20.1047
-20.4265
-20.734
-21.0262
-21.3023
-21.5622
-21.8053
-22.0316
-22.2399
-22.4291
-22.5973
-22.7436
-22.8683
-22.9685
-23.0414
-23.0863
-23.1017
-23.0851
-23.0341
-22.9453
-22.8145
-22.6407
-22.4217
-22.1498
-21.8219
-21.4357
-20.983
-20.4581
-19.856
-19.1676
-18.3837
-17.4951
-16.4898
-15.3557
-14.0803
-12.6472
-11.0406
-9.2463
-7.25512
-5.05727
-2.62291
0.0662456
2.97688
6.09845
9.47443
13.101
16.9775
21.1211
25.5382
30.2484
35.2608
40.6026
46.3006
52.3711
58.8562
65.7781
73.1827
81.1078
89.5958
98.7156
108.499
119.037
130.389
142.647
155.917
170.294
185.921
202.941
221.517
241.828
264.065
288.415
314.92
-13.4977
-14.0487
-14.5855
-15.1037
-15.6022
-16.0859
-16.5539
-17.0066
-17.4448
-17.8689
-18.278
-18.6715
-19.0508
-19.4169
-19.7684
-20.1045
-20.4263
-20.7338
-21.026
-21.3021
-21.5619
-21.8051
-22.0313
-22.2397
-22.4288
-22.5971
-22.7433
-22.868
-22.9682
-23.0411
-23.086
-23.1014
-23.0848
-23.0338
-22.945
-22.8142
-22.6404
-22.4214
-22.1494
-21.8215
-21.4353
-20.9826
-20.4577
-19.8556
-19.1671
-18.3832
-17.4945
-16.4893
-15.3552
-14.0797
-12.6466
-11.04
-9.24565
-7.25444
-5.05656
-2.62218
0.0670195
2.97769
6.09929
9.47531
13.102
16.9784
21.1221
25.5393
30.2496
35.262
40.6039
46.302
52.3725
58.8577
65.7797
73.1844
81.1096
89.5977
98.7177
108.501
119.039
130.392
142.65
155.92
170.297
185.925
202.946
221.522
241.834
264.072
288.422
314.929
-13.4973
-14.0483
-14.5852
-15.1034
-15.6019
-16.0856
-16.5536
-17.0063
-17.4444
-17.8686
-18.2777
-18.6712
-19.0505
-19.4166
-19.7681
-20.1042
-20.426
-20.7334
-21.0256
-21.3017
-21.5616
-21.8047
-22.0309
-22.2393
-22.4284
-22.5966
-22.7429
-22.8676
-22.9678
-23.0406
-23.0856
-23.1009
-23.0843
-23.0333
-22.9445
-22.8136
-22.6398
-22.4208
-22.1488
-21.8209
-21.4346
-20.9819
-20.457
-19.8548
-19.1663
-18.3824
-17.4937
-16.4884
-15.3543
-14.0788
-12.6456
-11.039
-9.24458
-7.25334
-5.05541
-2.62097
0.068278
2.979
6.10067
9.47676
13.1035
16.98
21.1238
25.5411
30.2514
35.264
40.6059
46.3042
52.3748
58.8602
65.7823
73.1872
81.1126
89.6009
98.7211
108.505
119.043
130.396
142.655
155.926
170.303
185.931
202.953
221.53
241.843
264.082
288.435
314.943
-13.4968
-14.0478
-14.5846
-15.1029
-15.6014
-16.085
-16.5531
-17.0058
-17.4439
-17.8681
-18.2772
-18.6707
-19.0499
-19.416
-19.7675
-20.1036
-20.4254
-20.7328
-21.025
-21.3011
-21.561
-21.8041
-22.0303
-22.2387
-22.4278
-22.596
-22.7422
-22.8669
-22.9671
-23.0399
-23.0848
-23.1001
-23.0835
-23.0325
-22.9436
-22.8128
-22.6389
-22.4199
-22.1479
-21.8199
-21.4336
-20.9809
-20.4559
-19.8537
-19.1652
-18.3812
-17.4925
-16.4871
-15.3529
-14.0773
-12.6441
-11.0375
-9.24298
-7.25166
-5.05367
-2.61914
0.0701864
2.981
6.10276
9.47894
13.1058
16.9824
21.1263
25.5437
30.2542
35.2669
40.609
46.3074
52.3783
58.8639
65.7863
73.1914
81.1171
89.6057
98.7263
108.51
119.049
130.403
142.662
155.934
170.312
185.941
202.964
221.543
241.857
264.098
288.453
314.965
-13.4961
-14.0471
-14.5839
-15.1021
-15.6006
-16.0843
-16.5524
-17.0051
-17.4432
-17.8673
-18.2764
-18.6699
-19.0492
-19.4153
-19.7668
-20.1028
-20.4246
-20.732
-21.0242
-21.3003
-21.5602
-21.8033
-22.0295
-22.2378
-22.4269
-22.5951
-22.7413
-22.866
-22.9661
-23.0389
-23.0838
-23.099
-23.0824
-23.0314
-22.9425
-22.8116
-22.6377
-22.4186
-22.1465
-21.8185
-21.4321
-20.9794
-20.4543
-19.8521
-19.1635
-18.3795
-17.4907
-16.4852
-15.351
-14.0753
-12.642
-11.0353
-9.24069
-7.24928
-5.05118
-2.61655
0.0729027
2.98384
6.10574
9.48206
13.109
16.9859
21.1299
25.5475
30.2582
35.2711
40.6135
46.3121
52.3833
58.8692
65.7919
73.1974
81.1235
89.6126
98.7337
108.518
119.058
130.412
142.672
155.945
170.325
185.955
202.98
221.56
241.878
264.121
288.48
314.996
-13.4951
-14.0461
-14.5829
-15.1011
-15.5996
-16.0833
-16.5514
-17.0041
-17.4422
-17.8663
-18.2754
-18.6689
-19.0482
-19.4143
-19.7657
-20.1018
-20.4236
-20.731
-21.0231
-21.2992
-21.559
-21.8021
-22.0283
-22.2366
-22.4257
-22.5938
-22.74
-22.8647
-22.9647
-23.0375
-23.0824
-23.0976
-23.0809
-23.0298
-22.9409
-22.8099
-22.636
-22.4168
-22.1447
-21.8167
-21.4302
-20.9774
-20.4522
-19.8499
-19.1612
-18.3771
-17.4882
-16.4827
-15.3483
-14.0726
-12.6391
-11.0323
-9.23758
-7.24603
-5.04779
-2.61301
0.0766023
2.98771
6.10978
9.4863
13.1135
16.9905
21.1348
25.5527
30.2636
35.2769
40.6195
46.3185
52.39
58.8764
65.7996
73.2056
81.1323
89.622
98.7438
108.529
119.07
130.425
142.687
155.96
170.342
185.974
203.001
221.585
241.905
264.153
288.516
315.038
-15.0998
-15.5983
-16.082
-16.55
-17.0027
-17.4408
-17.865
-18.2741
-18.6676
-19.0468
-19.4129
-19.7644
-20.1004
-20.4222
-20.7295
-21.0217
-21.2977
-21.5575
-21.8006
-22.0268
-22.235
-22.4241
-22.5922
-22.7384
-22.863
-22.963
-23.0357
-23.0805
-23.0957
-23.0789
-23.0278
-22.9388
-22.8078
-22.6337
-22.4145
-22.1423
-21.8142
-21.4276
-20.9747
-20.4495
-19.8471
-19.1583
-18.374
-17.485
-16.4794
-15.3449
-14.069
-12.6354
-11.0284
-9.23351
-7.24178
-5.04335
-2.60837
0.0814456
2.99278
6.11509
9.49186
13.1193
16.9966
21.1412
25.5594
30.2707
35.2844
40.6275
46.3269
52.3989
58.8858
65.8096
73.2163
81.1438
89.6343
98.7571
108.544
119.085
130.442
142.705
155.981
170.364
185.999
203.029
221.616
241.941
264.194
288.564
315.093
-15.0982
-15.5967
-16.0803
-16.5484
-17.0011
-17.4392
-17.8633
-18.2724
-18.6659
-19.0451
-19.4112
-19.7626
-20.0987
-20.4204
-20.7278
-21.0199
-21.2959
-21.5557
-21.7987
-22.0248
-22.233
-22.422
-22.5901
-22.7362
-22.8608
-22.9608
-23.0334
-23.0782
-23.0933
-23.0764
-23.0252
-22.9361
-22.805
-22.6309
-22.4116
-22.1393
-21.8111
-21.4244
-20.9714
-20.446
-19.8435
-19.1545
-18.3701
-17.481
-16.4752
-15.3405
-14.0644
-12.6306
-11.0234
-9.22833
-7.23638
-5.03771
-2.60248
0.0876061
2.99922
6.12183
9.49892
13.1267
17.0044
21.1494
25.568
30.2798
35.2939
40.6376
46.3376
52.4103
58.8978
65.8224
73.23
81.1584
89.6501
98.774
108.562
119.105
130.464
142.729
156.007
170.393
186.031
203.065
221.657
241.987
264.247
288.624
315.162
-15.0961
-15.5946
-16.0783
-16.5463
-16.999
-17.4371
-17.8612
-18.2703
-18.6638
-19.043
-19.409
-19.7605
-20.0965
-20.4182
-20.7255
-21.0176
-21.2936
-21.5533
-21.7964
-22.0224
-22.2306
-22.4195
-22.5876
-22.7336
-22.8581
-22.958
-23.0306
-23.0753
-23.0903
-23.0733
-23.022
-22.9328
-22.8017
-22.6274
-22.408
-22.1356
-21.8072
-21.4204
-20.9672
-20.4417
-19.839
-19.1499
-18.3653
-17.4759
-16.4699
-15.335
-14.0587
-12.6247
-11.0173
-9.22191
-7.22968
-5.03072
-2.59518
0.0952416
3.00721
6.1302
9.50769
13.1359
17.0141
21.1596
25.5787
30.291
35.3058
40.6501
46.3509
52.4243
58.9128
65.8384
73.247
81.1766
89.6696
98.7951
108.585
119.13
130.491
142.758
156.039
170.429
186.071
203.11
221.708
242.044
264.312
288.698
315.243
-15.0936
-15.5921
-16.0758
-16.5438
-16.9965
-17.4346
-17.8587
-18.2678
-18.6612
-19.0404
-19.4065
-19.7579
-20.0938
-20.4155
-20.7228
-21.0149
-21.2908
-21.5505
-21.7935
-22.0195
-22.2276
-22.4165
-22.5844
-22.7304
-22.8548
-22.9546
-23.0272
-23.0717
-23.0866
-23.0696
-23.0182
-22.9289
-22.7975
-22.6232
-22.4036
-22.131
-21.8025
-21.4155
-20.9621
-20.4364
-19.8335
-19.1442
-18.3594
-17.4698
-16.4636
-15.3284
-14.0518
-12.6176
-11.0098
-9.21411
-7.22154
-5.02223
-2.5863
0.104523
3.01692
6.14037
9.51834
13.1471
17.0258
21.1719
25.5917
30.3047
35.3202
40.6654
46.367
52.4415
58.931
65.8578
73.2678
81.1988
89.6936
98.8208
108.613
119.16
130.524
142.795
156.079
170.473
186.121
203.165
221.769
242.114
264.39
288.787
315.334
-15.0906
-15.5891
-16.0728
-16.5408
-16.9935
-17.4316
-17.8557
-18.2647
-18.6582
-19.0374
-19.4034
-19.7547
-20.0907
-20.4123
-20.7196
-21.0116
-21.2875
-21.5471
-21.79
-22.016
-22.224
-22.4128
-22.5807
-22.7266
-22.8509
-22.9506
-23.023
-23.0675
-23.0823
-23.0651
-23.0136
-22.9241
-22.7926
-22.6181
-22.3983
-22.1256
-21.7968
-21.4097
-20.9561
-20.4302
-19.827
-19.1374
-18.3524
-17.4625
-16.456
-15.3205
-14.0436
-12.609
-11.0009
-9.20479
-7.21181
-5.01207
-2.57569
0.115626
3.02854
6.15254
9.5311
13.1605
17.0399
21.1867
25.6073
30.3211
35.3376
40.6837
46.3864
52.4621
58.9529
65.8812
73.2928
81.2256
89.7223
98.8518
108.646
119.197
130.563
142.838
156.127
170.527
186.18
203.231
221.843
242.197
264.484
288.89
315.451
-15.087
-15.5856
-16.0693
-16.5373
-16.99
-17.428
-17.8521
-18.2612
-18.6546
-19.0338
-19.3997
-19.7511
-20.087
-20.4086
-20.7158
-21.0078
-21.2836
-21.5432
-21.786
-22.0119
-22.2198
-22.4085
-22.5763
-22.7221
-22.8463
-22.9459
-23.0182
-23.0625
-23.0771
-23.0598
-23.0081
-22.9185
-22.7868
-22.6121
-22.3921
-22.1192
-21.7902
-21.4028
-20.949
-20.4228
-19.8194
-19.1295
-18.3441
-17.4539
-16.447
-15.3112
-14.0339
-12.5989
-10.9903
-9.19379
-7.20033
-5.00008
-2.56315
0.128738
3.04226
6.16692
9.54618
13.1763
17.0565
21.2042
25.6257
30.3406
35.3581
40.7054
46.4095
52.4866
58.979
65.9089
73.3225
81.2575
89.7566
98.8888
108.686
119.24
130.611
142.89
156.185
170.59
186.25
203.309
221.93
242.294
264.592
289.007
315.583
-15.0829
-15.5815
-16.0652
-16.5332
-16.9859
-17.4239
-17.848
-18.257
-18.6504
-19.0296
-19.3955
-19.7468
-20.0827
-20.4042
-20.7114
-21.0033
-21.279
-21.5385
-21.7813
-22.0071
-22.2149
-22.4035
-22.5712
-22.7169
-22.841
-22.9404
-23.0125
-23.0567
-23.0712
-23.0537
-23.0018
-22.9119
-22.7801
-22.6051
-22.3849
-22.1117
-21.7825
-21.3948
-20.9406
-20.4142
-19.8104
-19.1202
-18.3344
-17.4439
-16.4366
-15.3003
-14.0226
-12.587
-10.978
-9.18093
-7.18691
-4.98606
-2.54849
0.144081
3.05833
6.18376
9.56384
13.1949
17.076
21.2247
25.6473
30.3634
35.3822
40.731
46.4365
52.5154
59.0096
65.9417
73.3575
81.2951
89.7972
98.9325
108.734
119.292
130.667
142.952
156.253
170.665
186.333
203.401
222.031
242.405
264.714
289.136
315.717
-15.0782
-15.5768
-16.0604
-16.5284
-16.9811
-17.4192
-17.8432
-18.2522
-18.6456
-19.0247
-19.3906
-19.7418
-20.0777
-20.3992
-20.7063
-20.9981
-21.2738
-21.5332
-21.7759
-22.0015
-22.2093
-22.3978
-22.5653
-22.7108
-22.8348
-22.934
-23.006
-23.05
-23.0643
-23.0466
-22.9944
-22.9044
-22.7723
-22.5971
-22.3765
-22.1031
-21.7735
-21.3855
-20.931
-20.4042
-19.8
-19.1094
-18.3232
-17.4322
-16.4244
-15.2877
-14.0094
-12.5734
-10.9637
-9.16602
-7.17133
-4.96979
-2.53146
0.161904
3.077
6.20334
9.58439
13.2164
17.0987
21.2486
25.6726
30.39
35.4104
40.7609
46.4682
52.5491
59.0455
65.9801
73.3987
81.3393
89.8448
98.984
108.79
119.352
130.734
143.025
156.332
170.752
186.429
203.506
222.146
242.53
264.848
289.277
315.864
-15.0727
-15.5713
-16.055
-16.523
-16.9757
-17.4137
-17.8377
-18.2467
-18.64
-19.0191
-19.385
-19.7362
-20.0719
-20.3934
-20.7004
-20.9921
-21.2677
-21.527
-21.7696
-21.9952
-22.2028
-22.3911
-22.5585
-22.7039
-22.8276
-22.9267
-22.9985
-23.0423
-23.0563
-23.0384
-22.986
-22.8957
-22.7633
-22.5878
-22.3669
-22.0931
-21.7632
-21.3748
-20.9199
-20.3927
-19.7881
-19.097
-18.3104
-17.4188
-16.4105
-15.2732
-13.9943
-12.5576
-10.9472
-9.1488
-7.15334
-4.95098
-2.51178
0.182516
3.0986
6.22601
9.60819
13.2415
17.1251
21.2764
25.7019
30.421
35.4432
40.7956
46.5052
52.5884
59.0875
66.025
73.4468
81.3911
89.9007
99.0443
108.855
119.423
130.811
143.109
156.424
170.852
186.538
203.625
222.275
242.668
264.994
289.428
316.017
-15.0665
-15.5651
-16.0488
-16.5168
-16.9694
-17.4074
-17.8315
-18.2404
-18.6337
-19.0127
-19.3785
-19.7297
-20.0654
-20.3867
-20.6937
-20.9853
-21.2608
-21.52
-21.7624
-21.9879
-22.1953
-22.3835
-22.5507
-22.6959
-22.8195
-22.9184
-22.9899
-23.0335
-23.0472
-23.029
-22.9764
-22.8857
-22.753
-22.5771
-22.3559
-22.0817
-21.7514
-21.3626
-20.9073
-20.3795
-19.7744
-19.0828
-18.2956
-17.4034
-16.3945
-15.2565
-13.9769
-12.5394
-10.9283
-9.129
-7.13264
-4.92933
-2.48911
0.206278
3.12353
6.25218
9.63569
13.2704
17.1556
21.3085
25.7359
30.4569
35.4813
40.8361
46.5482
52.6343
59.1365
66.0775
73.5031
81.4516
89.966
99.1148
108.931
119.506
130.901
143.206
156.529
170.967
186.661
203.757
222.416
242.816
265.149
289.587
316.176
-15.0594
-15.558
-16.0417
-16.5097
-16.9623
-17.4003
-17.8243
-18.2332
-18.6264
-19.0055
-19.3712
-19.7222
-20.0579
-20.3792
-20.686
-20.9775
-21.2529
-21.512
-21.7543
-21.9796
-22.1869
-22.3749
-22.5419
-22.6869
-22.8102
-22.9088
-22.9801
-23.0234
-23.0369
-23.0184
-22.9653
-22.8743
-22.7412
-22.565
-22.3434
-22.0687
-21.738
-21.3486
-20.8927
-20.3645
-19.7588
-19.0665
-18.2786
-17.3858
-16.3761
-15.2374
-13.9569
-12.5186
-10.9065
-9.10626
-7.10886
-4.90444
-2.46302
0.23364
3.15225
6.28237
9.66744
13.3039
17.1908
21.3458
25.7752
30.4986
35.5256
40.8832
46.5983
52.6878
59.1937
66.1387
73.5689
81.5223
90.0422
99.1968
109.02
119.602
131.004
143.318
156.649
171.095
186.798
203.902
222.568
242.975
265.313
289.754
316.341
-15.0513
-15.55
-16.0336
-16.5016
-16.9543
-17.3922
-17.8162
-18.225
-18.6182
-18.9972
-19.3628
-19.7138
-20.0494
-20.3706
-20.6773
-20.9687
-21.2439
-21.5029
-21.745
-21.9701
-22.1772
-22.365
-22.5318
-22.6766
-22.7996
-22.898
-22.969
-23.0119
-23.0251
-23.0062
-22.9528
-22.8614
-22.7279
-22.5512
-22.329
-22.0539
-21.7226
-21.3327
-20.8762
-20.3473
-19.7409
-19.0479
-18.2593
-17.3656
-16.3551
-15.2155
-13.9341
-12.4947
-10.8816
-9.08016
-7.08154
-4.87583
-2.43302
0.265139
3.18535
6.31718
9.70409
13.3425
17.2316
21.3889
25.8209
30.5471
35.577
40.938
46.6567
52.7502
59.2604
66.2102
73.6455
81.6046
90.1307
99.2919
109.122
119.711
131.121
143.443
156.782
171.236
186.947
204.058
222.731
243.144
265.486
289.928
316.512
-15.0422
-15.5408
-16.0245
-16.4925
-16.9451
-17.3831
-17.8069
-18.2157
-18.6089
-18.9878
-19.3534
-19.7043
-20.0397
-20.3608
-20.6674
-20.9587
-21.2337
-21.4925
-21.7345
-21.9594
-22.1662
-22.3538
-22.5203
-22.6648
-22.7876
-22.8856
-22.9563
-22.9989
-23.0116
-22.9924
-22.9385
-22.8466
-22.7126
-22.5354
-22.3127
-22.037
-21.7051
-21.3145
-20.8573
-20.3276
-19.7205
-19.0267
-18.2372
-17.3426
-16.3311
-15.1904
-13.9079
-12.4673
-10.8529
-9.0502
-7.05015
-4.84293
-2.39848
0.30143
3.22352
6.35738
9.74647
13.3872
17.2789
21.439
25.8741
30.6034
35.637
41.0019
46.7248
52.823
59.3382
66.2935
73.7348
81.7001
90.233
99.4011
109.239
119.836
131.253
143.583
156.929
171.39
187.108
204.226
222.906
243.324
265.669
290.112
316.692
-15.0318
-15.5305
-16.0142
-16.4821
-16.9347
-17.3726
-17.7965
-18.2052
-18.5983
-18.9772
-19.3426
-19.6934
-20.0288
-20.3497
-20.6562
-20.9473
-21.2222
-21.4808
-21.7225
-21.9472
-22.1538
-22.3411
-22.5073
-22.6515
-22.7739
-22.8716
-22.9419
-22.9841
-22.9964
-22.9766
-22.9223
-22.8298
-22.6953
-22.5175
-22.2941
-22.0177
-21.6851
-21.2937
-20.8357
-20.3052
-19.6972
-19.0024
-18.2119
-17.3162
-16.3035
-15.1616
-13.8779
-12.4359
-10.8201
-9.01577
-7.01406
-4.80506
-2.35868
0.343299
3.26761
6.40387
9.79554
13.4391
17.3339
21.4972
25.9359
30.6691
35.707
41.0765
46.8043
52.908
59.4289
66.3904
73.8381
81.8103
90.3504
99.5256
109.371
119.975
131.399
143.736
157.09
171.558
187.282
204.407
223.092
243.515
265.864
290.308
316.883
-15.02
-15.5188
-16.0024
-16.4704
-16.923
-17.3608
-17.7846
-18.1933
-18.5863
-18.9651
-19.3305
-19.6811
-20.0164
-20.3372
-20.6434
-20.9344
-21.2091
-21.4674
-21.7089
-21.9333
-22.1397
-22.3266
-22.4926
-22.6364
-22.7584
-22.8556
-22.9255
-22.9672
-22.979
-22.9587
-22.9038
-22.8107
-22.6755
-22.497
-22.2729
-21.9957
-21.6623
-21.27
-20.8111
-20.2796
-19.6705
-18.9746
-18.1829
-17.286
-16.272
-15.1287
-13.8434
-12.3999
-10.7823
-8.97616
-6.97249
-4.7614
-2.31274
0.391685
3.31863
6.45774
9.85247
13.4994
17.3978
21.5651
26.008
30.7458
35.7887
41.1635
46.897
53.0068
59.5341
66.5023
73.957
81.9362
90.4835
99.6656
109.518
120.129
131.56
143.904
157.264
171.739
187.47
204.601
223.292
243.721
266.073
290.517
317.088
-15.0067
-15.5055
-15.9892
-16.4571
-16.9096
-17.3475
-17.7712
-18.1798
-18.5728
-18.9514
-19.3167
-19.6672
-20.0023
-20.3229
-20.629
-20.9197
-21.1942
-21.4523
-21.6935
-21.9176
-22.1236
-22.3103
-22.4758
-22.6192
-22.7408
-22.8375
-22.9069
-22.948
-22.9593
-22.9383
-22.8827
-22.7889
-22.653
-22.4737
-22.2487
-21.9706
-21.6362
-21.2429
-20.7829
-20.2503
-19.64
-18.9428
-18.1497
-17.2514
-16.2358
-15.0909
-13.8038
-12.3584
-10.7388
-8.93053
-6.92455
-4.71098
-2.25964
0.447695
3.37777
6.52026
9.91866
13.5696
17.4722
21.6442
26.0921
30.8353
35.8839
41.2649
47.0048
53.1213
59.6554
66.6307
74.0924
82.0786
90.6328
99.8215
109.68
120.298
131.736
144.086
157.453
171.935
187.673
204.811
223.509
243.943
266.299
290.744
317.309
-14.9916
-15.4904
-15.9741
-16.442
-16.8945
-17.3323
-17.756
-18.1645
-18.5574
-18.9359
-19.301
-19.6514
-19.9863
-20.3068
-20.6126
-20.9031
-21.1773
-21.4352
-21.6761
-21.8998
-22.1054
-22.2916
-22.4567
-22.5997
-22.7207
-22.8169
-22.8857
-22.9262
-22.9368
-22.9151
-22.8587
-22.7641
-22.6273
-22.4471
-22.2211
-21.942
-21.6065
-21.212
-20.7508
-20.2168
-19.6051
-18.9064
-18.1117
-17.2116
-16.1943
-15.0474
-13.7583
-12.3107
-10.6887
-8.87788
-6.86918
-4.65269
-2.19815
0.512634
3.44644
6.59296
9.9957
13.6513
17.5591
21.7365
26.1903
30.9395
35.9947
41.3825
47.1293
53.253
59.7942
66.7765
74.2451
82.2379
90.7988
99.9937
109.859
120.483
131.928
144.285
157.659
172.148
187.894
205.039
223.745
244.185
266.545
290.99
317.549
-14.9746
-15.4734
-15.957
-16.4249
-16.8774
-17.3152
-17.7387
-18.1471
-18.5399
-18.9184
-19.2833
-19.6335
-19.9682
-20.2884
-20.5941
-20.8842
-21.1582
-21.4157
-21.6562
-21.8795
-22.0847
-22.2705
-22.435
-22.5775
-22.6979
-22.7935
-22.8615
-22.9013
-22.9111
-22.8886
-22.8313
-22.7358
-22.598
-22.4167
-22.1896
-21.9092
-21.5725
-21.1766
-20.7139
-20.1784
-19.565
-18.8646
-18.068
-17.166
-16.1465
-14.9974
-13.7059
-12.2556
-10.6309
-8.81709
-6.80515
-4.5852
-2.12687
0.588023
3.52626
6.67756
10.0854
13.7467
17.6603
21.844
26.3045
31.0607
36.123
41.5181
47.2722
53.4031
59.9512
66.9404
74.4155
82.4147
90.9821
100.183
110.055
120.686
132.138
144.502
157.884
172.381
188.135
205.289
224.002
244.448
266.813
291.259
317.809
-14.9552
-15.4541
-15.9377
-16.4056
-16.858
-17.2957
-17.7192
-18.1274
-18.5201
-18.8984
-19.2632
-19.6132
-19.9477
-20.2676
-20.573
-20.8628
-21.1364
-21.3935
-21.6336
-21.8565
-22.0612
-22.2464
-22.4104
-22.5522
-22.6719
-22.7667
-22.834
-22.873
-22.8819
-22.8584
-22.8001
-22.7035
-22.5645
-22.382
-22.1535
-21.8718
-21.5335
-21.1361
-20.6717
-20.1344
-19.5191
-18.8166
-18.0179
-17.1135
-16.0916
-14.9398
-13.6455
-12.1922
-10.5642
-8.74681
-6.73105
-4.50698
-2.04415
0.675624
3.61911
6.77606
10.19
13.8577
17.7782
21.9691
26.437
31.2007
36.2707
41.6733
47.4345
53.5726
60.1273
67.123
74.6045
82.61
91.1839
100.391
110.271
120.908
132.368
144.74
158.13
172.636
188.399
205.562
224.283
244.737
267.106
291.551
318.091
-14.9333
-15.4322
-15.9158
-16.3836
-16.836
-17.2736
-17.697
-18.1051
-18.4977
-18.8758
-19.2403
-19.5901
-19.9243
-20.244
-20.549
-20.8385
-21.1117
-21.3683
-21.608
-21.8303
-22.0344
-22.219
-22.3823
-22.5234
-22.6423
-22.7363
-22.8027
-22.8407
-22.8486
-22.824
-22.7645
-22.6666
-22.5263
-22.3424
-22.1123
-21.8289
-21.489
-21.0896
-20.6232
-20.0839
-19.4663
-18.7615
-17.9603
-17.0532
-16.0284
-14.8735
-13.5758
-12.119
-10.4871
-8.66551
-6.64521
-4.41625
-1.94808
0.777466
3.72715
6.89073
10.3117
13.9868
17.915
22.1139
26.5899
31.3614
36.4391
41.8492
47.6173
53.7621
60.3233
67.3255
74.8133
82.8253
91.406
100.62
110.507
121.152
132.62
145.001
158.4
172.916
188.689
205.861
224.592
245.054
267.427
291.87
318.396
-14.9084
-15.4073
-15.891
-16.3587
-16.8111
-17.2486
-17.6718
-18.0798
-18.4722
-18.8501
-19.2144
-19.5639
-19.8978
-20.2172
-20.5218
-20.8108
-21.0836
-21.3397
-21.5788
-21.8006
-22.004
-22.1878
-22.3504
-22.4906
-22.6086
-22.7016
-22.767
-22.8039
-22.8105
-22.7847
-22.7238
-22.6244
-22.4826
-22.297
-22.0651
-21.7798
-21.4379
-21.0364
-20.5677
-20.026
-19.4058
-18.6982
-17.894
-16.9838
-15.9556
-14.7972
-13.4955
-12.0344
-10.398
-8.5714
-6.54572
-4.31097
-1.83649
0.895858
3.8528
7.02404
10.4531
14.1365
18.0732
22.2805
26.7648
31.5441
36.6293
42.0466
47.8214
53.9729
60.5405
67.5493
75.0437
83.0624
91.6505
100.872
110.767
121.42
132.897
145.288
158.697
173.224
189.007
206.191
224.932
245.401
267.778
292.217
318.725
-14.8802
-15.3792
-15.8628
-16.3305
-16.7828
-17.2202
-17.6432
-18.051
-18.4432
-18.821
-19.185
-19.5341
-19.8677
-20.1867
-20.4909
-20.7794
-21.0516
-21.3072
-21.5456
-21.7667
-21.9693
-22.1523
-22.314
-22.4533
-22.5702
-22.6621
-22.7263
-22.7619
-22.7671
-22.7398
-22.6773
-22.5762
-22.4326
-22.2451
-22.0112
-21.7237
-21.3794
-20.9755
-20.5041
-19.9596
-19.3364
-18.6255
-17.8179
-16.904
-15.8719
-14.7091
-13.4029
-11.9368
-10.2949
-8.46242
-6.43036
-4.18879
-1.70691
1.03338
3.99872
7.17871
10.6166
14.3092
18.2548
22.4707
26.9631
31.75
36.8425
42.2667
48.0482
54.2065
60.7807
67.7963
75.2978
83.3238
91.9197
101.149
111.053
121.715
133.202
145.604
159.023
173.562
189.358
206.553
225.304
245.782
268.162
292.594
319.079
-14.8483
-15.3472
-15.8308
-16.2985
-16.7506
-17.1879
-17.6108
-18.0184
-18.4104
-18.7879
-19.1515
-19.5003
-19.8335
-20.1521
-20.4557
-20.7437
-21.0152
-21.2702
-21.5079
-21.7281
-21.9299
-22.1119
-22.2725
-22.4107
-22.5265
-22.617
-22.6798
-22.7139
-22.7176
-22.6885
-22.6242
-22.5211
-22.3755
-22.1858
-21.9494
-21.6594
-21.3125
-20.9056
-20.4312
-19.8834
-19.2567
-18.5421
-17.7305
-16.8123
-15.7754
-14.6077
-13.2959
-11.8239
-10.1757
-8.3362
-6.29663
-4.04706
-1.55658
1.19284
4.16771
7.35737
10.8055
14.5062
18.4614
22.6856
27.186
31.9802
37.08
42.5113
48.2996
54.4649
61.0461
68.069
75.578
83.6118
92.2162
101.454
111.368
122.04
133.538
145.951
159.384
173.935
189.744
206.951
225.714
246.198
268.579
293.001
319.456
-14.812
-15.311
-15.7945
-16.2621
-16.7142
-17.1513
-17.574
-17.9813
-18.3731
-18.7503
-19.1136
-19.4619
-19.7947
-20.1127
-20.4157
-20.7031
-20.9739
-21.2281
-21.4649
-21.6842
-21.885
-22.0659
-22.2253
-22.3622
-22.4766
-22.5656
-22.6268
-22.6593
-22.6611
-22.63
-22.5636
-22.4583
-22.3102
-22.118
-21.8788
-21.5859
-21.2359
-20.8257
-20.3477
-19.7961
-19.1654
-18.4463
-17.63
-16.7067
-15.6644
-14.4908
-13.1726
-11.6936
-10.0378
-8.19012
-6.14179
-3.88299
-1.38269
1.37709
4.3625
7.56336
11.0201
14.7293
18.6943
22.9268
27.435
32.2367
37.3438
42.7824
48.5778
54.7506
61.3391
68.3699
75.887
83.9293
92.543
101.79
111.715
122.399
133.908
146.335
159.78
174.346
190.169
207.389
226.162
246.653
269.032
293.438
319.855
-14.7709
-15.2699
-15.7534
-16.2209
-16.6728
-17.1097
-17.5322
-17.9393
-18.3307
-18.7075
-19.0704
-19.4183
-19.7505
-20.0679
-20.3703
-20.6569
-20.9269
-21.1802
-21.4161
-21.6343
-21.8338
-22.0135
-22.1715
-22.307
-22.4198
-22.5071
-22.5665
-22.5969
-22.5966
-22.5633
-22.4944
-22.3865
-22.2357
-22.0405
-21.7982
-21.5019
-21.1483
-20.7342
-20.2521
-19.6961
-19.0606
-18.3365
-17.5146
-16.5854
-15.5367
-14.356
-13.0303
-11.5431
-9.87855
-8.02131
-5.96285
-3.69346
-1.18215
1.58848
4.58681
7.79628
11.2614
14.9815
18.9555
23.196
27.7122
32.5215
37.6364
43.0827
48.8855
55.0662
61.6626
68.7018
76.2277
84.2793
92.9033
102.161
112.097
122.794
134.317
146.758
160.218
174.799
190.636
207.869
226.653
247.148
269.521
293.905
320.272
-14.7242
-15.2232
-15.7067
-16.174
-16.6258
-17.0626
-17.4847
-17.8915
-18.2826
-18.659
-19.0214
-19.3687
-19.7003
-20.017
-20.3186
-20.6044
-20.8735
-21.1257
-21.3605
-21.5775
-21.7757
-21.9538
-22.1103
-22.2441
-22.3551
-22.4403
-22.4976
-22.5259
-22.5231
-22.4872
-22.4155
-22.3045
-22.1506
-21.952
-21.706
-21.4058
-21.0481
-20.6295
-20.1427
-19.5816
-18.9405
-18.2104
-17.3822
-16.446
-15.3898
-14.201
-12.8665
-11.3698
-9.695
-7.82682
-5.75693
-3.47608
-0.953882
1.83245
4.84071
8.05621
11.5341
15.2641
19.2467
23.4957
28.0202
32.8375
37.9604
43.4147
49.2255
55.4146
62.0195
69.0679
76.6033
84.6652
93.3005
102.57
112.519
123.229
134.767
147.224
160.699
175.296
191.148
208.395
227.187
247.684
270.047
294.399
320.702
-14.6713
-15.1703
-15.6536
-16.1209
-16.5725
-17.009
-17.4308
-17.8372
-18.2279
-18.6039
-18.9657
-19.3123
-19.6433
-19.9592
-20.2599
-20.5447
-20.8127
-21.0637
-21.2972
-21.5128
-21.7095
-21.886
-22.0407
-22.1726
-22.2813
-22.3644
-22.4193
-22.4449
-22.4394
-22.4004
-22.3255
-22.2111
-22.0535
-21.8511
-21.6008
-21.2961
-20.9337
-20.5099
-20.0175
-19.4505
-18.803
-18.0661
-17.2304
-16.2861
-15.2212
-14.023
-12.6782
-11.1706
-9.48424
-7.60381
-5.52149
-3.22983
-0.691203
2.1098
5.1213
8.35024
11.84
15.5789
19.5707
23.8285
28.3616
33.1872
38.3186
43.7814
49.6007
55.7988
62.413
69.4714
77.0174
85.0906
93.7384
103.021
112.984
123.709
135.263
147.736
161.228
175.842
191.709
208.968
227.767
248.261
270.607
294.917
321.138
-14.6113
-15.1103
-15.5935
-16.0606
-16.512
-16.9482
-17.3697
-17.7756
-18.1659
-18.5413
-18.9024
-19.2483
-19.5785
-19.8935
-20.1932
-20.4768
-20.7436
-20.9933
-21.2253
-21.4393
-21.6342
-21.8087
-21.9614
-22.0911
-22.1975
-22.2779
-22.33
-22.3527
-22.344
-22.3016
-22.223
-22.1046
-21.9429
-21.736
-21.4808
-21.171
-20.8031
-20.3733
-19.8746
-19.3008
-18.6459
-17.9009
-17.0567
-16.103
-15.0281
-13.8191
-12.4627
-10.9428
-9.24343
-7.34965
-5.25503
-2.94843
-0.39188
2.41561
5.43724
8.6813
12.1802
15.929
19.9305
24.1973
28.7395
33.5738
38.7141
44.186
50.0143
56.2223
62.8465
69.9159
77.4736
85.5594
94.2208
103.517
113.497
124.238
135.809
148.3
161.809
176.44
192.322
209.591
228.394
248.88
271.199
295.451
321.568
-15.0421
-15.5253
-15.9922
-16.4433
-16.8792
-17.3002
-17.7057
-18.0954
-18.4703
-18.8306
-19.1756
-19.5049
-19.8189
-20.1174
-20.3997
-20.6651
-20.9132
-21.1436
-21.3557
-21.5486
-21.7209
-21.8712
-21.9984
-22.102
-22.1795
-22.2284
-22.2477
-22.2354
-22.1891
-22.1062
-21.9834
-21.8169
-21.6048
-21.3441
-21.0284
-20.6542
-20.2176
-19.7115
-19.1299
-18.4665
-17.7124
-16.8583
-15.894
-14.8076
-13.5863
-12.2169
-10.6832
-8.9697
-7.06161
-4.95303
-2.62875
-0.0605648
2.75825
5.79357
9.04844
12.5582
16.3176
20.329
24.6053
29.1569
34.0004
39.1502
44.6317
50.47
56.6886
63.3239
70.4054
77.976
86.0756
94.7521
104.064
114.061
124.82
136.409
148.918
162.445
177.092
192.988
210.265
229.067
249.537
271.817
295.994
321.979
-14.9649
-15.4479
-15.9146
-16.3654
-16.8009
-17.2214
-17.6263
-18.0155
-18.3896
-18.7491
-19.0931
-19.4213
-19.7341
-20.0313
-20.3121
-20.5759
-20.8223
-21.0507
-21.2607
-21.4513
-21.6211
-21.7688
-21.8931
-21.9935
-22.0676
-22.1129
-22.1284
-22.1118
-22.0611
-21.9734
-21.8454
-21.6734
-21.4556
-21.1885
-20.866
-20.4846
-20.0403
-19.5258
-18.9352
-18.2622
-17.4976
-16.6322
-15.6559
-14.5565
-13.3216
-11.9375
-10.3887
-8.6596
-6.73586
-4.6114
-2.27162
0.310096
3.14152
6.18838
9.45635
12.9778
16.7478
20.7695
25.0557
29.6172
34.4704
39.6303
45.1223
50.9713
57.2017
63.8492