/*--------------------------------*- C++ -*----------------------------------*\
| =========                 |                                                 |
| \\      /  F ield         | OpenFOAM: The Open Source CFD Toolbox           |
|  \\    /   O peration     | Version:  2412                                  |
|   \\  /    A nd           | Website:  www.openfoam.com                      |
|    \\/     M anipulation  |                                                 |
\*---------------------------------------------------------------------------*/
FoamFile
{
    version     2.0;
    format      ascii;
    arch        "LSB;label=32;scalar=64";
    class       volVectorField;
    location    "100";
    object      U;
}
// * * * * * * * * * * * * * * * * * * * * * * * * * * * * * * * * * * * * * //

dimensions      [0 1 -1 0 0 0 0];

internalField   nonuniform List<vector> 
7373
(
(0.760984 -0.0610994 0)
(0.761532 -0.0623332 3.89669e-26)
(0.761998 -0.0636012 -1.61913e-19)
(0.762397 -0.0649059 -1.61531e-19)
(0.762713 -0.0662487 0)
(0.762951 -0.0676331 0)
(0.763116 -0.0690622 -3.90748e-26)
(0.76319 -0.0705373 -1.63557e-19)
(0.763173 -0.0720612 -7.65334e-28)
(0.763071 -0.073637 1.66839e-19)
(0.762861 -0.0752668 -1.69093e-19)
(0.762533 -0.0769518 -1.71779e-19)
(0.762081 -0.0786946 3.49829e-19)
(0.761505 -0.0804992 4.20014e-26)
(0.760792 -0.0823674 -3.65304e-19)
(0.759917 -0.0842998 3.74656e-19)
(0.758872 -0.0862982 -3.85184e-19)
(0.75765 -0.0883642 0)
(0.756235 -0.0905016 0)
(0.754614 -0.0927091 -5.16083e-26)
(0.752762 -0.0949863 -4.40909e-19)
(0.750652 -0.0973343 -5.0993e-26)
(0.748278 -0.099752 -1.16658e-25)
(0.745627 -0.102241 1.16792e-25)
(0.742673 -0.104798 -7.44645e-26)
(0.739385 -0.107421 5.51147e-19)
(0.735739 -0.110105 -5.80344e-19)
(0.731724 -0.11285 6.12453e-19)
(0.727315 -0.115651 1.2955e-18)
(0.722482 -0.118501 -6.86534e-19)
(0.717215 -0.121399 0)
(0.711474 -0.124333 9.27425e-26)
(0.705221 -0.127295 -8.27451e-19)
(0.698454 -0.13028 -2.0497e-25)
(0.691142 -0.133276 9.46105e-19)
(0.683241 -0.13627 -1.01438e-18)
(0.674722 -0.13925 -1.08946e-18)
(0.665562 -0.142204 -1.17203e-18)
(0.655724 -0.145113 -1.84021e-26)
(0.645176 -0.147961 2.72594e-18)
(0.633891 -0.15073 0)
(0.621851 -0.153407 0)
(0.609055 -0.155975 -3.45796e-18)
(0.595499 -0.158425 -8.67989e-25)
(0.581213 -0.160742 2.04122e-18)
(0.566213 -0.162926 -6.80021e-26)
(0.550582 -0.164989 2.42402e-18)
(0.534414 -0.16695 1.22344e-24)
(0.517819 -0.168839 0)
(0.500961 -0.170717 0)
(0.484015 -0.172663 0)
(0.467149 -0.174763 3.82469e-18)
(0.450456 -0.177108 -4.20955e-18)
(0.433923 -0.179749 -4.6402e-18)
(0.417385 -0.182722 -5.12259e-18)
(0.400326 -0.185881 -5.66279e-18)
(0.381834 -0.188868 6.26668e-18)
(0.360472 -0.190984 -6.9392e-18)
(0.33392 -0.190821 0)
(0.298649 -0.185681 -8.48773e-18)
(0.248724 -0.170226 -9.3366e-18)
(0.173807 -0.132983 -1.01741e-17)
(0.0622802 -0.054394 8.38269e-24)
(-0.102791 0.106755 5.5502e-18)
(-0.333232 0.431532 -3.97199e-24)
(-0.563948 1.00495 3.44394e-18)
(-0.661193 2.01234 3.2288e-19)
(-0.248861 3.10919 1.04098e-18)
(2.38069 -0.191133 0)
(2.38237 -0.19499 2.7334e-19)
(2.38377 -0.19895 2.72142e-19)
(2.38495 -0.203025 -2.7156e-19)
(2.3859 -0.207223 0)
(2.38661 -0.211549 0)
(2.38706 -0.216013 2.73372e-19)
(2.38724 -0.220623 2.75178e-19)
(2.38715 -0.225384 -6.55758e-26)
(2.38676 -0.230305 -2.80744e-19)
(2.38603 -0.235395 2.84546e-19)
(2.38495 -0.24066 2.89073e-19)
(2.38349 -0.246106 1.54352e-24)
(2.38162 -0.251741 0)
(2.3793 -0.257574 0)
(2.37649 -0.263608 -6.3033e-19)
(2.37316 -0.26985 6.47961e-19)
(2.36926 -0.2763 5.4459e-27)
(2.36475 -0.282973 -3.29085e-25)
(2.35958 -0.289863 1.42815e-18)
(2.3537 -0.296972 7.41152e-19)
(2.34702 -0.3043 1.80156e-24)
(2.3395 -0.311846 -8.04214e-19)
(2.3311 -0.319611 8.40718e-19)
(2.32175 -0.32759 8.80947e-19)
(2.31136 -0.33577 -2.15605e-25)
(2.29983 -0.344141 -2.38088e-25)
(2.28715 -0.352699 4.90473e-25)
(2.27322 -0.361427 -1.08642e-18)
(2.25796 -0.370309 1.15111e-18)
(2.24133 -0.379336 0)
(2.22322 -0.388474 -1.30029e-18)
(2.20351 -0.397695 0)
(2.18216 -0.40698 0)
(2.1591 -0.4163 3.13114e-24)
(2.13419 -0.425605 1.69762e-18)
(2.10734 -0.434863 -8.44361e-25)
(2.07846 -0.444023 -3.72179e-24)
(2.04743 -0.453038 2.11166e-18)
(2.01416 -0.461854 -2.27833e-18)
(1.97858 -0.470412 -2.46197e-18)
(1.94061 -0.478668 -2.54444e-24)
(1.90024 -0.486568 2.88786e-18)
(1.85746 -0.494069 0)
(1.81235 -0.501149 -6.81522e-18)
(1.76498 -0.50778 0)
(1.7156 -0.514009 -4.04469e-18)
(1.66448 -0.519882 2.17706e-24)
(1.61198 -0.525494 -2.23183e-24)
(1.55862 -0.53104 0)
(1.50493 -0.53674 0)
(1.45145 -0.542868 -6.37449e-18)
(1.39846 -0.549706 0)
(1.34595 -0.557419 -7.7299e-18)
(1.29341 -0.566074 8.53132e-18)
(1.23922 -0.575238 9.42841e-18)
(1.18057 -0.58379 0)
(1.11305 -0.589548 1.15467e-17)
(1.02953 -0.58811 1.27778e-17)
(0.919173 -0.571261 2.82256e-17)
(0.763997 -0.52256 1.51043e-23)
(0.532899 -0.407336 -1.68964e-17)
(0.19142 -0.16666 3.59933e-17)
(-0.309521 0.322011 -4.41031e-23)
(-1.00225 1.29783 0)
(-1.6904 3.00886 0)
(-1.9755 5.98945 -1.0107e-18)
(-0.747788 9.26365 -5.24235e-18)
(4.20754 -0.337807 0)
(4.21042 -0.344616 -6.17594e-19)
(4.21277 -0.351606 0)
(4.21473 -0.358798 3.06785e-19)
(4.21631 -0.366206 1.98312e-27)
(4.21746 -0.373843 -1.45582e-25)
(4.21814 -0.381721 -3.08831e-19)
(4.21836 -0.389857 0)
(4.21807 -0.398259 3.1365e-19)
(4.21723 -0.40694 0)
(4.21582 -0.415923 3.21451e-19)
(4.21378 -0.425212 1.57687e-25)
(4.21108 -0.43482 2.06347e-24)
(4.20763 -0.44476 -1.6414e-25)
(4.20337 -0.455047 1.63229e-25)
(4.19826 -0.465693 7.12055e-19)
(4.19222 -0.476701 7.31973e-19)
(4.18517 -0.488078 0)
(4.17703 -0.499844 -7.79054e-19)
(4.16772 -0.51199 -1.61329e-18)
(4.15714 -0.524524 8.37224e-19)
(4.14515 -0.537444 -8.71078e-19)
(4.13168 -0.550744 -3.22241e-24)
(4.11663 -0.564427 -9.49679e-19)
(4.09988 -0.578485 9.95118e-19)
(4.08129 -0.592895 -1.04514e-18)
(4.06071 -0.607641 0)
(4.03805 -0.62271 1.1607e-18)
(4.01318 -0.638075 0)
(3.98596 -0.653711 1.30028e-18)
(3.95629 -0.669591 0)
(3.924 -0.685666 -1.46879e-18)
(3.88888 -0.701881 -7.26531e-25)
(3.85084 -0.718198 1.67212e-18)
(3.80974 -0.734564 -1.78908e-18)
(3.76535 -0.750902 0)
(3.71752 -0.767135 -1.01222e-24)
(3.66606 -0.783189 2.21435e-18)
(3.61079 -0.798966 -2.38537e-18)
(3.55152 -0.814377 1.19114e-24)
(3.48813 -0.829316 2.78114e-18)
(3.42049 -0.843688 0)
(3.34852 -0.857403 0)
(3.27224 -0.870384 0)
(3.19177 -0.882573 -7.93238e-24)
(3.10725 -0.893943 4.19099e-18)
(3.01909 -0.904537 0)
(2.92777 -0.914444 0)
(2.83394 -0.923845 -5.38015e-24)
(2.7385 -0.933033 -3.70796e-25)
(2.6424 -0.942409 6.05731e-24)
(2.54659 -0.95247 0)
(2.45162 -0.963664 7.81752e-24)
(2.35747 -0.976329 8.73315e-18)
(2.26327 -0.99053 -9.63858e-18)
(2.16614 -1.00548 1.0652e-17)
(2.06118 -1.01922 0)
(1.94068 -1.02789 -1.28436e-23)
(1.79227 -1.02375 -1.44359e-17)
(1.59715 -0.992519 2.37224e-23)
(1.32436 -0.905624 0)
(0.920993 -0.703636 1.90885e-17)
(0.329286 -0.286074 -4.06594e-17)
(-0.53112 0.553489 -2.32061e-23)
(-1.70992 2.21466 1.47393e-23)
(-2.87154 5.10695 6.33448e-18)
(-3.34087 10.098 7.55472e-19)
(-1.27451 15.6151 3.89043e-18)
(6.25905 -0.502516 3.49295e-19)
(6.26313 -0.512628 -1.46263e-24)
(6.26641 -0.523007 -1.65688e-25)
(6.26912 -0.533688 -3.44778e-19)
(6.27125 -0.544687 0)
(6.27272 -0.556025 1.66075e-25)
(6.27354 -0.567724 3.47077e-19)
(6.27364 -0.579804 0)
(6.27297 -0.592277 -3.52491e-19)
(6.27149 -0.605165 -1.68247e-25)
(6.26915 -0.6185 1.68809e-24)
(6.26587 -0.632286 3.67008e-19)
(6.26158 -0.646545 3.73418e-24)
(6.2562 -0.661298 -7.62802e-19)
(6.2496 -0.676564 -7.80373e-19)
(6.24173 -0.692363 1.87973e-25)
(6.23247 -0.708696 -8.22659e-19)
(6.22171 -0.725577 3.97571e-25)
(6.20932 -0.743033 8.75601e-19)
(6.19515 -0.761048 9.06631e-19)
(6.1791 -0.779636 -9.41019e-19)
(6.16096 -0.7988 9.791e-19)
(6.1406 -0.818521 -5.33627e-24)
(6.11788 -0.83881 0)
(6.09261 -0.859644 5.78303e-24)
(6.06458 -0.881001 -5.92582e-24)
(6.03362 -0.902856 -6.04692e-25)
(5.99955 -0.925181 7.09436e-24)
(5.96218 -0.947943 -6.41734e-25)
(5.9213 -0.9711 -1.46203e-18)
(5.87674 -0.994604 3.98523e-26)
(5.82824 -1.01839 3.30345e-18)
(5.77556 -1.04238 8.17089e-25)
(5.7185 -1.0665 7.35515e-24)
(5.65684 -1.09069 0)
(5.59026 -1.1148 -1.06013e-24)
(5.51851 -1.13875 1.07308e-24)
(5.44133 -1.16241 1.22537e-24)
(5.35843 -1.18564 -1.24271e-24)
(5.26953 -1.20829 -2.89664e-18)
(5.17441 -1.2302 -3.08199e-24)
(5.07291 -1.25123 -3.38854e-18)
(4.96488 -1.27124 3.67333e-18)
(4.85034 -1.29009 3.988e-18)
(4.72942 -1.3077 4.33599e-18)
(4.60236 -1.32403 -4.72139e-18)
(4.46974 -1.33909 -5.07511e-24)
(4.33224 -1.35304 -5.62294e-18)
(4.19086 -1.36613 6.15024e-18)
(4.04693 -1.37874 0)
(3.90186 -1.39152 -7.2903e-24)
(3.75715 -1.40517 8.12199e-18)
(3.6136 -1.42033 0)
(3.47128 -1.43752 0)
(3.3289 -1.45682 1.0875e-17)
(3.18217 -1.47701 -2.40403e-17)
(3.02389 -1.49515 0)
(2.84269 -1.5055 0)
(2.62044 -1.49662 1.62981e-17)
(2.32975 -1.44748 -3.60086e-17)
(1.92572 -1.3164 0)
(1.33293 -1.0176 0)
(0.470543 -0.407463 2.29581e-17)
(-0.770791 0.80542 -1.1713e-17)
(-2.45295 3.17995 -1.07328e-17)
(-4.09217 7.27987 -1.42081e-17)
(-4.72323 14.2645 4.19852e-19)
(-1.80086 22.0001 4.25632e-18)
(8.5418 -0.685792 -3.8755e-19)
(8.54701 -0.699562 3.85046e-19)
(8.55112 -0.713695 -1.9317e-27)
(8.55446 -0.728239 3.82539e-19)
(8.55699 -0.743216 0)
(8.55865 -0.758654 0)
(8.5594 -0.774584 -7.70205e-19)
(8.55917 -0.79103 0)
(8.55789 -0.808012 3.91126e-19)
(8.55551 -0.825559 -3.9551e-19)
(8.55193 -0.84371 2.59094e-24)
(8.54705 -0.862477 -4.07262e-19)
(8.54081 -0.881886 -8.29408e-19)
(8.53307 -0.901968 8.46529e-19)
(8.5237 -0.922749 8.66071e-19)
(8.51256 -0.94425 0)
(8.49952 -0.966479 -9.13114e-19)
(8.48444 -0.989452 -1.535e-26)
(8.46714 -1.01321 4.55502e-25)
(8.4474 -1.03772 -1.00655e-18)
(8.42508 -1.06301 5.08382e-25)
(8.39993 -1.08908 7.14405e-24)
(8.37174 -1.11591 1.13402e-18)
(8.34032 -1.14351 -5.7835e-25)
(8.30543 -1.17185 7.91548e-24)
(8.26676 -1.2009 1.30535e-18)
(8.2241 -1.23062 1.3744e-18)
(8.1772 -1.26098 -1.45033e-18)
(8.12577 -1.29192 1.53383e-18)
(8.06956 -1.3234 1.55199e-24)
(8.0083 -1.35534 -1.64837e-24)
(7.94164 -1.38764 -3.67488e-18)
(7.86927 -1.42023 0)
(7.7909 -1.45298 -4.18668e-18)
(7.70619 -1.48579 -2.2407e-18)
(7.61475 -1.51849 2.22693e-24)
(7.51619 -1.55095 2.58102e-18)
(7.41017 -1.58296 2.77724e-18)
(7.29626 -1.61437 1.73707e-25)
(7.17406 -1.64494 3.23144e-18)
(7.04328 -1.67446 -3.43983e-24)
(6.90366 -1.70272 3.78381e-18)
(6.75501 -1.72953 -4.10393e-18)
(6.59727 -1.75466 -4.45787e-18)
(6.43063 -1.77802 0)
(6.25537 -1.79949 5.28375e-18)
(6.07225 -1.8191 -5.76532e-18)
(5.88219 -1.83703 -2.98884e-23)
(5.68655 -1.85357 -6.89538e-18)
(5.4871 -1.8693 -7.55814e-18)
(5.28588 -1.885 -7.66701e-24)
(5.08498 -1.90166 -9.12269e-18)
(4.88552 -1.92015 -1.91913e-23)
(4.68776 -1.94117 -1.10785e-17)
(4.48993 -1.96478 -1.22354e-17)
(4.28615 -1.98929 1.3531e-17)
(4.06673 -2.01063 0)
(3.81626 -2.02091 0)
(3.51028 -2.00456 -3.67551e-17)
(3.11214 -1.93317 2.03131e-17)
(2.56219 -1.75081 2.23465e-17)
(1.76206 -1.34404 0)
(0.609102 -0.525298 2.59139e-17)
(-1.03112 1.08091 -4.71015e-23)
(-3.22483 4.18666 2.4125e-17)
(-5.33175 9.49465 7.92427e-18)
(-6.08387 18.3826 -9.23441e-19)
(-2.30465 28.1914 -2.28098e-18)
(11.0335 -0.885841 -3.98064e-25)
(11.0396 -0.903581 3.98781e-25)
(11.0444 -0.921789 -4.14305e-19)
(11.0481 -0.940527 0)
(11.0509 -0.959823 0)
(11.0525 -0.979715 -3.9832e-25)
(11.053 -1.00024 4.16243e-19)
(11.0522 -1.02143 4.19026e-19)
(11.05 -1.04331 -4.22802e-19)
(11.0464 -1.06592 4.27572e-19)
(11.0413 -1.08931 -4.33411e-19)
(11.0346 -1.11349 -4.15067e-25)
(11.026 -1.13849 0)
(11.0156 -1.16437 9.15551e-19)
(11.003 -1.19115 0)
(10.9882 -1.21886 0)
(10.971 -1.2475 1.97602e-18)
(10.9511 -1.27711 0)
(10.9284 -1.30772 1.05216e-18)
(10.9026 -1.33931 -9.99353e-24)
(10.8734 -1.37191 -1.13153e-18)
(10.8406 -1.40552 -1.17775e-18)
(10.804 -1.44011 5.98917e-25)
(10.7632 -1.47568 -1.28526e-18)
(10.7179 -1.51222 1.19665e-23)
(10.6678 -1.54967 -1.41606e-18)
(10.6125 -1.58799 -1.49158e-18)
(10.5518 -1.62714 -1.57473e-18)
(10.4853 -1.66704 -1.66622e-18)
(10.4127 -1.70763 1.76692e-18)
(10.3335 -1.74882 -1.74449e-24)
(10.2474 -1.79049 1.99957e-18)
(10.1539 -1.8325 2.0942e-24)
(10.0526 -1.87473 2.28125e-18)
(9.94311 -1.91703 2.44374e-18)
(9.82492 -1.95918 2.43078e-24)
(9.69749 -2.00099 -2.81977e-18)
(9.56033 -2.04222 -3.03702e-18)
(9.41289 -2.08263 3.03382e-24)
(9.25464 -2.12192 0)
(9.08515 -2.15981 -3.77374e-24)
(8.90405 -2.19601 -4.15611e-18)
(8.71104 -2.23024 -4.51341e-18)
(8.50601 -2.26223 -4.90917e-18)
(8.28914 -2.29177 5.26971e-24)
(8.06075 -2.31872 -1.16702e-17)
(7.82171 -2.34308 1.27528e-17)
(7.57322 -2.36501 6.97869e-18)
(7.31698 -2.38489 0)
(7.05528 -2.40337 8.39803e-18)
(6.79081 -2.42151 1.70645e-23)
(6.5264 -2.44055 -2.00593e-23)
(6.26355 -2.46158 -1.1213e-17)
(6.00284 -2.48557 -5.67989e-23)
(5.74197 -2.51251 1.36953e-17)
(5.47335 -2.54009 0)
(5.18453 -2.56305 3.31406e-23)
(4.85566 -2.57103 -3.44949e-23)
(4.45541 -2.54387 2.06814e-17)
(3.93717 -2.44505 -2.28881e-17)
(3.22577 -2.20324 -5.04055e-17)
(2.20011 -1.67643 5.13785e-23)
(0.738238 -0.63338 -2.92293e-17)
(-1.31358 1.38207 5.75096e-23)
(-4.01545 5.22255 -1.35136e-17)
(-6.56447 11.7064 -4.29826e-23)
(-7.37991 22.3317 2.02402e-23)
(-2.7671 33.965 2.40273e-18)
(13.6572 -1.09649 4.14377e-25)
(13.664 -1.11839 -4.29922e-19)
(13.6692 -1.14087 4.28075e-19)
(13.6732 -1.164 4.27211e-19)
(13.676 -1.18783 -4.10419e-25)
(13.6774 -1.21239 4.05579e-25)
(13.6774 -1.23774 0)
(13.6759 -1.26391 -4.3321e-19)
(13.6727 -1.29094 0)
(13.6678 -1.31887 4.42216e-19)
(13.6611 -1.34776 -4.4835e-19)
(13.6523 -1.37764 4.55647e-19)
(13.6414 -1.40855 -4.48604e-25)
(13.6282 -1.44053 -9.47829e-19)
(13.6125 -1.47364 -9.70156e-19)
(13.5941 -1.5079 0)
(13.5726 -1.54332 1.32397e-23)
(13.548 -1.57994 0)
(13.52 -1.61782 -1.09133e-18)
(13.4881 -1.65692 1.13092e-18)
(13.4523 -1.69727 1.17485e-18)
(13.412 -1.73889 -1.19171e-24)
(13.3671 -1.78173 1.27747e-18)
(13.3171 -1.82582 1.337e-18)
(13.2617 -1.8711 -1.40276e-18)
(13.2004 -1.91755 1.47534e-18)
(13.1329 -1.96509 1.44874e-24)
(13.0587 -2.01367 1.6436e-18)
(12.9775 -2.06322 1.74088e-18)
(12.8887 -2.11365 -1.84804e-18)
(12.792 -2.16484 0)
(12.6867 -2.21666 2.09646e-18)
(12.5724 -2.26893 -2.24008e-18)
(12.4486 -2.32151 2.39844e-18)
(12.3146 -2.37419 2.57322e-18)
(12.1699 -2.42672 -2.76615e-18)
(12.0137 -2.47885 -2.97926e-18)
(11.8455 -2.53028 -3.21481e-18)
(11.6644 -2.58069 -3.47535e-18)
(11.4699 -2.62972 3.76383e-18)
(11.2612 -2.677 0)
(11.0379 -2.72215 4.43801e-18)
(10.7995 -2.7648 9.66346e-18)
(10.5458 -2.80457 5.26941e-18)
(10.2768 -2.84117 -5.75648e-18)
(9.993 -2.87437 -5.84467e-23)
(9.6952 -2.90411 -6.90443e-18)
(9.38478 -2.93054 2.89602e-23)
(9.06382 -2.95404 8.33593e-18)
(8.7351 -2.97538 0)
(8.40204 -2.99583 1.99776e-23)
(8.06823 -3.01688 -1.11877e-17)
(7.73569 -3.0399 -1.01726e-22)
(7.40547 -3.0661 2.74182e-17)
(7.07467 -3.09539 1.52054e-17)
(6.73385 -3.12478 0)
(6.36769 -3.14763 0)
(5.95137 -3.15078 -4.11075e-23)
(5.44615 -3.10896 2.32102e-17)
(4.7948 -2.97677 2.57444e-17)
(3.90607 -2.66644 2.83926e-17)
(2.63712 -2.00692 0)
(0.850816 -0.725076 -3.2934e-17)
(-1.61814 1.70947 0)
(-4.81046 6.27004 0)
(-7.7601 13.8628 9.6629e-18)
(-8.57155 25.9969 -5.37999e-19)
(-3.17528 39.164 -2.51817e-18)
(16.2693 -1.30623 0)
(16.2768 -1.33225 -6.7642e-24)
(16.2824 -1.35897 4.1612e-19)
(16.2866 -1.38648 -4.15364e-19)
(16.2894 -1.41482 -7.98286e-25)
(16.2906 -1.44404 7.89087e-25)
(16.2903 -1.47419 0)
(16.2882 -1.50534 4.21695e-19)
(16.2843 -1.53751 0)
(16.2784 -1.57077 -8.61544e-19)
(16.2704 -1.60518 4.36927e-19)
(16.2601 -1.64078 -4.44241e-19)
(16.2473 -1.67762 1.72801e-24)
(16.232 -1.71574 -1.76542e-24)
(16.2137 -1.75523 9.47384e-19)
(16.1924 -1.7961 9.72696e-19)
(16.1676 -1.83839 -1.00117e-18)
(16.1393 -1.88212 0)
(16.1069 -1.92737 0)
(16.0703 -1.97411 1.1084e-18)
(16.0291 -2.02237 1.07841e-24)
(15.9828 -2.07217 0)
(15.9312 -2.12348 -2.5113e-18)
(15.8737 -2.17631 -1.31567e-18)
(15.81 -2.23062 -1.38204e-18)
(15.7396 -2.28637 1.45542e-18)
(15.662 -2.34348 0)
(15.5767 -2.40191 1.62608e-18)
(15.4833 -2.46156 -1.72502e-18)
(15.3811 -2.52234 0)
(15.2697 -2.58411 0)
(15.1484 -2.6467 -4.17778e-18)
(15.0165 -2.70995 2.2367e-18)
(14.8735 -2.77364 -2.40026e-18)
(14.7186 -2.83757 3.31252e-23)
(14.551 -2.90143 -3.49404e-23)
(14.3699 -2.9649 6.00989e-18)
(14.1745 -3.02765 6.50442e-18)
(13.9638 -3.08928 3.527e-18)
(13.7369 -3.14935 4.16549e-23)
(13.493 -3.2074 7.7245e-24)
(13.2314 -3.26296 -4.55361e-18)
(12.9515 -3.31555 -4.97805e-18)
(12.6526 -3.36468 0)
(12.3349 -3.40993 5.98469e-18)
(11.9984 -3.45097 -5.59671e-23)
(11.6441 -3.48762 -7.251e-18)
(11.2733 -3.51997 0)
(10.8883 -3.54838 8.38229e-23)
(10.4923 -3.57364 0)
(10.0895 -3.59719 0)
(9.68417 -3.62078 -1.05874e-22)
(9.2789 -3.64599 -1.68184e-22)
(8.87535 -3.67433 -1.49729e-17)
(8.46996 -3.7055 -3.33881e-17)
(8.05144 -3.7358 1.86317e-17)
(7.6014 -3.75698 2.081e-17)
(7.08956 -3.75275 9.15707e-23)
(6.46924 -3.69216 -5.19214e-17)
(5.67195 -3.52007 -2.88966e-17)
(4.59014 -3.13136 1.18866e-22)
(3.06151 -2.32634 0)
(0.939673 -0.793671 3.70517e-17)
(-1.94273 2.06162 1.33532e-22)
(-5.59155 7.30652 -1.36708e-22)
(-8.8846 15.9109 -2.11321e-17)
(-9.63241 29.2837 1.15394e-18)
(-3.52428 43.7131 -5.29412e-18)
(18.6987 -1.50128 7.29872e-25)
(18.7069 -1.53117 3.81711e-19)
(18.7131 -1.56186 -3.80303e-19)
(18.7179 -1.59347 -7.20273e-25)
(18.7212 -1.62604 7.30226e-25)
(18.7228 -1.65963 -7.22155e-25)
(18.7227 -1.69432 0)
(18.7207 -1.73015 8.51296e-24)
(18.7168 -1.76718 3.90246e-19)
(18.7107 -1.80548 3.95106e-19)
(18.7024 -1.84512 4.01026e-19)
(18.6916 -1.88614 7.88066e-25)
(18.6782 -1.92861 -8.32271e-19)
(18.662 -1.9726 0)
(18.6427 -2.01817 0)
(18.62 -2.06537 -1.79245e-18)
(18.5936 -2.11423 -9.23345e-19)
(18.5634 -2.1648 9.25685e-25)
(18.5288 -2.21716 3.38218e-26)
(18.4896 -2.27128 2.39329e-23)
(18.4454 -2.32721 -3.99516e-26)
(18.3958 -2.38499 1.1143e-18)
(18.3403 -2.44456 1.16612e-18)
(18.2784 -2.50597 -3.02745e-23)
(18.2098 -2.56916 -3.15979e-23)
(18.1338 -2.63411 -1.3579e-18)
(18.0499 -2.70074 1.43611e-18)
(17.9577 -2.76899 3.30269e-23)
(17.8565 -2.83879 1.6186e-18)
(17.7457 -2.91002 1.73136e-25)
(17.6246 -2.98256 -3.4241e-24)
(17.4927 -3.05621 1.97356e-18)
(17.349 -3.13079 0)
(17.193 -3.20608 -2.28028e-18)
(17.0237 -3.28185 -2.45983e-18)
(16.8401 -3.35774 2.65988e-18)
(16.6414 -3.43344 -2.88299e-18)
(16.4264 -3.50851 5.93036e-23)
(16.1941 -3.58254 6.31597e-24)
(15.9433 -3.65502 -3.72282e-18)
(15.673 -3.7254 0)
(15.3821 -3.79311 4.46671e-18)
(15.0697 -3.85758 0)
(14.7351 -3.9182 -1.06604e-23)
(14.3778 -3.97441 1.1052e-23)
(13.9979 -4.02574 6.61656e-18)
(13.5958 -4.07188 1.46866e-17)
(13.1729 -4.11276 0)
(12.7315 -4.14866 -9.10717e-18)
(12.2748 -4.1803 -1.01746e-17)
(11.8074 -4.20924 0)
(11.3343 -4.23731 2.55266e-17)
(10.8587 -4.26626 2.86475e-17)
(10.3827 -4.29787 0)
(9.90201 -4.3315 -2.07752e-22)
(9.4036 -4.36262 -2.03434e-17)
(8.86572 -4.3812 -4.5782e-17)
(8.25218 -4.36731 2.57552e-17)
(7.50783 -4.28373 5.78666e-17)
(6.5524 -4.06471 3.23609e-17)
(5.26254 -3.58719 3.58741e-17)
(3.46036 -2.62444 1.46567e-22)
(0.998147 -0.832837 0)
(-2.28276 2.4345 0)
(-6.33741 8.30568 0)
(-9.91017 17.7963 1.14931e-17)
(-10.5408 32.1302 -1.23111e-18)
(-3.80908 47.5861 2.83198e-18)
(20.8279 -1.67225 0)
(20.8374 -1.70556 -3.34335e-19)
(20.8448 -1.73979 -3.33289e-19)
(20.8508 -1.77505 6.39246e-25)
(20.8552 -1.8114 -6.32058e-25)
(20.858 -1.84891 -6.43551e-25)
(20.859 -1.88765 -1.05466e-26)
(20.8581 -1.92769 -3.39616e-19)
(20.8551 -1.96908 -3.433e-19)
(20.85 -2.0119 -6.56784e-25)
(20.8426 -2.05626 -3.53324e-19)
(20.8327 -2.10219 3.5979e-19)
(20.82 -2.14975 7.34505e-19)
(20.8044 -2.19904 0)
(20.7857 -2.25014 0)
(20.7634 -2.30311 7.93196e-19)
(20.7374 -2.35797 8.18039e-19)
(20.7073 -2.41479 -1.64206e-24)
(20.6728 -2.47368 -6.00647e-26)
(20.6334 -2.53459 3.45241e-23)
(20.5888 -2.59761 -9.50283e-19)
(20.5386 -2.66276 -9.93201e-19)
(20.4822 -2.73002 1.04093e-18)
(20.4192 -2.79942 1.09384e-18)
(20.3491 -2.87094 1.15262e-18)
(20.2713 -2.94454 0)
(20.1852 -3.02017 -1.29025e-18)
(20.0903 -3.09777 -1.37062e-18)
(19.986 -3.17726 -2.91982e-18)
(19.8716 -3.25856 -5.95411e-24)
(19.7464 -3.34152 3.10221e-24)
(19.6096 -3.42596 -1.79249e-18)
(19.4604 -3.51169 0)
(19.298 -3.5985 4.16483e-18)
(19.1215 -3.68613 4.1787e-24)
(18.9297 -3.77423 -2.44477e-18)
(18.7216 -3.86245 4.9277e-24)
(18.496 -3.95036 -5.80086e-18)
(18.2515 -4.03749 0)
(17.9869 -4.12329 3.47812e-18)
(17.7008 -4.20715 -3.82447e-18)
(17.392 -4.28845 0)
(17.0592 -4.36655 0)
(16.7013 -4.4407 -2.03824e-23)
(16.3177 -4.51026 4.39621e-23)
(15.9077 -4.57462 6.42092e-18)
(15.4718 -4.63328 -7.18714e-18)
(15.0106 -4.68602 3.18239e-23)
(14.5261 -4.73295 -3.3596e-23)
(14.0215 -4.77463 1.02622e-17)
(13.5014 -4.81256 0)
(12.9708 -4.84852 -1.31723e-17)
(12.4333 -4.88431 -2.99177e-17)
(11.8914 -4.92175 -1.69986e-17)
(11.3397 -4.95971 1.93282e-17)
(10.7633 -4.99267 -2.19821e-17)
(10.1369 -5.00849 -3.87096e-22)
(9.41782 -4.98304 -2.8382e-17)
(8.54195 -4.87213 -6.42834e-17)
(7.41705 -4.59861 -2.83312e-22)
(5.9056 -4.02153 -8.04208e-17)
(3.82 -2.89038 6.665e-22)
(1.02087 -0.837325 -4.65523e-17)
(-2.63084 2.82118 2.32e-17)
(-7.0255 9.2393 5.81545e-22)
(-10.8123 19.4692 -1.24512e-17)
(-11.2771 34.5031 8.57969e-21)
(-4.02756 50.7658 6.10695e-18)
(10.9102 61.2441 0)
(22.6341 -1.81728 0)
(22.6454 -1.85355 2.88838e-19)
(22.6545 -1.89085 2.88109e-19)
(22.6623 -1.92928 0)
(22.6685 -1.9689 0)
(22.673 -2.00981 0)
(22.6758 -2.05207 1.12315e-24)
(22.6768 -2.09578 -1.11409e-24)
(22.6756 -2.14097 -2.97994e-19)
(22.6724 -2.18775 -1.14103e-24)
(22.6668 -2.23623 -1.18561e-24)
(22.6587 -2.28645 1.60347e-23)
(22.6479 -2.33848 3.15927e-26)
(22.6341 -2.39243 -2.50033e-24)
(22.6172 -2.4484 1.26506e-24)
(22.5967 -2.50644 1.3422e-24)
(22.5724 -2.56661 -1.34236e-24)
(22.544 -2.62896 1.43657e-24)
(22.5111 -2.69362 -1.43965e-24)
(22.4733 -2.76058 -7.99261e-19)
(22.4302 -2.8299 8.34056e-19)
(22.3814 -2.90163 0)
(22.3263 -2.97577 4.03331e-23)
(22.2645 -3.05235 1.88029e-24)
(22.1954 -3.13137 -1.89705e-24)
(22.1185 -3.21279 -1.07598e-18)
(22.0331 -3.29658 -1.14167e-18)
(21.9387 -3.38269 -1.21472e-18)
(21.8347 -3.47106 -5.11414e-23)
(21.7203 -3.56161 -2.57799e-24)
(21.5948 -3.6542 0)
(21.4575 -3.74869 -6.30419e-23)
(21.3075 -3.84486 0)
(21.1438 -3.94253 -1.86792e-18)
(20.9656 -4.04145 0)
(20.7716 -4.14127 2.2048e-18)
(20.5606 -4.24166 -2.40578e-18)
(20.3314 -4.34215 2.63259e-18)
(20.0825 -4.44229 2.88957e-18)
(19.8125 -4.54151 -3.18124e-18)
(19.5198 -4.63919 3.51359e-18)
(19.203 -4.73467 -1.5336e-23)
(18.8606 -4.82728 4.32913e-18)
(18.4912 -4.91621 1.78707e-23)
(18.0938 -5.00075 5.41064e-18)
(17.6675 -5.08018 -1.21675e-17)
(17.212 -5.15389 6.86822e-18)
(16.7277 -5.22149 3.07022e-23)
(16.2159 -5.2829 -3.27573e-23)
(15.6792 -5.33845 0)
(15.1219 -5.38948 0)
(14.5485 -5.43749 0)
(13.9623 -5.48416 1.53658e-17)
(13.3655 -5.53104 1.77116e-17)
(12.7513 -5.57622 2.04293e-17)
(12.1027 -5.61291 4.7112e-17)
(11.3899 -5.62635 5.42488e-17)
(10.5633 -5.58751 2.45455e-22)
(9.54937 -5.4445 3.56214e-17)
(8.24445 -5.10824 2.9922e-22)
(6.50007 -4.4209 4.49624e-17)
(4.12699 -3.11342 0)
(1.00469 -0.803807 1.03769e-16)
(-2.97668 3.21172 -2.56025e-17)
(-7.63432 10.0805 -2.20352e-17)
(-11.5622 20.8926 1.34023e-17)
(-11.8394 36.3879 6.9849e-19)
(-4.17681 53.222 -3.33682e-18)
(11.5573 64.7156 -4.08293e-22)
(29.637 64.2066 9.95503e-22)
(24.1585 -1.9397 0)
(24.1719 -1.97852 0)
(24.1831 -2.01845 0)
(24.193 -2.05961 2.51505e-19)
(24.2013 -2.10206 0)
(24.208 -2.14589 0)
(24.2131 -2.1912 0)
(24.2162 -2.23806 0)
(24.2174 -2.28654 2.6098e-19)
(24.2164 -2.33675 0)
(24.2132 -2.38879 -2.69397e-19)
(24.2074 -2.44272 -5.49456e-19)
(24.199 -2.49864 0)
(24.1877 -2.55664 0)
(24.1732 -2.61683 1.14573e-24)
(24.1551 -2.67929 -2.32723e-24)
(24.1333 -2.74407 6.29924e-19)
(24.1074 -2.81124 -2.49087e-24)
(24.0769 -2.88096 1.27053e-24)
(24.0416 -2.95319 -7.06031e-19)
(24.001 -3.02803 7.37443e-19)
(23.9546 -3.10554 0)
(23.9019 -3.18572 -8.11271e-19)
(23.8425 -3.26862 3.19085e-24)
(23.7757 -3.35425 0)
(23.701 -3.44259 9.56116e-19)
(23.6179 -3.53361 1.01564e-18)
(23.5256 -3.62728 -5.79221e-23)
(23.4237 -3.72357 1.15584e-18)
(23.3113 -3.82238 -4.60465e-24)
(23.1878 -3.92363 0)
(23.0523 -4.02716 -7.22504e-23)
(22.904 -4.13279 -1.54918e-18)
(22.742 -4.24035 -6.22966e-24)
(22.5652 -4.34961 0)
(22.3725 -4.46023 -7.82252e-24)
(22.1626 -4.57189 2.176e-18)
(21.9341 -4.68416 0)
(21.6856 -4.79658 -2.62758e-18)
(21.4154 -4.90861 -2.90201e-18)
(21.1221 -5.01963 -3.21629e-18)
(20.8039 -5.12899 0)
(20.4593 -5.23602 1.55078e-22)
(20.0867 -5.33991 0)
(19.6848 -5.43993 -5.04732e-18)
(19.2524 -5.53534 1.14253e-17)
(18.789 -5.62545 -6.49781e-18)
(18.2942 -5.70978 -7.43021e-18)
(17.7689 -5.78808 6.73754e-23)
(17.2148 -5.8605 -7.2976e-23)
(16.6356 -5.9281 0)
(16.0346 -5.992 -1.33642e-17)
(15.4143 -6.05351 -1.2335e-22)
(14.7757 -6.1136 -1.83046e-17)
(14.1098 -6.16913 -2.14577e-17)
(13.3963 -6.21158 5.25819e-22)
(12.6007 -6.22282 -5.87362e-17)
(11.665 -6.16814 0)
(10.5065 -5.98719 -3.94371e-17)
(9.0116 -5.57896 -3.51717e-22)
(7.02628 -4.77145 5.01257e-17)
(4.36964 -3.28411 -5.46786e-17)
(0.949817 -0.731891 -1.15017e-16)
(-3.30756 3.59353 0)
(-8.1459 10.8067 2.37788e-17)
(-12.1451 22.0387 0)
(-12.2312 37.7969 0)
(-4.2537 54.9257 1.08447e-17)
(12.1296 67.7297 7.25645e-23)
(31.0616 67.3215 0)
(45.1659 56.9769 3.00655e-17)
(25.462 -2.04438 8.63399e-25)
(25.4774 -2.08542 -8.52983e-25)
(25.4908 -2.12762 -2.24236e-19)
(25.5028 -2.17114 -2.24428e-19)
(25.5134 -2.21604 -8.5346e-25)
(25.5223 -2.26241 0)
(25.5296 -2.31036 0)
(25.5351 -2.35997 0)
(25.5386 -2.41131 2.33535e-19)
(25.5401 -2.46448 8.95316e-25)
(25.5393 -2.51963 4.82642e-19)
(25.536 -2.57679 2.46237e-19)
(25.5301 -2.63608 -5.03831e-19)
(25.5214 -2.69761 0)
(25.5095 -2.76148 0)
(25.4941 -2.82779 -5.47846e-19)
(25.4749 -2.8966 -5.66335e-19)
(25.4517 -2.96799 0)
(25.424 -3.04211 0)
(25.3914 -3.11896 6.36045e-19)
(25.3535 -3.19863 -6.64806e-19)
(25.3098 -3.2812 -2.60617e-24)
(25.2599 -3.36667 2.85602e-24)
(25.2033 -3.45512 1.29884e-25)
(25.1393 -3.54655 -3.04542e-24)
(25.0674 -3.64097 0)
(24.987 -3.73835 3.59804e-24)
(24.8975 -3.83869 1.96164e-18)
(24.7983 -3.94197 3.90221e-24)
(24.6887 -4.04811 4.40774e-24)
(24.568 -4.15703 -1.2096e-18)
(24.4353 -4.2686 1.30466e-18)
(24.2898 -4.38267 -8.72402e-23)
(24.1306 -4.49907 0)
(23.9567 -4.61761 1.66724e-18)
(23.7668 -4.73796 6.74885e-24)
(23.5597 -4.85984 1.56856e-23)
(23.334 -4.98282 -3.34848e-23)
(23.0882 -5.10649 3.69305e-23)
(22.8206 -5.23032 5.35096e-18)
(22.5297 -5.35373 2.97274e-18)
(22.2137 -5.4761 0)
(21.8709 -5.59679 -3.716e-18)
(21.4999 -5.71505 0)
(21.0991 -5.83016 0)
(20.6671 -5.9414 -5.3857e-18)
(20.2031 -6.04811 -6.16476e-18)
(19.7066 -6.14979 -3.06665e-22)
(19.1777 -6.2461 6.49657e-23)
(18.6174 -6.33704 -7.11031e-23)
(18.0285 -6.42344 1.13032e-17)
(17.4128 -6.50594 2.67301e-17)
(16.7715 -6.58534 1.58753e-17)
(16.1032 -6.6616 1.88996e-17)
(15.3956 -6.72989 2.25414e-17)
(14.6243 -6.77928 -2.68493e-17)
(13.7479 -6.78729 3.18461e-17)
(12.7001 -6.71265 -3.75185e-17)
(11.3892 -6.48611 -1.48368e-21)
(9.69502 -5.99588 -7.81461e-22)
(7.46606 -5.06029 -1.11315e-16)
(4.54 -3.39587 6.05686e-17)
(0.860847 -0.625058 6.32938e-17)
(-3.60917 3.95238 -3.04333e-17)
(-8.54855 11.4037 -2.54084e-17)
(-12.5573 22.9003 -1.51647e-17)
(-12.4652 38.7745 -7.41986e-19)
(-4.26001 55.9086 -1.16288e-17)
(12.6183 70.2504 0)
(32.2462 69.8836 -3.08559e-17)
(47.2767 59.6876 0)
(26.5995 -2.13575 1.56804e-24)
(26.6169 -2.17873 0)
(26.6323 -2.22293 2.05332e-19)
(26.6464 -2.26853 0)
(26.659 -2.31558 0)
(26.6701 -2.36418 0)
(26.6796 -2.41445 2.09365e-19)
(26.6873 -2.46647 -2.1162e-19)
(26.6931 -2.52032 1.7368e-23)
(26.6968 -2.57612 1.67997e-24)
(26.6984 -2.63399 -4.43568e-19)
(26.6975 -2.694 2.26427e-19)
(26.694 -2.75626 -3.68456e-23)
(26.6877 -2.82089 4.75586e-19)
(26.6783 -2.88801 0)
(26.6654 -2.95771 -4.27143e-23)
(26.6488 -3.03006 5.22066e-19)
(26.6282 -3.10516 0)
(26.6031 -3.18317 5.63101e-19)
(26.5731 -3.26408 5.87246e-19)
(26.5379 -3.34801 2.29854e-24)
(26.4969 -3.43505 2.5091e-24)
(26.4497 -3.52518 -2.53121e-24)
(26.3958 -3.61853 -2.78775e-24)
(26.3345 -3.71509 2.81938e-24)
(26.2653 -3.81488 0)
(26.1877 -3.91789 0)
(26.101 -4.02414 -9.09645e-19)
(26.0047 -4.1336 9.73354e-19)
(25.898 -4.24623 7.76763e-24)
(25.7802 -4.36196 1.12408e-18)
(25.6505 -4.48068 0)
(25.508 -4.60226 1.31386e-18)
(25.3519 -4.72654 0)
(25.1812 -4.85337 -3.10954e-18)
(24.9946 -4.98244 1.69951e-18)
(24.7909 -5.11348 8.46202e-25)
(24.5686 -5.24611 2.05111e-18)
(24.3262 -5.37993 1.78314e-23)
(24.0622 -5.51447 -5.02315e-18)
(23.7749 -5.64917 0)
(23.4626 -5.78346 0)
(23.1236 -5.91677 0)
(22.7563 -6.04839 0)
(22.3593 -6.17769 0)
(21.9311 -6.30402 4.05543e-23)
(21.4708 -6.42677 1.18355e-17)
(20.9776 -6.5455 6.85995e-18)
(20.4512 -6.65987 6.32414e-23)
(19.8921 -6.76981 -6.98666e-23)
(19.3019 -6.87595 7.5177e-22)
(18.6808 -6.97843 -1.34589e-17)
(18.0282 -7.0774 -1.623e-17)
(17.3392 -7.17139 -1.96446e-17)
(16.597 -7.25332 -2.38355e-17)
(15.7715 -7.30897 -2.88659e-17)
(14.813 -7.31042 5.47571e-22)
(13.6464 -7.20905 4.13329e-17)
(12.1731 -6.9271 4.83507e-17)
(10.2726 -6.34487 5.52449e-17)
(7.80541 -5.27738 6.14756e-17)
(4.63619 -3.44674 -6.66478e-17)
(0.747318 -0.491172 0)
(-3.86752 4.27423 3.26902e-17)
(-8.83904 11.8677 2.68249e-17)
(-12.8094 23.497 3.16046e-17)
(-12.5776 39.3915 7.66713e-19)
(-4.1952 56.3258 -3.98995e-18)
(13.009 72.132 0)
(33.1132 71.7774 -3.86082e-17)
(49.2274 62.1953 0)
(27.6137 -2.21724 0)
(27.633 -2.26195 0)
(27.6502 -2.30794 1.92985e-19)
(27.6661 -2.35539 1.46645e-24)
(27.6806 -2.40435 1.49143e-24)
(27.6936 -2.45495 -1.47973e-24)
(27.7051 -2.50729 -1.97032e-19)
(27.7148 -2.56146 1.99229e-19)
(27.7226 -2.61756 -2.01954e-19)
(27.7284 -2.67568 -1.58298e-24)
(27.7321 -2.73599 2.09054e-19)
(27.7333 -2.79854 2.27753e-23)
(27.732 -2.86345 4.37213e-19)
(27.7279 -2.93084 4.49777e-23)
(27.7207 -3.00086 0)
(27.7102 -3.07359 9.53448e-19)
(27.6958 -3.1491 -4.93278e-19)
(27.6775 -3.22751 -1.92043e-24)
(27.6548 -3.30899 -5.32508e-19)
(27.6272 -3.39353 -5.55573e-19)
(27.5944 -3.48126 0)
(27.5558 -3.57227 6.09937e-19)
(27.511 -3.66657 5.00424e-24)
(27.4595 -3.76428 -5.05683e-24)