/*--------------------------------*- C++ -*----------------------------------*\
| =========                 |                                                 |
| \\      /  F ield         | OpenFOAM: The Open Source CFD Toolbox           |
|  \\    /   O peration     | Version:  2412                                  |
|   \\  /    A nd           | Website:  www.openfoam.com                      |
|    \\/     M anipulation  |                                                 |
\*---------------------------------------------------------------------------*/
FoamFile
{
    version     2.0;
    format      ascii;
    arch        "LSB;label=32;scalar=64";
    class       volScalarField;
    location    "140";
    object      nut;
}
// * * * * * * * * * * * * * * * * * * * * * * * * * * * * * * * * * * * * * //

dimensions      [0 2 -1 0 0 0 0];

internalField   nonuniform List<scalar> 
8702
(
1.66156e-11
1.65932e-11
1.65857e-11
1.65866e-11
1.65832e-11
1.65749e-11
1.65646e-11
1.65516e-11
1.65379e-11
1.6526e-11
1.65147e-11
1.65034e-11
1.6492e-11
1.64819e-11
1.64719e-11
1.64634e-11
1.64542e-11
1.64452e-11
1.6438e-11
1.64294e-11
1.64204e-11
1.64125e-11
1.6404e-11
1.63957e-11
1.63887e-11
1.63815e-11
1.63739e-11
1.63672e-11
1.63608e-11
1.63539e-11
1.63481e-11
1.63431e-11
1.63374e-11
1.63327e-11
1.63285e-11
1.63228e-11
1.63188e-11
1.63155e-11
1.63123e-11
1.63103e-11
1.63084e-11
1.63071e-11
1.63058e-11
1.63049e-11
1.63061e-11
1.63082e-11
1.63109e-11
1.63139e-11
1.63178e-11
1.63219e-11
1.63266e-11
1.63337e-11
1.63417e-11
1.6351e-11
1.63616e-11
1.63745e-11
1.63883e-11
1.64031e-11
1.64199e-11
1.64403e-11
1.64624e-11
1.64856e-11
1.65123e-11
1.65429e-11
1.65781e-11
1.6616e-11
1.6658e-11
1.67021e-11
1.67479e-11
1.68039e-11
1.68787e-11
1.69718e-11
1.70674e-11
1.71512e-11
1.72125e-11
1.72764e-11
1.73982e-11
1.76156e-11
1.79803e-11
1.84514e-11
1.88914e-11
1.92289e-11
1.40534e-09
1.40336e-09
1.40262e-09
1.40272e-09
1.40261e-09
1.402e-09
1.40112e-09
1.40006e-09
1.39892e-09
1.39786e-09
1.39685e-09
1.39584e-09
1.39487e-09
1.39396e-09
1.3931e-09
1.39235e-09
1.39158e-09
1.39081e-09
1.3901e-09
1.38936e-09
1.38863e-09
1.38791e-09
1.38718e-09
1.38646e-09
1.38582e-09
1.38518e-09
1.3845e-09
1.38389e-09
1.38328e-09
1.38266e-09
1.38209e-09
1.38158e-09
1.38105e-09
1.38054e-09
1.3801e-09
1.37962e-09
1.37921e-09
1.37885e-09
1.37852e-09
1.37827e-09
1.37804e-09
1.37783e-09
1.37764e-09
1.37752e-09
1.37753e-09
1.37756e-09
1.37767e-09
1.37781e-09
1.37804e-09
1.37836e-09
1.37873e-09
1.3792e-09
1.37976e-09
1.38045e-09
1.38125e-09
1.38218e-09
1.38321e-09
1.38439e-09
1.38574e-09
1.38731e-09
1.38905e-09
1.39092e-09
1.39304e-09
1.39549e-09
1.39827e-09
1.40135e-09
1.40475e-09
1.40829e-09
1.41205e-09
1.41658e-09
1.4225e-09
1.42983e-09
1.43752e-09
1.44454e-09
1.44997e-09
1.45542e-09
1.46489e-09
1.4814e-09
1.50877e-09
1.54452e-09
1.5793e-09
1.60751e-09
1.11475e-08
1.11312e-08
1.11245e-08
1.11254e-08
1.1126e-08
1.11222e-08
1.11155e-08
1.11073e-08
1.10984e-08
1.10896e-08
1.1081e-08
1.10727e-08
1.10646e-08
1.10571e-08
1.10499e-08
1.10435e-08
1.10373e-08
1.10309e-08
1.10248e-08
1.10187e-08
1.10126e-08
1.10064e-08
1.10004e-08
1.09943e-08
1.09887e-08
1.0983e-08
1.09772e-08
1.09716e-08
1.0966e-08
1.09606e-08
1.09553e-08
1.09502e-08
1.09453e-08
1.09405e-08
1.0936e-08
1.09316e-08
1.09274e-08
1.09235e-08
1.09199e-08
1.09169e-08
1.0914e-08
1.09113e-08
1.09087e-08
1.09068e-08
1.09055e-08
1.09045e-08
1.0904e-08
1.09039e-08
1.09043e-08
1.09055e-08
1.09072e-08
1.09096e-08
1.09125e-08
1.09165e-08
1.09214e-08
1.0927e-08
1.09335e-08
1.09412e-08
1.09503e-08
1.09607e-08
1.09725e-08
1.09855e-08
1.10002e-08
1.10172e-08
1.10367e-08
1.10587e-08
1.1083e-08
1.11086e-08
1.11361e-08
1.11687e-08
1.12105e-08
1.12621e-08
1.1318e-08
1.13712e-08
1.14147e-08
1.14573e-08
1.15233e-08
1.1634e-08
1.18145e-08
1.20544e-08
1.23014e-08
1.25168e-08
4.18226e-08
4.17598e-08
4.17301e-08
4.17331e-08
4.17408e-08
4.17318e-08
4.17097e-08
4.16798e-08
4.16462e-08
4.16121e-08
4.15785e-08
4.15456e-08
4.15137e-08
4.14839e-08
4.14557e-08
4.14301e-08
4.14057e-08
4.13809e-08
4.13566e-08
4.13325e-08
4.13078e-08
4.12828e-08
4.12583e-08
4.1234e-08
4.12102e-08
4.11862e-08
4.11624e-08
4.11381e-08
4.11142e-08
4.1091e-08
4.10675e-08
4.1045e-08
4.1023e-08
4.10011e-08
4.09799e-08
4.09594e-08
4.09395e-08
4.09207e-08
4.09028e-08
4.08865e-08
4.08703e-08
4.08552e-08
4.08408e-08
4.0828e-08
4.08171e-08
4.08076e-08
4.07994e-08
4.07926e-08
4.07878e-08
4.07854e-08
4.07848e-08
4.07866e-08
4.07905e-08
4.07978e-08
4.08077e-08
4.08205e-08
4.08364e-08
4.08565e-08
4.08809e-08
4.091e-08
4.09438e-08
4.09825e-08
4.10268e-08
4.10783e-08
4.11384e-08
4.12076e-08
4.1285e-08
4.1368e-08
4.14577e-08
4.15627e-08
4.16954e-08
4.18609e-08
4.20455e-08
4.22284e-08
4.23875e-08
4.25403e-08
4.27517e-08
4.30893e-08
4.36286e-08
4.43599e-08
4.51631e-08
4.59209e-08
1.0681e-07
1.06648e-07
1.06558e-07
1.06561e-07
1.06595e-07
1.06588e-07
1.06542e-07
1.0647e-07
1.06384e-07
1.06295e-07
1.06205e-07
1.06116e-07
1.06029e-07
1.05949e-07
1.05874e-07
1.05806e-07
1.0574e-07
1.05674e-07
1.05609e-07
1.05543e-07
1.05475e-07
1.05407e-07
1.05339e-07
1.05271e-07
1.05204e-07
1.05135e-07
1.05067e-07
1.04997e-07
1.04928e-07
1.04859e-07
1.04789e-07
1.04722e-07
1.04654e-07
1.04587e-07
1.04521e-07
1.04456e-07
1.04393e-07
1.04332e-07
1.04272e-07
1.04216e-07
1.04159e-07
1.04105e-07
1.04053e-07
1.04003e-07
1.03957e-07
1.03913e-07
1.03872e-07
1.03835e-07
1.03803e-07
1.03775e-07
1.03751e-07
1.03733e-07
1.03719e-07
1.03713e-07
1.03712e-07
1.03718e-07
1.03731e-07
1.03753e-07
1.03784e-07
1.03826e-07
1.03879e-07
1.03943e-07
1.0402e-07
1.04113e-07
1.04224e-07
1.04357e-07
1.0451e-07
1.04678e-07
1.0486e-07
1.05073e-07
1.05342e-07
1.05682e-07
1.06076e-07
1.06484e-07
1.06861e-07
1.07219e-07
1.07662e-07
1.08328e-07
1.09366e-07
1.10811e-07
1.12518e-07
1.14272e-07
2.14475e-07
2.14153e-07
2.13937e-07
2.13924e-07
2.14018e-07
2.14041e-07
2.13977e-07
2.13845e-07
2.13676e-07
2.13492e-07
2.13303e-07
2.13113e-07
2.12929e-07
2.12759e-07
2.126e-07
2.12454e-07
2.12316e-07
2.12177e-07
2.12039e-07
2.11898e-07
2.11752e-07
2.11604e-07
2.11455e-07
2.11304e-07
2.11154e-07
2.11e-07
2.10847e-07
2.10689e-07
2.10529e-07
2.10369e-07
2.10208e-07
2.10047e-07
2.09887e-07
2.09726e-07
2.09566e-07
2.09406e-07
2.09247e-07
2.09094e-07
2.08939e-07
2.0879e-07
2.0864e-07
2.08494e-07
2.0835e-07
2.08208e-07
2.08071e-07
2.07937e-07
2.07808e-07
2.07685e-07
2.07568e-07
2.0746e-07
2.07357e-07
2.07263e-07
2.07175e-07
2.07099e-07
2.07034e-07
2.06978e-07
2.06933e-07
2.06903e-07
2.06888e-07
2.06891e-07
2.06912e-07
2.06954e-07
2.07016e-07
2.07104e-07
2.07224e-07
2.07381e-07
2.07575e-07
2.07797e-07
2.08045e-07
2.08337e-07
2.08712e-07
2.09203e-07
2.09805e-07
2.10471e-07
2.11125e-07
2.11744e-07
2.12421e-07
2.1336e-07
2.14781e-07
2.16838e-07
2.19514e-07
2.22555e-07
3.63706e-07
3.63183e-07
3.62748e-07
3.62676e-07
3.6287e-07
3.62977e-07
3.62927e-07
3.62738e-07
3.62463e-07
3.62144e-07
3.61808e-07
3.61466e-07
3.61134e-07
3.60824e-07
3.60537e-07
3.60274e-07
3.60028e-07
3.5978e-07
3.5953e-07
3.59273e-07
3.59008e-07
3.58734e-07
3.58456e-07
3.58172e-07
3.57887e-07
3.57592e-07
3.57298e-07
3.56993e-07
3.56683e-07
3.56368e-07
3.56049e-07
3.55728e-07
3.55404e-07
3.55078e-07
3.54747e-07
3.54417e-07
3.54084e-07
3.53758e-07
3.53425e-07
3.53098e-07
3.52768e-07
3.52444e-07
3.52116e-07
3.51789e-07
3.51465e-07
3.51144e-07
3.50826e-07
3.50514e-07
3.50208e-07
3.49913e-07
3.49621e-07
3.4934e-07
3.49065e-07
3.48806e-07
3.48556e-07
3.48317e-07
3.48092e-07
3.47883e-07
3.47693e-07
3.47526e-07
3.47382e-07
3.47266e-07
3.47175e-07
3.47118e-07
3.47101e-07
3.47134e-07
3.47222e-07
3.47356e-07
3.47524e-07
3.47737e-07
3.4804e-07
3.48494e-07
3.4913e-07
3.49919e-07
3.50769e-07
3.5157e-07
3.52314e-07
3.5321e-07
3.54505e-07
3.5656e-07
3.59712e-07
3.63835e-07
5.42349e-07
5.41636e-07
5.40878e-07
5.40664e-07
5.40985e-07
5.4125e-07
5.41281e-07
5.41067e-07
5.40683e-07
5.40202e-07
5.39676e-07
5.39131e-07
5.38597e-07
5.38097e-07
5.37637e-07
5.37217e-07
5.36824e-07
5.3643e-07
5.36029e-07
5.35615e-07
5.35183e-07
5.34734e-07
5.34275e-07
5.33799e-07
5.33319e-07
5.32818e-07
5.32318e-07
5.31796e-07
5.3126e-07
5.30712e-07
5.30152e-07
5.29584e-07
5.29006e-07
5.28419e-07
5.27821e-07
5.27218e-07
5.26605e-07
5.25997e-07
5.25373e-07
5.24752e-07
5.24119e-07
5.23489e-07
5.22848e-07
5.22201e-07
5.21549e-07
5.20894e-07
5.20237e-07
5.1958e-07
5.18923e-07
5.18274e-07
5.17623e-07
5.16978e-07
5.16332e-07
5.15698e-07
5.15068e-07
5.14446e-07
5.1383e-07
5.13226e-07
5.12637e-07
5.12067e-07
5.11516e-07
5.10993e-07
5.10494e-07
5.10025e-07
5.09593e-07
5.09213e-07
5.08899e-07
5.08644e-07
5.08425e-07
5.0823e-07
5.08096e-07
5.08109e-07
5.08371e-07
5.08909e-07
5.09638e-07
5.1032e-07
5.10737e-07
5.10987e-07
5.11264e-07
5.12196e-07
5.14688e-07
5.1898e-07
7.29103e-07
7.28293e-07
7.27126e-07
7.26649e-07
7.27081e-07
7.27578e-07
7.27783e-07
7.2761e-07
7.27147e-07
7.26498e-07
7.25754e-07
7.24964e-07
7.24181e-07
7.23444e-07
7.22769e-07
7.22153e-07
7.21583e-07
7.2101e-07
7.20422e-07
7.19812e-07
7.1917e-07
7.18498e-07
7.17804e-07
7.17075e-07
7.16335e-07
7.15561e-07
7.14783e-07
7.13969e-07
7.13126e-07
7.12259e-07
7.11365e-07
7.10452e-07
7.09518e-07
7.08563e-07
7.07584e-07
7.06586e-07
7.05566e-07
7.04544e-07
7.03492e-07
7.02434e-07
7.01349e-07
7.00257e-07
6.9914e-07
6.98001e-07
6.96844e-07
6.95669e-07
6.94477e-07
6.93273e-07
6.92054e-07
6.90832e-07
6.89591e-07
6.88344e-07
6.87081e-07
6.85816e-07
6.84539e-07
6.83253e-07
6.81958e-07
6.80658e-07
6.79355e-07
6.78053e-07
6.76756e-07
6.75472e-07
6.74196e-07
6.7293e-07
6.7168e-07
6.70464e-07
6.6931e-07
6.68216e-07
6.67144e-07
6.6605e-07
6.64939e-07
6.6392e-07
6.63186e-07
6.62857e-07
6.62889e-07
6.62898e-07
6.62372e-07
6.61176e-07
6.59356e-07
6.57806e-07
6.5809e-07
6.6101e-07
8.98272e-07
8.97541e-07
8.95939e-07
8.95061e-07
8.95526e-07
8.9629e-07
8.96758e-07
8.96717e-07
8.96236e-07
8.95446e-07
8.9448e-07
8.93421e-07
8.92351e-07
8.9134e-07
8.90414e-07
8.8957e-07
8.88796e-07
8.88021e-07
8.87219e-07
8.86381e-07
8.85493e-07
8.84554e-07
8.83576e-07
8.82542e-07
8.81483e-07
8.80371e-07
8.79247e-07
8.78068e-07
8.76843e-07
8.75574e-07
8.74256e-07
8.72902e-07
8.71509e-07
8.70077e-07
8.68599e-07
8.67085e-07
8.65527e-07
8.63953e-07
8.62328e-07
8.60681e-07
8.58983e-07
8.57262e-07
8.55493e-07
8.53681e-07
8.51824e-07
8.49925e-07
8.47986e-07
8.4601e-07
8.43994e-07
8.41952e-07
8.39866e-07
8.37749e-07
8.35589e-07
8.33401e-07
8.31173e-07
8.28907e-07
8.26602e-07
8.24261e-07
8.21884e-07
8.19476e-07
8.1704e-07
8.14587e-07
8.12108e-07
8.09601e-07
8.07067e-07
8.04529e-07
8.02024e-07
7.99563e-07
7.97093e-07
7.94528e-07
7.91833e-07
7.89124e-07
7.86683e-07
7.84745e-07
7.83334e-07
7.81935e-07
7.79739e-07
7.76297e-07
7.71437e-07
7.66255e-07
7.62887e-07
7.62731e-07
7.64329e-07
1.02581e-06
1.02538e-06
1.02342e-06
1.02202e-06
1.02237e-06
1.02336e-06
1.02414e-06
1.02432e-06
1.0239e-06
1.02302e-06
1.02186e-06
1.02053e-06
1.01915e-06
1.01784e-06
1.01664e-06
1.01555e-06
1.01454e-06
1.01355e-06
1.01251e-06
1.01143e-06
1.01027e-06
1.00903e-06
1.00774e-06
1.00636e-06
1.00493e-06
1.00343e-06
1.00191e-06
1.00031e-06
9.98639e-07
9.96901e-07
9.9509e-07
9.93217e-07
9.91281e-07
9.89281e-07
9.87208e-07
9.85074e-07
9.82867e-07
9.80622e-07
9.78302e-07
9.75932e-07
9.73484e-07
9.70986e-07
9.68412e-07
9.65763e-07
9.63036e-07
9.60233e-07
9.57356e-07
9.54408e-07
9.51385e-07
9.48301e-07
9.4514e-07
9.41911e-07
9.38602e-07
9.35226e-07
9.31772e-07
9.28238e-07
9.24624e-07
9.2093e-07
9.17156e-07
9.13304e-07
9.09378e-07
9.05389e-07
9.01329e-07
8.97188e-07
8.92962e-07
8.88674e-07
8.84373e-07
8.8008e-07
8.75733e-07
8.71209e-07
8.66426e-07
8.61496e-07
8.56763e-07
8.52573e-07
8.49023e-07
8.45513e-07
8.41009e-07
8.3478e-07
8.26422e-07
8.17131e-07
8.0936e-07
8.04946e-07
8.03567e-07
1.09484e-06
1.09494e-06
1.09277e-06
1.09082e-06
1.09087e-06
1.09195e-06
1.093e-06
1.09344e-06
1.09316e-06
1.09226e-06
1.09093e-06
1.08935e-06
1.08768e-06
1.08605e-06
1.08456e-06
1.08319e-06
1.08195e-06
1.08072e-06
1.07945e-06
1.0781e-06
1.07666e-06
1.07512e-06
1.07349e-06
1.07175e-06
1.06993e-06
1.06802e-06
1.06607e-06
1.06402e-06
1.06187e-06
1.05963e-06
1.05729e-06
1.05486e-06
1.05234e-06
1.04972e-06
1.047e-06
1.04419e-06
1.04127e-06
1.03829e-06
1.0352e-06
1.03203e-06
1.02876e-06
1.0254e-06
1.02193e-06
1.01835e-06
1.01465e-06
1.01084e-06
1.00692e-06
1.00288e-06
9.98729e-07
9.94473e-07
9.90101e-07
9.85617e-07
9.8101e-07
9.7629e-07
9.71448e-07
9.66481e-07
9.61385e-07
9.5616e-07
9.50804e-07
9.4532e-07
9.3971e-07
9.33986e-07
9.28141e-07
9.22159e-07
9.16033e-07
9.09786e-07
9.03473e-07
8.97124e-07
8.90674e-07
8.83977e-07
8.76913e-07
8.6958e-07
8.62347e-07
8.55626e-07
8.49577e-07
8.43567e-07
8.36477e-07
8.27419e-07
8.15833e-07
8.02899e-07
7.91065e-07
7.82299e-07
7.77163e-07
1.09928e-06
1.10002e-06
1.09788e-06
1.09541e-06
1.09496e-06
1.0959e-06
1.0971e-06
1.09776e-06
1.09763e-06
1.09677e-06
1.09534e-06
1.09355e-06
1.09159e-06
1.08965e-06
1.08785e-06
1.08621e-06
1.08471e-06
1.08324e-06
1.08172e-06
1.08012e-06
1.07841e-06
1.07657e-06
1.07461e-06
1.07251e-06
1.07032e-06
1.06801e-06
1.06564e-06
1.06315e-06
1.06054e-06
1.05781e-06
1.05496e-06
1.05198e-06
1.04889e-06
1.04567e-06
1.04232e-06
1.03884e-06
1.03523e-06
1.03152e-06
1.02768e-06
1.02373e-06
1.01964e-06
1.01544e-06
1.01109e-06
1.0066e-06
1.00196e-06
9.97166e-07
9.9222e-07
9.87123e-07
9.8187e-07
9.76473e-07
9.70919e-07
9.65212e-07
9.59341e-07
9.53314e-07
9.47124e-07
9.40764e-07
9.34232e-07
9.27526e-07
9.20645e-07
9.1359e-07
9.06365e-07
8.9898e-07
8.91433e-07
8.83709e-07
8.75797e-07
8.67722e-07
8.5954e-07
8.5129e-07
8.42912e-07
8.34254e-07
8.25183e-07
8.15777e-07
8.06385e-07
7.9743e-07
7.89092e-07
7.80767e-07
7.71389e-07
7.60102e-07
7.4632e-07
7.31109e-07
7.16618e-07
7.04624e-07
6.96153e-07
1.04467e-06
1.04601e-06
1.04407e-06
1.04119e-06
1.04011e-06
1.04064e-06
1.04173e-06
1.04248e-06
1.04247e-06
1.04166e-06
1.04017e-06
1.03821e-06
1.036e-06
1.03377e-06
1.03167e-06
1.02974e-06
1.02797e-06
1.02626e-06
1.02451e-06
1.02268e-06
1.02071e-06
1.0186e-06
1.01635e-06
1.01395e-06
1.01143e-06
1.00877e-06
1.00602e-06
1.00315e-06
1.00014e-06
9.96994e-07
9.93696e-07
9.90253e-07
9.86664e-07
9.82929e-07
9.79038e-07
9.74993e-07
9.70794e-07
9.66465e-07
9.61986e-07
9.57374e-07
9.52603e-07
9.47689e-07
9.42615e-07
9.37374e-07
9.31959e-07
9.26366e-07
9.20594e-07
9.14644e-07
9.08512e-07
9.02203e-07
8.95713e-07
8.89039e-07
8.82173e-07
8.75119e-07
8.67873e-07
8.60428e-07
8.52781e-07
8.44929e-07
8.36873e-07
8.28614e-07
8.20157e-07
8.11513e-07
8.02682e-07
7.93656e-07
7.84426e-07
7.75019e-07
7.65494e-07
7.55897e-07
7.46183e-07
7.36219e-07
7.25881e-07
7.15237e-07
7.04585e-07
6.94285e-07
6.845e-07
6.74691e-07
6.63955e-07
6.51626e-07
6.37229e-07
6.21648e-07
6.06538e-07
5.93261e-07
5.82852e-07
9.46343e-07
9.48053e-07
9.46369e-07
9.432e-07
9.41385e-07
9.41255e-07
9.41969e-07
9.42586e-07
9.4259e-07
9.41803e-07
9.40288e-07
9.38208e-07
9.35804e-07
9.3332e-07
9.3094e-07
9.28735e-07
9.26709e-07
9.24761e-07
9.22795e-07
9.20745e-07
9.1857e-07
9.16243e-07
9.13764e-07
9.1112e-07
9.0834e-07
9.05414e-07
9.02377e-07
8.99208e-07
8.95895e-07
8.92432e-07
8.88808e-07
8.85021e-07
8.81072e-07
8.76963e-07
8.72682e-07
8.68234e-07
8.63619e-07
8.58858e-07
8.53941e-07
8.48877e-07
8.4365e-07
8.38267e-07
8.3272e-07
8.27e-07
8.21104e-07
8.15028e-07
8.0877e-07
8.02333e-07
7.95712e-07
7.88912e-07
7.81929e-07
7.7476e-07
7.67395e-07
7.59835e-07
7.52074e-07
7.44106e-07
7.35929e-07
7.27538e-07
7.18935e-07
7.10121e-07
7.01101e-07
6.91886e-07
6.82479e-07
6.72874e-07
6.63071e-07
6.53097e-07
6.43014e-07
6.32877e-07
6.22664e-07
6.12286e-07
6.01656e-07
5.90866e-07
5.80157e-07
5.69774e-07
5.59809e-07
5.49814e-07
5.39092e-07
5.27226e-07
5.13944e-07
4.99914e-07
4.86226e-07
4.73736e-07
4.6313e-07
8.25619e-07
8.27279e-07
8.25718e-07
8.22312e-07
8.19782e-07
8.18864e-07
8.18987e-07
8.19282e-07
8.19167e-07
8.18363e-07
8.16844e-07
8.1472e-07
8.12208e-07
8.09548e-07
8.06947e-07
8.04502e-07
8.0223e-07
8.0005e-07
7.97876e-07
7.95633e-07
7.93274e-07
7.9077e-07
7.88109e-07
7.8528e-07
7.82309e-07
7.7919e-07
7.75948e-07
7.72571e-07
7.69052e-07
7.65382e-07
7.61553e-07
7.57558e-07
7.53398e-07
7.49074e-07
7.44578e-07
7.39915e-07
7.35088e-07
7.30112e-07
7.24987e-07
7.19714e-07
7.14286e-07
7.08705e-07
7.02971e-07
6.97075e-07
6.91023e-07
6.8481e-07
6.7844e-07
6.71922e-07
6.65255e-07
6.58445e-07
6.51498e-07
6.4441e-07
6.37171e-07
6.2977e-07
6.22195e-07
6.14434e-07
6.06482e-07
5.98333e-07
5.89987e-07
5.81444e-07
5.72707e-07
5.63781e-07
5.5467e-07
5.45367e-07
5.3587e-07
5.262e-07
5.16412e-07
5.0656e-07
4.96648e-07
4.86633e-07
4.76483e-07
4.66384e-07
4.56611e-07
4.47319e-07
4.38464e-07
4.29656e-07
4.20399e-07
4.1046e-07
3.99756e-07
3.8875e-07
3.78017e-07
3.67936e-07
3.58532e-07
7.04926e-07
7.0632e-07
7.04652e-07
7.01138e-07
6.98172e-07
6.96641e-07
6.96204e-07
6.96121e-07
6.95835e-07
6.95002e-07
6.93528e-07
6.91444e-07
6.8892e-07
6.86163e-07
6.83385e-07
6.80703e-07
6.78158e-07
6.75695e-07
6.73251e-07
6.70756e-07
6.68156e-07
6.65429e-07
6.62551e-07
6.59512e-07
6.56339e-07
6.53029e-07
6.49596e-07
6.46037e-07
6.42351e-07
6.38533e-07
6.34575e-07
6.30468e-07
6.2621e-07
6.21803e-07
6.17242e-07
6.12532e-07
6.07674e-07
6.02679e-07
5.97552e-07
5.92282e-07
5.86873e-07
5.81314e-07
5.75616e-07
5.69767e-07
5.6378e-07
5.57654e-07
5.51402e-07
5.45046e-07
5.38593e-07
5.32065e-07
5.25491e-07
5.18891e-07
5.12276e-07
5.05643e-07
4.98947e-07
4.92128e-07
4.85168e-07
4.78058e-07
4.70791e-07
4.63365e-07
4.55777e-07
4.48026e-07
4.40109e-07
4.32015e-07
4.2373e-07
4.15249e-07
4.06598e-07
3.97802e-07
3.88845e-07
3.7969e-07
3.70273e-07
3.60921e-07
3.52131e-07
3.44252e-07
3.3714e-07
3.30514e-07
3.23943e-07
3.17148e-07
3.10023e-07
3.02915e-07
2.9602e-07
2.89374e-07
2.8177e-07
2.75816e-07
6.06596e-07
6.05152e-07
6.02471e-07
5.99985e-07
5.98459e-07
5.97751e-07
5.97359e-07
5.96863e-07
5.95926e-07
5.94398e-07
5.92255e-07
5.89593e-07
5.8658e-07
5.83424e-07
5.80256e-07
5.77155e-07
5.74103e-07
5.71073e-07
5.6802e-07
5.64879e-07
5.61655e-07
5.58305e-07
5.54822e-07
5.5124e-07
5.47562e-07
5.43789e-07
5.39925e-07
5.35979e-07
5.31951e-07
5.27835e-07
5.23622e-07
5.19305e-07
5.14882e-07
5.10352e-07
5.05722e-07
5.0098e-07
4.96133e-07
4.91185e-07
4.86107e-07
4.8091e-07
4.75559e-07
4.70071e-07
4.6442e-07
4.58613e-07
4.52647e-07
4.46529e-07
4.40287e-07
4.33942e-07
4.27528e-07
4.21115e-07
4.1477e-07
4.08577e-07
4.02641e-07
3.97047e-07
3.91679e-07
3.86297e-07
3.80861e-07
3.75357e-07
3.69765e-07
3.64072e-07
3.58277e-07
3.52372e-07
3.46343e-07
3.4017e-07
3.33822e-07
3.27279e-07
3.20501e-07
3.13369e-07
3.05697e-07
2.97045e-07
2.8768e-07
2.78307e-07
2.70313e-07
2.63872e-07
2.59834e-07
2.57162e-07
2.54885e-07
2.51997e-07
2.49469e-07
2.47163e-07
2.44997e-07
2.42456e-07
2.40278e-07
2.38613e-07
2.38629e-07
5.4988e-07
5.5154e-07
5.52814e-07
5.52594e-07
5.51808e-07
5.50905e-07
5.49898e-07
5.48673e-07
5.46995e-07
5.44589e-07
5.41503e-07
5.37741e-07
5.3349e-07
5.28965e-07
5.24322e-07
5.19699e-07
5.1512e-07
5.10607e-07
5.06156e-07
5.0168e-07
4.9723e-07
4.92735e-07
4.8819e-07
4.83644e-07
4.79103e-07
4.74549e-07
4.69995e-07
4.65459e-07
4.60949e-07
4.56465e-07
4.51996e-07
4.47527e-07
4.4305e-07
4.38571e-07
4.341e-07
4.296e-07
4.2507e-07
4.20522e-07
4.15886e-07
4.11193e-07
4.0636e-07
4.0141e-07
3.96279e-07
3.90936e-07
3.85349e-07
3.79456e-07
3.73186e-07
3.66613e-07
3.59725e-07
3.52544e-07
3.45106e-07
3.3754e-07
3.30288e-07
3.24662e-07
3.20915e-07
3.17436e-07
3.14066e-07
3.10829e-07
3.07645e-07
3.04496e-07
3.01363e-07
2.98254e-07
2.95174e-07
2.92134e-07
2.89147e-07
2.86243e-07
2.83412e-07
2.80633e-07
2.77872e-07
2.74996e-07
2.7216e-07
2.69559e-07
2.6744e-07
2.65753e-07
2.64618e-07
2.64102e-07
2.64164e-07
2.64839e-07
2.66e-07
2.67343e-07
2.68631e-07
2.69535e-07
2.70508e-07
2.73234e-07
2.80029e-07
6.68809e-07
6.58618e-07
6.47803e-07
6.36693e-07
6.2663e-07
6.17649e-07
6.09477e-07
6.01756e-07
5.94055e-07
5.85926e-07
5.77458e-07
5.68544e-07
5.59378e-07
5.50153e-07
5.40995e-07
5.32097e-07
5.23495e-07
5.15232e-07
5.07328e-07
4.99637e-07
4.92256e-07
4.85059e-07
4.78034e-07
4.71239e-07
4.64678e-07
4.58297e-07
4.52118e-07
4.46167e-07
4.40459e-07
4.34998e-07
4.29777e-07
4.24767e-07
4.19954e-07
4.15359e-07
4.11007e-07
4.06821e-07
4.02797e-07
3.98986e-07
3.95243e-07
3.91692e-07
3.88163e-07
3.84782e-07
3.81406e-07
3.78077e-07
3.74788e-07
3.71391e-07
3.6794e-07
3.64349e-07
3.60682e-07
3.57029e-07
3.53487e-07
3.5017e-07
3.47218e-07
3.44693e-07
3.425e-07
3.40429e-07
3.38451e-07
3.3657e-07
3.34784e-07
3.33104e-07
3.31546e-07
3.30139e-07
3.28907e-07
3.27891e-07
3.27209e-07
3.27013e-07
3.27409e-07
3.28537e-07
3.30586e-07
3.33703e-07
3.37132e-07
3.39953e-07
3.41964e-07
3.43241e-07
3.44394e-07
3.45863e-07
3.47991e-07
3.5108e-07
3.54767e-07
3.58489e-07
3.61881e-07
3.64588e-07
3.67022e-07
3.7136e-07
3.79858e-07
1.07487e-06
1.04875e-06
1.02095e-06
9.92195e-07
9.65308e-07
9.40278e-07
9.16827e-07
8.94554e-07
8.72944e-07
8.50102e-07
8.28777e-07
8.07822e-07
7.87608e-07
7.67975e-07
7.48978e-07
7.30803e-07
7.13539e-07
6.97143e-07
6.8168e-07
6.66874e-07
6.52855e-07
6.39414e-07
6.26509e-07
6.14195e-07
6.02463e-07
5.91215e-07
5.80478e-07
5.70287e-07
5.60664e-07
5.51616e-07
5.43145e-07
5.3521e-07
5.27794e-07
5.2094e-07
5.14695e-07
5.08935e-07
5.03671e-07
4.99005e-07
4.94699e-07
4.91041e-07
4.87693e-07
4.85051e-07
4.82782e-07
4.81085e-07
4.80246e-07
4.798e-07
4.79965e-07
4.79406e-07
4.7843e-07
4.77113e-07
4.75568e-07
4.73905e-07
4.72212e-07
4.70534e-07
4.68886e-07
4.67273e-07
4.65726e-07
4.64269e-07
4.62928e-07
4.61725e-07
4.60686e-07
4.59847e-07
4.59254e-07
4.58955e-07
4.58955e-07
4.59251e-07
4.59821e-07
4.60683e-07
4.61855e-07
4.63233e-07
4.64619e-07
4.65797e-07
4.66655e-07
4.67199e-07
4.67828e-07
4.68958e-07
4.70964e-07
4.74117e-07
4.77929e-07
4.81728e-07
4.85087e-07
4.87614e-07
4.89726e-07
4.93791e-07
5.02149e-07
1.8103e-06
1.76522e-06
1.71786e-06
1.66861e-06
1.62307e-06
1.58035e-06
1.54031e-06
1.50246e-06
1.46601e-06
1.42995e-06
1.39428e-06
1.3586e-06
1.32309e-06
1.28794e-06
1.25339e-06
1.21983e-06
1.18744e-06
1.15637e-06
1.12672e-06
1.09826e-06
1.07111e-06
1.04504e-06
1.01999e-06
9.95992e-07
9.7302e-07
9.50977e-07
9.29882e-07
9.09779e-07
8.90697e-07
8.72652e-07
8.55659e-07
8.39685e-07
8.24716e-07
8.10789e-07
7.97943e-07
7.86064e-07
7.7512e-07
7.65167e-07
7.55988e-07
7.47699e-07
7.40033e-07
7.33106e-07
7.26678e-07
7.20752e-07
7.15281e-07
7.09996e-07
7.04908e-07
6.9981e-07
6.94738e-07
6.8972e-07
6.84789e-07
6.79972e-07
6.75291e-07
6.7076e-07
6.66393e-07
6.622e-07
6.58198e-07
6.544e-07
6.50817e-07
6.47456e-07
6.44324e-07
6.41435e-07
6.388e-07
6.36421e-07
6.34268e-07
6.32296e-07
6.30464e-07
6.28745e-07
6.27146e-07
6.25739e-07
6.24465e-07
6.23195e-07
6.21834e-07
6.20364e-07
6.19125e-07
6.18517e-07
6.18896e-07
6.20504e-07
6.22802e-07
6.25097e-07
6.26965e-07
6.28038e-07
6.28752e-07
6.31497e-07
6.38615e-07
6.52363e-07
6.75772e-07
7.09858e-07
2.9249e-06
2.853e-06
2.77865e-06
2.70084e-06
2.62926e-06
2.55975e-06
2.49308e-06
2.42921e-06
2.36744e-06
2.30691e-06
2.24704e-06
2.18744e-06
2.12811e-06
2.06927e-06
2.01126e-06
1.95454e-06
1.89946e-06
1.84631e-06
1.79521e-06
1.74606e-06
1.69888e-06
1.65347e-06
1.60973e-06
1.56762e-06
1.52708e-06
1.48803e-06
1.45045e-06
1.41438e-06
1.37982e-06
1.34682e-06
1.31537e-06
1.28548e-06
1.25716e-06
1.23042e-06
1.2053e-06
1.18173e-06
1.15968e-06
1.13915e-06
1.11999e-06
1.10217e-06
1.08553e-06
1.06998e-06
1.05537e-06
1.04157e-06
1.02846e-06
1.01589e-06
1.00379e-06
9.9206e-07
9.80673e-07
9.69602e-07
9.58832e-07
9.48353e-07
9.38162e-07
9.2826e-07
9.18651e-07
9.09341e-07
9.0034e-07
8.91652e-07
8.8328e-07
8.75223e-07
8.67475e-07
8.60037e-07
8.52909e-07
8.46081e-07
8.39522e-07
8.33189e-07
8.27056e-07
8.21144e-07
8.15464e-07
8.10056e-07
8.04969e-07
8.00072e-07
7.95267e-07
7.90529e-07
7.86167e-07
7.82553e-07
7.80014e-07
7.78766e-07
7.78298e-07
7.77963e-07
7.7738e-07
7.76241e-07
7.74974e-07
7.75834e-07
7.81038e-07
7.92732e-07
8.13596e-07
8.44472e-07
4.13081e-06
4.02792e-06
3.92352e-06
3.82075e-06
3.72049e-06
3.62253e-06
3.52623e-06
3.431e-06
3.33644e-06
3.2425e-06
3.14942e-06
3.0576e-06
2.96756e-06
2.87981e-06
2.79473e-06
2.71256e-06
2.63333e-06
2.557e-06
2.48342e-06
2.41241e-06
2.34388e-06
2.2777e-06
2.21376e-06
2.15201e-06
2.09243e-06
2.03501e-06
1.97974e-06
1.92664e-06
1.87571e-06
1.82697e-06
1.78044e-06
1.73618e-06
1.69418e-06
1.65443e-06
1.61693e-06
1.58163e-06
1.54845e-06
1.51729e-06
1.48802e-06
1.46046e-06
1.43446e-06
1.40982e-06
1.38636e-06
1.36391e-06
1.34234e-06
1.32152e-06
1.30136e-06
1.2818e-06
1.26277e-06
1.24424e-06
1.22619e-06
1.20861e-06
1.1915e-06
1.17487e-06
1.15873e-06
1.14307e-06
1.1279e-06
1.11321e-06
1.09901e-06
1.0853e-06
1.07208e-06
1.05932e-06
1.04699e-06
1.03508e-06
1.02362e-06
1.01268e-06
1.0022e-06
9.9226e-07
9.82727e-07
9.73518e-07
9.64607e-07
9.56267e-07
9.48827e-07
9.42572e-07
9.377e-07
9.33774e-07
9.30244e-07
9.26794e-07
9.23183e-07
9.19804e-07
9.18659e-07
9.21755e-07
9.3107e-07
9.48966e-07
9.762e-07
5.94083e-06
5.80145e-06
5.65767e-06
5.51273e-06
5.36853e-06
5.22568e-06
5.08409e-06
4.94347e-06
4.8036e-06
4.66455e-06
4.52663e-06
4.39036e-06
4.25637e-06
4.12531e-06
3.99773e-06
3.87401e-06
3.7543e-06
3.63865e-06
3.52697e-06
3.41908e-06
3.31481e-06
3.214e-06
3.1165e-06
3.02217e-06
2.93095e-06
2.84276e-06
2.75754e-06
2.67527e-06
2.59591e-06
2.51947e-06
2.44597e-06
2.37545e-06
2.30793e-06
2.24348e-06
2.18213e-06
2.12391e-06
2.06882e-06
2.01682e-06
1.96782e-06
1.92168e-06
1.87822e-06
1.83721e-06
1.7984e-06
1.76155e-06
1.72639e-06
1.69272e-06
1.66031e-06
1.62902e-06
1.5987e-06
1.56926e-06
1.54063e-06
1.51277e-06
1.48565e-06
1.45929e-06
1.43368e-06
1.40883e-06
1.38476e-06
1.36147e-06
1.33896e-06
1.31725e-06
1.29635e-06
1.27624e-06
1.25688e-06
1.23828e-06
1.22045e-06
1.20348e-06
1.18738e-06
1.17201e-06
1.15735e-06
1.14333e-06
1.12992e-06
1.11735e-06
1.10587e-06
1.09573e-06
1.0871e-06
1.07965e-06
1.07295e-06
1.06676e-06
1.06091e-06
1.05573e-06
1.0529e-06
1.0542e-06
1.06142e-06
1.07666e-06
1.10066e-06
1.11398e-06
1.08315e-06
9.60715e-07
7.56663e-07
6.73921e-07
8.0105e-06
7.83951e-06
7.65973e-06
7.47384e-06
7.28468e-06
7.09404e-06
6.90275e-06
6.71118e-06
6.51954e-06
6.32823e-06
6.13781e-06
5.94901e-06
5.76263e-06
5.57951e-06
5.40044e-06
5.22604e-06
5.05668e-06
4.89255e-06
4.73365e-06
4.57992e-06
4.43124e-06
4.28742e-06
4.14829e-06
4.01367e-06
3.88343e-06
3.75742e-06
3.63552e-06
3.51762e-06
3.40364e-06
3.29351e-06
3.18718e-06
3.08463e-06
2.98588e-06
2.89098e-06
2.8e-06
2.71304e-06
2.63019e-06
2.55152e-06
2.47706e-06
2.40677e-06
2.34054e-06
2.2782e-06
2.2195e-06
2.16411e-06
2.11172e-06
2.06198e-06
2.01456e-06
1.96915e-06
1.9255e-06
1.88338e-06
1.84264e-06
1.80316e-06
1.76487e-06
1.72773e-06
1.69173e-06
1.65688e-06
1.62318e-06
1.59065e-06
1.55931e-06
1.52916e-06
1.50023e-06
1.47249e-06
1.44593e-06
1.42052e-06
1.39629e-06
1.3733e-06
1.35158e-06
1.33098e-06
1.31144e-06
1.2929e-06
1.27534e-06
1.25892e-06
1.24384e-06
1.23028e-06
1.21838e-06
1.20794e-06
1.19866e-06
1.19037e-06
1.18296e-06
1.17671e-06
1.17297e-06
1.17326e-06
1.17923e-06
1.1928e-06
1.21473e-06
1.22811e-06
1.20377e-06
1.09691e-06
8.93208e-07
7.4247e-07
1.01107e-05
9.92522e-06
9.72387e-06
9.50873e-06
9.28359e-06
9.05159e-06
8.81492e-06
8.57494e-06
8.3326e-06
8.08883e-06
7.84465e-06
7.60116e-06
7.35946e-06
7.12068e-06
6.88589e-06
6.65603e-06
6.43181e-06
6.21371e-06
6.00199e-06
5.79673e-06
5.5979e-06
5.40546e-06
5.2193e-06
5.03926e-06
4.86514e-06
4.69679e-06
4.53403e-06
4.37668e-06
4.22458e-06
4.07758e-06
3.93552e-06
3.79828e-06
3.66576e-06
3.53793e-06
3.41479e-06
3.29641e-06
3.18291e-06
3.07444e-06
2.97116e-06
2.87319e-06
2.78059e-06
2.69333e-06
2.61129e-06
2.53422e-06
2.4618e-06
2.39363e-06
2.32928e-06
2.26831e-06
2.21031e-06
2.15489e-06
2.10175e-06
2.05064e-06
2.00136e-06
1.95381e-06
1.90791e-06
1.86363e-06
1.82095e-06
1.77988e-06
1.74042e-06
1.70261e-06
1.66644e-06
1.6319e-06
1.59897e-06
1.56762e-06
1.53788e-06
1.50978e-06
1.48333e-06
1.45843e-06
1.43496e-06
1.41288e-06
1.39217e-06
1.37292e-06
1.35525e-06
1.3393e-06
1.32519e-06
1.31282e-06
1.30203e-06
1.29273e-06
1.28485e-06
1.27861e-06
1.27508e-06
1.27558e-06
1.28163e-06
1.29506e-06
1.31661e-06
1.33143e-06
1.3152e-06
1.22739e-06
1.03732e-06
8.42346e-07
1.19134e-05
1.17429e-05
1.15468e-05
1.13263e-05
1.1086e-05
1.08307e-05
1.05643e-05
1.02895e-05
1.00081e-05
9.72186e-06
9.43236e-06
9.14125e-06
8.85012e-06
8.56049e-06
8.27381e-06
7.99142e-06
7.71445e-06
7.44377e-06
7.18003e-06
6.92364e-06
6.67487e-06
6.4338e-06
6.20042e-06
5.97474e-06
5.75665e-06
5.546e-06
5.34259e-06
5.14625e-06
4.95677e-06
4.77392e-06
4.59748e-06
4.42723e-06
4.26291e-06
4.10433e-06
3.95133e-06
3.80382e-06
3.6618e-06
3.52534e-06
3.39462e-06
3.26986e-06
3.15128e-06
3.03905e-06
2.93327e-06
2.83391e-06
2.74079e-06
2.65363e-06
2.572e-06
2.49543e-06
2.42338e-06
2.35535e-06
2.29083e-06
2.22941e-06
2.17075e-06
2.11457e-06
2.06069e-06
2.00898e-06
1.95938e-06
1.91183e-06
1.86632e-06
1.82285e-06
1.78142e-06
1.74201e-06
1.7046e-06
1.66917e-06
1.63572e-06
1.60425e-06
1.57477e-06
1.54722e-06
1.52144e-06
1.4974e-06
1.47508e-06
1.45451e-06
1.43576e-06
1.41891e-06
1.40408e-06
1.39127e-06
1.38042e-06
1.37151e-06
1.36453e-06
1.35966e-06
1.35775e-06
1.35996e-06
1.36776e-06
1.3829e-06
1.40608e-06
1.42382e-06
1.41706e-06
1.35017e-06
1.18306e-06
9.66093e-07
1.30386e-05
1.29202e-05
1.27656e-05
1.25739e-05
1.235e-05
1.21005e-05
1.18313e-05
1.15468e-05
1.12501e-05
1.09434e-05
1.06288e-05
1.03086e-05
9.98512e-06
9.66032e-06
9.33618e-06
9.01452e-06
8.69696e-06
8.38487e-06
8.07934e-06
7.78123e-06
7.49116e-06
7.20955e-06
6.9367e-06
6.67273e-06
6.41765e-06
6.17146e-06
5.93404e-06
5.70525e-06
5.4849e-06
5.27276e-06
5.06858e-06
4.87209e-06
4.68298e-06
4.50091e-06
4.32555e-06
4.1566e-06
3.99381e-06
3.83705e-06
3.68628e-06
3.54162e-06
3.40327e-06
3.2715e-06
3.14661e-06
3.02879e-06
2.91814e-06
2.81462e-06
2.71801e-06
2.62795e-06
2.54396e-06
2.46549e-06
2.39194e-06
2.32276e-06
2.25744e-06
2.19554e-06
2.13671e-06
2.0807e-06
2.02731e-06
1.97642e-06
1.92795e-06
1.88184e-06
1.83808e-06
1.79662e-06
1.75744e-06
1.72052e-06
1.68584e-06
1.65339e-06
1.62315e-06
1.59509e-06
1.56907e-06
1.54507e-06
1.52305e-06
1.503e-06
1.48496e-06
1.46898e-06
1.45517e-06
1.44362e-06
1.43437e-06
1.42744e-06
1.42287e-06
1.42082e-06
1.42203e-06
1.4276e-06
1.43895e-06
1.45778e-06
1.48458e-06