/*--------------------------------*- C++ -*----------------------------------*\
| =========                 |                                                 |
| \\      /  F ield         | OpenFOAM: The Open Source CFD Toolbox           |
|  \\    /   O peration     | Version:  2412                                  |
|   \\  /    A nd           | Website:  www.openfoam.com                      |
|    \\/     M anipulation  |                                                 |
\*---------------------------------------------------------------------------*/
FoamFile
{
    version     2.0;
    format      ascii;
    arch        "LSB;label=32;scalar=64";
    class       surfaceScalarField;
    location    "140";
    object      phi;
}
// * * * * * * * * * * * * * * * * * * * * * * * * * * * * * * * * * * * * * //

dimensions      [0 3 -1 0 0 0 0];

oriented        oriented;

internalField   nonuniform List<scalar> 
17210
(
4.60553e-06
2.22696e-09
4.60424e-06
1.23728e-09
4.60378e-06
5.21301e-10
4.60315e-06
7.36237e-10
4.60187e-06
1.25614e-09
4.6007e-06
1.19451e-09
4.59949e-06
1.22629e-09
4.59809e-06
1.42371e-09
4.5969e-06
1.21865e-09
4.59587e-06
1.05829e-09
4.59488e-06
1.01055e-09
4.59381e-06
1.08523e-09
4.59281e-06
1.02237e-09
4.59192e-06
9.07983e-10
4.59096e-06
1.00878e-09
4.59025e-06
7.48814e-10
4.58917e-06
1.10806e-09
4.58855e-06
6.77007e-10
4.58782e-06
7.57495e-10
4.58696e-06
9.27591e-10
4.58618e-06
8.02295e-10
4.58551e-06
7.36195e-10
4.58467e-06
8.55464e-10
4.58406e-06
6.93253e-10
4.5835e-06
5.64094e-10
4.58289e-06
6.95075e-10
4.58227e-06
6.02134e-10
4.58187e-06
4.28454e-10
4.58136e-06
5.39868e-10
4.58089e-06
4.89502e-10
4.58061e-06
3.03742e-10
4.58033e-06
2.94165e-10
4.57994e-06
4.07767e-10
4.57988e-06
7.5061e-11
4.57956e-06
3.40968e-10
4.57924e-06
3.18311e-10
4.57922e-06
7.54613e-11
4.5791e-06
1.00354e-10
4.57915e-06
-1.28834e-11
4.57926e-06
-1.31022e-10
4.57936e-06
-7.30068e-11
4.57956e-06
-2.20263e-10
4.57969e-06
-1.28073e-10
4.58001e-06
-3.15541e-10
4.58059e-06
-5.7084e-10
4.58115e-06
-5.47908e-10
4.58186e-06
-7.01356e-10
4.58247e-06
-6.1263e-10
4.58333e-06
-8.25491e-10
4.58398e-06
-6.73314e-10
4.58498e-06
-9.76068e-10
4.58612e-06
-1.15394e-09
4.58739e-06
-1.24886e-09
4.5888e-06
-1.42765e-09
4.59041e-06
-1.60792e-09
4.59231e-06
-1.90213e-09
4.59416e-06
-1.8428e-09
4.59631e-06
-2.14013e-09
4.59867e-06
-2.36056e-09
4.60159e-06
-2.92258e-09
4.6044e-06
-2.78752e-09
4.60764e-06
-3.25606e-09
4.61132e-06
-3.67145e-09
4.6157e-06
-4.38605e-09
4.62056e-06
-4.86402e-09
4.62564e-06
-5.07403e-09
4.63125e-06
-5.61208e-09
4.63683e-06
-5.57756e-09
4.64365e-06
-6.81329e-09
4.65309e-06
-9.45244e-09
4.66587e-06
-1.27677e-08
4.67949e-06
-1.36298e-08
4.69105e-06
-1.1547e-08
4.6982e-06
-7.15457e-09
4.70377e-06
-5.57069e-09
4.71741e-06
-1.36356e-08
4.7478e-06
-3.03961e-08
4.80218e-06
-5.43835e-08
4.87848e-06
-7.62916e-08
4.95209e-06
-7.36181e-08
5.00236e-06
-5.02633e-08
-2.2018e-08
1.60965e-05
9.54987e-09
1.60911e-05
6.51482e-09
1.60898e-05
1.98535e-09
1.60879e-05
2.75222e-09
1.60843e-05
4.87651e-09
1.60795e-05
5.96869e-09
1.60752e-05
5.58594e-09
1.60711e-05
5.55688e-09
1.60669e-05
5.48747e-09
1.6063e-05
4.93382e-09
1.60591e-05
4.96191e-09
1.60556e-05
4.57139e-09
1.60521e-05
4.55809e-09
1.60488e-05
4.29028e-09
1.60457e-05
4.15264e-09
1.6043e-05
3.51077e-09
1.604e-05
4.1161e-09
1.60371e-05
3.69248e-09
1.60339e-05
3.99886e-09
1.60318e-05
3.12174e-09
1.60291e-05
3.52301e-09
1.60265e-05
3.43475e-09
1.60243e-05
3.08564e-09
1.60218e-05
3.36734e-09
1.60201e-05
2.21538e-09
1.60177e-05
3.17766e-09
1.6016e-05
2.373e-09
1.60142e-05
2.24216e-09
1.60123e-05
2.44486e-09
1.6011e-05
1.80892e-09
1.60093e-05
2.04823e-09
1.60084e-05
1.22236e-09
1.60071e-05
1.75697e-09
1.60058e-05
1.35587e-09
1.60054e-05
7.96225e-10
1.60049e-05
8.04952e-10
1.60041e-05
9.6886e-10
1.60043e-05
-7.73517e-11
1.60041e-05
2.19014e-10
1.60048e-05
-8.28378e-10
1.60049e-05
-1.82471e-10
1.60056e-05
-9.66254e-10
1.60061e-05
-6.09727e-10
1.60079e-05
-2.14653e-09
1.60092e-05
-1.81041e-09
1.60111e-05
-2.43146e-09
1.6013e-05
-2.58733e-09
1.60155e-05
-3.12345e-09
1.60184e-05
-3.6324e-09
1.60221e-05
-4.46166e-09
1.60257e-05
-4.56386e-09
1.60295e-05
-4.94572e-09
1.60341e-05
-5.8436e-09
1.60394e-05
-6.71103e-09
1.60452e-05
-7.421e-09
1.60511e-05
-7.81069e-09
1.60583e-05
-8.96573e-09
1.60665e-05
-1.04146e-08
1.60754e-05
-1.12046e-08
1.60851e-05
-1.26479e-08
1.60961e-05
-1.37176e-08
1.61076e-05
-1.48522e-08
1.6121e-05
-1.70173e-08
1.61364e-05
-1.98116e-08
1.61535e-05
-2.19564e-08
1.61726e-05
-2.41544e-08
1.61918e-05
-2.47825e-08
1.62119e-05
-2.57707e-08
1.62365e-05
-3.13292e-08
1.62695e-05
-4.25228e-08
1.63128e-05
-5.6068e-08
1.63594e-05
-6.02004e-08
1.64003e-05
-5.24121e-08
1.64278e-05
-3.46681e-08
1.64488e-05
-2.66171e-08
1.64948e-05
-5.95993e-08
1.6595e-05
-1.30595e-07
1.67735e-05
-2.32851e-07
1.70249e-05
-3.27728e-07
1.72718e-05
-3.20526e-07
1.74465e-05
-2.24991e-07
-1.04956e-07
3.16101e-05
2.47966e-08
3.16006e-05
1.59746e-08
3.15977e-05
4.96522e-09
3.1594e-05
6.55574e-09
3.15866e-05
1.23159e-08
3.1578e-05
1.45537e-08
3.15698e-05
1.38443e-08
3.15617e-05
1.37102e-08
3.1554e-05
1.32415e-08
3.15462e-05
1.27541e-08
3.15394e-05
1.17748e-08
3.15323e-05
1.16897e-08
3.15257e-05
1.11637e-08
3.15195e-05
1.05772e-08
3.15126e-05
1.11358e-08
3.15068e-05
9.32158e-09
3.15014e-05
9.55911e-09
3.14951e-05
1.00912e-08
3.14904e-05
8.75902e-09
3.14851e-05
8.56515e-09
3.14798e-05
8.83556e-09
3.14748e-05
8.51321e-09
3.14701e-05
7.83266e-09
3.1466e-05
7.59157e-09
3.14612e-05
7.04434e-09
3.14576e-05
6.86733e-09
3.14533e-05
6.63018e-09
3.14493e-05
6.2736e-09
3.14462e-05
5.61842e-09
3.14435e-05
4.50367e-09
3.14401e-05
5.57741e-09
3.14376e-05
3.69187e-09
3.14357e-05
3.66204e-09
3.14341e-05
2.9928e-09
3.14318e-05
3.10589e-09
3.14311e-05
1.60357e-09
3.14297e-05
2.34913e-09
3.14286e-05
1.04122e-09
3.14292e-05
-3.28154e-10
3.14294e-05
-1.08994e-09
3.14304e-05
-1.06973e-09
3.1431e-05
-1.61737e-09
3.14331e-05
-2.68868e-09
3.14352e-05
-4.26342e-09
3.14383e-05
-4.85761e-09
3.14424e-05
-6.5837e-09
3.14466e-05
-6.72556e-09
3.14514e-05
-7.9517e-09
3.14567e-05
-8.85847e-09
3.14628e-05
-1.05782e-08
3.14701e-05
-1.18262e-08
3.14784e-05
-1.32986e-08
3.14873e-05
-1.4746e-08
3.14982e-05
-1.76428e-08
3.15095e-05
-1.87344e-08
3.15225e-05
-2.07964e-08
3.15366e-05
-2.30097e-08
3.15522e-05
-2.606e-08
3.15705e-05
-2.94256e-08
3.15899e-05
-3.21328e-08
3.16114e-05
-3.51646e-08
3.16346e-05
-3.80686e-08
3.16611e-05
-4.35166e-08
3.16914e-05
-5.01392e-08
3.17263e-05
-5.68474e-08
3.17636e-05
-6.14544e-08
3.18018e-05
-6.29886e-08
3.18435e-05
-6.74383e-08
3.18921e-05
-7.99096e-08
3.19567e-05
-1.07139e-07
3.204e-05
-1.39394e-07
3.21315e-05
-1.51636e-07
3.22131e-05
-1.34045e-07
3.227e-05
-9.15559e-08
3.23134e-05
-7.00418e-08
3.2403e-05
-1.49185e-07
3.25898e-05
-3.17384e-07
3.29207e-05
-5.63737e-07
3.33886e-05
-7.95688e-07
3.38589e-05
-7.9076e-07
3.42038e-05
-5.69912e-07
-2.827e-07
5.18466e-05
4.79383e-08
5.18302e-05
3.23153e-08
5.18246e-05
1.0679e-08
5.18195e-05
1.17779e-08
5.18088e-05
2.30644e-08
5.17958e-05
2.75583e-08
5.17817e-05
2.80098e-08
5.17691e-05
2.63376e-08
5.17567e-05
2.57435e-08
5.17449e-05
2.45624e-08
5.17331e-05
2.36289e-08
5.17219e-05
2.29403e-08
5.17106e-05
2.24988e-08
5.16994e-05
2.18205e-08
5.16907e-05
1.98976e-08
5.16804e-05
1.97127e-08
5.16705e-05
1.94444e-08
5.16622e-05
1.85448e-08
5.16531e-05
1.78751e-08
5.16446e-05
1.72395e-08
5.16357e-05
1.77564e-08
5.16276e-05
1.67307e-08
5.162e-05
1.5462e-08
5.1613e-05
1.46753e-08
5.16057e-05
1.44259e-08
5.15985e-05
1.41187e-08
5.1592e-05
1.31454e-08
5.15852e-05
1.32032e-08
5.15803e-05
1.05177e-08
5.15739e-05
1.09693e-08
5.15694e-05
1.01122e-08
5.15653e-05
7.82882e-09
5.15606e-05
8.36204e-09
5.15566e-05
7.08219e-09
5.15542e-05
5.50538e-09
5.15516e-05
4.16462e-09
5.15501e-05
3.98146e-09
5.15497e-05
1.40787e-09
5.15492e-05
2.54164e-10
5.15494e-05
-1.35312e-09
5.15503e-05
-1.94893e-09
5.15519e-05
-3.18914e-09
5.15549e-05
-5.69786e-09
5.15582e-05
-7.56101e-09
5.15639e-05
-1.05174e-08
5.15692e-05
-1.19121e-08
5.15756e-05
-1.30755e-08
5.15837e-05
-1.61247e-08
5.15933e-05
-1.84015e-08
5.16036e-05
-2.08808e-08
5.16162e-05
-2.44006e-08
5.16291e-05
-2.61755e-08
5.16454e-05
-3.1076e-08
5.16614e-05
-3.36585e-08
5.16805e-05
-3.78103e-08
5.17019e-05
-4.22188e-08
5.17259e-05
-4.70114e-08
5.17528e-05
-5.29222e-08
5.1782e-05
-5.86162e-08
5.18151e-05
-6.52241e-08
5.18509e-05
-7.09615e-08
5.18915e-05
-7.86641e-08
5.19355e-05
-8.74501e-08
5.19856e-05
-1.00308e-07
5.20421e-05
-1.13383e-07
5.21051e-05
-1.24445e-07
5.21705e-05
-1.28332e-07
5.22389e-05
-1.35852e-07
5.23196e-05
-1.60631e-07
5.24254e-05
-2.12909e-07
5.25601e-05
-2.74092e-07
5.271e-05
-3.01585e-07
5.28448e-05
-2.68844e-07
5.29435e-05
-1.90234e-07
5.30238e-05
-1.50277e-07
5.3166e-05
-2.91381e-07
5.34586e-05
-6.10083e-07
5.39712e-05
-1.07632e-06
5.46998e-05
-1.52428e-06
5.5446e-05
-1.53696e-06
5.60166e-05
-1.14045e-06
-6.00246e-07
7.74989e-05
8.23251e-08
7.74731e-05
5.81501e-08
7.74666e-05
1.73337e-08
7.74596e-05
1.89069e-08
7.74451e-05
3.75214e-08
7.74257e-05
4.70555e-08
7.74079e-05
4.58737e-08
7.73881e-05
4.60991e-08
7.73699e-05
4.40812e-08
7.73527e-05
4.17811e-08
7.73363e-05
4.00919e-08
7.73182e-05
4.10421e-08
7.73013e-05
3.94465e-08
7.72873e-05
3.58674e-08
7.72723e-05
3.49306e-08
7.72577e-05
3.4381e-08
7.7243e-05
3.42431e-08
7.72301e-05
3.15996e-08
7.72171e-05
3.08281e-08
7.72034e-05
3.1137e-08
7.71911e-05
3.00249e-08
7.71795e-05
2.84649e-08
7.71678e-05
2.7198e-08
7.71562e-05
2.64469e-08
7.71457e-05
2.49504e-08
7.71355e-05
2.43726e-08
7.71239e-05
2.47994e-08
7.71161e-05
2.10209e-08
7.71057e-05
2.09872e-08
7.70985e-05
1.81972e-08
7.70915e-05
1.71671e-08
7.70835e-05
1.59184e-08
7.70778e-05
1.40729e-08
7.70733e-05
1.15754e-08
7.70679e-05
1.09144e-08
7.70633e-05
8.85376e-09
7.70609e-05
6.43158e-09
7.70588e-05
3.44496e-09
7.7058e-05
1.18181e-09
7.70592e-05
-2.65136e-09
7.70595e-05
-2.21659e-09
7.70627e-05
-6.39968e-09
7.70654e-05
-8.40709e-09
7.70711e-05
-1.3261e-08
7.7077e-05
-1.63627e-08
7.70852e-05
-2.00642e-08
7.7095e-05
-2.29148e-08
7.71074e-05
-2.84639e-08
7.71212e-05
-3.22096e-08
7.71365e-05
-3.61862e-08
7.71539e-05
-4.17576e-08
7.7175e-05
-4.7302e-08
7.7197e-05
-5.30302e-08
7.72237e-05
-6.03907e-08
7.72538e-05
-6.78837e-08
7.72854e-05
-7.38312e-08
7.73216e-05
-8.31822e-08
7.73614e-05
-9.27329e-08
7.74069e-05
-1.04158e-07
7.74559e-05
-1.14139e-07
7.7512e-05
-1.27094e-07
7.75705e-05
-1.37203e-07
7.76386e-05
-1.55455e-07
7.77151e-05
-1.76913e-07
7.78028e-05
-2.01086e-07
7.78977e-05
-2.19348e-07
7.7996e-05
-2.26591e-07
7.81009e-05
-2.4078e-07
7.82235e-05
-2.8316e-07
7.8379e-05
-3.68395e-07
7.85807e-05
-4.75834e-07
7.88029e-05
-5.23735e-07
7.90088e-05
-4.74763e-07
7.91681e-05
-3.49512e-07
7.92949e-05
-2.77084e-07
7.95079e-05
-5.04466e-07
7.99223e-05
-1.02445e-06
8.06436e-05
-1.79756e-06
8.16713e-05
-2.55202e-06
8.27519e-05
-2.61753e-06
8.36102e-05
-1.99873e-06
-1.12287e-06
0.000109233
1.27978e-07
0.000109197
9.40362e-08
0.000109183
3.07934e-08
0.000109177
2.58025e-08
0.000109158
5.58059e-08
0.000109136
6.97855e-08
0.000109108
7.33578e-08
0.000109084
7.08225e-08
0.000109059
6.86196e-08
0.000109035
6.56143e-08
0.00010901
6.56316e-08
0.000108988
6.33297e-08
0.000108966
6.10058e-08
0.000108945
5.70801e-08
0.000108924
5.62669e-08
0.000108904
5.40908e-08
0.000108886
5.29945e-08
0.000108866
5.17098e-08
0.000108849
4.77562e-08
0.000108829
5.0533e-08
0.000108813
4.69233e-08
0.000108794
4.73083e-08
0.000108778
4.2979e-08
0.000108762
4.27436e-08
0.000108748
3.92873e-08
0.000108732
4.00264e-08
0.000108718
3.87546e-08
0.000108704
3.4792e-08
0.000108692
3.38723e-08
0.000108679
3.07116e-08
0.000108668
2.88762e-08
0.000108658
2.51257e-08
0.00010865
2.28246e-08
0.000108641
2.06928e-08
0.000108634
1.73968e-08
0.000108629
1.37645e-08
0.000108624
1.20766e-08
0.00010862
6.71843e-09
0.000108618
3.47115e-09
0.000108617
-1.13751e-09
0.000108619
-4.69504e-09
0.000108622
-9.21564e-09
0.000108627
-1.30163e-08
0.000108633
-1.96318e-08
0.000108643
-2.61994e-08
0.000108653
-3.01629e-08
0.000108668
-3.80862e-08
0.000108683
-4.36812e-08
0.000108702
-5.09446e-08
0.000108725
-5.87706e-08
0.00010875
-6.67231e-08
0.000108778
-7.57956e-08
0.00010881
-8.47959e-08
0.000108847
-9.74522e-08
0.000108887
-1.08232e-07
0.000108934
-1.20544e-07
0.000108984
-1.33358e-07
0.000109043
-1.51288e-07
0.000109106
-1.67277e-07
0.000109179
-1.86919e-07
0.000109257
-2.05036e-07
0.000109343
-2.23705e-07
0.000109439
-2.51041e-07
0.000109548
-2.86391e-07
0.000109672
-3.24486e-07
0.000109807
-3.54541e-07
0.00010995
-3.70071e-07
0.000110099
-3.89315e-07
0.000110273
-4.56898e-07
0.000110494
-5.89872e-07
0.00011077
-7.52054e-07
0.000111082
-8.35855e-07
0.000111379
-7.71169e-07
0.000111615
-5.85381e-07
0.000111811
-4.7378e-07
0.000112107
-8.00226e-07
0.000112662
-1.57919e-06
0.000113611
-2.7471e-06
0.000114973
-3.9139e-06
0.000116438
-4.08178e-06
0.000117651
-3.21202e-06
-1.92161e-06
0.000147667
1.88084e-07
0.000147617
1.44454e-07
0.0001476
4.74627e-08
0.000147591
3.52631e-08
0.00014757
7.7255e-08
0.000147541
9.88676e-08
0.000147509
1.05088e-07
0.000147477
1.0269e-07
0.000147445
1.00421e-07
0.000147415
9.62143e-08
0.000147384
9.61784e-08
0.000147355
9.24559e-08
0.000147326
9.00542e-08
0.000147295
8.8203e-08
0.000147269
8.3101e-08
0.000147243
7.98e-08
0.000147216
8.00932e-08
0.000147193
7.51972e-08
0.000147167
7.36305e-08
0.000147145
7.21045e-08
0.00014712
7.22707e-08
0.000147098
6.92517e-08
0.000147075
6.59089e-08
0.000147056
6.21556e-08
0.000147033
6.20521e-08
0.000147013
6.04554e-08
0.000146993
5.91052e-08
0.000146974
5.35515e-08
0.000146957
5.07749e-08
0.00014694
4.76999e-08
0.000146927
4.18619e-08
0.000146911
4.15117e-08
0.000146899
3.51835e-08
0.000146886
3.37998e-08
0.000146876
2.74315e-08
0.000146867
2.25736e-08
0.000146861
1.81906e-08
0.000146855
1.28426e-08
0.00014685
7.86499e-09
0.000146849
1.30209e-10
0.000146851
-6.57309e-09
0.000146853
-1.11324e-08
0.000146859
-1.89751e-08
0.000146867
-2.78696e-08
0.000146877
-3.62008e-08
0.000146893
-4.65426e-08
0.000146909
-5.36783e-08
0.00014693
-6.49345e-08
0.000146955
-7.60886e-08
0.000146985
-8.81393e-08
0.000147018
-9.97393e-08
0.000147056
-1.13548e-07
0.000147101
-1.29869e-07
0.000147149
-1.45354e-07
0.000147205
-1.6439e-07
0.000147265
-1.80742e-07
0.000147335
-2.03699e-07
0.000147411
-2.26557e-07
0.000147499
-2.56153e-07
0.000147595
-2.82633e-07
0.000147702
-3.11534e-07
0.00014782
-3.42316e-07
0.00014795
-3.80619e-07
0.000148099
-4.3595e-07
0.000148265
-4.89938e-07
0.00014845
-5.39286e-07
0.000148642
-5.62967e-07
0.000148851
-5.97684e-07
0.000149087
-6.92856e-07
0.000149379
-8.82342e-07
0.00014975
-1.1226e-06
0.000150168
-1.25418e-06
0.00015057
-1.17323e-06
0.000150907
-9.22037e-07
0.000151192
-7.58648e-07
0.000151591
-1.19929e-06
0.000152299
-2.28691e-06
0.000153491
-3.93935e-06
0.000155207
-5.62973e-06
0.000157092
-5.96678e-06
0.000158727
-4.84736e-06
-3.07172e-06
0.000193383
2.60061e-07
0.000193316
2.10843e-07
0.000193293
7.08219e-08
0.000193283
4.53477e-08
0.000193261
9.93927e-08
0.000193229
1.31177e-07
0.000193193
1.41359e-07
0.000193153
1.42431e-07
0.000193112
1.41288e-07
0.000193075
1.34011e-07
0.000193037
1.33826e-07
0.000192998
1.31835e-07
0.000192961
1.27346e-07
0.000192926
1.22911e-07
0.000192894
1.14715e-07
0.000192858
1.1599e-07
0.000192826
1.12936e-07
0.000192794
1.07293e-07
0.000192763
1.04603e-07
0.00019273
1.04956e-07
0.0001927
1.02086e-07
0.000192672
9.8102e-08
0.000192643
9.43811e-08
0.000192615
9.01882e-08
0.00019259
8.77447e-08
0.000192563
8.76487e-08
0.000192537
8.5118e-08
0.000192511
7.94955e-08
0.000192487
7.47572e-08
0.000192465
6.96807e-08
0.000192442
6.44003e-08
0.000192425
5.92288e-08
0.000192404
5.56538e-08
0.000192389
4.91017e-08
0.000192374
4.27398e-08
0.000192362
3.41925e-08
0.000192352
2.87107e-08
0.000192344
2.02249e-08
0.000192337
1.49034e-08
0.000192336
2.03973e-09
0.000192335
-5.69675e-09
0.000192335
-1.18966e-08
0.000192341
-2.48296e-08
0.000192348
-3.47221e-08
0.000192364
-5.22903e-08
0.000192378
-6.07219e-08
0.000192401
-7.60184e-08
0.000192427
-9.08174e-08
0.000192456
-1.05607e-07
0.000192494
-1.25394e-07
0.000192536
-1.41787e-07
0.000192583
-1.60724e-07
0.000192637
-1.8393e-07
0.000192699
-2.07858e-07
0.000192769
-2.34076e-07
0.000192851
-2.6275e-07
0.00019294
-2.92506e-07
0.000193042
-3.28404e-07
0.000193153
-3.67027e-07
0.000193278
-4.07737e-07
0.000193414
-4.47641e-07
0.000193567
-4.95186e-07
0.000193739
-5.52689e-07
0.000193929
-6.26246e-07
0.000194149
-7.10319e-07
0.000194388
-7.77954e-07
0.000194644
-8.19306e-07
0.000194914
-8.66909e-07
0.000195222
-1.00096e-06
0.000195601
-1.26134e-06
0.000196072
-1.59402e-06
0.000196605
-1.78739e-06
0.000197136
-1.70418e-06
0.000197595
-1.38055e-06
0.00019799
-1.15423e-06
0.000198512
-1.72066e-06
0.000199382
-3.15727e-06
0.000200821
-5.37846e-06
0.00020289
-7.69816e-06
0.000205218
-8.29486e-06
0.000207318
-6.94781e-06
-4.65147e-06
0.000246938
3.45126e-07
0.000246854
2.95001e-07
0.000246819
1.06025e-07
0.000246808
5.6458e-08
0.000246786
1.21089e-07
0.000246754
1.63367e-07
0.00024671
1.85542e-07
0.000246665
1.86802e-07
0.000246621
1.85906e-07
0.000246574
1.81078e-07
0.000246527
1.80986e-07
0.000246485
1.73586e-07
0.000246439
1.73611e-07
0.000246395
1.66984e-07
0.00024635
1.59384e-07
0.000246312
1.54437e-07
0.000246271
1.53969e-07
0.000246228
1.50037e-07
0.000246191
1.42019e-07
0.000246152
1.44202e-07
0.000246117
1.37038e-07
0.00024608
1.35665e-07
0.000246043
1.31527e-07
0.000246005
1.27659e-07
0.00024597
1.23046e-07
0.000245938
1.2015e-07
0.000245903
1.19891e-07
0.000245871
1.11558e-07
0.00024584
1.05967e-07
0.000245811
9.86076e-08
0.000245781
9.45959e-08
0.000245755
8.49022e-08
0.000245732
7.9335e-08
0.00024571
7.10392e-08
0.000245691
6.17921e-08
0.000245669
5.63918e-08
0.000245654
4.33003e-08
0.00024564
3.42215e-08
0.000245633
2.23381e-08
0.000245625
9.75954e-09
0.000245621
-1.74477e-09
0.000245622
-1.32972e-08
0.000245624
-2.63935e-08
0.000245632
-4.31173e-08
0.000245643
-6.29067e-08
0.000245663
-8.04427e-08
0.000245685
-9.79507e-08
0.000245717
-1.22706e-07
0.000245751
-1.40216e-07
0.000245793
-1.66748e-07
0.000245839
-1.87898e-07
0.000245899
-2.20777e-07
0.000245965
-2.49946e-07
0.000246041
-2.84062e-07
0.000246126
-3.19402e-07
0.000246223
-3.59468e-07
0.000246332
-4.01603e-07
0.000246456
-4.52467e-07
0.000246592
-5.02467e-07
0.000246749
-5.65342e-07
0.000246924
-6.22776e-07
0.000247113
-6.83955e-07
0.000247322
-7.61971e-07
0.000247565
-8.69015e-07
0.000247837
-9.8203e-07
0.000248137
-1.07824e-06
0.000248457
-1.13936e-06
0.0002488
-1.20953e-06
0.000249185
-1.38649e-06
0.000249655
-1.73083e-06
0.000250233
-2.1717e-06
0.000250895
-2.4493e-06
0.000251563
-2.37236e-06
0.000252158
-1.97588e-06
0.000252686
-1.68165e-06
0.000253342
-2.37734e-06
0.000254385
-4.20003e-06
0.000256064
-7.05752e-06
0.00025848
-1.01141e-05
0.000261246
-1.10604e-05
0.000263828
-9.52995e-06
-6.71259e-06
0.000308884
4.34198e-07
0.000308782
3.96938e-07
0.000308736
1.51917e-07
0.000308719
7.37551e-08
0.000308702
1.38368e-07
0.000308666
1.98819e-07
0.000308626
2.25953e-07
0.000308575
2.37675e-07
0.000308524
2.37447e-07
0.000308472
2.32593e-07
0.000308423
2.30493e-07
0.000308366
2.3024e-07
0.000308313
2.27501e-07
0.00030826
2.19519e-07
0.000308209
2.11167e-07
0.00030816
2.02666e-07
0.000308114
2.00949e-07
0.000308065
1.98308e-07
0.000308018
1.89987e-07
0.00030797
1.92362e-07
0.00030792
1.86889e-07
0.000307872
1.83653e-07
0.000307828
1.75953e-07
0.000307786
1.69511e-07
0.000307743
1.66418e-07
0.000307698
1.65525e-07
0.000307656
1.61897e-07
0.000307614
1.53272e-07
0.000307576
1.44376e-07
0.000307536
1.38346e-07
0.0003075
1.31051e-07
0.000307464
1.20779e-07
0.00030743
1.13466e-07
0.000307397
1.0373e-07
0.000307366
9.26876e-08
0.000307344
7.85581e-08
0.000307318
6.95184e-08
0.000307298
5.42708e-08
0.00030728
4.04868e-08
0.000307267
2.30144e-08
0.000307258
7.22455e-09
0.000307251
-6.16454e-09
0.000307251
-2.65096e-08
0.000307255
-4.77708e-08
0.000307266
-7.37386e-08
0.000307281
-9.50858e-08
0.000307303
-1.20024e-07
0.000307329
-1.49083e-07
0.000307369
-1.79797e-07
0.000307411
-2.0929e-07
0.000307467
-2.43202e-07
0.000307529
-2.83284e-07
0.000307602
-3.22228e-07
0.000307686
-3.68909e-07
0.000307788
-4.21036e-07
0.000307897
-4.68663e-07
0.000308026
-5.29991e-07
0.000308167
-5.94085e-07
0.000308333
-6.68146e-07
0.000308514
-7.46784e-07
0.000308716
-8.24203e-07
0.000308944
-9.11789e-07
0.000309198
-1.01618e-06
0.000309484
-1.15523e-06
0.000309809
-1.30664e-06
0.000310169
-1.43889e-06
0.000310556
-1.52599e-06
0.000310971
-1.62433e-06
0.000311438
-1.85329e-06
0.000311996
-2.28942e-06
0.000312684
-2.85935e-06
0.000313474
-3.23979e-06
0.000314284
-3.18219e-06
0.000315025
-2.71675e-06
0.000315696
-2.35246e-06
0.000316497
-3.17815e-06
0.000317713
-5.41648e-06
0.000319615
-8.95946e-06
0.000322343
-1.28423e-05
0.000325513
-1.42302e-05
0.000328574
-1.25905e-05
0.000331125
-9.26372e-06
-4.28033e-06
0.000379791
5.27594e-07
0.000379672
5.15024e-07
0.000379611
2.13701e-07
0.00037959
9.45811e-08
0.000379574
1.54342e-07
0.000379544
2.29443e-07
0.000379503
2.66311e-07
0.000379455
2.85697e-07
0.0003794
2.92506e-07
0.000379343
2.90516e-07
0.000379284
2.89376e-07
0.000379226
2.88127e-07
0.000379166
2.87702e-07
0.000379108
2.77816e-07
0.000379051
2.68015e-07
0.00037899
2.63336e-07
0.00037893
2.61173e-07
0.000378873
2.55666e-07
0.000378813
2.50015e-07
0.000378759
2.46552e-07
0.000378701
2.44699e-07
0.000378648
2.37511e-07
0.00037859
2.34262e-07
0.000378533
2.26648e-07
0.00037848
2.19519e-07
0.000378425
2.20185e-07
0.000378372
2.14682e-07
0.000378317
2.09188e-07
0.000378261
1.99627e-07
0.000378212
1.88172e-07
0.000378165
1.77822e-07
0.000378116
1.70006e-07
0.000378069
1.60117e-07
0.000378025
1.47999e-07
0.000377984
1.33501e-07
0.000377944
1.18918e-07
0.000377909
1.04867e-07
0.000377876
8.67582e-08
0.00037785
6.65612e-08
0.000377821
5.15754e-08
0.000377799
2.93846e-08
0.000377785
8.48965e-09
0.000377774
-1.59993e-08
0.000377769
-4.22511e-08
0.000377767
-7.18371e-08
0.000377773
-1.01327e-07
0.000377791
-1.37708e-07
0.000377811
-1.69311e-07
0.000377842
-2.10685e-07
0.000377883
-2.50333e-07
0.000377934
-2.94213e-07
0.000377995
-3.44771e-07
0.000378073
-3.99267e-07
0.000378162
-4.58564e-07
0.000378258
-5.17129e-07
0.00037838
-5.9042e-07
0.000378518
-6.67833e-07
0.000378677
-7.52855e-07
0.000378853
-8.44629e-07
0.000379054
-9.47739e-07
0.000379285
-1.05537e-06
0.000379538
-1.16475e-06
0.000379825
-1.30309e-06
0.000380148
-1.47798e-06
0.000380519
-1.67768e-06
0.000380931
-1.85131e-06
0.000381378
-1.97226e-06
0.000381855
-2.10171e-06
0.000382392
-2.39028e-06
0.000383035
-2.93267e-06
0.000383821
-3.64468e-06
0.000384724
-4.14319e-06
0.000385667
-4.12492e-06
0.000386552
-3.60175e-06
0.000387363
-3.1642e-06
0.000388312
-4.1271e-06
0.000389686
-6.78955e-06
0.000391787
-1.10605e-05
0.000394782
-1.58378e-05
0.000398299
-1.77477e-05
0.000401782
-1.60732e-05
0.000404808
-1.22899e-05
-6.46393e-06
0.00046026
6.13016e-07
0.000460127
6.48834e-07
0.000460047
2.94186e-07
0.000460025
1.16843e-07
0.000460008
1.71881e-07
0.000459986
2.51693e-07
0.000459949
3.03349e-07
0.000459904
3.30894e-07
0.000459851
3.45359e-07
0.000459792
3.49762e-07
0.000459731
3.50637e-07
0.000459665
3.53954e-07
0.000459605
3.47843e-07
0.000459536
3.46478e-07
0.000459466
3.38392e-07
0.000459399
3.30694e-07
0.000459333
3.27207e-07
0.000459267
3.22276e-07
0.000459201
3.15356e-07
0.000459133
3.15419e-07
0.000459062
3.15252e-07
0.000458992
3.08087e-07
0.000458925
3.00888e-07
0.000458854
2.97884e-07
0.000458783
2.91241e-07
0.000458714
2.88732e-07
0.000458642
2.87463e-07
0.000458574
2.76756e-07
0.000458507
2.66704e-07
0.000458438
2.57741e-07
0.000458371
2.4476e-07
0.000458305
2.35751e-07
0.000458246
2.19676e-07
0.00045818
2.13366e-07
0.000458122
1.91836e-07
0.000458063
1.7842e-07
0.00045801
1.58017e-07
0.000457959
1.37004e-07
0.000457906
1.19702e-07
0.000457866
9.1916e-08
0.000457826
6.91767e-08
0.000457789
4.52996e-08
0.000457757
1.61857e-08
0.000457733
-1.7727e-08
0.000457714
-5.35927e-08
0.000457705
-9.18077e-08
0.000457701
-1.33739e-07
0.000457707
-1.75657e-07
0.000457716
-2.19515e-07
0.000457744
-2.78059e-07
0.000457782
-3.31997e-07
0.00045783
-3.93014e-07
0.000457889
-4.5853e-07
0.000457965
-5.34569e-07
0.000458061
-6.13031e-07
0.000458175
-7.04414e-07
0.000458304
-7.96864e-07
0.000458456
-9.05025e-07
0.000458638
-1.02582e-06
0.000458844
-1.15354e-06
0.000459077
-1.28869e-06
0.000459346
-1.43433e-06
0.000459646
-1.60217e-06
0.00045999
-1.8225e-06
0.000460384
-2.07216e-06
0.000460831
-2.29766e-06
0.000461316
-2.4579e-06
0.000461842
-2.6268e-06
0.00046243
-2.97847e-06
0.000463131
-3.63413e-06
0.000463988
-4.50112e-06
0.000464986
-5.14142e-06
0.000466029
-5.1676e-06
0.000467031
-4.60423e-06
0.000467965
-4.09776e-06
0.000469034
-5.1965e-06
0.000470544
-8.29998e-06
0.0004728
-1.33161e-05
0.000476
-1.90381e-05
0.00047979
-2.15371e-05
0.000483612
-1.98958e-05
0.000487044
-1.57214e-05
-9.08742e-06
0.000550907
6.83905e-07
0.000550776
7.78899e-07
0.000550685
3.8629e-07
0.000550649
1.52681e-07
0.000550637
1.8422e-07
0.000550624
2.64319e-07
0.0005506
3.27308e-07
0.000550561
3.7083e-07
0.000550515
3.90522e-07
0.000550462
4.02913e-07
0.000550401
4.12246e-07
0.000550337
4.18123e-07
0.000550264
4.20324e-07
0.000550194
4.1746e-07
0.000550122
4.10512e-07
0.000550047
4.059e-07
0.000549968
4.06039e-07
0.000549891
3.98863e-07
0.000549809
3.98164e-07
0.000549727
3.97187e-07
0.000549645
3.97895e-07
0.000549561
3.91879e-07
0.000549475
3.86802e-07
0.000549389
3.84052e-07
0.000549301
3.79287e-07
0.000549214
3.75957e-07
0.000549122
3.79591e-07
0.000549032
3.66656e-07
0.000548941
3.58161e-07
0.000548853
3.4629e-07
0.00054876
3.37109e-07
0.000548669
3.27202e-07
0.000548576
3.1304e-07
0.000548492
2.9743e-07
0.000548402
2.81951e-07
0.000548319
2.6133e-07
0.000548233
2.43569e-07
0.00054815
2.19936e-07
0.000548074
1.96419e-07
0.000547998
1.68007e-07
0.000547924
1.43103e-07
0.000547855
1.13545e-07
0.000547792
7.96716e-08
0.000547734
4.05511e-08
0.00054768
2.42627e-10
0.000547633
-4.46688e-08
0.000547595
-9.54795e-08
0.000547564
-1.44782e-07
0.000547546
-2.02159e-07
0.000547535
-2.66459e-07
0.000547535
-3.32467e-07
0.000547548
-4.06068e-07
0.000547578
-4.87708e-07
0.000547623
-5.80022e-07
0.000547686
-6.75533e-07
0.000547762
-7.80843e-07
0.000547867
-9.01976e-07
0.000547996
-1.03413e-06
0.000548146
-1.17545e-06
0.000548334
-1.34205e-06
0.000548547
-1.50107e-06
0.000548788
-1.67581e-06
0.000549078
-1.89181e-06
0.00054941
-2.15456e-06
0.000549801
-2.46333e-06
0.000550243
-2.73971e-06
0.000550734
-2.94865e-06
0.000551262
-3.1553e-06
0.000551864
-3.58018e-06
0.000552587
-4.35709e-06
0.000553476
-5.38989e-06
0.000554514
-6.17926e-06
0.000555619
-6.27321e-06
0.000556693
-5.67752e-06
0.000557697
-5.10253e-06
0.000558855
-6.35393e-06
0.000560446
-9.89146e-06
0.000562794
-1.56635e-05
0.000566126
-2.23701e-05
0.000570097
-2.55088e-05
0.000574161
-2.39597e-05
0.000577894
-1.94542e-05
-1.2068e-05
0.000652388
7.14718e-07
0.000652267
9.07712e-07
0.000652174
4.79999e-07
0.000652129
1.98127e-07
0.00065212
1.92938e-07
0.000652114
2.70801e-07
0.000652105
3.36118e-07
0.000652086
3.89896e-07
0.000652052
4.25141e-07
0.000652004
4.5131e-07
0.00065195
4.65926e-07
0.000651889
4.79011e-07
0.000651824
4.85595e-07
0.00065175
4.91848e-07
0.000651673
4.87268e-07
0.00065159
4.89586e-07
0.000651508
4.87783e-07
0.000651415
4.92326e-07
0.000651322
4.91098e-07
0.000651228
4.91202e-07
0.000651128
4.99023e-07
0.000651023
4.97008e-07
0.000650915
4.94585e-07
0.000650809
4.90041e-07
0.0006507
4.88949e-07
0.00065058
4.95709e-07
0.000650466
4.94106e-07
0.000650343
4.89582e-07
0.000650225
4.76228e-07
0.000650101
4.69978e-07
0.000649975
4.63397e-07
0.000649853
4.49804e-07
0.000649722
4.43463e-07
0.000649596
4.24155e-07
0.000649467
4.11276e-07
0.00064934
3.88355e-07
0.000649212
3.71559e-07
0.000649085
3.46875e-07
0.000648956
3.25203e-07
0.000648833
2.91155e-07
0.000648714
2.61529e-07
0.00064859
2.38196e-07
0.000648473
1.96058e-07
0.000648362
1.51749e-07
0.000648255
1.07688e-07
0.00064815
6.03984e-08
0.000648051
3.41977e-09
0.00064796
-5.36473e-08
0.000647875
-1.17332e-07
0.000647802
-1.93366e-07
0.000647739
-2.69527e-07
0.00064769
-3.56651e-07
0.000647653
-4.5099e-07
0.00064763
-5.56594e-07
0.000647628
-6.74127e-07
0.000647644
-7.96351e-07
0.000647678
-9.36173e-07
0.000647736
-1.09228e-06
0.000647827
-1.26674e-06
0.000647941
-1.45542e-06
0.000648091
-1.65173e-06
0.000648279
-1.86361e-06
0.000648501
-2.11337e-06
0.000648776
-2.43013e-06
0.000649111
-2.79758e-06
0.000649498
-3.12762e-06
0.000649936
-3.38584e-06
0.000650427
-3.64697e-06
0.000650987
-4.13969e-06
0.000651669
-5.03907e-06
0.000652528
-6.2486e-06
0.000653546
-7.19808e-06
0.00065464
-7.36663e-06
0.000655719
-6.75659e-06
0.000656734
-6.11745e-06
0.000657898
-7.51859e-06
0.000659508
-1.1501e-05
0.000661871
-1.80261e-05
0.00066525
-2.57491e-05
0.000669292
-2.95516e-05
0.000673486
-2.81531e-05
0.000677404
-2.33728e-05
-1.53109e-05
0.000765359
6.98838e-07
0.000765273
9.98198e-07
0.000765184
5.69826e-07
0.000765142
2.4072e-07
0.000765135
1.99906e-07
0.000765146
2.60275e-07
0.000765158
3.24108e-07
0.00076516
3.87258e-07
0.000765144
4.4157e-07
0.000765118
4.77172e-07
0.000765078
5.06297e-07
0.000765031
5.26327e-07
0.000764969
5.47667e-07
0.000764901
5.60287e-07
0.000764822
5.66384e-07
0.000764737
5.74176e-07
0.000764646
5.79181e-07
0.00076455
5.88819e-07
0.000764443
5.98035e-07
0.000764325
6.0939e-07
0.000764211
6.13085e-07
0.000764084
6.2409e-07
0.000763954
6.24919e-07
0.000763817
6.27641e-07
0.000763673
6.33111e-07
0.000763524
6.44277e-07
0.000763371
6.47711e-07
0.000763217
6.4363e-07
0.000763048
6.45073e-07
0.00076288
6.38719e-07
0.000762709
6.34505e-07
0.000762534
6.24564e-07
0.000762356
6.21536e-07
0.000762167
6.12817e-07
0.000761985
5.93704e-07
0.000761791
5.81903e-07
0.0007616
5.62587e-07
0.000761408
5.38938e-07
0.000761218
5.16037e-07
0.000761019
4.90223e-07
0.000760819
4.60874e-07
0.000760628
4.29597e-07
0.000760428
3.95964e-07
0.000760227
3.5247e-07
0.000760031
3.04454e-07
0.000759839
2.52254e-07
0.000759647
1.95278e-07
0.000759462
1.30758e-07
0.000759282
6.30441e-08
0.000759106
-1.72683e-08
0.00075894