/*--------------------------------*- C++ -*----------------------------------*\
| =========                 |                                                 |
| \\      /  F ield         | OpenFOAM: The Open Source CFD Toolbox           |
|  \\    /   O peration     | Version:  2412                                  |
|   \\  /    A nd           | Website:  www.openfoam.com                      |
|    \\/     M anipulation  |                                                 |
\*---------------------------------------------------------------------------*/
FoamFile
{
    version     2.0;
    format      ascii;
    arch        "LSB;label=32;scalar=64";
    class       volScalarField;
    location    "120";
    object      nuTilda;
}
// * * * * * * * * * * * * * * * * * * * * * * * * * * * * * * * * * * * * * //

dimensions      [0 2 -1 0 0 0 0];

internalField   nonuniform List<scalar> 
8702
(
2.20367e-06
2.20305e-06
2.20303e-06
2.2031e-06
2.20285e-06
2.20241e-06
2.20195e-06
2.20145e-06
2.20097e-06
2.20057e-06
2.20019e-06
2.1998e-06
2.19942e-06
2.19907e-06
2.19873e-06
2.19844e-06
2.19811e-06
2.19779e-06
2.19753e-06
2.19723e-06
2.19691e-06
2.19663e-06
2.19634e-06
2.19605e-06
2.19581e-06
2.19556e-06
2.19529e-06
2.19506e-06
2.19485e-06
2.19461e-06
2.19442e-06
2.19425e-06
2.19406e-06
2.19391e-06
2.19378e-06
2.1936e-06
2.19347e-06
2.19337e-06
2.19328e-06
2.19323e-06
2.19318e-06
2.19315e-06
2.19313e-06
2.19312e-06
2.19318e-06
2.19328e-06
2.1934e-06
2.19353e-06
2.19369e-06
2.19386e-06
2.19405e-06
2.19432e-06
2.19462e-06
2.19496e-06
2.19535e-06
2.19582e-06
2.19632e-06
2.19684e-06
2.19744e-06
2.19815e-06
2.19891e-06
2.1997e-06
2.2006e-06
2.20163e-06
2.20279e-06
2.20401e-06
2.20537e-06
2.20678e-06
2.20823e-06
2.20996e-06
2.21223e-06
2.21503e-06
2.21787e-06
2.22034e-06
2.22211e-06
2.2239e-06
2.22728e-06
2.23331e-06
2.24341e-06
2.25627e-06
2.268e-06
2.27671e-06
6.64004e-06
6.63806e-06
6.63795e-06
6.63831e-06
6.63777e-06
6.63651e-06
6.63506e-06
6.63358e-06
6.63213e-06
6.63084e-06
6.62962e-06
6.62841e-06
6.62724e-06
6.62614e-06
6.62508e-06
6.62416e-06
6.62318e-06
6.6222e-06
6.6213e-06
6.62036e-06
6.61944e-06
6.61854e-06
6.61763e-06
6.61674e-06
6.61595e-06
6.61516e-06
6.61432e-06
6.61356e-06
6.61281e-06
6.61207e-06
6.61139e-06
6.61078e-06
6.61015e-06
6.60956e-06
6.60904e-06
6.6085e-06
6.60803e-06
6.60763e-06
6.60727e-06
6.60701e-06
6.60678e-06
6.60658e-06
6.60641e-06
6.60632e-06
6.60639e-06
6.60651e-06
6.60671e-06
6.60697e-06
6.60734e-06
6.6078e-06
6.60833e-06
6.60899e-06
6.60976e-06
6.61068e-06
6.61173e-06
6.61293e-06
6.61426e-06
6.61577e-06
6.61746e-06
6.6194e-06
6.62154e-06
6.62382e-06
6.62638e-06
6.62928e-06
6.63254e-06
6.6361e-06
6.64e-06
6.64404e-06
6.64825e-06
6.65323e-06
6.65963e-06
6.66746e-06
6.67563e-06
6.68303e-06
6.68868e-06
6.69415e-06
6.70345e-06
6.71966e-06
6.74652e-06
6.78134e-06
6.81474e-06
6.84125e-06
1.10414e-05
1.10379e-05
1.10377e-05
1.10386e-05
1.10381e-05
1.10361e-05
1.10337e-05
1.10312e-05
1.10288e-05
1.10265e-05
1.10244e-05
1.10223e-05
1.10203e-05
1.10184e-05
1.10165e-05
1.10149e-05
1.10132e-05
1.10115e-05
1.10099e-05
1.10083e-05
1.10067e-05
1.1005e-05
1.10035e-05
1.10019e-05
1.10004e-05
1.0999e-05
1.09975e-05
1.0996e-05
1.09946e-05
1.09932e-05
1.09919e-05
1.09906e-05
1.09894e-05
1.09882e-05
1.09871e-05
1.0986e-05
1.0985e-05
1.09841e-05
1.09833e-05
1.09826e-05
1.09819e-05
1.09813e-05
1.09808e-05
1.09804e-05
1.09802e-05
1.098e-05
1.09801e-05
1.09802e-05
1.09804e-05
1.09809e-05
1.09814e-05
1.09822e-05
1.09831e-05
1.09842e-05
1.09856e-05
1.09871e-05
1.09889e-05
1.0991e-05
1.09934e-05
1.09961e-05
1.09992e-05
1.10025e-05
1.10062e-05
1.10104e-05
1.10152e-05
1.10206e-05
1.10264e-05
1.10325e-05
1.1039e-05
1.10465e-05
1.10559e-05
1.10675e-05
1.10799e-05
1.10917e-05
1.11013e-05
1.11103e-05
1.11238e-05
1.11464e-05
1.11836e-05
1.1233e-05
1.12836e-05
1.13273e-05
1.52111e-05
1.52059e-05
1.52054e-05
1.52069e-05
1.52069e-05
1.52046e-05
1.52014e-05
1.51978e-05
1.51944e-05
1.51911e-05
1.5188e-05
1.5185e-05
1.51821e-05
1.51794e-05
1.51767e-05
1.51743e-05
1.5172e-05
1.51695e-05
1.51672e-05
1.51648e-05
1.51624e-05
1.516e-05
1.51577e-05
1.51554e-05
1.51531e-05
1.51509e-05
1.51486e-05
1.51463e-05
1.51441e-05
1.51419e-05
1.51398e-05
1.51377e-05
1.51357e-05
1.51338e-05
1.51319e-05
1.513e-05
1.51283e-05
1.51266e-05
1.51251e-05
1.51237e-05
1.51223e-05
1.5121e-05
1.51198e-05
1.51188e-05
1.5118e-05
1.51173e-05
1.51167e-05
1.51163e-05
1.51161e-05
1.51161e-05
1.51162e-05
1.51166e-05
1.51172e-05
1.51181e-05
1.51192e-05
1.51206e-05
1.51223e-05
1.51244e-05
1.51268e-05
1.51297e-05
1.5133e-05
1.51367e-05
1.51408e-05
1.51455e-05
1.5151e-05
1.51571e-05
1.5164e-05
1.51713e-05
1.5179e-05
1.51878e-05
1.51989e-05
1.52125e-05
1.52277e-05
1.52427e-05
1.52556e-05
1.52675e-05
1.52833e-05
1.53085e-05
1.53494e-05
1.54055e-05
1.54675e-05
1.55257e-05
1.90275e-05
1.90205e-05
1.90195e-05
1.90216e-05
1.90226e-05
1.90204e-05
1.90165e-05
1.90121e-05
1.90076e-05
1.90034e-05
1.89993e-05
1.89953e-05
1.89914e-05
1.89878e-05
1.89844e-05
1.89813e-05
1.89781e-05
1.8975e-05
1.89719e-05
1.89687e-05
1.89655e-05
1.89623e-05
1.89592e-05
1.8956e-05
1.89529e-05
1.89498e-05
1.89466e-05
1.89434e-05
1.89402e-05
1.89371e-05
1.8934e-05
1.89309e-05
1.89279e-05
1.8925e-05
1.89221e-05
1.89193e-05
1.89165e-05
1.89139e-05
1.89113e-05
1.89089e-05
1.89065e-05
1.89043e-05
1.89021e-05
1.89e-05
1.88982e-05
1.88965e-05
1.88949e-05
1.88935e-05
1.88924e-05
1.88914e-05
1.88906e-05
1.88901e-05
1.88898e-05
1.88899e-05
1.88902e-05
1.88907e-05
1.88916e-05
1.88929e-05
1.88946e-05
1.88968e-05
1.88994e-05
1.89025e-05
1.89061e-05
1.89104e-05
1.89154e-05
1.89212e-05
1.89279e-05
1.89351e-05
1.89428e-05
1.89516e-05
1.89625e-05
1.89762e-05
1.89922e-05
1.90088e-05
1.90238e-05
1.90374e-05
1.90534e-05
1.90776e-05
1.91161e-05
1.91712e-05
1.92376e-05
1.9306e-05
2.24056e-05
2.23967e-05
2.23946e-05
2.23971e-05
2.23996e-05
2.2398e-05
2.2394e-05
2.23889e-05
2.23834e-05
2.23781e-05
2.2373e-05
2.2368e-05
2.23631e-05
2.23586e-05
2.23544e-05
2.23505e-05
2.23467e-05
2.23428e-05
2.23389e-05
2.23349e-05
2.23309e-05
2.23268e-05
2.23227e-05
2.23186e-05
2.23146e-05
2.23104e-05
2.23063e-05
2.2302e-05
2.22977e-05
2.22934e-05
2.22892e-05
2.22849e-05
2.22808e-05
2.22766e-05
2.22724e-05
2.22683e-05
2.22643e-05
2.22604e-05
2.22564e-05
2.22527e-05
2.22489e-05
2.22453e-05
2.22417e-05
2.22382e-05
2.22348e-05
2.22316e-05
2.22285e-05
2.22257e-05
2.22229e-05
2.22205e-05
2.22181e-05
2.2216e-05
2.22141e-05
2.22125e-05
2.22112e-05
2.22101e-05
2.22093e-05
2.22089e-05
2.22089e-05
2.22093e-05
2.22102e-05
2.22116e-05
2.22135e-05
2.2216e-05
2.22192e-05
2.22232e-05
2.22282e-05
2.22338e-05
2.22398e-05
2.22468e-05
2.22555e-05
2.22671e-05
2.22814e-05
2.22973e-05
2.23126e-05
2.23263e-05
2.23403e-05
2.23596e-05
2.23899e-05
2.24364e-05
2.24993e-05
2.25717e-05
2.5281e-05
2.52705e-05
2.52665e-05
2.5269e-05
2.52733e-05
2.52731e-05
2.52694e-05
2.52638e-05
2.52576e-05
2.52512e-05
2.52449e-05
2.52388e-05
2.52329e-05
2.52274e-05
2.52223e-05
2.52176e-05
2.52131e-05
2.52084e-05
2.52037e-05
2.5199e-05
2.5194e-05
2.5189e-05
2.51839e-05
2.51787e-05
2.51736e-05
2.51683e-05
2.5163e-05
2.51575e-05
2.51519e-05
2.51463e-05
2.51406e-05
2.5135e-05
2.51293e-05
2.51236e-05
2.51179e-05
2.51122e-05
2.51065e-05
2.51009e-05
2.50952e-05
2.50897e-05
2.5084e-05
2.50786e-05
2.50731e-05
2.50676e-05
2.50622e-05
2.50569e-05
2.50517e-05
2.50465e-05
2.50416e-05
2.50368e-05
2.50321e-05
2.50276e-05
2.50232e-05
2.50191e-05
2.50152e-05
2.50114e-05
2.50079e-05
2.50046e-05
2.50017e-05
2.49991e-05
2.49969e-05
2.49952e-05
2.49938e-05
2.49929e-05
2.49927e-05
2.49932e-05
2.49946e-05
2.49966e-05
2.4999e-05
2.5002e-05
2.50062e-05
2.50129e-05
2.50227e-05
2.5035e-05
2.50482e-05
2.50596e-05
2.50689e-05
2.50796e-05
2.50962e-05
2.51267e-05
2.51775e-05
2.52459e-05
2.76075e-05
2.75955e-05
2.75887e-05
2.75907e-05
2.75968e-05
2.75987e-05
2.75962e-05
2.75906e-05
2.75835e-05
2.75761e-05
2.75686e-05
2.75612e-05
2.75541e-05
2.75476e-05
2.75415e-05
2.7536e-05
2.75307e-05
2.75253e-05
2.75197e-05
2.7514e-05
2.75081e-05
2.7502e-05
2.74959e-05
2.74895e-05
2.74831e-05
2.74765e-05
2.74699e-05
2.74629e-05
2.74558e-05
2.74486e-05
2.74413e-05
2.74339e-05
2.74264e-05
2.74188e-05
2.74111e-05
2.74034e-05
2.73956e-05
2.73879e-05
2.738e-05
2.73722e-05
2.73642e-05
2.73563e-05
2.73482e-05
2.73401e-05
2.7332e-05
2.73239e-05
2.73157e-05
2.73076e-05
2.72995e-05
2.72916e-05
2.72836e-05
2.72757e-05
2.72677e-05
2.726e-05
2.72522e-05
2.72446e-05
2.7237e-05
2.72295e-05
2.72222e-05
2.72151e-05
2.72082e-05
2.72016e-05
2.71953e-05
2.71892e-05
2.71835e-05
2.71784e-05
2.7174e-05
2.71702e-05
2.71666e-05
2.71631e-05
2.71601e-05
2.71588e-05
2.71608e-05
2.71663e-05
2.7174e-05
2.71802e-05
2.71818e-05
2.71801e-05
2.71781e-05
2.71859e-05
2.7216e-05
2.72711e-05
2.93571e-05
2.93443e-05
2.93341e-05
2.93342e-05
2.93423e-05
2.93469e-05
2.93462e-05
2.93411e-05
2.93336e-05
2.93251e-05
2.93162e-05
2.93073e-05
2.92989e-05
2.92911e-05
2.9284e-05
2.92775e-05
2.92714e-05
2.92652e-05
2.92587e-05
2.92521e-05
2.92451e-05
2.92379e-05
2.92304e-05
2.92226e-05
2.92148e-05
2.92066e-05
2.91985e-05
2.91898e-05
2.9181e-05
2.91718e-05
2.91625e-05
2.9153e-05
2.91433e-05
2.91335e-05
2.91234e-05
2.91132e-05
2.91027e-05
2.90924e-05
2.90817e-05
2.9071e-05
2.906e-05
2.9049e-05
2.90377e-05
2.90262e-05
2.90146e-05
2.90027e-05
2.89908e-05
2.89787e-05
2.89665e-05
2.89544e-05
2.89419e-05
2.89295e-05
2.89168e-05
2.89041e-05
2.88912e-05
2.88782e-05
2.88651e-05
2.88518e-05
2.88385e-05
2.88251e-05
2.88117e-05
2.87984e-05
2.8785e-05
2.87716e-05
2.87583e-05
2.87451e-05
2.87325e-05
2.87203e-05
2.87081e-05
2.86953e-05
2.86821e-05
2.86698e-05
2.86604e-05
2.86553e-05
2.86537e-05
2.8651e-05
2.86416e-05
2.8624e-05
2.85995e-05
2.85794e-05
2.85813e-05
2.86135e-05
3.05223e-05
3.05097e-05
3.04952e-05
3.04923e-05
3.05016e-05
3.05095e-05
3.05115e-05
3.05077e-05
3.05001e-05
3.04904e-05
3.048e-05
3.04694e-05
3.04592e-05
3.04499e-05
3.04416e-05
3.0434e-05
3.04271e-05
3.042e-05
3.04126e-05
3.04049e-05
3.03967e-05
3.03882e-05
3.03793e-05
3.03699e-05
3.03604e-05
3.03504e-05
3.03404e-05
3.03298e-05
3.03188e-05
3.03075e-05
3.02957e-05
3.02837e-05
3.02714e-05
3.02588e-05
3.02458e-05
3.02326e-05
3.0219e-05
3.02054e-05
3.01912e-05
3.0177e-05
3.01623e-05
3.01474e-05
3.01321e-05
3.01164e-05
3.01004e-05
3.00839e-05
3.00672e-05
3.00502e-05
3.00327e-05
3.00152e-05
2.99971e-05
2.99788e-05
2.996e-05
2.9941e-05
2.99215e-05
2.99016e-05
2.98813e-05
2.98606e-05
2.98395e-05
2.9818e-05
2.97961e-05
2.97739e-05
2.97514e-05
2.97284e-05
2.97051e-05
2.96815e-05
2.96581e-05
2.96348e-05
2.96112e-05
2.95864e-05
2.95601e-05
2.95336e-05
2.95095e-05
2.94901e-05
2.94752e-05
2.94595e-05
2.94356e-05
2.93993e-05
2.93497e-05
2.92986e-05
2.92671e-05
2.92683e-05
2.92846e-05
3.11164e-05
3.11052e-05
3.10862e-05
3.10788e-05
3.10883e-05
3.10995e-05
3.1105e-05
3.11032e-05
3.1096e-05
3.10854e-05
3.10732e-05
3.10606e-05
3.10483e-05
3.10372e-05
3.10273e-05
3.10185e-05
3.10105e-05
3.10025e-05
3.0994e-05
3.09852e-05
3.09757e-05
3.09657e-05
3.09551e-05
3.0944e-05
3.09325e-05
3.09204e-05
3.09082e-05
3.08954e-05
3.0882e-05
3.0868e-05
3.08535e-05
3.08385e-05
3.08231e-05
3.08073e-05
3.07908e-05
3.0774e-05
3.07566e-05
3.07391e-05
3.07209e-05
3.07024e-05
3.06832e-05
3.06637e-05
3.06435e-05
3.06228e-05
3.06015e-05
3.05795e-05
3.0557e-05
3.05339e-05
3.05101e-05
3.0486e-05
3.04611e-05
3.04356e-05
3.04094e-05
3.03827e-05
3.03551e-05
3.03268e-05
3.02977e-05
3.02679e-05
3.02372e-05
3.02057e-05
3.01734e-05
3.01405e-05
3.01067e-05
3.00721e-05
3.00365e-05
3.00002e-05
2.99636e-05
2.99268e-05
2.98893e-05
2.98499e-05
2.98081e-05
2.97649e-05
2.97234e-05
2.96864e-05
2.96545e-05
2.96222e-05
2.95807e-05
2.95237e-05
2.94483e-05
2.9366e-05
2.92993e-05
2.92646e-05
2.92566e-05
3.11744e-05
3.11662e-05
3.11429e-05
3.11297e-05
3.11378e-05
3.11519e-05
3.11614e-05
3.11624e-05
3.11561e-05
3.11448e-05
3.11308e-05
3.11157e-05
3.11009e-05
3.10874e-05
3.10757e-05
3.10654e-05
3.10562e-05
3.10471e-05
3.10375e-05
3.10274e-05
3.10165e-05
3.10048e-05
3.09924e-05
3.09792e-05
3.09655e-05
3.0951e-05
3.09364e-05
3.09209e-05
3.09047e-05
3.08878e-05
3.08701e-05
3.08517e-05
3.08328e-05
3.08132e-05
3.07928e-05
3.07718e-05
3.07501e-05
3.0728e-05
3.0705e-05
3.06816e-05
3.06573e-05
3.06324e-05
3.06067e-05
3.05801e-05
3.05527e-05
3.05243e-05
3.04951e-05
3.04651e-05
3.0434e-05
3.04023e-05
3.03695e-05
3.03358e-05
3.0301e-05
3.02653e-05
3.02284e-05
3.01904e-05
3.01512e-05
3.01108e-05
3.00691e-05
3.00262e-05
2.99819e-05
2.99366e-05
2.98899e-05
2.98419e-05
2.97924e-05
2.97416e-05
2.969e-05
2.96378e-05
2.95845e-05
2.95288e-05
2.94699e-05
2.94087e-05
2.93482e-05
2.92918e-05
2.92407e-05
2.91893e-05
2.91282e-05
2.90502e-05
2.89505e-05
2.88402e-05
2.8741e-05
2.86702e-05
2.86309e-05
3.07544e-05
3.07505e-05
3.07239e-05
3.07042e-05
3.0709e-05
3.07249e-05
3.07383e-05
3.07427e-05
3.0738e-05
3.07263e-05
3.07104e-05
3.06925e-05
3.06745e-05
3.06581e-05
3.0644e-05
3.06318e-05
3.06212e-05
3.06108e-05
3.06e-05
3.05885e-05
3.0576e-05
3.05625e-05
3.05481e-05
3.05325e-05
3.05164e-05
3.04993e-05
3.04818e-05
3.04634e-05
3.04442e-05
3.04239e-05
3.04027e-05
3.03806e-05
3.03577e-05
3.0334e-05
3.03092e-05
3.02836e-05
3.0257e-05
3.02298e-05
3.02016e-05
3.01727e-05
3.01427e-05
3.01119e-05
3.008e-05
3.0047e-05
3.00128e-05
2.99775e-05
2.9941e-05
2.99033e-05
2.98644e-05
2.98243e-05
2.9783e-05
2.97404e-05
2.96964e-05
2.9651e-05
2.96042e-05
2.95558e-05
2.95058e-05
2.94541e-05
2.94007e-05
2.93455e-05
2.92886e-05
2.92299e-05
2.91696e-05
2.91073e-05
2.90431e-05
2.8977e-05
2.89096e-05
2.88412e-05
2.87714e-05
2.86988e-05
2.86226e-05
2.85436e-05
2.84646e-05
2.83893e-05
2.83189e-05
2.82482e-05
2.8168e-05
2.80711e-05
2.79521e-05
2.78206e-05
2.76962e-05
2.75948e-05
2.75228e-05
2.99399e-05
2.99413e-05
2.99133e-05
2.98869e-05
2.98865e-05
2.99022e-05
2.99186e-05
2.99265e-05
2.99239e-05
2.99122e-05
2.98945e-05
2.98735e-05
2.98518e-05
2.98317e-05
2.98143e-05
2.97997e-05
2.97871e-05
2.97752e-05
2.97629e-05
2.97497e-05
2.97354e-05
2.97199e-05
2.97032e-05
2.96852e-05
2.96663e-05
2.96463e-05
2.96257e-05
2.96042e-05
2.95817e-05
2.95579e-05
2.9533e-05
2.9507e-05
2.94798e-05
2.94516e-05
2.94222e-05
2.93917e-05
2.93599e-05
2.93273e-05
2.92935e-05
2.92588e-05
2.92228e-05
2.91857e-05
2.91473e-05
2.91075e-05
2.90664e-05
2.90238e-05
2.89797e-05
2.89342e-05
2.88872e-05
2.88388e-05
2.87889e-05
2.87374e-05
2.86843e-05
2.86296e-05
2.85731e-05
2.85147e-05
2.84544e-05
2.8392e-05
2.83275e-05
2.82607e-05
2.81917e-05
2.81206e-05
2.80472e-05
2.79714e-05
2.78932e-05
2.78126e-05
2.77302e-05
2.76464e-05
2.75609e-05
2.74724e-05
2.73802e-05
2.72851e-05
2.71901e-05
2.70986e-05
2.70117e-05
2.69249e-05
2.68299e-05
2.67204e-05
2.65908e-05
2.64494e-05
2.63119e-05
2.61914e-05
2.60912e-05
2.8845e-05
2.88526e-05
2.88252e-05
2.87929e-05
2.87853e-05
2.87979e-05
2.88154e-05
2.88259e-05
2.88253e-05
2.8814e-05
2.87945e-05
2.877e-05
2.87438e-05
2.87189e-05
2.86973e-05
2.8679e-05
2.86636e-05
2.86493e-05
2.86348e-05
2.86195e-05
2.8603e-05
2.8585e-05
2.85657e-05
2.85449e-05
2.85231e-05
2.85e-05
2.84763e-05
2.84514e-05
2.84255e-05
2.83983e-05
2.83696e-05
2.83396e-05
2.83083e-05
2.82757e-05
2.82416e-05
2.82061e-05
2.81693e-05
2.81312e-05
2.80919e-05
2.80514e-05
2.80093e-05
2.7966e-05
2.79212e-05
2.78748e-05
2.78268e-05
2.7777e-05
2.77256e-05
2.76725e-05
2.76177e-05
2.75613e-05
2.75032e-05
2.74435e-05
2.73822e-05
2.73192e-05
2.72546e-05
2.71881e-05
2.71198e-05
2.70492e-05
2.69764e-05
2.69011e-05
2.68232e-05
2.67427e-05
2.66595e-05
2.65736e-05
2.64847e-05
2.63931e-05
2.6299e-05
2.6203e-05
2.61048e-05
2.60033e-05
2.58977e-05
2.57893e-05
2.56814e-05
2.55777e-05
2.54782e-05
2.53806e-05
2.52793e-05
2.5171e-05
2.50447e-05
2.49089e-05
2.47758e-05
2.46536e-05
2.45375e-05
2.76264e-05
2.76393e-05
2.76138e-05
2.75757e-05
2.75585e-05
2.7564e-05
2.75788e-05
2.75897e-05
2.75901e-05
2.75787e-05
2.75571e-05
2.75283e-05
2.74963e-05
2.74648e-05
2.74367e-05
2.74128e-05
2.73924e-05
2.73739e-05
2.73558e-05
2.73371e-05
2.73172e-05
2.7296e-05
2.72734e-05
2.72494e-05
2.72243e-05
2.71981e-05
2.7171e-05
2.7143e-05
2.71139e-05
2.70835e-05
2.70516e-05
2.70182e-05
2.69832e-05
2.69468e-05
2.69087e-05
2.68688e-05
2.68275e-05
2.67847e-05
2.67405e-05
2.6695e-05
2.66478e-05
2.65991e-05
2.65486e-05
2.64963e-05
2.64422e-05
2.63861e-05
2.6328e-05
2.6268e-05
2.62059e-05
2.61419e-05
2.60762e-05
2.60087e-05
2.59397e-05
2.58693e-05
2.57978e-05
2.57254e-05
2.56521e-05
2.55781e-05
2.55028e-05
2.54253e-05
2.53452e-05
2.52625e-05
2.5177e-05
2.50886e-05
2.49971e-05
2.49024e-05
2.48047e-05
2.47044e-05
2.46011e-05
2.44936e-05
2.43807e-05
2.42635e-05
2.41453e-05
2.40318e-05
2.39194e-05
2.3811e-05
2.37077e-05
2.36322e-05
2.35292e-05
2.34144e-05
2.33064e-05
2.32061e-05
2.30977e-05
2.64932e-05
2.65102e-05
2.64836e-05
2.64366e-05
2.64047e-05
2.63971e-05
2.64036e-05
2.64105e-05
2.6409e-05
2.63953e-05
2.63695e-05
2.63342e-05
2.62936e-05
2.62523e-05
2.62139e-05
2.61802e-05
2.6151e-05
2.61247e-05
2.60997e-05
2.60748e-05
2.60493e-05
2.60229e-05
2.59956e-05
2.59673e-05
2.59384e-05
2.59087e-05
2.58785e-05
2.58477e-05
2.5816e-05
2.57833e-05
2.57493e-05
2.57138e-05
2.56767e-05
2.56381e-05
2.55977e-05
2.55554e-05
2.55116e-05
2.54664e-05
2.54195e-05
2.53714e-05
2.53215e-05
2.52701e-05
2.52167e-05
2.51614e-05
2.51039e-05
2.50443e-05
2.49822e-05
2.49177e-05
2.48506e-05
2.47808e-05
2.47086e-05
2.46335e-05
2.45558e-05
2.44763e-05
2.43956e-05
2.43143e-05
2.42337e-05
2.41556e-05
2.40816e-05
2.40113e-05
2.39402e-05
2.38675e-05
2.37928e-05
2.37159e-05
2.36363e-05
2.3554e-05
2.3469e-05
2.33813e-05
2.32905e-05
2.31948e-05
2.30921e-05
2.29813e-05
2.28614e-05
2.27405e-05
2.26056e-05
2.24638e-05
2.23238e-05
2.23823e-05
2.23182e-05
2.22142e-05
2.21514e-05
2.21069e-05
2.20516e-05
2.19925e-05
2.57347e-05
2.56928e-05
2.56256e-05
2.55694e-05
2.55395e-05
2.55294e-05
2.55251e-05
2.55153e-05
2.54939e-05
2.54588e-05
2.54119e-05
2.53573e-05
2.53001e-05
2.5245e-05
2.51948e-05
2.51499e-05
2.51093e-05
2.50716e-05
2.50354e-05
2.49999e-05
2.49647e-05
2.49297e-05
2.4895e-05
2.48606e-05
2.48267e-05
2.4793e-05
2.47596e-05
2.47263e-05
2.46926e-05
2.46584e-05
2.4623e-05
2.45864e-05
2.45488e-05
2.45096e-05
2.44689e-05
2.44268e-05
2.43836e-05
2.43391e-05
2.42938e-05
2.42469e-05
2.41989e-05
2.41493e-05
2.40982e-05
2.4045e-05
2.399e-05
2.39325e-05
2.38725e-05
2.38093e-05
2.37426e-05
2.36716e-05
2.35951e-05
2.35117e-05
2.34209e-05
2.33232e-05
2.32181e-05
2.31068e-05
2.29949e-05
2.29013e-05
2.28479e-05
2.28017e-05
2.27564e-05
2.27122e-05
2.26689e-05
2.26256e-05
2.25823e-05
2.25389e-05
2.24958e-05
2.24534e-05
2.24115e-05
2.23703e-05
2.23329e-05
2.2299e-05
2.2271e-05
2.22447e-05
2.22264e-05
2.22237e-05
2.22634e-05
2.22966e-05
2.23261e-05
2.23563e-05
2.23811e-05
2.23895e-05
2.23908e-05
2.24232e-05
2.25234e-05
2.56692e-05
2.55785e-05
2.54677e-05
2.53692e-05
2.53028e-05
2.52636e-05
2.52366e-05
2.52074e-05
2.51671e-05
2.51121e-05
2.5043e-05
2.49641e-05
2.48807e-05
2.47981e-05
2.47203e-05
2.4649e-05
2.45837e-05
2.45235e-05
2.4467e-05
2.44135e-05
2.43624e-05
2.43137e-05
2.42674e-05
2.42235e-05
2.41821e-05
2.4143e-05
2.4106e-05
2.4071e-05
2.40374e-05
2.40047e-05
2.39725e-05
2.39403e-05
2.39082e-05
2.38756e-05
2.38426e-05
2.38093e-05
2.37758e-05
2.37422e-05
2.37089e-05
2.36756e-05
2.36427e-05
2.36098e-05
2.35774e-05
2.35451e-05
2.35133e-05
2.34817e-05
2.34506e-05
2.34201e-05
2.33903e-05
2.33613e-05
2.33329e-05
2.33052e-05
2.32788e-05
2.32535e-05
2.32291e-05
2.32058e-05
2.31854e-05
2.31703e-05
2.31603e-05
2.3151e-05
2.31417e-05
2.31327e-05
2.31243e-05
2.31166e-05
2.31101e-05
2.3105e-05
2.31027e-05
2.31047e-05
2.31127e-05
2.31286e-05
2.3155e-05
2.31899e-05
2.32333e-05
2.32827e-05
2.33477e-05
2.34308e-05
2.35277e-05
2.36327e-05
2.37367e-05
2.38299e-05
2.39067e-05
2.39612e-05
2.40025e-05
2.40727e-05
2.42124e-05
2.75543e-05
2.74054e-05
2.72406e-05
2.70895e-05
2.69761e-05
2.68972e-05
2.68368e-05
2.67785e-05
2.6711e-05
2.66285e-05
2.65306e-05
2.64208e-05
2.63043e-05
2.61866e-05
2.6073e-05
2.5966e-05
2.58662e-05
2.57732e-05
2.5686e-05
2.56037e-05
2.55257e-05
2.5452e-05
2.53826e-05
2.53178e-05
2.52577e-05
2.52022e-05
2.51511e-05
2.51044e-05
2.50616e-05
2.50221e-05
2.49851e-05
2.49502e-05
2.4917e-05
2.48849e-05
2.48536e-05
2.48233e-05
2.47938e-05
2.47654e-05
2.47383e-05
2.47124e-05
2.46882e-05
2.46657e-05
2.46454e-05
2.46274e-05
2.46122e-05
2.46002e-05
2.4592e-05
2.45884e-05
2.45898e-05
2.45976e-05
2.46111e-05
2.46319e-05
2.46621e-05
2.47021e-05
2.47484e-05
2.47929e-05
2.4831e-05
2.48625e-05
2.48887e-05
2.49107e-05
2.49297e-05
2.4947e-05
2.49636e-05
2.498e-05
2.49972e-05
2.50161e-05
2.5037e-05
2.50606e-05
2.50879e-05
2.51203e-05
2.51586e-05
2.52017e-05
2.52475e-05
2.52928e-05
2.53412e-05
2.53962e-05
2.5461e-05
2.55383e-05
2.56209e-05
2.56991e-05
2.5767e-05
2.5819e-05
2.58616e-05
2.59319e-05
2.60667e-05
3.12722e-05
3.10787e-05
3.08681e-05
3.06656e-05
3.05014e-05
3.03737e-05
3.0269e-05
3.0171e-05
3.00674e-05
2.99509e-05
2.98191e-05
2.96739e-05
2.95197e-05
2.93619e-05
2.92064e-05
2.90566e-05
2.89142e-05
2.87791e-05
2.86508e-05
2.85283e-05
2.84111e-05
2.82992e-05
2.81927e-05
2.80921e-05
2.79979e-05
2.79105e-05
2.78301e-05
2.77567e-05
2.76902e-05
2.76298e-05
2.7575e-05
2.75249e-05
2.74789e-05
2.7436e-05
2.73957e-05
2.73575e-05
2.73211e-05
2.72865e-05
2.72535e-05
2.72222e-05
2.71929e-05
2.71655e-05
2.71406e-05
2.7118e-05
2.70983e-05
2.70814e-05
2.70677e-05
2.70571e-05
2.70499e-05
2.7046e-05
2.70452e-05
2.70474e-05
2.70523e-05
2.7059e-05
2.70661e-05
2.70723e-05
2.70772e-05
2.70808e-05
2.70837e-05
2.70863e-05
2.70889e-05
2.7092e-05
2.70959e-05
2.71011e-05
2.71077e-05
2.71157e-05
2.71251e-05
2.71361e-05
2.71497e-05
2.71671e-05
2.71883e-05
2.72115e-05
2.72348e-05
2.72565e-05
2.72799e-05
2.73094e-05
2.73491e-05
2.74023e-05
2.74628e-05
2.75221e-05
2.7575e-05
2.76166e-05
2.76523e-05
2.7714e-05
2.78337e-05
3.5284e-05
3.5062e-05
3.48225e-05
3.45828e-05
3.43793e-05
3.4208e-05
3.40593e-05
3.39202e-05
3.37795e-05
3.36296e-05
3.34668e-05
3.32912e-05
3.31057e-05
3.29149e-05
3.27245e-05
3.25384e-05
3.2359e-05
3.21867e-05
3.20211e-05
3.18613e-05
3.17066e-05
3.15567e-05
3.14116e-05
3.1272e-05
3.11384e-05
3.10115e-05
3.08921e-05
3.07806e-05
3.06771e-05
3.05816e-05
3.04936e-05
3.04126e-05
3.03376e-05
3.02679e-05
3.02024e-05
3.01405e-05
3.00814e-05
3.00246e-05
2.99697e-05
2.99165e-05
2.9865e-05
2.9815e-05
2.97668e-05
2.97204e-05
2.9676e-05
2.96337e-05
2.95935e-05
2.95555e-05
2.95195e-05
2.94857e-05
2.94537e-05
2.94235e-05
2.93948e-05
2.93672e-05
2.93406e-05
2.93146e-05
2.92893e-05
2.92648e-05
2.92412e-05
2.92187e-05
2.91972e-05
2.91769e-05
2.91581e-05
2.91408e-05
2.9125e-05
2.91105e-05
2.90974e-05
2.90859e-05
2.90763e-05
2.90696e-05
2.90659e-05
2.90639e-05
2.90621e-05
2.90599e-05
2.90603e-05
2.90674e-05
2.9085e-05
2.91162e-05
2.91556e-05
2.91962e-05
2.92338e-05
2.92642e-05
2.92923e-05
2.93448e-05
2.94499e-05
2.96361e-05
2.99408e-05
3.03804e-05
3.93642e-05
3.9114e-05
3.885e-05
3.85794e-05
3.83442e-05
3.8131e-05
3.79365e-05
3.77522e-05
3.75695e-05
3.73818e-05
3.71847e-05
3.69769e-05
3.67597e-05
3.65366e-05
3.63124e-05
3.6091e-05
3.58751e-05
3.56657e-05
3.54624e-05
3.52645e-05
3.5071e-05
3.48813e-05
3.46953e-05
3.45131e-05
3.43355e-05
3.41632e-05
3.39973e-05
3.38387e-05
3.36882e-05
3.35463e-05
3.34132e-05
3.32888e-05
3.31727e-05
3.30642e-05
3.29623e-05
3.2866e-05
3.27743e-05
3.26862e-05
3.26008e-05
3.25176e-05
3.2436e-05
3.23557e-05
3.22766e-05
3.21988e-05
3.21223e-05
3.20473e-05
3.19737e-05
3.19017e-05
3.18314e-05
3.17629e-05
3.16961e-05
3.16311e-05
3.15678e-05
3.15062e-05
3.14463e-05
3.1388e-05
3.13314e-05
3.12765e-05
3.12233e-05
3.11718e-05
3.11221e-05
3.10742e-05
3.10281e-05
3.0984e-05
3.09418e-05
3.09014e-05
3.08628e-05
3.08263e-05
3.07925e-05
3.07613e-05
3.07336e-05
3.07081e-05
3.06842e-05
3.06614e-05
3.06425e-05
3.06309e-05
3.063e-05
3.06424e-05
3.06641e-05
3.06893e-05
3.07148e-05
3.07373e-05
3.07609e-05
3.08084e-05
3.09042e-05
3.10739e-05
3.13508e-05
3.17512e-05
4.25116e-05
4.22505e-05
4.19977e-05
4.17572e-05
4.15257e-05
4.12975e-05
4.10673e-05
4.08312e-05
4.05872e-05
4.03352e-05
4.00775e-05
3.98178e-05
3.95596e-05
3.93057e-05
3.90573e-05
3.88146e-05
3.85768e-05
3.8343e-05
3.81124e-05
3.78842e-05
3.76585e-05
3.74354e-05
3.72156e-05
3.7e-05
3.67898e-05
3.65863e-05
3.63904e-05
3.62033e-05
3.60257e-05
3.58578e-05
3.56997e-05
3.55508e-05
3.54103e-05
3.5277e-05
3.51498e-05
3.50274e-05
3.49085e-05
3.47923e-05
3.46779e-05
3.45649e-05
3.44529e-05
3.43419e-05
3.4232e-05
3.41232e-05
3.40157e-05
3.39098e-05
3.38055e-05
3.37032e-05
3.36029e-05
3.35048e-05
3.34089e-05
3.33154e-05
3.32242e-05
3.31355e-05
3.30492e-05
3.29654e-05
3.28841e-05
3.28053e-05
3.27291e-05
3.26555e-05
3.25846e-05
3.25165e-05
3.2451e-05
3.23883e-05
3.23286e-05
3.22727e-05
3.22207e-05
3.21725e-05
3.21279e-05
3.20862e-05
3.20474e-05
3.20139e-05
3.19884e-05
3.19738e-05
3.19727e-05
3.19819e-05
3.19972e-05
3.2016e-05
3.20361e-05
3.20608e-05
3.21096e-05
3.22039e-05
3.23674e-05
3.26299e-05
3.30067e-05
4.62603e-05
4.59689e-05
4.56797e-05
4.53968e-05
4.51197e-05
4.48456e-05
4.45712e-05
4.42932e-05
4.40095e-05
4.37197e-05
4.34248e-05
4.31273e-05
4.28303e-05
4.25363e-05
4.22468e-05
4.19625e-05
4.16829e-05
4.14072e-05
4.11346e-05
4.08642e-05
4.05954e-05
4.0328e-05
4.00621e-05
3.97983e-05
3.95373e-05
3.92804e-05
3.90288e-05
3.87841e-05
3.85478e-05
3.83211e-05
3.8105e-05
3.79e-05
3.77059e-05
3.75223e-05
3.7348e-05
3.71817e-05
3.70218e-05
3.6867e-05
3.67159e-05
3.65673e-05
3.64206e-05
3.62752e-05
3.61309e-05
3.59876e-05
3.58456e-05
3.57051e-05
3.55662e-05
3.54295e-05
3.5295e-05
3.51632e-05
3.50342e-05
3.49082e-05
3.47853e-05
3.46656e-05
3.45492e-05
3.44363e-05
3.43268e-05
3.42208e-05
3.41184e-05
3.40198e-05
3.3925e-05
3.3834e-05
3.3747e-05
3.36639e-05
3.35851e-05
3.35113e-05
3.34429e-05
3.33795e-05
3.33209e-05
3.3267e-05
3.32177e-05
3.3175e-05
3.31413e-05
3.31191e-05
3.31106e-05
3.3114e-05
3.31261e-05
3.31451e-05
3.31694e-05
3.32021e-05
3.32599e-05
3.33619e-05
3.35301e-05
3.37918e-05
3.41598e-05
3.44213e-05
3.42895e-05
3.33723e-05
3.15255e-05
2.99779e-05
4.96681e-05
4.9353e-05
4.90351e-05
4.87172e-05
4.84007e-05
4.8085e-05
4.77686e-05
4.74495e-05
4.71261e-05
4.67976e-05
4.64645e-05
4.61286e-05
4.57921e-05
4.54572e-05
4.51258e-05
4.47987e-05
4.44761e-05
4.41576e-05
4.38425e-05
4.353e-05
4.32194e-05
4.29101e-05
4.26017e-05
4.22941e-05
4.19875e-05
4.16824e-05
4.13797e-05
4.10809e-05
4.07875e-05
4.05015e-05
4.02247e-05
3.99587e-05
3.97047e-05
3.94632e-05
3.92343e-05
3.9017e-05
3.88102e-05
3.86122e-05
3.84213e-05
3.82358e-05
3.80542e-05
3.78755e-05
3.76988e-05
3.75238e-05
3.73502e-05
3.71783e-05
3.70082e-05
3.68404e-05
3.66752e-05
3.6513e-05
3.63542e-05
3.6199e-05
3.60478e-05
3.59007e-05
3.57579e-05
3.56196e-05
3.54859e-05
3.53568e-05
3.52326e-05
3.51134e-05
3.49994e-05
3.48906e-05
3.4787e-05
3.46889e-05
3.45965e-05
3.45104e-05
3.4431e-05
3.43582e-05
3.42918e-05
3.42317e-05
3.41781e-05
3.41325e-05
3.4097e-05
3.40739e-05
3.40652e-05
3.40701e-05
3.40866e-05
3.41133e-05
3.41496e-05
3.41981e-05
3.42733e-05
3.43929e-05
3.45774e-05
3.48514e-05
3.52245e-05
3.55007e-05
3.54409e-05
3.471e-05
3.30433e-05
3.11782e-05
5.25599e-05
5.22338e-05
5.18991e-05
5.15577e-05
5.12124e-05
5.08642e-05
5.0513e-05
5.01584e-05
4.97993e-05
4.94354e-05
4.90669e-05
4.8695e-05
4.83214e-05
4.79481e-05
4.75768e-05
4.72086e-05
4.68443e-05
4.64839e-05
4.61274e-05
4.57741e-05
4.54236e-05
4.50752e-05
4.47283e-05
4.43826e-05
4.40374e-05
4.36928e-05
4.33486e-05
4.30055e-05
4.26645e-05
4.23271e-05
4.19955e-05
4.16718e-05
4.13585e-05
4.10574e-05
4.077e-05
4.04969e-05
4.02379e-05
3.9992e-05
3.97576e-05
3.9533e-05
3.93161e-05
3.91052e-05
3.88987e-05
3.86956e-05
3.84952e-05
3.82971e-05
3.81014e-05
3.79083e-05
3.77182e-05
3.75315e-05
3.73488e-05
3.71704e-05
3.69967e-05
3.6828e-05
3.66648e-05
3.65071e-05
3.63551e-05
3.62092e-05
3.60693e-05
3.59358e-05
3.58089e-05
3.56886e-05
3.5575e-05
3.54683e-05
3.53688e-05
3.5277e-05
3.51934e-05
3.5118e-05
3.50503e-05
3.49908e-05
3.49395e-05
3.48978e-05
3.48676e-05
3.48508e-05
3.48496e-05
3.4864e-05
3.48929e-05
3.49356e-05
3.49919e-05
3.50646e-05
3.51665e-05
3.53139e-05
3.5526e-05
3.58244e-05
3.6214e-05
3.6511e-05
3.65272e-05
3.59717e-05
3.45249e-05
3.25643e-05
5.47379e-05
5.44182e-05
5.40833e-05
5.37347e-05
5.33759e-05
5.30092e-05
5.26358e-05
5.22564e-05
5.18711e-05
5.14801e-05
5.10837e-05
5.06829e-05
5.02791e-05
4.98739e-05
4.9469e-05
4.90658e-05
4.86654e-05
4.82682e-05
4.78747e-05
4.74847e-05
4.70983e-05
4.67151e-05
4.63347e-05
4.59567e-05
4.55805e-05
4.52056e-05
4.48312e-05
4.44571e-05
4.40831e-05
4.37098e-05
4.33383e-05
4.29705e-05
4.26089e-05
4.22562e-05
4.19153e-05
4.15883e-05
4.12767e-05
4.09812e-05
4.07012e-05
4.04357e-05
4.01828e-05
3.99404e-05
3.97066e-05
3.94794e-05
3.92574e-05
3.90397e-05
3.88256e-05
3.86151e-05
3.84082e-05
3.82054e-05
3.8007e-05
3.78137e-05
3.76258e-05
3.74438e-05
3.7268e-05
3.7099e-05
3.69368e-05
3.67819e-05
3.66343e-05
3.64943e-05
3.63622e-05
3.62381e-05
3.61222e-05
3.60146e-05
3.59156e-05
3.58256e-05
3.57451e-05
3.56742e-05
3.56127e-05
3.55609e-05
3.55191e-05
3.54886e-05
3.54709e-05
3.54681e-05
3.54824e-05
3.55145e-05
3.55641e-05
3.56313e-05
3.57162e-05
3.58216e-05
3.59593e-05
3.61443e-05
3.63942e-05
3.67268e-05
3.71403e-05
3.74607e-05
3.75529e-05
3.71602e-05
3.59487e-05
3.4035e-05
5.59937e-05
5.57022e-05
5.53882e-05
5.50533e-05
5.47013e-05
5.43354e-05
5.39579e-05
5.35704e-05
5.31741e-05
5.27699e-05
5.23586e-05
5.19414e-05
5.15194e-05
5.10942e-05
5.06674e-05
5.02404e-05
4.98146e-05
4.93909e-05
4.89701e-05
4.85527e-05
4.81389e-05
4.7729e-05
4.73229e-05
4.69206e-05
4.65217e-05
4.6126e-05
4.57326e-05
4.53408e-05
4.49498e-05
4.45589e-05
4.41678e-05
4.37772e-05
4.33884e-05
4.30036e-05
4.26259e-05
4.22584e-05
4.19041e-05
4.15654e-05
4.12437e-05
4.09394e-05
4.0652e-05
4.03799e-05
4.01212e-05
3.98737e-05
3.96355e-05
3.94047e-05
3.91802e-05
3.89611e-05
3.8747e-05
3.8538e-05
3.83342e-05
3.81361e-05
3.79441e-05
3.77588e-05
3.75805e-05
3.74098e-05
3.7247e-05
3.70923e-05
3.69462e-05
3.68088e-05
3.66804e-05
3.65612e-05
3.64514e-05
3.63512e-05
3.62608e-05
3.61807e-05
3.61111e-05
3.60524e-05
3.60045e-05
3.59678e-05
3.59428e-05
3.59305e-05
3.59327e-05
3.59513e-05
3.59889e-05
3.60468e-05
3.61253e-05
3.6225e-05
3.63466e-05
3.64929e-05
3.66747e-05
3.6906e-05
3.72016e-05
3.75743e-05
3.80145e-05