/*--------------------------------*- C++ -*----------------------------------*\
| =========                 |                                                 |
| \\      /  F ield         | OpenFOAM: The Open Source CFD Toolbox           |
|  \\    /   O peration     | Version:  2412                                  |
|   \\  /    A nd           | Website:  www.openfoam.com                      |
|    \\/     M anipulation  |                                                 |
\*---------------------------------------------------------------------------*/
FoamFile
{
    version     2.0;
    format      ascii;
    arch        "LSB;label=32;scalar=64";
    class       volVectorField;
    location    "120";
    object      U;
}
// * * * * * * * * * * * * * * * * * * * * * * * * * * * * * * * * * * * * * //

dimensions      [0 1 -1 0 0 0 0];

internalField   nonuniform List<vector> 
8702
(
(0.919383 -0.251715 3.48526e-19)
(0.918684 -0.252816 0)
(0.918245 -0.253956 -3.35156e-19)
(0.917862 -0.255079 -3.28691e-19)
(0.917275 -0.256116 0)
(0.916677 -0.257119 -3.16123e-19)
(0.916109 -0.258102 2.95648e-25)
(0.91555 -0.259062 -2.89901e-25)
(0.915007 -0.26 -2.98038e-19)
(0.9145 -0.260925 0)
(0.914007 -0.26183 2.86332e-19)
(0.913521 -0.262715 -2.80534e-19)
(0.91304 -0.263581 1.28414e-25)
(0.91258 -0.264431 -5.21046e-27)
(0.912129 -0.265265 1.31596e-19)
(0.911704 -0.266086 0)
(0.911267 -0.266886 -1.17254e-25)
(0.910845 -0.267671 1.22773e-19)
(0.910457 -0.268448 3.87006e-27)
(0.910054 -0.269205 1.12232e-26)
(0.909658 -0.269945 0)
(0.909286 -0.270675 -1.10316e-19)
(0.90891 -0.271388 0)
(0.90855 -0.272087 1.03577e-19)
(0.908209 -0.272778 0)
(0.907881 -0.273456 0)
(0.907543 -0.274115 0)
(0.907235 -0.274766 -8.84894e-20)
(0.906943 -0.275405 -1.60675e-25)
(0.906649 -0.276028 3.99241e-20)
(0.906383 -0.276643 3.75888e-20)
(0.906135 -0.277249 6.35134e-26)
(0.905884 -0.277837 3.25025e-20)
(0.905659 -0.278416 5.30156e-26)
(0.90545 -0.278985 -5.47194e-26)
(0.90523 -0.279533 -4.72084e-20)
(0.905046 -0.280076 0)
(0.904872 -0.280607 -1.6617e-20)
(0.904719 -0.281127 0)
(0.904586 -0.281638 1.18859e-26)
(0.904471 -0.282138 -1.23192e-26)
(0.904367 -0.282626 -3.55096e-22)
(0.904279 -0.283103 -2.95253e-21)
(0.904208 -0.28357 5.75612e-21)
(0.904178 -0.284034 0)
(0.904173 -0.28449 1.2062e-20)
(0.904189 -0.284937 1.56078e-20)
(0.904222 -0.285374 -1.94477e-20)
(0.904279 -0.285803 2.36087e-20)
(0.904349 -0.286222 -1.40595e-20)
(0.904444 -0.286633 -1.19113e-25)
(0.904581 -0.287043 0)
(0.904752 -0.287451 0)
(0.904949 -0.287852 0)
(0.905184 -0.288252 2.26426e-25)
(0.90547 -0.288654 3.22287e-20)
(0.905786 -0.289054 0)
(0.906136 -0.289452 0)
(0.906535 -0.289852 2.68123e-27)
(0.907005 -0.290262 2.51681e-20)
(0.907522 -0.290679 2.7926e-20)
(0.90807 -0.291094 -3.09105e-20)
(0.908695 -0.291523 -6.82826e-20)
(0.909416 -0.291965 -5.5424e-25)
(0.910258 -0.292431 2.06994e-20)
(0.911173 -0.292922 6.80063e-25)
(0.912142 -0.293439 2.49033e-20)
(0.913112 -0.293963 0)
(0.914163 -0.294475 9.78507e-27)
(0.915567 -0.295032 0)
(0.917541 -0.295713 -1.76678e-20)
(0.919985 -0.296581 1.91633e-20)
(0.922222 -0.297556 4.14486e-20)
(0.923797 -0.298478 -2.23886e-20)
(0.924423 -0.299184 1.49431e-24)
(0.925397 -0.299652 -2.61238e-20)
(0.928959 -0.300417 -1.69967e-24)
(0.935963 -0.301826 -4.58519e-26)
(0.948002 -0.304553 -1.59778e-20)
(0.962152 -0.308888 0)
(0.972361 -0.313521 -1.73102e-20)
(0.9772 -0.317813 0)
(2.8319 -0.775333 -2.80923e-25)
(2.82971 -0.77872 5.68628e-19)
(2.82834 -0.782225 0)
(2.82719 -0.785691 0)
(2.82543 -0.788897 0)
(2.8236 -0.79199 -5.2606e-19)
(2.82182 -0.795012 -5.15884e-19)
(2.82012 -0.797972 2.45513e-25)
(2.81847 -0.80087 4.9603e-19)
(2.8169 -0.803718 -4.8627e-19)
(2.81536 -0.806502 2.31538e-25)
(2.81387 -0.809226 0)
(2.8124 -0.811895 0)
(2.81098 -0.814515 -2.09174e-25)
(2.80959 -0.817084 -2.19079e-19)
(2.80829 -0.819616 -2.08687e-25)
(2.80697 -0.822086 2.09368e-19)
(2.80568 -0.824506 1.90487e-25)
(2.80445 -0.826893 -1.99421e-19)
(2.80323 -0.829226 3.37651e-26)
(2.80204 -0.831517 0)
(2.80089 -0.833766 -1.70542e-25)
(2.79976 -0.835966 1.78244e-19)
(2.79866 -0.838128 -1.72564e-19)
(2.79762 -0.840257 0)
(2.79662 -0.84235 -1.60565e-19)
(2.7956 -0.844384 -2.93987e-25)
(2.79466 -0.846393 1.81212e-25)
(2.79376 -0.848362 0)
(2.79288 -0.850289 -6.65872e-20)
(2.79207 -0.852185 -1.1399e-25)
(2.7913 -0.854049 5.86121e-20)
(2.79055 -0.855869 0)
(2.78985 -0.857651 0)
(2.78922 -0.859406 -7.90388e-26)
(2.7886 -0.861113 1.09809e-25)
(2.78805 -0.862791 0)
(2.78753 -0.864432 5.58029e-20)
(2.78709 -0.866045 -2.14717e-20)
(2.7867 -0.867625 0)
(2.78638 -0.869176 3.57078e-21)
(2.78609 -0.870687 9.66762e-27)
(2.78585 -0.872169 -1.0034e-26)
(2.78568 -0.873623 -9.38962e-21)
(2.78563 -0.875064 0)
(2.78563 -0.876475 0)
(2.78571 -0.877861 -2.57351e-20)
(2.78585 -0.879219 -1.12577e-25)
(2.78608 -0.880558 -3.90078e-20)
(2.78637 -0.881873 4.64902e-20)
(2.78676 -0.883171 0)
(2.78723 -0.884452 -3.17019e-20)
(2.78782 -0.885725 0)
(2.7885 -0.886987 3.31433e-25)
(2.78931 -0.888245 2.79209e-26)
(2.79024 -0.889503 -5.33725e-20)
(2.79129 -0.890759 4.73374e-25)
(2.79248 -0.89202 -3.35822e-20)
(2.79383 -0.89329 3.74722e-20)
(2.79536 -0.894584 -8.08977e-27)
(2.79706 -0.895901 0)
(2.79888 -0.897226 5.11975e-20)
(2.80092 -0.898584 1.13092e-19)
(2.80326 -0.899985 6.23248e-20)
(2.80596 -0.901456 -3.42772e-20)
(2.80891 -0.903014 0)
(2.81204 -0.904653 1.28235e-24)
(2.81516 -0.906314 -2.75414e-24)
(2.81857 -0.907947 4.928e-20)
(2.823 -0.909701 0)
(2.82907 -0.911804 2.92295e-20)
(2.83652 -0.914459 0)
(2.84349 -0.917484 -3.58482e-26)
(2.84864 -0.920414 3.7014e-20)
(2.85107 -0.92275 0)
(2.85435 -0.924302 -2.5935e-24)
(2.86486 -0.926555 5.66965e-24)
(2.88526 -0.930591 -2.48787e-20)
(2.92011 -0.938348 2.63732e-20)
(2.9615 -0.950997 0)
(2.99248 -0.965038 2.85473e-20)
(3.00822 -0.978424 -2.95677e-20)
(4.89764 -1.3409 0)
(4.89379 -1.34674 -6.42975e-19)
(4.89141 -1.3528 -2.95774e-25)
(4.88946 -1.35881 6.18433e-19)
(4.8865 -1.36437 6.06536e-19)
(4.88336 -1.36973 5.94828e-19)
(4.88028 -1.37495 1.74487e-25)
(4.87736 -1.38008 -5.72017e-19)
(4.87453 -1.3851 5.60863e-19)
(4.87181 -1.39003 5.49823e-19)
(4.86916 -1.39484 -5.38867e-19)
(4.86658 -1.39956 0)
(4.86406 -1.40418 0)
(4.86161 -1.40871 0)
(4.85922 -1.41315 0)
(4.85695 -1.41753 -2.26035e-25)
(4.85469 -1.42181 -2.36711e-19)
(4.85247 -1.426 2.31126e-19)
(4.85033 -1.43012 2.09902e-25)
(4.84824 -1.43417 2.19683e-19)
(4.84621 -1.43813 -1.98642e-25)
(4.84423 -1.44203 3.96135e-25)
(4.84229 -1.44584 -2.015e-19)
(4.84043 -1.44959 3.71986e-25)
(4.83863 -1.45327 1.88418e-19)
(4.83691 -1.45689 1.815e-19)
(4.83517 -1.46042 0)
(4.83355 -1.46389 1.66742e-19)
(4.832 -1.4673 1.45425e-25)
(4.83052 -1.47064 -7.52601e-20)
(4.82911 -1.47393 -1.41381e-25)
(4.82778 -1.47715 -6.62412e-20)
(4.82652 -1.4803 6.13293e-20)
(4.82532 -1.48339 -5.61111e-20)
(4.82423 -1.48643 0)
(4.82321 -1.4894 4.46327e-20)
(4.82228 -1.49231 -1.45867e-25)
(4.8214 -1.49515 -3.15252e-20)
(4.82067 -1.49795 1.0339e-25)
(4.82004 -1.50069 0)
(4.81951 -1.50339 -4.03388e-21)
(4.81903 -1.50601 -4.82569e-22)
(4.81867 -1.50859 1.13341e-26)
(4.81845 -1.51112 -1.03448e-25)
(4.81838 -1.51362 -2.00933e-26)
(4.81843 -1.51608 2.242e-20)
(4.81861 -1.51849 2.90608e-20)
(4.81891 -1.52086 3.62514e-20)
(4.81936 -1.52319 -4.40414e-20)
(4.81995 -1.52549 -2.6242e-20)
(4.82071 -1.52777 2.48507e-25)
(4.82162 -1.53001 3.57815e-20)
(4.82271 -1.53224 3.00059e-25)
(4.82399 -1.53445 3.74007e-25)
(4.8255 -1.53667 -3.91577e-25)
(4.8272 -1.53887 -4.76289e-25)
(4.82912 -1.54108 6.76666e-20)
(4.83132 -1.5433 3.78757e-20)
(4.83379 -1.54555 4.22566e-20)
(4.83657 -1.54783 -4.70039e-20)
(4.83965 -1.55015 7.75274e-25)
(4.84297 -1.5525 0)
(4.84666 -1.5549 -6.37201e-20)
(4.85086 -1.55738 0)
(4.85568 -1.55998 3.86102e-20)
(4.861 -1.56274 -4.23736e-20)
(4.86658 -1.56564 0)
(4.87222 -1.56859 -5.07681e-20)
(4.87837 -1.5715 -5.54467e-20)
(4.88619 -1.5746 -3.63122e-24)
(4.89669 -1.57825 4.06979e-24)
(4.90952 -1.58283 -4.29238e-24)
(4.92173 -1.58811 -3.85137e-20)
(4.93114 -1.59332 0)
(4.93612 -1.59761 4.48673e-20)
(4.94224 -1.60048 4.84565e-20)
(4.95978 -1.60425 -6.42222e-24)
(4.9934 -1.61082 6.75739e-24)
(5.05047 -1.62333 -2.9558e-20)
(5.11901 -1.64425 -3.08565e-20)
(5.17221 -1.6683 3.1967e-20)
(5.20111 -1.69181 3.30763e-20)
(7.06611 -1.9346 -7.40174e-19)
(7.06045 -1.94299 -7.03403e-25)
(7.05699 -1.95173 -7.1181e-19)
(7.05423 -1.96041 -6.98097e-19)
(7.0501 -1.96848 -1.14341e-24)
(7.04564 -1.97623 0)
(7.04123 -1.98377 6.58442e-19)
(7.03703 -1.99117 6.45679e-19)
(7.03298 -1.99843 -4.76029e-25)
(7.02908 -2.00554 0)
(7.02528 -2.01249 6.08241e-19)
(7.02157 -2.0193 0)
(7.01795 -2.02597 0)
(7.01443 -2.03251 0)
(7.011 -2.03893 0)
(7.00774 -2.04525 0)
(7.00449 -2.05143 0)
(7.00132 -2.05748 -5.21689e-19)
(6.99825 -2.06344 -2.54443e-19)
(6.99527 -2.06928 0)
(6.99235 -2.07501 2.41251e-19)
(6.98951 -2.08063 2.34412e-19)
(6.98674 -2.08614 0)
(6.9841 -2.09156 4.07491e-25)
(6.98151 -2.09688 -4.25207e-19)
(6.97904 -2.1021 2.04789e-19)
(6.97657 -2.10721 -3.61991e-25)
(6.97423 -2.11222 1.88122e-19)
(6.97201 -2.11714 0)
(6.9699 -2.12198 8.49025e-20)
(6.96789 -2.12672 7.99531e-20)
(6.96598 -2.13137 0)
(6.96419 -2.13593 -6.91763e-20)
(6.96249 -2.1404 6.3287e-20)
(6.96094 -2.14479 -2.01466e-25)
(6.9595 -2.14908 -5.03342e-20)
(6.95821 -2.1533 1.81316e-25)
(6.95699 -2.15741 0)
(6.95598 -2.16146 2.73528e-20)
(6.9551 -2.16543 5.17959e-26)
(6.95438 -2.16933 -5.36744e-26)
(6.95374 -2.17313 5.43965e-22)
(6.95329 -2.17687 0)
(6.95303 -2.18055 1.19528e-20)
(6.95299 -2.18418 0)
(6.95314 -2.18775 -2.52627e-20)
(6.95347 -2.19125 4.92913e-26)
(6.95398 -2.1947 -4.08392e-20)
(6.95473 -2.19809 4.96086e-20)
(6.95567 -2.20144 4.79766e-25)
(6.95688 -2.20476 5.8909e-26)
(6.9583 -2.20804 6.16762e-26)
(6.96001 -2.2113 -6.75589e-25)
(6.962 -2.21454 8.4194e-25)
(6.9643 -2.21777 -8.81334e-25)
(6.96691 -2.221 0)
(6.96986 -2.22425 -1.0754e-24)
(6.9732 -2.22751 -4.25966e-20)
(6.97696 -2.23081 -4.75146e-20)
(6.98116 -2.23417 0)
(6.9858 -2.23759 0)
(6.99084 -2.24106 0)
(6.99642 -2.24461 7.15736e-20)
(7.0027 -2.24826 2.4607e-24)
(7.00987 -2.25208 -5.27032e-24)
(7.01781 -2.25616 9.51014e-20)
(7.02618 -2.26044 -3.23895e-24)
(7.03468 -2.26482 5.69332e-20)
(7.04392 -2.26915 1.28362e-25)
(7.05543 -2.27371 -8.26783e-24)
(7.07061 -2.27901 4.42736e-24)
(7.0891 -2.28562 0)
(7.10703 -2.29334 4.30843e-20)
(7.12133 -2.30108 -5.74404e-24)
(7.12971 -2.30764 -5.01311e-20)
(7.13933 -2.31208 -6.68235e-24)
(7.16383 -2.31739 7.03145e-24)
(7.21003 -2.32632 -7.62516e-24)
(7.28789 -2.34315 6.58653e-20)
(7.38255 -2.37201 3.43583e-20)
(7.45902 -2.40646 -3.55486e-20)
(7.50356 -2.44106 0)
(9.2807 -2.54092 8.33513e-19)
(9.2731 -2.5519 -7.66938e-25)
(9.26849 -2.56336 8.01562e-19)
(9.26497 -2.57478 -7.62167e-25)
(9.25978 -2.58545 -1.54193e-18)
(9.25405 -2.59566 7.08681e-25)
(9.24832 -2.60559 -7.41422e-19)
(9.24284 -2.61532 0)
(9.23756 -2.62486 -1.05207e-24)
(9.23247 -2.63421 6.54104e-25)
(9.22751 -2.64335 -6.65435e-25)
(9.22267 -2.6523 -6.27525e-25)
(9.21793 -2.66107 2.47812e-26)
(9.21333 -2.66967 6.25953e-25)
(9.20888 -2.67812 0)
(9.20462 -2.68642 5.74415e-25)
(9.20038 -2.69454 -1.14719e-24)
(9.19625 -2.70251 5.87288e-19)
(9.19227 -2.71034 2.86427e-19)
(9.18837 -2.71802 0)
(9.18456 -2.72556 -6.61885e-25)
(9.18087 -2.73295 -2.6385e-19)
(9.17728 -2.7402 2.55921e-19)
(9.17385 -2.74733 -4.86207e-25)
(9.17048 -2.75432 2.39268e-19)
(9.16726 -2.7612 -2.30463e-19)
(9.16405 -2.76791 -4.36481e-25)
(9.16101 -2.77451 -2.11684e-19)
(9.15813 -2.78098 -3.99587e-25)
(9.15538 -2.78734 3.48668e-25)
(9.15278 -2.79358 -1.79901e-19)
(9.15031 -2.7997 8.40578e-20)
(9.14798 -2.80571 -7.78149e-20)
(9.1458 -2.81159 -2.54037e-25)
(9.1438 -2.81736 2.62144e-25)
(9.14195 -2.82301 5.66066e-20)
(9.1403 -2.82857 4.85696e-20)
(9.13877 -2.83399 -3.99697e-20)
(9.13749 -2.83933 -3.07518e-20)
(9.13638 -2.84457 4.19228e-26)
(9.13549 -2.8497 6.03309e-26)
(9.13473 -2.85472 0)
(9.13422 -2.85966 6.77877e-21)
(9.13396 -2.86452 1.34311e-20)
(9.13398 -2.86931 1.83247e-25)
(9.13425 -2.87402 2.83779e-20)
(9.13476 -2.87865 -5.536e-26)
(9.13555 -2.88321 3.21615e-25)
(9.13665 -2.88771 -5.56977e-20)
(9.13801 -2.89215 -4.75364e-25)
(9.13973 -2.89655 0)
(9.14175 -2.9009 7.25201e-25)
(9.14416 -2.90524 -7.5789e-25)
(9.14693 -2.90955 0)
(9.15012 -2.91385 -6.73066e-20)
(9.15375 -2.91817 8.32999e-26)
(9.15784 -2.9225 -9.60771e-25)
(9.16245 -2.92686 9.54461e-20)
(9.16761 -2.93127 0)
(9.17336 -2.93576 0)
(9.17973 -2.94034 0)
(9.18665 -2.945 0)
(9.19428 -2.94977 -8.0036e-20)
(9.20284 -2.95467 -2.63121e-24)
(9.21255 -2.9598 -4.84237e-20)
(9.22332 -2.96526 9.31333e-26)
(9.2347 -2.97102 -5.81156e-20)
(9.24633 -2.97693 -6.35057e-20)
(9.25892 -2.98278 6.92923e-20)
(9.27433 -2.98888 0)
(9.29431 -2.99589 0)
(9.31857 -3.00459 0)
(9.34252 -3.01485 -4.7906e-20)
(9.3623 -3.02532 5.1661e-20)
(9.37498 -3.03446 1.63695e-25)
(9.38872 -3.04073 -7.23931e-24)
(9.41992 -3.04755 0)
(9.47759 -3.05857 -3.44195e-20)
(9.5739 -3.07906 -7.2815e-20)
(9.69248 -3.11522 0)
(9.79235 -3.16011 -3.92054e-20)
(9.85483 -3.20652 0)
(11.4827 -3.14379 0)
(11.4731 -3.15732 0)
(11.4672 -3.17145 -9.00174e-19)
(11.463 -3.18562 8.55914e-25)
(11.4569 -3.19891 8.65771e-19)
(11.45 -3.21161 0)
(11.4431 -3.22393 1.66511e-18)
(11.4363 -3.23598 0)
(11.4299 -3.2478 -1.60085e-18)
(11.4236 -3.25939 7.62096e-25)
(11.4175 -3.27071 0)
(11.4116 -3.2818 0)
(11.4058 -3.29266 -7.37821e-19)
(11.4001 -3.30332 -3.61146e-19)
(11.3947 -3.31378 0)
(11.3894 -3.32407 -6.44853e-25)
(11.3842 -3.33413 6.5815e-25)
(11.3792 -3.34401 -6.5925e-19)
(11.3743 -3.35371 -6.27654e-25)
(11.3695 -3.36323 -3.13239e-19)
(11.3649 -3.37257 -3.04788e-19)
(11.3604 -3.38173 -5.49672e-25)
(11.356 -3.39072 -1.31017e-24)
(11.3517 -3.39955 5.45611e-25)
(11.3476 -3.40822 -2.68483e-19)
(11.3437 -3.41675 -2.58585e-19)
(11.3398 -3.42507 0)
(11.3361 -3.43324 2.37481e-19)
(11.3325 -3.44127 0)
(11.3292 -3.44915 0)
(11.326 -3.45688 2.01775e-19)
(11.323 -3.46447 -9.42711e-20)
(11.3202 -3.47191 8.72603e-20)
(11.3175 -3.47921 5.6968e-25)
(11.3151 -3.48637 -5.87796e-25)
(11.3128 -3.49338 4.42394e-25)
(11.3108 -3.50027 -5.44414e-20)
(11.309 -3.507 4.47954e-20)
(11.3075 -3.51363 6.89183e-20)
(11.3062 -3.52012 -1.30467e-25)
(11.3051 -3.5265 1.35164e-25)
(11.3043 -3.53274 0)
(11.3037 -3.53888 -7.5914e-21)
(11.3035 -3.54492 -1.50388e-20)
(11.3036 -3.55087 2.30786e-20)
(11.304 -3.55672 7.69354e-25)
(11.3047 -3.56248 -4.11514e-20)
(11.3058 -3.56817 0)
(11.3073 -3.57378 6.22979e-20)
(11.3091 -3.57931 -1.0631e-24)
(11.3114 -3.5848 0)
(11.3141 -3.59025 0)
(11.3172 -3.59566 5.80812e-20)
(11.3208 -3.60105 -6.62722e-20)
(11.325 -3.60645 7.51497e-20)
(11.3297 -3.61185 8.47546e-20)
(11.3349 -3.61729 -9.51656e-20)
(11.3409 -3.62277 -1.06442e-19)
(11.3475 -3.62831 -5.93171e-20)
(11.3549 -3.63395 -6.59067e-20)
(11.3631 -3.63972 0)
(11.3719 -3.6456 0)
(11.3817 -3.65161 8.90335e-20)
(11.3926 -3.65778 -9.79811e-20)
(11.405 -3.66424 0)
(11.4186 -3.67113 -1.17906e-19)
(11.4332 -3.67841 6.44762e-20)
(11.448 -3.68589 7.03983e-20)
(11.4641 -3.69331 0)
(11.4835 -3.70099 8.35227e-20)
(11.5082 -3.70969 -1.0901e-23)
(11.5381 -3.72045 4.90281e-20)
(11.5681 -3.73327 -5.2873e-20)
(11.5937 -3.74658 -5.69512e-20)
(11.6114 -3.75853 1.47948e-23)
(11.6299 -3.76683 0)
(11.6673 -3.77511 -7.08808e-20)
(11.7348 -3.78785 7.55356e-20)
(11.8464 -3.81118 3.98591e-20)
(11.9854 -3.85363 -2.01023e-23)
(12.1074 -3.90851 8.55927e-20)
(12.1893 -3.96701 -4.41449e-20)
(13.6162 -3.72791 -1.04875e-18)
(13.6046 -3.74389 0)
(13.5974 -3.76058 2.01701e-18)
(13.5924 -3.77741 -1.85512e-24)
(13.5857 -3.79329 9.69889e-19)
(13.5779 -3.80844 0)
(13.5698 -3.8231 -9.32616e-19)
(13.5619 -3.83743 -1.71328e-24)
(13.5543 -3.85147 1.79314e-18)
(13.547 -3.86523 1.70721e-24)
(13.5399 -3.87868 0)
(13.5329 -3.89184 0)
(13.5261 -3.90475 1.65265e-18)
(13.5194 -3.91741 8.08897e-19)
(13.513 -3.92983 -6.2912e-26)
(13.5069 -3.94205 -6.33175e-26)
(13.5008 -3.95401 3.78041e-19)
(13.4949 -3.96574 7.38133e-19)
(13.4891 -3.97727 -3.59953e-19)
(13.4835 -3.98858 7.0135e-19)
(13.4781 -3.99967 0)
(13.4728 -4.01055 0)
(13.4676 -4.02122 -3.2146e-19)
(13.4627 -4.03172 -1.15198e-24)
(13.4579 -4.04202 3.00458e-19)
(13.4532 -4.05214 2.61311e-24)
(13.4486 -4.06203 0)
(13.4443 -4.07174 -2.65685e-19)
(13.4402 -4.08127 -7.62493e-26)
(13.4362 -4.09063 -1.19848e-19)
(13.4325 -4.09982 -1.12832e-19)
(13.429 -4.10883 1.05417e-19)
(13.4257 -4.11767 0)
(13.4226 -4.12634 0)
(13.4197 -4.13484 8.03644e-20)
(13.4171 -4.14318 0)
(13.4148 -4.15136 0)
(13.4127 -4.15937 0)
(13.4109 -4.16723 -7.69824e-20)
(13.4094 -4.17495 2.50616e-25)
(13.4082 -4.18253 0)
(13.4073 -4.18996 -7.66922e-22)
(13.4067 -4.19726 -7.1809e-26)
(13.4065 -4.20445 0)
(13.4067 -4.21153 -2.57454e-20)
(13.4072 -4.21849 -7.08499e-20)
(13.4082 -4.22536 4.58827e-20)
(13.4096 -4.23212 5.7188e-20)
(13.4114 -4.23881 6.94184e-20)
(13.4137 -4.24542 4.13245e-20)
(13.4165 -4.25197 -2.96299e-24)
(13.4198 -4.25847 1.63203e-24)
(13.4237 -4.26494 -6.46229e-20)
(13.4281 -4.27139 7.37044e-20)
(13.4332 -4.27784 -2.65028e-24)
(13.4389 -4.28431 3.83702e-24)
(13.4454 -4.29082 1.05684e-19)
(13.4526 -4.29738 5.90626e-20)
(13.4607 -4.30403 6.57988e-20)
(13.4696 -4.3108 -6.32024e-25)
(13.4796 -4.31772 8.09075e-20)
(13.4904 -4.3248 -8.93625e-20)
(13.5022 -4.33202 -1.96972e-19)
(13.5155 -4.33945 1.08283e-19)
(13.5303 -4.3472 1.45105e-23)
(13.5468 -4.35547 6.50381e-20)
(13.5644 -4.36423 -7.10729e-20)
(13.5825 -4.37326 7.75229e-20)
(13.602 -4.38222 8.44278e-20)
(13.6251 -4.39143 -1.8352e-19)
(13.6542 -4.40175 0)
(13.6893 -4.41442 1.35094e-23)
(13.725 -4.4297 1.15706e-19)
(13.7566 -4.44582 0)
(13.7798 -4.46068 -1.65428e-23)
(13.8033 -4.47115 7.19797e-20)
(13.8463 -4.48079 7.70777e-20)
(13.9215 -4.49481 -4.09987e-20)
(14.0444 -4.52001 0)
(14.1991 -4.5674 0)
(14.3406 -4.63124 2.76793e-23)
(14.4419 -4.70148 4.75589e-20)
(15.633 -4.28005 5.87296e-24)
(15.6194 -4.29834 0)
(15.6107 -4.31739 -1.12815e-18)
(15.605 -4.33672 -2.14521e-24)
(15.5978 -4.3551 -5.86817e-24)
(15.5893 -4.37262 -1.06376e-18)
(15.5803 -4.38954 -2.02424e-24)
(15.5715 -4.40604 1.02271e-18)
(15.5629 -4.42219 -1.00265e-18)
(15.5546 -4.43802 0)
(15.5465 -4.45349 0)
(15.5385 -4.46864 0)
(15.5308 -4.48348 -9.23902e-19)
(15.5232 -4.49803 -4.52178e-19)
(15.516 -4.51232 -4.42374e-19)
(15.5089 -4.52637 0)
(15.502 -4.54012 -4.2257e-19)
(15.4953 -4.55361 -4.12502e-19)
(15.4888 -4.56687 4.02287e-19)
(15.4825 -4.57988 -7.83755e-19)
(15.4763 -4.59264 0)
(15.4702 -4.60515 0)
(15.4644 -4.61743 0)
(15.4588 -4.6295 0)
(15.4533 -4.64135 0)
(15.448 -4.65298 4.35622e-24)
(15.4428 -4.66436 0)
(15.4379 -4.67552 2.96634e-19)
(15.4332 -4.68648 1.03441e-24)
(15.4287 -4.69723 1.3377e-19)
(15.4244 -4.70779 1.25917e-19)
(15.4204 -4.71816 -1.17626e-19)
(15.4166 -4.72832 0)
(15.4131 -4.73827 7.1037e-25)
(15.4099 -4.74804 -8.96261e-20)
(15.4069 -4.75762 6.53674e-25)
(15.4043 -4.76703 6.78097e-20)
(15.4019 -4.77623 3.70019e-25)
(15.3998 -4.78527 4.28872e-20)
(15.3981 -4.79413 2.9067e-20)
(15.3968 -4.80285 -4.69005e-26)
(15.3957 -4.81139 8.54065e-22)
(15.3951 -4.81978 -9.4347e-21)
(15.3949 -4.82804 -2.18444e-25)
(15.3951 -4.83617 5.09151e-25)
(15.3957 -4.84418 3.93897e-20)
(15.3969 -4.85207 0)
(15.3985 -4.85985 -6.35401e-20)
(15.4006 -4.86754 -7.70943e-20)
(15.4033 -4.87515 1.36199e-24)
(15.4066 -4.88269 -5.37978e-20)
(15.4104 -4.89017 0)
(15.4149 -4.89762 7.1634e-20)
(15.4201 -4.90505 -2.38981e-24)
(15.4259 -4.91248 0)
(15.4326 -4.91994 -1.04198e-19)
(15.4401 -4.92744 -2.33698e-19)
(15.4484 -4.93501 -6.5262e-20)
(15.4578 -4.94268 2.61374e-25)
(15.4682 -4.95049 -5.86591e-24)
(15.4797 -4.95847 -1.78349e-19)
(15.4922 -4.96664 9.84087e-20)
(15.5059 -4.97499 1.08344e-19)
(15.5212 -4.98356 0)
(15.5384 -4.9925 -6.52214e-20)
(15.5573 -5.00203 -8.88187e-24)
(15.5776 -5.01215 7.7844e-20)
(15.5987 -5.02261 -8.4778e-20)
(15.6213 -5.03301 -9.22249e-20)
(15.6477 -5.04361 2.00165e-19)
(15.6805 -5.05534 5.41253e-20)
(15.7199 -5.06969 7.58331e-26)
(15.7607 -5.08716 1.64056e-23)
(15.7977 -5.10589 0)
(15.8264 -5.12359 0)
(15.855 -5.13623 -1.55321e-19)
(15.9027 -5.14708 0)
(15.9833 -5.16189 -2.15945e-23)
(16.1131 -5.18792 2.25113e-23)
(16.2781 -5.23866 0)
(16.4343 -5.30987 -4.92923e-20)
(16.5531 -5.39079 2.48966e-23)
(17.495 -4.78984 1.31193e-18)
(17.4796 -4.81027 -1.28638e-18)
(17.4694 -4.83145 -2.36678e-24)
(17.4629 -4.85304 4.71883e-24)
(17.4554 -4.87376 -2.4258e-18)
(17.4465 -4.89353 1.18924e-18)
(17.4369 -4.91258 0)
(17.4272 -4.93113 -2.28636e-18)
(17.4178 -4.94925 -1.12066e-18)
(17.4086 -4.967 -8.38002e-24)
(17.3996 -4.98435 4.18312e-24)
(17.3909 -5.00134 3.94407e-24)
(17.3823 -5.01798 -4.01588e-24)
(17.374 -5.0343 0)
(17.3659 -5.05031 4.9423e-19)
(17.3581 -5.06605 0)
(17.3505 -5.08147 4.72006e-19)
(17.343 -5.09659 -1.60595e-25)
(17.3358 -5.11145 -4.49249e-19)
(17.3288 -5.12603 4.37577e-19)
(17.3219 -5.14033 0)
(17.3152 -5.15436 0)
(17.3087 -5.16811 2.97248e-24)
(17.3025 -5.18164 -3.04497e-24)
(17.2964 -5.19491 0)
(17.2905 -5.20794 3.60522e-19)
(17.2848 -5.22069 2.72997e-24)
(17.2792 -5.23319 -7.32254e-24)
(17.274 -5.24546 -3.14945e-19)
(17.2689 -5.2575 0)
(17.2642 -5.26932 -6.09031e-24)
(17.2597 -5.28091 1.31081e-19)
(17.2554 -5.29228 0)
(17.2515 -5.30342 1.10859e-19)
(17.2478 -5.31435 1.41053e-24)
(17.2445 -5.32506 -1.45545e-24)
(17.2415 -5.33557 -7.54736e-20)
(17.2388 -5.34586 8.23367e-25)
(17.2364 -5.35596 -8.51215e-25)
(17.2344 -5.36587 -3.23225e-20)
(17.2329 -5.3756 3.73521e-25)
(17.2317 -5.38514 -1.7144e-25)
(17.2309 -5.39452 1.048e-20)
(17.2305 -5.40374 2.07394e-20)
(17.2307 -5.41281 1.13023e-24)
(17.2313 -5.42175 -2.67424e-24)
(17.2325 -5.43055 1.55926e-24)
(17.2342 -5.43924 0)
(17.2365 -5.44782 -8.53973e-20)
(17.2394 -5.4563 -5.07824e-20)
(17.243 -5.4647 5.95158e-20)
(17.2471 -5.47305 0)
(17.252 -5.48136 -7.91444e-20)
(17.2577 -5.48964 1.10148e-23)
(17.2642 -5.49792 -1.24658e-23)
(17.2715 -5.50623 1.14867e-19)
(17.2797 -5.51459 1.28689e-19)
(17.2889 -5.52302 7.17974e-20)
(17.2992 -5.53156 -1.00409e-23)
(17.3107 -5.54025 1.77016e-19)
(17.3233 -5.54914 9.7799e-20)
(17.3372 -5.55824 2.6337e-23)
(17.3523 -5.56754 -1.414e-23)
(17.3692 -5.57707 1.62355e-23)
(17.3881 -5.587 7.11569e-20)
(17.409 -5.59759 0)
(17.4314 -5.60884 0)
(17.4547 -5.62051 9.2126e-20)
(17.4798 -5.63211 -2.40035e-23)
(17.5088 -5.64386 2.76526e-23)
(17.5444 -5.6567 -5.85002e-20)
(17.5868 -5.67234 -1.25941e-19)
(17.6314 -5.69159 -6.76015e-20)
(17.6729 -5.71254 7.23747e-20)
(17.7065 -5.73278 3.74279e-23)
(17.7397 -5.74743 8.30027e-20)
(17.791 -5.75926 0)
(17.8744 -5.77433 -4.68586e-20)
(18.0068 -5.80018 -3.0917e-26)
(18.1759 -5.8526 4.83495e-25)
(18.341 -5.92914 5.10365e-23)
(18.4734 -6.01892 0)
(19.1758 -5.25 -5.51048e-24)
(19.159 -5.27242 2.87841e-18)
(19.1472 -5.29546 5.29572e-24)
(19.1398 -5.31904 -1.05579e-23)
(19.132 -5.34189 2.71349e-18)
(19.1229 -5.36375 0)
(19.1129 -5.38478 -1.30399e-18)
(19.1027 -5.40521 1.27838e-18)
(19.0926 -5.42515 1.25309e-18)
(19.0827 -5.44466 -1.22806e-18)
(19.0731 -5.46373 0)
(19.0636 -5.48238 -4.40885e-24)
(19.0543 -5.50066 1.74059e-25)
(19.0453 -5.51858 5.6464e-19)
(19.0365 -5.53615 -8.42664e-24)
(19.028 -5.55342 8.23689e-24)
(19.0197 -5.57035 -1.05463e-18)
(19.0116 -5.58694 7.85167e-24)
(19.0038 -5.60325 1.00348e-18)
(18.9961 -5.61924 -3.63593e-24)
(18.9886 -5.63493 1.85054e-25)
(18.9813 -5.65032 4.61494e-19)
(18.9742 -5.6654 -4.47373e-19)
(18.9674 -5.68023 -4.3282e-19)
(18.9607 -5.69478 0)
(18.9543 -5.70907 -2.96737e-24)
(18.948 -5.72304 2.03194e-25)
(18.9419 -5.73674 -3.68857e-19)
(18.9361 -5.75017 3.51065e-19)
(18.9305 -5.76336 0)
(18.9252 -5.77629 -6.13858e-24)
(18.9202 -5.78898 -1.45992e-19)
(18.9155 -5.80141 1.35016e-19)
(18.911 -5.8136 -1.23399e-19)
(18.9069 -5.82554 -1.11046e-19)
(18.9031 -5.83724 -1.36523e-24)
(18.8997 -5.84872 2.61566e-25)
(18.8965 -5.85996 1.18512e-24)
(18.8938 -5.87098 -6.6663e-25)
(18.8915 -5.88178 6.89326e-25)
(18.8896 -5.89239 1.15549e-25)
(18.888 -5.90279 -1.19632e-25)
(18.8869 -5.913 0)
(18.8863 -5.92303 -2.29888e-20)
(18.8862 -5.9329 0)
(18.8867 -5.94261 4.83921e-20)
(18.8877 -5.95218 0)
(18.8893 -5.9616 -2.57717e-24)
(18.8915 -5.97091 1.88734e-19)
(18.8943 -5.98011 0)
(18.8978 -5.98921 -4.23611e-24)
(18.9021 -5.99825 4.41221e-24)
(18.907 -6.00723 8.71672e-20)
(18.9128 -6.01619 9.9207e-20)
(18.9195 -6.02514 7.11715e-24)
(18.9271 -6.0341 -1.26129e-19)
(18.9356 -6.04312 -1.72467e-23)
(18.9452 -6.05221 9.3101e-24)
(18.9559 -6.0614 1.09885e-23)
(18.9678 -6.07075 -9.67382e-20)
(18.9811 -6.08031 -1.33807e-23)
(18.9956 -6.09008 1.17532e-19)
(19.0115 -6.10007 -1.53867e-23)
(19.0292 -6.11029 0)
(19.049 -6.12093 -7.72108e-20)
(19.071 -6.13225 -8.41176e-20)
(19.0946 -6.14431 9.15292e-20)
(19.1193 -6.15686 -4.62186e-23)
(19.1458 -6.16932 2.58307e-23)
(19.1763 -6.18184 -2.3262e-19)
(19.2133 -6.1954 -6.26683e-20)
(19.2573 -6.21184 6.72931e-20)
(19.304 -6.23229 7.20689e-20)
(19.3483 -6.25487 -1.54034e-19)
(19.3856 -6.27714 4.06617e-23)
(19.4223 -6.29342 -4.2357e-23)
(19.4757 -6.30589 0)
(19.5595 -6.32068 4.91907e-20)
(19.6902 -6.34544 5.12788e-20)
(19.8576 -6.39789 -5.27824e-20)
(20.0251 -6.47751 5.24113e-23)
(20.1653 -6.57373 -1.08012e-22)
(20.2617 -6.67699 -5.67205e-20)
(20.6595 -5.65622 -1.64402e-18)
(20.6419 -5.68046 -1.61182e-18)
(20.6284 -5.70511 1.58044e-18)
(20.6199 -5.73036 0)
(20.6119 -5.75508 -1.51912e-18)
(20.6028 -5.77883 1.48911e-18)
(20.5927 -5.80168 1.45968e-18)
(20.5822 -5.82384 -5.36119e-24)
(20.5717 -5.84542 5.4462e-24)
(20.5613 -5.8665 1.6465e-23)
(20.551 -5.8871 5.23213e-24)
(20.541 -5.90726 1.31837e-18)
(20.5312 -5.92699 -5.02058e-24)
(20.5215 -5.94633 -1.26291e-18)
(20.5121 -5.96529 -9.42238e-24)
(20.5031 -5.9839 9.20864e-24)
(20.4942 -6.00216 5.8941e-19)
(20.4855 -6.02005 -5.75108e-19)
(20.477 -6.03762 -5.60625e-19)
(20.4687 -6.05486 -5.45838e-19)
(20.4606 -6.07176 0)
(20.4528 -6.08833 -5.15314e-19)
(20.4451 -6.10458 4.99428e-19)
(20.4377 -6.12054 1.82239e-23)
(20.4305 -6.13621 0)
(20.4235 -6.15158 0)
(20.4166 -6.16662 0)
(20.4099 -6.18135 -3.02046e-24)
(20.4035 -6.19579 2.35837e-25)
(20.3974 -6.20995 2.94424e-24)
(20.3916 -6.22383 -1.74146e-19)
(20.386 -6.23745 2.60471e-24)
(20.3806 -6.25078 -1.50263e-19)
(20.3756 -6.26384 0)
(20.3709 -6.27663 2.46954e-19)
(20.3665 -6.28915 1.5173e-24)
(20.3625 -6.30143 -1.56532e-24)
(20.3589 -6.31344 0)
(20.3556 -6.32521 -5.87955e-20)
(20.3527 -6.33674 -7.64464e-25)
(20.3503 -6.34805 0)
(20.3482 -6.35913 0)
(20.3466 -6.37 -5.74748e-25)
(20.3455 -6.38066 -2.54488e-20)
(20.3449 -6.39113 0)
(20.3448 -6.40143 -5.34679e-20)
(20.3453 -6.41155 -4.15918e-25)
(20.3464 -6.42152 -8.59072e-20)
(20.3482 -6.43135 -1.04e-19)
(20.3506 -6.44106 6.17524e-20)
(20.3537 -6.45065 -4.16938e-24)
(20.3575 -6.46016 0)
(20.3621 -6.46959 -9.5679e-20)
(20.3675 -6.47898 -1.08754e-19)
(20.3738 -6.48835 0)
(20.381 -6.49773 0)
(20.3892 -6.50714 0)
(20.3985 -6.51661 8.58113e-20)
(20.409 -6.52617 -9.51553e-20)
(20.4207 -6.53588 0)
(20.4337 -6.54579 0)
(20.448 -6.55592 -2.54555e-19)
(20.4638 -6.56625 -1.39486e-19)
(20.4813 -6.57682 -3.72404e-23)
(20.501 -6.58778 8.31406e-20)
(20.5229 -6.59944 1.80809e-19)
(20.5465 -6.61187 -9.80969e-20)
(20.5713 -6.62485 -2.12476e-19)
(20.598 -6.63771 5.60687e-23)
(20.6285 -6.65054 2.47516e-19)
(20.6653 -6.6643 6.64649e-20)
(20.709 -6.68095 7.12404e-20)
(20.7557 -6.7019 -7.60349e-20)
(20.8009 -6.72536 1.62013e-19)
(20.8398 -6.74892 -4.26498e-23)
(20.8783 -6.76624 4.42863e-23)
(20.9319 -6.77887 0)
(21.0135 -6.79286 5.00522e-23)
(21.1388 -6.81574 -5.31674e-20)
(21.2994 -6.86677 -5.69957e-24)
(21.4627 -6.94723 5.54868e-20)
(21.6041 -7.04718 -5.65493e-20)
(21.7074 -7.15685 -1.14008e-22)
(21.9394 -6.00661 4.40276e-23)
(21.9214 -6.03256 1.80659e-18)
(21.9065 -6.05859 -2.96331e-23)
(21.8967 -6.08519 0)
(21.8883 -6.11148 1.70219e-18)
(21.8793 -6.13689 -3.33664e-18)
(21.8694 -6.16137 -1.63505e-18)
(21.8589 -6.18507 1.24426e-23)
(21.8482 -6.20813 1.57025e-18)
(21.8374 -6.23061 1.53848e-18)
(21.8269 -6.25257 0)
(21.8164 -6.27403 -1.47553e-18)
(21.8061 -6.29504 0)
(21.796 -6.31561 1.4129e-18)
(21.7861 -6.33577 1.03196e-23)
(21.7765 -6.35555 -1.05188e-23)
(21.767 -6.37494 6.58969e-19)
(21.7578 -6.39394 6.42856e-19)
(21.7488 -6.41259 -4.52109e-25)
(21.7399 -6.43089 6.09798e-19)
(21.7313 -6.44882 5.92762e-19)
(21.7228 -6.4664 9.01119e-24)
(21.7146 -6.48362 0)
(21.7066 -6.50053 1.07801e-18)
(21.6988 -6.51713 5.19917e-19)
(21.6911 -6.5334 5.00152e-19)
(21.6837 -6.54932 7.06292e-24)
(21.6764 -6.5649 -4.5814e-19)
(21.6694 -6.58016 0)
(21.6626 -6.59512 2.06102e-19)
(21.6561 -6.60978 6.18441e-24)
(21.6498 -6.62413 0)
(21.6438 -6.63819 0)
(21.6381 -6.65193 4.35393e-24)
(21.6326 -6.66538 -1.37121e-19)
(21.6275 -6.67854 -1.20768e-19)
(21.6228 -6.69142 1.03382e-19)
(21.6184 -6.70402 0)
(21.6143 -6.71634 6.51348e-20)
(21.6106 -6.7284 0)
(21.6074 -6.7402 0)
(21.6045 -6.75175 1.3192e-21)
(21.6021 -6.76307 -1.42413e-20)
(21.6001 -6.77415 2.80842e-20)
(21.5986 -6.78501 0)
(21.5977 -6.79566 0)
(21.5973 -6.80612 -7.60443e-20)
(21.5975 -6.8164 9.44338e-20)
(21.5983 -6.82651 7.47736e-24)
(21.5998 -6.83646 -6.77281e-20)
(21.6019 -6.84629 -1.0209e-23)
(21.6047 -6.856 -9.13623e-20)
(21.6083 -6.86562 -2.5548e-23)
(21.6127 -6.87516 -1.21373e-24)
(21.618 -6.88466 -1.26399e-24)
(21.6241 -6.89414 1.76689e-23)
(21.6313 -6.90363 -1.67365e-19)
(21.6394 -6.91315 -9.29829e-20)
(21.6487 -6.92273 1.02894e-19)
(21.6592 -6.93244 -1.13526e-19)
(21.671 -6.94234 1.24826e-19)
(21.6841 -6.95243 -5.82705e-24)
(21.6986 -6.96271 1.49586e-19)
(21.7148 -6.97318 1.63211e-19)
(21.7331 -6.98401 -4.42524e-23)
(21.7535 -6.99553 1.83478e-24)
(21.7757 -7.00784 4.99325e-23)
(21.7991 -7.0207 1.1255e-19)
(21.8243 -7.03342 -1.18415e-22)
(21.8532 -7.04601 -1.30163e-19)
(21.888 -7.05938 -6.98562e-20)
(21.9294 -7.07559 2.62729e-24)
(21.9739 -7.09628 7.83479e-23)
(22.0174 -7.11977 -7.28721e-23)
(22.0557 -7.14372 0)
(22.0936 -7.16132 -9.47433e-20)
(22.1453 -7.17353 0)
(22.2222 -7.18618 1.02512e-22)
(22.3389 -7.20655 -2.10655e-22)
(22.4884 -7.255 5.52767e-20)
(22.6421 -7.33435 1.42041e-22)
(22.7783 -7.43539 5.70953e-20)
(22.882 -7.54838 4.18012e-23)
(23.0158 -6.30128 2.06602e-18)
(22.998 -6.32882 -2.0249e-18)
(22.9821 -6.35605 -1.98508e-18)
(22.9709 -6.38372 0)
(22.962 -6.41125 -1.90712e-18)
(22.9531 -6.43805 4.16677e-23)
(22.9434 -6.46395 1.83114e-18)