/*--------------------------------*- C++ -*----------------------------------*\
| =========                 |                                                 |
| \\      /  F ield         | OpenFOAM: The Open Source CFD Toolbox           |
|  \\    /   O peration     | Version:  2412                                  |
|   \\  /    A nd           | Website:  www.openfoam.com                      |
|    \\/     M anipulation  |                                                 |
\*---------------------------------------------------------------------------*/
FoamFile
{
    version     2.0;
    format      ascii;
    arch        "LSB;label=32;scalar=64";
    class       volScalarField;
    location    "300";
    object      nut;
}
// * * * * * * * * * * * * * * * * * * * * * * * * * * * * * * * * * * * * * //

dimensions      [0 2 -1 0 0 0 0];

internalField   nonuniform List<scalar> 
8637
(
6.50323e-12
6.50504e-12
6.50686e-12
6.50942e-12
6.51418e-12
6.51918e-12
6.52437e-12
6.53027e-12
6.53611e-12
6.54254e-12
6.55011e-12
6.55861e-12
6.56745e-12
6.5763e-12
6.58661e-12
6.59806e-12
6.6103e-12
6.6234e-12
6.63766e-12
6.65344e-12
6.67065e-12
6.68937e-12
6.70921e-12
6.73077e-12
6.75434e-12
6.7799e-12
6.80745e-12
6.83683e-12
6.86824e-12
6.90191e-12
6.93785e-12
6.97594e-12
7.01686e-12
7.0597e-12
7.10482e-12
7.15227e-12
7.2015e-12
7.25295e-12
7.306e-12
7.36083e-12
7.4174e-12
7.47482e-12
7.53294e-12
7.59167e-12
7.6509e-12
7.70978e-12
7.76789e-12
7.82535e-12
7.88107e-12
7.9345e-12
7.98605e-12
8.03468e-12
8.08065e-12
8.12327e-12
8.16148e-12
8.19537e-12
8.22483e-12
8.25092e-12
8.27213e-12
8.28711e-12
8.29689e-12
8.30343e-12
8.30408e-12
8.29739e-12
8.28474e-12
8.2698e-12
8.24671e-12
8.21468e-12
8.17829e-12
8.13661e-12
8.0841e-12
8.02205e-12
7.95545e-12
7.87601e-12
7.78242e-12
7.6818e-12
7.56406e-12
7.42518e-12
7.27119e-12
7.08953e-12
6.88174e-12
6.63796e-12
6.34484e-12
5.99994e-12
5.57626e-12
5.06464e-12
4.4356e-12
3.66137e-12
6.02251e-10
6.02523e-10
6.0279e-10
6.03132e-10
6.03654e-10
6.04209e-10
6.04804e-10
6.05451e-10
6.06119e-10
6.06858e-10
6.07683e-10
6.08583e-10
6.09536e-10
6.10541e-10
6.11659e-10
6.12875e-10
6.14192e-10
6.15622e-10
6.17166e-10
6.18842e-10
6.20674e-10
6.22659e-10
6.24792e-10
6.27087e-10
6.2957e-10
6.32262e-10
6.3515e-10
6.38237e-10
6.41537e-10
6.45061e-10
6.48807e-10
6.52775e-10
6.56988e-10
6.61393e-10
6.66046e-10
6.70898e-10
6.75953e-10
6.81193e-10
6.86555e-10
6.92098e-10
6.97769e-10
7.03512e-10
7.09316e-10
7.15144e-10
7.20968e-10
7.26725e-10
7.32379e-10
7.37908e-10
7.43252e-10
7.48345e-10
7.53183e-10
7.577e-10
7.61901e-10
7.65746e-10
7.69158e-10
7.72072e-10
7.74522e-10
7.76646e-10
7.78249e-10
7.79184e-10
7.79587e-10
7.7969e-10
7.79206e-10
7.77954e-10
7.76099e-10
7.74026e-10
7.71147e-10
7.67384e-10
7.63159e-10
7.58453e-10
7.52672e-10
7.45933e-10
7.3878e-10
7.3036e-10
7.20583e-10
7.10112e-10
6.97938e-10
6.83767e-10
6.68159e-10
6.49904e-10
6.29154e-10
6.0501e-10
5.7626e-10
5.427e-10
5.01889e-10
4.53112e-10
3.9389e-10
3.22136e-10
5.5401e-09
5.54411e-09
5.54802e-09
5.55289e-09
5.55911e-09
5.56572e-09
5.57275e-09
5.5803e-09
5.58831e-09
5.59704e-09
5.60655e-09
5.61679e-09
5.62769e-09
5.63943e-09
5.6523e-09
5.66618e-09
5.68114e-09
5.69739e-09
5.71497e-09
5.73395e-09
5.75455e-09
5.77682e-09
5.80076e-09
5.82648e-09
5.85424e-09
5.8841e-09
5.91599e-09
5.9501e-09
5.98654e-09
6.02522e-09
6.06619e-09
6.10951e-09
6.1551e-09
6.20291e-09
6.25304e-09
6.30508e-09
6.35907e-09
6.4147e-09
6.47169e-09
6.53005e-09
6.58931e-09
6.64912e-09
6.70912e-09
6.76888e-09
6.8281e-09
6.88624e-09
6.94272e-09
6.99734e-09
7.04953e-09
7.09873e-09
7.14455e-09
7.18651e-09
7.22447e-09
7.25872e-09
7.28789e-09
7.31127e-09
7.32964e-09
7.34436e-09
7.35334e-09
7.35513e-09
7.35113e-09
7.34416e-09
7.33095e-09
7.30943e-09
7.28177e-09
7.25176e-09
7.21364e-09
7.16631e-09
7.11426e-09
7.05746e-09
6.98957e-09
6.91216e-09
6.83062e-09
6.73631e-09
6.62871e-09
6.51415e-09
6.38285e-09
6.23221e-09
6.06766e-09
5.87764e-09
5.66394e-09
5.41841e-09
5.13011e-09
4.79799e-09
4.40081e-09
3.93428e-09
3.3799e-09
2.72511e-09
2.5061e-08
2.50883e-08
2.51158e-08
2.51501e-08
2.51878e-08
2.52279e-08
2.52702e-08
2.53153e-08
2.53636e-08
2.54157e-08
2.5472e-08
2.55323e-08
2.55966e-08
2.5666e-08
2.57415e-08
2.58228e-08
2.59103e-08
2.60047e-08
2.61067e-08
2.6217e-08
2.63358e-08
2.64637e-08
2.66013e-08
2.67491e-08
2.69078e-08
2.70775e-08
2.72584e-08
2.74515e-08
2.76571e-08
2.78743e-08
2.81036e-08
2.83452e-08
2.85983e-08
2.88631e-08
2.91387e-08
2.94238e-08
2.97177e-08
3.00193e-08
3.03269e-08
3.06394e-08
3.09546e-08
3.12707e-08
3.15849e-08
3.18951e-08
3.21994e-08
3.24948e-08
3.27784e-08
3.30483e-08
3.33023e-08
3.35376e-08
3.37514e-08
3.39406e-08
3.41067e-08
3.42508e-08
3.43651e-08
3.44454e-08
3.44975e-08
3.45296e-08
3.45302e-08
3.44903e-08
3.44189e-08
3.4333e-08
3.42136e-08
3.40493e-08
3.38528e-08
3.36455e-08
3.33957e-08
3.30979e-08
3.27762e-08
3.24311e-08
3.20299e-08
3.15808e-08
3.11116e-08
3.05792e-08
2.99814e-08
2.93508e-08
2.86388e-08
2.78343e-08
2.69644e-08
2.59755e-08
2.48775e-08
2.36347e-08
2.22e-08
2.05754e-08
1.86716e-08
1.64844e-08
1.39537e-08
1.10554e-08
7.92348e-08
7.93598e-08
7.94905e-08
7.9653e-08
7.98136e-08
7.99834e-08
8.01636e-08
8.03558e-08
8.05609e-08
8.07809e-08
8.1017e-08
8.12699e-08
8.15401e-08
8.18311e-08
8.21457e-08
8.24837e-08
8.28473e-08
8.32387e-08
8.36607e-08
8.41156e-08
8.46043e-08
8.51291e-08
8.56925e-08
8.62964e-08
8.6942e-08
8.7631e-08
8.83643e-08
8.91433e-08
8.99688e-08
9.08394e-08
9.17553e-08
9.27154e-08
9.37179e-08
9.47618e-08
9.58429e-08
9.69558e-08
9.80979e-08
9.9263e-08
1.00444e-07
1.01634e-07
1.02827e-07
1.04013e-07
1.05181e-07
1.06323e-07
1.07429e-07
1.08489e-07
1.0949e-07
1.10426e-07
1.11289e-07
1.1207e-07
1.12754e-07
1.13331e-07
1.13811e-07
1.14201e-07
1.14468e-07
1.14593e-07
1.14605e-07
1.14544e-07
1.14357e-07
1.1401e-07
1.13543e-07
1.13028e-07
1.12386e-07
1.11573e-07
1.10643e-07
1.09678e-07
1.08558e-07
1.07263e-07
1.05884e-07
1.04427e-07
1.02771e-07
1.00947e-07
9.90602e-08
9.69558e-08
9.46288e-08
9.21955e-08
8.94917e-08
8.64852e-08
8.32708e-08
7.96773e-08
7.57424e-08
7.13626e-08
6.6401e-08
6.08889e-08
5.45747e-08
4.74953e-08
3.95374e-08
3.07212e-08
2.00733e-07
2.01179e-07
2.01656e-07
2.02245e-07
2.0279e-07
2.03366e-07
2.03977e-07
2.0463e-07
2.05325e-07
2.06068e-07
2.06862e-07
2.07713e-07
2.08623e-07
2.09601e-07
2.10653e-07
2.11783e-07
2.12997e-07
2.14303e-07
2.15707e-07
2.17215e-07
2.18832e-07
2.20567e-07
2.22424e-07
2.24408e-07
2.26524e-07
2.28776e-07
2.31166e-07
2.33697e-07
2.36368e-07
2.39178e-07
2.42123e-07
2.45198e-07
2.48396e-07
2.5171e-07
2.55126e-07
2.58627e-07
2.62199e-07
2.65821e-07
2.69468e-07
2.73118e-07
2.76745e-07
2.80317e-07
2.83802e-07
2.87169e-07
2.90389e-07
2.93424e-07
2.96235e-07
2.988e-07
3.0111e-07
3.03135e-07
3.0481e-07
3.06116e-07
3.07102e-07
3.078e-07
3.08087e-07
3.07905e-07
3.07369e-07
3.06615e-07
3.0547e-07
3.03816e-07
3.01801e-07
2.99661e-07
2.97142e-07
2.94107e-07
2.90729e-07
2.87278e-07
2.83375e-07
2.78968e-07
2.74336e-07
2.69501e-07
2.64109e-07
2.58258e-07
2.5226e-07
2.45678e-07
2.38505e-07
2.31074e-07
2.22948e-07
2.1405e-07
2.0465e-07
1.94317e-07
1.83167e-07
1.7097e-07
1.5742e-07
1.42659e-07
1.26141e-07
1.08078e-07
8.83603e-08
6.72362e-08
4.35904e-07
4.37228e-07
4.38659e-07
4.40426e-07
4.41989e-07
4.43648e-07
4.45409e-07
4.47282e-07
4.49277e-07
4.51406e-07
4.5368e-07
4.56112e-07
4.58714e-07
4.61507e-07
4.64507e-07
4.67724e-07
4.71177e-07
4.74883e-07
4.78857e-07
4.83117e-07
4.8768e-07
4.92561e-07
4.97773e-07
5.03327e-07
5.09237e-07
5.15506e-07
5.22139e-07
5.29141e-07
5.36507e-07
5.44226e-07
5.52286e-07
5.6067e-07
5.69352e-07
5.78305e-07
5.87487e-07
5.96849e-07
6.06344e-07
6.15912e-07
6.25481e-07
6.34982e-07
6.44338e-07
6.53459e-07
6.62254e-07
6.70646e-07
6.78549e-07
6.85852e-07
6.92452e-07
6.98303e-07
7.03401e-07
7.07663e-07
7.10889e-07
7.13051e-07
7.14321e-07
7.14824e-07
7.14179e-07
7.12228e-07
7.09347e-07
7.05938e-07
7.01496e-07
6.95706e-07
6.89002e-07
6.82046e-07
6.74142e-07
6.64926e-07
6.5488e-07
6.4473e-07
6.33486e-07
6.2103e-07
6.08079e-07
5.94711e-07
5.8005e-07
5.64346e-07
5.4838e-07
5.31119e-07
5.1257e-07
4.93529e-07
4.73017e-07
4.50886e-07
4.27786e-07
4.028e-07
3.76227e-07
3.4765e-07
3.16504e-07
2.83223e-07
2.46825e-07
2.07983e-07
1.66801e-07
1.24122e-07
8.43049e-07
8.46454e-07
8.50156e-07
8.54738e-07
8.58675e-07
8.62861e-07
8.67302e-07
8.72023e-07
8.77049e-07
8.82409e-07
8.88133e-07
8.94251e-07
9.00793e-07
9.07805e-07
9.15325e-07
9.23379e-07
9.32009e-07
9.41256e-07
9.51154e-07
9.61742e-07
9.73055e-07
9.85127e-07
9.97978e-07
1.01164e-06
1.02613e-06
1.04145e-06
1.0576e-06
1.07459e-06
1.09239e-06
1.11098e-06
1.1303e-06
1.1503e-06
1.17092e-06
1.19207e-06
1.21364e-06
1.23551e-06
1.25754e-06
1.27958e-06
1.30144e-06
1.32297e-06
1.34395e-06
1.36416e-06
1.38339e-06
1.40147e-06
1.41819e-06
1.43327e-06
1.44648e-06
1.45773e-06
1.4671e-06
1.47436e-06
1.47898e-06
1.48097e-06
1.48085e-06
1.47897e-06
1.47433e-06
1.46655e-06
1.45668e-06
1.44572e-06
1.43242e-06
1.41605e-06
1.39767e-06
1.37891e-06
1.3581e-06
1.33443e-06
1.30903e-06
1.28359e-06
1.25588e-06
1.22566e-06
1.19452e-06
1.16269e-06
1.12828e-06
1.09185e-06
1.05508e-06
1.01588e-06
9.74262e-07
9.31906e-07
8.86907e-07
8.39017e-07
7.89586e-07
7.36921e-07
6.81683e-07
6.23219e-07
5.60651e-07
4.95013e-07
4.24795e-07
3.51639e-07
2.76273e-07
2.00721e-07
1.48728e-06
1.49508e-06
1.50358e-06
1.51414e-06
1.52305e-06
1.53253e-06
1.54259e-06
1.55328e-06
1.56466e-06
1.5768e-06
1.58975e-06
1.60358e-06
1.61836e-06
1.63418e-06
1.65111e-06
1.66923e-06
1.6886e-06
1.70931e-06
1.73144e-06
1.75504e-06
1.78019e-06
1.80694e-06
1.83533e-06
1.8654e-06
1.89716e-06
1.93063e-06
1.96577e-06
2.00256e-06
2.04094e-06
2.0808e-06
2.12203e-06
2.1645e-06
2.20801e-06
2.25236e-06
2.29728e-06
2.34251e-06
2.38772e-06
2.43256e-06
2.47664e-06
2.51958e-06
2.56092e-06
2.6002e-06
2.63698e-06
2.67093e-06
2.70165e-06
2.72848e-06
2.75096e-06
2.76906e-06
2.78305e-06
2.79241e-06
2.79596e-06
2.79381e-06
2.78731e-06
2.77734e-06
2.76155e-06
2.73921e-06
2.71271e-06
2.68434e-06
2.65134e-06
2.61216e-06
2.56917e-06
2.52574e-06
2.47849e-06
2.42573e-06
2.36982e-06
2.31417e-06
2.25441e-06
2.19008e-06
2.12429e-06
2.05755e-06
1.98632e-06
1.91165e-06
1.83676e-06
1.75785e-06
1.67501e-06
1.59132e-06
1.50351e-06
1.4112e-06
1.31687e-06
1.21776e-06
1.11512e-06
1.00809e-06
8.9549e-07
7.79441e-07
6.5791e-07
5.34296e-07
4.10578e-07
2.90679e-07
2.43212e-06
2.44833e-06
2.46602e-06
2.48822e-06
2.50664e-06
2.52626e-06
2.54707e-06
2.56919e-06
2.59274e-06
2.61782e-06
2.64457e-06
2.67312e-06
2.7036e-06
2.73617e-06
2.77096e-06
2.8081e-06
2.84773e-06
2.88999e-06
2.93499e-06
2.98284e-06
3.03364e-06
3.08748e-06
3.14439e-06
3.2044e-06
3.26749e-06
3.33363e-06
3.40274e-06
3.4747e-06
3.54932e-06
3.62636e-06
3.70553e-06
3.78653e-06
3.86893e-06
3.95227e-06
4.03602e-06
4.11958e-06
4.20232e-06
4.28354e-06
4.3625e-06
4.43843e-06
4.51046e-06
4.5777e-06
4.63942e-06
4.69512e-06
4.74404e-06
4.78486e-06
4.81681e-06
4.84014e-06
4.85561e-06
4.8622e-06
4.85741e-06
4.84175e-06
4.81829e-06
4.78885e-06
4.74857e-06
4.69615e-06
4.63646e-06
4.57403e-06
4.50349e-06
4.42194e-06
4.33387e-06
4.24564e-06
4.15106e-06
4.04704e-06
3.93785e-06
3.82969e-06
3.71488e-06
3.59262e-06
3.4683e-06
3.34299e-06
3.21066e-06
3.07309e-06
2.93583e-06
2.79266e-06
2.64378e-06
2.49434e-06
2.33921e-06
2.17793e-06
2.0146e-06
1.84512e-06
1.67168e-06
1.49332e-06
1.3087e-06
1.12172e-06
9.29964e-07
7.39724e-07
5.54876e-07
3.81954e-07
3.83758e-06
3.87283e-06
3.91038e-06
3.95022e-06
3.99256e-06
4.0376e-06
4.08555e-06
4.13662e-06
4.19105e-06
4.24909e-06
4.31095e-06
4.37687e-06
4.44705e-06
4.52172e-06
4.60105e-06
4.6852e-06
4.77434e-06
4.86854e-06
4.96789e-06
5.07236e-06
5.18194e-06
5.29649e-06
5.41585e-06
5.53975e-06
5.6679e-06
5.79985e-06
5.93507e-06
6.07296e-06
6.21285e-06
6.35393e-06
6.49532e-06
6.63598e-06
6.77485e-06
6.91076e-06
7.04251e-06
7.16884e-06
7.28842e-06
7.39974e-06
7.50135e-06
7.59218e-06
7.67168e-06
7.73862e-06
7.7905e-06
7.82632e-06
7.84704e-06
7.85455e-06
7.84681e-06
7.81916e-06
7.77305e-06
7.71451e-06
7.64695e-06
7.56131e-06
7.45545e-06
7.33827e-06
7.21769e-06
7.08438e-06
6.9334e-06
6.77234e-06
6.61197e-06
6.44206e-06
6.25749e-06
6.06524e-06
5.87542e-06
5.67586e-06
5.46521e-06
5.25199e-06
5.03809e-06
4.81424e-06
4.58314e-06
4.35345e-06
4.11597e-06
3.87103e-06
3.62647e-06
3.37498e-06
3.11611e-06
2.85605e-06
2.5893e-06
2.31932e-06
2.04541e-06
1.76635e-06
1.48874e-06
1.21001e-06
9.40845e-07
6.87266e-07
4.58879e-07
5.60521e-06
5.66829e-06
5.73548e-06
5.80674e-06
5.88243e-06
5.96287e-06
6.04839e-06
6.13934e-06
6.23608e-06
6.33898e-06
6.44836e-06
6.56453e-06
6.68777e-06
6.81837e-06
6.9565e-06
7.10235e-06
7.25601e-06
7.41752e-06
7.58684e-06
7.76381e-06
7.94818e-06
8.13957e-06
8.33753e-06
8.54145e-06
8.75066e-06
8.96424e-06
9.18119e-06
9.40038e-06
9.62056e-06
9.84032e-06
1.00581e-05
1.02723e-05
1.0481e-05
1.06825e-05
1.08748e-05
1.10562e-05
1.12244e-05
1.13772e-05
1.15125e-05
1.16291e-05
1.17267e-05
1.18033e-05
1.18547e-05
1.18798e-05
1.18813e-05
1.18629e-05
1.18209e-05
1.17472e-05
1.16452e-05
1.15256e-05
1.13938e-05
1.12346e-05
1.10449e-05
1.08392e-05
1.063e-05
1.04026e-05
1.01493e-05
9.88188e-06
9.61661e-06
9.33828e-06
9.03906e-06
8.72932e-06
8.42409e-06
8.10576e-06
7.7722e-06
7.43576e-06
7.09945e-06
6.75015e-06
6.39169e-06
6.03648e-06
5.67191e-06
5.29861e-06
4.9276e-06
4.54926e-06
4.16334e-06
3.77858e-06
3.38825e-06
2.99745e-06
2.60636e-06
2.21427e-06
1.83166e-06
1.45606e-06
1.10415e-06
7.83313e-07
5.06209e-07
7.81216e-06
7.91865e-06
8.03196e-06
8.15205e-06
8.27945e-06
8.41465e-06
8.55811e-06
8.7103e-06
8.87174e-06
9.04291e-06
9.22417e-06
9.41588e-06
9.61833e-06
9.83178e-06
1.00563e-05
1.0292e-05
1.05388e-05
1.07964e-05
1.10646e-05
1.13427e-05
1.16303e-05
1.19263e-05
1.22299e-05
1.25398e-05
1.28547e-05
1.31731e-05
1.34932e-05
1.3813e-05
1.41307e-05
1.4444e-05
1.47506e-05
1.50478e-05
1.5333e-05
1.56037e-05
1.58574e-05
1.60915e-05
1.63032e-05
1.6489e-05
1.66463e-05
1.67742e-05
1.68734e-05
1.69408e-05
1.69695e-05
1.6959e-05
1.69148e-05
1.68437e-05
1.67391e-05
1.65884e-05
1.63977e-05
1.61841e-05
1.5956e-05
1.56899e-05
1.53812e-05
1.50516e-05
1.47194e-05
1.43633e-05
1.39722e-05
1.35625e-05
1.31573e-05
1.27354e-05
1.2286e-05
1.18231e-05
1.13674e-05
1.08953e-05
1.04038e-05
9.90941e-06
9.41653e-06
8.90793e-06
8.38879e-06
7.87552e-06
7.35211e-06
6.81976e-06
6.29288e-06
5.75977e-06
5.22069e-06
4.68731e-06
4.15228e-06
3.6225e-06
3.10009e-06
2.58549e-06
2.09382e-06
1.62343e-06
1.19759e-06
8.22789e-07
5.1416e-07
1.04598e-05
1.06306e-05
1.0812e-05
1.1004e-05
1.12074e-05
1.14226e-05
1.16504e-05
1.18913e-05
1.21458e-05
1.24146e-05
1.26978e-05
1.29958e-05
1.33087e-05
1.36366e-05
1.39792e-05
1.43363e-05
1.47074e-05
1.50918e-05
1.54887e-05
1.58968e-05
1.63147e-05
1.6741e-05
1.71738e-05
1.76111e-05
1.80508e-05
1.84903e-05
1.8927e-05
1.93581e-05
1.97806e-05
2.01916e-05
2.05877e-05
2.09654e-05
2.13212e-05
2.16519e-05
2.19545e-05
2.22262e-05
2.24628e-05
2.26599e-05
2.28148e-05
2.29275e-05
2.30004e-05
2.3029e-05
2.30026e-05
2.29221e-05
2.27973e-05
2.26391e-05
2.24371e-05
2.21725e-05
2.18553e-05
2.1511e-05
2.1151e-05
2.07419e-05
2.02775e-05
1.97878e-05
1.92973e-05
1.87775e-05
1.82134e-05
1.76266e-05
1.7047e-05
1.64478e-05
1.58144e-05
1.51649e-05
1.45257e-05
1.38673e-05
1.31857e-05
1.25017e-05
1.18213e-05
1.11232e-05
1.04142e-05
9.7147e-06
9.00564e-06
8.28911e-06
7.583e-06
6.87415e-06
6.16369e-06
5.46652e-06
4.77594e-06
4.10035e-06
3.44515e-06
2.81308e-06
2.22318e-06
1.67642e-06
1.20022e-06
7.9672e-07
4.82671e-07
1.35384e-05
1.38003e-05
1.40777e-05
1.43708e-05
1.46802e-05
1.50068e-05
1.5351e-05
1.57135e-05
1.60947e-05
1.6495e-05
1.69144e-05
1.73529e-05
1.78102e-05
1.82859e-05
1.87791e-05
1.9289e-05
1.98142e-05
2.03534e-05
2.09048e-05
2.14663e-05
2.20355e-05
2.26098e-05
2.31865e-05
2.37626e-05
2.43348e-05
2.48996e-05
2.54534e-05
2.59925e-05
2.65131e-05
2.70113e-05
2.74829e-05
2.79235e-05
2.83289e-05
2.86955e-05
2.90202e-05
2.93003e-05
2.95302e-05
2.97042e-05
2.982e-05
2.98799e-05
2.98892e-05
2.98407e-05
2.97186e-05
2.95263e-05
2.928e-05
2.89956e-05
2.86576e-05
2.82394e-05
2.77562e-05
2.7243e-05
2.67149e-05
2.6127e-05
2.54715e-05
2.4787e-05
2.41045e-05
2.33884e-05
2.26193e-05
2.1824e-05
2.10392e-05
2.02324e-05
1.93856e-05
1.85209e-05
1.76696e-05
1.67974e-05
1.58992e-05
1.50002e-05
1.41073e-05
1.31962e-05
1.22757e-05
1.13695e-05
1.04565e-05
9.54004e-06
8.64138e-06
7.74714e-06
6.85973e-06
5.99714e-06
5.1555e-06
4.3439e-06
3.5717e-06
2.84662e-06
2.1869e-06
1.60055e-06
1.11055e-06
7.11923e-07
4.23035e-07
1.70393e-05
1.74251e-05
1.78325e-05
1.82615e-05
1.87127e-05
1.91869e-05
1.96842e-05
2.02052e-05
2.07498e-05
2.13179e-05
2.19089e-05
2.25222e-05
2.31567e-05
2.38111e-05
2.44836e-05
2.51723e-05
2.5875e-05
2.6589e-05
2.73114e-05
2.80391e-05
2.87684e-05
2.94956e-05
3.02169e-05
3.09284e-05
3.16256e-05
3.23041e-05
3.29594e-05
3.3587e-05
3.41825e-05
3.47414e-05
3.52588e-05
3.57294e-05
3.61485e-05
3.65128e-05
3.68198e-05
3.70674e-05
3.72474e-05
3.73532e-05
3.73839e-05
3.73453e-05
3.72466e-05
3.7077e-05
3.68136e-05
3.6464e-05
3.60523e-05
3.56004e-05
3.50865e-05
3.44753e-05
3.37874e-05
3.30686e-05
3.23375e-05
3.15373e-05
3.06585e-05
2.97484e-05
2.8844e-05
2.79026e-05
2.69012e-05
2.58714e-05
2.48554e-05
2.38162e-05
2.27326e-05
2.16306e-05
2.05455e-05
1.94387e-05
1.83052e-05
1.71737e-05
1.6052e-05
1.49137e-05
1.37701e-05
1.26476e-05
1.15244e-05
1.04057e-05
9.31525e-06
8.2417e-06
7.18938e-06
6.17819e-06
5.21001e-06
4.29371e-06
3.44054e-06
2.6689e-06
1.98419e-06
1.41082e-06
9.49681e-07
5.90592e-07
3.5574e-07
2.09679e-05
2.15161e-05
2.20927e-05
2.2697e-05
2.33297e-05
2.39909e-05
2.46802e-05
2.53975e-05
2.61419e-05
2.69125e-05
2.77076e-05
2.85255e-05
2.9364e-05
3.02204e-05
3.10918e-05
3.1975e-05
3.28662e-05
3.37618e-05
3.46575e-05
3.55488e-05
3.64309e-05
3.72992e-05
3.81488e-05
3.89749e-05
3.97722e-05
4.05355e-05
4.12596e-05
4.19399e-05
4.25716e-05
4.31498e-05
4.36688e-05
4.4123e-05
4.45076e-05
4.482e-05
4.50593e-05
4.52244e-05
4.53034e-05
4.52888e-05
4.5182e-05
4.49942e-05
4.47396e-05
4.44022e-05
4.39502e-05
4.33968e-05
4.27755e-05
4.2115e-05
4.13864e-05
4.05447e-05
3.96166e-05
3.86588e-05
3.76924e-05
3.66499e-05
3.55203e-05
3.43587e-05
3.3207e-05
3.20167e-05
3.07614e-05
2.9477e-05
2.82102e-05
2.692e-05
2.55835e-05
2.42299e-05
2.28971e-05
2.15435e-05
2.01653e-05
1.87941e-05
1.74382e-05
1.60707e-05
1.47056e-05
1.33713e-05
1.20477e-05
1.07419e-05
9.47906e-06
8.25254e-06
7.07041e-06
5.95067e-06
4.90351e-06
3.93845e-06
3.06005e-06
2.30751e-06
1.65223e-06
1.15096e-06
7.56437e-07
4.64521e-07
3.30111e-07
2.53532e-05
2.61067e-05
2.6895e-05
2.77168e-05
2.85717e-05
2.94591e-05
3.03776e-05
3.13258e-05
3.23017e-05
3.33028e-05
3.43261e-05
3.53684e-05
3.6426e-05
3.74947e-05
3.85701e-05
3.96475e-05
4.0722e-05
4.17885e-05
4.28416e-05
4.38756e-05
4.48848e-05
4.58638e-05
4.68073e-05
4.77097e-05
4.85653e-05
4.93681e-05
5.01132e-05
5.0796e-05
5.14117e-05
5.19553e-05
5.2421e-05
5.28021e-05
5.30946e-05
5.32974e-05
5.34124e-05
5.344e-05
5.33621e-05
5.31706e-05
5.2871e-05
5.24812e-05
5.2022e-05
5.14702e-05
5.07831e-05
4.99806e-05
4.91073e-05
4.81989e-05
4.72191e-05
4.61133e-05
4.4914e-05
4.36878e-05
4.2458e-05
4.11476e-05
3.97448e-05
3.83114e-05
3.68927e-05
3.54355e-05
3.3911e-05
3.23591e-05
3.08288e-05
2.92765e-05
2.7679e-05
2.60688e-05
2.4484e-05
2.28821e-05
2.12612e-05
1.96558e-05
1.80742e-05
1.64914e-05
1.49234e-05
1.34002e-05
1.19064e-05
1.04524e-05
9.06067e-06
7.73224e-06
6.48297e-06
5.32137e-06
4.26464e-06
3.32947e-06
2.49471e-06
1.83459e-06
1.25983e-06
8.81234e-07
5.77229e-07
4.18253e-07
3.65726e-07
3.02534e-05
3.12567e-05
3.22994e-05
3.33789e-05
3.44937e-05
3.56415e-05
3.68194e-05
3.80242e-05
3.92524e-05
4.04995e-05
4.1761e-05
4.30318e-05
4.43068e-05
4.558e-05
4.68457e-05
4.80978e-05
4.93303e-05
5.05372e-05
5.17122e-05
5.28487e-05
5.39405e-05
5.49822e-05
5.59683e-05
5.68929e-05
5.775e-05
5.85336e-05
5.92393e-05
5.98634e-05
6.04011e-05
6.08478e-05
6.1197e-05
6.14417e-05
6.15786e-05
6.16093e-05
6.154e-05
6.13732e-05
6.10807e-05
6.06549e-05
6.01065e-05
5.94621e-05
5.87502e-05
5.79392e-05
5.69736e-05
5.58804e-05
5.47159e-05
5.35231e-05
5.22589e-05
5.08597e-05
4.93632e-05
4.78449e-05
4.63285e-05
4.47299e-05
4.30373e-05
4.13182e-05
3.96189e-05
3.78831e-05
3.60818e-05
3.42579e-05
3.24598e-05
3.06432e-05
2.87867e-05
2.6926e-05
2.50974e-05
2.32595e-05
2.14133e-05
1.95954e-05
1.78151e-05
1.6052e-05
1.43235e-05
1.26586e-05
1.10509e-05
9.51716e-06
8.07018e-06
6.71823e-06
5.49184e-06
4.37993e-06
3.39551e-06
2.57981e-06
1.85775e-06
1.34894e-06
8.87587e-07
6.66784e-07
5.1898e-07
4.46484e-07
4.58882e-07
3.57535e-05
3.70481e-05
3.83829e-05
3.97535e-05
4.11565e-05
4.25875e-05
4.40416e-05
4.55136e-05
4.69979e-05
4.84882e-05
4.99781e-05
5.14611e-05
5.29304e-05
5.43788e-05
5.57993e-05
5.71852e-05
5.85299e-05
5.98268e-05
6.1069e-05
6.22496e-05
6.33629e-05
6.4404e-05
6.53674e-05
6.62473e-05
6.70377e-05
6.7733e-05
6.83301e-05
6.88267e-05
6.92179e-05
6.95002e-05
6.96658e-05
6.97067e-05
6.96215e-05
6.94154e-05
6.91014e-05
6.86838e-05
6.81201e-05
6.74033e-05
6.65514e-05
6.56015e-05
6.45909e-05
6.34789e-05
6.21957e-05
6.07753e-05
5.92854e-05
5.77759e-05
5.6198e-05
5.44809e-05
5.26674e-05
5.08396e-05
4.90197e-05
4.71191e-05
4.51272e-05
4.31157e-05
4.11299e-05
3.91122e-05
3.70356e-05
3.49455e-05
3.2887e-05
3.08162e-05
2.87161e-05
2.66257e-05
2.45783e-05
2.25365e-05
2.05043e-05
1.85184e-05
1.6591e-05
1.47114e-05
1.28968e-05
1.11695e-05
9.53468e-06
8.02233e-06
6.62629e-06
5.35303e-06
4.25354e-06
3.29501e-06
2.45876e-06
1.83759e-06
1.27986e-06
9.48983e-07
7.0092e-07
6.02149e-07
5.54725e-07
5.35055e-07
5.41433e-07
4.19564e-05
4.35743e-05
4.5227e-05
4.69079e-05
4.8611e-05
5.03296e-05
5.20567e-05
5.37849e-05
5.55064e-05
5.72136e-05
5.88985e-05
6.05534e-05
6.21705e-05
6.37417e-05
6.52597e-05
6.67177e-05
6.81091e-05
6.94272e-05
7.06651e-05
7.18164e-05
7.28765e-05
7.38418e-05
7.47069e-05
7.5466e-05
7.61136e-05
7.66448e-05
7.70589e-05
7.7355e-05
7.75279e-05
7.75764e-05
7.74894e-05
7.72581e-05
7.68834e-05
7.63756e-05
7.57573e-05
7.50354e-05
7.41468e-05
7.30856e-05
7.18786e-05
7.0575e-05
6.92224e-05
6.77712e-05
6.61371e-05
6.436e-05
6.25176e-05
6.06648e-05
5.87489e-05
5.66953e-05
5.4552e-05
5.2405e-05
5.02727e-05
4.80649e-05
4.57741e-05
4.3474e-05
4.12059e-05
3.89138e-05
3.65761e-05
3.42403e-05
3.19454e-05
2.96492e-05
2.73409e-05
2.50627e-05
2.28451e-05
2.06597e-05
1.85133e-05
1.64371e-05
1.44475e-05
1.2549e-05
1.07636e-05
9.09131e-06
7.5459e-06
6.17735e-06
4.96192e-06
3.87766e-06
2.98855e-06
2.27418e-06
1.63275e-06
1.24302e-06
9.38294e-07
7.86091e-07
6.59295e-07
6.46879e-07
6.24886e-07
6.06126e-07
5.97104e-07
4.89655e-05
5.09212e-05
5.28979e-05
5.48861e-05
5.68774e-05
5.8863e-05
6.08335e-05
6.278e-05
6.46934e-05
6.65647e-05
6.83853e-05
7.01472e-05
7.1842e-05
7.34618e-05
7.49996e-05
7.64495e-05
7.78054e-05
7.90611e-05
8.02099e-05
8.12466e-05
8.21693e-05
8.2976e-05
8.36603e-05
8.42169e-05
8.46409e-05
8.49288e-05
8.50833e-05
8.51044e-05
8.49865e-05
8.47328e-05
8.43249e-05
8.37537e-05
8.30232e-05
8.21499e-05
8.11705e-05
8.0095e-05
7.88335e-05
7.73801e-05
7.57713e-05
7.40704e-05
7.23359e-05
7.05113e-05
6.84999e-05
6.63454e-05
6.4133e-05
6.19194e-05
5.9649e-05
5.72485e-05
5.47714e-05
5.23052e-05
4.9862e-05
4.73543e-05
4.47797e-05
4.22102e-05
3.968e-05
3.71381e-05
3.45723e-05
3.20318e-05
2.9549e-05
2.70862e-05
2.46371e-05
2.22451e-05
1.99396e-05
1.77079e-05
1.55645e-05
1.35212e-05
1.15953e-05
9.80699e-06
8.20274e-06
6.73557e-06
5.41103e-06
4.28977e-06
3.37831e-06
2.57038e-06
1.91339e-06
1.50723e-06
1.16813e-06
9.82226e-07
8.24423e-07
7.8238e-07
7.17362e-07
6.98778e-07
6.74465e-07
6.48505e-07
6.26539e-07
5.68609e-05
5.91426e-05
6.14208e-05
6.36839e-05
6.59214e-05
6.81226e-05
7.0277e-05
7.23746e-05
7.44058e-05
7.63616e-05
7.82337e-05
8.00143e-05
8.16956e-05
8.32703e-05
8.47333e-05
8.60804e-05
8.7306e-05
8.84044e-05
8.93698e-05
9.01992e-05
9.08952e-05
9.14566e-05
9.18742e-05
9.21445e-05
9.22628e-05
9.22274e-05
9.20467e-05
9.1719e-05
9.12394e-05
9.06189e-05
8.98255e-05
8.88497e-05
8.76997e-05
8.63999e-05
8.50062e-05
8.35335e-05
8.186e-05
7.99754e-05
7.79268e-05
7.57921e-05
7.36409e-05
7.14132e-05
6.90052e-05
6.64639e-05
6.38777e-05
6.12995e-05
5.86715e-05
5.59269e-05
5.31258e-05
5.03535e-05
4.76157e-05
4.48332e-05
4.20115e-05
3.92171e-05
3.64725e-05
3.37342e-05
3.10026e-05
2.83289e-05
2.5742e-05
2.3216e-05
2.07437e-05
1.83603e-05
1.60947e-05
1.39542e-05
1.19796e-05
1.01431e-05
8.44453e-06
6.90672e-06
5.6276e-06
4.51648e-06
3.52274e-06
2.67494e-06
2.1501e-06
1.70218e-06
1.38089e-06
1.17118e-06
9.96276e-07
9.31885e-07
8.50711e-07
8.11933e-07
7.59309e-07
7.29169e-07
6.99129e-07
6.69245e-07
6.43973e-07
6.56699e-05
6.82308e-05
7.0753e-05
7.32235e-05
7.56306e-05
7.79631e-05
8.02102e-05
8.23621e-05
8.44099e-05
8.63458e-05
8.81629e-05
8.98543e-05
9.1413e-05
9.28342e-05
9.41159e-05
9.52557e-05
9.62479e-05
9.70873e-05
9.77693e-05
9.82955e-05
9.86757e-05
9.89053e-05
9.897e-05
9.88713e-05
9.86034e-05
9.81676e-05
9.75801e-05
9.68322e-05
9.59245e-05
9.48812e-05
9.36441e-05
9.22054e-05
9.05778e-05
8.8795e-05
8.69381e-05
8.50307e-05
8.29189e-05
8.05793e-05
7.80673e-05
7.54749e-05
7.2881e-05
7.02268e-05
6.74112e-05
6.44865e-05
6.15402e-05
5.86152e-05
5.56498e-05
5.25881e-05
4.94957e-05
4.64529e-05
4.34595e-05
4.04533e-05
3.74521e-05
3.45157e-05
3.16514e-05
2.88197e-05
2.60335e-05
2.33439e-05
2.07814e-05
1.83476e-05
1.60385e-05
1.38497e-05
1.18034e-05
9.91872e-06
8.28278e-06
6.85225e-06
5.55038e-06
4.36798e-06
3.46676e-06
2.81993e-06
2.26745e-06
1.85169e-06
1.57566e-06
1.33421e-06
1.17317e-06
1.09447e-06
9.93475e-07
9.34213e-07
8.6797e-07
8.23254e-07
7.75605e-07
7.40671e-07
7.11662e-07
6.87349e-07
6.72874e-07
7.53338e-05
7.80866e-05
8.07559e-05
8.33287e-05
8.57937e-05
8.81405e-05
9.03593e-05
9.24419e-05
9.43817e-05
9.61734e-05
9.78115e-05
9.92904e-05
0.000100605
0.000101755
0.000102743
0.000103567
0.000104219
0.000104695
0.000104993
0.000105122
0.000105104
0.000104919
0.000104549
0.000104004
0.000103275
0.000102368
0.000101311
0.000100076
9.86815e-05
9.71742e-05
9.54482e-05
9.34998e-05
9.1346e-05
8.90323e-05
8.66684e-05
8.42936e-05
8.17334e-05
7.89397e-05
7.59659e-05
7.29147e-05
6.98698e-05
6.67789e-05
6.3557e-05
6.02662e-05
5.69934e-05
5.37683e-05
5.05255e-05
4.7217e-05
4.39094e-05
4.06725e-05
3.75037e-05
3.4365e-05
3.12912e-05
2.83431e-05
2.5526e-05
2.27827e-05
2.01284e-05
1.7606e-05
1.52449e-05
1.30774e-05
1.11714e-05
9.41291e-06
7.79578e-06
6.31014e-06
5.07788e-06
4.21419e-06
3.45454e-06
2.81878e-06
2.36683e-06
2.01674e-06
1.71453e-06
1.49898e-06
1.38214e-06
1.24678e-06
1.14066e-06
1.06074e-06
9.80709e-07
9.20844e-07
8.63461e-07
8.19341e-07
7.80153e-07
7.50932e-07
7.34584e-07
7.33515e-07
7.70494e-07
8.56747e-05
8.84892e-05
9.1169e-05
9.3703e-05
9.60819e-05
9.82974e-05
0.000100342
0.000102211
0.000103901
0.00010541
0.000106735
0.000107869
0.000108812
0.000109571
0.000110156
0.000110556
0.000110764
0.000110776
0.000110592
0.000110241
0.000109758
0.000109084
0.000108206
0.000107152
0.000105899
0.000104463
0.000102891
0.000101107
9.91772e-05
9.71909e-05
9.49535e-05
9.24692e-05
8.97592e-05
8.68828e-05
8.39746e-05
8.11001e-05
7.8096e-05
7.48861e-05
7.14958e-05
6.80275e-05
6.45618e-05
6.10567e-05
5.74548e-05
5.38339e-05
5.02847e-05
4.68351e-05
4.34312e-05
4.00205e-05
3.66498e-05
3.33725e-05
3.01852e-05
2.70734e-05
2.4084e-05
2.12871e-05
1.87419e-05
1.63639e-05
1.41131e-05
1.20114e-05
1.00554e-05
8.23951e-06
6.94012e-06
5.83299e-06
4.85648e-06
4.02697e-06
3.39576e-06
2.90664e-06
2.47565e-06
2.12682e-06
1.88043e-06
1.71949e-06
1.5408e-06
1.39656e-06
1.28715e-06
1.17893e-06
1.09107e-06
1.01669e-06
9.50952e-07
8.98337e-07
8.53731e-07
8.19961e-07
7.97539e-07
7.86864e-07
8.11959e-07
8.60231e-07
9.38979e-07
9.63635e-05
9.90698e-05
0.000101589
0.000103913
0.000106036
0.000107954
0.000109661
0.000111159
0.000112451
0.000113535
0.000114407
0.000115065
0.000115511
0.000115769
0.000115854
0.000115735
0.000115404
0.000114861
0.000114112
0.00011322
0.000112237
0.000111013
0.000109574
0.00010797
0.000106154
0.000104152
0.000102046
9.96625e-05
9.71609e-05
9.47231e-05
9.19945e-05
8.89864e-05
8.57263e-05
8.22881e-05
7.88128e-05
7.53985e-05
7.19475e-05
6.8406e-05
6.47177e-05
6.09519e-05
5.7174e-05
5.33525e-05
4.94627e-05
4.55929e-05
4.18376e-05
3.82454e-05
3.48211e-05
3.15509e-05
2.83823e-05
2.53368e-05
2.24093e-05
1.95929e-05
1.69093e-05
1.43849e-05
1.22718e-05
1.05891e-05
9.05247e-06
7.67912e-06
6.4806e-06
5.48218e-06
4.70928e-06
4.03866e-06
3.45267e-06
2.97186e-06
2.60733e-06
2.35033e-06
2.10074e-06
1.87421e-06
1.69357e-06
1.54368e-06
1.40308e-06
1.28702e-06
1.19002e-06
1.10387e-06
1.03325e-06
9.74299e-07
9.26447e-07
8.89971e-07
8.65415e-07
8.52717e-07
8.68243e-07
9.06235e-07
9.7023e-07
1.05535e-06
1.16431e-06
0.000106895
0.000109293
0.000111454
0.000113378
0.000115062
0.000116504
0.000117706
0.000118678
0.000119429
0.000119954
0.000120245
0.000120301
0.000120139
0.00011982
0.000119343
0.000118626
0.000117689
0.000116525
0.000115149
0.000113701
0.000112236
0.000110418
0.000108409
0.000106261
0.00010388
0.000101305
9.87058e-05
9.56824e-05
9.25747e-05
8.97747e-05
8.66578e-05
8.32107e-05
7.94794e-05
7.555e-05
7.1532e-05
6.75359e-05
6.35754e-05
5.97749e-05
5.60104e-05
5.21873e-05
4.83454e-05
4.44576e-05
4.05223e-05
3.66128e-05
3.27907e-05
2.90884e-05
2.5639e-05
2.28226e-05
2.02414e-05
1.78274e-05
1.55803e-05
1.35109e-05
1.16482e-05
1.00253e-05
8.6748e-06
7.49937e-06
6.44685e-06
5.5314e-06
4.75976e-06
4.13231e-06
3.63778e-06
3.24712e-06
2.86407e-06
2.53084e-06
2.25743e-06
2.03094e-06
1.82475e-06
1.64861e-06
1.50221e-06
1.37703e-06
1.26905e-06
1.17985e-06
1.10581e-06
1.04472e-06
9.96648e-07
9.60225e-07
9.3627e-07
9.25013e-07
9.38581e-07
9.72562e-07
1.02707e-06
1.09994e-06
1.19183e-06
1.30085e-06
1.42729e-06
0.000116577
0.000118449
0.000120048
0.00012138
0.000122443
0.000123238
0.000123778
0.000124093
0.000124193
0.00012405
0.000123657
0.000123013
0.000122168
0.000121278
0.000120231
0.000118875
0.000117313
0.000115507
0.000113484
0.000111554
0.000109711
0.000107273
0.000104767
0.000102165
9.9292e-05
9.61785e-05
9.32442e-05
8.95723e-05
8.57819e-05
8.27475e-05
7.95126e-05
7.58517e-05
7.18709e-05
6.76661e-05
6.32809e-05
5.87488e-05
5.40552e-05
4.97956e-05