/*--------------------------------*- C++ -*----------------------------------*\
| =========                 |                                                 |
| \\      /  F ield         | OpenFOAM: The Open Source CFD Toolbox           |
|  \\    /   O peration     | Version:  2412                                  |
|   \\  /    A nd           | Website:  www.openfoam.com                      |
|    \\/     M anipulation  |                                                 |
\*---------------------------------------------------------------------------*/
FoamFile
{
    version     2.0;
    format      ascii;
    arch        "LSB;label=32;scalar=64";
    class       volScalarField;
    location    "300";
    object      nut;
}
// * * * * * * * * * * * * * * * * * * * * * * * * * * * * * * * * * * * * * //

dimensions      [0 2 -1 0 0 0 0];

internalField   nonuniform List<scalar> 
7373
(
1.19224e-11
1.19315e-11
1.19401e-11
1.19474e-11
1.19527e-11
1.19569e-11
1.19603e-11
1.19621e-11
1.19626e-11
1.19621e-11
1.19596e-11
1.19555e-11
1.19495e-11
1.19418e-11
1.19318e-11
1.19188e-11
1.19037e-11
1.18858e-11
1.18645e-11
1.184e-11
1.18119e-11
1.17791e-11
1.17414e-11
1.16991e-11
1.16519e-11
1.15983e-11
1.15371e-11
1.14693e-11
1.13937e-11
1.13086e-11
1.12146e-11
1.11101e-11
1.09934e-11
1.08649e-11
1.07235e-11
1.05672e-11
1.03948e-11
1.02055e-11
9.99757e-12
9.76884e-12
9.51758e-12
9.2419e-12
8.94e-12
8.60961e-12
8.24859e-12
7.85462e-12
7.42748e-12
6.9682e-12
6.47908e-12
5.96749e-12
5.44301e-12
4.9192e-12
4.4123e-12
3.93147e-12
3.47553e-12
3.02788e-12
2.55446e-12
2.01396e-12
1.3786e-12
6.90514e-13
1.59397e-13
3.7741e-15
7.52473e-14
1.70736e-12
1.26453e-11
5.29132e-11
1.70846e-10
3.83248e-10
1.14543e-09
1.14634e-09
1.14712e-09
1.14776e-09
1.14829e-09
1.14869e-09
1.14896e-09
1.1491e-09
1.14912e-09
1.14899e-09
1.14866e-09
1.14821e-09
1.1476e-09
1.14677e-09
1.14567e-09
1.14433e-09
1.14279e-09
1.14097e-09
1.13882e-09
1.13635e-09
1.13355e-09
1.13032e-09
1.12662e-09
1.12246e-09
1.11784e-09
1.11261e-09
1.10667e-09
1.10009e-09
1.09273e-09
1.08446e-09
1.07535e-09
1.06523e-09
1.05396e-09
1.04151e-09
1.02782e-09
1.01269e-09
9.96027e-10
9.77714e-10
9.57584e-10
9.35446e-10
9.1115e-10
8.84498e-10
8.55299e-10
8.23333e-10
7.88408e-10
7.50334e-10
7.0907e-10
6.64714e-10
6.17496e-10
5.68129e-10
5.17525e-10
4.6697e-10
4.18008e-10
3.71528e-10
3.27415e-10
2.84115e-10
2.3849e-10
1.86808e-10
1.2678e-10
6.28575e-11
1.44511e-11
3.548e-13
6.78693e-12
1.45744e-10
1.04193e-09
4.26121e-09
1.33691e-08
3.03151e-08
1.1208e-08
1.12169e-08
1.12242e-08
1.12302e-08
1.12351e-08
1.12388e-08
1.12412e-08
1.12423e-08
1.12419e-08
1.12398e-08
1.1236e-08
1.1231e-08
1.12241e-08
1.1215e-08
1.12032e-08
1.11892e-08
1.11731e-08
1.11542e-08
1.1132e-08
1.11066e-08
1.1078e-08
1.10454e-08
1.10082e-08
1.09663e-08
1.09201e-08
1.08677e-08
1.08088e-08
1.07433e-08
1.067e-08
1.05881e-08
1.04978e-08
1.03974e-08
1.02858e-08
1.01626e-08
1.00269e-08
9.87705e-09
9.71205e-09
9.5306e-09
9.33122e-09
9.11208e-09
8.87157e-09
8.60774e-09
8.31855e-09
8.00193e-09
7.65625e-09
7.27944e-09
6.87143e-09
6.43282e-09
5.96639e-09
5.479e-09
4.9791e-09
4.47952e-09
3.99508e-09
3.53433e-09
3.09643e-09
2.66706e-09
2.21775e-09
1.71624e-09
1.14683e-09
5.5888e-10
1.27859e-10
3.33879e-12
5.97617e-11
1.18222e-09
8.03337e-09
3.1712e-08
9.53341e-08
2.2069e-07
5.51802e-08
5.52234e-08
5.52585e-08
5.52877e-08
5.53102e-08
5.5327e-08
5.53375e-08
5.53412e-08
5.5337e-08
5.53238e-08
5.53025e-08
5.52736e-08
5.5236e-08
5.51868e-08
5.51245e-08
5.50511e-08
5.49671e-08
5.4869e-08
5.47547e-08
5.46241e-08
5.44777e-08
5.43121e-08
5.41235e-08
5.39126e-08
5.36789e-08
5.34158e-08
5.31205e-08
5.27927e-08
5.24263e-08
5.20183e-08
5.15662e-08
5.10643e-08
5.05071e-08
4.98923e-08
4.92137e-08
4.84655e-08
4.76405e-08
4.67344e-08
4.57376e-08
4.46427e-08
4.34403e-08
4.21212e-08
4.06753e-08
3.9093e-08
3.73642e-08
3.54818e-08
3.34436e-08
3.12534e-08
2.8926e-08
2.64934e-08
2.39979e-08
2.15025e-08
1.90777e-08
1.67664e-08
1.45666e-08
1.24149e-08
1.01873e-08
7.75257e-09
5.07426e-09
2.41931e-09
5.50722e-10
1.55759e-11
2.56439e-10
4.60932e-09
2.95688e-08
1.11968e-07
3.19305e-07
7.48494e-07
1.93723e-07
1.93874e-07
1.93995e-07
1.94093e-07
1.94169e-07
1.94225e-07
1.94257e-07
1.94265e-07
1.94245e-07
1.94193e-07
1.9411e-07
1.93999e-07
1.93856e-07
1.93674e-07
1.93446e-07
1.93177e-07
1.92869e-07
1.92512e-07
1.92096e-07
1.91624e-07
1.91095e-07
1.90499e-07
1.89822e-07
1.89067e-07
1.88229e-07
1.87288e-07
1.86236e-07
1.85066e-07
1.83759e-07
1.82305e-07
1.80691e-07
1.78901e-07
1.76915e-07
1.74722e-07
1.72301e-07
1.69628e-07
1.66686e-07
1.63449e-07
1.59889e-07
1.55975e-07
1.51677e-07
1.4696e-07
1.4179e-07
1.3613e-07
1.29947e-07
1.23218e-07
1.15932e-07
1.08106e-07
9.97927e-08
9.11023e-08
8.21837e-08
7.32557e-08
6.45609e-08
5.62548e-08
4.83447e-08
4.06475e-08
3.27991e-08
2.44524e-08
1.5619e-08
7.26702e-09
1.64699e-09
5.11703e-11
7.64883e-10
1.23758e-08
7.45295e-08
2.69101e-07
7.21484e-07
1.69727e-06
5.54478e-07
5.54901e-07
5.55236e-07
5.5551e-07
5.55718e-07
5.55872e-07
5.55961e-07
5.55975e-07
5.55907e-07
5.55752e-07
5.55508e-07
5.55181e-07
5.54763e-07
5.54229e-07
5.53568e-07
5.52789e-07
5.51892e-07
5.50854e-07
5.49647e-07
5.48276e-07
5.46741e-07
5.45007e-07
5.43044e-07
5.40851e-07
5.38415e-07
5.3568e-07
5.32621e-07
5.29217e-07
5.25415e-07
5.21183e-07
5.16488e-07
5.11274e-07
5.05494e-07
4.99101e-07
4.92043e-07
4.84254e-07
4.75671e-07
4.66222e-07
4.55827e-07
4.44392e-07
4.31828e-07
4.18037e-07
4.02913e-07
3.86351e-07
3.68266e-07
3.48581e-07
3.27277e-07
3.04404e-07
2.80114e-07
2.54714e-07
2.28634e-07
2.02498e-07
1.76991e-07
1.52591e-07
1.29391e-07
1.07014e-07
8.46579e-08
6.16523e-08
3.83428e-08
1.73887e-08
3.92764e-09
1.35689e-10
1.82151e-09
2.6304e-08
1.47786e-07
5.05542e-07
1.26316e-06
2.96543e-06
1.38021e-06
1.38123e-06
1.38204e-06
1.3827e-06
1.3832e-06
1.38357e-06
1.38379e-06
1.38383e-06
1.38366e-06
1.38328e-06
1.38269e-06
1.3819e-06
1.38088e-06
1.37957e-06
1.37794e-06
1.37603e-06
1.37383e-06
1.37125e-06
1.36825e-06
1.36485e-06
1.36101e-06
1.35667e-06
1.35175e-06
1.34623e-06
1.34008e-06
1.33318e-06
1.32544e-06
1.31681e-06
1.30718e-06
1.29645e-06
1.28453e-06
1.2713e-06
1.25661e-06
1.24037e-06
1.22242e-06
1.20261e-06
1.18076e-06
1.15668e-06
1.13018e-06
1.10102e-06
1.06896e-06
1.03375e-06
9.95125e-07
9.52833e-07
9.06655e-07
8.56418e-07
8.02078e-07
7.43765e-07
6.81874e-07
6.17152e-07
5.50686e-07
4.84022e-07
4.18885e-07
3.56604e-07
2.97667e-07
2.41575e-07
1.86928e-07
1.32723e-07
8.02647e-08
3.5465e-08
7.99381e-09
3.10659e-10
3.70811e-09
4.73418e-08
2.4631e-07
7.92718e-07
1.83031e-06
4.28058e-06
3.09397e-06
3.09615e-06
3.09789e-06
3.09931e-06
3.10039e-06
3.10118e-06
3.10166e-06
3.10174e-06
3.10139e-06
3.10057e-06
3.0993e-06
3.0976e-06
3.0954e-06
3.09255e-06
3.08901e-06
3.08483e-06
3.07998e-06
3.07429e-06
3.06764e-06
3.06004e-06
3.05144e-06
3.04166e-06
3.03053e-06
3.01803e-06
3.00404e-06
2.98827e-06
2.97058e-06
2.95083e-06
2.92876e-06
2.90416e-06
2.87679e-06
2.84638e-06
2.81263e-06
2.77527e-06
2.73396e-06
2.68833e-06
2.63797e-06
2.58245e-06
2.5213e-06
2.45397e-06
2.37992e-06
2.29858e-06
2.20937e-06
2.11173e-06
2.0052e-06
1.88941e-06
1.76432e-06
1.63025e-06
1.48812e-06
1.33959e-06
1.18714e-06
1.03428e-06
8.84986e-07
7.42679e-07
6.09136e-07
4.84232e-07
3.65944e-07
2.53034e-07
1.48688e-07
6.39963e-08
1.44185e-08
6.37949e-10
6.70568e-09
7.48487e-08
3.57454e-07
1.07396e-06
2.29227e-06
5.29943e-06
6.36014e-06
6.36429e-06
6.36758e-06
6.37026e-06
6.37227e-06
6.37372e-06
6.37456e-06
6.37463e-06
6.37383e-06
6.37213e-06
6.36952e-06
6.36605e-06
6.36157e-06
6.35577e-06
6.34859e-06
6.34007e-06
6.33015e-06
6.31846e-06
6.30477e-06
6.28909e-06
6.27123e-06
6.25085e-06
6.22763e-06
6.20144e-06
6.17203e-06
6.13885e-06
6.10155e-06
6.05984e-06
6.0132e-06
5.96115e-06
5.90322e-06
5.83881e-06
5.76729e-06
5.68806e-06
5.60039e-06
5.50347e-06
5.39644e-06
5.27839e-06
5.14829e-06
5.00502e-06
4.84746e-06
4.67447e-06
4.48485e-06
4.27758e-06
4.05178e-06
3.80688e-06
3.54289e-06
3.2606e-06
2.96197e-06
2.65044e-06
2.33122e-06
2.01164e-06
1.70025e-06
1.40509e-06
1.13116e-06
8.79944e-07
6.48908e-07
4.36626e-07
2.49128e-07
1.04426e-07
2.35715e-08
1.20318e-09
1.10307e-08
1.06226e-07
4.60891e-07
1.28068e-06
2.5372e-06
5.7305e-06
1.20532e-05
1.20601e-05
1.20654e-05
1.20697e-05
1.20727e-05
1.20748e-05
1.20757e-05
1.20752e-05
1.20732e-05
1.20694e-05
1.2064e-05
1.2057e-05
1.20481e-05
1.20367e-05
1.20227e-05
1.20062e-05
1.19869e-05
1.19643e-05
1.19378e-05
1.19075e-05
1.18728e-05
1.18332e-05
1.17881e-05
1.17372e-05
1.16799e-05
1.16153e-05
1.15426e-05
1.14612e-05
1.137e-05
1.12684e-05
1.11551e-05
1.10292e-05
1.08892e-05
1.07341e-05
1.05623e-05
1.03723e-05
1.01623e-05
9.93055e-06
9.67509e-06
9.39381e-06
9.08463e-06
8.74542e-06
8.37415e-06
7.96909e-06
7.52887e-06
7.05279e-06
6.54114e-06
5.99562e-06
5.4201e-06
4.82113e-06
4.20872e-06
3.59696e-06
3.00282e-06
2.44329e-06
1.93013e-06
1.46869e-06
1.05626e-06
6.9106e-07
3.82509e-07
1.56099e-07
3.54188e-08
2.11733e-09
1.67697e-08
1.37206e-07
5.34459e-07
1.35652e-06
2.50959e-06
5.43746e-06
1.4235e-05
2.10225e-05
2.1032e-05
2.10392e-05
2.10445e-05
2.10478e-05
2.10494e-05
2.10491e-05
2.10465e-05
2.10412e-05
2.10329e-05
2.10219e-05
2.10081e-05
2.09909e-05
2.09696e-05
2.09436e-05
2.09133e-05
2.08781e-05
2.0837e-05
2.07893e-05
2.07345e-05
2.06722e-05
2.06011e-05
2.05202e-05
2.04289e-05
2.03262e-05
2.02104e-05
2.00803e-05
1.99345e-05
1.97714e-05
1.95894e-05
1.93866e-05
1.9161e-05
1.89102e-05
1.86321e-05
1.83239e-05
1.79827e-05
1.76056e-05
1.71893e-05
1.67303e-05
1.62251e-05
1.567e-05
1.50617e-05
1.4397e-05
1.36732e-05
1.28886e-05
1.20425e-05
1.11357e-05
1.01715e-05
9.15643e-06
8.10181e-06
7.02507e-06
5.95099e-06
4.91039e-06
3.93586e-06
3.05158e-06
2.27077e-06
1.59153e-06
1.01126e-06
5.42256e-07
2.15378e-07
4.93667e-08
3.51663e-09
2.384e-08
1.62924e-07
5.62137e-07
1.28049e-06
2.23044e-06
4.50408e-06
1.29173e-05
2.61195e-05
3.37684e-05
3.37791e-05
3.37864e-05
3.37908e-05
3.37922e-05
3.37908e-05
3.37866e-05
3.37787e-05
3.37665e-05
3.37497e-05
3.37285e-05
3.37029e-05
3.3672e-05
3.36344e-05
3.35895e-05
3.35376e-05
3.34778e-05
3.34085e-05
3.33286e-05
3.32374e-05
3.31337e-05
3.3016e-05
3.28826e-05
3.27323e-05
3.25634e-05
3.23732e-05
3.21598e-05
3.19208e-05
3.16537e-05
3.13557e-05
3.10237e-05
3.06544e-05
3.02439e-05
2.97883e-05
2.92834e-05
2.87244e-05
2.81063e-05
2.74237e-05
2.66712e-05
2.58431e-05
2.49338e-05
2.39383e-05
2.2852e-05
2.16712e-05
2.03938e-05
1.9019e-05
1.75485e-05
1.59871e-05
1.43451e-05
1.26396e-05
1.08981e-05
9.16046e-06
7.4782e-06
5.90857e-06
4.49669e-06
3.27044e-06
2.23098e-06
1.37419e-06
7.1246e-07
2.75407e-07
6.42412e-08
5.56255e-09
3.20076e-08
1.79519e-07
5.40625e-07
1.08973e-06
1.78616e-06
3.22656e-06
1.00216e-05
2.23835e-05
5.76498e-05
5.02785e-05
5.02871e-05
5.02915e-05
5.02915e-05
5.02872e-05
5.02789e-05
5.02664e-05
5.02485e-05
5.02245e-05
5.01938e-05
5.01564e-05
5.01125e-05
5.00609e-05
4.99994e-05
4.99272e-05
4.98446e-05
4.97501e-05
4.96416e-05
4.95175e-05
4.93766e-05
4.92171e-05
4.90368e-05
4.88331e-05
4.86044e-05
4.83478e-05
4.80595e-05
4.77365e-05
4.73754e-05
4.69721e-05
4.65227e-05
4.60222e-05
4.54656e-05
4.48472e-05
4.4161e-05
4.34004e-05
4.25582e-05
4.16269e-05
4.05986e-05
3.9465e-05
3.82178e-05
3.68491e-05
3.53515e-05
3.37189e-05
3.19463e-05
3.00308e-05
2.79717e-05
2.57708e-05
2.34347e-05
2.09769e-05
1.84212e-05
1.58075e-05
1.3195e-05
1.06636e-05
8.30688e-06
6.20242e-06
4.40304e-06
2.91699e-06
1.73694e-06
8.6857e-07
3.27015e-07
7.84887e-08
8.44828e-09
4.09815e-08
1.85628e-07
4.80892e-07
8.51941e-07
1.29628e-06
1.99131e-06
6.413e-06
1.64135e-05
5.49752e-05
7.00935e-05
7.00955e-05
7.00925e-05
7.00836e-05
7.00687e-05
7.00484e-05
7.00221e-05
6.99886e-05
6.99466e-05
6.98954e-05
6.98351e-05
6.97655e-05
6.96852e-05
6.95913e-05
6.94828e-05
6.93596e-05
6.92199e-05
6.90608e-05
6.88803e-05
6.86763e-05
6.84464e-05
6.81877e-05
6.78968e-05
6.7571e-05
6.72063e-05
6.67978e-05
6.63413e-05
6.58315e-05
6.52631e-05
6.46305e-05
6.39268e-05
6.31447e-05
6.22764e-05
6.13134e-05
6.02463e-05
5.9065e-05
5.77591e-05
5.63173e-05
5.47283e-05
5.29807e-05
5.10635e-05
4.89668e-05
4.66818e-05
4.42023e-05
4.1524e-05
3.86452e-05
3.55674e-05
3.22977e-05
2.88524e-05
2.52622e-05
2.15807e-05
1.7891e-05
1.43107e-05
1.09827e-05
8.03261e-06
5.55134e-06
3.55924e-06
2.04102e-06
9.81735e-07
3.60957e-07
9.06102e-08
1.24261e-08
5.0585e-08
1.83007e-07
4.03335e-07
6.29928e-07
8.70897e-07
1.08925e-06
3.40992e-06
1.01015e-05
4.79244e-05
9.25344e-05
9.25247e-05
9.25091e-05
9.24857e-05
9.24546e-05
9.24161e-05
9.23699e-05
9.23142e-05
9.22473e-05
9.21684e-05
9.20772e-05
9.19738e-05
9.18562e-05
9.17208e-05
9.15661e-05
9.1392e-05
9.11958e-05
9.09744e-05
9.07249e-05
9.04443e-05
9.01293e-05
8.97768e-05
8.93821e-05
8.89412e-05
8.84493e-05
8.78999e-05
8.72874e-05
8.66048e-05
8.58454e-05
8.50016e-05
8.40642e-05
8.30239e-05
8.18701e-05
8.05917e-05
7.91762e-05
7.76105e-05
7.58806e-05
7.39719e-05
7.18693e-05
6.95578e-05
6.70231e-05
6.42518e-05
6.12325e-05
5.79563e-05
5.44167e-05
5.06099e-05
4.65357e-05
4.22e-05
3.76208e-05
3.28351e-05
2.79121e-05
2.29639e-05
1.81566e-05
1.36995e-05
9.78395e-06
6.55462e-06
4.04655e-06
2.22404e-06
1.02679e-06
3.71004e-07
9.97167e-08
1.78996e-08
6.09794e-08
1.75961e-07
3.29305e-07
4.61921e-07
5.7099e-07
6.76299e-07
1.70304e-06
5.23991e-06
3.70563e-05
0.000116955
0.000116927
0.000116893
0.000116849
0.000116795
0.000116732
0.000116659
0.000116573
0.000116473
0.000116358
0.000116227
0.000116081
0.000115916
0.000115729
0.000115517
0.00011528
0.000115015
0.000114717
0.000114385
0.000114012
0.000113596
0.000113133
0.000112616
0.000112041
0.000111401
0.000110689
0.000109897
0.000109017
0.00010804
0.000106957
0.000105757
0.000104426
0.000102954
0.000101324
9.95224e-05
9.75321e-05
9.53356e-05
9.29146e-05
9.02501e-05
8.73233e-05
8.4116e-05
8.06109e-05
7.6793e-05
7.26499e-05
6.81717e-05
6.33511e-05
5.81837e-05
5.26727e-05
4.68356e-05
4.07157e-05
3.43998e-05
2.80365e-05
2.18547e-05
1.61517e-05
1.12067e-05
7.23179e-06
4.27022e-06
2.23801e-06
9.91758e-07
3.56664e-07
1.05989e-07
2.58479e-08
7.29725e-08
1.70085e-07
2.74799e-07
3.64824e-07
4.4751e-07
5.20814e-07
1.02327e-06
2.59961e-06
2.43495e-05
0.000142899
0.000142847
0.000142788
0.000142715
0.000142631
0.000142535
0.000142425
0.000142301
0.000142159
0.000141997
0.000141816
0.000141615
0.00014139
0.000141138
0.000140855
0.00014054
0.000140191
0.000139802
0.000139368
0.000138885
0.000138348
0.000137753
0.000137092
0.000136359
0.000135546
0.000134645
0.000133646
0.000132538
0.000131313
0.000129958
0.000128459
0.000126802
0.000124973
0.000122952
0.000120723
0.000118265
0.000115557
0.000112577
0.000109303
0.00010571
0.000101778
9.74842e-05
9.28094e-05
8.77369e-05
8.22519e-05
7.63416e-05
6.99957e-05
6.32117e-05
5.60054e-05
4.8426e-05
4.05821e-05
3.26697e-05
2.50023e-05
1.79947e-05
1.20384e-05
7.41821e-06
4.1564e-06
2.06926e-06
8.84677e-07
3.23919e-07
1.1084e-07
4.00456e-08
8.90787e-08
1.72262e-07
2.63525e-07
3.56794e-07
4.40745e-07
5.09203e-07
8.47811e-07
1.49073e-06
1.3015e-05
0.00017014
0.000170055
0.000169961
0.000169851
0.000169727
0.000169587
0.00016943
0.000169256
0.000169058
0.000168838
0.000168592
0.000168321
0.000168021
0.000167687
0.000167316
0.000166905
0.00016645
0.000165948
0.00016539
0.000164773
0.00016409
0.000163335
0.000162501
0.000161579
0.000160561
0.000159436
0.000158193
0.000156821
0.000155306
0.000153637
0.000151796
0.000149767
0.000147533
0.000145072
0.000142363
0.000139384
0.00013611
0.000132515
0.000128573
0.000124256
0.000119538
0.000114392
0.000108796
0.000102726
9.61609e-05
8.90815e-05
8.14687e-05
7.33124e-05
6.46246e-05
5.54618e-05
4.5962e-05
3.63877e-05
2.71701e-05
1.88829e-05
1.20527e-05
7.01496e-06
3.70056e-06
1.75099e-06
7.32864e-07
2.8323e-07
1.16816e-07
6.45678e-08
1.21396e-07
2.05664e-07
3.0394e-07
4.16064e-07
5.15939e-07
5.94618e-07
8.91952e-07
1.12664e-06
5.65165e-06
0.000198631
0.000198502
0.000198362
0.000198204
0.000198026
0.00019783
0.000197613
0.000197372
0.000197104
0.000196807
0.000196479
0.000196119
0.000195724
0.000195286
0.000194802
0.000194271
0.000193685
0.000193041
0.000192331
0.000191547
0.000190684
0.000189735
0.000188691
0.000187541
0.000186275
0.000184882
0.000183349
0.000181662
0.000179808
0.00017777
0.000175531
0.000173071
0.00017037
0.000167404
0.000164151
0.000160582
0.000156672
0.000152389
0.000147705
0.000142588
0.000137008
0.000130932
0.000124333
0.000117181
0.000109448
0.000101104
9.21205e-05
8.24771e-05
7.21817e-05
6.13022e-05
5.00201e-05
3.86973e-05
2.79363e-05
1.85248e-05
1.11264e-05
6.04306e-06
2.98797e-06
1.35756e-06
5.73027e-07
2.45942e-07
1.2929e-07
1.05442e-07
1.76979e-07
2.74622e-07
3.93784e-07
5.3548e-07
6.5952e-07
7.57833e-07
1.06381e-06
1.13591e-06
2.75135e-06
0.00022844
0.000228253
0.000228054
0.000227831
0.000227585
0.000227314
0.000227017
0.000226692
0.000226332
0.000225937
0.000225503
0.00022503
0.000224512
0.000223943
0.000223318
0.000222634
0.000221884
0.000221063
0.000220163
0.000219173
0.000218088
0.0002169
0.000215598
0.00021417
0.000212605
0.000210889
0.000209007
0.000206945
0.000204686
0.000202212
0.000199503
0.000196539
0.000193294
0.000189745
0.000185863
0.00018162
0.000176985
0.000171925
0.000166406
0.000160393
0.000153852
0.000146746
0.00013904
0.000130699
0.000121685
0.000111958
0.000101475
9.02038e-05
7.81508e-05
6.54045e-05
5.22178e-05
3.91105e-05
2.69404e-05
1.6768e-05
9.32252e-06
4.67857e-06
2.17833e-06
9.77013e-07
4.37357e-07
2.22591e-07
1.64056e-07
1.70277e-07
2.641e-07
3.85253e-07
5.35023e-07
7.11211e-07
8.6123e-07
9.84883e-07
1.32295e-06
1.38897e-06
1.83821e-06
0.000260675
0.0002606
0.0002605
0.00026039
0.000260268
0.000260135
0.000259993
0.000259843
0.000259682
0.000259421
0.000259143
0.000258836
0.0002585
0.000258133
0.000257734
0.000257298
0.000256821
0.000256299
0.00025573
0.000255112
0.00025444
0.000253705
0.000252901
0.000252025
0.00025107
0.000250028
0.000248891
0.000247646
0.000246287
0.000244806
0.000243188
0.000241421
0.000239492
0.000237385
0.000235085
0.000232572
0.00022983
0.000226839
0.000223576
0.000220017
0.000216136
0.000211906
0.000207296
0.000202274
0.000196807
0.000190858
0.00018439
0.000177364
0.000169742
0.000161481
0.00015254
0.000142875
0.00013244
0.000121178
0.000109034
9.59623e-05
8.19717e-05
6.71936e-05
5.2007e-05
3.7193e-05
2.39863e-05
1.37254e-05
6.95618e-06
3.22343e-06
1.44518e-06
6.76333e-07
3.47282e-07
2.40488e-07
2.27487e-07
2.67633e-07
3.90799e-07
5.42484e-07
7.26873e-07
9.35252e-07
1.10682e-06
1.25864e-06
1.63601e-06
1.73029e-06
1.69638e-06
0.000293992
0.000293864
0.000293708
0.000293537
0.000293351
0.000293151
0.000292939
0.000292715
0.000292474
0.000292115
0.000291735
0.00029132
0.000290867
0.000290376
0.000289845
0.000289269
0.000288642
0.000287959
0.000287219
0.000286418
0.000285549
0.000284605
0.000283577
0.000282462
0.00028125
0.000279934
0.000278503
0.000276944
0.000275249
0.000273408
0.000271406
0.000269227
0.000266857
0.000264279
0.000261475
0.000258424
0.000255107
0.000251501
0.000247583
0.000243324
0.000238698
0.000233673
0.000228216
0.000222293
0.000215866
0.000208896
0.000201343
0.000193165
0.000184315
0.000174749
0.000164418
0.000153267
0.000141236
0.000128255
0.00011425
9.91653e-05
8.30282e-05
6.60593e-05
4.88717e-05
3.26846e-05
1.92265e-05
9.90071e-06
4.55233e-06
1.98636e-06
9.03097e-07
4.93363e-07
3.35411e-07
2.9898e-07
3.27384e-07
4.05324e-07
5.62334e-07
7.46406e-07
9.62282e-07
1.19334e-06
1.37732e-06
1.55933e-06
1.96769e-06
2.10226e-06
1.86321e-06
0.000329121
0.000328924
0.000328692
0.000328442
0.000328171
0.000327882
0.000327574
0.00032725
0.000326897
0.000326413
0.000325903
0.000325347
0.000324746
0.000324098
0.000323399
0.000322644
0.000321826
0.00032094
0.000319984
0.000318953
0.000317839
0.000316633
0.000315327
0.000313914
0.000312385
0.000310732
0.00030894
0.000306996
0.00030489
0.000302611
0.000300143
0.000297466
0.000294566
0.000291423
0.000288016
0.000284323
0.000280323
0.000275991
0.000271299
0.00026622
0.00026072
0.000254767
0.000248326
0.000241359
0.000233825
0.000225682
0.000216886
0.00020739
0.000197145
0.000186098
0.00017419
0.000161358
0.000147523
0.000132597
0.000116487
9.91404e-05
8.06375e-05
6.13929e-05
4.24648e-05
2.57581e-05
1.33949e-05
6.14956e-06
2.62615e-06
1.14431e-06
6.31888e-07
4.42801e-07
3.84659e-07
4.01979e-07
4.70792e-07
5.87971e-07
7.78343e-07
9.90147e-07
1.22758e-06
1.46697e-06
1.6522e-06
1.86863e-06
2.28464e-06
2.45312e-06
2.13917e-06
0.000366141
0.000365851
0.00036552
0.000365165
0.000364784
0.000364377
0.000363945
0.000363486
0.00036298
0.000362338
0.000361661
0.000360928
0.000360139
0.00035929
0.00035838
0.0003574
0.000356343
0.000355204
0.000353979
0.000352661
0.000351243
0.000349713
0.000348064
0.000346285
0.000344367
0.000342299
0.000340067
0.000337655
0.000335052
0.000332245
0.000329214
0.00032594
0.000322405
0.000318587
0.000314463
0.00031001
0.000305202
0.000300014
0.000294414
0.000288372
0.000281854
0.000274822
0.000267239
0.000259065
0.000250255
0.000240764
0.000230544
0.000219544
0.000207708
0.000194975
0.000181275
0.000166529
0.00015064
0.000133498
0.000114998
9.51146e-05
7.4083e-05
5.27417e-05
3.29566e-05
1.74205e-05
7.81195e-06
3.29488e-06
1.43409e-06
7.73369e-07
5.48699e-07
4.81429e-07
4.90676e-07
5.53823e-07
6.60849e-07
8.1445e-07
1.0313e-06
1.26008e-06
1.50481e-06
1.73767e-06
1.91358e-06
2.17409e-06
2.55671e-06
2.73773e-06
2.42068e-06
0.000405053
0.000404643
0.000404184
0.000403695
0.000403171
0.000402612
0.000402018
0.000401383
0.00040068
0.000399839
0.000398951
0.000397996
0.000396971
0.000395873
0.000394698
0.000393438
0.000392085
0.000390632
0.000389073
0.000387402
0.00038561
0.000383684
0.000381613
0.000379387
0.000376996
0.000374426
0.000371662
0.000368684
0.000365482
0.000362041
0.000358337
0.00035435
0.000350059
0.000345441
0.000340469
0.000335118
0.000329361
0.000323168
0.000316506
0.000309342
0.000301638
0.000293355
0.000284453
0.000274886
0.000264609
0.000253572
0.000241724
0.000229006
0.000215356
0.000200702
0.000184959
0.000168028
0.000149788
0.000130108
0.000108896
8.62468e-05
6.27915e-05
4.0262e-05
2.16678e-05
9.64211e-06
3.74891e-06
1.71602e-06
9.31216e-07
6.58845e-07
5.83063e-07
5.922e-07
6.52585e-07
7.54603e-07
8.94164e-07
1.07641e-06
1.30701e-06
1.53849e-06
1.77579e-06
1.99134e-06
2.14905e-06
2.46458e-06
2.75508e-06
2.92486e-06
2.64865e-06
0.000445785
0.00044522
0.000444598
0.000443937
0.00044323
0.000442478
0.000441676
0.000440817
0.000439867
0.000438778
0.000437628
0.000436396
0.000435078
0.000433671
0.000432169
0.000430564
0.000428846
0.000427007
0.00042504
0.000422938
0.000420689
0.000418279
0.000415698
0.000412931
0.000409968
0.000406793
0.000403388
0.000399733
0.000395815
0.000391617
0.000387114
0.00038228
0.000377095
0.000371532
0.000365562
0.000359158
0.000352288
0.000344922
0.000337024
0.000328556
0.000319478
0.00030975
0.000299326
0.00028816
0.000276201
0.000263397
0.000249689
0.000235013
0.000219296
0.00020245
0.000184371
0.000164932
0.000143988
0.000121408
9.71997e-05
7.18372e-05
4.69178e-05
2.56555e-05
1.13907e-05
4.34571e-06
1.89613e-06
1.08338e-06
7.79956e-07
6.93551e-07
7.04061e-07
7.66345e-07
8.65705e-07
9.97442e-07
1.15989e-06
1.35895e-06
1.58753e-06
1.80772e-06
2.02595e-06
2.21684e-06
2.35218e-06
2.64832e-06
2.85064e-06
3.00733e-06
2.79749e-06
0.000488167
0.000487407
0.000486579
0.0004857
0.000484764
0.000483767
0.000482705
0.000481563
0.00048031
0.000478914
0.000477441
0.000475867
0.000474189
0.000472403
0.0004705
0.000468472
0.000466308
0.000463999
0.000461536
0.00045891
0.000456109
0.000453116
0.000449919
0.000446502
0.000442852
0.000438954
0.000434783
0.000430322
0.000425553
0.000420458
0.000415007
0.000409175
0.000402937
0.000396264
0.000389125
0.000381489
0.000373324
0.000364593
0.00035526
0.000345284
0.000334623
0.000323231
0.000311061
0.000298064
0.000284184
0.000269363
0.000253537
0.000236631
0.000218556
0.000199204
0.000178443
0.000156113
0.000132064
0.000106255
7.90877e-05
5.21015e-05
2.86911e-05
1.27564e-05
4.82707e-06
2.09191e-06
1.19783e-06
9.04701e-07
8.16788e-07
8.28725e-07
8.93862e-07
9.92841e-07
1.11859e-06
1.2683e-06
1.44133e-06
1.64381e-06
1.85548e-06
2.05394e-06
2.24652e-06
2.4097e-06
2.52218e-06
2.76916e-06
2.86706e-06
3.02229e-06
2.90185e-06
0.00053192
0.000530915
0.00052983
0.00052868
0.000527456
0.000526155
0.000524768
0.000523278
0.000521656
0.000519884
0.000518014
0.000516023
0.000513906
0.000511657
0.000509267
0.000506726
0.000504022
0.000501144
0.000498083
0.000494826
0.00049136
0.000487667
0.000483732
0.000479539
0.000475071
0.00047031
0.000465231
0.000459814
0.000454039
0.000447885
0.000441319
0.000434314
0.000426842
0.000418872
0.00041037
0.000401302
0.000391632
0.000381322
0.000370332
0.000358619
0.000346138
0.00033284
0.000318675
0.000303588
0.00028752
0.000270406
0.000252171
0.000232725
0.000211958
0.000189729
0.000165872
0.000140215
0.000112701
8.37358e-05
5.49714e-05
3.00922e-05
1.32905e-05
5.06533e-06
2.22904e-06
1.31531e-06
1.02302e-06
9.50533e-07
9.67986e-07
1.03575e-06
1.13432e-06
1.25488e-06
1.39361e-06
1.54857e-06
1.71976e-06
1.91372e-06
2.09777e-06
2.26905e-06
2.4344e-06
2.57042e-06
2.66196e-06
2.8481e-06
2.83635e-06
3.01384e-06
3.05455e-06
0.000576632
0.000575324
0.000573921
0.000572435
0.000570857
0.00056918
0.000567393
0.000565478
0.000563408
0.000561179
0.000558827
0.000556329
0.00055368
0.000550871
0.000547893
0.000544734
0.000541379
0.000537818
0.000534038
0.000530026
0.000525765
0.000521238
0.000516424
0.000511308
0.000505869
0.000500088
0.000493936
0.000487392
0.000480434
0.000473035
0.000465164
0.000456788
0.000447877
0.000438397
0.000428313
0.000417585
0.000406177
0.000394047
0.000381153
0.000367448
0.000352885
0.000337412
0.000320974
0.000303512
0.000284961
0.000265244
0.00024427
0.000221926
0.000198068
0.000172519
0.000145097
0.000115752
8.4974e-05
5.47352e-05
2.92434e-05
1.27266e-05
4.94651e-06
2.27905e-06
1.41909e-06
1.14989e-06
1.09151e-06
1.12035e-06
1.19144e-06
1.28862e-06
1.40337e-06
1.53148e-06
1.67065e-06
1.81955e-06
1.97889e-06
2.15613e-06
2.30737e-06
2.45056e-06
2.59065e-06
2.702e-06
2.77586e-06
2.90419e-06
2.90601e-06
3.0084e-06
3.04553e-06
0.000621735
0.000620053
0.00061826
0.000616362
0.000614349
0.000612213
0.000609939
0.000607509
0.000604902
0.00060212
0.000599186
0.000596077
0.000592787
0.000589305
0.00058562
0.000581719
0.000577586
0.000573208
0.000568571
0.000563659
0.000558453
0.000552934
0.00054708
0.000540871
0.000534287
0.000527303
0.000519891
0.000512024
0.00050368
0.000494828
0.000485432
0.000475461
0.000464879
0.000453652
0.000441738
0.000429098
0.000415691
0.000401473
0.000386399
0.000370422
0.000353489
0.000335545
0.000316531
0.00029638
0.000275016
0.000252344
0.000228248
0.000202579
0.000175153
0.00014579
0.000114494
8.19928e-05
5.08372e-05
2.58837e-05
1.09228e-05
4.47932e-06
2.23659e-06
1.50652e-06
1.28245e-06
1.2443e-06
1.28316e-06
1.35818e-06
1.45294e-06
1.56072e-06
1.67774e-06
1.80189e-06
1.93176e-06
2.06662e-06
2.20802e-06
2.36473e-06
2.48277e-06
2.60007e-06
2.71877e-06
2.80844e-06
2.8666e-06
2.95046e-06
2.92988e-06
2.96873e-06
2.9839e-06
2.99084e-06
0.000666471
0.000664333
0.000662064
0.000659664
0.000657123
0.000654428
0.000651566
0.000648518
0.000645268
0.000641821
0.000638187
0.000634345
0.000630287
0.000626
0.000621471
0.000616686
0.000611626
0.000606278
0.000600622
0.000594643
0.000588319
0.000581628
0.000574547
0.000567053
0.000559122
0.000550728
0.000541839
0.000532428
0.000522468
0.000511925
0.000500762
0.000488942
0.00047643
0.000463187
0.00044917
0.000434337
0.000418643
0.000402042
0.000384489
0.000365931
0.000346314
0.000325578
0.000303654
0.000280465
0.000255914
0.000229877
0.000202196
0.000172686
0.000141197
0.000107894
7.40248e-05
4.31615e-05
2.05362e-05
8.34685e-06
3.76669e-06
2.1331e-06
1.58284e-06
1.42075e-06
1.40696e-06
1.45527e-06
1.53196e-06
1.62308e-06
1.72269e-06
1.82807e-06
1.93752e-06
2.04998e-06
2.16465e-06
2.28143e-06
2.40267e-06
2.53862e-06
2.62618e-06
2.7213e-06
2.82289e-06
2.8938e-06
2.93821e-06
2.98751e-06
2.97714e-06
3.00259e-06
3.03351e-06
3.06395e-06
0.000709856
0.000707167
0.000704319
0.000701312
0.000698132
0.000694766
0.000691199
0.000687413
0.000683395
0.000679151
0.000674681
0.000669966
0.000664992
0.000659747
0.000654215
0.000648379
0.000642221
0.000635723
0.000628865
0.000621627
0.000613985
0.000605917
0.000597395
0.000588394
0.000578888
0.000568847
0.000558239
0.000547033
0.000535197
0.000522696
0.00050949
0.000495541
0.00048081
0.000465256
0.000448836
0.000431502
0.000413208
0.000393905
0.000373547
0.000352079
0.000329439
0.00030556
0.000280359
0.000253733
0.00022555
0.000195641
0.000163827
0.000130061
9.49169e-05
6.07216e-05
3.23428e-05
1.43946e-05
6.028e-06
3.0388e-06
2.01638e-06
1.6611e-06
1.56596e-06
1.57689e-06
1.63274e-06
1.70864e-06
1.7941e-06
1.88453e-06
1.9779e-06
2.07312e-06
2.16946e-06
2.26642e-06
2.36368e-06
2.46163e-06
2.56329e-06
2.68046e-06
2.7416e-06
2.81869e-06
2.9072e-06
2.96178e-06
2.99429e-06
3.01389e-06
3.0208e-06
3.06364e-06
3.09896e-06
3.13193e-06
0.00075373
0.000750638
0.000747282
0.00074374
0.000740002
0.000736056
0.000731886
0.000727477
0.000722812
0.000717883
0.00071269
0.000707226
0.000701472
0.000695412
0.000689032
0.000682313
0.000675236
0.000667782
0.00065993
0.000651657
0.00064294
0.000633754
0.000624072
0.000613866
0.000603109
0.00059177
0.000579816
0.000567214
0.000553931
0.00053993
0.000525175
0.000509623
0.000493235
0.00047597
0.000457785
0.000438634
0.000418471
0.000397244
0.0003749
0.000351393
0.000326661
0.000300633
0.000273222
0.000244315
0.000213762
0.000181393
0.000147084
0.000111105
7.50461e-05
4.30341e-05
2.05135e-05
8.71024e-06
4.19324e-06
2.52285e-06
1.94189e-06
1.75406e-06
1.71918e-06
1.75057e-06
1.81067e-06
1.8832e-06
1.96119e-06
2.04159e-06
2.12298e-06
2.20469e-06
2.28634e-06
2.36761e-06
2.44835e-06
2.52856e-06
2.60901e-06
2.69318e-06
2.79449e-06
2.83353e-06
2.89654e-06
2.97556e-06
3.01551e-06
3.03785e-06
3.05114e-06
3.06466e-06
3.10646e-06
3.13751e-06
3.16797e-06
0.000791125
0.00078724
0.000783087
0.00077871
0.000774099
0.000769238
0.000764111
0.000758703
0.000753
0.00074699
0.000740671
0.00073403
0.000727047
0.000719705
0.000711986
0.000703869
0.000695333
0.000686357
0.000676916
0.000666986
0.000656541
0.000645553
0.000633993
0.000621831
0.000609035