/*--------------------------------*- C++ -*----------------------------------*\
| =========                 |                                                 |
| \\      /  F ield         | OpenFOAM: The Open Source CFD Toolbox           |
|  \\    /   O peration     | Version:  2412                                  |
|   \\  /    A nd           | Website:  www.openfoam.com                      |
|    \\/     M anipulation  |                                                 |
\*---------------------------------------------------------------------------*/
FoamFile
{
    version     2.0;
    format      ascii;
    arch        "LSB;label=32;scalar=64";
    class       volVectorField;
    location    "300";
    object      U;
}
// * * * * * * * * * * * * * * * * * * * * * * * * * * * * * * * * * * * * * //

dimensions      [0 1 -1 0 0 0 0];

internalField   nonuniform List<vector> 
8637
(
(0.443124 -0.0276603 1.65078e-26)
(0.443051 -0.0280566 3.3535e-20)
(0.442951 -0.0284588 2.12177e-29)
(0.44283 -0.0288677 1.54621e-20)
(0.442839 -0.0292934 0)
(0.442844 -0.0297274 1.08116e-28)
(0.442851 -0.0301703 2.74958e-20)
(0.442868 -0.030623 1.25117e-26)
(0.442881 -0.0310848 -5.15079e-28)
(0.442902 -0.031557 2.46278e-20)
(0.442941 -0.0320413 2.37689e-20)
(0.442992 -0.0325373 -1.16033e-26)
(0.443045 -0.0330445 1.0687e-26)
(0.443095 -0.0335633 -1.01625e-26)
(0.443168 -0.0340965 1.61657e-28)
(0.443256 -0.0346444 2.02295e-20)
(0.443352 -0.0352065 9.2987e-27)
(0.44346 -0.0357843 -9.17847e-27)
(0.443584 -0.0363791 1.86034e-20)
(0.44373 -0.0369923 -1.81422e-20)
(0.443896 -0.0376244 -8.50153e-27)
(0.444082 -0.0382766 -3.46748e-20)
(0.444282 -0.0389493 3.39689e-20)
(0.444507 -0.0396449 -7.98343e-27)
(0.444764 -0.0403655 -7.79204e-27)
(0.445049 -0.0411118 7.72282e-27)
(0.445364 -0.0418851 6.37713e-20)
(0.445708 -0.0426867 -3.15506e-20)
(0.446083 -0.0435191 -3.12887e-20)
(0.446495 -0.044384 7.412e-27)
(0.446943 -0.0452827 -7.41122e-27)
(0.447428 -0.046217 3.09852e-20)
(0.44796 -0.0471902 0)
(0.448531 -0.0482035 -3.12067e-20)
(0.449144 -0.0492592 5.52231e-27)
(0.449801 -0.0503594 3.18026e-20)
(0.450494 -0.0515048 -7.62374e-27)
(0.451235 -0.0526997 1.5114e-27)
(0.452017 -0.053946 -2.90268e-27)
(0.452838 -0.0552451 0)
(0.453703 -0.0566 0)
(0.454602 -0.0580126 0)
(0.455529 -0.0594848 0)
(0.456486 -0.0610185 -3.89674e-20)
(0.457469 -0.0626174 8.10802e-20)
(0.458468 -0.064282 -1.97646e-26)
(0.459476 -0.0660145 0)
(0.460495 -0.067818 9.29019e-20)
(0.461502 -0.0696917 9.77493e-20)
(0.462487 -0.0716374 1.03096e-19)
(0.463459 -0.0736599 2.17981e-19)
(0.4644 -0.0757586 -1.15485e-19)
(0.465304 -0.0779368 -5.8544e-26)
(0.466158 -0.0801939 6.22883e-26)
(0.466941 -0.082531 -7.59863e-26)
(0.467658 -0.084951 -2.08892e-27)
(0.4683 -0.0874559 -1.58784e-19)
(0.468864 -0.0900496 -4.18289e-26)
(0.469334 -0.0927321 8.92324e-26)
(0.469692 -0.0955037 1.95863e-19)
(0.469942 -0.0983686 0)
(0.470098 -0.101335 -5.58188e-26)
(0.470126 -0.104401 2.44255e-19)
(0.470005 -0.107568 2.6345e-19)
(0.469747 -0.110842 2.84445e-19)
(0.469389 -0.114239 3.07381e-19)
(0.468857 -0.11775 3.32455e-19)
(0.468123 -0.121378 -1.94222e-25)
(0.467256 -0.125144 -3.89927e-19)
(0.466228 -0.129058 -4.03782e-25)
(0.46495 -0.133106 2.12004e-25)
(0.463441 -0.137307 -4.98446e-19)
(0.461759 -0.141693 -1.08379e-18)
(0.459763 -0.146246 -5.8965e-19)
(0.45742 -0.150973 -6.13385e-25)
(0.454829 -0.155934 3.23412e-25)
(0.451797 -0.161097 -4.90986e-26)
(0.448243 -0.16646 4.11915e-25)
(0.44423 -0.172098 -4.21676e-25)
(0.439493 -0.177956 2.00024e-18)
(0.434032 -0.184084 5.41332e-25)
(0.427568 -0.190444 -1.20394e-18)
(0.419782 -0.196959 0)
(0.410429 -0.203603 -8.26856e-25)
(0.398821 -0.210108 -5.21976e-26)
(0.384308 -0.216202 8.85179e-19)
(0.365576 -0.221134 -9.76683e-19)
(0.34074 -0.223569 1.07704e-18)
(1.37845 -0.0860443 -2.74526e-26)
(1.37825 -0.0872786 -2.78853e-20)
(1.37795 -0.0885307 2.67699e-20)
(1.37759 -0.089804 -4.7805e-26)
(1.37763 -0.091129 2.38051e-26)
(1.37766 -0.0924802 -2.37603e-20)
(1.37771 -0.0938598 -2.20235e-26)
(1.37778 -0.0952693 0)
(1.37785 -0.096708 -4.24699e-20)
(1.37795 -0.0981799 -4.09656e-20)
(1.3781 -0.0996883 -1.86845e-26)
(1.37827 -0.101233 7.64062e-20)
(1.37846 -0.102812 1.77777e-26)
(1.37866 -0.10443 3.57754e-20)
(1.37892 -0.106092 0)
(1.37923 -0.107799 -6.73125e-20)
(1.37956 -0.109551 0)
(1.37995 -0.111353 3.17869e-20)
(1.38039 -0.113208 3.09552e-20)
(1.38089 -0.11512 0)
(1.38145 -0.117091 2.94903e-20)
(1.38208 -0.119126 5.77043e-20)
(1.38278 -0.121226 -5.65324e-20)
(1.38355 -0.123397 1.32867e-26)
(1.38441 -0.125646 0)
(1.38538 -0.127976 5.37552e-20)
(1.38643 -0.13039 9.37055e-27)
(1.38759 -0.132894 5.252e-20)
(1.38885 -0.135494 0)
(1.39023 -0.138197 0)
(1.39173 -0.141006 0)
(1.39335 -0.143927 2.46929e-26)
(1.3951 -0.146967 5.1703e-20)
(1.39699 -0.150135 0)
(1.39902 -0.153436 5.23731e-20)
(1.40118 -0.156876 -5.2955e-20)
(1.40347 -0.160459 2.53891e-26)
(1.4059 -0.164196 1.52202e-26)
(1.40845 -0.168093 1.11582e-19)
(1.41113 -0.172156 5.7136e-20)
(1.41394 -0.176392 5.8697e-20)
(1.41685 -0.180809 -2.84077e-26)
(1.41986 -0.185412 6.2557e-20)
(1.42295 -0.190207 6.48862e-20)
(1.4261 -0.195202 0)
(1.42929 -0.200403 -3.43303e-26)
(1.43251 -0.205814 3.43968e-26)
(1.43574 -0.211445 -1.54674e-19)
(1.43892 -0.217294 0)
(1.44203 -0.223366 -3.43266e-19)
(1.44507 -0.229673 -1.81437e-19)
(1.448 -0.236217 3.84476e-19)
(1.45079 -0.243002 5.00725e-26)
(1.4534 -0.250033 -5.03676e-26)
(1.4558 -0.257311 2.31448e-19)
(1.45795 -0.264841 1.1797e-25)
(1.45986 -0.272633 2.64237e-19)
(1.46151 -0.280698 2.82992e-19)
(1.46285 -0.289034 -3.03483e-19)
(1.46381 -0.297641 3.2588e-19)
(1.46442 -0.306533 0)
(1.46473 -0.315741 -3.77107e-19)
(1.46463 -0.325252 -1.22893e-26)
(1.46403 -0.335065 2.0257e-25)
(1.46299 -0.345209 -4.73113e-19)
(1.46163 -0.355729 0)
(1.45971 -0.366597 -5.52895e-19)
(1.45715 -0.377817 -5.98498e-19)
(1.45414 -0.389459 6.48392e-19)
(1.45064 -0.401557 0)
(1.44633 -0.414052 0)
(1.44127 -0.427013 1.65737e-18)
(1.43567 -0.440545 9.00866e-19)
(1.42906 -0.454569 9.80194e-19)
(1.42136 -0.469127 -1.06759e-18)
(1.41286 -0.484379 0)
(1.40293 -0.500236 -1.2701e-18)
(1.39136 -0.516696 0)
(1.37835 -0.533977 1.5176e-18)
(1.36303 -0.551901 7.83906e-26)
(1.34542 -0.570618 -8.99426e-25)
(1.32465 -0.590002 2.00023e-18)
(1.29972 -0.609816 2.17152e-24)
(1.26989 -0.629938 -2.41981e-18)
(1.23299 -0.649554 0)
(1.18704 -0.667767 -1.47022e-18)
(1.12796 -0.682252 1.62206e-18)
(1.05002 -0.688892 -3.52301e-24)
(2.41729 -0.15089 0)
(2.41699 -0.153058 0)
(2.41652 -0.155257 0)
(2.41593 -0.157493 -2.90962e-20)
(2.41605 -0.15982 -2.796e-20)
(2.41616 -0.162194 -2.68847e-20)
(2.41631 -0.164617 5.17454e-20)
(2.41648 -0.167093 4.98413e-20)
(2.41668 -0.169622 4.80552e-20)
(2.41694 -0.172209 4.63533e-20)
(2.41726 -0.17486 2.15366e-26)
(2.41763 -0.177573 1.04342e-26)
(2.41804 -0.18035 3.95344e-26)
(2.4185 -0.183195 -4.04805e-20)
(2.41906 -0.186119 -3.92463e-20)
(2.41969 -0.189121 3.80828e-20)
(2.42039 -0.192203 -3.69842e-20)
(2.42119 -0.195375 -3.59674e-20)
(2.42209 -0.198641 -3.50262e-20)
(2.4231 -0.202007 -3.27926e-26)
(2.42424 -0.205478 -3.33686e-20)
(2.4255 -0.209062 0)
(2.4269 -0.212762 0)
(2.42843 -0.21659 -2.98255e-26)
(2.43015 -0.220554 1.95273e-28)
(2.43204 -0.224663 -1.21646e-19)
(2.43409 -0.22892 -6.00531e-20)
(2.43635 -0.233338 0)
(2.43882 -0.237929 0)
(2.4415 -0.2427 2.79804e-26)
(2.44439 -0.247659 -2.78015e-26)
(2.44752 -0.252819 -2.79378e-26)
(2.45089 -0.25819 -1.16993e-19)
(2.45449 -0.263786 0)
(2.45837 -0.26962 2.84657e-26)
(2.46247 -0.275699 -2.83557e-26)
(2.46681 -0.282033 6.07661e-20)
(2.4714 -0.288637 -6.18285e-20)
(2.4762 -0.295526 -6.31154e-20)
(2.48123 -0.302707 -6.46356e-20)
(2.48646 -0.310192 -6.64001e-20)
(2.49188 -0.317997 6.84359e-20)
(2.49744 -0.32613 -7.07639e-20)
(2.50313 -0.334599 -3.43757e-26)
(2.50891 -0.343419 -1.52711e-19)
(2.51475 -0.352599 7.60554e-26)
(2.52059 -0.362146 -3.89058e-26)
(2.52641 -0.372074 1.74945e-19)
(2.53214 -0.382384 0)
(2.5377 -0.393084 1.94117e-19)
(2.54308 -0.404189 -1.00521e-25)
(2.54823 -0.415704 -2.1741e-19)
(2.55309 -0.427635 0)
(2.5576 -0.439995 0)
(2.5617 -0.45278 -2.61733e-19)
(2.56531 -0.465997 1.37332e-25)
(2.56844 -0.479667 -2.85308e-25)
(2.57111 -0.493808 -6.39987e-19)
(2.57317 -0.508416 0)
(2.57452 -0.523486 -3.68469e-19)
(2.57521 -0.539046 -3.96134e-19)
(2.57536 -0.555153 8.52728e-19)
(2.57475 -0.571781 -4.59375e-19)
(2.57322 -0.588921 4.95431e-19)
(2.57088 -0.606628 0)
(2.56795 -0.624982 5.77928e-19)
(2.56401 -0.643937 0)
(2.5589 -0.663485 0)
(2.55298 -0.683758 7.32912e-19)
(2.54617 -0.704816 0)
(2.53789 -0.726542 0)
(2.52827 -0.749063 -1.87321e-18)
(2.51767 -0.772562 -1.01814e-18)
(2.50526 -0.796889 1.10775e-18)
(2.49087 -0.822124 2.41293e-18)
(2.47508 -0.848537 8.23642e-26)
(2.4567 -0.875962 -1.32568e-24)
(2.4354 -0.9044 1.56787e-18)
(2.4115 -0.934217 -1.71473e-18)
(2.38352 -0.965089 -1.87764e-18)
(2.35144 -0.997279 0)
(2.31376 -1.03054 0)
(2.26872 -1.06444 0)
(2.21499 -1.09873 -2.73359e-18)
(2.14881 -1.13198 0)
(2.06668 -1.16255 0)
(1.96153 -1.18636 0)
(1.82341 -1.19618 -2.02028e-18)
(3.558 -0.222094 0)
(3.55768 -0.225293 0)
(3.5571 -0.228537 0)
(3.55636 -0.231836 0)
(3.55667 -0.235271 6.31921e-20)
(3.55697 -0.238774 6.07618e-20)
(3.55731 -0.242352 -5.84751e-20)
(3.55771 -0.246006 1.37808e-25)
(3.55817 -0.24974 -5.43057e-20)
(3.55872 -0.253562 0)
(3.55936 -0.257477 0)
(3.56009 -0.261486 -9.77006e-20)
(3.56088 -0.265589 4.4677e-26)
(3.56178 -0.269796 -7.23787e-26)
(3.56283 -0.274119 4.43511e-20)
(3.564 -0.27856 -4.13768e-26)
(3.5653 -0.283121 4.17945e-20)
(3.56675 -0.287815 3.84942e-26)
(3.56838 -0.292651 -3.80158e-26)
(3.5702 -0.297638 0)
(3.57222 -0.302782 0)
(3.57444 -0.308093 -7.37816e-20)
(3.57689 -0.313581 0)
(3.57959 -0.319261 7.09383e-20)
(3.58256 -0.325146 0)
(3.58581 -0.331246 6.87269e-20)
(3.58935 -0.337571 6.78565e-20)
(3.59321 -0.344136 -6.40618e-26)
(3.59741 -0.350962 3.17657e-26)
(3.60194 -0.358057 -3.16141e-26)
(3.60682 -0.365435 3.14113e-26)
(3.61206 -0.373114 0)
(3.61768 -0.381109 -7.82662e-26)
(3.62368 -0.389442 3.1864e-26)
(3.63007 -0.398129 -3.17237e-26)
(3.63681 -0.407183 0)
(3.64392 -0.416617 -6.86438e-20)
(3.65139 -0.426453 0)
(3.65919 -0.436715 0)
(3.66729 -0.44741 0)
(3.67569 -0.458555 -7.49975e-20)
(3.68433 -0.470175 -1.54588e-19)
(3.69316 -0.482277 7.99204e-20)
(3.70213 -0.494875 0)
(3.71119 -0.507989 3.44914e-19)
(3.72026 -0.521631 8.77013e-26)
(3.7293 -0.535811 -8.7866e-26)
(3.73822 -0.550545 -1.97543e-19)
(3.74693 -0.565837 -1.01626e-25)
(3.75532 -0.581695 1.01985e-25)
(3.76337 -0.598141 2.3168e-19)
(3.77097 -0.615177 2.45457e-19)
(3.77805 -0.632818 0)
(3.78456 -0.651076 0)
(3.79034 -0.669946 2.95471e-19)
(3.79531 -0.689433 1.55029e-25)
(3.79948 -0.70957 9.64083e-27)
(3.8029 -0.730389 -6.32834e-25)
(3.80535 -0.751877 3.87341e-19)
(3.80664 -0.774019 1.92413e-25)
(3.80688 -0.796863 4.47117e-19)
(3.8063 -0.820501 -4.81227e-19)
(3.80453 -0.84488 5.18474e-19)
(3.80129 -0.869982 -5.59156e-19)
(3.79679 -0.895896 -6.03644e-19)
(3.79143 -0.922749 -6.52239e-19)
(3.78447 -0.950446 6.51904e-25)
(3.77571 -0.978986 -7.52593e-25)
(3.76573 -1.00856 1.64737e-24)
(3.75438 -1.03926 0)
(3.7408 -1.07091 -9.73128e-19)
(3.72517 -1.10367 2.11382e-18)
(3.70807 -1.13784 1.14891e-18)
(3.68819 -1.17316 -2.50003e-18)
(3.66537 -1.20976 -1.36139e-18)
(3.64042 -1.24805 0)
(3.61156 -1.28773 1.61948e-18)
(3.57833 -1.32882 -1.76916e-18)
(3.54119 -1.37184 0)
(3.49795 -1.41631 -2.09131e-24)
(3.44858 -1.46257 -1.48842e-25)
(3.39083 -1.51023 2.54999e-18)
(3.32216 -1.55865 -2.7683e-24)
(3.24053 -1.60741 6.16964e-18)
(3.14048 -1.65432 0)
(3.01678 -1.69693 0)
(2.85914 -1.72913 -4.08087e-24)
(2.65308 -1.74027 2.28051e-18)
(4.79683 -0.299424 -8.07048e-26)
(4.79663 -0.30375 4.01783e-20)
(4.79609 -0.308139 3.85722e-20)
(4.79534 -0.312605 0)
(4.79601 -0.317253 -3.56076e-20)
(4.79666 -0.321994 -3.42381e-20)
(4.7974 -0.326836 -1.25727e-25)
(4.79824 -0.331785 -6.34756e-20)
(4.79917 -0.336844 -6.12014e-20)
(4.80024 -0.342022 -5.90338e-20)
(4.80145 -0.347328 5.38505e-26)
(4.80279 -0.352763 1.10105e-19)
(4.80426 -0.358328 -5.03491e-26)
(4.8059 -0.364036 -1.63748e-26)
(4.80777 -0.369905 -4.72885e-26)
(4.80983 -0.375935 4.66279e-26)
(4.81209 -0.382131 -4.70979e-20)
(4.81461 -0.388511 -4.33781e-26)
(4.8174 -0.395088 5.76682e-28)
(4.82049 -0.401873 4.17564e-26)
(4.82389 -0.408876 -4.24881e-20)
(4.8276 -0.41611 -1.36558e-25)
(4.83168 -0.42359 -3.86648e-26)
(4.83614 -0.431336 -7.99236e-20)
(4.84102 -0.439364 -7.47272e-26)
(4.84633 -0.447691 -7.74258e-20)
(4.85208 -0.456331 -7.64415e-20)
(4.8583 -0.465303 -7.2226e-26)
(4.86504 -0.474634 0)
(4.87226 -0.48434 -7.45567e-20)
(4.88001 -0.494436 7.10589e-26)
(4.88828 -0.504947 -7.06338e-26)
(4.89709 -0.515895 7.44226e-20)
(4.90645 -0.527308 7.09699e-26)
(4.91636 -0.539208 -7.53696e-20)
(4.92675 -0.551611 -1.18058e-27)
(4.93765 -0.564537 7.72776e-20)
(4.94903 -0.578013 -7.58458e-26)
(4.96084 -0.59207 7.56605e-26)
(4.97303 -0.606715 8.2169e-20)
(4.98557 -0.621973 8.44017e-20)
(4.9984 -0.637876 8.69784e-20)
(5.01142 -0.65443 2.52988e-25)
(5.02453 -0.671651 -9.0696e-26)
(5.03767 -0.689565 -1.94018e-19)
(5.05072 -0.708186 9.45743e-26)
(5.0636 -0.727525 2.11768e-19)
(5.07619 -0.7476 -2.2219e-19)
(5.08835 -0.768417 1.14297e-25)
(5.09997 -0.789985 -2.35335e-25)
(5.11093 -0.812324 -2.60536e-19)
(5.12111 -0.835439 -2.76014e-19)
(5.13046 -0.85935 -2.93041e-19)
(5.13891 -0.884076 -3.11732e-19)
(5.14619 -0.909596 3.32213e-19)
(5.15216 -0.935915 -3.48604e-25)
(5.15693 -0.963084 3.51254e-25)
(5.1606 -0.991153 8.12191e-19)
(5.16281 -1.02009 -4.3547e-19)
(5.16324 -1.04986 -4.6758e-19)
(5.16214 -1.08055 0)
(5.15993 -1.11229 5.32882e-25)
(5.15595 -1.14499 -5.38975e-25)
(5.14982 -1.17861 0)
(5.14191 -1.21329 6.7868e-19)
(5.13282 -1.24921 -7.33332e-19)
(5.12142 -1.28621 -7.3298e-25)
(5.10747 -1.32429 8.58485e-19)
(5.0918 -1.36372 -9.30036e-19)
(5.07426 -1.40462 9.31839e-25)
(5.05354 -1.44671 1.09434e-18)
(5.02998 -1.49024 -1.18862e-18)
(5.00441 -1.53562 -1.29218e-18)
(4.97495 -1.58245 1.40599e-18)
(4.94142 -1.63092 -1.53138e-18)
(4.90494 -1.68155 -1.54223e-24)
(4.86305 -1.73394 -1.822e-18)
(4.81518 -1.78811 -1.99062e-18)
(4.76191 -1.84472 2.14879e-24)
(4.70032 -1.90312 -2.38452e-18)
(4.6303 -1.96371 5.1628e-24)
(4.5488 -2.02594 2.00238e-24)
(4.45244 -2.08889 -3.1561e-18)
(4.33838 -2.1519 -3.47429e-18)
(4.1993 -2.21199 -7.06656e-24)
(4.02808 -2.26564 8.34237e-24)
(3.81092 -2.30455 -1.78067e-23)
(3.5285 -2.31422 -6.28421e-25)
(6.12694 -0.382452 -9.04998e-26)
(6.12707 -0.388001 -4.50548e-20)
(6.12681 -0.393635 7.64979e-26)
(6.1263 -0.39937 7.84801e-26)
(6.12759 -0.405337 -1.52349e-25)
(6.12888 -0.411425 -3.83932e-20)
(6.1303 -0.417645 -6.98093e-26)
(6.1319 -0.424006 -7.1177e-20)
(6.13364 -0.43051 6.86252e-20)
(6.13559 -0.437169 6.61933e-20)
(6.13775 -0.443995 -1.2076e-25)
(6.14012 -0.450991 -1.23451e-19)
(6.14269 -0.458158 0)
(6.14555 -0.465514 1.15596e-19)
(6.14874 -0.473079 0)
(6.15222 -0.480857 0)
(6.15602 -0.488856 5.27954e-20)
(6.16022 -0.497097 -9.86607e-26)
(6.16483 -0.505597 0)
(6.16988 -0.514372 -4.87489e-20)
(6.1754 -0.523434 4.76145e-20)
(6.18141 -0.532803 9.3156e-20)
(6.18795 -0.542498 8.7466e-26)
(6.19506 -0.552542 0)
(6.20279 -0.562961 8.80344e-20)
(6.21114 -0.573774 8.67234e-20)
(6.22014 -0.585001 0)
(6.22982 -0.596665 0)
(6.24021 -0.608803 8.01279e-26)
(6.25131 -0.621434 8.34637e-20)
(6.26313 -0.634579 -8.31754e-20)
(6.27568 -0.648268 7.9047e-26)
(6.28896 -0.662533 8.32732e-20)
(6.30297 -0.677404 -8.36628e-20)
(6.3177 -0.692911 8.43016e-20)
(6.33307 -0.709075 -8.52121e-20)
(6.34907 -0.725918 -1.72806e-19)
(6.36567 -0.743476 8.78869e-20)
(6.38276 -0.761783 -8.66411e-26)
(6.40026 -0.780849 -9.18184e-20)
(6.41814 -0.800703 2.66511e-27)
(6.43627 -0.821381 9.71559e-20)
(6.45452 -0.842891 6.12619e-25)
(6.47274 -0.865249 -9.75446e-26)
(6.49082 -0.888485 0)
(6.5086 -0.912612 0)
(6.52594 -0.93764 -4.7269e-19)
(6.54268 -0.963589 2.47941e-19)
(6.55867 -0.990467 0)
(6.57373 -1.01828 0)
(6.58767 -1.04704 0)
(6.60034 -1.07676 0)
(6.61172 -1.10747 3.26854e-19)
(6.62174 -1.13918 3.47686e-19)
(6.63 -1.17187 -3.7052e-19)
(6.6363 -1.20552 -3.66557e-25)
(6.64084 -1.24022 0)
(6.64386 -1.27604 -9.05889e-19)
(6.64479 -1.31291 4.7804e-25)
(6.64316 -1.35078 -2.8481e-24)
(6.63941 -1.38978 5.52222e-25)
(6.6342 -1.43009 6.03611e-19)
(6.62653 -1.47157 -6.0139e-25)
(6.61588 -1.51414 0)
(6.60283 -1.55801 0)
(6.58826 -1.60343 8.18591e-19)
(6.57054 -1.65014 8.7273e-25)
(6.54937 -1.69814 -1.91725e-18)
(6.52596 -1.74782 -1.03873e-18)
(6.50007 -1.79929 0)
(6.46993 -1.85217 -1.22275e-18)
(6.43605 -1.90681 0)
(6.39956 -1.96371 1.44449e-18)
(6.35791 -2.02233 0)
(6.31097 -2.08292 -6.9745e-24)
(6.26014 -2.14613 -1.86788e-18)
(6.20225 -2.21141 0)
(6.13661 -2.27879 4.4574e-18)
(6.06391 -2.34906 -3.0924e-25)
(5.98046 -2.42138 2.67179e-18)
(5.88601 -2.4962 5.7873e-24)
(5.77669 -2.57275 -3.21957e-18)
(5.6482 -2.6498 7.0828e-18)
(5.49678 -2.72638 3.90066e-18)
(5.31314 -2.79856 -7.93865e-24)
(5.08802 -2.86161 0)
(4.8039 -2.90473 -2.62237e-18)
(4.4363 -2.90917 0)
(7.53706 -0.470477 0)
(7.53787 -0.477342 0)
(7.53826 -0.484318 -4.81198e-20)
(7.53834 -0.491421 3.48699e-27)
(7.54062 -0.498811 -4.44167e-20)
(7.54296 -0.506353 2.39885e-26)
(7.54552 -0.514064 1.55297e-25)
(7.54831 -0.521951 7.91646e-20)
(7.55136 -0.530019 1.46961e-25)
(7.5547 -0.538285 7.36119e-20)
(7.55835 -0.546763 0)
(7.56233 -0.555456 6.86318e-20)
(7.56664 -0.564368 0)
(7.57138 -0.573522 -6.42512e-20)
(7.57659 -0.582942 -1.19781e-25)
(7.58225 -0.592634 -1.14354e-25)
(7.58841 -0.602609 -5.86672e-20)
(7.59514 -0.612893 0)
(7.60248 -0.62351 0)
(7.61045 -0.634477 5.41431e-20)
(7.61912 -0.645813 0)
(7.6285 -0.657542 -1.03423e-19)
(7.63865 -0.669687 0)
(7.6496 -0.682282 9.93627e-20)
(7.66143 -0.695355 -1.95329e-19)
(7.67412 -0.708931 -4.67559e-28)
(7.68771 -0.723036 -9.07192e-26)
(7.70225 -0.737699 -9.38787e-20)
(7.71775 -0.752964 0)
(7.7342 -0.768858 -9.2451e-20)
(7.7516 -0.785402 9.20977e-20)
(7.76994 -0.802636 -1.7556e-25)
(7.78923 -0.820597 -9.21363e-20)
(7.80943 -0.839323 9.25309e-20)
(7.8305 -0.858846 8.83393e-26)
(7.85234 -0.879193 1.88336e-19)
(7.8749 -0.900388 -4.07455e-25)
(7.89812 -0.922473 6.17694e-25)
(7.92184 -0.945488 0)
(7.94593 -0.969441 0)
(7.97031 -0.994363 1.03992e-19)
(7.99482 -1.02029 -1.07104e-19)
(8.01923 -1.04724 -1.10672e-19)
(8.04338 -1.07522 1.14716e-19)
(8.06708 -1.10426 -2.23164e-25)
(8.0901 -1.13438 -2.48726e-19)
(8.11224 -1.16557 2.60118e-19)
(8.13333 -1.19787 2.54378e-25)
(8.15316 -1.23127 2.80591e-25)
(8.17153 -1.26579 -3.02473e-19)
(8.1881 -1.30143 3.19644e-19)
(8.20272 -1.33818 3.14568e-25)
(8.21545 -1.3761 3.52694e-25)
(8.22628 -1.41523 -7.30128e-25)
(8.23455 -1.45549 -4.0747e-19)
(8.23998 -1.49684 -4.27617e-25)
(8.24301 -1.53944 -4.65239e-19)
(8.24406 -1.58338 -4.52551e-24)
(8.24222 -1.62854 4.94702e-25)
(8.23686 -1.67484 -4.53017e-24)
(8.22872 -1.72246 0)
(8.21875 -1.77166 5.74995e-24)
(8.20551 -1.82221 -6.62537e-25)
(8.18829 -1.874 -7.73165e-19)
(8.16798 -1.92732 1.64598e-24)
(8.14581 -1.98249 -1.66909e-24)
(8.11952 -2.03915 0)
(8.08878 -2.09727 1.05837e-18)
(8.05524 -2.15738 1.14739e-18)
(8.01854 -2.2196 2.45484e-24)
(7.9764 -2.28342 -1.18748e-23)
(7.92956 -2.34927 -2.89871e-24)
(7.87939 -2.41777 2.95535e-24)
(7.82271 -2.48822 0)
(7.75944 -2.56094 -9.37729e-24)
(7.69121 -2.6367 -1.82068e-23)
(7.61414 -2.71478 4.46743e-24)
(7.52746 -2.79522 -2.47663e-18)
(7.43184 -2.87892 -2.71225e-18)
(7.3229 -2.96484 5.87148e-24)
(7.20013 -3.05342 -6.02996e-24)
(7.05883 -3.14366 3.59103e-18)
(6.8937 -3.23398 -7.90852e-18)
(6.6999 -3.32294 4.47319e-23)
(6.46608 -3.40561 -8.88511e-24)
(6.18059 -3.47579 -2.66081e-18)
(5.82194 -3.51986 5.88521e-18)
(5.36021 -3.5144 -2.40369e-23)
(9.01044 -0.562452 2.17139e-25)
(9.01238 -0.570719 -2.12474e-25)
(9.0139 -0.579127 0)
(9.01503 -0.587689 5.08335e-20)
(9.01882 -0.596598 -4.37895e-25)
(9.02275 -0.605695 4.69553e-20)
(9.02701 -0.615001 3.44785e-25)
(9.03162 -0.624524 -3.32036e-25)
(9.0366 -0.634272 -8.38777e-20)
(9.04202 -0.644265 -8.0885e-20)
(9.0479 -0.654521 2.75482e-27)
(9.05426 -0.665045 1.45112e-25)
(9.06112 -0.675844 -1.37836e-25)
(9.0686 -0.686943 7.05385e-20)
(9.07677 -0.698374 1.2935e-25)
(9.08559 -0.710145 -1.27483e-25)
(9.09513 -0.722269 6.43506e-20)
(9.10548 -0.734781 0)
(9.1167 -0.747708 6.08707e-20)
(9.12882 -0.761073 0)
(9.1419 -0.774899 5.79078e-20)
(9.15597 -0.789215 1.13218e-19)
(9.17109 -0.804052 -2.10459e-25)
(9.18732 -0.819448 -1.08666e-19)
(9.20472 -0.835439 1.06751e-19)
(9.22327 -0.852056 1.99983e-25)
(9.243 -0.869328 -1.03632e-19)
(9.26396 -0.887292 1.02427e-19)
(9.28615 -0.905999 -1.0146e-19)
(9.30953 -0.92548 -1.28876e-24)
(9.33409 -0.945762 0)
(9.3598 -0.966889 -1.91636e-25)
(9.38661 -0.988904 1.00173e-19)
(9.41449 -1.01185 -1.00524e-19)
(9.44334 -1.03576 -1.01173e-19)
(9.473 -1.06067 -1.02142e-19)
(9.50338 -1.08661 1.03445e-19)
(9.53437 -1.11361 -2.10192e-19)
(9.56576 -1.14172 -2.06968e-25)
(9.59735 -1.17095 4.18211e-25)
(9.629 -1.20132 -1.12369e-19)
(9.66049 -1.23289 -1.15655e-19)
(9.69152 -1.26565 0)
(9.72186 -1.29962 -2.47435e-19)
(9.75128 -1.33483 2.5711e-19)
(9.77946 -1.37128 2.67969e-19)
(9.80615 -1.40898 2.80134e-19)
(9.83112 -1.44794 2.93713e-19)
(9.85422 -1.48818 -3.01999e-25)
(9.87514 -1.52971 3.25485e-19)
(9.89339 -1.57249 -3.4393e-19)
(9.90884 -1.61653 0)
(9.92172 -1.66192 3.79528e-25)
(9.93206 -1.7087 -3.81759e-25)
(9.93888 -1.75674 8.77263e-19)
(9.94182 -1.806 4.68454e-19)
(9.94167 -1.85668 1.00239e-18)
(9.93905 -1.90893 5.37056e-19)
(9.93263 -1.96254 0)
(9.92162 -2.01741 6.19429e-19)
(9.90711 -2.07378 -1.2333e-24)
(9.89043 -2.13201 -7.18261e-19)
(9.86957 -2.19175 0)
(9.84363 -2.25284 1.67347e-18)
(9.81392 -2.31568 -1.67243e-24)
(9.78197 -2.38068 -9.78916e-19)
(9.74484 -2.44731 0)
(9.70222 -2.51558 0)
(9.65619 -2.58613 0)
(9.60628 -2.65908 0)
(9.54967 -2.73376 1.47382e-18)
(9.48736 -2.81076 0)
(9.42093 -2.89074 0)
(9.34656 -2.97287 -1.90569e-18)
(9.26426 -3.05754 2.08054e-18)
(9.1758 -3.14558 2.2736e-18)
(9.07663 -3.23615 2.48768e-18)
(8.96591 -3.32929 0)
(8.84422 -3.42594 5.9784e-18)
(8.70649 -3.5249 3.28337e-18)
(8.55186 -3.62653 0)
(8.37474 -3.72954 -3.97821e-18)
(8.16883 -3.83197 4.38892e-18)
(7.92797 -3.93177 -4.84907e-18)
(7.63868 -4.02288 -5.36528e-18)
(7.28659 -4.09733 2.97124e-18)
(6.84607 -4.1384 -3.29264e-18)
(6.2814 -4.11743 -3.64658e-18)
(10.5245 -0.656971 -2.40222e-25)
(10.5282 -0.666712 5.97799e-20)
(10.5314 -0.676628 -5.73703e-20)
(10.5341 -0.68672 -1.1017e-19)
(10.54 -0.697232 5.29135e-20)
(10.5462 -0.707969 -3.84291e-25)
(10.5528 -0.718961 3.7694e-25)
(10.56 -0.730216 -9.41911e-20)
(10.5677 -0.741747 9.07628e-20)
(10.576 -0.753575 0)
(10.585 -0.765723 8.43861e-20)
(10.5946 -0.778199 8.14769e-20)
(10.605 -0.791011 -5.25081e-27)
(10.6163 -0.80419 -1.52337e-19)
(10.6284 -0.817775 -7.37741e-20)
(10.6416 -0.831776 -2.70678e-25)
(10.6556 -0.84621 -6.93697e-20)
(10.6709 -0.861118 2.58969e-25)
(10.6872 -0.876532 5.1712e-25)
(10.7048 -0.892482 2.45053e-25)
(10.7237 -0.908994 -6.22441e-20)
(10.7438 -0.926103 -2.30771e-25)
(10.7653 -0.943845 2.27975e-25)
(10.7883 -0.962266 -2.21386e-25)
(10.8127 -0.981406 4.36308e-25)
(10.8385 -1.0013 -2.15052e-25)
(10.8658 -1.02199 -1.69264e-24)
(10.8946 -1.0435 -1.09348e-19)
(10.9248 -1.06591 2.16375e-19)
(10.9565 -1.08924 1.07285e-19)
(10.9894 -1.11352 -1.06671e-19)
(11.0236 -1.1388 0)
(11.059 -1.16513 -1.06288e-19)
(11.0955 -1.19256 1.06525e-19)
(11.1329 -1.22112 1.07074e-19)
(11.1711 -1.25084 1.07965e-19)
(11.2098 -1.28175 2.06476e-25)
(11.2489 -1.3139 2.2162e-19)
(11.2882 -1.34733 2.12731e-25)
(11.3273 -1.38205 1.15229e-19)
(11.366 -1.41807 1.18076e-19)
(11.4042 -1.45546 2.42806e-19)
(11.4413 -1.49419 -2.34939e-25)
(11.4771 -1.5343 1.2964e-19)
(11.5114 -1.57581 -2.69221e-19)
(11.5438 -1.6187 -5.46754e-25)
(11.5738 -1.66299 -2.93015e-19)
(11.6014 -1.70869 -3.07114e-19)
(11.6264 -1.75584 0)
(11.6484 -1.80442 0)
(11.6668 -1.85437 0)
(11.6814 -1.90572 -7.47045e-25)
(11.6927 -1.95858 4.04572e-19)
(11.7009 -2.01303 -4.30599e-19)
(11.7046 -2.06884 -4.59267e-19)
(11.7032 -2.12597 -4.90865e-19)
(11.6981 -2.18471 1.0153e-23)
(11.6901 -2.24524 0)
(11.6774 -2.30727 0)
(11.659 -2.37066 6.51703e-19)
(11.6364 -2.43574 7.02265e-19)
(11.6113 -2.50295 -1.49246e-24)
(11.5811 -2.57181 3.12586e-24)
(11.5447 -2.64214 -8.85163e-19)
(11.5039 -2.71443 0)
(11.4605 -2.78916 2.07784e-18)
(11.4108 -2.86567 0)
(11.3546 -2.94398 0)
(11.2944 -3.02483 1.33148e-18)
(11.2295 -3.10834 0)
(11.1566 -3.19373 0)
(11.0771 -3.28168 0)
(10.9925 -3.37291 7.41404e-24)
(10.8986 -3.46644 -3.49323e-23)
(10.7954 -3.56278 2.24788e-18)
(10.6846 -3.66272 -9.09775e-24)
(10.5613 -3.76536 -2.70029e-18)
(10.4244 -3.87073 2.96561e-18)
(10.2743 -3.97975 -3.26101e-18)
(10.1053 -4.09107 -3.59136e-18)
(9.91611 -4.20486 3.96091e-18)
(9.70017 -4.31956 0)
(9.45013 -4.43273 0)
(9.15826 -4.54155 0)
(8.80885 -4.63866 5.95301e-18)
(8.38448 -4.71402 0)
(7.85512 -4.74745 0)
(7.17905 -4.7045 -5.51133e-23)
(12.0518 -0.752323 5.12537e-25)
(12.0578 -0.763588 -6.37489e-20)
(12.0634 -0.775068 6.11542e-20)
(12.0684 -0.786759 -2.3332e-25)
(12.0772 -0.798933 -4.34267e-25)
(12.0863 -0.811377 0)
(12.0961 -0.824123 0)
(12.1066 -0.837184 -1.26874e-24)
(12.1179 -0.850575 0)
(12.13 -0.864322 0)
(12.143 -0.878451 -8.95544e-20)
(12.1569 -0.892973 -8.6403e-20)
(12.1719 -0.907899 -6.3673e-25)
(12.1879 -0.923267 8.06433e-20)
(12.2052 -0.939117 7.80374e-20)
(12.2237 -0.955466 2.86049e-25)
(12.2435 -0.972334 1.46467e-19)
(12.2647 -0.989767 -7.1056e-20)
(12.2874 -1.0078 -1.38049e-19)
(12.3116 -1.02648 2.546e-25)
(12.3374 -1.04582 -6.54006e-20)
(12.3648 -1.06587 2.42141e-25)
(12.3939 -1.08666 -4.75486e-25)
(12.4246 -1.10826 2.33498e-25)
(12.4571 -1.1307 -2.27127e-25)
(12.4912 -1.15402 2.24281e-25)
(12.5269 -1.17826 1.15315e-19)
(12.5643 -1.20347 1.13655e-19)
(12.6032 -1.2297 -1.12253e-19)
(12.6435 -1.257 0)
(12.6852 -1.2854 1.10283e-19)
(12.7282 -1.31494 -2.11476e-25)
(12.7722 -1.34567 1.09495e-19)
(12.8171 -1.37764 1.09541e-19)
(12.8628 -1.4109 1.09911e-19)
(12.9089 -1.44547 -1.10628e-19)
(12.9552 -1.48137 0)
(13.0015 -1.51866 4.00237e-24)
(13.0476 -1.55738 -4.33867e-25)
(13.0929 -1.59752 -1.17334e-19)
(13.1373 -1.63911 -1.20075e-19)
(13.1805 -1.68221 -2.46633e-19)
(13.222 -1.72679 4.93769e-25)
(13.2616 -1.77289 -1.31434e-19)
(13.2989 -1.82053 2.72747e-19)
(13.3334 -1.86969 2.83946e-19)
(13.3648 -1.92036 0)
(13.393 -1.9726 -3.10814e-19)
(13.4179 -2.02643 3.26707e-19)
(13.4391 -2.08183 -6.74217e-25)
(13.4556 -2.13872 6.77075e-25)
(13.4675 -2.19713 0)
(13.4756 -2.25723 -4.10253e-19)
(13.48 -2.3191 4.37034e-19)
(13.4788 -2.38245 8.65404e-25)
(13.4717 -2.44723 -9.81889e-25)
(13.4603 -2.51381 -1.07123e-18)
(13.4457 -2.58241 1.0654e-24)
(13.4254 -2.65265 1.21862e-24)
(13.3985 -2.72436 -6.67439e-19)
(13.3669 -2.79796 -1.44136e-18)
(13.3325 -2.87395 -1.44098e-24)
(13.2921 -2.95174 8.43357e-19)
(13.2446 -3.03113 9.14305e-19)
(13.192 -3.11271 3.91221e-24)
(13.1364 -3.19698 2.13399e-23)
(13.0735 -3.28317 8.96106e-24)
(13.0032 -3.37135 -4.72306e-24)
(12.9282 -3.46231 3.67414e-23)
(12.8476 -3.55616 -5.99524e-24)
(12.7579 -3.65204 -1.66122e-18)
(12.6606 -3.75072 1.81739e-18)
(12.5572 -3.85291 -4.94632e-25)
(12.443 -3.95757 2.18167e-18)
(12.3183 -4.06527 -2.39516e-18)
(12.1844 -4.17673 0)
(12.0361 -4.29102 0)
(11.8722 -4.40815 8.22719e-23)
(11.6925 -4.52892 0)
(11.4911 -4.65187 -1.53772e-23)
(11.2658 -4.77691 -4.31155e-18)
(11.0092 -4.90212 4.78131e-18)
(10.7126 -5.02451 -4.05882e-23)
(10.3667 -5.14028 -1.5357e-24)
(9.95324 -5.2406 -2.77177e-23)
(9.45147 -5.313 -3.66965e-18)
(8.82675 -5.33339 0)
(8.03119 -5.26103 -1.37727e-22)
(13.5897 -0.885951 6.14464e-20)
(13.6019 -0.899821 5.8958e-20)
(13.6148 -0.914007 5.65957e-20)
(13.6285 -0.928547 8.298e-25)
(13.6431 -0.943458 1.04529e-19)
(13.6587 -0.958756 3.80103e-25)
(13.6754 -0.974471 -3.72769e-25)
(13.6933 -0.990634 0)
(13.7124 -1.00726 0)
(13.7327 -1.02436 -8.66156e-20)
(13.7545 -1.04198 8.3611e-20)
(13.7778 -1.06016 8.07989e-20)
(13.8026 -1.07892 7.81324e-20)
(13.829 -1.09829 1.76123e-24)
(13.8571 -1.11831 -2.31738e-24)
(13.8869 -1.13904 -1.7592e-24)
(13.9185 -1.1605 6.58729e-27)
(13.9519 -1.18273 6.70428e-20)
(13.9872 -1.20577 0)
(14.0242 -1.22966 0)
(14.0631 -1.25446 1.24197e-19)
(14.1038 -1.28022 -3.07203e-27)
(14.1462 -1.30698 -2.31204e-27)
(14.1903 -1.33478 -1.53718e-27)
(14.236 -1.36365 -4.38523e-25)
(14.2831 -1.39368 0)
(14.3316 -1.42489 0)
(14.3811 -1.45731 -1.10654e-19)
(14.4317 -1.49099 4.17962e-25)
(14.483 -1.52599 4.3776e-24)
(14.5349 -1.56235 -1.09189e-19)
(14.5871 -1.60011 -1.09334e-19)
(14.6393 -1.63931 1.09842e-19)
(14.6913 -1.67995 -1.10714e-19)
(14.7427 -1.7221 -2.23935e-19)
(14.7931 -1.76579 -4.3911e-25)
(14.8423 -1.81103 8.83761e-25)
(14.8899 -1.85784 -4.44993e-25)
(14.9356 -1.90627 1.2136e-19)
(14.979 -1.95631 9.54379e-25)
(15.0197 -2.00799 1.29152e-19)
(15.0576 -2.06133 -5.35795e-19)
(15.0918 -2.11631 1.34281e-23)
(15.1222 -2.17292 5.43758e-25)
(15.1488 -2.23124 6.10621e-19)
(15.1716 -2.29131 -3.21049e-19)
(15.19 -2.35308 3.3866e-19)
(15.2028 -2.41645 -3.57649e-26)
(15.2104 -2.48149 3.80375e-19)
(15.2139 -2.54841 0)
(15.2132 -2.6173 4.31862e-19)
(15.2063 -2.68778 0)
(15.1926 -2.75983 0)
(15.1743 -2.83389 5.32273e-19)
(15.1525 -2.91021 5.72991e-19)
(15.1244 -2.98831 2.2879e-24)
(15.0889 -3.06802 6.6792e-19)
(15.0483 -3.14987 7.23102e-19)
(15.0045 -3.23434 -3.08803e-24)
(14.9541 -3.32076 -1.70171e-18)
(14.8958 -3.40897 -9.25217e-19)
(14.832 -3.4996 -3.72549e-24)
(14.7645 -3.59315 -1.09813e-18)
(14.6889 -3.68879 0)
(14.6052 -3.78663 5.16552e-24)
(14.5161 -3.88749 -1.43348e-18)
(14.4204 -3.99141 -6.19154e-24)
(14.3147 -4.09757 1.72208e-18)
(14.2004 -4.20676 7.67074e-23)
(14.0788 -4.31963 -7.68434e-24)
(13.9451 -4.43516 0)
(13.7995 -4.55393 0)
(13.643 -4.67654 0)
(13.4702 -4.80208 0)
(13.2797 -4.93051 -3.40854e-18)
(13.0707 -5.06244 2.79187e-23)
(12.8368 -5.19629 -4.19703e-18)
(12.5749 -5.33159 -7.13538e-23)
(12.2766 -5.46604 -5.20175e-18)
(11.9322 -5.59594 -4.58772e-23)
(11.5298 -5.71626 -6.48968e-18)
(11.0488 -5.8165 7.26357e-18)
(10.4648 -5.88137 8.13308e-18)
(9.73836 -5.88242 0)
(8.8155 -5.77218 5.0826e-18)
(15.072 -0.982616 -9.76045e-25)
(15.0883 -0.998186 -1.21401e-19)
(15.1055 -1.01412 1.37847e-24)