/*--------------------------------*- C++ -*----------------------------------*\
| =========                 |                                                 |
| \\      /  F ield         | OpenFOAM: The Open Source CFD Toolbox           |
|  \\    /   O peration     | Version:  2412                                  |
|   \\  /    A nd           | Website:  www.openfoam.com                      |
|    \\/     M anipulation  |                                                 |
\*---------------------------------------------------------------------------*/
FoamFile
{
    version     2.0;
    format      ascii;
    arch        "LSB;label=32;scalar=64";
    class       volScalarField;
    location    "200";
    object      nut;
}
// * * * * * * * * * * * * * * * * * * * * * * * * * * * * * * * * * * * * * //

dimensions      [0 2 -1 0 0 0 0];

internalField   nonuniform List<scalar> 
7418
(
7.5721e-13
1.81255e-12
1.09356e-12
7.65367e-13
1.10396e-12
8.81858e-13
8.62143e-12
2.09304e-11
2.10715e-11
1.63222e-11
1.39202e-11
1.27517e-11
1.22633e-11
1.2346e-11
1.28003e-11
1.31875e-11
1.33075e-11
1.32539e-11
1.30353e-11
1.27883e-11
1.26551e-11
1.26294e-11
1.26841e-11
1.27576e-11
1.27998e-11
1.28167e-11
1.2826e-11
1.28505e-11
1.28911e-11
1.29398e-11
1.29888e-11
1.30368e-11
1.30868e-11
1.31396e-11
1.31959e-11
1.32538e-11
1.33133e-11
1.33742e-11
1.34361e-11
1.34981e-11
1.35607e-11
1.36243e-11
1.36881e-11
1.3752e-11
1.38156e-11
1.38789e-11
1.39424e-11
1.40056e-11
1.4067e-11
1.41265e-11
1.41865e-11
1.42451e-11
1.43025e-11
1.4359e-11
1.44129e-11
1.44664e-11
1.45187e-11
1.45693e-11
1.46177e-11
1.46632e-11
1.47075e-11
1.47511e-11
1.47917e-11
1.48294e-11
1.48664e-11
1.49015e-11
1.49349e-11
1.49659e-11
1.49944e-11
1.50227e-11
1.50502e-11
1.50761e-11
1.51017e-11
1.51228e-11
1.51366e-11
1.51504e-11
1.51609e-11
1.51683e-11
1.51725e-11
1.51721e-11
1.51692e-11
6.30602e-13
1.1471e-12
7.09239e-11
1.55045e-10
9.97188e-11
7.13908e-11
9.73144e-11
8.40931e-11
8.66855e-10
1.90805e-09
1.8967e-09
1.52284e-09
1.321e-09
1.22165e-09
1.18188e-09
1.19115e-09
1.23032e-09
1.26264e-09
1.27207e-09
1.26624e-09
1.24663e-09
1.22518e-09
1.21387e-09
1.21213e-09
1.2172e-09
1.22372e-09
1.22749e-09
1.22915e-09
1.23023e-09
1.23269e-09
1.23662e-09
1.24121e-09
1.24584e-09
1.25043e-09
1.25518e-09
1.26026e-09
1.26563e-09
1.27113e-09
1.27678e-09
1.28258e-09
1.28846e-09
1.29438e-09
1.30039e-09
1.30642e-09
1.31249e-09
1.31859e-09
1.32463e-09
1.33067e-09
1.33671e-09
1.34269e-09
1.34858e-09
1.35432e-09
1.36002e-09
1.36562e-09
1.37108e-09
1.37646e-09
1.38164e-09
1.38672e-09
1.39166e-09
1.39646e-09
1.4011e-09
1.40547e-09
1.40968e-09
1.41377e-09
1.41767e-09
1.42134e-09
1.42486e-09
1.42818e-09
1.43132e-09
1.43429e-09
1.43707e-09
1.43973e-09
1.4423e-09
1.4448e-09
1.44721e-09
1.44922e-09
1.45056e-09
1.45183e-09
1.45282e-09
1.45351e-09
1.4539e-09
1.4539e-09
1.45362e-09
5.50533e-11
9.96449e-11
6.91311e-10
1.2914e-09
8.95228e-10
6.67227e-10
8.45536e-10
9.67092e-10
9.07366e-09
1.72243e-08
1.68858e-08
1.42686e-08
1.26963e-08
1.19149e-08
1.16216e-08
1.17248e-08
1.20453e-08
1.22941e-08
1.2355e-08
1.22891e-08
1.21194e-08
1.19444e-08
1.18559e-08
1.18481e-08
1.18949e-08
1.19514e-08
1.19846e-08
1.2001e-08
1.20145e-08
1.20403e-08
1.20785e-08
1.21222e-08
1.21666e-08
1.22109e-08
1.22567e-08
1.2306e-08
1.23577e-08
1.24107e-08
1.24651e-08
1.25208e-08
1.25773e-08
1.26344e-08
1.26924e-08
1.27506e-08
1.28091e-08
1.2868e-08
1.29263e-08
1.29847e-08
1.30427e-08
1.31003e-08
1.31572e-08
1.32129e-08
1.32679e-08
1.33219e-08
1.33746e-08
1.34264e-08
1.34767e-08
1.35257e-08
1.35732e-08
1.36194e-08
1.36641e-08
1.37066e-08
1.37474e-08
1.37866e-08
1.38242e-08
1.38598e-08
1.38937e-08
1.39256e-08
1.3956e-08
1.39848e-08
1.40117e-08
1.4037e-08
1.40618e-08
1.40862e-08
1.41092e-08
1.41285e-08
1.41415e-08
1.41535e-08
1.41627e-08
1.4169e-08
1.41726e-08
1.41727e-08
1.41698e-08
4.67547e-10
8.49306e-10
3.64353e-09
5.30301e-09
3.92325e-09
3.08426e-09
3.66555e-09
6.77698e-09
4.75547e-08
7.67958e-08
7.4639e-08
6.68471e-08
6.12696e-08
5.84977e-08
5.75832e-08
5.81268e-08
5.93201e-08
6.01543e-08
6.02776e-08
5.99157e-08
5.92193e-08
5.85624e-08
5.82554e-08
5.82694e-08
5.84817e-08
5.87151e-08
5.88568e-08
5.89394e-08
5.90213e-08
5.91571e-08
5.93432e-08
5.95515e-08
5.97627e-08
5.99756e-08
6.01983e-08
6.04357e-08
6.06843e-08
6.09389e-08
6.11999e-08
6.14672e-08
6.1739e-08
6.20144e-08
6.22933e-08
6.25735e-08
6.28554e-08
6.31384e-08
6.34204e-08
6.37017e-08
6.39812e-08
6.42585e-08
6.45322e-08
6.48012e-08
6.50663e-08
6.53269e-08
6.55824e-08
6.58322e-08
6.60754e-08
6.6312e-08
6.65411e-08
6.67636e-08
6.69786e-08
6.71847e-08
6.73819e-08
6.75716e-08
6.77523e-08
6.79234e-08
6.80875e-08
6.82419e-08
6.83884e-08
6.85271e-08
6.86562e-08
6.87787e-08
6.88982e-08
6.9015e-08
6.91258e-08
6.92191e-08
6.92804e-08
6.9337e-08
6.93801e-08
6.9409e-08
6.94246e-08
6.94241e-08
6.94085e-08
1.93885e-09
3.60185e-09
1.59722e-08
1.55258e-08
1.19822e-08
1.00025e-08
1.15505e-08
3.49825e-08
1.73786e-07
2.41119e-07
2.34154e-07
2.22887e-07
2.10844e-07
2.05018e-07
2.03664e-07
2.05518e-07
2.08178e-07
2.09657e-07
2.09455e-07
2.08115e-07
2.06237e-07
2.04713e-07
2.04123e-07
2.04356e-07
2.05019e-07
2.05666e-07
2.06082e-07
2.06382e-07
2.06725e-07
2.0723e-07
2.07871e-07
2.08571e-07
2.09282e-07
2.10008e-07
2.10771e-07
2.1158e-07
2.12424e-07
2.13289e-07
2.14175e-07
2.15083e-07
2.16008e-07
2.16946e-07
2.17895e-07
2.1885e-07
2.19809e-07
2.20772e-07
2.21734e-07
2.22694e-07
2.23647e-07
2.24592e-07
2.25525e-07
2.26444e-07
2.2735e-07
2.2824e-07
2.29114e-07
2.29968e-07
2.30797e-07
2.31606e-07
2.32389e-07
2.33149e-07
2.33884e-07
2.34588e-07
2.35263e-07
2.3591e-07
2.36527e-07
2.37112e-07
2.37671e-07
2.38199e-07
2.38699e-07
2.3917e-07
2.39611e-07
2.40031e-07
2.40436e-07
2.4083e-07
2.41206e-07
2.41525e-07
2.41731e-07
2.41918e-07
2.42059e-07
2.42154e-07
2.42201e-07
2.42192e-07
2.4213e-07
5.6517e-09
1.312e-08
5.94416e-08
3.78038e-08
2.94933e-08
2.61104e-08
3.22473e-08
1.4685e-07
5.0068e-07
6.13244e-07
5.99958e-07
6.06633e-07
5.92421e-07
5.86544e-07
5.87471e-07
5.91965e-07
5.9496e-07
5.95125e-07
5.92858e-07
5.89083e-07
5.85506e-07
5.83428e-07
5.83138e-07
5.84282e-07
5.85892e-07
5.87231e-07
5.88192e-07
5.89085e-07
5.90223e-07
5.91738e-07
5.93518e-07
5.95407e-07
5.97338e-07
5.99339e-07
6.01447e-07
6.0367e-07
6.05985e-07
6.08357e-07
6.10788e-07
6.13282e-07
6.15821e-07
6.18397e-07
6.21003e-07
6.23629e-07
6.26269e-07
6.28917e-07
6.31565e-07
6.34207e-07
6.36831e-07
6.39432e-07
6.42005e-07
6.44541e-07
6.47043e-07
6.495e-07
6.51906e-07
6.54258e-07
6.56549e-07
6.5878e-07
6.60946e-07
6.63042e-07
6.65065e-07
6.67007e-07
6.68873e-07
6.70659e-07
6.72361e-07
6.73975e-07
6.75512e-07
6.76967e-07
6.78342e-07
6.79636e-07
6.8085e-07
6.82005e-07
6.83116e-07
6.8419e-07
6.85213e-07
6.8609e-07
6.86646e-07
6.8714e-07
6.87508e-07
6.87751e-07
6.87861e-07
6.87814e-07
6.87614e-07
1.3765e-08
4.64571e-08
1.93213e-07
8.87545e-08
6.34589e-08
5.8979e-08
9.96811e-08
5.30723e-07
1.20765e-06
1.35678e-06
1.34663e-06
1.44156e-06
1.45121e-06
1.4607e-06
1.47248e-06
1.47995e-06
1.47612e-06
1.46738e-06
1.4583e-06
1.44984e-06
1.44564e-06
1.44591e-06
1.44842e-06
1.45222e-06
1.45541e-06
1.4575e-06
1.45935e-06
1.46167e-06
1.46484e-06
1.46874e-06
1.47298e-06
1.47735e-06
1.48184e-06
1.48657e-06
1.49157e-06
1.49682e-06
1.50227e-06
1.50785e-06
1.51358e-06
1.51946e-06
1.52544e-06
1.53151e-06
1.53765e-06
1.54385e-06
1.55008e-06
1.55634e-06
1.56259e-06
1.56884e-06
1.57504e-06
1.5812e-06
1.58728e-06
1.59329e-06
1.59921e-06
1.60503e-06
1.61073e-06
1.6163e-06
1.62174e-06
1.62702e-06
1.63215e-06
1.63711e-06
1.6419e-06
1.6465e-06
1.65091e-06
1.65514e-06
1.65917e-06
1.66298e-06
1.66662e-06
1.67005e-06
1.67329e-06
1.67634e-06
1.6792e-06
1.68191e-06
1.6845e-06
1.68699e-06
1.68937e-06
1.69143e-06
1.6927e-06
1.6938e-06
1.6946e-06
1.69511e-06
1.6953e-06
1.69513e-06
1.69458e-06
3.1311e-08
1.51922e-07
5.55082e-07
2.30672e-07
1.26554e-07
1.21534e-07
3.10461e-07
1.60264e-06
2.53197e-06
2.72362e-06
2.7557e-06
3.10621e-06
3.21118e-06
3.27507e-06
3.314e-06
3.31894e-06
3.2879e-06
3.25214e-06
3.22697e-06
3.21211e-06
3.2131e-06
3.22441e-06
3.23602e-06
3.24582e-06
3.25095e-06
3.2531e-06
3.25622e-06
3.2616e-06
3.26929e-06
3.27804e-06
3.28693e-06
3.29583e-06
3.30509e-06
3.31496e-06
3.32544e-06
3.33639e-06
3.34769e-06
3.35928e-06
3.37119e-06
3.3834e-06
3.39585e-06
3.40848e-06
3.42127e-06
3.43416e-06
3.44715e-06
3.46019e-06
3.47324e-06
3.48626e-06
3.4992e-06
3.51207e-06
3.52479e-06
3.53734e-06
3.5497e-06
3.56185e-06
3.57376e-06
3.58541e-06
3.59677e-06
3.60782e-06
3.61853e-06
3.62887e-06
3.63887e-06
3.64846e-06
3.65766e-06
3.66647e-06
3.67483e-06
3.68278e-06
3.69032e-06
3.69745e-06
3.70415e-06
3.71045e-06
3.71634e-06
3.72188e-06
3.72715e-06
3.73215e-06
3.73695e-06
3.74122e-06
3.74368e-06
3.74579e-06
3.74725e-06
3.7481e-06
3.74828e-06
3.74773e-06
3.74633e-06
7.62111e-08
4.49985e-07
1.42705e-06
5.97839e-07
2.51924e-07
2.4036e-07
9.37723e-07
3.83056e-06
4.74342e-06
5.09629e-06
5.27461e-06
6.20799e-06
6.53946e-06
6.7187e-06
6.79857e-06
6.77924e-06
6.68208e-06
6.59012e-06
6.53754e-06
6.51959e-06
6.54084e-06
6.58025e-06
6.61154e-06
6.63166e-06
6.63787e-06
6.63814e-06
6.64302e-06
6.65427e-06
6.67042e-06
6.68763e-06
6.70407e-06
6.72014e-06
6.73703e-06
6.75533e-06
6.77477e-06
6.79497e-06
6.81574e-06
6.83704e-06
6.85897e-06
6.88145e-06
6.90439e-06
6.92767e-06
6.95127e-06
6.97507e-06
6.99904e-06
7.02314e-06
7.04724e-06
7.0713e-06
7.09521e-06
7.119e-06
7.14252e-06
7.16572e-06
7.18857e-06
7.21103e-06
7.23306e-06
7.25459e-06
7.27555e-06
7.29594e-06
7.31571e-06
7.33476e-06
7.35316e-06
7.3708e-06
7.38771e-06
7.40385e-06
7.41917e-06
7.43366e-06
7.44742e-06
7.46038e-06
7.47254e-06
7.4839e-06
7.49446e-06
7.50432e-06
7.51354e-06
7.52216e-06
7.5305e-06
7.53815e-06
7.54214e-06
7.54542e-06
7.54751e-06
7.54845e-06
7.5482e-06
7.5466e-06
7.54331e-06
1.89638e-07
1.20776e-06
3.31332e-06
1.47306e-06
5.60636e-07
5.3945e-07
2.69756e-06
7.60567e-06
8.12302e-06
9.04426e-06
9.61742e-06
1.16343e-05
1.23218e-05
1.26478e-05
1.27461e-05
1.26557e-05
1.24461e-05
1.22737e-05
1.21927e-05
1.21878e-05
1.22544e-05
1.23425e-05
1.24029e-05
1.2435e-05
1.2439e-05
1.24348e-05
1.24426e-05
1.24634e-05
1.24925e-05
1.25215e-05
1.25479e-05
1.25733e-05
1.26004e-05
1.26301e-05
1.26617e-05
1.26943e-05
1.27277e-05
1.27621e-05
1.27975e-05
1.28338e-05
1.28708e-05
1.29084e-05
1.29466e-05
1.29851e-05
1.30239e-05
1.30629e-05
1.31019e-05
1.31409e-05
1.31796e-05
1.32181e-05
1.32562e-05
1.32938e-05
1.33308e-05
1.33671e-05
1.34027e-05
1.34375e-05
1.34713e-05
1.35042e-05
1.3536e-05
1.35666e-05
1.35962e-05
1.36244e-05
1.36514e-05
1.36771e-05
1.37015e-05
1.37244e-05
1.37461e-05
1.37664e-05
1.37854e-05
1.38029e-05
1.38191e-05
1.38339e-05
1.38475e-05
1.38597e-05
1.38717e-05
1.38833e-05
1.38882e-05
1.3892e-05
1.38938e-05
1.38937e-05
1.38918e-05
1.38878e-05
1.38807e-05
4.64965e-07
2.94721e-06
6.97897e-06
3.39126e-06
1.28735e-06
1.28788e-06
7.22097e-06
1.31576e-05
1.29481e-05
1.53708e-05
1.68845e-05
2.04062e-05
2.13999e-05
2.17922e-05
2.18262e-05
2.1607e-05
2.12634e-05
2.10198e-05
2.09348e-05
2.09733e-05
2.11096e-05
2.1255e-05
2.13424e-05
2.13808e-05
2.13774e-05
2.13678e-05
2.1381e-05
2.14148e-05
2.1459e-05
2.15008e-05
2.15373e-05
2.15725e-05
2.16106e-05
2.16527e-05
2.16974e-05
2.17433e-05
2.17904e-05
2.18387e-05
2.18886e-05
2.19399e-05
2.19922e-05
2.20453e-05
2.20993e-05
2.21537e-05
2.22087e-05
2.22639e-05
2.23192e-05
2.23744e-05
2.24293e-05
2.24838e-05
2.25377e-05
2.25909e-05
2.26433e-05
2.26947e-05
2.2745e-05
2.2794e-05
2.28417e-05
2.28879e-05
2.29324e-05
2.29753e-05
2.30165e-05
2.30558e-05
2.30932e-05
2.31286e-05
2.3162e-05
2.31933e-05
2.32227e-05
2.325e-05
2.32752e-05
2.32982e-05
2.3319e-05
2.33375e-05
2.33535e-05
2.33673e-05
2.3381e-05
2.33952e-05
2.33993e-05
2.34012e-05
2.34004e-05
2.33969e-05
2.3391e-05
2.33823e-05
2.33687e-05
1.10038e-06
6.55051e-06
1.33621e-05
7.24034e-06
2.91088e-06
3.09255e-06
1.57537e-05
2.05366e-05
1.98669e-05
2.50619e-05
2.83864e-05
3.31901e-05
3.41782e-05
3.44494e-05
3.43104e-05
3.39283e-05
3.34776e-05
3.32152e-05
3.31736e-05
3.32868e-05
3.34994e-05
3.36877e-05
3.37842e-05
3.38169e-05
3.3802e-05
3.37897e-05
3.38116e-05
3.38595e-05
3.39173e-05
3.3969e-05
3.40131e-05
3.40563e-05
3.41039e-05
3.41568e-05
3.42126e-05
3.42698e-05
3.43283e-05
3.43885e-05
3.44509e-05
3.4515e-05
3.45804e-05
3.46469e-05
3.47145e-05
3.47828e-05
3.48518e-05
3.49211e-05
3.49905e-05
3.50598e-05
3.51287e-05
3.51972e-05
3.52649e-05
3.53316e-05
3.53972e-05
3.54615e-05
3.55243e-05
3.55855e-05
3.56448e-05
3.5702e-05
3.57571e-05
3.58099e-05
3.58605e-05
3.59084e-05
3.59538e-05
3.59965e-05
3.60364e-05
3.60735e-05
3.61079e-05
3.61395e-05
3.61681e-05
3.61936e-05
3.62157e-05
3.62342e-05
3.62488e-05
3.62596e-05
3.62707e-05
3.62843e-05
3.6284e-05
3.62805e-05
3.62734e-05
3.6263e-05
3.62499e-05
3.62334e-05
3.62099e-05
2.48647e-06
1.32413e-05
2.32938e-05
1.42551e-05
6.33161e-06
7.26412e-06
2.7373e-05
2.97715e-05
2.97145e-05
3.89811e-05
4.47286e-05
4.98806e-05
5.04658e-05
5.04209e-05
5.00334e-05
4.9502e-05
4.90147e-05
4.88089e-05
4.88583e-05
4.90609e-05
4.93317e-05
4.95291e-05
4.96087e-05
4.96232e-05
4.95962e-05
4.95863e-05
4.96196e-05
4.96798e-05
4.97461e-05
4.98021e-05
4.98497e-05
4.98976e-05
4.99515e-05
5.00112e-05
5.00739e-05
5.01379e-05
5.02036e-05
5.02713e-05
5.03416e-05
5.04139e-05
5.04877e-05
5.05629e-05
5.06393e-05
5.07167e-05
5.07948e-05
5.08734e-05
5.0952e-05
5.10306e-05
5.11087e-05
5.11862e-05
5.12627e-05
5.13382e-05
5.14123e-05
5.14847e-05
5.15553e-05
5.16238e-05
5.169e-05
5.17537e-05
5.18146e-05
5.18727e-05
5.1928e-05
5.198e-05
5.20289e-05
5.20742e-05
5.21161e-05
5.21544e-05
5.21894e-05
5.22207e-05
5.22481e-05
5.22714e-05
5.22901e-05
5.23034e-05
5.23108e-05
5.23127e-05
5.23154e-05
5.23232e-05
5.23142e-05
5.23007e-05
5.22831e-05
5.22618e-05
5.22376e-05
5.221e-05
5.21732e-05
5.31438e-06
2.42879e-05
3.71211e-05
2.57518e-05
1.29817e-05
1.62892e-05
4.0823e-05
4.10081e-05
4.3423e-05
5.73259e-05
6.52201e-05
6.97185e-05
6.96387e-05
6.9165e-05
6.85206e-05
6.78964e-05
6.74581e-05
6.73751e-05
6.75418e-05
6.78237e-05
6.81164e-05
6.82844e-05
6.8324e-05
6.83124e-05
6.82768e-05
6.8275e-05
6.83205e-05
6.83885e-05
6.84564e-05
6.8511e-05
6.85577e-05
6.86066e-05
6.86627e-05
6.87247e-05
6.87892e-05
6.88549e-05
6.89224e-05
6.89925e-05
6.90652e-05
6.91401e-05
6.92167e-05
6.92948e-05
6.93742e-05
6.94547e-05
6.9536e-05
6.96178e-05
6.96996e-05
6.97814e-05
6.98626e-05
6.99431e-05
7.00225e-05
7.01007e-05
7.01772e-05
7.02518e-05
7.03242e-05
7.03942e-05
7.04614e-05
7.05258e-05
7.05868e-05
7.06446e-05
7.06989e-05
7.07495e-05
7.07962e-05
7.08387e-05
7.08772e-05
7.09115e-05
7.09417e-05
7.09674e-05
7.09883e-05
7.1004e-05
7.10136e-05
7.10161e-05
7.10103e-05
7.09969e-05
7.09847e-05
7.09805e-05
7.09584e-05
7.09304e-05
7.08978e-05
7.08615e-05
7.08226e-05
7.07804e-05
7.07273e-05
1.06696e-05
4.0441e-05
5.44997e-05
4.2614e-05
2.47239e-05
3.35908e-05
5.5097e-05
5.44872e-05
6.15497e-05
7.93751e-05
8.84675e-05
9.17412e-05
9.09422e-05
9.00319e-05
8.91812e-05
8.85389e-05
8.82199e-05
8.82946e-05
8.85761e-05
8.89082e-05
8.91832e-05
8.92917e-05
8.92782e-05
8.92396e-05
8.92006e-05
8.92111e-05
8.92673e-05
8.93378e-05
8.94012e-05
8.94493e-05
8.94917e-05
8.95386e-05
8.95934e-05
8.96534e-05
8.97152e-05
8.97781e-05
8.98429e-05
8.99105e-05
8.99808e-05
9.00532e-05
9.01274e-05
9.0203e-05
9.02801e-05
9.03582e-05
9.04371e-05
9.05165e-05
9.05958e-05
9.06751e-05
9.07537e-05
9.08315e-05
9.0908e-05
9.0983e-05
9.10562e-05
9.11273e-05
9.11958e-05
9.12616e-05
9.13242e-05
9.13835e-05
9.14392e-05
9.14911e-05
9.15391e-05
9.15827e-05
9.1622e-05
9.16565e-05
9.16864e-05
9.17114e-05
9.17316e-05
9.17465e-05
9.17557e-05
9.17586e-05
9.17538e-05
9.17399e-05
9.17151e-05
9.16804e-05
9.16469e-05
9.16239e-05
9.15846e-05
9.15378e-05
9.14862e-05
9.1431e-05
9.13738e-05
9.13139e-05
9.12416e-05
1.99972e-05
6.1499e-05
7.45221e-05
6.48622e-05
4.33724e-05
5.52578e-05
6.98935e-05
7.03835e-05
8.37012e-05
0.00010391
0.000113227
0.000115166
0.000113737
0.000112456
0.000111479
0.000110885
0.000110724
0.000110957
0.000111329
0.000111676
0.000111902
0.000111935
0.000111866
0.000111804
0.000111768
0.000111792
0.000111856
0.000111924
0.000111978
0.000112017
0.000112053
0.000112096
0.000112147
0.000112202
0.000112258
0.000112314
0.000112373
0.000112435
0.000112499
0.000112565
0.000112633
0.000112702
0.000112773
0.000112845
0.000112917
0.000112989
0.000113062
0.000113134
0.000113205
0.000113276
0.000113345
0.000113412
0.000113477
0.00011354
0.0001136
0.000113657
0.00011371
0.000113759
0.000113805
0.000113846
0.000113883
0.000113915
0.000113943
0.000113964
0.000113981
0.000113992
0.000113998
0.000113997
0.00011399
0.000113975
0.000113951
0.000113916
0.000113867
0.000113805
0.000113744
0.000113695
0.000113635
0.000113565
0.000113491
0.000113413
0.000113334
0.000113253
0.000113159
3.47662e-05
8.6432e-05
9.60712e-05
9.17931e-05
6.99519e-05
7.76377e-05
8.52656e-05
8.86325e-05
0.000108687
0.000129844
0.000138756
0.000139524
0.000137603
0.000136051
0.000135025
0.000134523
0.000134527
0.000134896
0.000135325
0.000135655
0.000135812
0.000135767
0.000135648
0.000135569
0.000135539
0.000135577
0.000135646
0.000135708
0.000135751
0.000135779
0.000135808
0.000135846
0.000135891
0.000135939
0.000135987
0.000136036
0.000136087
0.00013614
0.000136196
0.000136254
0.000136313
0.000136373
0.000136434
0.000136496
0.000136559
0.000136621
0.000136683
0.000136745
0.000136806
0.000136866
0.000136924
0.00013698
0.000137033
0.000137084
0.000137131
0.000137176
0.000137216
0.000137252
0.000137283
0.00013731
0.000137332
0.000137349
0.00013736
0.000137365
0.000137364
0.000137358
0.000137344
0.000137324
0.000137296
0.000137259
0.000137211
0.000137149
0.000137071
0.000136978
0.000136883
0.000136799
0.000136714
0.000136617
0.000136516
0.000136411
0.000136306
0.0001362
0.000136081
5.58829e-05
0.000113755
0.000118157
0.000122575
0.000101145
9.86229e-05
0.000101429
0.000109285
0.000135261
0.000156516
0.00016475
0.000164599
0.000162336
0.000160607
0.00015959
0.000159203
0.000159357
0.000159828
0.00016028
0.000160571
0.000160653
0.000160534
0.000160374
0.000160286
0.000160265
0.000160315
0.000160385
0.000160438
0.000160469
0.000160486
0.000160509
0.000160541
0.00016058
0.00016062
0.000160659
0.000160699
0.000160742
0.000160786
0.000160832
0.00016088
0.000160928
0.000160978
0.000161028
0.000161079
0.000161129
0.00016118
0.00016123
0.000161279
0.000161327
0.000161373
0.000161417
0.000161459
0.000161498
0.000161534
0.000161566
0.000161595
0.000161619
0.000161638
0.000161652
0.000161661
0.000161665
0.000161662
0.000161654
0.000161638
0.000161616
0.000161588
0.000161551
0.000161507
0.000161454
0.00016139
0.000161312
0.000161219
0.000161107
0.000160976
0.000160841
0.000160711
0.000160597
0.000160468
0.000160335
0.000160199
0.000160063
0.000159927
0.00015978
8.08622e-05
0.000141926
0.000140007
0.00015653
0.000130048
0.000117929
0.000118709
0.000132266
0.000162574
0.00018365
0.000191173
0.000190353
0.000187877
0.000186054
0.000185083
0.000184812
0.000185088
0.000185626
0.000186075
0.000186314
0.00018632
0.000186139
0.000185949
0.000185855
0.000185845
0.000185904
0.000185973
0.000186018
0.000186036
0.000186044
0.00018606
0.000186087
0.00018612
0.000186152
0.000186183
0.000186214
0.000186246
0.000186281
0.000186317
0.000186354
0.000186391
0.000186429
0.000186467
0.000186505
0.000186543
0.00018658
0.000186616
0.00018665
0.000186683
0.000186714
0.000186742
0.000186768
0.00018679
0.000186808
0.000186822
0.000186832
0.000186836
0.000186836
0.000186829
0.000186817
0.000186799
0.000186774
0.000186741
0.000186702
0.000186654
0.000186599
0.000186536
0.000186462
0.000186379
0.000186282
0.00018617
0.00018604
0.000185887
0.000185713
0.000185529
0.000185342
0.000185192
0.000185026
0.000184856
0.000184682
0.000184509
0.000184336
0.000184155
0.000103273
0.000165616
0.000161117
0.000190381
0.00015537
0.000136061
0.000137391
0.000157302
0.000190405
0.000211205
0.000218113
0.00021684
0.000214233
0.000212403
0.000211493
0.000211326
0.000211692
0.000212266
0.000212692
0.000212874
0.000212813
0.000212581
0.000212372
0.000212276
0.000212276
0.000212343
0.00021241
0.000212445
0.000212453
0.000212453
0.000212464
0.000212486
0.000212512
0.000212537
0.000212559
0.000212581
0.000212605
0.00021263
0.000212655
0.000212681
0.000212706
0.000212731
0.000212757
0.000212781
0.000212804
0.000212826
0.000212847
0.000212865
0.000212881
0.000212895
0.000212905
0.000212912
0.000212914
0.000212912
0.000212906
0.000212894
0.000212876
0.000212852
0.000212821
0.000212784
0.00021274
0.000212688
0.000212627
0.000212559
0.000212482
0.000212395
0.000212299
0.000212191
0.000212071
0.000211936
0.000211783
0.000211608
0.000211408
0.000211184
0.000210943
0.000210683
0.000210492
0.000210282
0.000210067
0.000209848
0.00020963
0.000209412
0.000209189
0.000121839
0.000184281
0.000181152
0.000219632
0.000177164
0.000153697
0.000157778
0.000184047
0.000218822
0.000239244
0.000245683
0.000244157
0.000241474
0.000239694
0.000238847
0.000238764
0.00023919
0.000239776
0.000240167
0.000240293
0.000240175
0.000239906
0.000239685
0.000239591
0.000239602
0.000239675
0.000239738
0.000239765
0.000239764
0.000239758
0.000239765
0.000239783
0.000239804
0.000239821
0.000239836
0.00023985
0.000239865
0.00023988
0.000239895
0.000239909
0.000239922
0.000239935
0.000239946
0.000239956
0.000239964
0.00023997
0.000239973
0.000239974
0.000239971
0.000239965
0.000239955
0.00023994
0.000239921
0.000239896
0.000239865
0.000239828
0.000239784
0.000239733
0.000239674
0.000239608
0.000239533
0.000239449
0.000239356
0.000239253
0.00023914
0.000239016
0.000238881
0.000238732
0.000238569
0.000238388
0.000238187
0.00023796
0.000237704
0.000237421
0.000237114
0.000135935
0.000198333
0.000199936
0.00024506
0.000196006
0.000171531
0.000179995
0.000212081
0.0002479
0.000267864
0.000273957
0.000272355
0.000269656
0.000267961
0.000267173
0.000267153
0.000267613
0.000268193
0.000268546
0.000268623
0.00026846
0.000268165
0.00026794
0.000267852
0.000267872
0.00026795
0.000268011
0.000268032
0.000268024
0.000268014
0.000268018
0.000268034
0.00026805
0.000268061
0.000268069
0.000268075
0.000268082
0.000268088
0.000268093
0.000268096
0.000268097
0.000268096
0.000268093
0.000268087
0.000268078
0.000268067
0.000268051
0.000268032
0.000268009
0.000267981
0.000267948
0.000267909
0.000267864
0.000267813
0.000267754
0.000267688
0.000267614
0.000267531
0.00026744
0.000267339
0.000267229
0.000267107
0.000266975
0.000266832
0.000266677
0.000266509
0.000266327
0.000266129
0.000265914
0.000265679
0.000265419
0.000265131
0.000264811
0.00026446
0.00026408
0.000144972
0.000208118
0.000217831
0.000267628
0.000212927
0.000190072
0.000203936
0.000241327
0.000277682
0.000297156
0.000303021
0.000301466
0.000298819
0.000297211
0.000296481
0.000296504
0.00029698
0.000297543
0.000297858
0.000297895
0.000297701
0.000297393
0.000297169
0.00029709
0.00029712
0.000297202
0.000297263
0.000297279
0.000297268
0.000297257
0.00029726
0.000297274
0.000297287
0.000297294
0.000297295
0.000297295
0.000297295
0.000297292
0.000297287
0.000297278
0.000297267
0.000297252
0.000297234
0.000297212
0.000297186
0.000297155
0.000297119
0.000297078
0.000297032
0.00029698
0.00029692
0.000296854
0.00029678
0.000296699
0.000296608
0.000296509
0.000296399
0.00029628
0.00029615
0.000296009
0.000295857
0.000295692
0.000295514
0.000295322
0.000295117
0.000294896
0.000294659
0.000294404
0.000294127
0.000293827
0.000293499
0.000293138
0.000292743
0.000292313
0.000291854
0.000150453
0.000213886
0.000235662
0.000287488
0.000229044
0.000209742
0.00022982
0.000271747
0.000308174
0.00032716
0.000332883
0.000331469
0.000328954
0.000327416
0.000326745
0.000326797
0.000327276
0.000327817
0.000328099
0.000328107
0.000327896
0.000327585
0.00032737
0.000327302
0.000327341
0.00032743
0.000327491
0.000327507
0.000327496
0.000327486
0.00032749
0.000327504
0.000327516
0.00032752
0.000327517
0.000327512
0.000327505
0.000327495
0.00032748
0.00032746
0.000327436
0.000327407
0.000327373
0.000327334
0.000327289
0.000327237
0.000327179
0.000327115
0.000327042
0.000326962
0.000326874
0.000326777
0.00032667
0.000326553
0.000326426
0.000326288
0.000326138
0.000325976
0.000325802
0.000325614
0.000325412
0.000325195
0.000324963
0.000324715
0.00032445
0.000324167
0.000323864
0.00032354
0.000323191
0.000322814
0.000322405
0.00032196
0.000321477
0.000320958
0.00032041
0.000153382
0.000216601
0.000254239
0.000304668
0.000244965
0.000230906
0.000257833
0.000303244
0.000339339
0.00035785
0.000363482
0.00036228
0.000359959
0.000358505
0.000357896
0.000357969
0.000358442
0.000358961
0.000359217
0.000359208
0.000358993
0.00035869
0.000358491
0.000358437
0.000358488
0.000358584
0.000358649
0.000358668
0.00035866
0.000358654
0.000358663
0.00035868
0.000358692
0.000358695
0.00035869
0.000358681
0.000358668
0.000358651
0.000358627
0.000358597
0.00035856
0.000358517
0.000358466
0.000358409
0.000358343
0.000358269
0.000358187
0.000358095
0.000357994
0.000357883
0.000357762
0.000357629
0.000357485
0.000357328
0.000357159
0.000356976
0.000356779
0.000356568
0.000356341
0.000356098
0.000355838
0.000355561
0.000355265
0.000354951
0.000354616
0.000354259
0.000353878
0.000353472
0.000353037
0.000352569
0.000352066
0.000351523
0.000350939
0.000350318
0.000349672
0.00015508
0.00021764
0.000274604
0.000320021
0.000261243
0.000253988
0.000287885
0.000335656
0.000371098
0.000389126
0.000394704
0.000393771
0.000391686
0.000390354
0.000389812
0.000389902
0.000390368
0.000390866
0.000391105
0.000391092
0.000390884
0.000390601
0.000390424
0.000390387
0.000390452
0.000390558
0.000390631
0.000390658
0.000390658
0.00039066
0.000390675
0.000390696
0.000390711
0.000390715
0.00039071
0.000390699
0.000390682
0.000390659
0.000390627
0.000390586
0.000390536
0.000390478
0.00039041
0.000390333
0.000390245
0.000390147
0.000390037
0.000389916
0.000389783
0.000389638
0.000389479
0.000389306
0.000389119
0.000388916
0.000388698
0.000388464
0.000388212
0.000387943
0.000387655
0.000387348
0.000387021
0.000386672
0.000386302
0.000385908
0.000385491
0.000385047
0.000384575
0.000384072
0.000383536
0.000382962
0.000382348
0.000381691
0.000380991
0.000380253
0.000379495
0.000157114
0.000218341
0.000292608
0.000334048
0.000278646
0.000279109
0.000319554
0.000368784
0.000403307
0.000420829
0.000426381
0.00042576
0.000423953
0.000422775
0.000422308
0.000422419
0.000422878
0.000423359
0.00042359
0.000423583
0.000423396
0.000423144
0.000422996
0.00042298
0.000423063
0.000423182
0.000423267
0.000423305
0.000423317
0.00042333
0.000423356
0.000423384
0.000423405
0.000423412
0.000423409
0.000423397
0.000423377
0.000423348
0.000423309
0.000423257
0.000423195
0.000423121
0.000423035
0.000422936
0.000422825
0.000422699
0.00042256
0.000422406
0.000422236
0.000422051
0.00042185
0.000421631
0.000421394
0.000421139
0.000420865
0.00042057
0.000420255
0.000419919
0.00041956
0.000419178
0.000418772
0.00041834
0.000417882
0.000417396
0.000416881
0.000416334
0.000415754
0.000415138
0.000414483
0.000413785
0.000413043
0.000412253
0.000411418
0.000410546
0.000409659
0.000160961
0.000220017
0.000309327
0.000346923
0.000297287
0.000306058
0.000352541
0.000402374
0.000435761
0.00045274
0.000458277
0.000458001
0.000456508
0.00045551
0.000455132
0.000455268
0.000455723
0.000456192
0.000456423
0.000456434
0.00045628
0.000456068
0.000455957
0.000455968
0.000456072
0.000456208
0.000456309
0.000456364
0.000456392
0.00045642
0.000456458
0.000456497
0.000456526
0.000456539
0.000456538
0.000456528
0.000456506
0.000456472
0.000456425
0.000456363
0.000456287
0.000456197
0.000456091
0.000455969
0.00045583
0.000455674
0.000455501
0.000455309
0.000455099
0.000454869
0.000454618
0.000454347
0.000454053
0.000453737
0.000453398
0.000453034
0.000452645
0.000452231
0.000451789
0.000451319
0.00045082
0.00045029
0.000449729
0.000449134
0.000448505
0.000447838
0.000447131
0.000446382
0.000445587
0.000444745
0.000443853
0.00044291
0.000441919
0.000440891
0.000439849
0.000167925
0.000224396
0.000326177
0.000359486
0.000317593
0.000334937
0.000386518
0.000436113
0.000468194
0.000484573
0.000490097
0.000490162
0.000489011
0.00048822
0.000487945
0.000488113
0.000488566
0.000489029
0.000489269
0.000489309
0.000489198
0.000489038
0.000488971
0.000489014
0.000489143
0.000489301
0.000489422
0.000489498
0.000489547
0.000489594
0.000489647
0.000489699
0.000489737
0.000489758
0.000489762
0.000489753
0.00048973
0.000489692
0.000489637
0.000489564
0.000489473
0.000489363
0.000489235
0.000489086
0.000488917
0.000488727
0.000488515
0.000488281
0.000488023
0.000487741
0.000487434
0.000487101
0.000486742
0.000486355
0.00048594
0.000485495
0.00048502
0.000484514
0.000483975
0.000483403
0.000482795
0.00048215
0.000481467
0.000480745
0.000479981
0.000479172
0.000478317
0.000477412
0.000476455
0.000475443
0.000474377
0.000473255
0.000472083
0.00047087
0.000469642
0.000178873
0.000231384
0.000345694
0.000372882
0.000339764
0.000365709
0.000421045
0.000469635
0.000500256
0.000515977
0.000521515
0.00052182
0.000521031
0.000520466
0.00052031
0.000520518
0.000520976
0.000521437
0.000521696
0.000521773
0.000521717
0.000521617
0.000521601
0.000521682
0.00052184
0.000522023
0.000522168
0.00052227
0.000522343
0.000522411
0.000522483
0.000522549
0.000522599
0.000522628
0.000522638
0.000522631
0.000522606
0.000522562
0.000522498
0.000522411
0.000522303
0.000522172
0.000522017
0.000521838
0.000521634
0.000521404
0.000521147
0.000520862
0.000520549
0.000520207
0.000519834
0.00051943
0.000518993
0.000518524
0.00051802
0.000517481
0.000516905
0.000516291
0.000515638
0.000514944
0.000514209
0.000513429
0.000512603
0.000511731
0.000510808
0.000509833
0.000508803
0.000507715
0.000506568
0.00050536
0.000504089
0.000502759
0.000501373
0.000499939
0.000498485
0.00019467
0.00024134
0.000367097
0.000387753
0.000363786
0.000398011
0.000455576
0.000502491
0.000531463
0.000546412
0.00055194
0.000552446
0.000552026
0.000551704
0.000551679
0.000551936
0.000552404
0.00055287
0.000553154
0.000553276
0.000553286
0.000553256
0.000553292
0.000553417
0.000553608
0.000553818
0.000553991
0.000554121
0.000554222
0.000554314
0.000554405
0.000554486
0.000554548
0.000554585
0.0005546
0.000554594
0.000554566
0.000554515
0.000554438