/*--------------------------------*- C++ -*----------------------------------*\
| =========                 |                                                 |
| \\      /  F ield         | OpenFOAM: The Open Source CFD Toolbox           |
|  \\    /   O peration     | Version:  2412                                  |
|   \\  /    A nd           | Website:  www.openfoam.com                      |
|    \\/     M anipulation  |                                                 |
\*---------------------------------------------------------------------------*/
FoamFile
{
    version     2.0;
    format      ascii;
    arch        "LSB;label=32;scalar=64";
    class       volScalarField;
    location    "200";
    object      nuTilda;
}
// * * * * * * * * * * * * * * * * * * * * * * * * * * * * * * * * * * * * * //

dimensions      [0 2 -1 0 0 0 0];

internalField   nonuniform List<scalar> 
7418
(
9.68154e-07
1.20424e-06
1.06133e-06
9.7075e-07
1.06385e-06
1.00575e-06
1.77842e-06
2.21991e-06
2.22364e-06
2.0861e-06
2.00471e-06
1.96125e-06
1.9422e-06
1.94546e-06
1.96312e-06
1.97779e-06
1.98228e-06
1.98028e-06
1.97206e-06
1.96265e-06
1.95753e-06
1.95653e-06
1.95865e-06
1.96148e-06
1.96309e-06
1.96374e-06
1.9641e-06
1.96504e-06
1.96659e-06
1.96844e-06
1.9703e-06
1.97212e-06
1.97401e-06
1.976e-06
1.97811e-06
1.98028e-06
1.98249e-06
1.98476e-06
1.98705e-06
1.98934e-06
1.99164e-06
1.99397e-06
1.9963e-06
1.99863e-06
2.00094e-06
2.00323e-06
2.00551e-06
2.00778e-06
2.00998e-06
2.0121e-06
2.01423e-06
2.01631e-06
2.01834e-06
2.02033e-06
2.02222e-06
2.0241e-06
2.02592e-06
2.02769e-06
2.02937e-06
2.03095e-06
2.03248e-06
2.03398e-06
2.03538e-06
2.03668e-06
2.03794e-06
2.03915e-06
2.04029e-06
2.04134e-06
2.04232e-06
2.04328e-06
2.04421e-06
2.04509e-06
2.04596e-06
2.04667e-06
2.04714e-06
2.04761e-06
2.04796e-06
2.04821e-06
2.04835e-06
2.04834e-06
2.04824e-06
9.24866e-07
1.07409e-06
3.0119e-06
3.66234e-06
3.27973e-06
3.01685e-06
3.25977e-06
3.14292e-06
5.63175e-06
6.8599e-06
6.84967e-06
6.48379e-06
6.25733e-06
6.13618e-06
6.08562e-06
6.09752e-06
6.14705e-06
6.18703e-06
6.19855e-06
6.19143e-06
6.16732e-06
6.14062e-06
6.12639e-06
6.12419e-06
6.13059e-06
6.13878e-06
6.14351e-06
6.14558e-06
6.14694e-06
6.15e-06
6.15489e-06
6.1606e-06
6.16635e-06
6.17202e-06
6.17787e-06
6.18411e-06
6.19068e-06
6.1974e-06
6.20429e-06
6.21132e-06
6.21842e-06
6.22555e-06
6.23277e-06
6.23998e-06
6.24722e-06
6.25447e-06
6.26162e-06
6.26875e-06
6.27585e-06
6.28286e-06
6.28973e-06
6.29643e-06
6.30304e-06
6.30951e-06
6.31581e-06
6.322e-06
6.32794e-06
6.33375e-06
6.33938e-06
6.34485e-06
6.35011e-06
6.35505e-06
6.35981e-06
6.36443e-06
6.36881e-06
6.37292e-06
6.37686e-06
6.38058e-06
6.38408e-06
6.3874e-06
6.39048e-06
6.39344e-06
6.39629e-06
6.39907e-06
6.40173e-06
6.40395e-06
6.40543e-06
6.40684e-06
6.40793e-06
6.40869e-06
6.40912e-06
6.40912e-06
6.40881e-06
2.82708e-06
3.27912e-06
5.32197e-06
6.22196e-06
5.67728e-06
5.275e-06
5.5968e-06
5.78795e-06
1.01317e-05
1.18941e-05
1.18352e-05
1.13468e-05
1.10201e-05
1.08463e-05
1.07789e-05
1.08027e-05
1.08759e-05
1.09317e-05
1.09452e-05
1.09305e-05
1.08926e-05
1.0853e-05
1.08328e-05
1.08311e-05
1.08418e-05
1.08546e-05
1.08621e-05
1.08659e-05
1.08689e-05
1.08748e-05
1.08834e-05
1.08932e-05
1.09032e-05
1.09131e-05
1.09233e-05
1.09343e-05
1.09458e-05
1.09575e-05
1.09695e-05
1.09818e-05
1.09941e-05
1.10066e-05
1.10192e-05
1.10318e-05
1.10445e-05
1.10572e-05
1.10697e-05
1.10822e-05
1.10945e-05
1.11068e-05
1.11188e-05
1.11306e-05
1.11422e-05
1.11535e-05
1.11645e-05
1.11753e-05
1.11858e-05
1.1196e-05
1.12058e-05
1.12153e-05
1.12245e-05
1.12332e-05
1.12416e-05
1.12496e-05
1.12573e-05
1.12645e-05
1.12714e-05
1.12779e-05
1.1284e-05
1.12899e-05
1.12953e-05
1.13004e-05
1.13054e-05
1.13103e-05
1.13149e-05
1.13188e-05
1.13214e-05
1.13238e-05
1.13256e-05
1.13269e-05
1.13276e-05
1.13276e-05
1.1327e-05
4.82622e-06
5.60303e-06
8.06435e-06
8.858e-06
8.21492e-06
7.73519e-06
8.07651e-06
9.4184e-06
1.53382e-05
1.72965e-05
1.71733e-05
1.6705e-05
1.6344e-05
1.61554e-05
1.60917e-05
1.61297e-05
1.62121e-05
1.62689e-05
1.62773e-05
1.62527e-05
1.62052e-05
1.61599e-05
1.61386e-05
1.61396e-05
1.61543e-05
1.61705e-05
1.61802e-05
1.61859e-05
1.61916e-05
1.62009e-05
1.62137e-05
1.62279e-05
1.62423e-05
1.62568e-05
1.62719e-05
1.6288e-05
1.63047e-05
1.63219e-05
1.63394e-05
1.63572e-05
1.63753e-05
1.63936e-05
1.64121e-05
1.64305e-05
1.64491e-05
1.64676e-05
1.6486e-05
1.65043e-05
1.65224e-05
1.65404e-05
1.6558e-05
1.65753e-05
1.65923e-05
1.66089e-05
1.66252e-05
1.6641e-05
1.66564e-05
1.66713e-05
1.66858e-05
1.66997e-05
1.67132e-05
1.67261e-05
1.67384e-05
1.67502e-05
1.67614e-05
1.6772e-05
1.67822e-05
1.67917e-05
1.68007e-05
1.68093e-05
1.68172e-05
1.68247e-05
1.68321e-05
1.68392e-05
1.6846e-05
1.68517e-05
1.68554e-05
1.68589e-05
1.68615e-05
1.68633e-05
1.68642e-05
1.68642e-05
1.68632e-05
6.88742e-06
8.04118e-06
1.16716e-05
1.15891e-05
1.08616e-05
1.03818e-05
1.07623e-05
1.42027e-05
2.12342e-05
2.30589e-05
2.28893e-05
2.26067e-05
2.22927e-05
2.21359e-05
2.20991e-05
2.21495e-05
2.22214e-05
2.2261e-05
2.22556e-05
2.22197e-05
2.2169e-05
2.21277e-05
2.21116e-05
2.21179e-05
2.2136e-05
2.21535e-05
2.21648e-05
2.21729e-05
2.21822e-05
2.21958e-05
2.22131e-05
2.22319e-05
2.2251e-05
2.22704e-05
2.22907e-05
2.23122e-05
2.23346e-05
2.23575e-05
2.23808e-05
2.24047e-05
2.24289e-05
2.24534e-05
2.24781e-05
2.25029e-05
2.25277e-05
2.25525e-05
2.25772e-05
2.26018e-05
2.26261e-05
2.26501e-05
2.26738e-05
2.2697e-05
2.27199e-05
2.27422e-05
2.27641e-05
2.27855e-05
2.28062e-05
2.28263e-05
2.28457e-05
2.28645e-05
2.28826e-05
2.28999e-05
2.29165e-05
2.29324e-05
2.29475e-05
2.29618e-05
2.29754e-05
2.29883e-05
2.30004e-05
2.30118e-05
2.30225e-05
2.30327e-05
2.30425e-05
2.3052e-05
2.3061e-05
2.30687e-05
2.30737e-05
2.30782e-05
2.30816e-05
2.30838e-05
2.3085e-05
2.30848e-05
2.30833e-05
9.00022e-06
1.1111e-05
1.62204e-05
1.44813e-05
1.36084e-05
1.31995e-05
1.3916e-05
2.03538e-05
2.77337e-05
2.9198e-05
2.9036e-05
2.91177e-05
2.8943e-05
2.88698e-05
2.88814e-05
2.89373e-05
2.89744e-05
2.89764e-05
2.89484e-05
2.89015e-05
2.88568e-05
2.88308e-05
2.88271e-05
2.88415e-05
2.88617e-05
2.88784e-05
2.88904e-05
2.89015e-05
2.89157e-05
2.89345e-05
2.89566e-05
2.89799e-05
2.90038e-05
2.90284e-05
2.90543e-05
2.90815e-05
2.91098e-05
2.91387e-05
2.91683e-05
2.91985e-05
2.92291e-05
2.92601e-05
2.92914e-05
2.93228e-05
2.93543e-05
2.93858e-05
2.94172e-05
2.94484e-05
2.94793e-05
2.95099e-05
2.954e-05
2.95696e-05
2.95987e-05
2.96273e-05
2.96551e-05
2.96823e-05
2.97087e-05
2.97343e-05
2.97591e-05
2.97831e-05
2.98062e-05
2.98283e-05
2.98495e-05
2.98697e-05
2.9889e-05
2.99072e-05
2.99245e-05
2.99409e-05
2.99564e-05
2.99709e-05
2.99845e-05
2.99974e-05
3.00098e-05
3.00218e-05
3.00332e-05
3.0043e-05
3.00492e-05
3.00547e-05
3.00588e-05
3.00615e-05
3.00627e-05
3.00622e-05
3.006e-05
1.12452e-05
1.52488e-05
2.1808e-05
1.7936e-05
1.64885e-05
1.61887e-05
1.84663e-05
2.81465e-05
3.47113e-05
3.57657e-05
3.56967e-05
3.63282e-05
3.63908e-05
3.64519e-05
3.65275e-05
3.65752e-05
3.65507e-05
3.64948e-05
3.64365e-05
3.63819e-05
3.63547e-05
3.63564e-05
3.63727e-05
3.63973e-05
3.64179e-05
3.64313e-05
3.64433e-05
3.64581e-05
3.64786e-05
3.65035e-05
3.65307e-05
3.65586e-05
3.65872e-05
3.66173e-05
3.6649e-05
3.66823e-05
3.67166e-05
3.67518e-05
3.67877e-05
3.68245e-05
3.68619e-05
3.68997e-05
3.69378e-05
3.69762e-05
3.70146e-05
3.70531e-05
3.70915e-05
3.71297e-05
3.71676e-05
3.7205e-05
3.7242e-05
3.72783e-05
3.73141e-05
3.73491e-05
3.73833e-05
3.74166e-05
3.74491e-05
3.74806e-05
3.75111e-05
3.75405e-05
3.75689e-05
3.75961e-05
3.76221e-05
3.7647e-05
3.76707e-05
3.7693e-05
3.77143e-05
3.77344e-05
3.77533e-05
3.77711e-05
3.77877e-05
3.78035e-05
3.78185e-05
3.7833e-05
3.78468e-05
3.78587e-05
3.78661e-05
3.78724e-05
3.78771e-05
3.788e-05
3.78811e-05
3.78801e-05
3.78769e-05
1.38137e-05
2.05282e-05
2.84687e-05
2.2803e-05
1.9607e-05
1.94087e-05
2.45766e-05
3.73347e-05
4.20482e-05
4.28603e-05
4.29923e-05
4.43688e-05
4.47599e-05
4.49936e-05
4.51345e-05
4.51522e-05
4.50401e-05
4.49101e-05
4.48179e-05
4.47633e-05
4.4767e-05
4.48085e-05
4.48511e-05
4.4887e-05
4.49057e-05
4.49136e-05
4.4925e-05
4.49446e-05
4.49726e-05
4.50044e-05
4.50366e-05
4.50689e-05
4.51023e-05
4.51379e-05
4.51756e-05
4.52149e-05
4.52554e-05
4.52968e-05
4.53393e-05
4.53827e-05
4.54269e-05
4.54716e-05
4.55167e-05
4.55621e-05
4.56077e-05
4.56534e-05
4.56989e-05
4.57443e-05
4.57893e-05
4.58339e-05
4.58778e-05
4.59211e-05
4.59636e-05
4.60053e-05
4.60461e-05
4.60859e-05
4.61246e-05
4.61622e-05
4.61986e-05
4.62336e-05
4.62674e-05
4.62998e-05
4.63308e-05
4.63604e-05
4.63885e-05
4.64151e-05
4.64404e-05
4.64642e-05
4.64866e-05
4.65076e-05
4.65272e-05
4.65457e-05
4.65632e-05
4.65798e-05
4.65957e-05
4.66099e-05
4.6618e-05
4.6625e-05
4.66298e-05
4.66327e-05
4.66333e-05
4.66314e-05
4.66268e-05
1.72633e-05
2.69938e-05
3.62337e-05
2.90099e-05
2.33151e-05
2.30406e-05
3.25338e-05
4.69036e-05
4.96663e-05
5.06373e-05
5.11109e-05
5.34303e-05
5.41984e-05
5.46031e-05
5.47812e-05
5.47382e-05
5.4521e-05
5.43135e-05
5.4194e-05
5.4153e-05
5.42015e-05
5.42911e-05
5.4362e-05
5.44074e-05
5.44214e-05
5.44221e-05
5.44331e-05
5.44584e-05
5.44948e-05
5.45334e-05
5.45703e-05
5.46063e-05
5.46441e-05
5.46849e-05
5.47282e-05
5.47732e-05
5.48193e-05
5.48665e-05
5.49149e-05
5.49645e-05
5.5015e-05
5.50662e-05
5.51179e-05
5.51699e-05
5.52223e-05
5.52747e-05
5.53271e-05
5.53792e-05
5.5431e-05
5.54823e-05
5.55329e-05
5.55828e-05
5.56318e-05
5.56799e-05
5.57269e-05
5.57728e-05
5.58174e-05
5.58607e-05
5.59027e-05
5.5943e-05
5.59819e-05
5.60191e-05
5.60547e-05
5.60886e-05
5.61208e-05
5.61512e-05
5.618e-05
5.62072e-05
5.62326e-05
5.62563e-05
5.62784e-05
5.62989e-05
5.63181e-05
5.63361e-05
5.63534e-05
5.63693e-05
5.63776e-05
5.63844e-05
5.63887e-05
5.63907e-05
5.63902e-05
5.63868e-05
5.638e-05
2.17057e-05
3.4712e-05
4.5132e-05
3.65312e-05
2.85407e-05
2.82631e-05
4.27523e-05
5.65092e-05
5.75556e-05
5.93191e-05
6.03599e-05
6.37462e-05
6.48187e-05
6.53149e-05
6.5463e-05
6.53268e-05
6.50088e-05
6.47449e-05
6.46201e-05
6.46125e-05
6.47152e-05
6.48504e-05
6.49429e-05
6.49918e-05
6.49979e-05
6.49915e-05
6.50034e-05
6.50352e-05
6.50794e-05
6.51236e-05
6.51636e-05
6.52022e-05
6.52432e-05
6.52881e-05
6.53359e-05
6.5385e-05
6.54354e-05
6.5487e-05
6.55401e-05
6.55945e-05
6.565e-05
6.57061e-05
6.5763e-05
6.58203e-05
6.5878e-05
6.59359e-05
6.59936e-05
6.60512e-05
6.61084e-05
6.61652e-05
6.62211e-05
6.62763e-05
6.63306e-05
6.63838e-05
6.64358e-05
6.64866e-05
6.65358e-05
6.65837e-05
6.66299e-05
6.66743e-05
6.67171e-05
6.6758e-05
6.6797e-05
6.68341e-05
6.68692e-05
6.69023e-05
6.69335e-05
6.69627e-05
6.699e-05
6.70152e-05
6.70384e-05
6.70596e-05
6.7079e-05
6.70966e-05
6.71138e-05
6.71303e-05
6.71374e-05
6.71428e-05
6.71453e-05
6.71452e-05
6.71425e-05
6.71368e-05
6.71267e-05
2.72186e-05
4.37586e-05
5.51785e-05
4.54106e-05
3.52857e-05
3.52895e-05
5.57011e-05
6.60759e-05
6.57652e-05
6.9197e-05
7.11879e-05
7.54753e-05
7.66139e-05
7.70561e-05
7.70942e-05
7.68479e-05
7.64591e-05
7.61816e-05
7.60844e-05
7.61285e-05
7.62841e-05
7.64495e-05
7.65488e-05
7.65923e-05
7.65884e-05
7.65776e-05
7.65925e-05
7.66308e-05
7.66808e-05
7.6728e-05
7.67692e-05
7.68089e-05
7.68519e-05
7.68993e-05
7.69496e-05
7.70012e-05
7.7054e-05
7.71082e-05
7.71641e-05
7.72215e-05
7.72799e-05
7.73392e-05
7.73994e-05
7.746e-05
7.75211e-05
7.75825e-05
7.76438e-05
7.77049e-05
7.77657e-05
7.7826e-05
7.78855e-05
7.79442e-05
7.80019e-05
7.80584e-05
7.81137e-05
7.81675e-05
7.82198e-05
7.82704e-05
7.83192e-05
7.83661e-05
7.84111e-05
7.8454e-05
7.84948e-05
7.85334e-05
7.85697e-05
7.86038e-05
7.86357e-05
7.86654e-05
7.86928e-05
7.87179e-05
7.87404e-05
7.87604e-05
7.87779e-05
7.87927e-05
7.88076e-05
7.88231e-05
7.88274e-05
7.88296e-05
7.88286e-05
7.88249e-05
7.88184e-05
7.8809e-05
7.87942e-05
3.38929e-05
5.42235e-05
6.63765e-05
5.57425e-05
4.3616e-05
4.43173e-05
6.97106e-05
7.56263e-05
7.48455e-05
8.05991e-05
8.3985e-05
8.85858e-05
8.94975e-05
8.97459e-05
8.96187e-05
8.92679e-05
8.88522e-05
8.86091e-05
8.85705e-05
8.86755e-05
8.88724e-05
8.90462e-05
8.91353e-05
8.91654e-05
8.91517e-05
8.91403e-05
8.91605e-05
8.92046e-05
8.92578e-05
8.93053e-05
8.93459e-05
8.93855e-05
8.94293e-05
8.94778e-05
8.95291e-05
8.95814e-05
8.96351e-05
8.96902e-05
8.97473e-05
8.98059e-05
8.98656e-05
8.99264e-05
8.9988e-05
9.00503e-05
9.01131e-05
9.01762e-05
9.02393e-05
9.03023e-05
9.03649e-05
9.0427e-05
9.04884e-05
9.05488e-05
9.06082e-05
9.06664e-05
9.07232e-05
9.07785e-05
9.0832e-05
9.08837e-05
9.09334e-05
9.0981e-05
9.10265e-05
9.10697e-05
9.11106e-05
9.1149e-05
9.11848e-05
9.12182e-05
9.12491e-05
9.12775e-05
9.13032e-05
9.13261e-05
9.13459e-05
9.13625e-05
9.13756e-05
9.13853e-05
9.13953e-05
9.14075e-05
9.14072e-05
9.1404e-05
9.13976e-05
9.13884e-05
9.13766e-05
9.13618e-05
9.13407e-05
4.18491e-05
6.61992e-05
7.8713e-05
6.76584e-05
5.37198e-05
5.57931e-05
8.29729e-05
8.53432e-05
8.52879e-05
9.37943e-05
9.87014e-05
0.000102939
0.000103412
0.000103376
0.000103063
0.000102632
0.000102236
0.000102068
0.000102108
0.000102273
0.000102493
0.000102654
0.000102718
0.00010273
0.000102708
0.0001027
0.000102727
0.000102776
0.00010283
0.000102875
0.000102914
0.000102953
0.000102996
0.000103045
0.000103096
0.000103147
0.0001032
0.000103255
0.000103312
0.00010337
0.00010343
0.000103491
0.000103553
0.000103615
0.000103678
0.000103741
0.000103805
0.000103868
0.000103931
0.000103994
0.000104055
0.000104116
0.000104175
0.000104234
0.00010429
0.000104345
0.000104399
0.00010445
0.000104499
0.000104545
0.00010459
0.000104631
0.000104671
0.000104707
0.000104741
0.000104771
0.000104799
0.000104824
0.000104846
0.000104865
0.00010488
0.000104891
0.000104897
0.000104898
0.0001049
0.000104906
0.000104899
0.000104888
0.000104874
0.000104857
0.000104838
0.000104816
0.000104786
5.12151e-05
7.97815e-05
9.21547e-05
8.13178e-05
6.58154e-05
7.04173e-05
9.53913e-05
9.55503e-05
9.76054e-05
0.00010887
0.00011499
0.000118425
0.000118364
0.000118003
0.000117513
0.000117037
0.000116702
0.000116639
0.000116766
0.000116981
0.000117205
0.000117333
0.000117363
0.000117354
0.000117327
0.000117326
0.00011736
0.000117412
0.000117464
0.000117505
0.000117541
0.000117578
0.000117621
0.000117668
0.000117717
0.000117767
0.000117819
0.000117872
0.000117928
0.000117985
0.000118043
0.000118102
0.000118163
0.000118224
0.000118286
0.000118348
0.00011841
0.000118472
0.000118534
0.000118595
0.000118656
0.000118715
0.000118773
0.00011883
0.000118885
0.000118938
0.000118989
0.000119038
0.000119084
0.000119128
0.000119169
0.000119208
0.000119243
0.000119276
0.000119305
0.000119331
0.000119354
0.000119373
0.000119389
0.000119401
0.000119408
0.00011941
0.000119406
0.000119396
0.000119386
0.000119383
0.000119366
0.000119345
0.00011932
0.000119293
0.000119263
0.000119231
0.000119191
6.21752e-05
9.5062e-05
0.000106641
9.69212e-05
8.02436e-05
8.89568e-05
0.000107114
0.000106631
0.000112162
0.000125722
0.000132547
0.000135002
0.000134403
0.00013372
0.000133082
0.0001326
0.000132361
0.000132417
0.000132628
0.000132877
0.000133084
0.000133165
0.000133155
0.000133126
0.000133097
0.000133105
0.000133147
0.0001332
0.000133247
0.000133283
0.000133315
0.00013335
0.000133391
0.000133436
0.000133483
0.00013353
0.000133578
0.000133629
0.000133682
0.000133736
0.000133792
0.000133849
0.000133906
0.000133965
0.000134024
0.000134084
0.000134143
0.000134203
0.000134262
0.00013432
0.000134377
0.000134434
0.000134489
0.000134542
0.000134593
0.000134643
0.00013469
0.000134734
0.000134776
0.000134815
0.000134851
0.000134884
0.000134913
0.000134939
0.000134961
0.00013498
0.000134995
0.000135006
0.000135013
0.000135016
0.000135012
0.000135001
0.000134983
0.000134957
0.000134932
0.000134914
0.000134885
0.00013485
0.000134811
0.00013477
0.000134727
0.000134682
0.000134628
7.49985e-05
0.000112122
0.000122064
0.000114715
9.75627e-05
0.000107241
0.000118558
0.00011893
0.000128971
0.000144156
0.000151219
0.000152697
0.000151607
0.000150632
0.000149889
0.000149437
0.000149315
0.000149492
0.000149775
0.000150039
0.00015021
0.000150236
0.000150183
0.000150136
0.000150108
0.000150127
0.000150176
0.000150227
0.000150269
0.000150298
0.000150326
0.000150358
0.000150397
0.000150439
0.000150481
0.000150524
0.000150569
0.000150616
0.000150665
0.000150715
0.000150767
0.00015082
0.000150873
0.000150928
0.000150983
0.000151038
0.000151093
0.000151148
0.000151202
0.000151256
0.000151308
0.00015136
0.000151409
0.000151457
0.000151503
0.000151546
0.000151587
0.000151625
0.000151659
0.000151691
0.000151719
0.000151743
0.000151764
0.000151781
0.000151793
0.000151802
0.000151806
0.000151806
0.0001518
0.000151789
0.000151771
0.000151744
0.000151706
0.00015166
0.000151613
0.000151576
0.00015153
0.000151477
0.00015142
0.000151361
0.0001513
0.000151238
0.000151167
9.00351e-05
0.00013102
0.000138253
0.000135041
0.000118602
0.000124414
0.000130145
0.000132671
0.00014777
0.000163999
0.00017097
0.000171575
0.000170064
0.000168845
0.000168041
0.000167648
0.000167651
0.00016794
0.000168276
0.000168535
0.000168658
0.000168622
0.000168529
0.000168468
0.000168444
0.000168474
0.000168528
0.000168576
0.00016861
0.000168632
0.000168654
0.000168684
0.00016872
0.000168757
0.000168795
0.000168833
0.000168873
0.000168915
0.000168959
0.000169004
0.00016905
0.000169097
0.000169146
0.000169194
0.000169243
0.000169292
0.000169341
0.00016939
0.000169438
0.000169484
0.00016953
0.000169574
0.000169616
0.000169656
0.000169693
0.000169728
0.000169759
0.000169788
0.000169812
0.000169833
0.000169851
0.000169864
0.000169873
0.000169877
0.000169876
0.000169871
0.00016986
0.000169844
0.000169822
0.000169793
0.000169755
0.000169707
0.000169645
0.000169572
0.000169498
0.000169432
0.000169365
0.000169289
0.00016921
0.000169128
0.000169045
0.000168962
0.000168869
0.000107735
0.000151621
0.000154984
0.000158376
0.00014207
0.000140172
0.000142285
0.000148223
0.000168226
0.000185135
0.000191829
0.000191706
0.000189858
0.000188451
0.000187625
0.000187311
0.000187435
0.000187818
0.000188185
0.000188422
0.000188488
0.000188392
0.000188262
0.00018819
0.000188173
0.000188213
0.00018827
0.000188314
0.000188338
0.000188353
0.000188371
0.000188397
0.000188429
0.000188462
0.000188494
0.000188526
0.00018856
0.000188597
0.000188634
0.000188673
0.000188712
0.000188752
0.000188793
0.000188834
0.000188876
0.000188917
0.000188958
0.000188998
0.000189036
0.000189074
0.00018911
0.000189144
0.000189176
0.000189205
0.000189231
0.000189254
0.000189274
0.00018929
0.000189301
0.000189309
0.000189312
0.00018931
0.000189302
0.00018929
0.000189272
0.000189249
0.000189219
0.000189183
0.00018914
0.000189088
0.000189025
0.000188949
0.000188857
0.000188751
0.000188641
0.000188536
0.000188443
0.000188338
0.00018823
0.00018812
0.000188009
0.000187898
0.000187779
0.000126839
0.000173472
0.000171956
0.000185146
0.000164158
0.000154809
0.000155406
0.000165885
0.000190053
0.0002075
0.000213853
0.000213157
0.000211062
0.000209524
0.000208706
0.000208477
0.000208709
0.000209163
0.000209541
0.000209742
0.000209748
0.000209595
0.000209435
0.000209356
0.000209347
0.000209397
0.000209455
0.000209493
0.000209508
0.000209515
0.000209529
0.000209551
0.000209579
0.000209606
0.000209632
0.000209658
0.000209686
0.000209715
0.000209745
0.000209776
0.000209808
0.000209839
0.000209872
0.000209904
0.000209935
0.000209967
0.000209997
0.000210026
0.000210054
0.00021008
0.000210104
0.000210125
0.000210144
0.000210159
0.000210171
0.000210179
0.000210183
0.000210183
0.000210177
0.000210167
0.000210152
0.00021013
0.000210103
0.000210069
0.00021003
0.000209983
0.000209929
0.000209868
0.000209797
0.000209716
0.000209622
0.000209511
0.000209383
0.000209236
0.000209081
0.000208923
0.000208798
0.000208658
0.000208514
0.000208368
0.000208223
0.000208077
0.000207925
0.000143675
0.000192538
0.000188866
0.000213181
0.00018421
0.000168853
0.000169897
0.000185771
0.000213201
0.000231068
0.0002371
0.000235985
0.000233706
0.000232111
0.000231319
0.000231173
0.000231491
0.000231992
0.000232362
0.000232521
0.000232468
0.000232266
0.000232083
0.000232
0.000232
0.000232058
0.000232117
0.000232147
0.000232154
0.000232154
0.000232163
0.000232183
0.000232206
0.000232227
0.000232246
0.000232266
0.000232286
0.000232308
0.00023233
0.000232353
0.000232375
0.000232397
0.000232419
0.00023244
0.00023246
0.000232479
0.000232497
0.000232513
0.000232527
0.000232539
0.000232548
0.000232554
0.000232556
0.000232554
0.000232549
0.000232538
0.000232523
0.000232502
0.000232475
0.000232443
0.000232404
0.000232359
0.000232306
0.000232246
0.000232179
0.000232104
0.00023202
0.000231926
0.000231822
0.000231704
0.000231571
0.000231419
0.000231245
0.00023105
0.00023084
0.000230614
0.000230449
0.000230265
0.000230079
0.000229889
0.000229699
0.00022951
0.000229317
0.000157809
0.000208031
0.000205406
0.000238432
0.000202076
0.000182862
0.000186156
0.000207834
0.000237721
0.000255824
0.000261605
0.000260232
0.000257822
0.000256227
0.000255469
0.000255394
0.000255775
0.0002563
0.00025665
0.000256763
0.000256658
0.000256417
0.000256218
0.000256135
0.000256144
0.000256209
0.000256267
0.000256291
0.000256289
0.000256284
0.00025629
0.000256306
0.000256325
0.000256341
0.000256354
0.000256366
0.00025638
0.000256393
0.000256407
0.000256419
0.000256431
0.000256442
0.000256453
0.000256461
0.000256469
0.000256474
0.000256477
0.000256477
0.000256475
0.00025647
0.000256461
0.000256447
0.00025643
0.000256407
0.00025638
0.000256347
0.000256307
0.000256262
0.000256209
0.00025615
0.000256083
0.000256007
0.000255924
0.000255832
0.000255731
0.00025562
0.000255499
0.000255366
0.00025522
0.000255058
0.000254878
0.000254675
0.000254446
0.000254193
0.000253919
0.000168754
0.000219957
0.000221331
0.000261044
0.000217967
0.000197403
0.000204437
0.00023183
0.000263603
0.000281758
0.000287353
0.00028588
0.000283401
0.000281847
0.000281126
0.000281107
0.000281529
0.00028206
0.000282383
0.000282454
0.000282305
0.000282035
0.000281828
0.000281748
0.000281766
0.000281837
0.000281893
0.000281912
0.000281905
0.000281896
0.0002819
0.000281914
0.000281929
0.000281939
0.000281946
0.000281952
0.000281958
0.000281964
0.000281968
0.000281971
0.000281972
0.000281971
0.000281968
0.000281963
0.000281955
0.000281944
0.00028193
0.000281913
0.000281891
0.000281866
0.000281835
0.0002818
0.000281759
0.000281711
0.000281658
0.000281597
0.000281529
0.000281454
0.00028137
0.000281278
0.000281176
0.000281065
0.000280944
0.000280813
0.000280671
0.000280517
0.000280351
0.00028017
0.000279973
0.000279758
0.00027952
0.000279257
0.000278964
0.000278643
0.000278296
0.000175885
0.000228388
0.000236853
0.000281542
0.000232567
0.000212919
0.000224772
0.00025769
0.000290785
0.000308858
0.00031434
0.000312885
0.000310411
0.00030891
0.000308229
0.00030825
0.000308694
0.000309219
0.000309513
0.000309548
0.000309367
0.000309079
0.000308871
0.000308797
0.000308824
0.000308902
0.000308958
0.000308973
0.000308963
0.000308952
0.000308955
0.000308968
0.00030898
0.000308987
0.000308988
0.000308988
0.000308988
0.000308985
0.00030898
0.000308972
0.000308962
0.000308948
0.000308931
0.00030891
0.000308886
0.000308857
0.000308824
0.000308786
0.000308743
0.000308694
0.000308638
0.000308577
0.000308508
0.000308431
0.000308347
0.000308254
0.000308152
0.000308041
0.00030792
0.000307788
0.000307646
0.000307492
0.000307326
0.000307148
0.000306956
0.000306751
0.000306529
0.000306291
0.000306034
0.000305754
0.000305448
0.000305113
0.000304745
0.000304345
0.000303917
0.000180257
0.000233403
0.000252623
0.00029986
0.000246736
0.000229797
0.000247424
0.000285321
0.000319171
0.000337072
0.000342496
0.000341155
0.000338771
0.000337314
0.000336679
0.000336728
0.000337181
0.000337694
0.000337961
0.000337969
0.000337769
0.000337474
0.000337271
0.000337206
0.000337244
0.000337327
0.000337385
0.0003374
0.00033739
0.00033738
0.000337385
0.000337398
0.000337409
0.000337413
0.00033741
0.000337405
0.000337398
0.000337389
0.000337374
0.000337356
0.000337333
0.000337306
0.000337274
0.000337236
0.000337194
0.000337145
0.00033709
0.000337029
0.000336961
0.000336885
0.000336801
0.000336709
0.000336608
0.000336497
0.000336377
0.000336246
0.000336105
0.000335951
0.000335786
0.000335608
0.000335417
0.000335212
0.000334993
0.000334758
0.000334508
0.00033424
0.000333954
0.000333647
0.000333317
0.000332961
0.000332574
0.000332154
0.000331698
0.000331208
0.00033069
0.000182609
0.000235776
0.000269337
0.000315883
0.000260959
0.000248389
0.000272601
0.00031455
0.000348631
0.000366298
0.000371694
0.000370542
0.000368318
0.000366925
0.000366342
0.000366412
0.000366865
0.000367362
0.000367607
0.000367599
0.000367392
0.000367103
0.000366912
0.00036686
0.000366909
0.000367001
0.000367063
0.000367081
0.000367074
0.000367068
0.000367077
0.000367092
0.000367104
0.000367107
0.000367102
0.000367094
0.000367082
0.000367065
0.000367042
0.000367013
0.000366978
0.000366936
0.000366888
0.000366833
0.00036677
0.000366699
0.00036662
0.000366533
0.000366436
0.00036633
0.000366214
0.000366087
0.000365949
0.000365799
0.000365637
0.000365462
0.000365273
0.000365071
0.000364854
0.000364621
0.000364373
0.000364107
0.000363825
0.000363524
0.000363203
0.000362862
0.000362498
0.00036211
0.000361694
0.000361247
0.000360766
0.000360247
0.000359689
0.000359096
0.000358479
0.000183976
0.000236686
0.000287949
0.000330323
0.000275707
0.00026911
0.000300228
0.00034513
0.000379007
0.000396375
0.000401766
0.000400864
0.000398849
0.000397562
0.000397038
0.000397126
0.000397576
0.000398057
0.000398287
0.000398275
0.000398074
0.000397801
0.00039763
0.000397594
0.000397657
0.000397759
0.00039783
0.000397855
0.000397855
0.000397857
0.000397872
0.000397892
0.000397907
0.000397911
0.000397906
0.000397895
0.000397879
0.000397856
0.000397825
0.000397786
0.000397738
0.000397682
0.000397616
0.000397542
0.000397457
0.000397362
0.000397256
0.000397139
0.000397011
0.00039687
0.000396717
0.00039655
0.000396369
0.000396173
0.000395963
0.000395736
0.000395493
0.000395233
0.000394956
0.000394659
0.000394343
0.000394007
0.00039365
0.00039327
0.000392867
0.000392439
0.000391983
0.000391498
0.000390981
0.000390428
0.000389836
0.000389203
0.000388528
0.000387817
0.000387087
0.000185618
0.0002373
0.000304619
0.000343603
0.000291675
0.000292102
0.000329883
0.000376783
0.000410092
0.000427096
0.000432496
0.000431892
0.000430134
0.000428989
0.000428535
0.000428643
0.000429089
0.000429557
0.000429781
0.000429774
0.000429593
0.000429347
0.000429203
0.000429188
0.000429268
0.000429385
0.000429467
0.000429504
0.000429516
0.000429529
0.000429553
0.000429581
0.000429601
0.000429608
0.000429605
0.000429593
0.000429574
0.000429546
0.000429507
0.000429458
0.000429397
0.000429325
0.000429241
0.000429145
0.000429037
0.000428915
0.000428779
0.000428629
0.000428465
0.000428285
0.000428089
0.000427876
0.000427646
0.000427398
0.000427131
0.000426845
0.000426539
0.000426212
0.000425863
0.000425492
0.000425097
0.000424677
0.000424232
0.00042376
0.00042326
0.000422729
0.000422166
0.000421567
0.000420931
0.000420254
0.000419533
0.000418767
0.000417956
0.00041711
0.000416249
0.000188739
0.00023877
0.000320253
0.000355855
0.000308981
0.000317186
0.000361219
0.000409188
0.000441631
0.000458201
0.000463613
0.000463343
0.000461883
0.000460908
0.000460538
0.000460671
0.000461116
0.000461574
0.0004618
0.000461811
0.00046166
0.000461453
0.000461344
0.000461356
0.000461457
0.00046159
0.000461689
0.000461742
0.00046177
0.000461798
0.000461835
0.000461873
0.000461901
0.000461914
0.000461913
0.000461902
0.000461882
0.000461849
0.000461802
0.000461742
0.000461668
0.000461579
0.000461475
0.000461356
0.000461221
0.000461068
0.000460899
0.000460712
0.000460506
0.000460281
0.000460036
0.000459771
0.000459484
0.000459175
0.000458843
0.000458488
0.000458108
0.000457703
0.000457271
0.000456812
0.000456325
0.000455807
0.000455259
0.000454678
0.000454063
0.000453412
0.000452722
0.000451991
0.000451215
0.000450393
0.000449522
0.000448602
0.000447636
0.000446633
0.000445617
0.000194433
0.000242625
0.000336141
0.000367864
0.000328033
0.000344447
0.000393858
0.000441974
0.000473317
0.000489371
0.000494791
0.000494855
0.000493725
0.000492949
0.000492679
0.000492844
0.000493289
0.000493743
0.000493979
0.000494018
0.000493909
0.000493752
0.000493686
0.000493729
0.000493855
0.00049401
0.000494129
0.000494203
0.000494251
0.000494297
0.00049435
0.0004944
0.000494438
0.000494458
0.000494463
0.000494454
0.000494431
0.000494394
0.00049434
0.000494268
0.000494179
0.000494071
0.000493945
0.000493799
0.000493633
0.000493447
0.000493239
0.000493009
0.000492755
0.000492479
0.000492178
0.000491851
0.000491498
0.000491119
0.000490712
0.000490275
0.000489809
0.000489313
0.000488784
0.000488222
0.000487626
0.000486994
0.000486324
0.000485616
0.000484866
0.000484073
0.000483235
0.000482347
0.00048141
0.000480419
0.000479373
0.000478274
0.000477126
0.000475938
0.000474735
0.0002035
0.000248813
0.000354683
0.000380722
0.000349035
0.000373831
0.000427307
0.000474729
0.000504769
0.00052023
0.00052568
0.00052598
0.000525204
0.000524648
0.000524494
0.000524699
0.00052515
0.000525604
0.000525858
0.000525935
0.00052588
0.000525781
0.000525765
0.000525845
0.000526001
0.00052618
0.000526324
0.000526423
0.000526496
0.000526563
0.000526633
0.000526698
0.000526747
0.000526776
0.000526786
0.000526779
0.000526755
0.000526712
0.000526648
0.000526563
0.000526456
0.000526327
0.000526175
0.000525999
0.000525797
0.000525571
0.000525318
0.000525038
0.000524729
0.000524392
0.000524025
0.000523628
0.000523198
0.000522736
0.00052224
0.000521709
0.000521142
0.000520538
0.000519896
0.000519213
0.000518489
0.000517722
0.00051691
0.000516051
0.000515143
0.000514184
0.000513171
0.000512102
0.000510974
0.000509786
0.000508537
0.000507229
0.000505866
0.000504458
0.000503029
0.000216828
0.000257702
0.000375164
0.000395051
0.000371986
0.000404965
0.000460972
0.000506966
0.000535479
0.000550218
0.000555672
0.000556172
0.000555758
0.00055544
0.000555415
0.000555669
0.00055613
0.00055659
0.000556871
0.000556991
0.000557001
0.000556971
0.000557007
0.00055713
0.000557319
0.000557526
0.000557697
0.000557825
0.000557924
0.000558016
0.000558105
0.000558186
0.000558246
0.000558283
0.000558298
0.000558292
0.000558264
0.000558214
0.000558138
0.000558036