/*--------------------------------*- C++ -*----------------------------------*\
| =========                 |                                                 |
| \\      /  F ield         | OpenFOAM: The Open Source CFD Toolbox           |
|  \\    /   O peration     | Version:  2412                                  |
|   \\  /    A nd           | Website:  www.openfoam.com                      |
|    \\/     M anipulation  |                                                 |
\*---------------------------------------------------------------------------*/
FoamFile
{
    version     2.0;
    format      ascii;
    arch        "LSB;label=32;scalar=64";
    class       volVectorField;
    location    "400";
    object      U;
}
// * * * * * * * * * * * * * * * * * * * * * * * * * * * * * * * * * * * * * //

dimensions      [0 1 -1 0 0 0 0];

internalField   nonuniform List<vector> 
8702
(
(0.278176 -0.0761612 3.88103e-19)
(0.278386 -0.0766097 0)
(0.278581 -0.0770464 -3.67503e-19)
(0.278766 -0.0774707 -3.57426e-19)
(0.27894 -0.0778843 0)
(0.279113 -0.0782879 -3.37668e-19)
(0.279285 -0.0786849 3.12754e-25)
(0.279452 -0.0790732 -3.0353e-25)
(0.279616 -0.0794531 -3.08645e-19)
(0.279782 -0.0798274 0)
(0.279947 -0.0801947 2.89469e-19)
(0.280106 -0.0805546 -2.79881e-19)
(0.280253 -0.0809047 1.25388e-25)
(0.28039 -0.0812463 -6.98242e-27)
(0.280512 -0.0815784 1.25481e-19)
(0.280624 -0.0819017 0)
(0.280721 -0.082216 -1.06823e-25)
(0.280806 -0.0825203 1.10722e-19)
(0.280887 -0.0828191 9.73771e-27)
(0.280949 -0.0831085 9.54841e-27)
(0.281 -0.083388 0)
(0.281044 -0.0836608 -9.01772e-20)
(0.281075 -0.0839253 0)
(0.281096 -0.0841809 7.93721e-20)
(0.281111 -0.084431 0)
(0.281114 -0.0846721 0)
(0.281103 -0.0849049 0)
(0.281086 -0.0851297 -5.62854e-20)
(0.281056 -0.0853464 -9.56117e-26)
(0.281011 -0.0855535 2.19055e-20)
(0.280956 -0.0857521 1.86469e-20)
(0.280889 -0.0859431 2.54466e-26)
(0.280803 -0.0861229 1.18083e-20)
(0.280706 -0.0862937 1.19148e-26)
(0.280594 -0.086456 -1.22978e-26)
(0.28046 -0.0866057 -1.21948e-21)
(0.280317 -0.0867467 0)
(0.280157 -0.0868788 7.59772e-21)
(0.279979 -0.086999 0)
(0.279788 -0.0871104 -3.53527e-26)
(0.279576 -0.0872101 3.66416e-26)
(0.279346 -0.087299 -1.31056e-20)
(0.279092 -0.0873755 -1.57023e-20)
(0.278815 -0.0874398 1.84215e-20)
(0.278522 -0.0874932 0)
(0.278206 -0.0875349 2.42758e-20)
(0.277865 -0.0875632 2.74319e-20)
(0.277495 -0.0875779 -3.07631e-20)
(0.2771 -0.0875791 3.42857e-20)
(0.276676 -0.0875665 -1.90084e-20)
(0.276221 -0.0875389 -1.55872e-25)
(0.275744 -0.0874993 0)
(0.275237 -0.0874459 0)
(0.274702 -0.0873787 0)
(0.274139 -0.0872981 2.36139e-25)
(0.273552 -0.0872052 3.30724e-20)
(0.272936 -0.087099 0)
(0.272293 -0.0869797 0)
(0.271631 -0.0868499 -3.48749e-27)
(0.270957 -0.0867121 2.31867e-20)
(0.270265 -0.0865655 2.51887e-20)
(0.269554 -0.0864088 -2.73491e-20)
(0.26884 -0.0862472 -5.93649e-20)
(0.268138 -0.0860843 -4.90342e-25)
(0.26747 -0.0859274 1.74589e-20)
(0.266821 -0.0857766 5.69758e-25)
(0.266174 -0.0856286 2.04964e-20)
(0.265504 -0.0854745 0)
(0.264861 -0.085318 -4.20372e-27)
(0.264397 -0.0851987 0)
(0.264232 -0.0851584 -1.40258e-20)
(0.264349 -0.0852193 1.51287e-20)
(0.264396 -0.085307 3.25876e-20)
(0.264159 -0.0853489 -1.75361e-20)
(0.26346 -0.0852666 1.16266e-24)
(0.262843 -0.0851103 -2.02765e-20)
(0.263508 -0.0852161 -1.31656e-24)
(0.26579 -0.0857119 -1.70406e-26)
(0.270553 -0.0869189 -1.24083e-20)
(0.276659 -0.0888198 0)
(0.281088 -0.0906321 -1.38865e-20)
(0.282846 -0.0919879 0)
(0.865854 -0.237059 -3.13854e-25)
(0.86652 -0.238462 6.28239e-19)
(0.867139 -0.239822 0)
(0.867733 -0.241148 0)
(0.868299 -0.242441 0)
(0.868851 -0.243704 -5.616e-19)
(0.869395 -0.244941 -5.45398e-19)
(0.869934 -0.246155 2.58234e-25)
(0.870466 -0.247345 5.13315e-19)
(0.870999 -0.248514 -4.9735e-19)
(0.871526 -0.249662 2.35361e-25)
(0.872036 -0.250785 0)
(0.872514 -0.251882 0)
(0.872955 -0.25295 -2.00871e-25)
(0.87335 -0.253987 -2.08664e-19)
(0.873716 -0.254999 -1.97078e-25)
(0.874037 -0.255983 1.92373e-19)
(0.874317 -0.256936 1.69731e-25)
(0.87457 -0.257868 -1.75742e-19)
(0.874782 -0.258771 2.28804e-27)
(0.874962 -0.259649 0)
(0.87511 -0.260502 -1.37065e-25)
(0.875224 -0.26133 1.41018e-19)
(0.875305 -0.262132 -1.31942e-19)
(0.875365 -0.262913 0)
(0.875387 -0.263669 -1.13197e-19)
(0.875371 -0.264398 -1.97363e-25)
(0.875331 -0.265103 9.34912e-26)
(0.875249 -0.265781 0)
(0.875123 -0.26643 -3.63903e-20)
(0.874962 -0.267053 -5.29408e-26)
(0.874761 -0.267649 2.53772e-20)
(0.874508 -0.268213 0)
(0.874208 -0.268747 0)
(0.873869 -0.269254 -7.86529e-27)
(0.873473 -0.269727 1.66401e-26)
(0.873032 -0.270169 0)
(0.872544 -0.270581 -2.53564e-20)
(0.872 -0.27096 1.99098e-20)
(0.87141 -0.271308 0)
(0.870758 -0.271621 -1.76884e-20)
(0.870044 -0.271899 8.97557e-26)
(0.86926 -0.272139 -9.31601e-26)
(0.868408 -0.272342 -3.06569e-20)
(0.867498 -0.27251 0)
(0.866512 -0.272639 0)
(0.86545 -0.272727 -4.56412e-20)
(0.864304 -0.272774 -1.88452e-25)
(0.863081 -0.27278 -5.70394e-20)
(0.861777 -0.272746 6.3245e-20)
(0.860385 -0.272667 0)
(0.858908 -0.272548 -3.84181e-20)
(0.857344 -0.272385 0)
(0.8557 -0.272183 3.59866e-25)
(0.853973 -0.27194 1.58867e-26)
(0.852167 -0.271658 -5.5001e-20)
(0.850276 -0.271336 4.65906e-25)
(0.84832 -0.270978 -3.2613e-20)
(0.846307 -0.27059 3.54693e-20)
(0.844252 -0.270174 1.43246e-26)
(0.84215 -0.269734 0)
(0.839998 -0.269267 4.54598e-20)
(0.837835 -0.268783 9.86674e-20)
(0.835716 -0.268297 5.35145e-20)
(0.833697 -0.267828 -2.90111e-20)
(0.831751 -0.267382 0)
(0.829816 -0.266947 1.05322e-24)
(0.827809 -0.266493 -2.25066e-24)
(0.8259 -0.266035 3.98881e-20)
(0.824522 -0.265688 0)
(0.824034 -0.265575 2.32894e-20)
(0.824396 -0.265765 0)
(0.824588 -0.266052 1.36864e-27)
(0.823968 -0.266216 2.91067e-20)
(0.821981 -0.266018 0)
(0.820183 -0.265582 -2.07156e-24)
(0.822118 -0.26589 4.40643e-24)
(0.828879 -0.267358 -1.93154e-20)
(0.843004 -0.270929 2.0582e-20)
(0.861273 -0.276612 0)
(0.874871 -0.282156 2.30259e-20)
(0.880625 -0.286413 -2.43062e-20)
(1.51887 -0.415848 0)
(1.52009 -0.418322 -7.11134e-19)
(1.52122 -0.42072 -3.23189e-25)
(1.52231 -0.42306 6.72904e-19)
(1.52335 -0.42534 6.54176e-19)
(1.52436 -0.427569 6.35698e-19)
(1.52535 -0.429748 -2.69658e-27)
(1.52634 -0.43189 -5.99152e-19)
(1.52733 -0.433993 5.8104e-19)
(1.5283 -0.436058 5.62967e-19)
(1.52927 -0.438083 -5.44912e-19)
(1.53021 -0.440067 0)
(1.53109 -0.442004 0)
(1.53191 -0.443891 0)
(1.53264 -0.445723 0)
(1.53332 -0.447508 -2.09897e-25)
(1.53392 -0.449245 -2.17743e-19)
(1.53445 -0.450931 2.08385e-19)
(1.53492 -0.452572 1.83069e-25)
(1.53533 -0.454168 1.89323e-19)
(1.53568 -0.45572 -1.64596e-25)
(1.53597 -0.457226 3.23626e-25)
(1.5362 -0.458688 -1.59607e-19)
(1.53638 -0.460108 2.84809e-25)
(1.53651 -0.461487 1.38844e-19)
(1.53658 -0.462824 1.28115e-19)
(1.53659 -0.464113 0)
(1.53655 -0.46536 1.05853e-19)
(1.53643 -0.466557 8.30372e-26)
(1.53625 -0.467707 -4.11834e-20)
(1.53599 -0.468809 -7.37522e-26)
(1.53565 -0.46986 -2.87186e-20)
(1.53524 -0.47086 2.21751e-20)
(1.53473 -0.471805 -1.54062e-20)
(1.53415 -0.472698 0)
(1.53349 -0.473537 1.09926e-21)
(1.53273 -0.474321 2.47356e-26)
(1.53189 -0.475047 1.43458e-20)
(1.53095 -0.475717 1.85427e-26)
(1.52993 -0.476332 0)
(1.52879 -0.476886 2.00135e-20)
(1.52755 -0.477376 -2.4683e-20)
(1.52618 -0.477801 1.05401e-25)
(1.5247 -0.47816 -1.48447e-25)
(1.52311 -0.478457 -1.50263e-26)
(1.52138 -0.478684 4.56964e-20)
(1.51952 -0.47884 5.16316e-20)
(1.51751 -0.478923 5.78969e-20)
(1.51537 -0.478936 -6.45213e-20)
(1.51309 -0.478877 -3.57687e-20)
(1.51066 -0.478746 3.0947e-25)
(1.50808 -0.478539 4.34515e-20)
(1.50535 -0.478259 3.55371e-25)
(1.50249 -0.47791 4.06985e-25)
(1.49948 -0.477492 -4.26163e-25)
(1.49634 -0.477004 -4.83986e-25)
(1.49305 -0.476447 6.77607e-20)
(1.48966 -0.475834 3.68757e-20)
(1.48618 -0.475167 4.0103e-20)
(1.48262 -0.474454 -4.35826e-20)
(1.47899 -0.473698 7.11006e-25)
(1.47528 -0.472901 0)
(1.47155 -0.472074 -5.57643e-20)
(1.46791 -0.471244 0)
(1.46444 -0.470446 3.27884e-20)
(1.46111 -0.469692 -3.55286e-20)
(1.45781 -0.468958 0)
(1.4544 -0.468196 -4.16506e-20)
(1.45117 -0.467435 -4.50612e-20)
(1.44883 -0.466856 -2.93876e-24)
(1.44799 -0.466668 3.24763e-24)
(1.44861 -0.466999 -3.42664e-24)
(1.44901 -0.467519 -3.05465e-20)
(1.44809 -0.467853 0)
(1.44488 -0.467592 3.53364e-20)
(1.44192 -0.466907 3.79858e-20)
(1.4451 -0.467419 -5.01582e-24)
(1.45641 -0.469877 5.2808e-24)
(1.48006 -0.475848 -2.3222e-20)
(1.51092 -0.485447 -2.4595e-20)
(1.53449 -0.495019 2.59752e-20)
(1.54506 -0.502549 2.74017e-20)
(2.23588 -0.612157 -8.26632e-19)
(2.23778 -0.615829 -7.82652e-25)
(2.23956 -0.619391 -7.82733e-19)
(2.24126 -0.622861 -7.61258e-19)
(2.24288 -0.626246 -7.70623e-25)
(2.24446 -0.629553 0)
(2.24601 -0.632788 6.98409e-19)
(2.24757 -0.635968 6.7781e-19)
(2.24912 -0.639094 -2.7967e-26)
(2.25066 -0.642163 0)
(2.25218 -0.645174 6.1644e-19)
(2.25367 -0.648124 0)
(2.25506 -0.651004 0)
(2.25635 -0.653808 0)
(2.25752 -0.656533 0)
(2.25858 -0.659184 0)
(2.25955 -0.661764 0)
(2.2604 -0.664269 -4.71439e-19)
(2.26117 -0.666707 -2.25008e-19)
(2.26184 -0.669081 0)
(2.26242 -0.671386 2.03132e-19)
(2.26291 -0.673624 1.91931e-19)
(2.26333 -0.675798 0)
(2.26367 -0.677911 3.06937e-25)
(2.26392 -0.679964 -3.14082e-19)
(2.26409 -0.68195 1.44903e-19)
(2.26417 -0.683872 -2.37256e-25)
(2.26416 -0.685727 1.1972e-19)
(2.26406 -0.68751 0)
(2.26385 -0.689226 4.6576e-20)
(2.26352 -0.690866 3.96367e-20)
(2.26309 -0.692432 0)
(2.26253 -0.693922 -2.50769e-20)
(2.26184 -0.69533 1.74218e-20)
(2.26103 -0.69666 -2.01292e-26)
(2.26009 -0.69791 -1.24295e-21)
(2.25903 -0.699078 -1.17875e-26)
(2.25782 -0.700161 0)
(2.25647 -0.701159 -2.54721e-20)
(2.25499 -0.702075 -1.50628e-25)
(2.25335 -0.702898 1.56107e-25)
(2.25154 -0.703628 2.79055e-20)
(2.24955 -0.704261 0)
(2.24738 -0.704799 3.92095e-20)
(2.24504 -0.705238 0)
(2.24251 -0.705577 -5.16536e-20)
(2.23978 -0.705811 3.45333e-26)
(2.23684 -0.705937 -6.544e-20)
(2.23369 -0.705958 7.29237e-20)
(2.23034 -0.705874 6.34951e-25)
(2.22677 -0.705682 3.65799e-26)
(2.22298 -0.705382 3.73559e-26)
(2.21898 -0.704974 -8.03127e-25)
(2.21477 -0.704465 9.19715e-25)
(2.21036 -0.703854 -9.6299e-25)
(2.20575 -0.703143 0)
(2.20095 -0.702335 -1.14476e-24)
(2.19599 -0.701442 -4.1653e-20)
(2.19091 -0.700474 -4.52967e-20)
(2.18571 -0.699438 0)
(2.18042 -0.698344 0)
(2.17504 -0.697193 0)
(2.16964 -0.696002 6.29638e-20)
(2.16434 -0.694805 2.11507e-24)
(2.15931 -0.693655 -4.4997e-24)
(2.15451 -0.692576 8.02071e-20)
(2.14976 -0.691531 -2.68635e-24)
(2.14488 -0.690457 4.70066e-20)
(2.14028 -0.689387 5.31685e-26)
(2.13693 -0.68857 -6.71051e-24)
(2.13569 -0.688304 3.58183e-24)
(2.13655 -0.688782 0)
(2.13722 -0.689569 3.44444e-20)
(2.1361 -0.690125 -4.5684e-24)
(2.13182 -0.689874 -3.98259e-20)
(2.12777 -0.688992 -5.27537e-24)
(2.13213 -0.689705 5.5565e-24)
(2.14792 -0.693145 -6.03291e-24)
(2.18098 -0.701476 5.22972e-20)
(2.22452 -0.715023 2.76922e-20)
(2.25872 -0.728871 -2.92234e-20)
(2.27506 -0.740061 0)
(3.01426 -0.825268 9.34084e-19)
(3.01703 -0.830276 -8.4967e-25)
(3.01961 -0.835131 8.84461e-19)
(3.02209 -0.839863 -8.37533e-25)
(3.02447 -0.844477 -1.67247e-18)
(3.02677 -0.848985 7.58016e-25)
(3.02903 -0.853395 -7.89144e-19)
(3.0313 -0.857732 0)
(3.03356 -0.861997 -9.75005e-26)
(3.03582 -0.866187 6.69422e-25)
(3.03805 -0.870299 -6.81031e-25)
(3.04022 -0.874328 -6.25381e-25)
(3.04226 -0.878259 3.35982e-26)
(3.04416 -0.882088 6.14776e-25)
(3.04589 -0.885809 0)
(3.04748 -0.88943 5.36487e-25)
(3.04891 -0.892948 -1.06145e-24)
(3.05019 -0.896367 5.32586e-19)
(3.05135 -0.899697 2.54187e-19)
(3.05238 -0.902933 0)
(3.05328 -0.90608 -7.26253e-26)
(3.05407 -0.909135 -2.16807e-19)
(3.05475 -0.912106 2.03924e-19)
(3.05532 -0.914993 -3.81048e-25)
(3.05578 -0.917798 1.77381e-19)
(3.05612 -0.920516 -1.63666e-19)
(3.05635 -0.923145 -3.02709e-25)
(3.05646 -0.925685 -1.35215e-19)
(3.05644 -0.928129 -2.47158e-25)
(3.05627 -0.930479 1.83023e-25)
(3.05595 -0.932727 -8.95259e-20)
(3.05546 -0.934874 3.66767e-20)
(3.0548 -0.936915 -2.83183e-20)
(3.05397 -0.938844 -5.70343e-26)
(3.05296 -0.940667 5.88614e-26)
(3.05178 -0.94238 1.4035e-21)
(3.05042 -0.943981 -8.26798e-21)
(3.04886 -0.945467 1.83145e-20)
(3.04711 -0.946837 2.87582e-20)
(3.04517 -0.94809 3.7219e-26)
(3.04301 -0.949219 -1.76229e-25)
(3.04061 -0.95022 0)
(3.03798 -0.951091 3.77328e-20)
(3.0351 -0.951828 4.42569e-20)
(3.03197 -0.952431 4.09131e-25)
(3.02857 -0.952896 5.82959e-20)
(3.0249 -0.953216 -3.89719e-26)
(3.02095 -0.953393 5.43812e-25)
(3.01672 -0.953428 -8.22859e-20)
(3.01221 -0.953318 -6.75875e-25)
(3.0074 -0.953062 0)
(3.0023 -0.952661 8.66584e-25)
(2.99691 -0.952114 -9.05976e-25)
(2.99124 -0.95143 0)
(2.98531 -0.950608 -7.26551e-20)
(2.9791 -0.949654 4.73946e-26)
(2.97265 -0.948571 -1.22322e-24)
(2.96599 -0.947376 9.39337e-20)
(2.95916 -0.94608 0)
(2.95219 -0.944695 0)
(2.94511 -0.943235 0)
(2.93792 -0.941705 0)
(2.93071 -0.940124 -7.09486e-20)
(2.92365 -0.938535 -2.31468e-24)
(2.91694 -0.937011 -4.16967e-20)
(2.91057 -0.935587 3.23934e-26)
(2.90429 -0.934219 -4.89037e-20)
(2.89788 -0.932825 -5.29231e-20)
(2.89184 -0.931441 5.72414e-20)
(2.88741 -0.93038 0)
(2.88572 -0.930026 0)
(2.88679 -0.930652 0)
(2.88777 -0.931736 -3.87442e-20)
(2.88659 -0.932574 4.16728e-20)
(2.88144 -0.932429 1.06272e-25)
(2.87647 -0.93143 -5.81736e-24)
(2.88191 -0.932337 0)
(2.90196 -0.936717 -2.75606e-20)
(2.94397 -0.947282 -5.87018e-20)
(2.99987 -0.964691 0)
(3.04517 -0.982985 -3.27683e-20)
(3.06827 -0.998222 0)
(3.8497 -1.05401 0)
(3.85358 -1.0605 0)
(3.8572 -1.06678 -9.97217e-19)
(3.86067 -1.07291 9.44283e-25)
(3.864 -1.07889 9.42794e-19)
(3.86722 -1.08473 0)
(3.87037 -1.09044 1.77931e-18)
(3.87354 -1.09606 0)
(3.87671 -1.10158 -1.67447e-18)
(3.87987 -1.10702 7.92547e-25)
(3.88299 -1.11235 0)
(3.88603 -1.11758 0)
(3.8889 -1.12268 -7.32925e-19)
(3.89159 -1.12764 -3.5337e-19)
(3.89405 -1.13247 0)
(3.89629 -1.13716 -6.04649e-25)
(3.89833 -1.14173 6.17144e-25)
(3.90018 -1.14616 -6.00214e-19)
(3.90186 -1.15047 -5.65426e-25)
(3.90337 -1.15467 -2.72619e-19)
(3.90471 -1.15875 -2.58577e-19)
(3.9059 -1.16271 -4.46714e-25)
(3.90696 -1.16657 -1.10669e-25)
(3.90787 -1.17031 4.29344e-25)
(3.90865 -1.17396 -1.99855e-19)
(3.90928 -1.17749 -1.84395e-19)
(3.90977 -1.18091 0)
(3.91011 -1.18422 1.52328e-19)
(3.91028 -1.18741 0)
(3.91025 -1.19047 0)
(3.91002 -1.1934 1.00843e-19)
(3.90957 -1.1962 -4.13116e-20)
(3.90889 -1.19886 3.1895e-20)
(3.90798 -1.20138 1.28469e-25)
(3.90684 -1.20376 -1.32577e-25)
(3.90547 -1.206 -2.90072e-26)
(3.90386 -1.20809 9.3104e-21)
(3.902 -1.21003 -2.06222e-20)
(3.89988 -1.21182 -6.47598e-20)
(3.8975 -1.21345 3.82911e-25)
(3.89483 -1.21493 -3.96797e-25)
(3.89186 -1.21624 0)
(3.88858 -1.21738 -4.2474e-20)
(3.88496 -1.21835 -4.98153e-20)
(3.88102 -1.21914 5.75177e-20)
(3.87673 -1.21975 1.12417e-25)
(3.87208 -1.22017 -7.41168e-20)
(3.86706 -1.22041 0)
(3.86169 -1.22047 9.25848e-20)
(3.85593 -1.22033 -1.52076e-24)
(3.8498 -1.22001 0)
(3.8433 -1.2195 0)
(3.83641 -1.21881 6.83465e-20)
(3.82917 -1.21793 -7.47951e-20)
(3.82159 -1.21688 8.17001e-20)
(3.81366 -1.21567 8.90895e-20)
(3.80542 -1.21428 -9.70344e-20)
(3.79692 -1.21276 -1.05584e-19)
(3.78821 -1.21111 -5.73923e-20)
(3.77933 -1.20935 -6.23451e-20)
(3.77031 -1.20749 0)
(3.76118 -1.20555 0)
(3.75202 -1.20355 7.96817e-20)
(3.74307 -1.20155 -8.63905e-20)
(3.73458 -1.19963 0)
(3.72652 -1.19784 -1.01389e-19)
(3.71863 -1.19613 5.48726e-20)
(3.71063 -1.19441 5.93635e-20)
(3.70311 -1.19271 0)
(3.69755 -1.1914 6.93626e-20)
(3.69531 -1.19095 -9.0346e-24)
(3.69652 -1.19171 4.03362e-20)
(3.69785 -1.19311 -4.3399e-20)
(3.69676 -1.1943 -4.66555e-20)
(3.69105 -1.19438 1.21191e-23)
(3.68538 -1.19337 0)
(3.6918 -1.19447 -5.76986e-20)
(3.71574 -1.19972 6.16215e-20)
(3.76589 -1.2123 3.27679e-20)
(3.83334 -1.23334 -1.69618e-23)
(3.88985 -1.25614 7.30792e-20)
(3.9207 -1.27578 -3.85053e-20)
(4.73577 -1.29661 -1.18336e-18)
(4.74103 -1.30472 0)
(4.74596 -1.31259 2.24062e-18)
(4.75067 -1.32026 -2.03471e-24)
(4.7552 -1.32773 1.05906e-18)
(4.75958 -1.33503 0)
(4.76386 -1.34217 -9.99262e-19)
(4.76815 -1.3492 -1.80688e-24)
(4.77245 -1.35612 1.88056e-18)
(4.77673 -1.36292 1.78008e-24)
(4.78096 -1.3696 0)
(4.78509 -1.37614 0)
(4.78901 -1.38253 1.64589e-18)
(4.79267 -1.38875 7.93501e-19)
(4.79603 -1.3948 -8.51078e-26)
(4.79912 -1.40067 -8.52116e-26)
(4.80194 -1.40637 3.52043e-19)
(4.80451 -1.41192 6.73748e-19)
(4.80686 -1.41732 -3.21529e-19)
(4.80899 -1.42257 6.11967e-19)
(4.81092 -1.42767 0)
(4.81265 -1.43264 0)
(4.81422 -1.43747 -2.57858e-19)
(4.81563 -1.44217 -8.76707e-25)
(4.81687 -1.44674 2.24252e-19)
(4.81793 -1.45118 3.27595e-25)
(4.81882 -1.45549 0)
(4.81954 -1.45966 -1.70888e-19)
(4.82003 -1.46367 -8.85304e-26)
(4.82028 -1.46753 -6.64644e-20)
(4.82027 -1.47123 -5.65539e-20)
(4.81998 -1.47476 4.63324e-20)
(4.8194 -1.47812 0)
(4.81852 -1.4813 0)
(4.81735 -1.4843 1.35225e-20)
(4.81589 -1.48713 0)
(4.81411 -1.48977 0)
(4.81202 -1.49223 0)
(4.80959 -1.49449 7.25928e-20)
(4.80683 -1.49656 -3.35252e-25)
(4.80371 -1.49843 0)
(4.80021 -1.5001 -3.97399e-20)
(4.79631 -1.50156 -6.78633e-25)
(4.79199 -1.50279 0)
(4.78724 -1.5038 -6.44385e-20)
(4.78205 -1.50458 -1.46992e-19)
(4.77641 -1.50514 8.30206e-20)
(4.77031 -1.50546 9.30639e-20)
(4.76374 -1.50554 1.03683e-19)
(4.75671 -1.5054 5.74596e-20)
(4.7492 -1.50501 -3.87177e-24)
(4.74121 -1.50439 2.07623e-24)
(4.73274 -1.50354 -7.65023e-20)
(4.72384 -1.50247 8.37082e-20)
(4.7145 -1.50118 -2.84837e-24)
(4.70474 -1.49968 3.16697e-24)
(4.69459 -1.49798 1.08545e-19)
(4.68412 -1.4961 5.9036e-20)
(4.6734 -1.49407 6.41772e-20)
(4.66248 -1.4919 -1.15628e-25)
(4.6514 -1.48963 7.56592e-20)
(4.64019 -1.48725 -8.20799e-20)
(4.62898 -1.48481 -1.78027e-19)
(4.61801 -1.48236 9.64694e-20)
(4.6076 -1.48001 1.27631e-23)
(4.59775 -1.47783 5.65742e-20)
(4.58816 -1.47577 -6.12238e-20)
(4.57853 -1.47373 6.62107e-20)
(4.5695 -1.47171 7.15667e-20)
(4.56274 -1.47015 -1.54587e-19)
(4.55986 -1.46958 0)
(4.5611 -1.47045 1.11026e-23)
(4.56278 -1.4722 9.65628e-20)
(4.56194 -1.4738 0)
(4.55602 -1.47423 -1.37365e-23)
(4.54999 -1.47335 5.98251e-20)
(4.55729 -1.47466 6.40261e-20)
(4.5846 -1.48066 -3.41667e-20)
(4.64173 -1.49496 0)
(4.71939 -1.51926 0)
(4.78677 -1.54648 2.01538e-23)
(4.82615 -1.57078 4.25586e-20)
(5.66332 -1.55057 7.36173e-25)
(5.6703 -1.56047 0)
(5.67685 -1.57006 -1.2519e-18)
(5.68312 -1.5794 -2.37056e-24)
(5.68912 -1.58851 -7.50921e-25)
(5.69493 -1.5974 -1.1496e-18)
(5.7006 -1.6061 -2.17695e-24)
(5.70626 -1.61465 1.08309e-18)
(5.71193 -1.62308 -1.05014e-18)
(5.71758 -1.63137 0)
(5.72317 -1.63951 0)
(5.72861 -1.64749 0)
(5.73379 -1.65528 -9.18728e-19)
(5.73864 -1.66287 -4.42883e-19)
(5.74312 -1.67024 -4.26329e-19)
(5.74724 -1.67739 0)
(5.75101 -1.68434 -3.92874e-19)
(5.75447 -1.6911 -3.75911e-19)
(5.75766 -1.69767 3.5876e-19)
(5.76058 -1.70407 -6.82764e-19)
(5.76325 -1.71029 0)
(5.76569 -1.71634 0)
(5.76794 -1.72224 0)
(5.77 -1.72798 0)
(5.77186 -1.73358 0)
(5.77353 -1.73902 6.01404e-25)
(5.775 -1.7443 0)
(5.77626 -1.74942 1.90513e-19)
(5.77726 -1.75435 5.97638e-25)
(5.77796 -1.7591 7.40809e-20)
(5.77834 -1.76365 6.30275e-20)
(5.77838 -1.768 -5.16308e-20)
(5.77804 -1.77214 0)
(5.77733 -1.77606 1.60501e-25)
(5.77626 -1.77976 -1.50646e-20)
(5.77483 -1.78325 6.60222e-26)
(5.77302 -1.78651 -1.16266e-20)
(5.77082 -1.78955 -2.48112e-25)
(5.76819 -1.79236 -4.04169e-20)
(5.76516 -1.79493 -5.57625e-20)
(5.76169 -1.79726 6.00224e-25)
(5.75775 -1.79933 4.42369e-20)
(5.75332 -1.80115 -5.29731e-20)
(5.74835 -1.8027 -8.94544e-25)
(5.74286 -1.80397 1.14808e-24)
(5.73683 -1.80497 8.17685e-20)
(5.73023 -1.80569 0)
(5.72306 -1.80612 -1.03513e-19)
(5.71532 -1.80626 -1.15304e-19)
(5.707 -1.80612 2.18152e-25)
(5.69809 -1.80569 -7.05058e-20)
(5.68859 -1.80497 0)
(5.67851 -1.80397 8.50246e-20)
(5.66788 -1.8027 -2.77736e-24)
(5.65672 -1.80116 0)
(5.64506 -1.79937 -1.10714e-19)
(5.63292 -1.79734 -2.41058e-19)
(5.62039 -1.79509 -6.55448e-20)
(5.60756 -1.79266 1.49613e-25)
(5.59449 -1.79007 -4.83596e-24)
(5.58122 -1.78735 -1.67851e-19)
(5.56784 -1.78451 9.10241e-20)
(5.55446 -1.7816 9.86734e-20)
(5.54137 -1.77868 0)
(5.52894 -1.77589 -5.78882e-20)
(5.5172 -1.77329 -7.75404e-24)
(5.50584 -1.77087 6.77651e-20)
(5.49453 -1.76849 -7.32311e-20)
(5.48396 -1.76617 -7.91334e-20)
(5.47595 -1.76435 1.70829e-19)
(5.47231 -1.76364 4.60184e-20)
(5.47341 -1.76459 -2.03883e-25)
(5.47541 -1.76668 1.30185e-23)
(5.47496 -1.76875 0)
(5.46922 -1.76969 0)
(5.46326 -1.7691 -1.31591e-19)
(5.47137 -1.77064 0)
(5.50142 -1.77729 -1.84345e-23)
(5.56407 -1.79291 1.93156e-23)
(5.6501 -1.81996 0)
(5.72739 -1.85132 -4.42209e-20)
(5.77574 -1.88042 2.26619e-23)
(6.62027 -1.81259 1.46796e-18)
(6.62933 -1.8244 -1.42814e-18)
(6.63785 -1.83585 -2.59525e-24)
(6.64598 -1.847 5.15166e-24)
(6.65377 -1.85786 -2.62472e-18)
(6.66129 -1.86847 1.27486e-18)
(6.66861 -1.87884 0)
(6.67591 -1.88904 -2.40145e-18)
(6.6832 -1.89908 -1.164e-18)
(6.69044 -1.90896 -8.60136e-24)
(6.69761 -1.91867 4.26652e-24)
(6.70459 -1.92819 3.91655e-24)
(6.71125 -1.93748 -3.98741e-24)
(6.7175 -1.94652 0)
(6.72329 -1.9553 4.72123e-19)
(6.72863 -1.96383 0)
(6.73354 -1.97211 4.34957e-19)
(6.73806 -1.98016 -2.11207e-25)
(6.74225 -1.98799 -3.97082e-19)
(6.74611 -1.99561 3.77797e-19)
(6.74968 -2.00303 0)
(6.753 -2.01026 0)
(6.7561 -2.0173 2.32039e-24)
(6.75898 -2.02417 -2.37727e-24)
(6.76166 -2.03087 0)
(6.76412 -2.0374 2.55091e-19)
(6.76636 -2.04374 1.88656e-24)
(6.76837 -2.0499 -1.10814e-24)
(6.77008 -2.05584 -1.87481e-19)
(6.77143 -2.06157 0)
(6.77239 -2.06706 -1.57236e-24)
(6.77292 -2.07231 5.70382e-20)
(6.77302 -2.07731 0)
(6.77267 -2.08204 3.05702e-20)
(6.77188 -2.08653 1.4121e-25)
(6.77065 -2.09075 -1.45774e-25)
(6.76897 -2.09472 1.28343e-20)
(6.76681 -2.09841 -5.47693e-25)
(6.76415 -2.10183 5.66559e-25)
(6.76101 -2.10497 6.1527e-20)
(6.75734 -2.10782 -1.09236e-24)
(6.7531 -2.11038 -1.60599e-24)
(6.74827 -2.11262 5.84213e-20)
(6.74279 -2.11455 6.84899e-20)
(6.73668 -2.11614 2.5314e-24)
(6.72992 -2.11741 -5.50205e-24)
(6.72247 -2.11834 2.98622e-24)
(6.71433 -2.11892 0)
(6.70549 -2.11917 -1.27024e-19)
(6.69595 -2.11906 -7.03704e-20)
(6.68569 -2.11862 7.76399e-20)
(6.67472 -2.11783 0)
(6.66304 -2.1167 -9.35894e-20)
(6.6507 -2.11524 1.24985e-23)
(6.63772 -2.11347 -1.36435e-23)
(6.62414 -2.1114 1.21782e-19)
(6.60999 -2.10904 1.32532e-19)
(6.59536 -2.10642 7.20387e-20)
(6.58038 -2.10359 -9.722e-24)
(6.5651 -2.10056 1.69918e-19)
(6.54961 -2.09738 9.21424e-20)
(6.53397 -2.09408 2.4401e-23)
(6.51836 -2.09068 -1.30213e-23)
(6.50308 -2.08728 1.45249e-23)
(6.48855 -2.08402 6.3432e-20)
(6.47483 -2.081 0)
(6.46164 -2.0782 0)
(6.44863 -2.07549 8.01505e-20)
(6.4365 -2.07287 -2.08636e-23)
(6.42719 -2.07078 2.31998e-23)
(6.42266 -2.06991 -5.02635e-20)
(6.42342 -2.07089 -1.0811e-19)
(6.42562 -2.0733 -5.80659e-20)
(6.42567 -2.07588 6.22179e-20)
(6.42047 -2.07745 3.22687e-23)
(6.41501 -2.07733 7.14845e-20)
(6.42394 -2.07917 0)
(6.45606 -2.08632 -4.06689e-20)
(6.52259 -2.10287 -4.17036e-25)
(6.61472 -2.13203 -2.69265e-25)
(6.70036 -2.16708 4.64219e-23)
(6.75752 -2.20091 0)
(7.59169 -2.07857 -6.0416e-24)
(7.60318 -2.09242 3.14219e-18)
(7.61399 -2.10584 5.70851e-24)
(7.6243 -2.1189 -1.13286e-23)
(7.63418 -2.13163 2.88521e-18)
(7.64369 -2.14404 0)
(7.65293 -2.15618 -1.35983e-18)
(7.66208 -2.1681 1.31895e-18)
(7.6712 -2.17985 1.27831e-18)
(7.68026 -2.1914 -1.2378e-18)
(7.68919 -2.20275 0)
(7.69789 -2.21387 -4.29813e-24)
(7.70621 -2.22473 2.30785e-25)
(7.71403 -2.2353 5.38085e-19)
(7.7213 -2.24556 -7.90064e-24)
(7.72802 -2.25552 7.5893e-24)
(7.73422 -2.2652 -9.53676e-19)
(7.73995 -2.2746 6.95932e-24)
(7.74528 -2.28375 8.70298e-19)
(7.75023 -2.29266 -3.04182e-24)
(7.75486 -2.30134 2.32842e-25)
(7.7592 -2.3098 3.70609e-19)
(7.76331 -2.31805 -3.48404e-19)
(7.76719 -2.32612 -3.25793e-19)
(7.77086 -2.33399 0)
(7.7743 -2.34168 -2.01159e-24)
(7.77751 -2.34916 2.36882e-25)
(7.78047 -2.35643 -2.3037e-19)
(7.78309 -2.36347 2.05042e-19)
(7.78529 -2.37025 0)
(7.78703 -2.37676 -1.01458e-24)
(7.78828 -2.38298 -6.23378e-20)
(7.78901 -2.38892 4.8101e-20)
(7.78921 -2.39455 -3.33973e-20)
(7.78889 -2.39989 -1.81664e-20)
(7.78806 -2.40493 8.7391e-26)
(7.7867 -2.40967 2.47704e-25)
(7.78479 -2.41409 -3.49287e-25)
(7.78231 -2.4182 8.68419e-25)
(7.77925 -2.42198 -8.98761e-25)
(7.77558 -2.42544 -1.44463e-24)
(7.77125 -2.42855 1.4972e-24)
(7.76622 -2.4313 0)
(7.76044 -2.43367 -7.46616e-20)
(7.75391 -2.43566 0)
(7.7466 -2.43726 9.8209e-20)
(7.73848 -2.43847 0)
(7.72954 -2.43928 -3.9243e-24)
(7.71977 -2.43968 2.76617e-19)
(7.70917 -2.43968 0)
(7.69771 -2.43927 -5.29687e-24)
(7.6854 -2.43846 5.52869e-24)
(7.67226 -2.43724 1.01781e-19)
(7.65831 -2.43565 1.113e-19)
(7.64361 -2.43368 7.56815e-24)
(7.62819 -2.43135 -1.32312e-19)
(7.61208 -2.42869 -1.75796e-23)
(7.59542 -2.42573 9.38215e-24)
(7.57831 -2.4225 1.05518e-23)
(7.56086 -2.41905 -9.21751e-20)
(7.54315 -2.41543 -1.23984e-23)
(7.52528 -2.41166 1.08307e-19)
(7.50743 -2.40779 -1.41047e-23)
(7.48995 -2.40391 0)
(7.47328 -2.40017 -6.86586e-20)
(7.45754 -2.39672 -7.41752e-20)
(7.44247 -2.39353 8.0156e-20)
(7.42775 -2.3905 -4.18642e-23)
(7.41407 -2.38758 2.25015e-23)
(7.40341 -2.38523 -2.01098e-19)
(7.39783 -2.38416 -5.41097e-20)
(7.39801 -2.38512 5.81293e-20)
(7.40022 -2.38781 6.2372e-20)
(7.40076 -2.39091 -1.33593e-19)
(7.3964 -2.39321 3.52499e-23)
(7.39186 -2.39371 -3.69944e-23)
(7.40163 -2.39592 0)
(7.43516 -2.40346 4.3308e-20)
(7.50388 -2.42053 4.57273e-20)
(7.59967 -2.45116 -4.80738e-20)
(7.69153 -2.48926 4.94456e-23)
(7.7567 -2.52752 -1.03615e-22)
(7.78338 -2.56019 -5.56413e-20)
(8.56054 -2.34386 -1.7607e-18)
(8.57479 -2.35984 -1.71179e-18)
(8.58819 -2.37531 1.66373e-18)
(8.60096 -2.39035 0)
(8.61318 -2.40501 -1.57003e-18)
(8.62492 -2.4193 1.52427e-18)
(8.63628 -2.43325 1.47894e-18)
(8.64748 -2.44696 -5.34413e-24)
(8.6586 -2.46045 5.42611e-24)
(8.66959 -2.47371 -1.42735e-24)
(8.68043 -2.48673 5.0869e-24)
(8.69097 -2.49949 1.25632e-18)
(8.70106 -2.51195 -4.74907e-24)
(8.71057 -2.52408 -1.16786e-18)
(8.71943 -2.53586 -8.57158e-24)
(8.72765 -2.5473 8.23163e-24)
(8.73526 -2.5584 5.17053e-19)
(8.74232 -2.56919 -4.94451e-19)
(8.7489 -2.57969 -4.71636e-19)
(8.75506 -2.58992 -4.48534e-19)
(8.76086 -2.59989 0)
(8.76635 -2.60963 -4.01382e-19)
(8.7716 -2.61914 3.77237e-19)
(8.77664 -2.62844 5.30239e-24)
(8.78145 -2.63754 0)
(8.78604 -2.64644 0)
(8.79039 -2.65511 0)
(8.79447 -2.66355 -1.77155e-24)
(8.79818 -2.67173 2.57881e-25)
(8.80142 -2.67962 1.60498e-24)
(8.80414 -2.68721 -8.22387e-20)
(8.80629 -2.69448 1.15733e-24)
(8.80785 -2.70141 -5.19336e-20)
(8.8088 -2.708 0)
(8.80916 -2.71426 3.92034e-20)
(8.80894 -2.72018 -9.42983e-26)
(8.80813 -2.72576 9.73646e-26)
(8.80669 -2.73099 0)
(8.8046 -2.73585 5.24678e-20)
(8.80187 -2.74036 9.68477e-25)
(8.79844 -2.7445 0)
(8.79428 -2.74824 0)
(8.78932 -2.75157 -2.2308e-24)
(8.7835 -2.75448 -8.0357e-20)
(8.7768 -2.75695 0)
(8.76921 -2.75898 -1.05641e-19)
(8.76069 -2.76055 -2.82179e-25)
(8.75121 -2.76166 -1.33529e-19)
(8.74078 -2.76231 -1.48629e-19)
(8.72937 -2.76249 8.22979e-20)
(8.71697 -2.7622 -5.39096e-24)
(8.70357 -2.76144 0)
(8.68919 -2.76022 -1.09232e-19)
(8.67387 -2.75855 -1.19389e-19)
(8.65766 -2.75645 0)
(8.64059 -2.75394 0)
(8.62272 -2.75103 0)
(8.60418 -2.74777 8.37844e-20)
(8.58511 -2.74421 -9.09321e-20)
(8.56561 -2.74038 0)
(8.5458 -2.73634 0)
(8.52579 -2.73215 -2.3137e-19)
(8.50579 -2.72783 -1.25206e-19)
(8.48617 -2.72348 -3.30727e-23)
(8.4674 -2.71928 7.3198e-20)
(8.44965 -2.7154 1.58065e-19)
(8.43271 -2.71183 -8.52855e-20)
(8.41627 -2.70848 -1.8395e-19)
(8.40105 -2.70528 4.8399e-23)
(8.38899 -2.70266 2.13355e-19)
(8.38222 -2.70137 5.73134e-20)
(8.38154 -2.70224 6.15547e-20)
(8.3835 -2.70513 -6.59219e-20)
(8.38441 -2.70873 1.40954e-19)
(8.38102 -2.71181 -3.71414e-23)
(8.3777 -2.71305 3.89162e-23)
(8.38836 -2.71569 0)
(8.42267 -2.72355 4.45793e-23)
(8.49203 -2.74079 -4.79054e-20)
(8.58908 -2.77224 -9.14008e-25)
(8.68474 -2.81268 5.25343e-20)
(8.75646 -2.85487 -5.50292e-20)
(8.79104 -2.89243 -6.60819e-23)
(9.50909 -2.60361 1.98668e-23)
(9.52637 -2.62175 1.84712e-18)
(9.54259 -2.6393 -5.09524e-24)
(9.55803 -2.65637 0)
(9.5728 -2.67299 1.69161e-18)
(9.58695 -2.68918 -3.28315e-18)
(9.60057 -2.70497 -1.59209e-18)
(9.61395 -2.72047 1.20447e-23)
(9.62715 -2.7357 1.49439e-18)
(9.64015 -2.75067 1.44599e-18)
(9.65293 -2.76536 0)
(9.66537 -2.77975 -1.34969e-18)
(9.67728 -2.79381 0)
(9.68853 -2.8075 1.25377e-18)
(9.69904 -2.82079 8.93034e-24)
(9.70882 -2.8337 -9.10011e-24)
(9.71791 -2.84623 5.54563e-19)
(9.72636 -2.8584 5.30174e-19)
(9.73428 -2.87026 -5.38784e-25)
(9.74174 -2.88182 4.80647e-19)
(9.7488 -2.8931 4.55433e-19)
(9.75555 -2.90412 6.8295e-24)
(9.76205 -2.9149 0)
(9.76835 -2.92546 7.5489e-19)
(9.77442 -2.93581 3.50495e-19)
(9.78028 -2.94593 3.2301e-19)
(9.7859 -2.95583 4.2257e-24)
(9.79123 -2.96546 -2.66196e-19)
(9.79617 -2.97481 0)
(9.80059 -2.98384 1.03288e-19)
(9.80444 -2.99254 2.95579e-24)
(9.80766 -3.00088 0)
(9.81023 -3.00886 0)
(9.81212 -3.01646 8.91425e-25)
(9.81336 -3.02368 -2.08961e-20)
(9.81395 -3.03054 -2.72753e-21)
(9.81389 -3.03701 -1.61064e-20)
(9.81315 -3.0431 0)
(9.8117 -3.04879 -5.5856e-20)
(9.80955 -3.05409 0)
(9.80665 -3.05898 0)
(9.80293 -3.06344 6.09446e-20)
(9.79833 -3.06744 -7.29025e-20)
(9.79278 -3.07097 8.53894e-20)
(9.78625 -3.07402 0)
(9.77871 -3.07656 0)
(9.77013 -3.0786 -1.26542e-19)
(9.76047 -3.08011 1.4167e-19)
(9.74972 -3.08111 9.92881e-24)
(9.73786 -3.08158 -8.72449e-20)
(9.72487 -3.08151 -1.2055e-23)
(9.71074 -3.08092 -1.05572e-19)
(9.69547 -3.07979 -2.82407e-23)
(9.67912 -3.07815 -6.74438e-25)
(9.66172 -3.07602 -6.94373e-25)
(9.64333 -3.07341 1.79477e-23)
(9.62401 -3.07035 -1.62923e-19)
(9.60388 -3.06688 -8.845e-20)
(9.58312 -3.06306 9.59142e-20)
(9.56184 -3.05892 -1.03965e-19)
(9.54015 -3.05455 1.12576e-19)
(9.51823 -3.04998 -1.11697e-24)
(9.49627 -3.04526 1.31693e-19)
(9.47466 -3.04051 1.42381e-19)
(9.4539 -3.03588 -3.80669e-23)
(9.43422 -3.03159 -4.25289e-25)
(9.41545 -3.02765 4.30816e-23)
(9.39735 -3.02399 9.63166e-20)
(9.38061 -3.02052 -1.01206e-22)
(9.36712 -3.01764 -1.11283e-19)
(9.359 -3.0161 -5.9853e-20)
(9.35719 -3.01681 4.24038e-25)
(9.35855 -3.01981 6.75841e-23)
(9.3596 -3.02384 -6.93443e-23)
(9.35712 -3.02768 0)
(9.35512 -3.02972 -8.31916e-20)