/*--------------------------------*- C++ -*----------------------------------*\
| =========                 |                                                 |
| \\      /  F ield         | OpenFOAM: The Open Source CFD Toolbox           |
|  \\    /   O peration     | Version:  2412                                  |
|   \\  /    A nd           | Website:  www.openfoam.com                      |
|    \\/     M anipulation  |                                                 |
\*---------------------------------------------------------------------------*/
FoamFile
{
    version     2.0;
    format      ascii;
    arch        "LSB;label=32;scalar=64";
    class       volScalarField;
    location    "480";
    object      nuTilda;
}
// * * * * * * * * * * * * * * * * * * * * * * * * * * * * * * * * * * * * * //

dimensions      [0 2 -1 0 0 0 0];

internalField   nonuniform List<scalar> 
8637
(
1.57786e-06
1.58243e-06
1.58701e-06
1.59189e-06
1.59637e-06
1.60079e-06
1.60514e-06
1.60944e-06
1.61365e-06
1.61779e-06
1.6219e-06
1.62595e-06
1.6299e-06
1.63371e-06
1.63747e-06
1.64114e-06
1.6447e-06
1.64814e-06
1.65147e-06
1.65469e-06
1.65779e-06
1.66077e-06
1.66358e-06
1.66625e-06
1.66877e-06
1.67114e-06
1.67334e-06
1.67534e-06
1.67714e-06
1.67876e-06
1.68018e-06
1.68138e-06
1.68238e-06
1.68311e-06
1.68358e-06
1.68382e-06
1.68381e-06
1.68357e-06
1.68304e-06
1.6822e-06
1.68109e-06
1.67969e-06
1.67804e-06
1.67614e-06
1.67393e-06
1.67137e-06
1.66853e-06
1.66548e-06
1.66217e-06
1.65851e-06
1.65455e-06
1.65033e-06
1.64593e-06
1.64127e-06
1.63624e-06
1.63094e-06
1.62543e-06
1.6197e-06
1.61365e-06
1.6073e-06
1.60073e-06
1.5939e-06
1.58675e-06
1.57929e-06
1.57157e-06
1.5636e-06
1.55527e-06
1.54662e-06
1.53771e-06
1.52847e-06
1.51887e-06
1.50895e-06
1.49868e-06
1.48802e-06
1.47692e-06
1.46535e-06
1.45321e-06
1.44029e-06
1.42646e-06
1.41132e-06
1.39441e-06
1.37501e-06
1.35199e-06
1.32366e-06
1.28739e-06
1.23904e-06
1.17192e-06
1.07567e-06
4.95053e-06
4.9649e-06
4.97927e-06
4.99454e-06
5.0085e-06
5.02226e-06
5.03581e-06
5.04916e-06
5.06221e-06
5.07505e-06
5.0877e-06
5.10011e-06
5.1122e-06
5.12394e-06
5.1354e-06
5.14654e-06
5.15733e-06
5.16777e-06
5.17781e-06
5.18746e-06
5.19674e-06
5.2056e-06
5.21397e-06
5.22184e-06
5.22921e-06
5.2361e-06
5.24241e-06
5.2481e-06
5.2532e-06
5.25769e-06
5.26155e-06
5.26474e-06
5.26723e-06
5.26886e-06
5.26975e-06
5.26987e-06
5.26927e-06
5.26792e-06
5.26562e-06
5.26241e-06
5.25829e-06
5.25331e-06
5.24759e-06
5.24105e-06
5.23354e-06
5.22495e-06
5.2155e-06
5.20537e-06
5.19446e-06
5.1825e-06
5.16956e-06
5.15584e-06
5.14151e-06
5.12634e-06
5.11012e-06
5.09302e-06
5.07523e-06
5.05676e-06
5.0373e-06
5.01684e-06
4.99565e-06
4.97368e-06
4.95068e-06
4.92667e-06
4.90181e-06
4.87611e-06
4.84928e-06
4.82141e-06
4.79266e-06
4.76286e-06
4.73188e-06
4.69982e-06
4.66664e-06
4.63217e-06
4.59625e-06
4.55878e-06
4.51935e-06
4.47745e-06
4.43255e-06
4.38337e-06
4.32841e-06
4.2654e-06
4.19073e-06
4.09898e-06
3.98191e-06
3.8264e-06
3.6118e-06
3.30663e-06
8.78649e-06
8.81211e-06
8.83759e-06
8.86461e-06
8.88921e-06
8.91339e-06
8.9371e-06
8.96036e-06
8.9831e-06
9.00539e-06
9.02723e-06
9.04854e-06
9.06924e-06
9.08934e-06
9.10886e-06
9.1277e-06
9.14586e-06
9.16335e-06
9.18012e-06
9.19611e-06
9.21138e-06
9.22584e-06
9.23942e-06
9.25204e-06
9.26378e-06
9.27455e-06
9.28423e-06
9.29282e-06
9.30036e-06
9.30675e-06
9.31198e-06
9.31603e-06
9.31874e-06
9.32e-06
9.3199e-06
9.31842e-06
9.31566e-06
9.31153e-06
9.30583e-06
9.29846e-06
9.28946e-06
9.27902e-06
9.26725e-06
9.25403e-06
9.23908e-06
9.22232e-06
9.20404e-06
9.18456e-06
9.16371e-06
9.14106e-06
9.11667e-06
9.09094e-06
9.06403e-06
9.03571e-06
9.00554e-06
8.97379e-06
8.94084e-06
8.90658e-06
8.87052e-06
8.83274e-06
8.79356e-06
8.75293e-06
8.71041e-06
8.66604e-06
8.62006e-06
8.57241e-06
8.52275e-06
8.47111e-06
8.41775e-06
8.36238e-06
8.30476e-06
8.24509e-06
8.18321e-06
8.11882e-06
8.05169e-06
7.98149e-06
7.90751e-06
7.82881e-06
7.74434e-06
7.65171e-06
7.5482e-06
7.42962e-06
7.28942e-06
7.11777e-06
6.90007e-06
6.61314e-06
6.22165e-06
5.67333e-06
1.31566e-05
1.3195e-05
1.32329e-05
1.32731e-05
1.33094e-05
1.3345e-05
1.33797e-05
1.34135e-05
1.34465e-05
1.34787e-05
1.351e-05
1.35405e-05
1.35699e-05
1.35982e-05
1.36257e-05
1.36519e-05
1.3677e-05
1.3701e-05
1.37238e-05
1.37455e-05
1.37658e-05
1.37849e-05
1.38025e-05
1.38187e-05
1.38335e-05
1.38466e-05
1.38581e-05
1.38679e-05
1.38761e-05
1.38825e-05
1.3887e-05
1.38898e-05
1.38905e-05
1.38891e-05
1.38856e-05
1.388e-05
1.38724e-05
1.38629e-05
1.3851e-05
1.38367e-05
1.38199e-05
1.38011e-05
1.37802e-05
1.37573e-05
1.37318e-05
1.37036e-05
1.36733e-05
1.36412e-05
1.36071e-05
1.35703e-05
1.35311e-05
1.34899e-05
1.34468e-05
1.34017e-05
1.33538e-05
1.33036e-05
1.32515e-05
1.31973e-05
1.31404e-05
1.30809e-05
1.30192e-05
1.29551e-05
1.2888e-05
1.28181e-05
1.27456e-05
1.26703e-05
1.25918e-05
1.25102e-05
1.24256e-05
1.23377e-05
1.22462e-05
1.21512e-05
1.20525e-05
1.19496e-05
1.18422e-05
1.17296e-05
1.16108e-05
1.14841e-05
1.13479e-05
1.11985e-05
1.10316e-05
1.08406e-05
1.06155e-05
1.03415e-05
9.99683e-06
9.54752e-06
8.94372e-06
8.11436e-06
1.81392e-05
1.81916e-05
1.82432e-05
1.82978e-05
1.83467e-05
1.83942e-05
1.84403e-05
1.84851e-05
1.85284e-05
1.85704e-05
1.8611e-05
1.86502e-05
1.86878e-05
1.87238e-05
1.87582e-05
1.87908e-05
1.88218e-05
1.88509e-05
1.88783e-05
1.89039e-05
1.89276e-05
1.89493e-05
1.8969e-05
1.89866e-05
1.90019e-05
1.9015e-05
1.90257e-05
1.9034e-05
1.90398e-05
1.90432e-05
1.9044e-05
1.90422e-05
1.90376e-05
1.903e-05
1.90194e-05
1.9006e-05
1.899e-05
1.89712e-05
1.89493e-05
1.89239e-05
1.88954e-05
1.88641e-05
1.88301e-05
1.87932e-05
1.87529e-05
1.87092e-05
1.86626e-05
1.86136e-05
1.85617e-05
1.85064e-05
1.84479e-05
1.83866e-05
1.83229e-05
1.82561e-05
1.81857e-05
1.81121e-05
1.80357e-05
1.79563e-05
1.78732e-05
1.77863e-05
1.76961e-05
1.76024e-05
1.75045e-05
1.74024e-05
1.72963e-05
1.71859e-05
1.70709e-05
1.6951e-05
1.68265e-05
1.66969e-05
1.65619e-05
1.64215e-05
1.62752e-05
1.61226e-05
1.59628e-05
1.57949e-05
1.56174e-05
1.5428e-05
1.5224e-05
1.50002e-05
1.47503e-05
1.44651e-05
1.41306e-05
1.37264e-05
1.32233e-05
1.2576e-05
1.17214e-05
1.05728e-05
2.38182e-05
2.38857e-05
2.39517e-05
2.40216e-05
2.40834e-05
2.41429e-05
2.42002e-05
2.42555e-05
2.43087e-05
2.43597e-05
2.44086e-05
2.44553e-05
2.44998e-05
2.45418e-05
2.45814e-05
2.46184e-05
2.4653e-05
2.4685e-05
2.47145e-05
2.47413e-05
2.47655e-05
2.47868e-05
2.48053e-05
2.48207e-05
2.48331e-05
2.48424e-05
2.48484e-05
2.48511e-05
2.48504e-05
2.48463e-05
2.48389e-05
2.4828e-05
2.48133e-05
2.47946e-05
2.47721e-05
2.4746e-05
2.47164e-05
2.46832e-05
2.46459e-05
2.46043e-05
2.45587e-05
2.45096e-05
2.44571e-05
2.44008e-05
2.43403e-05
2.42755e-05
2.42072e-05
2.41357e-05
2.40606e-05
2.39813e-05
2.38978e-05
2.38108e-05
2.37205e-05
2.36261e-05
2.35272e-05
2.34241e-05
2.33172e-05
2.3206e-05
2.30898e-05
2.29687e-05
2.28428e-05
2.27117e-05
2.25749e-05
2.24322e-05
2.22837e-05
2.21289e-05
2.19675e-05
2.17991e-05
2.16238e-05
2.14411e-05
2.12504e-05
2.10516e-05
2.08441e-05
2.06271e-05
2.03995e-05
2.016e-05
1.99063e-05
1.96355e-05
1.93434e-05
1.90232e-05
1.86663e-05
1.82607e-05
1.77877e-05
1.72215e-05
1.65248e-05
1.56417e-05
1.44973e-05
1.2993e-05
3.02783e-05
3.03616e-05
3.04424e-05
3.05281e-05
3.06024e-05
3.06733e-05
3.0741e-05
3.08057e-05
3.08672e-05
3.09256e-05
3.09808e-05
3.1033e-05
3.10818e-05
3.11273e-05
3.11692e-05
3.12075e-05
3.12423e-05
3.12736e-05
3.13012e-05
3.13253e-05
3.13456e-05
3.13622e-05
3.13747e-05
3.13831e-05
3.13875e-05
3.13877e-05
3.13835e-05
3.13749e-05
3.13619e-05
3.13445e-05
3.13227e-05
3.12964e-05
3.12652e-05
3.1229e-05
3.11879e-05
3.11423e-05
3.10924e-05
3.1038e-05
3.09785e-05
3.09138e-05
3.08443e-05
3.07705e-05
3.06925e-05
3.06099e-05
3.05223e-05
3.04296e-05
3.03327e-05
3.02318e-05
3.01265e-05
3.00162e-05
2.99008e-05
2.97812e-05
2.96571e-05
2.9528e-05
2.93932e-05
2.92532e-05
2.9108e-05
2.8957e-05
2.87996e-05
2.86356e-05
2.84651e-05
2.82874e-05
2.8102e-05
2.79086e-05
2.77068e-05
2.74964e-05
2.72767e-05
2.70472e-05
2.68078e-05
2.65578e-05
2.62966e-05
2.60237e-05
2.57382e-05
2.54393e-05
2.51252e-05
2.47942e-05
2.44434e-05
2.40686e-05
2.36644e-05
2.3222e-05
2.27303e-05
2.21745e-05
2.15308e-05
2.0768e-05
1.98409e-05
1.86834e-05
1.72114e-05
1.53188e-05
3.75953e-05
3.76948e-05
3.77903e-05
3.78926e-05
3.79785e-05
3.80595e-05
3.81361e-05
3.82082e-05
3.82758e-05
3.83389e-05
3.83977e-05
3.8452e-05
3.85018e-05
3.85468e-05
3.85869e-05
3.86219e-05
3.86522e-05
3.86777e-05
3.86983e-05
3.87139e-05
3.87246e-05
3.87301e-05
3.87303e-05
3.8725e-05
3.87144e-05
3.86983e-05
3.86764e-05
3.86489e-05
3.86157e-05
3.85769e-05
3.85325e-05
3.84824e-05
3.84263e-05
3.83639e-05
3.82956e-05
3.82218e-05
3.81428e-05
3.80583e-05
3.79677e-05
3.7871e-05
3.77687e-05
3.76614e-05
3.75492e-05
3.74316e-05
3.73081e-05
3.7179e-05
3.70449e-05
3.69061e-05
3.67621e-05
3.66122e-05
3.64566e-05
3.62957e-05
3.61294e-05
3.59567e-05
3.57774e-05
3.55915e-05
3.53988e-05
3.51986e-05
3.49903e-05
3.47736e-05
3.4548e-05
3.43128e-05
3.40674e-05
3.38114e-05
3.3544e-05
3.32647e-05
3.29729e-05
3.26678e-05
3.23489e-05
3.20153e-05
3.16665e-05
3.13014e-05
3.09189e-05
3.05178e-05
3.00959e-05
2.96506e-05
2.91788e-05
2.86748e-05
2.81314e-05
2.75383e-05
2.68815e-05
2.61434e-05
2.52948e-05
2.42998e-05
2.31048e-05
2.16348e-05
1.97997e-05
1.74908e-05
4.58096e-05
4.59258e-05
4.60361e-05
4.61565e-05
4.62529e-05
4.63426e-05
4.64259e-05
4.6503e-05
4.65739e-05
4.66386e-05
4.66972e-05
4.67498e-05
4.6796e-05
4.68357e-05
4.68686e-05
4.68946e-05
4.69141e-05
4.69273e-05
4.69339e-05
4.69338e-05
4.69272e-05
4.69137e-05
4.68931e-05
4.68654e-05
4.68307e-05
4.6789e-05
4.67398e-05
4.66834e-05
4.66199e-05
4.65494e-05
4.64719e-05
4.63873e-05
4.62953e-05
4.61958e-05
4.60893e-05
4.59762e-05
4.58569e-05
4.57312e-05
4.55985e-05
4.54589e-05
4.53129e-05
4.51613e-05
4.5004e-05
4.48407e-05
4.4671e-05
4.44951e-05
4.43137e-05
4.41269e-05
4.39341e-05
4.37348e-05
4.35291e-05
4.33173e-05
4.30988e-05
4.28727e-05
4.2639e-05
4.23972e-05
4.21469e-05
4.1887e-05
4.16171e-05
4.13366e-05
4.10446e-05
4.074e-05
4.04225e-05
4.00911e-05
3.97447e-05
3.93824e-05
3.90037e-05
3.86074e-05
3.81925e-05
3.77581e-05
3.73033e-05
3.68266e-05
3.63265e-05
3.58017e-05
3.52491e-05
3.46656e-05
3.40472e-05
3.33871e-05
3.26761e-05
3.19022e-05
3.10484e-05
3.00946e-05
2.9006e-05
2.77426e-05
2.62421e-05
2.44229e-05
2.21928e-05
1.94468e-05
5.4874e-05
5.50077e-05
5.51332e-05
5.52747e-05
5.53804e-05
5.54771e-05
5.55651e-05
5.56447e-05
5.57158e-05
5.57785e-05
5.5833e-05
5.58793e-05
5.59171e-05
5.59461e-05
5.59658e-05
5.59764e-05
5.59784e-05
5.59718e-05
5.59565e-05
5.59326e-05
5.58999e-05
5.58583e-05
5.58075e-05
5.57474e-05
5.56784e-05
5.56003e-05
5.55129e-05
5.54165e-05
5.53111e-05
5.5197e-05
5.50744e-05
5.49433e-05
5.48033e-05
5.46543e-05
5.44972e-05
5.43324e-05
5.41606e-05
5.39814e-05
5.37944e-05
5.35997e-05
5.33981e-05
5.31904e-05
5.29766e-05
5.27562e-05
5.25291e-05
5.22956e-05
5.20562e-05
5.18107e-05
5.15587e-05
5.12999e-05
5.10342e-05
5.07614e-05
5.04807e-05
5.01914e-05
4.98934e-05
4.95859e-05
4.92677e-05
4.89379e-05
4.85961e-05
4.82412e-05
4.78716e-05
4.74862e-05
4.70845e-05
4.66654e-05
4.62269e-05
4.57679e-05
4.5288e-05
4.47855e-05
4.42585e-05
4.37062e-05
4.31275e-05
4.25202e-05
4.18822e-05
4.1212e-05
4.05059e-05
3.97598e-05
3.8969e-05
3.81254e-05
3.72176e-05
3.62321e-05
3.51488e-05
3.39452e-05
3.25809e-05
3.10128e-05
2.91699e-05
2.69672e-05
2.43159e-05
2.11223e-05
6.50895e-05
6.52028e-05
6.53043e-05
6.53945e-05
6.54737e-05
6.55419e-05
6.55992e-05
6.56456e-05
6.56813e-05
6.57061e-05
6.57191e-05
6.57201e-05
6.57093e-05
6.56873e-05
6.56542e-05
6.56099e-05
6.55543e-05
6.54876e-05
6.54094e-05
6.53195e-05
6.52178e-05
6.51049e-05
6.49807e-05
6.48449e-05
6.46979e-05
6.454e-05
6.43715e-05
6.41928e-05
6.40039e-05
6.38045e-05
6.35949e-05
6.33757e-05
6.31479e-05
6.29121e-05
6.26683e-05
6.24159e-05
6.21553e-05
6.18874e-05
6.1613e-05
6.13321e-05
6.10445e-05
6.07502e-05
6.04493e-05
6.01423e-05
5.98288e-05
5.95085e-05
5.91813e-05
5.88468e-05
5.85044e-05
5.81528e-05
5.77917e-05
5.7421e-05
5.70391e-05
5.66443e-05
5.62357e-05
5.58129e-05
5.53744e-05
5.49176e-05
5.44413e-05
5.39453e-05
5.34275e-05
5.28854e-05
5.23177e-05
5.17237e-05
5.11011e-05
5.04475e-05
4.97618e-05
4.90425e-05
4.82865e-05
4.74915e-05
4.66552e-05
4.57734e-05
4.48408e-05
4.3852e-05
4.27974e-05
4.16633e-05
4.04349e-05
3.90889e-05
3.76009e-05
3.59251e-05
3.40166e-05
3.17959e-05
2.91802e-05
2.60909e-05
2.24542e-05
7.5416e-05
7.55337e-05
7.56368e-05
7.57258e-05
7.58011e-05
7.58625e-05
7.59102e-05
7.59444e-05
7.5965e-05
7.59718e-05
7.5964e-05
7.59409e-05
7.5903e-05
7.58511e-05
7.57853e-05
7.57054e-05
7.56115e-05
7.55036e-05
7.53815e-05
7.52447e-05
7.50936e-05
7.49286e-05
7.47498e-05
7.45571e-05
7.43507e-05
7.41313e-05
7.38992e-05
7.36551e-05
7.33991e-05
7.31311e-05
7.28513e-05
7.25607e-05
7.22606e-05
7.19516e-05
7.16338e-05
7.1307e-05
7.09716e-05
7.06286e-05
7.02787e-05
6.99223e-05
6.95594e-05
6.91897e-05
6.88136e-05
6.84311e-05
6.80421e-05
6.76462e-05
6.72433e-05
6.68329e-05
6.64135e-05
6.5984e-05
6.55442e-05
6.50936e-05
6.46302e-05
6.41514e-05
6.36566e-05
6.31453e-05
6.2615e-05
6.20628e-05
6.14871e-05
6.08877e-05
6.02617e-05
5.96058e-05
5.89186e-05
5.81992e-05
5.74442e-05
5.66507e-05
5.58172e-05
5.49417e-05
5.40202e-05
5.30498e-05
5.20275e-05
5.09481e-05
4.98056e-05
4.8593e-05
4.72997e-05
4.59094e-05
4.44061e-05
4.27637e-05
4.09564e-05
3.89337e-05
3.66503e-05
3.40198e-05
3.09699e-05
2.74396e-05
2.33864e-05
8.6125e-05
8.62424e-05
8.63424e-05
8.64255e-05
8.64918e-05
8.65414e-05
8.65744e-05
8.65908e-05
8.65909e-05
8.65741e-05
8.65394e-05
8.64862e-05
8.64149e-05
8.63266e-05
8.62215e-05
8.60992e-05
8.59599e-05
8.58036e-05
8.56302e-05
8.54391e-05
8.52308e-05
8.50058e-05
8.47645e-05
8.45067e-05
8.42328e-05
8.39436e-05
8.36397e-05
8.33219e-05
8.29905e-05
8.26456e-05
8.22875e-05
8.19173e-05
8.15366e-05
8.11464e-05
8.07468e-05
8.03379e-05
7.99201e-05
7.94943e-05
7.90617e-05
7.86226e-05
7.81771e-05
7.77253e-05
7.72672e-05
7.68026e-05
7.63314e-05
7.58534e-05
7.53685e-05
7.48756e-05
7.4373e-05
7.38591e-05
7.33341e-05
7.27971e-05
7.22454e-05
7.16758e-05
7.10877e-05
7.04805e-05
6.9851e-05
6.91953e-05
6.85119e-05
6.78003e-05
6.70567e-05
6.62772e-05
6.546e-05
6.46037e-05
6.37041e-05
6.27574e-05
6.1762e-05
6.07147e-05
5.96107e-05
5.84465e-05
5.72178e-05
5.59188e-05
5.45421e-05
5.30793e-05
5.15187e-05
4.98412e-05
4.803e-05
4.60571e-05
4.38952e-05
4.14917e-05
3.88023e-05
3.57364e-05
3.22446e-05
2.82912e-05
2.38781e-05
9.71425e-05
9.72533e-05
9.73439e-05
9.74145e-05
9.74654e-05
9.74966e-05
9.7508e-05
9.74999e-05
9.74723e-05
9.74247e-05
9.73558e-05
9.72649e-05
9.71527e-05
9.70203e-05
9.68679e-05
9.66953e-05
9.65026e-05
9.62898e-05
9.60568e-05
9.58031e-05
9.55291e-05
9.52358e-05
9.49236e-05
9.45922e-05
9.42425e-05
9.38751e-05
9.34911e-05
9.30913e-05
9.26765e-05
9.22467e-05
9.18022e-05
9.13447e-05
9.08759e-05
9.03969e-05
8.99082e-05
8.941e-05
8.89026e-05
8.83873e-05
8.78651e-05
8.73366e-05
8.68021e-05
8.62617e-05
8.57152e-05
8.51622e-05
8.46024e-05
8.40361e-05
8.34629e-05
8.28813e-05
8.22888e-05
8.1684e-05
8.1067e-05
8.04368e-05
7.97895e-05
7.91218e-05
7.84328e-05
7.77217e-05
7.69844e-05
7.62163e-05
7.54159e-05
7.45823e-05
7.37107e-05
7.27964e-05
7.18374e-05
7.08317e-05
6.97739e-05
6.86596e-05
6.74865e-05
6.62504e-05
6.49456e-05
6.35674e-05
6.21105e-05
6.05678e-05
5.89311e-05
5.71897e-05
5.53314e-05
5.33341e-05
5.11805e-05
4.88426e-05
4.62915e-05
4.3477e-05
4.03561e-05
3.68408e-05
3.29208e-05
2.85922e-05
2.39167e-05
0.00010842
0.000108517
0.00010859
0.00010864
0.000108667
0.000108671
0.000108652
0.000108611
0.000108547
0.000108459
0.000108347
0.00010821
0.000108047
0.000107862
0.000107653
0.00010742
0.000107165
0.000106886
0.000106584
0.000106259
0.00010591
0.000105539
0.000105147
0.000104733
0.000104298
0.000103844
0.000103371
0.000102881
0.000102375
0.000101852
0.000101314
0.000100761
0.000100197
9.96219e-05
9.90371e-05
9.84428e-05
9.78393e-05
9.72279e-05
9.66097e-05
9.59855e-05
9.53558e-05
9.47207e-05
9.40794e-05
9.34317e-05
9.27772e-05
9.21162e-05
9.14482e-05
9.0771e-05
9.00818e-05
8.9379e-05
8.86627e-05
8.79315e-05
8.71805e-05
8.6406e-05
8.56072e-05
8.47828e-05
8.39277e-05
8.30369e-05
8.21085e-05
8.11411e-05
8.0129e-05
7.90668e-05
7.79521e-05
7.67819e-05
7.55499e-05
7.42508e-05
7.28818e-05
7.14372e-05
6.991e-05
6.82949e-05
6.65849e-05
6.47715e-05
6.28459e-05
6.07947e-05
5.86051e-05
5.62535e-05
5.37214e-05
5.0985e-05
4.80124e-05
4.4764e-05
4.11969e-05
3.72376e-05
3.29355e-05
2.83213e-05
2.35331e-05
0.000119913
0.000119985
0.00012003
0.000120049
0.000120042
0.000120009
0.00011995
0.000119865
0.000119754
0.000119616
0.00011945
0.000119255
0.000119032
0.000118782
0.000118506
0.000118203
0.000117874
0.000117519
0.000117138
0.00011673
0.000116296
0.000115838
0.000115356
0.00011485
0.000114321
0.000113771
0.000113201
0.000112613
0.000112007
0.000111383
0.000110743
0.000110089
0.000109422
0.000108745
0.000108057
0.000107361
0.000106655
0.000105941
0.000105221
0.000104496
0.000103765
0.000103029
0.000102287
0.000101539
0.000100783
0.000100021
9.92514e-05
9.84715e-05
9.7678e-05
9.68694e-05
9.60456e-05
9.52046e-05
9.43406e-05
9.34495e-05
9.25305e-05
9.15818e-05
9.05972e-05
8.9571e-05
8.85014e-05
8.73862e-05
8.62186e-05
8.49926e-05
8.37051e-05
8.23525e-05
8.0927e-05
7.94227e-05
7.78357e-05
7.61591e-05
7.43843e-05
7.25052e-05
7.0513e-05
6.83978e-05
6.61504e-05
6.37542e-05
6.11968e-05
5.84545e-05
5.55074e-05
5.2342e-05
4.8922e-05
4.52307e-05
4.12216e-05
3.6856e-05
3.22647e-05
2.75084e-05
2.2821e-05
0.000131562
0.000131598
0.000131604
0.00013158
0.000131527
0.000131445
0.000131333
0.000131192
0.000131021
0.000130821
0.000130588
0.000130323
0.000130027
0.000129701
0.000129346
0.000128961
0.000128547
0.000128105
0.000127633
0.000127131
0.000126602
0.000126046
0.000125465
0.000124857
0.000124226
0.000123571
0.000122896
0.000122201
0.000121487
0.000120756
0.000120008
0.000119245
0.00011847
0.000117684
0.000116888
0.000116084
0.000115271
0.00011445
0.000113622
0.00011279
0.000111953
0.000111111
0.000110263
0.000109407
0.000108545
0.000107675
0.000106797
0.000105907
0.000105001
0.000104078
0.000103137
0.000102177
0.000101189
0.00010017
9.91189e-05
9.80328e-05
9.69047e-05
9.57285e-05
9.4502e-05
9.32222e-05
9.18812e-05
9.04722e-05
8.89918e-05
8.7435e-05
8.5793e-05
8.40588e-05
8.22276e-05
8.02909e-05
7.82384e-05
7.60632e-05
7.37552e-05
7.13021e-05
6.86954e-05
6.59159e-05
6.2951e-05
5.97816e-05
5.63852e-05
5.27696e-05
4.88898e-05
4.47722e-05
4.03569e-05
3.56725e-05
3.09463e-05
2.62567e-05
2.19609e-05
0.000143291
0.000143276
0.000143229
0.000143149
0.000143036
0.00014289
0.000142712
0.000142501
0.000142258
0.000141981
0.000141668
0.00014132
0.000140938
0.000140523
0.000140076
0.000139597
0.000139086
0.000138543
0.000137969
0.000137364
0.000136728
0.000136064
0.000135374
0.000134656
0.000133913
0.000133146
0.000132357
0.000131548
0.000130721
0.000129876
0.000129014
0.000128137
0.000127248
0.000126349
0.000125441
0.000124524
0.000123599
0.000122666
0.000121727
0.000120783
0.000119835
0.000118882
0.000117922
0.000116954
0.000115978
0.000114994
0.000114
0.000112992
0.000111965
0.000110918
0.000109851
0.000108759
0.000107636
0.000106476
0.000105279
0.00010404
0.000102752
0.000101409
0.000100007
9.85424e-05
9.70068e-05
9.53924e-05
9.36949e-05
9.19082e-05
9.00222e-05
8.80288e-05
8.59221e-05
8.36922e-05
8.13267e-05
7.88179e-05
7.61553e-05
7.33236e-05
7.0316e-05
6.71121e-05
6.36998e-05
6.00716e-05
5.62006e-05
5.21332e-05
4.78078e-05
4.33234e-05
3.85855e-05
3.37416e-05
2.91082e-05
2.47661e-05
2.13793e-05
0.000154996
0.000154916
0.0001548
0.000154648
0.00015446
0.000154236
0.000153976
0.00015368
0.000153349
0.000152981
0.000152574
0.000152129
0.000151646
0.000151129
0.000150577
0.00014999
0.00014937
0.000148716
0.000148029
0.000147309
0.000146557
0.000145776
0.000144967
0.000144131
0.000143268
0.000142382
0.000141473
0.000140545
0.000139599
0.000138635
0.000137655
0.00013666
0.000135654
0.000134638
0.000133613
0.000132581
0.000131541
0.000130493
0.000129439
0.00012838
0.000127317
0.000126248
0.000125171
0.000124085
0.000122989
0.000121884
0.000120766
0.00011963
0.000118473
0.000117292
0.000116086
0.00011485
0.000113577
0.000112261
0.000110902
0.000109493
0.000108026
0.000106495
0.000104896
0.000103224
0.000101468
9.9622e-05
9.76789e-05
9.56318e-05
9.34696e-05
9.11826e-05
8.87637e-05
8.62018e-05
8.34823e-05
8.0597e-05
7.75363e-05
7.42814e-05
7.08288e-05
6.71617e-05
6.32671e-05
5.91626e-05
5.48134e-05
5.03309e-05
4.56202e-05
4.08938e-05
3.59807e-05
3.12324e-05
2.69958e-05
2.34212e-05
2.17222e-05
0.000166545
0.000166384
0.000166183
0.000165942
0.000165663
0.000165344
0.000164987
0.000164591
0.000164156
0.000163682
0.000163166
0.000162609
0.000162012
0.000161379
0.00016071
0.000160004
0.000159263
0.000158486
0.000157676
0.000156831
0.000155954
0.000155048
0.000154114
0.000153152
0.000152164
0.000151153
0.00015012
0.000149068
0.000147999
0.000146914
0.000145812
0.000144697
0.000143571
0.000142436
0.000141293
0.000140143
0.000138985
0.00013782
0.000136648
0.000135471
0.000134289
0.0001331
0.000131901
0.00013069
0.000129468
0.000128234
0.000126983
0.00012571
0.000124411
0.000123083
0.000121725
0.00012033
0.000118891
0.000117402
0.000115861
0.000114261
0.000112593
0.000110851
0.000109029
0.000107121
0.000105117
0.000103007
0.000100785
9.84415e-05
9.59652e-05
9.33446e-05
9.05709e-05
8.76324e-05
8.45127e-05
8.12032e-05
7.76981e-05
7.39754e-05
7.00362e-05
6.58781e-05
6.14848e-05
5.6919e-05
5.21313e-05
4.73355e-05
4.23711e-05
3.7614e-05
3.2742e-05
2.84677e-05
2.50942e-05
2.31298e-05
2.28264e-05
0.000177778
0.000177517
0.000177214
0.000176868
0.00017648
0.000176051
0.00017558
0.000175068
0.000174514
0.000173919
0.000173279
0.000172597
0.000171874
0.000171113
0.000170314
0.000169477
0.000168605
0.000167697
0.000166754
0.000165777
0.000164768
0.00016373
0.000162665
0.000161573
0.000160456
0.000159317
0.000158157
0.00015698
0.000155786
0.000154578
0.000153354
0.000152117
0.000150871
0.000149616
0.000148355
0.000147086
0.000145809
0.000144523
0.000143231
0.000141933
0.000140628
0.000139314
0.000137987
0.000136645
0.000135289
0.000133916
0.000132521
0.0001311
0.000129646
0.000128157
0.000126631
0.000125059
0.000123435
0.000121752
0.000120006
0.00011819
0.000116295
0.000114313
0.000112238
0.000110063
0.000107775
0.000105365
0.000102825
0.000100144
9.73093e-05
9.43096e-05
9.11324e-05
8.7767e-05
8.41979e-05
8.0415e-05
7.64212e-05
7.21938e-05
6.77407e-05
6.30954e-05
5.82294e-05
5.32796e-05
4.81685e-05
4.32551e-05
3.82636e-05
3.37866e-05
2.92298e-05
2.62382e-05
2.43614e-05
2.37388e-05
2.39564e-05
0.000188501
0.000188123
0.0001877
0.000187232
0.000186719
0.000186163
0.000185563
0.000184919
0.000184233
0.000183502
0.000182726
0.000181906
0.000181045
0.000180145
0.000179207
0.000178231
0.000177219
0.000176172
0.00017509
0.000173976
0.000172831
0.000171658
0.000170459
0.000169234
0.000167987
0.000166719
0.000165432
0.000164129
0.000162812
0.00016148
0.000160135
0.000158778
0.000157412
0.000156038
0.000154657
0.000153269
0.000151871
0.000150464
0.000149049
0.000147626
0.000146193
0.000144748
0.000143286
0.000141805
0.000140305
0.000138782
0.000137232
0.000135646
0.000134022
0.000132354
0.00013064
0.000128871
0.000127038
0.000125136
0.000123159
0.000121098
0.000118945
0.00011669
0.000114327
0.000111845
0.000109233
0.000106481
0.000103578
0.00010051
9.72682e-05
9.38385e-05
9.02047e-05
8.63592e-05
8.22943e-05
7.79958e-05
7.34821e-05
6.87412e-05
6.37848e-05
5.87258e-05
5.3496e-05
4.83391e-05
4.31275e-05
3.8402e-05
3.37308e-05
3.00045e-05
2.69883e-05
2.53084e-05
2.46235e-05
2.46873e-05
2.49792e-05
0.000198488
0.000197975
0.000197416
0.00019681
0.000196158
0.00019546
0.000194716
0.000193928
0.000193096
0.000192218
0.000191295
0.000190327
0.000189319
0.000188272
0.000187187
0.000186066
0.000184909
0.000183719
0.000182496
0.000181241
0.000179958
0.00017865
0.000177317
0.000175962
0.000174585
0.00017319
0.000171778
0.000170352
0.000168913
0.000167461
0.000165996
0.00016452
0.000163036
0.000161544
0.000160044
0.000158536
0.000157016
0.000155486
0.000153944
0.000152391
0.000150825
0.00014924
0.000147634
0.000146004
0.000144347
0.00014266
0.000140937
0.000139171
0.000137356
0.000135488
0.000133562
0.000131569
0.0001295
0.000127349
0.000125108
0.000122769
0.00012032
0.000117753
0.00011506
0.000112228
0.000109245
0.000106101
0.000102784
9.92772e-05
9.55726e-05
9.16605e-05
8.75172e-05
8.31437e-05
7.85541e-05
7.3725e-05
6.86997e-05
6.3505e-05
5.81356e-05
5.28639e-05
4.75091e-05
4.24459e-05
3.74935e-05
3.33785e-05
3.00409e-05
2.7702e-05
2.60821e-05
2.54557e-05
2.54246e-05
2.56544e-05
2.60805e-05
0.000207481
0.000206819
0.000206109
0.000205351
0.000204546
0.000203693
0.000202795
0.000201851
0.000200863
0.00019983
0.000198752
0.00019763
0.000196469
0.000195271
0.000194036
0.000192767
0.000191465
0.000190131
0.000188766
0.000187373
0.000185955
0.000184514
0.000183051
0.000181568
0.000180066
0.000178548
0.000177016
0.00017547
0.000173914
0.000172345
0.000170763
0.000169172
0.000167571
0.000165961
0.000164342
0.000162712
0.000161068
0.000159409
0.000157736
0.000156046
0.000154337
0.000152603
0.00015084
0.000149046
0.000147216
0.000145347
0.000143431
0.000141461
0.000139432
0.000137337
0.00013517
0.000132922
0.000130584
0.000128147
0.000125605
0.000122946
0.000120159
0.000117234
0.000114162
0.00011093
0.000107523
0.000103933
0.000100147
9.61455e-05
9.19256e-05
8.74856e-05
8.27959e-05
7.78737e-05
7.27827e-05
6.74801e-05
6.20372e-05
5.65896e-05
5.10252e-05
4.59207e-05
4.08472e-05
3.63119e-05
3.26991e-05
3.00025e-05
2.80045e-05
2.68328e-05
2.62533e-05
2.62013e-05
2.6425e-05
2.69627e-05
2.76975e-05
0.000215192
0.000214369
0.000213497
0.000212576
0.000211607
0.000210591
0.00020953
0.000208425
0.000207275
0.000206082
0.000204845
0.000203568
0.000202253
0.000200903
0.00019952
0.000198105
0.000196659
0.000195185
0.000193684
0.000192159
0.000190611
0.000189043
0.000187456
0.000185852
0.000184232
0.000182597
0.00018095
0.000179291
0.000177621
0.000175939
0.000174245
0.000172539
0.000170822
0.000169094
0.000167354
0.000165599
0.000163825
0.000162032
0.000160217
0.00015838
0.000156515
0.000154617
0.000152681
0.000150703
0.00014868
0.000146605
0.000144471
0.000142269
0.000139995
0.00013764
0.000135198
0.000132657
0.000130009
0.000127245
0.000124356
0.00012133
0.000118154
0.00011482
0.000111316
0.000107629
0.000103742
9.965e-05
9.53447e-05
9.08037e-05
8.60346e-05
8.10528e-05
7.58369e-05
7.04251e-05
6.49734e-05
5.94067e-05
5.37686e-05
4.85109e-05
4.31156e-05
3.8762e-05
3.50264e-05
3.20301e-05
2.98085e-05
2.83491e-05
2.74359e-05
2.70868e-05
2.7072e-05
2.74048e-05
2.79526e-05
2.87283e-05
2.9667e-05
0.000221307
0.000220314
0.000219271
0.000218181
0.000217044
0.000215861
0.000214635
0.000213365
0.000212054
0.000210701
0.000209307
0.000207877
0.000206412
0.000204916
0.00020339
0.000201835
0.000200254
0.000198649
0.00019702
0.000195371
0.000193702
0.000192017
0.000190316
0.000188599
0.000186869
0.000185125
0.000183369
0.000181603
0.000179824
0.000178032
0.000176225
0.000174406
0.000172572
0.000170723
0.000168856
0.000166968
0.000165056
0.000163117
0.000161148
0.000159148
0.000157109
0.000155026
0.000152894
0.000150709
0.000148465
0.000146154
0.000143769
0.000141301
0.000138745
0.000136091
0.000133331
0.000130453
0.000127449
0.000124308
0.000121021
0.000117576
0.000113957
0.000110157
0.000106165
0.000101972
9.75559e-05
9.29216e-05
8.80714e-05
8.29962e-05
7.77097e-05
7.22621e-05
6.6693e-05
6.10227e-05
5.554e-05
5.01708e-05
4.4605e-05
4.04526e-05
3.65977e-05
3.37125e-05
3.1404e-05
2.97597e-05
2.8696e-05
2.81512e-05
2.79647e-05
2.81218e-05
2.85027e-05
2.91041e-05
2.98622e-05
3.07691e-05
3.17933e-05
0.000225486
0.00022432
0.000223106
0.000221845
0.00022054
0.000219192
0.000217803
0.000216374
0.000214905
0.000213399
0.000211857
0.000210282
0.000208677
0.000207044
0.000205386
0.000203704
0.000202
0.000200275
0.000198531
0.00019677
0.000194993
0.000193201
0.000191396
0.000189576
0.000187743
0.000185898
0.00018404
0.000182168
0.000180283
0.000178382
0.000176463
0.000174526
0.00017257
0.000170592
0.000168589
0.000166556
0.000164491
0.000162389
0.000160247
0.000158061
0.000155824
0.00015353
0.000151173
0.000148748
0.000146248
0.000143665
0.00014099
0.000138215
0.000135332
0.000132332
0.000129206
0.000125942
0.000122529
0.000118957
0.000115219
0.000111301
0.000107188
0.00010287
9.83497e-05
9.36253e-05
8.86746e-05
8.35142e-05
7.81761e-05
7.27166e-05
6.71112e-05
6.14487e-05
5.60079e-05
5.05641e-05
4.55198e-05
4.14026e-05
3.76392e-05
3.48622e-05
3.25638e-05
3.09818e-05
2.98768e-05
2.92369e-05
2.89655e-05
2.90078e-05
2.92733e-05
2.97433e-05
3.03576e-05
3.11041e-05
3.19536e-05
3.28946e-05
3.39087e-05
0.000227377
0.00022604
0.000224659
0.000223234
0.000221768
0.000220263
0.000218721
0.000217142
0.000215529
0.000213882
0.000212204
0.000210498
0.000208768
0.000207014
0.000205239
0.000203445
0.000201632
0.000199803
0.000197958
0.000196099
0.000194226
0.00019234
0.000190441
0.000188527
0.000186598
0.000184655
0.000182697
0.000180722
0.000178729
0.000176715
0.000174677
0.000172615
0.000170526
0.000168405
0.000166249
0.000164053
0.000161813
0.000159525
0.000157184
0.000154783
0.000152316
0.000149776
0.000147158
0.000144454
0.000141656
0.000138757
0.000135746
0.000132615
0.000129356
0.000125959
0.000122416
0.000118714
0.00011484
0.000110787
0.000106552
0.000102124
9.74944e-05
9.26499e-05
8.76172e-05
8.24256e-05
7.7074e-05
7.15671e-05
6.59769e-05
6.0604e-05
5.51781e-05
4.96509e-05
4.53628e-05
4.14231e-05
3.81425e-05
3.5522e-05
3.33972e-05
3.1918e-05
3.08711e-05
3.02697e-05
2.99832e-05
2.99734e-05
3.01777e-05
3.05603e-05
3.10731e-05
3.16992e-05
3.24122e-05
3.32009e-05
3.40504e-05
3.49499e-05
3.58861e-05
0.000226617
0.00022512
0.000223583
0.000222007
0.000220395
0.000218747
0.000217067
0.000215356
0.000213614
0.000211845
0.00021005
0.000208233
0.000206395
0.000204539
0.000202666
0.000200777
0.000198873
0.000196956
0.000195025
0.000193081
0.000191124
0.000189153
0.000187166
0.000185163
0.000183142
0.000181102
0.000179042
0.000176959
0.00017485
0.000172713
0.000170544
0.000168341
0.0001661
0.000163816
0.000161483
0.000159098
0.000156654