/*--------------------------------*- C++ -*----------------------------------*\
| =========                 |                                                 |
| \\      /  F ield         | OpenFOAM: The Open Source CFD Toolbox           |
|  \\    /   O peration     | Version:  2412                                  |
|   \\  /    A nd           | Website:  www.openfoam.com                      |
|    \\/     M anipulation  |                                                 |
\*---------------------------------------------------------------------------*/
FoamFile
{
    version     2.0;
    format      ascii;
    arch        "LSB;label=32;scalar=64";
    class       volScalarField;
    location    "340";
    object      nut;
}
// * * * * * * * * * * * * * * * * * * * * * * * * * * * * * * * * * * * * * //

dimensions      [0 2 -1 0 0 0 0];

internalField   nonuniform List<scalar> 
7387
(
1.99066e-12
1.89575e-12
1.80356e-12
1.71435e-12
1.62807e-12
1.54476e-12
1.46434e-12
1.38672e-12
1.31186e-12
1.2398e-12
1.17063e-12
1.10442e-12
1.0409e-12
9.80159e-13
9.22309e-13
8.67208e-13
8.1475e-13
7.64934e-13
7.17763e-13
6.73254e-13
6.31263e-13
5.91686e-13
5.54539e-13
5.19661e-13
4.86999e-13
4.56496e-13
4.27982e-13
4.01382e-13
3.76626e-13
3.53609e-13
3.32232e-13
3.12382e-13
2.94e-13
2.76979e-13
2.61232e-13
2.46676e-13
2.3323e-13
2.20826e-13
2.094e-13
1.98876e-13
1.89192e-13
1.80331e-13
1.72236e-13
1.64835e-13
1.58045e-13
1.51854e-13
1.46334e-13
1.41566e-13
1.37515e-13
1.33876e-13
1.30474e-13
1.27216e-13
1.24658e-13
1.23511e-13
1.24085e-13
1.26601e-13
1.29801e-13
1.3231e-13
1.34198e-13
1.34748e-13
1.35654e-13
1.41542e-13
1.56008e-13
1.8335e-13
2.33664e-13
3.33892e-13
4.24909e-13
3.72618e-13
1.76649e-13
2.72665e-14
1.22826e-14
1.62583e-14
1.92144e-10
1.82986e-10
1.74091e-10
1.6548e-10
1.57158e-10
1.4912e-10
1.41357e-10
1.33868e-10
1.26647e-10
1.19695e-10
1.13018e-10
1.0662e-10
1.00491e-10
9.46348e-11
8.90503e-11
8.37311e-11
7.86671e-11
7.38602e-11
6.93092e-11
6.50125e-11
6.09586e-11
5.71382e-11
5.35515e-11
5.01848e-11
4.70319e-11
4.40848e-11
4.1331e-11
3.87636e-11
3.63733e-11
3.41508e-11
3.20871e-11
3.0171e-11
2.83956e-11
2.6752e-11
2.52311e-11
2.38254e-11
2.25274e-11
2.13299e-11
2.0226e-11
1.92096e-11
1.82749e-11
1.74186e-11
1.66367e-11
1.59217e-11
1.5266e-11
1.46679e-11
1.41343e-11
1.36731e-11
1.32806e-11
1.29283e-11
1.25992e-11
1.22844e-11
1.20366e-11
1.19228e-11
1.19728e-11
1.22067e-11
1.25061e-11
1.27423e-11
1.292e-11
1.29727e-11
1.30609e-11
1.36163e-11
1.49756e-11
1.75388e-11
2.22235e-11
3.13537e-11
3.95468e-11
3.50849e-11
1.70465e-11
2.64327e-12
1.1688e-12
1.55321e-12
1.8976e-09
1.80724e-09
1.71949e-09
1.63452e-09
1.5524e-09
1.47311e-09
1.39654e-09
1.32264e-09
1.25139e-09
1.18281e-09
1.11691e-09
1.05373e-09
9.93251e-10
9.35467e-10
8.80338e-10
8.27816e-10
7.77828e-10
7.30382e-10
6.85461e-10
6.43018e-10
6.02969e-10
5.65249e-10
5.29812e-10
4.96554e-10
4.65402e-10
4.3627e-10
4.09058e-10
3.83688e-10
3.60061e-10
3.3809e-10
3.17687e-10
2.98747e-10
2.81194e-10
2.64941e-10
2.49902e-10
2.36e-10
2.23165e-10
2.11321e-10
2.00403e-10
1.90348e-10
1.81101e-10
1.72627e-10
1.64889e-10
1.57812e-10
1.51322e-10
1.45402e-10
1.40114e-10
1.35532e-10
1.31622e-10
1.28118e-10
1.24852e-10
1.21737e-10
1.1927e-10
1.18085e-10
1.18475e-10
1.20617e-10
1.23403e-10
1.25626e-10
1.27297e-10
1.27814e-10
1.28685e-10
1.33925e-10
1.46681e-10
1.70588e-10
2.1383e-10
2.95296e-10
3.67389e-10
3.32748e-10
1.69804e-10
2.72635e-11
1.14179e-11
1.53689e-11
9.47637e-09
9.02601e-09
8.5886e-09
8.16508e-09
7.75567e-09
7.36033e-09
6.97867e-09
6.61032e-09
6.25514e-09
5.91312e-09
5.58444e-09
5.26937e-09
4.96774e-09
4.67948e-09
4.40441e-09
4.14228e-09
3.89287e-09
3.65611e-09
3.43187e-09
3.21992e-09
3.01992e-09
2.83155e-09
2.65449e-09
2.48833e-09
2.33265e-09
2.18704e-09
2.05104e-09
1.92419e-09
1.80606e-09
1.69617e-09
1.5941e-09
1.49935e-09
1.41153e-09
1.3302e-09
1.25493e-09
1.18535e-09
1.12108e-09
1.06179e-09
1.00712e-09
9.56774e-10
9.10458e-10
8.68002e-10
8.29211e-10
7.93734e-10
7.61201e-10
7.3151e-10
7.04956e-10
6.81871e-10
6.6209e-10
6.44389e-10
6.27944e-10
6.12338e-10
5.99859e-10
5.93477e-10
5.94648e-10
6.04121e-10
6.16795e-10
6.27085e-10
6.34809e-10
6.37371e-10
6.4173e-10
6.66146e-10
7.25187e-10
8.34926e-10
1.03092e-09
1.38429e-09
1.69152e-09
1.57091e-09
8.58754e-10
1.51646e-10
5.68236e-11
7.85054e-11
3.39532e-08
3.23452e-08
3.07831e-08
2.92702e-08
2.78076e-08
2.63948e-08
2.5031e-08
2.37148e-08
2.24454e-08
2.12228e-08
2.00477e-08
1.8921e-08
1.78423e-08
1.68111e-08
1.58268e-08
1.48888e-08
1.39961e-08
1.31485e-08
1.23455e-08
1.15863e-08
1.08698e-08
1.01947e-08
9.55994e-09
8.96412e-09
8.40575e-09
7.88339e-09
7.39537e-09
6.94008e-09
6.51599e-09
6.12137e-09
5.75473e-09
5.41436e-09
5.0988e-09
4.80646e-09
4.53588e-09
4.28568e-09
4.05456e-09
3.84129e-09
3.64463e-09
3.46346e-09
3.29677e-09
3.14389e-09
3.00412e-09
2.87626e-09
2.75903e-09
2.652e-09
2.5561e-09
2.47235e-09
2.40025e-09
2.3358e-09
2.27616e-09
2.21993e-09
2.1744e-09
2.14932e-09
2.14979e-09
2.17798e-09
2.21758e-09
2.25058e-09
2.27535e-09
2.28432e-09
2.29993e-09
2.37963e-09
2.57042e-09
2.92172e-09
3.54088e-09
4.59956e-09
5.49903e-09
5.2408e-09
3.11401e-09
6.402e-10
2.06514e-10
2.96529e-10
9.99516e-08
9.52429e-08
9.06681e-08
8.62349e-08
8.19478e-08
7.78059e-08
7.3807e-08
6.99475e-08
6.62244e-08
6.26376e-08
5.91896e-08
5.58819e-08
5.2714e-08
4.96851e-08
4.67931e-08
4.40363e-08
4.14122e-08
3.89197e-08
3.65572e-08
3.43229e-08
3.22134e-08
3.02252e-08
2.83552e-08
2.6599e-08
2.49526e-08
2.34118e-08
2.19719e-08
2.06281e-08
1.93759e-08
1.82104e-08
1.71271e-08
1.61212e-08
1.51883e-08
1.43238e-08
1.35233e-08
1.2783e-08
1.2099e-08
1.14675e-08
1.08851e-08
1.03484e-08
9.85447e-09
9.40124e-09
8.98649e-09
8.60694e-09
8.25903e-09
7.94128e-09
7.6558e-09
7.40521e-09
7.18814e-09
6.99432e-09
6.81584e-09
6.64882e-09
6.51163e-09
6.4296e-09
6.4173e-09
6.47932e-09
6.57464e-09
6.65741e-09
6.71977e-09
6.74488e-09
6.79048e-09
6.99863e-09
7.48975e-09
8.38471e-09
9.9433e-09
1.24477e-08
1.45095e-08
1.41599e-08
9.22215e-09
2.29914e-09
6.44205e-10
9.48484e-10
2.58343e-07
2.46268e-07
2.34532e-07
2.23152e-07
2.12141e-07
2.01501e-07
1.91225e-07
1.81304e-07
1.71733e-07
1.62507e-07
1.53634e-07
1.45118e-07
1.36958e-07
1.29152e-07
1.21698e-07
1.14588e-07
1.07817e-07
1.01383e-07
9.52816e-08
8.95075e-08
8.4053e-08
7.89103e-08
7.40705e-08
6.95228e-08
6.52573e-08
6.12633e-08
5.75288e-08
5.40421e-08
5.07914e-08
4.77644e-08
4.49496e-08
4.23348e-08
3.99085e-08
3.76594e-08
3.55762e-08
3.36487e-08
3.18669e-08
3.02214e-08
2.87031e-08
2.73035e-08
2.60149e-08
2.48316e-08
2.37477e-08
2.27554e-08
2.18459e-08
2.10148e-08
2.02658e-08
1.96042e-08
1.9027e-08
1.85121e-08
1.80405e-08
1.76032e-08
1.72381e-08
1.70002e-08
1.69255e-08
1.70211e-08
1.72015e-08
1.73698e-08
1.74977e-08
1.75567e-08
1.76729e-08
1.81353e-08
1.92035e-08
2.11299e-08
2.44572e-08
2.94296e-08
3.33354e-08
3.3162e-08
2.37159e-08
7.38283e-09
1.88729e-09
2.70219e-09
6.08321e-07
5.80205e-07
5.52864e-07
5.2633e-07
5.00642e-07
4.75806e-07
4.51806e-07
4.28627e-07
4.06254e-07
3.84678e-07
3.6391e-07
3.43966e-07
3.24843e-07
3.06539e-07
2.89048e-07
2.72356e-07
2.5645e-07
2.41324e-07
2.26968e-07
2.13373e-07
2.00522e-07
1.88395e-07
1.76975e-07
1.66237e-07
1.56159e-07
1.46716e-07
1.37879e-07
1.29623e-07
1.21921e-07
1.14745e-07
1.08067e-07
1.0186e-07
9.60975e-08
9.07527e-08
8.57994e-08
8.12136e-08
7.69723e-08
7.30535e-08
6.94358e-08
6.6099e-08
6.30251e-08
6.01996e-08
5.76091e-08
5.52358e-08
5.30601e-08
5.10707e-08
4.92715e-08
4.76712e-08
4.62636e-08
4.5008e-08
4.38654e-08
4.28164e-08
4.19247e-08
4.12912e-08
4.0995e-08
4.10418e-08
4.12833e-08
4.15494e-08
4.17569e-08
4.18733e-08
4.2139e-08
4.30381e-08
4.50473e-08
4.8636e-08
5.48354e-08
6.33343e-08
6.94995e-08
7.00336e-08
5.47474e-08
2.16739e-08
5.28392e-09
6.99142e-09
1.33414e-06
1.27342e-06
1.21432e-06
1.15692e-06
1.10129e-06
1.04748e-06
9.95433e-07
9.45137e-07
8.96559e-07
8.49677e-07
8.04509e-07
7.61091e-07
7.19428e-07
6.79512e-07
6.41336e-07
6.04873e-07
5.70098e-07
5.36995e-07
5.05547e-07
4.75736e-07
4.47528e-07
4.20885e-07
3.95769e-07
3.72133e-07
3.49927e-07
3.29099e-07
3.09592e-07
2.9135e-07
2.74318e-07
2.58434e-07
2.43641e-07
2.29878e-07
2.17091e-07
2.05222e-07
1.94214e-07
1.84016e-07
1.74577e-07
1.65849e-07
1.57787e-07
1.50345e-07
1.43485e-07
1.37172e-07
1.31376e-07
1.26061e-07
1.21188e-07
1.16729e-07
1.1268e-07
1.09049e-07
1.05827e-07
1.02952e-07
1.00352e-07
9.79901e-08
9.59448e-08
9.43631e-08
9.34019e-08
9.30506e-08
9.311e-08
9.335e-08
9.35604e-08
9.37399e-08
9.42918e-08
9.58287e-08
9.90735e-08
1.04829e-07
1.14967e-07
1.27441e-07
1.35125e-07
1.36883e-07
1.15836e-07
5.75549e-08
1.4235e-08
1.65109e-08
2.76282e-06
2.63963e-06
2.51962e-06
2.40289e-06
2.28965e-06
2.17998e-06
2.07382e-06
1.97115e-06
1.87189e-06
1.77599e-06
1.6835e-06
1.59448e-06
1.50896e-06
1.42693e-06
1.34839e-06
1.27329e-06
1.20158e-06
1.13324e-06
1.06823e-06
1.00652e-06
9.48061e-07
8.92773e-07
8.40588e-07
7.91414e-07
7.45157e-07
7.01718e-07
6.60984e-07
6.22849e-07
5.87197e-07
5.53912e-07
5.22878e-07
4.93975e-07
4.67091e-07
4.42112e-07
4.18923e-07
3.97418e-07
3.77496e-07
3.59058e-07
3.4201e-07
3.26261e-07
3.11727e-07
2.98335e-07
2.86019e-07
2.74713e-07
2.64344e-07
2.54844e-07
2.46178e-07
2.38339e-07
2.31313e-07
2.25038e-07
2.19399e-07
2.14332e-07
2.09859e-07
2.06108e-07
2.03352e-07
2.01535e-07
2.00523e-07
2.00164e-07
1.99995e-07
2.00141e-07
2.01177e-07
2.03419e-07
2.07636e-07
2.15148e-07
2.29374e-07
2.44398e-07
2.49911e-07
2.52381e-07
2.28126e-07
1.39264e-07
3.72245e-08
3.75436e-08
5.4447e-06
5.20884e-06
4.97865e-06
4.75434e-06
4.53634e-06
4.3249e-06
4.11995e-06
3.92144e-06
3.72929e-06
3.54338e-06
3.36378e-06
3.19063e-06
3.02402e-06
2.86398e-06
2.71051e-06
2.56353e-06
2.42298e-06
2.28881e-06
2.16098e-06
2.03944e-06
1.9241e-06
1.81484e-06
1.71155e-06
1.61406e-06
1.52222e-06
1.43582e-06
1.35469e-06
1.27861e-06
1.20738e-06
1.14078e-06
1.07859e-06
1.0206e-06
9.66585e-07
9.1633e-07
8.69617e-07
8.26242e-07
7.8601e-07
7.48728e-07
7.14217e-07
6.82302e-07
6.52811e-07
6.25593e-07
6.00513e-07
5.77458e-07
5.56299e-07
5.36885e-07
5.19087e-07
5.02834e-07
4.8811e-07
4.74934e-07
4.63169e-07
4.52707e-07
4.43284e-07
4.34764e-07
4.27526e-07
4.21436e-07
4.16821e-07
4.14085e-07
4.12329e-07
4.12007e-07
4.13712e-07
4.16151e-07
4.19299e-07
4.25386e-07
4.41032e-07
4.53283e-07
4.46688e-07
4.45742e-07
4.25555e-07
3.08325e-07
9.47694e-08
8.68692e-08
1.02272e-05
9.80366e-06
9.38906e-06
8.98373e-06
8.5886e-06
8.20429e-06
7.83081e-06
7.46816e-06
7.11627e-06
6.77498e-06
6.44441e-06
6.12488e-06
5.81665e-06
5.51987e-06
5.23461e-06
4.96079e-06
4.69836e-06
4.44725e-06
4.20746e-06
3.97895e-06
3.7616e-06
3.55526e-06
3.35977e-06
3.17486e-06
3.00029e-06
2.83576e-06
2.68092e-06
2.53545e-06
2.39898e-06
2.27115e-06
2.15158e-06
2.03986e-06
1.93563e-06
1.83849e-06
1.74806e-06
1.66396e-06
1.58583e-06
1.51332e-06
1.44609e-06
1.38384e-06
1.32623e-06
1.27295e-06
1.22375e-06
1.17844e-06
1.13681e-06
1.09855e-06
1.06328e-06
1.03075e-06
1.00093e-06
9.74186e-07
9.50443e-07
9.29527e-07
9.10292e-07
8.91646e-07
8.73875e-07
8.5682e-07
8.4231e-07
8.32548e-07
8.26024e-07
8.23901e-07
8.26143e-07
8.26569e-07
8.22055e-07
8.16907e-07
8.25136e-07
8.23264e-07
7.82514e-07
7.64196e-07
7.60743e-07
6.29617e-07
2.35566e-07
2.02241e-07
1.82055e-05
1.75049e-05
1.68157e-05
1.61384e-05
1.54749e-05
1.48265e-05
1.41936e-05
1.35763e-05
1.29748e-05
1.2389e-05
1.1819e-05
1.12656e-05
1.07296e-05
1.02113e-05
9.71114e-06
9.22919e-06
8.76553e-06
8.3202e-06
7.89337e-06
7.48512e-06
7.09544e-06
6.72426e-06
6.37142e-06
6.0366e-06
5.71952e-06
5.41977e-06
5.13687e-06
4.87036e-06
4.61966e-06
4.38421e-06
4.16342e-06
3.95666e-06
3.7633e-06
3.5827e-06
3.41422e-06
3.25721e-06
3.11106e-06
2.97515e-06
2.84892e-06
2.73182e-06
2.62322e-06
2.52256e-06
2.42937e-06
2.34336e-06
2.26424e-06
2.19135e-06
2.12375e-06
2.0607e-06
2.00227e-06
1.94966e-06
1.9032e-06
1.8626e-06
1.82442e-06
1.78496e-06
1.74377e-06
1.70094e-06
1.66229e-06
1.63464e-06
1.61587e-06
1.60853e-06
1.61001e-06
1.60191e-06
1.57285e-06
1.53286e-06
1.51468e-06
1.48392e-06
1.36408e-06
1.28762e-06
1.31452e-06
1.19996e-06
5.72823e-07
4.69402e-07
3.14916e-05
3.04271e-05
2.9375e-05
2.83337e-05
2.73042e-05
2.62893e-05
2.52915e-05
2.43117e-05
2.33507e-05
2.2409e-05
2.14863e-05
2.05831e-05
1.97008e-05
1.88408e-05
1.80044e-05
1.71924e-05
1.64055e-05
1.5644e-05
1.49083e-05
1.41991e-05
1.3517e-05
1.28622e-05
1.22352e-05
1.16359e-05
1.10644e-05
1.05205e-05
1.00039e-05
9.51403e-06
9.05053e-06
8.61269e-06
8.19983e-06
7.81116e-06
7.44587e-06
7.10304e-06
6.78179e-06
6.48116e-06
6.20016e-06
5.93783e-06
5.69321e-06
5.46542e-06
5.25357e-06
5.0566e-06
4.87347e-06
4.70338e-06
4.54598e-06
4.4009e-06
4.26688e-06
4.14172e-06
4.02365e-06
3.91294e-06
3.81283e-06
3.72481e-06
3.64832e-06
3.57471e-06
3.49413e-06
3.40372e-06
3.30466e-06
3.21215e-06
3.14337e-06
3.09618e-06
3.07571e-06
3.07204e-06
3.03956e-06
2.94845e-06
2.82555e-06
2.75524e-06
2.71348e-06
2.42495e-06
2.15927e-06
2.22467e-06
2.16373e-06
1.36315e-06
1.07826e-06
4.893e-05
4.74865e-05
4.60519e-05
4.46241e-05
4.32039e-05
4.17949e-05
4.04012e-05
3.90245e-05
3.7666e-05
3.63267e-05
3.50064e-05
3.37056e-05
3.24263e-05
3.11709e-05
2.99416e-05
2.87401e-05
2.75677e-05
2.64255e-05
2.53143e-05
2.42356e-05
2.31906e-05
2.21804e-05
2.12062e-05
2.02687e-05
1.93684e-05
1.85058e-05
1.76809e-05
1.68937e-05
1.61441e-05
1.54316e-05
1.47558e-05
1.41158e-05
1.3511e-05
1.29403e-05
1.24029e-05
1.18974e-05
1.14228e-05
1.09778e-05
1.0561e-05
1.01713e-05
9.80749e-06
9.46795e-06
9.15096e-06
8.85523e-06
8.58052e-06
8.32654e-06
8.09106e-06
7.86949e-06
7.658e-06
7.45724e-06
7.27462e-06
7.11436e-06
6.97558e-06
6.83914e-06
6.6824e-06
6.49635e-06
6.28476e-06
6.08206e-06
5.92659e-06
5.81836e-06
5.76756e-06
5.74783e-06
5.65919e-06
5.43573e-06
5.15205e-06
5.04945e-06
5.1534e-06
4.5779e-06
3.66306e-06
3.73275e-06
3.7399e-06
2.99846e-06
2.43707e-06
7.11228e-05
6.93197e-05
6.75216e-05
6.57242e-05
6.39272e-05
6.21349e-05
6.03525e-05
5.85826e-05
5.6827e-05
5.50872e-05
5.33627e-05
5.16537e-05
4.99628e-05
4.82931e-05
4.66477e-05
4.50296e-05
4.34404e-05
4.1882e-05
4.03557e-05
3.88639e-05
3.74086e-05
3.59919e-05
3.46157e-05
3.32819e-05
3.19919e-05
3.07467e-05
2.95476e-05
2.83951e-05
2.72897e-05
2.62316e-05
2.52209e-05
2.42573e-05
2.33405e-05
2.24698e-05
2.16445e-05
2.08635e-05
2.01258e-05
1.94299e-05
1.87745e-05
1.81585e-05
1.75803e-05
1.70378e-05
1.65286e-05
1.60509e-05
1.56049e-05
1.51906e-05
1.48046e-05
1.44388e-05
1.40855e-05
1.37459e-05
1.34341e-05
1.31598e-05
1.29225e-05
1.26859e-05
1.24047e-05
1.20566e-05
1.16483e-05
1.12462e-05
1.09266e-05
1.06983e-05
1.05818e-05
1.05243e-05
1.03334e-05
9.88252e-06
9.37117e-06
9.40424e-06
9.78896e-06
8.76608e-06
6.53227e-06
6.26793e-06
6.2644e-06
5.84018e-06
5.39414e-06
9.74736e-05
9.53554e-05
9.3242e-05
9.11239e-05
8.89987e-05
8.68708e-05
8.47466e-05
8.26291e-05
8.05208e-05
7.84234e-05
7.6336e-05
7.42584e-05
7.2193e-05
7.01435e-05
6.81139e-05
6.61077e-05
6.41274e-05
6.21752e-05
6.02528e-05
5.8363e-05
5.65087e-05
5.46928e-05
5.29181e-05
5.11875e-05
4.9503e-05
4.7867e-05
4.62814e-05
4.47477e-05
4.32672e-05
4.1841e-05
4.04699e-05
3.91544e-05
3.78949e-05
3.66912e-05
3.55433e-05
3.44505e-05
3.34121e-05
3.24269e-05
3.14938e-05
3.06117e-05
2.97794e-05
2.89943e-05
2.82535e-05
2.75545e-05
2.68979e-05
2.6285e-05
2.57112e-05
2.51641e-05
2.46312e-05
2.41124e-05
2.36303e-05
2.32028e-05
2.28321e-05
2.24626e-05
2.20175e-05
2.14508e-05
2.07664e-05
2.00682e-05
1.94872e-05
1.90541e-05
1.88108e-05
1.86816e-05
1.83569e-05
1.76254e-05
1.69036e-05
1.72126e-05
1.79964e-05
1.63395e-05
1.20991e-05
1.05377e-05
1.02495e-05
1.03438e-05
1.16075e-05
0.000127311
0.000124918
0.000122534
0.000120143
0.00011774
0.000115328
0.000112915
0.000110505
0.0001081
0.000105703
0.000103311
0.000100925
9.85451e-05
9.61767e-05
9.38236e-05
9.14903e-05
8.91791e-05
8.68927e-05
8.46329e-05
8.24027e-05
8.02054e-05
7.80443e-05
7.5923e-05
7.3845e-05
7.18132e-05
6.98305e-05
6.78997e-05
6.60229e-05
6.42024e-05
6.244e-05
6.07372e-05
5.90955e-05
5.75157e-05
5.59986e-05
5.45447e-05
5.31539e-05
5.18261e-05
5.05606e-05
4.93563e-05
4.82128e-05
4.7129e-05
4.61025e-05
4.51297e-05
4.42078e-05
4.33376e-05
4.25213e-05
4.17546e-05
4.10216e-05
4.03041e-05
3.95993e-05
3.89352e-05
3.83391e-05
3.78199e-05
3.73099e-05
3.67018e-05
3.592e-05
3.49491e-05
3.39176e-05
3.3011e-05
3.22968e-05
3.18521e-05
3.16127e-05
3.11796e-05
3.02416e-05
2.93811e-05
3.00358e-05
3.13105e-05
2.88757e-05
2.19811e-05
1.75712e-05
1.64461e-05
1.70141e-05
2.1495e-05
0.000160261
0.000157609
0.000154972
0.00015233
0.000149673
0.000147005
0.000144335
0.000141665
0.000139
0.000136343
0.00013369
0.00013104
0.000128395
0.000125759
0.000123137
0.000120532
0.000117949
0.000115389
0.000112854
0.000110347
0.000107872
0.000105432
0.000103031
0.000100673
9.83607e-05
9.60982e-05
9.38885e-05
9.17343e-05
8.96383e-05
8.76027e-05
8.56299e-05
8.37216e-05
8.18794e-05
8.01046e-05
7.83982e-05
7.67607e-05
7.51924e-05
7.3693e-05
7.22619e-05
7.08988e-05
6.96031e-05
6.83726e-05
6.72035e-05
6.60923e-05
6.50399e-05
6.40492e-05
6.3117e-05
6.22259e-05
6.13538e-05
6.04925e-05
5.96709e-05
5.89226e-05
5.82666e-05
5.76376e-05
5.69108e-05
5.59865e-05
5.48112e-05
5.3513e-05
5.23049e-05
5.12943e-05
5.06e-05
5.0223e-05
4.97619e-05
4.88315e-05
4.79997e-05
4.90019e-05
5.07834e-05
4.75997e-05
3.78167e-05
2.87343e-05
2.59933e-05
2.64301e-05
3.45754e-05
0.000196401
0.000193471
0.000190567
0.000187661
0.000184743
0.000181813
0.000178882
0.000175954
0.000173032
0.00017012
0.000167216
0.000164316
0.000161422
0.000158538
0.000155669
0.00015282
0.000149994
0.000147193
0.000144419
0.000141675
0.000138964
0.00013629
0.000133657
0.000131068
0.000128528
0.00012604
0.000123607
0.000121233
0.000118919
0.00011667
0.000114486
0.000112371
0.000110327
0.000108353
0.000106453
0.000104627
0.000102876
0.000101199
9.95954e-05
9.80659e-05
9.661e-05
9.52257e-05
9.39091e-05
9.26563e-05
9.14675e-05
9.03461e-05
8.92901e-05
8.82834e-05
8.73018e-05
8.63315e-05
8.53965e-05
8.45329e-05
8.37694e-05
8.30568e-05
8.22704e-05
8.12975e-05
8.00467e-05
7.86162e-05
7.72114e-05
7.59658e-05
7.5033e-05
7.45153e-05
7.41053e-05
7.34179e-05
7.28769e-05
7.42078e-05
7.63861e-05
7.26374e-05
6.04126e-05
4.56826e-05
4.01687e-05
3.92787e-05
5.02835e-05
0.00023623
0.000232977
0.000229763
0.000226555
0.000223337
0.00022011
0.000216885
0.000213666
0.000210458
0.000207265
0.000204085
0.000200914
0.000197753
0.000194605
0.000191477
0.000188373
0.000185297
0.000182252
0.000179239
0.00017626
0.00017332
0.000170421
0.000167568
0.000164764
0.000162014
0.000159322
0.000156689
0.00015412
0.000151618
0.000149184
0.000146823
0.000144535
0.000142322
0.000140187
0.000138131
0.000136154
0.000134258
0.000132442
0.000130705
0.000129048
0.000127471
0.000125971
0.000124544
0.000123187
0.000121899
0.000120683
0.000119538
0.00011845
0.000117397
0.000116358
0.000115351
0.000114408
0.000113567
0.000112801
0.000112
0.00011105
0.000109831
0.000108396
0.000106919
0.000105538
0.000104425
0.000103788
0.000103466
0.000103145
0.000103104
0.000104796
0.000107222
0.000103115
8.92923e-05
7.00503e-05
6.01483e-05
5.62882e-05
6.8292e-05
0.00028057
0.000276932
0.000273347
0.000269776
0.000266201
0.00026262
0.000259045
0.000255482
0.000251935
0.00024841
0.000244905
0.000241415
0.000237941
0.000234487
0.000231058
0.00022766
0.000224298
0.000220974
0.000217689
0.000214446
0.000211249
0.000208101
0.000205006
0.000201969
0.000198992
0.000196081
0.000193237
0.000190465
0.000187767
0.000185146
0.000182604
0.000180144
0.000177767
0.000175474
0.000173267
0.000171148
0.000169115
0.00016717
0.000165312
0.00016354
0.000161853
0.00016025
0.000158728
0.000157282
0.00015591
0.000154614
0.000153395
0.000152243
0.000151135
0.000150049
0.000148991
0.000147991
0.000147091
0.000146287
0.000145491
0.000144597
0.000143465
0.000142105
0.000140645
0.000139216
0.000137993
0.000137268
0.000137033
0.000137083
0.000137605
0.000139716
0.000142303
0.000137969
0.000123285
0.000101322
8.63529e-05
7.80604e-05
8.86806e-05
0.000330486
0.00032639
0.000322358
0.000318353
0.00031435
0.000310345
0.000306351
0.000302374
0.000298421
0.000294498
0.000290602
0.00028673
0.00028288
0.000279057
0.000275267
0.000271517
0.000267811
0.000264152
0.000260542
0.000256983
0.000253479
0.000250033
0.00024665
0.000243334
0.000240089
0.000236918
0.000233826
0.000230815
0.000227888
0.000225047
0.000222296
0.000219636
0.000217069
0.000214595
0.000212217
0.000209935
0.000207749
0.000205659
0.000203665
0.000201764
0.000199957
0.000198242
0.000196615
0.000195072
0.000193609
0.000192228
0.000190931
0.000189711
0.000188546
0.000187412
0.000186307
0.000185255
0.000184299
0.000183457
0.000182664
0.000181828
0.0001808
0.000179541
0.000178144
0.000176719
0.000175438
0.000174654
0.000174493
0.000174863
0.000175912
0.000178469
0.000181203
0.00017667
0.00016149
0.000138161
0.000118278
0.000104942
0.000111871
0.000387238
0.0003826
0.000378041
0.000373521
0.000369009
0.000364503
0.000360011
0.000355544
0.000351108
0.000346709
0.000342348
0.000338019
0.000333721
0.000329457
0.000325235
0.000321061
0.000316941
0.000312879
0.000308877
0.000304936
0.000301061
0.000297255
0.000293522
0.000289868
0.000286296
0.00028281
0.000279415
0.000276112
0.000272905
0.000269796
0.000266788
0.000263883
0.000261082
0.000258387
0.000255798
0.000253315
0.00025094
0.000248671
0.000246508
0.000244449
0.000242493
0.000240638
0.000238882
0.000237218
0.000235642
0.000234156
0.000232761
0.000231455
0.000230217
0.000229021
0.000227857
0.000226743
0.000225723
0.000224834
0.000224032
0.00022324
0.000222311
0.000221148
0.000219826
0.00021843
0.00021712
0.000216299
0.000216201
0.000216836
0.000218349
0.000221346
0.000224222
0.000219436
0.000203775
0.000179484
0.000155725
0.000136986
0.000138442
0.000452261
0.000446996
0.000441822
0.000436699
0.000431596
0.000426503
0.000421431
0.00041639
0.000411388
0.000406433
0.000401525
0.000396658
0.000391832
0.000387049
0.000382316
0.000377642
0.000373033
0.000368492
0.000364023
0.000359627
0.000355309
0.000351072
0.00034692
0.000342859
0.000338894
0.000335027
0.000331264
0.000327607
0.000324059
0.000320623
0.000317301
0.000314095
0.000311007
0.000308037
0.000305187
0.000302456
0.000299845
0.000297353
0.000294979
0.00029272
0.000290576
0.000288545
0.000286623
0.000284805
0.000283086
0.000281464
0.000279945
0.000278525
0.00027719
0.000275909
0.000274667
0.000273474
0.000272376
0.000271424
0.000270595
0.000269828
0.000268981
0.000267901
0.00026665
0.000265289
0.000263967
0.000263122
0.000263082
0.000263943
0.00026586
0.000269261
0.000272248
0.000267092
0.000250754
0.000225277
0.000198085
0.000174124
0.000168971
0.000527176
0.000521194
0.000515312
0.000509497
0.000503713
0.000497947
0.000492208
0.000486506
0.000480852
0.000475254
0.000469714
0.000464227
0.000458789
0.000453403
0.000448079
0.000442823
0.000437643
0.000432545
0.00042753
0.000422602
0.000417764
0.00041302
0.000408375
0.000403835
0.000399404
0.000395086
0.000390886
0.000386807
0.000382852
0.000379024
0.000375325
0.000371757
0.000368322
0.00036502
0.000361852
0.000358819
0.000355919
0.000353153
0.000350519
0.000348014
0.000345637
0.000343386
0.000341259
0.000339248
0.000337347
0.000335556
0.000333878
0.000332315
0.000330853
0.000329461
0.000328116
0.000326824
0.000325628
0.000324595
0.000323721
0.000322958
0.000322171
0.000321168
0.000319976
0.000318649
0.00031732
0.000316457
0.000316472
0.000317532
0.000319797
0.000323541
0.000326557
0.000320878
0.000303578
0.000276438
0.000245844
0.00021653
0.000204468
0.000620678
0.000613793
0.000607002
0.000600321
0.000593721
0.000587166
0.000580637
0.000574142
0.000567692
0.000561297
0.000554969
0.000548709
0.000542514
0.000536379
0.000530307
0.000524306
0.000518384
0.000512551
0.000506812
0.000501171
0.000495629
0.000490192
0.000484863
0.000479648
0.000474552
0.00046958
0.000464738
0.000460028
0.000455456
0.000451024
0.000446736
0.000442593
0.000438598
0.000434752
0.000431056
0.000427511
0.000424117
0.000420873
0.000417778
0.000414831
0.000412029
0.00040937
0.000406853
0.000404475
0.000402229
0.000400107
0.000398108
0.000396236
0.000394495
0.000392874
0.000391341
0.000389867
0.000388451
0.000387136
0.000386003
0.000385066
0.000384289
0.000383539
0.000382611
0.000381465
0.000380166
0.000378829
0.000377944
0.000378008
0.00037924
0.000381788
0.000385781
0.00038869
0.000382336
0.000363736
0.000334391
0.000300054
0.000265279
0.000246009
0.000721907
0.000714118
0.000706429
0.000698856
0.000691382
0.000683966
0.000676587
0.000669248
0.000661962
0.000654739
0.000647591
0.000640525
0.000633535
0.000626616
0.000619771
0.000613008
0.000606336
0.000599765
0.000593302
0.00058695
0.000580713
0.000574595
0.0005686
0.000562735
0.000557005
0.000551415
0.000545971
0.000540677
0.000535538
0.000530557
0.000525737
0.000521081
0.00051659
0.000512267
0.000508113
0.000504127
0.00050031
0.000496662
0.000493181
0.000489865
0.000486712
0.00048372
0.000480887
0.00047821
0.000475682
0.000473295
0.000471047
0.000468941
0.000466986
0.000465172
0.000463466
0.000461833
0.000460267
0.000458811
0.000457558
0.000456538
0.000455728
0.000454996
0.000454118
0.000453027
0.000451751
0.000450402
0.000449473
0.000449569
0.000450933
0.000453684
0.000457789
0.000460402
0.000453288
0.000432964
0.000400848
0.000362143
0.000321256
0.000294144
0.000839101
0.000830332
0.000821663
0.000813118
0.000804685
0.000796326
0.000788014
0.00077975
0.000771545
0.00076341
0.00075536
0.000747402
0.000739531
0.000731745
0.000724043
0.000716434
0.000708928
0.000701534
0.000694263
0.000687117
0.000680101
0.00067322
0.000666479
0.000659883
0.000653438
0.000647151
0.000641027
0.000635072
0.00062929
0.000623684
0.000618259
0.000613017
0.000607961
0.000603091
0.00059841
0.000593917
0.000589613
0.000585497
0.000581568
0.000577825
0.000574263
0.000570881
0.000567678
0.000564651
0.000561793
0.000559094
0.000556552
0.000554171
0.000551961
0.000549917
0.000548003
0.000546178
0.000544434
0.000542812
0.000541417
0.000540293
0.000539432
0.000538698
0.000537847
0.000536787
0.000535522
0.000534157
0.000533172
0.000533272
0.00053471
0.000537549
0.000541583
0.000543661
0.000535752
0.000513184
0.000477694
0.000433812
0.000385872
0.000349552
0.000974556
0.000964745
0.000955038
0.000945457
0.000935999
0.000926629
0.000917316
0.000908058
0.000898863
0.000889745
0.000880717
0.000871791
0.000862964
0.000854231
0.000845595
0.000837061
0.000828641
0.000820346
0.000812185
0.000804165
0.00079629
0.000788565
0.000780996
0.000773589
0.00076635
0.000759287
0.000752405
0.00074571
0.000739207
0.000732901
0.000726796
0.000720893
0.000715197
0.000709709
0.00070443
0.000699361
0.000694502
0.000689852
0.000685411
0.000681176
0.000677145
0.000673315
0.000669685
0.000666252
0.00066301
0.000659949
0.000657064
0.000654362
0.000651855
0.000649539
0.000647379
0.00064533
0.000643375
0.000641557
0.000639995
0.000638746
0.000637812
0.000637055
0.000636209
0.000635157
0.000633884
0.000632489
0.000631429
0.000631485
0.000632908
0.000635686
0.000639415
0.00064064
0.000631502
0.00060645
0.000566971
0.000516899
0.000460679
0.000413657
0.00113057
0.0011197
0.00110893
0.00109829
0.00108777
0.00107735
0.001067
0.0010567
0.00104647
0.00103632
0.00102626
0.0010163
0.00100646
0.000996719
0.000987084
0.00097756
0.000968159
0.000958892
0.000949771
0.000940804
0.000931996
0.000923353
0.000914881
0.000906587
0.000898479
0.000890563
0.000882847
0.000875336
0.000868037
0.000860954
0.000854093
0.000847456
0.000841046
0.000834866
0.000828918
0.000823201
0.000817717
0.000812465
0.000807444
0.000802652
0.000798086
0.000793745
0.000789627
0.00078573
0.000782048
0.000778571
0.000775292
0.000772219
0.000769367
0.000766736
0.000764289
0.000761975
0.000759774
0.00075773
0.000755972
0.000754572
0.000753541
0.000752739
0.000751872
0.000750805
0.000749506
0.000748059
0.000746907
0.000746842
0.000748133
0.000750659
0.000753788
0.000753769
0.000743024
0.000715115
0.000670863
0.000613342
0.00054727
0.000487725
0.00130928
0.00129741
0.00128562
0.00127394
0.00126238
0.00125092
0.00123953
0.00122819
0.00121692
0.00120572
0.00119461
0.00118361
0.00117271
0.00116193
0.00115126
0.0011407
0.00113028
0.00111999
0.00110986
0.00109989
0.00109009
0.00108047
0.00107103
0.00106179
0.00105274
0.00104391
0.00103529
0.00102689
0.00101873
0.0010108
0.00100311
0.000995667
0.000988473
0.00098153
0.000974841
0.000968407
0.000962228
0.000956304
0.000950636
0.00094522
0.000940055
0.000935138
0.00093047
0.000926048
0.000921866
0.000917915
0.000914187
0.00091069
0.000907444
0.00090445
0.000901671
0.00089905
0.000896565
0.000894258
0.000892273
0.000890694
0.000889537
0.000888659
0.000887753
0.000886647
0.000885295
0.000883775
0.000882563
0.000882243
0.000883248
0.000885297
0.000887481
0.000885692
0.000872949
0.000841705
0.000791644
0.000725099
0.000647225
0.000572935
0.00151243
0.0014997
0.00148702
0.00147442
0.00146192
0.0014495
0.00143715
0.00142484
0.00141258
0.00140038
0.00138826
0.00137623
0.00136431
0.0013525
0.0013408
0.00132921
0.00131775
0.00130643
0.00129526
0.00128427
0.00127345
0.00126282
0.00125238
0.00124214
0.00123212
0.00122232
0.00121274
0.00120341
0.00119433
0.00118549
0.00117692
0.00116861
0.00116057
0.0011528
0.00114531
0.00113809
0.00113115
0.00112449
0.00111811
0.00111201
0.00110618
0.00110063
0.00109534
0.00109034
0.0010856
0.00108111
0.00107688
0.00107291
0.00106921
0.00106581
0.00106265
0.00105968
0.00105686
0.00105426
0.00105201
0.00105021
0.0010489
0.00104792
0.00104695
0.00104578
0.00104436
0.00104274
0.00104142
0.00104077
0.00104134
0.00104266
0.00104348
0.00103919
0.00102389
0.000988799
0.000931556
0.000854062
0.000762058
0.000670346
0.0017411
0.00172777
0.00171445
0.00170114
0.0016879
0.00167471
0.00166156
0.00164843
0.00163533
0.00162226
0.00160925
0.00159631
0.00158345
0.00157069
0.00155803
0.00154547
0.00153303
0.00152072
0.00150856
0.00149657
0.00148475
0.00147311
0.00146168
0.00145045
0.00143943
0.00142865
0.00141811
0.00140782
0.00139778
0.00138801
0.00137852
0.0013693
0.00136037
0.00135173
0.00134339
0.00133534
0.00132759
0.00132014
0.001313
0.00130615
0.0012996
0.00129335
0.0012874
0.00128175
0.0012764
0.00127133
0.00126653
0.00126203
0.00125783
0.00125396
0.00125038
0.00124701
0.00124383
0.00124089
0.00123833
0.00123628
0.00123478
0.00123367