/*--------------------------------*- C++ -*----------------------------------*\
| =========                 |                                                 |
| \\      /  F ield         | OpenFOAM: The Open Source CFD Toolbox           |
|  \\    /   O peration     | Version:  2412                                  |
|   \\  /    A nd           | Website:  www.openfoam.com                      |
|    \\/     M anipulation  |                                                 |
\*---------------------------------------------------------------------------*/
FoamFile
{
    version     2.0;
    format      ascii;
    arch        "LSB;label=32;scalar=64";
    class       volScalarField;
    location    "340";
    object      p;
}
// * * * * * * * * * * * * * * * * * * * * * * * * * * * * * * * * * * * * * //

dimensions      [0 2 -2 0 0 0 0];

internalField   nonuniform List<scalar> 
8702
(
-107.805
-103.633
-99.5375
-95.5123
-91.5577
-87.678
-83.8649
-80.1163
-76.4338
-72.8175
-69.2573
-65.7608
-62.3261
-58.9536
-55.6405
-52.3872
-49.201
-46.0811
-43.0241
-40.0379
-37.1211
-34.2755
-31.5092
-28.8248
-26.211
-23.6762
-21.221
-18.8473
-16.5496
-14.3241
-12.1751
-10.0925
-8.0744
-6.11815
-4.22019
-2.37657
-0.582963
1.16558
2.87382
4.54608
6.18719
7.80214
9.3961
10.9742
12.5407
14.1
15.6565
17.214
18.7757
20.345
21.9229
23.5116
25.1136
26.7286
28.3587
30.0055
31.6698
33.3518
35.0505
36.7646
38.4925
40.2331
41.9829
43.7354
45.4828
47.2153
48.9261
50.6112
52.2739
53.8952
55.4535
56.9281
58.3148
59.6627
60.9816
62.3251
63.5957
64.694
65.5911
66.1064
66.4385
66.7981
-107.805
-103.633
-99.5375
-95.5123
-91.5577
-87.678
-83.8649
-80.1163
-76.4338
-72.8175
-69.2573
-65.7608
-62.3261
-58.9536
-55.6405
-52.3872
-49.201
-46.0811
-43.0241
-40.0379
-37.1211
-34.2755
-31.5092
-28.8248
-26.211
-23.6762
-21.221
-18.8473
-16.5496
-14.3241
-12.1751
-10.0925
-8.0744
-6.11816
-4.22018
-2.37657
-0.582965
1.16559
2.87382
4.54609
6.18719
7.80214
9.3961
10.9742
12.5407
14.1
15.6566
17.214
18.7757
20.345
21.9229
23.5116
25.1136
26.7287
28.3587
30.0055
31.6698
33.3518
35.0506
36.7646
38.4925
40.2331
41.9829
43.7355
45.4828
47.2153
48.9261
50.6112
52.2739
53.8952
55.4535
56.9281
58.3148
59.6627
60.9816
62.3251
63.5956
64.6938
65.5908
66.1061
66.4382
66.7981
-107.805
-103.633
-99.5375
-95.5123
-91.5577
-87.678
-83.8649
-80.1163
-76.4338
-72.8175
-69.2573
-65.7608
-62.3261
-58.9536
-55.6405
-52.3872
-49.201
-46.0811
-43.0241
-40.0379
-37.1211
-34.2755
-31.5092
-28.8248
-26.211
-23.6762
-21.221
-18.8473
-16.5496
-14.3241
-12.1751
-10.0925
-8.0744
-6.11815
-4.22018
-2.37657
-0.58296
1.16559
2.87383
4.54609
6.1872
7.80215
9.39611
10.9742
12.5407
14.1
15.6566
17.214
18.7757
20.345
21.9229
23.5116
25.1136
26.7287
28.3588
30.0055
31.6698
33.3518
35.0506
36.7646
38.4925
40.2331
41.983
43.7355
45.4828
47.2153
48.9261
50.6112
52.2739
53.8953
55.4535
56.9281
58.3148
59.6627
60.9817
62.3251
63.5955
64.6936
65.5904
66.1057
66.438
66.7981
-107.805
-103.633
-99.5375
-95.5123
-91.5577
-87.678
-83.8649
-80.1163
-76.4338
-72.8175
-69.2573
-65.7608
-62.3261
-58.9536
-55.6404
-52.3872
-49.201
-46.0811
-43.0241
-40.0379
-37.121
-34.2755
-31.5092
-28.8248
-26.211
-23.6762
-21.221
-18.8473
-16.5496
-14.3241
-12.1751
-10.0925
-8.07439
-6.11815
-4.22017
-2.37656
-0.582952
1.1656
2.87383
4.5461
6.1872
7.80216
9.39612
10.9742
12.5407
14.1
15.6566
17.2141
18.7757
20.345
21.9229
23.5116
25.1136
26.7287
28.3588
30.0055
31.6698
33.3518
35.0506
36.7646
38.4926
40.2331
41.983
43.7355
45.4828
47.2153
48.9262
50.6113
52.2739
53.8953
55.4535
56.9281
58.3148
59.6627
60.9817
62.3251
63.5954
64.6933
65.59
66.1053
66.4379
66.7983
-107.805
-103.633
-99.5375
-95.5123
-91.5576
-87.678
-83.8648
-80.1163
-76.4338
-72.8175
-69.2573
-65.7607
-62.3261
-58.9536
-55.6404
-52.3872
-49.201
-46.081
-43.0241
-40.0379
-37.121
-34.2755
-31.5092
-28.8248
-26.211
-23.6762
-21.221
-18.8473
-16.5496
-14.324
-12.1751
-10.0925
-8.07438
-6.11813
-4.22016
-2.37655
-0.582937
1.16561
2.87385
4.54611
6.18722
7.80217
9.39613
10.9742
12.5407
14.1
15.6566
17.2141
18.7757
20.345
21.9229
23.5117
25.1136
26.7287
28.3588
30.0056
31.6699
33.3518
35.0506
36.7647
38.4926
40.2332
41.983
43.7355
45.4829
47.2154
48.9262
50.6113
52.2739
53.8953
55.4535
56.9281
58.3149
59.6628
60.9818
62.3251
63.5953
64.693
65.5895
66.105
66.4379
66.7987
-107.805
-103.633
-99.5375
-95.5123
-91.5576
-87.678
-83.8648
-80.1163
-76.4338
-72.8174
-69.2573
-65.7607
-62.326
-58.9536
-55.6404
-52.3872
-49.2009
-46.081
-43.024
-40.0379
-37.121
-34.2755
-31.5091
-28.8248
-26.211
-23.6762
-21.221
-18.8472
-16.5495
-14.324
-12.175
-10.0925
-8.07435
-6.11811
-4.22013
-2.37652
-0.582912
1.16564
2.87388
4.54614
6.18725
7.8022
9.39616
10.9743
12.5407
14.1
15.6566
17.2141
18.7758
20.345
21.9229
23.5117
25.1137
26.7287
28.3588
30.0056
31.6699
33.3519
35.0506
36.7647
38.4926
40.2332
41.983
43.7355
45.4829
47.2154
48.9262
50.6113
52.274
53.8953
55.4535
56.9281
58.3149
59.6629
60.9819
62.3251
63.5951
64.6926
65.589
66.1047
66.4381
66.7995
-107.805
-103.633
-99.5374
-95.5123
-91.5576
-87.6779
-83.8648
-80.1162
-76.4338
-72.8174
-69.2572
-65.7607
-62.326
-58.9536
-55.6404
-52.3871
-49.2009
-46.081
-43.024
-40.0378
-37.121
-34.2754
-31.5091
-28.8247
-26.2109
-23.6761
-21.2209
-18.8472
-16.5495
-14.324
-12.175
-10.0924
-8.07431
-6.11806
-4.22009
-2.37647
-0.582862
1.16569
2.87392
4.54619
6.1873
7.80225
9.39621
10.9743
12.5408
14.1001
15.6567
17.2142
18.7758
20.3451
21.923
23.5117
25.1137
26.7288
28.3589
30.0056
31.67
33.3519
35.0507
36.7648
38.4927
40.2332
41.9831
43.7356
45.4829
47.2155
48.9263
50.6114
52.274
53.8953
55.4535
56.9281
58.315
59.6631
60.9821
62.3251
63.5948
64.6921
65.5883
66.1045
66.4387
66.801
-107.805
-103.632
-99.5373
-95.5122
-91.5575
-87.6779
-83.8647
-80.1162
-76.4337
-72.8173
-69.2572
-65.7606
-62.3259
-58.9535
-55.6403
-52.3871
-49.2008
-46.0809
-43.0239
-40.0378
-37.1209
-34.2753
-31.509
-28.8247
-26.2108
-23.6761
-21.2209
-18.8471
-16.5494
-14.3239
-12.1749
-10.0923
-8.07423
-6.11798
-4.22001
-2.3764
-0.582786
1.16577
2.874
4.54627
6.18738
7.80233
9.39629
10.9744
12.5409
14.1002
15.6568
17.2142
18.7759
20.3452
21.9231
23.5118
25.1138
26.7289
28.359
30.0057
31.67
33.352
35.0508
36.7648
38.4927
40.2333
41.9832
43.7357
45.483
47.2155
48.9264
50.6115
52.2741
53.8954
55.4535
56.9282
58.3152
59.6633
60.9824
62.3251
63.5945
64.6913
65.5874
66.1044
66.4399
66.8035
-107.805
-103.632
-99.5372
-95.5121
-91.5574
-87.6778
-83.8646
-80.1161
-76.4336
-72.8172
-69.257
-65.7605
-62.3258
-58.9534
-55.6402
-52.387
-49.2007
-46.0808
-43.0238
-40.0377
-37.1208
-34.2752
-31.5089
-28.8246
-26.2107
-23.676
-21.2208
-18.847
-16.5493
-14.3238
-12.1748
-10.0922
-8.07411
-6.11786
-4.21989
-2.37628
-0.582663
1.16589
2.87413
4.54639
6.1875
7.80246
9.39642
10.9745
12.541
14.1003
15.6569
17.2144
18.776
20.3453
21.9232
23.512
25.1139
26.729
28.3591
30.0059
31.6702
33.3521
35.0509
36.765
38.4929
40.2335
41.9833
43.7358
45.4831
47.2157
48.9265
50.6116
52.2742
53.8954
55.4536
56.9283
58.3154
59.6637
60.9828
62.3251
63.594
64.6904
65.5863
66.1045
66.442
66.8075
-107.805
-103.632
-99.5371
-95.5119
-91.5572
-87.6776
-83.8644
-80.1159
-76.4334
-72.8171
-69.2569
-65.7603
-62.3257
-58.9532
-55.64
-52.3868
-49.2006
-46.0806
-43.0237
-40.0375
-37.1206
-34.2751
-31.5088
-28.8244
-26.2106
-23.6758
-21.2206
-18.8468
-16.5491
-14.3236
-12.1746
-10.092
-8.07393
-6.11769
-4.21971
-2.37609
-0.582482
1.16607
2.87431
4.54658
6.18769
7.80264
9.39661
10.9747
12.5412
14.1005
15.6571
17.2146
18.7762
20.3455
21.9234
23.5122
25.1141
26.7292
28.3593
30.0061
31.6704
33.3523
35.0511
36.7652
38.4931
40.2336
41.9835
43.736
45.4833
47.2159
48.9267
50.6118
52.2744
53.8955
55.4537
56.9284
58.3158
59.6643
60.9834
62.3252
63.5933
64.6891
65.5848
66.1049
66.4452
66.8135
67.3017
-107.804
-103.632
-99.5368
-95.5117
-91.557
-87.6773
-83.8642
-80.1157
-76.4332
-72.8168
-69.2567
-65.7601
-62.3254
-58.953
-55.6398
-52.3866
-49.2003
-46.0804
-43.0234
-40.0373
-37.1204
-34.2748
-31.5085
-28.8242
-26.2103
-23.6755
-21.2203
-18.8466
-16.5489
-14.3234
-12.1744
-10.0918
-8.07367
-6.11742
-4.21945
-2.37583
-0.582215
1.16634
2.87458
4.54685
6.18796
7.80292
9.39688
10.975
12.5415
14.1008
15.6574
17.2148
18.7765
20.3458
21.9237
23.5124
25.1144
26.7295
28.3596
30.0063
31.6706
33.3526
35.0514
36.7654
38.4933
40.2339
41.9837
43.7362
45.4836
47.2161
48.927
50.6121
52.2746
53.8957
55.4538
56.9287
58.3164
59.6652
60.9844
62.3254
63.5925
64.6875
65.583
66.1058
66.4499
66.822
67.313
-107.804
-103.632
-99.5365
-95.5113
-91.5567
-87.677
-83.8639
-80.1153
-76.4329
-72.8165
-69.2563
-65.7598
-62.3251
-58.9527
-55.6395
-52.3862
-49.2
-46.0801
-43.0231
-40.0369
-37.1201
-34.2745
-31.5082
-28.8238
-26.21
-23.6752
-21.22
-18.8462
-16.5485
-14.323
-12.174
-10.0914
-8.07331
-6.11706
-4.21908
-2.37546
-0.581839
1.16672
2.87496
4.54723
6.18835
7.8033
9.39727
10.9754
12.5418
14.1012
15.6577
17.2152
18.7769
20.3462
21.9241
23.5128
25.1148
26.7299
28.36
30.0067
31.671
33.353
35.0517
36.7658
38.4937
40.2343
41.9841
43.7366
45.4839
47.2165
48.9275
50.6126
52.275
53.896
55.454
56.9291
58.3173
59.6664
60.9857
62.3257
63.5914
64.6854
65.5808
66.1073
66.4567
66.8338
67.3286
-107.803
-103.631
-99.536
-95.5109
-91.5562
-87.6765
-83.8634
-80.1149
-76.4324
-72.816
-69.2559
-65.7593
-62.3247
-58.9522
-55.639
-52.3858
-49.1995
-46.0796
-43.0226
-40.0365
-37.1196
-34.274
-31.5077
-28.8233
-26.2095
-23.6747
-21.2195
-18.8457
-16.548
-14.3225
-12.1735
-10.0909
-8.07281
-6.11655
-4.21857
-2.37495
-0.581326
1.16723
2.87548
4.54775
6.18887
7.80383
9.3978
10.9759
12.5424
14.1017
15.6583
17.2158
18.7774
20.3467
21.9246
23.5134
25.1153
26.7304
28.3605
30.0072
31.6715
33.3535
35.0523
36.7663
38.4942
40.2348
41.9846
43.7371
45.4844
47.217
48.928
50.6132
52.2755
53.8963
55.4543
56.9296
58.3184
59.668
60.9875
62.3261
63.5902
64.683
65.5783
66.1097
66.4661
66.8498
67.3494
-107.803
-103.63
-99.5354
-95.5102
-91.5556
-87.6759
-83.8628
-80.1143
-76.4318
-72.8154
-69.2553
-65.7587
-62.324
-58.9516
-55.6384
-52.3852
-49.1989
-46.079
-43.022
-40.0358
-37.119
-34.2734
-31.5071
-28.8227
-26.2089
-23.6741
-21.2189
-18.8451
-16.5474
-14.3218
-12.1728
-10.0903
-8.07213
-6.11587
-4.21789
-2.37426
-0.58064
1.16792
2.87617
4.54845
6.18957
7.80453
9.3985
10.9766
12.5431
14.1024
15.659
17.2165
18.7781
20.3474
21.9253
23.5141
25.116
26.7311
28.3612
30.0079
31.6722
33.3542
35.0529
36.767
38.4949
40.2355
41.9853
43.7377
45.4851
47.2177
48.9288
50.614
52.2762
53.8968
55.4547
56.9304
58.32
59.6702
60.9899
62.3267
63.5887
64.6801
65.5754
66.1134
66.4788
66.8708
67.3767
-107.802
-103.63
-99.5345
-95.5094
-91.5548
-87.6751
-83.862
-80.1135
-76.431
-72.8146
-69.2545
-65.7579
-62.3233
-58.9508
-55.6376
-52.3844
-49.1981
-46.0782
-43.0212
-40.035
-37.1181
-34.2726
-31.5063
-28.8219
-26.208
-23.6732
-21.218
-18.8442
-16.5465
-14.321
-12.172
-10.0894
-8.07126
-6.11499
-4.217
-2.37337
-0.579744
1.16882
2.87708
4.54936
6.19048
7.80545
9.39942
10.9775
12.544
14.1033
15.6599
17.2174
18.7791
20.3483
21.9262
23.515
25.117
26.732
28.3621
30.0089
31.6731
33.3551
35.0538
36.7679
38.4958
40.2364
41.9861
43.7386
45.4859
47.2186
48.9298
50.615
52.2771
53.8975
55.4553
56.9314
58.3221
59.6731
60.993
62.3277
63.5872
64.6769
65.5725
66.1187
66.4956
66.898
67.4116
-107.801
-103.629
-99.5335
-95.5084
-91.5537
-87.6741
-83.861
-80.1124
-76.43
-72.8136
-69.2535
-65.7569
-62.3222
-58.9498
-55.6366
-52.3834
-49.1971
-46.0772
-43.0202
-40.034
-37.1171
-34.2715
-31.5052
-28.8208
-26.207
-23.6722
-21.2169
-18.8432
-16.5454
-14.3199
-12.1709
-10.0883
-8.07014
-6.11386
-4.21587
-2.37223
-0.578597
1.16997
2.87823
4.55052
6.19165
7.80662
9.4006
10.9787
12.5452
14.1045
15.6611
17.2186
18.7802
20.3495
21.9274
23.5162
25.1181
26.7332
28.3633
30.01
31.6743
33.3562
35.055
36.769
38.4969
40.2375
41.9873
43.7396
45.487
47.2198
48.9311
50.6164
52.2782
53.8984
55.4561
56.9328
58.3249
59.6769
60.9971
62.3292
63.5856
64.6735
65.5696
66.1264
66.5173
66.9325
67.4555
-107.8
-103.627
-99.5322
-95.5071
-91.5524
-87.6728
-83.8597
-80.1112
-76.4287
-72.8124
-69.2522
-65.7557
-62.321
-58.9485
-55.6353
-52.3821
-49.1958
-46.0759
-43.0189
-40.0327
-37.1158
-34.2702
-31.5039
-28.8195
-26.2056
-23.6708
-21.2156
-18.8418
-16.5441
-14.3185
-12.1695
-10.0869
-8.06872
-6.11244
-4.21444
-2.37079
-0.577153
1.17142
2.87969
4.55198
6.19312
7.80809
9.40207
10.9802
12.5467
14.106
15.6626
17.2201
18.7817
20.351
21.9289
23.5176
25.1196
26.7346
28.3647
30.0114
31.6757
33.3577
35.0564
36.7704
38.4983
40.2389
41.9887
43.741
45.4884
47.2213
48.9328
50.6181
52.2798
53.8996
55.4573
56.9348
58.3284
59.6816
61.0023
62.3312
63.5841
64.6702
65.5672
66.1369
66.545
66.9756
67.5098
68.2147
-103.626
-99.5306
-95.5055
-91.5508
-87.6712
-83.8581
-80.1096
-76.4271
-72.8108
-69.2506
-65.7541
-62.3194
-58.947
-55.6338
-52.3805
-49.1943
-46.0743
-43.0173
-40.0311
-37.1142
-34.2686
-31.5023
-28.8179
-26.204
-23.6692
-21.2139
-18.8401
-16.5424
-14.3168
-12.1678
-10.0851
-8.06697
-6.11068
-4.21267
-2.36901
-0.575364
1.17322
2.88149
4.5538
6.19494
7.80992
9.40391
10.982
12.5485
14.1078
15.6644
17.2219
18.7835
20.3528
21.9307
23.5195
25.1214
26.7364
28.3665
30.0132
31.6775
33.3594
35.0581
36.7722
38.5001
40.2407
41.9904
43.7427
45.4901
47.2232
48.9348
50.6203
52.2817
53.9013
55.4589
56.9373
58.3329
59.6876
61.0088
62.3342
63.5829
64.6672
65.5658
66.1511
66.5798
67.0286
67.576
68.2778
69.2951
69.9109
-103.624
-99.5286
-95.5035
-91.5489
-87.6693
-83.8562
-80.1077
-76.4252
-72.8089
-69.2487
-65.7522
-62.3175
-58.9451
-55.6319
-52.3786
-49.1924
-46.0724
-43.0154
-40.0292
-37.1123
-34.2667
-31.5003
-28.8159
-26.202
-23.6671
-21.2119
-18.8381
-16.5403
-14.3147
-12.1656
-10.083
-8.06484
-6.10854
-4.21051
-2.36684
-0.573179
1.17542
2.8837
4.55601
6.19716
7.81215
9.40615
10.9843
12.5508
14.1101
15.6666
17.2241
18.7858
20.355
21.9329
23.5217
25.1236
26.7386
28.3687
30.0154
31.6797
33.3616
35.0603
36.7743
38.5022
40.2428
41.9925
43.7449
45.4923
47.2256
48.9375
50.623
52.2842
53.9034
55.4611
56.9406
58.3386
59.6951
61.0169
62.3382
63.5825
64.6649
65.5659
66.1697
66.6228
67.0929
67.6556
68.3547
69.3289
69.9168
-103.621
-99.5263
-95.5012
-91.5466
-87.667
-83.8539
-80.1054
-76.423
-72.8066
-69.2465
-65.7499
-62.3153
-58.9428
-55.6296
-52.3763
-49.1901
-46.0701
-43.013
-40.0268
-37.1099
-34.2643
-31.4979
-28.8135
-26.1995
-23.6647
-21.2094
-18.8356
-16.5378
-14.3122
-12.1631
-10.0805
-8.06227
-6.10595
-4.20791
-2.36423
-0.570547
1.17806
2.88636
4.55868
6.19984
7.81484
9.40885
10.987
12.5535
14.1128
15.6694
17.2268
18.7885
20.3577
21.9356
23.5244
25.1263
26.7413
28.3713
30.018
31.6823
33.3642
35.0628
36.7769
38.5048
40.2454
41.9952
43.7475
45.495
47.2285
48.9407
50.6264
52.2873
53.9062
55.464
56.9449
58.3457
59.7042
61.0268
62.3437
63.583
64.664
65.5683
66.1937
66.6752
67.1699
67.7499
68.447
69.3758
69.9366
-103.619
-99.5235
-95.4985
-91.5439
-87.6643
-83.8512
-80.1027
-76.4203
-72.804
-69.2438
-65.7473
-62.3126
-58.9401
-55.6269
-52.3736
-49.1874
-46.0674
-43.0103
-40.0241
-37.1071
-34.2615
-31.4951
-28.8106
-26.1966
-23.6617
-21.2064
-18.8326
-16.5348
-14.3091
-12.1601
-10.0774
-8.05918
-6.10284
-4.20479
-2.36111
-0.567418
1.18122
2.88953
4.56187
6.20304
7.81805
9.41206
10.9902
12.5567
14.116
15.6726
17.2301
18.7917
20.3609
21.9388
23.5275
25.1294
26.7444
28.3744
30.0211
31.6853
33.3672
35.0659
36.7799
38.5079
40.2485
41.9982
43.7505
45.4981
47.2319
48.9445
50.6306
52.2913
53.91
55.4679
56.9505
58.3544
59.7153
61.039
62.351
63.5852
64.6651
65.5739
66.224
66.7377
67.2604
67.8601
68.5566
69.4388
69.9756
-103.615
-99.5203
-95.4953
-91.5407
-87.6612
-83.8481
-80.0996
-76.4172
-72.8009
-69.2407
-65.7442
-62.3095
-58.937
-55.6238
-52.3705
-49.1842
-46.0642
-43.0072
-40.021
-37.104
-34.2584
-31.492
-28.8075
-26.1936
-23.6587
-21.2033
-18.8294
-16.5316
-14.3059
-12.1567
-10.074
-8.05576
-6.09938
-4.20119
-2.35744
-0.563751
1.18489
2.89323
4.56559
6.2068
7.82184
9.41587
10.994
12.5605
14.1198
15.6764
17.2339
18.7955
20.3647
21.9426
23.5313
25.1332
26.7482
28.3782
30.0248
31.689
33.3709
35.0695
36.7835
38.5115
40.2523
42.0021
43.7545
45.5023
47.2365
48.9495
50.6356
52.2959
53.914
55.4723
56.9572
58.365
59.7286
61.0535
62.3606
63.5895
64.6691
65.5842
66.2624
66.8121
67.3654
67.9861
68.6832
69.5231
70.0363
70.0574
69.1134
67.7939
-103.612
-99.5167
-95.4917
-91.5371
-87.6576
-83.8446
-80.0961
-76.4136
-72.7973
-69.2372
-65.7406
-62.3059
-58.9335
-55.6202
-52.3669
-49.1806
-46.0607
-43.0036
-40.0174
-37.1005
-34.2549
-31.4886
-28.8041
-26.1902
-23.6553
-21.1999
-18.8259
-16.528
-14.3022
-12.153
-10.0702
-8.0519
-6.09545
-4.19721
-2.35326
-0.559467
1.1892
2.89755
4.56993
6.21107
7.8261
9.42014
10.9983
12.5648
14.1242
15.6808
17.2383
18.7999
20.3692
21.9471
23.5357
25.1376
26.7525
28.3825
30.0291
31.6932
33.375
35.0736
36.7877
38.5161
40.2571
42.0067
43.7589
45.5067
47.2413
48.9548
50.6414
52.3017
53.9202
55.4794
56.9658
58.3773
59.7441
61.0706
62.3728
63.5967
64.6772
65.6006
66.3094
66.898
67.4846
68.1285
68.8305
69.63
70.1254
70.1785
69.4018
68.3045
-91.5331
-87.6536
-83.8406
-80.0921
-76.4097
-72.7934
-69.2332
-65.7367
-62.302
-58.9295
-55.6162
-52.3629
-49.1766
-46.0565
-42.9994
-40.0132
-37.0962
-34.2505
-31.484
-28.7995
-26.1855
-23.6505
-21.1951
-18.8211
-16.5232
-14.2974
-12.1482
-10.0653
-8.047
-6.09053
-4.1925
-2.34848
-0.554551
1.19414
2.90252
4.57492
6.21602
7.83084
9.42486
11.0031
12.5697
14.1292
15.6859
17.2433
18.8049
20.3741
21.9523
23.541
25.1424
26.7573
28.3872
30.0338
31.6979
33.3797
35.0783
36.7924
38.521
40.262
42.0115
43.7637
45.5111
47.2455
48.9592
50.6475
52.3094
53.929
55.4886
56.976
58.3918
59.7624
61.0908
62.3883
63.6074
64.6898
65.6229
66.3642
66.9949
67.6187
68.289
68.9983
69.7615
70.2536
70.35
69.7528
68.883
-91.5287
-87.6492
-83.8362
-80.0877
-76.4053
-72.789
-69.2288
-65.7323
-62.2976
-58.9251
-55.6118
-52.3585
-49.1721
-46.052
-42.9948
-40.0085
-37.0914
-34.2456
-31.479
-28.7943
-26.1802
-23.6451
-21.1897
-18.8157
-16.5178
-14.292
-12.1427
-10.0599
-8.04151
-6.08502
-4.18704
-2.34302
-0.54908
1.19965
2.90807
4.5805
6.22181
7.83654
9.43062
11.0089
12.5756
14.1351
15.6918
17.2491
18.8106
20.3796
21.958
23.5468
25.1479
26.7629
28.3928
30.0393
31.7034
33.3851
35.0837
36.7977
38.5263
40.2673
42.0172
43.7699
45.5176
47.2522
48.9659
50.6555
52.3179
53.9371
55.4974
56.9878
58.409
59.7837
61.1143
62.4076
63.6227
64.7083
65.6534
66.4291
67.1041
67.7668
68.4646
69.1846
69.9221
70.4214
70.5758
70.1745
69.569
68.8903
69.9876
74.4861
78.1765
68.5663
-91.5237
-87.6443
-83.8313
-80.0828
-76.4004
-72.7841
-69.224
-65.7274
-62.2927
-58.9202
-55.6069
-52.3536
-49.1672
-46.047
-42.9898
-40.0034
-37.0863
-34.2405
-31.4739
-28.7891
-26.1749
-23.6398
-21.1844
-18.8103
-16.5123
-14.2864
-12.1371
-10.0542
-8.03574
-6.07918
-4.1811
-2.33699
-0.542983
1.20581
2.91429
4.58679
6.22822
7.8431
9.43727
11.0156
12.5822
14.1416
15.6983
17.2555
18.8171
20.386
21.9643
23.5531
25.1543
26.7693
28.3991
30.0456
31.7096
33.3912
35.0897
36.8038
38.5324
40.2735
42.0233
43.7762
45.5244
47.26
48.9746
50.6648
52.3271
53.9466
55.5082
57.0021
58.4288
59.8077
61.1408
62.431
63.6435
64.7341
65.6937
66.5054
67.2263
67.9302
68.6582
69.394
70.1176
70.6369
70.8657
70.6716
70.3323
70.1837
71.4805
75.3877
77.3238
70.1834
-91.5182
-87.6388
-83.8258
-80.0773
-76.3949
-72.7787
-69.2186
-65.722
-62.2873
-58.9148
-55.6015
-52.3481
-49.1617
-46.0415
-42.9842
-39.9978
-37.0806
-34.2347
-31.468
-28.7833
-26.169
-23.6338
-21.1782
-18.8041
-16.5061
-14.2801
-12.1307
-10.0477
-8.02918
-6.07254
-4.17439
-2.33022
-0.536141
1.21272
2.92126
4.59383
6.23527
7.85016
9.44436
11.0227
12.5894
14.1489
15.7055
17.2627
18.8243
20.3932
21.9714
23.5602
25.1613
26.7762
28.4059
30.0523
31.7162
33.3977
35.096
36.8101
38.5387
40.2797
42.0295
43.7824
45.5309
47.267
48.983
50.6745
52.3373
53.9574
55.5207
57.0184
58.4513
59.835
61.1713
62.4596
63.671
64.7688
65.7454
66.5946
67.3627
68.1097
68.8701
69.627
70.3502
70.9039
71.2231
71.2412
71.1782
71.4795
72.9782
76.1902
77.323
72.715
-91.512
-87.6326
-83.8196
-80.0712
-76.3888
-72.7726
-69.2125
-65.716
-62.2813
-58.9087
-55.5954
-52.342
-49.1555
-46.0353
-42.978
-39.9915
-37.0743
-34.2283
-31.4615
-28.7767
-26.1623
-23.627
-21.1714
-18.7973
-16.4991
-14.273
-12.1236
-10.0405
-8.02187
-6.06515
-4.16692
-2.32267
-0.528518
1.22041
2.92903
4.60168
6.24315
7.85806
9.45233
11.0307
12.5974
14.1569
15.7134
17.2706
18.8322
20.401
21.9792
23.5678
25.1689
26.7836
28.4131
30.0593
31.723
33.4042
35.1024
36.8163
38.5448
40.2857
42.0354
43.7885
45.5374
47.2744
48.9916
50.6846
52.3481
53.9692
55.5347
57.037
58.4764
59.8656
61.2057
62.4937
63.706
64.8134
65.81
66.6976
67.5138
68.3057
69.1016
69.8863
70.6243
71.2274
71.6521
71.884
72.0962
72.7743
74.4839
77.0899
78.883
73.5081
-91.505
-87.6258
-83.8128
-80.0644
-76.3821
-72.7659
-69.2058
-65.7093
-62.2746
-58.902
-55.5887
-52.3352
-49.1487
-46.0285
-42.9711
-39.9846
-37.0673
-34.2212
-31.4544
-28.7694
-26.1549
-23.6196
-21.1639
-18.7896
-16.4914
-14.2652
-12.1157
-10.0325
-8.01378
-6.05697
-4.15866
-2.31432
-0.520086
1.22892
2.93761
4.61034
6.25184
7.86678
9.46109
11.0395
12.6062
14.1657
15.7221
17.2793
18.8407
20.4095
21.9875
23.576
25.1769
26.7913
28.4206
30.0664
31.7297
33.4107
35.1084
36.822
38.5503
40.2909
42.0405
43.7936
45.543
47.2808
48.9996
50.6942
52.3589
53.9815
55.5499
57.0572
58.5038
59.899
61.2439
62.5336
63.7493
64.8688
65.888
66.815
67.6798
68.5183
69.3536
70.1732
70.9412
71.6083
72.1516
72.5947
73.0766
74.0731
76.0052
78.2364
80.8269
73.4448
-91.4974
-87.6182
-83.8053
-80.057
-76.3746
-72.7585
-69.1984
-65.7019
-62.2672
-58.8947
-55.5813
-52.3278
-49.1413
-46.021
-42.9636
-39.977
-37.0596
-34.2134
-31.4465
-28.7615
-26.1469
-23.6114
-21.1556
-18.7813
-16.4829
-14.2566
-12.107
-10.0237
-8.00491
-6.048
-4.14959
-2.30516
-0.510846
1.23824
2.947
4.61981
6.26135
7.8763
9.47065
11.049
12.6157
14.1751
15.7315
17.2885
18.8498
20.4185
21.9963
23.5845
25.1851
26.7992
28.428
30.0733
31.7362
33.4165
35.1138
36.8268
38.5546
40.2948
42.0441
43.7972
45.547
47.2858
49.0063
50.7028
52.369
53.9935
55.5654
57.0784
58.5327
59.9349
61.2857
62.5792
63.801
64.9353
65.9798
66.947
67.8606
68.7476
69.6263
70.4886
71.3018
72.0467
72.7188
73.3675
74.1081
75.3815
77.5328
79.6435
82.4831
75.7956
-91.4889
-87.6099
-83.797
-80.0487
-76.3664
-72.7504
-69.1903
-65.6938
-62.2591
-58.8866
-55.5733
-52.3197
-49.1332
-46.0128
-42.9553
-39.9687
-37.0512
-34.2049
-31.4379
-28.7528
-26.1381
-23.6025
-21.1465
-18.7721
-16.4737
-14.2473
-12.0976
-10.0142
-7.99525
-6.03824
-4.13973
-2.29521
-0.500808
1.24835
2.95718
4.63007
6.27164
7.88658
9.48096
11.0593
12.626
14.1853
15.7415
17.2983
18.8595
20.4279
22.0054
23.5933
25.1935
26.8071
28.4352
30.0798
31.7419
33.4214
35.1178
36.83
38.557
40.2965
42.0452
43.7982
45.5483
47.2881
49.0103
50.7089
52.377
54.0041
55.5802
57.0996
58.5621
59.9721
61.3301
62.63
63.8608
65.0126
66.085
67.0929
68.0554
68.9924
69.9192
70.832
71.7043
72.539
73.347
74.1929
75.1772
76.7034
79.0659
81.3338
84.4923
82.1683
-91.4795
-87.6007
-83.7879
-80.0397
-76.3575
-72.7415
-69.1815
-65.685
-62.2503
-58.8778
-55.5645
-52.3109
-49.1243
-46.0039
-42.9464
-39.9597
-37.0421
-34.1957
-31.4286
-28.7434
-26.1285
-23.5928
-21.1367
-18.7623
-16.4637
-14.2372
-12.0874
-10.0039
-7.98482
-6.02769
-4.12909
-2.28447
-0.489991
1.25924
2.96813
4.64109
6.28266
7.89759
9.49197
11.0703
12.6369
14.1961
15.752
17.3086
18.8695
20.4375
22.0146
23.6021
25.2017
26.8145
28.4418
30.0854
31.7464
33.4247
35.1198
36.8307
38.5565
40.2949
42.0427
43.7953
45.5455
47.2862
49.0101
50.7108
52.3813
54.0116
55.5926
57.1191
58.5905
60.0092
61.3758
62.6845
63.9276
65.0997
66.202
67.2508
68.2622
69.251
70.2303
71.2011
72.1443
73.0781
74.0258
75.0607
76.2723
78.036
80.6091
83.2234
86.8454
87.8429
-91.4691
-87.5905
-83.7778
-80.0297
-76.3476
-72.7317
-69.1718
-65.6754
-62.2408
-58.8683
-55.5549
-52.3013
-49.1147
-45.9943
-42.9367
-39.9499
-37.0323
-34.1858
-31.4186
-28.7333
-26.1182
-23.5823
-21.1262
-18.7516
-16.453
-14.2263
-12.0764
-9.99279
-7.97362
-6.01639
-4.11769
-2.27298
-0.47843
1.27086
2.9798
4.65281
6.29435
7.90923
9.5036
11.0819
12.6483
14.2072
15.7629
17.3192
18.8796
20.4473
22.0239
23.6106
25.2094
26.8214
28.4474
30.0897
31.7492
33.4258
35.1191
36.8282
38.5521
40.2887
42.035
43.7866
45.5366
47.2778
49.0032
50.7062
52.3794
54.0136
55.6001
57.1343
58.6152
60.0437
61.4205
62.7404
63.9987
65.1935
66.3276
67.418
68.4784
69.5206
70.5565
71.5915
72.6148
73.6542
74.7422
75.956
77.3813
79.3708
82.1522
85.1789
89.2663
92.4356
-91.4573
-87.5791
-83.7666
-80.0186
-76.3367
-72.721
-69.1611
-65.6648
-62.2303
-58.8579
-55.5446
-52.2909
-49.1044
-45.9839
-42.9263
-39.9394
-37.0217
-34.1751
-31.4078
-28.7224
-26.1072
-23.5711
-21.1148
-18.7403
-16.4415
-14.2146
-12.0647
-9.98097
-7.96167
-6.00433
-4.10556
-2.26077
-0.466166
1.28316
2.99213
4.66516
6.30663
7.92141
9.51572
11.0938
12.6601
14.2187
15.774
17.3298
18.8898
20.4568
22.0327
23.6187
25.2164
26.8271
28.4516
30.0921
31.7496
33.424
35.1148
36.8212
38.5424
40.2762
42.0201
43.7701
45.519
47.2601
48.9868
50.6919
52.368
54.0065
55.5993
57.1417
58.6328
60.0722
61.4606
62.7939
64.0701
65.2902
66.4582
67.5904
68.6996
69.7962
70.8919
71.9962
73.1065
74.2552
75.4821
76.8644
78.4944
80.6944
83.6793
87.1122
91.6804
96.5748
-91.4443
-87.5668
-83.754
-80.0062
-76.3244
-72.7089
-69.1493
-65.6532
-62.2188
-58.8465
-55.5333
-52.2796
-49.0931
-45.9727
-42.915
-39.9281
-37.0103
-34.1636
-31.3962
-28.7108
-26.0953
-23.5591
-21.1027
-18.7281
-16.4293
-14.2022
-12.0523
-9.96841
-7.94899
-5.99156
-4.09272
-2.24788
-0.453244
1.29609
3.00505
4.67806
6.3194
7.934
9.52819
11.1061
12.672
14.2303
15.7851
17.3403
18.8996
20.4659
22.0409
23.6258
25.2222
26.8314
28.4539
30.0921
31.747
33.4185
35.106
36.8088
38.5262
40.2562
41.9962
43.7431
45.49
47.2301
48.9571
50.6638
52.3428
53.9859
55.5854
57.1367
58.6383
60.0891
61.4901
62.8392
64.1362
65.3839
66.5872
67.7617
68.9199
70.0721
71.2303
72.4073
73.6084
74.8682
76.2313
77.7752
79.5994
81.9935
85.1619
88.9451
94.016
99.9842
-91.429
-87.5526
-83.7401
-79.9922
-76.3108
-72.6964
-69.1362
-65.6402
-62.2061
-58.8338
-55.5206
-52.2671
-49.0808
-45.9604
-42.9027
-39.9159
-36.9981
-34.1512
-31.3838
-28.6983
-26.0826
-23.5463
-21.0897
-18.7151
-16.4162
-14.189
-12.0391
-9.95509
-7.93557
-5.97808
-4.0792
-2.23434
-0.439726
1.30956
3.01846
4.69139
6.33253
7.94686
9.54084
11.1185
12.684
14.2417
15.7958
17.3502
18.9087
20.4741
22.048
23.6315
25.2264
26.8336
28.4537
30.0891
31.7409
33.4086
35.0918
36.7897
38.5016
40.2259
41.9605
43.7031
45.4463
47.1838
48.9099
50.6173
52.2986
53.9464
55.5527
57.1128
58.625
60.0879
61.5039
62.8712
64.1916
65.4684
66.708
67.925
69.1321
70.3404
71.5636
72.8167
74.1118
75.4842
76.9819
78.6807
80.69
83.2475
86.6095
90.6213
96.0962
102.539
-91.4104
-87.5342
-83.7236
-79.9758
-76.2949
-72.6814
-69.1223
-65.6258
-62.1918
-58.8203
-55.5076
-52.2537
-49.0669
-45.9469
-42.8892
-39.9023
-36.9844
-34.1374
-31.3702
-28.6848
-26.069
-23.5324
-21.0758
-18.7012
-16.4022
-14.1749
-12.025
-9.94099
-7.92137
-5.96384
-4.06498
-2.22015
-0.425615
1.32356
3.03232
4.70509
6.3459
7.95981
9.55345
11.1306
12.6956
14.2526
15.8059
17.3593
18.9167
20.481
22.0535
23.6353
25.2283
26.8332
28.4502
30.0822
31.7302
33.3936
35.0716
36.7636
38.469
40.1861
41.9128
43.648
45.3851
47.1177
48.8408
50.5469
52.2294
53.8815
55.4939
57.0624
58.5855
60.0615
61.494
62.8821
64.228
65.5351
66.8125
68.0739
69.3319
70.5989
71.8899
73.2218
74.6128
76.0981
77.7287
79.5825
81.7596
84.498
87.9082
92.1738
97.7813
104.201
-91.3892
-87.5129
-83.7035
-79.9565
-76.276
-72.6616
-69.1054
-65.6089
-62.1752
-58.8041
-55.4929
-52.2393
-49.0523
-45.9318
-42.8748
-39.8886
-36.9706
-34.1233
-31.3553
-28.6698
-26.0539
-23.5173
-21.0606
-18.6861
-16.387
-14.1596
-12.01
-9.92595
-7.90634
-5.94888
-4.05014
-2.20542
-0.411068
1.33789
3.04642
4.71894
6.35932
7.97269
9.56589
11.1425
12.7068
14.2629
15.8149
17.367
18.9227
20.4853
22.0561
23.6358
25.2264
26.8288
28.4424
30.0706
31.7143
33.3725
35.0441
36.7282
38.4244
40.1315
41.8485
43.5763
45.3056
47.0291
48.7467
50.4498
52.1309
53.7856
55.4027
56.9797
58.5149
60.004
61.4545
62.8638
64.2408
65.582
66.8965
68.2025
69.5148
70.8452
72.2096
73.6266
75.1193
76.7203
78.4789
80.4685
82.8049
85.6163
89.1809
93.3069
99.0804
105.169
-91.3647
-87.4893
-83.6805
-79.9342
-76.2545
-72.6398
-69.0845
-65.5889
-62.1558
-58.7838
-55.4731
-52.2216
-49.0356
-45.9144
-42.8576
-39.8727
-36.9561
-34.1077
-31.3404
-28.6537
-26.0372
-23.501
-21.0445
-18.6704
-16.3716
-14.1438
-11.9942
-9.91002
-7.89028
-5.93283
-4.03424
-2.18974
-0.395686
1.35294
3.06108
4.73313
6.37274
7.9852
9.57761
11.1532
12.7163
14.271
15.8215
17.372
18.9262
20.4875
22.0568
23.6343
25.2222
26.8212
28.4301
30.0532
31.6915
33.3436
35.0082
36.6847
38.3726
40.0698
41.7747
43.4865
45.2026
46.918
48.6272
50.3196
51.9972
53.6546
55.2759
56.8617
58.4102
59.9157
61.386
62.8235
64.2261
65.6037
66.9634
68.3189
69.6873
71.0834
72.5231
74.0261
75.6192
77.334
79.215
81.3267
83.786
86.6766
90.2697
94.2557
99.9534
105.34
-91.3361
-87.4618
-83.654
-79.9085
-76.2296
-72.6159
-69.0612
-65.5662
-62.1337
-58.7621
-55.451
-52.2004
-49.0152
-45.8936
-42.8368
-39.8516
-36.9361
-34.088
-31.3229
-28.6349
-26.0184
-23.4832
-21.0275
-18.6536
-16.3541
-14.1271
-11.977
-9.89229
-7.87277
-5.91574
-4.01757
-2.1735
-0.380013
1.36795
3.07545
4.74691
6.38572
7.99706
9.58845
11.1628
12.7247
14.2786
15.8283
17.3776
18.9304
20.4893
22.0541
23.6265
25.2097
26.8041
28.4073
30.0258
31.6596
33.3055
34.9627
36.6309
38.3095
39.9969
41.69
43.3839
45.0824
46.7841
48.4801
50.1643
51.8389
53.4916
55.1152
56.7097
58.2716
59.7992
61.2878
62.7502
64.1821
65.5992
67.0108
68.4229
69.8506
71.3132
72.828
74.4148
76.1012
77.9161
79.9049
82.1224
84.6704
87.6294
91.193
95.324
100.38
105.364
-91.3027
-87.4297
-83.6231
-79.8786
-76.2008
-72.5882
-69.0343
-65.5402
-62.1084
-58.7377
-55.4274
-52.1773
-48.9924
-45.8706
-42.8152
-39.8291
-36.9131
-34.066
-31.3011
-28.6137
-25.9975
-23.4616
-21.0067
-18.634
-16.3334
-14.1079
-11.9566
-9.87182
-7.85299
-5.89649
-3.999
-2.15617
-0.363226
1.38453
3.09167
4.7622
6.39883
8.00861
9.59862
11.1713
12.7314
14.2836
15.8314
17.3783
18.9279
20.4824
22.0419
23.6095
25.1882
26.7782
28.3788
29.9926
31.6196
33.258
34.9065
36.5647
38.2313
39.9057
41.5858
43.2693
44.9548