/*--------------------------------*- C++ -*----------------------------------*\
| =========                 |                                                 |
| \\      /  F ield         | OpenFOAM: The Open Source CFD Toolbox           |
|  \\    /   O peration     | Version:  2412                                  |
|   \\  /    A nd           | Website:  www.openfoam.com                      |
|    \\/     M anipulation  |                                                 |
\*---------------------------------------------------------------------------*/
FoamFile
{
    version     2.0;
    format      ascii;
    arch        "LSB;label=32;scalar=64";
    class       volVectorField;
    location    "340";
    object      U;
}
// * * * * * * * * * * * * * * * * * * * * * * * * * * * * * * * * * * * * * //

dimensions      [0 1 -1 0 0 0 0];

internalField   nonuniform List<vector> 
8702
(
(0.33755 -0.0924168 3.76315e-19)
(0.337598 -0.0929044 0)
(0.337642 -0.0933808 -3.56439e-19)
(0.337691 -0.0938463 -3.46684e-19)
(0.337732 -0.0942998 0)
(0.337779 -0.0947433 -3.27485e-19)
(0.337831 -0.0951796 3.03285e-25)
(0.337873 -0.0956041 -2.94291e-25)
(0.337908 -0.0960168 -2.99187e-19)
(0.337941 -0.0964214 0)
(0.337971 -0.0968165 2.80451e-19)
(0.337994 -0.0972022 -2.71066e-19)
(0.338007 -0.0975774 1.2136e-25)
(0.338016 -0.0979441 -6.81911e-27)
(0.338016 -0.0983018 1.21351e-19)
(0.338015 -0.0986515 0)
(0.338002 -0.0989922 -1.03151e-25)
(0.337982 -0.0993227 1.06887e-19)
(0.337963 -0.0996481 8.92112e-27)
(0.337927 -0.0999633 9.82033e-27)
(0.337883 -0.100268 0)
(0.337834 -0.100566 -8.69998e-20)
(0.337774 -0.100855 0)
(0.337704 -0.101133 7.68032e-20)
(0.33763 -0.101406 0)
(0.337545 -0.101669 0)
(0.337446 -0.101923 0)
(0.337341 -0.102167 -5.57391e-20)
(0.337226 -0.102403 -9.59782e-26)
(0.337094 -0.102628 2.23965e-20)
(0.336955 -0.102844 1.9593e-20)
(0.336806 -0.103052 2.86614e-26)
(0.336638 -0.103248 1.37891e-20)
(0.336463 -0.103434 1.73021e-26)
(0.336275 -0.103612 -1.78582e-26)
(0.336064 -0.103776 -8.89432e-21)
(0.335846 -0.103931 0)
(0.335615 -0.104077 2.3652e-21)
(0.335369 -0.104211 0)
(0.335112 -0.104335 -2.21563e-26)
(0.334838 -0.104448 2.29641e-26)
(0.334548 -0.10455 -9.04627e-21)
(0.334239 -0.10464 -1.13046e-20)
(0.333913 -0.104719 1.37113e-20)
(0.333578 -0.104788 0)
(0.333229 -0.104847 1.90436e-20)
(0.332863 -0.104895 2.20108e-20)
(0.332477 -0.10493 -2.52092e-20)
(0.332074 -0.104954 2.8664e-20)
(0.331652 -0.104966 -1.62016e-20)
(0.331212 -0.104966 -1.34172e-25)
(0.33076 -0.104957 0)
(0.330292 -0.104937 0)
(0.329808 -0.104907 0)
(0.329309 -0.104867 2.21744e-25)
(0.3288 -0.104817 3.12963e-20)
(0.328273 -0.104758 0)
(0.327732 -0.104689 0)
(0.327184 -0.104612 -2.64809e-27)
(0.326638 -0.104531 2.32799e-20)
(0.326086 -0.104445 2.56282e-20)
(0.325524 -0.104351 -2.81804e-20)
(0.32497 -0.104255 -6.1907e-20)
(0.324441 -0.10416 -5.12196e-25)
(0.323957 -0.104075 1.86061e-20)
(0.323498 -0.103997 6.10257e-25)
(0.323039 -0.103922 2.22484e-20)
(0.322542 -0.103837 0)
(0.322064 -0.103745 -2.95497e-27)
(0.321772 -0.103687 0)
(0.321802 -0.103713 -1.56272e-20)
(0.322124 -0.103845 1.69305e-20)
(0.32233 -0.104 3.66015e-20)
(0.322151 -0.104086 -1.97555e-20)
(0.321365 -0.104007 1.31459e-24)
(0.320637 -0.103824 -2.29502e-20)
(0.321373 -0.103929 -1.49156e-24)
(0.324001 -0.104484 -1.96485e-26)
(0.329544 -0.105871 -1.41048e-20)
(0.336614 -0.108068 0)
(0.341605 -0.110144 -1.5795e-20)
(0.343368 -0.11167 0)
(1.04986 -0.287437 -3.04354e-25)
(1.05002 -0.28896 6.09359e-19)
(1.05017 -0.290443 0)
(1.05034 -0.291896 0)
(1.05049 -0.293312 0)
(1.05065 -0.294698 -5.44804e-19)
(1.05082 -0.296055 -5.29041e-19)
(1.05097 -0.29738 2.50469e-25)
(1.0511 -0.298671 4.97745e-19)
(1.05121 -0.299933 -4.82182e-19)
(1.05132 -0.301166 2.2815e-25)
(1.0514 -0.302368 0)
(1.05146 -0.303541 0)
(1.0515 -0.304686 -1.94409e-25)
(1.05152 -0.305802 -2.01895e-19)
(1.05153 -0.306894 -1.90626e-25)
(1.05151 -0.307959 1.85908e-19)
(1.05145 -0.308992 1.63902e-25)
(1.05139 -0.310003 -1.69663e-19)
(1.05129 -0.310985 5.27559e-27)
(1.05117 -0.31194 0)
(1.05103 -0.312868 -1.32369e-25)
(1.05085 -0.313768 1.36252e-19)
(1.05064 -0.31464 -1.2773e-19)
(1.05041 -0.315488 0)
(1.05015 -0.316309 -1.10365e-19)
(1.04985 -0.317098 -1.93715e-25)
(1.04953 -0.317861 9.64833e-26)
(1.04917 -0.318593 0)
(1.04876 -0.319294 -3.71909e-20)
(1.04833 -0.319967 -5.66182e-26)
(1.04786 -0.320612 2.77423e-20)
(1.04735 -0.321223 0)
(1.04679 -0.321803 0)
(1.04621 -0.322354 -1.87035e-26)
(1.04557 -0.322869 3.00079e-26)
(1.04489 -0.323353 0)
(1.04418 -0.323807 -8.09721e-21)
(1.04343 -0.324228 1.00977e-20)
(1.04263 -0.324618 0)
(1.04179 -0.324973 -1.15668e-20)
(1.0409 -0.325293 6.35652e-26)
(1.03995 -0.325578 -6.5976e-26)
(1.03896 -0.325829 -2.2855e-20)
(1.03794 -0.326052 0)
(1.03687 -0.32624 0)
(1.03575 -0.326393 -3.66375e-20)
(1.03457 -0.326511 -1.52954e-25)
(1.03335 -0.326595 -4.76814e-20)
(1.03209 -0.326647 5.38879e-20)
(1.03077 -0.326664 0)
(1.0294 -0.326649 -3.39521e-20)
(1.02799 -0.326602 0)
(1.02654 -0.326525 3.32094e-25)
(1.02505 -0.326418 2.06142e-26)
(1.02351 -0.326282 -5.1986e-20)
(1.02194 -0.326117 4.50818e-25)
(1.02034 -0.325928 -3.17841e-20)
(1.01872 -0.325716 3.50708e-20)
(1.0171 -0.32549 1.01998e-26)
(1.01547 -0.325249 0)
(1.01382 -0.324988 4.6772e-20)
(1.01218 -0.324718 1.02739e-19)
(1.01063 -0.324453 5.63526e-20)
(1.0092 -0.324212 -3.08713e-20)
(1.00786 -0.323998 0)
(1.00651 -0.323792 1.14628e-24)
(1.00505 -0.323555 -2.45872e-24)
(1.00365 -0.323295 4.38816e-20)
(1.00279 -0.323135 0)
(1.00288 -0.323216 2.5915e-20)
(1.00384 -0.323615 0)
(1.0045 -0.324101 -2.77395e-28)
(1.00405 -0.324399 3.27523e-20)
(1.0018 -0.324214 0)
(0.999662 -0.323698 -2.34571e-24)
(1.00176 -0.323989 4.99073e-24)
(1.0095 -0.325612 -2.19091e-20)
(1.02585 -0.329687 2.33702e-20)
(1.04692 -0.336226 0)
(1.06224 -0.342574 2.61608e-20)
(1.06812 -0.347384 -2.76239e-20)
(1.83988 -0.503734 0)
(1.84021 -0.506417 -6.89687e-19)
(1.84052 -0.509027 -3.13499e-25)
(1.84086 -0.511586 6.52751e-19)
(1.84117 -0.514079 6.34582e-19)
(1.84148 -0.516518 6.16617e-19)
(1.8418 -0.518904 8.80818e-27)
(1.84211 -0.521238 -5.81025e-19)
(1.84238 -0.523516 5.63352e-19)
(1.84262 -0.525739 5.45736e-19)
(1.84284 -0.52791 -5.28075e-19)
(1.84303 -0.53003 0)
(1.84318 -0.532098 0)
(1.84329 -0.534117 0)
(1.84335 -0.536083 0)
(1.84339 -0.538006 -2.02879e-25)
(1.84339 -0.539881 -2.10401e-19)
(1.84334 -0.541704 2.01255e-19)
(1.84324 -0.543481 1.76689e-25)
(1.8431 -0.545211 1.82696e-19)
(1.84292 -0.546894 -1.58843e-25)
(1.84268 -0.548527 3.12403e-25)
(1.84239 -0.55011 -1.54195e-19)
(1.84205 -0.551647 2.75717e-25)
(1.84166 -0.553138 1.34772e-19)
(1.84122 -0.554581 1.24894e-19)
(1.84071 -0.555969 0)
(1.84015 -0.557308 1.04816e-19)
(1.83952 -0.558594 8.40277e-26)
(1.83883 -0.559828 -4.20841e-20)
(1.83807 -0.56101 -7.63147e-26)
(1.83725 -0.562138 -3.13909e-20)
(1.83636 -0.563213 2.58532e-20)
(1.83539 -0.564232 -2.01655e-20)
(1.83436 -0.565197 0)
(1.83326 -0.566105 8.24846e-21)
(1.83208 -0.566957 -7.44703e-27)
(1.83083 -0.567751 4.58049e-21)
(1.82951 -0.568491 2.46785e-26)
(1.82813 -0.569176 0)
(1.82666 -0.569802 1.30852e-20)
(1.82511 -0.570366 -1.70848e-20)
(1.82346 -0.57087 7.4633e-26)
(1.82175 -0.571317 -1.17757e-25)
(1.81997 -0.571712 -1.45184e-26)
(1.8181 -0.572046 3.5869e-20)
(1.81616 -0.572321 4.14391e-20)
(1.81413 -0.572536 4.74429e-20)
(1.81202 -0.572693 -5.39261e-20)
(1.80983 -0.572796 -3.04711e-20)
(1.80757 -0.572841 2.71119e-25)
(1.80522 -0.572829 3.83928e-20)
(1.8028 -0.572762 3.16904e-25)
(1.80031 -0.572646 3.75499e-25)
(1.79776 -0.57248 -3.93188e-25)
(1.79514 -0.572263 -4.61101e-25)
(1.79246 -0.571998 6.50374e-20)
(1.78974 -0.571693 3.59298e-20)
(1.787 -0.571354 3.96427e-20)
(1.78425 -0.570987 -4.36842e-20)
(1.78149 -0.570595 7.17604e-25)
(1.77871 -0.570175 0)
(1.77596 -0.569737 -5.80484e-20)
(1.77333 -0.569306 0)
(1.77092 -0.568915 3.48799e-20)
(1.76868 -0.568573 -3.81613e-20)
(1.76642 -0.568245 0)
(1.76397 -0.567864 -4.54845e-20)
(1.76163 -0.567448 -4.95539e-20)
(1.76018 -0.567191 -3.24202e-24)
(1.76031 -0.567332 3.62066e-24)
(1.76192 -0.568011 -3.8201e-24)
(1.76309 -0.568865 -3.42522e-20)
(1.76247 -0.569427 0)
(1.75884 -0.569197 3.98435e-20)
(1.75528 -0.568373 4.29247e-20)
(1.75866 -0.568832 -5.68244e-24)
(1.77149 -0.571516 5.9823e-24)
(1.79872 -0.578274 -2.63517e-20)
(1.83415 -0.589268 -2.79212e-20)
(1.86066 -0.60021 2.94918e-20)
(1.87162 -0.608737 3.11201e-20)
(2.70481 -0.740542 -8.01342e-19)
(2.70541 -0.744515 -7.58765e-25)
(2.70596 -0.748382 -7.59013e-19)
(2.70655 -0.752167 -7.38241e-19)
(2.70709 -0.755856 -7.74154e-25)
(2.70763 -0.759464 0)
(2.70818 -0.762996 6.77186e-19)
(2.70871 -0.766451 6.57108e-19)
(2.70921 -0.769827 -5.50457e-26)
(2.70966 -0.773122 0)
(2.71007 -0.77634 5.97213e-19)
(2.71044 -0.779485 0)
(2.71075 -0.782553 0)
(2.711 -0.785546 0)
(2.71117 -0.788462 0)
(2.7113 -0.791311 0)
(2.71137 -0.794089 0)
(2.71135 -0.79679 -4.5517e-19)
(2.71128 -0.799422 -2.17133e-19)
(2.71114 -0.801987 0)
(2.71092 -0.804477 1.95947e-19)
(2.71061 -0.806893 1.85191e-19)
(2.71024 -0.809238 0)
(2.70979 -0.811514 2.97412e-25)
(2.70927 -0.81372 -3.04777e-19)
(2.70865 -0.815851 1.41215e-19)
(2.70793 -0.817906 -2.33721e-25)
(2.70713 -0.819883 1.18509e-19)
(2.70623 -0.821782 0)
(2.70525 -0.823607 4.75795e-20)
(2.70415 -0.82535 4.16003e-20)
(2.70295 -0.827016 0)
(2.70166 -0.828602 -2.92269e-20)
(2.70025 -0.830105 2.27963e-20)
(2.69875 -0.831528 -4.78447e-26)
(2.69714 -0.832868 -9.32396e-21)
(2.69542 -0.834124 2.23813e-26)
(2.69359 -0.835296 0)
(2.69166 -0.836386 -1.29125e-20)
(2.68963 -0.837396 -9.48025e-26)
(2.68747 -0.838317 9.82502e-26)
(2.68519 -0.83915 1.93086e-20)
(2.68279 -0.839895 0)
(2.68028 -0.840558 2.92159e-20)
(2.67767 -0.841139 0)
(2.67494 -0.841637 -4.05301e-20)
(2.6721 -0.842048 3.53729e-26)
(2.66913 -0.842371 -5.36035e-20)
(2.66606 -0.842611 6.09251e-20)
(2.66287 -0.84277 5.46e-25)
(2.65958 -0.842848 4.25263e-26)
(2.65618 -0.842846 4.47679e-26)
(2.65266 -0.842765 -7.15892e-25)
(2.64907 -0.842613 8.48195e-25)
(2.64538 -0.842388 -8.88084e-25)
(2.6416 -0.842093 0)
(2.63775 -0.841732 -1.10869e-24)
(2.63384 -0.841314 -4.05652e-20)
(2.62991 -0.840847 -4.47546e-20)
(2.62598 -0.840342 0)
(2.62204 -0.839803 0)
(2.61808 -0.839227 0)
(2.61416 -0.838627 6.5506e-20)
(2.61042 -0.838032 2.23747e-24)
(2.60699 -0.837494 -4.79086e-24)
(2.60381 -0.837031 8.60967e-20)
(2.60062 -0.83659 -2.92081e-24)
(2.59717 -0.836081 5.1299e-20)
(2.59388 -0.83552 8.79533e-26)
(2.59182 -0.835171 -7.41901e-24)
(2.59195 -0.835371 3.97087e-24)
(2.5942 -0.836337 0)
(2.59596 -0.837596 3.85913e-20)
(2.59526 -0.838479 -5.14058e-24)
(2.59041 -0.838284 -4.48658e-20)
(2.5855 -0.837203 -5.96151e-24)
(2.59001 -0.8378 6.27867e-24)
(2.60771 -0.841488 -6.83599e-24)
(2.64547 -0.85082 5.92825e-20)
(2.69517 -0.866238 3.14023e-20)
(2.73354 -0.882027 -3.31414e-20)
(2.75067 -0.894708 0)
(3.64005 -0.996598 9.04912e-19)
(3.64106 -1.002 -8.23321e-25)
(3.64198 -1.00725 8.57095e-19)
(3.64293 -1.01239 -8.11647e-25)
(3.64381 -1.0174 -1.62083e-18)
(3.64469 -1.0223 7.34532e-25)
(3.64557 -1.0271 -7.64662e-19)
(3.64644 -1.03179 0)
(3.64726 -1.03638 -1.54036e-25)
(3.64804 -1.04086 6.48218e-25)
(3.64876 -1.04524 -6.59458e-25)
(3.64943 -1.04953 -6.05165e-25)
(3.65 -1.0537 3.2755e-26)
(3.65049 -1.05778 5.94652e-25)
(3.65088 -1.06175 0)
(3.6512 -1.06563 5.18051e-25)
(3.65141 -1.0694 -1.0247e-24)
(3.65152 -1.07308 5.13867e-19)
(3.65154 -1.07666 2.45127e-19)
(3.65146 -1.08015 0)
(3.65127 -1.08353 -1.07498e-25)
(3.65096 -1.08682 -2.09053e-19)
(3.65056 -1.09 1.96817e-19)
(3.65004 -1.0931 -3.6811e-25)
(3.64942 -1.09609 1.7201e-19)
(3.64866 -1.09899 -1.59394e-19)
(3.64777 -1.10177 -2.95706e-25)
(3.64675 -1.10446 -1.33757e-19)
(3.6456 -1.10703 -2.4601e-25)
(3.64432 -1.10951 1.89195e-25)
(3.64289 -1.11187 -9.38975e-20)
(3.64132 -1.11413 4.00495e-20)
(3.63961 -1.11627 -3.29822e-20)
(3.63775 -1.11831 -8.25485e-26)
(3.63575 -1.12023 8.51922e-26)
(3.6336 -1.12204 1.05209e-20)
(3.6313 -1.12374 2.50534e-21)
(3.62885 -1.12532 5.84177e-21)
(3.62626 -1.1268 1.45683e-20)
(3.62353 -1.12816 3.26378e-26)
(3.62063 -1.1294 -1.10837e-25)
(3.61756 -1.13052 0)
(3.61434 -1.13153 2.71909e-20)
(3.61095 -1.13242 3.29534e-20)
(3.60743 -1.1332 3.17209e-25)
(3.60376 -1.13387 4.57085e-20)
(3.59994 -1.13443 -3.98899e-26)
(3.59595 -1.13487 4.40803e-25)
(3.59183 -1.1352 -6.86948e-20)
(3.58756 -1.13542 -5.69945e-25)
(3.58315 -1.13553 0)
(3.5786 -1.13554 7.71859e-25)
(3.57392 -1.13544 -8.06918e-25)
(3.56913 -1.13525 0)
(3.56422 -1.13497 -6.74766e-20)
(3.55921 -1.1346 6.27997e-26)
(3.5541 -1.13414 -1.1604e-24)
(3.54894 -1.13361 9.13982e-20)
(3.54375 -1.13301 0)
(3.53857 -1.13237 0)
(3.5334 -1.13168 0)
(3.52822 -1.13096 0)
(3.5231 -1.1302 -7.37374e-20)
(3.51821 -1.12945 -2.41966e-24)
(3.51373 -1.12877 -4.42815e-20)
(3.50959 -1.12819 2.83092e-26)
(3.50546 -1.12765 -5.28939e-20)
(3.50103 -1.12703 -5.76869e-20)
(3.49679 -1.12634 6.28269e-20)
(3.49409 -1.12591 0)
(3.49418 -1.12616 0)
(3.49704 -1.12742 0)
(3.49943 -1.12911 -4.33475e-20)
(3.4988 -1.13038 4.6762e-20)
(3.49297 -1.13033 1.34207e-25)
(3.48685 -1.12906 -6.55047e-24)
(3.49226 -1.12975 0)
(3.51441 -1.13434 -3.11599e-20)
(3.5619 -1.14601 -6.64261e-20)
(3.6252 -1.16566 0)
(3.67579 -1.18643 -3.70917e-20)
(3.70017 -1.20368 0)
(4.63862 -1.27 0)
(4.64022 -1.27697 0)
(4.64169 -1.28374 -9.65172e-19)
(4.64315 -1.29037 9.13972e-25)
(4.64452 -1.29682 9.12563e-19)
(4.64588 -1.30313 0)
(4.64723 -1.3093 1.722e-18)
(4.64858 -1.31535 0)
(4.64989 -1.32128 -1.61996e-18)
(4.65114 -1.32707 7.66685e-25)
(4.65234 -1.33274 0)
(4.65346 -1.33827 0)
(4.65446 -1.34367 -7.08223e-19)
(4.65534 -1.34894 -3.41308e-19)
(4.65608 -1.35408 0)
(4.65671 -1.35909 -5.83156e-25)
(4.65721 -1.36398 5.95204e-25)
(4.65755 -1.36872 -5.78408e-19)
(4.65778 -1.37335 -5.44746e-25)
(4.65786 -1.37785 -2.62499e-19)
(4.65779 -1.38222 -2.48958e-19)
(4.65757 -1.38646 -4.30406e-25)
(4.65722 -1.39058 -1.85722e-25)
(4.65671 -1.39457 4.14255e-25)
(4.65605 -1.39843 -1.93565e-19)
(4.65522 -1.40217 -1.79362e-19)
(4.65421 -1.40576 0)
(4.65303 -1.40922 1.50501e-19)
(4.65167 -1.41254 0)
(4.65012 -1.41572 0)
(4.64839 -1.41876 1.05638e-19)
(4.64646 -1.42166 -4.50554e-20)
(4.64435 -1.42442 3.71026e-20)
(4.64203 -1.42704 1.85712e-25)
(4.63953 -1.42951 -1.91649e-25)
(4.63682 -1.43183 5.49682e-26)
(4.63392 -1.43401 -2.8178e-21)
(4.63082 -1.43604 -6.56982e-21)
(4.62753 -1.43792 -3.27658e-20)
(4.62405 -1.43966 2.40534e-25)
(4.62035 -1.44124 -2.49253e-25)
(4.61644 -1.44268 0)
(4.61232 -1.44396 -3.05694e-20)
(4.608 -1.4451 -3.70457e-20)
(4.6035 -1.44609 4.39641e-20)
(4.5988 -1.44694 1.47056e-25)
(4.5939 -1.44764 -5.93436e-20)
(4.58882 -1.4482 0)
(4.58356 -1.44862 7.71919e-20)
(4.57811 -1.4489 -1.28073e-24)
(4.5725 -1.44905 0)
(4.56671 -1.44907 0)
(4.56076 -1.44895 6.12984e-20)
(4.55469 -1.44872 -6.82309e-20)
(4.54848 -1.44838 7.5769e-20)
(4.54216 -1.44792 8.39548e-20)
(4.53573 -1.44736 -9.28717e-20)
(4.52924 -1.44671 -1.02579e-19)
(4.52273 -1.44599 -5.65657e-20)
(4.51625 -1.44521 -6.23009e-20)
(4.5098 -1.44439 0)
(4.50336 -1.44351 0)
(4.49702 -1.4426 8.26727e-20)
(4.49096 -1.44171 -9.0637e-20)
(4.48542 -1.4409 0)
(4.48032 -1.44022 -1.08511e-19)
(4.47527 -1.4396 5.92372e-20)
(4.46989 -1.4389 6.45808e-20)
(4.46475 -1.43811 0)
(4.46142 -1.4376 7.64354e-20)
(4.46142 -1.43792 -9.98132e-24)
(4.46481 -1.43944 4.48684e-20)
(4.46785 -1.44159 -4.8446e-20)
(4.46747 -1.44332 -5.22322e-20)
(4.461 -1.44354 1.35831e-23)
(4.4539 -1.4422 0)
(4.45996 -1.44294 -6.49878e-20)
(4.48589 -1.44826 6.94881e-20)
(4.54183 -1.46191 3.69798e-20)
(4.61742 -1.48541 -1.91476e-23)
(4.68007 -1.51113 8.24855e-20)
(4.71268 -1.53329 -4.34679e-20)
(5.6906 -1.55802 -1.1427e-18)
(5.69303 -1.5667 0)
(5.69524 -1.57513 2.1643e-18)
(5.69741 -1.58335 -1.96556e-24)
(5.69944 -1.59137 1.02308e-18)
(5.70145 -1.59921 0)
(5.70346 -1.60689 -9.65178e-19)
(5.70546 -1.61441 -1.74481e-24)
(5.70744 -1.62179 1.81579e-18)
(5.70938 -1.62901 1.71863e-24)
(5.71125 -1.63608 0)
(5.71303 -1.643 0)
(5.71467 -1.64975 1.58732e-18)
(5.71613 -1.65633 7.64918e-19)
(5.7174 -1.66274 -8.28196e-26)
(5.71852 -1.66899 -8.28595e-26)
(5.71945 -1.67508 3.38764e-19)
(5.72019 -1.68101 6.48e-19)
(5.72077 -1.68678 -3.09083e-19)
(5.72115 -1.69239 5.88097e-19)
(5.72133 -1.69784 0)
(5.72133 -1.70312 0)
(5.72114 -1.70825 -2.48077e-19)
(5.72076 -1.71322 -8.46229e-25)
(5.72018 -1.71804 2.1677e-19)
(5.71937 -1.72269 4.7501e-25)
(5.71832 -1.72717 0)
(5.71705 -1.73147 -1.68511e-19)
(5.71555 -1.7356 -7.95196e-26)
(5.71381 -1.73956 -6.76368e-20)
(5.71182 -1.74334 -5.91291e-20)
(5.70958 -1.74694 5.04344e-20)
(5.7071 -1.75037 0)
(5.70435 -1.75361 0)
(5.70135 -1.75667 2.29711e-20)
(5.69811 -1.75955 0)
(5.6946 -1.76224 0)
(5.69084 -1.76475 0)
(5.68682 -1.76707 3.66603e-20)
(5.68255 -1.76921 -1.86981e-25)
(5.67802 -1.77116 0)
(5.67322 -1.77292 -2.73923e-20)
(5.66815 -1.7745 -4.78524e-25)
(5.66283 -1.77589 0)
(5.65727 -1.7771 -4.91607e-20)
(5.65147 -1.77814 -1.14889e-19)
(5.64544 -1.77899 6.63453e-20)
(5.63917 -1.77967 7.59292e-20)
(5.63268 -1.78018 8.62767e-20)
(5.62598 -1.78052 4.87321e-20)
(5.61907 -1.7807 -3.347e-24)
(5.61196 -1.78072 1.81061e-24)
(5.60467 -1.78058 -6.84729e-20)
(5.59723 -1.78031 7.62032e-20)
(5.58965 -1.77989 -2.65829e-24)
(5.58194 -1.77935 2.99796e-24)
(5.57412 -1.77869 1.0366e-19)
(5.56624 -1.77793 5.72269e-20)
(5.55837 -1.77708 6.31077e-20)
(5.55056 -1.77616 -1.26071e-25)
(5.54281 -1.77521 7.64232e-20)
(5.5351 -1.7742 -8.39484e-20)
(5.52754 -1.77316 -1.84243e-19)
(5.52034 -1.77213 1.00949e-19)
(5.51375 -1.77121 1.34952e-23)
(5.50772 -1.77045 6.03832e-20)
(5.50181 -1.76979 -6.59085e-20)
(5.49557 -1.76904 7.18227e-20)
(5.48962 -1.76819 7.81613e-20)
(5.48569 -1.76765 -1.69834e-19)
(5.48557 -1.76802 0)
(5.4894 -1.7698 1.23442e-23)
(5.49312 -1.77243 1.07439e-19)
(5.49317 -1.77468 0)
(5.48646 -1.77531 -1.53797e-23)
(5.47871 -1.77404 6.70366e-20)
(5.48518 -1.77479 7.18567e-20)
(5.51405 -1.78065 -3.83867e-20)
(5.57673 -1.79582 0)
(5.66263 -1.82258 0)
(5.73654 -1.85301 2.28609e-23)
(5.77801 -1.88028 4.78511e-20)
(6.78264 -1.85701 1.07934e-24)
(6.78615 -1.86753 0)
(6.78936 -1.87773 -1.20591e-18)
(6.79245 -1.88768 -2.2836e-24)
(6.79535 -1.89737 -1.09262e-24)
(6.79821 -1.90685 -1.10745e-18)
(6.80107 -1.91613 -2.09709e-24)
(6.80394 -1.92524 1.04316e-18)
(6.80681 -1.93418 -1.01124e-18)
(6.80966 -1.94295 0)
(6.81246 -1.95155 0)
(6.81516 -1.95996 0)
(6.81766 -1.96817 -8.83649e-19)
(6.81993 -1.97617 -4.25782e-19)
(6.82195 -1.98397 -4.09643e-19)
(6.82375 -1.99157 0)
(6.82532 -1.99897 -3.77038e-19)
(6.82664 -2.00616 -3.60571e-19)
(6.82774 -2.01317 3.43942e-19)
(6.82859 -2.01999 -6.54363e-19)
(6.8292 -2.02661 0)
(6.82957 -2.03303 0)
(6.8297 -2.03925 0)
(6.82959 -2.04529 0)
(6.82922 -2.05114 0)
(6.82856 -2.05678 8.54897e-25)
(6.82761 -2.06222 0)
(6.82637 -2.06744 1.87369e-19)
(6.82484 -2.07245 6.00684e-25)
(6.823 -2.07725 7.51916e-20)
(6.82084 -2.08183 6.57271e-20)
(6.81837 -2.08619 -5.60576e-20)
(6.81557 -2.09034 0)
(6.81245 -2.09426 2.30988e-25)
(6.80901 -2.09795 -2.55262e-20)
(6.80526 -2.10143 1.55944e-25)
(6.80117 -2.10467 3.50178e-21)
(6.79676 -2.10769 -1.06985e-25)
(6.79203 -2.11048 -2.03608e-20)
(6.78697 -2.11305 -3.31497e-20)
(6.78159 -2.11539 4.02485e-25)
(6.77588 -2.1175 3.04175e-20)
(6.76983 -2.11938 -3.79615e-20)
(6.76346 -2.12104 -6.52547e-25)
(6.7568 -2.12248 8.85172e-25)
(6.74985 -2.12371 6.37537e-20)
(6.74261 -2.12472 0)
(6.73509 -2.12552 -8.42458e-20)
(6.7273 -2.12611 -9.57081e-20)
(6.71928 -2.12651 2.80078e-25)
(6.71101 -2.12671 -6.07555e-20)
(6.70251 -2.12673 0)
(6.6938 -2.12657 7.59023e-20)
(6.68493 -2.12624 -2.5013e-24)
(6.67592 -2.12576 0)
(6.66677 -2.12513 -1.03821e-19)
(6.65753 -2.12437 -2.29561e-19)
(6.64824 -2.12349 -6.33529e-20)
(6.63899 -2.12252 2.07089e-25)
(6.62983 -2.12149 -4.80542e-24)
(6.62078 -2.12041 -1.69018e-19)
(6.61185 -2.11929 9.27983e-20)
(6.60312 -2.11815 1.01783e-19)
(6.59483 -2.11702 0)
(6.58727 -2.11602 -6.09902e-20)
(6.58038 -2.11523 -8.28436e-24)
(6.57372 -2.11455 7.26824e-20)
(6.56677 -2.11382 -7.91385e-20)
(6.56017 -2.11298 -8.60907e-20)
(6.55576 -2.11244 1.86933e-19)
(6.5555 -2.11288 5.06032e-20)
(6.55969 -2.11491 -2.60265e-25)
(6.56407 -2.11803 1.44523e-23)
(6.56476 -2.12087 0)
(6.55828 -2.12208 0)
(6.55034 -2.12104 -1.46784e-19)
(6.55705 -2.1218 0)
(6.58791 -2.12798 -2.06252e-23)
(6.65531 -2.14411 2.16e-23)
(6.74893 -2.17341 0)
(6.83254 -2.20808 -4.94696e-20)
(6.88299 -2.24046 2.53492e-23)
(7.89794 -2.16238 1.40876e-18)
(7.90281 -2.17484 -1.37083e-18)
(7.90726 -2.18692 -2.49169e-24)
(7.9115 -2.19868 4.9465e-24)
(7.91548 -2.21014 -2.5204e-18)
(7.91942 -2.22135 1.22418e-18)
(7.92335 -2.23233 0)
(7.92731 -2.24311 -2.30561e-18)
(7.93132 -2.25372 -1.11736e-18)
(7.93534 -2.26414 -8.25518e-24)
(7.93933 -2.27436 4.09432e-24)
(7.9432 -2.28437 3.75595e-24)
(7.94683 -2.29415 -3.82389e-24)
(7.95015 -2.30368 0)
(7.95316 -2.31296 4.5222e-19)
(7.95588 -2.32199 0)
(7.95829 -2.33079 4.16111e-19)
(7.96039 -2.33935 -2.03502e-25)
(7.96221 -2.34768 -3.79482e-19)
(7.96373 -2.35578 3.60941e-19)
(7.96495 -2.36365 0)
(7.96588 -2.37129 0)
(7.96651 -2.37869 2.22146e-24)
(7.96683 -2.38587 -2.27595e-24)
(7.96685 -2.39283 0)
(7.96651 -2.39954 2.46222e-19)
(7.96581 -2.406 1.82659e-24)
(7.96475 -2.41221 -1.54784e-24)
(7.96333 -2.41817 -1.86259e-19)
(7.96152 -2.42387 0)
(7.95933 -2.42931 -1.87099e-24)
(7.95673 -2.43449 6.17486e-20)
(7.95374 -2.43941 0)
(7.95035 -2.44406 3.96346e-20)
(7.94656 -2.44844 3.32604e-25)
(7.94237 -2.45256 -3.4337e-25)
(7.93778 -2.4564 -3.8549e-21)
(7.93278 -2.45996 -2.3553e-25)
(7.92737 -2.46326 2.4365e-25)
(7.92157 -2.46628 3.64789e-20)
(7.91537 -2.46903 -6.81423e-25)
(7.90875 -2.47151 -1.12674e-24)
(7.90173 -2.47372 4.17566e-20)
(7.89431 -2.47566 5.05822e-20)
(7.88654 -2.47734 1.94667e-24)
(7.87841 -2.47877 -4.28256e-24)
(7.86994 -2.47994 2.34989e-24)
(7.86114 -2.48086 0)
(7.85202 -2.48154 -1.05162e-19)
(7.84263 -2.482 -5.93756e-20)
(7.83295 -2.48223 6.67251e-20)
(7.82302 -2.48224 0)
(7.81287 -2.48205 -8.33187e-20)
(7.80254 -2.48168 1.13217e-23)
(7.79206 -2.48113 -1.2562e-23)
(7.78146 -2.48041 1.13865e-19)
(7.77078 -2.47956 1.25829e-19)
(7.76009 -2.47858 6.94132e-20)
(7.74947 -2.4775 -9.57037e-24)
(7.73901 -2.47637 1.68326e-19)
(7.72873 -2.4752 9.2465e-20)
(7.71863 -2.474 2.47941e-23)
(7.70883 -2.47278 -1.33059e-23)
(7.69958 -2.47161 1.51732e-23)
(7.69118 -2.47058 6.6569e-20)
(7.68359 -2.4698 0)
(7.67634 -2.46918 0)
(7.6689 -2.46855 8.62419e-20)
(7.66188 -2.46779 -2.2521e-23)
(7.65716 -2.46733 2.53535e-23)
(7.65684 -2.46787 -5.50102e-20)
(7.66132 -2.47015 -1.18788e-19)
(7.66638 -2.47376 -6.40104e-20)
(7.6679 -2.47726 6.87714e-20)
(7.66215 -2.47921 3.56974e-23)
(7.65458 -2.4786 7.93212e-20)
(7.6615 -2.47943 0)
(7.69344 -2.48572 -4.52325e-20)
(7.76341 -2.50227 -4.99884e-25)
(7.86181 -2.53327 -3.16112e-25)
(7.95285 -2.57147 5.16406e-23)
(8.01166 -2.60872 0)
(9.01695 -2.46876 -5.77878e-24)
(9.02343 -2.48324 3.00608e-18)
(9.02936 -2.49726 5.46293e-24)
(9.03496 -2.51091 -1.0843e-23)
(9.04025 -2.5242 2.76193e-18)
(9.04548 -2.53721 0)
(9.0507 -2.54996 -1.30181e-18)
(9.05597 -2.56249 1.26257e-18)
(9.06136 -2.57484 1.22349e-18)
(9.06681 -2.58699 -1.18454e-18)
(9.07225 -2.59892 0)
(9.07755 -2.61061 -4.10983e-24)
(9.08256 -2.62203 2.22322e-25)
(9.08718 -2.63316 5.14169e-19)
(9.0914 -2.64399 -7.54526e-24)
(9.09525 -2.65454 7.24352e-24)
(9.09874 -2.66481 -9.09664e-19)
(9.10183 -2.6748 6.63474e-24)
(9.10457 -2.68452 8.29261e-19)
(9.10695 -2.69397 -2.89738e-24)
(9.10899 -2.70316 2.21544e-25)
(9.11067 -2.71208 3.53091e-19)
(9.11199 -2.72073 -3.32257e-19)
(9.11294 -2.72911 -3.11307e-19)
(9.11353 -2.73724 0)
(9.1137 -2.74508 -1.94199e-24)
(9.11343 -2.75264 2.15029e-25)
(9.11274 -2.7599 -2.25256e-19)
(9.11161 -2.76686 2.03152e-19)
(9.11002 -2.77353 0)
(9.10795 -2.77989 -1.39004e-24)
(9.10539 -2.78594 -6.73127e-20)
(9.10236 -2.79169 5.54049e-20)
(9.09884 -2.79712 -4.3193e-20)
(9.09484 -2.80224 -3.06219e-20)
(9.09034 -2.80704 -1.6391e-25)
(9.08535 -2.81151 2.11324e-25)
(9.07987 -2.81567 -4.34344e-26)
(9.0739 -2.8195 4.80811e-25)
(9.06744 -2.82302 -4.97644e-25)
(9.06048 -2.82621 -9.64103e-25)
(9.05303 -2.82909 9.99237e-25)
(9.0451 -2.83165 0)
(9.03669 -2.83389 -5.50287e-20)
(9.02784 -2.83582 0)
(9.01857 -2.83746 7.62246e-20)
(9.00888 -2.83881 0)
(8.99881 -2.83986 -3.21282e-24)
(8.98838 -2.84064 2.2856e-19)
(8.97762 -2.84116 0)
(8.96655 -2.84142 -4.58639e-24)
(8.95519 -2.84143 4.78622e-24)
(8.94359 -2.84122 9.04213e-20)
(8.93181 -2.8408 1.00552e-19)
(8.91988 -2.84019 7.00813e-24)
(8.90785 -2.83941 -1.23422e-19)
(8.89577 -2.83847 -1.66566e-23)
(8.88372 -2.83741 8.95273e-24)
(8.8718 -2.83625 1.03595e-23)
(8.86011 -2.83504 -9.1055e-20)
(8.8487 -2.83381 -1.24871e-23)
(8.83758 -2.83258 1.09684e-19)
(8.82686 -2.83135 -1.43658e-23)
(8.81682 -2.83018 0)
(8.80778 -2.8292 -7.17932e-20)
(8.79969 -2.8285 -7.82681e-20)
(8.7921 -2.82803 8.52722e-20)
(8.78446 -2.82758 -4.4797e-23)
(8.77733 -2.82702 2.4184e-23)
(8.77258 -2.82672 -2.18065e-19)
(8.77233 -2.82744 -5.89432e-20)
(8.77713 -2.82998 6.35606e-20)
(8.78291 -2.83412 6.84158e-20)
(8.78545 -2.83834 -1.46919e-19)
(8.78092 -2.84118 3.88863e-23)
(8.77433 -2.8412 -4.07912e-23)
(8.78161 -2.84219 0)
(8.81388 -2.84847 4.79108e-20)
(8.88445 -2.86495 5.06087e-20)
(8.98466 -2.89683 -5.3204e-20)
(9.08036 -2.93773 5.47232e-23)
(9.14615 -2.97933 -1.14675e-22)
(9.16832 -3.01487 -6.15505e-20)
(10.1188 -2.77045 -1.67981e-18)
(10.1271 -2.78698 -1.63379e-18)
(10.1347 -2.80299 1.58856e-18)
(10.1419 -2.81855 0)
(10.1487 -2.83371 -1.49996e-18)
(10.1554 -2.84856 1.45646e-18)
(10.1621 -2.86311 1.41328e-18)
(10.169 -2.87744 -5.10622e-24)
(10.1759 -2.89157 5.18497e-24)
(10.183 -2.9055 1.51451e-25)
(10.1902 -2.91918 4.85899e-24)
(10.1971 -2.93261 1.19944e-18)
(10.2037 -2.94572 -4.53308e-24)
(10.2099 -2.95849 -1.114e-18)
(10.2155 -2.97093 -8.17162e-24)
(10.2207 -2.98303 7.84269e-24)
(10.2254 -2.99481 4.92314e-19)
(10.2297 -3.00627 -4.70538e-19)
(10.2336 -3.01742 -4.48588e-19)
(10.237 -3.02827 -4.26478e-19)
(10.2401 -3.03882 0)
(10.2427 -3.04907 -3.81719e-19)
(10.2449 -3.059 3.5911e-19)
(10.2467 -3.06864 6.06809e-24)
(10.248 -3.07799 0)
(10.2489 -3.08702 0)
(10.2493 -3.09571 0)
(10.2492 -3.10408 -1.74028e-24)
(10.2485 -3.1121 2.29372e-25)
(10.2473 -3.11978 1.60185e-24)
(10.2456 -3.12712 -8.51714e-20)
(10.2433 -3.1341 1.221e-24)
(10.2404 -3.14073 -5.97471e-20)
(10.2369 -3.14699 0)
(10.2329 -3.15289 6.60114e-20)
(10.2283 -3.15842 1.76605e-25)
(10.2231 -3.16358 -1.82376e-25)
(10.2173 -3.16837 0)
(10.2109 -3.17278 2.62846e-20)
(10.2039 -3.17683 5.35867e-25)
(10.1964 -3.1805 0)
(10.1882 -3.18381 0)
(10.1795 -3.18674 -1.61892e-24)
(10.1702 -3.18932 -5.91985e-20)
(10.1604 -3.19154 0)
(10.15 -3.19341 -8.19597e-20)
(10.1392 -3.19495 -2.85788e-25)
(10.128 -3.19616 -1.08146e-19)
(10.1163 -3.19705 -1.22767e-19)
(10.1042 -3.19764 6.92802e-20)
(10.0918 -3.19794 -4.58194e-24)
(10.0791 -3.19797 0)
(10.0661 -3.19775 -9.70007e-20)
(10.0529 -3.1973 -1.07807e-19)
(10.0396 -3.19665 0)
(10.0262 -3.19581 0)
(10.0128 -3.19481 0)
(9.99945 -3.19368 8.04514e-20)
(9.98633 -3.19247 -8.8534e-20)
(9.97353 -3.19123 0)
(9.96112 -3.18999 0)
(9.94914 -3.18877 -2.33931e-19)
(9.93772 -3.18759 -1.28019e-19)
(9.92712 -3.18651 -3.4176e-23)
(9.91767 -3.18564 7.63637e-20)
(9.90935 -3.18512 1.66365e-19)
(9.90172 -3.18488 -9.0478e-20)
(9.89422 -3.18473 -1.96517e-19)
(9.88735 -3.18449 5.20229e-23)
(9.88292 -3.18449 2.30558e-19)
(9.883 -3.18547 6.22032e-20)
(9.88825 -3.18834 6.70399e-20)
(9.89483 -3.19303 -7.20131e-20)
(9.8986 -3.19804 1.54365e-19)
(9.89575 -3.20189 -4.0795e-23)
(9.89076 -3.20276 4.27213e-23)
(9.89872 -3.20406 0)
(9.93087 -3.21028 4.91233e-23)
(10.0004 -3.22635 -5.27806e-20)
(10.0998 -3.25841 -1.31813e-24)
(10.1973 -3.30114 5.7873e-20)
(10.2681 -3.34637 -6.06321e-20)
(10.2973 -3.38676 -7.50766e-23)
(11.1831 -3.06189 2.10757e-23)
(11.1935 -3.08048 1.76251e-18)
(11.203 -3.09847 -6.97701e-24)
(11.212 -3.11596 0)
(11.2205 -3.13299 1.6166e-18)
(11.2289 -3.14969 -3.13848e-18)
(11.2373 -3.16606 -1.52223e-18)
(11.2459 -3.18219 1.15176e-23)
(11.2547 -3.19812 1.42878e-18)
(11.2636 -3.21383 1.38232e-18)
(11.2726 -3.22929 0)
(11.2814 -3.24445 -1.28939e-18)
(11.2898 -3.25927 0)
(11.2976 -3.27371 1.19664e-18)
(11.3049 -3.28775 8.51586e-24)
(11.3115 -3.30142 -8.67739e-24)
(11.3177 -3.31473 5.28305e-19)
(11.3233 -3.32767 5.0479e-19)
(11.3285 -3.34028 -5.15728e-25)
(11.3332 -3.35254 4.5723e-19)
(11.3374 -3.36447 4.33203e-19)
(11.3411 -3.37607 6.49711e-24)
(11.3444 -3.38732 0)
(11.3472 -3.39823 7.20432e-19)
(11.3495 -3.40882 3.35482e-19)
(11.3513 -3.41907 3.10564e-19)
(11.3525 -3.42895 4.10776e-24)
(11.3532 -3.43845 -2.60086e-19)
(11.3532 -3.44758 0)
(11.3527 -3.45632 1.04195e-19)
(11.3515 -3.46467 3.02005e-24)
(11.3497 -3.47263 0)
(11.3472 -3.48018 0)
(11.344 -3.48732 1.27617e-24)
(11.3402 -3.49405 -3.52292e-20)
(11.3356 -3.50036 -2.02846e-20)
(11.3304 -3.50625 4.8165e-21)
(11.3245 -3.51171 0)
(11.3179 -3.51676 -2.80254e-20)
(11.3107 -3.52138 0)
(11.3027 -3.52557 0)
(11.294 -3.52935 4.17607e-20)
(11.2847 -3.53271 -5.20719e-20)
(11.2747 -3.53565 6.30292e-20)
(11.2641 -3.53819 0)
(11.2528 -3.54033 0)
(11.2411 -3.5421 -1.00603e-19)
(11.2287 -3.54348 1.14994e-19)
(11.2159 -3.54451 8.30305e-24)
(11.2027 -3.5452 -7.36117e-20)
(11.1891 -3.54557 -1.04584e-23)
(11.1751 -3.54564 -9.23535e-20)
(11.1608 -3.54543 -2.51482e-23)
(11.1463 -3.54497 -8.44792e-25)
(11.1317 -3.54428 -8.90858e-25)
(11.117 -3.54341 1.66365e-23)
(11.1024 -3.54237 -1.54478e-19)
(11.0879 -3.54121 -8.50781e-20)
(11.0737 -3.53998 9.35303e-20)
(11.0599 -3.53873 -1.02713e-19)
(11.0467 -3.53752 1.12604e-19)
(11.034 -3.53638 -1.34203e-24)
(11.0221 -3.53532 1.34739e-19)
(11.0112 -3.53439 1.47165e-19)
(11.0016 -3.53373 -3.9917e-23)
(10.9933 -3.53347 -7.31045e-25)
(10.986 -3.53358 4.54882e-23)
(10.979 -3.53385 1.0281e-19)
(10.9728 -3.53406 -1.08658e-22)
(10.9691 -3.53449 -1.20081e-19)
(10.9699 -3.53585 -6.4844e-20)
(10.9758 -3.53914 5.56046e-25)
(10.9833 -3.54444 7.37711e-23)
(10.9886 -3.5503 -7.52778e-23)
(10.9878 -3.55529 0)
(10.985 -3.55718 -9.11684e-20)
(10.9941 -3.55899 0)
(11.026 -3.56522 1.00771e-22)
(11.0935 -3.5807 -2.1018e-22)
(11.1901 -3.61243 5.6364e-20)
(11.2868 -3.65624 1.2187e-22)
(11.3604 -3.70429 6.16778e-20)
(11.3952 -3.74891 1.09594e-22)