/*--------------------------------*- C++ -*----------------------------------*\
| =========                 |                                                 |
| \\      /  F ield         | OpenFOAM: The Open Source CFD Toolbox           |
|  \\    /   O peration     | Version:  2412                                  |
|   \\  /    A nd           | Website:  www.openfoam.com                      |
|    \\/     M anipulation  |                                                 |
\*---------------------------------------------------------------------------*/
FoamFile
{
    version     2.0;
    format      ascii;
    arch        "LSB;label=32;scalar=64";
    class       volScalarField;
    location    "120";
    object      nut;
}
// * * * * * * * * * * * * * * * * * * * * * * * * * * * * * * * * * * * * * //

dimensions      [0 2 -1 0 0 0 0];

internalField   nonuniform List<scalar> 
7373
(
2.09182e-11
2.09278e-11
2.09342e-11
2.09368e-11
2.09343e-11
2.09273e-11
2.09166e-11
2.09005e-11
2.08799e-11
2.08553e-11
2.08246e-11
2.07876e-11
2.07437e-11
2.0694e-11
2.06372e-11
2.05715e-11
2.04973e-11
2.04141e-11
2.03214e-11
2.02188e-11
2.01045e-11
1.9977e-11
1.98367e-11
1.96835e-11
1.95161e-11
1.93329e-11
1.91322e-11
1.89149e-11
1.86799e-11
1.84246e-11
1.81506e-11
1.78552e-11
1.75367e-11
1.71961e-11
1.68325e-11
1.64435e-11
1.60286e-11
1.5588e-11
1.51205e-11
1.46252e-11
1.41023e-11
1.35523e-11
1.29763e-11
1.23753e-11
1.17513e-11
1.11059e-11
1.04437e-11
9.76993e-12
9.08963e-12
8.41126e-12
7.74541e-12
7.09986e-12
6.48038e-12
5.88777e-12
5.31297e-12
4.73283e-12
4.11248e-12
3.40635e-12
2.56519e-12
1.58181e-12
6.18384e-13
8.5705e-14
3.79313e-15
5.35127e-13
6.4948e-12
3.4144e-11
1.25155e-10
2.981e-10
1.99986e-09
2.00071e-09
2.00114e-09
2.00117e-09
2.00085e-09
2.00008e-09
1.99887e-09
1.9972e-09
1.99511e-09
1.99257e-09
1.98943e-09
1.98577e-09
1.98149e-09
1.97657e-09
1.9709e-09
1.96444e-09
1.95721e-09
1.9491e-09
1.94005e-09
1.93003e-09
1.91893e-09
1.90659e-09
1.89301e-09
1.87817e-09
1.86198e-09
1.84428e-09
1.82491e-09
1.80396e-09
1.78128e-09
1.75666e-09
1.73025e-09
1.70183e-09
1.67123e-09
1.63846e-09
1.60348e-09
1.56611e-09
1.52626e-09
1.48392e-09
1.439e-09
1.39142e-09
1.34123e-09
1.28843e-09
1.23312e-09
1.1754e-09
1.11545e-09
1.05347e-09
9.89866e-10
9.25116e-10
8.59705e-10
7.94452e-10
7.30356e-10
6.68141e-10
6.08361e-10
5.51132e-10
4.9559e-10
4.39536e-10
3.79786e-10
3.12245e-10
2.32703e-10
1.414e-10
5.43061e-11
7.52319e-12
3.59812e-13
4.7855e-11
5.46384e-10
2.77824e-09
9.86138e-09
2.36408e-08
1.94134e-08
1.94196e-08
1.94212e-08
1.94192e-08
1.94137e-08
1.94042e-08
1.93902e-08
1.93719e-08
1.93493e-08
1.93217e-08
1.9289e-08
1.92511e-08
1.9207e-08
1.91566e-08
1.90988e-08
1.90339e-08
1.89612e-08
1.88798e-08
1.87893e-08
1.86892e-08
1.85786e-08
1.84563e-08
1.8322e-08
1.81749e-08
1.80149e-08
1.784e-08
1.76496e-08
1.74434e-08
1.722e-08
1.69785e-08
1.67194e-08
1.64406e-08
1.61407e-08
1.58198e-08
1.54773e-08
1.51113e-08
1.47215e-08
1.43072e-08
1.38678e-08
1.34027e-08
1.2912e-08
1.23961e-08
1.18552e-08
1.12906e-08
1.07043e-08
1.00977e-08
9.47511e-09
8.84046e-09
8.19902e-09
7.55856e-09
6.92813e-09
6.31524e-09
5.72524e-09
5.15942e-09
4.60998e-09
4.05607e-09
3.46928e-09
2.81473e-09
2.06051e-09
1.22297e-09
4.58406e-10
6.39225e-11
3.47316e-12
4.14489e-10
4.3372e-09
2.09956e-08
7.11249e-08
1.72979e-07
9.44914e-08
9.45074e-08
9.45003e-08
9.44767e-08
9.44343e-08
9.43731e-08
9.42906e-08
9.41873e-08
9.4062e-08
9.3912e-08
9.37375e-08
9.35362e-08
9.33063e-08
9.30446e-08
9.27479e-08
9.2416e-08
9.2046e-08
9.16341e-08
9.11779e-08
9.06738e-08
9.01186e-08
8.95077e-08
8.88377e-08
8.81065e-08
8.73105e-08
8.6443e-08
8.55004e-08
8.44812e-08
8.33787e-08
8.21895e-08
8.09114e-08
7.95379e-08
7.8063e-08
7.6486e-08
7.48011e-08
7.30037e-08
7.10881e-08
6.90545e-08
6.68968e-08
6.46145e-08
6.22062e-08
5.96733e-08
5.70183e-08
5.42466e-08
5.13645e-08
4.83831e-08
4.53187e-08
4.21911e-08
3.90262e-08
3.58593e-08
3.27361e-08
2.96937e-08
2.67572e-08
2.3937e-08
2.11988e-08
1.84466e-08
1.55603e-08
1.24022e-08
8.8717e-09
5.11602e-09
1.86508e-09
2.62613e-10
1.69468e-11
1.74356e-09
1.65182e-08
7.55609e-08
2.41915e-07
5.91974e-07
3.26646e-07
3.2664e-07
3.26551e-07
3.26403e-07
3.26191e-07
3.25915e-07
3.25565e-07
3.25142e-07
3.24643e-07
3.24059e-07
3.23389e-07
3.22624e-07
3.21761e-07
3.20789e-07
3.19699e-07
3.18485e-07
3.17138e-07
3.15649e-07
3.14005e-07
3.12196e-07
3.10212e-07
3.08037e-07
3.05658e-07
3.0307e-07
3.00255e-07
2.97197e-07
2.93883e-07
2.90303e-07
2.86436e-07
2.8227e-07
2.77796e-07
2.72992e-07
2.67841e-07
2.62334e-07
2.56453e-07
2.50179e-07
2.43502e-07
2.36409e-07
2.28888e-07
2.2093e-07
2.12533e-07
2.03702e-07
1.94442e-07
1.84766e-07
1.747e-07
1.64276e-07
1.53545e-07
1.42576e-07
1.31454e-07
1.20298e-07
1.09272e-07
9.85036e-08
8.80855e-08
7.80737e-08
6.83712e-08
5.86786e-08
4.86613e-08
3.79725e-08
2.64522e-08
1.4778e-08
5.23046e-09
7.44955e-10
6.00235e-11
5.08627e-09
4.32582e-08
1.85695e-07
5.56978e-07
1.35891e-06
9.15946e-07
9.15697e-07
9.15216e-07
9.1457e-07
9.13745e-07
9.12741e-07
9.1153e-07
9.10111e-07
9.08475e-07
9.0661e-07
9.04496e-07
9.02118e-07
8.99463e-07
8.96508e-07
8.93228e-07
8.89598e-07
8.85595e-07
8.81199e-07
8.7637e-07
8.71086e-07
8.65314e-07
8.59012e-07
8.52149e-07
8.44701e-07
8.36623e-07
8.27872e-07
8.18412e-07
8.08208e-07
7.97209e-07
7.85379e-07
7.72685e-07
7.5907e-07
7.4449e-07
7.28906e-07
7.12275e-07
6.94545e-07
6.75678e-07
6.55639e-07
6.34394e-07
6.11914e-07
5.88194e-07
5.63233e-07
5.37047e-07
5.09661e-07
4.81142e-07
4.51565e-07
4.21065e-07
3.89823e-07
3.58066e-07
3.26129e-07
2.94486e-07
2.6351e-07
2.33489e-07
2.04668e-07
1.76864e-07
1.49357e-07
1.2147e-07
9.25828e-08
6.26753e-08
3.38665e-08
1.16223e-08
1.67707e-09
1.81678e-10
1.18175e-08
8.95007e-08
3.57747e-07
9.96611e-07
2.40877e-06
2.21796e-06
2.21662e-06
2.21473e-06
2.21244e-06
2.20972e-06
2.20656e-06
2.20291e-06
2.19875e-06
2.19406e-06
2.18882e-06
2.18299e-06
2.17652e-06
2.1694e-06
2.16154e-06
2.1529e-06
2.14344e-06
2.13309e-06
2.12179e-06
2.10947e-06
2.09606e-06
2.0815e-06
2.06567e-06
2.04852e-06
2.02997e-06
2.00992e-06
1.98828e-06
1.96494e-06
1.93984e-06
1.91284e-06
1.88387e-06
1.85281e-06
1.81955e-06
1.78397e-06
1.74598e-06
1.70546e-06
1.66229e-06
1.61637e-06
1.5676e-06
1.51591e-06
1.46121e-06
1.40348e-06
1.34269e-06
1.27887e-06
1.21207e-06
1.14239e-06
1.07e-06
9.95192e-07
9.1837e-07
8.40064e-07
7.61094e-07
6.82678e-07
6.05758e-07
5.31175e-07
4.59792e-07
3.91427e-07
3.24679e-07
2.58521e-07
1.92162e-07
1.26245e-07
6.58957e-08
2.18987e-08
3.20944e-09
5.19304e-10
2.33952e-08
1.56375e-07
5.76765e-07
1.47938e-06
3.53109e-06
4.78323e-06
4.77828e-06
4.77215e-06
4.76517e-06
4.75725e-06
4.74838e-06
4.73847e-06
4.72748e-06
4.71538e-06
4.7021e-06
4.68755e-06
4.67168e-06
4.65439e-06
4.63558e-06
4.61513e-06
4.59293e-06
4.56889e-06
4.54285e-06
4.51466e-06
4.48421e-06
4.45134e-06
4.41584e-06
4.3776e-06
4.33642e-06
4.29211e-06
4.24447e-06
4.1933e-06
4.13841e-06
4.07958e-06
4.01655e-06
3.94914e-06
3.87707e-06
3.80008e-06
3.71797e-06
3.63046e-06
3.53729e-06
3.43821e-06
3.33303e-06
3.22155e-06
3.10357e-06
2.97898e-06
2.84772e-06
2.70975e-06
2.56511e-06
2.41397e-06
2.25662e-06
2.09356e-06
1.92563e-06
1.75392e-06
1.58026e-06
1.40746e-06
1.23769e-06
1.0732e-06
9.16511e-07
7.67852e-07
6.24907e-07
4.8661e-07
3.52362e-07
2.24382e-07
1.12974e-07
3.63081e-08
5.42807e-09
1.37197e-09
4.09568e-08
2.39156e-07
8.05189e-07
1.89613e-06
4.44073e-06
9.30304e-06
9.28842e-06
9.27159e-06
9.25317e-06
9.23292e-06
9.21086e-06
9.18686e-06
9.16082e-06
9.13268e-06
9.10231e-06
9.06958e-06
9.03436e-06
8.99649e-06
8.95579e-06
8.91204e-06
8.86503e-06
8.81459e-06
8.76046e-06
8.70238e-06
8.64012e-06
8.57338e-06
8.50183e-06
8.42519e-06
8.34313e-06
8.2553e-06
8.16132e-06
8.06077e-06
7.95333e-06
7.83852e-06
7.71586e-06
7.58496e-06
7.44528e-06
7.29631e-06
7.13757e-06
6.96854e-06
6.78867e-06
6.59746e-06
6.3945e-06
6.1793e-06
5.95145e-06
5.71063e-06
5.45657e-06
5.18907e-06
4.90805e-06
4.6136e-06
4.30613e-06
3.98641e-06
3.65596e-06
3.31678e-06
2.9726e-06
2.62929e-06
2.29148e-06
1.96452e-06
1.65474e-06
1.36372e-06
1.08824e-06
8.28059e-07
5.83506e-07
3.59631e-07
1.74344e-07
5.41235e-08
8.31317e-09
3.26084e-09
6.48131e-08
3.26904e-07
9.91207e-07
2.14973e-06
4.87998e-06
1.63944e-05
1.63593e-05
1.63205e-05
1.62791e-05
1.62346e-05
1.6187e-05
1.61361e-05
1.60818e-05
1.6024e-05
1.59625e-05
1.5897e-05
1.58274e-05
1.57534e-05
1.56747e-05
1.55909e-05
1.55018e-05
1.54071e-05
1.53062e-05
1.5199e-05
1.50848e-05
1.49633e-05
1.48339e-05
1.46962e-05
1.45495e-05
1.43934e-05
1.42271e-05
1.405e-05
1.38614e-05
1.36605e-05
1.34465e-05
1.32185e-05
1.29758e-05
1.27172e-05
1.2442e-05
1.21491e-05
1.18374e-05
1.15062e-05
1.11545e-05
1.07813e-05
1.03857e-05
9.96701e-06
9.52439e-06
9.05718e-06
8.56486e-06
8.04713e-06
7.50429e-06
6.9373e-06
6.34846e-06
5.74111e-06
5.12215e-06
4.50255e-06
3.89129e-06
3.29989e-06
2.74206e-06
2.22274e-06
1.73835e-06
1.2914e-06
8.84339e-07
5.26477e-07
2.45188e-07
7.34783e-08
1.17258e-08
6.95592e-09
9.40025e-08
4.04595e-07
1.0877e-06
2.18436e-06
4.71313e-06
1.2636e-05
2.63617e-05
2.62914e-05
2.62157e-05
2.61359e-05
2.60514e-05
2.59623e-05
2.58683e-05
2.5769e-05
2.56644e-05
2.55542e-05
2.54381e-05
2.53157e-05
2.51868e-05
2.50509e-05
2.49075e-05
2.4756e-05
2.45962e-05
2.44274e-05
2.4249e-05
2.40605e-05
2.3861e-05
2.36499e-05
2.34264e-05
2.31897e-05
2.29389e-05
2.26729e-05
2.23908e-05
2.20913e-05
2.17732e-05
2.14352e-05
2.10759e-05
2.06939e-05
2.02875e-05
1.98552e-05
1.93954e-05
1.89062e-05
1.83862e-05
1.78336e-05
1.72466e-05
1.66237e-05
1.59631e-05
1.52629e-05
1.45216e-05
1.37375e-05
1.29093e-05
1.20368e-05
1.11205e-05
1.01633e-05
9.17024e-06
8.15254e-06
7.12874e-06
6.11463e-06
5.13245e-06
4.2087e-06
3.35519e-06
2.56989e-06
1.86146e-06
1.23627e-06
7.08997e-07
3.16361e-07
9.15748e-08
1.54403e-08
1.3434e-08
1.26136e-07
4.57599e-07
1.07889e-06
2.00512e-06
3.98905e-06
1.16005e-05
2.44503e-05
3.91186e-05
3.89971e-05
3.88684e-05
3.87338e-05
3.85927e-05
3.84451e-05
3.82905e-05
3.81288e-05
3.79596e-05
3.77826e-05
3.75975e-05
3.74038e-05
3.7201e-05
3.69886e-05
3.67657e-05
3.6532e-05
3.62868e-05
3.60293e-05
3.57588e-05
3.54743e-05
3.5175e-05
3.48598e-05
3.45276e-05
3.41774e-05
3.38077e-05
3.34173e-05
3.30044e-05
3.25676e-05
3.21047e-05
3.1614e-05
3.10932e-05
3.05402e-05
2.99526e-05
2.93279e-05
2.86635e-05
2.79569e-05
2.72053e-05
2.64062e-05
2.55565e-05
2.46532e-05
2.36932e-05
2.26732e-05
2.15896e-05
2.04391e-05
1.92183e-05
1.79253e-05
1.65595e-05
1.5124e-05
1.36247e-05
1.20787e-05
1.0514e-05
8.95615e-06
7.44393e-06
6.02388e-06
4.7202e-06
3.53626e-06
2.49222e-06
1.6006e-06
8.81152e-07
3.7568e-07
1.05355e-07
1.92288e-08
2.37257e-08
1.57765e-07
4.76948e-07
9.79515e-07
1.6749e-06
2.94023e-06
9.08012e-06
2.13282e-05
5.67156e-05
5.42668e-05
5.40791e-05
5.38825e-05
5.36781e-05
5.34651e-05
5.32436e-05
5.3013e-05
5.27729e-05
5.25232e-05
5.22634e-05
5.19928e-05
5.17112e-05
5.14178e-05
5.11119e-05
5.07927e-05
5.04594e-05
5.01114e-05
4.97475e-05
4.93669e-05
4.89684e-05
4.8551e-05
4.8113e-05
4.76534e-05
4.71704e-05
4.66625e-05
4.61276e-05
4.55636e-05
4.49682e-05
4.43389e-05
4.36727e-05
4.29669e-05
4.22183e-05
4.14235e-05
4.05789e-05
3.96809e-05
3.87257e-05
3.77094e-05
3.6628e-05
3.54769e-05
3.42514e-05
3.29462e-05
3.15558e-05
3.00741e-05
2.84946e-05
2.68111e-05
2.50189e-05
2.31148e-05
2.1101e-05
1.89837e-05
1.67865e-05
1.45487e-05
1.23081e-05
1.01275e-05
8.08205e-06
6.21606e-06
4.54452e-06
3.10626e-06
1.92142e-06
1.01098e-06
4.10975e-07
1.12486e-07
2.29914e-08
3.86477e-08
1.85326e-07
4.62946e-07
8.27206e-07
1.2875e-06
1.88595e-06
5.92822e-06
1.57996e-05
5.49985e-05
7.12484e-05
7.09821e-05
7.07054e-05
7.04188e-05
7.01215e-05
6.98135e-05
6.9494e-05
6.91628e-05
6.88196e-05
6.84637e-05
6.80947e-05
6.77119e-05
6.73145e-05
6.69016e-05
6.64723e-05
6.60258e-05
6.5561e-05
6.5077e-05
6.45723e-05
6.40458e-05
6.3496e-05
6.29211e-05
6.23195e-05
6.16893e-05
6.10283e-05
6.0334e-05
5.96037e-05
5.88343e-05
5.80223e-05
5.71642e-05
5.62561e-05
5.52938e-05
5.42729e-05
5.31885e-05
5.20357e-05
5.08094e-05
4.95042e-05
4.81144e-05
4.66334e-05
4.50544e-05
4.33696e-05
4.15703e-05
3.96469e-05
3.75891e-05
3.53865e-05
3.30301e-05
3.05129e-05
2.78348e-05
2.50015e-05
2.20438e-05
1.9013e-05
1.59628e-05
1.29884e-05
1.02038e-05
7.68302e-06
5.46127e-06
3.6035e-06
2.13557e-06
1.06889e-06
4.14272e-07
1.1229e-07
2.69423e-08
5.84982e-08
2.06409e-07
4.25036e-07
6.66056e-07
9.29977e-07
1.07738e-06
3.27106e-06
9.71009e-06
4.89255e-05
8.9497e-05
8.91421e-05
8.87755e-05
8.83969e-05
8.80052e-05
8.76006e-05
8.71821e-05
8.67496e-05
8.63025e-05
8.58402e-05
8.53621e-05
8.48675e-05
8.43554e-05
8.38249e-05
8.32747e-05
8.27041e-05
8.21118e-05
8.14965e-05
8.08568e-05
8.01913e-05
7.94979e-05
7.8775e-05
7.80204e-05
7.72316e-05
7.64062e-05
7.5541e-05
7.46326e-05
7.36772e-05
7.26703e-05
7.16076e-05
7.04842e-05
6.92946e-05
6.80332e-05
6.6694e-05
6.52704e-05
6.37559e-05
6.21436e-05
6.04255e-05
5.85931e-05
5.66367e-05
5.45455e-05
5.23071e-05
4.99075e-05
4.73315e-05
4.45633e-05
4.15885e-05
3.83947e-05
3.49783e-05
3.13437e-05
2.75296e-05
2.36012e-05
1.96318e-05
1.576e-05
1.21504e-05
8.91901e-06
6.1305e-06
3.88024e-06
2.1895e-06
1.03822e-06
3.85406e-07
1.06139e-07
3.22813e-08
8.28977e-08
2.2083e-07
3.77902e-07
5.30591e-07
6.59411e-07
7.04897e-07
1.68827e-06
4.88385e-06
3.88454e-05
0.000108536
0.000108084
0.000107619
0.00010714
0.000106645
0.000106135
0.000105609
0.000105066
0.000104506
0.000103928
0.000103331
0.000102716
0.00010208
0.000101422
0.000100741
0.000100037
9.93074e-05
9.85512e-05
9.77667e-05
9.69522e-05
9.61055e-05
9.52245e-05
9.43067e-05
9.33493e-05
9.23491e-05
9.13025e-05
9.02053e-05
8.90529e-05
8.78399e-05
8.6561e-05
8.52101e-05
8.37807e-05
8.22658e-05
8.06579e-05
7.89491e-05
7.71311e-05
7.5195e-05
7.31308e-05
7.09274e-05
6.8572e-05
6.60504e-05
6.33456e-05
6.04384e-05
5.73079e-05
5.39318e-05
5.02888e-05
4.63601e-05
4.21375e-05
3.76238e-05
3.28675e-05
2.79499e-05
2.29713e-05
1.81275e-05
1.36489e-05
9.70713e-06
6.40323e-06
3.85717e-06
2.05917e-06
9.23869e-07
3.3297e-07
9.70479e-08
4.42146e-08
1.10985e-07
2.31005e-07
3.36369e-07
4.4025e-07
5.08525e-07
5.66713e-07
1.053e-06
2.51711e-06
2.64907e-05
0.000128014
0.000127456
0.000126884
0.000126295
0.000125689
0.000125064
0.000124421
0.000123759
0.000123076
0.000122373
0.000121649
0.000120903
0.000120133
0.000119338
0.000118517
0.000117669
0.000116792
0.000115884
0.000114944
0.00011397
0.000112959
0.000111909
0.000110817
0.00010968
0.000108494
0.000107254
0.000105956
0.000104594
0.000103162
0.000101654
0.000100061
9.83778e-05
9.65943e-05
9.47019e-05
9.26911e-05
9.05519e-05
8.82732e-05
8.58426e-05
8.32462e-05
8.04678e-05
7.74889e-05
7.42876e-05
7.08387e-05
6.71145e-05
6.30852e-05
5.87217e-05
5.39976e-05
4.88997e-05
4.34298e-05
3.765e-05
3.1663e-05
2.56069e-05
1.97558e-05
1.44253e-05
9.85474e-06
6.17763e-06
3.51089e-06
1.76557e-06
7.53648e-07
2.71417e-07
8.87669e-08
6.62059e-08
1.42077e-07
2.41709e-07
3.14141e-07
4.14245e-07
4.88073e-07
5.69654e-07
8.93828e-07
1.5194e-06
1.48323e-05
0.000147693
0.000147019
0.00014633
0.000145622
0.000144893
0.000144144
0.000143373
0.000142581
0.000141765
0.000140927
0.000140063
0.000139175
0.000138259
0.000137316
0.000136343
0.000135339
0.000134302
0.000133231
0.000132123
0.000130977
0.000129789
0.000128557
0.000127277
0.000125945
0.000124558
0.000123111
0.000121596
0.000120009
0.000118342
0.000116587
0.000114735
0.000112779
0.000110707
0.00010851
0.000106175
0.000103692
0.000101046
9.82228e-05
9.5205e-05
9.19728e-05
8.85027e-05
8.47672e-05
8.07341e-05
7.63683e-05
7.16314e-05
6.64853e-05
6.08961e-05
5.48456e-05
4.83369e-05
4.14527e-05
3.43284e-05
2.71577e-05
2.03237e-05
1.42501e-05
9.24584e-06
5.44464e-06
2.89758e-06
1.37504e-06
5.68918e-07
2.15719e-07
9.33865e-08
9.77252e-08
1.76899e-07
2.61581e-07
3.4839e-07
4.65267e-07
5.57784e-07
6.76771e-07
9.68178e-07
1.2126e-06
6.64063e-06
0.000167416
0.000166613
0.000165796
0.000164957
0.000164094
0.000163208
0.000162297
0.000161361
0.0001604
0.000159412
0.000158396
0.000157352
0.000156277
0.000155171
0.000154031
0.000152856
0.000151645
0.000150395
0.000149104
0.000147769
0.000146388
0.000144956
0.000143471
0.000141928
0.000140322
0.000138648
0.000136898
0.000135065
0.00013314
0.000131116
0.000128982
0.000126728
0.000124343
0.000121813
0.000119126
0.000116268
0.000113223
0.000109972
0.000106495
0.000102768
9.87626e-05
9.44432e-05
8.97707e-05
8.47016e-05
7.91877e-05
7.31817e-05
6.66422e-05
5.95482e-05
5.19092e-05
4.38416e-05
3.55339e-05
2.72663e-05
1.95725e-05
1.30041e-05
7.90464e-06
4.32307e-06
2.15009e-06
9.77465e-07
4.08399e-07
1.78473e-07
1.14887e-07
1.38472e-07
2.22096e-07
3.22169e-07
4.36478e-07
5.82809e-07
7.01739e-07
8.76429e-07
1.17024e-06
1.28392e-06
3.25667e-06
0.00018707
0.000186125
0.000185165
0.00018418
0.000183168
0.00018213
0.000181065
0.000179971
0.000178848
0.000177695
0.00017651
0.000175294
0.000174043
0.000172756
0.000171432
0.000170069
0.000168665
0.000167218
0.000165724
0.000164181
0.000162586
0.000160935
0.000159224
0.000157447
0.000155599
0.000153674
0.000151663
0.000149558
0.00014735
0.000145028
0.000142582
0.000139999
0.000137266
0.000134369
0.000131293
0.00012802
0.000124533
0.00012081
0.000116825
0.000112551
0.00010795
0.000102982
9.75986e-05
9.17461e-05
8.53663e-05
7.84025e-05
7.08081e-05
6.25638e-05
5.36958e-05
4.43793e-05
3.48935e-05
2.56516e-05
1.73889e-05
1.07664e-05
6.04868e-06
3.05125e-06
1.43387e-06
6.50268e-07
2.983e-07
1.79498e-07
1.56401e-07
1.96251e-07
3.00693e-07
4.28856e-07
5.79222e-07
7.61424e-07
9.07754e-07
1.16264e-06
1.44834e-06
1.5111e-06
2.08359e-06
0.000214132
0.000213252
0.000212336
0.0002114
0.000210445
0.000209479
0.000208512
0.000207544
0.000206554
0.00020545
0.000204332
0.000203184
0.000202007
0.0002008
0.000199562
0.000198292
0.000196989
0.000195652
0.00019428
0.000192872
0.000191425
0.000189939
0.00018841
0.000186838
0.000185219
0.000183552
0.000181833
0.000180059
0.000178226
0.00017633
0.000174367
0.000172329
0.000170212
0.000168006
0.000165704
0.000163296
0.00016077
0.000158115
0.000155319
0.000152368
0.000149246
0.000145938
0.000142426
0.000138689
0.000134707
0.000130453
0.000125898
0.000121007
0.000115737
0.000110037
0.00010385
9.71118e-05
8.97535e-05
8.17098e-05
7.29348e-05
6.34214e-05
5.32332e-05
4.26516e-05
3.21083e-05
2.2216e-05
1.39314e-05
7.89636e-06
4.07258e-06
1.90533e-06
8.78036e-07
4.40976e-07
2.65564e-07
2.13774e-07
2.24079e-07
2.84731e-07
4.21169e-07
5.85793e-07
7.75529e-07
9.9189e-07
1.16012e-06
1.52711e-06
1.75087e-06
1.79064e-06
1.79124e-06
0.000234522
0.000233498
0.000232433
0.000231346
0.00023024
0.000229123
0.000228008
0.000226894
0.000225755
0.000224475
0.00022318
0.000221851
0.000220489
0.000219094
0.000217663
0.000216197
0.000214693
0.000213152
0.000211571
0.000209948
0.000208283
0.000206573
0.000204816
0.000203009
0.000201151
0.000199239
0.000197268
0.000195235
0.000193136
0.000190966
0.00018872
0.00018639
0.000183969
0.000181449
0.000178819
0.000176068
0.000173184
0.000170154
0.000166963
0.000163596
0.000160035
0.000156262
0.000152255
0.000147992
0.000143448
0.000138591
0.000133388
0.000127794
0.00012176
0.000115223
0.000108116
0.000100364
9.1887e-05
8.26167e-05
7.25194e-05
6.16237e-05
5.0074e-05
3.83419e-05
2.71077e-05
1.72296e-05
9.76128e-06
5.00548e-06
2.40423e-06
1.0779e-06
5.74152e-07
3.64708e-07
2.87892e-07
2.83437e-07
3.26104e-07
4.12633e-07
5.88939e-07
7.9287e-07
1.01803e-06
1.2587e-06
1.4385e-06
1.84693e-06
2.00705e-06
2.06291e-06
1.86227e-06
0.000254643
0.000253458
0.000252228
0.000250974
0.0002497
0.000248416
0.000247133
0.00024585
0.000244534
0.000243058
0.000241565
0.000240034
0.000238466
0.00023686
0.000235215
0.000233529
0.000231802
0.000230032
0.000228217
0.000226356
0.000224446
0.000222486
0.000220473
0.000218405
0.000216279
0.000214091
0.000211838
0.000209515
0.000207117
0.000204639
0.000202073
0.000199414
0.000196651
0.000193774
0.000190773
0.000187635
0.000184345
0.000180888
0.000177248
0.000173407
0.000169346
0.000165042
0.000160471
0.000155606
0.000150418
0.00014487
0.00013892
0.000132517
0.000125599
0.000118095
0.000109923
0.000100998
9.12354e-05
8.05732e-05
6.90197e-05
5.66858e-05
4.38872e-05
3.14218e-05
2.0316e-05
1.15323e-05
5.79601e-06
2.70944e-06
1.30775e-06
6.9285e-07
4.60825e-07
3.72863e-07
3.58566e-07
3.94254e-07
4.69886e-07
5.85114e-07
8.0411e-07
1.04286e-06
1.29231e-06
1.54184e-06
1.72138e-06
2.10114e-06
2.18805e-06
2.30296e-06
2.0977e-06
0.000274335
0.00027297
0.000271557
0.000270118
0.000268658
0.000267188
0.000265716
0.000264237
0.000262706
0.000261013
0.0002593
0.000257544
0.000255747
0.000253906
0.000252021
0.000250092
0.000248115
0.000246089
0.000244013
0.000241885
0.000239703
0.000237464
0.000235165
0.000232804
0.000230377
0.000227881
0.00022531
0.00022266
0.000219926
0.0002171
0.000214175
0.000211142
0.000207991
0.00020471
0.000201287
0.000197707
0.000193954
0.00019001
0.000185857
0.000181474
0.000176838
0.000171924
0.000166704
0.000161145
0.000155213
0.000148864
0.000142048
0.000134703
0.000126754
0.000118119
0.000108705
9.84211e-05
8.71877e-05
7.49806e-05
6.19105e-05
4.82782e-05
3.47291e-05
2.2532e-05
1.29452e-05
6.44119e-06
2.88613e-06
1.44513e-06
8.19969e-07
5.53162e-07
4.60968e-07
4.45727e-07
4.78839e-07
5.51198e-07
6.58744e-07
8.01839e-07
1.05933e-06
1.32132e-06
1.57938e-06
1.82094e-06
1.99067e-06
2.29134e-06
2.3161e-06
2.51567e-06
2.4606e-06
0.000293371
0.000291807
0.000290192
0.000288549
0.000286883
0.000285205
0.000283519
0.000281814
0.000280037
0.000278104
0.000276147
0.000274141
0.000272088
0.000269987
0.000267836
0.000265634
0.000263379
0.000261069
0.000258703
0.000256277
0.00025379
0.000251239
0.00024862
0.000245931
0.000243167
0.000240324
0.000237396
0.000234379
0.000231264
0.000228045
0.000224713
0.000221256
0.000217665
0.000213924
0.000210019
0.000205934
0.00020165
0.000197147
0.000192404
0.000187396
0.000182098
0.000176479
0.000170506
0.000164142
0.000157342
0.000150058
0.000142227
0.000133776
0.000124616
0.000114654
0.000103792
9.19469e-05
7.90819e-05
6.52815e-05
5.08957e-05
3.66263e-05
2.35963e-05
1.33806e-05
6.7861e-06
3.0635e-06
1.52123e-06
9.10812e-07
6.52398e-07
5.53428e-07
5.41676e-07
5.77834e-07
6.50117e-07
7.54758e-07
8.89748e-07
1.05524e-06
1.34007e-06
1.60941e-06
1.85996e-06
2.07964e-06
2.23302e-06
2.43094e-06
2.53177e-06
2.7012e-06
2.69389e-06
0.000311463
0.00030968
0.000307843
0.000305976
0.000304083
0.000302172
0.000300245
0.000298282
0.000296228
0.000294032
0.000291803
0.000289521
0.000287185
0.000284795
0.000282349
0.000279846
0.000277282
0.000274656
0.000271965
0.000269208
0.000266381
0.000263481
0.000260505
0.000257448
0.000254306
0.000251073
0.000247744
0.000244312
0.000240768
0.000237103
0.000233308
0.00022937
0.000225275
0.000221008
0.000216552
0.000211887
0.000206992
0.000201845
0.00019642
0.00019069
0.000184622
0.000178182
0.00017133
0.000164022
0.000156204
0.000147818
0.000138791
0.000129032
0.000118443
0.000106931
9.44116e-05
8.08537e-05
6.63625e-05
5.12966e-05
3.65078e-05
2.33026e-05
1.29236e-05
6.27692e-06
3.09395e-06
1.58318e-06
9.80029e-07
7.42957e-07
6.56472e-07
6.48281e-07
6.90081e-07
7.65388e-07
8.68887e-07
9.98526e-07
1.15267e-06
1.33101e-06
1.62756e-06
1.88828e-06
2.11869e-06
2.30808e-06
2.44076e-06
2.53745e-06
2.62608e-06
2.7722e-06
2.77587e-06
0.000328254
0.00032623
0.00032415
0.000322036
0.000319892
0.000317723
0.000315525
0.000313271
0.000310913
0.000308427
0.000305899
0.000303311
0.000300664
0.000297954
0.000295181
0.000292343
0.000289437
0.00028646
0.000283409
0.000280283
0.000277077
0.000273787
0.000270411
0.000266942
0.000263375
0.000259705
0.000255923
0.000252021
0.000247991
0.00024382
0.000239498
0.00023501
0.000230339
0.000225469
0.000220377
0.000215043
0.000209443
0.000203549
0.000197332
0.000190759
0.000183792
0.000176389
0.000168503
0.000160079
0.000151057
0.000141364
0.000130918
0.000119616
0.000107363
9.40944e-05
7.98118e-05
6.46677e-05
4.91439e-05
3.41536e-05
2.11845e-05
1.16622e-05
5.58762e-06
2.81361e-06
1.59744e-06
1.04749e-06
8.33154e-07
7.65646e-07
7.69401e-07
8.1695e-07
8.96193e-07
9.99688e-07
1.12454e-06
1.26905e-06
1.4314e-06
1.61105e-06
1.90335e-06
2.14327e-06
2.34627e-06
2.50356e-06
2.61293e-06
2.67137e-06
2.67925e-06
2.75909e-06
2.77857e-06
0.000343307
0.000341019
0.000338674
0.000336289
0.000333868
0.000331412
0.000328909
0.000326334
0.000323645
0.00032084
0.000317984
0.000315059
0.000312068
0.000309006
0.000305872
0.000302664
0.000299378
0.000296011
0.000292561
0.000289023
0.000285394
0.00028167
0.000277845
0.000273914
0.00026987
0.000265706
0.000261411
0.000256978
0.000252395
0.000247648
0.000242723
0.000237604
0.000232271
0.000226703
0.000220878
0.000214768
0.000208346
0.000201581
0.000194436
0.000186873
0.000178846
0.000170304
0.000161189
0.000151439
0.000140982
0.000129742
0.000117627
0.000104547
9.0465e-05
7.54535e-05
5.97983e-05
4.41345e-05
2.96428e-05
1.76408e-05
9.22058e-06
4.75502e-06
2.49149e-06
1.52622e-06
1.1094e-06
9.33117e-07
8.8582e-07
9.04035e-07
9.60034e-07
1.04245e-06
1.14552e-06
1.26549e-06
1.40035e-06
1.54838e-06
1.70763e-06
1.8779e-06
2.1534e-06
2.36592e-06
2.53947e-06
2.6673e-06
2.75219e-06
2.79182e-06
2.79097e-06
2.80476e-06
2.85268e-06
0.000356093
0.00035352
0.000350885
0.000348204
0.000345477
0.000342701
0.000339861
0.000336932
0.000333886
0.000330732
0.000327515
0.000324221
0.000320851
0.000317401
0.000313869
0.000310251
0.000306545
0.000302746
0.000298851
0.000294855
0.000290755
0.000286544
0.000282217
0.000277766
0.000273183
0.000268459
0.000263584
0.000258546
0.00025333
0.000247923
0.000242305
0.000236458
0.000230359
0.000223982
0.000217301
0.000210285
0.0002029
0.00019511
0.000186869
0.000178132
0.000168842
0.00015894
0.000148359
0.000137026
0.000124876
0.000111845
9.7871e-05
8.29792e-05
6.73648e-05
5.15292e-05
3.64118e-05
2.32362e-05
1.33354e-05
6.8915e-06
3.68237e-06
2.17517e-06
1.46102e-06
1.16029e-06
1.04476e-06
1.02185e-06
1.05393e-06
1.11808e-06
1.20329e-06
1.30444e-06
1.41849e-06
1.54325e-06
1.67707e-06
1.81831e-06
1.96526e-06
2.11854e-06
2.37002e-06
2.55376e-06
2.69931e-06
2.79928e-06
2.86249e-06
2.8886e-06
2.89511e-06
2.95254e-06
2.97949e-06
0.000365987
0.000363103
0.000360153
0.000357148
0.000354084
0.000350954
0.000347744
0.00034443
0.000340999
0.000337462
0.000333851
0.000330152
0.000326365
0.000322488
0.000318516
0.000314446
0.000310274
0.000305994
0.000301604
0.000297097
0.000292469
0.000287712
0.000282819
0.000277781
0.000272588
0.000267228
0.00026169
0.000255959
0.000250017
0.000243847
0.000237427
0.000230734
0.00022374
0.000216416
0.000208729
0.000200643
0.000192118
0.000183108
0.000173559
0.000163415
0.000152612
0.000141084
0.000128762
0.000115594
0.000101571
8.67236e-05
7.12019e-05
5.54402e-05
4.02301e-05
2.6716e-05
1.61245e-05
8.78433e-06
4.89131e-06
2.82417e-06
1.86654e-06
1.42632e-06
1.23063e-06
1.16835e-06
1.17445e-06
1.21957e-06
1.28965e-06
1.37581e-06
1.47344e-06
1.58005e-06
1.69389e-06
1.81348e-06
1.93748e-06
2.06456e-06
2.19354e-06
2.32611e-06
2.55146e-06
2.7085e-06
2.82921e-06
2.90446e-06
2.94862e-06
2.96436e-06
2.9858e-06
3.04187e-06
3.05955e-06
3.06022e-06
0.000372249
0.00036903
0.000365737
0.000362376
0.000358941
0.000355423
0.000351809
0.00034808
0.000344233
0.000340278
0.000336234
0.000332091
0.000327847
0.000323498
0.00031904
0.000314468
0.000309778
0.000304964
0.00030002
0.000294941
0.000289719
0.000284346
0.000278812
0.000273106
0.000267217
0.000261129
0.000254829
0.000248297
0.000241513
0.000234455
0.000227096
0.000219408
0.000211358
0.000202911
0.000194028
0.000184663
0.000174772
0.000164295
0.000153174
0.000141345
0.000128751
0.00011535
0.000101136
8.61845e-05
7.07341e-05
5.52345e-05
4.04008e-05
2.73158e-05
1.69107e-05
9.61881e-06
5.57295e-06
3.32518e-06
2.22495e-06
1.67603e-06
1.42804e-06
1.33027e-06
1.31256e-06
1.34205e-06
1.39852e-06
1.47173e-06
1.55614e-06
1.64825e-06
1.746e-06
1.84809e-06
1.95343e-06
2.061e-06
2.1698e-06
2.27894e-06
2.38789e-06
2.49934e-06
2.69993e-06
2.83403e-06
2.93356e-06
2.98707e-06
3.01486e-06
3.02299e-06
3.06631e-06
3.10419e-06
3.12405e-06
3.14328e-06
0.000374019
0.000370436
0.000366769
0.000363019
0.000359178
0.000355237
0.000351184
0.000347009
0.000342711
0.000338299
0.000333781
0.000329149
0.0003244
0.00031953
0.000314533
0.000309403
0.000304135
0.000298721
0.000293156
0.00028743
0.000281536
0.000275462
0.000269196
0.000262725
0.000256033
0.000249102
0.000241915
0.000234447
0.000226674
0.000218566
0.000210093
0.000201219
0.000191904
0.000182107
0.000171779
0.000160874
0.000149334
0.000137109
0.000124152
0.000110433
9.59925e-05
8.09675e-05
6.56662e-05
5.06034e-05
3.66181e-05
2.46878e-05
1.53467e-05
9.15667e-06
5.52286e-06
3.47063e-06
2.41724e-06
1.86839e-06
1.60495e-06
1.48959e-06
1.45982e-06
1.4777e-06
1.52341e-06
1.58623e-06
1.65946e-06
1.73945e-06
1.82402e-06
1.91173e-06
2.00161e-06
2.09293e-06
2.18498e-06
2.2771e-06
2.36865e-06
2.45916e-06
2.54866e-06
2.64061e-06
2.81954e-06
2.93468e-06
3.01685e-06
3.05125e-06
3.0651e-06
3.06787e-06
3.10704e-06
3.14067e-06
3.163e-06
3.1852e-06
0.000374068
0.000370299
0.000366321
0.000362247
0.000358072
0.000353788
0.000349387
0.000344861
0.000340203
0.000335416
0.000330501
0.000325461
0.000320289
0.000314981
0.00030953
0.000303931
0.000298175
0.000292255
0.000286165
0.000279893
0.000273431
0.000266767
0.000259886
0.000252774
0.000245411
0.000237779
0.000229858
0.00022162
0.00021304
0.000204082
0.000194711
0.00018489
0.000174577
0.000163726
0.000152293
0.000140239
0.000127521
0.000114127
0.000100091
8.55141e-05
7.06174e-05
5.58445e-05
4.18824e-05
2.9579e-05
1.94877e-05
1.20794e-05
7.58257e-06
4.82013e-06
3.27189e-06
2.42303e-06
1.96732e-06
1.73899e-06
1.63524e-06
1.60582e-06
1.61925e-06
1.65864e-06
1.71335e-06
1.77734e-06
1.84709e-06
1.9204e-06
1.99595e-06
2.07287e-06
2.15054e-06
2.22844e-06
2.30613e-06
2.38319e-06
2.45923e-06
2.53389e-06
2.60703e-06
2.67908e-06
2.75405e-06
2.91491e-06
3.01516e-06
3.08299e-06
3.1002e-06
3.10235e-06
3.1019e-06
3.13531e-06
3.16543e-06
3.18831e-06
3.21259e-06
0.000364183
0.000359943
0.000355537
0.000351018
0.000346379
0.000341614
0.000336714
0.000331675
0.000326493
0.000321168
0.000315697
0.000310076
0.000304302
0.000298367
0.000292264
0.000285984
0.000279516
0.000272854
0.000265986
0.0002589
0.000251583
0.000244021
0.000236193
0.000228079
0.000219656