/*--------------------------------*- C++ -*----------------------------------*\
| =========                 |                                                 |
| \\      /  F ield         | OpenFOAM: The Open Source CFD Toolbox           |
|  \\    /   O peration     | Version:  2412                                  |
|   \\  /    A nd           | Website:  www.openfoam.com                      |
|    \\/     M anipulation  |                                                 |
\*---------------------------------------------------------------------------*/
FoamFile
{
    version     2.0;
    format      ascii;
    arch        "LSB;label=32;scalar=64";
    class       volScalarField;
    location    "120";
    object      nuTilda;
}
// * * * * * * * * * * * * * * * * * * * * * * * * * * * * * * * * * * * * * //

dimensions      [0 2 -1 0 0 0 0];

internalField   nonuniform List<scalar> 
8637
(
2.27452e-06
2.27408e-06
2.27355e-06
2.27286e-06
2.27256e-06
2.27225e-06
2.27194e-06
2.27166e-06
2.27133e-06
2.27102e-06
2.27076e-06
2.27054e-06
2.27029e-06
2.26998e-06
2.26973e-06
2.2695e-06
2.26926e-06
2.26901e-06
2.26876e-06
2.26853e-06
2.26831e-06
2.26809e-06
2.26785e-06
2.2676e-06
2.26738e-06
2.26716e-06
2.26696e-06
2.26673e-06
2.2665e-06
2.26626e-06
2.26603e-06
2.26578e-06
2.26559e-06
2.26534e-06
2.26511e-06
2.26486e-06
2.2646e-06
2.26434e-06
2.26406e-06
2.26378e-06
2.26352e-06
2.2632e-06
2.26288e-06
2.26254e-06
2.26223e-06
2.26188e-06
2.26151e-06
2.26113e-06
2.26073e-06
2.26027e-06
2.25982e-06
2.25934e-06
2.25886e-06
2.25831e-06
2.25771e-06
2.2571e-06
2.25644e-06
2.25573e-06
2.25498e-06
2.25417e-06
2.25331e-06
2.25236e-06
2.25134e-06
2.25025e-06
2.24909e-06
2.24783e-06
2.24645e-06
2.24495e-06
2.24336e-06
2.24158e-06
2.23967e-06
2.23758e-06
2.23526e-06
2.23274e-06
2.22994e-06
2.22683e-06
2.22341e-06
2.21951e-06
2.21507e-06
2.20998e-06
2.20401e-06
2.19691e-06
2.18824e-06
2.17754e-06
2.1641e-06
2.14679e-06
2.1235e-06
2.09157e-06
6.85594e-06
6.85461e-06
6.8529e-06
6.85074e-06
6.84976e-06
6.84879e-06
6.84785e-06
6.84694e-06
6.84596e-06
6.84505e-06
6.84421e-06
6.84343e-06
6.84261e-06
6.84172e-06
6.84091e-06
6.84012e-06
6.83933e-06
6.83857e-06
6.83779e-06
6.837e-06
6.83627e-06
6.83553e-06
6.83479e-06
6.834e-06
6.83325e-06
6.83252e-06
6.83182e-06
6.83106e-06
6.83031e-06
6.82954e-06
6.8288e-06
6.82801e-06
6.8273e-06
6.82646e-06
6.8257e-06
6.82488e-06
6.82407e-06
6.82323e-06
6.82227e-06
6.82137e-06
6.82048e-06
6.81947e-06
6.81846e-06
6.8174e-06
6.81636e-06
6.81521e-06
6.81402e-06
6.81279e-06
6.81151e-06
6.81008e-06
6.80865e-06
6.80712e-06
6.80556e-06
6.80383e-06
6.80201e-06
6.80009e-06
6.79803e-06
6.79588e-06
6.79357e-06
6.79106e-06
6.78842e-06
6.78554e-06
6.78247e-06
6.77918e-06
6.77563e-06
6.77184e-06
6.7677e-06
6.76323e-06
6.75843e-06
6.75314e-06
6.74745e-06
6.74119e-06
6.73433e-06
6.72687e-06
6.71857e-06
6.70936e-06
6.69909e-06
6.68743e-06
6.67418e-06
6.65883e-06
6.64071e-06
6.61896e-06
6.59223e-06
6.5589e-06
6.51675e-06
6.46201e-06
6.38815e-06
6.2871e-06
1.14044e-05
1.14021e-05
1.13991e-05
1.13953e-05
1.13937e-05
1.1392e-05
1.13904e-05
1.13887e-05
1.13871e-05
1.13855e-05
1.1384e-05
1.13826e-05
1.13811e-05
1.13796e-05
1.13781e-05
1.13767e-05
1.13753e-05
1.13739e-05
1.13725e-05
1.13711e-05
1.13698e-05
1.13684e-05
1.1367e-05
1.13656e-05
1.13643e-05
1.13629e-05
1.13616e-05
1.13602e-05
1.13588e-05
1.13574e-05
1.1356e-05
1.13546e-05
1.13532e-05
1.13517e-05
1.13503e-05
1.13488e-05
1.13473e-05
1.13457e-05
1.1344e-05
1.13424e-05
1.13407e-05
1.13389e-05
1.13371e-05
1.13352e-05
1.13333e-05
1.13312e-05
1.13291e-05
1.13269e-05
1.13246e-05
1.13222e-05
1.13196e-05
1.1317e-05
1.13142e-05
1.13112e-05
1.13081e-05
1.13048e-05
1.13013e-05
1.12976e-05
1.12937e-05
1.12895e-05
1.12851e-05
1.12804e-05
1.12753e-05
1.12698e-05
1.1264e-05
1.12578e-05
1.12511e-05
1.12438e-05
1.1236e-05
1.12275e-05
1.12182e-05
1.12082e-05
1.11971e-05
1.11851e-05
1.11718e-05
1.11569e-05
1.11403e-05
1.11215e-05
1.10999e-05
1.10746e-05
1.10444e-05
1.10078e-05
1.09621e-05
1.09043e-05
1.08307e-05
1.07342e-05
1.06036e-05
1.04255e-05
1.57167e-05
1.57134e-05
1.57089e-05
1.57039e-05
1.57016e-05
1.56992e-05
1.56968e-05
1.56945e-05
1.56921e-05
1.56899e-05
1.56877e-05
1.56856e-05
1.56833e-05
1.56812e-05
1.56791e-05
1.5677e-05
1.56749e-05
1.56728e-05
1.56708e-05
1.56687e-05
1.56667e-05
1.56646e-05
1.56626e-05
1.56606e-05
1.56585e-05
1.56565e-05
1.56544e-05
1.56523e-05
1.56503e-05
1.56482e-05
1.56461e-05
1.5644e-05
1.56418e-05
1.56397e-05
1.56375e-05
1.56352e-05
1.56329e-05
1.56306e-05
1.56282e-05
1.56257e-05
1.56232e-05
1.56207e-05
1.5618e-05
1.56152e-05
1.56124e-05
1.56095e-05
1.56065e-05
1.56034e-05
1.56001e-05
1.55966e-05
1.55931e-05
1.55894e-05
1.55855e-05
1.55815e-05
1.55772e-05
1.55727e-05
1.55679e-05
1.5563e-05
1.55577e-05
1.55521e-05
1.55462e-05
1.554e-05
1.55333e-05
1.55262e-05
1.55186e-05
1.55105e-05
1.55018e-05
1.54925e-05
1.54824e-05
1.54715e-05
1.54596e-05
1.54468e-05
1.54327e-05
1.54173e-05
1.54003e-05
1.53813e-05
1.53598e-05
1.53353e-05
1.53069e-05
1.52731e-05
1.52322e-05
1.51813e-05
1.51166e-05
1.50335e-05
1.49264e-05
1.47844e-05
1.45921e-05
1.43307e-05
1.96682e-05
1.96639e-05
1.96579e-05
1.96524e-05
1.96494e-05
1.96463e-05
1.96433e-05
1.96402e-05
1.96372e-05
1.96343e-05
1.96314e-05
1.96286e-05
1.96257e-05
1.96229e-05
1.96201e-05
1.96173e-05
1.96145e-05
1.96118e-05
1.9609e-05
1.96063e-05
1.96036e-05
1.96008e-05
1.95981e-05
1.95954e-05
1.95926e-05
1.95899e-05
1.95872e-05
1.95845e-05
1.95817e-05
1.95789e-05
1.95761e-05
1.95733e-05
1.95704e-05
1.95675e-05
1.95646e-05
1.95616e-05
1.95586e-05
1.95555e-05
1.95524e-05
1.95492e-05
1.9546e-05
1.95427e-05
1.95393e-05
1.95358e-05
1.95322e-05
1.95286e-05
1.95248e-05
1.95209e-05
1.95169e-05
1.95127e-05
1.95084e-05
1.95039e-05
1.94993e-05
1.94945e-05
1.94894e-05
1.94841e-05
1.94786e-05
1.94728e-05
1.94668e-05
1.94604e-05
1.94537e-05
1.94467e-05
1.94392e-05
1.94314e-05
1.94229e-05
1.9414e-05
1.94045e-05
1.93943e-05
1.93832e-05
1.93713e-05
1.93584e-05
1.93444e-05
1.93292e-05
1.93125e-05
1.92938e-05
1.92728e-05
1.92489e-05
1.92211e-05
1.91882e-05
1.91481e-05
1.90981e-05
1.90339e-05
1.89501e-05
1.88405e-05
1.86972e-05
1.85058e-05
1.82464e-05
1.78952e-05
2.31727e-05
2.31675e-05
2.31602e-05
2.31551e-05
2.31517e-05
2.31479e-05
2.31443e-05
2.31406e-05
2.31371e-05
2.31335e-05
2.313e-05
2.31265e-05
2.3123e-05
2.31195e-05
2.31161e-05
2.31126e-05
2.31092e-05
2.31059e-05
2.31024e-05
2.30991e-05
2.30956e-05
2.30922e-05
2.30888e-05
2.30855e-05
2.3082e-05
2.30787e-05
2.30752e-05
2.30719e-05
2.30684e-05
2.3065e-05
2.30615e-05
2.30581e-05
2.30545e-05
2.30511e-05
2.30475e-05
2.30439e-05
2.30402e-05
2.30366e-05
2.30329e-05
2.30292e-05
2.30253e-05
2.30216e-05
2.30176e-05
2.30137e-05
2.30096e-05
2.30055e-05
2.30013e-05
2.2997e-05
2.29926e-05
2.29881e-05
2.29835e-05
2.29788e-05
2.2974e-05
2.2969e-05
2.29637e-05
2.29584e-05
2.29528e-05
2.29471e-05
2.29412e-05
2.2935e-05
2.29286e-05
2.29219e-05
2.29148e-05
2.29075e-05
2.28997e-05
2.28915e-05
2.28827e-05
2.28734e-05
2.28633e-05
2.28525e-05
2.28408e-05
2.28281e-05
2.28142e-05
2.27989e-05
2.27815e-05
2.27616e-05
2.27383e-05
2.27104e-05
2.26759e-05
2.26319e-05
2.25744e-05
2.24974e-05
2.23934e-05
2.22545e-05
2.20707e-05
2.18238e-05
2.14898e-05
2.10407e-05
2.61659e-05
2.61599e-05
2.61517e-05
2.61488e-05
2.61449e-05
2.61407e-05
2.61366e-05
2.61324e-05
2.61283e-05
2.61242e-05
2.61202e-05
2.61161e-05
2.6112e-05
2.6108e-05
2.6104e-05
2.61e-05
2.6096e-05
2.60921e-05
2.6088e-05
2.60841e-05
2.60799e-05
2.6076e-05
2.6072e-05
2.60681e-05
2.6064e-05
2.60602e-05
2.60561e-05
2.60522e-05
2.60481e-05
2.60442e-05
2.60402e-05
2.60363e-05
2.60322e-05
2.60283e-05
2.60242e-05
2.60203e-05
2.60162e-05
2.60123e-05
2.60082e-05
2.60042e-05
2.60001e-05
2.59962e-05
2.5992e-05
2.59881e-05
2.59839e-05
2.59799e-05
2.59757e-05
2.59717e-05
2.59675e-05
2.59634e-05
2.59592e-05
2.59551e-05
2.59508e-05
2.59466e-05
2.59422e-05
2.59379e-05
2.59334e-05
2.5929e-05
2.59244e-05
2.59199e-05
2.59151e-05
2.59105e-05
2.59055e-05
2.59006e-05
2.58953e-05
2.589e-05
2.58843e-05
2.58783e-05
2.58718e-05
2.58649e-05
2.58574e-05
2.58493e-05
2.58402e-05
2.58299e-05
2.58176e-05
2.58026e-05
2.57838e-05
2.57592e-05
2.57262e-05
2.56804e-05
2.56161e-05
2.5525e-05
2.53974e-05
2.52237e-05
2.4992e-05
2.46806e-05
2.42616e-05
2.37047e-05
2.8602e-05
2.85954e-05
2.85868e-05
2.85888e-05
2.85846e-05
2.85801e-05
2.85756e-05
2.85711e-05
2.85666e-05
2.85621e-05
2.85576e-05
2.85532e-05
2.85486e-05
2.85441e-05
2.85397e-05
2.85352e-05
2.85308e-05
2.85264e-05
2.85218e-05
2.85174e-05
2.85128e-05
2.85084e-05
2.85039e-05
2.84996e-05
2.84951e-05
2.84908e-05
2.84863e-05
2.8482e-05
2.84775e-05
2.84733e-05
2.84689e-05
2.84648e-05
2.84604e-05
2.84564e-05
2.84521e-05
2.84481e-05
2.84439e-05
2.84401e-05
2.8436e-05
2.84323e-05
2.84284e-05
2.84248e-05
2.84211e-05
2.84177e-05
2.84141e-05
2.84109e-05
2.84076e-05
2.84046e-05
2.84015e-05
2.83988e-05
2.83961e-05
2.83937e-05
2.83912e-05
2.8389e-05
2.83869e-05
2.8385e-05
2.83832e-05
2.83818e-05
2.83804e-05
2.83795e-05
2.83786e-05
2.83781e-05
2.83777e-05
2.83777e-05
2.83777e-05
2.83781e-05
2.83786e-05
2.83793e-05
2.83798e-05
2.83807e-05
2.83814e-05
2.83821e-05
2.83823e-05
2.83816e-05
2.8379e-05
2.83736e-05
2.83635e-05
2.83459e-05
2.83168e-05
2.82701e-05
2.81974e-05
2.80881e-05
2.79296e-05
2.77112e-05
2.74204e-05
2.70318e-05
2.65142e-05
2.58384e-05
3.04543e-05
3.04475e-05
3.04393e-05
3.04497e-05
3.04455e-05
3.04409e-05
3.04362e-05
3.04316e-05
3.04269e-05
3.04222e-05
3.04176e-05
3.04128e-05
3.0408e-05
3.04033e-05
3.03985e-05
3.03938e-05
3.0389e-05
3.03844e-05
3.03794e-05
3.03747e-05
3.03698e-05
3.03652e-05
3.03603e-05
3.03558e-05
3.0351e-05
3.03466e-05
3.03418e-05
3.03375e-05
3.03328e-05
3.03286e-05
3.03242e-05
3.03202e-05
3.03159e-05
3.03121e-05
3.0308e-05
3.03044e-05
3.03008e-05
3.02975e-05
3.02942e-05
3.02913e-05
3.02883e-05
3.02859e-05
3.02834e-05
3.02814e-05
3.02795e-05
3.02781e-05
3.02768e-05
3.0276e-05
3.02754e-05
3.02755e-05
3.02757e-05
3.02765e-05
3.02776e-05
3.02793e-05
3.02813e-05
3.0284e-05
3.02871e-05
3.0291e-05
3.02953e-05
3.03006e-05
3.03064e-05
3.03132e-05
3.03205e-05
3.03289e-05
3.03377e-05
3.03478e-05
3.03586e-05
3.03704e-05
3.03827e-05
3.03963e-05
3.04104e-05
3.04254e-05
3.04404e-05
3.04549e-05
3.04675e-05
3.04765e-05
3.04793e-05
3.04715e-05
3.04472e-05
3.03976e-05
3.03113e-05
3.01742e-05
2.99722e-05
2.96938e-05
2.93278e-05
2.88467e-05
2.82146e-05
2.7411e-05
3.17145e-05
3.17081e-05
3.17013e-05
3.17267e-05
3.17227e-05
3.17182e-05
3.17138e-05
3.17092e-05
3.17046e-05
3.17e-05
3.16953e-05
3.16906e-05
3.16857e-05
3.16809e-05
3.16762e-05
3.16713e-05
3.16665e-05
3.16618e-05
3.16567e-05
3.1652e-05
3.16469e-05
3.16424e-05
3.16375e-05
3.1633e-05
3.16283e-05
3.1624e-05
3.16194e-05
3.16153e-05
3.16109e-05
3.16071e-05
3.16031e-05
3.15997e-05
3.15961e-05
3.15931e-05
3.159e-05
3.15875e-05
3.1585e-05
3.15833e-05
3.15814e-05
3.15803e-05
3.15793e-05
3.15792e-05
3.15791e-05
3.15799e-05
3.15809e-05
3.15828e-05
3.15851e-05
3.15883e-05
3.1592e-05
3.15967e-05
3.16019e-05
3.16083e-05
3.16152e-05
3.16233e-05
3.16321e-05
3.16423e-05
3.16532e-05
3.16656e-05
3.16791e-05
3.16942e-05
3.17104e-05
3.17285e-05
3.17478e-05
3.17691e-05
3.17918e-05
3.18167e-05
3.18432e-05
3.1872e-05
3.19022e-05
3.1935e-05
3.19692e-05
3.20051e-05
3.20418e-05
3.20779e-05
3.21114e-05
3.21397e-05
3.21583e-05
3.21608e-05
3.21384e-05
3.20788e-05
3.19669e-05
3.17857e-05
3.15199e-05
3.11598e-05
3.0699e-05
3.01105e-05
2.93498e-05
2.84186e-05
3.2435e-05
3.24315e-05
3.24276e-05
3.24236e-05
3.24195e-05
3.24153e-05
3.2411e-05
3.24067e-05
3.24022e-05
3.23976e-05
3.23931e-05
3.23885e-05
3.23839e-05
3.23793e-05
3.23748e-05
3.23699e-05
3.23655e-05
3.23607e-05
3.23565e-05
3.2352e-05
3.2348e-05
3.23437e-05
3.23401e-05
3.23361e-05
3.23328e-05
3.23293e-05
3.23265e-05
3.23237e-05
3.23216e-05
3.23194e-05
3.23181e-05
3.23168e-05
3.23165e-05
3.23163e-05
3.23171e-05
3.23181e-05
3.23202e-05
3.23226e-05
3.23263e-05
3.23304e-05
3.23357e-05
3.23416e-05
3.2349e-05
3.23571e-05
3.23666e-05
3.2377e-05
3.23891e-05
3.24022e-05
3.24171e-05
3.24331e-05
3.2451e-05
3.24703e-05
3.24916e-05
3.25145e-05
3.25397e-05
3.25668e-05
3.25966e-05
3.26284e-05
3.26632e-05
3.27003e-05
3.27408e-05
3.27837e-05
3.28304e-05
3.28799e-05
3.29332e-05
3.29894e-05
3.30495e-05
3.3112e-05
3.31771e-05
3.32429e-05
3.33072e-05
3.33668e-05
3.34171e-05
3.34513e-05
3.34597e-05
3.34296e-05
3.33447e-05
3.31861e-05
3.29348e-05
3.25776e-05
3.21089e-05
3.15329e-05
3.08314e-05
2.99392e-05
2.89029e-05
3.26095e-05
3.26068e-05
3.26038e-05
3.26007e-05
3.25974e-05
3.2594e-05
3.25905e-05
3.25868e-05
3.25829e-05
3.25789e-05
3.2575e-05
3.25711e-05
3.25671e-05
3.25631e-05
3.25592e-05
3.25549e-05
3.25512e-05
3.25472e-05
3.25439e-05
3.25402e-05
3.25372e-05
3.25341e-05
3.25316e-05
3.2529e-05
3.25272e-05
3.25254e-05
3.25246e-05
3.25239e-05
3.25242e-05
3.25246e-05
3.25262e-05
3.25281e-05
3.25313e-05
3.25351e-05
3.25402e-05
3.25458e-05
3.2553e-05
3.2561e-05
3.25707e-05
3.25813e-05
3.25937e-05
3.26072e-05
3.26229e-05
3.26398e-05
3.26589e-05
3.26796e-05
3.27027e-05
3.27276e-05
3.27551e-05
3.27846e-05
3.28169e-05
3.28515e-05
3.28892e-05
3.29295e-05
3.29733e-05
3.30203e-05
3.30711e-05
3.31254e-05
3.31842e-05
3.32469e-05
3.33146e-05
3.33865e-05
3.3464e-05
3.35462e-05
3.36339e-05
3.37261e-05
3.38235e-05
3.39241e-05
3.40271e-05
3.41295e-05
3.42274e-05
3.43154e-05
3.4386e-05
3.44287e-05
3.44299e-05
3.43721e-05
3.42348e-05
3.39963e-05
3.36388e-05
3.31574e-05
3.25529e-05
3.18474e-05
3.10555e-05
3.00599e-05
2.89855e-05
3.23026e-05
3.23012e-05
3.22996e-05
3.22977e-05
3.22957e-05
3.22935e-05
3.22911e-05
3.22885e-05
3.22857e-05
3.22828e-05
3.22799e-05
3.2277e-05
3.22741e-05
3.22712e-05
3.22684e-05
3.22653e-05
3.22629e-05
3.22602e-05
3.22584e-05
3.22564e-05
3.22552e-05
3.2254e-05
3.22537e-05
3.22534e-05
3.22543e-05
3.22554e-05
3.22579e-05
3.22607e-05
3.22649e-05
3.22696e-05
3.22759e-05
3.2283e-05
3.22918e-05
3.23017e-05
3.23135e-05
3.23264e-05
3.23414e-05
3.23578e-05
3.23767e-05
3.23971e-05
3.24202e-05
3.24451e-05
3.2473e-05
3.25031e-05
3.25362e-05
3.25718e-05
3.2611e-05
3.2653e-05
3.26987e-05
3.27475e-05
3.28004e-05
3.28569e-05
3.29179e-05
3.29829e-05
3.30531e-05
3.3128e-05
3.32087e-05
3.32946e-05
3.33871e-05
3.34857e-05
3.35914e-05
3.37038e-05
3.3824e-05
3.39512e-05
3.40857e-05
3.42262e-05
3.43724e-05
3.45212e-05
3.46702e-05
3.48142e-05
3.49466e-05
3.50586e-05
3.51385e-05
3.51713e-05
3.51382e-05
3.50176e-05
3.47862e-05
3.44231e-05
3.3916e-05
3.3281e-05
3.2526e-05
3.16945e-05
3.08984e-05
2.9895e-05
2.89301e-05
3.1582e-05
3.15824e-05
3.15827e-05
3.15826e-05
3.15823e-05
3.15817e-05
3.15809e-05
3.15799e-05
3.15786e-05
3.15772e-05
3.1576e-05
3.15747e-05
3.15734e-05
3.15722e-05
3.15712e-05
3.15701e-05
3.15697e-05
3.15693e-05
3.15699e-05
3.15706e-05
3.15723e-05
3.15743e-05
3.15775e-05
3.15811e-05
3.15862e-05
3.1592e-05
3.15996e-05
3.16081e-05
3.16184e-05
3.16298e-05
3.16434e-05
3.16584e-05
3.16759e-05
3.16952e-05
3.1717e-05
3.17408e-05
3.17675e-05
3.17965e-05
3.18289e-05
3.18638e-05
3.19024e-05
3.19439e-05
3.19894e-05
3.20383e-05
3.20915e-05
3.21485e-05
3.22104e-05
3.22765e-05
3.23479e-05
3.24239e-05
3.25057e-05
3.25928e-05
3.26862e-05
3.27857e-05
3.28924e-05
3.30061e-05
3.3128e-05
3.32578e-05
3.33969e-05
3.35449e-05
3.3703e-05
3.38706e-05
3.40487e-05
3.42358e-05
3.44318e-05
3.46339e-05
3.48402e-05
3.50453e-05
3.52442e-05
3.5428e-05
3.5586e-05
3.57048e-05
3.57676e-05
3.57541e-05
3.56414e-05
3.54051e-05
3.50238e-05
3.44854e-05
3.37881e-05
3.29925e-05
3.21117e-05
3.1193e-05
3.05988e-05
2.98159e-05
2.92543e-05
3.0528e-05
3.05306e-05
3.05332e-05
3.05353e-05
3.05372e-05
3.05388e-05
3.054e-05
3.05411e-05
3.05419e-05
3.05427e-05
3.05437e-05
3.05447e-05
3.05458e-05
3.05472e-05
3.05488e-05
3.05507e-05
3.05535e-05
3.05567e-05
3.0561e-05
3.05659e-05
3.05722e-05
3.05792e-05
3.05879e-05
3.05976e-05
3.06094e-05
3.06225e-05
3.0638e-05
3.06551e-05
3.06748e-05
3.06964e-05
3.07211e-05
3.07481e-05
3.07784e-05
3.08115e-05
3.08482e-05
3.08879e-05
3.09316e-05
3.0979e-05
3.10308e-05
3.10864e-05
3.1147e-05
3.1212e-05
3.12825e-05
3.13579e-05
3.14392e-05
3.1526e-05
3.16194e-05
3.1719e-05
3.18257e-05
3.19392e-05
3.20606e-05
3.21897e-05
3.23275e-05
3.24741e-05
3.26307e-05
3.27974e-05
3.29755e-05
3.31651e-05
3.33674e-05
3.35823e-05
3.38107e-05
3.40518e-05
3.43057e-05
3.45699e-05
3.48422e-05
3.51176e-05
3.53911e-05
3.56536e-05
3.58955e-05
3.61032e-05
3.62605e-05
3.63485e-05
3.63452e-05
3.62262e-05
3.59679e-05
3.55486e-05
3.4955e-05
3.42037e-05
3.33015e-05
3.23893e-05
3.15013e-05
3.05942e-05
3.06111e-05
3.05517e-05
3.21528e-05
2.92289e-05
2.92343e-05
2.92395e-05
2.92443e-05
2.92488e-05
2.9253e-05
2.92569e-05
2.92606e-05
2.92642e-05
2.9268e-05
2.9272e-05
2.92762e-05
2.92807e-05
2.92858e-05
2.92915e-05
2.92978e-05
2.93055e-05
2.93141e-05
2.93243e-05
2.93357e-05
2.9349e-05
2.93639e-05
2.93811e-05
2.94002e-05
2.94221e-05
2.94463e-05
2.94738e-05
2.9504e-05
2.95377e-05
2.95745e-05
2.96155e-05
2.966e-05
2.97091e-05
2.97623e-05
2.98203e-05
2.98828e-05
2.99509e-05
3.0024e-05
3.01032e-05
3.01879e-05
3.02793e-05
3.03768e-05
3.04817e-05
3.05936e-05
3.07133e-05
3.08408e-05
3.09771e-05
3.1122e-05
3.12764e-05
3.14404e-05
3.16151e-05
3.18006e-05
3.1998e-05
3.22078e-05
3.24314e-05
3.26692e-05
3.29226e-05
3.31919e-05
3.34783e-05
3.37815e-05
3.41016e-05
3.44368e-05
3.47853e-05
3.5142e-05
3.55013e-05
3.58542e-05
3.61904e-05
3.64956e-05
3.67541e-05
3.69462e-05
3.70501e-05
3.70418e-05
3.68967e-05
3.65905e-05
3.61058e-05
3.54367e-05
3.45828e-05
3.36338e-05
3.25829e-05
3.16698e-05
3.1103e-05
3.04108e-05
3.2037e-05
3.41805e-05
3.75816e-05
2.77775e-05
2.77859e-05
2.77942e-05
2.7802e-05
2.78096e-05
2.7817e-05
2.78241e-05
2.78313e-05
2.78386e-05
2.78462e-05
2.78544e-05
2.78632e-05
2.78727e-05
2.78833e-05
2.7895e-05
2.79081e-05
2.79233e-05
2.79401e-05
2.79594e-05
2.79807e-05
2.80049e-05
2.80318e-05
2.8062e-05
2.80952e-05
2.81325e-05
2.81733e-05
2.82186e-05
2.8268e-05
2.83223e-05
2.83813e-05
2.84457e-05
2.85154e-05
2.85911e-05
2.86727e-05
2.87607e-05
2.88552e-05
2.89569e-05
2.90657e-05
2.91824e-05
2.93067e-05
2.94398e-05
2.95814e-05
2.97326e-05
2.98932e-05
3.00642e-05
3.02457e-05
3.04388e-05
3.06435e-05
3.0861e-05
3.10915e-05
3.13363e-05
3.15959e-05
3.18717e-05
3.21646e-05
3.24762e-05
3.28072e-05
3.31591e-05
3.35322e-05
3.39271e-05
3.43424e-05
3.47765e-05
3.52251e-05
3.56823e-05
3.61389e-05
3.65834e-05
3.70004e-05
3.73726e-05
3.76789e-05
3.78969e-05
3.80012e-05
3.79661e-05
3.77661e-05
3.73809e-05
3.67953e-05
3.60081e-05
3.50629e-05
3.39571e-05
3.29409e-05
3.19554e-05
3.122e-05
3.17725e-05
3.29072e-05
3.64519e-05
3.94792e-05
4.31533e-05
2.62656e-05
2.62774e-05
2.6289e-05
2.63003e-05
2.63115e-05
2.63227e-05
2.63341e-05
2.63457e-05
2.63579e-05
2.6371e-05
2.63851e-05
2.64005e-05
2.64175e-05
2.64365e-05
2.64576e-05
2.64812e-05
2.65078e-05
2.65374e-05
2.65706e-05
2.66073e-05
2.66481e-05
2.6693e-05
2.67427e-05
2.67971e-05
2.68569e-05
2.6922e-05
2.69931e-05
2.70701e-05
2.71537e-05
2.72439e-05
2.73413e-05
2.74459e-05
2.75585e-05
2.7679e-05
2.7808e-05
2.79456e-05
2.80926e-05
2.82491e-05
2.84157e-05
2.85925e-05
2.87805e-05
2.89797e-05
2.91912e-05
2.94151e-05
2.96524e-05
2.99036e-05
3.01697e-05
3.04512e-05
3.07495e-05
3.10651e-05
3.13997e-05
3.17543e-05
3.21307e-05
3.25301e-05
3.29543e-05
3.34043e-05
3.3881e-05
3.4384e-05
3.49123e-05
3.5462e-05
3.60275e-05
3.65996e-05
3.71662e-05
3.77107e-05
3.82136e-05
3.86512e-05
3.89981e-05
3.92264e-05
3.93084e-05
3.92162e-05
3.89261e-05
3.84191e-05
3.76913e-05
3.67605e-05
3.56392e-05
3.45094e-05
3.32991e-05
3.25435e-05
3.21818e-05
3.30428e-05
3.56148e-05
3.8123e-05
4.16829e-05
4.49009e-05
4.82947e-05
2.478e-05
2.47954e-05
2.48108e-05
2.48262e-05
2.48419e-05
2.4858e-05
2.48748e-05
2.48927e-05
2.49119e-05
2.49328e-05
2.4956e-05
2.49817e-05
2.50103e-05
2.50424e-05
2.50781e-05
2.5118e-05
2.51625e-05
2.52117e-05
2.52662e-05
2.53259e-05
2.53916e-05
2.54632e-05
2.55413e-05
2.56261e-05
2.57182e-05
2.58176e-05
2.59249e-05
2.60402e-05
2.61642e-05
2.62968e-05
2.64389e-05
2.65904e-05
2.67521e-05
2.6924e-05
2.71067e-05
2.73006e-05
2.75063e-05
2.7724e-05
2.79545e-05
2.81981e-05
2.84556e-05
2.87275e-05
2.90148e-05
2.93178e-05
2.96378e-05
2.99756e-05
3.03324e-05
3.07093e-05
3.11079e-05
3.15294e-05
3.19757e-05
3.24487e-05
3.29503e-05
3.34821e-05
3.40458e-05
3.46418e-05
3.52696e-05
3.59266e-05
3.66078e-05
3.73043e-05
3.80038e-05
3.8689e-05
3.93384e-05
3.99259e-05
4.04222e-05
4.07951e-05
4.10118e-05
4.10406e-05
4.08534e-05
4.04276e-05
3.97546e-05
3.8838e-05
3.77011e-05
3.64664e-05
3.5101e-05
3.41288e-05
3.3268e-05
3.37796e-05
3.5586e-05
3.77454e-05
4.06491e-05
4.36087e-05
4.69057e-05
4.9849e-05
5.2608e-05
2.33982e-05
2.34177e-05
2.34377e-05
2.34583e-05
2.34799e-05
2.35029e-05
2.35276e-05
2.35546e-05
2.35845e-05
2.3618e-05
2.36555e-05
2.36976e-05
2.37449e-05
2.37978e-05
2.38566e-05
2.39217e-05
2.39935e-05
2.40722e-05
2.41582e-05
2.42517e-05
2.4353e-05
2.44625e-05
2.45806e-05
2.47075e-05
2.48438e-05
2.49896e-05
2.51454e-05
2.53115e-05
2.54884e-05
2.56765e-05
2.58761e-05
2.60877e-05
2.63117e-05
2.65485e-05
2.67987e-05
2.70626e-05
2.73409e-05
2.7634e-05
2.79426e-05
2.82674e-05
2.86092e-05
2.89687e-05
2.9347e-05
2.9745e-05
3.01641e-05
3.06054e-05
3.10709e-05
3.15622e-05
3.20813e-05
3.26303e-05
3.32116e-05
3.38274e-05
3.448e-05
3.51706e-05
3.58998e-05
3.6666e-05
3.74654e-05
3.82903e-05
3.91286e-05
3.9963e-05
4.07707e-05
4.15235e-05
4.21883e-05
4.27285e-05
4.31055e-05
4.32807e-05
4.32188e-05
4.28911e-05
4.22813e-05
4.13859e-05
4.023e-05
3.88916e-05
3.7385e-05
3.61634e-05
3.49319e-05
3.50949e-05
3.63644e-05
3.81373e-05
4.04485e-05
4.30598e-05
4.59408e-05
4.8784e-05
5.15654e-05
5.39122e-05
5.58191e-05
2.21867e-05
2.22114e-05
2.22375e-05
2.22655e-05
2.22958e-05
2.23292e-05
2.23663e-05
2.24081e-05
2.24555e-05
2.25095e-05
2.25707e-05
2.26397e-05
2.27167e-05
2.28022e-05
2.28963e-05
2.29992e-05
2.31112e-05
2.32323e-05
2.33629e-05
2.3503e-05
2.36532e-05
2.38137e-05
2.39847e-05
2.41667e-05
2.43602e-05
2.45652e-05
2.47825e-05
2.50123e-05
2.5255e-05
2.55112e-05
2.57812e-05
2.60655e-05
2.63646e-05
2.6679e-05
2.70092e-05
2.73557e-05
2.77192e-05
2.81003e-05
2.84998e-05
2.89185e-05
2.93575e-05
2.98178e-05
3.03008e-05
3.08079e-05
3.13408e-05
3.19016e-05
3.24927e-05
3.31168e-05
3.37765e-05
3.44746e-05
3.5214e-05
3.59969e-05
3.68248e-05
3.76975e-05
3.86124e-05
3.95636e-05
4.05402e-05
4.15257e-05
4.24972e-05
4.3425e-05
4.42732e-05
4.50006e-05
4.55626e-05
4.59134e-05
4.60093e-05
4.5812e-05
4.52945e-05
4.44439e-05
4.32797e-05
4.18471e-05
4.0202e-05
3.87078e-05
3.71333e-05
3.69354e-05
3.77666e-05
3.92568e-05
4.11179e-05
4.33445e-05
4.57649e-05
4.83077e-05
5.08466e-05
5.32104e-05
5.52825e-05
5.68327e-05
5.77769e-05
2.12016e-05
2.12335e-05
2.12689e-05
2.13084e-05
2.13529e-05
2.14032e-05
2.14611e-05
2.1528e-05
2.16053e-05
2.16938e-05
2.17938e-05
2.19053e-05
2.20282e-05
2.21623e-05
2.23074e-05
2.24635e-05
2.26305e-05
2.28085e-05
2.29977e-05
2.31982e-05
2.34104e-05
2.36345e-05
2.38709e-05
2.41201e-05
2.43825e-05
2.46583e-05
2.49482e-05
2.52526e-05
2.5572e-05
2.59067e-05
2.62575e-05
2.66246e-05
2.70087e-05
2.74104e-05
2.78301e-05
2.82687e-05
2.87267e-05
2.9205e-05
2.97047e-05
3.02268e-05
3.07726e-05
3.13438e-05
3.19422e-05
3.25698e-05
3.32292e-05
3.39235e-05
3.46562e-05
3.54307e-05
3.62505e-05
3.71188e-05
3.80381e-05
3.90094e-05
4.0032e-05
4.11015e-05
4.22092e-05
4.33404e-05
4.44733e-05
4.55781e-05
4.66173e-05
4.7546e-05
4.83142e-05
4.88684e-05
4.91557e-05
4.91275e-05
4.87438e-05
4.798e-05
4.68429e-05
4.5351e-05
4.35871e-05
4.18027e-05
3.98924e-05
3.92732e-05
3.96602e-05
4.093e-05
4.24562e-05
4.43925e-05
4.64464e-05
4.86381e-05
5.08236e-05
5.2959e-05
5.49229e-05
5.65926e-05
5.78368e-05
5.8495e-05
5.84603e-05
2.04926e-05
2.05368e-05
2.05882e-05
2.06472e-05
2.07151e-05
2.07943e-05
2.08881e-05
2.09986e-05
2.11263e-05
2.12707e-05
2.14307e-05
2.16051e-05
2.17928e-05
2.19931e-05
2.22054e-05
2.24294e-05
2.2665e-05
2.29124e-05
2.31716e-05
2.34431e-05
2.37271e-05
2.40241e-05
2.43347e-05
2.46591e-05
2.49981e-05
2.53521e-05
2.57216e-05
2.61072e-05
2.65094e-05
2.69289e-05
2.73661e-05
2.78216e-05
2.82961e-05
2.87901e-05
2.93044e-05
2.98398e-05
3.03972e-05
3.09777e-05
3.15826e-05
3.22134e-05
3.28721e-05
3.3561e-05
3.42826e-05
3.504e-05
3.5837e-05
3.66779e-05
3.75673e-05
3.85096e-05
3.95084e-05
4.05661e-05
4.16834e-05
4.28581e-05
4.40837e-05
4.5348e-05
4.66318e-05
4.79069e-05
4.91356e-05
5.02714e-05
5.12596e-05
5.20401e-05
5.25506e-05
5.27306e-05
5.25271e-05
5.19014e-05
5.08379e-05
4.93466e-05
4.75088e-05
4.54639e-05
4.32548e-05
4.21082e-05
4.19985e-05
4.30586e-05
4.4292e-05
4.59874e-05
4.77809e-05
4.97011e-05
5.15876e-05
5.34269e-05
5.51322e-05
5.66587e-05
5.79078e-05
5.87785e-05
5.91554e-05
5.89225e-05
5.79763e-05
2.01253e-05
2.01919e-05
2.02698e-05
2.0359e-05
2.04641e-05
2.05922e-05
2.07479e-05
2.09308e-05
2.11375e-05
2.13638e-05
2.16062e-05
2.18621e-05
2.213e-05
2.24089e-05
2.26984e-05
2.29985e-05
2.33093e-05
2.36313e-05
2.3965e-05
2.4311e-05
2.46698e-05
2.50422e-05
2.54288e-05
2.58304e-05
2.62475e-05
2.66808e-05
2.7131e-05
2.75986e-05
2.80845e-05
2.85892e-05
2.91133e-05
2.96575e-05
3.02226e-05
3.08093e-05
3.14184e-05
3.2051e-05
3.27083e-05
3.33918e-05
3.41033e-05
3.4845e-05
3.56198e-05
3.6431e-05
3.72823e-05
3.81782e-05
3.91237e-05
4.01247e-05
4.11867e-05
4.2314e-05
4.35089e-05
4.4771e-05
4.60965e-05
4.74759e-05
4.8893e-05
5.03228e-05
5.173e-05
5.30681e-05
5.42803e-05
5.53012e-05
5.60598e-05
5.64843e-05
5.65073e-05
5.60734e-05
5.51464e-05
5.37232e-05
5.18633e-05
4.96269e-05
4.72319e-05
4.54548e-05
4.47615e-05
4.55884e-05
4.65422e-05
4.79925e-05
4.957e-05
5.12752e-05
5.29491e-05
5.45565e-05
5.60222e-05
5.73209e-05
5.84013e-05
5.92185e-05
5.96958e-05
5.97532e-05
5.93043e-05
5.82652e-05
5.65314e-05
2.04284e-05
2.04727e-05
2.05352e-05
2.06231e-05
2.07564e-05
2.09513e-05
2.11996e-05
2.14849e-05
2.17933e-05
2.21164e-05
2.24495e-05
2.27903e-05
2.31383e-05
2.34933e-05
2.38562e-05
2.42275e-05
2.46083e-05
2.49996e-05
2.54023e-05
2.58174e-05
2.62459e-05
2.66886e-05
2.71464e-05
2.76202e-05
2.81108e-05
2.86189e-05
2.91454e-05
2.96909e-05
3.02563e-05
3.08421e-05
3.14492e-05
3.20783e-05
3.27302e-05
3.34058e-05
3.41064e-05
3.48331e-05
3.55878e-05
3.63724e-05
3.71898e-05
3.80432e-05
3.89365e-05
3.98747e-05
4.08629e-05
4.19071e-05
4.30141e-05
4.41902e-05
4.54409e-05
4.67685e-05
4.81715e-05
4.96434e-05
5.11712e-05
5.27336e-05
5.42992e-05
5.58243e-05
5.72527e-05
5.85161e-05
5.95373e-05
6.02339e-05
6.05246e-05
6.03357e-05
5.96115e-05
5.83293e-05
5.64996e-05
5.41929e-05
5.17517e-05
4.92611e-05
4.81415e-05
4.84946e-05
4.91501e-05
5.03255e-05
5.1697e-05
5.32032e-05
5.47058e-05
5.61401e-05
5.74335e-05
5.85485e-05
5.9449e-05
6.01122e-05
6.05056e-05
6.05916e-05
6.03168e-05
5.96272e-05
5.84656e-05
5.67583e-05
5.43693e-05
2.14186e-05
2.1482e-05
2.15712e-05
2.16945e-05
2.18709e-05
2.21307e-05
2.24687e-05
2.28446e-05
2.32349e-05
2.36308e-05
2.40297e-05
2.44316e-05
2.48374e-05
2.52484e-05
2.56663e-05
2.60926e-05
2.65285e-05
2.69755e-05
2.74349e-05
2.79077e-05
2.83952e-05
2.88984e-05
2.94182e-05
2.99556e-05
3.05115e-05
3.10866e-05
3.16819e-05
3.22979e-05
3.29356e-05
3.35957e-05
3.42789e-05
3.49862e-05
3.57186e-05
3.64771e-05
3.72635e-05
3.80795e-05
3.89275e-05
3.98108e-05
4.07331e-05
4.16994e-05
4.27152e-05
4.37871e-05
4.49221e-05
4.61276e-05
4.74109e-05
4.8778e-05
5.02314e-05
5.17685e-05
5.33797e-05
5.50476e-05
5.6745e-05
5.84325e-05
6.00573e-05
6.15524e-05
6.28369e-05
6.38205e-05
6.4409e-05
6.45117e-05
6.40518e-05
6.29776e-05
6.12791e-05
5.90098e-05
5.63689e-05
5.34707e-05
5.18609e-05
5.16689e-05
5.20718e-05
5.29378e-05
5.40806e-05
5.53818e-05
5.67243e-05
5.80116e-05
5.91735e-05
6.0158e-05
6.09276e-05
6.14578e-05
6.17312e-05
6.17335e-05
6.14468e-05
6.08488e-05
5.99118e-05
5.86067e-05
5.68884e-05
5.46554e-05
5.17437e-05
2.30102e-05
2.31337e-05
2.33005e-05
2.35204e-05
2.38175e-05
2.41839e-05
2.45825e-05
2.49949e-05
2.54134e-05
2.58355e-05
2.62612e-05
2.66914e-05
2.71275e-05
2.75711e-05
2.80238e-05
2.84869e-05
2.89621e-05
2.94504e-05
2.99533e-05
3.04718e-05
3.10071e-05
3.15601e-05
3.21318e-05
3.27231e-05
3.33349e-05
3.39679e-05
3.46229e-05
3.53006e-05
3.60019e-05
3.67276e-05
3.74786e-05
3.82559e-05
3.90608e-05
3.9895e-05
4.07607e-05
4.16607e-05
4.25985e-05
4.35787e-05
4.46071e-05
4.56903e-05
4.68359e-05
4.80522e-05
4.93475e-05
5.07297e-05
5.22047e-05
5.3775e-05
5.54368e-05
5.71776e-05
5.89745e-05
6.07929e-05
6.25849e-05
6.4287e-05
6.58199e-05
6.70893e-05
6.7991e-05
6.84182e-05
6.82729e-05
6.74789e-05
6.59986e-05
6.3854e-05
6.11353e-05
5.80818e-05
5.57643e-05
5.50249e-05
5.5173e-05
5.57133e-05
5.66403e-05
5.7736e-05
5.89062e-05
6.00509e-05
6.10981e-05
6.1982e-05
6.26596e-05
6.30997e-05
6.32835e-05
6.32006e-05
6.28475e-05
6.22227e-05
6.13251e-05
6.01521e-05
5.8698e-05
5.69454e-05
5.48288e-05
5.21957e-05
4.91279e-05
2.52246e-05
2.5458e-05
2.57668e-05
2.61197e-05
2.64908e-05
2.68776e-05
2.72765e-05
2.76844e-05
2.80998e-05
2.85226e-05
2.89533e-05
2.9393e-05
2.98427e-05
3.03037e-05
3.07773e-05
3.12647e-05
3.17671e-05
3.22856e-05
3.28212e-05
3.33749e-05
3.39478e-05
3.45408e-05
3.51545e-05
3.579e-05
3.64478e-05
3.71288e-05
3.78338e-05
3.85634e-05
3.93185e-05
4.01e-05
4.09092e-05
4.17475e-05
4.26166e-05
4.35191e-05
4.44582e-05
4.54381e-05
4.6464e-05
4.75426e-05
4.86816e-05
4.98899e-05
5.11768e-05
5.25517e-05
5.40229e-05
5.5596e-05
5.72725e-05
5.9047e-05
6.09036e-05
6.28141e-05
6.47354e-05
6.66094e-05
6.83604e-05
6.98956e-05
7.11062e-05
7.18736e-05
7.20795e-05
7.16215e-05
7.04312e-05
6.84955e-05
6.58801e-05
6.28803e-05
5.98002e-05
5.84436e-05
5.83044e-05
5.85485e-05
5.92487e-05
6.01374e-05
6.11485e-05
6.21581e-05
6.30918e-05
6.38867e-05
6.44944e-05
6.48747e-05
6.50029e-05
6.48651e-05
6.44582e-05
6.37871e-05
6.28629e-05
6.17004e-05
6.03153e-05
5.87224e-05
5.69267e-05
5.4899e-05
5.25225e-05
4.97365e-05
4.73391e-05
2.8152e-05
2.84739e-05
2.88104e-05
2.91616e-05
2.95238e-05
2.98963e-05
3.02794e-05
3.06731e-05
3.10778e-05
3.1494e-05
3.19223e-05
3.23637e-05
3.28191e-05
3.32894e-05
3.37757e-05
3.42788e-05
3.47998e-05
3.53395e-05
3.58989e-05
3.64787e-05
3.70798e-05
3.77029e-05
3.83488e-05
3.90182e-05
3.97117e-05
4.04302e-05
4.11743e-05
4.1945e-05
4.27432e-05
4.35702e-05
4.44276e-05
4.53176e-05
4.6243e-05
4.72074e-05
4.82158e-05
4.92741e-05
5.03899e-05