/*--------------------------------*- C++ -*----------------------------------*\
| =========                 |                                                 |
| \\      /  F ield         | OpenFOAM: The Open Source CFD Toolbox           |
|  \\    /   O peration     | Version:  2412                                  |
|   \\  /    A nd           | Website:  www.openfoam.com                      |
|    \\/     M anipulation  |                                                 |
\*---------------------------------------------------------------------------*/
FoamFile
{
    version     2.0;
    format      ascii;
    arch        "LSB;label=32;scalar=64";
    class       volScalarField;
    location    "120";
    object      p;
}
// * * * * * * * * * * * * * * * * * * * * * * * * * * * * * * * * * * * * * //

dimensions      [0 2 -2 0 0 0 0];

internalField   nonuniform List<scalar> 
7373
(
52.4488
52.9273
53.477
54.1054
54.8143
55.6068
56.4856
57.4547
58.5208
59.6915
60.9758
62.3791
63.9082
65.571
67.3785
69.3444
71.4798
73.793
76.3041
79.025
81.971
85.1628
88.6151
92.3501
96.3889
100.754
105.47
110.56
116.053
121.976
128.361
135.24
142.645
150.611
159.179
168.386
178.276
188.892
200.283
212.501
225.599
239.633
254.67
270.775
288.018
306.479
326.238
347.386
370.019
394.232
420.13
447.844
477.434
509.026
542.678
578.384
616.03
655.312
695.494
735.09
771.4
799.315
806.586
776.805
666.298
396.49
-112.765
-1066.97
52.4488
52.9273
53.477
54.1054
54.8143
55.6068
56.4856
57.4547
58.5208
59.6915
60.9758
62.3791
63.9082
65.571
67.3785
69.3444
71.4798
73.793
76.3041
79.0249
81.971
85.1627
88.6151
92.3501
96.3889
100.754
105.47
110.56
116.052
121.976
128.361
135.24
142.645
150.611
159.179
168.386
178.276
188.892
200.283
212.501
225.599
239.633
254.67
270.775
288.018
306.479
326.238
347.386
370.019
394.232
420.13
447.844
477.434
509.026
542.678
578.384
616.03
655.312
695.494
735.09
771.399
799.315
806.584
776.802
666.293
396.488
-112.756
-1066.9
52.4488
52.9273
53.477
54.1054
54.8143
55.6068
56.4856
57.4547
58.5208
59.6916
60.9758
62.3791
63.9083
65.571
67.3785
69.3444
71.4798
73.793
76.3041
79.025
81.971
85.1628
88.6151
92.3501
96.3889
100.754
105.47
110.56
116.053
121.976
128.361
135.24
142.645
150.611
159.179
168.386
178.276
188.892
200.283
212.501
225.599
239.633
254.67
270.775
288.018
306.479
326.238
347.386
370.019
394.232
420.13
447.844
477.434
509.026
542.678
578.384
616.03
655.312
695.494
735.089
771.399
799.314
806.582
776.798
666.283
396.472
-112.777
-1066.85
52.4489
52.9273
53.477
54.1055
54.8143
55.6068
56.4856
57.4547
58.5209
59.6916
60.9758
62.3792
63.9083
65.571
67.3785
69.3444
71.4799
73.793
76.3042
79.025
81.9711
85.1628
88.6152
92.3502
96.389
100.754
105.47
110.56
116.053
121.976
128.361
135.24
142.645
150.611
159.18
168.386
178.276
188.892
200.283
212.501
225.599
239.633
254.67
270.775
288.018
306.479
326.238
347.386
370.019
394.232
420.13
447.844
477.434
509.026
542.678
578.384
616.03
655.312
695.494
735.089
771.399
799.313
806.58
776.792
666.27
396.454
-112.788
-1066.73
52.4489
52.9274
53.4771
54.1055
54.8144
55.6069
56.4857
57.4548
58.5209
59.6917
60.9759
62.3792
63.9084
65.5711
67.3786
69.3445
71.4799
73.7931
76.3043
79.0251
81.9712
85.1629
88.6153
92.3503
96.3891
100.755
105.47
110.56
116.053
121.976
128.361
135.24
142.645
150.611
159.18
168.387
178.277
188.893
200.283
212.501
225.599
239.633
254.67
270.775
288.018
306.479
326.238
347.386
370.019
394.232
420.13
447.845
477.434
509.026
542.678
578.384
616.031
655.312
695.495
735.09
771.399
799.312
806.577
776.785
666.257
396.447
-112.749
-1066.45
52.449
52.9275
53.4772
54.1056
54.8145
55.607
56.4858
57.4549
58.5211
59.6918
60.9761
62.3794
63.9085
65.5713
67.3787
69.3447
71.4801
73.7933
76.3045
79.0253
81.9714
85.1631
88.6155
92.3505
96.3893
100.755
105.47
110.561
116.053
121.976
128.361
135.24
142.646
150.612
159.18
168.387
178.277
188.893
200.284
212.502
225.599
239.634
254.671
270.775
288.019
306.48
326.238
347.386
370.019
394.232
420.131
447.845
477.435
509.027
542.679
578.385
616.031
655.313
695.495
735.09
771.399
799.311
806.574
776.778
666.246
396.46
-112.645
-1065.94
52.4493
52.9277
53.4774
54.1059
54.8147
55.6073
56.4861
57.4552
58.5213
59.6921
60.9763
62.3797
63.9088
65.5716
67.3791
69.345
71.4804
73.7936
76.3048
79.0256
81.9717
85.1635
88.6159
92.3509
96.3897
100.755
105.471
110.561
116.053
121.977
128.362
135.241
142.646
150.612
159.181
168.388
178.278
188.894
200.285
212.502
225.6
239.635
254.671
270.776
288.019
306.481
326.239
347.387
370.02
394.233
420.132
447.846
477.436
509.028
542.68
578.386
616.033
655.315
695.497
735.092
771.4
799.311
806.571
776.771
666.24
396.504
-112.472
-1065.11
52.4496
52.9281
53.4778
54.1063
54.8151
55.6077
56.4865
57.4556
58.5218
59.6925
60.9768
62.3801
63.9093
65.5721
67.3796
69.3455
71.481
73.7942
76.3054
79.0263
81.9724
85.1641
88.6166
92.3516
96.3905
100.756
105.472
110.562
116.054
121.978
128.363
135.242
142.647
150.613
159.182
168.389
178.279
188.895
200.286
212.503
225.601
239.636
254.673
270.777
288.021
306.482
326.241
347.389
370.022
394.235
420.133
447.848
477.438
509.03
542.682
578.388
616.035
655.317
695.499
735.094
771.401
799.31
806.567
776.764
666.24
396.587
-112.179
-1063.85
52.4502
52.9287
53.4784
54.1069
54.8157
55.6083
56.4871
57.4562
58.5224
59.6932
60.9775
62.3809
63.91
65.5728
67.3804
69.3464
71.4819
73.7951
76.3063
79.0272
81.9734
85.1652
88.6176
92.3527
96.3916
100.757
105.473
110.563
116.056
121.979
128.364
135.243
142.649
150.615
159.183
168.39
178.28
188.897
200.288
212.505
225.603
239.638
254.675
270.78
288.023
306.484
326.243
347.391
370.024
394.237
420.136
447.85
477.44
509.033
542.685
578.392
616.038
655.321
695.503
735.098
771.404
799.31
806.563
776.758
666.25
396.715
-111.714
-1062.07
52.451
52.9295
53.4792
54.1077
54.8166
55.6092
56.4881
57.4572
58.5234
59.6942
60.9785
62.3819
63.9111
65.574
67.3815
69.3476
71.4831
73.7964
76.3077
79.0286
81.9748
85.1667
88.6192
92.3544
96.3933
100.759
105.475
110.565
116.058
121.981
128.366
135.245
142.651
150.617
159.186
168.393
178.283
188.899
200.29
212.508
225.606
239.641
254.678
270.783
288.026
306.488
326.246
347.395
370.028
394.241
420.14
447.854
477.445
509.037
542.69
578.397
616.044
655.326
695.509
735.103
771.408
799.311
806.559
776.751
666.272
396.912
-111.081
-1059.68
-2064.62
52.4522
52.9307
53.4804
54.109
54.8179
55.6105
56.4894
57.4585
58.5248
59.6956
60.98
62.3834
63.9127
65.5756
67.3832
69.3493
71.4849
73.7982
76.3095
79.0306
81.9768
85.1688
88.6214
92.3566
96.3956
100.761
105.477
110.568
116.06
121.984
128.369
135.248
142.654
150.621
159.189
168.396
178.287
188.903
200.294
212.512
225.61
239.645
254.682
270.787
288.031
306.492
326.252
347.4
370.033
394.247
420.145
447.86
477.451
509.044
542.697
578.404
616.052
655.335
695.517
735.111
771.414
799.312
806.554
776.747
666.309
397.212
-110.313
-1056.59
-2059.88
-2930.35
52.4537
52.9322
53.482
54.1106
54.8195
55.6122
56.4911
57.4603
58.5266
59.6975
60.9819
62.3854
63.9147
65.5776
67.3853
69.3515
71.4872
73.8006
76.312
79.0331
81.9795
85.1716
88.6243
92.3596
96.3988
100.765
105.48
110.571
116.064
121.988
128.373
135.252
142.658
150.625
159.194
168.401
178.292
188.908
200.3
212.518
225.616
239.651
254.688
270.794
288.038
306.499
326.259
347.407
370.041
394.255
420.154
447.869
477.46
509.053
542.707
578.415
616.063
655.346
695.529
735.122
771.422
799.314
806.548
776.743
666.364
397.634
-109.435
-1052.74
-2054.04
-2923.59
-3453.29
52.4557
52.9342
53.484
54.1126
54.8216
55.6143
56.4933
57.4625
58.5289
59.6998
60.9843
62.3879
63.9173
65.5803
67.3881
69.3544
71.4901
73.8037
76.3152
79.0365
81.983
85.1751
88.628
92.3635
96.4028
100.769
105.485
110.576
116.069
121.993
128.378
135.258
142.664
150.631
159.2
168.407
178.298
188.915
200.307
212.525
225.624
239.659
254.697
270.802
288.046
306.508
326.268
347.417
370.051
394.265
420.165
447.881
477.472
509.067
542.721
578.429
616.079
655.362
695.545
735.136
771.432
799.316
806.541
776.741
666.437
398.174
-108.434
-1048.12
-2046.98
-2915.47
-3446.32
52.4581
52.9367
53.4866
54.1152
54.8242
55.617
56.496
57.4654
58.5318
59.7028
60.9874
62.3911
63.9205
65.5837
67.3916
69.358
71.4939
73.8076
76.3192
79.0406
81.9873
85.1796
88.6327
92.3684
96.4079
100.774
105.49
110.581
116.075
121.999
128.385
135.265
142.671
150.638
159.207
168.415
178.306
188.923
200.315
212.534
225.633
239.669
254.707
270.813
288.058
306.52
326.281
347.43
370.065
394.28
420.18
447.897
477.489
509.084
542.74
578.449
616.099
655.384
695.566
735.155
771.445
799.318
806.533
776.739
666.529
398.826
-107.281
-1042.73
-2038.61
-2905.93
-3437.69
52.4611
52.9398
53.4897
54.1183
54.8274
55.6203
56.4994
57.4688
58.5353
59.7065
60.9911
62.3949
63.9245
65.5878
67.3959
69.3624
71.4985
73.8123
76.3242
79.0458
81.9926
85.1852
88.6385
92.3744
96.4141
100.781
105.497
110.588
116.082
122.006
128.393
135.273
142.68
150.647
159.217
168.425
178.317
188.934
200.327
212.546
225.645
239.682
254.72
270.827
288.072
306.536
326.296
347.447
370.082
394.298
420.199
447.917
477.511
509.107
542.764
578.475
616.127
655.412
695.593
735.179
771.461
799.321
806.524
776.739
666.638
399.585
-105.963
-1036.56
-2028.9
-2894.94
-3427.26
52.4648
52.9435
53.4934
54.1222
54.8314
55.6243
56.5035
57.473
58.5396
59.7109
60.9957
62.3997
63.9294
65.5929
67.4011
69.3678
71.5041
73.8182
76.3302
79.052
81.9992
85.192
88.6455
92.3817
96.4218
100.789
105.505
110.597
116.091
122.016
128.403
135.283
142.69
150.658
159.228
168.437
178.329
188.947
200.34
212.561
225.66
239.698
254.737
270.844
288.09
306.555
326.316
347.468
370.104
394.321
420.224
447.943
477.539
509.137
542.796
578.508
616.161
655.447
695.627
735.207
771.48
799.323
806.512
776.738
666.764
400.442
-104.465
-1029.57
-2017.82
-2882.37
-3415.07
52.4691
52.9479
53.4979
54.1268
54.8361
55.6291
56.5084
57.4781
58.5448
59.7163
61.0012
62.4053
63.9353
65.599
67.4074
69.3743
71.5108
73.8252
76.3375
79.0596
82.0071
85.2002
88.6541
92.3906
96.4311
100.798
105.516
110.608
116.102
122.027
128.415
135.296
142.703
150.672
159.243
168.452
178.345
188.964
200.357
212.578
225.679
239.717
254.757
270.866
288.113
306.578
326.341
347.494
370.132
394.351
420.255
447.976
477.574
509.174
542.835
578.55
616.205
655.49
695.667
735.241
771.501
799.325
806.498
776.735
666.906
401.383
-102.755
-1021.73
-2005.35
-2868.07
-3401.08
52.4744
52.9532
53.5033
54.1323
54.8417
55.6349
56.5143
57.4841
58.5511
59.7227
61.0078
62.4122
63.9423
65.6062
67.4149
69.3822
71.5189
73.8336
76.3463
79.0687
82.0165
85.2101
88.6643
92.4013
96.4422
100.81
105.528
110.62
116.115
122.041
128.429
135.311
142.719
150.688
159.26
168.47
178.363
188.983
200.378
212.6
225.701
239.74
254.782
270.891
288.14
306.607
326.371
347.526
370.166
394.387
420.294
448.017
477.618
509.221
542.885
578.602
616.257
655.542
695.715
735.28
771.524
799.326
806.48
776.731
667.06
402.41
-100.806
-1012.96
-1991.4
-2851.92
-3385.13
52.4806
52.9595
53.5098
54.1389
54.8484
55.6417
56.5214
57.4914
58.5585
59.7303
61.0157
62.4203
63.9507
65.6149
67.4239
69.3915
71.5286
73.8437
76.3567
79.0796
82.0278
85.2218
88.6766
92.4141
96.4556
100.824
105.542
110.636
116.131
122.058
128.446
135.329
142.738
150.708
159.28
168.492
178.386
189.007
200.403
212.625
225.729
239.769
254.812
270.923
288.173
306.642
326.408
347.565
370.207
394.431
420.341
448.068
477.671
509.278
542.945
578.664
616.32
655.603
695.77
735.324
771.55
799.325
806.458
776.722
667.228
403.534
-98.5961
-1003.19
-1975.85
-2833.82
-3367.01
52.4879
52.967
53.5174
54.1466
54.8563
55.6498
56.5297
57.4999
58.5673
59.7393
61.025
62.4299
63.9607
65.6252
67.4346
69.4026
71.5401
73.8556
76.3692
79.0925
82.0413
85.2358
88.6912
92.4294
96.4715
100.84
105.559
110.654
116.15
122.077
128.467
135.35
142.76
150.732
159.305
168.517
178.413
189.035
200.432
212.656
225.761
239.803
254.848
270.961
288.213
306.684
326.453
347.612
370.257
394.484
420.398
448.129
477.736
509.347
543.017
578.738
616.394
655.673
695.832
735.372
771.577
799.322
806.43
776.707
667.408
404.762
-96.0902
-992.312
-1958.49
-2813.64
-3346.58
51.1867
51.1172
51.1169
51.1857
51.3221
51.5216
51.7825
52.1004
52.4966
52.9758
53.5264
54.1558
54.8657
55.6594
56.5395
57.51
58.5776
59.75
61.0361
62.4413
63.9724
65.6374
67.4472
69.4156
71.5537
73.8697
76.3838
79.1078
82.0572
85.2524
88.7085
92.4474
96.4903
100.86
105.58
110.675
116.172
122.101
128.491
135.376
142.787
150.759
159.334
168.548
178.445
189.069
200.467
212.693
225.8
239.844
254.89
271.006
288.261
306.734
326.506
347.669
370.318
394.549
420.466
448.202
477.814
509.428
543.102
578.824
616.478
655.752
695.902
735.426
771.606
799.316
806.394
776.684
667.6
406.101
-93.2473
-980.225
-1939.17
-2791.15
-3323.75
51.1961
51.1267
51.1265
51.1953
51.3318
51.5314
51.7924
52.1105
52.5068
52.9862
53.537
54.1666
54.8767
55.6707
56.5511
57.5219
58.5899
59.7626
61.0491
62.4547
63.9863
65.6518
67.4621
69.4311
71.5697
73.8864
76.4012
79.1258
82.076
85.272
88.7289
92.4687
96.5125
100.883
105.604
110.7
116.199
122.128
128.52
135.406
142.819
150.793
159.369
168.584
178.483
189.108
200.509
212.737
225.846
239.892
254.941
271.059
288.317
306.794
326.57
347.736
370.39
394.626
420.548
448.289
477.906
509.524
543.199
578.921
616.573
655.841
695.98
735.485
771.637
799.305
806.349
776.65
667.804
407.558
-90.0198
-966.829
-1917.69
-2766.05
-3298.44
51.2071
51.1378
51.1377
51.2066
51.3431
51.5428
51.804
52.1223
52.5189
52.9984
53.5494
54.1793
54.8897
55.684
56.5647
57.5359
58.6042
59.7774
61.0643
62.4705
64.0026
65.6687
67.4796
69.4493
71.5886
73.906
76.4216
79.1471
82.0981
85.2951
88.753
92.4938
96.5387
100.911
105.633
110.73
116.23
122.161
128.554
135.442
142.856
150.832
159.41
168.627
178.528
189.155
200.558
212.789
225.9
239.949
255.002
271.123
288.385
306.865
326.645
347.817
370.476
394.717
420.645
448.391
478.01
509.635
543.31
579.031
616.68
655.94
696.066
735.549
771.668
799.289
806.293
776.603
668.017
409.135
-86.3562
-952.031
-1893.92
-2738.11
-3270.4
51.2201
51.1509
51.1509
51.2198
51.3565
51.5563
51.8176
52.1362
52.533
53.0128
53.564
54.1941
54.9049
55.6996
56.5807
57.5523
58.6211
59.7948
61.0823
62.489
64.0218
65.6885
67.5002
69.4706
71.6107
73.929
76.4455
79.172
82.1241
85.3221
88.7812
92.5232
96.5694
100.943
105.666
110.765
116.267
122.199
128.594
135.484
142.9
150.878
159.458
168.677
178.581
189.211
200.617
212.85
225.965
240.017
255.073
271.199
288.464
306.95
326.735
347.912
370.577
394.824
420.759
448.507
478.13
509.761
543.434
579.154
616.798
656.05
696.16
735.618
771.699
799.266
806.221
776.538
668.237
410.843
-82.202
-935.741
-1867.81
-2706.98
-3239.25
51.2351
51.1661
51.1662
51.2353
51.3721
51.5721
51.8336
52.1525
52.5495
53.0295
53.581
54.2115
54.9227
55.7178
56.5994
57.5715
58.6408
59.8152
61.1033
62.5107
64.0442
65.7117
67.5243
69.4956
71.6367
73.956
76.4736
79.2012
82.1546
85.3539
88.8143
92.5578
96.6055
100.98
105.706
110.806
116.31
122.244
128.641
135.533
142.951
150.932
159.514
168.737
178.643
189.276
200.685
212.922
226.04
240.097
255.157
271.287
288.558
307.049
326.841
348.024
370.695
394.949
420.89
448.635
478.27
509.9
543.574
579.292
616.931
656.172
696.264
735.693
771.729
799.233
806.132
776.45
668.462
412.697
-77.4962
-917.859
-1839.26
-2672.26
-3204.6
51.2528
51.1839
51.1842
51.2534
51.3903
51.5905
51.8522
52.1715
52.5689
53.0491
53.601
54.2319
54.9435
55.7391
56.6212
57.5939
58.6639
59.839
61.1278
62.536
64.0704
65.7388
67.5524
69.5248
71.667
73.9876
76.5064
79.2354
82.1902
85.391
88.853
92.5982
96.6477
101.024
105.752
110.854
116.36
122.297
128.697
135.59
143.012
150.995
159.581
168.806
178.716
189.353
200.765
213.007
226.129
240.19
255.256
271.392
288.669
307.166
326.964
348.154
370.831
395.09
421.037
448.781
478.426
510.055
543.729
579.446
617.078
656.307
696.378
735.772
771.756
799.187
806.018
776.334
668.686
414.695
-72.1733
-898.256
-1808.04
-2633.56
-3166.05
51.2733
51.2047
51.2051
51.2745
51.4115
51.612
51.874
52.1936
52.5914
53.0719
53.6242
54.2556
54.9677
55.7639
56.6467
57.6201
58.6908
59.8667
61.1564
62.5656
64.101
65.7705
67.5853
69.5589
71.7024
74.0244
76.5447
79.2752
82.2317
85.4343
88.8982
92.6454
96.6969
101.076
105.805
110.911
116.419
122.358
128.761
135.658
143.082
151.069
159.658
168.887
178.801
189.442
200.859
213.105
226.233
240.3
255.371
271.513
288.797
307.302
327.106
348.303
370.985
395.249
421.202
448.95
478.597
510.229
543.904
579.617
617.242
656.456
696.501
735.855
771.78
799.124
805.876
776.181
668.904
416.782
-66.1682
-876.797
-1773.87
-2590.58
-3123.35
51.2973
51.2289
51.2295
51.299
51.4363
51.637
51.8993
52.2195
52.6177
53.0985
53.6513
54.2833
54.996
55.7929
56.6764
57.6506
58.7222
59.8991
61.1898
62.6
64.1366
65.8074
67.6236
69.5986
71.7436
74.0673
76.5893
79.3217
82.2801
85.4847
88.9509
92.7003
96.7543
101.136
105.868
110.976
116.487
122.43
128.836
135.736
143.165
151.155
159.748
168.982
178.9
189.546
200.969
213.221
226.354
240.428
255.506
271.655
288.946
307.457
327.268
348.47
371.158
395.428
421.385
449.138
478.79
510.424
544.098
579.807
617.422
656.619
696.635
735.941
771.796
799.039
805.696
775.982
669.108
418.982
-59.4251
-853.388
-1736.48
-2543.21
-3076.33
51.3251
51.2571
51.2578
51.3276
51.4651
51.6661
51.9288
52.2495
52.6482
53.1295
53.6829
54.3155
55.0289
55.8266
56.711
57.6861
58.7587
59.9367
61.2286
62.6401
64.1781
65.8504
67.6681
69.6448
71.7916
74.1172
76.6412
79.3757
82.3365
85.5435
89.0121
92.7643
96.8211
101.206
105.941
111.052
116.567
122.514
128.923
135.828
143.26
151.255
159.853
169.092
179.016
189.668
201.096
213.355
226.495
240.576
255.661
271.817
289.115
307.632
327.45
348.658
371.353
395.628
421.592
449.349
479.005
510.641
544.314
580.018
617.622
656.797
696.778
736.029
771.8
798.926
805.47
775.725
669.286
421.368
-51.8956
-827.956
-1695.71
-2491.31
-3024.57
51.3575
51.2898
51.2908
51.3608
51.4986
51.6999
51.963
52.2844
52.6837
53.1655
53.7195
54.3529
55.0671
55.8657
56.7512
57.7273
58.8011
59.9804
61.2737
62.6867
64.2262
65.9003
67.7198
69.6985
71.8473
74.1751
76.7015
79.4385
82.4019
85.6117
89.0833
92.8386
96.8987
101.287
106.026
111.141
116.659
122.61
129.025
135.934
143.371
151.372
159.975
169.22
179.15
189.808
201.244
213.51
226.657
240.745
255.838
272.001
289.305
307.83
327.654
348.87
371.571
395.853
421.823
449.586
479.245
510.883
544.555
580.251
617.841
656.991
696.929
736.114
771.789
798.776
805.186
775.394
669.424
423.924
-43.516
-800.432
-1651.38
-2434.62
-2967.5
-3153.24
51.395
51.3277
51.329
51.3993
51.5374
51.7392
52.0028
52.325
52.725
53.2072
53.762
54.3962
55.1115
55.9111
56.7978
57.7752
58.8503
60.0311
61.326
62.7407
64.2821
65.9581
67.7798
69.7607
71.9119
74.2424
76.7715
79.5113
82.4778
85.6907
89.1658
92.9247
96.9886
101.381
106.124
111.243
116.767
122.723
129.142
136.057
143.5
151.506
160.117
169.368
179.305
189.971
201.414
213.687
226.842
240.937
256.037
272.207
289.519
308.051
327.883
349.107
371.815
396.105
422.081
449.85
479.513
511.152
544.821
580.509
618.081
657.2
697.088
736.195
771.755
798.579
804.829
774.97
669.502
426.65
-34.208
-770.781
-1603.33
-2372.96
-2904.61
-3101.41
51.4386
51.3717
51.3734
51.444
51.5824
51.7847
52.0489
52.3719
52.7727
53.2556
53.8113
54.4465
55.1629
55.9638
56.8518
57.8306
58.9073
60.0899
61.3866
62.8033
64.3468
66.0251
67.8493
69.8328
71.9867
74.3202
76.8524
79.5956
82.5656
85.7823
89.2612
93.0243
97.0926
101.489
106.237
111.362
116.891
122.852
129.278
136.199
143.649
151.662
160.279
169.538
179.483
190.156
201.606
213.887
227.049
241.152
256.26
272.439
289.759
308.3
328.141
349.373
372.09
396.387
422.371
450.145
479.812
511.451
545.116
580.792
618.342
657.423
697.251
736.264
771.689
798.321
804.38
774.431
669.497
429.534
-23.8985
-739.006
-1551.47
-2306.17
-2836.18
-3044.48
51.6129
51.489
51.4227
51.4247
51.4957
51.6345
51.8374
52.1022
52.4263
52.828
53.3116
53.8684
54.5047
55.2223
56.0246
56.9142
57.8948
58.9733
60.1578
61.4567
62.8756
64.4216
66.1026
67.9296
69.9161
72.0732
74.4101
76.9459
79.6929
82.667
85.8879
89.3715
93.1393
97.2127
101.615
106.368
111.499
117.034
123.002
129.434
136.362
143.819
151.84
160.465
169.731
179.683
190.364
201.823
214.111
227.282
241.394
256.511
272.699
290.029
308.579
328.429
349.671
372.397
396.702
422.693
450.474
480.143
511.782
545.44
581.101
618.623
657.659
697.414
736.317
771.581
797.986
803.816
773.746
669.386
432.559
-12.5134
-705.156
-1495.8
-2234.23
-2761.98
-2982
51.671
51.5473
51.4816
51.484
51.5554
51.6948
51.8983
52.1639
52.4891
52.8918
53.3763
53.9343
54.5719
55.291
56.095
56.9864
57.9688
59.0494
60.2363
61.5376
62.9591
64.5079
66.1919
68.0222
70.0122
72.1729
74.5138
77.0538
79.8051
82.7839
86.0097
89.4985
93.2718
97.351
101.759
106.519
111.656
117.198
123.173
129.613
136.548
144.013
152.041
160.674
169.949
179.909
190.599
202.066
214.364
227.545
241.666
256.793
272.991
290.332
308.892
328.753
350.004
372.74
397.055
423.053
450.839
480.511
512.147
545.796
581.437
618.925
657.905
697.572
736.342
771.416
797.552
803.111
772.883
669.144
435.703
0.0275349
-669.331
-1436.38
-2157.14
-2681.87
-2913.75
51.7382
51.6147
51.5495
51.5524
51.6244
51.7643
51.9686
52.2351
52.5616
52.9655
53.4509
54.0102
54.6494
55.3702
56.1761
57.0695
58.0542
59.1371
60.3266
61.6308
63.0553
64.6073
66.2949
68.1289
70.1228
72.2876
74.6331
77.1778
79.9342
82.9183
86.1497
89.6444
93.4239
97.5095
101.924
106.691
111.835
117.385
123.367
129.814
136.758
144.231
152.268
160.909
170.193
180.163
190.862
202.34
214.648
227.84
241.972
257.11
273.32
290.672
309.243
329.115
350.378
373.124
397.447
423.453
451.244
480.917
512.548
546.184
581.8
619.245
658.156
697.717
736.328
771.175
796.994
802.228
771.799
668.712
438.934
13.8028
-631.715
-1373.36
-2075.02
-2595.85
-2839.52
51.8156
51.6923
51.6278
51.6313
51.7038
51.8444
52.0496
52.317
52.6451
53.0503
53.5368
54.0977
54.7386
55.4613
56.2694
57.1652
58.1524
59.238
60.4305
61.7379
63.1659
64.7216
66.4131
68.2514
70.2498
72.4194
74.77
77.32
80.082
83.0721
86.3096
89.8107
93.5969
97.6894
102.111
106.886
112.038
117.595
123.586
130.042
136.994
144.476
152.523
161.174
170.468
180.449
191.159
202.648
214.968
228.171
242.316
257.466
273.688
291.052
309.636
329.521
350.795
373.551
397.884
423.897
451.692
481.363
512.987
546.605
582.188
619.58
658.406
697.838
736.259
770.835
796.278
801.126
770.443
667.967
442.203
28.7781
-592.572
-1306.98
-1988.08
-2504.01
-2759.2
51.9046
51.7816
51.7177
51.7218
51.795
51.9364
52.1426
52.4113
52.741
53.1477
53.6354
54.198
54.841
55.566
56.3766
57.2751
58.2651
59.3537
60.5497
61.8608
63.2927
64.8526
66.5485
68.3914
70.3949
72.5697
74.9259
77.4818
80.2498
83.2464
86.4906
89.9987
93.7922
97.8924
102.322
107.105
112.266
117.832
123.832
130.298
137.26
144.752
152.81
161.472
170.778
180.77
191.493
202.995
215.327
228.543
242.701
257.865
274.101
291.478
310.076
329.973
351.259
374.026
398.369
424.388
452.185
481.853
513.465
547.059
582.6
619.924
658.647
697.923
736.114
770.367
795.365
799.755
768.749
666.851
445.437
44.7153
-552.011
-1237.54
-1896.66
-2406.53
-2672.75
52.0065
51.8838
51.8207
51.8256
51.8997
52.042
52.2495
52.5194
52.8509
53.2592
53.7484
54.3131
54.9585
55.6861
56.4994
57.4007
58.3935
59.4857
60.6857
62.0008
63.4369
65.0013
66.702
68.5502
70.5592
72.7398
75.1022
77.6644
80.4393
83.443
86.6946
90.2106
94.0123
98.121
102.56
107.352
112.522
118.099
124.109
130.586
137.56
145.064
153.133
161.808
171.127
181.132
191.868
203.384
215.73
228.961
243.134
258.312
274.562
291.955
310.566
330.477
351.776
374.554
398.905
424.929
452.726
482.387
513.981
547.543
583.03
620.27
658.865
697.951
735.867
769.734
794.206
798.051
766.642
665.6
448.534
61.3598
-509.918
-1165.38
-1801.24
-2303.78
-2580.24
52.1232
52.0008
51.9387
51.9446
52.0196
52.163
52.3715
52.6426
52.9758
53.386
53.8771
54.4442
55.0921
55.8225
56.6386
57.5429
58.5391
59.6354
60.8396
62.1591
63.6
65.1694
66.8755
68.7295
70.7446
72.9315
75.3009
77.8703
80.6528
83.6646
86.9245
90.4494
94.2604
98.3788
102.827
107.63
112.811
118.399
124.422
130.91
137.897
145.414
153.497
162.186
171.518
181.538
192.289
203.82
216.182
229.429
243.618
258.812
275.078
292.486
311.113
331.038
352.349
375.137
399.496
425.523
453.317
482.965
514.535
548.053
583.472
620.607
659.045
697.899
735.484
768.891
792.74
795.942
764.056
663.94
451.437
78.4628
-466.509
-1090.97
-1702.4
-2196.29
-2481.98
52.2555
52.1336
52.0728
52.0797
52.1557
52.2999
52.5095
52.7818
53.1172
53.5297
54.0228
54.5925
55.2431
55.9765
56.7958
57.7035
58.7038
59.8044
61.0134
62.3377
63.7839
65.3589
67.0711
68.9317
70.9537
73.1478
75.525
78.1026
80.8936
83.9145
87.1838
90.7187
94.54
98.6693
103.129
107.944
113.137
118.738
124.774
131.276
138.276
145.808
153.906
162.61
171.958
181.994
192.762
204.31
216.689
229.952
244.159
259.371
275.653
293.078
311.72
331.659
352.983
375.781
400.145
426.172
453.958
483.588
515.123
548.584
583.915
620.92
659.164
697.737
734.923
767.781
790.898
793.34
760.879
661.482
454.134
95.3516
-422.716
-1015.14
-1600.73
-2084.53
-2378.36
52.4052
52.2839
52.2242
52.2322
52.3092
52.4544
52.6653
52.9392
53.2772
53.6921
54.1875
54.7599
55.4135
56.1501
56.973
57.8848
58.8896
59.9952
61.2094
62.5393
63.9913
65.5727
67.2919
69.1599
71.1896
73.3918
75.7778
78.3645
81.1651
84.1962
87.4761
91.0221
94.8552
98.9966
103.469
108.297
113.504
119.119
125.169
131.686
138.702
146.25
154.365
163.086
172.452
182.506
193.291
204.857
217.255
230.538
244.763
259.993
276.294
293.735
312.393
332.347
353.682
376.487
400.854
426.878
454.649
484.251
515.739
549.127
584.346
621.187
659.194
697.426
734.132
766.337
788.593
790.144
756.999
658.407
456.481
111.917
-379.057
-938.737
-1497.01
-1968.86
-2269.36
52.5743
52.4536
52.3951
52.4042
52.4822
52.6286
52.8409
53.1168
53.4576
53.8754
54.3733
54.9489
55.6058
56.3461
57.1731
58.0894
59.0994
60.2105
61.4305
62.7667
64.2254
65.814
67.5409
69.4172
71.4556
73.667
76.0628
78.6597
81.4712
84.5137
87.8055
91.364
95.2101
99.3651
103.852
108.694
113.917
119.547
125.614
132.148
139.181
146.747
154.88
163.62
173.005
183.078
193.884
205.47
217.888
231.191
245.435
260.685
277.005
294.464
313.138
333.104
354.449
377.26
401.625
427.639
455.388
484.95
516.375
549.668
584.746
621.383
659.097
696.915
733.047
764.476
785.726
786.237
752.293
654.506
458.313
130.996
-333.238
-861.803
-1393.34
-1851.73
-2156.05
52.7649
52.6451
52.5879
52.5982
52.6775
52.8252
53.0392
53.3172
53.6613
54.0822
54.5831
55.1621
55.8228
56.5673
57.3988
58.3203
59.3361
60.4534
61.6801
63.0233
64.4895
66.0861
67.8217
69.7074
71.7555
73.9771
76.3841
78.9924
81.816
84.8712
88.1763
91.7488
95.6095
99.7797
104.282
109.141
114.38
120.028
126.113
132.666
139.719
147.304
155.457
164.218
173.624
183.719
194.546
206.154
218.593
231.917
246.183
261.453
277.792
295.269
313.957
333.936
355.288
378.1
402.458
428.453
456.169
485.676
517.018
550.187
585.088
621.471
658.828
696.146
731.59
762.102
782.18
781.487
746.623
649.657
459.347
153.774
-283.656
-784.075
-1291.52
-1737.13
-2044.14
52.9797
52.8608
52.8052
52.8169
52.8977
53.047
53.2628
53.5434
53.891
54.3155
54.8197
55.4026
56.0676
56.8169
57.6535
58.5808
59.603
60.7274
61.9615
63.3126
64.7873
66.393
68.1383
70.0344
72.0935
74.3266
76.7459
79.3671
82.2042
85.2737
88.5937
92.1818
96.0587
100.246
104.766
109.643
114.901
120.569
126.674
133.247
140.321
147.928
156.104
164.887
174.316
184.434
195.284
206.915
219.378
232.725
247.013
262.303
278.661
296.154
314.856
334.844
356.2
379.007
403.35
429.316
456.983
486.416
517.649
550.661
585.338
621.408
658.328
695.042
729.667
759.099
777.824
775.749
739.841
643.722
459.312
53.2218
53.104
53.0501
53.0635
53.1459
53.2969
53.515
53.7984
54.15
54.5784
55.0865
55.6739
56.3437
57.0983
57.9408
58.8745
59.904
61.0363
62.2788
63.6387
65.1228
66.7387
68.4949
70.4027
72.4741
74.7201
77.1531
79.7887
82.641
85.7265
89.063
92.6685
96.5635
100.769
105.309
110.206
115.485
121.174
127.302
133.898
140.995
148.626
156.826
165.634
175.088
185.23
196.106
207.762
220.249
233.619
247.929
263.241
279.617
297.125
315.838
335.831
357.184
379.979
404.297
430.219
457.819
487.153
518.243
551.055
585.452
621.136
657.525
693.514
727.168
755.336
772.51
768.864
731.788
636.582
458.553
53.4943
53.3779
53.3259
53.3411
53.4255
53.5786
53.7992
54.086
54.4419
54.8748
55.3873
55.9797
56.655
57.4155
58.2646
59.2056
60.2433
61.3843
62.6362
64.0061
65.5008
67.128
68.8965
70.8174
72.9024
75.1629
77.6113
80.2629
83.1321
86.2353
89.5903
93.2151
97.1303
101.357
105.918
110.838
116.14
121.853
128.005
134.626
141.749
149.406
157.632
166.466
175.947
186.116
197.018
208.7
221.212
234.606
248.939
264.27
280.663
298.184
316.903
336.896
358.238
381.009
405.287
431.148
458.656
487.859
518.767
551.326
585.375
620.585
656.33
691.453
723.964
750.663
766.08
760.665
722.305
628.094
456.729
53.8009
53.6861
53.6363
53.6537
53.7403
53.8959
54.1194
54.41
54.7708
55.2086
55.7262
56.3242
57.0056
57.7729
58.6294
59.5786
60.6254
61.7763
63.0386
64.4197
65.9263
67.5662
69.3484
71.2838
73.3841
75.6607
78.1263
80.7958
83.6837
86.8066
90.1821
93.8284
97.7659
102.016
106.601
111.545
116.873
122.612
128.791
135.439
142.59
150.274
158.529
167.392
176.901
187.099
198.029
209.738
222.275
235.693
250.047
265.396
281.802
299.331
318.051
338.035
359.356
382.09
406.309
432.083
459.469
488.502
519.176
551.417
585.036
619.667
654.637
688.734
719.906
744.917
758.361
750.983
711.266
618.15
452.962
54.1457
54.0327
53.9853
54.0052
54.0945
54.253
54.4799
54.7749
55.141
55.5844
56.1077
56.7121
57.4004
58.1753
59.0401
59.9986
61.0555
62.2174
63.4915
64.885
66.4049
68.0591
69.8565
71.8081
73.9255
76.22
78.7046
81.3939
84.3027
87.4475
90.8457
94.5157
98.4778
102.753
107.365
112.336
117.691
123.459
129.667
136.345
143.526
151.241
159.526
168.419
177.959
188.186
199.144
210.88
223.443
236.883
251.257
266.621
283.036
300.566
319.278
339.241
360.527
383.204
407.34
432.998
460.223
489.036
519.414
551.259
584.35
618.279
652.323
685.21
714.831
737.919
749.179
739.657
698.58
606.709
447.472
54.5328
54.4222
54.3776
54.4004
54.4927
54.6546
54.8855
55.1854
55.5576
56.0072
56.5369
57.1485
57.8446
58.6281
59.5023
60.471
61.5394
62.7135
64.0007
65.4081
66.9429
68.6129
70.4273
72.3969
74.5331
76.8476
79.3533
82.0647
84.9966
88.1654
91.5888
95.2849
99.274
103.577
108.218
113.218
118.605
124.403
130.643
137.353
144.566
152.313
160.631
169.556
179.126
189.384
200.371
212.133
224.72
238.181
252.57
267.943
284.361
301.884
320.576
340.504
361.733
384.33