/*--------------------------------*- C++ -*----------------------------------*\
| =========                 |                                                 |
| \\      /  F ield         | OpenFOAM: The Open Source CFD Toolbox           |
|  \\    /   O peration     | Version:  2412                                  |
|   \\  /    A nd           | Website:  www.openfoam.com                      |
|    \\/     M anipulation  |                                                 |
\*---------------------------------------------------------------------------*/
FoamFile
{
    version     2.0;
    format      ascii;
    arch        "LSB;label=32;scalar=64";
    class       volScalarField;
    location    "120";
    object      p;
}
// * * * * * * * * * * * * * * * * * * * * * * * * * * * * * * * * * * * * * //

dimensions      [0 2 -2 0 0 0 0];

internalField   nonuniform List<scalar> 
8637
(
-4.11105
-4.82167
-5.51723
-6.19274
-6.84704
-7.48523
-8.10633
-8.71047
-9.29825
-9.87016
-10.4249
-10.9619
-11.4824
-11.9872
-12.4748
-12.9443
-13.3968
-13.8321
-14.2494
-14.6475
-15.0265
-15.3859
-15.7255
-16.0445
-16.3415
-16.615
-16.8641
-17.0894
-17.2879
-17.4572
-17.5965
-17.7044
-17.7782
-17.8153
-17.8113
-17.7612
-17.6625
-17.5111
-17.2961
-17.0112
-16.6499
-16.1995
-15.649
-14.9889
-14.206
-13.2899
-12.2411
-11.0514
-9.70412
-8.1902
-6.52432
-4.72767
-2.77208
-0.660267
1.60941
4.05007
6.67485
9.48292
12.4852
15.7074
19.1535
22.8425
26.7942
31.0257
35.5621
40.417
45.6204
51.2009
57.1767
63.5899
70.463
77.8408
85.7602
94.2628
103.415
113.249
123.851
135.282
147.631
161
175.483
191.219
208.348
227.024
247.423
269.724
294.095
320.541
-4.11104
-4.82167
-5.51723
-6.19274
-6.84704
-7.48523
-8.10633
-8.71047
-9.29825
-9.87016
-10.4249
-10.9619
-11.4824
-11.9872
-12.4748
-12.9443
-13.3968
-13.8321
-14.2493
-14.6475
-15.0265
-15.3859
-15.7255
-16.0445
-16.3415
-16.615
-16.8641
-17.0894
-17.2879
-17.4572
-17.5965
-17.7044
-17.7782
-17.8153
-17.8113
-17.7612
-17.6625
-17.511
-17.2961
-17.0112
-16.6499
-16.1995
-15.649
-14.9889
-14.206
-13.2899
-12.2411
-11.0514
-9.70411
-8.1902
-6.52431
-4.72767
-2.77208
-0.660256
1.60941
4.05008
6.67486
9.48293
12.4852
15.7074
19.1536
22.8425
26.7942
31.0257
35.5621
40.417
45.6204
51.2009
57.1767
63.5899
70.463
77.8408
85.7602
94.2628
103.415
113.249
123.851
135.283
147.631
161
175.483
191.219
208.348
227.024
247.423
269.724
294.095
320.541
-4.11103
-4.82165
-5.51721
-6.19272
-6.84703
-7.48521
-8.10632
-8.71046
-9.29823
-9.87014
-10.4249
-10.9619
-11.4824
-11.9872
-12.4748
-12.9443
-13.3968
-13.8321
-14.2493
-14.6475
-15.0265
-15.3859
-15.7255
-16.0445
-16.3415
-16.615
-16.8641
-17.0894
-17.2879
-17.4572
-17.5965
-17.7043
-17.7782
-17.8152
-17.8113
-17.7612
-17.6625
-17.511
-17.2961
-17.0112
-16.6499
-16.1995
-15.6489
-14.9889
-14.2059
-13.2898
-12.241
-11.0513
-9.70408
-8.19016
-6.52427
-4.72763
-2.77203
-0.660217
1.60946
4.05013
6.67491
9.48298
12.4853
15.7074
19.1536
22.8426
26.7943
31.0258
35.5622
40.4171
45.6204
51.201
57.1768
63.59
70.4631
77.8409
85.7603
94.2629
103.415
113.249
123.851
135.283
147.631
161
175.483
191.219
208.348
227.025
247.424
269.725
294.095
320.542
-4.11099
-4.82161
-5.51717
-6.19268
-6.84699
-7.48517
-8.10628
-8.71041
-9.2982
-9.8701
-10.4249
-10.9619
-11.4823
-11.9871
-12.4747
-12.9443
-13.3968
-13.8321
-14.2493
-14.6474
-15.0265
-15.3859
-15.7255
-16.0444
-16.3414
-16.6149
-16.864
-17.0893
-17.2879
-17.4571
-17.5965
-17.7043
-17.7781
-17.8152
-17.8113
-17.7611
-17.6624
-17.511
-17.296
-17.0111
-16.6498
-16.1994
-15.6489
-14.9888
-14.2059
-13.2897
-12.2409
-11.0512
-9.70397
-8.19005
-6.52416
-4.7275
-2.77191
-0.660082
1.6096
4.05027
6.67506
9.48314
12.4854
15.7076
19.1538
22.8428
26.7945
31.026
35.5624
40.4173
45.6207
51.2012
57.1771
63.5903
70.4634
77.8413
85.7607
94.2633
103.416
113.249
123.852
135.283
147.632
161.001
175.483
191.22
208.349
227.025
247.425
269.726
294.097
320.544
-4.1109
-4.82153
-5.51709
-6.1926
-6.8469
-7.48509
-8.10619
-8.71033
-9.29811
-9.87001
-10.4248
-10.9618
-11.4822
-11.987
-12.4747
-12.9442
-13.3967
-13.832
-14.2492
-14.6474
-15.0264
-15.3858
-15.7254
-16.0443
-16.3413
-16.6148
-16.8639
-17.0892
-17.2878
-17.457
-17.5963
-17.7042
-17.778
-17.8151
-17.8111
-17.761
-17.6623
-17.5108
-17.2958
-17.0109
-16.6497
-16.1992
-15.6487
-14.9886
-14.2057
-13.2895
-12.2407
-11.051
-9.70374
-8.18981
-6.52391
-4.72724
-2.77164
-0.659799
1.60989
4.05058
6.67538
9.48347
12.4858
15.708
19.1542
22.8432
26.7949
31.0264
35.5629
40.4178
45.6212
51.2018
57.1777
63.5909
70.4641
77.842
85.7614
94.2641
103.416
113.25
123.853
135.284
147.633
161.002
175.485
191.221
208.351
227.028
247.427
269.729
294.1
320.548
-4.11074
-4.82137
-5.51693
-6.19244
-6.84675
-7.48493
-8.10603
-8.71017
-9.29795
-9.86985
-10.4246
-10.9616
-11.4821
-11.9869
-12.4745
-12.944
-13.3965
-13.8318
-14.249
-14.6472
-15.0262
-15.3856
-15.7252
-16.0441
-16.3411
-16.6146
-16.8637
-17.089
-17.2875
-17.4568
-17.5961
-17.7039
-17.7778
-17.8148
-17.8109
-17.7607
-17.662
-17.5105
-17.2955
-17.0106
-16.6493
-16.1989
-15.6483
-14.9882
-14.2053
-13.2891
-12.2403
-11.0506
-9.70331
-8.18937
-6.52344
-4.72676
-2.77113
-0.659276
1.61044
4.05115
6.67598
9.4841
12.4864
15.7086
19.1549
22.8439
26.7957
31.0273
35.5638
40.4187
45.6222
51.2028
57.1788
63.5921
70.4653
77.8433
85.7628
94.2656
103.418
113.252
123.855
135.286
147.635
161.004
175.488
191.225
208.355
227.032
247.432
269.734
294.106
320.555
-4.11048
-4.8211
-5.51666
-6.19217
-6.84648
-7.48466
-8.10577
-8.7099
-9.29768
-9.86958
-10.4244
-10.9613
-11.4818
-11.9866
-12.4742
-12.9437
-13.3962
-13.8315
-14.2487
-14.6469
-15.0259
-15.3853
-15.7249
-16.0438
-16.3408
-16.6143
-16.8634
-17.0886
-17.2872
-17.4564
-17.5957
-17.7035
-17.7774
-17.8144
-17.8104
-17.7603
-17.6616
-17.51
-17.295
-17.0101
-16.6488
-16.1983
-15.6478
-14.9877
-14.2047
-13.2885
-12.2397
-11.0499
-9.7026
-8.18863
-6.52267
-4.72596
-2.7703
-0.658403
1.61135
4.05211
6.67697
9.48514
12.4875
15.7098
19.1561
22.8452
26.797
31.0287
35.5652
40.4203
45.6238
51.2045
57.1806
63.594
70.4674
77.8455
85.7652
94.2682
103.421
113.255
123.858
135.29
147.639
161.009
175.492
191.23
208.361
227.038
247.439
269.743
294.116
320.566
-4.11006
-4.82069
-5.51625
-6.19176
-6.84607
-7.48425
-8.10535
-8.70949
-9.29727
-9.86917
-10.4239
-10.9609
-11.4814
-11.9862
-12.4738
-12.9433
-13.3958
-13.8311
-14.2483
-14.6464
-15.0254
-15.3848
-15.7244
-16.0433
-16.3403
-16.6138
-16.8628
-17.0881
-17.2866
-17.4558
-17.5952
-17.7029
-17.7767
-17.8138
-17.8098
-17.7596
-17.6608
-17.5093
-17.2943
-17.0093
-16.648
-16.1975
-15.6469
-14.9868
-14.2038
-13.2875
-12.2386
-11.0489
-9.70151
-8.18749
-6.52149
-4.72472
-2.76901
-0.657057
1.61275
4.05357
6.67851
9.48674
12.4892
15.7115
19.1579
22.8471
26.799
31.0308
35.5675
40.4227
45.6264
51.2072
57.1834
63.597
70.4706
77.8489
85.7689
94.2721
103.425
113.259
123.863
135.295
147.645
161.015
175.5
191.238
208.37
227.048
247.451
269.756
294.131
320.584
-4.10945
-4.82009
-5.51565
-6.19116
-6.84547
-7.48365
-8.10475
-8.70889
-9.29666
-9.86856
-10.4233
-10.9603
-11.4808
-11.9855
-12.4731
-12.9427
-13.3951
-13.8304
-14.2476
-14.6458
-15.0247
-15.3841
-15.7237
-16.0426
-16.3396
-16.613
-16.8621
-17.0873
-17.2858
-17.455
-17.5943
-17.7021
-17.7758
-17.8128
-17.8088
-17.7586
-17.6598
-17.5083
-17.2932
-17.0082
-16.6468
-16.1963
-15.6456
-14.9854
-14.2024
-13.2861
-12.2372
-11.0473
-9.69992
-8.18583
-6.51976
-4.72293
-2.76713
-0.655098
1.6148
4.05571
6.68074
9.48908
12.4916
15.7141
19.1606
22.85
26.802
31.0339
35.5708
40.4261
45.63
51.2111
57.1876
63.6014
70.4752
77.8539
85.7742
94.2778
103.431
113.266
123.87
135.303
147.654
161.025
175.51
191.249
208.383
227.063
247.468
269.775
294.154
320.61
-4.10861
-4.81925
-5.51482
-6.19033
-6.84463
-7.48281
-8.10392
-8.70805
-9.29582
-9.86772
-10.4225
-10.9595
-11.4799
-11.9847
-12.4723
-12.9418
-13.3942
-13.8295
-14.2467
-14.6448
-15.0238
-15.3831
-15.7227
-16.0416
-16.3385
-16.612
-16.861
-17.0862
-17.2847
-17.4538
-17.5931
-17.7008
-17.7746
-17.8115
-17.8075
-17.7572
-17.6584
-17.5068
-17.2917
-17.0066
-16.6452
-16.1946
-15.6439
-14.9836
-14.2005
-13.2842
-12.2351
-11.0452
-9.69771
-8.18353
-6.51736
-4.72042
-2.76452
-0.652373
1.61764
4.05868
6.68385
9.49233
12.495
15.7177
19.1644
22.8539
26.8061
31.0383
35.5754
40.431
45.6351
51.2165
57.1933
63.6075
70.4817
77.8608
85.7816
94.2858
103.44
113.275
123.88
135.314
147.666
161.038
175.525
191.266
208.401
227.084
247.491
269.802
294.185
320.645
-6.18921
-6.84351
-7.48169
-8.1028
-8.70693
-9.2947
-9.86659
-10.4213
-10.9583
-11.4787
-11.9835
-12.4711
-12.9406
-13.3931
-13.8283
-14.2455
-14.6436
-15.0225
-15.3819
-15.7214
-16.0403
-16.3372
-16.6106
-16.8596
-17.0848
-17.2832
-17.4523
-17.5915
-17.6992
-17.7729
-17.8098
-17.8057
-17.7554
-17.6565
-17.5048
-17.2896
-17.0045
-16.643
-16.1923
-15.6415
-14.9812
-14.198
-13.2815
-12.2324
-11.0424
-9.69474
-8.18044
-6.51415
-4.71707
-2.76102
-0.648727
1.62145
4.06266
6.68801
9.49669
12.4996
15.7225
19.1694
22.8591
26.8117
31.0441
35.5815
40.4374
45.642
51.2237
57.201
63.6156
70.4904
77.8701
85.7916
94.2965
103.451
113.288
123.894
135.329
147.682
161.056
175.545
191.288
208.426
227.112
247.523
269.838
294.226
320.693
-6.18775
-6.84206
-7.48024
-8.10134
-8.70547
-9.29324
-9.86512
-10.4199
-10.9568
-11.4773
-11.982
-12.4696
-12.9391
-13.3915
-13.8268
-14.2439
-14.642
-15.0209
-15.3802
-15.7197
-16.0385
-16.3354
-16.6088
-16.8577
-17.0829
-17.2813
-17.4503
-17.5895
-17.6971
-17.7707
-17.8076
-17.8034
-17.753
-17.654
-17.5023
-17.287
-17.0018
-16.6402
-16.1894
-15.6385
-14.978
-14.1947
-13.2781
-12.2288
-11.0387
-9.6909
-8.17644
-6.50997
-4.71272
-2.75649
-0.643992
1.62639
4.06783
6.69341
9.50234
12.5055
15.7287
19.1759
22.866
26.8189
31.0517
35.5895
40.4459
45.6509
51.2332
57.211
63.6263
70.5018
77.8823
85.8046
94.3105
103.466
113.304
123.912
135.348
147.703
161.079
175.571
191.317
208.458
227.148
247.564
269.885
294.279
320.754
-6.18591
-6.84022
-7.47841
-8.09951
-8.70363
-9.2914
-9.86327
-10.418
-10.955
-11.4754
-11.9801
-12.4677
-12.9372
-13.3896
-13.8248
-14.2419
-14.6399
-15.0188
-15.3781
-15.7175
-16.0363
-16.3332
-16.6065
-16.8554
-17.0805
-17.2788
-17.4478
-17.5869
-17.6944
-17.768
-17.8047
-17.8004
-17.75
-17.6509
-17.499
-17.2837
-16.9983
-16.6366
-16.1857
-15.6346
-14.974
-14.1905
-13.2738
-12.2243
-11.034
-9.68604
-8.17137
-6.50469
-4.70722
-2.75075
-0.637998
1.63265
4.07437
6.70025
9.5095
12.513
15.7365
19.1842
22.8747
26.828
31.0613
35.5996
40.4566
45.6622
51.2451
57.2237
63.6398
70.5162
77.8977
85.8211
94.3283
103.486
113.325
123.934
135.373
147.73
161.109
175.604
191.354
208.499
227.194
247.616
269.944
294.345
320.82
-6.18362
-6.83795
-7.47613
-8.09723
-8.70136
-9.28911
-9.86098
-10.4157
-10.9527
-11.473
-11.9778
-12.4653
-12.9348
-13.3871
-13.8223
-14.2394
-14.6374
-15.0163
-15.3755
-15.7149
-16.0336
-16.3304
-16.6037
-16.8525
-17.0775
-17.2757
-17.4446
-17.5837
-17.6911
-17.7646
-17.8012
-17.7968
-17.7463
-17.6471
-17.495
-17.2795
-16.994
-16.6322
-16.1811
-15.6299
-14.9691
-14.1854
-13.2684
-12.2188
-11.0282
-9.68001
-8.1651
-6.49815
-4.7004
-2.74363
-0.630569
1.64041
4.08248
6.70874
9.51839
12.5223
15.7463
19.1944
22.8854
26.8393
31.0732
35.6122
40.4699
45.6763
51.2601
57.2396
63.6567
70.5342
77.917
85.8418
94.3506
103.51
113.351
123.962
135.404
147.764
161.146
175.645
191.399
208.55
227.251
247.68
270.015
294.422
320.902
-6.18085
-6.83518
-7.47337
-8.09447
-8.69859
-9.28634
-9.85819
-10.4129
-10.9498
-11.4702
-11.9749
-12.4624
-12.9318
-13.3842
-13.8193
-14.2364
-14.6343
-15.0131
-15.3723
-15.7117
-16.0303
-16.327
-16.6002
-16.849
-17.0739
-17.272
-17.4408
-17.5798
-17.6871
-17.7604
-17.7969
-17.7924
-17.7417
-17.6424
-17.4902
-17.2745
-16.9888
-16.6268
-16.1755
-15.6241
-14.963
-14.1791
-13.2619
-12.212
-11.0212
-9.67268
-8.15746
-6.49019
-4.6921
-2.73496
-0.621519
1.64987
4.09236
6.71909
9.52922
12.5337
15.7582
19.2069
22.8986
26.8532
31.0878
35.6276
40.4861
45.6935
51.2783
57.259
63.6774
70.5563
77.9406
85.8672
94.3779
103.539
113.383
123.997
135.442
147.806
161.192
175.695
191.455
208.612
227.32
247.756
270.101
294.509
321.014
-6.17753
-6.83188
-7.47007
-8.09116
-8.69528
-9.28302
-9.85486
-10.4096
-10.9465
-11.4668
-11.9715
-12.459
-12.9284
-13.3807
-13.8158
-14.2328
-14.6307
-15.0094
-15.3685
-15.7078
-16.0264
-16.323
-16.5961
-16.8448
-17.0696
-17.2676
-17.4363
-17.5751
-17.6823
-17.7555
-17.7918
-17.7871
-17.7363
-17.6367
-17.4844
-17.2685
-16.9826
-16.6203
-16.1688
-15.6171
-14.9558
-14.1716
-13.2541
-12.2039
-11.0127
-9.66389
-8.1483
-6.48064
-4.68213
-2.72456
-0.610652
1.66122
4.10425
6.73152
9.54225
12.5474
15.7725
19.222
22.9144
26.8698
31.1054
35.6462
40.5058
45.7143
51.3004
57.2825
63.7024
70.5831
77.9693
85.898
94.4111
103.575
113.422
124.04
135.488
147.856
161.247
175.756
191.522
208.686
227.402
247.849
270.198
294.614
321.13
-6.17361
-6.82797
-7.46616
-8.08725
-8.69136
-9.27909
-9.85092
-10.4056
-10.9425
-11.4628
-11.9675
-12.4549
-12.9242
-13.3765
-13.8116
-14.2285
-14.6263
-15.005
-15.364
-15.7032
-16.0217
-16.3182
-16.5912
-16.8398
-17.0645
-17.2624
-17.4309
-17.5696
-17.6766
-17.7496
-17.7858
-17.7809
-17.7298
-17.6301
-17.4775
-17.2613
-16.9752
-16.6126
-16.1608
-15.6089
-14.9473
-14.1627
-13.2449
-12.1943
-11.0027
-9.65346
-8.13743
-6.4693
-4.6703
-2.7122
-0.597745
1.67471
4.11837
6.74631
9.55775
12.5636
15.7896
19.2399
22.9333
26.8898
31.1264
35.6684
40.5293
45.7393
51.3269
57.3107
63.7325
70.6153
78.0038
85.935
94.451
103.618
113.469
124.09
135.543
147.916
161.313
175.828
191.601
208.773
227.498
247.953
270.304
294.731
321.245
-6.16903
-6.8234
-7.4616
-8.08268
-8.68679
-9.27451
-9.84631
-10.401
-10.9378
-11.4581
-11.9627
-12.4501
-12.9194
-13.3716
-13.8066
-14.2235
-14.6213
-14.9999
-15.3588
-15.6979
-16.0163
-16.3127
-16.5855
-16.834
-17.0585
-17.2562
-17.4246
-17.5631
-17.6699
-17.7428
-17.7787
-17.7736
-17.7223
-17.6223
-17.4694
-17.253
-16.9666
-16.6037
-16.1515
-15.5992
-14.9372
-14.1523
-13.234
-12.183
-10.991
-9.64122
-8.12466
-6.45598
-4.6564
-2.69768
-0.582555
1.6906
4.135
6.76374
9.57604
12.5828
15.8098
19.2611
22.9557
26.9133
31.1513
35.6947
40.5572
45.7689
51.3584
57.3443
63.7683
70.6536
78.0448
85.9791
94.4986
103.669
113.524
124.15
135.609
147.987
161.39
175.912
191.692
208.871
227.605
248.063
270.422
294.854
321.37
-6.16372
-6.81811
-7.4563
-8.07739
-8.68148
-9.26919
-9.84097
-10.3956
-10.9324
-11.4527
-11.9573
-12.4446
-12.9139
-13.366
-13.8009
-14.2177
-14.6154
-14.9939
-15.3527
-15.6917
-16.0099
-16.3062
-16.5789
-16.8272
-17.0515
-17.2491
-17.4173
-17.5556
-17.6622
-17.7348
-17.7705
-17.7651
-17.7135
-17.6132
-17.46
-17.2433
-16.9565
-16.5933
-16.1407
-15.588
-14.9256
-14.1402
-13.2214
-12.1699
-10.9773
-9.62694
-8.10977
-6.44043
-4.64016
-2.68069
-0.564793
1.70919
4.15448
6.78417
9.59747
12.6053
15.8335
19.2861
22.982
26.9411
31.1807
35.7258
40.5902
45.8039
51.3956
57.384
63.8107
70.699
78.0935
86.0314
94.5549
103.73
113.589
124.221
135.685
148.07
161.479
176.008
191.795
208.981
227.721
248.185
270.551
294.985
321.499
-6.15761
-6.81202
-7.45021
-8.07129
-8.67538
-9.26307
-9.83482
-10.3894
-10.9262
-11.4465
-11.9509
-12.4382
-12.9074
-13.3595
-13.7943
-14.211
-14.6086
-14.987
-15.3457
-15.6845
-16.0026
-16.2988
-16.5713
-16.8194
-17.0435
-17.2409
-17.4089
-17.5469
-17.6533
-17.7256
-17.761
-17.7553
-17.7034
-17.6028
-17.4492
-17.2321
-16.9449
-16.5812
-16.1282
-15.575
-14.912
-14.1261
-13.2068
-12.1546
-10.9614
-9.61038
-8.09247
-6.42237
-4.62128
-2.66094
-0.544117
1.73085
4.17719
6.80801
9.62252
12.6317
15.8612
19.3153
23.0128
26.9737
31.2152
35.7623
40.629
45.8452
51.4396
57.4309
63.8608
70.7525
78.1509
86.0929
94.6209
103.801
113.666
124.303
135.773
148.164
161.58
176.116
191.909
209.102
227.848
248.316
270.686
295.121
321.633
-6.15061
-6.80504
-7.44324
-8.06431
-8.66838
-9.25605
-9.82777
-10.3823
-10.9191
-11.4393
-11.9437
-12.4309
-12.9
-13.352
-13.7868
-14.2033
-14.6008
-14.9791
-15.3376
-15.6763
-15.9943
-16.2902
-16.5626
-16.8104
-17.0344
-17.2315
-17.3992
-17.5369
-17.643
-17.715
-17.7501
-17.7441
-17.6918
-17.5907
-17.4367
-17.2192
-16.9315
-16.5673
-16.1138
-15.56
-14.8965
-14.1099
-13.1899
-12.137
-10.943
-9.59122
-8.07246
-6.40145
-4.59939
-2.63803
-0.52011
1.75601
4.20361
6.83577
9.65171
12.6624
15.8936
19.3495
23.049
27.0119
31.2557
35.8053
40.6746
45.8938
51.4913
57.4861
63.9196
70.8154
78.218
86.1647
94.6978
103.883
113.753
124.396
135.872
148.27
161.692
176.234
192.034
209.232
227.983
248.456
270.828
295.264
321.772
-6.14264
-6.79708
-7.43528
-8.05634
-8.6604
-9.24805
-9.81973
-10.3742
-10.911
-11.4311
-11.9355
-12.4226
-12.8916
-13.3435
-13.7781
-14.1946
-14.5919
-14.97
-15.3284
-15.667
-15.9847
-16.2804
-16.5526
-16.8002
-17.0239
-17.2207
-17.3881
-17.5255
-17.6313
-17.7029
-17.7376
-17.7312
-17.6784
-17.5769
-17.4224
-17.2043
-16.9162
-16.5514
-16.0972
-15.5428
-14.8785
-14.0912
-13.1704
-12.1167
-10.9219
-9.56911
-8.04934
-6.37725
-4.57406
-2.61148
-0.492266
1.78524
4.23432
6.86808
9.68574
12.6983
15.9314
19.3895
23.0913
27.0567
31.3033
35.8557
40.7282
45.9508
51.5519
57.5506
63.9884
70.8887
78.2961
86.2478
94.7862
103.977
113.853
124.502
135.983
148.387
161.814
176.362
192.167
209.37
228.127
248.603
270.978
295.414
321.918
-6.13356
-6.78803
-7.42623
-8.04727
-8.65132
-9.23894
-9.81058
-10.365
-10.9017
-11.4218
-11.9261
-12.4131
-12.882
-13.3338
-13.7683
-14.1846
-14.5818
-14.9597
-15.318
-15.6563
-15.9738
-16.2693
-16.5412
-16.7885
-17.0119
-17.2084
-17.3755
-17.5125
-17.6179
-17.6891
-17.7233
-17.7164
-17.6632
-17.5612
-17.4061
-17.1874
-16.8986
-16.5331
-16.0782
-15.523
-14.8579
-14.0697
-13.148
-12.0933
-10.8974
-9.54359
-8.02263
-6.34928
-4.54475
-2.58072
-0.459962
1.81919
4.27004
6.9057
9.72541
12.7402
15.9757
19.4363
23.1408
27.1093
31.359
35.9148
40.791
46.0175
51.6227
57.6259
64.0683
70.9735
78.386
86.3428
94.8866
104.082
113.964
124.618
136.105
148.514
161.947
176.5
192.31
209.519
228.279
248.76
271.137
295.572
322.072
-6.12326
-6.77775
-7.41595
-8.03698
-8.64101
-9.2286
-9.80018
-10.3546
-10.8912
-11.4112
-11.9154
-12.4023
-12.8712
-13.3228
-13.7571
-14.1733
-14.5703
-14.948
-15.306
-15.6441
-15.9614
-16.2566
-16.5282
-16.7752
-16.9982
-17.1943
-17.361
-17.4977
-17.6026
-17.6733
-17.707
-17.6995
-17.6457
-17.5431
-17.3873
-17.1679
-16.8784
-16.5121
-16.0563
-15.5003
-14.8343
-14.045
-13.1223
-12.0664
-10.8693
-9.51413
-7.99177
-6.31691
-4.51079
-2.54504
-0.422441
1.85867
4.31164
6.94958
9.77174
12.7891
16.0275
19.4911
23.1989
27.1708
31.4242
35.984
40.8643
46.0953
51.705
57.7131
64.1603
71.0705
78.488
86.4499
94.9988
104.199
114.086
124.745
136.237
148.651
162.09
176.648
192.464
209.677
228.443
248.928
271.307
295.743
322.238
-6.11158
-6.7661
-7.4043
-8.02531
-8.62931
-9.21686
-9.78839
-10.3427
-10.8793
-11.3992
-11.9033
-12.3901
-12.8588
-13.3103
-13.7445
-14.1604
-14.5572
-14.9347
-15.2925
-15.6303
-15.9473
-16.2421
-16.5134
-16.76
-16.9826
-17.1783
-17.3446
-17.4807
-17.5851
-17.6553
-17.6884
-17.6802
-17.6258
-17.5224
-17.3659
-17.1456
-16.8552
-16.488
-16.0313
-15.4742
-14.807
-14.0166
-13.0926
-12.0354
-10.8368
-9.48008
-7.95605
-6.27941
-4.47138
-2.50358
-0.378791
1.90466
4.36016
7.00082
9.82589
12.8464
16.088
19.5553
23.2668
27.2427
31.5004
36.0645
40.9495
46.1853
51.7999
57.8129
64.2649
71.1801
78.6024
86.5691
95.1228
104.328
114.22
124.884
136.381
148.8
162.244
176.808
192.63
209.849
228.619
249.108
271.491
295.927
322.417
-6.09835
-6.7529
-7.39109
-8.01208
-8.61606
-9.20356
-9.77502
-10.3293
-10.8658
-11.3856
-11.8895
-12.3762
-12.8447
-13.2961
-13.73
-14.1457
-14.5423
-14.9196
-15.2771
-15.6145
-15.9312
-16.2257
-16.4965
-16.7428
-16.9649
-17.1601
-17.3258
-17.4614
-17.5652
-17.6347
-17.6671
-17.6582
-17.6029
-17.4988
-17.3413
-17.1201
-16.8287
-16.4604
-16.0025
-15.4442
-14.7757
-13.9839
-13.0583
-11.9995
-10.7992
-9.44067
-7.91465
-6.23588
-4.42559
-2.45534
-0.327931
1.95831
4.41682
7.06071
9.88922
12.9134
16.1589
19.6303
23.3461
27.3266
31.5889
36.1579
41.0478
46.2885
51.9079
57.9257
64.3824
71.3022
78.7291
86.7003
95.2587
104.468
114.365
125.034
136.537
148.962
162.411
176.981
192.809
210.034
228.811
249.305
271.692
296.128
322.612
-6.08337
-6.73794
-7.37612
-7.99709
-8.60103
-9.18848
-9.75986
-10.314
-10.8504
-11.3701
-11.8739
-12.3604
-12.8288
-13.2799
-13.7137
-14.1291
-14.5254
-14.9024
-15.2595
-15.5967
-15.9129
-16.2069
-16.4773
-16.7231
-16.9447
-17.1393
-17.3044
-17.4393
-17.5424
-17.6111
-17.6427
-17.6329
-17.5768
-17.4716
-17.3131
-17.0908
-16.7982
-16.4286
-15.9694
-15.4096
-14.7396
-13.9461
-13.0188
-11.958
-10.7557
-9.39498
-7.8666
-6.18529
-4.37229
-2.39913
-0.2686
2.02095
4.48302
7.13072
9.96325
12.9917
16.2416
19.7177
23.4383
27.4237
31.6911
36.265
41.1599
46.4054
52.0293
58.0517
64.5128
71.437
78.8683
86.8439
95.4071
104.621
114.523
125.198
136.706
149.137
162.593
177.17
193.005
210.237
229.021
249.521
271.912
296.348
322.826
-6.06639
-6.72099
-7.35916
-7.9801
-8.58399
-9.17138
-9.74266
-10.2967
-10.833
-11.3526
-11.8562
-12.3425
-12.8107
-13.2616
-13.695
-14.1102
-14.5062
-14.8828
-15.2396
-15.5763
-15.892
-16.1856
-16.4554
-16.7007
-16.9216
-17.1155
-17.2799
-17.4141
-17.5163
-17.5842
-17.6148
-17.604
-17.5468
-17.4405
-17.2807
-17.0571
-16.7631
-16.392
-15.9312
-15.3697
-14.6979
-13.9024
-12.973
-11.91
-10.7053
-9.34193
-7.81074
-6.1264
-4.3102
-2.33357
-0.199348
2.09411
4.56035
7.21247
10.0497
13.0829
16.3379
19.8191
23.5449
27.5354
31.8079
36.3866
41.2862
46.5362
52.1644
58.1912
64.6565
71.5851
79.0208
87.001
95.5692
104.789
114.696
125.376
136.891
149.329
162.792
177.376
193.22
210.46
229.252
249.759
272.154
296.59
323.059
-6.04715
-6.70177
-7.33993
-7.96083
-8.56467
-9.15198
-9.72315
-10.2771
-10.8132
-11.3327
-11.8361
-12.3222
-12.7901
-13.2407
-13.6739
-14.0887
-14.4843
-14.8605
-15.2168
-15.5531
-15.8683
-16.1613
-16.4305
-16.675
-16.8953
-17.0884
-17.2519
-17.3852
-17.4865
-17.5533
-17.5828
-17.5709
-17.5124
-17.4048
-17.2435
-17.0184
-16.7228
-16.3499
-15.8872
-15.3237
-14.6497
-13.8519
-12.92
-11.8544
-10.6467
-9.2803
-7.74575
-6.05782
-4.23782
-2.25709
-0.118526
2.17949
4.65057
7.30777
10.1502
13.1888
16.4495
19.9356
23.6669
27.6625
31.9398
36.5229
41.4269
46.6812
52.3136
58.3447
64.8143
71.7474
79.1878
87.173
95.7466
104.971
114.885
125.572
137.094
149.54
163.011
177.604
193.457
210.707
229.507
250.022
272.421
296.856
323.314
-6.02534
-6.67999
-7.31812
-7.93897
-8.54275
-9.12997
-9.70101
-10.2548
-10.7908
-11.31
-11.8132
-12.299
-12.7667
-13.217
-13.6498
-14.0642
-14.4594
-14.8351
-15.1909
-15.5266
-15.8412
-16.1335
-16.402
-16.6458
-16.8651
-17.0573
-17.2199
-17.3522
-17.4523
-17.5179
-17.5461
-17.5328
-17.4729
-17.3637
-17.2008
-16.9738
-16.6763
-16.3014
-15.8364
-15.2706
-14.594
-13.7935
-12.8586
-11.7898
-10.5787
-9.20862
-7.67011
-5.97792
-4.15344
-2.16791
-0.024281
2.279
4.75557
7.41845
10.2667
13.3111
16.5773
20.0683
23.8049
27.8052
32.087
36.6744
41.5827
46.8412
52.4778
58.5134
64.9875
71.9255
79.371
87.3616
95.9413
105.172
115.093
125.788
137.318
149.772
163.253
177.857
193.719
210.979
229.789
250.312
272.716
297.148
323.591
-6.00061
-6.65528
-7.29338
-7.91417
-8.51786
-9.10498
-9.67586
-10.2295
-10.7653
-11.2843
-11.7872
-12.2727
-12.7401
-13.19
-13.6224
-14.0363
-14.431
-14.8062
-15.1614
-15.4964
-15.8103
-16.1018
-16.3694
-16.6123
-16.8307
-17.0218
-17.1833
-17.3143
-17.4131
-17.4774
-17.5041
-17.4891
-17.4275
-17.3165
-17.1515
-16.9225
-16.6228
-16.2454
-15.7778
-15.2092
-14.5296
-13.7258
-12.7874
-11.7148
-10.4997
-9.12525
-7.58204
-5.88485
-4.05513
-2.06401
0.0854306
2.39456
4.87731
7.54711
10.3998
13.4506
16.7219
20.218
23.9594
27.964
32.2502
36.8418
41.7544
47.0173
52.6584
58.6987
65.1777
72.1211
79.5723
87.5691
96.1556
105.394
115.323
126.026
137.565
150.03
163.521
178.136
194.01
211.282
230.102
250.632
273.04
297.467
323.891
-5.97256
-6.62724
-7.2653
-7.88601
-8.48961
-9.07659
-9.6473
-10.2007
-10.7363
-11.2551
-11.7577
-12.2428
-12.7098
-13.1593
-13.5912
-14.0046
-14.3987
-14.7732
-15.1277
-15.4619
-15.775
-16.0656
-16.3322
-16.5741
-16.7913
-16.9812
-17.1413
-17.271
-17.3683
-17.4308
-17.4558
-17.439
-17.3754
-17.2622
-17.0949
-16.8634
-16.5611
-16.1808
-15.7102
-15.1383
-14.4551
-13.6474
-12.7049
-11.6278
-10.4079
-9.02828
-7.47955
-5.77651
-3.94073
-1.94323
0.212561
2.52832
5.0182
7.69379
10.5508
13.6081
16.8843
20.385
24.1309
28.1399
32.4304
37.0264
41.9435
47.2112
52.857
58.9027
65.3871
72.3365
79.7942
87.7979
96.3922
105.638
115.577
126.289
137.839
150.316
163.818
178.446
194.333
211.616
230.447
250.985
273.395
297.815
324.215
-5.94074
-6.59543
-7.23343
-7.85405
-8.45753
-9.04435
-9.61484
-10.168
-10.7033
-11.2218
-11.724
-12.2088
-12.6753
-13.1243
-13.5556
-13.9684
-14.3618
-14.7356
-15.0893
-15.4226
-15.7347
-16.0242
-16.2897
-16.5304
-16.7462
-16.9347
-17.0933
-17.2213
-17.3168
-17.3775
-17.4004
-17.3814
-17.3155
-17.1998
-17.0298
-16.7954
-16.4899
-16.1063
-15.632
-15.0562
-14.3688
-13.5566
-12.6091
-11.5267
-10.3011
-8.9155
-7.3604
-5.65065
-3.80806
-1.80346
0.360286
2.68129
5.17804
7.85877
10.7216
13.7841
17.0648
20.5701
24.3206
28.3341
32.6293
37.2298
42.1518
47.4247
53.0758
59.1274
65.618
72.5742
80.0392
88.0509
96.6541
105.909
115.858
126.582
138.144
150.633
164.149
178.79
194.691
211.987
230.829
251.374
273.784
298.192
324.56
-5.90463
-6.55932
-7.19725
-7.81775
-8.42109
-9.00773
-9.57796
-10.1308
-10.6659
-11.184
-11.6858
-12.17
-12.6361
-13.0845
-13.5151
-13.9272
-14.3198
-14.6927
-15.0455
-15.3778
-15.6887
-15.977
-16.2412
-16.4804
-16.6947
-16.8815
-17.0384
-17.1644
-17.2579
-17.3164
-17.3369
-17.3153
-17.2467
-17.1281
-16.9549
-16.7171
-16.408
-16.0203
-15.5418
-14.9614
-14.2689
-13.4513
-12.498
-11.4094
-10.1772
-8.78468
-7.22219
-5.5049
-3.65469
-1.64075
0.527256
2.85384
5.35781
8.04435
10.912
13.9795
17.2648
20.7749
24.5301
28.5484
32.8485
37.454
42.3815
47.6602
53.3173
59.3755
65.8731
72.8371
80.3105
88.3313
96.9446
106.21
116.171
126.907
138.482
150.986
164.516
179.172
195.087
212.396
231.249
251.8
274.207
298.598
324.926
-5.86366
-6.51833
-7.15618
-7.77654
-8.37971
-8.96612
-9.53606
-10.0886
-10.6233
-11.141
-11.6423
-12.126
-12.5914
-13.0391
-13.469
-13.8802
-14.2719
-14.6439
-14.9955
-15.3266
-15.6362
-15.9231
-16.1858
-16.4233
-16.6359
-16.8207
-16.9755
-17.0994
-17.1905
-17.2463
-17.2641
-17.2395
-17.1677
-17.0457
-16.8688
-16.6269
-16.3135
-15.9212
-15.4376
-14.8517
-14.1534
-13.3294
-12.3692
-11.2733
-10.0335
-8.63297
-7.06287
-5.3374
-3.47678
-1.45817
0.713716
3.04928
5.55934
8.25037
11.1233
14.196
17.4861
21.0012
24.7615
28.7849
33.0905
37.7015
42.6351
47.9201
53.584
59.6498
66.1555
73.1284
80.6113
88.6425
97.2672
106.545
116.519
127.269
138.859
151.377
164.923
179.595
195.525
212.848
231.71
252.265
274.666
299.033
325.309
-5.81719
-6.47182
-7.10955
-7.72975
-8.33271
-8.91886
-9.48845
-10.0406
-10.5749
-11.0921
-11.5928
-12.0759
-12.5406
-12.9875
-13.4165
-13.8268
-14.2174
-14.5882
-14.9386
-15.2682
-15.5763
-15.8616
-16.1225
-16.3582
-16.5686
-16.7512
-16.9036
-17.025
-17.1133
-17.1662
-17.1807
-17.1526
-17.0771
-16.9511
-16.7698
-16.5232
-16.2048
-15.8069
-15.3174
-14.7251
-14.0198
-13.1884
-12.2203
-11.1161
-9.86786
-8.4602
-6.87939
-5.14353
-3.27817
-1.25564
0.926009
3.26754
5.7827
8.47904
11.3575
14.4356
17.7307
21.2512
25.017
29.046
33.3576
37.9748
42.9152
48.2076
53.8793
59.9537
66.4685
73.4515
80.9453
88.9882
97.6258
106.917
116.906
127.67
139.276
151.812
165.374
180.063
196.008
213.344
232.215
252.771
275.161
299.494
325.703
-5.76448
-6.41905
-7.05664
-7.67664
-8.27936
-8.86519
-9.43438
-9.98607
-10.5199
-11.0366
-11.5366
-12.0189
-12.4828
-12.9288
-13.3568
-13.7659
-14.1553
-14.5247
-14.8737
-15.2018
-15.5081
-15.7914
-16.0503
-16.2838
-16.4919
-16.6719
-16.8215
-16.9399
-17.025
-17.0744
-17.0852
-17.0531
-16.9733
-16.8426
-16.6561
-16.4041
-16.0797
-15.6754
-15.1789
-14.5792
-13.8659
-13.026
-12.0489
-10.9356
-9.67982
-8.26155
-6.66753
-4.92815
-3.05864
-1.0253
1.16222
3.50951
6.03073
8.73242
11.6166
14.7004
18.001
21.5273
25.2991
29.3344
33.6527
38.277
43.2251
48.5259
54.2064
60.2907
66.8159
73.8104
81.3164
89.3725
98.0243
107.33
117.335
128.116
139.74
152.293
165.873
180.58
196.54
213.888
232.766
253.318
275.689
299.977
326.101
-5.7047
-6.35918
-6.9966
-7.61636
-8.21879
-8.80426
-9.37299
-9.92415
-10.4574
-10.9734
-11.4727
-11.9541
-12.4171
-12.8621
-13.2889
-13.6966
-14.0846
-14.4526
-14.7998
-15.1261
-15.4304
-15.7115
-15.9681
-16.1991
-16.4043
-16.5813
-16.7279
-16.8428
-16.9242
-16.9696
-16.976
-16.9392
-16.8544
-16.7183
-16.5258
-16.2674
-15.9362
-15.5244
-15.0198
-14.4116
-13.6892
-12.8398
-11.853
-10.7312
-9.46453
-8.03303
-6.43304
-4.69026
-2.80886
-0.769544
1.42402
3.77823
6.30548
9.01281
11.9031
14.9931
18.2996
21.8323
25.6108
29.6531
33.979
38.6112
43.5682
48.8785
54.5691
60.6646
67.2016
74.209
81.7288
89.7995
98.4672
107.789
117.812
128.611
140.254
152.826
166.424
181.148
197.123
214.481
233.362
253.905
276.247
300.476
326.491
-6.29131
-6.92852
-7.54799
-8.15008
-8.73512
-9.3033
-9.85386
-10.3864
-10.9018
-11.4001
-11.8805
-12.3424
-12.7862
-13.2116
-13.6179
-14.0043
-14.3704
-14.7158
-15.0399
-15.3419
-15.6205
-15.8744
-16.1025
-16.3046
-16.4782
-16.621
-16.732
-16.8092
-16.8499
-16.8513
-16.8091
-16.7186
-16.5762
-16.3768
-16.1111
-15.772
-15.3516
-14.8379
-14.2201
-13.4875
-12.6278
-11.6308
-10.4992
-9.21939
-7.77979
-6.17271
-4.42038
-2.53202
-0.486139
1.71475
4.07581
6.60945
9.32284
12.2197
15.3163
18.6293
22.1691
25.9551
30.0054
34.3399
38.9813
43.9483
49.2694
54.9715
61.0796
67.6299
74.6518
82.1869
90.2738
98.959
108.299
118.34
129.159
140.821
153.413
167.03
181.771
197.76
215.125
234.004
254.53
276.831
300.98
326.859
-6.21438
-6.85133
-7.47047
-8.07215
-8.65669
-9.22424
-9.7741
-10.3059
-10.8204
-11.3177
-11.7969
-12.2576
-12.7
-13.1239
-13.5285
-13.913
-14.2771
-14.6202
-14.9419
-15.2413
-15.5171
-15.7678
-15.9926
-16.1911
-16.3607
-16.4994
-16.6059
-16.6781
-16.7136
-16.7092
-16.6609
-16.5636
-16.4141
-16.2069
-15.9327
-15.5847
-15.1546
-14.6307
-14.0022
-13.2586
-12.3875
-11.3794
-10.2364
-8.94594
-7.49712
-5.8812
-4.1217
-2.22502
-0.171422
2.03659
4.40491
6.94539
9.66526
12.5692
15.6731
18.9934
22.5412
26.3357
30.395
34.7393
39.3911
44.3695
49.7029
55.4179
61.5402
68.1054
75.1434
82.6953
90.8002
99.5043
108.863
118.926
129.765
141.448
154.06
167.695
182.451