/*--------------------------------*- C++ -*----------------------------------*\
| =========                 |                                                 |
| \\      /  F ield         | OpenFOAM: The Open Source CFD Toolbox           |
|  \\    /   O peration     | Version:  2412                                  |
|   \\  /    A nd           | Website:  www.openfoam.com                      |
|    \\/     M anipulation  |                                                 |
\*---------------------------------------------------------------------------*/
FoamFile
{
    version     2.0;
    format      ascii;
    arch        "LSB;label=32;scalar=64";
    class       volScalarField;
    location    "40";
    object      nut;
}
// * * * * * * * * * * * * * * * * * * * * * * * * * * * * * * * * * * * * * //

dimensions      [0 2 -1 0 0 0 0];

internalField   nonuniform List<scalar> 
7423
(
1.66704e-10
2.49846e-10
3.28386e-10
2.85169e-10
1.82585e-10
9.90463e-11
5.73029e-11
2.65693e-11
2.10555e-11
1.76075e-11
1.64853e-11
1.66566e-11
1.74291e-11
1.83624e-11
1.9219e-11
1.99169e-11
2.0439e-11
2.08292e-11
2.10778e-11
2.12546e-11
2.13538e-11
2.14078e-11
2.13954e-11
2.13482e-11
2.12617e-11
2.116e-11
2.10371e-11
2.09115e-11
2.07775e-11
2.06426e-11
2.05102e-11
2.03827e-11
2.02641e-11
2.01574e-11
2.00658e-11
1.99874e-11
1.99228e-11
1.98699e-11
1.98273e-11
1.97945e-11
1.97722e-11
1.97562e-11
1.97472e-11
1.9745e-11
1.9748e-11
1.9757e-11
1.97701e-11
1.97879e-11
1.98093e-11
1.98339e-11
1.98613e-11
1.98913e-11
1.9923e-11
1.99569e-11
1.99916e-11
2.00261e-11
2.00615e-11
2.00971e-11
2.01329e-11
2.0169e-11
2.02046e-11
2.02411e-11
2.02767e-11
2.03107e-11
2.03444e-11
2.03761e-11
2.04069e-11
2.04368e-11
2.04666e-11
2.04947e-11
2.05209e-11
2.05473e-11
2.05687e-11
2.05959e-11
2.05898e-11
2.06449e-11
1.41922e-08
2.32178e-08
3.78286e-08
3.51863e-08
2.38452e-08
1.31706e-08
7.28109e-09
2.47949e-09
2.02773e-09
1.68085e-09
1.5532e-09
1.5567e-09
1.62152e-09
1.70406e-09
1.78072e-09
1.84307e-09
1.88934e-09
1.92336e-09
1.94428e-09
1.95818e-09
1.96466e-09
1.96674e-09
1.96272e-09
1.95546e-09
1.94469e-09
1.93255e-09
1.91848e-09
1.90414e-09
1.88908e-09
1.87404e-09
1.8594e-09
1.84538e-09
1.83234e-09
1.82061e-09
1.81056e-09
1.80199e-09
1.79497e-09
1.78931e-09
1.7848e-09
1.78142e-09
1.77915e-09
1.77761e-09
1.77681e-09
1.77677e-09
1.77729e-09
1.77844e-09
1.78006e-09
1.78214e-09
1.78464e-09
1.78746e-09
1.79059e-09
1.79402e-09
1.79764e-09
1.80144e-09
1.80535e-09
1.80928e-09
1.81323e-09
1.81719e-09
1.82119e-09
1.82525e-09
1.82922e-09
1.83322e-09
1.83719e-09
1.84103e-09
1.84475e-09
1.8483e-09
1.85184e-09
1.85528e-09
1.85862e-09
1.86182e-09
1.86486e-09
1.86783e-09
1.87038e-09
1.87336e-09
1.8735e-09
1.87892e-09
1.15682e-07
1.95499e-07
3.41254e-07
3.35397e-07
2.42663e-07
1.41709e-07
8.11385e-08
2.4109e-08
2.00095e-08
1.63112e-08
1.47576e-08
1.459e-08
1.50784e-08
1.57737e-08
1.64333e-08
1.69672e-08
1.73562e-08
1.76309e-08
1.77864e-08
1.78722e-08
1.78853e-08
1.78548e-08
1.77698e-08
1.76548e-08
1.75104e-08
1.73536e-08
1.71813e-08
1.70073e-08
1.68284e-08
1.66521e-08
1.64821e-08
1.6321e-08
1.61719e-08
1.60386e-08
1.59247e-08
1.58283e-08
1.57495e-08
1.56872e-08
1.56384e-08
1.56029e-08
1.55791e-08
1.55646e-08
1.55584e-08
1.556e-08
1.55688e-08
1.55839e-08
1.56046e-08
1.56302e-08
1.56603e-08
1.56942e-08
1.57314e-08
1.57719e-08
1.58148e-08
1.58593e-08
1.59048e-08
1.5951e-08
1.59974e-08
1.60438e-08
1.60904e-08
1.61374e-08
1.6184e-08
1.62302e-08
1.6276e-08
1.63208e-08
1.63645e-08
1.64067e-08
1.64486e-08
1.64894e-08
1.65291e-08
1.65675e-08
1.66041e-08
1.66394e-08
1.66712e-08
1.67058e-08
1.67175e-08
1.67713e-08
4.52757e-07
7.85711e-07
1.41199e-06
1.46471e-06
1.13376e-06
7.06476e-07
4.23827e-07
1.21497e-07
1.00376e-07
7.99731e-08
7.04149e-08
6.83316e-08
6.98323e-08
7.25564e-08
7.52385e-08
7.73894e-08
7.89023e-08
7.98882e-08
8.03408e-08
8.04485e-08
8.02085e-08
7.97456e-08
7.9046e-08
7.8215e-08
7.72655e-08
7.62683e-08
7.52144e-08
7.41627e-08
7.31043e-08
7.20733e-08
7.1088e-08
7.01631e-08
6.93108e-08
6.85531e-08
6.79064e-08
6.73623e-08
6.6919e-08
6.65723e-08
6.63021e-08
6.61096e-08
6.59814e-08
6.59064e-08
6.58791e-08
6.58939e-08
6.5948e-08
6.60373e-08
6.61579e-08
6.63061e-08
6.64784e-08
6.66718e-08
6.6885e-08
6.71146e-08
6.73579e-08
6.76103e-08
6.78688e-08
6.81313e-08
6.8395e-08
6.86592e-08
6.89243e-08
6.91897e-08
6.94539e-08
6.97154e-08
6.9974e-08
7.02286e-08
7.04787e-08
7.07233e-08
7.09642e-08
7.12003e-08
7.14308e-08
7.16554e-08
7.18708e-08
7.20779e-08
7.22714e-08
7.24676e-08
7.25794e-08
7.28444e-08
1.20616e-06
2.17976e-06
3.90417e-06
4.3001e-06
3.56735e-06
2.37749e-06
1.49679e-06
4.57371e-07
3.65273e-07
2.8302e-07
2.41512e-07
2.29013e-07
2.30556e-07
2.37231e-07
2.44299e-07
2.49867e-07
2.53504e-07
2.55442e-07
2.55742e-07
2.54846e-07
2.52797e-07
2.49965e-07
2.46426e-07
2.42505e-07
2.38287e-07
2.33959e-07
2.29531e-07
2.25153e-07
2.20827e-07
2.16658e-07
2.12707e-07
2.09023e-07
2.05646e-07
2.02651e-07
2.00095e-07
1.97949e-07
1.96201e-07
1.94838e-07
1.93774e-07
1.9302e-07
1.92514e-07
1.92217e-07
1.92104e-07
1.92151e-07
1.92345e-07
1.92673e-07
1.93124e-07
1.9368e-07
1.94329e-07
1.95057e-07
1.95865e-07
1.96736e-07
1.9766e-07
1.98621e-07
1.99609e-07
2.00611e-07
2.01619e-07
2.02631e-07
2.03646e-07
2.0466e-07
2.05669e-07
2.06669e-07
2.07661e-07
2.0864e-07
2.09605e-07
2.10557e-07
2.11496e-07
2.12419e-07
2.13325e-07
2.14211e-07
2.15068e-07
2.15891e-07
2.16676e-07
2.17442e-07
2.17999e-07
2.18907e-07
2.50306e-06
4.77465e-06
8.30751e-06
9.81613e-06
8.76339e-06
6.25045e-06
4.12953e-06
1.48367e-06
1.10988e-06
8.32572e-07
6.87334e-07
6.34324e-07
6.26319e-07
6.35787e-07
6.48193e-07
6.57546e-07
6.62431e-07
6.63041e-07
6.59758e-07
6.53262e-07
6.43783e-07
6.32178e-07
6.18975e-07
6.04973e-07
5.90519e-07
5.75972e-07
5.61454e-07
5.47246e-07
5.33407e-07
5.20187e-07
5.07749e-07
4.96215e-07
4.85685e-07
4.76359e-07
4.68384e-07
4.61681e-07
4.56209e-07
4.51925e-07
4.48565e-07
4.46169e-07
4.44521e-07
4.4352e-07
4.43083e-07
4.43116e-07
4.43589e-07
4.44458e-07
4.45698e-07
4.4725e-07
4.49085e-07
4.51158e-07
4.53476e-07
4.55992e-07
4.58674e-07
4.61471e-07
4.64362e-07
4.673e-07
4.70263e-07
4.73232e-07
4.76216e-07
4.79195e-07
4.82162e-07
4.85104e-07
4.88028e-07
4.90923e-07
4.93789e-07
4.96636e-07
4.99451e-07
5.02227e-07
5.04967e-07
5.07658e-07
5.10273e-07
5.12785e-07
5.15218e-07
5.1754e-07
5.19468e-07
5.21928e-07
4.32696e-06
8.75739e-06
1.50824e-05
1.90152e-05
1.82524e-05
1.39877e-05
9.63587e-06
4.35078e-06
3.01488e-06
2.18262e-06
1.74442e-06
1.56176e-06
1.50483e-06
1.49982e-06
1.50779e-06
1.51215e-06
1.50874e-06
1.49677e-06
1.47758e-06
1.45145e-06
1.41913e-06
1.38218e-06
1.34249e-06
1.3017e-06
1.26081e-06
1.22036e-06
1.18075e-06
1.14236e-06
1.1054e-06
1.07035e-06
1.03756e-06
1.00728e-06
9.79714e-07
9.55301e-07
9.34353e-07
9.16684e-07
9.02187e-07
8.90769e-07
8.81731e-07
8.75206e-07
8.70595e-07
8.67653e-07
8.66159e-07
8.65844e-07
8.66631e-07
8.68397e-07
8.71092e-07
8.7457e-07
8.78763e-07
8.83558e-07
8.88981e-07
8.94914e-07
9.01297e-07
9.07991e-07
9.14947e-07
9.22047e-07
9.2922e-07
9.36407e-07
9.43627e-07
9.50843e-07
9.58036e-07
9.65174e-07
9.72283e-07
9.79337e-07
9.86357e-07
9.93368e-07
1.00033e-06
1.00722e-06
1.01405e-06
1.02078e-06
1.02735e-06
1.03367e-06
1.03985e-06
1.04568e-06
1.05091e-06
1.0565e-06
6.47493e-06
1.39317e-05
2.45038e-05
3.26573e-05
3.39538e-05
2.84307e-05
2.04458e-05
1.14531e-05
7.54454e-06
5.28599e-06
4.10077e-06
3.55347e-06
3.32341e-06
3.23417e-06
3.19132e-06
3.15295e-06
3.10717e-06
3.04889e-06
2.98121e-06
2.90181e-06
2.8122e-06
2.71453e-06
2.61363e-06
2.5124e-06
2.41313e-06
2.31631e-06
2.22292e-06
2.13313e-06
2.04744e-06
1.96664e-06
1.89136e-06
1.82202e-06
1.75897e-06
1.70307e-06
1.6549e-06
1.61405e-06
1.58032e-06
1.55352e-06
1.5321e-06
1.5164e-06
1.505e-06
1.49738e-06
1.49302e-06
1.49125e-06
1.49191e-06
1.4947e-06
1.4995e-06
1.50601e-06
1.51409e-06
1.5235e-06
1.5343e-06
1.54626e-06
1.55926e-06
1.57302e-06
1.58741e-06
1.60218e-06
1.61713e-06
1.63212e-06
1.64718e-06
1.66224e-06
1.67726e-06
1.69218e-06
1.70706e-06
1.72186e-06
1.73667e-06
1.75154e-06
1.76638e-06
1.78111e-06
1.79576e-06
1.81027e-06
1.82446e-06
1.83815e-06
1.8516e-06
1.86424e-06
1.87611e-06
1.88706e-06
8.57638e-06
1.97376e-05
3.605e-05
5.00992e-05
5.53988e-05
5.07748e-05
3.97423e-05
2.60748e-05
1.72647e-05
1.19367e-05
9.04393e-06
7.58235e-06
6.8541e-06
6.48112e-06
6.25252e-06
6.06834e-06
5.89526e-06
5.71427e-06
5.52958e-06
5.33085e-06
5.11976e-06
4.89778e-06
4.6748e-06
4.45506e-06
4.24295e-06
4.03839e-06
3.84322e-06
3.6567e-06
3.47978e-06
3.31356e-06
3.15904e-06
3.01685e-06
2.88753e-06
2.77261e-06
2.67303e-06
2.58807e-06
2.51736e-06
2.46062e-06
2.41482e-06
2.38072e-06
2.35533e-06
2.3377e-06
2.32669e-06
2.32079e-06
2.31976e-06
2.32289e-06
2.32994e-06
2.34033e-06
2.35378e-06
2.36988e-06
2.38872e-06
2.40991e-06
2.43325e-06
2.45823e-06
2.48459e-06
2.51181e-06
2.53947e-06
2.56725e-06
2.59515e-06
2.62303e-06
2.65087e-06
2.67855e-06
2.70618e-06
2.73377e-06
2.76152e-06
2.78952e-06
2.81759e-06
2.84556e-06
2.87347e-06
2.90117e-06
2.92835e-06
2.9546e-06
2.98049e-06
3.0048e-06
3.02827e-06
3.04713e-06
2.53819e-05
4.8647e-05
6.96979e-05
8.02955e-05
7.87483e-05
6.71081e-05
4.96784e-05
3.47334e-05
2.4513e-05
1.84342e-05
1.50535e-05
1.3171e-05
1.20922e-05
1.13943e-05
1.08573e-05
1.03952e-05
9.95449e-06
9.53548e-06
9.10971e-06
8.67627e-06
8.23278e-06
7.79598e-06
7.37092e-06
6.96495e-06
6.57651e-06
6.20853e-06
5.85813e-06
5.52688e-06
5.21611e-06
4.92729e-06
4.6613e-06
4.41899e-06
4.20284e-06
4.01433e-06
3.85234e-06
3.71638e-06
3.60612e-06
3.51623e-06
3.44823e-06
3.39648e-06
3.35945e-06
3.33478e-06
3.31944e-06
3.31312e-06
3.31426e-06
3.32238e-06
3.33653e-06
3.35613e-06
3.38049e-06
3.40978e-06
3.44339e-06
3.48102e-06
3.5219e-06
3.5655e-06
3.61093e-06
3.65735e-06
3.70407e-06
3.75097e-06
3.79784e-06
3.84465e-06
3.89121e-06
3.93779e-06
3.98447e-06
4.03168e-06
4.07958e-06
4.12781e-06
4.17604e-06
4.22424e-06
4.27217e-06
4.31932e-06
4.36491e-06
4.40994e-06
4.4523e-06
4.49389e-06
4.52247e-06
6.10586e-05
8.97437e-05
0.000106298
0.000109221
9.94979e-05
8.05884e-05
6.03661e-05
4.44311e-05
3.38233e-05
2.73171e-05
2.33619e-05
2.0936e-05
1.93279e-05
1.81198e-05
1.71253e-05
1.62249e-05
1.54044e-05
1.46028e-05
1.38113e-05
1.30181e-05
1.22472e-05
1.15032e-05
1.07969e-05
1.01245e-05
9.48979e-06
8.88617e-06
8.31596e-06
7.78061e-06
7.28221e-06
6.82191e-06
6.4012e-06
6.02395e-06
5.69245e-06
5.40532e-06
5.16211e-06
4.96259e-06
4.79839e-06
4.67219e-06
4.57436e-06
4.50267e-06
4.45255e-06
4.41849e-06
4.40009e-06
4.39415e-06
4.39986e-06
4.41574e-06
4.44062e-06
4.47346e-06
4.51445e-06
4.56273e-06
4.61795e-06
4.67903e-06
4.74514e-06
4.81486e-06
4.88666e-06
4.95916e-06
5.03195e-06
5.10468e-06
5.1773e-06
5.24961e-06
5.32212e-06
5.39514e-06
5.46944e-06
5.54522e-06
5.62183e-06
5.69862e-06
5.7754e-06
5.85187e-06
5.92719e-06
6.00014e-06
6.07221e-06
6.14018e-06
6.20757e-06
6.24537e-06
0.000108897
0.000131824
0.000140009
0.000133938
0.000115912
9.2534e-05
7.13519e-05
5.56114e-05
4.50613e-05
3.81469e-05
3.36571e-05
3.06103e-05
2.83395e-05
2.65102e-05
2.49039e-05
2.34772e-05
2.21207e-05
2.08108e-05
1.95187e-05
1.8274e-05
1.70784e-05
1.59471e-05
1.48722e-05
1.38587e-05
1.2894e-05
1.19813e-05
1.11222e-05
1.03193e-05
9.57425e-06
8.88981e-06
8.27192e-06
7.72422e-06
7.24554e-06
6.83609e-06
6.49606e-06
6.21359e-06
5.99306e-06
5.81937e-06
5.68962e-06
5.59552e-06
5.52795e-06
5.48622e-06
5.46406e-06
5.46039e-06
5.47309e-06
5.4998e-06
5.53894e-06
5.59067e-06
5.65389e-06
5.72819e-06
5.81233e-06
5.9051e-06
6.00458e-06
6.10819e-06
6.21343e-06
6.3192e-06
6.42482e-06
6.53025e-06
6.63532e-06
6.74109e-06
6.84834e-06
6.95815e-06
7.07068e-06
7.18474e-06
7.29926e-06
7.41372e-06
7.52771e-06
7.64013e-06
7.74914e-06
7.85671e-06
7.95851e-06
8.05999e-06
8.10246e-06
0.00012617
0.000155959
0.000170026
0.000168726
0.000153426
0.000129173
0.000103981
8.32522e-05
6.82343e-05
5.77424e-05
5.05668e-05
4.55667e-05
4.18294e-05
3.88432e-05
3.62659e-05
3.40096e-05
3.19043e-05
2.99042e-05
2.79558e-05
2.60895e-05
2.43013e-05
2.26112e-05
2.10061e-05
1.94912e-05
1.80457e-05
1.66742e-05
1.53777e-05
1.41593e-05
1.30212e-05
1.19685e-05
1.10102e-05
1.01521e-05
9.39452e-06
8.73945e-06
8.18835e-06
7.72612e-06
7.35951e-06
7.06673e-06
6.84454e-06
6.6787e-06
6.55559e-06
6.4733e-06
6.42023e-06
6.39551e-06
6.39625e-06
6.4178e-06
6.45774e-06
6.51602e-06
6.59136e-06
6.68326e-06
6.79059e-06
6.91183e-06
7.04477e-06
7.18555e-06
7.3299e-06
7.47535e-06
7.62059e-06
7.76544e-06
7.90998e-06
8.05638e-06
8.20623e-06
8.36059e-06
8.51932e-06
8.68043e-06
8.8422e-06
9.00365e-06
9.16433e-06
9.3228e-06
9.47664e-06
9.6282e-06
9.77212e-06
9.91587e-06
9.9537e-06
0.00014076
0.000178098
0.000198763
0.000203143
0.000191989
0.00016891
0.000141178
0.000115994
9.64362e-05
8.20264e-05
7.17121e-05
6.43262e-05
5.87564e-05
5.43069e-05
5.05007e-05
4.71919e-05
4.41432e-05
4.12819e-05
3.85211e-05
3.58864e-05
3.33654e-05
3.0983e-05
2.8719e-05
2.65773e-05
2.45275e-05
2.25756e-05
2.07211e-05
1.89661e-05
1.73137e-05
1.57719e-05
1.43546e-05
1.30707e-05
1.19238e-05
1.09201e-05
1.00637e-05
9.33804e-06
8.75313e-06
8.28022e-06
7.91618e-06
7.63839e-06
7.42865e-06
7.28131e-06
7.17589e-06
7.1125e-06
7.08716e-06
7.09148e-06
7.12231e-06
7.17878e-06
7.25937e-06
7.36335e-06
7.49002e-06
7.63787e-06
7.80485e-06
7.9859e-06
8.17438e-06
8.36539e-06
8.55627e-06
8.74663e-06
8.93722e-06
9.13185e-06
9.33318e-06
9.54159e-06
9.75627e-06
9.97405e-06
1.01924e-05
1.04099e-05
1.06259e-05
1.08389e-05
1.10458e-05
1.12492e-05
1.1443e-05
1.16364e-05
0.000151881
0.000197682
0.00022585
0.000236871
0.000231114
0.000211119
0.000182488
0.000153521
0.000129444
0.00011088
9.70811e-05
8.69479e-05
7.9223e-05
7.30321e-05
6.7759e-05
6.31871e-05
5.90101e-05
5.51249e-05
5.14039e-05
4.78614e-05
4.44746e-05
4.12724e-05
3.82255e-05
3.5335e-05
3.25606e-05
2.99092e-05
2.7377e-05
2.49622e-05
2.26684e-05
2.05072e-05
1.8498e-05
1.66537e-05
1.4984e-05
1.35022e-05
1.2218e-05
1.11174e-05
1.02151e-05
9.47711e-06
8.90133e-06
8.45514e-06
8.11587e-06
7.86875e-06
7.68151e-06
7.55478e-06
7.48214e-06
7.45021e-06
7.45658e-06
7.49812e-06
7.57238e-06
7.67807e-06
7.8152e-06
7.98274e-06
8.1797e-06
8.40052e-06
8.63579e-06
8.87692e-06
9.11856e-06
9.36009e-06
9.60397e-06
9.85534e-06
1.01177e-05
1.03899e-05
1.06702e-05
1.09538e-05
1.12374e-05
1.15189e-05
1.1798e-05
1.20727e-05
1.23398e-05
1.26019e-05
1.28523e-05
1.31011e-05
0.000158659
0.000214045
0.000250833
0.000269615
0.000270514
0.000255448
0.000227963
0.000196158
0.000167593
0.000144563
0.000126889
0.000113623
0.000103407
9.5193e-05
8.82187e-05
8.21783e-05
7.66965e-05
7.16335e-05
6.68141e-05
6.22344e-05
5.78598e-05
5.37206e-05
4.97754e-05
4.60216e-05
4.24109e-05
3.89502e-05
3.56289e-05
3.24376e-05
2.93792e-05
2.64684e-05
2.37293e-05
2.11785e-05
1.8833e-05
1.67176e-05
1.4851e-05
1.32294e-05
1.18754e-05
1.07549e-05
9.869e-06
9.17517e-06
8.64552e-06
8.24858e-06
7.94016e-06
7.71741e-06
7.56782e-06
7.47227e-06
7.43288e-06
7.44147e-06
7.49287e-06
7.5847e-06
7.7178e-06
7.89208e-06
8.1088e-06
8.36355e-06
8.6446e-06
8.93849e-06
9.23498e-06
9.53315e-06
9.83906e-06
1.01574e-05
1.04913e-05
1.08373e-05
1.11925e-05
1.15502e-05
1.19065e-05
1.22589e-05
1.26071e-05
1.29494e-05
1.32822e-05
1.36081e-05
1.39203e-05
1.4228e-05
0.000160096
0.000226342
0.00027307
0.000300918
0.000309851
0.000301479
0.000277603
0.000244609
0.000211836
0.000183972
0.000161881
0.000144945
0.000131777
0.000121167
0.000112198
0.000104447
9.74654e-05
9.10626e-05
8.50052e-05
7.92639e-05
7.37884e-05
6.86045e-05
6.36553e-05
5.89345e-05
5.43887e-05
5.00231e-05
4.58161e-05
4.17463e-05
3.78152e-05
3.4038e-05
3.04408e-05
2.70397e-05
2.38584e-05
2.09351e-05
1.83015e-05
1.59736e-05
1.39884e-05
1.23228e-05
1.09864e-05
9.92969e-06
9.12012e-06
8.50037e-06
8.01844e-06
7.65767e-06
7.39193e-06
7.19635e-06
7.08424e-06
7.03754e-06
7.04521e-06
7.10302e-06
7.2123e-06
7.37406e-06
7.59317e-06
7.86905e-06
8.18956e-06
8.5362e-06
8.89049e-06
9.2509e-06
9.62996e-06
1.00282e-05
1.04455e-05
1.08757e-05
1.13146e-05
1.17537e-05
1.21887e-05
1.26171e-05
1.3039e-05
1.34528e-05
1.38551e-05
1.4248e-05
1.46254e-05
1.49924e-05
0.000155078
0.000233519
0.000291689
0.000330087
0.000348605
0.000348649
0.000330906
0.000299379
0.000263393
0.000230581
0.00020352
0.000182208
0.000165397
0.000151799
0.000140364
0.000130531
0.000121766
0.000113801
0.000106328
9.92803e-05
9.25831e-05
8.62452e-05
8.01892e-05
7.44055e-05
6.88387e-05
6.34878e-05
5.8316e-05
5.32863e-05
4.83994e-05
4.36668e-05
3.91107e-05
3.47401e-05
3.0579e-05
2.66766e-05
2.30765e-05
1.98238e-05
1.69772e-05
1.45436e-05
1.25529e-05
1.09597e-05
9.7339e-06
8.78255e-06
8.05627e-06
7.50288e-06
7.06941e-06
6.72686e-06
6.51026e-06
6.38305e-06
6.32328e-06
6.32397e-06
6.38608e-06
6.51115e-06
6.70857e-06
6.98504e-06
7.33195e-06
7.72806e-06
8.14211e-06
8.57123e-06
9.03847e-06
9.53354e-06
1.00486e-05
1.05745e-05
1.11061e-05
1.16332e-05
1.2152e-05
1.26605e-05
1.3159e-05
1.36466e-05
1.41202e-05
1.45817e-05
1.50257e-05
1.5449e-05
0.000142477
0.000234326
0.000305578
0.000356153
0.000385989
0.000396249
0.000386889
0.000360114
0.000323184
0.000285903
0.000253654
0.000227416
0.000206189
0.000188762
0.000174094
0.000161532
0.000150483
0.000140564
0.000131376
0.000122791
0.000114694
0.000107054
9.97644e-05
9.28113e-05
8.61388e-05
7.97286e-05
7.35247e-05
6.74728e-05
6.15745e-05
5.58332e-05
5.02593e-05
4.48464e-05
3.96079e-05
3.45944e-05
2.98525e-05
2.5454e-05
2.14807e-05
1.79918e-05
1.50561e-05
1.26634e-05
1.08073e-05
9.35482e-06
8.28491e-06
7.46318e-06
6.78871e-06
6.23538e-06
5.8775e-06
5.64298e-06
5.49093e-06
5.41084e-06
5.40176e-06
5.46413e-06
5.61198e-06
5.86219e-06
6.21568e-06
6.65411e-06
7.12895e-06
7.63595e-06
8.21453e-06
8.83161e-06
9.4639e-06
1.01003e-05
1.07356e-05
1.13585e-05
1.19669e-05
1.25596e-05
1.31375e-05
1.37005e-05
1.42462e-05
1.47764e-05
1.52869e-05
1.57595e-05
0.000121205
0.000227405
0.000313395
0.000377848
0.000420897
0.000443351
0.000444413
0.000425397
0.000391145
0.000351026
0.000313734
0.000282355
0.000256361
0.000234512
0.00021578
0.000199565
0.000185379
0.000172785
0.000161313
0.000150749
0.000140909
0.00013169
0.000122948
0.000114656
0.000106751
9.9182e-05
9.18654e-05
8.47299e-05
7.77797e-05
7.10046e-05
6.43941e-05
5.79199e-05
5.15735e-05
4.53942e-05
3.94148e-05
3.37121e-05
2.83745e-05
2.35169e-05
1.9262e-05
1.56906e-05
1.2865e-05
1.06383e-05
9.0864e-06
7.88457e-06
6.85145e-06
5.98859e-06
5.44453e-06
5.07387e-06
4.80345e-06
4.61847e-06
4.51454e-06
4.48855e-06
4.55867e-06
4.75334e-06
5.08886e-06
5.55916e-06
6.09691e-06
6.69837e-06
7.42967e-06
8.21221e-06
8.99313e-06
9.76387e-06
1.05206e-05
1.12521e-05
1.19597e-05
1.26435e-05
1.33051e-05
1.39458e-05
1.45645e-05
1.51629e-05
1.5739e-05
1.62483e-05
9.08981e-05
0.000211568
0.000313621
0.000393589
0.000451866
0.000488705
0.00050229
0.000493401
0.0004656
0.000426139
0.000384858
0.000348166
0.000317084
0.000290588
0.000267577
0.000247315
0.000229295
0.000213123
0.000198456
0.000185101
0.000172835
0.000161469
0.000150819
0.000140831
0.000131425
0.000122486
0.000113897
0.000105565
9.74941e-05
8.96523e-05
8.19961e-05
7.44719e-05
6.70422e-05
5.97257e-05
5.25286e-05
4.54976e-05
3.86948e-05
3.22448e-05
2.63105e-05
2.11042e-05
1.68162e-05
1.34282e-05
1.13002e-05
9.69402e-06
8.34863e-06
7.22503e-06
6.39573e-06
5.7644e-06
5.27163e-06
4.90565e-06
4.65356e-06
4.50236e-06
4.47658e-06
4.62268e-06
4.98304e-06
5.5814e-06
6.31022e-06
7.09682e-06
7.94912e-06
8.82319e-06
9.69204e-06
1.05431e-05
1.13779e-05
1.21846e-05
1.29627e-05
1.37126e-05
1.44365e-05
1.51359e-05
1.58106e-05
1.64616e-05
1.70906e-05
1.76002e-05
5.6267e-05
0.000186278
0.000304659
0.000401489
0.000477045
0.000530652
0.000559112
0.000562465
0.000543955
0.000509396
0.000467401
0.00042609
0.000389526
0.000357884
0.000330215
0.00030569
0.000283724
0.000263844
0.000245683
0.000228977
0.000213505
0.00019911
0.000185699
0.000173264
0.000161735
0.000150926
0.000140672
0.000130854
0.000121463
0.000112425
0.000103647
9.50456e-05
8.65505e-05
7.81564e-05
6.98425e-05
6.16019e-05
5.34445e-05
4.54289e-05
3.77085e-05
3.05448e-05
2.45636e-05
2.02633e-05
1.7171e-05
1.46956e-05
1.26039e-05
1.08332e-05
9.41182e-06
8.26568e-06
7.34199e-06
6.62687e-06
6.09131e-06
5.71224e-06
5.51723e-06
5.58334e-06
6.00149e-06
6.86861e-06
8.02669e-06
9.28343e-06
1.05666e-05
1.18282e-05
1.30547e-05
1.42366e-05
1.53783e-05
1.64725e-05
1.75186e-05
1.8518e-05
1.94744e-05
2.03906e-05
2.12682e-05
2.21082e-05
2.29147e-05
2.34737e-05
2.75816e-05
0.000151609
0.000284901
0.000399407
0.000494189
0.000567056
0.000613045
0.000630961
0.000623917
0.000597445
0.000559202
0.000516546
0.00047518
0.000437929
0.000404957
0.0003756
0.000349247
0.000325349
0.00030349
0.00028333
0.000264604
0.000247106
0.00023071
0.00021534
0.000200945
0.000187397
0.000174648
0.000162637
0.000151368
0.000140714
0.000130503
0.000120614
0.000110935
0.00010143
9.20595e-05
8.27623e-05
7.34974e-05
6.42391e-05
5.50796e-05
4.63548e-05
3.91037e-05
3.3348e-05
2.8708e-05
2.47943e-05
2.1407e-05
1.84707e-05
1.59867e-05
1.3897e-05
1.21594e-05
1.07718e-05
9.67177e-06
8.83e-06
8.27821e-06
8.14613e-06
8.62191e-06
9.9703e-06
1.19921e-05
1.42358e-05
1.64668e-05
1.85852e-05
2.0578e-05
2.24532e-05
2.4225e-05
2.58952e-05
2.7467e-05
2.89463e-05
3.03408e-05
3.16575e-05
3.29024e-05
3.40778e-05
3.5208e-05
3.58201e-05
1.23545e-05
0.000109096
0.000253032
0.000385115
0.000500683
0.00059527
0.000661694
0.000696905
0.000703532
0.000687375
0.000656175
0.000616649
0.000574094
0.000532332
0.000493703
0.000458811
0.000427363
0.000398815
0.000372713
0.000348645
0.000326311
0.000305445
0.000285899
0.000267532
0.000250288
0.000234024
0.000218708
0.000204241
0.000190609
0.000177708
0.000165405
0.00015364
0.000142306
0.000131355
0.000120736
0.000110352
0.000100134
9.00412e-05
8.01073e-05
7.05593e-05
6.20257e-05
5.4575e-05
4.80394e-05
4.22317e-05
3.70514e-05
3.24252e-05
2.83463e-05
2.47776e-05
2.16855e-05
1.91064e-05
1.69813e-05
1.52686e-05
1.39998e-05
1.33799e-05
1.37932e-05
1.58582e-05
1.94286e-05
2.34666e-05
2.73999e-05
3.10145e-05
3.43053e-05
3.7318e-05
4.00942e-05
4.26562e-05
4.50208e-05
4.72052e-05
4.92277e-05
5.11044e-05
5.28505e-05
5.44721e-05
5.60271e-05
5.66299e-05
6.20963e-06
6.42227e-05
0.000208939
0.000356746
0.000493669
0.000612119
0.000702012
0.000757677
0.000780652
0.000776964
0.000754963
0.000721674
0.000682174
0.000640005
0.000597752
0.000557419
0.00052024
0.000486264
0.000455161
0.000426486
0.000399908
0.000375107
0.000351912
0.000330133
0.00030971
0.000290476
0.000272404
0.000255365
0.000239316
0.000224158
0.000209751
0.000196056
0.000182958
0.000170389
0.00015832
0.000146647
0.00013531
0.000124273
0.000113499
0.000103068
9.33194e-05
8.43207e-05
7.60065e-05
6.82993e-05
6.11596e-05
5.45978e-05
4.86011e-05
4.31703e-05
3.82763e-05
3.39638e-05
3.02698e-05
2.71663e-05
2.46754e-05
2.30572e-05
2.30353e-05
2.59001e-05
3.19491e-05
3.87981e-05
4.52754e-05
5.09866e-05
5.60017e-05
6.04574e-05
6.44587e-05
6.80696e-05
7.13367e-05
7.43005e-05
7.6998e-05
7.94604e-05
8.17172e-05
8.37793e-05
8.57517e-05
8.62089e-05
3.92328e-06
2.91151e-05
0.000155136
0.000313612
0.000470345
0.000613971
0.000730245
0.000809863
0.000852445
0.000863898
0.000853117
0.000828111
0.00079439
0.000755549
0.000713983
0.000671503
0.000629751
0.000590082
0.000553246
0.000519143
0.000487522
0.000458029
0.000430483
0.000404642
0.000380451
0.00035771
0.000336395
0.000316354
0.000297511
0.000279778
0.000262988
0.000247114
0.000232028
0.000217634
0.000203915
0.000190756
0.000178085
0.00016588
0.000154063
0.00014263
0.000131751
0.000121449
0.000111679
0.00010241
9.36177e-05
8.52978e-05
7.74592e-05
7.01738e-05
6.3397e-05
5.71786e-05
5.15816e-05
4.66991e-05
4.25602e-05
3.938e-05
3.82152e-05
4.1478e-05
5.09631e-05
6.05152e-05
6.89664e-05
7.62345e-05
8.25359e-05
8.80856e-05
9.30343e-05
9.74756e-05
0.000101476
0.00010509
0.000108362
0.000111335
0.000114045
0.000116515
0.000118823
0.000119491
3.24158e-06
1.23891e-05
9.74903e-05
0.000256392
0.000428511
0.000596978
0.000741944
0.000849142
0.00091514
0.000945089
0.000948102
0.000933388
0.000907347
0.00087412
0.000836297
0.00079559
0.000753388
0.000710866
0.000669148
0.000629242
0.000591799
0.000556755
0.000524022
0.000493323
0.000464616
0.000437662
0.000412435
0.00038877
0.000366542
0.000345689
0.000326
0.000307458
0.000289928
0.000273273
0.000257496
0.000242465
0.000228085
0.000214354
0.000201168
0.00018847
0.000176346
0.000164778
0.000153705
0.000143113
0.000132978
0.000123264
0.000113965
0.000105119
9.67167e-05
8.88109e-05
8.14691e-05
7.48019e-05
6.8946e-05
6.39888e-05
6.09237e-05
6.34401e-05
7.47375e-05
8.57354e-05
9.5326e-05
0.000103543
0.000110659
0.000116919
0.000122495
0.000127495
0.000131995
0.000136056
0.000139727
0.000143055
0.00014608
0.000148833
0.000151371
3.14676e-06
6.42052e-06
4.60442e-05
0.00018747
0.000367607
0.000557641
0.000732141
0.000870244
0.000963862
0.00101628
0.00103655
0.00103471
0.00101839
0.000992567
0.0009604
0.000923858
0.000884347
0.000842886
0.000800347
0.000757486
0.000715115
0.000674135
0.000635401
0.000598958
0.000564871
0.000532881
0.000502953
0.000474918
0.000448584
0.00042393
0.000400686
0.00037884
0.000358259
0.000338753
0.000320349
0.000302902
0.000286282
0.000270511
0.00025547
0.000241059
0.000227333
0.00021425
0.000201718
0.000189732
0.000178268
0.000167262
0.000156687
0.000146558
0.000136849
0.00012756
0.000118798
0.00011068
0.000103347
9.68476e-05
9.17573e-05
9.15047e-05
0.000102361
0.000113518
0.000123443
0.000132057
0.000139585
0.000146245
0.000152197
0.000157547
0.000162374
0.000166734
0.000170677
0.000174249
0.000177494
0.000180445
0.000183145
3.14857e-06
4.21925e-06
1.7537e-05
0.000114442
0.000290175
0.000493903
0.000695834
0.000867051
0.000992533
0.00107204
0.00111383
0.0011283
0.00112437
0.00110808
0.00108334
0.00105264
0.0010177
0.000979659
0.000939359
0.00089741
0.000854343
0.000810669
0.000767112
0.0007246
0.000684306
0.000646374
0.000610856
0.000577604
0.000546341
0.000517111
0.00048956
0.000463677
0.000439349
0.000416305
0.000394605
0.0003741
0.000354603
0.000336171
0.00031868
0.000301977
0.00028612
0.000271058
0.000256661
0.000242929
0.000229852
0.000217333
0.000205331
0.000193856
0.000182867
0.000172326
0.000162297
0.000152951
0.000144387
0.000136649
0.00012993
0.000126026
0.000133706
0.000143853
0.00015339
0.000161903
0.000169481
0.000176261
0.000182369
0.000187886
0.000192884
0.000197412
0.000201513
0.000205233
0.000208613
0.000211687
0.000214484
3.53554e-06
8.00844e-06
5.17821e-05
0.000201372
0.000406649
0.000629082
0.000833037
0.000993907
0.00110544
0.00117368
0.00120896
0.00122097
0.00121704
0.00120198
0.001179
0.00115025
0.00111721
0.00108092
0.00104209
0.00100122
0.000958673
0.000914831
0.000870146
0.000825375
0.00078137
0.000739453
0.000700064
0.000662953
0.000628281
0.000595585
0.000564847
0.000536001
0.000508653
0.000482914
0.000458644
0.000435561
0.000413775
0.000393171
0.000373516
0.000354895
0.000337268
0.000320446
0.00030444
0.000289266
0.000274792
0.000260957
0.000247787
0.000235235
0.000223228
0.000211815
0.000201186
0.000191378
0.00018242
0.000174307
0.000167601
0.000169345
0.000177358
0.000185833
0.000193758
0.000201017
0.000207625
0.000213646
0.000219125
0.000224121
0.000228662
0.000232786
0.000236535
0.000239946
0.000243047
0.000245859
3.41459e-06
4.86342e-06
1.86122e-05
0.000113017
0.00030241
0.000531315
0.000762432
0.000959953
0.00110812
0.00120829
0.00126963
0.00130226
0.00131443
0.0013121
0.00129928
0.00127875
0.00125242
0.00122166
0.00118743
0.00115038
0.00111096
0.0010695
0.00102632
0.000981812
0.000936401
0.000890771
0.0008456
0.000801932
0.000760906
0.000722145
0.000685637
0.000651423
0.000618928
0.000588327
0.000559519
0.000532074
0.000506177
0.00048174
0.000458415
0.000436325
0.000415471
0.000395579
0.000376663
0.000358793
0.000341795
0.000325573
0.000310188
0.000295594
0.000281678
0.000268497
0.000256276
0.000244951
0.000234471
0.000224829
0.000216127
0.000211427
0.000215256
0.000221859
0.000228657
0.000235186
0.000241275
0.000246915
0.000252099
0.00025687
0.000261223
0.000265187
0.000268806
0.000272104
0.000275096
0.000277801
3.37989e-06
3.87317e-06
8.03752e-06
4.64778e-05
0.000193112
0.000408593
0.000652711
0.000883054
0.00107059
0.00120813
0.00130144
0.00136019
0.00139333
0.00140777
0.00140844
0.00139887
0.00138152
0.0013582
0.00133017
0.00129838
0.00126343
0.00122583
0.00118591
0.00114405
0.00110053
0.00105574
0.00101006
0.000963943
0.000918067
0.000872917
0.000829745
0.000789244
0.000750666
0.000714285
0.000680096
0.000647432
0.000616586
0.000587541
0.000559758
0.000533423
0.000508623
0.000484948
0.00046241
0.000441172
0.000421003
0.000401749
0.000383525
0.000366303
0.00034991
0.000334416
0.000320043
0.000306703
0.000294256
0.000282711
0.000272058
0.000263387
0.000259846
0.000263037
0.00026795
0.000273237
0.000278381
0.000283274
0.000287836
0.000292095
0.000295991
0.000299555
0.00030283
0.000305817
0.000308515
0.000310941
3.36566e-06
3.55007e-06
4.80906e-06
1.57658e-05
9.53775e-05
0.000275882
0.000509141
0.000758904
0.00098352
0.00116226
0.00129359
0.00138474
0.0014446
0.00148087
0.00149939
0.00150445
0.00149919
0.00148591
0.00146629
0.00144159
0.00141271
0.00138032
0.00134494
0.001307
0.00126687
0.00122492
0.00118147
0.00113683
0.00109136
0.00104526
0.000999005
0.000953064
0.000907783
0.00086465
0.000824163
0.000785326
0.000748591
0.000714096
0.000680986
0.000649538
0.000620013
0.000591775
0.000564815
0.000539476
0.000515429
0.000492418
0.000470658
0.000450154
0.000430643
0.000412121
0.00039491
0.000378934
0.00036399
0.000350016
0.000337041
0.00032542
0.000316324
0.000312112
0.000313504
0.000316748
0.000320355
0.000324037
0.000327562
0.000330956
0.00033405
0.000336908
0.00033957
0.000341988
0.000344143
0.000346061
3.36401e-06
3.43874e-06
3.87422e-06
7.01548e-06
3.34056e-05
0.000151989
0.000349133
0.00059202
0.0008411
0.00105985
0.0012337
0.00136369
0.00145687
0.00152103
0.00156273
0.00158709
0.00159793
0.00159816
0.00158992
0.00157487
0.00155423
0.00152893
0.00149967
0.00146705
0.00143158
0.00139369
0.00135377
0.00131218
0.00126923
0.00122512
0.00118013
0.00113446
0.00108819
0.0010418
0.00099563
0.000949862
0.000906206
0.000865347
0.000825942
0.000788394
0.000753297
0.000719633
0.000687345
0.0006571
0.000628411
0.000600831
0.000574757
0.000550263