/*--------------------------------*- C++ -*----------------------------------*\
| =========                 |                                                 |
| \\      /  F ield         | OpenFOAM: The Open Source CFD Toolbox           |
|  \\    /   O peration     | Version:  2412                                  |
|   \\  /    A nd           | Website:  www.openfoam.com                      |
|    \\/     M anipulation  |                                                 |
\*---------------------------------------------------------------------------*/
FoamFile
{
    version     2.0;
    format      ascii;
    arch        "LSB;label=32;scalar=64";
    class       volScalarField;
    location    "40";
    object      p;
}
// * * * * * * * * * * * * * * * * * * * * * * * * * * * * * * * * * * * * * //

dimensions      [0 2 -2 0 0 0 0];

internalField   nonuniform List<scalar> 
7423
(
-834.858
-1539.89
-2022.79
-2222.64
-2209.19
-2022.59
-1887.77
-1792.32
-1702.82
-1620.67
-1543.35
-1468.86
-1397.65
-1331.07
-1270
-1214.19
-1163.09
-1116
-1072.34
-1031.69
-993.614
-957.832
-924.028
-892.005
-861.553
-832.513
-804.738
-778.128
-752.569
-727.999
-704.335
-681.513
-659.478
-638.181
-617.569
-597.607
-578.252
-559.477
-541.251
-523.548
-506.344
-489.622
-473.361
-457.547
-442.162
-427.191
-412.632
-398.471
-384.694
-371.284
-358.254
-345.582
-333.251
-321.269
-309.618
-298.287
-287.271
-276.556
-266.119
-255.943
-246.025
-236.367
-226.964
-217.807
-208.892
-200.21
-191.757
-183.523
-175.503
-167.691
-160.079
-152.662
-145.433
-138.401
-131.538
-124.731
-834.85
-1539.9
-2022.78
-2222.63
-2209.18
-2022.58
-1887.77
-1792.32
-1702.82
-1620.67
-1543.35
-1468.86
-1397.65
-1331.07
-1270
-1214.19
-1163.09
-1116
-1072.34
-1031.69
-993.614
-957.832
-924.028
-892.005
-861.553
-832.512
-804.737
-778.127
-752.568
-727.998
-704.334
-681.512
-659.478
-638.18
-617.568
-597.606
-578.251
-559.476
-541.25
-523.547
-506.343
-489.621
-473.36
-457.546
-442.161
-427.19
-412.631
-398.47
-384.693
-371.283
-358.253
-345.581
-333.25
-321.268
-309.617
-298.285
-287.27
-276.555
-266.118
-255.942
-246.024
-236.366
-226.962
-217.806
-208.891
-200.209
-191.755
-183.522
-175.502
-167.69
-160.078
-152.661
-145.432
-138.399
-131.537
-124.73
-834.815
-1539.84
-2022.72
-2222.6
-2209.17
-2022.58
-1887.77
-1792.32
-1702.82
-1620.67
-1543.35
-1468.86
-1397.65
-1331.07
-1270
-1214.19
-1163.09
-1116
-1072.34
-1031.69
-993.613
-957.831
-924.027
-892.005
-861.552
-832.512
-804.737
-778.126
-752.568
-727.997
-704.333
-681.511
-659.477
-638.179
-617.567
-597.605
-578.25
-559.475
-541.249
-523.546
-506.342
-489.62
-473.358
-457.545
-442.159
-427.189
-412.629
-398.469
-384.692
-371.282
-358.252
-345.58
-333.248
-321.266
-309.616
-298.284
-287.268
-276.553
-266.116
-255.94
-246.023
-236.364
-226.961
-217.805
-208.889
-200.208
-191.754
-183.521
-175.501
-167.688
-160.077
-152.66
-145.43
-138.398
-131.535
-124.729
-834.717
-1539.68
-2022.58
-2222.52
-2209.13
-2022.57
-1887.76
-1792.32
-1702.82
-1620.67
-1543.35
-1468.86
-1397.65
-1331.07
-1270
-1214.19
-1163.09
-1116
-1072.34
-1031.69
-993.613
-957.831
-924.027
-892.004
-861.552
-832.511
-804.736
-778.126
-752.567
-727.996
-704.332
-681.51
-659.475
-638.178
-617.566
-597.603
-578.248
-559.473
-541.248
-523.544
-506.34
-489.618
-473.357
-457.543
-442.158
-427.187
-412.628
-398.467
-384.69
-371.28
-358.25
-345.578
-333.247
-321.264
-309.614
-298.282
-287.266
-276.552
-266.115
-255.939
-246.021
-236.363
-226.959
-217.803
-208.887
-200.206
-191.752
-183.519
-175.499
-167.687
-160.075
-152.658
-145.428
-138.396
-131.533
-124.727
-834.514
-1539.39
-2022.33
-2222.38
-2209.07
-2022.55
-1887.76
-1792.31
-1702.82
-1620.67
-1543.35
-1468.86
-1397.65
-1331.07
-1270
-1214.19
-1163.09
-1116
-1072.34
-1031.69
-993.612
-957.83
-924.026
-892.003
-861.551
-832.51
-804.735
-778.124
-752.565
-727.995
-704.331
-681.509
-659.474
-638.176
-617.564
-597.602
-578.247
-559.472
-541.246
-523.543
-506.339
-489.616
-473.355
-457.541
-442.156
-427.185
-412.626
-398.466
-384.688
-371.278
-358.248
-345.576
-333.245
-321.262
-309.612
-298.28
-287.264
-276.55
-266.113
-255.937
-246.019
-236.361
-226.957
-217.801
-208.885
-200.204
-191.75
-183.517
-175.497
-167.685
-160.073
-152.656
-145.426
-138.394
-131.531
-124.725
-834.15
-1538.9
-2021.9
-2222.13
-2208.95
-2022.51
-1887.73
-1792.3
-1702.81
-1620.66
-1543.35
-1468.86
-1397.65
-1331.07
-1270
-1214.19
-1163.08
-1116
-1072.34
-1031.69
-993.611
-957.829
-924.024
-892.002
-861.549
-832.508
-804.733
-778.123
-752.564
-727.993
-704.329
-681.507
-659.472
-638.174
-617.563
-597.6
-578.245
-559.47
-541.244
-523.541
-506.337
-489.614
-473.353
-457.539
-442.154
-427.183
-412.624
-398.463
-384.686
-371.276
-358.246
-345.574
-333.243
-321.26
-309.61
-298.278
-287.262
-276.547
-266.11
-255.934
-246.017
-236.358
-226.955
-217.799
-208.883
-200.202
-191.748
-183.515
-175.495
-167.682
-160.071
-152.654
-145.424
-138.392
-131.529
-124.723
-833.564
-1538.13
-2021.23
-2221.73
-2208.75
-2022.43
-1887.7
-1792.28
-1702.8
-1620.66
-1543.34
-1468.86
-1397.65
-1331.07
-1269.99
-1214.19
-1163.08
-1115.99
-1072.33
-1031.69
-993.608
-957.826
-924.022
-891.999
-861.547
-832.506
-804.731
-778.121
-752.562
-727.991
-704.327
-681.505
-659.47
-638.172
-617.56
-597.598
-578.243
-559.468
-541.242
-523.538
-506.334
-489.612
-473.351
-457.537
-442.152
-427.181
-412.622
-398.461
-384.684
-371.274
-358.244
-345.572
-333.24
-321.258
-309.608
-298.276
-287.26
-276.545
-266.108
-255.932
-246.014
-236.356
-226.953
-217.797
-208.881
-200.199
-191.746
-183.512
-175.493
-167.68
-160.069
-152.652
-145.422
-138.39
-131.527
-124.721
-832.693
-1537
-2020.26
-2221.14
-2208.44
-2022.29
-1887.63
-1792.24
-1702.78
-1620.64
-1543.34
-1468.85
-1397.64
-1331.06
-1269.99
-1214.18
-1163.08
-1115.99
-1072.33
-1031.69
-993.605
-957.823
-924.019
-891.996
-861.544
-832.503
-804.728
-778.118
-752.559
-727.988
-704.324
-681.502
-659.467
-638.169
-617.558
-597.595
-578.24
-559.465
-541.239
-523.536
-506.332
-489.609
-473.348
-457.534
-442.149
-427.178
-412.619
-398.458
-384.681
-371.271
-358.241
-345.569
-333.238
-321.255
-309.605
-298.273
-287.257
-276.543
-266.106
-255.93
-246.012
-236.354
-226.95
-217.794
-208.879
-200.197
-191.743
-183.51
-175.49
-167.678
-160.066
-152.649
-145.419
-138.387
-131.525
-124.718
-831.474
-1535.44
-2018.92
-2220.33
-2208.01
-2022.09
-1887.53
-1792.18
-1702.75
-1620.62
-1543.32
-1468.84
-1397.63
-1331.05
-1269.98
-1214.18
-1163.07
-1115.98
-1072.32
-1031.68
-993.6
-957.818
-924.014
-891.992
-861.54
-832.499
-804.724
-778.114
-752.555
-727.985
-704.321
-681.499
-659.464
-638.166
-617.555
-597.592
-578.237
-559.462
-541.236
-523.533
-506.329
-489.606
-473.345
-457.531
-442.146
-427.175
-412.616
-398.456
-384.678
-371.268
-358.238
-345.566
-333.235
-321.253
-309.602
-298.271
-287.255
-276.54
-266.103
-255.927
-246.009
-236.351
-226.948
-217.791
-208.876
-200.194
-191.741
-183.507
-175.488
-167.675
-160.064
-152.646
-145.417
-138.385
-131.522
-124.716
-1533.39
-2017.19
-2219.28
-2207.46
-2021.82
-1887.38
-1792.1
-1702.7
-1620.59
-1543.3
-1468.82
-1397.62
-1331.04
-1269.97
-1214.17
-1163.06
-1115.97
-1072.31
-1031.67
-993.592
-957.811
-924.008
-891.986
-861.534
-832.494
-804.719
-778.109
-752.551
-727.98
-704.316
-681.495
-659.46
-638.162
-617.55
-597.588
-578.233
-559.458
-541.232
-523.529
-506.325
-489.603
-473.341
-457.528
-442.142
-427.172
-412.612
-398.452
-384.675
-371.265
-358.235
-345.563
-333.232
-321.249
-309.599
-298.267
-287.252
-276.537
-266.1
-255.924
-246.006
-236.348
-226.945
-217.788
-208.873
-200.191
-191.738
-183.504
-175.485
-167.672
-160.061
-152.644
-145.414
-138.382
-131.519
-124.713
-2014.99
-2217.96
-2206.76
-2021.47
-1887.19
-1791.98
-1702.63
-1620.55
-1543.28
-1468.8
-1397.6
-1331.02
-1269.95
-1214.15
-1163.05
-1115.96
-1072.3
-1031.66
-993.582
-957.801
-923.999
-891.977
-861.526
-832.486
-804.712
-778.103
-752.544
-727.974
-704.311
-681.489
-659.454
-638.157
-617.545
-597.583
-578.228
-559.453
-541.227
-523.524
-506.321
-489.598
-473.337
-457.523
-442.138
-427.168
-412.609
-398.448
-384.671
-371.261
-358.231
-345.559
-333.228
-321.246
-309.595
-298.264
-287.248
-276.533
-266.096
-255.92
-246.003
-236.345
-226.941
-217.785
-208.87
-200.188
-191.734
-183.501
-175.482
-167.669
-160.058
-152.64
-145.411
-138.379
-131.516
-124.71
-2216.33
-2205.9
-2021.04
-1886.95
-1791.83
-1702.54
-1620.5
-1543.24
-1468.77
-1397.57
-1331
-1269.93
-1214.13
-1163.03
-1115.94
-1072.29
-1031.65
-993.568
-957.789
-923.987
-891.966
-861.516
-832.477
-804.703
-778.094
-752.536
-727.966
-704.303
-681.482
-659.448
-638.15
-617.539
-597.577
-578.222
-559.448
-541.222
-523.519
-506.315
-489.593
-473.332
-457.519
-442.133
-427.163
-412.604
-398.444
-384.667
-371.257
-358.227
-345.555
-333.224
-321.242
-309.591
-298.26
-287.244
-276.53
-266.093
-255.917
-245.999
-236.341
-226.938
-217.782
-208.866
-200.185
-191.731
-183.498
-175.478
-167.666
-160.054
-152.637
-145.408
-138.375
-131.513
-124.706
-2214.3
-2204.85
-2020.51
-1886.65
-1791.65
-1702.43
-1620.43
-1543.2
-1468.74
-1397.54
-1330.97
-1269.91
-1214.11
-1163
-1115.92
-1072.27
-1031.63
-993.55
-957.772
-923.972
-891.952
-861.502
-832.464
-804.691
-778.083
-752.526
-727.957
-704.294
-681.473
-659.439
-638.142
-617.531
-597.57
-578.215
-559.441
-541.215
-523.512
-506.309
-489.587
-473.326
-457.513
-442.128
-427.158
-412.599
-398.439
-384.662
-371.252
-358.222
-345.551
-333.219
-321.237
-309.587
-298.256
-287.24
-276.525
-266.088
-255.913
-245.995
-236.337
-226.934
-217.778
-208.862
-200.181
-191.727
-183.494
-175.474
-167.662
-160.05
-152.633
-145.404
-138.372
-131.509
-124.702
-2211.79
-2203.55
-2019.87
-1886.29
-1791.43
-1702.29
-1620.35
-1543.14
-1468.69
-1397.5
-1330.93
-1269.87
-1214.07
-1162.97
-1115.89
-1072.24
-1031.6
-993.528
-957.752
-923.953
-891.934
-861.486
-832.449
-804.677
-778.069
-752.513
-727.945
-704.282
-681.462
-659.429
-638.132
-617.522
-597.561
-578.206
-559.432
-541.207
-523.505
-506.302
-489.58
-473.319
-457.506
-442.121
-427.151
-412.593
-398.433
-384.656
-371.246
-358.217
-345.545
-333.214
-321.232
-309.582
-298.251
-287.235
-276.52
-266.084
-255.908
-245.991
-236.332
-226.929
-217.773
-208.858
-200.176
-191.723
-183.49
-175.47
-167.658
-160.046
-152.629
-145.4
-138.368
-131.505
-2208.67
-2201.95
-2019.07
-1885.85
-1791.15
-1702.12
-1620.24
-1543.07
-1468.64
-1397.46
-1330.89
-1269.83
-1214.04
-1162.94
-1115.86
-1072.21
-1031.57
-993.501
-957.726
-923.929
-891.912
-861.465
-832.429
-804.659
-778.052
-752.497
-727.93
-704.268
-681.449
-659.416
-638.121
-617.511
-597.55
-578.196
-559.423
-541.198
-523.496
-506.293
-489.572
-473.311
-457.498
-442.114
-427.144
-412.585
-398.426
-384.649
-371.239
-358.21
-345.539
-333.208
-321.226
-309.576
-298.245
-287.23
-276.515
-266.078
-255.903
-245.985
-236.327
-226.924
-217.768
-208.853
-200.172
-191.718
-183.485
-175.465
-167.653
-160.042
-152.625
-145.395
-138.363
-131.5
-2204.81
-2199.97
-2018.08
-1885.3
-1790.81
-1701.91
-1620.12
-1542.98
-1468.58
-1397.4
-1330.84
-1269.78
-1213.99
-1162.89
-1115.82
-1072.17
-1031.54
-993.469
-957.696
-923.901
-891.886
-861.44
-832.406
-804.637
-778.032
-752.478
-727.911
-704.251
-681.433
-659.401
-638.106
-617.497
-597.537
-578.184
-559.411
-541.187
-523.485
-506.283
-489.562
-473.302
-457.489
-442.105
-427.136
-412.577
-398.418
-384.642
-371.232
-358.203
-345.532
-333.201
-321.22
-309.57
-298.239
-287.223
-276.509
-266.072
-255.897
-245.98
-236.322
-226.919
-217.763
-208.848
-200.166
-191.713
-183.48
-175.46
-167.648
-160.037
-152.62
-145.39
-138.358
-131.495
-2200.03
-2197.51
-2016.86
-1884.62
-1790.4
-1701.65
-1619.96
-1542.88
-1468.5
-1397.33
-1330.78
-1269.72
-1213.93
-1162.84
-1115.77
-1072.13
-1031.5
-993.43
-957.66
-923.867
-891.854
-861.411
-832.378
-804.611
-778.007
-752.455
-727.89
-704.231
-681.414
-659.383
-638.089
-617.481
-597.522
-578.169
-559.397
-541.174
-523.473
-506.271
-489.55
-473.291
-457.479
-442.095
-427.126
-412.568
-398.409
-384.633
-371.223
-358.195
-345.524
-333.193
-321.212
-309.562
-298.231
-287.216
-276.502
-266.066
-255.89
-245.973
-236.316
-226.913
-217.757
-208.842
-200.161
-191.707
-183.474
-175.455
-167.642
-160.031
-152.614
-145.385
-138.353
-131.49
-2194.1
-2194.45
-2015.33
-1883.78
-1789.89
-1701.34
-1619.76
-1542.75
-1468.4
-1397.25
-1330.7
-1269.65
-1213.87
-1162.78
-1115.71
-1072.07
-1031.45
-993.384
-957.617
-923.827
-891.816
-861.376
-832.345
-804.58
-777.978
-752.427
-727.864
-704.207
-681.391
-659.362
-638.069
-617.462
-597.504
-578.152
-559.381
-541.158
-523.458
-506.257
-489.537
-473.278
-457.466
-442.083
-427.115
-412.557
-398.398
-384.623
-371.214
-358.185
-345.515
-333.185
-321.203
-309.554
-298.223
-287.208
-276.494
-266.058
-255.883
-245.966
-236.308
-226.906
-217.75
-208.835
-200.154
-191.701
-183.468
-175.448
-167.636
-160.025
-152.608
-145.378
-138.346
-131.483
-2186.77
-2190.64
-2013.42
-1882.74
-1789.27
-1700.95
-1619.51
-1542.59
-1468.28
-1397.16
-1330.62
-1269.57
-1213.79
-1162.71
-1115.65
-1072.01
-1031.39
-993.33
-957.567
-923.78
-891.773
-861.334
-832.307
-804.544
-777.944
-752.395
-727.834
-704.178
-681.364
-659.336
-638.045
-617.44
-597.482
-578.132
-559.362
-541.14
-523.441
-506.241
-489.521
-473.263
-457.452
-442.07
-427.102
-412.545
-398.386
-384.611
-371.203
-358.175
-345.505
-333.175
-321.194
-309.545
-298.214
-287.199
-276.486
-266.05
-255.875
-245.958
-236.301
-226.898
-217.742
-208.828
-200.147
-191.693
-183.46
-175.441
-167.629
-160.018
-152.601
-145.371
-138.339
-131.476
-2177.83
-2185.83
-2011.02
-1881.43
-1788.49
-1700.47
-1619.21
-1542.39
-1468.14
-1397.04
-1330.51
-1269.48
-1213.71
-1162.63
-1115.57
-1071.94
-1031.32
-993.268
-957.509
-923.726
-891.722
-861.287
-832.262
-804.501
-777.904
-752.358
-727.799
-704.145
-681.333
-659.307
-638.017
-617.413
-597.458
-578.109
-559.34
-541.119
-523.421
-506.222
-489.504
-473.246
-457.436
-442.054
-427.087
-412.53
-398.373
-384.598
-371.19
-358.163
-345.493
-333.163
-321.183
-309.534
-298.204
-287.189
-276.476
-266.04
-255.866
-245.949
-236.292
-226.889
-217.734
-208.819
-200.138
-191.685
-183.452
-175.433
-167.621
-160.01
-152.593
-145.364
-138.332
-131.469
-2167.51
-2179.55
-2008
-1879.79
-1787.53
-1699.87
-1618.83
-1542.14
-1467.97
-1396.9
-1330.39
-1269.37
-1213.61
-1162.54
-1115.48
-1071.86
-1031.25
-993.197
-957.442
-923.663
-891.663
-861.232
-832.21
-804.453
-777.859
-752.315
-727.758
-704.107
-681.297
-659.273
-637.985
-617.383
-597.429
-578.082
-559.315
-541.095
-523.398
-506.2
-489.483
-473.227
-457.418
-442.036
-427.07
-412.514
-398.357
-384.583
-371.176
-358.149
-345.48
-333.15
-321.17
-309.522
-298.192
-287.178
-276.465
-266.029
-255.855
-245.939
-236.281
-226.879
-217.724
-208.809
-200.129
-191.676
-183.443
-175.424
-167.612
-160.001
-152.584
-145.355
-138.323
-131.46
-2156.42
-2171.26
-2004.16
-1877.71
-1786.32
-1699.12
-1618.36
-1541.83
-1467.75
-1396.73
-1330.25
-1269.24
-1213.49
-1162.43
-1115.38
-1071.76
-1031.16
-993.115
-957.365
-923.591
-891.596
-861.169
-832.151
-804.397
-777.806
-752.265
-727.711
-704.063
-681.255
-659.234
-637.948
-617.348
-597.396
-578.051
-559.285
-541.068
-523.372
-506.175
-489.46
-473.204
-457.396
-442.016
-427.051
-412.496
-398.34
-384.566
-371.16
-358.133
-345.464
-333.136
-321.156
-309.508
-298.179
-287.165
-276.452
-266.017
-255.843
-245.927
-236.27
-226.868
-217.713
-208.799
-200.118
-191.665
-183.433
-175.414
-167.602
-159.991
-152.574
-145.345
-138.313
-131.45
-2143.76
-2161.29
-1999.29
-1875.07
-1784.8
-1698.18
-1617.76
-1541.44
-1467.48
-1396.53
-1330.08
-1269.09
-1213.35
-1162.3
-1115.27
-1071.66
-1031.06
-993.02
-957.277
-923.509
-891.519
-861.096
-832.083
-804.333
-777.746
-752.208
-727.658
-704.012
-681.207
-659.189
-637.906
-617.308
-597.358
-578.015
-559.251
-541.036
-523.342
-506.147
-489.432
-473.179
-457.372
-441.993
-427.029
-412.475
-398.32
-384.547
-371.141
-358.116
-345.448
-333.12
-321.141
-309.493
-298.164
-287.151
-276.439
-266.004
-255.83
-245.914
-236.257
-226.856
-217.701
-208.787
-200.106
-191.653
-183.421
-175.402
-167.59
-159.979
-152.563
-145.334
-138.302
-131.438
-2128.31
-2150.27
-1993.21
-1871.71
-1782.87
-1697
-1617
-1540.94
-1467.13
-1396.27
-1329.87
-1268.91
-1213.19
-1162.15
-1115.13
-1071.53
-1030.94
-992.911
-957.176
-923.414
-891.43
-861.013
-832.005
-804.26
-777.677
-752.143
-727.596
-703.954
-681.153
-659.137
-637.857
-617.262
-597.315
-577.974
-559.213
-540.999
-523.307
-506.114
-489.401
-473.149
-457.344
-441.966
-427.003
-412.451
-398.297
-384.525
-371.121
-358.096
-345.429
-333.102
-321.123
-309.476
-298.148
-287.135
-276.423
-265.988
-255.815
-245.899
-236.243
-226.842
-217.687
-208.773
-200.093
-191.64
-183.408
-175.389
-167.578
-159.967
-152.55
-145.321
-138.289
-131.425
-2110.24
-2138.27
-1985.53
-1867.46
-1780.4
-1695.48
-1616.03
-1540.3
-1466.69
-1395.94
-1329.61
-1268.69
-1212.99
-1161.98
-1114.97
-1071.38
-1030.81
-992.786
-957.059
-923.306
-891.329
-860.918
-831.916
-804.176
-777.598
-752.069
-727.526
-703.888
-681.09
-659.078
-637.801
-617.209
-597.265
-577.927
-559.168
-540.957
-523.268
-506.077
-489.366
-473.116
-457.312
-441.936
-426.975
-412.423
-398.271
-384.501
-371.097
-358.073
-345.407
-333.081
-321.103
-309.457
-298.13
-287.117
-276.406
-265.971
-255.798
-245.883
-236.227
-226.826
-217.672
-208.758
-200.078
-191.625
-183.394
-175.375
-167.563
-159.952
-152.536
-145.307
-138.275
-131.411
-2089.91
-2125.7
-1975.66
-1862.06
-1777.27
-1693.55
-1614.78
-1539.48
-1466.12
-1395.53
-1329.28
-1268.42
-1212.76
-1161.77
-1114.78
-1071.21
-1030.65
-992.641
-956.925
-923.181
-891.212
-860.81
-831.814
-804.08
-777.508
-751.985
-727.447
-703.813
-681.019
-659.011
-637.738
-617.15
-597.209
-577.874
-559.118
-540.909
-523.223
-506.034
-489.325
-473.077
-457.276
-441.902
-426.942
-412.392
-398.241
-384.473
-371.07
-358.048
-345.383
-333.057
-321.081
-309.436
-298.109
-287.097
-276.386
-265.952
-255.78
-245.865
-236.209
-226.808
-217.654
-208.741
-200.061
-191.609
-183.377
-175.359
-167.547
-159.936
-152.52
-145.291
-138.259
-131.395
-2067.09
-2111.69
-1964.01
-1855.33
-1773.27
-1691.05
-1613.16
-1538.41
-1465.39
-1395
-1328.87
-1268.08
-1212.47
-1161.52
-1114.56
-1071.01
-1030.46
-992.472
-956.769
-923.037
-891.078
-860.685
-831.697
-803.971
-777.405
-751.888
-727.355
-703.727
-680.938
-658.935
-637.666
-617.081
-597.144
-577.813
-559.06
-540.855
-523.171
-505.985
-489.279
-473.033
-457.234
-441.862
-426.904
-412.357
-398.207
-384.44
-371.04
-358.019
-345.355
-333.031
-321.055
-309.411
-298.085
-287.074
-276.364
-265.931
-255.759
-245.844
-236.189
-226.789
-217.635
-208.722
-200.042
-191.59
-183.359
-175.34
-167.529
-159.918
-152.502
-145.273
-138.242
-2041.63
-2094.89
-1951.57
-1847.08
-1768.22
-1687.84
-1611.05
-1537.01
-1464.44
-1394.31
-1328.35
-1267.66
-1212.12
-1161.21
-1114.29
-1070.77
-1030.25
-992.274
-956.587
-922.869
-890.923
-860.54
-831.563
-803.845
-777.287
-751.777
-727.251
-703.629
-680.846
-658.847
-637.584
-617.004
-597.071
-577.744
-558.995
-540.793
-523.113
-505.93
-489.227
-472.984
-457.187
-441.817
-426.862
-412.316
-398.169
-384.404
-371.005
-357.985
-345.323
-333.001
-321.026
-309.383
-298.058
-287.048
-276.339
-265.906
-255.735
-245.821
-236.166
-226.766
-217.613
-208.7
-200.021
-191.57
-183.338
-175.32
-167.509
-159.899
-152.482
-145.254
-138.222
-2013.39
-2076.09
-1938.18
-1837.15
-1761.9
-1683.72
-1608.31
-1535.18
-1463.2
-1393.43
-1327.69
-1267.13
-1211.68
-1160.84
-1113.96
-1070.48
-1029.99
-992.04
-956.374
-922.674
-890.743
-860.373
-831.407
-803.701
-777.152
-751.651
-727.132
-703.517
-680.741
-658.748
-637.49
-616.915
-596.988
-577.665
-558.921
-540.723
-523.046
-505.867
-489.168
-472.927
-457.133
-441.767
-426.814
-412.271
-398.125
-384.362
-370.965
-357.948
-345.287
-332.966
-320.994
-309.352
-298.028
-287.019
-276.31
-265.878
-255.708
-245.795
-236.141
-226.741
-217.589
-208.676
-199.998
-191.546
-183.315
-175.297
-167.487
-159.876
-152.46
-145.232
-138.2
-2055.86
-1922.98
-1825.99
-1754.2
-1678.57
-1604.73
-1532.78
-1461.56
-1392.27
-1326.83
-1266.46
-1211.13
-1160.37
-1113.56
-1070.13
-1029.68
-991.761
-956.121
-922.443
-890.531
-860.179
-831.227
-803.533
-776.996
-751.505
-726.996
-703.389
-680.62
-658.635
-637.383
-616.815
-596.893
-577.576
-558.836
-540.643
-522.971
-505.796
-489.1
-472.863
-457.073
-441.709
-426.759
-412.219
-398.076
-384.315
-370.921
-357.905
-345.247
-332.928
-320.957
-309.316
-297.994
-286.986
-276.278
-265.847
-255.677
-245.765
-236.112
-226.713
-217.561
-208.65
-199.971
-191.52
-183.29
-175.272
-167.462
-159.852
-152.436
-145.207
-138.176
-2033.06
-1905.56
-1813.83
-1745.05
-1672.27
-1600.15
-1529.62
-1459.4
-1390.75
-1325.71
-1265.59
-1210.44
-1159.8
-1113.07
-1069.7
-1029.3
-991.426
-955.819
-922.17
-890.282
-859.95
-831.016
-803.338
-776.815
-751.336
-726.838
-703.241
-680.481
-658.504
-637.26
-616.7
-596.784
-577.473
-558.74
-540.552
-522.885
-505.715
-489.023
-472.791
-457.004
-441.644
-426.697
-412.16
-398.02
-384.262
-370.87
-357.857
-345.201
-332.884
-320.914
-309.276
-297.955
-286.948
-276.241
-265.811
-255.642
-245.731
-236.079
-226.682
-217.53
-208.619
-199.942
-191.492
-183.261
-175.244
-167.434
-159.824
-152.409
-145.18
-138.149
-2007.02
-1886.1
-1800.23
-1734.61
-1664.64
-1594.47
-1525.52
-1456.56
-1388.76
-1324.25
-1264.48
-1209.55
-1159.07
-1112.46
-1069.18
-1028.84
-991.02
-955.456
-921.843
-889.986
-859.68
-830.768
-803.11
-776.603
-751.14
-726.655
-703.07
-680.322
-658.355
-637.12
-616.568
-596.66
-577.356
-558.63
-540.449
-522.787
-505.622
-488.936
-472.708
-456.925
-441.569
-426.627
-412.093
-397.957
-384.202
-370.813
-357.802
-345.148
-332.834
-320.867
-309.23
-297.911
-286.905
-276.199
-265.77
-255.603
-245.693
-236.043
-226.646
-217.496
-208.586
-199.909
-191.459
-183.23
-175.213
-167.403
-159.794
-152.378
-145.15
-138.119
-1977.9
-1864.68
-1784.86
-1723.06
-1655.61
-1587.64
-1520.31
-1452.84
-1386.13
-1322.34
-1263.03
-1208.41
-1158.14
-1111.69
-1068.52
-1028.27
-990.523
-955.015
-921.449
-889.631
-859.358
-830.475
-802.84
-776.355
-750.91
-726.442
-702.872
-680.137
-658.182
-636.958
-616.416
-596.517
-577.223
-558.504
-540.33
-522.675
-505.517
-488.836
-472.614
-456.836
-441.485
-426.547
-412.017
-397.885
-384.133
-370.747
-357.74
-345.089
-332.778
-320.813
-309.179
-297.861
-286.857
-276.152
-265.724
-255.558
-245.65
-236.001
-226.606
-217.457
-208.547
-199.871
-191.423
-183.194
-175.178
-167.369
-159.76
-152.345
-145.117
-138.085
-1945.45
-1840.99
-1767.57
-1710.15
-1645.29
-1579.56
-1513.97
-1448.08
-1382.69
-1319.84
-1261.15
-1206.94
-1156.96
-1110.71
-1067.7
-1027.57
-989.91
-954.476
-920.971
-889.202
-858.971
-830.124
-802.52
-776.062
-750.64
-726.193
-702.641
-679.922
-657.981
-636.771
-616.24
-596.353
-577.068
-558.359
-540.194
-522.547
-505.396
-488.723
-472.506
-456.735
-441.389
-426.456
-411.931
-397.803
-384.056
-370.674
-357.67
-345.022
-332.714
-320.752
-309.12
-297.805
-286.802
-276.099
-265.672
-255.507
-245.601
-235.954
-226.56
-217.412
-208.505
-199.83
-191.382
-183.154
-175.139
-167.33
-159.722
-152.307
-145.08
-138.048
-1909.27
-1814.75
-1748.23
-1695.64
-1633.72
-1570.2
-1506.47
-1442.2
-1378.28
-1316.57
-1258.69
-1205.04
-1155.44
-1109.46
-1066.66
-1026.68
-989.148
-953.81
-920.384
-888.68
-858.503
-829.701
-802.137
-775.712
-750.32
-725.898
-702.369
-679.67
-657.747
-636.553
-616.037
-596.163
-576.89
-558.192
-540.037
-522.4
-505.258
-488.592
-472.383
-456.619
-441.279
-426.352
-411.833
-397.71
-383.967
-370.59
-357.59
-344.946
-332.641
-320.683
-309.054
-297.741
-286.741
-276.038
-265.613
-255.45
-245.546
-235.9
-226.508
-217.363
-208.456
-199.782
-191.336
-183.109
-175.095
-167.287
-159.679
-152.265
-145.039
-138.007
-1869.1
-1785.81
-1726.68
-1679.37
-1620.74
-1559.6
-1497.81
-1435.21
-1372.82
-1312.4
-1255.5
-1202.57
-1153.48
-1107.87
-1065.34
-1025.57
-988.193
-952.982
-919.659
-888.038
-857.931
-829.188
-801.674
-775.292
-749.937
-725.547
-702.046
-679.372
-657.472
-636.297
-615.799
-595.941
-576.684
-557.999
-539.856
-522.23
-505.098
-488.442
-472.242
-456.485
-441.153
-426.233
-411.72
-397.603
-383.867
-370.494
-357.499
-344.86
-332.559
-320.604
-308.978
-297.668
-286.67
-275.97
-265.546
-255.386
-245.484
-235.84
-226.45
-217.306
-208.401
-199.729
-191.284
-183.058
-175.045
-167.238
-159.632
-152.218
-144.992
-137.961
-1824.52
-1753.89
-1702.72
-1661.11
-1606.15
-1547.66
-1487.99
-1427.17
-1366.33
-1307.25
-1251.45
-1199.38
-1150.95
-1105.82
-1063.65
-1024.15
-986.988
-951.944
-918.755
-887.244
-857.227
-828.56
-801.11
-774.783
-749.475
-725.126
-701.661
-679.018
-657.146
-635.996
-615.52
-595.682
-576.442
-557.773
-539.646
-522.034
-504.914
-488.269
-472.079
-456.332
-441.009
-426.096
-411.591
-397.482
-383.751
-370.385
-357.396
-344.761
-332.465
-320.514
-308.892
-297.586
-286.591
-275.892
-265.471
-255.313
-245.413
-235.772
-226.384
-217.242
-208.339
-199.669
-191.225
-183.001
-174.989
-167.184
-159.578
-152.166
-144.94
-137.909
-1775.17
-1718.62
-1676.03
-1640.5
-1589.75
-1534.19
-1476.89
-1418.04
-1358.86
-1301.16
-1246.51
-1195.38
-1147.71
-1103.19
-1061.49
-1022.34
-985.461
-950.635
-917.622
-886.253
-856.354
-827.785
-800.418
-774.16
-748.914
-724.617
-701.197
-678.594
-656.756
-635.637
-615.189
-595.375
-576.158
-557.509
-539.4
-521.804
-504.699
-488.068
-471.891
-456.155
-440.842
-425.939
-411.443
-397.342
-383.619
-370.259
-357.277
-344.649
-332.358
-320.412
-308.795
-297.492
-286.5
-275.804
-265.385
-255.23
-245.333
-235.695
-226.31
-217.17
-208.269
-199.601
-191.159
-182.937
-174.926
-167.122
-159.518
-152.106
-144.882
-137.85
-1721.19
-1680
-1646.52
-1617.31
-1571.36
-1519.04
-1464.38
-1407.71
-1350.35
-1294.16
-1240.7
-1190.56
-1143.71
-1099.87
-1058.73
-1020.04
-983.521
-948.979
-916.195
-885.011
-855.264
-826.822
-799.562
-773.395
-748.226
-723.995
-700.633
-678.08
-656.287
-635.206
-614.793
-595.01
-575.82
-557.196
-539.109
-521.534
-504.448
-487.833
-471.671
-455.949
-440.649
-425.758
-411.272
-397.181
-383.467
-370.115
-357.14
-344.519
-332.235
-320.295
-308.683
-297.385
-286.397
-275.704
-265.288
-255.136
-245.243
-235.607
-226.225
-217.088
-208.19
-199.524
-191.084
-182.864
-174.855
-167.053
-159.449
-152.039
-144.816
-137.784
-1662.46
-1638.08
-1614.13
-1591.37
-1550.71
-1502.03
-1450.29
-1396.05
-1340.72
-1286.18
-1234.04
-1184.95
-1138.95
-1095.84
-1055.31
-1017.14
-981.059
-946.88
-914.392
-883.448
-853.898
-825.619
-798.496
-772.445
-747.376
-723.231
-699.942
-677.454
-655.716
-634.685
-614.315
-594.571
-575.416
-556.823
-538.764
-521.214
-504.15
-487.556
-471.413
-455.708
-440.423
-425.546
-411.073
-396.994
-383.291
-369.949
-356.983
-344.37
-332.093
-320.16
-308.554
-297.262
-286.278
-275.589
-265.177
-255.029
-245.14
-235.508
-226.129
-216.995
-208.1
-199.436
-190.999
-182.781
-174.775
-166.974
-159.372
-151.963
-144.741
-137.71
-1598.05
-1592.63
-1578.83
-1562.66
-1527.69
-1483.05
-1434.48
-1382.92
-1329.84
-1277.13
-1226.45
-1178.52
-1133.45
-1091.1
-1051.23
-1013.61
-978.009
-944.244
-912.116
-881.475
-852.18
-824.111
-797.165
-771.263
-746.321
-722.285
-699.091
-676.684
-655.018
-634.049
-613.735
-594.04
-574.928
-556.374
-538.35
-520.831
-503.796
-487.227
-471.107
-455.422
-440.157
-425.297
-410.84
-396.775
-383.085
-369.755
-356.801
-344.198
-331.93
-320.005
-308.407
-297.12
-286.143
-275.458
-265.05
-254.906
-245.022
-235.394
-226.019
-216.889
-207.997
-199.337
-190.903
-182.687
-174.683
-166.884
-159.284
-151.878
-144.657
-137.625
-1527.51
-1542.91
-1539.87
-1530.66
-1501.98
-1461.87
-1416.79
-1368.19
-1317.59
-1266.92
-1217.85
-1171.21
-1127.18
-1085.67
-1046.49
-1009.46
-974.375
-941.052
-909.312
-879.014
-850.021
-822.216
-795.497
-769.786
-745.007
-721.11
-698.035
-675.733
-654.158
-633.268
-613.024
-593.391
-574.334
-555.829
-537.848
-520.369
-503.369
-486.832
-470.74
-455.082
-439.84
-425.001
-410.565
-396.517
-382.843
-369.528
-356.587
-343.996
-331.739
-319.825
-308.235
-296.957
-285.986
-275.307
-264.904
-254.766
-244.887
-235.265
-225.894
-216.769
-207.881
-199.224
-190.793
-182.58
-174.579
-166.783
-159.185
-151.78
-144.561
-137.529
-1454.29
-1490.46
-1497.55
-1495.24
-1473.27
-1438.19
-1396.98
-1351.65
-1303.79
-1255.39
-1208.13
-1162.93
-1120.05
-1079.48
-1041.07
-1004.69
-970.156
-937.31
-905.987
-876.056
-847.387
-819.872
-793.414
-767.936
-743.364
-719.644
-696.723
-674.553
-653.093
-632.304
-612.148
-592.593
-573.606
-555.163
-537.237
-519.807
-502.852
-486.355
-470.299
-454.673
-439.461
-424.648
-410.236
-396.211
-382.556
-369.259
-356.335
-343.759
-331.515
-319.613
-308.035
-296.766
-285.803
-275.132
-264.736
-254.604
-244.732
-235.116
-225.751
-216.63
-207.747
-199.095
-190.668
-182.459
-174.46
-166.667
-159.072
-151.67
-144.453
-137.421
482.794
215.075
-128.746
-503.085
-864.762
-1153.08
-1377.89
-1435.22
-1452.14
-1456.59
-1441.55
-1411.89
-1374.87
-1333.1
-1288.26
-1242.36
-1197.13
-1153.54
-1111.96
-1072.45
-1034.91
-999.254
-965.326
-933
-902.13
-872.595
-844.279
-817.078
-790.901
-765.675
-741.332
-717.819
-695.086
-673.083
-651.77
-631.109
-611.066
-591.609
-572.71
-554.344
-536.488
-519.12
-502.22
-485.774
-469.763
-454.178
-439.002
-424.222
-409.84
-395.843
-382.213
-368.937
-356.035
-343.477
-331.25
-319.363
-307.798
-296.541
-285.589
-274.927
-264.539
-254.416
-244.552
-234.943
-225.585
-216.471
-207.593
-198.946
-190.524
-182.319
-174.325
-166.535
-158.943
-151.543
-144.329
-137.297
479.435
227.319
-94.6745
-446.973
-792.38
-1075.7
-1295.8
-1374.07
-1402.33
-1414.2
-1406.47
-1382.74
-1350.3
-1312.39
-1270.85
-1227.69
-1184.69
-1142.9
-1102.78
-1064.45
-1027.9
-993.057
-959.819
-928.077
-897.71
-868.612
-840.679
-813.819
-787.949
-762.999
-738.905
-715.618
-693.088
-671.271
-650.128
-629.623
-609.72
-590.389
-571.602
-553.335
-535.566
-518.276
-501.446
-485.062
-469.108
-453.573
-438.444
-423.705
-409.361
-395.398
-381.799
-368.551
-355.674
-343.14
-330.932
-319.064
-307.516
-296.274
-285.335
-274.685
-264.308
-254.196
-244.341
-234.742
-225.392
-216.285
-207.415
-198.774
-190.358
-182.158
-174.169
-166.383
-158.795
-151.398
-144.186
-137.156
474.425
237.509
-62.875
-392.648
-719.94
-995.438
-1211.54
-1308.99
-1349.35
-1368.72
-1368.23
-1350.72
-1323.19
-1289.42
-1251.44
-1211.27
-1170.72
-1130.92