/*--------------------------------*- C++ -*----------------------------------*\
| =========                 |                                                 |
| \\      /  F ield         | OpenFOAM: The Open Source CFD Toolbox           |
|  \\    /   O peration     | Version:  2412                                  |
|   \\  /    A nd           | Website:  www.openfoam.com                      |
|    \\/     M anipulation  |                                                 |
\*---------------------------------------------------------------------------*/
FoamFile
{
    version     2.0;
    format      ascii;
    arch        "LSB;label=32;scalar=64";
    class       volScalarField;
    location    "40";
    object      p;
}
// * * * * * * * * * * * * * * * * * * * * * * * * * * * * * * * * * * * * * //

dimensions      [0 2 -2 0 0 0 0];

internalField   nonuniform List<scalar> 
8553
(
316.443
299.269
204.395
1.57661
-236.176
-431.997
-413.632
-294.403
-165.561
-121.357
-94.7789
-82.2272
-76.3356
-73.8521
-69.8126
-64.4907
-58.8633
-53.1493
-48.5505
-45.7773
-44.1406
-43.2585
-42.6283
-41.7854
-40.9089
-40.0815
-39.4911
-39.145
-38.9609
-38.8596
-38.7901
-38.7662
-38.8002
-38.898
-39.0447
-39.2265
-39.4357
-39.6699
-39.9275
-40.2048
-40.4977
-40.8027
-41.1174
-41.4397
-41.7674
-42.0985
-42.4311
-42.7639
-43.0954
-43.4244
-43.7496
-44.0698
-44.384
-44.6913
-44.991
-45.2822
-45.5644
-45.8373
-46.1004
-46.3536
-46.5961
-46.8278
-47.0483
-47.2575
-47.4552
-47.6409
-47.8146
-47.9764
-48.1265
-48.2658
-48.394
-48.5106
-48.6153
-48.7083
-48.7904
-48.8634
-48.9264
-48.9786
104.538
104.16
105.108
104.028
98.5954
84.5301
55.8046
-19.0097
-94.8672
-95.7999
4.09301
141.093
248.964
298.375
315.788
316.413
299.143
204.28
1.58135
-236.004
-431.56
-413.394
-294.395
-165.615
-121.383
-94.7912
-82.234
-76.3382
-73.8519
-69.8119
-64.4906
-58.8638
-53.1503
-48.5517
-45.7783
-44.1412
-43.2589
-42.6285
-41.7856
-40.9091
-40.0817
-39.4913
-39.1451
-38.961
-38.8597
-38.7902
-38.7663
-38.8002
-38.8981
-39.0448
-39.2266
-39.4357
-39.67
-39.9275
-40.2048
-40.4977
-40.8027
-41.1174
-41.4397
-41.7674
-42.0985
-42.4311
-42.7639
-43.0954
-43.4244
-43.7496
-44.0698
-44.384
-44.6913
-44.991
-45.2822
-45.5644
-45.8373
-46.1004
-46.3536
-46.5961
-46.8278
-47.0483
-47.2575
-47.4552
-47.6408
-47.8146
-47.9764
-48.1265
-48.2657
-48.394
-48.5106
-48.6153
-48.7083
-48.7904
-48.8634
-48.9264
-48.9785
104.539
104.161
105.107
104.025
98.5884
84.5145
55.7724
-19.0018
-94.7069
-95.5608
4.22985
141.096
248.908
298.34
315.77
316.397
299.059
204.184
1.64616
-235.698
-430.691
-412.688
-294.194
-165.652
-121.423
-94.8144
-82.2472
-76.3428
-73.8487
-69.8071
-64.4873
-58.8624
-53.1509
-48.5538
-45.7801
-44.1424
-43.2594
-42.6284
-41.7855
-40.9091
-40.0819
-39.4915
-39.1453
-38.9611
-38.8597
-38.7902
-38.7663
-38.8002
-38.8981
-39.0448
-39.2265
-39.4357
-39.6699
-39.9275
-40.2048
-40.4976
-40.8027
-41.1174
-41.4396
-41.7673
-42.0984
-42.4311
-42.7638
-43.0953
-43.4244
-43.7495
-44.0697
-44.3839
-44.6913
-44.9909
-45.2821
-45.5643
-45.8372
-46.1004
-46.3535
-46.596
-46.8277
-47.0482
-47.2575
-47.4551
-47.6408
-47.8145
-47.9764
-48.1264
-48.2657
-48.3939
-48.5106
-48.6152
-48.7082
-48.7903
-48.8633
-48.9263
-48.9785
104.544
104.165
105.105
104.016
98.5732
84.4887
55.7493
-18.8681
-94.2639
-95.0429
4.48044
141.163
248.893
298.322
315.76
316.394
298.99
204.109
1.73685
-235.031
-428.888
-411.076
-293.632
-165.655
-121.486
-94.8579
-82.2726
-76.3507
-73.8392
-69.7938
-64.4775
-58.8571
-53.1507
-48.5572
-45.7833
-44.1443
-43.2598
-42.6277
-41.7848
-40.9088
-40.0819
-39.4917
-39.1453
-38.961
-38.8595
-38.7901
-38.7661
-38.8001
-38.8979
-39.0446
-39.2264
-39.4355
-39.6697
-39.9273
-40.2046
-40.4974
-40.8025
-41.1172
-41.4394
-41.7671
-42.0982
-42.4309
-42.7636
-43.0951
-43.4241
-43.7493
-44.0695
-44.3837
-44.691
-44.9907
-45.2819
-45.5641
-45.837
-46.1001
-46.3533
-46.5958
-46.8275
-47.048
-47.2572
-47.4549
-47.6406
-47.8143
-47.9762
-48.1262
-48.2655
-48.3937
-48.5104
-48.615
-48.708
-48.7901
-48.8631
-48.9261
-48.9783
104.555
104.173
105.1
103.998
98.5426
84.4452
55.7485
-18.4834
-93.2605
-93.9428
5.00025
141.284
248.899
298.315
315.753
316.411
298.944
204.084
1.94092
-233.634
-425.59
-408.207
-292.53
-165.657
-121.581
-94.9302
-82.3155
-76.3634
-73.8204
-69.768
-64.4582
-58.8461
-53.1492
-48.5626
-45.7886
-44.1475
-43.2603
-42.6262
-41.7831
-40.9077
-40.0816
-39.4917
-39.1452
-38.9607
-38.8591
-38.7896
-38.7657
-38.7997
-38.8975
-39.0442
-39.2259
-39.4351
-39.6693
-39.9269
-40.2041
-40.497
-40.802
-41.1167
-41.439
-41.7667
-42.0978
-42.4304
-42.7632
-43.0947
-43.4237
-43.7489
-44.0691
-44.3832
-44.6906
-44.9903
-45.2815
-45.5637
-45.8366
-46.0997
-46.3529
-46.5954
-46.8271
-47.0476
-47.2569
-47.4545
-47.6402
-47.8139
-47.9758
-48.1258
-48.2651
-48.3933
-48.51
-48.6147
-48.7076
-48.7898
-48.8627
-48.9258
-48.9779
104.576
104.188
105.09
103.966
98.4895
84.3767
55.7786
-17.7453
-91.456
-91.9447
6.02265
141.532
248.928
298.32
315.753
316.451
298.935
204.141
2.46321
-230.873
-420.823
-403.871
-290.736
-165.688
-121.708
-95.0357
-82.3788
-76.3813
-73.7894
-69.7264
-64.4267
-58.828
-53.1458
-48.5705
-45.7964
-44.152
-43.2608
-42.6234
-41.7803
-40.9059
-40.0809
-39.4915
-39.1449
-38.96
-38.8582
-38.7888
-38.765
-38.799
-38.8968
-39.0435
-39.2252
-39.4344
-39.6686
-39.9262
-40.2034
-40.4963
-40.8013
-41.116
-41.4383
-41.766
-42.0971
-42.4297
-42.7625
-43.094
-43.423
-43.7482
-44.0684
-44.3826
-44.6899
-44.9896
-45.2808
-45.563
-45.8359
-46.0991
-46.3522
-46.5948
-46.8264
-47.047
-47.2562
-47.4538
-47.6395
-47.8133
-47.9751
-48.1252
-48.2645
-48.3927
-48.5094
-48.6141
-48.707
-48.7892
-48.8621
-48.9252
-48.9773
104.61
104.212
105.076
103.916
98.41
84.281
55.8487
-16.5948
-88.6983
-88.8202
7.79125
142.045
249.003
298.34
315.765
316.524
298.938
204.313
3.54167
-226.591
-414.161
-398.053
-288.211
-165.758
-121.864
-95.1749
-82.4633
-76.4039
-73.7447
-69.6671
-64.3818
-58.8016
-53.1405
-48.5809
-45.8069
-44.158
-43.2612
-42.6192
-41.7761
-40.903
-40.0798
-39.4911
-39.1443
-38.959
-38.8569
-38.7875
-38.7638
-38.798
-38.8958
-39.0424
-39.2241
-39.4333
-39.6675
-39.9251
-40.2024
-40.4952
-40.8003
-41.115
-41.4372
-41.765
-42.0961
-42.4287
-42.7615
-43.093
-43.422
-43.7472
-44.0674
-44.3816
-44.689
-44.9887
-45.2798
-45.562
-45.835
-46.0981
-46.3513
-46.5939
-46.8255
-47.0461
-47.2553
-47.4529
-47.6386
-47.8124
-47.9743
-48.1243
-48.2636
-48.3918
-48.5085
-48.6132
-48.7062
-48.7883
-48.8613
-48.9243
-48.9765
104.657
104.247
105.056
103.849
98.3032
84.1592
55.9854
-15.0303
-85.0101
-84.3281
10.5387
142.993
249.162
298.367
315.798
316.633
298.956
204.654
5.38709
-220.889
-405.149
-390.874
-284.996
-165.852
-122.04
-95.3452
-82.5674
-76.4309
-73.6848
-69.5894
-64.3226
-58.7667
-53.1328
-48.5937
-45.82
-44.1654
-43.2613
-42.6135
-41.7704
-40.8991
-40.0782
-39.4905
-39.1434
-38.9575
-38.8551
-38.7857
-38.7622
-38.7965
-38.8943
-39.0409
-39.2226
-39.4318
-39.6661
-39.9237
-40.2009
-40.4938
-40.7989
-41.1136
-41.4359
-41.7636
-42.0947
-42.4274
-42.7601
-43.0917
-43.4207
-43.7459
-44.0661
-44.3803
-44.6877
-44.9874
-45.2785
-45.5608
-45.8337
-46.0969
-46.35
-46.5926
-46.8243
-47.0448
-47.2541
-47.4517
-47.6375
-47.8112
-47.9731
-48.1231
-48.2624
-48.3907
-48.5073
-48.6121
-48.705
-48.7872
-48.8602
-48.9232
-48.9753
104.718
104.292
105.032
103.764
98.1708
84.0168
56.1235
-13.0031
-80.4927
-78.3034
14.4298
144.426
249.469
298.407
315.851
316.782
299.009
205.274
8.15467
-213.265
-394.478
-382.506
-281.143
-165.916
-122.226
-95.542
-82.6888
-76.4624
-73.609
-69.4933
-64.2492
-58.7231
-53.1223
-48.6088
-45.8356
-44.1741
-43.2612
-42.6063
-41.7632
-40.8941
-40.076
-39.4895
-39.1422
-38.9556
-38.8527
-38.7835
-38.7602
-38.7946
-38.8925
-39.0391
-39.2208
-39.43
-39.6643
-39.9219
-40.1992
-40.4921
-40.7971
-41.1119
-41.4341
-41.7619
-42.093
-42.4257
-42.7584
-43.09
-43.419
-43.7442
-44.0644
-44.3787
-44.6861
-44.9858
-45.277
-45.5592
-45.8322
-46.0953
-46.3485
-46.5911
-46.8228
-47.0433
-47.2526
-47.4502
-47.636
-47.8098
-47.9716
-48.1217
-48.261
-48.3892
-48.5059
-48.6106
-48.7036
-48.7858
-48.8588
-48.9218
-48.974
104.793
104.347
105.003
103.663
98.0159
83.8632
56.1504
-10.4545
-75.1014
-71.4652
19.8895
146.318
249.994
298.461
315.924
316.966
299.146
206.216
12.0279
-204.256
-382.285
-373.058
-276.702
-165.923
-122.41
-95.7602
-82.826
-76.4838
-73.5286
-69.3786
-64.1616
-58.6709
-53.1088
-48.6259
-45.8533
-44.1839
-43.2608
-42.5976
-41.7544
-40.888
-40.0732
-39.4882
-39.1406
-38.9533
-38.8499
-38.7807
-38.7577
-38.7924
-38.8902
-39.0368
-39.2185
-39.4277
-39.6621
-39.9197
-40.197
-40.4899
-40.795
-41.1097
-41.4321
-41.7598
-42.0909
-42.4236
-42.7564
-43.088
-43.417
-43.7422
-44.0625
-44.3767
-44.6841
-44.9838
-45.275
-45.5573
-45.8303
-46.0934
-46.3466
-46.5892
-46.8209
-47.0415
-47.2508
-47.4484
-47.6342
-47.808
-47.9698
-48.1199
-48.2592
-48.3875
-48.5042
-48.6089
-48.7019
-48.7841
-48.8571
-48.9201
-48.9723
104.412
104.971
103.55
97.8427
83.7071
56.135
-7.4035
-68.8931
-64.3408
27.0935
148.738
250.793
298.551
316.024
317.169
299.386
207.38
17.3792
-194.555
-368.605
-362.554
-271.692
-165.869
-122.577
-95.9958
-82.983
-76.4831
-73.4427
-69.2451
-64.0593
-58.6073
-53.0954
-48.6436
-45.8731
-44.1949
-43.2601
-42.5872
-41.7442
-40.8808
-40.0698
-39.4866
-39.1387
-38.9504
-38.8464
-38.7774
-38.7547
-38.7897
-38.8876
-39.0341
-39.2158
-39.4251
-39.6595
-39.9171
-40.1945
-40.4874
-40.7925
-41.1073
-41.4296
-41.7574
-42.0885
-42.4212
-42.754
-43.0856
-43.4147
-43.7399
-44.0601
-44.3744
-44.6818
-44.9816
-45.2728
-45.555
-45.828
-46.0912
-46.3444
-46.587
-46.8187
-47.0393
-47.2486
-47.4463
-47.632
-47.8059
-47.9677
-48.1179
-48.2572
-48.3855
-48.5021
-48.6069
-48.6999
-48.7821
-48.8551
-48.9181
-48.9703
-49.0124
-49.0456
-49.071
104.49
104.934
103.424
97.6553
83.5622
56.2032
-3.96516
-62.0195
-56.3294
35.3554
151.697
251.887
298.693
316.153
317.388
299.739
208.664
24.2308
-183.9
-353.531
-351.018
-266.058
-165.74
-122.712
-96.2413
-83.1514
-76.4776
-73.3382
-69.0923
-63.941
-58.5288
-53.084
-48.6609
-45.8948
-44.2069
-43.2589
-42.5753
-41.7323
-40.8724
-40.0658
-39.4846
-39.1363
-38.9471
-38.8425
-38.7736
-38.7513
-38.7865
-38.8845
-39.0309
-39.2127
-39.422
-39.6564
-39.9142
-40.1915
-40.4845
-40.7896
-41.1044
-41.4267
-41.7545
-42.0857
-42.4184
-42.7513
-43.0829
-43.412
-43.7372
-44.0575
-44.3717
-44.6792
-44.9789
-45.2701
-45.5524
-45.8254
-46.0887
-46.3419
-46.5845
-46.8162
-47.0368
-47.2461
-47.4438
-47.6296
-47.8034
-47.9653
-48.1155
-48.2548
-48.3831
-48.4998
-48.6045
-48.6976
-48.7797
-48.8528
-48.9158
-48.968
-49.0101
-49.0433
-49.0688
104.573
104.909
103.284
97.4578
83.4193
56.4066
-0.284362
-54.435
-47.2019
44.1464
155.202
253.249
298.918
316.327
317.635
300.194
209.985
32.0059
-172.413
-337.125
-338.443
-259.747
-165.516
-122.792
-96.4867
-83.3137
-76.4809
-73.2137
-68.9186
-63.8057
-58.4369
-53.0713
-48.6779
-45.918
-44.2197
-43.2572
-42.5616
-41.7186
-40.8627
-40.0611
-39.4822
-39.1335
-38.9432
-38.8379
-38.7692
-38.7473
-38.7829
-38.8809
-39.0274
-39.2091
-39.4185
-39.653
-39.9108
-40.1881
-40.4811
-40.7863
-41.1011
-41.4235
-41.7513
-42.0825
-42.4152
-42.7481
-43.0797
-43.4088
-43.7341
-44.0544
-44.3686
-44.6761
-44.9759
-45.2671
-45.5495
-45.8225
-46.0857
-46.339
-46.5816
-46.8133
-47.034
-47.2433
-47.441
-47.6268
-47.8007
-47.9626
-48.1127
-48.2521
-48.3804
-48.4971
-48.6018
-48.6949
-48.7771
-48.8501
-48.9132
-48.9654
-49.0075
-49.0407
-49.0661
104.647
104.905
103.135
97.2541
83.2479
56.7914
3.68525
-46.1622
-37.08
53.1993
159.322
254.825
299.259
316.585
317.941
300.77
211.253
40.3328
-160.217
-319.469
-324.819
-252.752
-165.106
-122.795
-96.7231
-83.468
-76.4828
-73.0661
-68.7215
-63.6518
-58.3345
-53.0545
-48.6918
-45.9427
-44.2332
-43.2547
-42.5459
-41.703
-40.8513
-40.0556
-39.4792
-39.1302
-38.9388
-38.8326
-38.7641
-38.7428
-38.7787
-38.8768
-39.0232
-39.205
-39.4144
-39.649
-39.9069
-40.1843
-40.4773
-40.7825
-41.0974
-41.4198
-41.7476
-42.0788
-42.4116
-42.7445
-43.0761
-43.4053
-43.7305
-44.0509
-44.3651
-44.6726
-44.9724
-45.2637
-45.5461
-45.8191
-46.0824
-46.3356
-46.5783
-46.8101
-47.0307
-47.2401
-47.4378
-47.6236
-47.7975
-47.9594
-48.1096
-48.2489
-48.3773
-48.494
-48.5988
-48.6918
-48.7741
-48.8471
-48.9102
-48.9624
-49.0045
-49.0377
-49.0632
104.732
104.906
102.982
97.0502
83.0864
57.3772
8.00988
-37.2804
-25.9485
62.1199
164.055
256.55
299.715
316.968
318.353
301.464
212.388
49.0929
-147.346
-300.681
-310.163
-245.12
-164.359
-122.69
-96.9357
-83.613
-76.4746
-72.8899
-68.4984
-63.4762
-58.2188
-53.0284
-48.7071
-45.9681
-44.2472
-43.2512
-42.5279
-41.6852
-40.8382
-40.0492
-39.4756
-39.1263
-38.9336
-38.8266
-38.7583
-38.7376
-38.774
-38.8722
-39.0186
-39.2003
-39.4099
-39.6445
-39.9024
-40.1799
-40.4729
-40.7782
-41.0931
-41.4155
-41.7434
-42.0747
-42.4075
-42.7404
-43.0721
-43.4012
-43.7265
-44.0469
-44.3612
-44.6687
-44.9685
-45.2598
-45.5422
-45.8153
-46.0786
-46.3318
-46.5745
-46.8063
-47.027
-47.2364
-47.4341
-47.62
-47.7939
-47.9558
-48.106
-48.2454
-48.3737
-48.4905
-48.5953
-48.6884
-48.7706
-48.8437
-48.9068
-48.959
-49.0011
-49.0343
-49.0598
104.839
104.895
102.832
96.8589
83.0039
58.1697
12.6667
-27.8082
-13.9512
71.0234
169.203
258.361
300.28
317.524
318.914
302.179
213.453
57.7866
-133.854
-280.888
-294.503
-236.859
-163.172
-122.437
-97.1049
-83.739
-76.4549
-72.6762
-68.2459
-63.2756
-58.0863
-52.9879
-48.7263
-45.9935
-44.261
-43.2462
-42.5072
-41.6648
-40.8231
-40.0413
-39.4711
-39.1216
-38.9275
-38.8197
-38.7517
-38.7316
-38.7685
-38.8668
-39.0132
-39.195
-39.4046
-39.6394
-39.8974
-40.1749
-40.468
-40.7733
-41.0882
-41.4107
-41.7386
-42.0699
-42.4028
-42.7357
-43.0674
-43.3966
-43.722
-44.0423
-44.3567
-44.6642
-44.9641
-45.2554
-45.5378
-45.8109
-46.0742
-46.3275
-46.5703
-46.8021
-47.0228
-47.2322
-47.43
-47.6158
-47.7898
-47.9517
-48.102
-48.2414
-48.3697
-48.4865
-48.5913
-48.6844
-48.7667
-48.8398
-48.9029
-48.9551
-48.9972
-49.0305
-49.0559
104.964
104.878
102.697
96.6764
83.037
59.2093
17.6652
-17.7513
-1.41792
80.3294
174.553
260.186
300.941
318.317
319.624
302.817
214.523
65.8186
-119.84
-260.217
-277.895
-227.957
-161.432
-122.013
-97.2053
-83.8304
-76.4111
-72.4249
-67.9598
-63.0471
-57.9366
-52.9341
-48.7415
-46.0183
-44.2742
-43.2394
-42.4834
-41.6413
-40.8057
-40.0318
-39.4656
-39.1159
-38.9205
-38.8116
-38.7441
-38.7247
-38.7622
-38.8607
-39.0071
-39.1889
-39.3987
-39.6336
-39.8917
-40.1692
-40.4624
-40.7677
-41.0827
-41.4053
-41.7332
-42.0646
-42.3975
-42.7304
-43.0622
-43.3914
-43.7168
-44.0372
-44.3516
-44.6592
-44.959
-45.2504
-45.5328
-45.806
-46.0693
-46.3227
-46.5654
-46.7973
-47.018
-47.2274
-47.4252
-47.6111
-47.7851
-47.9471
-48.0974
-48.2368
-48.3652
-48.482
-48.5868
-48.68
-48.7623
-48.8353
-48.8985
-48.9507
-48.9928
-49.0261
-49.0516
104.871
102.576
96.4942
83.2257
60.557
23.0045
-7.14644
11.538
89.9321
179.999
261.948
301.677
319.412
320.464
303.251
215.488
73.0825
-105.41
-238.823
-260.415
-218.403
-159.002
-121.407
-97.2014
-83.8691
-76.3274
-72.1343
-67.6347
-62.7858
-57.7654
-52.8655
-48.7514
-46.0409
-44.2857
-43.2299
-42.4558
-41.6142
-40.7854
-40.0204
-39.4586
-39.109
-38.9121
-38.8023
-38.7352
-38.7168
-38.755
-38.8537
-39.0001
-39.182
-39.3919
-39.627
-39.8851
-40.1628
-40.456
-40.7614
-41.0765
-41.3991
-41.7271
-42.0585
-42.3914
-42.7244
-43.0562
-43.3855
-43.7109
-44.0313
-44.3458
-44.6534
-44.9533
-45.2447
-45.5272
-45.8004
-46.0638
-46.3172
-46.56
-46.7918
-47.0126
-47.2221
-47.4199
-47.6058
-47.7798
-47.9419
-48.0922
-48.2316
-48.3601
-48.4769
-48.5817
-48.6749
-48.7572
-48.8303
-48.8935
-48.9457
-48.9879
-49.0212
-49.0466
96.3444
83.5953
62.2277
28.7122
3.95176
24.8161
99.6399
185.428
263.596
302.451
320.823
321.324
303.297
216.154
79.4162
-90.6725
-216.919
-242.196
-208.247
-155.796
-120.486
-97.0577
-83.8325
-76.1898
-71.794
-67.2652
-62.4867
-57.5673
-52.7795
-48.7535
-46.0596
-44.2944
-43.2167
-42.4237
-41.5828
-40.7615
-40.0065
-39.4498
-39.1005
-38.9023
-38.7915
-38.725
-38.7076
-38.7465
-38.8455
-38.992
-39.174
-39.3841
-39.6194
-39.8777
-40.1554
-40.4487
-40.7542
-41.0694
-41.3921
-41.7201
-42.0516
-42.3846
-42.7176
-43.0495
-43.3788
-43.7042
-44.0247
-44.3392
-44.6469
-44.9468
-45.2383
-45.5208
-45.794
-46.0575
-46.3109
-46.5537
-46.7857
-47.0065
-47.216
-47.4138
-47.5998
-47.7739
-47.9359
-48.0863
-48.2258
-48.3542
-48.4711
-48.576
-48.6692
-48.7515
-48.8246
-48.8878
-48.9401
-48.9823
-49.0156
-49.041
96.2839
84.1492
64.2047
34.8409
15.4718
38.2885
109.338
190.709
265.076
303.222
322.527
321.976
302.751
216.217
85.1214
-75.6873
-194.674
-223.348
-197.444
-151.862
-119.129
-96.7266
-83.6906
-75.9806
-71.3941
-66.8436
-62.1435
-57.3364
-52.6732
-48.7443
-46.072
-44.2986
-43.1987
-42.3861
-41.5463
-40.7335
-39.9895
-39.4388
-39.0901
-38.8905
-38.7788
-38.713
-38.6968
-38.7367
-38.8361
-38.9827
-39.1648
-39.3752
-39.6107
-39.8692
-40.147
-40.4404
-40.746
-41.0613
-41.384
-41.7122
-42.0437
-42.3768
-42.7099
-43.0418
-43.3712
-43.6967
-44.0172
-44.3317
-44.6395
-44.9395
-45.231
-45.5136
-45.7868
-46.0503
-46.3038
-46.5467
-46.7786
-46.9995
-47.209
-47.407
-47.593
-47.7671
-47.9292
-48.0796
-48.2191
-48.3476
-48.4645
-48.5694
-48.6627
-48.7451
-48.8182
-48.8814
-48.9337
-48.9759
-49.0092
-49.0347
96.3436
84.8894
66.5288
41.3921
27.3274
51.7457
118.974
195.694
266.32
303.915
324.382
322.187
301.385
215.456
90.444
-60.6973
-172.437
-203.97
-185.844
-147.275
-117.322
-96.1479
-83.4076
-75.6764
-70.9214
-66.3612
-61.7491
-57.0667
-52.5411
-48.7196
-46.075
-44.2962
-43.1743
-42.3418
-41.5036
-40.7002
-39.9687
-39.4248
-39.0771
-38.8764
-38.7639
-38.699
-38.6842
-38.7253
-38.8251
-38.9719
-39.1543
-39.3649
-39.6007
-39.8594
-40.1374
-40.431
-40.7367
-41.0521
-41.3749
-41.7032
-42.0348
-42.3679
-42.7011
-43.0331
-43.3625
-43.6881
-44.0087
-44.3233
-44.631
-44.9311
-45.2227
-45.5053
-45.7787
-46.0422
-46.2957
-46.5387
-46.7707
-46.9916
-47.2012
-47.3992
-47.5852
-47.7594
-47.9216
-48.072
-48.2116
-48.3401
-48.457
-48.562
-48.6553
-48.7377
-48.8109
-48.8741
-48.9264
-48.9687
-49.002
-49.0275
96.5511
85.8546
69.3017
48.3815
39.361
64.9172
128.543
200.331
267.232
304.422
326.085
321.619
298.96
213.793
94.9781
-45.7202
-150.289
-184.539
-173.6
-141.705
-115.005
-95.2592
-82.9394
-75.2493
-70.3593
-65.8068
-61.2948
-56.751
-52.3771
-48.674
-46.0645
-44.2842
-43.1412
-42.2893
-41.4534
-40.6607
-39.943
-39.407
-39.0609
-38.8594
-38.7463
-38.6826
-38.6694
-38.7119
-38.8123
-38.9594
-39.1421
-39.353
-39.5892
-39.8482
-40.1264
-40.4201
-40.726
-41.0415
-41.3645
-41.6929
-42.0246
-42.3578
-42.6911
-43.0232
-43.3527
-43.6783
-43.999
-44.3137
-44.6215
-44.9217
-45.2133
-45.496
-45.7694
-46.033
-46.2866
-46.5296
-46.7617
-46.9827
-47.1923
-47.3903
-47.5765
-47.7507
-47.9129
-48.0634
-48.203
-48.3316
-48.4486
-48.5536
-48.6469
-48.7294
-48.8026
-48.8658
-48.9182
-48.9605
-48.9938
-49.0193
55.7889
51.3773
77.7816
137.717
204.614
267.711
304.596
327.432
320.327
295.245
211.234
98.8021
-30.9439
-128.483
-164.95
-160.702
-135.41
-112.08
-93.9918
-82.2353
-74.6651
-69.6874
-65.1666
-60.77
-56.3805
-52.1734
-48.6006
-46.0355
-44.2588
-43.0969
-42.2266
-41.3941
-40.6135
-39.9113
-39.3844
-39.0408
-38.8388
-38.7254
-38.6631
-38.652
-38.6961
-38.7973
-38.9448
-39.1279
-39.3394
-39.576
-39.8353
-40.1138
-40.4077
-40.7138
-41.0295
-41.3527
-41.6812
-42.013
-42.3464
-42.6798
-43.0119
-43.3415
-43.6672
-43.988
-44.3027
-44.6107
-44.9109
-45.2026
-45.4854
-45.7589
-46.0226
-46.2762
-46.5193
-46.7515
-46.9725
-47.1822
-47.3803
-47.5665
-47.7408
-47.9031
-48.0537
-48.1934
-48.322
-48.439
-48.544
-48.6374
-48.72
-48.7932
-48.8565
-48.9089
-48.9512
-48.9846
-49.0101
63.4504
63.2542
90.3578
146.263
208.426
267.662
304.275
328.146
318.475
290.102
207.844
102.165
-16.7791
-107.476
-145.52
-147.205
-128.266
-108.497
-92.2731
-81.2378
-73.8837
-68.8807
-64.4238
-60.1617
-55.9443
-51.9205
-48.4912
-45.9813
-44.2152
-43.0377
-42.1511
-41.3236
-40.5569
-39.872
-39.3557
-39.0155
-38.8137
-38.7004
-38.64
-38.6313
-38.6774
-38.7797
-38.9278
-39.1114
-39.3235
-39.5607
-39.8204
-40.0993
-40.3935
-40.6998
-41.0158
-41.3391
-41.6678
-41.9998
-42.3333
-42.6668
-42.9991
-43.3288
-43.6546
-43.9755
-44.2903
-44.5983
-44.8987
-45.1905
-45.4734
-45.7469
-46.0107
-46.2645
-46.5076
-46.7399
-46.961
-47.1708
-47.3689
-47.5552
-47.7296
-47.892
-48.0426
-48.1824
-48.311
-48.4281
-48.5332
-48.6267
-48.7093
-48.7826
-48.8459
-48.8983
-48.9407
-48.9741
-48.9996
71.3157
74.8243
102.3
154.173
211.667
266.988
303.277
327.587
315.482
283.458
203.671
104.989
-3.49719
-87.4051
-126.422
-133.269
-120.31
-104.2
-90.0286
-79.884
-72.859
-67.9089
-63.5574
-59.4542
-55.4296
-51.6069
-48.3354
-45.8938
-44.1472
-42.9591
-42.0596
-41.2392
-40.4885
-39.823
-39.3192
-38.9837
-38.7829
-38.6705
-38.6125
-38.6067
-38.6551
-38.7588
-38.9078
-39.0922
-39.3051
-39.5429
-39.8033
-40.0825
-40.3771
-40.6838
-41
-41.3236
-41.6525
-41.9847
-42.3184
-42.6521
-42.9845
-43.3144
-43.6403
-43.9613
-44.2762
-44.5843
-44.8848
-45.1767
-45.4597
-45.7334
-45.9973
-46.2511
-46.4944
-46.7267
-46.9479
-47.1578
-47.356
-47.5424
-47.7168
-47.8793
-48.03
-48.1699
-48.2986
-48.4157
-48.521
-48.6145
-48.6972
-48.7705
-48.8338
-48.8863
-48.9287
-48.9622
-48.9877
265.587
301.422
325.295
310.876
275.338
198.794
107.231
8.81086
-68.4934
-107.897
-119.054
-111.584
-99.1498
-87.191
-78.1083
-71.5404
-66.737
-62.5428
-58.629
-54.8209
-51.2186
-48.1207
-45.7628
-44.0469
-42.8554
-41.9479
-41.1376
-40.4055
-39.762
-39.2727
-38.9437
-38.7452
-38.6343
-38.5796
-38.5772
-38.6286
-38.7341
-38.8843
-39.0697
-39.2836
-39.5223
-39.7834
-40.0632
-40.3583
-40.6653
-40.9819
-41.3058
-41.635
-41.9674
-42.3013
-42.6353
-42.9679
-43.2979
-43.624
-43.9451
-44.2602
-44.5684
-44.869
-45.1611
-45.4442
-45.718
-45.982
-46.2359
-46.4793
-46.7117
-46.933
-47.143
-47.3414
-47.5278
-47.7024
-47.865
-48.0158
-48.1557
-48.2845
-48.4017
-48.507
-48.6007
-48.6834
-48.7568
-48.8202
-48.8727
-48.9152
-48.9487
-48.9742
263.358
298.516
321.03
304.434
265.87
193.322
108.894
20.0409
-50.898
-90.1201
-104.736
-102.169
-93.3406
-83.7056
-75.8481
-69.8741
-65.3253
-61.3509
-57.6642
-54.1001
-50.7394
-47.8325
-45.5762
-43.9046
-42.7194
-41.8107
-41.0146
-40.3045
-39.6858
-39.2137
-38.8933
-38.6985
-38.5905
-38.5398
-38.5418
-38.5968
-38.7047
-38.8565
-39.0433
-39.2584
-39.4983
-39.7603
-40.0408
-40.3365
-40.6441
-40.9611
-41.2855
-41.615
-41.9477
-42.2819
-42.6161
-42.9489
-43.2791
-43.6054
-43.9267
-44.2419
-44.5503
-44.8511
-45.1433
-45.4265
-45.7005
-45.9646
-46.2187
-46.4622
-46.6948
-46.9162
-47.1263
-47.3248
-47.5113
-47.686
-47.8487
-47.9997
-48.1397
-48.2686
-48.3858
-48.4912
-48.585
-48.6678
-48.7413
-48.8047
-48.8573
-48.8998
-48.9333
-48.9589
260.231
294.384
314.684
296.053
255.263
187.335
109.961
30.0913
-34.7559
-73.2714
-90.5076
-92.1837
-86.7984
-79.5393
-73.0486
-67.8076
-63.6308
-59.9488
-56.5342
-53.2458
-50.1502
-47.4539
-45.3194
-43.7087
-42.542
-41.6411
-40.8647
-40.1809
-39.5907
-39.1389
-38.8297
-38.6408
-38.5372
-38.4918
-38.4991
-38.5586
-38.6695
-38.8235
-39.0121
-39.2289
-39.4702
-39.7333
-40.0148
-40.3113
-40.6196
-40.9372
-41.262
-41.592
-41.9251
-42.2596
-42.5941
-42.9272
-43.2577
-43.5842
-43.9057
-44.2211
-44.5298
-44.8306
-45.123
-45.4065
-45.6806
-45.9449
-46.1991
-46.4428
-46.6755
-46.897
-47.1073
-47.3059
-47.4926
-47.6674
-47.8302
-47.9813
-48.1215
-48.2504
-48.3678
-48.4733
-48.5672
-48.6501
-48.7237
-48.7871
-48.8398
-48.8824
-48.916
-48.9415
256.147
288.902
306.294
285.792
243.778
180.91
110.423
38.9077
-20.1378
-57.4979
-76.57
-81.785
-79.585
-74.6852
-69.6704
-65.2933
-61.6099
-58.3006
-55.2105
-52.2337
-49.4291
-46.9651
-44.9754
-43.445
-42.3125
-41.4309
-40.6814
-40.0293
-39.4718
-39.0441
-38.7496
-38.5692
-38.4719
-38.4334
-38.4474
-38.5124
-38.6272
-38.7841
-38.9751
-39.194
-39.4372
-39.7018
-39.9846
-40.282
-40.5912
-40.9096
-41.2351
-41.5656
-41.8992
-42.2342
-42.569
-42.9025
-43.2332
-43.56
-43.8818
-44.1975
-44.5063
-44.8074
-45.1
-45.3837
-45.658
-45.9225
-46.1769
-46.4207
-46.6536
-46.8753
-47.0857
-47.2844
-47.4713
-47.6463
-47.8093
-47.9605
-48.1008
-48.2299
-48.3474
-48.453
-48.5469
-48.63
-48.7036
-48.7672
-48.82
-48.8626
-48.8962
-48.9218
251.084
282.024
296.028
273.874
231.695
174.122
110.277
46.472
-7.08027
-42.9109
-63.1128
-71.1529
-71.8066
-69.1791
-65.7
-62.297
-59.223
-56.3701
-53.6623
-51.037
-48.5516
-46.3439
-44.5247
-43.0972
-42.0176
-41.1697
-40.4564
-39.8427
-39.3233
-38.9245
-38.6487
-38.4801
-38.3919
-38.3623
-38.3845
-38.4564
-38.5762
-38.737
-38.9311
-39.1528
-39.3984
-39.6649
-39.9492
-40.248
-40.5583
-40.8777
-41.204
-41.5352
-41.8694
-42.2049
-42.5403
-42.8742
-43.2053
-43.5324
-43.8545
-44.1705
-44.4796
-44.781
-45.0738
-45.3577
-45.6323
-45.897
-46.1516
-46.3956
-46.6287
-46.8506
-47.0612
-47.2601
-47.4471
-47.6223
-47.7854
-47.9369
-48.0773
-48.2065
-48.3241
-48.4299
-48.524
-48.6072
-48.6809
-48.7446
-48.7974
-48.8401
-48.8739
-48.8995
245.064
273.792
284.194
260.637
219.305
167.048
109.537
52.8048
4.41004
-29.5997
-50.3101
-60.4928
-63.6034
-63.0841
-61.1474
-58.7998
-56.4383
-54.1236
-51.8583
-49.6268
-47.4912
-45.5663
-43.9454
-42.6463
-41.6419
-40.8451
-40.1797
-39.613
-39.138
-38.7738
-38.5219
-38.3694
-38.2936
-38.2754
-38.3078
-38.3883
-38.5147
-38.6804
-38.8787
-39.1039
-39.3525
-39.6215
-39.9079
-40.2084
-40.5201
-40.8407
-41.1681
-41.5002
-41.8352
-42.1714
-42.5073
-42.8417
-43.1733
-43.5009
-43.8233
-44.1397
-44.4491
-44.7508
-45.044
-45.3282
-45.603
-45.868
-46.1229
-46.3671
-46.6004
-46.8225
-47.0333
-47.2325
-47.4197
-47.595
-47.7584
-47.91
-48.0506
-48.18
-48.2978
-48.4037
-48.4979
-48.5813
-48.6552
-48.7189
-48.7718
-48.8147
-48.8485
-48.8741
238.145
264.334
271.072
246.517
206.825
159.761
108.234
57.9365
14.3586
-17.6085
-38.3159
-49.9997
-55.1296
-56.5014
-56.058
-54.8082
-53.239
-51.5355
-49.7706
-47.9755
-46.2209
-44.6065
-43.2137
-42.0712
-41.1674
-40.4422
-39.839
-39.3298
-38.9074
-38.5847
-38.3628
-38.2317
-38.1724
-38.1688
-38.2142
-38.3054
-38.44
-38.6123
-38.8159
-39.0457
-39.2981
-39.5703
-39.8593
-40.162
-40.4756
-40.7977
-41.1264
-41.4597
-41.7957
-42.1328
-42.4695
-42.8046
-43.1368
-43.4648
-43.7878
-44.1046
-44.4144
-44.7165
-45.01
-45.2946
-45.5697
-45.835
-46.0901
-46.3347
-46.5682
-46.7906
-47.0016
-47.201
-47.3885
-47.5641
-47.7277
-47.8795
-48.0203
-48.1499
-48.2678
-48.3739
-48.4684
-48.5519
-48.6259
-48.6897
-48.7428
-48.7857
-48.8196
-48.8453
230.422
253.814
257.189
231.927
194.443
152.338
106.403
61.9195
22.8202
-6.94082
-27.2445
-39.8725
-46.5698
-49.568
-50.5129
-50.3577
-49.6287
-48.5926
-47.3787
-46.059
-44.7157
-43.4398
-42.3052
-41.3493
-40.5744
-39.944
-39.4202
-38.9813
-38.6211
-38.3483
-38.164
-38.0605
-38.0229
-38.0381
-38.0996
-38.2042
-38.3494
-38.53
-38.7406
-38.9762
-39.2335
-39.5098
-39.8021
-40.1076
-40.4235
-40.7477
-41.0781
-41.4129
-41.7501
-42.0883
-42.426
-42.7619
-43.0948
-43.4236
-43.7471
-44.0644
-44.3748
-44.6773
-44.9713
-45.2563
-45.5318
-45.7974
-46.0529
-46.2978
-46.5316
-46.7543
-46.9657
-47.1653
-47.3531
-47.5289
-47.6928
-47.8449
-47.9859
-48.1157
-48.2338
-48.3401
-48.4348
-48.5186
-48.5927
-48.6566
-48.7098
-48.7529
-48.7869
-48.8127
222.034
242.433
243.697
217.192
182.278
144.847
104.074
64.8263
29.878
2.42079
-17.1833
-30.2762
-38.108
-42.4434
-44.6249
-45.5151
-45.6366
-45.2999
-44.6734
-43.8612
-42.9558
-42.0444
-41.1972
-40.458
-39.8415
-39.3317
-38.9071
-38.5535
-38.2671
-38.0543
-37.9164
-37.8482
-37.8387
-37.8776
-37.9592
-38.0805
-38.2391
-38.4305
-38.6499
-38.8929
-39.1565
-39.438
-39.7346
-40.0436
-40.3626
-40.6894
-41.022
-41.3586
-41.6974
-42.037
-42.3759
-42.7128
-43.0467
-43.3763
-43.7005
-44.0185
-44.3295
-44.6326
-44.9271
-45.2126
-45.4886
-45.7547
-46.0105
-46.2558
-46.49
-46.7131
-46.9247
-47.1247
-47.3128
-47.4889
-47.6531
-47.8056
-47.9468
-48.0768
-48.1952
-48.3017
-48.3966
-48.4807
-48.5549
-48.619
-48.6724
-48.7156
-48.7497
-48.7756
213.093
230.368
229.576
202.491
170.413
137.336
101.294
66.7472
35.6246
10.496
-8.20404
-21.3596
-29.9261
-35.2993
-38.5318
-40.3755
-41.3188
-41.6847
-41.6625
-41.3769
-40.9289
-40.4039
-39.8702
-39.3767
-38.9482
-38.5856
-38.2818
-38.0307
-37.8318
-37.6907
-37.6095
-37.5857
-37.6118
-37.6805
-37.7872
-37.9294
-38.1049
-38.3099
-38.5406
-38.7931
-39.0645
-39.3526
-39.6546
-39.9683
-40.2911
-40.6212
-40.9565
-41.2955
-41.6364
-41.9777
-42.3181
-42.6564
-42.9914
-43.322
-43.6472
-43.966
-44.2777
-44.5815
-44.8767
-45.1627
-45.4393
-45.7059
-45.9623
-46.208
-46.4427
-46.6661
-46.8782
-47.0785
-47.267
-47.4435
-47.608
-47.7608
-47.9024
-48.0327
-48.1513
-48.2581
-48.3533
-48.4376
-48.5121
-48.5763
-48.6299
-48.6733
-48.7075
-48.7334
203.7
217.89
214.237
188.207
159
129.871
98.1233
67.7806
40.1676
17.3388
-0.299465
-13.2156
-22.1834
-28.3032
-32.3847
-35.0584
-36.7592
-37.7992
-38.3739
-38.6178
-38.6356
-38.5111
-38.3116
-38.0891
-37.8762
-37.687
-37.5265
-37.3965
-37.3003
-37.2441
-37.2315
-37.2625
-37.3331
-37.4389
-37.5767
-37.7447
-37.9413
-38.1637
-38.4086
-38.673
-38.9545
-39.2508
-39.5598
-39.8792
-40.207
-40.5412
-40.8801
-41.2221
-41.5656
-41.9091
-42.2514
-42.5914
-42.9278
-43.2597
-43.586
-43.9059
-44.2185
-44.5231
-44.8191
-45.1059
-45.3831
-45.6504
-45.9073
-46.1535
-46.3887
-46.6127
-46.8252
-47.026
-47.2149
-47.3918
-47.5568
-47.71
-47.8519
-47.9825
-48.1015
-48.2086
-48.3041
-48.3887
-48.4634
-48.5278
-48.5816
-48.6252
-48.6595
-48.6855
194.047
205.194
199.88
174.52
148.139
122.513
94.627
68.029
43.6135
23.0112
6.56023
-5.90979
-15.0107
-21.6109
-26.3361
-29.6921
-32.0578
-33.7175
-34.8583
-35.615
-36.0922
-36.3716
-36.5183
-36.5857
-36.6118
-36.62
-36.6247
-36.6346
-36.6573
-36.7004
-36.7696
-36.8671
-36.9923
-37.1436
-37.3196
-37.5195
-37.7423
-37.9862
-38.2491
-38.5285
-38.8225
-39.1293
-39.4471
-39.7739
-40.1079
-40.4474
-40.7907
-41.1365
-41.4832
-41.8296
-42.1743
-42.5163
-42.8546
-43.1881
-43.5158
-43.8369
-44.1507
-44.4564
-44.7533
-45.041
-45.319
-45.587
-45.8446
-46.0915
-46.3273
-46.5519
-46.7649
-46.9662
-47.1556
-47.3331
-47.4985
-47.6522
-47.7945
-47.9255
-48.0448
-48.1523
-48.2482
-48.3331
-48.408
-48.4727
-48.5267
-48.5705
-48.6051
-48.6312
184.319
192.989
186.535
161.486
137.857
115.309
90.8711
67.5928
46.0692
27.5815
12.4015
0.517883