/*--------------------------------*- C++ -*----------------------------------*\
| =========                 |                                                 |
| \\      /  F ield         | OpenFOAM: The Open Source CFD Toolbox           |
|  \\    /   O peration     | Version:  2412                                  |
|   \\  /    A nd           | Website:  www.openfoam.com                      |
|    \\/     M anipulation  |                                                 |
\*---------------------------------------------------------------------------*/
FoamFile
{
    version     2.0;
    format      ascii;
    arch        "LSB;label=32;scalar=64";
    class       volVectorField;
    location    "40";
    object      U;
}
// * * * * * * * * * * * * * * * * * * * * * * * * * * * * * * * * * * * * * //

dimensions      [0 1 -1 0 0 0 0];

internalField   nonuniform List<vector> 
7448
(
(0.927316 0.0625041 -2.63335e-25)
(0.926463 0.0546239 -5.33259e-19)
(0.925473 0.0471262 5.17855e-19)
(0.924386 0.0399895 -5.02846e-19)
(0.923129 0.03319 -6.93261e-26)
(0.921689 0.0267096 0)
(0.920048 0.0205306 4.6027e-19)
(0.918232 0.014642 -2.23459e-19)
(0.916283 0.00903102 -1.08489e-19)
(0.914175 0.00368515 5.26721e-20)
(0.91203 -0.00140469 -1.27869e-20)
(0.910046 -0.00625461 -2.34204e-26)
(0.908192 -0.0108751 2.32624e-26)
(0.906392 -0.0152788 4.41389e-26)
(0.904545 -0.0194736 3.63918e-19)
(0.902662 -0.0234679 -3.53438e-19)
(0.900779 -0.0272731 8.07771e-26)
(0.898913 -0.0308969 3.33414e-19)
(0.897059 -0.0343473 0)
(0.895259 -0.0376347 7.39338e-26)
(0.893523 -0.0407659 -2.11895e-27)
(0.891863 -0.0437529 5.93547e-19)
(0.890255 -0.0465976 -5.76514e-19)
(0.888695 -0.0493115 0)
(0.887192 -0.0518994 5.4385e-19)
(0.885762 -0.0543691 -5.28155e-19)
(0.884402 -0.0567268 5.12874e-19)
(0.883107 -0.0589821 -4.9797e-19)
(0.881868 -0.0611366 -4.83408e-19)
(0.880702 -0.0631973 9.38341e-19)
(0.879591 -0.0651713 4.55237e-19)
(0.878532 -0.0670629 4.41583e-19)
(0.877521 -0.0688774 -4.28177e-19)
(0.876572 -0.0706181 -4.14986e-19)
(0.875678 -0.0722916 -4.02004e-19)
(0.874832 -0.0739039 3.8919e-19)
(0.874004 -0.0754512 8.77393e-26)
(0.873284 -0.0769498 -7.27896e-19)
(0.87251 -0.0783874 -4.06755e-27)
(0.871851 -0.0797845 5.35095e-25)
(0.871112 -0.0811239 -7.58175e-26)
(0.870525 -0.0824316 1.49798e-25)
(0.869884 -0.0836922 -7.39895e-26)
(0.86929 -0.0849157 0)
(0.868667 -0.0860994 0)
(0.868127 -0.0872545 0)
(0.867541 -0.0883723 0)
(0.866996 -0.0894621 -2.36987e-19)
(0.866412 -0.0905186 -2.23279e-19)
(0.865897 -0.0915497 4.76304e-26)
(0.865368 -0.0925564 -1.94715e-19)
(0.86484 -0.0935339 1.79736e-19)
(0.864328 -0.0944903 9.98193e-25)
(0.863803 -0.0954201 2.96092e-19)
(0.863298 -0.0963281 3.37009e-26)
(0.862808 -0.0972143 -2.45429e-26)
(0.862307 -0.0980791 -4.75375e-20)
(0.861801 -0.0989196 -3.7814e-20)
(0.861307 -0.0997404 1.58061e-26)
(0.860826 -0.10054 -1.67335e-20)
(0.860336 -0.101319 6.23043e-25)
(0.859869 -0.102082 -1.38031e-20)
(0.859345 -0.102815 -6.4782e-27)
(0.858878 -0.103534 -3.36383e-20)
(0.858369 -0.104226 0)
(0.857904 -0.104905 -1.28149e-19)
(0.857391 -0.105557 -7.03511e-26)
(0.856905 -0.106192 0)
(0.856415 -0.106805 -5.91667e-20)
(0.855929 -0.107397 1.40598e-25)
(0.85542 -0.107967 -1.46209e-25)
(0.854923 -0.108516 0)
(0.854433 -0.109046 1.05889e-19)
(0.853953 -0.109556 1.19952e-19)
(0.853497 -0.110048 -2.70308e-19)
(0.853026 -0.11052 1.51599e-19)
(0.852563 -0.110972 8.47012e-20)
(0.852111 -0.111404 0)
(0.851662 -0.111817 -2.09607e-19)
(0.851261 -0.112216 0)
(0.850726 -0.112579 -1.28456e-19)
(2.88332 0.194352 1.82361e-18)
(2.88077 0.169856 8.44279e-25)
(2.87773 0.146544 -8.59837e-19)
(2.87437 0.124354 4.01061e-25)
(2.87045 0.103209 8.10676e-19)
(2.86592 0.0830556 0)
(2.86074 0.063841 -7.64206e-19)
(2.855 0.0455299 0)
(2.84883 0.0280811 0)
(2.84216 0.0114614 0)
(2.83536 -0.00436514 2.46527e-27)
(2.82903 -0.0194416 1.6491e-19)
(2.82309 -0.033804 -7.5478e-26)
(2.8173 -0.0474897 7.50339e-26)
(2.81137 -0.0605256 -6.04062e-19)
(2.80532 -0.0729361 1.38087e-25)
(2.79929 -0.0847558 -5.69723e-19)
(2.79332 -0.0960132 0)
(2.78738 -0.106729 0)
(2.78163 -0.116938 -1.22668e-25)
(2.77607 -0.12666 3.60807e-25)
(2.77075 -0.135932 -2.38279e-25)
(2.76561 -0.144765 0)
(2.76062 -0.153186 0)
(2.75583 -0.161221 0)
(2.75128 -0.168885 1.75122e-18)
(2.74694 -0.176204 -1.70021e-18)
(2.74281 -0.1832 1.65043e-18)
(2.73887 -0.189887 8.0089e-19)
(2.73515 -0.196282 -1.68259e-24)
(2.73159 -0.202405 6.82446e-27)
(2.72822 -0.208272 6.80852e-27)
(2.72503 -0.213903 1.41695e-18)
(2.72201 -0.219305 0)
(2.71915 -0.224496 0)
(2.71647 -0.229495 -6.43065e-19)
(2.71386 -0.234299 6.21757e-19)
(2.71155 -0.238949 6.00618e-19)
(2.7091 -0.243406 -1.34776e-25)
(2.70702 -0.247741 5.58653e-19)
(2.7047 -0.251899 -1.31623e-25)
(2.70283 -0.255957 0)
(2.7008 -0.259865 2.29357e-25)
(2.69893 -0.263663 -2.33144e-25)
(2.69695 -0.267333 0)
(2.69523 -0.270917 4.30986e-19)
(2.69338 -0.274383 -2.0208e-25)
(2.69166 -0.277765 -3.86122e-19)
(2.68983 -0.281041 -3.62896e-19)
(2.6882 -0.284244 3.39048e-19)
(2.68652 -0.287361 3.32983e-24)
(2.68485 -0.290396 -2.89076e-19)
(2.68323 -0.29336 2.62736e-19)
(2.6816 -0.296247 -2.35342e-19)
(2.68003 -0.299066 -9.02982e-26)
(2.67847 -0.301816 9.26414e-26)
(2.6769 -0.304495 7.27742e-20)
(2.67532 -0.307105 5.63007e-20)
(2.67378 -0.309651 0)
(2.67226 -0.312133 2.06093e-20)
(2.6707 -0.314548 2.42672e-24)
(2.66924 -0.316912 1.93756e-20)
(2.66763 -0.319191 0)
(2.66618 -0.321423 6.45557e-20)
(2.66459 -0.323572 -9.62212e-26)
(2.66312 -0.325677 2.3183e-19)
(2.66154 -0.327701 2.75591e-25)
(2.66005 -0.329676 -1.54838e-25)
(2.65854 -0.331578 -2.10255e-25)
(2.65703 -0.333419 2.18425e-25)
(2.65546 -0.335189 -1.39934e-19)
(2.65394 -0.336896 -1.60179e-19)
(2.65243 -0.338544 1.81992e-19)
(2.65096 -0.340128 4.07221e-25)
(2.64954 -0.341659 2.30913e-19)
(2.64809 -0.343123 -2.58359e-19)
(2.64669 -0.34453 -5.6658e-25)
(2.64533 -0.345879 -3.50602e-26)
(2.64398 -0.347166 3.54966e-19)
(2.64277 -0.348412 7.30354e-25)
(2.64117 -0.349546 -2.16764e-19)
(5.05362 0.340651 -2.05753e-18)
(5.04936 0.297727 0)
(5.0441 0.256871 9.70228e-19)
(5.03821 0.217975 -9.42192e-19)
(5.03124 0.180909 0)
(5.02316 0.145579 8.88259e-19)
(5.01388 0.111897 4.3125e-19)
(5.00359 0.0798012 3.00432e-25)
(4.99249 0.049215 2.03314e-19)
(4.98048 0.0200898 -4.75504e-26)
(4.9682 -0.00764535 4.79277e-20)
(4.95668 -0.0340576 -1.86169e-19)
(4.94579 -0.0592187 -1.80791e-19)
(4.93514 -0.083187 -3.51142e-19)
(4.92426 -0.10601 3.41014e-19)
(4.91319 -0.127737 1.59927e-25)
(4.90213 -0.148422 4.70831e-25)
(4.89121 -0.16812 6.24816e-19)
(4.88039 -0.186869 0)
(4.86986 -0.204724 0)
(4.85971 -0.221728 0)
(4.84999 -0.237938 2.61157e-25)
(4.84059 -0.253381 -2.61466e-25)
(4.8315 -0.268098 0)
(4.82278 -0.28214 0)
(4.81451 -0.295533 -9.89031e-19)
(4.80661 -0.308324 1.9105e-24)
(4.79909 -0.320546 -9.32155e-19)
(4.79195 -0.332227 -9.04696e-19)
(4.78519 -0.3434 -1.75566e-18)
(4.77875 -0.354095 8.51523e-19)
(4.77264 -0.364344 -3.8605e-25)
(4.76684 -0.374177 -8.00366e-19)
(4.7614 -0.383615 0)
(4.75623 -0.392682 7.50799e-19)
(4.75137 -0.40141 0)
(4.74665 -0.409801 -1.40486e-18)
(4.74248 -0.41792 3.31234e-25)
(4.73807 -0.425706 6.54812e-19)
(4.73432 -0.433276 6.31153e-19)
(4.73018 -0.440539 -5.79314e-25)
(4.72678 -0.447627 2.8614e-25)
(4.72313 -0.454449 5.59926e-19)
(4.71976 -0.461085 5.35899e-19)
(4.7162 -0.467493 -2.51878e-25)
(4.71308 -0.473748 -9.73852e-19)
(4.70976 -0.479797 -4.61836e-19)
(4.70667 -0.485707 4.36239e-19)
(4.70342 -0.491425 4.09999e-19)
(4.70047 -0.497022 -3.83054e-19)
(4.69743 -0.502456 7.10564e-19)
(4.69444 -0.507758 1.46907e-25)
(4.6915 -0.512928 -1.50355e-25)
(4.68858 -0.517966 0)
(4.68575 -0.522887 0)
(4.68297 -0.527689 0)
(4.68013 -0.532364 -8.22134e-20)
(4.6773 -0.536919 -3.14589e-24)
(4.67454 -0.541361 -3.16093e-26)
(4.67183 -0.545695 3.25372e-26)
(4.66901 -0.549907 2.7214e-21)
(4.66639 -0.554029 -2.18932e-20)
(4.66355 -0.558009 4.66126e-20)
(4.66094 -0.561903 -2.36163e-26)
(4.65809 -0.565654 -1.00978e-19)
(4.65546 -0.569324 -1.30924e-19)
(4.65265 -0.572858 -1.42604e-25)
(4.65002 -0.576304 0)
(4.64733 -0.579627 0)
(4.64461 -0.582835 0)
(4.64186 -0.585923 -2.76111e-24)
(4.63916 -0.588906 3.61757e-19)
(4.63649 -0.591779 3.47779e-24)
(4.63388 -0.594547 -4.2607e-25)
(4.63134 -0.597215 0)
(4.62878 -0.599769 -5.74979e-25)
(4.62633 -0.602228 -1.62593e-19)
(4.62393 -0.604585 7.09557e-25)
(4.62156 -0.606832 -2.00338e-19)
(4.61944 -0.609007 0)
(4.61667 -0.610998 -2.32645e-24)
(7.43345 0.501074 1.10666e-24)
(7.42757 0.43796 0)
(7.41993 0.377867 -6.81874e-25)
(7.41115 0.320645 1.1583e-24)
(7.40067 0.266113 -7.87352e-27)
(7.3884 0.214135 -9.96686e-19)
(7.37427 0.164583 -4.83938e-19)
(7.35856 0.117367 0)
(7.34156 0.072379 -2.282e-19)
(7.32317 0.0295459 6.64491e-26)
(7.30431 -0.011234 -2.69029e-20)
(7.28639 -0.0500584 0)
(7.26931 -0.0870346 2.03009e-19)
(7.25251 -0.122244 3.94338e-19)
(7.2354 -0.155759 -3.83004e-19)
(7.21802 -0.187655 0)
(7.20067 -0.218012 7.22682e-19)
(7.18356 -0.246906 -7.01974e-19)
(7.16662 -0.274405 -3.20641e-25)
(7.15016 -0.300582 3.20323e-25)
(7.13427 -0.325504 0)
(7.11905 -0.349255 1.24983e-18)
(7.10437 -0.371874 -5.78875e-25)
(7.09022 -0.393432 2.85556e-25)
(7.07663 -0.413993 5.37184e-25)
(7.06375 -0.433598 1.11195e-18)
(7.05148 -0.452323 2.15933e-18)
(7.0398 -0.470209 0)
(7.02871 -0.487301 0)
(7.01823 -0.50365 9.87175e-19)
(7.00828 -0.519297 -2.03785e-24)
(6.99883 -0.534294 9.28668e-19)
(6.98986 -0.548675 -9.00191e-19)
(6.98147 -0.56248 0)
(6.97349 -0.575744 -8.4451e-19)
(6.96598 -0.588509 0)
(6.95871 -0.600782 3.74637e-24)
(6.95229 -0.612653 7.63313e-19)
(6.94556 -0.624047 -7.36625e-19)
(6.93977 -0.635117 -1.42005e-18)
(6.93346 -0.645741 0)
(6.9282 -0.656104 0)
(6.92263 -0.666081 -6.29929e-19)
(6.91747 -0.675787 -6.02907e-19)
(6.91204 -0.685157 0)
(6.90725 -0.694303 5.47824e-19)
(6.90216 -0.703146 5.57495e-24)
(6.89744 -0.711785 -4.90794e-19)
(6.89247 -0.720146 -4.61272e-19)
(6.88795 -0.728325 4.30957e-19)
(6.8833 -0.73627 -3.99721e-19)
(6.87871 -0.744015 -3.67426e-19)
(6.8742 -0.751569 -3.33939e-19)
(6.86972 -0.758929 0)
(6.86539 -0.766116 0)
(6.86112 -0.77313 0)
(6.85681 -0.779963 0)
(6.85249 -0.786616 -1.43098e-19)
(6.84825 -0.793103 4.9479e-20)
(6.84408 -0.799428 -2.60308e-26)
(6.8398 -0.805578 -1.52869e-21)
(6.8358 -0.811601 2.46288e-20)
(6.83147 -0.817411 4.97315e-24)
(6.82746 -0.823094 -1.83455e-25)
(6.82313 -0.828568 1.13586e-19)
(6.81913 -0.833923 1.47278e-19)
(6.81489 -0.839088 -1.83306e-19)
(6.81088 -0.844113 0)
(6.80678 -0.848965 0)
(6.80266 -0.853641 0)
(6.79851 -0.858151 1.77714e-19)
(6.7944 -0.8625 -2.03403e-19)
(6.79037 -0.866692 -2.31078e-19)
(6.78642 -0.87073 0)
(6.78257 -0.87462 -2.93131e-19)
(6.77873 -0.878349 3.2793e-19)
(6.77503 -0.881936 1.82777e-19)
(6.77142 -0.885373 0)
(6.76785 -0.888654 2.25171e-19)
(6.76464 -0.891823 0)
(6.76053 -0.89474 2.749e-19)
(10.008 0.674625 0)
(10.0007 0.589691 1.17501e-24)
(9.99056 0.508787 -1.20478e-18)
(9.97854 0.43173 1.17024e-18)
(9.96398 0.358294 -1.13658e-18)
(9.94681 0.288293 0)
(9.92691 0.221564 5.3609e-19)
(9.90473 0.157987 0)
(9.88068 0.0974225 0)
(9.85467 0.0397695 0)
(9.82786 -0.0151038 2.98315e-20)
(9.80205 -0.0673332 1.09318e-25)
(9.77716 -0.117051 -1.08631e-25)
(9.75256 -0.164374 0)
(9.72754 -0.209401 4.25171e-19)
(9.70219 -0.25223 0)
(9.67686 -0.292973 8.02697e-19)
(9.6519 -0.331739 3.76898e-25)
(9.62725 -0.368612 -7.57776e-19)
(9.60329 -0.403699 3.56079e-25)
(9.58016 -0.437092 -6.72263e-25)
(9.55801 -0.4689 -2.78008e-18)
(9.53666 -0.499185 0)
(9.51613 -0.528038 0)
(9.49646 -0.555552 1.27439e-18)
(9.47781 -0.581777 -3.71993e-24)
(9.46008 -0.606818 -1.20206e-18)
(9.44323 -0.630736 -1.16717e-18)
(9.42722 -0.653588 0)
(9.41211 -0.675438 -5.14667e-25)
(9.3978 -0.696352 -1.06687e-18)
(9.38424 -0.716393 -2.06946e-18)
(9.37137 -0.735611 2.00625e-18)
(9.35932 -0.754055 -4.53869e-25)
(9.34789 -0.771777 -9.41271e-19)
(9.33714 -0.78883 4.43968e-25)
(9.32677 -0.805226 8.80855e-19)
(9.31755 -0.821085 -4.37625e-24)
(9.308 -0.836306 -4.01271e-25)
(9.29971 -0.851092 1.5834e-18)
(9.29082 -0.865291 7.07276e-25)
(9.28328 -0.879131 -7.17962e-25)
(9.27538 -0.892456 0)
(9.26805 -0.905421 0)
(9.26041 -0.917935 -6.41936e-19)
(9.25357 -0.930149 -6.11022e-19)
(9.24637 -0.941958 5.79571e-19)
(9.23964 -0.95349 5.47464e-19)
(9.23264 -0.964652 5.14552e-19)
(9.22619 -0.975566 -6.74768e-24)
(9.2196 -0.98617 0)
(9.21309 -0.996504 8.19791e-19)
(9.20668 -1.00658 8.1116e-24)
(9.20033 -1.0164 -3.33696e-19)
(9.19416 -1.02599 -2.93175e-19)
(9.18809 -1.03534 -2.15116e-25)
(9.18199 -1.04445 -1.03181e-19)
(9.17586 -1.05332 7.98244e-20)
(9.16985 -1.06197 -1.10402e-19)
(9.16394 -1.0704 -8.16607e-26)
(9.15789 -1.0786 0)
(9.1522 -1.08662 0)
(9.14612 -1.09437 -5.85069e-20)
(9.14043 -1.10193 -5.92768e-26)
(9.13435 -1.10923 4.84427e-25)
(9.12868 -1.11636 -1.64305e-19)
(9.12273 -1.12324 2.04492e-19)
(9.11705 -1.12993 0)
(9.11129 -1.13639 0)
(9.10552 -1.14262 0)
(9.09969 -1.14862 0)
(9.09393 -1.15441 -9.05363e-25)
(9.08828 -1.15998 -2.57724e-19)
(9.08273 -1.16536 0)
(9.07732 -1.17053 6.53749e-19)
(9.07194 -1.17549 -7.31296e-19)
(9.06675 -1.18026 -1.60334e-24)
(9.0617 -1.18483 3.4574e-24)
(9.05671 -1.18919 1.48006e-24)
(9.05221 -1.1934 -2.77582e-19)
(9.04655 -1.19729 3.06352e-19)
(12.7399 0.858779 1.30642e-24)
(12.7315 0.750718 -2.5536e-24)
(12.7188 0.647735 1.301e-18)
(12.7033 0.54963 1.26408e-18)
(12.6842 0.45612 2.45631e-18)
(12.6615 0.366987 1.13791e-24)
(12.635 0.282022 5.79787e-19)
(12.6055 0.201082 -2.66129e-25)
(12.5733 0.123988 2.63676e-25)
(12.5385 0.050617 1.33061e-19)
(12.5025 -0.0191975 -5.45822e-26)
(12.4673 -0.0856253 2.51444e-19)
(12.433 -0.148831 0)
(12.3988 -0.20896 0)
(12.3642 -0.266142 0)
(12.3291 -0.320508 -8.98397e-19)
(12.294 -0.372196 -1.78173e-24)
(12.2594 -0.421346 -4.10401e-25)
(12.2253 -0.468075 8.25675e-19)
(12.1922 -0.512518 0)
(12.1602 -0.554791 7.33412e-25)
(12.1295 -0.59504 1.51738e-18)
(12.0999 -0.633345 0)
(12.0715 -0.669822 0)
(12.0444 -0.704596 -1.39337e-18)
(12.0187 -0.737734 -2.70793e-18)
(11.9943 -0.769363 0)
(11.9711 -0.799568 1.27784e-18)
(11.9491 -0.82842 0)
(11.9283 -0.855999 0)
(11.9087 -0.882394 -1.16931e-18)
(11.8901 -0.907683 1.13445e-18)
(11.8725 -0.931935 -2.20023e-18)
(11.856 -0.955202 1.03797e-24)
(11.8404 -0.977559 1.03283e-18)
(11.8258 -0.999071 9.32348e-25)
(11.8117 -1.01975 -9.43275e-25)
(11.799 -1.03976 -5.98547e-24)
(11.7861 -1.05896 8.3893e-25)
(11.7748 -1.0776 -8.69585e-19)
(11.7629 -1.09552 0)
(11.7526 -1.11297 0)
(11.7419 -1.12978 0)
(11.732 -1.14612 -6.8286e-25)
(11.7217 -1.16191 7.0558e-19)
(11.7124 -1.1773 6.71677e-19)
(11.7027 -1.19219 0)
(11.6936 -1.20672 6.01928e-19)
(11.6842 -1.22079 5.65797e-19)
(11.6754 -1.23454 -5.28686e-19)
(11.6665 -1.2479 4.90408e-19)
(11.6577 -1.26092 -4.50853e-19)
(11.6491 -1.27361 1.02515e-23)
(11.6405 -1.28597 3.67102e-19)
(11.6322 -1.29804 3.22549e-19)
(11.6239 -1.30981 0)
(11.6157 -1.32128 1.13534e-19)
(11.6074 -1.33244 1.39696e-25)
(11.5993 -1.34332 6.07436e-20)
(11.5914 -1.35393 3.21327e-20)
(11.5832 -1.36424 0)
(11.5755 -1.37433 3.02617e-20)
(11.5674 -1.38407 0)
(11.5597 -1.39358 -2.25302e-25)
(11.5516 -1.40276 5.33226e-25)
(11.5439 -1.41172 -1.80866e-19)
(11.536 -1.42037 2.25101e-19)
(11.5283 -1.42877 1.36234e-19)
(11.5206 -1.43688 5.7864e-25)
(11.5129 -1.4447 7.61304e-25)
(11.5051 -1.45224 2.18183e-19)
(11.4975 -1.45951 -2.497e-19)
(11.4899 -1.46651 2.83636e-19)
(11.4825 -1.47325 -3.20231e-19)
(11.4752 -1.47973 -3.59699e-19)
(11.4681 -1.48596 4.02335e-19)
(11.4611 -1.49194 0)
(11.4544 -1.49767 0)
(11.4477 -1.50314 4.05822e-24)
(11.4417 -1.50842 3.05293e-19)
(11.4343 -1.51331 4.49807e-24)
(15.5546 1.04853 2.74676e-24)
(15.5457 0.916678 -1.39155e-18)
(15.5308 0.790964 -2.70524e-18)
(15.512 0.671174 -1.31495e-18)
(15.4885 0.556984 -1.2784e-18)
(15.4603 0.448132 0)
(15.4272 0.344368 -3.12575e-24)
(15.39 0.245525 0)
(15.3494 0.15139 0)
(15.3055 0.0618156 -1.39148e-19)
(15.2598 -0.0234056 -3.38513e-20)
(15.2145 -0.104466 -2.63559e-19)
(15.1699 -0.181568 0)
(15.1252 -0.254884 4.99422e-19)
(15.0799 -0.324574 4.69357e-25)
(15.034 -0.390799 1.89324e-18)
(14.9881 -0.453733 -9.2159e-19)
(14.9427 -0.513543 8.97214e-19)
(14.898 -0.57038 8.21472e-25)
(14.8544 -0.624407 -2.3072e-26)
(14.8123 -0.675769 -8.00861e-25)
(14.7719 -0.724649 0)
(14.7329 -0.771143 0)
(14.6956 -0.815406 0)
(14.6599 -0.857584 -1.39259e-24)
(14.626 -0.897762 1.44367e-18)
(14.5939 -0.936101 -1.4039e-18)
(14.5634 -0.972702 1.36487e-18)
(14.5346 -1.00765 1.28785e-24)
(14.5073 -1.04106 0)
(14.4816 -1.07303 1.25172e-18)
(14.4572 -1.10364 -1.13626e-24)
(14.4342 -1.133 6.84001e-24)
(14.4126 -1.16117 1.11311e-24)
(14.3922 -1.18823 1.03421e-24)
(14.3731 -1.21426 -4.52835e-26)
(14.3547 -1.2393 -1.01301e-24)
(14.3381 -1.2635 -1.00389e-18)
(14.3215 -1.28674 0)
(14.3066 -1.3093 -9.34942e-19)
(14.2912 -1.33098 0)
(14.2777 -1.35209 -8.02415e-25)
(14.2639 -1.37243 8.15475e-25)
(14.251 -1.39221 0)
(14.2378 -1.41131 0)
(14.2257 -1.42993 0)
(14.2132 -1.44794 0)
(14.2014 -1.46551 -6.48599e-19)
(14.1892 -1.48252 -6.09803e-19)
(14.1778 -1.49914 5.6991e-19)
(14.1663 -1.51528 -1.11916e-23)
(14.155 -1.53102 4.3742e-25)
(14.1437 -1.54635 4.42032e-19)
(14.1326 -1.56128 0)
(14.1218 -1.57586 0)
(14.1111 -1.59007 -5.10838e-25)
(14.1005 -1.60392 1.15746e-25)
(14.0898 -1.6174 -9.48102e-20)
(14.0793 -1.63052 -3.10254e-25)
(14.069 -1.64332 -3.47e-20)
(14.0585 -1.65577 -1.99911e-21)
(14.0485 -1.66794 -3.26878e-20)
(14.0381 -1.67969 0)
(14.0281 -1.69116 -4.86868e-25)
(14.0177 -1.70223 5.03408e-25)
(14.0079 -1.71303 1.95439e-19)
(13.9977 -1.72346 -2.43257e-19)
(13.9879 -1.73358 4.43125e-24)
(13.978 -1.74336 -1.74692e-19)
(13.968 -1.75278 0)
(13.9581 -1.76186 -4.71659e-19)
(13.9484 -1.77062 2.69893e-19)
(13.9387 -1.77905 -3.06586e-19)
(13.9292 -1.78716 3.46121e-19)
(13.9199 -1.79496 5.93665e-24)
(13.9107 -1.80245 4.34855e-19)
(13.9018 -1.80964 0)
(13.8932 -1.81653 4.2283e-24)
(13.8847 -1.82311 -5.96665e-19)
(13.877 -1.82946 5.16311e-24)
(13.8676 -1.83537 -3.63927e-19)
(18.3412 1.23638 0)
(18.3326 1.08104 1.38035e-18)
(18.3165 0.932858 1.34261e-18)
(18.2953 0.791628 -1.30625e-18)
(18.2683 0.65698 1.27118e-18)
(18.2356 0.52861 2.0091e-26)
(18.197 0.40623 -6.0254e-19)
(18.1533 0.289646 0)
(18.1055 0.178611 0)
(18.0536 0.0729531 -1.39349e-19)
(17.9992 -0.0275678 3.39596e-20)
(17.9448 -0.123175 -2.49813e-25)
(17.8907 -0.214095 2.49212e-25)
(17.8362 -0.300531 -3.23865e-24)
(17.7808 -0.38267 0)
(17.7247 -0.460704 -5.89185e-24)
(17.6684 -0.534834 9.36096e-19)
(17.6126 -0.605264 -1.82663e-18)
(17.5574 -0.672164 0)
(17.5036 -0.735733 1.63431e-24)
(17.4515 -0.796141 -3.23414e-24)
(17.4012 -0.853604 -1.65356e-18)
(17.3528 -0.908244 1.51395e-24)
(17.3063 -0.96024 -2.99773e-24)
(17.2619 -1.00977 4.73315e-26)
(17.2197 -1.05694 1.44671e-24)
(17.1797 -1.10194 1.45324e-18)
(17.1417 -1.14488 -1.41485e-18)
(17.1056 -1.18588 1.28956e-24)
(17.0716 -1.22506 1.33944e-18)
(17.0395 -1.26254 0)
(17.0091 -1.29843 1.18357e-24)
(16.9804 -1.33285 1.22944e-18)
(16.9534 -1.36586 0)
(16.928 -1.39757 -1.15758e-18)
(16.9041 -1.42808 0)
(16.8813 -1.45741 -1.08647e-18)
(16.8605 -1.48576 -1.05105e-18)
(16.8399 -1.513 -1.01561e-18)
(16.8213 -1.53942 1.96025e-18)
(16.8023 -1.56484 0)
(16.7854 -1.58956 9.08553e-19)
(16.7683 -1.61339 -8.72303e-19)
(16.7523 -1.63655 -8.35664e-19)
(16.736 -1.65893 -7.98471e-19)
(16.7209 -1.68073 -7.60634e-19)
(16.7055 -1.70182 1.42775e-24)
(16.6907 -1.72239 0)
(16.6757 -1.74231 6.41979e-19)
(16.6616 -1.76175 -6.00237e-19)
(16.6473 -1.78065 -1.38929e-23)
(16.6332 -1.79906 -1.0318e-24)
(16.6193 -1.81699 0)
(16.6056 -1.83446 0)
(16.5921 -1.85151 0)
(16.5788 -1.86812 0)
(16.5656 -1.88431 0)
(16.5524 -1.90007 1.00126e-19)
(16.5394 -1.91542 5.26776e-25)
(16.5266 -1.93038 3.66476e-20)
(16.5137 -1.94493 2.11282e-21)
(16.5013 -1.95914 -2.03003e-25)
(16.4885 -1.97288 2.09579e-25)
(16.4761 -1.98627 0)
(16.4634 -1.99921 1.59473e-19)
(16.4512 -2.01181 -2.0681e-19)
(16.4387 -2.02399 0)
(16.4266 -2.03581 6.85792e-24)
(16.4144 -2.04722 1.84923e-19)
(16.4022 -2.05822 1.55918e-24)
(16.3901 -2.06882 -5.92347e-24)
(16.3781 -2.07904 2.85812e-19)
(16.3663 -2.08887 -6.13996e-24)
(16.3546 -2.09834 -2.69235e-24)
(16.3432 -2.10743 4.11786e-19)
(16.332 -2.11616 -4.60572e-19)
(16.3211 -2.12454 2.56657e-19)
(16.3105 -2.13257 2.49773e-25)
(16.3001 -2.14024 3.15945e-19)
(16.2906 -2.14763 0)
(16.2792 -2.15455 0)
(20.9802 1.4143 0)
(20.9733 1.23677 2.48372e-24)
(20.9573 1.06738 -1.27604e-18)
(20.9353 0.905893 1.24275e-18)
(20.9067 0.7519 -1.21084e-18)
(20.8715 0.60506 0)
(20.8296 0.465046 5.75663e-19)
(20.7819 0.331633 -1.61216e-24)
(20.7293 0.204544 5.28158e-25)
(20.672 0.0835848 1.33904e-19)
(20.6117 -0.0315177 -3.27042e-20)
(20.5508 -0.141012 -2.55707e-19)
(20.4897 -0.245146 4.82345e-25)
(20.428 -0.34415 -9.78122e-19)
(20.3651 -0.438236 -4.78427e-19)
(20.3011 -0.527618 -9.36199e-19)
(20.2366 -0.612528 -9.16038e-19)
(20.1725 -0.693188 8.96314e-19)
(20.109 -0.769799 1.6958e-24)
(20.0468 -0.842581 -1.61299e-24)
(19.9862 -0.91173 1.62377e-24)
(19.9276 -0.97749 1.64094e-18)
(19.871 -1.04 -3.0597e-24)
(19.8166 -1.09948 -1.5676e-18)
(19.7644 -1.15612 -1.53133e-18)
(19.7148 -1.21005 2.85207e-24)
(19.6675 -1.26148 -1.41556e-24)
(19.6227 -1.31055 1.42371e-18)
(19.5801 -1.3574 0)
(19.5399 -1.40215 -1.35282e-18)
(19.5018 -1.44495 0)
(19.4658 -1.48594 1.28254e-18)
(19.4318 -1.52524 -2.42746e-24)
(19.3998 -1.56292 0)
(19.3696 -1.59912 2.35556e-18)
(19.3412 -1.63394 2.13169e-24)
(19.3141 -1.66742 8.2006e-24)
(19.2893 -1.69977 1.46947e-23)
(19.2649 -1.73086 1.03781e-18)
(19.2426 -1.761 -1.29983e-23)
(19.2203 -1.79001 0)
(19.2001 -1.81821 -9.30803e-19)
(19.1798 -1.8454 1.37768e-23)
(19.1608 -1.87182 8.57398e-19)
(19.1415 -1.89736 1.43985e-23)
(19.1236 -1.92222 7.81471e-19)
(19.1053 -1.94628 -1.46778e-24)
(19.0878 -1.96973 -1.28586e-24)
(19.0701 -1.99245 -6.60796e-19)
(19.0532 -2.01462 -6.18169e-19)
(19.0363 -2.03616 -5.74095e-19)
(19.0196 -2.05715 5.28353e-19)
(19.003 -2.07759 4.80771e-19)
(18.9867 -2.0975 -4.3112e-19)
(18.9708 -2.11692 0)
(18.955 -2.13585 5.56999e-25)
(18.9393 -2.1543 -5.72495e-25)
(18.9236 -2.17225 -1.0353e-19)
(18.9082 -2.18973 -7.16487e-20)
(18.893 -2.20677 -3.79341e-20)
(18.8778 -2.22334 0)
(18.863 -2.23951 -3.5831e-20)
(18.8479 -2.25517 3.66978e-25)
(18.8332 -2.27041 -3.79327e-25)
(18.8183 -2.28514 1.38584e-23)
(18.8038 -2.29949 -1.45193e-23)
(18.7891 -2.31336 -2.67149e-19)
(18.7748 -2.32681 -1.61754e-19)
(18.7604 -2.3398 1.91998e-19)
(18.7461 -2.35232 0)
(18.7319 -2.36439 -9.61635e-24)
(18.7178 -2.37601 -2.96914e-19)
(18.7039 -2.3872 6.74722e-19)
(18.6902 -2.39797 0)
(18.6768 -2.40831 -4.27963e-19)
(18.6636 -2.41824 -4.78734e-19)
(18.6507 -2.42777 -2.66778e-19)
(18.6383 -2.4369 0)
(18.6261 -2.44562 -3.28435e-19)
(18.6149 -2.45403 -1.10859e-23)
(18.6016 -2.46192 4.00548e-19)
(23.3861 1.57649 -4.76333e-24)
(23.3822 1.37885 -1.2089e-18)
(23.3679 1.19019 1.17784e-18)
(23.3469 1.01029 -1.14828e-18)
(23.3188 0.838693 -1.12018e-18)
(23.2835 0.67503 0)
(23.2409 0.518932 -5.34211e-19)
(23.192 0.370148 0)
(23.1376 0.228366 0)
(23.0781 0.093374 1.24987e-19)
(23.015 -0.0351305 -2.30912e-25)
(22.9508 -0.157418 2.39799e-19)
(22.8862 -0.273756 -8.86398e-25)
(22.8206 -0.384395 4.61139e-19)
(22.7535 -0.489569 4.52448e-19)
(22.6849 -0.589512 8.88042e-19)
(22.6156 -0.684474 -8.71632e-19)
(22.5464 -0.774699 8.55572e-19)
(22.4775 -0.860406 1.57955e-24)
(22.4096 -0.941833 -3.14375e-24)
(22.3433 -1.0192 1.56479e-24)
(22.2788 -1.09276 1.58625e-18)
(22.2163 -1.1627 -4.42731e-24)
(22.1559 -1.22922 1.5245e-18)
(22.0979 -1.29257 1.49346e-18)
(22.0425 -1.35287 0)
(21.9896 -1.41037 -2.68275e-24)
(21.9393 -1.46523 -1.39935e-18)
(21.8915 -1.51759 0)
(21.8462 -1.56761 1.3357e-18)
(21.8032 -1.61543 -2.43939e-24)
(21.7625 -1.66123 -1.27146e-18)
(21.724 -1.70512 0)
(21.6877 -1.74721 0)
(21.6535 -1.78764 -1.1737e-18)
(21.6212 -1.82653 -1.14068e-18)
(21.5904 -1.86391 1.10742e-18)
(21.5621 -1.90002 1.39969e-23)
(21.5343 -1.93474 2.03243e-24)
(21.5089 -1.96838 -2.01148e-18)
(21.4836 -2.00077 0)
(21.4604 -2.03224 0)
(21.4375 -2.06259 1.80018e-18)
(21.4157 -2.09208 -8.63718e-19)
(21.3938 -2.1206 8.26596e-19)
(21.3733 -2.14833 -7.88628e-19)
(21.3525 -2.17518 -7.49716e-19)
(21.3325 -2.20135 7.09747e-19)
(21.3124 -2.22671 0)
(21.2931 -2.25144 6.25879e-19)
(21.2739 -2.27548 5.81661e-19)
(21.2548 -2.29889 -5.35744e-19)
(21.236 -2.32169 -2.22789e-23)
(21.2173 -2.3439 8.75524e-19)
(21.1991 -2.36556 3.85262e-19)
(21.1811 -2.38667 2.50679e-25)
(21.1631 -2.40723 1.16488e-24)
(21.1453 -2.42725 2.10789e-19)
(21.1277 -2.44674 7.29882e-20)
(21.1104 -2.46573 -3.86378e-20)
(21.093 -2.48421 -1.58336e-25)
(21.0761 -2.50224 3.65607e-20)
(21.0589 -2.5197 7.78864e-20)
(21.0422 -2.53668 0)
(21.0253 -2.55312 -1.68991e-19)
(21.0088 -2.56911 -2.03449e-23)
(20.9921 -2.58458 2.73199e-19)
(20.9758 -2.59956 -1.65498e-19)
(20.9595 -2.61404 -1.96484e-19)
(20.9433 -2.628 0)
(20.9272 -2.64145 -7.36679e-24)
(20.9112 -2.65441 4.20077e-25)
(20.8955 -2.66689 -3.45655e-19)
(20.88 -2.67889 0)
(20.8648 -2.69042 4.38679e-19)
(20.8498 -2.70148 9.81547e-19)
(20.8353 -2.7121 8.09682e-24)
(20.8213 -2.72228 0)
(20.8075 -2.73201 6.73594e-19)
(20.7948 -2.74137 -1.10798e-23)
(20.7798 -2.75022 -8.2146e-19)
(25.5251 1.72069 0)
(25.5257 1.50528 2.20495e-18)
(25.5147 1.29957 0)
(25.4964 1.10333 1.04915e-18)
(25.4705 0.916125 1.02463e-18)
(25.4371 0.737515 0)
(25.396 0.567107 -4.89946e-19)
(25.3481 0.404621 0)
(25.2945 0.249719 0)
(25.2353 0.102171 -2.30436e-19)
(25.1722 -0.0383529 0)
(25.1075 -0.172139 2.21954e-19)
(25.0421 -0.299475 0)
(24.9756 -0.420623 -4.28901e-19)
(24.9073 -0.535838 7.75092e-25)
(24.8373 -0.645373 -1.58864e-23)
(24.7662 -0.749489 1.63517e-18)
(24.6947 -0.848444 -8.04946e-19)
(24.6233 -0.942473 0)
(24.5526 -1.03183 0)
(24.4831 -1.11674 -7.67815e-19)
(24.4153 -1.19749 -3.02208e-18)
(24.3492 -1.27425 -2.87854e-24)
(24.2851 -1.34728 1.46118e-18)
(24.2232 -1.41683 1.43572e-18)
(24.1639 -1.48302 1.40979e-18)
(24.1071 -1.54613 -2.59376e-24)
(24.0529 -1.60634 1.35655e-18)
(24.0013 -1.6638 0)
(23.9522 -1.71868 -2.6027e-18)
(23.9055 -1.77115 1.27307e-18)
(23.8613 -1.82139 0)
(23.8193 -1.86954 0)
(23.7796 -1.9157 0)
(23.7421 -1.96004 -1.15551e-18)
(23.7067 -2.00268 1.12502e-18)
(23.6729 -2.04367 0)
(23.6417 -2.08324 1.06256e-18)
(23.6113 -2.12131 1.0305e-18)
(23.5832 -2.15818 9.97992e-19)
(23.5554 -2.1937 0)
(23.5298 -2.22817 0)
(23.5045 -2.26145 -8.96494e-19)
(23.4804 -2.29376 1.72248e-18)
(23.4564 -2.32501 -8.25083e-19)
(23.4337 -2.3554 1.93475e-23)
(23.4108 -2.38484 1.49982e-18)
(23.3888 -2.41351 -7.10638e-19)
(23.3666 -2.4413 -6.69942e-19)
(23.3452 -2.4684 -6.27808e-19)
(23.324 -2.49473 -5.84025e-19)
(23.3029 -2.52038 -5.38352e-19)
(23.2821 -2.54536 -4.90667e-19)
(23.2615 -2.56969 -2.97986e-23)
(23.2413 -2.59342 -7.76283e-19)
(23.2213 -2.61653 0)
(23.2015 -2.63906 0)
(23.1817 -2.66099 -2.12837e-19)
(23.1623 -2.68233 7.37298e-20)
(23.1431 -2.70313 3.9074e-20)
(23.1239 -2.72337 2.95147e-26)
(23.1052 -2.74311 -3.70549e-20)
(23.0862 -2.76223 1.96266e-23)
(23.0677 -2.78083 -1.10587e-24)
(23.0491 -2.79884 1.14515e-24)
(23.0308 -2.81635 2.22582e-19)
(23.0125 -2.83329 2.29696e-24)
(22.9945 -2.8497 1.68103e-19)
(22.9765 -2.86556 -1.99694e-19)
(22.9587 -2.88085 0)
(22.9409 -2.89559 5.40257e-19)
(22.9234 -2.90979 -3.09427e-19)
(22.9061 -2.92346 -3.51766e-19)
(22.8891 -2.93661 6.29928e-24)
(22.8724 -2.94924 -4.46632e-19)
(22.856 -2.96137 -4.99755e-19)
(22.84 -2.973 0)
(22.8246 -2.98416 0)
(22.8095 -2.99482 -3.4307e-19)
(22.7956 -3.00508 0)
(22.7792 -3.01483 4.18395e-19)
(27.4031 1.84729 1.57802e-23)
(27.4096 1.61639 -1.00898e-18)
(27.4032 1.39579 9.84704e-19)
(27.3888 1.18527 0)
(27.3665 0.984367 -9.40236e-19)
(27.3364 0.792637 9.20054e-19)
(27.2983 0.609648 4.50613e-19)
(27.2532 0.435098 0)
(27.202 0.268623 -4.09265e-25)
(27.1449 0.109979 1.06394e-19)
(27.0836 -0.0411863 1.00752e-25)
(27.0203 -0.185175 -2.05611e-19)
(26.9561 -0.322284 -7.80986e-25)
(26.8906 -0.452794 3.98861e-19)
(26.8232 -0.576974 3.69261e-26)
(26.7538 -0.695089 -7.75856e-19)
(26.6831 -0.807413 -7.65629e-19)
(26.6115 -0.914216 2.84404e-24)
(26.5397 -1.01574 -2.88518e-24)
(26.4682 -1.11225 -7.36385e-19)
(26.3976 -1.20398 7.26829e-19)
(26.3283 -1.29124 2.35143e-23)
(26.2605 -1.3742 2.74054e-24)
(26.1944 -1.45314 -1.39519e-18)
(26.1304 -1.5283 -1.37481e-18)
(26.0687 -1.59985 -2.70757e-18)
(26.0095 -1.66807 0)
(25.9527 -1.73314 -1.30977e-18)
(25.8984 -1.79525 -4.99665e-24)
(25.8466 -1.85456 1.26288e-18)
(25.7974 -1.91126 -1.23842e-18)
(25.7505 -1.96555 0)
(25.7059 -2.01757 0)
(25.6637 -2.06743 4.33677e-24)
(25.6237 -2.11532 2.00154e-23)
(25.5858 -2.16137 1.10591e-18)
(25.5496 -2.20564 -4.01571e-24)
(25.5161 -2.24836 4.09342e-24)
(25.4835 -2.28947 -2.47781e-23)
(25.4532 -2.32927 0)
(25.4233 -2.36762 -3.54957e-24)
(25.3956 -2.40482 3.62313e-24)
(25.3684 -2.44075 3.29831e-24)
(25.3424 -2.47562 -8.56968e-19)
(25.3166 -2.50936 2.98736e-23)
(25.292 -2.54216 2.71371e-23)
(25.2674 -2.57393 -3.09216e-23)
(25.2435 -2.60488 0)
(25.2196 -2.63488 6.70454e-19)
(25.1965 -2.66411 6.28944e-19)
(25.1736 -2.69253 0)
(25.1508 -2.72021 5.40425e-19)
(25.1283 -2.74716 0)
(25.106 -2.77342 -4.43201e-19)
(25.0841 -2.79901 3.90744e-19)
(25.0624 -2.82395 0)
(25.0409 -2.84825 0)
(25.0195 -2.87191 1.94387e-23)
(24.9984 -2.89493 -7.44839e-20)
(24.9776 -2.91736 0)
(24.9568 -2.9392 1.3228e-25)
(24.9365 -2.96049 -2.28613e-23)
(24.916 -2.98112 -7.99761e-20)
(24.896 -3.00118 1.25388e-19)
(24.8758 -3.02062 -1.73955e-19)
(24.8561 -3.0395 1.55304e-24)
(24.8363 -3.05779 0)
(24.8168 -3.0755 1.70834e-19)
(24.7974 -3.09261 -1.20849e-23)
(24.7782 -3.10911 -3.42782e-24)
(24.759 -3.12502 -5.49659e-19)
(24.7401 -3.14035 3.14905e-19)
(24.7215 -3.15511 -1.85392e-23)
(24.7032 -3.1693 -1.28295e-23)
(24.6852 -3.18294 2.77854e-23)
(24.6675 -3.19603 -5.09179e-19)
(24.6503 -3.20859 1.68042e-23)
(24.6337 -3.22064 1.98175e-23)
(24.6175 -3.23215 -3.49622e-19)
(24.6026 -3.24323 -2.41983e-23)
(24.585 -3.25382 2.5411e-23)
(29.0435 1.95785 -7.2584e-24)
(29.0572 1.71357 1.42592e-23)
(29.0567 1.48004 -9.12993e-19)
(29.0473 1.25708 0)
(29.0298 1.04424 3.90928e-23)
(29.004 0.841045 -8.55233e-19)
(28.97 0.647045 0)
(28.9286 0.461918 0)
(28.8809 0.285281 0)
(28.8271 0.116878 -9.92854e-20)
(28.7687 -0.0436624 0)