/*--------------------------------*- C++ -*----------------------------------*\
| =========                 |                                                 |
| \\      /  F ield         | OpenFOAM: The Open Source CFD Toolbox           |
|  \\    /   O peration     | Version:  2412                                  |
|   \\  /    A nd           | Website:  www.openfoam.com                      |
|    \\/     M anipulation  |                                                 |
\*---------------------------------------------------------------------------*/
FoamFile
{
    version     2.0;
    format      ascii;
    arch        "LSB;label=32;scalar=64";
    class       volVectorField;
    location    "40";
    object      U;
}
// * * * * * * * * * * * * * * * * * * * * * * * * * * * * * * * * * * * * * //

dimensions      [0 1 -1 0 0 0 0];

internalField   nonuniform List<vector> 
8553
(
(-0.00296185 -0.00468748 0)
(-0.0937001 -0.188793 -3.51145e-20)
(-0.352592 -0.452522 4.57478e-20)
(-0.265108 -0.228818 -3.6135e-25)
(0.620647 0.348056 0)
(2.40426 0.750375 9.97746e-24)
(3.89264 0.451867 -7.55159e-24)
(4.07109 -0.0438974 -1.63424e-21)
(3.4932 -0.197712 -1.19919e-24)
(2.95166 -0.143835 0)
(2.76071 -0.106931 -3.6978e-21)
(2.6446 -0.0833574 1.53576e-21)
(2.58961 -0.0714998 0)
(2.57351 -0.0708098 0)
(2.57217 -0.0797507 -2.66845e-25)
(2.56409 -0.0887988 2.54264e-25)
(2.55005 -0.0947919 1.73638e-21)
(2.53099 -0.0972999 -1.49115e-21)
(2.50805 -0.0959274 -1.50421e-25)
(2.48836 -0.092418 1.16024e-21)
(2.4744 -0.0898391 2.12457e-21)
(2.46465 -0.0885454 -3.95234e-21)
(2.45811 -0.0886729 -1.13602e-25)
(2.45236 -0.0896789 -1.71705e-21)
(2.44604 -0.0904436 -1.5933e-21)
(2.43937 -0.0908072 1.47962e-21)
(2.43277 -0.0907554 1.38161e-21)
(2.42694 -0.0906461 -2.59586e-21)
(2.42196 -0.0907103 0)
(2.41758 -0.0909614 0)
(2.41346 -0.0913144 2.19162e-21)
(2.40956 -0.0916614 -6.34281e-26)
(2.40591 -0.0919937 1.97291e-21)
(2.40246 -0.0923316 -3.75475e-21)
(2.39928 -0.092715 -5.70146e-26)
(2.39641 -0.0931495 5.0192e-26)
(2.39376 -0.0936224 4.99734e-26)
(2.39121 -0.0941226 -3.12462e-21)
(2.38885 -0.0946532 9.43835e-28)
(2.38671 -0.0952205 -5.74146e-21)
(2.38467 -0.0958228 -4.22083e-26)
(2.38277 -0.0964607 -5.29618e-21)
(2.38095 -0.0971328 0)
(2.37929 -0.097842 0)
(2.37774 -0.0985885 4.7227e-21)
(2.37628 -0.0993712 -3.4748e-26)
(2.3749 -0.100191 3.33727e-26)
(2.37365 -0.10105 -8.47977e-21)
(2.37246 -0.101946 3.13655e-26)
(2.37131 -0.102879 5.1019e-28)
(2.37023 -0.103851 7.65756e-21)
(2.36923 -0.104862 0)
(2.36829 -0.105914 -7.17515e-21)
(2.3674 -0.107004 0)
(2.36657 -0.108135 1.34748e-20)
(2.36579 -0.109304 -1.30671e-20)
(2.36506 -0.110513 1.26779e-20)
(2.36434 -0.11176 0)
(2.36362 -0.113044 2.28559e-26)
(2.36298 -0.114369 1.19605e-28)
(2.3624 -0.115736 1.12856e-20)
(2.3618 -0.11714 2.09806e-26)
(2.36128 -0.118586 2.1352e-20)
(2.36076 -0.120069 2.07804e-20)
(2.36027 -0.121594 -1.92539e-26)
(2.35982 -0.123158 -1.97066e-20)
(2.35933 -0.124758 3.88064e-26)
(2.35888 -0.126398 -1.78191e-26)
(2.3585 -0.128078 -1.74316e-26)
(2.35811 -0.129795 -1.78056e-20)
(2.35772 -0.131549 -4.24868e-29)
(2.35735 -0.133346 1.6159e-26)
(2.35698 -0.13518 3.3137e-20)
(2.35665 -0.137054 -3.2375e-20)
(2.35632 -0.138965 6.3285e-20)
(2.35603 -0.140916 3.09393e-20)
(2.35574 -0.142907 3.02635e-20)
(2.35546 -0.144939 0)
(2.17889 -0.71738 -3.32545e-24)
(2.16439 -0.720974 -2.85105e-20)
(2.15987 -0.719231 -3.65856e-24)
(2.1822 -0.717191 -1.14824e-25)
(2.24177 -0.718901 -1.54271e-20)
(2.35895 -0.730526 2.75868e-20)
(2.6742 -0.804959 1.89567e-20)
(2.97338 -1.04553 -2.52255e-24)
(2.64851 -1.32681 6.96375e-24)
(1.64776 -1.26304 3.71952e-20)
(0.60068 -0.701749 4.45322e-24)
(0.0599563 -0.116192 0)
(-0.0212733 0.0516065 -2.78292e-20)
(-0.00791355 0.0695902 -8.75472e-21)
(0.0155985 0.123713 0)
(0.000972886 0.0410995 0)
(-0.162047 -0.319261 5.78467e-20)
(-0.632025 -0.819508 -7.58611e-20)
(-0.00205925 -0.0351594 2.85244e-21)
(2.81691 1.53856 0)
(7.7081 2.38149 3.15587e-23)
(11.4134 1.30582 3.02344e-20)
(11.6587 -0.124671 -2.59045e-21)
(10.0978 -0.558171 2.37175e-24)
(8.70979 -0.415253 -2.29228e-24)
(8.20306 -0.313919 2.96518e-21)
(7.89437 -0.246793 5.80668e-25)
(7.74873 -0.213138 -2.1921e-21)
(7.70415 -0.211825 -2.02666e-21)
(7.69534 -0.238544 8.89232e-25)
(7.6682 -0.265389 -4.09692e-25)
(7.62491 -0.283154 -2.79695e-21)
(7.56822 -0.290586 2.40188e-21)
(7.50261 -0.286592 -4.17117e-21)
(7.44679 -0.276295 -2.35351e-25)
(7.40674 -0.268731 -3.42525e-21)
(7.37835 -0.264956 3.18863e-21)
(7.35859 -0.265368 1.80357e-25)
(7.34079 -0.268364 5.54999e-21)
(7.32148 -0.270636 5.15378e-21)
(7.30141 -0.271722 -2.39447e-21)
(7.28174 -0.271579 -1.36012e-25)
(7.26431 -0.271263 -4.20713e-21)
(7.24924 -0.27146 -1.21493e-25)
(7.23585 -0.272208 -1.14633e-25)
(7.22332 -0.273262 -3.56024e-21)
(7.21142 -0.274296 0)
(7.2003 -0.275286 0)
(7.18987 -0.276297 0)
(7.18024 -0.277443 8.61577e-26)
(7.17144 -0.278738 5.57007e-21)
(7.16326 -0.280146 -1.62581e-25)
(7.15551 -0.28164 7.77922e-26)
(7.14832 -0.283225 -9.77844e-21)
(7.14169 -0.284915 9.38324e-21)
(7.13544 -0.286712 6.84931e-26)
(7.12962 -0.288617 1.73302e-20)
(7.12411 -0.290626 6.38685e-26)
(7.119 -0.292744 -8.0294e-21)
(7.11425 -0.294972 0)
(7.10978 -0.297311 -6.26406e-26)
(7.10557 -0.299761 5.47231e-26)
(7.10167 -0.302324 -1.39123e-20)
(7.09794 -0.304998 5.14859e-26)
(7.09443 -0.307786 2.60001e-20)
(7.09112 -0.310692 1.25777e-20)
(7.08804 -0.313715 4.6616e-26)
(7.08517 -0.316858 3.27697e-28)
(7.08242 -0.320117 -4.34372e-26)
(7.07983 -0.323494 -2.21609e-20)
(7.07741 -0.326989 2.14966e-20)
(7.07514 -0.330603 -2.0862e-20)
(7.07292 -0.334328 2.02555e-20)
(7.07078 -0.33817 -1.96754e-20)
(7.0688 -0.342132 0)
(7.06697 -0.346216 -3.71782e-20)
(7.06517 -0.350415 -1.80802e-20)
(7.06351 -0.354735 -3.51852e-20)
(7.06188 -0.359172 -3.42498e-20)
(7.06039 -0.363729 -6.34758e-26)
(7.05893 -0.368403 9.09991e-26)
(7.05745 -0.373189 3.1665e-20)
(7.0561 -0.378093 -3.08712e-20)
(7.05486 -0.383113 0)
(7.05364 -0.388244 5.87532e-20)
(7.0524 -0.393491 0)
(7.05126 -0.398861 0)
(7.0501 -0.404345 0)
(7.04902 -0.409946 5.10122e-26)
(7.04802 -0.415661 -1.43956e-25)
(7.04708 -0.421491 4.86784e-26)
(7.0461 -0.42744 -4.99736e-20)
(7.04519 -0.433514 0)
(6.52664 -2.14864 -4.44352e-20)
(6.48835 -2.16109 -6.67116e-24)
(6.47385 -2.15596 5.92401e-27)
(6.52987 -2.14705 4.82609e-24)
(6.68635 -2.14643 0)
(6.99393 -2.17168 -4.45406e-20)
(7.80825 -2.35882 -1.51844e-20)
(8.61275 -3.02817 5.63174e-21)
(7.83911 -3.91374 0)
(5.19201 -3.95332 -5.99913e-20)
(2.21146 -2.54147 -7.26371e-24)
(0.478741 -0.838736 4.89963e-20)
(0.0523159 -0.165652 4.57483e-20)
(-0.00522443 0.0648371 0)
(0.0429882 0.32855 0)
(0.00897062 0.124959 6.93437e-23)
(-0.157845 -0.269489 -6.50266e-20)
(-0.575412 -0.750591 0)
(0.998105 0.760151 -1.60049e-21)
(5.99215 3.21633 8.12556e-20)
(13.5672 4.12611 0)
(18.7223 2.11184 -6.44364e-20)
(18.7351 -0.189415 2.78806e-21)
(16.3517 -0.880668 -4.9674e-25)
(14.3411 -0.669793 2.49302e-24)
(13.5812 -0.513741 -7.4026e-25)
(13.1173 -0.406901 7.12623e-25)
(12.9 -0.353553 -1.95206e-25)
(12.8306 -0.352445 1.86345e-25)
(12.8095 -0.396852 0)
(12.7595 -0.441177 -4.15092e-25)
(12.6846 -0.470478 3.96044e-25)
(12.5896 -0.482712 0)
(12.4834 -0.476217 4.62138e-21)
(12.3941 -0.459372 0)
(12.3295 -0.44701 -3.80305e-21)
(12.2833 -0.44087 -3.75516e-27)
(12.25 -0.441602 -2.04056e-25)
(12.2195 -0.446567 -6.17874e-21)
(12.1867 -0.450324 -5.74189e-21)
(12.1529 -0.452125 -5.69941e-27)
(12.1202 -0.451902 2.49666e-21)
(12.0911 -0.451395 -1.26288e-26)
(12.0657 -0.451729 -4.43831e-21)
(12.043 -0.452972 2.56757e-25)
(12.0218 -0.454722 0)
(12.0017 -0.456439 -2.3085e-25)
(11.9828 -0.458079 4.38879e-25)
(11.9653 -0.459761 -4.18093e-25)
(11.949 -0.461666 6.53572e-21)
(11.9341 -0.463815 -6.24563e-21)
(11.9202 -0.466152 1.81812e-25)
(11.9071 -0.468633 5.72317e-21)
(11.8949 -0.471264 1.82842e-25)
(11.8836 -0.474068 1.05362e-20)
(11.8729 -0.477051 -1.55074e-25)
(11.8631 -0.480216 -9.73543e-21)
(11.8538 -0.483556 -1.42394e-25)
(11.8451 -0.487073 9.02627e-21)
(11.837 -0.490774 -8.70112e-21)
(11.8294 -0.494659 -1.55731e-25)
(11.8222 -0.498729 2.47251e-25)
(11.8155 -0.502987 1.56534e-20)
(11.8092 -0.507431 1.51299e-20)
(11.8032 -0.512067 -2.92653e-20)
(11.7976 -0.516897 -1.41598e-20)
(11.7923 -0.521921 -1.04976e-25)
(11.7874 -0.527144 -7.38062e-28)
(11.7827 -0.532561 9.78465e-26)
(11.7783 -0.538173 -2.49633e-20)
(11.7741 -0.543983 -9.26779e-26)
(11.7702 -0.549988 8.93742e-26)
(11.7665 -0.556183 -2.28252e-20)
(11.7628 -0.562572 2.21741e-20)
(11.7594 -0.569158 0)
(11.7563 -0.575946 2.09543e-20)
(11.7532 -0.58293 4.0765e-20)
(11.7503 -0.59011 0)
(11.7476 -0.597486 3.8618e-20)
(11.7449 -0.605061 3.76093e-20)
(11.7424 -0.61283 3.66413e-20)
(11.7399 -0.62079 -6.82334e-26)
(11.7376 -0.628943 9.72326e-26)
(11.7353 -0.637285 6.46682e-26)
(11.7332 -0.645815 -6.62745e-20)
(11.7311 -0.654539 3.2346e-20)
(11.7291 -0.663466 -3.15851e-20)
(11.7271 -0.672585 -1.17687e-25)
(11.7252 -0.681896 1.15002e-25)
(11.7234 -0.691394 -1.5696e-25)
(11.7217 -0.701083 -5.49272e-26)
(11.72 -0.710972 0)
(11.7183 -0.721069 0)
(10.8727 -3.57919 9.82657e-20)
(10.8162 -3.60222 5.12612e-20)
(10.7907 -3.5938 0)
(10.8695 -3.57537 -2.78857e-20)
(11.1023 -3.56742 2.74809e-20)
(11.5598 -3.59814 2.43918e-20)
(12.7488 -3.86623 0)
(13.9767 -4.91902 -8.64707e-23)
(12.9697 -6.4509 9.11716e-24)
(9.04183 -6.82991 2.5485e-22)
(4.26792 -4.84019 1.47552e-21)
(1.18917 -2.03984 7.20992e-23)
(0.219928 -0.655746 -5.10411e-20)
(0.0122591 -0.0506027 0)
(0.0664878 0.496443 0)
(0.0152836 0.210069 -1.17555e-22)
(-0.117472 -0.141989 7.32373e-23)
(-0.257808 -0.374918 0)
(2.62711 2.04021 0)
(9.89 5.22292 -1.67073e-19)
(19.5154 5.84771 -1.41233e-19)
(25.2943 2.82234 3.35801e-20)
(24.8347 -0.226078 1.38274e-23)
(21.8421 -1.14289 -1.2768e-20)
(19.4507 -0.88872 2.00553e-24)
(18.5138 -0.691644 -3.50494e-21)
(17.9399 -0.551918 -2.93402e-21)
(17.6744 -0.48255 2.61934e-21)
(17.5853 -0.482469 2.43056e-21)
(17.5479 -0.543178 -2.20019e-21)
(17.4724 -0.603356 8.11781e-26)
(17.3649 -0.643084 1.65355e-24)
(17.2329 -0.659645 -2.91476e-21)
(17.0905 -0.650953 -2.53811e-21)
(16.9723 -0.628303 1.1212e-24)
(16.8867 -0.611708 -7.62945e-25)
(16.8247 -0.603511 -3.90873e-21)
(16.779 -0.604589 4.5062e-25)
(16.7362 -0.611366 3.4152e-21)
(16.6904 -0.616484 3.1768e-21)
(16.6436 -0.618945 2.95796e-21)
(16.5987 -0.618666 2.17969e-27)
(16.5587 -0.618005 -3.0564e-28)
(16.5237 -0.618482 4.93002e-21)
(16.4923 -0.620193 4.6714e-21)
(16.4629 -0.622589 0)
(16.4351 -0.624941 -4.20837e-21)
(16.4089 -0.627186 5.23831e-28)
(16.3846 -0.62949 -2.32658e-25)
(16.3622 -0.6321 2.23069e-25)
(16.3414 -0.635039 6.97151e-21)
(16.322 -0.638233 0)
(16.3039 -0.641627 6.39559e-21)
(16.2869 -0.645225 6.13578e-21)
(16.2711 -0.649059 -1.17849e-20)
(16.2563 -0.653139 -1.13283e-20)
(16.2425 -0.657465 -1.08983e-20)
(16.2296 -0.662033 0)
(16.2175 -0.666844 1.01116e-20)
(16.2062 -0.671903 7.33872e-26)
(16.1955 -0.677216 -7.02032e-26)
(16.1855 -0.682782 1.8171e-20)
(16.1762 -0.688605 1.34482e-25)
(16.1674 -0.694685 -3.39493e-20)
(16.1591 -0.701026 3.28413e-20)
(16.1512 -0.707632 0)
(16.1438 -0.714506 1.53918e-20)
(16.1369 -0.721647 0)
(16.1303 -0.729056 0)
(16.1241 -0.736735 1.92595e-25)
(16.1182 -0.74468 2.72107e-20)
(16.1127 -0.752893 2.6415e-20)
(16.1074 -0.761368 0)
(16.1024 -0.77011 0)
(16.0976 -0.779119 -2.42289e-20)
(16.0931 -0.788405 -8.96326e-26)
(16.0888 -0.797957 -2.33392e-25)
(16.0846 -0.807779 -4.46155e-20)
(16.0807 -0.817869 0)
(16.077 -0.828231 -4.2309e-20)
(16.0733 -0.838859 -7.84671e-26)
(16.0698 -0.849748 0)
(16.0665 -0.860901 7.83631e-20)
(16.0633 -0.872312 -7.30073e-26)
(16.0602 -0.883979 3.72961e-20)
(16.0572 -0.895914 -3.64084e-20)
(16.0543 -0.908124 3.42487e-25)
(16.0514 -0.9206 -6.94668e-20)
(16.0487 -0.933336 0)
(16.0461 -0.946325 -6.63653e-20)
(16.0435 -0.959575 1.2388e-25)
(16.041 -0.9731 6.34993e-20)
(16.0387 -0.986912 0)
(14.9025 -4.90547 -5.38275e-20)
(14.8344 -4.93996 -1.37162e-23)
(14.7981 -4.92869 0)
(14.8879 -4.89912 3.04308e-20)
(15.1729 -4.8802 -2.99278e-20)
(15.7335 -4.90953 1.39318e-23)
(17.1593 -5.2259 0)
(18.7051 -6.59529 -6.48341e-21)
(17.6757 -8.76413 3.18059e-20)
(12.9249 -9.68692 3.34068e-20)
(6.64162 -7.43391 2.77696e-22)
(2.14897 -3.61996 -5.78839e-20)
(0.467863 -1.33274 -1.30086e-23)
(0.0469842 -0.229644 1.79939e-20)
(0.087043 0.619985 3.51444e-23)
(0.0121745 0.252717 4.58028e-20)
(-0.0737194 -0.0233891 -2.16801e-22)
(0.283324 0.236332 -1.01818e-19)
(4.78755 3.68929 4.49004e-23)
(14.1683 7.37076 6.78266e-22)
(25.0605 7.37863 1.40879e-19)
(30.7067 3.39892 3.41095e-20)
(29.6587 -0.232891 -1.48617e-23)
(26.2971 -1.32695 2.65978e-20)
(23.7493 -1.05966 7.00073e-25)
(22.7159 -0.837028 7.47543e-21)
(22.0801 -0.673195 3.14277e-21)
(21.7906 -0.592462 0)
(21.6876 -0.594122 -2.62083e-21)
(21.6318 -0.668738 2.37621e-21)
(21.5296 -0.742185 9.81897e-25)
(21.3907 -0.790622 3.6677e-21)
(21.2255 -0.810811 1.41325e-25)
(21.0537 -0.800419 2.7635e-21)
(20.9133 -0.773096 5.96764e-25)
(20.8117 -0.753127 4.5776e-21)
(20.7377 -0.743338 4.27831e-21)
(20.6816 -0.74479 4.85673e-25)
(20.6282 -0.753137 -4.62349e-25)
(20.5712 -0.759433 0)
(20.5135 -0.762486 0)
(20.4584 -0.762198 -4.54547e-27)
(20.4095 -0.761451 1.15078e-20)
(20.3666 -0.76209 3.3209e-25)
(20.3279 -0.76423 -5.16713e-21)
(20.2917 -0.767205 -4.9055e-21)
(20.2573 -0.77012 9.32708e-21)
(20.225 -0.772904 -4.44106e-21)
(20.195 -0.775761 0)
(20.1674 -0.778993 -8.10015e-21)
(20.1417 -0.782625 -7.75042e-21)
(20.1177 -0.78657 0)
(20.0953 -0.790761 -7.11975e-21)
(20.0743 -0.795202 -2.07846e-25)
(20.0548 -0.799931 0)
(20.0365 -0.804963 1.26335e-20)
(20.0194 -0.810298 2.43204e-20)
(20.0034 -0.815928 -1.79465e-25)
(19.9884 -0.821859 -1.12929e-20)
(19.9743 -0.828094 1.46214e-25)
(19.961 -0.834641 -1.05173e-20)
(19.9486 -0.841501 -2.03196e-20)
(19.937 -0.848676 1.49219e-25)
(19.926 -0.856167 1.89947e-20)
(19.9157 -0.863979 -1.83806e-20)
(19.9059 -0.872119 1.77958e-20)
(19.8967 -0.880588 -1.72392e-20)
(19.888 -0.889386 -1.67081e-20)
(19.8798 -0.898514 2.46306e-25)
(19.8721 -0.907974 6.28664e-20)
(19.8647 -0.917761 -3.60143e-25)
(19.8578 -0.927878 -2.96218e-20)
(19.8511 -0.938318 -2.87741e-20)
(19.8448 -0.949088 0)
(19.8388 -0.960185 3.05951e-25)
(19.8331 -0.971623 0)
(19.8276 -0.983388 -2.57279e-20)
(19.8224 -0.995486 1.00172e-19)
(19.8174 -1.00791 1.85616e-25)
(19.8126 -1.02068 0)
(19.8081 -1.03377 0)
(19.8036 -1.04718 -4.51342e-20)
(19.7993 -1.06092 -4.40157e-20)
(19.7952 -1.07497 0)
(19.7913 -1.08934 0)
(19.7874 -1.10404 0)
(19.7837 -1.11908 7.99175e-20)
(19.78 -1.13444 7.80786e-20)
(19.7765 -1.15013 0)
(19.773 -1.16612 0)
(19.7697 -1.18244 1.39275e-25)
(19.7664 -1.19909 -8.27847e-25)
(19.7633 -1.2161 1.33349e-25)
(18.374 -6.04789 0)
(18.3008 -6.09363 0)
(18.2552 -6.08028 3.19552e-20)
(18.3445 -6.03904 -6.56425e-20)
(18.6561 -6.00684 -1.45345e-23)
(19.2704 -6.02914 1.48709e-23)
(20.801 -6.36548 2.92483e-24)
(22.545 -7.97057 6.31661e-21)
(21.6423 -10.7021 -3.3251e-20)
(16.5511 -12.3076 3.2764e-20)
(9.17386 -10.1324 5.27777e-22)
(3.3267 -5.48673 6.06066e-20)
(0.793633 -2.15563 6.07924e-20)
(0.099994 -0.44322 -1.98874e-20)
(0.105649 0.692288 0)
(-0.00798023 0.216452 -5.09815e-20)
(-0.0387418 0.0392111 0)
(1.05177 1.0569 1.0678e-19)
(7.35699 5.58182 0)
(18.4486 9.40367 7.88102e-20)
(29.7549 8.6864 1.34755e-19)
(34.7422 3.82891 -3.49503e-20)
(33.1367 -0.204422 -2.8981e-23)
(29.6335 -1.43628 -1.36649e-20)
(27.104 -1.17801 5.07943e-21)
(26.0461 -0.945132 3.27552e-24)
(25.392 -0.766535 -3.33463e-21)
(25.0996 -0.679315 0)
(24.9874 -0.68321 2.80095e-21)
(24.9122 -0.768774 -8.37486e-26)
(24.784 -0.852428 9.59213e-25)
(24.6169 -0.907594 -3.94738e-21)
(24.4247 -0.930672 3.41299e-21)
(24.2319 -0.919209 -2.98562e-21)
(24.0773 -0.888568 -1.29262e-24)
(23.9658 -0.86624 -4.96926e-21)
(23.8844 -0.855399 2.27547e-24)
(23.8211 -0.857259 -1.07634e-24)
(23.7597 -0.866897 0)
(23.6943 -0.874167 3.81762e-21)
(23.6284 -0.877748 0)
(23.5661 -0.877527 -3.34657e-21)
(23.5111 -0.876786 -1.26342e-20)
(23.4627 -0.87762 5.98867e-21)
(23.4189 -0.880156 -6.95147e-25)
(23.3778 -0.883636 1.47348e-25)
(23.3387 -0.887043 -5.14669e-21)
(23.3021 -0.890297 1.09943e-25)
(23.2681 -0.893634 -9.37318e-21)
(23.2367 -0.897399 8.96665e-21)
(23.2076 -0.901619 8.58795e-21)
(23.1804 -0.906194 0)
(23.1549 -0.91105 0)
(23.131 -0.916192 0)
(23.1088 -0.921663 -1.46002e-20)
(23.088 -0.927481 -1.40516e-20)
(23.0685 -0.933645 -1.35351e-20)
(23.0502 -0.940148 3.96491e-25)
(23.0331 -0.946996 0)
(23.017 -0.954194 1.21465e-20)
(23.002 -0.96175 -1.17319e-20)
(22.9878 -0.969664 2.26769e-20)
(22.9745 -0.97794 3.35928e-25)
(22.9619 -0.986579 2.12165e-20)
(22.9501 -0.995588 3.14607e-25)
(22.9389 -1.00497 -1.98942e-20)
(22.9283 -1.01474 -2.9303e-25)
(22.9183 -1.02488 1.86909e-20)
(22.9089 -1.0354 0)
(22.9 -1.0463 -6.36525e-25)
(22.8915 -1.05758 -3.41589e-20)
(22.8835 -1.06924 -2.52286e-25)
(22.8758 -1.08127 5.60864e-25)
(22.8685 -1.09369 3.13341e-20)
(22.8615 -1.10647 3.04719e-20)
(22.8549 -1.11965 -2.25539e-25)
(22.8485 -1.13321 -2.20631e-25)
(22.8425 -1.14715 -1.12347e-19)
(22.8366 -1.16146 0)
(22.831 -1.17616 -2.03749e-25)
(22.8256 -1.19125 1.9778e-25)
(22.8204 -1.2067 7.973e-25)
(22.8154 -1.22252 0)
(22.8105 -1.23871 -4.82067e-20)
(22.8058 -1.25526 4.70535e-20)
(22.8012 -1.27219 -1.75018e-25)
(22.7968 -1.28951 -4.48782e-20)
(22.7924 -1.30721 -8.77002e-20)
(22.7882 -1.32527 -1.63336e-25)
(22.7841 -1.3437 0)
(22.7801 -1.36249 8.1989e-20)
(22.7761 -1.38167 -1.16874e-24)
(22.7723 -1.40126 7.85331e-20)
(21.1543 -6.96278 0)
(21.081 -7.01852 6.53521e-20)
(21.0285 -7.00402 -6.86332e-20)
(21.1085 -6.95183 3.5172e-20)
(21.423 -6.90553 -3.43142e-23)
(22.0459 -6.91704 2.39592e-23)
(23.5745 -7.25407 -2.3996e-23)
(25.3996 -9.01254 -1.26927e-20)
(24.6698 -12.1731 3.24418e-20)
(19.6658 -14.5175 -3.29237e-20)
(11.6822 -12.7275 8.60475e-22)
(4.6766 -7.54343 1.87899e-22)
(1.20765 -3.11978 -6.37803e-20)
(0.176922 -0.683089 0)
(0.122709 0.710291 -9.97694e-23)
(-0.0503039 0.0811503 5.70677e-20)
(0.00395399 0.0598082 1.00052e-19)
(2.07535 2.08981 -1.07048e-19)
(10.1658 7.56369 -1.31764e-24)
(22.3851 11.2387 -7.14117e-20)
(33.3347 9.53803 -1.30412e-19)
(37.428 4.12518 0)
(35.4126 -0.142162 0)
(31.9467 -1.47432 -1.3881e-20)
(29.5399 -1.2471 -5.23624e-21)
(28.5095 -1.01699 -4.11293e-21)
(27.8694 -0.832214 -4.02205e-24)
(27.5872 -0.742893 -3.03973e-24)
(27.4681 -0.74919 -2.95745e-21)
(27.3732 -0.842655 -2.5347e-24)
(27.2209 -0.933458 1.99357e-25)
(27.0306 -0.993441 2.15465e-24)
(26.8189 -1.01876 -3.64915e-21)
(26.6138 -1.00692 -1.5197e-24)
(26.4527 -0.974333 2.89824e-21)
(26.3374 -0.950652 5.35735e-21)
(26.2529 -0.939286 -5.02578e-21)
(26.1857 -0.941574 -1.14536e-24)
(26.1191 -0.952224 1.0944e-24)
(26.0483 -0.960274 -4.14915e-21)
(25.9776 -0.96433 3.88096e-21)
(25.9112 -0.964262 8.8735e-25)
(25.853 -0.963628 6.90349e-21)
(25.8017 -0.964694 -2.12316e-25)
(25.7551 -0.967596 -6.23489e-21)
(25.7113 -0.971514 5.93504e-21)
(25.6697 -0.975346 5.65726e-21)
(25.6307 -0.979007 5.40078e-21)
(25.5946 -0.982757 2.06596e-20)
(25.5612 -0.98697 9.893e-21)
(25.5302 -0.991674 0)
(25.5012 -0.996763 0)
(25.474 -1.00216 5.35639e-25)
(25.4486 -1.00786 8.40925e-21)
(25.4248 -1.01392 1.61899e-20)
(25.4026 -1.02036 1.55941e-20)
(25.3818 -1.02718 -1.50309e-20)
(25.3623 -1.03437 -1.45005e-20)
(25.344 -1.04194 4.25343e-25)
(25.3268 -1.04988 1.35184e-20)
(25.3107 -1.05822 3.68018e-25)
(25.2955 -1.06695 -1.08864e-24)
(25.2812 -1.07608 -3.02543e-27)
(25.2677 -1.08561 -2.36673e-20)
(25.255 -1.09554 2.29228e-20)
(25.2429 -1.10588 0)
(25.2316 -1.11664 0)
(25.2208 -1.12782 2.08874e-20)
(25.2107 -1.13941 2.02674e-20)
(25.201 -1.15142 -9.79764e-25)
(25.1918 -1.16384 -3.82157e-20)
(25.1831 -1.17668 -5.66492e-25)
(25.1748 -1.18992 8.61852e-25)
(25.1669 -1.20359 -3.50901e-20)
(25.1592 -1.21767 -2.59664e-25)
(25.1521 -1.23217 2.54053e-25)
(25.1451 -1.2471 3.23325e-20)
(25.1384 -1.26244 6.29737e-20)
(25.132 -1.2782 6.13462e-20)
(25.1259 -1.29438 0)
(25.1199 -1.31097 0)
(25.1142 -1.32798 1.13673e-19)
(25.1086 -1.34539 -5.54452e-20)
(25.1032 -1.36321 5.41096e-20)
(25.098 -1.38142 -5.28249e-20)
(25.0928 -1.40005 3.93027e-25)
(25.0879 -1.4191 0)
(25.083 -1.43857 9.85035e-20)
(25.0782 -1.45845 -3.66956e-25)
(25.0736 -1.47872 0)
(25.069 -1.49939 -1.49707e-24)
(25.0645 -1.52049 -9.01587e-20)
(25.0603 -1.54204 -8.82625e-20)
(23.2232 -7.64349 6.73466e-20)
(23.1529 -7.70728 -6.96489e-20)
(23.0966 -7.69268 7.30172e-20)
(23.1625 -7.63149 -1.20924e-24)
(23.4627 -7.57207 -3.58502e-24)
(24.0597 -7.57203 -7.72001e-24)
(25.5206 -7.89665 -2.47837e-23)
(27.3267 -9.74541 6.75023e-22)
(26.6939 -13.1585 -3.3243e-20)
(22.1381 -16.2156 -2.94772e-20)
(13.9866 -15.0137 -3.08322e-21)
(6.14155 -9.66235 -6.00814e-20)
(1.72554 -4.23277 0)
(0.285195 -0.964032 2.30496e-20)
(0.137181 0.676356 5.64742e-20)
(-0.113189 -0.153189 -6.37711e-20)
(0.0982795 0.0940398 -1.05992e-19)
(3.35364 3.30458 2.05923e-19)
(13.0046 9.44694 0)
(25.7154 12.6577 6.61331e-20)
(35.7763 10.111 1.16949e-22)
(38.9898 4.3147 3.41935e-20)
(36.7685 -0.0519155 -3.04312e-21)
(33.4459 -1.46003 1.39256e-20)
(31.1997 -1.27514 0)
(30.2224 -1.05779 0)
(29.6126 -0.873731 3.64575e-21)
(29.3445 -0.785744 -3.31331e-21)
(29.2177 -0.79444 3.10491e-21)
(29.1028 -0.892966 0)
(28.9293 -0.988255 0)
(28.7212 -1.05146 2.06742e-24)
(28.4974 -1.07854 -1.32825e-24)
(28.2876 -1.06698 0)
(28.1261 -1.03366 -6.18295e-21)
(28.0114 -1.00949 5.73035e-21)
(27.9269 -0.998031 5.39187e-21)
(27.8582 -1.00074 5.0916e-21)
(27.7888 -1.01214 -1.17917e-24)
(27.7154 -1.0208 -4.48009e-21)
(27.6425 -1.02528 -2.025e-25)
(27.5749 -1.02544 -3.95795e-21)
(27.5158 -1.025 -9.13802e-25)
(27.4638 -1.02633 -7.13498e-21)
(27.4165 -1.02956 6.80035e-21)
(27.3719 -1.03386 -6.48533e-21)
(27.3296 -1.03805 -6.18938e-21)
(27.2899 -1.04206 5.91888e-21)
(27.2532 -1.04616 -1.17292e-24)
(27.2193 -1.05074 -1.08738e-20)
(27.1877 -1.05584 1.04393e-20)
(27.1582 -1.06134 0)
(27.1306 -1.06715 0)
(27.1047 -1.0733 -9.28903e-21)
(27.0805 -1.07981 0)
(27.0579 -1.08673 1.72571e-20)
(27.0367 -1.09404 1.15151e-24)
(27.0168 -1.10175 1.60768e-20)
(26.9981 -1.10985 4.75895e-25)
(26.9806 -1.11836 -1.47157e-24)
(26.9641 -1.12728 9.70481e-25)
(26.9486 -1.13662 -5.62068e-20)
(26.934 -1.14637 8.26911e-25)
(26.9201 -1.15655 -2.63563e-20)
(26.9071 -1.16716 -2.55437e-20)
(26.8948 -1.17821 0)
(26.8831 -1.18969 0)
(26.872 -1.20162 -2.33121e-20)
(26.8616 -1.21399 -2.26332e-20)
(26.8516 -1.2268 -8.79221e-20)
(26.8421 -1.24006 1.35167e-24)
(26.8331 -1.25375 4.15139e-20)
(26.8245 -1.26788 4.03673e-20)
(26.8163 -1.28245 -3.9264e-20)
(26.8084 -1.29747 -3.82058e-20)
(26.8009 -1.31293 5.68928e-25)
(26.7937 -1.32884 -3.62166e-20)
(26.7867 -1.3452 5.36958e-25)
(26.78 -1.362 -6.87539e-20)
(26.7735 -1.37925 5.10189e-25)
(26.7673 -1.39694 4.99526e-25)
(26.7612 -1.41506 -1.27494e-19)
(26.7553 -1.43362 6.22032e-20)
(26.7496 -1.4526 -6.07145e-20)
(26.744 -1.47201 -4.51623e-25)
(26.7386 -1.49186 0)
(26.7333 -1.51217 0)
(26.728 -1.53292 -1.10614e-19)
(26.7229 -1.55409 0)
(26.7179 -1.57569 0)
(26.713 -1.59771 -1.03506e-19)
(26.7081 -1.62019 -3.86689e-25)
(26.7036 -1.64315 3.7817e-25)
(24.6498 -8.11284 8.10403e-23)
(24.5843 -8.18255 -3.60298e-23)
(24.5276 -8.16887 -3.84557e-20)
(24.5793 -8.10168 3.89795e-20)
(24.8561 -8.03195 0)
(25.4091 -8.02296 0)
(26.7731 -8.34462 2.07989e-20)
(28.4895 -10.2115 8.71074e-22)
(27.8528 -13.7307 -3.04909e-20)
(23.9493 -17.386 2.8854e-20)
(15.8972 -16.8146 -5.44944e-23)
(7.63662 -11.7206 6.27624e-23)
(2.35613 -5.48218 -6.3746e-20)
(0.435541 -1.31369 -2.40539e-20)
(0.150118 0.596991 -6.23231e-20)
(-0.188746 -0.464448 0)
(0.295363 0.205852 3.60566e-22)
(4.84093 4.60487 -9.49049e-20)
(15.6726 11.0778 -3.87813e-21)
(28.3302 13.6278 -5.68469e-20)
(37.1932 10.367 1.09637e-22)
(39.7663 4.43687 -9.34652e-22)
(37.5173 0.0564971 5.95557e-21)
(34.3748 -1.40684 -1.38122e-20)
(32.2813 -1.2722 0)
(31.3587 -1.07457 0)
(30.7802 -0.896204 -3.75309e-21)
(30.5214 -0.811172 3.4208e-21)
(30.3835 -0.823317 -3.21872e-21)
(30.2487 -0.924131 -2.93882e-21)
(30.0571 -1.02188 4.92149e-24)
(29.8365 -1.08715 -4.35231e-25)
(29.6066 -1.11568 -3.25772e-24)
(29.3972 -1.10493 0)
(29.2388 -1.07184 6.54298e-21)
(29.1268 -1.04784 -1.21635e-20)
(29.0437 -1.03658 2.82933e-24)
(28.9746 -1.03967 1.59445e-24)
(28.9039 -1.05159 -5.11198e-21)
(28.8294 -1.06071 2.98056e-24)
(28.7563 -1.06558 -3.2051e-25)
(28.6891 -1.06601 4.26207e-21)
(28.6307 -1.06581 -1.28514e-26)
(28.5794 -1.06741 -1.88848e-24)
(28.5325 -1.07094 0)
(28.4883 -1.07554 7.04051e-21)
(28.4463 -1.08004 6.73854e-21)
(28.407 -1.08434 -6.45154e-21)
(28.3707 -1.08873 -3.68106e-24)
(28.3372 -1.09361 1.18923e-20)
(28.3061 -1.09901 -1.14331e-20)
(28.2769 -1.10482 -1.33928e-24)
(28.2496 -1.11096 0)
(28.224 -1.11744 1.02149e-20)
(28.2001 -1.12429 -1.9708e-20)
(28.1777 -1.13156 -1.9028e-20)
(28.1568 -1.13924 1.83786e-20)
(28.1371 -1.14732 0)
(28.1186 -1.15581 1.05274e-24)
(28.1012 -1.16472 -3.32435e-20)
(28.0849 -1.17405 3.21807e-20)
(28.0695 -1.18382 3.11686e-20)
(28.0549 -1.19402 0)
(28.0412 -1.20465 1.25683e-24)
(28.0282 -1.21574 2.83935e-20)
(28.016 -1.22727 2.75486e-20)
(28.0043 -1.23927 8.19011e-25)
(27.9933 -1.25172 -1.5846e-24)
(27.9829 -1.26463 7.6691e-25)
(27.9729 -1.278 9.80385e-20)
(27.9634 -1.29183 4.76514e-20)
(27.9544 -1.30611 -4.63392e-20)
(27.9458 -1.32085 0)
(27.9375 -1.33605 4.38675e-20)
(27.9295 -1.35171 4.27041e-20)
(27.922 -1.36783 0)
(27.9146 -1.38442 0)
(27.9076 -1.40147 0)
(27.9008 -1.41899 7.6959e-20)
(27.8942 -1.43696 -5.73697e-25)
(27.8878 -1.4554 -7.31986e-20)
(27.8816 -1.47429 2.43971e-24)
(27.8756 -1.49364 6.97134e-20)
(27.8697 -1.51342 1.36132e-19)
(27.864 -1.53364 5.07904e-25)
(27.8584 -1.55433 6.4952e-20)
(27.8529 -1.57549 -4.84874e-25)
(27.8474 -1.59711 1.24129e-19)
(27.8421 -1.61917 -4.62594e-25)
(27.8369 -1.64167 -4.53372e-25)
(27.8318 -1.66461 1.16216e-19)
(27.8267 -1.68804 1.13773e-19)
(27.822 -1.71196 1.11415e-19)
(25.5561 -8.41103 -7.49079e-20)
(25.4964 -8.48479 -7.54695e-23)
(25.4425 -8.47294 -7.79973e-23)
(25.4838 -8.40334 -4.05904e-20)
(25.7362 -8.32755 7.80005e-23)
(26.2443 -8.31623 5.30786e-23)
(27.4981 -8.64027 -2.10358e-20)
(29.1044 -10.4951 4.89285e-21)
(28.476 -14.0349 3.10221e-20)
(25.0933 -18.1407 2.3619e-20)
(17.2885 -17.922 -7.3586e-21)
(9.03547 -13.4817 0)
(3.08628 -6.80147 -2.57723e-23)
(0.640527 -1.76091 -1.72077e-22)
(0.162862 0.476123 0)
(-0.262469 -0.809327 1.60935e-19)
(0.633257 0.440566 -4.24337e-22)
(6.45219 5.88871 0)
(17.9925 12.3096 3.33708e-21)
(30.2308 14.2575 2.44441e-21)
(37.8903 10.4108 1.03981e-19)
(40.076 4.51526 -3.39689e-20)
(37.9147 0.182556 -2.87523e-21)
(34.948 -1.32492 1.35085e-20)
(32.9794 -1.24734 6.21118e-24)
(32.0972 -1.07391 0)
(31.5404 -0.904759 3.80749e-21)
(31.2816 -0.825837 -3.50049e-21)
(31.1285 -0.837779 3.30331e-21)
(30.9748 -0.941149 1.11533e-23)
(30.7682 -1.03987 -5.51598e-24)
(30.5392 -1.10637 -4.7988e-21)
(30.3072 -1.13654 4.21233e-21)
(30.1005 -1.12679 -3.74301e-21)
(29.9459 -1.09465 -3.42019e-21)
(29.8366 -1.07123 -1.53221e-24)
(29.7543 -1.06035 0)
(29.6846 -1.06376 1.46818e-24)
(29.613 -1.07601 5.4071e-21)
(29.5381 -1.08546 5.09683e-21)
(29.4654 -1.09066 -4.80323e-21)
(29.3991 -1.09139 0)
(29.3418 -1.09146 0)
(29.2914 -1.0933 2.01909e-24)
(29.2454 -1.09708 -1.9369e-24)
(29.2018 -1.10193 -1.85261e-24)
(29.1605 -1.10666 3.03569e-24)
(29.122 -1.1112 -6.9833e-21)
(29.0865 -1.11582 -1.34234e-20)
(29.0538 -1.12093 -2.5836e-20)
(29.0233 -1.12656 8.28004e-27)
(28.9947 -1.13261 -1.46013e-24)
(28.968 -1.13898 0)
(28.943 -1.14569 -6.71e-25)
(28.9196 -1.15279 2.1589e-20)
(28.8978 -1.16031 2.5476e-24)
(28.8773 -1.16824 -2.01868e-20)
(28.858 -1.17658 0)
(28.8399 -1.18534 0)
(28.8229 -1.19452 1.83203e-20)
(28.8069 -1.20414 -1.77542e-20)
(28.7918 -1.2142 0)
(28.7775 -1.22469 0)
(28.7641 -1.23564 6.47999e-20)
(28.7513 -1.24704 -3.14517e-20)
(28.7393 -1.2589 -6.10776e-20)
(28.7278 -1.27123 9.08616e-25)
(28.717 -1.28403 -2.88274e-20)
(28.7067 -1.2973 8.58092e-25)
(28.6969 -1.31103 -3.39312e-24)
(28.6875 -1.32524 -8.11446e-25)
(28.6786 -1.33991 -5.1579e-20)
(28.67 -1.35505 0)
(28.6618 -1.37066 0)
(28.654 -1.38674 0)
(28.6464 -1.4033 4.63869e-20)
(28.6391 -1.42033 6.88051e-25)
(28.6321 -1.43783 8.81499e-20)
(28.6253 -1.45581 -1.71932e-19)
(28.6187 -1.47427 0)
(28.6123 -1.49319 8.18332e-20)
(28.6061 -1.51259 3.25616e-24)
(28.6 -1.53244 -7.79897e-20)
(28.5941 -1.55274 -7.6173e-20)
(28.5883 -1.57349 -7.44188e-20)
(28.5825 -1.59472 -7.2732e-20)
(28.577 -1.61644 7.11029e-20)
(28.5714 -1.63862 -1.06207e-24)
(28.566 -1.66126 1.03683e-24)
(28.5607 -1.68435 -1.33116e-19)
(28.5554 -1.70789 -1.30306e-19)
(28.5502 -1.73192 -1.27598e-19)
(28.5455 -1.75648 -1.2498e-19)
(26.0269 -8.6601 -7.8216e-23)
(25.9785 -8.65077 8.08606e-23)
(26.0151 -8.58222 4.15823e-20)
(26.2479 -8.50541 7.96156e-23)
(26.7206 -8.50001 3.30225e-20)
(27.8647 -8.82503 0)
(29.3954 -10.6682 -2.98375e-23)
(28.7068 -14.1763 -2.63472e-20)
(25.667 -18.404 -2.29265e-20)
(18.2398 -18.5341 1.6038e-20)
(10.2591 -14.8388 5.0956e-20)
(3.88367 -8.09073 5.55097e-20)
(0.910123 -2.31674 -1.45344e-24)
(0.176672 0.305323 -2.80383e-22)
(-0.316696 -1.14539 -3.48788e-19)
(1.13404 0.803481 0)
(8.09849 7.04274 0)
(19.88 13.069 -5.62829e-21)
(31.4969 14.4876 4.60705e-20)
(38.1713 10.3461 -9.95098e-20)
(40.1475 4.57529 -3.1698e-20)
(38.1262 0.317618 -9.81895e-23)
(35.3208 -1.22335 0)
(33.448 -1.20683 0)
(32.586 -1.06054 -7.95259e-24)
(32.0381 -0.902213 8.06393e-24)
(31.7695 -0.830897 3.51709e-21)
(31.5983 -0.845421 0)
(31.4275 -0.948303 6.11936e-21)
(31.209 -1.04737 5.49546e-21)
(30.9747 -1.11497 9.80519e-21)
(30.7423 -1.14593 -4.32165e-21)
(30.5382 -1.13807 2.51614e-24)
(30.386 -1.10716 0)
(30.2775 -1.08458 6.61301e-21)
(30.1946 -1.07416 -6.27877e-21)
(30.1232 -1.07783 4.24217e-24)
(30.0502 -1.09027 -2.79164e-24)
(29.9747 -1.09996 2.58644e-24)
(29.9021 -1.10545 -2.49428e-24)
(29.8365 -1.10647 4.80075e-21)
(29.7797 -1.10679 1.46295e-26)
(29.7298 -1.10885 8.79228e-21)
(29.6842 -1.11282 8.43568e-21)
(29.641 -1.11786 1.97724e-24)
(29.6001 -1.12277 -7.78485e-21)
(29.5621 -1.12749 7.48966e-21)
(29.5272 -1.13228 -1.44292e-20)
(29.4949 -1.13756 1.0523e-24)
(29.4649 -1.14336 0)
(29.4367 -1.14957 1.58889e-24)
(29.4104 -1.15611 -1.52597e-24)