/*--------------------------------*- C++ -*----------------------------------*\
| =========                 |                                                 |
| \\      /  F ield         | OpenFOAM: The Open Source CFD Toolbox           |
|  \\    /   O peration     | Version:  2412                                  |
|   \\  /    A nd           | Website:  www.openfoam.com                      |
|    \\/     M anipulation  |                                                 |
\*---------------------------------------------------------------------------*/
FoamFile
{
    version     2.0;
    format      ascii;
    arch        "LSB;label=32;scalar=64";
    class       volScalarField;
    location    "360";
    object      p;
}
// * * * * * * * * * * * * * * * * * * * * * * * * * * * * * * * * * * * * * //

dimensions      [0 2 -2 0 0 0 0];

internalField   nonuniform List<scalar> 
8553
(
92.783
58.6846
66.7279
75.8035
75.3534
58.8392
43.6673
48.6884
62.651
65.0589
67.1658
66.867
66.0052
64.6903
64.4295
64.7344
65.4097
66.2732
66.9579
67.1276
67.0734
66.8237
66.5421
66.3677
66.195
66.0003
65.6889
65.2507
64.7007
64.0549
63.3239
62.495
61.5644
60.5345
59.4231
58.251
57.04
55.8114
54.5871
53.3827
52.2187
51.1168
50.0616
49.0534
48.1179
47.2372
46.3761
45.5533
44.7995
44.0715
43.3358
42.6255
41.9501
41.2796
40.6078
39.9281
39.2504
38.5874
37.9321
37.2789
36.6232
35.9639
35.3112
34.6593
34.0091
33.375
32.7508
32.1352
31.5302
30.9298
30.3319
29.7482
29.1868
28.6377
28.0948
27.5682
27.0607
26.5686
63.3398
63.9595
65.0371
65.7026
65.7831
64.3234
61.8985
52.0152
47.055
56.1556
66.133
72.4236
63.7354
45.2062
74.6029
92.6543
58.7501
66.7565
75.7961
75.3296
58.8756
43.7238
48.698
62.6398
65.0523
67.163
66.8656
66.0053
64.691
64.43
64.7345
65.4094
66.2727
66.9574
67.1273
67.0732
66.8236
66.5421
66.3677
66.1949
66.0002
65.6888
65.2506
64.7007
64.0548
63.3238
62.495
61.5644
60.5345
59.4231
58.2509
57.04
55.8114
54.5871
53.3826
52.2187
51.1168
50.0616
49.0534
48.1179
47.2372
46.3761
45.5533
44.7995
44.0715
43.3358
42.6255
41.9501
41.2796
40.6078
39.9281
39.2504
38.5874
37.9321
37.2789
36.6232
35.9639
35.3112
34.6593
34.0091
33.375
32.7508
32.1352
31.5303
30.9298
30.3319
29.7482
29.1868
28.6377
28.0948
27.5682
27.0607
26.5686
63.3401
63.9598
65.037
65.7014
65.7808
64.318
61.8898
52.02
47.0936
56.1885
66.1274
72.3916
63.7355
45.3331
74.5205
92.5212
58.8213
66.8244
75.793
75.3103
58.9188
43.79
48.7104
62.6277
65.0449
67.1597
66.8641
66.0053
64.6918
64.4306
64.7345
65.4091
66.2721
66.9568
67.1269
67.073
66.8235
66.5421
66.3676
66.1949
66.0001
65.6887
65.2505
64.7006
64.0548
63.3238
62.4949
61.5643
60.5344
59.4231
58.2509
57.04
55.8113
54.5871
53.3826
52.2187
51.1168
50.0616
49.0534
48.1179
47.2372
46.3761
45.5533
44.7995
44.0715
43.3358
42.6255
41.9501
41.2796
40.6078
39.9281
39.2504
38.5874
37.9322
37.2789
36.6232
35.9639
35.3112
34.6593
34.0091
33.375
32.7508
32.1352
31.5303
30.9298
30.3319
29.7482
29.1868
28.6377
28.0948
27.5682
27.0607
26.5686
63.3404
63.9602
65.0368
65.7001
65.7781
64.3122
61.8803
52.0265
47.1395
56.228
66.1229
72.379
63.7148
45.4745
74.4478
92.3662
58.9111
66.8965
75.7784
75.2944
58.9778
43.8756
48.7317
62.6155
65.037
67.1559
66.8623
66.0052
64.6927
64.4313
64.7348
65.4089
66.2716
66.9562
67.1265
67.0728
66.8234
66.542
66.3676
66.1948
66
65.6886
65.2505
64.7006
64.0548
63.3238
62.4949
61.5643
60.5344
59.423
58.2509
57.04
55.8113
54.5871
53.3826
52.2187
51.1168
50.0616
49.0534
48.1179
47.2372
46.3761
45.5533
44.7995
44.0715
43.3358
42.6255
41.9501
41.2796
40.6078
39.9281
39.2504
38.5874
37.9322
37.2789
36.6232
35.9639
35.3112
34.6593
34.0091
33.375
32.7508
32.1352
31.5303
30.9298
30.332
29.7482
29.1868
28.6377
28.0948
27.5682
27.0607
26.5686
63.3408
63.9607
65.0366
65.6987
65.7751
64.3059
61.8706
52.039
47.1996
56.2749
66.1248
72.3686
63.7168
45.6233
74.4178
92.1767
59.0167
66.9946
75.7523
75.289
59.0497
43.993
48.77
62.6034
65.0278
67.1509
66.8599
66.005
64.6939
64.4326
64.7354
65.4089
66.271
66.9554
67.1259
67.0725
66.8233
66.5421
66.3676
66.1947
66
65.6885
65.2504
64.7005
64.0547
63.3237
62.4949
61.5643
60.5344
59.423
58.2509
57.04
55.8113
54.5871
53.3826
52.2187
51.1168
50.0616
49.0534
48.1179
47.2372
46.3761
45.5533
44.7995
44.0715
43.3358
42.6255
41.9501
41.2796
40.6078
39.9281
39.2504
38.5875
37.9322
37.2789
36.6232
35.9639
35.3112
34.6593
34.0091
33.3751
32.7508
32.1352
31.5303
30.9298
30.332
29.7482
29.1868
28.6377
28.0948
27.5682
27.0607
26.5686
63.3416
63.9614
65.0364
65.6969
65.7714
64.2988
61.861
52.0631
47.284
56.3328
66.1324
72.348
63.7684
45.7845
74.392
91.9463
59.1216
67.1422
75.7304
75.2779
59.1362
44.1528
48.8345
62.592
65.0163
67.1439
66.8567
66.0046
64.6958
64.4345
64.7365
65.4091
66.2705
66.9546
67.1253
67.0722
66.8233
66.5421
66.3676
66.1947
65.9999
65.6885
65.2504
64.7005
64.0547
63.3237
62.4949
61.5643
60.5344
59.423
58.2509
57.04
55.8113
54.5871
53.3826
52.2187
51.1168
50.0616
49.0534
48.1179
47.2373
46.3761
45.5534
44.7995
44.0715
43.3358
42.6255
41.9501
41.2797
40.6079
39.9281
39.2504
38.5875
37.9322
37.2789
36.6233
35.9639
35.3112
34.6594
34.0091
33.3751
32.7508
32.1353
31.5303
30.9298
30.332
29.7483
29.1868
28.6377
28.0949
27.5683
27.0607
26.5686
63.3428
63.9626
65.036
65.6947
65.7666
64.2904
61.8519
52.1057
47.3979
56.4024
66.1224
72.3223
63.8677
45.9695
74.2536
91.6535
59.214
67.3464
75.7389
75.2366
59.2548
44.3624
48.9338
62.5815
65.0017
67.134
66.8521
66.0039
64.6987
64.4378
64.7386
65.4099
66.2701
66.9534
67.1244
67.0717
66.8232
66.5423
66.3678
66.1948
65.9998
65.6884
65.2503
64.7005
64.0547
63.3238
62.4949
61.5643
60.5344
59.423
58.2509
57.04
55.8114
54.5871
53.3827
52.2188
51.1169
50.0617
49.0535
48.118
47.2373
46.3762
45.5534
44.7996
44.0716
43.3359
42.6256
41.9502
41.2797
40.6079
39.9282
39.2505
38.5875
37.9323
37.279
36.6233
35.964
35.3113
34.6594
34.0092
33.3752
32.7509
32.1353
31.5304
30.9299
30.3321
29.7483
29.1869
28.6378
28.0949
27.5683
27.0608
26.5687
63.3448
63.9644
65.0356
65.6916
65.7602
64.2802
61.8438
52.1738
47.5451
56.4892
66.0965
72.3033
64.03
46.1519
73.9842
91.2552
59.3103
67.5845
75.7883
75.2002
59.4328
44.625
49.0765
62.5717
64.9828
67.1202
66.8456
66.003
64.7031
64.4428
64.7421
65.4115
66.2697
66.952
67.1232
67.0711
66.8231
66.5426
66.368
66.1949
65.9998
65.6883
65.2503
64.7005
64.0548
63.3238
62.4949
61.5643
60.5345
59.4231
58.251
57.0401
55.8114
54.5872
53.3827
52.2188
51.117
50.0618
49.0536
48.1181
47.2374
46.3763
45.5535
44.7997
44.0717
43.336
42.6257
41.9503
41.2798
40.608
39.9283
39.2506
38.5876
37.9324
37.2791
36.6234
35.9641
35.3114
34.6595
34.0093
33.3753
32.751
32.1354
31.5305
30.93
30.3322
29.7484
29.187
28.6379
28.095
27.5684
27.0609
26.5688
63.348
63.9672
65.0351
65.6875
65.7516
64.2678
61.837
52.2744
47.7412
56.6104
66.0822
72.2962
64.2595
46.2948
73.6623
90.7154
59.3722
67.8211
75.8891
75.1829
59.6857
44.9514
49.2753
62.5594
64.9587
67.1012
66.8366
66.0019
64.7099
64.4505
64.7476
65.4141
66.2695
66.9501
67.1216
67.0702
66.823
66.5431
66.3685
66.1952
65.9999
65.6883
65.2504
64.7006
64.055
63.324
62.495
61.5644
60.5346
59.4232
58.2511
57.0402
55.8115
54.5873
53.3829
52.219
51.1171
50.0619
49.0537
48.1182
47.2376
46.3764
45.5537
44.7998
44.0718
43.3362
42.6258
41.9504
41.28
40.6082
39.9284
39.2507
38.5878
37.9325
37.2792
36.6236
35.9642
35.3116
34.6597
34.0094
33.3754
32.7512
32.1356
31.5306
30.9301
30.3323
29.7486
29.1871
28.638
28.0952
27.5686
27.0611
26.5689
63.3528
63.9714
65.0346
65.6822
65.7405
64.2527
61.8319
52.4157
48.002
56.7911
66.0782
72.3041
64.5429
46.3757
73.2941
90.0036
59.3281
68.0507
76.0699
75.1959
60.0758
45.3472
49.5452
62.5425
64.929
67.0759
66.8247
66.0008
64.7198
64.4617
64.7557
65.4181
66.2696
66.9475
67.1195
67.0691
66.823
66.5439
66.3692
66.1956
66
65.6883
65.2504
64.7008
64.0552
63.3242
62.4952
61.5646
60.5348
59.4234
58.2513
57.0404
55.8117
54.5875
53.3831
52.2192
51.1173
50.0621
49.0539
48.1184
47.2378
46.3766
45.5539
44.8001
44.0721
43.3364
42.6261
41.9507
41.2802
40.6084
39.9287
39.251
38.588
37.9328
37.2795
36.6238
35.9645
35.3118
34.6599
34.0097
33.3756
32.7514
32.1358
31.5309
30.9304
30.3325
29.7488
29.1874
28.6383
28.0954
27.5688
27.0613
26.5692
63.9777
65.0343
65.6753
65.7262
64.2349
61.8293
52.6057
48.3356
57.0522
66.1008
72.3441
64.8717
46.4097
72.7452
89.0635
59.1578
68.2661
76.3333
75.2615
60.6138
45.8675
49.895
62.5207
64.8937
67.0433
66.8094
65.9997
64.7338
64.4775
64.7672
65.424
66.2699
66.9442
67.1168
67.0676
66.8231
66.5451
66.3703
66.1963
66.0002
65.6884
65.2506
64.7011
64.0556
63.3245
62.4956
61.5649
60.535
59.4237
58.2516
57.0407
55.812
54.5878
53.3834
52.2195
51.1176
50.0624
49.0542
48.1188
47.2381
46.377
45.5542
44.8004
44.0724
43.3367
42.6264
41.951
41.2806
40.6088
39.929
39.2513
38.5884
37.9331
37.2798
36.6241
35.9648
35.3121
34.6603
34.01
33.376
32.7517
32.1361
31.5312
30.9307
30.3329
29.7492
29.1877
28.6386
28.0958
27.5692
27.0616
26.5695
26.0928
25.6316
25.1875
63.9868
65.0343
65.6669
65.7084
64.2148
61.8308
52.8522
48.7512
57.4015
66.2001
72.4542
65.2287
46.3882
71.9469
87.9022
58.8912
68.4227
76.6266
75.3366
61.2452
46.5761
50.3315
62.4929
64.8538
67.0026
66.7903
65.9989
64.7529
64.4988
64.7829
65.4324
66.2708
66.9402
67.1133
67.0658
66.8233
66.5468
66.3718
66.1973
66.0006
65.6886
65.2509
64.7016
64.0561
63.3251
62.496
61.5654
60.5355
59.4241
58.252
57.0411
55.8125
54.5882
53.3838
52.2199
51.1181
50.0629
49.0547
48.1192
47.2386
46.3775
45.5547
44.8009
44.0729
43.3372
42.6269
41.9515
41.2811
40.6093
39.9295
39.2518
38.5889
37.9336
37.2803
36.6246
35.9653
35.3126
34.6607
34.0105
33.3765
32.7522
32.1366
31.5317
30.9312
30.3334
29.7496
29.1882
28.6391
28.0962
27.5697
27.0621
26.57
26.0933
25.6321
25.188
63.9995
65.035
65.6568
65.6872
64.1935
61.8384
53.1623
49.2609
57.8401
66.3988
72.6262
65.5817
46.2576
70.8894
86.4848
58.4958
68.4668
76.9302
75.3881
62.0063
47.4455
50.863
62.4592
64.811
66.9537
66.7674
65.9987
64.7783
64.5269
64.8039
65.444
66.2725
66.9352
67.109
67.0637
66.8237
66.5491
66.3739
66.1987
66.0012
65.6889
65.2513
64.7022
64.0569
63.3258
62.4967
61.566
60.5361
59.4248
58.2527
57.0417
55.8131
54.5889
53.3844
52.2205
51.1187
50.0635
49.0554
48.1199
47.2393
46.3781
45.5554
44.8016
44.0736
43.3379
42.6276
41.9522
41.2817
40.6099
39.9302
39.2525
38.5895
37.9343
37.281
36.6253
35.966
35.3133
34.6614
34.0111
33.3771
32.7529
32.1373
31.5323
30.9318
30.334
29.7503
29.1889
28.6398
28.0969
27.5703
27.0628
26.5707
26.094
25.6328
25.1886
64.0167
65.037
65.6455
65.663
64.1728
61.8553
53.5426
49.8791
58.3514
66.6161
72.828
65.9157
45.9927
69.5254
84.7421
57.8944
68.3871
77.2092
75.4845
62.904
48.4631
51.4962
62.4204
64.7681
66.8967
66.7408
65.9995
64.811
64.563
64.8312
65.4595
66.2755
66.9296
67.104
67.0611
66.8244
66.5523
66.3768
66.2007
66.0021
65.6894
65.252
64.7032
64.058
63.3269
62.4977
61.5669
60.537
59.4257
58.2536
57.0426
55.8139
54.5897
53.3853
52.2214
51.1196
50.0644
49.0562
48.1208
47.2402
46.379
45.5563
44.8025
44.0745
43.3388
42.6285
41.9531
41.2826
40.6108
39.9311
39.2534
38.5904
37.9351
37.2819
36.6262
35.9669
35.3142
34.6623
34.012
33.378
32.7538
32.1382
31.5332
30.9327
30.3349
29.7512
29.1897
28.6407
28.0978
27.5712
27.0637
26.5716
26.0949
25.6337
25.1896
64.0395
65.0408
65.6335
65.6365
64.1554
61.886
53.9995
50.6199
58.9701
66.8397
73.033
66.163
45.5857
67.8488
82.7071
57.0681
68.198
77.3521
75.7447
63.92
49.6343
52.2378
62.3776
64.7287
66.8326
66.7111
66.002
64.8523
64.6084
64.8661
65.4798
66.2804
66.9235
67.0984
67.0584
66.8256
66.5565
66.3806
66.2034
66.0035
65.6903
65.2531
64.7046
64.0596
63.3284
62.499
61.5681
60.5382
59.4269
58.2548
57.0438
55.8151
54.5908
53.3864
52.2225
51.1207
50.0656
49.0574
48.1219
47.2413
46.3802
45.5574
44.8037
44.0756
43.34
42.6297
41.9543
41.2838
40.612
39.9322
39.2545
38.5916
37.9363
37.283
36.6273
35.968
35.3153
34.6634
34.0132
33.3792
32.7549
32.1393
31.5344
30.9339
30.3361
29.7524
29.1909
28.6418
28.099
27.5724
27.0649
26.5728
26.0961
25.6349
25.1908
64.0692
65.0473
65.6216
65.6093
64.1449
61.9358
54.5393
51.4939
59.7634
67.1481
73.1968
66.2833
44.9927
65.8537
80.3629
56.003
67.8939
77.252
76.0999
64.9253
50.9556
53.0922
62.3361
64.6974
66.7631
66.6792
66.007
64.9036
64.6647
64.9098
65.5062
66.2876
66.9171
67.0923
67.0555
66.8273
66.562
66.3856
66.2072
66.0054
65.6916
65.2545
64.7064
64.0617
63.3304
62.5009
61.5698
60.5399
59.4285
58.2563
57.0453
55.8166
54.5923
53.3879
52.224
51.1222
50.067
49.0588
48.1234
47.2428
46.3817
45.5589
44.8052
44.0772
43.3415
42.6312
41.9558
41.2853
40.6135
39.9337
39.256
38.5931
37.9378
37.2845
36.6288
35.9695
35.3168
34.6649
34.0147
33.3807
32.7564
32.1408
31.5359
30.9354
30.3376
29.7539
29.1924
28.6433
28.1005
27.5739
27.0664
26.5744
26.0977
25.6365
25.1923
64.107
65.0577
65.6113
65.5836
64.1459
62.0113
55.1679
52.5067
60.7487
67.4973
73.26
66.3062
44.1202
63.5389
77.7207
54.6814
67.4295
76.7643
76.4746
65.8733
52.4124
54.054
62.3131
64.6808
66.6907
66.6467
66.016
64.9663
64.7332
64.9639
65.5396
66.2982
66.9109
67.0861
67.0527
66.83
66.5691
66.3921
66.2121
66.0083
65.6935
65.2567
64.709
64.0645
63.3331
62.5033
61.572
60.542
59.4306
58.2584
57.0474
55.8186
54.5943
53.3898
52.2259
51.1241
50.0689
49.0607
48.1253
47.2447
46.3835
45.5608
44.8071
44.079
43.3433
42.633
41.9576
41.2872
40.6154
39.9356
39.2579
38.595
37.9397
37.2864
36.6307
35.9714
35.3187
34.6668
34.0166
33.3826
32.7583
32.1427
31.5378
30.9373
30.3395
29.7558
29.1944
28.6453
28.1024
27.5759
27.0684
26.5763
26.0996
25.6385
25.1943
65.0737
65.6045
65.5623
64.164
62.1202
55.8896
53.6598
61.8867
67.8744
73.175
66.1922
42.9089
60.9171
74.7982
53.0936
66.7282
75.779
77.1954
66.8596
53.9737
55.1096
62.3393
64.6801
66.6195
66.6161
66.0307
65.0422
64.8157
65.0299
65.5815
66.3129
66.9057
67.0802
67.0504
66.8339
66.5782
66.4004
66.2185
66.0122
65.6964
65.2597
64.7124
64.0683
63.3366
62.5065
61.575
60.5449
59.4334
58.2612
57.05
55.8211
54.5967
53.3922
52.2282
51.1265
50.0713
49.063
48.1277
47.2471
46.3859
45.5631
44.8094
44.0814
43.3457
42.6354
41.96
41.2896
40.6178
39.938
39.2603
38.5973
37.9421
37.2888
36.6331
35.9738
35.3211
34.6692
34.019
33.385
32.7607
32.1451
31.5402
30.9397
30.3419
29.7582
29.1968
28.6477
28.1049
27.5783
27.0709
26.5788
26.1021
25.641
25.1969
65.5494
64.2059
62.2706
56.7083
54.9388
63.0743
68.2735
72.8509
65.8715
41.3272
58.0603
71.6652
51.238
65.7415
74.2499
78.3121
67.7293
55.625
56.2499
62.442
64.6941
66.5552
66.5906
66.0534
65.133
64.9138
65.1094
65.6333
66.3329
66.9021
67.0751
67.049
66.8395
66.5896
66.411
66.2269
66.0175
65.7004
65.2638
64.7171
64.0731
63.3412
62.5108
61.5789
60.5486
59.4371
58.2646
57.0533
55.8243
54.5998
53.3952
52.2312
51.1294
50.0742
49.0659
48.1306
47.25
46.3888
45.566
44.8123
44.0843
43.3486
42.6383
41.9629
41.2925
40.6207
39.9409
39.2632
38.6003
37.945
37.2917
36.6361
35.9767
35.3241
34.6722
34.0219
33.3879
32.7637
32.1481
31.5432
30.9427
30.3449
29.7612
29.1998
28.6508
28.1079
27.5814
27.074
26.5819
26.1052
25.6441
25.2
65.5502
64.279
62.472
57.6202
56.3634
64.218
68.7422
71.803
65.2889
39.3406
55.0758
68.3692
49.1154
64.3977
72.4927
79.4427
68.4629
57.3284
57.4597
62.6282
64.7428
66.5072
66.5742
66.0871
65.2405
65.0292
65.2041
65.6965
66.3595
66.9012
67.0718
67.0491
66.8474
66.604
66.4243
66.2377
66.0247
65.7059
65.2694
64.7231
64.0795
63.3472
62.5163
61.584
60.5534
59.4417
58.2691
57.0575
55.8283
54.6037
53.3989
52.2349
51.1331
50.0778
49.0695
48.1341
47.2536
46.3923
45.5695
44.8159
44.0879
43.3522
42.6419
41.9665
41.2961
40.6243
39.9445
39.2668
38.6039
37.9486
37.2954
36.6397
35.9804
35.3277
34.6759
34.0256
33.3916
32.7674
32.1518
31.5469
30.9464
30.3487
29.765
29.2036
28.6545
28.1117
27.5852
27.0778
26.5857
26.1091
25.648
25.2039
65.5708
64.3916
62.7323
58.6231
57.7686
65.333
69.389
70.1181
64.2744
37.0169
51.92
64.7545
46.7411
62.5129
71.0691
80.4223
69.222
59.0393
58.718
62.9069
64.8543
66.4744
66.5725
66.1355
65.3669
65.1634
65.3158
65.7728
66.3941
66.9045
67.0711
67.0516
66.8581
66.6219
66.441
66.2514
66.0342
65.7135
65.2768
64.731
64.0876
63.3549
62.5233
61.5905
60.5596
59.4476
58.2747
57.0628
55.8333
54.6085
53.4036
52.2394
51.1375
50.0821
49.0738
48.1385
47.258
46.3966
45.5738
44.8203
44.0923
43.3565
42.6463
41.9709
41.3005
40.6288
39.949
39.2713
38.6083
37.9531
37.2999
36.6442
35.9849
35.3322
34.6804
34.0302
33.3962
32.772
32.1564
31.5515
30.951
30.3533
29.7696
29.2082
28.6592
28.1164
27.5899
27.0825
26.5905
26.1138
25.6527
25.2087
65.6191
64.554
63.067
59.711
59.1857
66.3841
70.3399
68.5932
62.597
34.4916
48.5376
60.981
44.1755
60.0123
69.9512
80.6934
69.9957
60.732
60.0095
63.2993
65.0335
66.4602
66.5923
66.2029
65.5141
65.3182
65.4462
65.864
66.4381
66.9139
67.0745
67.0574
66.8727
66.644
66.4616
66.2687
66.0467
65.7236
65.2867
64.7413
64.0981
63.3647
62.5323
61.5987
60.5674
59.455
58.2817
57.0694
55.8395
54.6145
53.4092
52.2449
51.143
50.0875
49.079
48.1437
47.2632
46.4019
45.579
44.8255
44.0976
43.3618
42.6516
41.9763
41.3059
40.6342
39.9544
39.2767
38.6138
37.9586
37.3054
36.6497
35.9904
35.3378
34.6859
34.0357
33.4018
32.7775
32.162
31.5571
30.9567
30.3589
29.7753
29.2139
28.6649
28.1221
27.5956
27.0883
26.5962
26.1196
25.6585
25.2146
60.8471
60.8009
67.2161
71.4992
67.0308
60.3672
31.906
45.2623
57.5267
41.5545
57.1126
69.0136
80.2822
70.7612
62.3897
61.3243
63.8034
65.2741
66.4906
66.6401
66.2944
65.6844
65.4949
65.597
65.9719
66.4946
66.9301
67.0835
67.068
66.8921
66.6712
66.4871
66.2903
66.0629
65.737
65.2996
64.7545
64.1113
63.3772
62.5438
61.6092
60.5773
59.4643
58.2904
57.0776
55.8472
54.6217
53.4162
52.2515
51.1495
50.0939
49.0853
48.15
47.2696
46.4082
45.5853
44.8319
44.104
43.3682
42.658
41.9828
41.3125
40.6408
39.9609
39.2833
38.6204
37.9652
37.312
36.6564
35.9971
35.3445
34.6927
34.0425
33.4086
32.7844
32.1688
31.564
30.9635
30.3658
29.7822
29.2208
28.6718
28.1291
27.6026
27.0952
26.6032
26.1266
25.6656
25.2216
62.0301
62.4143
67.9786
72.7819
65.6579
57.7697
29.5519
42.4149
54.9284
39.0315
54.1781
68.6092
79.8488
71.5217
64.0167
62.6651
64.3958
65.5769
66.5853
66.7239
66.4155
65.8799
65.6951
65.7697
66.0984
66.5669
66.9545
67.1003
67.0847
66.9176
66.7045
66.5183
66.3172
66.0836
65.7545
65.3163
64.7713
64.1281
63.3929
62.5582
61.6225
60.5896
59.4759
58.3013
57.0877
55.8566
54.6306
53.4245
52.2595
51.1574
50.1016
49.0929
48.1576
47.2772
46.4157
45.5928
44.8396
44.1118
43.376
42.6658
41.9906
41.3204
40.6487
39.9689
39.2913
38.6284
37.9733
37.3201
36.6645
36.0053
35.3527
34.7009
34.0507
33.4168
32.7926
32.1771
31.5722
30.9719
30.3741
29.7905
29.2292
28.6802
28.1374
27.611
27.1037
26.6116
26.135
25.674
25.2302
63.2509
63.9586
68.7224
73.7018
65.2075
55.22
27.451
40.1455
53.697
36.8341
51.8943
69.268
79.099
72.3323
65.6166
64.0273
65.072
65.9504
66.7487
66.8525
66.572
66.1028
65.92
65.9656
66.2446
66.6545
66.9935
67.1269
67.1097
66.9508
66.745
66.5565
66.3505
66.1102
65.7772
65.3379
64.7927
64.1491
63.4127
62.5764
61.6392
60.6051
59.4903
58.3147
57.1
55.868
54.6413
53.4346
52.2691
51.1669
50.1108
49.1018
48.1666
47.2864
46.4248
45.6018
44.8488
44.1211
43.3853
42.6752
42.0001
41.33
40.6583
39.9785
39.3009
38.6381
37.983
37.33
36.6744
36.0151
35.3626
34.7108
34.0607
33.4268
32.8026
32.1871
31.5822
30.9819
30.3842
29.8006
29.2393
28.6903
28.1475
27.6211
27.1137
26.6217
26.1451
25.6842
25.2403
53.1734
25.9173
38.8385
54.2569
35.5261
50.7736
70.7449
78.2363
73.1723
67.1663
65.3986
65.8363
66.4061
66.9809
67.034
66.7691
66.3552
66.171
66.186
66.4124
66.7592
67.0502
67.1661
67.1452
66.9934
66.7943
66.603
66.3916
66.1438
65.8064
65.3654
64.8198
64.1756
63.4374
62.5992
61.66
60.6244
59.5081
58.3311
57.1151
55.8818
54.6542
53.4466
52.2805
51.178
50.1217
49.1124
48.1773
47.2972
46.4356
45.6125
44.8598
44.1322
43.3964
42.6864
42.0115
41.3414
40.6699
39.9901
39.3125
38.6498
37.9948
37.3418
36.6862
36.027
35.3745
34.7227
34.0726
33.4387
32.8146
32.1991
31.5942
30.9939
30.3962
29.8126
29.2513
28.7023
28.1595
27.6331
27.1258
26.6338
26.1572
25.6962
25.2525
52.2776
25.7972
39.0017
56.791
36.2369
51.6635
72.8732
77.6808
73.9566
68.6707
66.7621
66.6831
66.9459
67.2921
67.2755
67.0123
66.6397
66.4496
66.4325
66.6043
66.8856
67.1255
67.221
67.1937
67.0475
66.854
66.6595
66.442
66.186
65.8435
65.4004
64.8538
64.2085
63.4682
62.6275
61.6859
60.6481
59.5299
58.351
57.1331
55.8983
54.6694
53.4607
52.2938
51.1911
50.1344
49.1249
48.1899
47.3101
46.4483
45.6252
44.8729
44.1456
43.4097
42.6999
42.0251
41.3552
40.6838
40.004
39.3265
38.6638
38.0089
37.3559
36.7004
36.0412
35.3887
34.737
34.0869
33.453
32.8289
32.2134
31.6085
31.0082
30.4105
29.8269
29.2656
28.7165
28.1737
27.6474
27.14
26.648
26.1714
25.7105
25.2668
54.2094
27.9231
41.7251
61.5942
40.6896
55.8082
75.4133
77.5281
74.7231
70.1437
68.1173
67.6071
67.5686
67.6868
67.5837
67.3065
66.9588
66.7573
66.706
66.8217
67.0365
67.2235
67.2946
67.2583
67.1155
66.926
66.7276
66.5035
66.2386
65.8904
65.4443
64.8962
64.2492
63.5062
62.6624
61.7176
60.6771
59.5562
58.3748
57.1546
55.9177
54.6873
53.4772
52.3092
51.2063
50.1493
49.1394
48.2046
47.3252
46.4634
45.6402
44.8884
44.1614
43.4256
42.7159
42.0413
41.3716
40.7003
40.0206
39.3431
38.6805
38.0257
37.3728
36.7173
36.0581
35.4057
34.754
34.1038
33.47
32.8458
32.2303
31.6255
31.0251
30.4274
29.8438
29.2825
28.7334
28.1906
27.6642
27.1569
26.6648
26.1882
25.7273
25.2837
59.4669
33.1675
48.5302
69.9823
49.6155
63.6256
77.1586
78.1261
75.6156
71.6082
69.4695
68.6003
68.2727
68.1676
67.9633
67.6561
67.316
67.0966
67.0084
67.0666
67.2144
67.3473
67.3904
67.3418
67.1999
67.0124
66.8093
66.5778
66.3034
65.9486
65.4988
64.9483
64.299
63.5526
62.7048
61.756
60.7119
59.5876
58.4029
57.1797
55.9402
54.7079
53.496
52.3267
51.2237
50.1663
49.1559
48.2215
47.3428
46.4809
45.6577
44.9067
44.18
43.4443
42.7348
42.0605
41.3911
40.72
40.0403
39.3629
38.7004
38.0456
37.3928
36.7374
36.0782
35.4258
34.7741
34.1239
33.4901
32.8659
32.2504
31.6455
31.0451
30.4474
29.8637
29.3023
28.7533
28.2104
27.684
27.1767
26.6846
26.2079
25.7471
25.3034
67.84
41.7563
59.8913
82.6052
61.9884
72.738
78.2541
79.5932
76.7063
73.0953
70.8249
69.6537
69.0533
68.7339
68.4173
68.0643
67.7141
67.4695
67.3412
67.341
67.4222
67.5002
67.5116
67.4473
67.3032
67.1154
66.9066
66.6667
66.3821
66.0199
65.5654
65.0117
64.3591
63.6082
62.7556
61.8018
60.7529
59.6242
58.4354
57.2084
55.9656
54.731
53.517
52.3461
51.2432
50.1854
49.1746
48.2408
47.363
46.5012
45.678
44.928
44.2019
43.4663
42.757
42.0832
41.4141
40.7432
40.0636
39.3862
38.7238
38.0692
37.4165
36.7611
36.1019
35.4495
34.7978
34.1476
33.5137
32.8895
32.2739
31.669
31.0686
30.4708
29.887
29.3256
28.7766
28.2336
27.7071
27.1998
26.7076
26.2309
25.7701
25.3265
76.4578
54.1976
75.4481
98.3069
77.2495
82.7842
81.2093
81.6317
78.0412
74.6227
72.1917
70.7577
69.9037
69.3819
68.9453
68.5326
68.1556
67.8778
67.7057
67.6465
67.6622
67.6848
67.6614
67.578
67.428
67.2373
67.0214
66.7723
66.4767
66.1059
65.6455
65.0874
64.4304
63.674
62.8152
61.8551
60.8003
59.666
58.4719
57.2402
55.9933
54.7561
53.5394
52.3668
51.2642
50.2062
49.1951
48.2624
47.386
46.5244
45.7012
44.9526
44.2274
43.4919
42.783
42.1097
41.4411
40.7704
40.0909
39.4137
38.7514
38.0968
37.4442
36.7889
36.1297
35.4773
34.8255
34.1753
33.5414
32.9171
32.3015
31.6964
31.096
30.4981
29.9143
29.3528
28.8036
28.2606
27.7341
27.2267
26.7344
26.2577
25.7967
25.3532
84.1238
70.0275
92.6285
114.491
94.8621
93.3928
85.4352
83.8824
79.6413
76.1904
73.5749
71.9017
70.8147
70.1033
69.5429
69.059
68.6409
68.322
68.1025
67.9841
67.9357
67.9033
67.8424
67.7366
67.5771
67.3803
67.1559
66.8963
66.5887
66.2083
65.7406
65.1767
64.5137
63.7504
62.8841
61.916
60.8536
59.7121
58.5114
57.2738
56.0221
54.7818
53.5622
52.3877
51.2861
50.2282
49.2168
48.2857
47.4115
46.5503
45.7272
44.9806
44.2566
43.5214
42.8131
42.1405
41.4724
40.8022
40.1228
39.4457
38.7835
38.1291
37.4766
36.8214
36.1621
35.5098
34.8579
34.2076
33.5736
32.9493
32.3335
31.7283
31.1277
30.5297
29.9458
29.3843
28.8351
28.2919
27.7652
27.2577
26.7653
26.2885
25.8276
25.3841
90.1288
87.5389
111.286
130.139
111.063
100.507
90.2437
86.179
81.4631
77.7857
74.9729
73.0733
71.7737
70.8855
70.2014
69.6381
69.1676
68.8008
68.5305
68.3533
68.2431
68.1566
68.0564
67.9253
67.7525
67.5466
67.3118
67.0405
66.72
66.3285
65.8518
65.2803
64.6096
63.8375
62.9615
61.9836
60.9117
59.761
58.5522
57.3075
56.0499
54.8063
53.5832
52.4066
51.307
50.2498
49.2386
48.3101
47.4392
46.5788
45.756
45.0121
44.2899
43.555
42.8474
42.1758
41.5086
40.8391
40.1599
39.4829
38.8209
38.1667
37.5143
36.859
36.1996
35.5473
34.8955
34.245
33.6109
32.9863
32.3704
31.7652
31.1648
30.5666
29.9823
29.4205
28.8712
28.3279
27.801
27.2935
26.8011
26.3243
25.8634
25.4199
94.693
104.118
129.515
142.987
123.738
105.074
95.1576
88.5026
83.4132
79.3851
76.3729
74.2566
72.7637
71.7113
70.9066
70.2598
69.7294
69.3097
68.9864
68.7517
68.5827
68.4439
68.3037
68.1452
67.9557
67.7378
67.4909
67.2064
66.8718
66.4677
65.9802
65.3989
64.7182
63.9349
63.0467
62.0562
60.9721
59.8099
58.5908
57.3373
56.0728
54.8259
53.5993
52.4212
51.3252
50.2693
49.2585
48.3338
47.4678
46.6089
45.7866
45.0467
44.3272
43.5932
42.8867
42.2165
41.5502
40.8812
40.2023
39.5255
38.8637
38.2096
37.5576
36.9028
36.2435
35.5909
34.9387
34.288
33.654
33.0296
32.4137
31.8083
31.2069
30.6078
30.0235
29.4619
28.9126
28.3689
27.8418
27.3342
26.8417
26.3647
25.9037
25.4598
99.7566
116.157
142.122
148.969
131.826
108.661
99.4307
90.7862
85.3659
80.9522
77.747
75.4274
73.7621
72.5595
71.6401
70.9093
70.3156
69.8404
69.4637
69.174
68.9501
68.7621
68.5827
68.3954
68.1869
67.9544
67.6937
67.3948
67.045
66.6265
66.126
65.5322
64.8384
64.0407
63.1372
62.1307
61.0311
59.8544
58.6229
57.3591
56.0866
54.8364
53.6049
52.4245
51.3349
50.2826
49.2743
48.356
47.4971
46.6402
45.819
45.0846
44.3683
43.6351
42.9299
42.2615
41.5973
40.9302
40.2518
39.5749
38.9136
38.2606
37.6088
36.9527
36.2918
35.6397
34.9882
34.3373
33.7033
33.0787
32.4623
31.8558
31.2534
30.6544
30.0705
29.509
28.9592
28.4152
27.8879
27.38
26.8872
26.4099
25.9487
25.5048
105.1
122.604
149.135
150.225
136.262
111.253
102.424
92.821
87.1747
82.4364
79.059
76.5568
74.7394
73.4023
72.3775
71.5662
70.9097
70.3795
69.9511
69.6106
69.3372
69.1045
68.8881
68.6726
68.4436
68.195
67.9193
67.6047
67.2388
66.8045
66.2883
65.6789
64.9684
64.1525
63.2292
62.2023
61.0827
59.8871
58.6395
57.3624
56.0802
54.8285
53.5945
52.4156
51.3366
50.2876
49.2801
48.3703
47.5231
46.6704
45.85
45.1236
44.414
43.6831
42.9804
42.3155
41.6526
40.9842
40.3059
39.6306
38.9709
38.3176
37.664
37.0065
36.347
35.6967
35.0442
34.3927
33.7583
33.1333
32.5163
31.9094
31.3069
30.7082
30.1241
29.5616
29.0111
28.4673
27.9401
27.4316
26.9385
26.461
25.9996
25.5555
108.571
124.862
152.378
147.184
137.598
112.731
104.353
94.4701
88.7172
83.773
80.2622
77.6091
75.662
74.2088
73.0904
72.205
71.4896
70.9083
70.4327
70.047
69.7309
69.4596
69.2105
68.9688
68.7201
68.4554
68.1642
67.8333
67.45
66.9981
66.4637
65.8347
65.1027
64.2633
63.3148
62.2618
61.117
59.8979
58.6316
57.3405
56.0492
54.7973
53.5547
52.3716
51.3093
50.2736
49.2773
48.3829
47.549
46.6993
45.884
45.1691
44.4638
43.7339
43.0356
42.3734
41.7085
41.0438
40.3703
39.6944
39.034
38.3808
37.7274
37.0704
36.4108
35.7588
35.1064
34.4563
33.821
33.1951
32.5775
31.9697
31.3667
30.768
30.1839
29.6207
29.0696
28.5255
27.9981
27.4893
26.9957
26.5179
26.0564
25.612
109.862
124.019
151.887
140.46
134.968
113.246
105.23
95.6386
89.9003
84.8926
81.3026
78.5421
76.4922
74.9441
73.7454
72.7946
72.0272
71.4022
70.8867
70.4632
70.1124
69.8098
69.534
69.2712
69.006
68.7266
68.4205
68.0735
67.6721
67.2006
66.6451
65.9929
65.2343
64.365
63.3843
62.2971
61.1195
59.8698
58.5794
57.2676
55.9602
54.7143
53.4779
52.3121
51.2808
50.2459
49.2447
48.3676
47.5634
46.7256
45.9199
45.2137
44.5164
43.7931
43.0987
42.4394
41.7765
41.1123
40.4402
39.7679
39.1079
38.4533
37.7988
37.1414
36.4821
35.8296
35.1769
34.5266
33.8906
33.264
32.6457
32.037
31.4335
30.8348
30.2505
29.6864
29.1346
28.5905
28.0628
27.5534
27.0595
26.5814
26.1196
25.6751
110.074
121.14
147.482
134.476
130.137
112.684
105.125
96.2495
90.6577
85.7324
82.1286
79.3117
77.1911
75.5697
74.3051
73.3002
72.49
71.8302
71.2848
70.8333
70.4563
70.131
69.8371
69.5606
69.284
68.9933
68.6745
68.3123
67.8926
67.3994
66.8185
66.1369
65.3447
64.4372
63.4149
62.2848
61.0675
59.779
58.4612
57.1338
55.8273
54.6055
53.342
52.1541
51.1564
50.175
49.2317
48.3863
47.586
46.7437
45.954
45.2603
44.5732
43.8626
43.1762
42.5161
41.8541
41.1914
40.5217
39.8505
39.1898
38.5344
37.8792
37.2213
36.5618
35.9083
35.2553
34.6051
33.9682
33.3406
32.7214
32.1117
31.5076
30.9089
30.3244
29.7595
29.2069
28.6626
28.1347
27.6249
27.1305
26.6521
26.1901
25.7453
25.3184
109.289
117.797
140.54
128.49
124.51
111.073
104.183
96.2655
90.9526
86.2403
82.6947
79.8769
77.7209
76.0496
74.735
73.6881
72.8447
72.159
71.5938
71.1252
70.7322
70.3942
70.092
69.8092
69.5275
69.2309
68.9033
68.5279
68.0902
67.5733
66.9626
66.2448
65.4111
64.4583
63.3853
62.1974
60.9265
59.5887
58.251
56.902
55.5557
54.3281
53.1251
52.0427
51.1047
50.1338
49.1758
48.3348
47.567
46.7776
46.0228
45.3298
44.6448
43.9445
43.2634
42.6042
41.9436
41.2816
40.6133
39.9436
39.2824
38.6254
37.9689
37.3102
36.6504
35.996
35.3425
34.6921
34.0542
33.4256
32.8054
32.1947
31.5899
30.9912
30.4064
29.8405
29.2871
28.7426
28.2144
27.704
27.2092
26.7305
26.2683
25.8235
25.3965
107.567
114.11
132.321
122.378
118.542
108.663
102.553
95.7031
90.7783
86.383
82.9665
80.2031
78.0479
76.3519
75.0049
73.928
73.061
72.3576
71.7805
71.304
70.906
70.5656
70.2634
69.9818
69.701
69.4037
69.0722
68.6869
68.231
67.688
67.0414
66.2778
65.3877
64.3715
63.2317
61.9779
60.664
59.2668
57.8893
56.5013
55.2015
54.1108
52.9582
51.8495
50.904
50.0029
49.139
48.3525
47.6005
46.833
46.0951
45.4091
44.7319
44.0419
43.3657
42.7065
42.0461
41.3843
40.717
40.048
39.3857
38.7271
38.0691
37.4093
36.7489
36.0931
35.439
34.7883
34.1492
33.5194
32.8982
32.2863
31.6809
31.0821
30.4972
29.9304
29.3763
28.8318
28.3035
27.7927
27.2976
26.8186
26.3564
25.9115
25.4844
105.373
110.754
124.523
116.781
112.682
105.764
100.392
94.6248
90.1577
86.1519
82.9272
80.2698
78.1513
76.4566
75.0948
74.0001
73.1175
72.4029
71.8195
71.3407
70.9437
70.6073
70.3113
70.0363
69.7608
69.4658
69.132
68.7389
68.265
67.691
67.0001
66.1782
65.2188
64.1382
62.9398