/*--------------------------------*- C++ -*----------------------------------*\
| =========                 |                                                 |
| \\      /  F ield         | OpenFOAM: The Open Source CFD Toolbox           |
|  \\    /   O peration     | Version:  2412                                  |
|   \\  /    A nd           | Website:  www.openfoam.com                      |
|    \\/     M anipulation  |                                                 |
\*---------------------------------------------------------------------------*/
FoamFile
{
    version     2.0;
    format      ascii;
    arch        "LSB;label=32;scalar=64";
    class       volScalarField;
    location    "60";
    object      nut;
}
// * * * * * * * * * * * * * * * * * * * * * * * * * * * * * * * * * * * * * //

dimensions      [0 2 -1 0 0 0 0];

internalField   nonuniform List<scalar> 
32591
(
1.26219e-10
1.6867e-10
1.65011e-11
1.33339e-11
3.27217e-11
3.21555e-11
3.13688e-11
3.80599e-10
6.14265e-10
6.02815e-10
5.1572e-10
4.62263e-10
4.35463e-10
4.27894e-10
4.36371e-10
4.49732e-10
4.56644e-10
4.55769e-10
4.50789e-10
4.44269e-10
4.40093e-10
4.42024e-10
4.3531e-10
7.97842e-11
8.01237e-11
8.02985e-11
8.0429e-11
8.06632e-11
8.10019e-11
8.13791e-11
8.1743e-11
8.21003e-11
8.24702e-11
8.28531e-11
8.32488e-11
8.365e-11
8.40523e-11
8.44599e-11
8.4871e-11
8.52848e-11
8.57003e-11
8.61196e-11
8.65501e-11
8.6982e-11
8.74082e-11
8.78313e-11
8.82517e-11
8.86713e-11
8.90849e-11
8.94903e-11
8.98912e-11
9.02867e-11
9.06724e-11
9.10516e-11
9.14295e-11
9.17883e-11
9.21487e-11
9.24938e-11
9.28348e-11
9.31635e-11
9.34876e-11
9.38066e-11
9.41161e-11
9.4415e-11
9.4706e-11
9.49902e-11
9.52652e-11
9.55297e-11
9.57885e-11
9.60333e-11
9.62688e-11
9.64819e-11
9.68256e-11
8.3287e-10
9.72508e-11
8.65401e-10
8.80401e-10
8.95805e-10
9.11707e-10
9.28144e-10
9.45052e-10
9.62475e-10
9.80377e-10
9.98807e-10
1.0178e-09
1.0373e-09
1.05734e-09
1.07788e-09
1.09899e-09
1.12068e-09
1.14291e-09
1.16568e-09
1.18902e-09
1.2129e-09
1.23731e-09
1.2623e-09
1.28781e-09
1.31376e-09
1.34017e-09
1.36708e-09
1.39447e-09
1.42229e-09
1.45043e-09
1.4789e-09
1.50765e-09
1.53668e-09
1.56591e-09
1.59534e-09
1.62494e-09
1.65476e-09
1.68473e-09
1.71465e-09
1.7442e-09
1.77334e-09
1.80185e-09
1.82971e-09
1.85674e-09
1.88267e-09
1.90727e-09
1.9304e-09
1.95192e-09
1.95969e-09
1.05057e-10
1.05229e-10
1.05384e-10
1.0552e-10
1.05634e-10
1.05728e-10
1.05802e-10
1.05862e-10
1.05886e-10
1.06112e-10
2.05402e-09
2.04752e-09
2.02307e-09
1.06244e-10
1.06893e-10
1.08263e-10
1.10331e-10
1.12614e-10
1.15222e-10
1.20165e-10
1.33192e-10
1.63352e-09
5.7628e-10
6.74793e-10
5.42589e-10
2.6518e-10
3.8961e-11
6.84994e-14
4.52004e-11
2.83272e-10
5.63988e-10
6.94119e-10
1.82126e-10
1.48689e-10
1.90628e-09
2.23041e-09
1.15294e-10
1.1126e-10
1.0781e-10
1.05073e-10
1.03748e-10
1.03379e-10
1.72783e-09
1.75735e-09
1.76732e-09
1.04265e-10
1.03911e-10
1.04041e-10
1.04137e-10
1.04212e-10
1.04264e-10
1.04292e-10
1.0429e-10
1.04259e-10
1.04204e-10
1.84019e-09
1.84991e-09
1.84253e-09
1.83271e-09
1.82062e-09
1.80654e-09
1.79073e-09
1.77338e-09
1.75467e-09
1.73474e-09
1.71377e-09
1.69186e-09
1.66936e-09
1.64648e-09
1.62328e-09
1.59978e-09
1.57605e-09
1.55217e-09
1.52825e-09
1.50425e-09
1.48026e-09
1.45632e-09
1.4326e-09
1.40912e-09
1.38596e-09
1.36316e-09
1.34081e-09
1.31882e-09
1.29729e-09
1.27612e-09
1.25541e-09
1.23509e-09
1.21516e-09
1.19548e-09
1.1762e-09
1.15721e-09
1.13848e-09
1.12002e-09
1.10181e-09
1.08392e-09
1.06632e-09
1.04898e-09
1.03196e-09
1.01523e-09
9.98849e-10
9.90321e-11
9.85406e-11
9.8365e-11
9.81694e-11
9.79646e-11
9.77461e-11
9.7518e-11
9.7277e-11
9.7023e-11
9.6754e-11
9.64752e-11
9.6177e-11
9.58876e-11
9.55974e-11
9.52959e-11
9.49805e-11
9.4652e-11
9.43145e-11
9.39666e-11
9.36089e-11
9.32329e-11
9.28505e-11
9.24527e-11
9.20446e-11
9.1625e-11
9.11968e-11
9.07549e-11
9.03037e-11
8.98439e-11
8.93735e-11
8.88882e-11
8.84044e-11
8.79067e-11
8.74081e-11
8.69005e-11
8.63904e-11
8.58807e-11
8.53731e-11
8.48671e-11
8.4358e-11
8.38579e-11
8.33628e-11
8.28687e-11
8.23829e-11
8.191e-11
8.14581e-11
8.10256e-11
8.05898e-11
8.01454e-11
7.97416e-11
7.94417e-11
7.92405e-11
7.89977e-11
7.85794e-11
7.79791e-11
7.76131e-11
7.78702e-11
7.90015e-11
8.06798e-11
8.15449e-11
8.11854e-11
7.92754e-11
7.61779e-11
7.47631e-11
7.70585e-11
8.33525e-11
9.42301e-11
1.26349e-10
1.73778e-10
3.74679e-10
5.54957e-11
2.74162e-11
2.89397e-11
1.19786e-11
2.48492e-11
2.20634e-10
1.60136e-10
1.03621e-08
9.88402e-09
2.19666e-09
9.55023e-10
1.82678e-09
1.83815e-09
4.8248e-09
4.15039e-08
5.43354e-08
5.63308e-08
5.22129e-08
4.85217e-08
4.68429e-08
4.64486e-08
4.69748e-08
4.7677e-08
4.79846e-08
4.7841e-08
4.74737e-08
4.70673e-08
4.68741e-08
4.7104e-08
4.55607e-08
4.67256e-09
4.68148e-09
4.69196e-09
4.70503e-09
4.72262e-09
4.74379e-09
4.76682e-09
4.79085e-09
4.81623e-09
4.84328e-09
4.87174e-09
4.90148e-09
4.93243e-09
4.96435e-09
4.99725e-09
5.03109e-09
5.0658e-09
5.10123e-09
5.13765e-09
5.17563e-09
5.21425e-09
5.25323e-09
5.29256e-09
5.33224e-09
5.37237e-09
5.41258e-09
5.45289e-09
5.49343e-09
5.53411e-09
5.5747e-09
5.61548e-09
5.65643e-09
5.69727e-09
5.73841e-09
5.77976e-09
5.82121e-09
5.86317e-09
5.9058e-09
5.94919e-09
5.99327e-09
6.03817e-09
6.08415e-09
6.13132e-09
6.17977e-09
6.22944e-09
6.28071e-09
6.33329e-09
6.38722e-09
6.44245e-09
6.52062e-09
8.4985e-08
6.64185e-09
8.82041e-08
8.95717e-08
9.09693e-08
9.24016e-08
9.3869e-08
9.53691e-08
9.69035e-08
9.84699e-08
1.00071e-07
1.01708e-07
1.0338e-07
1.05086e-07
1.06824e-07
1.08601e-07
1.10415e-07
1.12265e-07
1.14152e-07
1.16075e-07
1.18033e-07
1.20027e-07
1.22059e-07
1.24126e-07
1.26221e-07
1.28347e-07
1.30505e-07
1.32694e-07
1.3491e-07
1.37145e-07
1.39402e-07
1.41675e-07
1.43963e-07
1.46259e-07
1.48567e-07
1.50885e-07
1.53215e-07
1.5555e-07
1.57875e-07
1.60169e-07
1.62425e-07
1.64629e-07
1.66779e-07
1.6886e-07
1.70856e-07
1.72747e-07
1.74524e-07
1.76176e-07
1.76231e-07
1.01404e-08
1.01831e-08
1.02217e-08
1.02557e-08
1.02854e-08
1.03109e-08
1.03317e-08
1.03476e-08
1.03572e-08
1.03958e-08
1.84125e-07
1.83557e-07
1.80808e-07
1.03243e-08
1.03568e-08
1.04609e-08
1.06606e-08
1.08224e-08
1.06745e-08
1.01099e-08
9.61767e-09
1.35825e-07
4.55128e-08
4.97786e-08
3.5689e-08
1.53817e-08
2.20221e-09
6.19001e-12
2.53339e-09
1.6442e-08
3.72373e-08
5.13437e-08
1.04178e-08
9.7398e-09
1.59681e-07
1.87021e-07
1.08896e-08
1.07077e-08
1.02618e-08
9.93201e-09
9.7235e-09
9.63861e-09
1.58544e-07
1.61401e-07
1.62123e-07
9.6825e-09
9.66099e-09
9.67749e-09
9.69655e-09
9.71666e-09
9.73495e-09
9.75e-09
9.76008e-09
9.764e-09
9.76202e-09
1.66645e-07
1.67885e-07
1.67325e-07
1.66578e-07
1.65656e-07
1.64582e-07
1.63373e-07
1.62045e-07
1.60608e-07
1.59076e-07
1.57458e-07
1.55767e-07
1.54025e-07
1.52248e-07
1.50443e-07
1.48613e-07
1.46761e-07
1.44894e-07
1.43016e-07
1.41129e-07
1.39239e-07
1.3735e-07
1.35473e-07
1.33608e-07
1.31764e-07
1.29945e-07
1.28154e-07
1.26388e-07
1.24653e-07
1.22942e-07
1.21261e-07
1.19605e-07
1.17976e-07
1.16362e-07
1.14773e-07
1.13202e-07
1.11647e-07
1.10107e-07
1.08582e-07
1.07075e-07
1.05585e-07
1.0411e-07
1.02655e-07
1.01218e-07
9.98025e-08
7.1677e-09
7.0867e-09
7.02575e-09
6.96535e-09
6.90565e-09
6.84634e-09
6.7877e-09
6.72948e-09
6.67167e-09
6.61427e-09
6.55747e-09
6.50052e-09
6.44675e-09
6.39445e-09
6.34243e-09
6.29051e-09
6.23865e-09
6.18702e-09
6.13562e-09
6.08432e-09
6.0329e-09
5.98146e-09
5.93017e-09
5.87875e-09
5.82738e-09
5.7762e-09
5.72492e-09
5.67381e-09
5.62296e-09
5.57223e-09
5.52168e-09
5.47162e-09
5.42192e-09
5.37274e-09
5.32406e-09
5.27612e-09
5.22909e-09
5.18298e-09
5.1378e-09
5.09362e-09
5.05072e-09
5.00904e-09
4.96847e-09
4.92939e-09
4.89175e-09
4.8564e-09
4.82305e-09
4.79115e-09
4.76034e-09
4.73136e-09
4.70564e-09
4.68394e-09
4.66459e-09
4.64453e-09
4.62195e-09
4.60177e-09
4.59401e-09
4.60693e-09
4.63717e-09
4.66684e-09
4.68311e-09
4.67135e-09
4.63297e-09
4.59948e-09
4.62591e-09
4.74111e-09
5.00616e-09
5.89418e-09
9.09015e-09
3.67944e-08
8.77495e-09
1.58926e-09
1.68019e-09
8.31402e-10
3.24238e-09
1.19165e-08
1.12521e-08
1.60812e-07
6.18136e-08
2.42122e-08
9.20475e-09
1.03606e-08
1.07267e-08
7.77269e-08
3.26206e-07
3.93843e-07
4.24004e-07
4.1239e-07
3.93687e-07
3.85855e-07
3.84004e-07
3.8575e-07
3.88073e-07
3.8896e-07
3.8797e-07
3.86264e-07
3.84802e-07
3.84561e-07
3.86293e-07
3.69031e-07
5.42011e-08
5.42537e-08
5.43663e-08
5.4528e-08
5.47404e-08
5.49867e-08
5.52523e-08
5.55342e-08
5.58367e-08
5.61605e-08
5.65027e-08
5.68609e-08
5.72342e-08
5.76209e-08
5.80203e-08
5.84323e-08
5.88557e-08
5.9289e-08
5.97375e-08
6.02104e-08
6.06921e-08
6.11798e-08
6.1673e-08
6.21719e-08
6.26762e-08
6.31831e-08
6.36933e-08
6.42074e-08
6.47245e-08
6.52427e-08
6.57647e-08
6.62888e-08
6.68169e-08
6.73484e-08
6.78864e-08
6.84278e-08
6.89795e-08
6.95426e-08
7.01174e-08
7.07048e-08
7.13077e-08
7.19284e-08
7.25681e-08
7.32289e-08
7.39105e-08
7.46151e-08
7.53428e-08
7.60921e-08
7.68658e-08
7.81173e-08
6.74718e-07
7.9839e-08
6.99502e-07
7.0942e-07
7.19521e-07
7.29807e-07
7.40275e-07
7.50924e-07
7.61758e-07
7.7276e-07
7.83937e-07
7.95301e-07
8.06843e-07
8.18563e-07
8.30449e-07
8.42534e-07
8.54806e-07
8.67268e-07
8.79917e-07
8.92753e-07
9.0577e-07
9.18971e-07
9.32377e-07
9.45955e-07
9.5968e-07
9.73543e-07
9.87581e-07
1.00176e-06
1.01607e-06
1.03046e-06
1.04495e-06
1.05949e-06
1.07407e-06
1.08867e-06
1.1033e-06
1.11795e-06
1.13264e-06
1.1473e-06
1.16186e-06
1.17619e-06
1.19024e-06
1.20394e-06
1.21726e-06
1.23012e-06
1.24245e-06
1.2541e-06
1.26503e-06
1.27515e-06
1.2727e-06
1.3261e-07
1.33282e-07
1.3389e-07
1.34431e-07
1.34909e-07
1.35325e-07
1.35669e-07
1.35935e-07
1.3611e-07
1.36936e-07
1.32503e-06
1.32115e-06
1.29982e-06
1.35421e-07
1.35645e-07
1.36842e-07
1.39762e-07
1.42104e-07
1.38567e-07
1.27337e-07
1.183e-07
8.86138e-07
3.65349e-07
3.26076e-07
2.05306e-07
7.94621e-08
1.15425e-08
5.55626e-11
1.31468e-08
8.48326e-08
2.14943e-07
3.37442e-07
1.36311e-07
1.2298e-07
1.07422e-06
1.26487e-06
1.42697e-07
1.40596e-07
1.33743e-07
1.2946e-07
1.2664e-07
1.25345e-07
1.16486e-06
1.18547e-06
1.18953e-06
1.25699e-07
1.25125e-07
1.25284e-07
1.25509e-07
1.25766e-07
1.26012e-07
1.26219e-07
1.26363e-07
1.26423e-07
1.26395e-07
1.21069e-06
1.22094e-06
1.21757e-06
1.21301e-06
1.20737e-06
1.2008e-06
1.19338e-06
1.18521e-06
1.17635e-06
1.16687e-06
1.15683e-06
1.14633e-06
1.13546e-06
1.12433e-06
1.113e-06
1.10149e-06
1.08981e-06
1.078e-06
1.06608e-06
1.05408e-06
1.04201e-06
1.02994e-06
1.01789e-06
1.00591e-06
9.94008e-07
9.82232e-07
9.7059e-07
9.59092e-07
9.47738e-07
9.36522e-07
9.25446e-07
9.14507e-07
9.0369e-07
8.9296e-07
8.82338e-07
8.71806e-07
8.61341e-07
8.50943e-07
8.40609e-07
8.30352e-07
8.20164e-07
8.10045e-07
8.00021e-07
7.90093e-07
7.80271e-07
8.73915e-08
8.60992e-08
8.52076e-08
8.433e-08
8.34637e-08
8.26074e-08
8.17626e-08
8.09279e-08
8.01029e-08
7.92884e-08
7.84838e-08
7.76835e-08
7.69467e-08
7.62383e-08
7.55361e-08
7.48392e-08
7.41457e-08
7.34563e-08
7.27726e-08
7.20921e-08
7.14142e-08
7.07367e-08
7.00641e-08
6.93921e-08
6.87228e-08
6.8057e-08
6.73927e-08
6.67321e-08
6.60763e-08
6.54242e-08
6.47777e-08
6.41361e-08
6.35029e-08
6.28766e-08
6.22592e-08
6.16525e-08
6.1058e-08
6.04763e-08
5.99074e-08
5.93534e-08
5.88155e-08
5.8294e-08
5.77883e-08
5.73015e-08
5.68335e-08
5.64002e-08
5.59929e-08
5.56073e-08
5.52394e-08
5.48903e-08
5.45705e-08
5.4294e-08
5.40606e-08
5.38487e-08
5.36304e-08
5.34034e-08
5.32455e-08
5.32376e-08
5.33956e-08
5.37106e-08
5.40869e-08
5.4331e-08
5.43546e-08
5.40931e-08
5.40291e-08
5.44825e-08
5.60882e-08
5.81251e-08
7.80029e-08
2.67088e-07
1.17001e-07
9.65684e-09
9.95732e-09
6.83589e-09
3.21739e-08
7.0352e-08
1.6697e-07
1.11285e-06
2.50677e-07
1.10272e-07
6.0716e-08
5.73802e-08
5.36457e-08
4.93517e-07
1.138e-06
1.34651e-06
1.50026e-06
1.50939e-06
1.47248e-06
1.45825e-06
1.45242e-06
1.44974e-06
1.44892e-06
1.44884e-06
1.44739e-06
1.44647e-06
1.44748e-06
1.45075e-06
1.45604e-06
1.38268e-06
3.31153e-07
3.312e-07
3.31758e-07
3.327e-07
3.3397e-07
3.35435e-07
3.37006e-07
3.38684e-07
3.40502e-07
3.4246e-07
3.44538e-07
3.4672e-07
3.48997e-07
3.51367e-07
3.53827e-07
3.56374e-07
3.58998e-07
3.61694e-07
3.64509e-07
3.67527e-07
3.7061e-07
3.73748e-07
3.76934e-07
3.80168e-07
3.83442e-07
3.86748e-07
3.90085e-07
3.93454e-07
3.96854e-07
4.00275e-07
4.03734e-07
4.07211e-07
4.10734e-07
4.14285e-07
4.17899e-07
4.21551e-07
4.25289e-07
4.2911e-07
4.33027e-07
4.37048e-07
4.41189e-07
4.45466e-07
4.49894e-07
4.5448e-07
4.5923e-07
4.6415e-07
4.69251e-07
4.74514e-07
4.79989e-07
4.89104e-07
2.47799e-06
5.00874e-07
2.56502e-06
2.59875e-06
2.63294e-06
2.66756e-06
2.70261e-06
2.73806e-06
2.77392e-06
2.81014e-06
2.84676e-06
2.88377e-06
2.92115e-06
2.95892e-06
2.99704e-06
3.03557e-06
3.07453e-06
3.11389e-06
3.15365e-06
3.1938e-06
3.23437e-06
3.27535e-06
3.31678e-06
3.35856e-06
3.40066e-06
3.44301e-06
3.48576e-06
3.52875e-06
3.57198e-06
3.6153e-06
3.65876e-06
3.70221e-06
3.74565e-06
3.78898e-06
3.83227e-06
3.87546e-06
3.91862e-06
3.9615e-06
4.00394e-06
4.04554e-06
4.08622e-06
4.12579e-06
4.16419e-06
4.20114e-06
4.23647e-06
4.26986e-06
4.30116e-06
4.32991e-06
4.31774e-06
8.4669e-07
8.51178e-07
8.55239e-07
8.58858e-07
8.6206e-07
8.64839e-07
8.67132e-07
8.68884e-07
8.70084e-07
8.7717e-07
4.48135e-06
4.46955e-06
4.40035e-06
8.64575e-07
8.65367e-07
8.73701e-07
8.99298e-07
9.24912e-07
9.05093e-07
8.26564e-07
7.76613e-07
2.57548e-06
1.30232e-06
9.83198e-07
5.505e-07
1.94653e-07
2.91427e-08
2.49699e-10
3.28406e-08
2.07285e-07
5.77814e-07
1.02008e-06
8.54601e-07
8.63747e-07
3.31963e-06
3.9609e-06
9.35403e-07
9.10761e-07
8.53249e-07
8.25974e-07
8.08951e-07
8.00454e-07
4.0236e-06
4.08628e-06
4.09541e-06
8.02351e-07
7.9674e-07
7.97404e-07
7.98622e-07
8.00116e-07
8.01595e-07
8.02864e-07
8.03758e-07
8.04126e-07
8.03923e-07
4.12937e-06
4.16349e-06
4.15405e-06
4.14107e-06
4.12501e-06
4.10632e-06
4.08514e-06
4.0618e-06
4.03638e-06
4.00914e-06
3.9802e-06
3.94985e-06
3.91827e-06
3.88588e-06
3.85272e-06
3.81896e-06
3.78454e-06
3.74971e-06
3.71436e-06
3.67874e-06
3.64277e-06
3.60673e-06
3.57059e-06
3.53458e-06
3.49864e-06
3.46299e-06
3.42757e-06
3.3925e-06
3.35766e-06
3.32319e-06
3.28897e-06
3.25509e-06
3.22139e-06
3.18791e-06
3.15461e-06
3.12147e-06
3.08842e-06
3.05548e-06
3.02261e-06
2.98985e-06
2.95721e-06
2.92467e-06
2.8923e-06
2.86012e-06
2.8282e-06
5.49533e-07
5.40188e-07
5.34336e-07
5.28601e-07
5.22938e-07
5.17352e-07
5.11838e-07
5.06399e-07
5.01027e-07
4.95728e-07
4.90496e-07
4.8532e-07
4.80302e-07
4.75381e-07
4.70516e-07
4.65696e-07
4.60917e-07
4.56178e-07
4.51483e-07
4.46819e-07
4.42195e-07
4.37581e-07
4.33016e-07
4.28462e-07
4.23938e-07
4.19446e-07
4.14979e-07
4.10548e-07
4.06157e-07
4.01797e-07
3.97494e-07
3.93225e-07
3.89031e-07
3.84885e-07
3.80811e-07
3.76818e-07
3.72912e-07
3.691e-07
3.65379e-07
3.61768e-07
3.58265e-07
3.54884e-07
3.51622e-07
3.48488e-07
3.45482e-07
3.42745e-07
3.4019e-07
3.37789e-07
3.35513e-07
3.33347e-07
3.31347e-07
3.2962e-07
3.28231e-07
3.27075e-07
3.25915e-07
3.24534e-07
3.23316e-07
3.22817e-07
3.23478e-07
3.25874e-07
3.29382e-07
3.32544e-07
3.34232e-07
3.32435e-07
3.29745e-07
3.28701e-07
3.32828e-07
3.29362e-07
4.13505e-07
9.24036e-07
6.07795e-07
6.15436e-08
5.64954e-08
4.44728e-08
1.32088e-07
2.75833e-07
1.14185e-06
4.6718e-06
1.05688e-06
3.26342e-07
2.80756e-07
2.46524e-07
2.61157e-07
1.68005e-06
2.70395e-06
3.18065e-06
3.65384e-06
3.75927e-06
3.72133e-06
3.70223e-06
3.67714e-06
3.6473e-06
3.62916e-06
3.6278e-06
3.6353e-06
3.64974e-06
3.66806e-06
3.68491e-06
3.69437e-06
3.50809e-06
1.46467e-06
1.46334e-06
1.46466e-06
1.46805e-06
1.47309e-06
1.47897e-06
1.48522e-06
1.49189e-06
1.49918e-06
1.5071e-06
1.51555e-06
1.52445e-06
1.53377e-06
1.54352e-06
1.55368e-06
1.56426e-06
1.57519e-06
1.58649e-06
1.59821e-06
1.61047e-06
1.62306e-06
1.63599e-06
1.6492e-06
1.66267e-06
1.67634e-06
1.69023e-06
1.70429e-06
1.71856e-06
1.733e-06
1.7476e-06
1.76241e-06
1.77732e-06
1.7925e-06
1.80783e-06
1.82348e-06
1.83935e-06
1.85562e-06
1.87227e-06
1.88936e-06
1.90694e-06
1.92506e-06
1.94378e-06
1.96318e-06
1.98327e-06
2.00411e-06
2.02569e-06
2.04811e-06
2.07123e-06
2.09545e-06
2.13767e-06
6.20794e-06
2.18907e-06
6.41396e-06
6.49426e-06
6.57528e-06
6.6569e-06
6.73908e-06
6.82176e-06
6.90492e-06
6.98849e-06
7.0725e-06
7.15697e-06
7.24183e-06
7.32708e-06
7.41272e-06
7.49885e-06
7.58543e-06
7.67248e-06
7.75996e-06
7.84791e-06
7.93641e-06
8.02542e-06
8.11502e-06
8.20498e-06
8.29528e-06
8.38583e-06
8.47684e-06
8.56798e-06
8.65925e-06
8.75036e-06
8.8414e-06
8.93204e-06
9.02233e-06
9.11204e-06
9.20135e-06
9.29006e-06
9.37826e-06
9.46548e-06
9.55136e-06
9.63525e-06
9.71707e-06
9.79641e-06
9.87316e-06
9.94686e-06
1.00172e-05
1.00837e-05
1.01461e-05
1.02031e-05
1.01796e-05
3.7151e-06
3.73515e-06
3.75315e-06
3.76902e-06
3.78287e-06
3.79466e-06
3.80412e-06
3.81097e-06
3.81551e-06
3.84826e-06
1.05474e-05
1.0525e-05
1.03882e-05
3.78354e-06
3.78776e-06
3.83932e-06
4.01608e-06
4.23216e-06
4.2117e-06
3.87172e-06
3.42457e-06
5.12427e-06
2.97486e-06
1.97296e-06
9.9027e-07
3.23185e-07
5.0834e-08
8.10295e-10
5.66097e-08
3.4281e-07
1.04169e-06
2.0509e-06
2.49059e-06
3.08615e-06
6.89094e-06
8.37749e-06
4.34314e-06
4.1188e-06
3.74557e-06
3.61108e-06
3.53893e-06
3.50189e-06
9.67638e-06
9.78708e-06
9.79389e-06
3.51097e-06
3.48411e-06
3.48687e-06
3.49251e-06
3.49947e-06
3.50644e-06
3.51249e-06
3.51683e-06
3.51875e-06
3.51804e-06
9.77828e-06
9.8449e-06
9.82616e-06
9.80015e-06
9.76824e-06
9.7313e-06
9.68924e-06
9.64298e-06
9.59236e-06
9.53803e-06
9.48013e-06
9.4193e-06
9.35552e-06
9.28993e-06
9.22232e-06
9.15335e-06
9.08266e-06
9.01095e-06
8.93786e-06
8.86409e-06
8.78928e-06
8.71419e-06
8.63852e-06
8.56296e-06
8.48717e-06
8.41179e-06
8.33641e-06
8.2616e-06
8.18683e-06
8.11265e-06
8.03856e-06
7.96502e-06
7.89147e-06
7.81827e-06
7.74506e-06
7.67196e-06
7.59885e-06
7.52569e-06
7.45245e-06
7.37922e-06
7.30598e-06
7.23275e-06
7.15965e-06
7.08672e-06
7.01425e-06
2.39787e-06
2.35464e-06
2.3288e-06
2.30362e-06
2.27874e-06
2.25424e-06
2.23002e-06
2.20615e-06
2.18255e-06
2.1593e-06
2.13634e-06
2.11371e-06
2.0915e-06
2.06963e-06
2.04802e-06
2.02663e-06
2.00546e-06
1.9845e-06
1.96373e-06
1.94312e-06
1.92274e-06
1.90243e-06
1.88236e-06
1.86237e-06
1.84254e-06
1.82288e-06
1.80337e-06
1.78404e-06
1.76492e-06
1.74597e-06
1.72731e-06
1.70881e-06
1.69069e-06
1.67279e-06
1.65526e-06
1.6381e-06
1.62135e-06
1.60504e-06
1.58916e-06
1.57379e-06
1.5589e-06
1.54458e-06
1.53086e-06
1.51772e-06
1.50515e-06
1.49342e-06
1.48244e-06
1.47218e-06
1.46249e-06
1.45326e-06
1.44475e-06
1.4376e-06
1.43228e-06
1.42823e-06
1.42393e-06
1.41779e-06
1.41157e-06
1.40853e-06
1.4127e-06
1.4285e-06
1.45149e-06
1.47297e-06
1.4844e-06
1.47076e-06
1.44392e-06
1.42145e-06
1.41562e-06
1.36255e-06
1.57286e-06
2.32902e-06
1.86147e-06
3.2506e-07
2.49175e-07
2.13146e-07
3.65246e-07
1.15113e-06
4.73533e-06
1.37025e-05
3.66989e-06
7.72795e-07
7.94831e-07
8.3209e-07
1.08947e-06
3.97747e-06
5.24403e-06
6.1643e-06
7.13724e-06
7.42325e-06
7.40917e-06
7.38413e-06
7.31761e-06
7.23244e-06
7.18066e-06
7.17967e-06
7.21094e-06
7.26187e-06
7.31743e-06
7.36051e-06
7.3772e-06
7.09496e-06
4.74311e-06
4.75486e-06
4.77474e-06
4.79972e-06
4.82769e-06
4.85747e-06
4.88893e-06
4.92249e-06
4.95826e-06
4.99599e-06
5.03533e-06
5.07611e-06
5.11827e-06
5.16173e-06
5.20637e-06
5.25216e-06
5.29892e-06
5.34662e-06
5.3953e-06
5.44507e-06
5.49558e-06
5.54683e-06
5.59869e-06
5.6511e-06
5.70393e-06
5.75726e-06
5.81097e-06
5.86511e-06
5.91969e-06
5.97472e-06
6.03037e-06
6.0863e-06
6.14334e-06
6.20082e-06
6.25974e-06
6.31945e-06
6.38092e-06
6.44391e-06
6.50876e-06
6.57563e-06
6.64472e-06
6.71623e-06
6.79028e-06
6.86689e-06
6.94624e-06
7.02809e-06
7.11276e-06
7.19959e-06
7.28979e-06
7.42294e-06
1.23131e-05
7.61249e-06
1.26938e-05
1.28502e-05
1.30078e-05
1.3166e-05
1.33247e-05
1.34838e-05
1.36433e-05
1.38029e-05
1.39627e-05
1.41227e-05
1.42827e-05
1.44429e-05
1.46031e-05
1.47635e-05
1.4924e-05
1.50846e-05
1.52453e-05
1.54063e-05
1.55677e-05
1.57293e-05
1.58913e-05
1.60534e-05
1.62155e-05
1.63776e-05
1.65398e-05
1.67016e-05
1.68629e-05
1.70234e-05
1.71831e-05
1.73414e-05
1.74985e-05
1.76541e-05
1.78083e-05
1.79608e-05
1.81115e-05
1.82598e-05
1.84051e-05
1.85466e-05
1.86843e-05
1.88177e-05
1.89464e-05
1.90698e-05
1.91876e-05
1.92994e-05
1.94047e-05
1.95015e-05
1.94946e-05
1.2598e-05
1.26609e-05
1.27187e-05
1.27714e-05
1.28195e-05
1.28627e-05
1.29001e-05
1.29301e-05
1.29527e-05
1.30331e-05
2.01992e-05
2.0171e-05
1.99874e-05
1.28589e-05
1.28083e-05
1.27519e-05
1.26801e-05
1.23879e-05
1.15344e-05
1.00749e-05
8.34201e-06
8.38918e-06
5.12768e-06
3.04329e-06
1.37007e-06
4.16616e-07
7.07794e-08
2.24466e-09
7.77781e-08
4.3936e-07
1.44456e-06
3.16862e-06
4.78757e-06
6.72736e-06
1.16185e-05
1.44756e-05
1.19725e-05
1.25392e-05
1.24973e-05
1.23586e-05
1.21689e-05
1.20539e-05
1.89308e-05
1.90333e-05
1.90056e-05
1.20307e-05
1.19525e-05
1.1948e-05
1.19523e-05
1.19613e-05
1.19716e-05
1.19808e-05
1.19868e-05
1.19872e-05
1.1981e-05
1.87787e-05
1.8857e-05
1.88238e-05
1.87791e-05
1.87252e-05
1.86634e-05
1.8593e-05
1.85158e-05
1.84311e-05
1.83402e-05
1.82432e-05
1.8141e-05
1.80332e-05
1.79218e-05
1.78063e-05
1.76882e-05
1.75665e-05
1.74426e-05
1.7316e-05
1.7188e-05
1.70577e-05
1.69267e-05
1.67941e-05
1.66615e-05
1.65278e-05
1.63943e-05
1.62601e-05
1.61265e-05
1.59922e-05
1.58585e-05
1.57242e-05
1.55905e-05
1.54563e-05
1.53224e-05
1.51878e-05
1.50532e-05
1.49181e-05
1.47827e-05
1.46467e-05
1.45105e-05
1.43739e-05
1.42371e-05
1.41002e-05
1.39634e-05
1.38276e-05
8.33641e-06
8.20279e-06
8.11377e-06
8.02686e-06
7.94075e-06
7.85579e-06
7.77168e-06
7.68868e-06
7.60648e-06
7.52541e-06
7.44522e-06
7.36609e-06
7.28807e-06
7.21101e-06
7.13483e-06
7.05942e-06
6.98471e-06
6.91069e-06
6.8373e-06
6.7644e-06
6.69232e-06
6.62034e-06
6.54928e-06
6.47834e-06
6.40788e-06
6.33789e-06
6.26835e-06
6.19931e-06
6.13085e-06
6.06279e-06
5.99577e-06
5.92902e-06
5.8635e-06
5.79858e-06
5.73473e-06
5.672e-06
5.61052e-06
5.55039e-06
5.49156e-06
5.43447e-06
5.37882e-06
5.32493e-06
5.27294e-06
5.22284e-06
5.17453e-06
5.12853e-06
5.0847e-06
5.0433e-06
5.00414e-06
4.96657e-06
4.93037e-06
4.89666e-06
4.86765e-06
4.84414e-06
4.82433e-06
4.80195e-06
4.77538e-06
4.74767e-06
4.72499e-06
4.7243e-06
4.74646e-06
4.78393e-06
4.83001e-06
4.84783e-06
4.82614e-06
4.7758e-06
4.72429e-06
4.44363e-06
4.32751e-06
4.86298e-06
4.20579e-06
1.39139e-06
8.67763e-07
5.81959e-07
8.2969e-07
3.98341e-06
1.37188e-05
3.03938e-05
1.03806e-05
1.84215e-06
1.57147e-06
2.3478e-06
3.82292e-06
7.54831e-06
8.90798e-06
1.06562e-05
1.22651e-05
1.27545e-05
1.27563e-05
1.27073e-05
1.2579e-05
1.24255e-05
1.23407e-05
1.23523e-05
1.2426e-05
1.25325e-05
1.26404e-05
1.27196e-05
1.27556e-05
1.24796e-05
1.05088e-05
1.05582e-05
1.06227e-05
1.06951e-05
1.07711e-05
1.08503e-05
1.09338e-05
1.10224e-05
1.11158e-05
1.12131e-05
1.13137e-05
1.14173e-05
1.15237e-05
1.16328e-05
1.17442e-05
1.18579e-05
1.19734e-05
1.20906e-05
1.22096e-05
1.23301e-05
1.2452e-05
1.2575e-05
1.26989e-05
1.28237e-05
1.29492e-05
1.30754e-05
1.32023e-05
1.33299e-05
1.34582e-05
1.35875e-05
1.37181e-05
1.38495e-05
1.39835e-05
1.41187e-05
1.42575e-05
1.43984e-05
1.45439e-05
1.46933e-05
1.48475e-05
1.5007e-05
1.51723e-05
1.53438e-05
1.55217e-05
1.57061e-05
1.58972e-05
1.60945e-05
1.62985e-05
1.65078e-05
1.67236e-05
1.69953e-05
2.12632e-05
1.74485e-05
2.18839e-05
2.21576e-05
2.24336e-05
2.27102e-05
2.29872e-05
2.32645e-05
2.35419e-05
2.3819e-05
2.40959e-05
2.43724e-05
2.46484e-05
2.49238e-05
2.51986e-05
2.54731e-05
2.57465e-05
2.60193e-05
2.6291e-05
2.65626e-05
2.68338e-05
2.71048e-05
2.7375e-05
2.76443e-05
2.79129e-05
2.8181e-05
2.84477e-05
2.87126e-05
2.89755e-05
2.9236e-05
2.94937e-05
2.9748e-05
2.9999e-05
3.02464e-05
3.049e-05
3.07294e-05
3.09641e-05
3.11931e-05
3.14159e-05
3.16321e-05
3.18418e-05
3.20446e-05
3.22396e-05
3.24266e-05
3.26051e-05
3.27753e-05
3.29367e-05
3.30881e-05
3.314e-05
2.79508e-05
2.80789e-05
2.82015e-05
2.83196e-05
2.84339e-05
2.85441e-05
2.86484e-05
2.87434e-05
2.88255e-05
2.8965e-05
3.44417e-05
3.44316e-05
3.42415e-05
2.87069e-05
2.83412e-05
2.76353e-05
2.64672e-05
2.46595e-05
2.19972e-05
1.85321e-05
1.46622e-05
1.20108e-05
7.25952e-06
3.8671e-06
1.5518e-06
4.46865e-07
8.52982e-08
5.71728e-09
9.23534e-08
4.68084e-07
1.641e-06
4.03264e-06
7.13102e-06
1.10145e-05
1.72713e-05
2.21363e-05
2.29227e-05
2.55473e-05
2.71471e-05
2.79458e-05
2.80601e-05
2.79089e-05
3.30783e-05
3.3035e-05
3.28842e-05
2.73625e-05
2.71685e-05
2.70741e-05
2.70046e-05
2.69552e-05
2.69199e-05
2.68936e-05
2.6871e-05
2.68465e-05
2.68157e-05
3.20292e-05
3.20804e-05
3.2022e-05
3.19495e-05
3.18648e-05
3.1769e-05
3.16606e-05
3.15423e-05
3.14127e-05
3.12735e-05
3.1125e-05
3.09681e-05
3.08015e-05
3.0628e-05
3.0447e-05
3.02607e-05
3.0068e-05
2.98709e-05
2.96688e-05
2.94637e-05
2.92547e-05
2.90437e-05
2.88298e-05
2.86148e-05
2.83974e-05
2.81792e-05
2.79587e-05
2.77379e-05
2.75151e-05
2.72921e-05
2.70674e-05
2.68427e-05
2.66164e-05
2.63901e-05
2.61622e-05
2.59336e-05
2.5704e-05
2.54734e-05
2.52418e-05
2.50094e-05
2.47763e-05
2.45426e-05
2.43087e-05
2.40748e-05
2.38432e-05
1.91429e-05
1.88857e-05
1.86857e-05
1.84889e-05
1.82938e-05
1.81009e-05
1.791e-05
1.77212e-05
1.75344e-05
1.73499e-05
1.71675e-05
1.69872e-05
1.68092e-05
1.66332e-05
1.64591e-05
1.62868e-05
1.61161e-05
1.59468e-05
1.5779e-05
1.56122e-05
1.54472e-05
1.52824e-05
1.51195e-05
1.49569e-05
1.47951e-05
1.46343e-05
1.44743e-05
1.43152e-05
1.41572e-05
1.39999e-05
1.38448e-05
1.369e-05
1.35378e-05
1.33867e-05
1.32377e-05
1.3091e-05
1.29468e-05
1.28055e-05
1.26668e-05
1.25319e-05
1.24001e-05
1.2272e-05
1.21478e-05
1.20277e-05
1.19115e-05
1.17998e-05
1.16925e-05
1.15902e-05
1.14932e-05
1.14002e-05
1.13094e-05
1.12211e-05
1.11398e-05
1.10703e-05
1.1014e-05
1.09601e-05
1.08974e-05
1.08216e-05
1.07322e-05
1.06613e-05
1.06284e-05
1.06433e-05
1.07188e-05
1.0808e-05
1.08525e-05
1.08301e-05
1.07787e-05
1.02519e-05
9.24159e-06
8.81832e-06
7.8528e-06
4.92581e-06
2.5337e-06
1.13627e-06
1.9735e-06
1.11668e-05
3.01189e-05
5.42358e-05
2.40443e-05
4.4085e-06
2.55288e-06
5.79392e-06
9.90081e-06
1.22756e-05
1.37754e-05
1.68558e-05
1.91652e-05
1.97697e-05
1.97334e-05
1.96216e-05
1.9414e-05
1.92016e-05
1.91137e-05
1.91728e-05
1.93193e-05
1.95026e-05
1.96744e-05
1.97973e-05
1.98669e-05
1.96743e-05
1.83533e-05
1.84645e-05
1.85968e-05
1.87385e-05
1.88838e-05
1.9034e-05
1.91919e-05
1.93587e-05
1.9533e-05
1.97131e-05
1.98983e-05
2.00882e-05
2.02827e-05
2.04812e-05
2.06833e-05
2.08887e-05
2.1097e-05
2.13078e-05
2.1521e-05
2.17364e-05
2.19536e-05
2.21723e-05
2.23922e-05
2.26133e-05
2.28355e-05
2.30585e-05
2.32825e-05
2.35076e-05
2.37339e-05
2.39618e-05
2.4192e-05
2.44237e-05
2.46602e-05
2.48989e-05
2.51444e-05
2.53937e-05
2.56515e-05
2.59166e-05
2.61905e-05
2.64743e-05
2.67686e-05
2.70742e-05
2.73913e-05
2.772e-05
2.80604e-05
2.84122e-05
2.87751e-05
2.91476e-05
2.95301e-05
2.99668e-05
3.31547e-05
3.07683e-05
3.40816e-05
3.45121e-05
3.4946e-05
3.53804e-05
3.5815e-05
3.62497e-05
3.66841e-05
3.71178e-05
3.75506e-05
3.79822e-05
3.84124e-05
3.8841e-05
3.92681e-05
3.96943e-05
4.01173e-05
4.05387e-05
4.09571e-05
4.1375e-05
4.17909e-05
4.22058e-05
4.26176e-05
4.30274e-05
4.34348e-05
4.38408e-05
4.42429e-05
4.46405e-05
4.50334e-05
4.54216e-05
4.58033e-05
4.61783e-05
4.65463e-05
4.69072e-05
4.72601e-05
4.76045e-05
4.79388e-05
4.82622e-05
4.85741e-05
4.88758e-05
4.91673e-05
4.94484e-05
4.9718e-05
4.99761e-05
5.02228e-05
5.04592e-05
5.06852e-05
5.09009e-05
5.10354e-05
4.78943e-05
4.8099e-05
4.83013e-05
4.85032e-05
4.87058e-05
4.89087e-05
4.91092e-05
4.93012e-05
4.94764e-05
4.96853e-05
5.31949e-05
5.32224e-05
5.30293e-05
4.93017e-05
4.83303e-05
4.64308e-05
4.34022e-05
3.92404e-05
3.39887e-05
2.78332e-05
2.12083e-05
1.53955e-05
8.8438e-06
4.19267e-06
1.48121e-06
4.18164e-07
9.43976e-08
1.3335e-08
1.00592e-07
4.33561e-07
1.57311e-06
4.37848e-06
8.90243e-06
1.50218e-05
2.31956e-05
3.06774e-05
3.55167e-05
4.12163e-05
4.56125e-05
4.83446e-05
4.93295e-05
4.92944e-05
5.22628e-05
5.19563e-05
5.15878e-05
4.78433e-05
4.74704e-05
4.72052e-05
4.69887e-05
4.6817e-05
4.66825e-05
4.65768e-05
4.649e-05
4.64125e-05
4.63349e-05
4.95742e-05
4.95688e-05
4.94718e-05
4.93599e-05
4.92343e-05
4.90947e-05
4.89388e-05
4.87695e-05
4.85853e-05
4.83878e-05
4.81774e-05
4.79545e-05
4.77171e-05
4.74673e-05
4.72055e-05
4.6934e-05
4.66523e-05
4.63625e-05
4.60649e-05
4.57617e-05
4.54526e-05
4.51395e-05
4.48216e-05
4.45007e-05
4.41756e-05
4.38473e-05
4.35146e-05
4.31795e-05
4.28408e-05
4.24999e-05
4.21558e-05
4.18102e-05
4.1462e-05
4.11127e-05
4.07606e-05
4.04069e-05
4.00515e-05
3.96944e-05
3.93358e-05
3.89758e-05
3.86148e-05
3.82531e-05
3.7891e-05
3.7529e-05
3.71704e-05
3.37588e-05
3.33643e-05
3.30236e-05
3.26866e-05
3.23525e-05
3.20215e-05
3.16937e-05
3.13693e-05
3.10482e-05
3.07308e-05
3.04167e-05
3.01061e-05
2.9799e-05
2.94952e-05
2.91945e-05
2.88966e-05
2.86015e-05
2.83088e-05
2.80184e-05
2.77295e-05
2.74438e-05
2.71582e-05
2.68758e-05
2.65937e-05
2.63128e-05
2.60334e-05
2.57552e-05
2.54783e-05
2.52031e-05
2.49289e-05
2.46581e-05
2.43878e-05
2.41213e-05
2.38568e-05
2.35954e-05
2.33377e-05
2.30841e-05
2.2835e-05
2.25903e-05
2.23517e-05
2.21184e-05
2.18909e-05
2.16699e-05
2.14557e-05
2.1248e-05
2.10473e-05
2.08535e-05
2.06678e-05
2.04912e-05
2.0322e-05
2.01563e-05
1.99924e-05
1.98359e-05
1.96969e-05
1.9583e-05
1.94825e-05
1.93726e-05
1.92367e-05
1.9059e-05
1.88793e-05
1.87399e-05
1.86786e-05
1.87432e-05
1.89006e-05
1.90456e-05
1.91113e-05
1.9137e-05
1.85009e-05
1.64241e-05
1.43062e-05
1.27705e-05
1.1181e-05
6.4857e-06
1.87982e-06
4.66746e-06
2.55599e-05
5.33606e-05
8.24843e-05
4.61604e-05
9.82255e-06
4.46347e-06
1.30626e-05
1.81189e-05
1.78785e-05
1.9959e-05
2.45569e-05
2.74217e-05
2.80158e-05
2.78932e-05
2.76964e-05
2.74193e-05
2.71864e-05
2.71455e-05
2.72937e-05
2.75403e-05
2.7814e-05
2.80542e-05
2.8226e-05
2.83431e-05
2.82724e-05
2.75615e-05
2.77533e-05
2.79698e-05
2.81955e-05
2.84245e-05
2.86606e-05
2.89081e-05
2.91677e-05
2.9437e-05
2.97139e-05
2.99973e-05
3.0287e-05
3.05828e-05
3.08838e-05
3.11895e-05
3.14995e-05
3.18133e-05
3.21304e-05
3.24505e-05
3.27734e-05
3.30985e-05
3.34256e-05
3.37543e-05
3.40845e-05
3.44162e-05
3.4749e-05
3.50832e-05
3.54189e-05
3.57566e-05
3.60967e-05
3.64402e-05
3.67865e-05
3.71398e-05
3.74971e-05