/*--------------------------------*- C++ -*----------------------------------*\
| =========                 |                                                 |
| \\      /  F ield         | OpenFOAM: The Open Source CFD Toolbox           |
|  \\    /   O peration     | Version:  2412                                  |
|   \\  /    A nd           | Website:  www.openfoam.com                      |
|    \\/     M anipulation  |                                                 |
\*---------------------------------------------------------------------------*/
FoamFile
{
    version     2.0;
    format      ascii;
    arch        "LSB;label=32;scalar=64";
    class       volScalarField;
    location    "60";
    object      nut;
}
// * * * * * * * * * * * * * * * * * * * * * * * * * * * * * * * * * * * * * //

dimensions      [0 2 -1 0 0 0 0];

internalField   nonuniform List<scalar> 
29601
(
6.47092e-12
1.2263e-11
1.7208e-12
2.58792e-13
9.66616e-13
9.81749e-13
1.215e-11
2.82605e-11
2.85094e-11
2.15777e-11
1.77044e-11
1.58287e-11
1.49863e-11
1.49413e-11
1.5369e-11
1.57117e-11
1.57295e-11
1.55188e-11
1.51199e-11
1.47089e-11
1.44593e-11
1.43644e-11
1.43776e-11
1.44188e-11
1.44268e-11
1.44082e-11
1.43867e-11
1.43879e-11
1.44141e-11
1.4453e-11
1.44958e-11
1.454e-11
1.45887e-11
1.46429e-11
1.47031e-11
1.47666e-11
1.48329e-11
1.4903e-11
1.49755e-11
1.50501e-11
1.51272e-11
1.52067e-11
1.52883e-11
1.53721e-11
1.54572e-11
1.55438e-11
1.56324e-11
1.57221e-11
1.58127e-11
1.59024e-11
1.59944e-11
1.60872e-11
1.61805e-11
1.62751e-11
1.63687e-11
1.64636e-11
1.65596e-11
1.66567e-11
1.67533e-11
1.68506e-11
1.69499e-11
1.70515e-11
1.71545e-11
1.72582e-11
1.73655e-11
1.74758e-11
1.75893e-11
1.77062e-11
1.78261e-11
1.79507e-11
1.80797e-11
1.82118e-11
1.83496e-11
1.84914e-11
1.86385e-11
1.8792e-11
1.89513e-11
1.91147e-11
1.9284e-11
1.94588e-11
1.96412e-11
1.98288e-11
2.00227e-11
2.02236e-11
2.04308e-11
2.06428e-11
2.0862e-11
2.10872e-11
2.13172e-11
2.15523e-11
2.17933e-11
2.20384e-11
2.22875e-11
2.25412e-11
2.27993e-11
2.30627e-11
2.33294e-11
2.36015e-11
2.38784e-11
2.41602e-11
2.44471e-11
2.47397e-11
2.50371e-11
2.534e-11
2.56481e-11
2.59607e-11
2.62768e-11
2.65937e-11
2.69125e-11
2.72311e-11
2.75478e-11
2.78644e-11
2.81791e-11
2.84896e-11
2.87916e-11
2.90837e-11
2.9364e-11
2.96293e-11
2.98784e-11
3.01093e-11
3.03175e-11
3.05002e-11
3.06561e-11
3.07848e-11
3.08842e-11
3.09504e-11
3.09763e-11
3.09656e-11
3.0918e-11
3.08295e-11
3.06913e-11
3.05096e-11
3.02819e-11
2.99999e-11
2.96443e-11
2.92177e-11
2.88164e-11
2.88529e-11
3.02409e-11
3.29843e-11
3.53298e-11
3.64905e-11
3.68164e-11
3.69905e-11
3.75304e-11
3.66274e-11
3.17452e-11
1.7019e-11
2.92856e-12
3.09966e-15
3.28885e-12
1.80386e-11
3.26733e-11
3.73003e-11
3.79891e-11
3.70791e-11
3.62987e-11
3.46824e-11
3.07981e-11
2.56901e-11
2.43916e-11
2.50089e-11
2.56771e-11
2.62548e-11
2.67567e-11
2.71938e-11
2.75808e-11
2.7933e-11
2.82446e-11
2.85178e-11
2.87441e-11
2.89231e-11
2.90574e-11
2.91527e-11
2.91996e-11
2.9213e-11
2.91924e-11
2.91415e-11
2.90618e-11
2.89553e-11
2.88241e-11
2.8672e-11
2.85007e-11
2.83114e-11
2.81087e-11
2.78935e-11
2.76668e-11
2.7433e-11
2.71941e-11
2.69512e-11
2.67022e-11
2.64482e-11
2.6192e-11
2.59326e-11
2.56729e-11
2.54144e-11
2.51578e-11
2.4903e-11
2.46497e-11
2.43991e-11
2.41511e-11
2.39064e-11
2.36655e-11
2.34291e-11
2.31956e-11
2.2966e-11
2.27401e-11
2.25178e-11
2.22985e-11
2.20826e-11
2.1872e-11
2.16649e-11
2.14607e-11
2.1261e-11
2.10646e-11
2.08721e-11
2.06823e-11
2.0498e-11
2.03164e-11
2.01385e-11
1.99637e-11
1.97927e-11
1.96236e-11
1.94573e-11
1.92923e-11
1.91322e-11
1.8974e-11
1.8818e-11
1.86648e-11
1.85123e-11
1.8362e-11
1.82145e-11
1.8068e-11
1.79231e-11
1.77799e-11
1.76384e-11
1.74997e-11
1.73608e-11
1.72224e-11
1.70866e-11
1.69521e-11
1.68189e-11
1.66852e-11
1.65534e-11
1.64234e-11
1.62954e-11
1.61672e-11
1.60412e-11
1.59168e-11
1.57938e-11
1.56739e-11
1.55548e-11
1.54365e-11
1.53211e-11
1.52077e-11
1.50971e-11
1.49886e-11
1.48829e-11
1.47802e-11
1.46806e-11
1.45843e-11
1.44909e-11
1.44007e-11
1.43148e-11
1.42322e-11
1.41534e-11
1.40808e-11
1.40138e-11
1.3951e-11
1.38898e-11
1.38312e-11
1.37852e-11
1.37616e-11
1.37595e-11
1.37535e-11
1.37213e-11
1.36564e-11
1.36183e-11
1.36827e-11
1.3894e-11
1.42572e-11
1.46083e-11
1.47808e-11
1.47395e-11
1.43929e-11
1.39683e-11
1.39878e-11
1.47505e-11
1.64669e-11
2.00185e-11
2.63818e-11
2.61075e-11
1.11909e-11
9.12214e-13
9.11537e-13
2.42356e-13
1.50093e-12
1.2072e-11
6.72365e-12
4.99038e-10
8.95015e-10
1.81654e-10
2.30429e-11
7.92152e-11
8.94114e-11
1.18988e-09
2.49506e-09
2.47607e-09
1.94692e-09
1.63293e-09
1.47704e-09
1.40794e-09
1.40573e-09
1.44143e-09
1.46871e-09
1.46847e-09
1.44874e-09
1.41378e-09
1.37857e-09
1.35735e-09
1.34954e-09
1.35092e-09
1.35461e-09
1.35547e-09
1.35415e-09
1.35271e-09
1.35335e-09
1.35625e-09
1.36028e-09
1.36466e-09
1.36924e-09
1.37424e-09
1.3798e-09
1.38589e-09
1.3923e-09
1.399e-09
1.40602e-09
1.41329e-09
1.42079e-09
1.42854e-09
1.43649e-09
1.44465e-09
1.45302e-09
1.46152e-09
1.47016e-09
1.479e-09
1.48791e-09
1.49698e-09
1.50602e-09
1.51521e-09
1.52449e-09
1.53381e-09
1.54325e-09
1.55267e-09
1.56217e-09
1.57176e-09
1.58151e-09
1.5913e-09
1.60114e-09
1.61116e-09
1.62138e-09
1.63183e-09
1.64244e-09
1.65336e-09
1.66455e-09
1.67609e-09
1.68799e-09
1.70022e-09
1.71286e-09
1.72591e-09
1.73935e-09
1.75332e-09
1.76772e-09
1.78263e-09
1.79808e-09
1.81413e-09
1.83058e-09
1.84761e-09
1.86517e-09
1.8834e-09
1.90212e-09
1.92145e-09
1.94133e-09
1.96177e-09
1.9827e-09
2.00423e-09
2.02619e-09
2.04852e-09
2.0713e-09
2.09444e-09
2.1178e-09
2.14146e-09
2.16546e-09
2.18971e-09
2.21427e-09
2.23905e-09
2.26424e-09
2.28978e-09
2.31575e-09
2.34221e-09
2.36923e-09
2.39672e-09
2.42483e-09
2.45348e-09
2.48265e-09
2.51222e-09
2.54198e-09
2.57207e-09
2.60221e-09
2.63226e-09
2.66239e-09
2.69242e-09
2.72212e-09
2.75109e-09
2.7792e-09
2.80621e-09
2.83188e-09
2.85602e-09
2.87841e-09
2.89864e-09
2.9165e-09
2.93183e-09
2.94454e-09
2.9544e-09
2.96093e-09
2.96361e-09
2.96272e-09
2.95812e-09
2.94943e-09
2.9355e-09
2.91664e-09
2.89243e-09
2.86134e-09
2.82045e-09
2.76829e-09
2.71258e-09
2.69854e-09
2.83746e-09
3.13277e-09
3.3712e-09
3.46942e-09
3.4775e-09
3.46087e-09
3.45539e-09
3.29427e-09
2.7493e-09
1.3839e-09
2.36425e-10
2.95962e-13
2.64694e-10
1.46787e-09
2.83279e-09
3.35905e-09
3.50306e-09
3.47742e-09
3.44071e-09
3.31127e-09
2.90865e-09
2.34356e-09
2.24517e-09
2.35626e-09
2.44504e-09
2.50883e-09
2.55963e-09
2.60211e-09
2.639e-09
2.67214e-09
2.70134e-09
2.72677e-09
2.74781e-09
2.76431e-09
2.77661e-09
2.78529e-09
2.78939e-09
2.7903e-09
2.78802e-09
2.78288e-09
2.77508e-09
2.76481e-09
2.75223e-09
2.73767e-09
2.72129e-09
2.70328e-09
2.68404e-09
2.66368e-09
2.64226e-09
2.62021e-09
2.59776e-09
2.57495e-09
2.55161e-09
2.52784e-09
2.50394e-09
2.47979e-09
2.45565e-09
2.43165e-09
2.40784e-09
2.38426e-09
2.36079e-09
2.33759e-09
2.31464e-09
2.29198e-09
2.2696e-09
2.24759e-09
2.22579e-09
2.20423e-09
2.18291e-09
2.16187e-09
2.1411e-09
2.12053e-09
2.10029e-09
2.08039e-09
2.06071e-09
2.04131e-09
2.02218e-09
2.00344e-09
1.9849e-09
1.96677e-09
1.94888e-09
1.93134e-09
1.91404e-09
1.89709e-09
1.88032e-09
1.86383e-09
1.84749e-09
1.83156e-09
1.81578e-09
1.80027e-09
1.78499e-09
1.76987e-09
1.75494e-09
1.74021e-09
1.72561e-09
1.7112e-09
1.69696e-09
1.68287e-09
1.66896e-09
1.65515e-09
1.64144e-09
1.62795e-09
1.61455e-09
1.60124e-09
1.58796e-09
1.57491e-09
1.56199e-09
1.54922e-09
1.53649e-09
1.52397e-09
1.51159e-09
1.49936e-09
1.48736e-09
1.47548e-09
1.46376e-09
1.45228e-09
1.44101e-09
1.43001e-09
1.41922e-09
1.40871e-09
1.39849e-09
1.38857e-09
1.37897e-09
1.36968e-09
1.36072e-09
1.35215e-09
1.34392e-09
1.33607e-09
1.32877e-09
1.32204e-09
1.31571e-09
1.3096e-09
1.30373e-09
1.29897e-09
1.29624e-09
1.29546e-09
1.29448e-09
1.29132e-09
1.28535e-09
1.28156e-09
1.28654e-09
1.30428e-09
1.33526e-09
1.36592e-09
1.38204e-09
1.37983e-09
1.35163e-09
1.31566e-09
1.31547e-09
1.37794e-09
1.52089e-09
1.8098e-09
2.2981e-09
2.31075e-09
1.09714e-09
8.33746e-11
7.44911e-11
2.16327e-11
1.60096e-10
8.96092e-10
5.15488e-10
4.04667e-09
6.20726e-09
1.97729e-09
2.16299e-10
6.26445e-10
9.48198e-10
1.17442e-08
2.13259e-08
2.08833e-08
1.72931e-08
1.49601e-08
1.37649e-08
1.32491e-08
1.32499e-08
1.35204e-08
1.37099e-08
1.36843e-08
1.35042e-08
1.32141e-08
1.29323e-08
1.27652e-08
1.27076e-08
1.27231e-08
1.27558e-08
1.27664e-08
1.27614e-08
1.27577e-08
1.27727e-08
1.2807e-08
1.28511e-08
1.2899e-08
1.29494e-08
1.30039e-08
1.3064e-08
1.31288e-08
1.31968e-08
1.32677e-08
1.33416e-08
1.34179e-08
1.34967e-08
1.35779e-08
1.36611e-08
1.37464e-08
1.38335e-08
1.39222e-08
1.40123e-08
1.41041e-08
1.41967e-08
1.42909e-08
1.43853e-08
1.4481e-08
1.45775e-08
1.46747e-08
1.47729e-08
1.48717e-08
1.49713e-08
1.50718e-08
1.51739e-08
1.52772e-08
1.53817e-08
1.5488e-08
1.55964e-08
1.57075e-08
1.58211e-08
1.59377e-08
1.60574e-08
1.61809e-08
1.63082e-08
1.64391e-08
1.65741e-08
1.67135e-08
1.68572e-08
1.70059e-08
1.7159e-08
1.7317e-08
1.74802e-08
1.76489e-08
1.78217e-08
1.80002e-08
1.81837e-08
1.83731e-08
1.8567e-08
1.87664e-08
1.89707e-08
1.91797e-08
1.93929e-08
1.96112e-08
1.98327e-08
2.00573e-08
2.02849e-08
2.05145e-08
2.07453e-08
2.09781e-08
2.12125e-08
2.14483e-08
2.16855e-08
2.19247e-08
2.21663e-08
2.24105e-08
2.26583e-08
2.29108e-08
2.31681e-08
2.34304e-08
2.36984e-08
2.39718e-08
2.42502e-08
2.45323e-08
2.48176e-08
2.51059e-08
2.53949e-08
2.56841e-08
2.59737e-08
2.62624e-08
2.65481e-08
2.68276e-08
2.70985e-08
2.73587e-08
2.76064e-08
2.78394e-08
2.80556e-08
2.82517e-08
2.8425e-08
2.85746e-08
2.86986e-08
2.8795e-08
2.88599e-08
2.88878e-08
2.88824e-08
2.884e-08
2.87597e-08
2.86286e-08
2.84454e-08
2.82074e-08
2.78958e-08
2.7475e-08
2.69225e-08
2.63066e-08
2.60966e-08
2.74889e-08
3.04641e-08
3.26904e-08
3.33698e-08
3.30755e-08
3.23797e-08
3.14412e-08
2.87716e-08
2.2546e-08
1.04091e-08
1.78905e-09
2.87166e-12
1.99446e-09
1.10469e-08
2.32667e-08
2.93994e-08
3.19588e-08
3.26636e-08
3.29219e-08
3.21123e-08
2.82805e-08
2.23821e-08
2.15175e-08
2.28711e-08
2.385e-08
2.44966e-08
2.49902e-08
2.53944e-08
2.57421e-08
2.60537e-08
2.63299e-08
2.65686e-08
2.6768e-08
2.69252e-08
2.70419e-08
2.71253e-08
2.71643e-08
2.71735e-08
2.71522e-08
2.71029e-08
2.70284e-08
2.69302e-08
2.68104e-08
2.66715e-08
2.65151e-08
2.63434e-08
2.61597e-08
2.59646e-08
2.57601e-08
2.55496e-08
2.53351e-08
2.51168e-08
2.48943e-08
2.46674e-08
2.44391e-08
2.42096e-08
2.39795e-08
2.37509e-08
2.35238e-08
2.32986e-08
2.30748e-08
2.28529e-08
2.26336e-08
2.24165e-08
2.22016e-08
2.19889e-08
2.17784e-08
2.15693e-08
2.13616e-08
2.11556e-08
2.09515e-08
2.0749e-08
2.05484e-08
2.035e-08
2.01536e-08
1.99591e-08
1.97667e-08
1.95776e-08
1.939e-08
1.92057e-08
1.90235e-08
1.88445e-08
1.8667e-08
1.84929e-08
1.83207e-08
1.81512e-08
1.79832e-08
1.78186e-08
1.76555e-08
1.74951e-08
1.73368e-08
1.71804e-08
1.7026e-08
1.68736e-08
1.67225e-08
1.65733e-08
1.64261e-08
1.62802e-08
1.6136e-08
1.59932e-08
1.58517e-08
1.5712e-08
1.55732e-08
1.54356e-08
1.52987e-08
1.5164e-08
1.50304e-08
1.48981e-08
1.47669e-08
1.46375e-08
1.45095e-08
1.43831e-08
1.42586e-08
1.41358e-08
1.40148e-08
1.3896e-08
1.37794e-08
1.36655e-08
1.35538e-08
1.3445e-08
1.33392e-08
1.32363e-08
1.31368e-08
1.30406e-08
1.29478e-08
1.28588e-08
1.27733e-08
1.26916e-08
1.26151e-08
1.25443e-08
1.24776e-08
1.24135e-08
1.23521e-08
1.23003e-08
1.22659e-08
1.22489e-08
1.22324e-08
1.21997e-08
1.21446e-08
1.21055e-08
1.21365e-08
1.22726e-08
1.25179e-08
1.27703e-08
1.29163e-08
1.29159e-08
1.27104e-08
1.24291e-08
1.24047e-08
1.28683e-08
1.39669e-08
1.61241e-08
1.94618e-08
1.98264e-08
1.08555e-08
8.76955e-10
5.86982e-10
2.03421e-10
1.81271e-09
6.32285e-09
3.97037e-09
1.90397e-08
2.12362e-08
9.54744e-09
1.22622e-09
2.4387e-09
6.45041e-09
5.60332e-08
8.8341e-08
8.63111e-08
7.55891e-08
6.76532e-08
6.3448e-08
6.17086e-08
6.17786e-08
6.26785e-08
6.32271e-08
6.3015e-08
6.22438e-08
6.11275e-08
6.00935e-08
5.94985e-08
5.93218e-08
5.94144e-08
5.95661e-08
5.96422e-08
5.96712e-08
5.97197e-08
5.98492e-08
6.00582e-08
6.031e-08
6.05805e-08
6.08656e-08
6.11727e-08
6.15055e-08
6.18598e-08
6.22297e-08
6.26139e-08
6.30123e-08
6.34236e-08
6.38467e-08
6.4281e-08
6.47256e-08
6.51801e-08
6.56435e-08
6.61151e-08
6.65934e-08
6.708e-08
6.75712e-08
6.80698e-08
6.85709e-08
6.90783e-08
6.95911e-08
7.01085e-08
7.06315e-08
7.11592e-08
7.1693e-08
7.22326e-08
7.27816e-08
7.33391e-08
7.3906e-08
7.4485e-08
7.50763e-08
7.56831e-08
7.6305e-08
7.69457e-08
7.76038e-08
7.82821e-08
7.89808e-08
7.96992e-08
8.04397e-08
8.12034e-08
8.19889e-08
8.27991e-08
8.36309e-08
8.44862e-08
8.53661e-08
8.62709e-08
8.71967e-08
8.81469e-08
8.9121e-08
9.01196e-08
9.1139e-08
9.21814e-08
9.3245e-08
9.43273e-08
9.54268e-08
9.65456e-08
9.76766e-08
9.88186e-08
9.99692e-08
1.01124e-07
1.02281e-07
1.03441e-07
1.04604e-07
1.05768e-07
1.06936e-07
1.08108e-07
1.09288e-07
1.10477e-07
1.11682e-07
1.12904e-07
1.14148e-07
1.15415e-07
1.16706e-07
1.18022e-07
1.1936e-07
1.20715e-07
1.22085e-07
1.23467e-07
1.24854e-07
1.2624e-07
1.27626e-07
1.29007e-07
1.30372e-07
1.31706e-07
1.32997e-07
1.34237e-07
1.35417e-07
1.36529e-07
1.37558e-07
1.38495e-07
1.39324e-07
1.40043e-07
1.40643e-07
1.41118e-07
1.4144e-07
1.41599e-07
1.41603e-07
1.41437e-07
1.41103e-07
1.40532e-07
1.39717e-07
1.38647e-07
1.37217e-07
1.35252e-07
1.32632e-07
1.29683e-07
1.28727e-07
1.35601e-07
1.49614e-07
1.59002e-07
1.60346e-07
1.56502e-07
1.49739e-07
1.39994e-07
1.21395e-07
8.82701e-08
3.71374e-08
6.46825e-09
1.40036e-11
7.17562e-09
3.94207e-08
9.12321e-08
1.24364e-07
1.4279e-07
1.51844e-07
1.57037e-07
1.56147e-07
1.39604e-07
1.1054e-07
1.0606e-07
1.12946e-07
1.17715e-07
1.20735e-07
1.23003e-07
1.24848e-07
1.26436e-07
1.27862e-07
1.29142e-07
1.30255e-07
1.3119e-07
1.31933e-07
1.3249e-07
1.32889e-07
1.33086e-07
1.33135e-07
1.33043e-07
1.32818e-07
1.32473e-07
1.32012e-07
1.31451e-07
1.30795e-07
1.30057e-07
1.29243e-07
1.28372e-07
1.27444e-07
1.26469e-07
1.25464e-07
1.24438e-07
1.23392e-07
1.22325e-07
1.21239e-07
1.20143e-07
1.19041e-07
1.17937e-07
1.16836e-07
1.15742e-07
1.14653e-07
1.13572e-07
1.12497e-07
1.11431e-07
1.10374e-07
1.09325e-07
1.08283e-07
1.07248e-07
1.06217e-07
1.0519e-07
1.04168e-07
1.0315e-07
1.02137e-07
1.01129e-07
1.00128e-07
9.91333e-08
9.8146e-08
9.71663e-08
9.61985e-08
9.5236e-08
9.42872e-08
9.33466e-08
9.24191e-08
9.1498e-08
9.05918e-08
8.9693e-08
8.88077e-08
8.79286e-08
8.70656e-08
8.62094e-08
8.53658e-08
8.45323e-08
8.37082e-08
8.28949e-08
8.20921e-08
8.1297e-08
8.0511e-08
7.97342e-08
7.89653e-08
7.82061e-08
7.74547e-08
7.67094e-08
7.59733e-08
7.52424e-08
7.45194e-08
7.38012e-08
7.30926e-08
7.23896e-08
7.16936e-08
7.10045e-08
7.03232e-08
6.965e-08
6.89853e-08
6.83303e-08
6.76843e-08
6.70473e-08
6.64219e-08
6.58079e-08
6.52069e-08
6.46185e-08
6.40445e-08
6.34857e-08
6.29427e-08
6.24164e-08
6.19073e-08
6.14163e-08
6.09448e-08
6.04915e-08
6.00575e-08
5.96481e-08
5.92661e-08
5.8906e-08
5.85613e-08
5.82315e-08
5.79424e-08
5.77249e-08
5.75824e-08
5.74545e-08
5.7275e-08
5.70149e-08
5.68065e-08
5.68592e-08
5.73175e-08
5.8199e-08
5.91555e-08
5.97713e-08
5.98489e-08
5.91885e-08
5.81934e-08
5.79993e-08
5.95387e-08
6.34109e-08
7.07931e-08
8.0863e-08
8.2573e-08
5.20411e-08
5.92451e-09
2.27294e-09
1.17462e-09
9.25205e-09
2.20267e-08
1.96883e-08
8.22727e-08
5.23834e-08
2.94667e-08
5.52529e-09
6.79818e-09
3.30279e-08
1.80692e-07
2.53901e-07
2.50774e-07
2.32028e-07
2.14757e-07
2.05261e-07
2.01547e-07
2.01779e-07
2.03496e-07
2.04302e-07
2.03446e-07
2.01321e-07
1.9859e-07
1.96217e-07
1.94938e-07
1.94701e-07
1.95108e-07
1.95655e-07
1.96055e-07
1.96392e-07
1.96833e-07
1.97516e-07
1.98422e-07
1.99457e-07
2.0056e-07
2.01724e-07
2.02965e-07
2.04289e-07
2.05683e-07
2.0713e-07
2.08626e-07
2.1017e-07
2.11759e-07
2.13388e-07
2.15055e-07
2.16756e-07
2.18491e-07
2.20256e-07
2.22052e-07
2.23871e-07
2.25719e-07
2.27585e-07
2.29477e-07
2.31383e-07
2.33314e-07
2.35267e-07
2.37242e-07
2.39243e-07
2.41265e-07
2.43318e-07
2.45404e-07
2.47529e-07
2.49697e-07
2.5191e-07
2.54179e-07
2.56503e-07
2.58892e-07
2.61349e-07
2.6388e-07
2.66485e-07
2.69169e-07
2.7193e-07
2.7477e-07
2.77693e-07
2.80697e-07
2.83779e-07
2.86946e-07
2.90188e-07
2.93508e-07
2.96907e-07
3.00381e-07
3.03925e-07
3.07539e-07
3.11227e-07
3.14982e-07
3.18801e-07
3.22682e-07
3.26621e-07
3.30606e-07
3.3464e-07
3.3872e-07
3.42826e-07
3.46954e-07
3.51095e-07
3.55237e-07
3.59375e-07
3.63506e-07
3.67634e-07
3.7176e-07
3.75886e-07
3.80013e-07
3.84152e-07
3.88318e-07
3.9252e-07
3.9677e-07
4.01081e-07
4.05457e-07
4.09901e-07
4.14412e-07
4.18983e-07
4.23601e-07
4.28257e-07
4.32941e-07
4.37625e-07
4.42302e-07
4.46966e-07
4.51598e-07
4.56159e-07
4.60612e-07
4.64916e-07
4.69042e-07
4.72971e-07
4.76665e-07
4.80094e-07
4.83216e-07
4.85993e-07
4.88421e-07
4.90477e-07
4.92128e-07
4.93306e-07
4.93988e-07
4.94186e-07
4.93877e-07
4.93059e-07
4.91539e-07
4.89298e-07
4.86294e-07
4.82195e-07
4.76477e-07
4.68843e-07
4.60525e-07
4.59052e-07
4.82128e-07
5.24424e-07
5.47969e-07
5.43522e-07
5.19843e-07
4.82654e-07
4.30313e-07
3.50393e-07
2.35426e-07
9.01372e-08
1.60286e-08
4.87738e-11
1.76837e-08
9.56593e-08
2.43632e-07
3.59937e-07
4.40639e-07
4.9249e-07
5.26814e-07
5.37457e-07
4.94514e-07
4.01732e-07
3.82874e-07
4.02801e-07
4.16739e-07
4.25601e-07
4.32403e-07
4.38e-07
4.42881e-07
4.4732e-07
4.51369e-07
4.5493e-07
4.57967e-07
4.60404e-07
4.62259e-07
4.63589e-07
4.64279e-07
4.64481e-07
4.64212e-07
4.635e-07
4.6239e-07
4.60893e-07
4.59048e-07
4.56891e-07
4.54444e-07
4.51746e-07
4.48838e-07
4.45734e-07
4.42466e-07
4.39079e-07
4.35609e-07
4.32063e-07
4.28443e-07
4.24749e-07
4.21014e-07
4.1725e-07
4.13471e-07
4.09691e-07
4.05921e-07
4.02163e-07
3.98417e-07
3.94689e-07
3.90978e-07
3.87284e-07
3.8361e-07
3.79948e-07
3.76297e-07
3.72652e-07
3.69013e-07
3.65379e-07
3.61749e-07
3.58124e-07
3.54509e-07
3.50905e-07
3.47314e-07
3.43736e-07
3.40176e-07
3.36647e-07
3.33128e-07
3.29644e-07
3.26179e-07
3.22753e-07
3.19344e-07
3.15977e-07
3.12629e-07
3.09324e-07
3.06038e-07
3.02801e-07
2.99587e-07
2.96414e-07
2.93277e-07
2.90173e-07
2.87104e-07
2.84074e-07
2.81076e-07
2.7811e-07
2.75178e-07
2.72279e-07
2.69414e-07
2.66581e-07
2.63773e-07
2.60998e-07
2.58247e-07
2.55525e-07
2.52825e-07
2.50157e-07
2.47513e-07
2.44898e-07
2.42305e-07
2.39741e-07
2.37209e-07
2.34707e-07
2.3224e-07
2.29807e-07
2.27408e-07
2.2505e-07
2.22735e-07
2.20466e-07
2.18246e-07
2.16078e-07
2.13965e-07
2.1191e-07
2.09915e-07
2.07984e-07
2.0612e-07
2.04328e-07
2.02601e-07
2.00945e-07
1.99374e-07
1.97895e-07
1.96496e-07
1.95161e-07
1.93885e-07
1.92729e-07
1.91774e-07
1.91039e-07
1.90391e-07
1.89656e-07
1.88749e-07
1.87947e-07
1.87777e-07
1.88631e-07
1.90559e-07
1.92823e-07
1.94462e-07
1.94849e-07
1.93573e-07
1.91401e-07
1.90687e-07
1.93839e-07
2.02571e-07
2.1874e-07
2.3659e-07
2.39056e-07
1.69032e-07
3.02165e-08
6.29247e-09
5.31062e-09
2.95562e-08
5.51623e-08
8.7183e-08
3.03391e-07
1.09224e-07
6.95631e-08
2.0822e-08
1.62552e-08
1.38014e-07
4.51313e-07
5.84319e-07
5.90468e-07
5.74242e-07
5.47941e-07
5.32684e-07
5.27015e-07
5.27023e-07
5.28566e-07
5.28728e-07
5.26606e-07
5.22582e-07
5.18131e-07
5.14661e-07
5.1313e-07
5.13476e-07
5.14938e-07
5.1669e-07
5.18343e-07
5.20069e-07
5.22152e-07
5.24803e-07
5.27941e-07
5.3139e-07
5.35039e-07
5.38885e-07
5.42945e-07
5.47214e-07
5.51665e-07
5.56263e-07
5.60992e-07
5.65852e-07
5.70831e-07
5.75916e-07
5.81106e-07
5.86391e-07
5.91765e-07
5.97225e-07
6.02769e-07
6.08385e-07
6.14079e-07
6.19834e-07
6.25667e-07
6.31559e-07
6.37531e-07
6.43581e-07
6.49712e-07
6.55937e-07
6.62257e-07
6.68694e-07
6.75262e-07
6.81974e-07
6.88853e-07
6.95902e-07
7.03159e-07
7.10615e-07
7.18301e-07
7.26218e-07
7.3438e-07
7.42791e-07
7.51458e-07
7.6037e-07
7.69525e-07
7.78925e-07
7.88559e-07
7.98413e-07
8.08491e-07
8.18771e-07
8.29249e-07
8.39923e-07
8.50763e-07
8.61772e-07
8.7293e-07
8.84249e-07
8.95693e-07
9.07277e-07
9.18959e-07
9.30762e-07
9.42627e-07
9.5459e-07
9.66607e-07
9.78652e-07
9.90711e-07
1.00276e-06
1.01479e-06
1.02678e-06
1.03872e-06
1.05063e-06
1.06251e-06
1.07437e-06
1.0862e-06
1.09804e-06
1.10992e-06
1.12186e-06
1.13389e-06
1.14604e-06
1.1583e-06
1.17068e-06
1.18318e-06
1.19578e-06
1.20846e-06
1.22118e-06
1.2339e-06
1.24659e-06
1.25922e-06
1.27177e-06
1.28417e-06
1.29635e-06
1.30819e-06
1.31962e-06
1.33058e-06
1.34101e-06
1.35083e-06
1.35996e-06
1.36831e-06
1.37582e-06
1.38247e-06
1.38822e-06
1.39298e-06
1.39664e-06
1.39914e-06
1.40056e-06
1.40086e-06
1.40002e-06
1.39772e-06
1.39392e-06
1.38855e-06
1.38089e-06
1.36999e-06
1.3557e-06
1.34187e-06
1.34602e-06
1.40353e-06
1.49123e-06
1.5215e-06
1.47662e-06
1.37595e-06
1.23073e-06
1.03891e-06
7.90992e-07
4.90983e-07
1.70582e-07
3.12794e-08
1.39316e-10
3.42947e-08
1.80916e-07
5.08543e-07
8.14613e-07
1.06811e-06
1.26429e-06
1.4105e-06
1.48776e-06
1.42622e-06
1.21857e-06
1.15383e-06
1.18443e-06
1.20864e-06
1.22559e-06
1.23987e-06
1.25217e-06
1.26325e-06
1.27358e-06
1.28327e-06
1.29194e-06
1.29948e-06
1.3056e-06
1.31032e-06
1.3137e-06
1.31552e-06
1.31605e-06
1.31537e-06
1.31352e-06
1.31062e-06
1.3067e-06
1.30183e-06
1.29613e-06
1.28964e-06
1.28246e-06
1.27468e-06
1.26636e-06
1.25756e-06
1.2484e-06
1.23895e-06
1.22927e-06
1.21937e-06
1.20925e-06
1.19898e-06
1.18859e-06
1.17813e-06
1.16762e-06
1.1571e-06
1.14657e-06
1.13603e-06
1.12551e-06
1.115e-06
1.1045e-06
1.09402e-06
1.08355e-06
1.07308e-06
1.06259e-06
1.0521e-06
1.0416e-06
1.03109e-06
1.02057e-06
1.01004e-06
9.99523e-07
9.89011e-07
9.78505e-07
9.68015e-07
9.5758e-07
9.47151e-07
9.36786e-07
9.26439e-07
9.16174e-07
9.05936e-07
8.95781e-07
8.85666e-07
8.75646e-07
8.65671e-07
8.55805e-07
8.46003e-07
8.36306e-07
8.26704e-07
8.17192e-07
8.07779e-07
7.98478e-07
7.89274e-07
7.80169e-07
7.71173e-07
7.62282e-07
7.53494e-07
7.44805e-07
7.36201e-07
7.27697e-07
7.19281e-07
7.10954e-07
7.02708e-07
6.94547e-07
6.86471e-07
6.7848e-07
6.70566e-07
6.6274e-07
6.55002e-07
6.47356e-07
6.39813e-07
6.32372e-07
6.2504e-07
6.17824e-07
6.10735e-07
6.03781e-07
5.96972e-07
5.90319e-07
5.83828e-07
5.77508e-07
5.7137e-07
5.65418e-07
5.59664e-07
5.54118e-07
5.48771e-07
5.43632e-07
5.38728e-07
5.34075e-07
5.29656e-07
5.25444e-07
5.21421e-07
5.17683e-07
5.14381e-07
5.11582e-07
5.09092e-07
5.06595e-07
5.03904e-07
5.0138e-07
4.99959e-07
5.00415e-07
5.02818e-07
5.06168e-07
5.08993e-07
5.09858e-07
5.08285e-07
5.05256e-07
5.0375e-07
5.08032e-07
5.21864e-07
5.46563e-07
5.62312e-07
5.55439e-07
4.26187e-07
1.25961e-07
1.49121e-08
1.99813e-08
7.15352e-08
1.162e-07
3.26252e-07
9.42987e-07
2.19797e-07
1.38737e-07
5.94477e-08
4.29858e-08
4.40732e-07
9.39165e-07
1.15879e-06
1.20864e-06
1.22492e-06
1.19861e-06
1.18114e-06
1.17441e-06
1.17219e-06
1.17046e-06
1.16843e-06
1.16536e-06
1.16083e-06
1.15723e-06
1.15548e-06
1.15607e-06
1.1591e-06
1.16359e-06
1.16871e-06
1.17426e-06
1.18045e-06
1.18758e-06
1.19581e-06
1.20492e-06
1.21469e-06
1.22496e-06
1.23575e-06
1.24703e-06
1.25877e-06
1.2709e-06
1.28337e-06
1.29615e-06
1.30921e-06
1.32255e-06
1.33612e-06
1.34994e-06
1.36397e-06
1.37822e-06
1.39266e-06
1.40731e-06
1.42215e-06
1.43718e-06
1.45239e-06
1.46781e-06
1.48341e-06
1.49925e-06
1.51533e-06
1.53166e-06
1.54831e-06
1.56528e-06
1.58263e-06
1.6004e-06
1.61863e-06
1.63742e-06
1.65675e-06
1.6767e-06
1.69729e-06
1.71856e-06
1.74052e-06
1.76319e-06
1.78657e-06
1.81066e-06
1.83542e-06
1.86082e-06
1.88684e-06
1.91345e-06
1.94058e-06
1.9682e-06
1.99628e-06
2.02475e-06
2.05361e-06
2.08274e-06
2.11218e-06
2.14182e-06
2.17172e-06
2.20173e-06
2.23193e-06
2.26216e-06
2.29255e-06
2.32289e-06
2.35333e-06
2.3837e-06
2.41401e-06
2.44422e-06
2.4743e-06
2.50424e-06
2.534e-06
2.56361e-06
2.59307e-06
2.62239e-06
2.65156e-06
2.68064e-06
2.70966e-06
2.73866e-06
2.7677e-06
2.7968e-06
2.826e-06
2.8553e-06
2.88471e-06
2.91421e-06
2.94378e-06
2.97334e-06
3.00284e-06
3.03222e-06
3.06141e-06
3.09034e-06
3.11898e-06
3.14715e-06
3.17468e-06
3.20141e-06
3.22722e-06
3.25197e-06
3.27558e-06
3.2979e-06
3.31878e-06
3.33806e-06
3.35571e-06
3.37173e-06
3.38601e-06
3.39846e-06
3.40886e-06
3.41728e-06
3.42385e-06
3.42866e-06
3.43166e-06
3.43258e-06
3.43146e-06
3.42818e-06
3.42168e-06
3.41111e-06
3.3979e-06
3.39119e-06
3.41909e-06
3.52264e-06
3.63284e-06
3.59801e-06
3.39679e-06
3.06693e-06
2.63003e-06
2.09663e-06
1.49164e-06
8.55757e-07
2.679e-07
5.14042e-08
3.50535e-10
5.59588e-08
2.83797e-07
8.86795e-07
1.53973e-06
2.16348e-06
2.71925e-06
3.18248e-06
3.49772e-06
3.52453e-06
3.21187e-06
3.04641e-06
3.04259e-06
3.05245e-06
3.06715e-06
3.08541e-06
3.10347e-06
3.12106e-06
3.13837e-06
3.15544e-06
3.17123e-06
3.1854e-06
3.19696e-06
3.20594e-06
3.2122e-06
3.21542e-06
3.21588e-06
3.21383e-06
3.20925e-06
3.20241e-06
3.19333e-06
3.18215e-06
3.16912e-06
3.15434e-06
3.13796e-06
3.12018e-06
3.10114e-06
3.08093e-06
3.05977e-06
3.03784e-06
3.01529e-06
2.99217e-06
2.96854e-06
2.94447e-06
2.92004e-06
2.89532e-06
2.87038e-06
2.84529e-06
2.82007e-06
2.79474e-06
2.76934e-06
2.74386e-06
2.7183e-06
2.69268e-06
2.66699e-06
2.64122e-06
2.61536e-06
2.5894e-06
2.56335e-06
2.53721e-06
2.51096e-06
2.48464e-06
2.45826e-06
2.4318e-06
2.40529e-06
2.37873e-06
2.35219e-06
2.32559e-06
2.29904e-06
2.27247e-06
2.24598e-06
2.2195e-06
2.19313e-06
2.16681e-06
2.14063e-06
2.11455e-06
2.08865e-06
2.06289e-06
2.03735e-06
2.01202e-06
1.98691e-06
1.96204e-06
1.93745e-06
1.91311e-06
1.88905e-06
1.86527e-06
1.84178e-06
1.81858e-06
1.79565e-06
1.77298e-06
1.75058e-06
1.72844e-06
1.70654e-06
1.6849e-06
1.66347e-06
1.64228e-06
1.62131e-06
1.60057e-06
1.58006e-06
1.55978e-06
1.53974e-06
1.51997e-06
1.50045e-06
1.48122e-06
1.46227e-06
1.44366e-06
1.42539e-06
1.40748e-06
1.38997e-06
1.37287e-06
1.35621e-06
1.34e-06
1.32427e-06
1.30903e-06
1.29432e-06
1.28012e-06
1.26643e-06
1.25331e-06
1.24078e-06
1.22883e-06
1.21743e-06
1.20655e-06
1.19625e-06
1.18674e-06
1.17815e-06
1.1704e-06
1.16309e-06
1.15593e-06
1.14907e-06
1.14362e-06
1.14064e-06
1.14009e-06
1.14135e-06
1.14332e-06
1.14357e-06
1.14226e-06
1.14031e-06
1.13879e-06
1.14234e-06
1.15727e-06
1.18154e-06
1.16553e-06
1.1151e-06
8.97142e-07
4.0722e-07
3.89831e-08
5.92874e-08
1.45452e-07
2.33685e-07
1.02793e-06
2.50971e-06
5.19916e-07
2.49972e-07
1.32028e-07
1.20485e-07
1.07764e-06
1.70361e-06
2.0674e-06
2.23423e-06
2.33356e-06
2.32589e-06
2.3136e-06
2.30633e-06
2.29736e-06
2.28782e-06
2.28328e-06
2.28305e-06
2.28418e-06
2.28934e-06
2.29672e-06
2.30524e-06
2.31571e-06
2.32763e-06
2.34108e-06
2.35651e-06
2.37398e-06
2.39345e-06
2.41476e-06
2.43745e-06
2.46136e-06
2.4864e-06
2.51255e-06
2.5397e-06
2.56772e-06
2.59649e-06
2.62591e-06
2.65594e-06
2.68654e-06
2.71767e-06
2.74927e-06
2.78134e-06
2.81386e-06
2.84681e-06
2.88019e-06
2.914e-06
2.94823e-06
2.98291e-06
3.01804e-06
3.05366e-06
3.08978e-06
3.12651e-06
3.16389e-06
3.20201e-06
3.24096e-06
3.28083e-06
3.32175e-06
3.36384e-06
3.4072e-06
3.45208e-06
3.4984e-06
3.54642e-06
3.59609e-06
3.64755e-06
3.70078e-06
3.75585e-06
3.81267e-06
3.87121e-06
3.93137e-06
3.99304e-06
4.05612e-06
4.12046e-06
4.18591e-06
4.25233e-06
4.31963e-06
4.38759e-06
4.45619e-06
4.52504e-06
4.59433e-06
4.66366e-06
4.73322e-06
4.80259e-06
4.87199e-06
4.94102e-06
5.01e-06
5.07842e-06
5.14668e-06
5.2143e-06
5.28148e-06
5.34807e-06
5.41406e-06
5.47952e-06
5.54437e-06
5.60865e-06
5.67235e-06
5.73551e-06
5.79815e-06
5.86034e-06
5.92217e-06
5.98371e-06
6.04497e-06
6.10602e-06
6.1669e-06
6.22757e-06
6.28808e-06
6.34841e-06
6.40851e-06
6.46827e-06
6.52762e-06
6.58645e-06
6.64471e-06
6.70229e-06
6.75903e-06
6.81461e-06
6.86874e-06
6.92129e-06
6.97213e-06
7.0211e-06
7.06802e-06
7.11279e-06
7.15515e-06
7.19493e-06
7.23232e-06
7.26742e-06
7.30004e-06
7.3302e-06
7.35769e-06
7.38301e-06
7.40647e-06
7.42853e-06
7.44921e-06
7.46883e-06
7.48762e-06
7.5053e-06
7.52066e-06
7.53421e-06
7.55037e-06
7.58179e-06
7.64859e-06
7.74917e-06
7.73233e-06
7.40467e-06
6.7752e-06
5.91585e-06
4.86307e-06
3.66589e-06
2.43798e-06
1.29187e-06
3.59631e-07
7.38583e-08
8.14528e-10
7.97428e-08
3.80258e-07
1.33886e-06
2.52179e-06
3.79467e-06
5.05569e-06
6.20816e-06
7.13488e-06
7.58609e-06
7.38228e-06
7.11026e-06
6.97498e-06
6.89283e-06
6.85858e-06
6.8527e-06
6.85714e-06
6.86676e-06
6.87979e-06
6.89591e-06
6.91248e-06
6.92866e-06
6.94183e-06
6.95181e-06
6.95768e-06
6.95909e-06
6.95583e-06
6.94845e-06
6.93668e-06
6.92102e-06
6.90139e-06
6.87792e-06
6.85103e-06
6.82099e-06
6.78788e-06
6.75203e-06
6.71372e-06
6.67308e-06
6.63032e-06
6.5858e-06
6.5399e-06
6.49281e-06
6.44466e-06
6.39551e-06
6.34547e-06
6.29464e-06
6.24315e-06
6.1911e-06
6.13858e-06
6.0856e-06
6.03221e-06
5.97842e-06
5.9242e-06
5.86959e-06
5.81461e-06
5.75922e-06
5.70341e-06
5.64717e-06
5.59052e-06
5.53347e-06
5.47597e-06
5.4181e-06
5.35987e-06
5.30125e-06
5.24228e-06
5.18299e-06
5.12348e-06
5.06363e-06
5.00366e-06
4.94342e-06
4.88311e-06
4.82271e-06
4.76233e-06
4.70191e-06
4.64165e-06
4.5815e-06
4.5216e-06
4.46197e-06
4.40273e-06
4.34393e-06
4.28559e-06
4.22779e-06
4.17059e-06
4.114e-06
4.05809e-06
4.00286e-06
3.94833e-06
3.89452e-06
3.84141e-06
3.78895e-06
3.73716e-06
3.68606e-06
3.63553e-06
3.58568e-06
3.53637e-06
3.48761e-06
3.43943e-06
3.39177e-06
3.34467e-06
3.29811e-06
3.25212e-06
3.20673e-06
3.16189e-06
3.11773e-06
3.07421e-06
3.03143e-06
2.9894e-06
2.94818e-06
2.90784e-06
2.86841e-06
2.82995e-06
2.79251e-06
2.75611e-06
2.7208e-06
2.68664e-06
2.65361e-06
2.62173e-06
2.59103e-06
2.56156e-06
2.53335e-06
2.50638e-06
2.48061e-06
2.45595e-06
2.43252e-06
2.41053e-06
2.39028e-06
2.37163e-06
2.35442e-06
2.33794e-06
2.32273e-06
2.30947e-06
2.29746e-06
2.28759e-06
2.28136e-06
2.27594e-06
2.27377e-06
2.27595e-06
2.27729e-06
2.27816e-06
2.2859e-06
2.29067e-06
2.19019e-06
2.02027e-06
1.65006e-06
1.01054e-06
1.08291e-07
1.34511e-07
2.65825e-07
5.54204e-07
2.7711e-06
5.81484e-06
1.26259e-06
4.22971e-07
2.47003e-07
3.36715e-07
2.16729e-06
2.77328e-06
3.40874e-06
3.8083e-06
4.04997e-06
4.08319e-06
4.08387e-06
4.07465e-06
4.05317e-06
4.03313e-06
4.0307e-06
4.04378e-06
4.06421e-06
4.09304e-06
4.12255e-06
4.14916e-06
4.17556e-06
4.20313e-06
4.2343e-06
4.2706e-06
4.31144e-06
4.35579e-06
4.40284e-06
4.45182e-06
4.5029e-06
4.55612e-06
4.61142e-06
4.66845e-06
4.7269e-06
4.7866e-06
4.84741e-06
4.90928e-06
4.97209e-06
5.0358e-06
5.10032e-06
5.16566e-06
5.23178e-06
5.29868e-06
5.36638e-06
5.43491e-06
5.50426e-06
5.57452e-06
5.64577e-06
5.71804e-06
5.79151e-06
5.8663e-06
5.9426e-06
6.02062e-06
6.10057e-06
6.18266e-06