/*--------------------------------*- C++ -*----------------------------------*\
| =========                 |                                                 |
| \\      /  F ield         | OpenFOAM: The Open Source CFD Toolbox           |
|  \\    /   O peration     | Version:  2412                                  |
|   \\  /    A nd           | Website:  www.openfoam.com                      |
|    \\/     M anipulation  |                                                 |
\*---------------------------------------------------------------------------*/
FoamFile
{
    version     2.0;
    format      ascii;
    arch        "LSB;label=32;scalar=64";
    class       volScalarField;
    location    "60";
    object      nuTilda;
}
// * * * * * * * * * * * * * * * * * * * * * * * * * * * * * * * * * * * * * //

dimensions      [0 2 -1 0 0 0 0];

internalField   nonuniform List<scalar> 
32591
(
3.47876e-06
3.74028e-06
2.09179e-06
1.98326e-06
2.48228e-06
2.47147e-06
2.45621e-06
4.58422e-06
5.16704e-06
5.14279e-06
4.94601e-06
4.81252e-06
4.74119e-06
4.72045e-06
4.74367e-06
4.77957e-06
4.79783e-06
4.79553e-06
4.78238e-06
4.76499e-06
4.75375e-06
4.75895e-06
4.74078e-06
3.10186e-06
3.10515e-06
3.10685e-06
3.10811e-06
3.11037e-06
3.11363e-06
3.11725e-06
3.12073e-06
3.12413e-06
3.12764e-06
3.13127e-06
3.135e-06
3.13877e-06
3.14254e-06
3.14634e-06
3.15016e-06
3.15399e-06
3.15783e-06
3.16168e-06
3.16563e-06
3.16957e-06
3.17345e-06
3.17728e-06
3.18107e-06
3.18485e-06
3.18856e-06
3.19218e-06
3.19575e-06
3.19926e-06
3.20267e-06
3.20601e-06
3.20933e-06
3.21248e-06
3.21563e-06
3.21863e-06
3.22159e-06
3.22444e-06
3.22724e-06
3.22999e-06
3.23265e-06
3.23522e-06
3.23771e-06
3.24013e-06
3.24248e-06
3.24472e-06
3.24692e-06
3.24899e-06
3.25098e-06
3.25278e-06
3.25567e-06
5.57572e-06
3.25924e-06
5.62939e-06
5.65363e-06
5.6782e-06
5.70323e-06
5.72877e-06
5.75469e-06
5.78103e-06
5.80773e-06
5.83484e-06
5.86239e-06
5.89027e-06
5.91852e-06
5.94707e-06
5.97597e-06
6.00524e-06
6.03481e-06
6.06465e-06
6.09479e-06
6.12516e-06
6.15576e-06
6.18661e-06
6.21764e-06
6.24873e-06
6.27991e-06
6.3112e-06
6.34259e-06
6.37399e-06
6.40529e-06
6.4365e-06
6.46756e-06
6.49848e-06
6.52917e-06
6.55964e-06
6.58986e-06
6.61989e-06
6.64967e-06
6.67901e-06
6.7076e-06
6.73545e-06
6.76237e-06
6.78836e-06
6.8133e-06
6.83697e-06
6.8592e-06
6.87991e-06
6.89901e-06
6.90585e-06
3.32276e-06
3.32413e-06
3.32535e-06
3.32642e-06
3.32732e-06
3.32806e-06
3.32864e-06
3.32911e-06
3.3293e-06
3.33108e-06
6.98752e-06
6.98199e-06
6.96104e-06
3.33211e-06
3.33719e-06
3.34783e-06
3.3637e-06
3.38097e-06
3.40038e-06
3.43628e-06
3.52585e-06
6.59854e-06
5.08523e-06
5.28989e-06
5.00921e-06
4.18825e-06
2.59298e-06
5.3096e-07
2.69109e-06
4.25793e-06
5.05789e-06
5.32737e-06
3.81275e-06
3.62422e-06
6.85831e-06
7.13297e-06
3.40091e-06
3.37076e-06
3.34432e-06
3.32289e-06
3.31237e-06
3.30942e-06
6.6918e-06
6.72021e-06
6.72973e-06
3.31649e-06
3.31366e-06
3.3147e-06
3.31547e-06
3.31607e-06
3.31648e-06
3.3167e-06
3.31669e-06
3.31644e-06
3.316e-06
6.79806e-06
6.80702e-06
6.80023e-06
6.79115e-06
6.77991e-06
6.76677e-06
6.75191e-06
6.73548e-06
6.71765e-06
6.69849e-06
6.67814e-06
6.6567e-06
6.63445e-06
6.61159e-06
6.58818e-06
6.56419e-06
6.53971e-06
6.5148e-06
6.48954e-06
6.46391e-06
6.43798e-06
6.41178e-06
6.38551e-06
6.35918e-06
6.33288e-06
6.30668e-06
6.28065e-06
6.25474e-06
6.22905e-06
6.20348e-06
6.17816e-06
6.15299e-06
6.12802e-06
6.10304e-06
6.07829e-06
6.0536e-06
6.02895e-06
6.00436e-06
5.9798e-06
5.95537e-06
5.93105e-06
5.90679e-06
5.88268e-06
5.85869e-06
5.8349e-06
3.27407e-06
3.27e-06
3.26854e-06
3.26691e-06
3.26521e-06
3.26338e-06
3.26148e-06
3.25946e-06
3.25733e-06
3.25507e-06
3.25272e-06
3.25021e-06
3.24776e-06
3.2453e-06
3.24274e-06
3.24005e-06
3.23725e-06
3.23436e-06
3.23137e-06
3.22829e-06
3.22504e-06
3.22173e-06
3.21827e-06
3.21472e-06
3.21105e-06
3.20729e-06
3.2034e-06
3.19941e-06
3.19533e-06
3.19114e-06
3.18679e-06
3.18245e-06
3.17796e-06
3.17344e-06
3.16883e-06
3.16417e-06
3.15949e-06
3.15481e-06
3.15013e-06
3.14539e-06
3.14072e-06
3.13607e-06
3.13141e-06
3.12682e-06
3.12232e-06
3.118e-06
3.11385e-06
3.10966e-06
3.10536e-06
3.10144e-06
3.09852e-06
3.09656e-06
3.09419e-06
3.09008e-06
3.08416e-06
3.08054e-06
3.08309e-06
3.09422e-06
3.11053e-06
3.11883e-06
3.11539e-06
3.0969e-06
3.0662e-06
3.05186e-06
3.07502e-06
3.13597e-06
3.23363e-06
3.47966e-06
3.76829e-06
4.56629e-06
2.83274e-06
2.37489e-06
2.40722e-06
1.93082e-06
2.31723e-06
4.00004e-06
3.69205e-06
1.04739e-05
1.03509e-05
7.10582e-06
5.76981e-06
6.78564e-06
6.79618e-06
8.65108e-06
1.4824e-05
1.58593e-05
1.60033e-05
1.57017e-05
1.54158e-05
1.52804e-05
1.52481e-05
1.52912e-05
1.53481e-05
1.53729e-05
1.53613e-05
1.53317e-05
1.52987e-05
1.52829e-05
1.53017e-05
1.51745e-05
8.58199e-06
8.58608e-06
8.59089e-06
8.59686e-06
8.60489e-06
8.61452e-06
8.62497e-06
8.63582e-06
8.64724e-06
8.65936e-06
8.67206e-06
8.68527e-06
8.69895e-06
8.71299e-06
8.7274e-06
8.74215e-06
8.75719e-06
8.77247e-06
8.78809e-06
8.8043e-06
8.82068e-06
8.83713e-06
8.85363e-06
8.87019e-06
8.88684e-06
8.90343e-06
8.91996e-06
8.93651e-06
8.95301e-06
8.96939e-06
8.98576e-06
9.0021e-06
9.01832e-06
9.03456e-06
9.0508e-06
9.06699e-06
9.08329e-06
9.09977e-06
9.11644e-06
9.13329e-06
9.15036e-06
9.16773e-06
9.18546e-06
9.20356e-06
9.22201e-06
9.24094e-06
9.26023e-06
9.27989e-06
9.2999e-06
9.32799e-06
1.77418e-05
9.37107e-06
1.79081e-05
1.79773e-05
1.80473e-05
1.81182e-05
1.819e-05
1.82625e-05
1.83358e-05
1.84098e-05
1.84844e-05
1.85599e-05
1.8636e-05
1.87127e-05
1.879e-05
1.8868e-05
1.89466e-05
1.90259e-05
1.91056e-05
1.9186e-05
1.92667e-05
1.9348e-05
1.94297e-05
1.95119e-05
1.95941e-05
1.96764e-05
1.97591e-05
1.98418e-05
1.99245e-05
2.0007e-05
2.00892e-05
2.0171e-05
2.02524e-05
2.03331e-05
2.04133e-05
2.04929e-05
2.0572e-05
2.06504e-05
2.07276e-05
2.08029e-05
2.08762e-05
2.09471e-05
2.10155e-05
2.10812e-05
2.11436e-05
2.12022e-05
2.12569e-05
2.13073e-05
2.1309e-05
1.04174e-05
1.04284e-05
1.04382e-05
1.04469e-05
1.04545e-05
1.0461e-05
1.04662e-05
1.04703e-05
1.04727e-05
1.04824e-05
2.15452e-05
2.15284e-05
2.14469e-05
1.04643e-05
1.04726e-05
1.04988e-05
1.05486e-05
1.05885e-05
1.05521e-05
1.04095e-05
1.02804e-05
1.99584e-05
1.51705e-05
1.55149e-05
1.4274e-05
1.15621e-05
7.11031e-06
1.63706e-06
7.36381e-06
1.17566e-05
1.44266e-05
1.56358e-05
1.0488e-05
1.03129e-05
2.0787e-05
2.163e-05
1.06049e-05
1.05602e-05
1.04485e-05
1.03634e-05
1.03086e-05
1.0286e-05
2.07496e-05
2.0843e-05
2.08664e-05
1.02977e-05
1.02919e-05
1.02963e-05
1.03014e-05
1.03067e-05
1.03116e-05
1.03156e-05
1.03183e-05
1.03193e-05
1.03188e-05
2.10113e-05
2.10505e-05
2.10328e-05
2.10092e-05
2.09799e-05
2.09456e-05
2.09068e-05
2.08639e-05
2.08172e-05
2.07671e-05
2.07138e-05
2.06577e-05
2.05993e-05
2.05393e-05
2.04778e-05
2.04149e-05
2.03507e-05
2.02853e-05
2.02189e-05
2.01515e-05
2.00833e-05
2.00145e-05
1.99454e-05
1.98761e-05
1.98068e-05
1.97377e-05
1.9669e-05
1.96006e-05
1.95326e-05
1.94649e-05
1.93978e-05
1.93309e-05
1.92644e-05
1.91979e-05
1.91317e-05
1.90656e-05
1.89995e-05
1.89333e-05
1.88672e-05
1.88011e-05
1.8735e-05
1.8669e-05
1.86031e-05
1.85374e-05
1.8472e-05
9.55139e-06
9.52427e-06
9.50372e-06
9.48322e-06
9.46282e-06
9.44242e-06
9.42213e-06
9.40185e-06
9.38158e-06
9.36132e-06
9.34115e-06
9.32079e-06
9.30145e-06
9.28252e-06
9.26357e-06
9.24454e-06
9.22542e-06
9.20626e-06
9.18707e-06
9.1678e-06
9.14836e-06
9.12879e-06
9.10914e-06
9.08932e-06
9.06939e-06
9.0494e-06
9.02924e-06
9.00901e-06
8.98875e-06
8.9684e-06
8.94798e-06
8.92762e-06
8.90726e-06
8.88699e-06
8.86678e-06
8.84674e-06
8.82696e-06
8.80742e-06
8.78816e-06
8.7692e-06
8.75067e-06
8.73255e-06
8.71481e-06
8.69761e-06
8.68095e-06
8.66522e-06
8.6503e-06
8.63595e-06
8.62203e-06
8.60887e-06
8.59714e-06
8.58721e-06
8.57833e-06
8.56908e-06
8.55865e-06
8.54928e-06
8.54568e-06
8.55168e-06
8.56569e-06
8.57936e-06
8.58683e-06
8.58143e-06
8.56374e-06
8.54822e-06
8.56048e-06
8.6133e-06
8.73129e-06
9.09529e-06
1.01363e-05
1.43835e-05
1.00472e-05
6.55338e-06
6.64519e-06
5.57326e-06
7.83251e-06
1.08467e-05
1.06921e-05
2.08239e-05
1.63803e-05
1.29524e-05
1.01681e-05
1.04735e-05
1.05649e-05
1.73488e-05
2.48855e-05
2.60989e-05
2.65906e-05
2.64044e-05
2.60963e-05
2.5964e-05
2.59325e-05
2.59622e-05
2.60017e-05
2.60167e-05
2.59999e-05
2.5971e-05
2.59461e-05
2.5942e-05
2.59715e-05
2.56731e-05
1.58494e-05
1.58533e-05
1.58615e-05
1.58733e-05
1.58888e-05
1.59067e-05
1.59259e-05
1.59463e-05
1.5968e-05
1.59912e-05
1.60155e-05
1.60409e-05
1.60672e-05
1.60944e-05
1.61223e-05
1.61509e-05
1.61802e-05
1.62099e-05
1.62406e-05
1.62727e-05
1.63053e-05
1.6338e-05
1.63709e-05
1.6404e-05
1.64373e-05
1.64705e-05
1.65038e-05
1.65371e-05
1.65704e-05
1.66035e-05
1.66367e-05
1.66699e-05
1.67031e-05
1.67363e-05
1.67697e-05
1.68032e-05
1.6837e-05
1.68714e-05
1.69063e-05
1.69417e-05
1.69778e-05
1.70147e-05
1.70526e-05
1.70914e-05
1.71311e-05
1.71719e-05
1.72138e-05
1.72566e-05
1.73004e-05
1.73707e-05
2.99156e-05
1.74659e-05
3.01913e-05
3.02997e-05
3.04089e-05
3.0519e-05
3.06298e-05
3.07414e-05
3.08538e-05
3.09667e-05
3.10802e-05
3.11944e-05
3.13092e-05
3.14245e-05
3.15403e-05
3.16567e-05
3.17737e-05
3.18913e-05
3.20094e-05
3.21279e-05
3.22469e-05
3.23663e-05
3.24863e-05
3.26065e-05
3.27268e-05
3.2847e-05
3.29675e-05
3.30879e-05
3.32082e-05
3.33279e-05
3.34472e-05
3.35657e-05
3.36835e-05
3.38001e-05
3.3916e-05
3.40308e-05
3.41449e-05
3.42577e-05
3.43687e-05
3.44769e-05
3.45821e-05
3.46838e-05
3.4782e-05
3.48759e-05
3.49653e-05
3.50493e-05
3.51275e-05
3.51995e-05
3.51821e-05
1.98387e-05
1.98639e-05
1.98866e-05
1.99068e-05
1.99245e-05
1.99399e-05
1.99527e-05
1.99625e-05
1.9969e-05
1.99993e-05
3.55484e-05
3.55217e-05
3.53733e-05
1.99435e-05
1.99518e-05
1.99959e-05
2.01023e-05
2.01864e-05
2.00589e-05
1.96374e-05
1.92777e-05
3.2067e-05
2.56081e-05
2.4883e-05
2.21438e-05
1.74452e-05
1.07605e-05
2.8336e-06
1.11166e-05
1.77338e-05
2.2401e-05
2.50992e-05
1.99764e-05
1.94664e-05
3.36847e-05
3.51264e-05
2.02075e-05
2.01323e-05
1.98811e-05
1.97192e-05
1.96104e-05
1.95598e-05
3.43914e-05
3.45465e-05
3.45768e-05
1.95737e-05
1.95512e-05
1.95574e-05
1.95662e-05
1.95763e-05
1.95859e-05
1.9594e-05
1.95996e-05
1.96019e-05
1.96008e-05
3.47336e-05
3.48089e-05
3.47842e-05
3.47507e-05
3.47092e-05
3.46606e-05
3.46055e-05
3.45446e-05
3.44781e-05
3.44066e-05
3.43304e-05
3.42502e-05
3.41666e-05
3.40805e-05
3.39922e-05
3.39017e-05
3.38092e-05
3.3715e-05
3.36191e-05
3.35218e-05
3.34231e-05
3.33236e-05
3.32234e-05
3.31229e-05
3.30222e-05
3.29217e-05
3.28215e-05
3.27216e-05
3.26222e-05
3.25231e-05
3.24244e-05
3.2326e-05
3.2228e-05
3.21298e-05
3.20318e-05
3.19338e-05
3.18355e-05
3.1737e-05
3.16382e-05
3.15393e-05
3.14402e-05
3.13408e-05
3.12415e-05
3.11422e-05
3.10431e-05
1.78665e-05
1.77998e-05
1.77534e-05
1.77074e-05
1.76615e-05
1.76159e-05
1.75705e-05
1.75254e-05
1.74804e-05
1.74356e-05
1.73911e-05
1.73464e-05
1.7305e-05
1.72649e-05
1.72249e-05
1.71849e-05
1.71448e-05
1.71047e-05
1.70646e-05
1.70244e-05
1.69841e-05
1.69436e-05
1.6903e-05
1.68622e-05
1.68213e-05
1.67803e-05
1.67391e-05
1.66978e-05
1.66565e-05
1.66151e-05
1.65738e-05
1.65325e-05
1.64914e-05
1.64505e-05
1.64098e-05
1.63696e-05
1.63299e-05
1.62907e-05
1.62522e-05
1.62144e-05
1.61774e-05
1.61413e-05
1.61061e-05
1.6072e-05
1.6039e-05
1.60082e-05
1.59792e-05
1.59515e-05
1.5925e-05
1.58997e-05
1.58764e-05
1.58562e-05
1.58391e-05
1.58235e-05
1.58074e-05
1.57907e-05
1.57789e-05
1.57784e-05
1.57901e-05
1.58134e-05
1.58411e-05
1.5859e-05
1.58607e-05
1.58415e-05
1.58368e-05
1.587e-05
1.5986e-05
1.61296e-05
1.73643e-05
2.36612e-05
1.92243e-05
1.02908e-05
1.037e-05
9.43882e-06
1.39081e-05
1.69204e-05
2.10216e-05
3.39909e-05
2.3286e-05
1.89404e-05
1.63069e-05
1.60775e-05
1.58086e-05
2.76326e-05
3.41862e-05
3.56958e-05
3.6704e-05
3.67614e-05
3.65275e-05
3.64362e-05
3.63986e-05
3.63813e-05
3.63759e-05
3.63754e-05
3.6366e-05
3.63601e-05
3.63666e-05
3.63878e-05
3.64219e-05
3.59402e-05
2.49802e-05
2.49811e-05
2.49917e-05
2.50096e-05
2.50337e-05
2.50614e-05
2.5091e-05
2.51225e-05
2.51565e-05
2.51929e-05
2.52314e-05
2.52717e-05
2.53135e-05
2.53569e-05
2.54016e-05
2.54477e-05
2.54949e-05
2.55431e-05
2.55932e-05
2.56466e-05
2.57008e-05
2.57556e-05
2.58109e-05
2.58667e-05
2.59229e-05
2.59792e-05
2.60357e-05
2.60923e-05
2.61492e-05
2.6206e-05
2.62631e-05
2.63201e-05
2.63775e-05
2.6435e-05
2.64932e-05
2.65516e-05
2.66109e-05
2.66712e-05
2.67326e-05
2.67953e-05
2.68593e-05
2.6925e-05
2.69925e-05
2.70619e-05
2.71332e-05
2.72065e-05
2.72819e-05
2.73591e-05
2.74387e-05
2.75698e-05
4.18118e-05
2.77364e-05
4.21913e-05
4.23359e-05
4.24812e-05
4.2627e-05
4.27733e-05
4.29198e-05
4.30668e-05
4.32138e-05
4.33611e-05
4.35087e-05
4.36564e-05
4.38043e-05
4.39522e-05
4.41005e-05
4.4249e-05
4.43978e-05
4.45467e-05
4.46958e-05
4.48451e-05
4.49946e-05
4.51445e-05
4.52943e-05
4.54439e-05
4.55932e-05
4.57425e-05
4.58915e-05
4.604e-05
4.61876e-05
4.63345e-05
4.64801e-05
4.66246e-05
4.67675e-05
4.69091e-05
4.70494e-05
4.71885e-05
4.73256e-05
4.74604e-05
4.75915e-05
4.77189e-05
4.78419e-05
4.79605e-05
4.8074e-05
4.81819e-05
4.82833e-05
4.83778e-05
4.84642e-05
4.84277e-05
3.16965e-05
3.17393e-05
3.17778e-05
3.18121e-05
3.18423e-05
3.18685e-05
3.189e-05
3.19064e-05
3.19177e-05
3.19838e-05
4.89131e-05
4.88785e-05
4.86743e-05
3.1866e-05
3.18734e-05
3.19515e-05
3.21879e-05
3.24196e-05
3.22407e-05
3.15026e-05
3.1006e-05
4.22363e-05
3.53908e-05
3.293e-05
2.84089e-05
2.18488e-05
1.35677e-05
4.12573e-06
1.39797e-05
2.21973e-05
2.87601e-05
3.32417e-05
3.17718e-05
3.18582e-05
4.51547e-05
4.73237e-05
3.25132e-05
3.22922e-05
3.17589e-05
3.14968e-05
3.133e-05
3.12458e-05
4.75225e-05
4.7719e-05
4.77475e-05
3.12647e-05
3.12088e-05
3.12154e-05
3.12276e-05
3.12424e-05
3.12572e-05
3.12698e-05
3.12786e-05
3.12823e-05
3.12803e-05
4.7853e-05
4.79584e-05
4.79293e-05
4.78892e-05
4.78395e-05
4.77815e-05
4.77155e-05
4.76425e-05
4.75627e-05
4.74768e-05
4.73851e-05
4.72885e-05
4.71873e-05
4.70831e-05
4.69757e-05
4.68657e-05
4.67529e-05
4.6638e-05
4.65206e-05
4.64016e-05
4.62806e-05
4.61585e-05
4.60353e-05
4.59116e-05
4.57873e-05
4.56632e-05
4.55389e-05
4.5415e-05
4.52911e-05
4.51675e-05
4.5044e-05
4.49208e-05
4.47975e-05
4.4674e-05
4.45503e-05
4.44262e-05
4.43017e-05
4.41766e-05
4.40508e-05
4.39245e-05
4.37976e-05
4.36702e-05
4.35425e-05
4.34146e-05
4.32866e-05
2.83962e-05
2.82729e-05
2.81949e-05
2.81179e-05
2.80412e-05
2.79649e-05
2.78891e-05
2.78137e-05
2.77386e-05
2.76639e-05
2.75897e-05
2.75156e-05
2.74433e-05
2.73718e-05
2.73005e-05
2.72294e-05
2.71584e-05
2.70874e-05
2.70166e-05
2.69456e-05
2.68748e-05
2.68035e-05
2.67325e-05
2.6661e-05
2.65895e-05
2.6518e-05
2.64462e-05
2.63745e-05
2.63029e-05
2.62312e-05
2.61598e-05
2.60885e-05
2.60179e-05
2.59475e-05
2.58778e-05
2.58089e-05
2.5741e-05
2.56743e-05
2.56086e-05
2.55444e-05
2.54817e-05
2.54207e-05
2.53615e-05
2.53042e-05
2.52489e-05
2.51982e-05
2.51506e-05
2.51057e-05
2.50629e-05
2.50219e-05
2.49839e-05
2.4951e-05
2.49244e-05
2.49022e-05
2.48799e-05
2.48532e-05
2.48296e-05
2.48199e-05
2.48328e-05
2.48791e-05
2.49464e-05
2.50067e-05
2.50387e-05
2.50046e-05
2.49534e-05
2.49334e-05
2.50121e-05
2.4946e-05
2.64224e-05
3.24118e-05
2.91319e-05
1.63623e-05
1.6015e-05
1.50829e-05
1.9819e-05
2.38542e-05
3.42158e-05
4.94633e-05
3.35445e-05
2.48881e-05
2.39608e-05
2.31881e-05
2.35276e-05
3.77927e-05
4.27788e-05
4.46471e-05
4.63179e-05
4.66696e-05
4.65438e-05
4.64802e-05
4.63962e-05
4.62959e-05
4.62346e-05
4.623e-05
4.62554e-05
4.63041e-05
4.63658e-05
4.64223e-05
4.64539e-05
4.58201e-05
3.64775e-05
3.64689e-05
3.64774e-05
3.64991e-05
3.65314e-05
3.65689e-05
3.66087e-05
3.66511e-05
3.66971e-05
3.6747e-05
3.68001e-05
3.68557e-05
3.69137e-05
3.69741e-05
3.70368e-05
3.71017e-05
3.71685e-05
3.72371e-05
3.7308e-05
3.73818e-05
3.7457e-05
3.75339e-05
3.7612e-05
3.76912e-05
3.77711e-05
3.78518e-05
3.7933e-05
3.80149e-05
3.80973e-05
3.81801e-05
3.82636e-05
3.83472e-05
3.84318e-05
3.85167e-05
3.86028e-05
3.86897e-05
3.87781e-05
3.8868e-05
3.89597e-05
3.90535e-05
3.91494e-05
3.92479e-05
3.93493e-05
3.94535e-05
3.95608e-05
3.96711e-05
3.97848e-05
3.99011e-05
4.00219e-05
4.02303e-05
5.34302e-05
4.048e-05
5.39106e-05
5.40951e-05
5.42798e-05
5.44643e-05
5.46487e-05
5.48326e-05
5.50162e-05
5.51993e-05
5.53818e-05
5.5564e-05
5.57456e-05
5.59267e-05
5.61073e-05
5.62875e-05
5.64674e-05
5.66468e-05
5.68259e-05
5.70047e-05
5.71832e-05
5.73616e-05
5.75398e-05
5.77175e-05
5.78947e-05
5.80711e-05
5.82472e-05
5.84223e-05
5.85965e-05
5.87693e-05
5.89408e-05
5.91105e-05
5.92784e-05
5.94443e-05
5.96083e-05
5.97703e-05
5.99304e-05
6.00879e-05
6.0242e-05
6.03917e-05
6.0537e-05
6.06771e-05
6.0812e-05
6.09409e-05
6.10634e-05
6.11787e-05
6.12865e-05
6.13846e-05
6.13442e-05
4.65231e-05
4.65898e-05
4.66494e-05
4.67018e-05
4.67474e-05
4.67861e-05
4.68171e-05
4.68396e-05
4.68544e-05
4.69612e-05
6.19702e-05
6.19325e-05
6.17009e-05
4.67496e-05
4.67634e-05
4.69321e-05
4.74987e-05
4.81687e-05
4.81063e-05
4.70373e-05
4.55283e-05
5.07123e-05
4.38663e-05
3.94001e-05
3.29904e-05
2.48271e-05
1.55967e-05
5.53754e-06
1.60231e-05
2.51994e-05
3.34204e-05
3.97989e-05
4.18672e-05
4.42931e-05
5.49855e-05
5.80549e-05
4.85038e-05
4.78202e-05
4.66243e-05
4.61733e-05
4.59266e-05
4.57986e-05
6.04648e-05
6.06607e-05
6.06726e-05
4.58301e-05
4.57368e-05
4.57464e-05
4.5766e-05
4.57902e-05
4.58144e-05
4.58353e-05
4.58503e-05
4.5857e-05
4.58545e-05
6.06451e-05
6.07624e-05
6.07295e-05
6.06837e-05
6.06274e-05
6.05621e-05
6.04876e-05
6.04055e-05
6.03153e-05
6.02181e-05
6.01142e-05
6.00046e-05
5.98893e-05
5.97701e-05
5.96467e-05
5.95203e-05
5.93901e-05
5.92573e-05
5.91214e-05
5.89834e-05
5.88428e-05
5.87008e-05
5.8557e-05
5.84127e-05
5.8267e-05
5.81214e-05
5.79749e-05
5.78287e-05
5.76817e-05
5.75351e-05
5.73878e-05
5.72407e-05
5.70927e-05
5.69446e-05
5.67955e-05
5.66458e-05
5.64951e-05
5.63434e-05
5.61906e-05
5.60368e-05
5.5882e-05
5.57263e-05
5.55698e-05
5.54126e-05
5.52554e-05
4.14539e-05
4.12574e-05
4.11387e-05
4.10221e-05
4.0906e-05
4.07908e-05
4.06761e-05
4.05621e-05
4.04486e-05
4.03359e-05
4.02238e-05
4.01124e-05
4.00023e-05
3.98931e-05
3.97843e-05
3.96759e-05
3.95677e-05
3.94598e-05
3.93521e-05
3.92445e-05
3.91372e-05
3.90295e-05
3.89223e-05
3.88146e-05
3.8707e-05
3.85995e-05
3.84921e-05
3.83848e-05
3.82778e-05
3.81709e-05
3.80649e-05
3.7959e-05
3.78544e-05
3.77504e-05
3.76477e-05
3.75464e-05
3.74468e-05
3.73491e-05
3.72533e-05
3.716e-05
3.70689e-05
3.69807e-05
3.68956e-05
3.68137e-05
3.67348e-05
3.66607e-05
3.6591e-05
3.65256e-05
3.64635e-05
3.6404e-05
3.63489e-05
3.63025e-05
3.62678e-05
3.62414e-05
3.62132e-05
3.6173e-05
3.6132e-05
3.6112e-05
3.61395e-05
3.62431e-05
3.63926e-05
3.65306e-05
3.66035e-05
3.65165e-05
3.63435e-05
3.6197e-05
3.61587e-05
3.58048e-05
3.71543e-05
4.11397e-05
3.88097e-05
2.48634e-05
2.32507e-05
2.23537e-05
2.56063e-05
3.4287e-05
4.96434e-05
6.68707e-05
4.63719e-05
3.09671e-05
3.11897e-05
3.15561e-05
3.38066e-05
4.73765e-05
5.10305e-05
5.33271e-05
5.55216e-05
5.61294e-05
5.60998e-05
5.60472e-05
5.59067e-05
5.57256e-05
5.56149e-05
5.56127e-05
5.56797e-05
5.57883e-05
5.59063e-05
5.59974e-05
5.60326e-05
5.54304e-05
4.96654e-05
4.96985e-05
4.97544e-05
4.98244e-05
4.99025e-05
4.99853e-05
5.00724e-05
5.01649e-05
5.0263e-05
5.0366e-05
5.04729e-05
5.0583e-05
5.06963e-05
5.08124e-05
5.0931e-05
5.10519e-05
5.11747e-05
5.12991e-05
5.14254e-05
5.15538e-05
5.16832e-05
5.18137e-05
5.1945e-05
5.20769e-05
5.22089e-05
5.23415e-05
5.24741e-05
5.2607e-05
5.27401e-05
5.28735e-05
5.30077e-05
5.31416e-05
5.32774e-05
5.34134e-05
5.3552e-05
5.36915e-05
5.38343e-05
5.39796e-05
5.41283e-05
5.42806e-05
5.44369e-05
5.45976e-05
5.47628e-05
5.49324e-05
5.51069e-05
5.52855e-05
5.54688e-05
5.56554e-05
5.58477e-05
5.61287e-05
6.48054e-05
5.65233e-05
6.53843e-05
6.56191e-05
6.58542e-05
6.60884e-05
6.63217e-05
6.6554e-05
6.67852e-05
6.70151e-05
6.72438e-05
6.74712e-05
6.76972e-05
6.79219e-05
6.81453e-05
6.83677e-05
6.85887e-05
6.88086e-05
6.90272e-05
6.9245e-05
6.9462e-05
6.96781e-05
6.98935e-05
7.01076e-05
7.03208e-05
7.05327e-05
7.07436e-05
7.09528e-05
7.11603e-05
7.13657e-05
7.1569e-05
7.17696e-05
7.19676e-05
7.21628e-05
7.23553e-05
7.25448e-05
7.27314e-05
7.2914e-05
7.30922e-05
7.32651e-05
7.34326e-05
7.35942e-05
7.37496e-05
7.38982e-05
7.40395e-05
7.41731e-05
7.42987e-05
7.44137e-05
7.44055e-05
6.52396e-05
6.53347e-05
6.54217e-05
6.55011e-05
6.55732e-05
6.56378e-05
6.56937e-05
6.57385e-05
6.57721e-05
6.58916e-05
7.52346e-05
7.52017e-05
7.49869e-05
6.56322e-05
6.55564e-05
6.54716e-05
6.53637e-05
6.49199e-05
6.35872e-05
6.11635e-05
5.79858e-05
5.80775e-05
5.07215e-05
4.413e-05
3.58555e-05
2.64726e-05
1.69462e-05
7.14433e-06
1.73517e-05
2.68311e-05
3.63477e-05
4.46024e-05
4.97903e-05
5.46225e-05
6.37211e-05
6.79677e-05
6.42783e-05
6.51504e-05
6.50867e-05
6.48751e-05
6.45833e-05
6.44052e-05
7.37309e-05
7.38543e-05
7.3821e-05
6.43691e-05
6.42472e-05
6.42402e-05
6.42469e-05
6.42609e-05
6.4277e-05
6.42914e-05
6.43006e-05
6.43014e-05
6.42916e-05
7.3547e-05
7.36418e-05
7.36016e-05
7.35475e-05
7.34822e-05
7.34072e-05
7.33215e-05
7.32275e-05
7.31241e-05
7.30127e-05
7.28935e-05
7.27677e-05
7.26345e-05
7.24965e-05
7.23529e-05
7.22054e-05
7.2053e-05
7.18973e-05
7.17375e-05
7.15752e-05
7.14094e-05
7.1242e-05
7.1072e-05
7.0901e-05
7.0728e-05
7.05545e-05
7.03792e-05
7.02039e-05
7.00269e-05
6.98499e-05
6.96713e-05
6.94926e-05
6.93123e-05
6.91316e-05
6.89491e-05
6.87656e-05
6.85806e-05
6.83941e-05
6.8206e-05
6.80164e-05
6.78253e-05
6.76329e-05
6.74393e-05
6.72447e-05
6.70506e-05
5.79749e-05
5.77132e-05
5.75373e-05
5.73644e-05
5.7192e-05
5.70206e-05
5.68498e-05
5.66801e-05
5.65109e-05
5.63428e-05
5.61754e-05
5.60091e-05
5.5844e-05
5.56798e-05
5.55164e-05
5.53535e-05
5.5191e-05
5.50289e-05
5.4867e-05
5.47051e-05
5.4544e-05
5.43819e-05
5.42207e-05
5.40587e-05
5.38966e-05
5.37344e-05
5.35721e-05
5.34099e-05
5.32478e-05
5.30854e-05
5.29244e-05
5.27628e-05
5.26031e-05
5.24436e-05
5.22856e-05
5.21292e-05
5.19748e-05
5.18228e-05
5.16729e-05
5.15265e-05
5.13828e-05
5.12426e-05
5.11065e-05
5.09745e-05
5.08465e-05
5.07237e-05
5.06061e-05
5.04944e-05
5.03882e-05
5.02857e-05
5.01865e-05
5.00937e-05
5.00135e-05
4.99483e-05
4.98931e-05
4.98306e-05
4.97562e-05
4.96783e-05
4.96142e-05
4.96123e-05
4.96748e-05
4.97802e-05
4.99089e-05
4.99585e-05
4.98982e-05
4.97573e-05
4.96122e-05
4.88023e-05
4.8457e-05
5.00006e-05
4.80882e-05
3.59983e-05
3.18959e-05
2.88123e-05
3.15329e-05
4.73953e-05
6.68943e-05
8.59445e-05
6.16881e-05
3.87049e-05
3.71458e-05
4.1226e-05
4.68786e-05
5.63904e-05
5.90656e-05
6.21529e-05
6.47315e-05
6.54757e-05
6.54784e-05
6.54047e-05
6.52108e-05
6.49774e-05
6.48476e-05
6.48655e-05
6.49781e-05
6.51402e-05
6.53037e-05
6.54232e-05
6.54773e-05
6.50599e-05
6.19052e-05
6.19885e-05
6.20968e-05
6.22179e-05
6.23446e-05
6.24759e-05
6.26137e-05
6.27594e-05
6.29121e-05
6.30704e-05
6.32331e-05
6.33998e-05
6.35702e-05
6.37439e-05
6.39202e-05
6.4099e-05
6.42798e-05
6.44622e-05
6.46461e-05
6.48315e-05
6.50178e-05
6.52047e-05
6.5392e-05
6.55795e-05
6.5767e-05
6.59545e-05
6.61419e-05
6.63292e-05
6.65167e-05
6.67045e-05
6.68932e-05
6.70819e-05
6.72735e-05
6.74655e-05
6.76617e-05
6.78597e-05
6.80629e-05
6.82705e-05
6.84835e-05
6.87025e-05
6.8928e-05
6.91606e-05
6.94003e-05
6.96471e-05
6.99012e-05
7.01619e-05
7.04294e-05
7.0702e-05
7.09812e-05
7.13298e-05
7.64588e-05
7.19046e-05
7.71588e-05
7.74643e-05
7.77705e-05
7.80754e-05
7.83791e-05
7.86812e-05
7.89817e-05
7.92802e-05
7.95768e-05
7.98714e-05
8.01639e-05
8.04541e-05
8.07422e-05
8.10286e-05
8.13123e-05
8.15941e-05
8.18735e-05
8.21514e-05
8.24275e-05
8.27022e-05
8.29749e-05
8.32455e-05
8.35142e-05
8.37812e-05
8.40458e-05
8.43074e-05
8.45661e-05
8.48215e-05
8.50731e-05
8.53204e-05
8.55637e-05
8.58026e-05
8.6037e-05
8.62667e-05
8.64911e-05
8.67094e-05
8.69211e-05
8.7126e-05
8.73242e-05
8.75152e-05
8.76986e-05
8.78739e-05
8.8041e-05
8.81999e-05
8.83503e-05
8.84911e-05
8.85393e-05
8.3552e-05
8.36797e-05
8.38016e-05
8.39188e-05
8.40321e-05
8.41411e-05
8.42442e-05
8.43378e-05
8.44187e-05
8.45558e-05
8.97389e-05
8.97297e-05
8.95556e-05
8.43019e-05
8.39403e-05
8.32364e-05
8.20539e-05
8.01756e-05
7.72856e-05
7.32474e-05
6.82274e-05
6.43381e-05
5.57833e-05
4.70223e-05
3.70252e-05
2.69463e-05
1.77582e-05
9.02622e-06
1.81158e-05
2.72647e-05
3.75636e-05
4.7551e-05
5.55082e-05
6.27463e-05
7.16809e-05
7.74406e-05
7.83085e-05
8.11058e-05
8.2745e-05
8.3547e-05
8.36609e-05
8.35102e-05
8.8482e-05
8.84418e-05
8.83014e-05
8.29623e-05
8.27666e-05
8.26712e-05
8.26009e-05
8.25507e-05
8.2515e-05
8.24883e-05
8.24653e-05
8.24404e-05
8.24091e-05
8.75008e-05
8.7549e-05
8.7494e-05
8.74257e-05
8.73458e-05
8.72554e-05
8.7153e-05
8.70409e-05
8.69181e-05
8.67859e-05
8.66445e-05
8.64949e-05
8.63357e-05
8.61695e-05
8.59957e-05
8.58164e-05
8.56304e-05
8.54396e-05
8.52434e-05
8.50438e-05
8.48397e-05
8.46331e-05
8.44229e-05
8.4211e-05
8.3996e-05
8.37794e-05
8.35599e-05
8.33392e-05
8.31158e-05
8.28914e-05
8.26644e-05
8.24366e-05
8.22063e-05
8.1975e-05
8.17412e-05
8.15058e-05
8.12683e-05
8.10289e-05
8.07874e-05
8.0544e-05
8.02988e-05
8.00519e-05
7.98037e-05
7.95543e-05
7.93062e-05
7.39858e-05
7.36764e-05
7.34343e-05
7.31946e-05
7.29558e-05
7.27183e-05
7.24818e-05
7.22467e-05
7.20127e-05
7.17803e-05
7.15492e-05
7.13195e-05
7.10913e-05
7.08645e-05
7.06388e-05
7.04141e-05
7.01902e-05
6.9967e-05
6.97443e-05
6.95216e-05
6.93001e-05
6.90775e-05
6.88562e-05
6.86338e-05
6.84113e-05
6.81886e-05
6.79658e-05
6.77429e-05
6.75201e-05
6.72968e-05
6.70752e-05
6.68527e-05
6.66324e-05
6.64124e-05
6.61939e-05
6.59775e-05
6.57634e-05
6.55521e-05
6.53436e-05
6.51394e-05
6.49386e-05
6.47422e-05
6.45507e-05
6.43644e-05
6.4183e-05
6.40078e-05
6.38384e-05
6.36761e-05
6.35215e-05
6.33725e-05
6.32262e-05
6.30834e-05
6.29512e-05
6.28377e-05
6.27455e-05
6.26571e-05
6.25537e-05
6.24283e-05
6.22798e-05
6.21614e-05
6.21063e-05
6.21313e-05
6.22574e-05
6.24057e-05
6.24795e-05
6.24424e-05
6.23571e-05
6.14683e-05
5.96819e-05
5.88975e-05
5.70146e-05
5.0174e-05
4.20557e-05
3.41729e-05
3.94029e-05
6.29952e-05
8.56796e-05
0.000106432
7.95217e-05
4.86984e-05
4.21389e-05
5.24321e-05
6.08604e-05
6.47478e-05
6.69757e-05
7.11511e-05
7.40126e-05
7.47311e-05
7.46883e-05
7.45561e-05
7.43097e-05
7.40562e-05
7.39508e-05
7.40217e-05
7.41969e-05
7.44151e-05
7.46185e-05
7.47635e-05
7.48455e-05
7.46185e-05
7.30288e-05
7.31648e-05
7.33262e-05
7.34984e-05
7.36741e-05
7.38551e-05
7.40446e-05
7.42439e-05
7.44511e-05
7.46643e-05
7.48823e-05
7.51049e-05
7.53318e-05
7.55622e-05
7.57956e-05
7.60316e-05
7.62697e-05
7.65095e-05
7.67508e-05
7.69934e-05
7.72367e-05
7.74806e-05
7.77247e-05
7.79689e-05
7.8213e-05
7.84569e-05
7.87008e-05
7.89446e-05
7.91887e-05
7.94334e-05
7.96794e-05
7.99259e-05
8.01763e-05
8.0428e-05
8.06855e-05
8.09459e-05
8.12139e-05
8.14882e-05
8.17703e-05
8.20612e-05
8.23613e-05
8.26712e-05
8.29913e-05
8.33213e-05
8.36612e-05
8.40106e-05
8.4369e-05
8.4735e-05
8.51085e-05
8.55325e-05
8.8553e-05
8.6304e-05
8.94089e-05
8.98033e-05
9.01989e-05
9.0593e-05
9.09856e-05
9.13764e-05
9.17653e-05
9.21518e-05
9.25358e-05
9.29173e-05
9.3296e-05
9.36718e-05
9.40448e-05
9.44156e-05
9.47823e-05
9.51463e-05
9.55066e-05
9.5865e-05
9.62207e-05
9.65743e-05
9.69242e-05
9.72713e-05
9.76154e-05
9.79573e-05
9.82948e-05
9.86278e-05
9.89559e-05
9.92792e-05
9.95964e-05
9.99072e-05
0.000100211
0.000100509
0.0001008
0.000101083
0.000101357
0.000101621
0.000101876
0.000102122
0.00010236
0.000102588
0.000102807
0.000103016
0.000103216
0.000103407
0.00010359
0.000103764
0.000103872
0.00010132
0.000101488
0.000101653
0.000101818
0.000101984
0.000102149
0.000102312
0.000102469
0.000102611
0.000102781
0.000105603
0.000105625
0.000105471
0.000102469
0.000101677
0.000100116
9.75879e-05
9.40206e-05
8.93235e-05
8.34346e-05
7.63965e-05
6.92303e-05
5.89453e-05
4.80481e-05
3.65832e-05
2.64974e-05
1.82156e-05
1.11562e-05
1.85086e-05
2.6741e-05
3.71558e-05
4.86093e-05
5.90552e-05
6.87227e-05
7.86063e-05
8.62169e-05
9.07163e-05
9.57291e-05
9.94379e-05
0.000101689
0.000102492
0.000102463
0.000104858
0.000104612
0.000104317
0.000101279
0.000100973
0.000100755
0.000100576
0.000100435
0.000100324
0.000100237
0.000100165
0.000100101
0.000100037
0.00010269
0.000102686
0.000102607
0.000102516
0.000102414
0.000102301
0.000102174
0.000102036
0.000101885
0.000101724
0.000101552
0.00010137
0.000101175
0.00010097
0.000100755
0.000100531
0.000100299
0.00010006
9.98133e-05
9.95618e-05
9.93051e-05
9.90443e-05
9.87791e-05
9.85108e-05
9.82384e-05
9.79627e-05
9.76826e-05
9.73999e-05
9.71133e-05
9.68243e-05
9.65317e-05
9.62372e-05
9.59396e-05
9.56401e-05
9.53375e-05
9.50327e-05
9.47254e-05
9.44157e-05
9.41038e-05
9.37897e-05
9.34737e-05
9.31559e-05
9.28369e-05
9.25167e-05
9.21985e-05
8.91119e-05
8.87473e-05
8.84312e-05
8.81171e-05
8.78045e-05
8.74935e-05
8.71843e-05
8.68769e-05
8.65714e-05
8.6268e-05
8.59666e-05
8.56672e-05
8.53699e-05
8.50745e-05
8.47808e-05
8.44887e-05
8.41978e-05
8.39081e-05
8.36194e-05
8.33308e-05
8.30442e-05
8.27563e-05
8.24702e-05
8.2183e-05
8.18959e-05
8.16087e-05
8.13214e-05
8.10341e-05
8.0747e-05
8.04594e-05
8.01741e-05
7.98877e-05
7.96039e-05
7.93208e-05
7.90395e-05
7.87607e-05
7.84848e-05
7.82125e-05
7.79435e-05
7.76798e-05
7.74206e-05
7.71666e-05
7.69186e-05
7.66771e-05
7.64416e-05
7.6213e-05
7.59913e-05
7.57778e-05
7.55738e-05
7.53775e-05
7.51845e-05
7.49928e-05
7.48091e-05
7.46451e-05
7.45104e-05
7.43912e-05
7.42604e-05
7.40982e-05
7.38852e-05
7.36687e-05
7.35e-05
7.34257e-05
7.35041e-05
7.36945e-05
7.38691e-05
7.39479e-05
7.39788e-05
7.32093e-05
7.05932e-05
6.77302e-05
6.54996e-05
6.30183e-05
5.40756e-05
3.89086e-05
4.94509e-05
8.11188e-05
0.000105735
0.000128058
9.98924e-05
6.07231e-05
4.88606e-05
6.59354e-05
7.27404e-05
7.24427e-05
7.49537e-05
8.00671e-05
8.30219e-05
8.36168e-05
8.34945e-05
8.32977e-05
8.30195e-05
8.27847e-05
8.27434e-05
8.2893e-05
8.31411e-05
8.34153e-05
8.3655e-05
8.3826e-05
8.39421e-05
8.3872e-05
8.31624e-05
8.33546e-05
8.35709e-05
8.37956e-05
8.40228e-05
8.42562e-05
8.44999e-05
8.47546e-05
8.50178e-05
8.52873e-05
8.5562e-05
8.58417e-05
8.61261e-05
8.64144e-05
8.6706e-05
8.70004e-05
8.72973e-05
8.7596e-05
8.78963e-05
8.81981e-05
8.85008e-05
8.88041e-05
8.91077e-05
8.94115e-05
8.97155e-05
9.00195e-05
9.03235e-05
9.06279e-05
9.09329e-05
9.12391e-05