/*--------------------------------*- C++ -*----------------------------------*\
| =========                 |                                                 |
| \\      /  F ield         | OpenFOAM: The Open Source CFD Toolbox           |
|  \\    /   O peration     | Version:  2412                                  |
|   \\  /    A nd           | Website:  www.openfoam.com                      |
|    \\/     M anipulation  |                                                 |
\*---------------------------------------------------------------------------*/
FoamFile
{
    version     2.0;
    format      ascii;
    arch        "LSB;label=32;scalar=64";
    class       volScalarField;
    location    "60";
    object      nuTilda;
}
// * * * * * * * * * * * * * * * * * * * * * * * * * * * * * * * * * * * * * //

dimensions      [0 2 -1 0 0 0 0];

internalField   nonuniform List<scalar> 
29601
(
1.65532e-06
1.94218e-06
1.1887e-06
7.40249e-07
1.02909e-06
1.0331e-06
1.93769e-06
2.39297e-06
2.39822e-06
2.23688e-06
2.12893e-06
2.07015e-06
2.04204e-06
2.04051e-06
2.05495e-06
2.06631e-06
2.0669e-06
2.05995e-06
2.04658e-06
2.03253e-06
2.02385e-06
2.02052e-06
2.02098e-06
2.02243e-06
2.02271e-06
2.02206e-06
2.0213e-06
2.02134e-06
2.02226e-06
2.02363e-06
2.02512e-06
2.02667e-06
2.02836e-06
2.03024e-06
2.03233e-06
2.03452e-06
2.0368e-06
2.0392e-06
2.04167e-06
2.04421e-06
2.04682e-06
2.04951e-06
2.05225e-06
2.05506e-06
2.0579e-06
2.06077e-06
2.0637e-06
2.06666e-06
2.06963e-06
2.07256e-06
2.07555e-06
2.07855e-06
2.08156e-06
2.0846e-06
2.08759e-06
2.0906e-06
2.09365e-06
2.09671e-06
2.09974e-06
2.10278e-06
2.10588e-06
2.10902e-06
2.1122e-06
2.11539e-06
2.11867e-06
2.12202e-06
2.12546e-06
2.12898e-06
2.13258e-06
2.1363e-06
2.14012e-06
2.14402e-06
2.14807e-06
2.1522e-06
2.15647e-06
2.1609e-06
2.16546e-06
2.17012e-06
2.17491e-06
2.17982e-06
2.18491e-06
2.1901e-06
2.19544e-06
2.20093e-06
2.20654e-06
2.21224e-06
2.21809e-06
2.22406e-06
2.2301e-06
2.23622e-06
2.24245e-06
2.24872e-06
2.25505e-06
2.26144e-06
2.26789e-06
2.27441e-06
2.28096e-06
2.28758e-06
2.29426e-06
2.301e-06
2.3078e-06
2.31467e-06
2.3216e-06
2.32859e-06
2.33564e-06
2.34272e-06
2.34982e-06
2.35687e-06
2.3639e-06
2.37087e-06
2.37773e-06
2.38454e-06
2.39124e-06
2.3978e-06
2.40413e-06
2.4102e-06
2.41599e-06
2.42143e-06
2.4265e-06
2.43118e-06
2.43537e-06
2.43903e-06
2.44214e-06
2.4447e-06
2.44667e-06
2.44798e-06
2.44849e-06
2.44828e-06
2.44734e-06
2.44559e-06
2.44284e-06
2.43922e-06
2.43465e-06
2.42897e-06
2.42174e-06
2.41298e-06
2.40465e-06
2.40541e-06
2.43383e-06
2.48724e-06
2.53033e-06
2.55086e-06
2.55654e-06
2.55955e-06
2.56884e-06
2.55325e-06
2.46355e-06
2.10802e-06
1.3577e-06
2.44889e-07
1.39766e-06
2.13891e-06
2.48136e-06
2.5649e-06
2.57666e-06
2.56108e-06
2.5475e-06
2.51866e-06
2.44496e-06
2.33659e-06
2.30649e-06
2.32094e-06
2.3363e-06
2.34933e-06
2.36048e-06
2.37006e-06
2.37844e-06
2.386e-06
2.39263e-06
2.39839e-06
2.40314e-06
2.40687e-06
2.40966e-06
2.41163e-06
2.4126e-06
2.41288e-06
2.41245e-06
2.4114e-06
2.40975e-06
2.40754e-06
2.40481e-06
2.40163e-06
2.39803e-06
2.39404e-06
2.38974e-06
2.38516e-06
2.3803e-06
2.37525e-06
2.37006e-06
2.36475e-06
2.35927e-06
2.35364e-06
2.34792e-06
2.34208e-06
2.3362e-06
2.3303e-06
2.32439e-06
2.31848e-06
2.31257e-06
2.30667e-06
2.30078e-06
2.29493e-06
2.28913e-06
2.28339e-06
2.27768e-06
2.27202e-06
2.26641e-06
2.26085e-06
2.25533e-06
2.24985e-06
2.24447e-06
2.23913e-06
2.23384e-06
2.22862e-06
2.22346e-06
2.21836e-06
2.2133e-06
2.20835e-06
2.20345e-06
2.19861e-06
2.19382e-06
2.18911e-06
2.18442e-06
2.17978e-06
2.17514e-06
2.17061e-06
2.16611e-06
2.16165e-06
2.15723e-06
2.15281e-06
2.14843e-06
2.1441e-06
2.13978e-06
2.13547e-06
2.1312e-06
2.12694e-06
2.12275e-06
2.11852e-06
2.11429e-06
2.11011e-06
2.10594e-06
2.1018e-06
2.09761e-06
2.09345e-06
2.08933e-06
2.08524e-06
2.08113e-06
2.07706e-06
2.07302e-06
2.06901e-06
2.06507e-06
2.06114e-06
2.05721e-06
2.05335e-06
2.04954e-06
2.04581e-06
2.04212e-06
2.03851e-06
2.03498e-06
2.03155e-06
2.02821e-06
2.02495e-06
2.02179e-06
2.01877e-06
2.01585e-06
2.01306e-06
2.01047e-06
2.00807e-06
2.00582e-06
2.00362e-06
2.0015e-06
1.99983e-06
1.99898e-06
1.9989e-06
1.99868e-06
1.99751e-06
1.99515e-06
1.99375e-06
1.99611e-06
2.00377e-06
2.01674e-06
2.02904e-06
2.035e-06
2.03358e-06
2.02152e-06
2.00644e-06
2.00714e-06
2.03396e-06
2.09071e-06
2.19533e-06
2.35216e-06
2.34602e-06
1.89827e-06
1.01429e-06
1.01411e-06
7.28205e-07
1.14876e-06
1.93458e-06
1.67125e-06
4.90551e-06
5.67695e-06
3.81028e-06
2.27392e-06
3.09631e-06
3.19147e-06
6.09589e-06
7.33579e-06
7.32179e-06
6.89457e-06
6.59795e-06
6.43447e-06
6.35785e-06
6.35535e-06
6.39533e-06
6.42538e-06
6.42512e-06
6.40343e-06
6.36443e-06
6.32442e-06
6.29994e-06
6.29086e-06
6.29247e-06
6.29676e-06
6.29775e-06
6.29622e-06
6.29455e-06
6.2953e-06
6.29867e-06
6.30333e-06
6.30841e-06
6.31369e-06
6.31945e-06
6.32584e-06
6.3328e-06
6.34012e-06
6.34773e-06
6.35568e-06
6.36388e-06
6.37231e-06
6.38098e-06
6.38984e-06
6.3989e-06
6.40814e-06
6.4175e-06
6.42697e-06
6.4366e-06
6.44629e-06
6.45609e-06
6.46581e-06
6.47566e-06
6.48555e-06
6.49544e-06
6.50542e-06
6.51532e-06
6.52526e-06
6.53526e-06
6.54537e-06
6.55548e-06
6.56559e-06
6.57585e-06
6.58625e-06
6.59683e-06
6.60754e-06
6.61849e-06
6.62967e-06
6.64112e-06
6.65288e-06
6.66491e-06
6.67726e-06
6.68995e-06
6.70293e-06
6.71635e-06
6.73011e-06
6.74425e-06
6.75883e-06
6.77386e-06
6.78917e-06
6.80491e-06
6.82102e-06
6.83763e-06
6.85457e-06
6.87191e-06
6.88963e-06
6.90769e-06
6.92604e-06
6.94478e-06
6.96372e-06
6.98284e-06
7.00218e-06
7.02166e-06
7.04115e-06
7.06074e-06
7.08045e-06
7.1002e-06
7.12002e-06
7.13986e-06
7.15987e-06
7.17998e-06
7.20025e-06
7.22074e-06
7.24148e-06
7.2624e-06
7.28361e-06
7.30503e-06
7.32665e-06
7.34838e-06
7.37005e-06
7.39177e-06
7.41334e-06
7.43466e-06
7.45584e-06
7.47679e-06
7.49733e-06
7.5172e-06
7.53633e-06
7.55459e-06
7.5718e-06
7.5879e-06
7.60273e-06
7.61605e-06
7.62776e-06
7.63777e-06
7.64604e-06
7.65243e-06
7.65665e-06
7.65839e-06
7.65781e-06
7.65484e-06
7.64921e-06
7.64016e-06
7.62785e-06
7.61197e-06
7.59143e-06
7.56415e-06
7.52892e-06
7.49075e-06
7.48103e-06
7.57554e-06
7.76544e-06
7.9092e-06
7.96621e-06
7.97084e-06
7.96129e-06
7.95814e-06
7.86367e-06
7.51597e-06
6.33053e-06
4.06977e-06
7.65507e-07
4.18632e-06
6.42446e-06
7.57241e-06
7.90206e-06
7.98545e-06
7.9708e-06
7.94967e-06
7.8738e-06
7.62262e-06
7.22178e-06
7.14474e-06
7.23155e-06
7.29874e-06
7.3459e-06
7.38282e-06
7.41326e-06
7.43941e-06
7.46266e-06
7.48297e-06
7.50052e-06
7.51496e-06
7.52622e-06
7.53457e-06
7.54046e-06
7.54323e-06
7.54385e-06
7.54231e-06
7.53883e-06
7.53353e-06
7.52655e-06
7.51797e-06
7.50801e-06
7.49675e-06
7.48432e-06
7.47096e-06
7.45675e-06
7.4417e-06
7.42613e-06
7.41016e-06
7.39384e-06
7.37703e-06
7.35978e-06
7.34231e-06
7.32454e-06
7.30664e-06
7.28873e-06
7.27081e-06
7.25294e-06
7.23502e-06
7.21717e-06
7.19939e-06
7.1817e-06
7.1641e-06
7.14666e-06
7.12927e-06
7.11194e-06
7.09467e-06
7.07751e-06
7.06045e-06
7.04343e-06
7.02656e-06
7.00985e-06
6.99321e-06
6.97669e-06
6.96028e-06
6.94409e-06
6.92796e-06
6.91209e-06
6.89632e-06
6.88075e-06
6.86527e-06
6.85002e-06
6.83483e-06
6.81979e-06
6.8048e-06
6.79008e-06
6.7754e-06
6.76088e-06
6.74649e-06
6.73215e-06
6.7179e-06
6.70376e-06
6.68966e-06
6.67564e-06
6.66171e-06
6.64783e-06
6.63406e-06
6.62028e-06
6.60653e-06
6.59291e-06
6.5793e-06
6.56569e-06
6.55204e-06
6.53853e-06
6.52507e-06
6.51169e-06
6.49828e-06
6.485e-06
6.47178e-06
6.45865e-06
6.44568e-06
6.43278e-06
6.41996e-06
6.40733e-06
6.39486e-06
6.38262e-06
6.37054e-06
6.35871e-06
6.34716e-06
6.33586e-06
6.32488e-06
6.3142e-06
6.30385e-06
6.2939e-06
6.28429e-06
6.27509e-06
6.2665e-06
6.25856e-06
6.25105e-06
6.24378e-06
6.23677e-06
6.23106e-06
6.22779e-06
6.22685e-06
6.22567e-06
6.22187e-06
6.21466e-06
6.21008e-06
6.2161e-06
6.23743e-06
6.27415e-06
6.30987e-06
6.3284e-06
6.32587e-06
6.2933e-06
6.25099e-06
6.25077e-06
6.3237e-06
6.48172e-06
6.76981e-06
7.18649e-06
7.19637e-06
5.97346e-06
3.13618e-06
3.04908e-06
2.2383e-06
3.69182e-06
5.67865e-06
4.94545e-06
8.2788e-06
9.21379e-06
6.92132e-06
3.98024e-06
5.19247e-06
5.75947e-06
1.08072e-05
1.25473e-05
1.24816e-05
1.1906e-05
1.14819e-05
1.12452e-05
1.11382e-05
1.11384e-05
1.11949e-05
1.12339e-05
1.12287e-05
1.11915e-05
1.11309e-05
1.1071e-05
1.1035e-05
1.10225e-05
1.10259e-05
1.1033e-05
1.10353e-05
1.10342e-05
1.10334e-05
1.10366e-05
1.1044e-05
1.10536e-05
1.10638e-05
1.10746e-05
1.10863e-05
1.10991e-05
1.11128e-05
1.11272e-05
1.11421e-05
1.11576e-05
1.11736e-05
1.11899e-05
1.12068e-05
1.12239e-05
1.12414e-05
1.12592e-05
1.12772e-05
1.12954e-05
1.13139e-05
1.13324e-05
1.13512e-05
1.13699e-05
1.13888e-05
1.14077e-05
1.14267e-05
1.14458e-05
1.14649e-05
1.14841e-05
1.15033e-05
1.15228e-05
1.15424e-05
1.15621e-05
1.1582e-05
1.16022e-05
1.16229e-05
1.16439e-05
1.16653e-05
1.16871e-05
1.17096e-05
1.17326e-05
1.17561e-05
1.17801e-05
1.18049e-05
1.18302e-05
1.18562e-05
1.18828e-05
1.19101e-05
1.19381e-05
1.19668e-05
1.19961e-05
1.2026e-05
1.20566e-05
1.20879e-05
1.21197e-05
1.21522e-05
1.21851e-05
1.22186e-05
1.22524e-05
1.22868e-05
1.23214e-05
1.23562e-05
1.23911e-05
1.24261e-05
1.24609e-05
1.24958e-05
1.25306e-05
1.25653e-05
1.26e-05
1.26346e-05
1.26693e-05
1.27041e-05
1.27391e-05
1.27745e-05
1.28103e-05
1.28465e-05
1.28831e-05
1.29201e-05
1.29575e-05
1.29951e-05
1.30328e-05
1.30705e-05
1.3108e-05
1.31452e-05
1.31822e-05
1.32187e-05
1.32546e-05
1.32894e-05
1.33229e-05
1.33548e-05
1.33849e-05
1.34131e-05
1.34391e-05
1.34626e-05
1.34832e-05
1.3501e-05
1.35156e-05
1.3527e-05
1.35346e-05
1.35379e-05
1.35372e-05
1.35323e-05
1.35228e-05
1.35074e-05
1.34857e-05
1.34573e-05
1.34199e-05
1.3369e-05
1.33011e-05
1.32243e-05
1.31978e-05
1.33707e-05
1.37192e-05
1.39637e-05
1.40358e-05
1.40047e-05
1.39303e-05
1.38281e-05
1.35242e-05
1.27233e-05
1.04858e-05
6.75032e-06
1.35106e-06
6.9363e-06
1.0643e-05
1.28239e-05
1.35975e-05
1.38847e-05
1.39608e-05
1.39884e-05
1.39014e-05
1.3466e-05
1.27001e-05
1.25755e-05
1.2769e-05
1.29037e-05
1.29904e-05
1.30554e-05
1.3108e-05
1.31527e-05
1.31924e-05
1.32272e-05
1.32571e-05
1.3282e-05
1.33015e-05
1.33159e-05
1.33262e-05
1.33309e-05
1.33321e-05
1.33295e-05
1.33234e-05
1.33142e-05
1.33021e-05
1.32872e-05
1.327e-05
1.32505e-05
1.32289e-05
1.32058e-05
1.3181e-05
1.3155e-05
1.3128e-05
1.31003e-05
1.30719e-05
1.30428e-05
1.3013e-05
1.29827e-05
1.29521e-05
1.29212e-05
1.28902e-05
1.28593e-05
1.28283e-05
1.27974e-05
1.27664e-05
1.27357e-05
1.2705e-05
1.26744e-05
1.26439e-05
1.26135e-05
1.2583e-05
1.25526e-05
1.25222e-05
1.24918e-05
1.24615e-05
1.24312e-05
1.24011e-05
1.2371e-05
1.2341e-05
1.23111e-05
1.22815e-05
1.2252e-05
1.22227e-05
1.21936e-05
1.21648e-05
1.2136e-05
1.21076e-05
1.20793e-05
1.20512e-05
1.20232e-05
1.19955e-05
1.1968e-05
1.19407e-05
1.19135e-05
1.18865e-05
1.18597e-05
1.18331e-05
1.18065e-05
1.178e-05
1.17537e-05
1.17275e-05
1.17014e-05
1.16754e-05
1.16495e-05
1.16237e-05
1.15979e-05
1.15722e-05
1.15464e-05
1.15209e-05
1.14954e-05
1.147e-05
1.14447e-05
1.14195e-05
1.13944e-05
1.13695e-05
1.13448e-05
1.13202e-05
1.12959e-05
1.12719e-05
1.12481e-05
1.12248e-05
1.12018e-05
1.11792e-05
1.11571e-05
1.11355e-05
1.11145e-05
1.10941e-05
1.10743e-05
1.10552e-05
1.10368e-05
1.10191e-05
1.10024e-05
1.09869e-05
1.09723e-05
1.09581e-05
1.09446e-05
1.0933e-05
1.09254e-05
1.09216e-05
1.09179e-05
1.09106e-05
1.08983e-05
1.08895e-05
1.08964e-05
1.09269e-05
1.09811e-05
1.10361e-05
1.10676e-05
1.10675e-05
1.10231e-05
1.09616e-05
1.09562e-05
1.10572e-05
1.12863e-05
1.16993e-05
1.22633e-05
1.23204e-05
1.05965e-05
5.64809e-06
5.10868e-06
3.91962e-06
6.77254e-06
9.25641e-06
8.23949e-06
1.21962e-05
1.25341e-05
1.02615e-05
6.14191e-06
7.294e-06
9.30277e-06
1.59821e-05
1.7915e-05
1.78108e-05
1.72279e-05
1.67553e-05
1.64878e-05
1.63733e-05
1.6378e-05
1.64375e-05
1.64734e-05
1.64595e-05
1.64088e-05
1.63345e-05
1.62648e-05
1.62243e-05
1.62122e-05
1.62185e-05
1.62289e-05
1.62341e-05
1.62361e-05
1.62394e-05
1.62482e-05
1.62624e-05
1.62795e-05
1.62977e-05
1.63169e-05
1.63375e-05
1.63598e-05
1.63834e-05
1.64079e-05
1.64332e-05
1.64594e-05
1.64862e-05
1.65137e-05
1.65418e-05
1.65704e-05
1.65995e-05
1.6629e-05
1.66589e-05
1.66891e-05
1.67196e-05
1.67502e-05
1.67811e-05
1.6812e-05
1.68431e-05
1.68744e-05
1.69057e-05
1.69373e-05
1.69689e-05
1.70007e-05
1.70328e-05
1.70651e-05
1.70978e-05
1.71309e-05
1.71644e-05
1.71985e-05
1.72333e-05
1.72687e-05
1.73049e-05
1.73419e-05
1.73798e-05
1.74186e-05
1.74582e-05
1.74988e-05
1.75403e-05
1.75827e-05
1.76262e-05
1.76704e-05
1.77156e-05
1.77617e-05
1.78087e-05
1.78565e-05
1.79051e-05
1.79546e-05
1.80049e-05
1.80558e-05
1.81074e-05
1.81596e-05
1.82122e-05
1.82653e-05
1.83188e-05
1.83724e-05
1.84261e-05
1.84797e-05
1.85331e-05
1.85861e-05
1.86388e-05
1.86911e-05
1.87432e-05
1.87949e-05
1.88464e-05
1.88979e-05
1.89493e-05
1.9001e-05
1.9053e-05
1.91055e-05
1.91585e-05
1.92121e-05
1.92663e-05
1.93209e-05
1.93758e-05
1.94308e-05
1.94858e-05
1.95405e-05
1.95948e-05
1.96486e-05
1.97018e-05
1.9754e-05
1.98046e-05
1.98532e-05
1.98995e-05
1.99433e-05
1.99844e-05
2.00221e-05
2.00563e-05
2.00864e-05
2.01124e-05
2.0134e-05
2.01511e-05
2.01626e-05
2.01684e-05
2.01685e-05
2.01626e-05
2.01506e-05
2.013e-05
2.01006e-05
2.00618e-05
2.00096e-05
1.99372e-05
1.98395e-05
1.97277e-05
1.96911e-05
1.99501e-05
2.04494e-05
2.07647e-05
2.08087e-05
2.06821e-05
2.04537e-05
2.01107e-05
1.94031e-05
1.79114e-05
1.44169e-05
9.3092e-06
2.00771e-06
9.55403e-06
1.4634e-05
1.80604e-05
1.95213e-05
2.02108e-05
2.05256e-05
2.06998e-05
2.06703e-05
2.00966e-05
1.8952e-05
1.87561e-05
1.90547e-05
1.92537e-05
1.93766e-05
1.94674e-05
1.95403e-05
1.96025e-05
1.96578e-05
1.9707e-05
1.97495e-05
1.97851e-05
1.98132e-05
1.98342e-05
1.98491e-05
1.98565e-05
1.98583e-05
1.98549e-05
1.98465e-05
1.98335e-05
1.98162e-05
1.97949e-05
1.97701e-05
1.9742e-05
1.97109e-05
1.96774e-05
1.96416e-05
1.96037e-05
1.95645e-05
1.95242e-05
1.94828e-05
1.94404e-05
1.93969e-05
1.93527e-05
1.93079e-05
1.92628e-05
1.92175e-05
1.91721e-05
1.91267e-05
1.90812e-05
1.90357e-05
1.89903e-05
1.89449e-05
1.88995e-05
1.88541e-05
1.88087e-05
1.87631e-05
1.87174e-05
1.86716e-05
1.86256e-05
1.85795e-05
1.85333e-05
1.84871e-05
1.84408e-05
1.83945e-05
1.83483e-05
1.83022e-05
1.82561e-05
1.82103e-05
1.81645e-05
1.81191e-05
1.80736e-05
1.80285e-05
1.79834e-05
1.79387e-05
1.7894e-05
1.78498e-05
1.78056e-05
1.77617e-05
1.7718e-05
1.76745e-05
1.76313e-05
1.75883e-05
1.75454e-05
1.75027e-05
1.74602e-05
1.74178e-05
1.73756e-05
1.73336e-05
1.72916e-05
1.72498e-05
1.7208e-05
1.71664e-05
1.71248e-05
1.70834e-05
1.7042e-05
1.70008e-05
1.69597e-05
1.69187e-05
1.68779e-05
1.68374e-05
1.67972e-05
1.67572e-05
1.67175e-05
1.66783e-05
1.66395e-05
1.66012e-05
1.65636e-05
1.65265e-05
1.64903e-05
1.64548e-05
1.64202e-05
1.63865e-05
1.63538e-05
1.63223e-05
1.62917e-05
1.62624e-05
1.62345e-05
1.62084e-05
1.61836e-05
1.61598e-05
1.6137e-05
1.61168e-05
1.61017e-05
1.60917e-05
1.60827e-05
1.60701e-05
1.60518e-05
1.60371e-05
1.60408e-05
1.60731e-05
1.61347e-05
1.62008e-05
1.62429e-05
1.62482e-05
1.6203e-05
1.61343e-05
1.61208e-05
1.6227e-05
1.64854e-05
1.6947e-05
1.75218e-05
1.76141e-05
1.56887e-05
9.10697e-06
7.16674e-06
6.07624e-06
1.01812e-05
1.26493e-05
1.22989e-05
1.7598e-05
1.57145e-05
1.36053e-05
8.94944e-06
9.42576e-06
1.39996e-05
2.14434e-05
2.33611e-05
2.32882e-05
2.28367e-05
2.23961e-05
2.21425e-05
2.2041e-05
2.20474e-05
2.20945e-05
2.21165e-05
2.20931e-05
2.20348e-05
2.19592e-05
2.18928e-05
2.18568e-05
2.18501e-05
2.18616e-05
2.1877e-05
2.18883e-05
2.18977e-05
2.19101e-05
2.19292e-05
2.19545e-05
2.19833e-05
2.20138e-05
2.20459e-05
2.208e-05
2.21161e-05
2.2154e-05
2.21932e-05
2.22334e-05
2.22747e-05
2.2317e-05
2.23601e-05
2.24039e-05
2.24485e-05
2.24936e-05
2.25392e-05
2.25853e-05
2.26318e-05
2.26787e-05
2.27258e-05
2.27732e-05
2.28207e-05
2.28685e-05
2.29166e-05
2.2965e-05
2.30136e-05
2.30625e-05
2.31118e-05
2.31615e-05
2.32119e-05
2.3263e-05
2.33148e-05
2.33675e-05
2.34212e-05
2.3476e-05
2.35319e-05
2.35892e-05
2.36477e-05
2.37075e-05
2.37686e-05
2.3831e-05
2.38946e-05
2.39596e-05
2.40257e-05
2.4093e-05
2.41614e-05
2.42308e-05
2.43013e-05
2.43728e-05
2.4445e-05
2.4518e-05
2.45919e-05
2.46665e-05
2.47416e-05
2.48173e-05
2.48934e-05
2.49698e-05
2.50464e-05
2.51231e-05
2.51997e-05
2.5276e-05
2.53519e-05
2.54271e-05
2.55016e-05
2.55754e-05
2.56485e-05
2.57209e-05
2.57928e-05
2.58641e-05
2.5935e-05
2.60058e-05
2.60767e-05
2.61478e-05
2.62193e-05
2.62914e-05
2.6364e-05
2.64371e-05
2.65105e-05
2.65842e-05
2.66578e-05
2.67313e-05
2.68042e-05
2.68764e-05
2.69479e-05
2.70183e-05
2.70871e-05
2.71539e-05
2.72179e-05
2.72788e-05
2.73365e-05
2.73905e-05
2.74403e-05
2.74853e-05
2.75253e-05
2.756e-05
2.75894e-05
2.76129e-05
2.76296e-05
2.76393e-05
2.76421e-05
2.76377e-05
2.76261e-05
2.76045e-05
2.75726e-05
2.75296e-05
2.74706e-05
2.73877e-05
2.72759e-05
2.71526e-05
2.71305e-05
2.74697e-05
2.80614e-05
2.83757e-05
2.83171e-05
2.7999e-05
2.74772e-05
2.66901e-05
2.53391e-05
2.29205e-05
1.80057e-05
1.16819e-05
2.74277e-06
1.19727e-05
1.82764e-05
2.31192e-05
2.55117e-05
2.68508e-05
2.7618e-05
2.80937e-05
2.82366e-05
2.76468e-05
2.62301e-05
2.59131e-05
2.62477e-05
2.64746e-05
2.66159e-05
2.67229e-05
2.681e-05
2.68853e-05
2.69533e-05
2.70148e-05
2.70686e-05
2.71143e-05
2.71507e-05
2.71784e-05
2.71982e-05
2.72084e-05
2.72114e-05
2.72074e-05
2.71969e-05
2.71804e-05
2.7158e-05
2.71305e-05
2.70981e-05
2.70613e-05
2.70205e-05
2.69764e-05
2.69291e-05
2.68789e-05
2.68267e-05
2.67729e-05
2.67176e-05
2.66607e-05
2.66024e-05
2.6543e-05
2.64828e-05
2.64219e-05
2.63606e-05
2.6299e-05
2.62372e-05
2.61752e-05
2.6113e-05
2.60507e-05
2.59883e-05
2.59257e-05
2.58629e-05
2.57999e-05
2.57365e-05
2.56727e-05
2.56086e-05
2.55441e-05
2.54792e-05
2.54139e-05
2.53484e-05
2.52826e-05
2.52166e-05
2.51504e-05
2.50842e-05
2.50178e-05
2.49514e-05
2.48849e-05
2.48187e-05
2.47522e-05
2.46861e-05
2.46198e-05
2.45539e-05
2.44878e-05
2.44221e-05
2.43565e-05
2.42911e-05
2.4226e-05
2.41611e-05
2.40964e-05
2.4032e-05
2.39677e-05
2.39037e-05
2.38399e-05
2.37763e-05
2.3713e-05
2.36498e-05
2.35868e-05
2.3524e-05
2.34612e-05
2.33986e-05
2.33361e-05
2.32738e-05
2.32115e-05
2.31495e-05
2.30875e-05
2.30257e-05
2.29641e-05
2.29029e-05
2.2842e-05
2.27815e-05
2.27213e-05
2.26618e-05
2.26028e-05
2.25446e-05
2.24872e-05
2.24307e-05
2.23753e-05
2.2321e-05
2.22679e-05
2.22161e-05
2.21659e-05
2.21172e-05
2.207e-05
2.20244e-05
2.19809e-05
2.19398e-05
2.19007e-05
2.18631e-05
2.1827e-05
2.17942e-05
2.1767e-05
2.1746e-05
2.17274e-05
2.17062e-05
2.16801e-05
2.16569e-05
2.16519e-05
2.16767e-05
2.17322e-05
2.17969e-05
2.18434e-05
2.18543e-05
2.18182e-05
2.17563e-05
2.17359e-05
2.18257e-05
2.20692e-05
2.25e-05
2.2949e-05
2.30091e-05
2.10866e-05
1.36912e-05
9.24526e-06
8.86118e-06
1.36156e-05
1.59194e-05
1.78558e-05
2.44341e-05
1.88951e-05
1.68727e-05
1.24725e-05
1.1723e-05
2.00388e-05
2.7014e-05
2.8842e-05
2.89187e-05
2.87149e-05
2.83753e-05
2.81728e-05
2.80965e-05
2.80966e-05
2.81174e-05
2.81196e-05
2.80909e-05
2.80364e-05
2.79756e-05
2.7928e-05
2.79069e-05
2.79117e-05
2.79318e-05
2.79559e-05
2.79785e-05
2.80021e-05
2.80305e-05
2.80665e-05
2.8109e-05
2.81554e-05
2.82043e-05
2.82556e-05
2.83095e-05
2.83658e-05
2.84241e-05
2.8484e-05
2.85453e-05
2.86078e-05
2.86715e-05
2.87361e-05
2.88016e-05
2.88679e-05
2.89348e-05
2.90024e-05
2.90705e-05
2.91391e-05
2.92081e-05
2.92774e-05
2.93471e-05
2.94171e-05
2.94875e-05
2.95584e-05
2.96297e-05
2.97016e-05
2.97741e-05
2.98474e-05
2.99217e-05
2.99971e-05
3.00737e-05
3.01517e-05
3.02314e-05
3.03127e-05
3.03958e-05
3.04807e-05
3.05675e-05
3.06563e-05
3.0747e-05
3.08395e-05
3.09336e-05
3.10295e-05
3.11268e-05
3.12255e-05
3.13255e-05
3.14266e-05
3.15286e-05
3.16317e-05
3.17353e-05
3.18396e-05
3.19443e-05
3.20495e-05
3.21549e-05
3.22606e-05
3.23662e-05
3.24719e-05
3.25771e-05
3.26823e-05
3.2787e-05
3.2891e-05
3.29941e-05
3.30963e-05
3.31975e-05
3.32974e-05
3.33961e-05
3.34937e-05
3.35903e-05
3.36858e-05
3.37805e-05
3.38745e-05
3.3968e-05
3.40613e-05
3.41546e-05
3.4248e-05
3.43416e-05
3.44354e-05
3.45294e-05
3.46234e-05
3.47172e-05
3.48106e-05
3.49034e-05
3.49953e-05
3.5086e-05
3.51755e-05
3.52633e-05
3.5349e-05
3.54317e-05
3.55111e-05
3.55867e-05
3.56582e-05
3.57252e-05
3.57872e-05
3.58436e-05
3.58941e-05
3.59387e-05
3.59772e-05
3.60089e-05
3.60332e-05
3.60498e-05
3.60592e-05
3.60612e-05
3.60557e-05
3.60404e-05
3.60152e-05
3.59794e-05
3.59282e-05
3.5855e-05
3.57583e-05
3.56641e-05
3.56925e-05
3.60789e-05
3.66468e-05
3.68373e-05
3.65539e-05
3.58951e-05
3.48804e-05
3.33976e-05
3.11513e-05
2.75966e-05
2.11351e-05
1.38102e-05
3.5657e-06
1.41322e-05
2.14501e-05
2.78435e-05
3.13858e-05
3.36355e-05
3.51222e-05
3.6125e-05
3.66248e-05
3.62282e-05
3.47915e-05
3.43076e-05
3.45387e-05
3.47185e-05
3.48429e-05
3.49467e-05
3.50354e-05
3.51148e-05
3.51884e-05
3.5257e-05
3.5318e-05
3.53709e-05
3.54137e-05
3.54465e-05
3.54701e-05
3.54826e-05
3.54864e-05
3.54816e-05
3.54688e-05
3.54486e-05
3.54213e-05
3.53874e-05
3.53474e-05
3.53019e-05
3.52512e-05
3.51962e-05
3.5137e-05
3.50741e-05
3.50083e-05
3.494e-05
3.48697e-05
3.47974e-05
3.4723e-05
3.46471e-05
3.45698e-05
3.44915e-05
3.44123e-05
3.43325e-05
3.42521e-05
3.41711e-05
3.40897e-05
3.40078e-05
3.39254e-05
3.38427e-05
3.37594e-05
3.36755e-05
3.35909e-05
3.35057e-05
3.34198e-05
3.33331e-05
3.32457e-05
3.31576e-05
3.3069e-05
3.29797e-05
3.28897e-05
3.27992e-05
3.27084e-05
3.2617e-05
3.25254e-05
3.24333e-05
3.23411e-05
3.22484e-05
3.21557e-05
3.20626e-05
3.19696e-05
3.18763e-05
3.17832e-05
3.16899e-05
3.15969e-05
3.15039e-05
3.14111e-05
3.13185e-05
3.12261e-05
3.1134e-05
3.10421e-05
3.09505e-05
3.08592e-05
3.07682e-05
3.06774e-05
3.05868e-05
3.04965e-05
3.04063e-05
3.03164e-05
3.02265e-05
3.01368e-05
3.00473e-05
2.99579e-05
2.98687e-05
2.97796e-05
2.96909e-05
2.96024e-05
2.95143e-05
2.94267e-05
2.93397e-05
2.92532e-05
2.91676e-05
2.90829e-05
2.89993e-05
2.89169e-05
2.88358e-05
2.87562e-05
2.86784e-05
2.86023e-05
2.85281e-05
2.84561e-05
2.83862e-05
2.83185e-05
2.82535e-05
2.81914e-05
2.81321e-05
2.80752e-05
2.80206e-05
2.79695e-05
2.79242e-05
2.78855e-05
2.78511e-05
2.78164e-05
2.77789e-05
2.77435e-05
2.77236e-05
2.773e-05
2.77637e-05
2.78105e-05
2.78497e-05
2.78617e-05
2.78399e-05
2.77977e-05
2.77767e-05
2.78364e-05
2.80266e-05
2.83572e-05
2.85623e-05
2.84733e-05
2.66252e-05
1.95839e-05
1.14727e-05
1.23445e-05
1.69914e-05
1.91912e-05
2.48863e-05
3.25803e-05
2.25274e-05
2.00651e-05
1.62208e-05
1.49549e-05
2.68522e-05
3.25465e-05
3.43453e-05
3.47185e-05
3.4838e-05
3.46443e-05
3.4514e-05
3.44635e-05
3.44468e-05
3.44337e-05
3.44184e-05
3.43952e-05
3.43608e-05
3.43335e-05
3.43201e-05
3.43246e-05
3.43477e-05
3.43818e-05
3.44205e-05
3.44624e-05
3.45089e-05
3.45622e-05
3.46236e-05
3.46911e-05
3.47631e-05
3.48383e-05
3.49168e-05
3.49984e-05
3.50828e-05
3.51694e-05
3.52577e-05
3.53476e-05
3.54389e-05
3.55313e-05
3.56248e-05
3.57192e-05
3.58143e-05
3.59102e-05
3.60068e-05
3.61039e-05
3.62016e-05
3.62998e-05
3.63984e-05
3.64976e-05
3.65972e-05
3.66976e-05
3.67987e-05
3.69006e-05
3.70037e-05
3.7108e-05
3.72137e-05
3.73212e-05
3.74306e-05
3.75424e-05
3.76564e-05
3.77732e-05
3.78926e-05
3.80149e-05
3.814e-05
3.8268e-05
3.83988e-05
3.85323e-05
3.86682e-05
3.88062e-05
3.89463e-05
3.9088e-05
3.92311e-05
3.93754e-05
3.95205e-05
3.96663e-05
3.98125e-05
3.99586e-05
4.01049e-05
4.02506e-05
4.03962e-05
4.05409e-05
4.06851e-05
4.08282e-05
4.09705e-05
4.11114e-05
4.12514e-05
4.13898e-05
4.15267e-05
4.16619e-05
4.17954e-05
4.19272e-05
4.20571e-05
4.21852e-05
4.23117e-05
4.24365e-05
4.25598e-05
4.26818e-05
4.28025e-05
4.29223e-05
4.30414e-05
4.31598e-05
4.32778e-05
4.33953e-05
4.35124e-05
4.36291e-05
4.37452e-05
4.38604e-05
4.39747e-05
4.40876e-05
4.41991e-05
4.43089e-05
4.44169e-05
4.45224e-05
4.46249e-05
4.47239e-05
4.48189e-05
4.49095e-05
4.49954e-05
4.50763e-05
4.51517e-05
4.52209e-05
4.52841e-05
4.53412e-05
4.5392e-05
4.54361e-05
4.54729e-05
4.55026e-05
4.55258e-05
4.55427e-05
4.55533e-05
4.55565e-05
4.55526e-05
4.5541e-05
4.55181e-05
4.54809e-05
4.54341e-05
4.54103e-05
4.5509e-05
4.58704e-05
4.6247e-05
4.61289e-05
4.54302e-05
4.42201e-05
4.24689e-05
4.00278e-05
3.66495e-05
3.17827e-05
2.36793e-05
1.56404e-05
4.49088e-06
1.59767e-05
2.4026e-05
3.2073e-05
3.69507e-05
4.03562e-05
4.28422e-05
4.46539e-05
4.57841e-05
4.5877e-05
4.47625e-05
4.4142e-05
4.41273e-05
4.4165e-05
4.4221e-05
4.42903e-05
4.43585e-05
4.44247e-05
4.44896e-05
4.45534e-05
4.46121e-05
4.46647e-05
4.47074e-05
4.47406e-05
4.47637e-05
4.47755e-05
4.47772e-05
4.47697e-05
4.47528e-05
4.47276e-05
4.4694e-05
4.46527e-05
4.46043e-05
4.45493e-05
4.44881e-05
4.44214e-05
4.43497e-05
4.42733e-05
4.41929e-05
4.41092e-05
4.40226e-05
4.39334e-05
4.38418e-05
4.37479e-05
4.3652e-05
4.35545e-05
4.34555e-05
4.33552e-05
4.32539e-05
4.31514e-05
4.3048e-05
4.29437e-05
4.28383e-05
4.2732e-05
4.26246e-05
4.25162e-05
4.24067e-05
4.2296e-05
4.21841e-05
4.2071e-05
4.19566e-05
4.18411e-05
4.17244e-05
4.16065e-05
4.14874e-05
4.13672e-05
4.12461e-05
4.11238e-05
4.10008e-05
4.08766e-05
4.07518e-05
4.0626e-05
4.04996e-05
4.03724e-05
4.02448e-05
4.01165e-05
3.99881e-05
3.98592e-05
3.97303e-05
3.96013e-05
3.94723e-05
3.93434e-05
3.92147e-05
3.90862e-05
3.89581e-05
3.88303e-05
3.87029e-05
3.85759e-05
3.84493e-05
3.83229e-05
3.8197e-05
3.80714e-05
3.79459e-05
3.78209e-05
3.76959e-05
3.75711e-05
3.74466e-05
3.73222e-05
3.71982e-05
3.70743e-05
3.69507e-05
3.68277e-05
3.67051e-05
3.65832e-05
3.64621e-05
3.63419e-05
3.62228e-05
3.6105e-05
3.59888e-05
3.58744e-05
3.57618e-05
3.56514e-05
3.55432e-05
3.54376e-05
3.53348e-05
3.52347e-05
3.51375e-05
3.50436e-05
3.49533e-05
3.48665e-05
3.47832e-05
3.47031e-05
3.46268e-05
3.4556e-05
3.44917e-05
3.44333e-05
3.43779e-05
3.43236e-05
3.42712e-05
3.42294e-05
3.42066e-05
3.42023e-05
3.4212e-05
3.42271e-05
3.42291e-05
3.4219e-05
3.4204e-05
3.41923e-05
3.42196e-05
3.43337e-05
3.45171e-05
3.43964e-05
3.40086e-05
3.21682e-05
2.63203e-05
1.45932e-05
1.62098e-05
2.03049e-05
2.28777e-05
3.33069e-05
4.19511e-05
2.8e-05
2.32694e-05
1.98168e-05
1.93665e-05
3.37121e-05
3.79291e-05
3.98819e-05
4.06961e-05
4.11606e-05
4.11252e-05
4.10684e-05
4.10347e-05
4.0993e-05
4.09485e-05
4.09272e-05
4.09262e-05
4.09315e-05
4.09556e-05
4.099e-05
4.10296e-05
4.10782e-05
4.11333e-05
4.11952e-05
4.12659e-05
4.13456e-05
4.14339e-05
4.153e-05
4.16317e-05
4.17382e-05
4.18488e-05
4.19636e-05
4.20818e-05
4.22029e-05
4.23263e-05
4.24515e-05
4.25783e-05
4.27064e-05
4.28357e-05
4.29659e-05
4.3097e-05
4.32288e-05
4.33613e-05
4.34945e-05
4.36283e-05
4.37626e-05
4.38975e-05
4.40332e-05
4.41696e-05
4.43068e-05
4.44452e-05
4.45848e-05
4.47261e-05
4.48692e-05
4.50145e-05
4.51623e-05
4.53131e-05
4.5467e-05
4.5625e-05
4.57865e-05
4.59524e-05
4.61223e-05
4.62967e-05
4.64754e-05
4.66583e-05
4.68451e-05
4.70356e-05
4.72294e-05
4.74259e-05
4.76247e-05
4.78254e-05
4.80273e-05
4.82301e-05
4.84333e-05
4.86364e-05
4.88392e-05
4.90407e-05
4.92413e-05
4.94401e-05
4.96375e-05
4.98324e-05
5.00255e-05
5.02158e-05
5.04041e-05
5.05892e-05
5.07722e-05
5.0952e-05
5.11289e-05
5.13029e-05
5.14739e-05
5.16421e-05
5.18075e-05
5.19701e-05
5.21301e-05
5.22875e-05
5.24425e-05
5.25953e-05
5.27462e-05
5.28953e-05
5.30427e-05
5.31887e-05
5.33333e-05
5.34764e-05
5.36183e-05
5.37589e-05
5.38981e-05
5.40356e-05
5.41714e-05
5.43052e-05
5.44369e-05
5.45663e-05
5.46932e-05
5.48168e-05
5.49365e-05
5.50522e-05
5.51635e-05
5.52703e-05
5.53721e-05
5.54689e-05
5.55601e-05
5.56454e-05
5.57253e-05
5.58001e-05
5.58694e-05
5.59333e-05
5.59914e-05
5.60448e-05
5.60941e-05
5.61405e-05
5.61838e-05
5.62248e-05
5.62641e-05
5.6301e-05
5.63329e-05
5.63611e-05
5.63947e-05
5.64598e-05
5.65977e-05
5.68039e-05
5.67695e-05
5.60904e-05
5.47292e-05
5.27308e-05
5.00008e-05
4.63585e-05
4.16341e-05
3.53176e-05
2.55062e-05
1.71281e-05
5.54476e-06
1.74606e-05
2.58683e-05
3.56435e-05
4.20039e-05
4.67862e-05
5.05279e-05
5.34307e-05
5.55165e-05
5.64687e-05
5.60432e-05
5.54634e-05
5.51698e-05
5.49896e-05
5.49141e-05
5.49011e-05
5.49109e-05
5.49321e-05
5.49609e-05
5.49964e-05
5.50328e-05
5.50684e-05
5.50972e-05
5.51191e-05
5.51319e-05
5.5135e-05
5.51279e-05
5.51117e-05
5.50859e-05
5.50516e-05
5.50084e-05
5.49568e-05
5.48974e-05
5.48309e-05
5.47574e-05
5.46776e-05
5.45919e-05
5.45007e-05
5.44044e-05
5.43037e-05
5.41994e-05
5.40918e-05
5.39814e-05
5.3868e-05
5.37521e-05
5.36336e-05
5.35131e-05
5.33905e-05
5.32661e-05
5.314e-05
5.30121e-05
5.28825e-05
5.27511e-05
5.2618e-05
5.24831e-05
5.23463e-05
5.22076e-05
5.2067e-05
5.19244e-05
5.17798e-05
5.1633e-05
5.14843e-05
5.13336e-05
5.11807e-05
5.10259e-05
5.08689e-05
5.07102e-05
5.05494e-05
5.03869e-05
5.02224e-05
5.00563e-05
4.98886e-05
4.97195e-05
4.95489e-05
4.93772e-05
4.92043e-05
4.90307e-05
4.88562e-05
4.86814e-05
4.85062e-05
4.83308e-05
4.81554e-05
4.79802e-05
4.78053e-05
4.76309e-05
4.7457e-05
4.72836e-05
4.71109e-05
4.69389e-05
4.67674e-05
4.65964e-05
4.64261e-05
4.62561e-05
4.60869e-05
4.59178e-05
4.5749e-05
4.55806e-05
4.54124e-05
4.52446e-05
4.50771e-05
4.491e-05
4.47435e-05
4.45774e-05
4.44122e-05
4.42478e-05
4.40846e-05
4.39227e-05
4.37624e-05
4.36039e-05
4.34476e-05
4.32937e-05
4.31424e-05
4.29939e-05
4.28486e-05
4.27068e-05
4.25684e-05
4.24337e-05
4.23029e-05
4.21763e-05
4.20542e-05
4.19366e-05
4.18233e-05
4.17141e-05
4.16097e-05
4.1511e-05
4.14196e-05
4.13349e-05
4.12564e-05
4.11808e-05
4.11106e-05
4.10492e-05
4.09934e-05
4.09474e-05
4.09183e-05
4.08929e-05
4.08827e-05
4.08929e-05
4.08992e-05
4.09033e-05
4.09395e-05
4.09618e-05
4.04855e-05
3.96434e-05
3.76171e-05
3.31619e-05
1.88544e-05
1.99097e-05
2.36329e-05
2.84572e-05
4.30552e-05
5.24836e-05
3.51101e-05
2.65742e-05
2.31995e-05
2.50855e-05
4.03747e-05
4.30642e-05
4.54725e-05
4.68308e-05
4.76054e-05
4.77094e-05
4.77115e-05
4.76827e-05
4.76155e-05
4.75525e-05
4.75449e-05
4.7586e-05
4.76501e-05
4.77401e-05
4.78319e-05
4.79142e-05
4.79955e-05
4.80801e-05
4.81753e-05
4.82855e-05
4.84087e-05
4.85417e-05
4.86817e-05
4.88264e-05
4.89761e-05
4.91309e-05
4.92905e-05
4.94537e-05
4.96196e-05
4.97876e-05
4.99573e-05
5.01285e-05
5.03008e-05
5.04741e-05
5.06481e-05
5.08228e-05
5.09981e-05
5.1174e-05
5.13505e-05
5.15276e-05
5.17054e-05
5.18839e-05
5.20635e-05
5.22441e-05
5.24261e-05
5.26099e-05
5.27958e-05
5.29842e-05
5.31757e-05