/*--------------------------------*- C++ -*----------------------------------*\
| =========                 |                                                 |
| \\      /  F ield         | OpenFOAM: The Open Source CFD Toolbox           |
|  \\    /   O peration     | Version:  2412                                  |
|   \\  /    A nd           | Website:  www.openfoam.com                      |
|    \\/     M anipulation  |                                                 |
\*---------------------------------------------------------------------------*/
FoamFile
{
    version     2.0;
    format      ascii;
    arch        "LSB;label=32;scalar=64";
    class       volScalarField;
    location    "60";
    object      p;
}
// * * * * * * * * * * * * * * * * * * * * * * * * * * * * * * * * * * * * * //

dimensions      [0 2 -2 0 0 0 0];

internalField   nonuniform List<scalar> 
29601
(
207.598
131.186
152.684
185.536
175.609
152.886
127.011
118.497
141.374
153.158
157.249
157.882
156.084
152.77
149.521
147.841
146.927
146.52
146.227
145.095
143.153
140.706
137.982
135.424
132.964
130.514
127.913
125.135
122.239
119.294
116.316
113.283
110.171
106.982
103.719
100.389
96.9864
93.5114
89.9649
86.3512
82.6752
78.9417
75.1558
71.3236
67.4497
63.5406
59.5992
55.6308
51.6363
47.6173
43.5747
39.5087
35.4207
31.3105
27.1764
23.0161
18.8304
14.6205
10.3847
6.12323
1.83425
-2.47889
-6.81579
-11.1758
-15.5602
-19.9691
-24.4006
-28.8532
-33.3283
-37.8257
-42.3459
-46.8887
-51.4551
-56.0466
-60.6657
-65.3135
-69.9887
-74.6958
-79.4384
-84.2164
-89.0311
-93.8884
-98.7878
-103.732
-108.723
-113.764
-118.857
-124.003
-129.201
-134.456
-139.769
-145.136
-150.559
-156.039
-161.575
-167.164
-172.803
-178.49
-184.226
-189.999
-195.809
-201.651
-207.514
-213.396
-219.287
-225.177
-231.057
-236.916
-242.745
-248.53
-254.258
-259.911
-265.477
-270.939
-276.285
-281.49
-286.541
-291.418
-296.092
-300.539
-304.749
-308.685
-312.306
-315.602
-318.529
-321.028
-323.058
-324.576
-325.539
-325.811
-325.357
-324.131
-321.845
-318.325
-313.425
-306.816
-297.833
-285.856
-270.201
-250.13
-224.696
-192.069
-148.777
-89.8161
-5.9389
123.947
291.503
523.535
739.154
819.287
734.134
514.541
281.163
114.67
-15.1779
-97.7128
-155.428
-197.897
-230.533
-256.593
-277.118
-292.793
-304.372
-312.881
-319.127
-323.669
-326.924
-329.04
-330.056
-330.251
-329.743
-328.559
-326.823
-324.614
-321.947
-318.851
-315.393
-311.616
-307.53
-303.183
-298.605
-293.801
-288.799
-283.628
-278.309
-272.852
-267.281
-261.611
-255.856
-250.03
-244.149
-238.227
-232.277
-226.309
-220.333
-214.359
-208.396
-202.453
-196.534
-190.65
-184.804
-178.997
-173.241
-167.535
-161.879
-156.279
-150.737
-145.254
-139.828
-134.458
-129.149
-123.896
-118.699
-113.556
-108.467
-103.431
-98.4429
-93.5021
-88.6046
-83.7524
-78.9374
-74.1606
-69.4196
-64.7126
-60.0323
-55.3823
-50.7582
-46.1596
-41.5818
-37.0247
-32.487
-27.9678
-23.4658
-18.9793
-14.5088
-10.0558
-5.61912
-1.19746
3.20947
7.59868
11.9693
16.3191
20.6493
24.9587
29.2464
33.5093
37.7456
41.9546
46.1341
50.2817
54.3955
58.4744
62.5159
66.518
70.4785
74.3946
78.2638
82.0831
85.8496
89.5608
93.2142
96.8062
100.333
103.791
107.182
110.504
113.75
116.911
119.983
122.985
125.937
128.823
131.577
134.14
136.544
138.952
141.453
144.117
146.513
148.429
149.581
149.94
150.435
151.442
153.202
156.5
159.876
161.826
161.5
157.969
147.294
126.111
135.094
160.289
180.038
188.704
156.838
135.378
207.356
207.431
131.356
152.75
185.478
175.583
152.929
127.073
118.528
141.366
153.148
157.244
157.879
156.084
152.771
149.522
147.842
146.928
146.52
146.227
145.095
143.153
140.706
137.983
135.425
132.965
130.514
127.913
125.135
122.239
119.294
116.316
113.283
110.172
106.982
103.72
100.389
96.9867
93.5116
89.9651
86.3514
82.6755
78.9419
75.156
71.3238
67.4499
63.5408
59.5994
55.631
51.6364
47.6175
43.5749
39.5088
35.4209
31.3107
27.1766
23.0163
18.8306
14.6207
10.3848
6.1234
1.8344
-2.47872
-6.81567
-11.1757
-15.5601
-19.969
-24.4005
-28.8531
-33.3282
-37.8256
-42.3458
-46.8886
-51.455
-56.0465
-60.6656
-65.3134
-69.9886
-74.6957
-79.4384
-84.2164
-89.031
-93.8884
-98.7878
-103.732
-108.723
-113.764
-118.857
-124.003
-129.201
-134.456
-139.769
-145.136
-150.559
-156.039
-161.575
-167.164
-172.803
-178.49
-184.226
-189.999
-195.809
-201.65
-207.514
-213.396
-219.287
-225.177
-231.057
-236.916
-242.745
-248.53
-254.258
-259.911
-265.477
-270.939
-276.285
-281.49
-286.541
-291.418
-296.092
-300.539
-304.749
-308.685
-312.306
-315.601
-318.529
-321.028
-323.058
-324.576
-325.539
-325.811
-325.357
-324.131
-321.845
-318.325
-313.425
-306.816
-297.833
-285.855
-270.201
-250.129
-224.696
-192.068
-148.777
-89.8156
-5.93805
123.947
291.501
523.523
739.132
819.27
734.111
514.529
281.161
114.67
-15.177
-97.7121
-155.427
-197.897
-230.532
-256.592
-277.117
-292.793
-304.372
-312.881
-319.127
-323.669
-326.924
-329.04
-330.056
-330.251
-329.743
-328.559
-326.823
-324.614
-321.947
-318.851
-315.393
-311.616
-307.53
-303.183
-298.605
-293.801
-288.799
-283.628
-278.309
-272.852
-267.281
-261.611
-255.856
-250.03
-244.149
-238.227
-232.277
-226.309
-220.333
-214.359
-208.396
-202.453
-196.534
-190.65
-184.804
-178.997
-173.241
-167.535
-161.879
-156.279
-150.737
-145.254
-139.828
-134.458
-129.149
-123.896
-118.699
-113.556
-108.467
-103.431
-98.4428
-93.5021
-88.6045
-83.7523
-78.9374
-74.1605
-69.4195
-64.7125
-60.0322
-55.3822
-50.7581
-46.1595
-41.5817
-37.0246
-32.4869
-27.9677
-23.4657
-18.9792
-14.5087
-10.0557
-5.61901
-1.19733
3.20959
7.59882
11.9694
16.3192
20.6495
24.9589
29.2466
33.5095
37.7458
41.9547
46.1343
50.2819
54.3957
58.4746
62.5161
66.5182
70.4787
74.3948
78.264
82.0833
85.8498
89.5611
93.2144
96.8064
100.333
103.791
107.182
110.504
113.751
116.912
119.983
122.985
125.938
128.823
131.577
134.14
136.545
138.952
141.453
144.117
146.513
148.429
149.581
149.94
150.435
151.443
153.203
156.501
159.876
161.824
161.495
157.96
147.286
126.142
135.153
160.327
180.013
188.651
156.892
135.545
207.2
207.198
131.608
152.877
185.437
175.555
152.972
127.162
118.577
141.357
153.137
157.238
157.877
156.083
152.772
149.523
147.843
146.928
146.52
146.227
145.095
143.153
140.707
137.983
135.425
132.965
130.515
127.914
125.135
122.24
119.294
116.316
113.283
110.172
106.982
103.72
100.389
96.9871
93.512
89.9655
86.3518
82.6758
78.9423
75.1563
71.3241
67.4502
63.5412
59.5997
55.6313
51.6368
47.6178
43.5751
39.5091
35.4212
31.311
27.1768
23.0166
18.8308
14.621
10.3851
6.12361
1.83462
-2.47853
-6.81545
-11.1755
-15.5599
-19.9688
-24.4003
-28.853
-33.328
-37.8255
-42.3456
-46.8885
-51.4549
-56.0464
-60.6655
-65.3133
-69.9885
-74.6957
-79.4383
-84.2163
-89.0309
-93.8883
-98.7877
-103.732
-108.723
-113.764
-118.856
-124.003
-129.201
-134.456
-139.769
-145.136
-150.559
-156.039
-161.575
-167.164
-172.803
-178.49
-184.226
-189.999
-195.809
-201.65
-207.514
-213.396
-219.287
-225.177
-231.057
-236.916
-242.745
-248.53
-254.258
-259.911
-265.477
-270.939
-276.285
-281.49
-286.541
-291.418
-296.092
-300.539
-304.749
-308.685
-312.306
-315.601
-318.529
-321.028
-323.058
-324.576
-325.539
-325.811
-325.357
-324.131
-321.844
-318.325
-313.425
-306.815
-297.832
-285.855
-270.2
-250.128
-224.695
-192.067
-148.775
-89.8132
-5.93369
123.953
291.511
523.525
739.117
819.249
734.096
514.531
281.171
114.676
-15.1724
-97.7096
-155.425
-197.895
-230.53
-256.591
-277.116
-292.792
-304.372
-312.88
-319.126
-323.669
-326.924
-329.04
-330.056
-330.25
-329.743
-328.559
-326.823
-324.614
-321.947
-318.851
-315.393
-311.616
-307.53
-303.183
-298.605
-293.801
-288.799
-283.628
-278.309
-272.852
-267.281
-261.611
-255.856
-250.03
-244.149
-238.227
-232.277
-226.309
-220.333
-214.359
-208.396
-202.453
-196.534
-190.65
-184.804
-178.997
-173.241
-167.535
-161.879
-156.279
-150.737
-145.254
-139.828
-134.458
-129.148
-123.896
-118.699
-113.556
-108.467
-103.431
-98.4428
-93.5021
-88.6045
-83.7523
-78.9373
-74.1605
-69.4194
-64.7125
-60.0321
-55.3821
-50.758
-46.1594
-41.5816
-37.0245
-32.4868
-27.9675
-23.4655
-18.979
-14.5085
-10.0555
-5.61883
-1.19717
3.20978
7.599
11.9696
16.3194
20.6497
24.9591
29.2468
33.5097
37.746
41.955
46.1346
50.2821
54.3959
58.4748
62.5164
66.5185
70.479
74.3951
78.2643
82.0836
85.8501
89.5614
93.2148
96.8068
100.333
103.791
107.182
110.505
113.751
116.912
119.983
122.985
125.938
128.823
131.577
134.14
136.545
138.953
141.454
144.118
146.513
148.429
149.581
149.94
150.435
151.444
153.204
156.502
159.875
161.821
161.489
157.949
147.278
126.189
135.239
160.371
179.987
188.617
157.007
135.788
206.998
206.903
131.959
153.055
185.405
175.53
153.031
127.288
118.655
141.353
153.124
157.23
157.873
156.082
152.773
149.525
147.844
146.929
146.521
146.227
145.095
143.154
140.707
137.984
135.426
132.966
130.515
127.914
125.136
122.24
119.295
116.317
113.284
110.173
106.983
103.721
100.39
96.9875
93.5124
89.9659
86.3522
82.6762
78.9427
75.1567
71.3245
67.4506
63.5415
59.6
55.6317
51.6371
47.6182
43.5755
39.5094
35.4215
31.3113
27.1771
23.0168
18.8311
14.6212
10.3853
6.12386
1.83487
-2.47829
-6.81522
-11.1753
-15.5597
-19.9686
-24.4001
-28.8528
-33.3278
-37.8253
-42.3455
-46.8883
-51.4548
-56.0462
-60.6654
-65.3132
-69.9884
-74.6956
-79.4382
-84.2162
-89.0309
-93.8883
-98.7877
-103.732
-108.723
-113.764
-118.856
-124.003
-129.201
-134.456
-139.769
-145.136
-150.559
-156.039
-161.575
-167.164
-172.803
-178.49
-184.226
-189.999
-195.809
-201.65
-207.514
-213.396
-219.287
-225.177
-231.057
-236.916
-242.745
-248.53
-254.258
-259.911
-265.476
-270.939
-276.285
-281.49
-286.541
-291.418
-296.092
-300.539
-304.749
-308.685
-312.306
-315.601
-318.528
-321.028
-323.058
-324.576
-325.538
-325.811
-325.356
-324.131
-321.844
-318.324
-313.424
-306.814
-297.831
-285.853
-270.198
-250.126
-224.692
-192.064
-148.771
-89.8073
-5.92416
123.968
291.535
523.543
739.106
819.224
734.086
514.55
281.196
114.691
-15.1627
-97.7035
-155.421
-197.891
-230.527
-256.588
-277.115
-292.791
-304.371
-312.88
-319.126
-323.669
-326.923
-329.04
-330.056
-330.25
-329.743
-328.559
-326.822
-324.614
-321.946
-318.851
-315.393
-311.616
-307.53
-303.182
-298.605
-293.801
-288.798
-283.628
-278.309
-272.852
-267.281
-261.611
-255.856
-250.03
-244.149
-238.227
-232.277
-226.309
-220.333
-214.359
-208.396
-202.453
-196.534
-190.649
-184.803
-178.996
-173.241
-167.535
-161.879
-156.279
-150.737
-145.254
-139.828
-134.458
-129.148
-123.896
-118.698
-113.556
-108.467
-103.431
-98.4427
-93.502
-88.6044
-83.7522
-78.9372
-74.1604
-69.4194
-64.7124
-60.032
-55.382
-50.7579
-46.1593
-41.5814
-37.0244
-32.4867
-27.9674
-23.4654
-18.9789
-14.5084
-10.0553
-5.61865
-1.19697
3.20997
7.59921
11.9698
16.3196
20.6499
24.9593
29.247
33.51
37.7463
41.9552
46.1349
50.2824
54.3962
58.4751
62.5167
66.5189
70.4793
74.3955
78.2647
82.084
85.8505
89.5618
93.2152
96.8072
100.334
103.792
107.183
110.505
113.752
116.912
119.984
122.986
125.939
128.824
131.578
134.141
136.546
138.953
141.454
144.118
146.513
148.429
149.581
149.94
150.436
151.445
153.206
156.503
159.874
161.818
161.482
157.937
147.274
126.262
135.359
160.431
179.964
188.588
157.178
136.125
206.734
206.559
132.401
153.301
185.34
175.512
153.12
127.468
118.782
141.358
153.109
157.22
157.868
156.08
152.774
149.528
147.847
146.931
146.521
146.227
145.095
143.154
140.708
137.984
135.426
132.966
130.516
127.915
125.136
122.241
119.296
116.317
113.284
110.173
106.983
103.721
100.39
96.988
93.5129
89.9664
86.3527
82.6767
78.9431
75.1572
71.3249
67.451
63.5419
59.6004
55.6321
51.6375
47.6185
43.5758
39.5098
35.4218
31.3116
27.1775
23.0172
18.8314
14.6215
10.3856
6.12414
1.83512
-2.47804
-6.81499
-11.1751
-15.5595
-19.9684
-24.3999
-28.8526
-33.3277
-37.8252
-42.3453
-46.8882
-51.4546
-56.0461
-60.6653
-65.3131
-69.9883
-74.6955
-79.4381
-84.2161
-89.0308
-93.8882
-98.7876
-103.732
-108.723
-113.764
-118.856
-124.002
-129.201
-134.456
-139.769
-145.136
-150.559
-156.039
-161.575
-167.164
-172.803
-178.49
-184.226
-189.999
-195.809
-201.65
-207.513
-213.396
-219.286
-225.177
-231.057
-236.916
-242.745
-248.53
-254.257
-259.911
-265.476
-270.939
-276.285
-281.49
-286.541
-291.417
-296.091
-300.539
-304.748
-308.684
-312.305
-315.601
-318.528
-321.027
-323.057
-324.575
-325.538
-325.81
-325.355
-324.13
-321.843
-318.323
-313.422
-306.813
-297.829
-285.851
-270.195
-250.122
-224.687
-192.058
-148.763
-89.7956
-5.90558
123.997
291.58
523.578
739.099
819.197
734.081
514.587
281.241
114.72
-15.1439
-97.6917
-155.413
-197.885
-230.522
-256.584
-277.111
-292.788
-304.369
-312.878
-319.124
-323.667
-326.922
-329.039
-330.055
-330.249
-329.742
-328.558
-326.822
-324.613
-321.946
-318.85
-315.393
-311.615
-307.529
-303.182
-298.605
-293.801
-288.798
-283.628
-278.309
-272.851
-267.281
-261.611
-255.856
-250.03
-244.149
-238.227
-232.277
-226.309
-220.333
-214.359
-208.396
-202.453
-196.534
-190.649
-184.803
-178.996
-173.241
-167.534
-161.879
-156.279
-150.737
-145.253
-139.828
-134.458
-129.148
-123.896
-118.698
-113.556
-108.467
-103.431
-98.4426
-93.5019
-88.6043
-83.7521
-78.9372
-74.1603
-69.4193
-64.7123
-60.0319
-55.3819
-50.7578
-46.1592
-41.5813
-37.0243
-32.4865
-27.9673
-23.4652
-18.9787
-14.5082
-10.0552
-5.61847
-1.19677
3.21018
7.59943
11.9701
16.3199
20.6502
24.9596
29.2473
33.5102
37.7466
41.9555
46.1352
50.2827
54.3966
58.4755
62.517
66.5192
70.4797
74.3958
78.2651
82.0844
85.8509
89.5622
93.2156
96.8076
100.334
103.792
107.183
110.506
113.752
116.913
119.984
122.986
125.939
128.824
131.578
134.141
136.546
138.954
141.455
144.119
146.514
148.429
149.581
149.941
150.438
151.447
153.209
156.504
159.872
161.813
161.473
157.923
147.279
126.381
135.53
160.514
179.947
188.528
157.408
136.557
206.407
206.13
132.878
153.665
185.259
175.502
153.221
127.717
118.986
141.378
153.09
157.206
157.86
156.077
152.775
149.532
147.851
146.933
146.523
146.226
145.094
143.154
140.708
137.985
135.427
132.967
130.516
127.915
125.137
122.241
119.296
116.318
113.285
110.174
106.984
103.722
100.391
96.9885
93.5134
89.9669
86.3532
82.6772
78.9436
75.1576
71.3254
67.4515
63.5424
59.6009
55.6325
51.6379
47.6189
43.5762
39.5102
35.4222
31.312
27.1778
23.0175
18.8318
14.6218
10.3859
6.12443
1.83542
-2.47776
-6.81472
-11.1748
-15.5592
-19.9682
-24.3997
-28.8524
-33.3275
-37.825
-42.3452
-46.888
-51.4545
-56.046
-60.6651
-65.313
-69.9882
-74.6953
-79.438
-84.216
-89.0307
-93.8881
-98.7875
-103.732
-108.723
-113.764
-118.856
-124.002
-129.201
-134.456
-139.769
-145.136
-150.559
-156.038
-161.574
-167.164
-172.803
-178.489
-184.225
-189.998
-195.808
-201.65
-207.513
-213.395
-219.286
-225.176
-231.056
-236.916
-242.744
-248.53
-254.257
-259.911
-265.476
-270.938
-276.284
-281.489
-286.54
-291.416
-296.091
-300.538
-304.747
-308.683
-312.304
-315.6
-318.527
-321.026
-323.056
-324.574
-325.536
-325.808
-325.353
-324.127
-321.84
-318.321
-313.419
-306.809
-297.825
-285.846
-270.189
-250.114
-224.678
-192.046
-148.748
-89.774
-5.8726
124.047
291.654
523.639
739.098
819.168
734.082
514.65
281.317
114.771
-15.1106
-97.6699
-155.397
-197.873
-230.513
-256.577
-277.106
-292.784
-304.365
-312.875
-319.122
-323.665
-326.92
-329.037
-330.053
-330.248
-329.741
-328.557
-326.821
-324.612
-321.945
-318.849
-315.392
-311.614
-307.529
-303.181
-298.604
-293.8
-288.797
-283.627
-278.308
-272.851
-267.28
-261.611
-255.856
-250.03
-244.148
-238.226
-232.276
-226.309
-220.333
-214.359
-208.395
-202.453
-196.534
-190.649
-184.803
-178.996
-173.241
-167.534
-161.879
-156.279
-150.737
-145.253
-139.827
-134.458
-129.148
-123.896
-118.698
-113.556
-108.467
-103.431
-98.4425
-93.5018
-88.6042
-83.752
-78.937
-74.1602
-69.4191
-64.7121
-60.0318
-55.3818
-50.7577
-46.159
-41.5811
-37.0241
-32.4864
-27.9671
-23.465
-18.9785
-14.508
-10.0549
-5.61823
-1.19654
3.21043
7.59968
11.9703
16.3201
20.6504
24.9599
29.2476
33.5105
37.7469
41.9559
46.1355
50.2831
54.3969
58.4758
62.5174
66.5196
70.4801
74.3962
78.2655
82.0848
85.8513
89.5626
93.216
96.8081
100.335
103.793
107.184
110.506
113.752
116.913
119.985
122.987
125.94
128.825
131.579
134.142
136.547
138.955
141.456
144.119
146.514
148.428
149.581
149.942
150.44
151.451
153.213
156.505
159.869
161.805
161.459
157.904
147.297
126.571
135.766
160.605
179.937
188.45
157.741
137.042
206.005
205.56
133.31
154.19
185.226
175.486
153.323
128.063
119.294
141.417
153.063
157.185
157.847
156.072
152.777
149.539
147.857
146.938
146.525
146.226
145.093
143.153
140.708
137.986
135.428
132.968
130.517
127.916
125.137
122.242
119.297
116.319
113.286
110.174
106.985
103.722
100.391
96.9891
93.514
89.9675
86.3538
82.6777
78.9442
75.1582
71.3259
67.452
63.5429
59.6014
55.633
51.6384
47.6194
43.5767
39.5106
35.4226
31.3124
27.1782
23.0179
18.8322
14.6222
10.3863
6.12481
1.83578
-2.47741
-6.81438
-11.1745
-15.5589
-19.9679
-24.3994
-28.8521
-33.3272
-37.8247
-42.3449
-46.8878
-51.4542
-56.0457
-60.6649
-65.3128
-69.988
-74.6951
-79.4378
-84.2158
-89.0305
-93.8879
-98.7873
-103.732
-108.722
-113.763
-118.856
-124.002
-129.201
-134.455
-139.768
-145.136
-150.559
-156.038
-161.574
-167.164
-172.802
-178.489
-184.225
-189.998
-195.808
-201.649
-207.513
-213.395
-219.285
-225.176
-231.055
-236.915
-242.744
-248.529
-254.256
-259.91
-265.475
-270.937
-276.283
-281.488
-286.539
-291.415
-296.089
-300.536
-304.746
-308.682
-312.303
-315.598
-318.525
-321.024
-323.053
-324.571
-325.533
-325.805
-325.35
-324.124
-321.836
-318.316
-313.414
-306.803
-297.818
-285.837
-270.178
-250.101
-224.661
-192.025
-148.721
-89.7367
-5.81777
124.129
291.772
523.735
739.107
819.135
734.093
514.75
281.437
114.854
-15.0553
-97.6323
-155.37
-197.852
-230.496
-256.565
-277.096
-292.777
-304.359
-312.87
-319.117
-323.661
-326.917
-329.033
-330.05
-330.245
-329.738
-328.555
-326.818
-324.61
-321.943
-318.848
-315.39
-311.613
-307.527
-303.18
-298.603
-293.799
-288.796
-283.626
-278.307
-272.85
-267.279
-261.61
-255.855
-250.029
-244.148
-238.226
-232.276
-226.308
-220.332
-214.358
-208.395
-202.452
-196.533
-190.649
-184.803
-178.996
-173.24
-167.534
-161.878
-156.278
-150.736
-145.253
-139.827
-134.457
-129.148
-123.896
-118.698
-113.556
-108.467
-103.431
-98.4423
-93.5016
-88.6039
-83.7518
-78.9368
-74.1599
-69.4189
-64.7119
-60.0316
-55.3815
-50.7574
-46.1588
-41.5809
-37.0238
-32.4861
-27.9668
-23.4647
-18.9782
-14.5077
-10.0547
-5.61793
-1.19623
3.21074
7.60001
11.9707
16.3205
20.6508
24.9602
29.248
33.5109
37.7473
41.9563
46.1359
50.2835
54.3973
58.4763
62.5178
66.52
70.4805
74.3967
78.266
82.0853
85.8519
89.5631
93.2166
96.8086
100.335
103.793
107.184
110.507
113.753
116.914
119.985
122.988
125.94
128.825
131.579
134.143
136.548
138.956
141.457
144.119
146.513
148.427
149.58
149.944
150.444
151.457
153.219
156.506
159.864
161.793
161.439
157.879
147.332
126.858
136.091
160.696
179.922
188.405
158.228
137.489
205.479
204.745
133.641
154.847
185.277
175.459
153.442
128.539
119.735
141.482
153.027
157.154
157.828
156.063
152.78
149.55
147.867
146.944
146.528
146.225
145.092
143.153
140.708
137.987
135.43
132.969
130.518
127.917
125.138
122.243
119.298
116.32
113.287
110.175
106.985
103.723
100.392
96.9899
93.5148
89.9682
86.3545
82.6784
78.9448
75.1589
71.3266
67.4527
63.5435
59.602
55.6336
51.639
47.62
43.5773
39.5112
35.4232
31.313
27.1788
23.0185
18.8327
14.6227
10.3868
6.1253
1.83626
-2.47694
-6.81392
-11.174
-15.5585
-19.9674
-24.399
-28.8517
-33.3268
-37.8243
-42.3445
-46.8874
-51.4539
-56.0454
-60.6646
-65.3124
-69.9876
-74.6948
-79.4374
-84.2155
-89.0301
-93.8875
-98.7869
-103.731
-108.722
-113.763
-118.856
-124.002
-129.2
-134.455
-139.768
-145.135
-150.558
-156.038
-161.573
-167.163
-172.802
-178.488
-184.224
-189.997
-195.807
-201.649
-207.512
-213.394
-219.284
-225.175
-231.054
-236.914
-242.742
-248.527
-254.255
-259.908
-265.473
-270.935
-276.281
-281.486
-286.537
-291.413
-296.087
-300.534
-304.743
-308.679
-312.3
-315.595
-318.521
-321.02
-323.049
-324.567
-325.529
-325.8
-325.345
-324.118
-321.83
-318.308
-313.406
-306.794
-297.806
-285.823
-270.161
-250.079
-224.634
-191.991
-148.677
-89.6769
-5.73105
124.256
291.949
523.867
739.129
819.099
734.119
514.89
281.619
114.983
-14.9677
-97.5722
-155.326
-197.818
-230.47
-256.544
-277.081
-292.765
-304.349
-312.861
-319.11
-323.654
-326.911
-329.028
-330.045
-330.241
-329.734
-328.551
-326.815
-324.607
-321.94
-318.845
-315.387
-311.61
-307.525
-303.178
-298.6
-293.797
-288.794
-283.624
-278.305
-272.848
-267.278
-261.608
-255.853
-250.027
-244.146
-238.224
-232.275
-226.307
-220.331
-214.357
-208.394
-202.451
-196.533
-190.648
-184.802
-178.995
-173.24
-167.533
-161.878
-156.278
-150.736
-145.252
-139.827
-134.457
-129.147
-123.895
-118.698
-113.555
-108.466
-103.43
-98.4419
-93.5012
-88.6036
-83.7514
-78.9364
-74.1595
-69.4185
-64.7115
-60.0312
-55.3811
-50.757
-46.1584
-41.5805
-37.0234
-32.4857
-27.9664
-23.4643
-18.9778
-14.5073
-10.0542
-5.61749
-1.19578
3.21119
7.60046
11.9711
16.321
20.6513
24.9607
29.2485
33.5114
37.7478
41.9568
46.1364
50.284
54.3979
58.4768
62.5184
66.5206
70.4811
74.3973
78.2666
82.0859
85.8525
89.5638
93.2172
96.8092
100.336
103.794
107.185
110.507
113.754
116.915
119.986
122.988
125.941
128.826
131.58
134.143
136.549
138.957
141.458
144.119
146.512
148.425
149.58
149.946
150.45
151.466
153.229
156.509
159.856
161.775
161.41
157.845
147.391
127.268
136.536
160.8
179.895
188.438
158.859
137.831
204.72
203.568
133.861
155.547
185.431
175.442
153.625
129.167
120.336
141.578
152.979
157.111
157.801
156.052
152.784
149.566
147.882
146.954
146.532
146.224
145.089
143.151
140.709
137.989
135.431
132.97
130.519
127.917
125.139
122.244
119.299
116.321
113.287
110.176
106.986
103.724
100.393
96.9908
93.5157
89.9691
86.3554
82.6793
78.9457
75.1597
71.3275
67.4535
63.5444
59.6029
55.6345
51.6398
47.6208
43.5781
39.512
35.424
31.3137
27.1795
23.0192
18.8334
14.6234
10.3875
6.12599
1.83694
-2.47628
-6.81327
-11.1734
-15.5579
-19.9668
-24.3984
-28.8511
-33.3262
-37.8237
-42.344
-46.8868
-51.4533
-56.0448
-60.664
-65.3119
-69.987
-74.6942
-79.4369
-84.2149
-89.0295
-93.8869
-98.7863
-103.731
-108.721
-113.762
-118.855
-124.001
-129.2
-134.454
-139.767
-145.134
-150.557
-156.037
-161.572
-167.162
-172.801
-178.487
-184.223
-189.996
-195.806
-201.647
-207.51
-213.392
-219.283
-225.173
-231.053
-236.912
-242.74
-248.525
-254.253
-259.906
-265.471
-270.933
-276.279
-281.483
-286.534
-291.41
-296.084
-300.53
-304.74
-308.675
-312.295
-315.59
-318.516
-321.015
-323.044
-324.561
-325.522
-325.793
-325.336
-324.109
-321.82
-318.297
-313.393
-306.779
-297.789
-285.802
-270.134
-250.046
-224.593
-191.939
-148.61
-89.5862
-5.60149
124.444
292.196
524.048
739.166
819.059
734.163
515.08
281.874
115.173
-14.8369
-97.4808
-155.259
-197.767
-230.43
-256.514
-277.058
-292.746
-304.334
-312.848
-319.098
-323.644
-326.902
-329.02
-330.038
-330.234
-329.728
-328.545
-326.809
-324.602
-321.935
-318.84
-315.383
-311.606
-307.521
-303.174
-298.597
-293.794
-288.791
-283.621
-278.303
-272.846
-267.275
-261.606
-255.851
-250.025
-244.145
-238.223
-232.273
-226.305
-220.33
-214.356
-208.392
-202.45
-196.531
-190.647
-184.801
-178.994
-173.238
-167.532
-161.877
-156.277
-150.735
-145.252
-139.826
-134.456
-129.147
-123.894
-118.697
-113.554
-108.466
-103.43
-98.4412
-93.5005
-88.6029
-83.7507
-78.9358
-74.1589
-69.4179
-64.7109
-60.0306
-55.3805
-50.7564
-46.1578
-41.5799
-37.0228
-32.4851
-27.9658
-23.4637
-18.9772
-14.5066
-10.0536
-5.61685
-1.19513
3.21185
7.60113
11.9718
16.3216
20.652
24.9614
29.2492
33.5121
37.7485
41.9575
46.1372
50.2848
54.3986
58.4776
62.5192
66.5214
70.4819
74.3981
78.2674
82.0867
85.8533
89.5646
93.218
96.8101
100.337
103.795
107.186
110.508
113.755
116.915
119.987
122.989
125.942
128.827
131.58
134.144
136.55
138.959
141.459
144.119
146.511
148.423
149.578
149.95
150.459
151.479
153.244
156.512
159.845
161.749
161.369
157.8
147.479
127.826
137.124
160.956
179.874
188.576
159.562
138.067
203.612
201.922
133.917
156.275
185.736
175.515
153.977
129.956
121.114
141.712
152.92
157.054
157.764
156.036
152.79
149.589
147.903
146.968
146.538
146.223
145.085
143.149
140.709
137.991
135.434
132.972
130.52
127.918
125.14
122.245
119.3
116.322
113.289
110.177
106.987
103.725
100.394
96.992
93.5169
89.9703
86.3565
82.6805
78.9469
75.1609
71.3286
67.4547
63.5455
59.604
55.6356
51.6409
47.6219
43.5792
39.5131
35.425
31.3148
27.1806
23.0202
18.8344
14.6244
10.3885
6.12694
1.83789
-2.47535
-6.81236
-11.1725
-15.557
-19.9659
-24.3975
-28.8502
-33.3254
-37.8229
-42.3431
-46.886
-51.4524
-56.044
-60.6632
-65.311
-69.9862
-74.6933
-79.436
-84.214
-89.0286
-93.886
-98.7853
-103.73
-108.72
-113.761
-118.854
-124
-129.199
-134.453
-139.766
-145.133
-150.556
-156.035
-161.571
-167.16
-172.799
-178.485
-184.221
-189.994
-195.804
-201.645
-207.508
-213.39
-219.281
-225.171
-231.05
-236.909
-242.738
-248.522
-254.249
-259.903
-265.467
-270.929
-276.275
-281.479
-286.53
-291.405
-296.079
-300.525
-304.734
-308.669
-312.289
-315.583
-318.509
-321.007
-323.035
-324.552
-325.512
-325.782
-325.325
-324.096
-321.805
-318.281
-313.375
-306.758
-297.765
-285.772
-270.097
-249.999
-224.534
-191.865
-148.514
-89.4557
-5.41551
124.708
292.519
524.332
739.223
819.013
734.228
515.368
282.207
115.441
-14.6491
-97.3495
-155.163
-197.693
-230.372
-256.469
-277.024
-292.721
-304.313
-312.83
-319.082
-323.63
-326.889
-329.008
-330.027
-330.224
-329.719
-328.537
-326.802
-324.594
-321.928
-318.834
-315.377
-311.601
-307.516
-303.169
-298.592
-293.789
-288.787
-283.617
-278.299
-272.842
-267.272
-261.603
-255.848
-250.023
-244.142
-238.22
-232.27
-226.303
-220.327
-214.354
-208.39
-202.448
-196.529
-190.645
-184.799
-178.992
-173.237
-167.531
-161.875
-156.275
-150.734
-145.25
-139.825
-134.455
-129.146
-123.893
-118.696
-113.553
-108.465
-103.429
-98.4402
-93.4995
-88.6019
-83.7498
-78.9349
-74.158
-69.417
-64.71
-60.0297
-55.3796
-50.7555
-46.1569
-41.579
-37.0219
-32.4842
-27.9649
-23.4628
-18.9763
-14.5057
-10.0527
-5.61592
-1.19419
3.2128
7.60208
11.9728
16.3226
20.6529
24.9624
29.2501
33.5131
37.7495
41.9585
46.1382
50.2858
54.3997
58.4786
62.5202
66.5224
70.483
74.3991
78.2684
82.0878
85.8544
89.5657
93.2191
96.8112
100.338
103.796
107.187
110.509
113.756
116.917
119.988
122.99
125.943
128.827
131.581
134.145
136.552
138.961
141.461
144.119
146.508
148.419
149.576
149.956
150.472
151.499
153.265
156.518
159.829
161.714
161.315
157.742
147.601
128.549
137.862
161.257
179.933
188.864
160.293
138.158
202.048
199.712
133.739
157.046
186.213
175.758
154.61
130.903
122.088
141.89
152.849
156.984
157.716
156.015
152.799
149.62
147.931
146.987
146.547
146.221
145.08
143.146
140.708
137.994
135.437
132.975
130.521
127.919
125.141
122.246
119.302
116.323
113.29
110.179
106.989
103.727
100.396
96.9935
93.5184
89.9718
86.358
82.682
78.9484
75.1624
71.3301
67.4561
63.547
59.6054
55.637
51.6423
47.6233
43.5806
39.5145
35.4264
31.3161
27.1819
23.0216
18.8358
14.6258
10.3898
6.12824
1.83917
-2.47408
-6.81109
-11.1712
-15.5557
-19.9647
-24.3963
-28.849
-33.3241
-37.8217
-42.3419
-46.8848
-51.4512
-56.0427
-60.6619
-65.3098
-69.9849
-74.6921
-79.4347
-84.2127
-89.0273
-93.8846
-98.784
-103.728
-108.719
-113.76
-118.852
-123.998
-129.197
-134.451
-139.764
-145.131
-150.554
-156.033
-161.569
-167.158
-172.797
-178.483
-184.219
-189.992
-195.801
-201.643
-207.505
-213.387
-219.277
-225.167
-231.047
-236.906
-242.734
-248.518
-254.245
-259.898
-265.463
-270.924
-276.269
-281.474
-286.524
-291.399
-296.072
-300.518
-304.727
-308.661
-312.281
-315.574
-318.5
-320.997
-323.024
-324.54
-325.499
-325.768
-325.31
-324.079
-321.787
-318.26
-313.351
-306.731
-297.732
-285.732
-270.046
-249.935
-224.453
-191.763
-148.382
-89.2755
-5.15948
125.07
292.943
524.743
739.301
818.959
734.317
515.792
282.638
115.806
-14.3907
-97.1682
-155.031
-197.591
-230.294
-256.409
-276.979
-292.686
-304.285
-312.806
-319.061
-323.611
-326.872
-328.993
-330.013
-330.211
-329.706
-328.525
-326.791
-324.585
-321.919
-318.825
-315.369
-311.593
-307.509
-303.162
-298.586
-293.783
-288.782
-283.612
-278.294
-272.837
-267.267
-261.599
-255.844
-250.019
-244.138
-238.216
-232.267
-226.3
-220.324
-214.351
-208.387
-202.445
-196.527
-190.642
-184.797
-178.99
-173.235
-167.529
-161.873
-156.273
-150.732
-145.248
-139.823
-134.453
-129.144
-123.892
-118.694
-113.552
-108.463
-103.427
-98.4388
-93.4981
-88.6006
-83.7484
-78.9335
-74.1567
-69.4157
-64.7087
-60.0284
-55.3784
-50.7543
-46.1556
-41.5777
-37.0207
-32.4829
-27.9636
-23.4615
-18.975
-14.5044
-10.0514
-5.61462
-1.19289
3.21411
7.60339
11.9741
16.3239
20.6543
24.9638
29.2515
33.5145
37.7509
41.9599
46.1396
50.2872
54.401
58.48
62.5216
66.5238
70.4844
74.4005
78.2698
82.0892
85.8558
89.5671
93.2205
96.8125
100.339
103.797
107.188
110.511
113.757
116.918
119.989
122.992
125.944
128.829
131.582
134.146
136.554
138.964
141.463
144.118
146.505
148.413
149.574
149.964
150.489
151.525
153.293
156.525
159.809
161.668
161.247
157.674
147.763
129.453
138.749
161.812
180.146
189.328
161.064
138.031
199.942
196.909
133.262
157.782
186.803
176.114
155.561
131.993
123.276
142.108
152.772
156.899
157.656
155.989
152.81
149.66
147.968
147.012
146.559
146.218
145.073
143.141
140.708
137.998
135.441
132.978
130.523
127.921
125.143
122.248
119.304
116.325
113.292
110.18
106.991
103.729
100.398
96.9954
93.5202
89.9737
86.3599
82.6839
78.9503
75.1643
71.332
67.458
63.5489
59.6073
55.6389
51.6442
47.6252
43.5824
39.5163
35.4283
31.3179
27.1837
23.0233
18.8375
14.6275
10.3915
6.12995
1.84086
-2.47239
-6.80942
-11.1696
-15.5541
-19.9631
-24.3947
-28.8474
-33.3225
-37.8201
-42.3403
-46.8832
-51.4496
-56.0411
-60.6603
-65.3081
-69.9832
-74.6904
-79.433
-84.2109
-89.0255
-93.8828
-98.7821
-103.727
-108.717
-113.758
-118.85
-123.996
-129.195
-134.449
-139.762
-145.129
-150.552
-156.031
-161.566
-167.156
-172.794
-178.48
-184.216
-189.989
-195.798
-201.639
-207.502
-213.383
-219.273
-225.163
-231.042
-236.901
-242.729
-248.513
-254.24
-259.892
-265.457
-270.918
-276.263
-281.466
-286.516
-291.391
-296.064
-300.509
-304.717
-308.651
-312.27
-315.563
-318.487
-320.984
-323.01
-324.525
-325.483
-325.75
-325.29
-324.057
-321.762
-318.233
-313.321
-306.695
-297.689
-285.679
-269.979
-249.851
-224.348
-191.629
-148.206
-89.0348
-4.8173
125.55
293.504
525.244