/*--------------------------------*- C++ -*----------------------------------*\
| =========                 |                                                 |
| \\      /  F ield         | OpenFOAM: The Open Source CFD Toolbox           |
|  \\    /   O peration     | Version:  2412                                  |
|   \\  /    A nd           | Website:  www.openfoam.com                      |
|    \\/     M anipulation  |                                                 |
\*---------------------------------------------------------------------------*/
FoamFile
{
    version     2.0;
    format      ascii;
    arch        "LSB;label=32;scalar=64";
    class       volScalarField;
    location    "60";
    object      p;
}
// * * * * * * * * * * * * * * * * * * * * * * * * * * * * * * * * * * * * * //

dimensions      [0 2 -2 0 0 0 0];

internalField   nonuniform List<scalar> 
32591
(
216.198
173.986
178.901
207.826
183.801
157.961
161.668
140.623
144.618
161.212
166.018
167.52
165.995
162.704
158.365
155.212
153.352
152.188
151.43
150.146
147.893
145.1
141.977
139.033
136.219
133.448
130.508
127.405
124.204
120.978
117.714
114.387
110.977
107.49
103.932
100.302
96.597
92.8168
88.9671
85.0529
81.0805
77.0569
72.9897
68.887
64.7563
60.6041
56.4378
52.2581
48.0717
43.8791
39.6807
35.4771
31.2678
27.0541
22.8299
18.5959
14.3503
10.0912
5.81711
1.52345
-2.78823
-7.11795
-11.4672
-15.8385
-20.2336
-24.6509
-29.0921
-33.5547
-38.0448
-42.5578
-47.0997
-51.6662
-56.265
-60.881
-65.5381
-70.2304
-74.9408
-79.6979
-84.4911
-89.3234
-94.1989
-99.1185
-104.083
-109.095
-114.158
-119.273
-124.442
-129.663
-134.941
-140.276
-145.665
-151.11
-156.613
-162.171
-167.783
-173.442
-179.151
-184.908
-190.703
-196.533
-202.394
-208.275
-214.176
-220.083
-225.989
-231.883
-237.755
-243.593
-249.383
-255.112
-260.764
-266.327
-271.786
-277.126
-282.323
-287.361
-292.218
-296.877
-301.311
-305.493
-309.401
-312.99
-316.264
-319.185
-321.671
-323.702
-325.209
-326.154
-326.502
-326.093
-324.822
-322.692
-319.454
-314.878
-308.667
-300.338
-289.228
-274.47
-255.314
-231.578
-201.86
-164.171
-114.683
-45.8495
53.9651
181.944
362.168
577.399
756.393
819.196
750.852
567.154
349.819
169.914
41.3784
-56.8884
-124.581
-172.853
-209.637
-238.844
-262.953
-282.522
-297.355
-307.988
-315.768
-321.623
-325.987
-329.044
-330.948
-331.994
-332.191
-331.615
-330.407
-328.665
-326.444
-323.766
-320.651
-317.197
-313.438
-309.367
-305.031
-300.451
-295.653
-290.661
-285.491
-280.171
-274.71
-269.137
-263.462
-257.704
-251.871
-245.983
-240.049
-234.087
-228.104
-222.114
-216.123
-210.144
-204.185
-198.251
-192.348
-186.487
-180.661
-174.887
-169.159
-163.483
-157.859
-152.293
-146.782
-141.331
-135.932
-130.595
-125.313
-120.086
-114.914
-109.797
-104.732
-99.7166
-94.7481
-89.8253
-84.9469
-80.1187
-75.3184
-70.5441
-65.8132
-61.1111
-56.4397
-51.7939
-47.1747
-42.5756
-37.9993
-33.4409
-28.9027
-24.3809
-19.8747
-15.3839
-10.9102
-6.45195
-2.00735
2.42406
6.84026
11.2407
15.6242
19.992
24.3442
28.6775
32.9945
37.2914
41.5685
45.8245
50.0574
54.2669
58.451
62.6064
66.7351
70.8287
74.8897
78.9111
82.8895
86.8205
90.7
94.5226
98.281
101.971
105.587
109.126
112.584
115.945
119.197
122.352
125.429
128.434
131.292
133.937
136.363
138.762
141.239
143.865
146.117
147.789
148.452
148.538
148.962
149.987
152.182
155.45
157.581
157.833
154.865
148.29
129.325
122.295
142.631
146.621
174.791
198.933
166.672
155.666
213.35
215.944
174.196
179.091
207.706
183.763
158.091
161.733
140.735
144.652
161.198
166.007
167.515
165.993
162.704
158.367
155.214
153.353
152.188
151.43
150.146
147.893
145.1
141.977
139.033
136.219
133.448
130.508
127.406
124.204
120.978
117.714
114.387
110.977
107.49
103.932
100.302
96.597
92.8169
88.9671
85.0529
81.0806
77.0569
72.9898
68.8871
64.7564
60.6041
56.4379
52.2582
48.0718
43.8791
39.6807
35.4771
31.2678
27.0541
22.8299
18.5959
14.3503
10.0912
5.8171
1.52343
-2.78824
-7.11796
-11.4672
-15.8385
-20.2336
-24.651
-29.0921
-33.5548
-38.0449
-42.5579
-47.0998
-51.6662
-56.2649
-60.8809
-65.5381
-70.2301
-74.9407
-79.6979
-84.4911
-89.3233
-94.1988
-99.1184
-104.083
-109.095
-114.158
-119.273
-124.442
-129.663
-134.941
-140.276
-145.665
-151.11
-156.613
-162.171
-167.783
-173.442
-179.151
-184.908
-190.703
-196.533
-202.394
-208.275
-214.176
-220.083
-225.989
-231.883
-237.755
-243.593
-249.383
-255.112
-260.764
-266.326
-271.786
-277.126
-282.322
-287.361
-292.218
-296.876
-301.311
-305.493
-309.401
-312.99
-316.264
-319.185
-321.671
-323.702
-325.209
-326.154
-326.501
-326.093
-324.822
-322.692
-319.454
-314.877
-308.667
-300.337
-289.227
-274.469
-255.313
-231.576
-201.858
-164.169
-114.68
-45.8447
53.9717
181.956
362.178
577.395
756.366
819.166
750.825
567.15
349.83
169.925
41.3854
-56.8838
-124.578
-172.851
-209.634
-238.842
-262.951
-282.521
-297.354
-307.987
-315.768
-321.622
-325.987
-329.044
-330.948
-331.994
-332.191
-331.615
-330.406
-328.664
-326.444
-323.766
-320.651
-317.197
-313.437
-309.367
-305.031
-300.451
-295.653
-290.661
-285.491
-280.171
-274.71
-269.136
-263.462
-257.704
-251.871
-245.983
-240.049
-234.087
-228.104
-222.114
-216.122
-210.144
-204.185
-198.251
-192.348
-186.487
-180.661
-174.887
-169.159
-163.483
-157.859
-152.293
-146.782
-141.331
-135.932
-130.595
-125.313
-120.086
-114.914
-109.797
-104.732
-99.7165
-94.748
-89.8252
-84.9468
-80.1185
-75.3183
-70.5441
-65.8132
-61.1112
-56.4397
-51.794
-47.1747
-42.5757
-37.9994
-33.441
-28.9027
-24.381
-19.8747
-15.384
-10.9102
-6.45199
-2.00739
2.42402
6.84024
11.2407
15.6242
19.992
24.3441
28.6775
32.9945
37.2914
41.5685
45.8245
50.0574
54.2669
58.451
62.6064
66.7351
70.8287
74.8897
78.9111
82.8895
86.8205
90.7
94.5227
98.281
101.971
105.587
109.126
112.584
115.945
119.197
122.352
125.429
128.434
131.292
133.937
136.363
138.762
141.239
143.865
146.117
147.789
148.452
148.538
148.963
149.989
152.184
155.45
157.578
157.827
154.852
148.273
129.356
122.409
142.708
146.725
174.753
198.813
166.89
155.981
213.068
215.618
174.482
179.39
207.592
183.718
158.197
161.841
140.915
144.729
161.188
165.991
167.506
165.989
162.703
158.37
155.217
153.355
152.189
151.43
150.145
147.893
145.1
141.976
139.032
136.22
133.448
130.508
127.406
124.205
120.978
117.714
114.387
110.977
107.49
103.932
100.302
96.5972
92.8171
88.9673
85.0531
81.0807
77.0571
72.9899
68.8872
64.7565
60.6043
56.438
52.2583
48.0719
43.8792
39.6808
35.4772
31.2679
27.0542
22.83
18.596
14.3504
10.0913
5.81717
1.52351
-2.78817
-7.1179
-11.4672
-15.8385
-20.2336
-24.6509
-29.0921
-33.5547
-38.0448
-42.5579
-47.0997
-51.6662
-56.2647
-60.8808
-65.5381
-70.2298
-74.9406
-79.6977
-84.491
-89.3232
-94.1987
-99.1183
-104.083
-109.095
-114.158
-119.273
-124.442
-129.663
-134.941
-140.275
-145.665
-151.11
-156.613
-162.171
-167.783
-173.442
-179.15
-184.908
-190.703
-196.532
-202.393
-208.275
-214.176
-220.083
-225.989
-231.883
-237.755
-243.593
-249.383
-255.111
-260.764
-266.326
-271.785
-277.125
-282.322
-287.36
-292.218
-296.876
-301.311
-305.492
-309.4
-312.99
-316.263
-319.184
-321.67
-323.701
-325.208
-326.153
-326.5
-326.092
-324.82
-322.69
-319.452
-314.876
-308.666
-300.335
-289.224
-274.465
-255.308
-231.57
-201.851
-164.159
-114.667
-45.8267
53.9971
181.996
362.227
577.421
756.347
819.13
750.807
567.179
349.88
169.966
41.4117
-56.8662
-124.566
-172.841
-209.626
-238.835
-262.946
-282.517
-297.351
-307.985
-315.767
-321.621
-325.985
-329.042
-330.946
-331.992
-332.19
-331.614
-330.406
-328.664
-326.444
-323.765
-320.65
-317.197
-313.437
-309.367
-305.031
-300.451
-295.652
-290.661
-285.491
-280.17
-274.71
-269.136
-263.462
-257.704
-251.871
-245.983
-240.049
-234.087
-228.104
-222.113
-216.122
-210.144
-204.185
-198.251
-192.348
-186.487
-180.661
-174.887
-169.159
-163.483
-157.858
-152.293
-146.782
-141.331
-135.932
-130.595
-125.313
-120.086
-114.914
-109.797
-104.732
-99.7164
-94.7479
-89.8251
-84.9467
-80.1181
-75.3181
-70.5441
-65.8132
-61.1111
-56.4397
-51.794
-47.1747
-42.5757
-37.9993
-33.4409
-28.9027
-24.3809
-19.8747
-15.3839
-10.9102
-6.45194
-2.00734
2.42408
6.84028
11.2407
15.6242
19.9921
24.3442
28.6776
32.9946
37.2914
41.5686
45.8246
50.0575
54.267
58.4511
62.6065
66.7352
70.8289
74.8898
78.9113
82.8897
86.8206
90.7001
94.5228
98.2812
101.972
105.587
109.127
112.584
115.946
119.197
122.352
125.429
128.434
131.292
133.938
136.364
138.762
141.24
143.865
146.116
147.788
148.452
148.539
148.965
149.992
152.186
155.449
157.573
157.817
154.835
148.259
129.43
122.592
142.821
146.801
174.706
198.694
167.267
156.385
212.698
215.13
174.7
179.749
207.479
183.662
158.244
161.96
141.194
144.88
161.187
165.97
167.491
165.981
162.702
158.374
155.223
153.36
152.191
151.43
150.144
147.892
145.099
141.975
139.032
136.22
133.448
130.509
127.406
124.205
120.979
117.715
114.387
110.978
107.49
103.932
100.303
96.5976
92.8174
88.9676
85.0534
81.0811
77.0574
72.9902
68.8875
64.7568
60.6046
56.4383
52.2586
48.0721
43.8795
39.6811
35.4774
31.2681
27.0544
22.8303
18.5963
14.3507
10.0915
5.8174
1.52373
-2.78795
-7.11769
-11.467
-15.8383
-20.2334
-24.6507
-29.0919
-33.5545
-38.0447
-42.5577
-47.0996
-51.666
-56.2641
-60.8806
-65.5379
-70.2292
-74.9404
-79.6976
-84.4908
-89.323
-94.1985
-99.1181
-104.083
-109.095
-114.157
-119.273
-124.441
-129.663
-134.94
-140.275
-145.665
-151.109
-156.612
-162.171
-167.783
-173.442
-179.15
-184.908
-190.702
-196.532
-202.393
-208.274
-214.175
-220.082
-225.988
-231.882
-237.754
-243.592
-249.382
-255.111
-260.763
-266.325
-271.784
-277.124
-282.321
-287.359
-292.217
-296.875
-301.309
-305.491
-309.398
-312.989
-316.262
-319.183
-321.668
-323.699
-325.206
-326.15
-326.497
-326.089
-324.817
-322.685
-319.447
-314.871
-308.661
-300.33
-289.216
-274.455
-255.296
-231.554
-201.832
-164.135
-114.635
-45.7832
54.0589
182.09
362.34
577.499
756.342
819.091
750.805
567.261
349.997
170.062
41.4753
-56.8231
-124.535
-172.816
-209.606
-238.82
-262.935
-282.508
-297.344
-307.98
-315.763
-321.616
-325.98
-329.038
-330.943
-331.99
-332.187
-331.611
-330.403
-328.662
-326.442
-323.763
-320.649
-317.196
-313.435
-309.365
-305.029
-300.45
-295.651
-290.66
-285.49
-280.169
-274.709
-269.135
-263.461
-257.703
-251.87
-245.982
-240.048
-234.087
-228.103
-222.113
-216.122
-210.143
-204.184
-198.25
-192.348
-186.486
-180.66
-174.887
-169.159
-163.483
-157.858
-152.293
-146.782
-141.331
-135.931
-130.594
-125.313
-120.086
-114.914
-109.796
-104.731
-99.7162
-94.7477
-89.8249
-84.9465
-80.1175
-75.3175
-70.5439
-65.813
-61.111
-56.4395
-51.7938
-47.1745
-42.5755
-37.9992
-33.4407
-28.9025
-24.3807
-19.8745
-15.3837
-10.91
-6.45176
-2.00714
2.42428
6.84048
11.2409
15.6244
19.9923
24.3444
28.6778
32.9948
37.2917
41.5688
45.8248
50.0577
54.2672
58.4513
62.6067
66.7355
70.8291
74.8901
78.9115
82.89
86.8209
90.7004
94.5231
98.2815
101.972
105.588
109.127
112.584
115.946
119.197
122.353
125.429
128.435
131.292
133.938
136.364
138.763
141.24
143.865
146.116
147.787
148.451
148.541
148.969
149.997
152.19
155.447
157.565
157.801
154.812
148.254
129.582
122.885
142.944
146.835
174.656
198.579
167.751
156.713
212.127
214.231
174.774
180.151
207.405
183.511
158.259
162.079
141.619
145.138
161.19
165.935
167.465
165.966
162.698
158.381
155.233
153.368
152.195
151.43
150.142
147.89
145.099
141.974
139.031
136.221
133.449
130.509
127.407
124.206
120.979
117.715
114.388
110.978
107.491
103.933
100.303
96.5982
92.818
88.9682
85.054
81.0816
77.0579
72.9908
68.8881
64.7573
60.6051
56.4388
52.2591
48.0727
43.88
39.6816
35.478
31.2686
27.0549
22.8308
18.5968
14.3511
10.092
5.81787
1.5242
-2.78749
-7.11723
-11.4665
-15.8378
-20.2329
-24.6503
-29.0915
-33.5541
-38.0442
-42.5573
-47.0992
-51.6656
-56.2631
-60.8803
-65.5375
-70.2284
-74.94
-79.6972
-84.4904
-89.3226
-94.1981
-99.1177
-104.082
-109.094
-114.157
-119.272
-124.441
-129.662
-134.94
-140.275
-145.664
-151.109
-156.612
-162.17
-167.782
-173.441
-179.149
-184.907
-190.702
-196.531
-202.392
-208.274
-214.174
-220.081
-225.987
-231.881
-237.753
-243.59
-249.381
-255.109
-260.761
-266.324
-271.782
-277.122
-282.319
-287.357
-292.214
-296.872
-301.307
-305.488
-309.395
-312.986
-316.26
-319.179
-321.664
-323.694
-325.201
-326.145
-326.492
-326.083
-324.81
-322.676
-319.437
-314.861
-308.651
-300.319
-289.201
-274.437
-255.272
-231.525
-201.795
-164.088
-114.573
-45.7001
54.1755
182.26
362.543
577.642
756.354
819.05
750.823
567.412
350.206
170.235
41.595
-56.74
-124.474
-172.767
-209.567
-238.791
-262.912
-282.491
-297.331
-307.97
-315.754
-321.608
-325.972
-329.029
-330.937
-331.984
-332.182
-331.607
-330.399
-328.658
-326.438
-323.76
-320.647
-317.193
-313.433
-309.363
-305.027
-300.447
-295.649
-290.657
-285.488
-280.167
-274.707
-269.134
-263.459
-257.702
-251.869
-245.981
-240.047
-234.085
-228.102
-222.112
-216.121
-210.142
-204.183
-198.249
-192.347
-186.486
-180.66
-174.886
-169.158
-163.482
-157.858
-152.292
-146.781
-141.33
-135.931
-130.594
-125.312
-120.085
-114.913
-109.796
-104.731
-99.7158
-94.7473
-89.8245
-84.9461
-80.1165
-75.3163
-70.5434
-65.8126
-61.1105
-56.4391
-51.7934
-47.1741
-42.5751
-37.9987
-33.4403
-28.9021
-24.3803
-19.8741
-15.3833
-10.9096
-6.45131
-2.0067
2.42473
6.84094
11.2414
15.6249
19.9928
24.3449
28.6783
32.9953
37.2921
41.5693
45.8253
50.0582
54.2677
58.4518
62.6072
66.736
70.8296
74.8906
78.9121
82.8905
86.8215
90.701
94.5237
98.282
101.972
105.588
109.127
112.585
115.946
119.198
122.353
125.43
128.435
131.293
133.938
136.365
138.764
141.241
143.865
146.114
147.785
148.451
148.545
148.976
150.008
152.198
155.444
157.551
157.775
154.776
148.254
129.842
123.341
143.09
146.839
174.554
198.52
168.279
156.883
211.058
212.673
174.671
180.552
207.482
183.245
158.246
162.225
142.225
145.519
161.194
165.88
167.423
165.942
162.693
158.394
155.252
153.381
152.202
151.43
150.139
147.888
145.097
141.972
139.03
136.223
133.45
130.51
127.408
124.207
120.98
117.716
114.389
110.979
107.492
103.934
100.304
96.5991
92.8189
88.9692
85.0549
81.0826
77.0589
72.9917
68.889
64.7582
60.606
56.4397
52.26
48.0735
43.8809
39.6824
35.4788
31.2695
27.0558
22.8316
18.5976
14.3519
10.0928
5.81867
1.525
-2.7867
-7.11645
-11.4657
-15.837
-20.2322
-24.6495
-29.0907
-33.5534
-38.0435
-42.5565
-47.0984
-51.6648
-56.2616
-60.8796
-65.5367
-70.2271
-74.9394
-79.6965
-84.4897
-89.322
-94.1975
-99.117
-104.081
-109.094
-114.156
-119.271
-124.44
-129.661
-134.939
-140.274
-145.663
-151.108
-156.611
-162.169
-167.781
-173.44
-179.148
-184.906
-190.7
-196.53
-202.39
-208.272
-214.173
-220.08
-225.985
-231.879
-237.75
-243.588
-249.378
-255.106
-260.758
-266.321
-271.779
-277.119
-282.315
-287.353
-292.21
-296.868
-301.302
-305.483
-309.39
-312.982
-316.255
-319.173
-321.657
-323.687
-325.193
-326.137
-326.483
-326.072
-324.799
-322.662
-319.422
-314.845
-308.634
-300.3
-289.176
-274.406
-255.234
-231.476
-201.733
-164.01
-114.471
-45.5634
54.3662
182.53
362.855
577.863
756.387
819.004
750.864
567.645
350.528
170.511
41.7902
-56.6023
-124.372
-172.686
-209.502
-238.742
-262.874
-282.462
-297.308
-307.954
-315.739
-321.593
-325.958
-329.016
-330.927
-331.975
-332.174
-331.599
-330.392
-328.651
-326.432
-323.754
-320.643
-317.189
-313.428
-309.358
-305.022
-300.443
-295.645
-290.654
-285.484
-280.164
-274.704
-269.131
-263.456
-257.699
-251.866
-245.978
-240.045
-234.083
-228.1
-222.11
-216.119
-210.141
-204.181
-198.248
-192.345
-186.484
-180.658
-174.885
-169.157
-163.481
-157.856
-152.291
-146.78
-141.329
-135.93
-130.593
-125.311
-120.084
-114.912
-109.795
-104.73
-99.715
-94.7466
-89.8237
-84.9454
-80.1152
-75.3146
-70.5426
-65.8118
-61.1097
-56.4383
-51.7926
-47.1733
-42.5743
-37.9979
-33.4395
-28.9013
-24.3795
-19.8733
-15.3825
-10.9088
-6.45052
-2.0059
2.42552
6.84174
11.2422
15.6257
19.9936
24.3457
28.6791
32.9961
37.293
41.5702
45.8261
50.059
54.2686
58.4527
62.6081
66.7369
70.8305
74.8915
78.9129
82.8914
86.8224
90.7019
94.5246
98.2829
101.973
105.589
109.128
112.586
115.947
119.199
122.354
125.431
128.436
131.293
133.939
136.366
138.766
141.243
143.864
146.112
147.781
148.451
148.551
148.989
150.026
152.21
155.439
157.528
157.734
154.721
148.257
130.232
124.002
143.313
146.826
174.41
198.633
168.754
156.816
209.238
210.346
174.269
180.921
207.844
183.017
158.23
162.45
143.016
146.026
161.196
165.805
167.363
165.908
162.685
158.413
155.279
153.401
152.213
151.43
150.133
147.884
145.095
141.971
139.03
136.225
133.451
130.511
127.409
124.208
120.982
117.718
114.39
110.98
107.493
103.935
100.306
96.6005
92.8203
88.9705
85.0563
81.0839
77.0602
72.993
68.8903
64.7596
60.6073
56.441
52.2613
48.0748
43.8822
39.6837
35.4801
31.2707
27.057
22.8328
18.5988
14.3532
10.094
5.81988
1.52619
-2.78551
-7.11527
-11.4646
-15.8359
-20.231
-24.6484
-29.0896
-33.5523
-38.0424
-42.5554
-47.0973
-51.6637
-56.2597
-60.8786
-65.5356
-70.2254
-74.9384
-79.6955
-84.4887
-89.3209
-94.1964
-99.1159
-104.08
-109.092
-114.155
-119.27
-124.439
-129.66
-134.938
-140.272
-145.662
-151.106
-156.609
-162.167
-167.779
-173.438
-179.146
-184.904
-190.698
-196.527
-202.388
-208.269
-214.17
-220.077
-225.982
-231.876
-237.747
-243.585
-249.375
-255.103
-260.754
-266.316
-271.775
-277.114
-282.31
-287.348
-292.204
-296.862
-301.296
-305.476
-309.383
-312.975
-316.248
-319.164
-321.647
-323.677
-325.182
-326.124
-326.469
-326.058
-324.783
-322.642
-319.4
-314.822
-308.61
-300.271
-289.14
-274.36
-255.177
-231.404
-201.642
-163.895
-114.32
-45.3607
54.6482
182.921
363.293
578.17
756.441
818.953
750.929
567.97
350.98
170.91
42.0783
-56.3973
-124.221
-172.568
-209.409
-238.669
-262.819
-282.419
-297.275
-307.928
-315.716
-321.573
-325.938
-328.998
-330.912
-331.961
-332.161
-331.587
-330.381
-328.641
-326.422
-323.745
-320.636
-317.182
-313.42
-309.351
-305.016
-300.437
-295.639
-290.648
-285.479
-280.159
-274.7
-269.126
-263.452
-257.695
-251.863
-245.975
-240.041
-234.08
-228.097
-222.107
-216.116
-210.138
-204.179
-198.246
-192.343
-186.482
-180.656
-174.883
-169.155
-163.479
-157.855
-152.29
-146.779
-141.328
-135.928
-130.592
-125.31
-120.083
-114.911
-109.794
-104.729
-99.7139
-94.7454
-89.8226
-84.9443
-80.1134
-75.3125
-70.5414
-65.8106
-61.1086
-56.4372
-51.7914
-47.1721
-42.5731
-37.9968
-33.4384
-28.9001
-24.3784
-19.8721
-15.3814
-10.9076
-6.44933
-2.0047
2.42673
6.84295
11.2434
15.6269
19.9948
24.3469
28.6804
32.9973
37.2942
41.5714
45.8274
50.0603
54.2699
58.454
62.6094
66.7382
70.8318
74.8928
78.9143
82.8927
86.8237
90.7032
94.5259
98.2843
101.975
105.59
109.13
112.587
115.949
119.2
122.356
125.432
128.437
131.294
133.94
136.368
138.769
141.245
143.864
146.108
147.776
148.451
148.561
149.009
150.052
152.23
155.433
157.495
157.676
154.648
148.262
130.756
124.88
143.66
146.797
174.326
199.068
169.145
156.325
206.557
207.289
173.399
181.27
208.626
182.953
158.222
162.808
143.972
146.646
161.202
165.712
167.287
165.864
162.676
158.44
155.316
153.428
152.227
151.43
150.126
147.878
145.093
141.972
139.032
136.228
133.453
130.512
127.41
124.21
120.984
117.719
114.392
110.982
107.495
103.937
100.307
96.6023
92.8221
88.9723
85.0581
81.0857
77.062
72.9948
68.8921
64.7613
60.6091
56.4428
52.2631
48.0766
43.8839
39.6854
35.4818
31.2725
27.0588
22.8345
18.6005
14.3548
10.0957
5.82152
1.52783
-2.78388
-7.11366
-11.463
-15.8343
-20.2295
-24.6468
-29.088
-33.5507
-38.0409
-42.5539
-47.0958
-51.6621
-56.2575
-60.8772
-65.534
-70.2234
-74.937
-79.6941
-84.4873
-89.3194
-94.1949
-99.1144
-104.079
-109.091
-114.153
-119.269
-124.437
-129.658
-134.936
-140.27
-145.66
-151.104
-156.607
-162.165
-167.777
-173.436
-179.144
-184.901
-190.695
-196.524
-202.385
-208.266
-214.166
-220.073
-225.979
-231.872
-237.743
-243.58
-249.37
-255.098
-260.749
-266.311
-271.769
-277.108
-282.303
-287.341
-292.197
-296.854
-301.287
-305.467
-309.373
-312.965
-316.238
-319.152
-321.635
-323.663
-325.167
-326.108
-326.451
-326.038
-324.761
-322.617
-319.371
-314.792
-308.576
-300.232
-289.091
-274.299
-255.1
-231.307
-201.519
-163.738
-114.113
-45.0814
55.037
183.453
363.861
578.565
756.514
818.895
751.016
568.385
351.567
171.452
42.4747
-56.1141
-124.013
-172.409
-209.284
-238.572
-262.744
-282.362
-297.231
-307.893
-315.687
-321.545
-325.912
-328.975
-330.892
-331.943
-332.145
-331.572
-330.367
-328.628
-326.41
-323.734
-320.626
-317.173
-313.411
-309.342
-305.007
-300.429
-295.632
-290.641
-285.472
-280.153
-274.694
-269.121
-263.447
-257.69
-251.858
-245.97
-240.037
-234.076
-228.093
-222.103
-216.113
-210.135
-204.176
-198.243
-192.34
-186.479
-180.654
-174.88
-169.153
-163.477
-157.853
-152.288
-146.777
-141.326
-135.927
-130.59
-125.308
-120.081
-114.909
-109.792
-104.727
-99.7122
-94.7438
-89.8211
-84.9427
-80.1112
-75.3101
-70.5397
-65.809
-61.1069
-56.4355
-51.7898
-47.1705
-42.5715
-37.9952
-33.4368
-28.8985
-24.3767
-19.8705
-15.3797
-10.906
-6.44769
-2.00306
2.42838
6.84461
11.2451
15.6286
19.9965
24.3486
28.6821
32.9991
37.2959
41.5731
45.8291
50.0621
54.2716
58.4558
62.6112
66.7399
70.8336
74.8946
78.916
82.8945
86.8255
90.705
94.5277
98.2861
101.976
105.592
109.132
112.589
115.95
119.202
122.358
125.434
128.438
131.296
133.942
136.371
138.773
141.249
143.863
146.103
147.769
148.45
148.575
149.035
150.088
152.257
155.425
157.453
157.603
154.56
148.275
131.41
125.962
144.201
146.83
174.395
199.956
169.412
155.277
203.04
203.632
171.999
181.598
209.891
183.131
158.338
163.381
145.075
147.373
161.219
165.611
167.196
165.81
162.664
158.474
155.362
153.463
152.246
151.431
150.117
147.872
145.09
141.974
139.036
136.231
133.455
130.514
127.412
124.213
120.986
117.722
114.395
110.985
107.497
103.939
100.31
96.6046
92.8245
88.9747
85.0604
81.088
77.0643
72.9971
68.8944
64.7636
60.6114
56.445
52.2653
48.0789
43.8862
39.6877
35.484
31.2747
27.061
22.8367
18.6027
14.357
10.0978
5.82364
1.52994
-2.78179
-7.11158
-11.4609
-15.8323
-20.2274
-24.6448
-29.086
-33.5487
-38.0389
-42.5519
-47.0938
-51.6601
-56.2551
-60.8753
-65.532
-70.221
-74.9351
-79.6922
-84.4853
-89.3175
-94.1929
-99.1123
-104.077
-109.089
-114.151
-119.266
-124.435
-129.656
-134.933
-140.268
-145.657
-151.102
-156.604
-162.162
-167.774
-173.432
-179.14
-184.897
-190.691
-196.521
-202.381
-208.262
-214.162
-220.068
-225.974
-231.867
-237.737
-243.574
-249.364
-255.091
-260.742
-266.303
-271.761
-277.1
-282.295
-287.331
-292.187
-296.843
-301.276
-305.455
-309.361
-312.953
-316.225
-319.137
-321.618
-323.646
-325.148
-326.088
-326.429
-326.014
-324.734
-322.586
-319.336
-314.755
-308.535
-300.183
-289.029
-274.222
-255.002
-231.183
-201.362
-163.534
-113.843
-44.7147
55.5461
184.126
364.563
579.042
756.604
818.827
751.121
568.888
352.29
172.144
42.9935
-55.7423
-123.742
-172.203
-209.124
-238.448
-262.648
-282.289
-297.175
-307.849
-315.649
-321.511
-325.88
-328.947
-330.867
-331.921
-332.124
-331.553
-330.349
-328.612
-326.395
-323.72
-320.614
-317.162
-313.399
-309.331
-304.997
-300.419
-295.622
-290.632
-285.464
-280.145
-274.686
-269.114
-263.44
-257.684
-251.852
-245.964
-240.031
-234.071
-228.088
-222.099
-216.108
-210.13
-204.172
-198.239
-192.337
-186.476
-180.65
-174.877
-169.15
-163.474
-157.85
-152.285
-146.774
-141.323
-135.924
-130.587
-125.306
-120.079
-114.907
-109.79
-104.725
-99.7101
-94.7418
-89.819
-84.9407
-80.1085
-75.3074
-70.5375
-65.8069
-61.1048
-56.4335
-51.7877
-47.1684
-42.5695
-37.9931
-33.4347
-28.8964
-24.3747
-19.8684
-15.3776
-10.9039
-6.44558
-2.00094
2.43051
6.84674
11.2472
15.6308
19.9987
24.3508
28.6843
33.0013
37.2982
41.5754
45.8314
50.0643
54.2739
58.458
62.6134
66.7422
70.8359
74.8969
78.9183
82.8968
86.8278
90.7073
94.53
98.2884
101.979
105.595
109.134
112.591
115.953
119.204
122.36
125.437
128.44
131.297
133.944
136.375
138.777
141.253
143.862
146.098
147.76
148.451
148.593
149.069
150.134
152.292
155.416
157.403
157.518
154.466
148.305
132.186
127.229
145.021
147.153
174.765
201.276
169.511
153.648
198.806
199.476
170.056
181.943
211.505
183.827
158.934
164.194
146.303
148.205
161.258
165.506
167.094
165.747
162.651
158.515
155.419
153.506
152.269
151.432
150.107
147.864
145.088
141.977
139.041
136.236
133.457
130.516
127.415
124.216
120.989
117.725
114.397
110.987
107.5
103.942
100.313
96.6075
92.8273
88.9775
85.0633
81.0909
77.0672
73
68.8972
64.7665
60.6142
56.4478
52.2681
48.0816
43.889
39.6905
35.4868
31.2774
27.0637
22.8394
18.6054
14.3597
10.1005
5.82626
1.53255
-2.7792
-7.10901
-11.4584
-15.8297
-20.2249
-24.6423
-29.0836
-33.5463
-38.0364
-42.5495
-47.0914
-51.6576
-56.2523
-60.8729
-65.5295
-70.2181
-74.9327
-79.6897
-84.4828
-89.3149
-94.1903
-99.1097
-104.074
-109.086
-114.148
-119.263
-124.432
-129.653
-134.93
-140.265
-145.654
-151.098
-156.6
-162.158
-167.77
-173.428
-179.136
-184.893
-190.687
-196.516
-202.376
-208.257
-214.156
-220.063
-225.968
-231.86
-237.731
-243.567
-249.356
-255.083
-260.734
-266.295
-271.752
-277.09
-282.284
-287.32
-292.175
-296.831
-301.263
-305.441
-309.346
-312.938
-316.209
-319.118
-321.599
-323.625
-325.125
-326.063
-326.402
-325.984
-324.701
-322.548
-319.294
-314.709
-308.483
-300.122
-288.954
-274.128
-254.883
-231.03
-201.166
-163.28
-113.503
-44.2492
56.183
184.904
365.443
579.596
756.705
818.746
751.241
569.471
353.186
172.949
43.6428
-55.2702
-123.398
-171.946
-208.927
-238.296
-262.532
-282.201
-297.107
-307.795
-315.602
-321.469
-325.841
-328.912
-330.837
-331.893
-332.099
-331.53
-330.328
-328.592
-326.376
-323.702
-320.598
-317.147
-313.385
-309.317
-304.984
-300.407
-295.611
-290.621
-285.454
-280.135
-274.677
-269.105
-263.432
-257.676
-251.844
-245.957
-240.025
-234.064
-228.082
-222.093
-216.103
-210.125
-204.167
-198.234
-192.332
-186.471
-180.646
-174.873
-169.146
-163.47
-157.846
-152.281
-146.771
-141.32
-135.921
-130.584
-125.303
-120.076
-114.904
-109.787
-104.723
-99.7074
-94.7391
-89.8164
-84.9381
-80.1055
-75.3043
-70.5349
-65.8043
-61.1023
-56.4309
-51.7852
-47.1659
-42.5669
-37.9906
-33.4322
-28.8939
-24.3721
-19.8659
-15.3751
-10.9013
-6.44298
-1.99832
2.43314
6.84939
11.2499
15.6334
20.0013
24.3535
28.687
33.004
37.3009
41.5781
45.8341
50.0671
54.2766
58.4608
62.6162
66.745
70.8387
74.8997
78.9211
82.8996
86.8306
90.7101
94.5328
98.2912
101.982
105.597
109.137
112.594
115.955
119.207
122.363
125.44
128.443
131.299
133.946
136.379
138.783
141.258
143.861
146.09
147.75
148.452
148.616
149.111
150.19
152.334
155.405
157.346
157.423
154.373
148.364
133.084
128.628
146.095
147.991
175.68
202.834
169.509
151.418
193.971
194.82
167.566
182.287
213.272
185.171
160.189
165.127
147.646
149.144
161.325
165.405
166.982
165.675
162.634
158.563
155.486
153.557
152.299
151.435
150.095
147.855
145.085
141.982
139.047
136.241
133.46
130.518
127.417
124.219
120.993
117.728
114.401
110.991
107.504
103.946
100.316
96.6109
92.8307
88.9809
85.0666
81.0943
77.0705
73.0033
68.9006
64.7698
60.6176
56.4512
52.2715
48.085
43.8923
39.6938
35.4901
31.2807
27.067
22.8426
18.6086
14.3628
10.1037
5.82941
1.53568
-2.77609
-7.10592
-11.4553
-15.8267
-20.2219
-24.6393
-29.0806
-33.5433
-38.0334
-42.5465
-47.0884
-51.6546
-56.249
-60.8699
-65.5265
-70.2149
-74.9297
-79.6867
-84.4798
-89.3118
-94.1872
-99.1065
-104.071
-109.083
-114.145
-119.26
-124.428
-129.649
-134.926
-140.261
-145.65
-151.094
-156.596
-162.154
-167.765
-173.424
-179.131
-184.888
-190.681
-196.51
-202.37
-208.25
-214.15
-220.056
-225.96
-231.853
-237.723
-243.559
-249.347
-255.074
-260.724
-266.284
-271.741
-277.078
-282.272
-287.307
-292.161
-296.816
-301.247
-305.424
-309.328
-312.92
-316.189
-319.097
-321.575
-323.599
-325.098
-326.033
-326.37
-325.949
-324.662
-322.504
-319.245
-314.654
-308.421
-300.049
-288.864
-274.015
-254.739
-230.846
-200.928
-162.967
-113.082
-43.6729
56.9536
185.77
366.519
580.219
756.815
818.651
751.371
570.127
354.289
173.837
44.4272
-54.6859
-122.973
-171.631
-208.688
-238.113
-262.391
-282.094
-297.024
-307.729
-315.546
-321.419
-325.796
-328.871
-330.801
-331.86
-332.069
-331.502
-330.302
-328.568
-326.354
-323.681
-320.579
-317.129
-313.367
-309.301
-304.969
-300.392
-295.597
-290.608
-285.441
-280.124
-274.666
-269.094
-263.422
-257.666
-251.835
-245.949
-240.017
-234.057
-228.075
-222.086
-216.096
-210.119
-204.161
-198.228
-192.326
-186.466
-180.641
-174.868
-169.141
-163.466
-157.842
-152.277
-146.767
-141.316
-135.917
-130.58
-125.299
-120.072
-114.901
-109.784
-104.719
-99.7041
-94.7358
-89.8132
-84.935
-80.102
-75.3007
-70.5317
-65.8012
-61.0992
-56.4278
-51.7821
-47.1628
-42.5638
-37.9875
-33.4291
-28.8908
-24.369
-19.8628
-15.372
-10.8982
-6.43984
-1.99518
2.43629
6.85255
11.253
15.6366
20.0046
24.3568
28.6902
33.0072
37.3042
41.5814
45.8374
50.0704
54.28
58.4641
62.6195
66.7483
70.842
74.903
78.9245
82.9029
86.8339
90.7134
94.5361
98.2945
101.985
105.601
109.14
112.597
115.959
119.21
122.367
125.443
128.445
131.301
133.949
136.384
138.79
141.263
143.859
146.082
147.739
148.455
148.644
149.161
150.257
152.383
155.393
157.282
157.322
154.287
148.46
134.108
130.171
147.3
149.449
177.207
204.422
169.481
148.582
188.603
189.776
164.513
182.53
215.021
187.002
162.173
166.06
149.119
150.192
161.428
165.312
166.863
165.597
162.616
158.618
155.563
153.618
152.335
151.44
150.083
147.846
145.083
141.988
139.055
136.248
133.464
130.52
127.421
124.223
120.997
117.732
114.404
110.995
107.508
103.95
100.32
96.6148
92.8346
88.9849
85.0706
81.0982
77.0745
73.0073
68.9045
64.7738
60.6215
56.4551
52.2754
48.0889
43.8962
39.6976
35.4939
31.2845
27.0708
22.8464
18.6124
14.3666
10.1074
5.83311
1.53937
-2.77242
-7.10227
-11.4517
-15.8231
-20.2183
-24.6358
-29.077
-33.5397
-38.0299
-42.543
-47.0849
-51.6511
-56.2453
-60.8664
-65.5229
-70.2111
-74.9261
-79.6831
-84.4761
-89.3081
-94.1834
-99.1026
-104.067
-109.079
-114.141
-119.256
-124.424
-129.645
-134.922
-140.256
-145.645
-151.089
-156.591
-162.148
-167.76
-173.418
-179.125
-184.881
-190.675
-196.503
-202.363
-208.243
-214.142
-220.047
-225.952
-231.843
-237.713
-243.549
-249.337
-255.063
-260.712
-266.272
-271.727
-277.064
-282.257
-287.292
-292.145
-296.798
-301.228
-305.404
-309.307
-312.898
-316.166
-319.071
-321.548
-323.569
-325.066
-325.998
-326.331
-325.907
-324.616
-322.451
-319.186
-314.589
-308.347
-299.961
-288.756
-273.88
-254.567
-230.625
-200.641
-162.589
-112.57
-42.9758
57.8658
186.763
367.728
580.907
756.929
818.539
751.508
570.853
355.545
174.845