/*--------------------------------*- C++ -*----------------------------------*\
| =========                 |                                                 |
| \\      /  F ield         | OpenFOAM: The Open Source CFD Toolbox           |
|  \\    /   O peration     | Version:  2412                                  |
|   \\  /    A nd           | Website:  www.openfoam.com                      |
|    \\/     M anipulation  |                                                 |
\*---------------------------------------------------------------------------*/
FoamFile
{
    version     2.0;
    format      ascii;
    arch        "LSB;label=32;scalar=64";
    class       surfaceScalarField;
    location    "60";
    object      phi;
}
// * * * * * * * * * * * * * * * * * * * * * * * * * * * * * * * * * * * * * //

dimensions      [0 3 -1 0 0 0 0];

oriented        oriented;

internalField   nonuniform List<scalar> 
64883
(
1.85718e-05
2.07729e-06
-2.06491e-05
8.94881e-06
9.62298e-06
-5.24681e-06
1.41956e-05
4.54706e-06
-9.79388e-06
1.33394e-05
-8.79234e-06
5.23357e-06
8.10583e-06
-4.80274e-06
1.00363e-05
-1.61961e-05
1.13934e-05
-2.01022e-05
3.90608e-06
-1.72048e-05
-2.89744e-06
-1.46719e-05
-2.53283e-06
-1.33803e-05
-1.29165e-06
-1.27535e-05
-6.26798e-07
-1.27195e-05
-3.39636e-08
-1.31493e-05
4.29806e-07
-1.35927e-05
4.43322e-07
-1.38009e-05
2.08247e-07
-1.37952e-05
-5.74639e-09
-1.36137e-05
-1.8153e-07
-1.33985e-05
-2.15164e-07
-1.32884e-05
-1.10092e-07
-1.32842e-05
-4.21882e-09
-1.33705e-05
8.6261e-08
-1.3463e-05
9.24491e-08
-1.35059e-05
4.28876e-08
-1.35274e-05
2.18875e-08
-1.35528e-05
2.502e-08
-1.35933e-05
4.04981e-08
-1.36446e-05
5.12286e-08
-1.36971e-05
5.24837e-08
-1.37476e-05
5.04527e-08
-1.3798e-05
5.04539e-08
-1.38502e-05
5.21207e-08
-1.39038e-05
5.35146e-08
-1.39584e-05
5.46068e-08
-1.40136e-05
5.50988e-08
-1.40692e-05
5.56634e-08
-1.41259e-05
5.55596e-08
-1.41833e-05
5.83186e-08
-1.42414e-05
5.81219e-08
-1.43001e-05
5.86655e-08
-1.43597e-05
5.94824e-08
-1.44202e-05
6.04616e-08
-1.44812e-05
6.09403e-08
-1.45425e-05
6.12649e-08
-1.46042e-05
6.17125e-08
-1.46663e-05
6.82925e-08
-1.47289e-05
5.62637e-08
-1.47911e-05
6.21335e-08
-1.48531e-05
6.19267e-08
-1.49153e-05
6.21546e-08
-1.4977e-05
6.16322e-08
-1.5038e-05
6.09784e-08
-1.50994e-05
6.36014e-08
-1.51598e-05
5.79124e-08
-1.52193e-05
5.83701e-08
-1.52787e-05
6.03302e-08
-1.53369e-05
5.34491e-08
-1.53947e-05
6.2188e-08
-1.54515e-05
5.67644e-08
-1.55083e-05
5.67193e-08
-1.55645e-05
5.61417e-08
-1.562e-05
5.53899e-08
-1.56749e-05
5.48013e-08
-1.57297e-05
5.47862e-08
-1.57845e-05
5.46821e-08
-1.58391e-05
4.37993e-08
-1.58942e-05
6.50188e-08
-1.59497e-05
4.56074e-08
-1.60057e-05
6.56391e-08
-1.60624e-05
4.78681e-08
-1.61208e-05
6.69782e-08
-1.61438e-05
2.87537e-08
-1.62047e-05
5.54005e-08
-1.62697e-05
6.49314e-08
-1.62975e-05
2.76759e-08
-1.63641e-05
6.65645e-08
-1.64323e-05
6.80556e-08
-1.65033e-05
7.09512e-08
-1.65764e-05
7.29359e-08
-1.66517e-05
7.51772e-08
-1.67293e-05
7.75263e-08
-1.6809e-05
7.95806e-08
-1.68914e-05
8.2377e-08
-1.69763e-05
8.47402e-08
-1.70634e-05
8.71102e-08
-1.7153e-05
8.95319e-08
-1.72447e-05
9.65556e-08
-1.7339e-05
8.92954e-08
-1.74359e-05
1.02159e-07
-1.75348e-05
9.34291e-08
-1.7636e-05
1.06151e-07
-1.77393e-05
9.81773e-08
-1.78444e-05
1.09482e-07
-1.79514e-05
1.02435e-07
-1.80603e-05
1.12626e-07
-1.81706e-05
1.0599e-07
-1.82821e-05
1.14908e-07
-1.83949e-05
1.09454e-07
-1.8509e-05
1.1714e-07
-1.86246e-05
1.12298e-07
-1.87407e-05
1.18358e-07
-1.88576e-05
1.14435e-07
-1.89747e-05
1.18943e-07
-1.90925e-05
1.15778e-07
-1.92103e-05
1.19449e-07
-1.93281e-05
1.15986e-07
-1.94457e-05
1.18864e-07
-1.95634e-05
1.16171e-07
-1.9681e-05
1.18754e-07
-1.97986e-05
1.16237e-07
-1.99143e-05
1.16313e-07
-2.00278e-05
1.12797e-07
-2.01386e-05
1.11556e-07
-2.02461e-05
1.06553e-07
-2.03501e-05
1.04583e-07
-2.04499e-05
9.90835e-08
-2.0544e-05
9.37788e-08
-2.06326e-05
8.88407e-08
-2.07143e-05
8.16297e-08
-2.07854e-05
7.10882e-08
-2.09464e-05
1.60953e-07
-2.11013e-05
1.54884e-07
-2.11523e-05
5.0993e-08
-2.11949e-05
4.25952e-08
-2.12285e-05
3.34972e-08
-2.12537e-05
2.52217e-08
-2.12711e-05
1.73483e-08
-2.12811e-05
9.99742e-09
-2.12843e-05
3.2647e-09
-2.12758e-05
-8.49743e-09
-2.11677e-05
-1.05515e-07
-2.1063e-05
-1.07042e-07
-2.10496e-05
2.61366e-08
-2.11695e-05
8.021e-08
-2.13842e-05
2.03281e-07
-2.16769e-05
3.03951e-07
-2.21891e-05
5.15027e-07
-2.28596e-05
6.6778e-07
-2.35248e-05
6.65137e-07
-2.40081e-05
4.83305e-07
-2.43164e-05
3.08226e-07
-2.46761e-05
3.59776e-07
-2.53715e-05
6.9532e-07
-2.62567e-05
8.85231e-07
-2.66859e-05
4.292e-07
-2.4514e-05
-2.17183e-06
-1.76001e-05
-6.91398e-06
-6.08225e-06
-1.15178e-05
6.75092e-06
-1.28332e-05
1.81893e-05
-1.14384e-05
2.49616e-05
-6.77224e-06
2.70104e-05
-2.04882e-06
2.65522e-05
4.58222e-07
2.56806e-05
8.71536e-07
2.48668e-05
8.13749e-07
2.42997e-05
5.67127e-07
2.39177e-05
3.81874e-07
2.32193e-05
6.98363e-07
2.21474e-05
1.0718e-06
2.11177e-05
1.03872e-06
2.04164e-05
6.91802e-07
2.01005e-05
2.94042e-07
1.99588e-05
1.64082e-07
1.99205e-05
1.04274e-09
1.99884e-05
-2.99634e-08
2.01311e-05
-1.6078e-07
2.02846e-05
-1.35825e-07
2.03629e-05
-7.82405e-08
2.04355e-05
-7.25519e-08
2.05041e-05
-6.85679e-08
2.05646e-05
-6.04527e-08
2.06143e-05
-4.97593e-08
2.06513e-05
-3.70171e-08
2.06736e-05
-2.23202e-08
2.06825e-05
-8.92389e-09
2.05891e-05
9.34495e-08
2.04858e-05
1.033e-07
2.04633e-05
2.24232e-08
2.04278e-05
3.54645e-08
2.03828e-05
4.5106e-08
2.033e-05
4.14815e-08
2.02696e-05
7.09951e-08
2.02032e-05
5.57513e-08
2.0131e-05
8.2733e-08
2.00538e-05
7.71771e-08
1.99721e-05
8.19288e-08
1.98864e-05
7.42103e-08
1.97975e-05
1.00712e-07
1.97069e-05
7.97072e-08
1.96146e-05
1.01925e-07
1.95209e-05
8.29688e-08
1.94257e-05
1.05719e-07
1.93294e-05
8.52674e-08
1.92322e-05
1.07919e-07
1.91345e-05
8.5627e-08
1.90359e-05
1.10482e-07
1.8937e-05
8.66944e-08
1.88379e-05
1.11397e-07
1.87395e-05
8.62558e-08
1.86416e-05
1.10037e-07
1.8545e-05
8.40638e-08
1.84498e-05
1.07774e-07
1.83561e-05
8.05389e-08
1.8264e-05
1.05371e-07
1.81735e-05
7.68754e-08
1.80845e-05
1.02673e-07
1.79972e-05
7.31749e-08
1.79115e-05
9.99361e-08
1.78267e-05
7.01899e-08
1.7743e-05
9.84731e-08
1.76608e-05
8.22255e-08
1.75792e-05
8.16367e-08
1.74985e-05
8.0692e-08
1.74184e-05
8.00139e-08
1.73392e-05
7.92544e-08
1.72611e-05
7.80667e-08
1.71835e-05
7.75143e-08
1.71068e-05
7.67179e-08
1.70309e-05
7.58354e-08
1.69555e-05
7.53868e-08
1.69238e-05
3.15619e-08
1.6892e-05
3.1822e-08
1.68183e-05
7.36765e-08
1.67438e-05
6.42498e-08
1.66704e-05
8.35957e-08
1.65975e-05
6.38441e-08
1.6525e-05
8.15098e-08
1.64531e-05
6.46559e-08
1.63812e-05
7.97742e-08
1.63092e-05
6.53636e-08
1.62373e-05
7.80532e-08
1.61656e-05
7.1583e-08
1.60937e-05
7.18952e-08
1.60217e-05
7.19555e-08
1.59498e-05
7.19401e-08
1.58774e-05
7.23701e-08
1.58044e-05
7.29424e-08
1.57311e-05
7.32713e-08
1.56579e-05
7.3219e-08
1.55843e-05
7.35494e-08
1.55102e-05
7.19351e-08
1.54353e-05
7.69626e-08
1.53603e-05
7.23812e-08
1.52848e-05
7.80145e-08
1.52088e-05
7.59434e-08
1.5133e-05
7.57932e-08
1.50568e-05
7.62021e-08
1.49802e-05
7.66078e-08
1.49038e-05
7.63208e-08
1.48274e-05
7.63702e-08
1.47504e-05
7.26136e-08
1.46738e-05
8.08774e-08
1.45976e-05
7.18443e-08
1.45216e-05
8.03914e-08
1.44462e-05
7.5446e-08
1.43711e-05
7.50927e-08
1.4297e-05
7.40824e-08
1.42238e-05
7.31889e-08
1.41515e-05
7.22991e-08
1.408e-05
6.89354e-08
1.40095e-05
7.30771e-08
1.39408e-05
6.87138e-08
1.38731e-05
6.763e-08
1.38067e-05
6.63977e-08
1.37423e-05
6.44223e-08
1.36799e-05
6.15293e-08
1.36201e-05
6.05919e-08
1.35613e-05
5.88135e-08
1.35013e-05
6.00188e-08
1.34433e-05
5.80204e-08
1.33966e-05
4.66261e-08
1.33655e-05
3.09628e-08
1.33385e-05
2.71166e-08
1.32921e-05
4.64684e-08
1.32169e-05
7.51659e-08
1.31428e-05
7.41161e-08
1.31416e-05
1.22832e-09
1.32512e-05
-1.09526e-07
1.34693e-05
-2.18271e-07
1.36586e-05
-1.89238e-07
1.36796e-05
-2.10599e-08
1.34983e-05
1.81313e-07
1.3096e-05
4.02304e-07
1.27172e-05
3.78773e-07
1.28108e-05
-9.35712e-08
1.35125e-05
-7.01695e-07
1.49146e-05
-1.40211e-06
1.76111e-05
-2.69649e-06
2.08184e-05
-3.20732e-06
1.73544e-05
3.46396e-06
5.88564e-06
1.14688e-05
-5.0734e-06
1.0959e-05
-1.27641e-05
7.69069e-06
-3.78091e-06
-8.98319e-06
5.23221e-06
-9.01312e-06
-1.08683e-05
1.61005e-05
-2.37375e-05
1.28692e-05
-2.16602e-05
4.76645e-05
4.65706e-06
-7.29706e-05
3.05497e-05
2.67377e-05
-8.25508e-06
5.30004e-05
1.17965e-05
-2.98455e-05
3.5137e-05
-3.21328e-05
1.33981e-05
2.98447e-05
-2.12107e-05
4.46451e-05
-5.45992e-05
4.47818e-05
-6.43265e-05
1.36334e-05
-5.6537e-05
-1.06869e-05
-4.94287e-05
-9.64118e-06
-4.58228e-05
-4.89752e-06
-4.41297e-05
-2.31988e-06
-4.41482e-05
-1.54801e-08
-4.5384e-05
1.66559e-06
-4.66133e-05
1.67256e-06
-4.71572e-05
7.52169e-07
-4.7073e-05
-8.99713e-08
-4.65161e-05
-7.38481e-07
-4.58953e-05
-8.35891e-07
-4.55876e-05
-4.17896e-07
-4.55969e-05
5.02541e-09
-4.5908e-05
3.97378e-07
-4.62371e-05
4.2151e-07
-4.63697e-05
1.75547e-07
-4.64424e-05
9.50176e-08
-4.6532e-05
1.14076e-07
-4.66668e-05
1.75293e-07
-4.68331e-05
2.17498e-07
-4.70038e-05
2.23135e-07
-4.71717e-05
2.18246e-07
-4.73402e-05
2.18926e-07
-4.75149e-05
2.26722e-07
-4.76959e-05
2.34428e-07
-4.78804e-05
2.39111e-07
-4.80675e-05
2.42105e-07
-4.82568e-05
2.44944e-07
-4.84488e-05
2.4587e-07
-4.86444e-05
2.55361e-07
-4.88425e-05
2.56185e-07
-4.90432e-05
2.59328e-07
-4.92468e-05
2.62975e-07
-4.94526e-05
2.66177e-07
-4.96606e-05
2.68896e-07
-4.98711e-05
2.71638e-07
-5.00818e-05
2.72464e-07
-5.02946e-05
2.90163e-07
-5.05072e-05
2.59525e-07
-5.07194e-05
2.74157e-07
-5.09326e-05
2.7504e-07
-5.1145e-05
2.74485e-07
-5.13565e-05
2.73011e-07
-5.15663e-05
2.70677e-07
-5.17754e-05
2.7591e-07
-5.19822e-05
2.61134e-07
-5.21878e-05
2.62202e-07
-5.23903e-05
2.64189e-07
-5.25911e-05
2.47373e-07
-5.27891e-05
2.66662e-07
-5.29861e-05
2.53597e-07
-5.31816e-05
2.52095e-07
-5.3375e-05
2.49396e-07
-5.35667e-05
2.46929e-07
-5.37578e-05
2.45826e-07
-5.39481e-05
2.45001e-07
-5.41382e-05
2.44525e-07
-5.43292e-05
2.18996e-07
-5.45203e-05
2.70693e-07
-5.47138e-05
2.24569e-07
-5.49103e-05
2.76294e-07
-5.51098e-05
2.34265e-07
-5.53127e-05
2.82473e-07
-5.52919e-05
1.63561e-08
-5.55031e-05
2.58456e-07
-5.57267e-05
2.8847e-07
-5.57153e-05
1.60489e-08
-5.59435e-05
2.9462e-07
-5.61797e-05
3.04063e-07
-5.64226e-05
3.13735e-07
-5.6673e-05
3.23179e-07
-5.6931e-05
3.32901e-07
-5.71961e-05
3.42553e-07
-5.7469e-05
3.52258e-07
-5.77496e-05
3.62825e-07
-5.80379e-05
3.72977e-07
-5.83349e-05
3.83983e-07
-5.86384e-05
3.9294e-07
-5.89501e-05
4.15468e-07
-5.92698e-05
4.01504e-07
-5.95971e-05
4.37269e-07
-5.99327e-05
4.20923e-07
-6.02747e-05
4.55452e-07
-6.06232e-05
4.39101e-07
-6.09773e-05
4.70107e-07
-6.1338e-05
4.56275e-07
-6.17049e-05
4.85047e-07
-6.20763e-05
4.70952e-07
-6.24511e-05
4.94778e-07
-6.28306e-05
4.83966e-07
-6.32142e-05
5.05194e-07
-6.36012e-05
4.9451e-07
-6.39907e-05
5.11091e-07
-6.43825e-05
5.02642e-07
-6.47761e-05
5.15149e-07
-6.51701e-05
5.06912e-07
-6.55642e-05
5.15886e-07
-6.59569e-05
5.05982e-07
-6.63506e-05
5.14523e-07
-6.67436e-05
5.0686e-07
-6.71375e-05
5.14302e-07
-6.75282e-05
5.0503e-07
-6.79151e-05
5.04045e-07
-6.8293e-05
4.89574e-07
-6.86615e-05
4.81194e-07
-6.90185e-05
4.62173e-07
-6.9363e-05
4.49978e-07
-6.96928e-05
4.2778e-07
-7.00047e-05
4.05256e-07
-7.02955e-05
3.79886e-07
-7.05652e-05
3.51298e-07
-7.08028e-05
3.08694e-07
-7.15497e-05
9.07723e-07
-7.22691e-05
8.74234e-07
-7.24363e-05
2.18159e-07
-7.25708e-05
1.77057e-07
-7.26759e-05
1.38526e-07
-7.27523e-05
1.01588e-07
-7.27998e-05
6.48908e-08
-7.2823e-05
3.31253e-08
-7.28179e-05
-1.80063e-09
-7.27697e-05
-5.6674e-08
-7.21692e-05
-7.02166e-07
-7.15868e-05
-6.92941e-07
-7.15185e-05
1.62133e-08
-7.20997e-05
6.02859e-07
-7.298e-05
1.06701e-06
-7.39103e-05
1.25056e-06
-7.55603e-05
2.16909e-06
-7.77151e-05
2.81857e-06
-7.97984e-05
2.74841e-06
-8.11936e-05
1.87844e-06
-8.18748e-05
9.89399e-07
-8.24206e-05
9.05562e-07
-8.39331e-05
2.20788e-06
-8.59852e-05
2.93728e-06
-8.59941e-05
4.38119e-07
-7.75993e-05
-1.05665e-05
-5.49254e-05
-2.95879e-05
-1.88518e-05
-4.75914e-05
2.09313e-05
-5.26163e-05
5.6776e-05
-4.72832e-05
7.90459e-05
-2.90421e-05
8.70835e-05
-1.00865e-05
8.70025e-05
5.39196e-07
8.5122e-05
2.75202e-06
8.30645e-05
2.87121e-06
8.15361e-05
2.0955e-06
8.07467e-05
1.17112e-06
7.88115e-05
2.63347e-06
7.53451e-05
4.53814e-06
7.19586e-05
4.43836e-06
6.9654e-05
2.98232e-06
6.8634e-05
1.28225e-06
6.80122e-05
8.18632e-07
6.77216e-05
2.36674e-07
6.79687e-05
-2.21044e-07
6.8653e-05
-8.71781e-07
6.93805e-05
-8.37778e-07
6.96609e-05
-3.58561e-07
6.99204e-05
-3.31963e-07
7.01626e-05
-3.10735e-07
7.03787e-05
-2.76576e-07
7.05567e-05
-2.278e-07
7.06911e-05
-1.71441e-07
7.07777e-05
-1.08892e-07
7.08149e-05
-4.61636e-08
7.03141e-05
5.94233e-07
6.97726e-05
6.44792e-07
6.96996e-05
9.53671e-08
6.95857e-05
1.49364e-07
6.94421e-05
1.8885e-07
6.92693e-05
1.97541e-07
6.90729e-05
2.83074e-07
6.8855e-05
2.57929e-07
6.86174e-05
3.35904e-07
6.83623e-05
3.3223e-07
6.80919e-05
3.52649e-07
6.78065e-05
3.42793e-07
6.75123e-05
4.12114e-07
6.72098e-05
3.66236e-07
6.69028e-05
4.23066e-07
6.65897e-05
3.80285e-07
6.62734e-05
4.37429e-07
6.59522e-05
3.90296e-07
6.56279e-05
4.4807e-07
6.53001e-05
3.95642e-07
6.49702e-05
4.57864e-07
6.4639e-05
3.99829e-07
6.43079e-05
4.60523e-07
6.39777e-05
3.98677e-07
6.36491e-05
4.56485e-07
6.33247e-05
3.89959e-07
6.3005e-05
4.46044e-07
6.26898e-05
3.76344e-07
6.23801e-05
4.34555e-07
6.20757e-05
3.61233e-07
6.17762e-05
4.22264e-07
6.14819e-05
3.46692e-07
6.11917e-05
4.11023e-07
6.09061e-05
3.34384e-07
6.06234e-05
4.02832e-07
6.03447e-05
3.60889e-07
6.00695e-05
3.56919e-07
5.97957e-05
3.54431e-07
5.95251e-05
3.50615e-07
5.92569e-05
3.47436e-07
5.89911e-05
3.43812e-07
5.87279e-05
3.40668e-07
5.84669e-05
3.37625e-07
5.82088e-05
3.33877e-07
5.79532e-05
3.30906e-07
5.79659e-05
1.87668e-08
5.79787e-05
1.90394e-08
5.77265e-05
3.25767e-07
5.74707e-05
3.05187e-07
5.72172e-05
3.51908e-07
5.69659e-05
3.01804e-07
5.67158e-05
3.44801e-07
5.6467e-05
3.0282e-07
5.62186e-05
3.39771e-07
5.59711e-05
3.03094e-07
5.57246e-05
3.33585e-07
5.54771e-05
3.19002e-07
5.52302e-05
3.1875e-07
5.49826e-05
3.19489e-07
5.47342e-05
3.20316e-07
5.44856e-05
3.20927e-07
5.42357e-05
3.22758e-07
5.39843e-05
3.24607e-07
5.37316e-05
3.25865e-07
5.34798e-05
3.25332e-07
5.32245e-05
3.23995e-07
5.2969e-05
3.35507e-07
5.27107e-05
3.26877e-07
5.24518e-05
3.40598e-07
5.21927e-05
3.35015e-07
5.19321e-05
3.3639e-07
5.16706e-05
3.37634e-07
5.14085e-05
3.38623e-07
5.11459e-05
3.38903e-07
5.08849e-05
3.3729e-07
5.06226e-05
3.28334e-07
5.03606e-05
3.49331e-07
5.01002e-05
3.25728e-07
4.98397e-05
3.47443e-07
4.95826e-05
3.32633e-07
4.93273e-05
3.30406e-07
4.90743e-05
3.27025e-07
4.88245e-05
3.22972e-07
4.85784e-05
3.18323e-07
4.83348e-05
3.08722e-07
4.80959e-05
3.15804e-07
4.78622e-05
3.02454e-07
4.76322e-05
2.97603e-07
4.74068e-05
2.91789e-07
4.71875e-05
2.83638e-07
4.69764e-05
2.71399e-07
4.67738e-05
2.64405e-07
4.65746e-05
2.57987e-07
4.63747e-05
2.59938e-07
4.61811e-05
2.51655e-07
4.60206e-05
2.07087e-07
4.59061e-05
1.45183e-07
4.5809e-05
1.2442e-07
4.56596e-05
1.95854e-07
4.54272e-05
3.07613e-07
4.51954e-05
3.05912e-07
4.5166e-05
3.05746e-08
4.54636e-05
-4.06956e-07
4.6083e-05
-8.37788e-07
4.6651e-05
-7.57262e-07
4.67658e-05
-1.35944e-07
4.62839e-05
6.63295e-07
4.51546e-05
1.53156e-06
4.40484e-05
1.48497e-06
4.4188e-05
-2.33235e-07
4.6079e-05
-2.59268e-06
4.99755e-05
-5.29864e-06
5.74947e-05
-1.02157e-05
6.61034e-05
-1.1816e-05
5.75783e-05
1.1989e-05
2.45444e-05
4.45027e-05
-1.16766e-05
4.718e-05
-3.34278e-05
2.94419e-05
-1.00971e-05
-3.23139e-05
7.22117e-06
-2.63314e-05
-3.65488e-05
5.98704e-05
-5.79536e-05
3.42741e-05
-7.49568e-05
7.12838e-05
5.51061e-06
-0.000149765
5.45287e-05
4.34928e-05
-5.74309e-06
0.000113272
1.79988e-05
-5.35873e-05
5.53859e-05
-6.952e-05
1.83244e-05
6.69062e-05
-4.76429e-05
0.000110612
-0.000103135
0.000100274
-0.000116969
2.74675e-05
-0.000104692
-2.29637e-05
-9.3631e-05
-2.07025e-05
-8.79631e-05
-1.05654e-05
-8.54224e-05
-4.86059e-06
-8.56305e-05
1.92683e-07
-8.7646e-05
3.68099e-06
-8.9562e-05
3.58858e-06
-9.03435e-05
1.53364e-06
-9.01019e-05
-3.3157e-07
-8.91422e-05
-1.69819e-06
-8.81327e-05
-1.84527e-06
-8.7655e-05
-8.95733e-07
-8.77188e-05
6.8739e-08
-8.83571e-05
1.03571e-06
-8.90077e-05
1.07213e-06
-8.9237e-05
4.04833e-07
-8.93798e-05
2.38213e-07
-8.95542e-05
2.87962e-07
-8.98095e-05
4.30537e-07
-9.01179e-05
5.25914e-07
-9.04366e-05
5.41812e-07
-9.07517e-05
5.33227e-07
-9.10713e-05
5.38569e-07
-9.14037e-05
5.58979e-07
-9.17482e-05
5.78869e-07
-9.20994e-05
5.90313e-07
-9.24552e-05
5.97761e-07
-9.28179e-05
6.07646e-07
-9.3187e-05
6.13359e-07
-9.35612e-05
6.31009e-07
-9.39414e-05
6.36339e-07
-9.43262e-05
6.43984e-07
-9.47161e-05
6.52846e-07
-9.5111e-05
6.6102e-07
-9.55102e-05
6.68045e-07
-9.59114e-05
6.72702e-07
-9.63159e-05
6.76955e-07
-9.67235e-05
7.0646e-07
-9.7131e-05
6.58205e-07
-9.75396e-05
6.82559e-07
-9.7946e-05
6.81362e-07
-9.83525e-05
6.80852e-07
-9.87573e-05
6.77723e-07
-9.91582e-05
6.71494e-07
-9.95594e-05
6.80189e-07
-9.99556e-05
6.53902e-07
-0.000100348
6.53277e-07
-0.000100738
6.54822e-07
-0.000101122
6.2514e-07
-0.000101505
6.55454e-07
-0.000101882
6.31196e-07
-0.000102258
6.28007e-07
-0.000102631
6.2175e-07
-0.000103001
6.16803e-07
-0.00010337
6.14543e-07
-0.000103738
6.12745e-07
-0.000104107
6.14048e-07
-0.000104477
5.73574e-07
-0.00010485
6.57664e-07
-0.000105226
5.86849e-07
-0.000105607
6.70784e-07
-0.000105995
6.10052e-07
-0.000106388
6.86639e-07
-0.000106196
-1.67095e-07
-0.000106603
6.57113e-07
-0.000107032
7.17458e-07
-0.000106843
-1.73162e-07
-0.000107284
7.34963e-07
-0.000107735
7.55742e-07
-0.000108199
7.77464e-07
-0.000108677
8.00438e-07
-0.000109168
8.23928e-07
-0.000109674
8.48175e-07
-0.000110191
8.69549e-07
-0.000110723
8.94554e-07
-0.00011127
9.19384e-07
-0.000111829
9.43689e-07
-0.000112404
9.67447e-07
-0.00011299
1.0091e-06
-0.000113592
9.95754e-07
-0.000114207
1.06027e-06
-0.000114835
1.04076e-06
-0.000115476
1.10411e-06
-0.000116128
1.0831e-06
-0.000116791
1.13913e-06
-0.000117464
1.12246e-06
-0.000118148
1.17459e-06
-0.00011884
1.15701e-06
-0.000119539
1.1987e-06
-0.000120243
1.18309e-06
-0.000120956
1.22292e-06
-0.000121676
1.20935e-06
-0.0001224
1.23838e-06
-0.000123126
1.22482e-06
-0.000123855
1.24711e-06
-0.000124585
1.23411e-06
-0.000125313
1.24609e-06
-0.000126042
1.23196e-06
-0.000126767
1.24171e-06
-0.000127494
1.23163e-06
-0.00012822
1.24186e-06
-0.000128942
1.22483e-06
-0.000129654
1.21666e-06
-0.00013035
1.18448e-06
-0.000131026
1.15887e-06
-0.000131682
1.11706e-06
-0.000132314
1.08227e-06
-0.000132917
1.02962e-06
-0.000133487
9.74914e-07
-0.000134017
9.09924e-07
-0.000134506
8.40602e-07
-0.000134946
7.48406e-07
-0.000136546
2.50842e-06
-0.000138081
2.40873e-06
-0.000138374
5.11208e-07
-0.000138609
4.12281e-07
-0.000138789
3.18489e-07
-0.000138913
2.25384e-07
-0.000138983
1.35045e-07
-0.000139002
5.15015e-08
-0.000138969
-3.49425e-08
-0.00013885
-1.75415e-07
-0.000137479
-2.0695e-06
-0.000136147
-2.02789e-06
-0.000135991
-8.13736e-08
-0.000137239
1.79152e-06
-0.000139006
2.81914e-06
-0.000140649
2.90887e-06
-0.000143599
5.12206e-06
-0.000147432
6.64784e-06
-0.000151063
6.38026e-06
-0.000153332
4.14661e-06
-0.000154119
1.77685e-06
-0.00015435
1.13614e-06
-0.000156009
3.86753e-06
-0.000158267
5.19455e-06
-0.000156118
-1.71018e-06
-0.00013877
-2.79145e-05
-9.70491e-05
-7.13091e-05
-3.31095e-05
-0.000111531
3.67695e-05
-0.000122495
0.000100333
-0.000110847
0.000141392
-7.01011e-05
0.000158144
-2.68387e-05
0.000160133
-1.44979e-06
0.000158177
4.70824e-06
0.000155525
5.52286e-06
0.000153434
4.18701e-06
0.000152493
2.11203e-06
0.000149328
5.79793e-06
0.000143128
1.07381e-05
0.000136981
1.05978e-05
0.000132781
7.16961e-06
0.000130948
3.08563e-06
0.000129642
2.15467e-06
0.000128921
9.02929e-07
0.000129401
-6.44576e-07
0.000130915
-2.41369e-06
0.000132517
-2.4154e-06
0.000133058
-9.00282e-07
0.000133558
-8.31936e-07
0.000134029
-7.81443e-07
0.000134447
-6.94145e-07
0.000134794
-5.75144e-07
0.000135058
-4.35495e-07
0.000135234
-2.8433e-07
0.000135321
-1.33214e-07
0.000134193
1.72215e-06
0.000132975
1.86283e-06
0.000132843
2.27372e-07
0.000132644
3.47823e-07
0.000132389
4.43923e-07
0.000132079
4.90551e-07
0.000131725
6.52778e-07
0.000131331
6.36562e-07
0.000130898
7.84797e-07
0.000130433
7.96618e-07
0.000129938
8.47904e-07
0.000129417
8.47393e-07
0.000128876
9.70731e-07
0.000128321
9.04644e-07
0.000127755
1.00358e-06
0.000127181
9.3816e-07
0.000126595
1.03874e-06
0.000126004
9.64873e-07
0.000125405
1.06363e-06
0.000124799
9.83116e-07
0.00012419
1.0853e-06
0.000123575
9.95556e-07
0.000122961
1.09334e-06
0.000122349
9.92943e-07
0.000121741
1.08278e-06
0.000121137
9.74426e-07
0.000120542
1.05996e-06
0.000119956
9.42232e-07
0.00011938
1.031e-06
0.000118812
9.08491e-07
0.000118254
1.00126e-06
0.000117704
8.75364e-07
0.000117163
9.73454e-07
0.000116628
8.47059e-07
0.000116098
9.55044e-07
0.000115577
8.82324e-07
0.000115058
8.75535e-07
0.000114545
8.67289e-07
0.000114036
8.60213e-07
0.000113531
8.52209e-07
0.000113031
8.43868e-07
0.000112533
8.38492e-07
0.00011204
8.29994e-07
0.000111553
8.21019e-07
0.00011107
8.13825e-07
0.000111281
-1.91646e-07
0.000111485
-1.85437e-07
0.000111008
8.02442e-07
0.00011052
7.78886e-07
0.000110037
8.4944e-07
0.000109556
7.69916e-07
0.000109079
8.34431e-07
0.000108604
7.68092e-07
0.000108131
8.23639e-07
0.000107659
7.66175e-07
0.000107186
8.14601e-07
0.000106714
7.90586e-07
0.000106242
7.91654e-07
0.000105769
7.91857e-07
0.000105295
7.94164e-07
0.00010482
7.95838e-07
0.000104343
7.99729e-07
0.000103863
8.04479e-07
0.000103382
8.07459e-07
0.000102898
8.08771e-07
0.000102412
8.07363e-07
0.000101923
8.27503e-07
0.000101431
8.15274e-07
0.000100936
8.38617e-07
0.00010044
8.30892e-07
9.99432e-05
8.33443e-07
9.94437e-05
8.37129e-07
9.89431e-05
8.39127e-07
9.8443e-05
8.38964e-07
9.79417e-05
8.38458e-07
9.74401e-05
8.23735e-07
9.69392e-05
8.56411e-07
9.64407e-05
8.1804e-07
9.59449e-05
8.49447e-07
9.54528e-05
8.24749e-07
9.49645e-05
8.18775e-07
9.44814e-05
8.10112e-07
9.40042e-05
8.00157e-07
9.35335e-05
7.88898e-07
9.30687e-05
7.69935e-07
9.26112e-05
7.76978e-07
9.21643e-05
7.49336e-07
9.17269e-05
7.34934e-07
9.12974e-05
7.21263e-07
9.08789e-05
7.02153e-07
9.04753e-05
6.73779e-07
9.0088e-05
6.52875e-07
8.97095e-05
6.36458e-07
8.93304e-05
6.3911e-07
8.8964e-05
6.18031e-07
8.86529e-05
5.18105e-07
8.84234e-05
3.74487e-07
8.82255e-05
3.22537e-07
8.7951e-05
4.70326e-07
8.75425e-05
7.16077e-07
8.71299e-05
7.18507e-07
8.70334e-05
1.27086e-07
8.74778e-05
-8.51251e-07
8.84638e-05
-1.82391e-06
8.9419e-05
-1.71246e-06
8.96872e-05
-4.04127e-07
8.89815e-05
1.36896e-06
8.72052e-05
3.30787e-06
8.53862e-05
3.30401e-06
8.5422e-05
-2.69055e-07
8.82679e-05
-5.43862e-06
9.43697e-05
-1.14005e-05
0.000106043
-2.18893e-05
0.000119491
-2.52638e-05
0.000107739
2.37417e-05
5.40651e-05
9.81761e-05
-1.34207e-05
0.000114666
-5.17447e-05
6.77659e-05
-1.53107e-05
-6.8748e-05
2.82783e-06
-4.44699e-05
-6.50351e-05
0.000127733
-8.47446e-05
5.39835e-05
-0.000154191
8.92796e-05
5.17128e-06
-0.000244216
7.93199e-05
5.34525e-05
3.5729e-06
0.000189019
2.54154e-05
-7.54298e-05
7.06528e-05
-0.000114757
1.471e-05
0.000122849
-8.66509e-05
0.000211973
-0.000162445
0.000176068
-0.000178376
4.33979e-05
-0.000162442
-3.88975e-05
-0.00014851
-3.4635e-05
-0.000141258
-1.78167e-05
-0.000138204
-7.91494e-06
-0.000138697
6.86011e-07
-0.000141378
6.36132e-06
-0.000143784
5.99522e-06
-0.000144657
2.40606e-06
-0.000144184
-8.03921e-07
-0.000142835
-3.04784e-06
-0.000141496
-3.18431e-06
-0.000140909
-1.48266e-06
-0.000141084
2.43548e-07
-0.000142014
1.96623e-06
-0.000142911
1.9686e-06
-0.000143241
7.35461e-07
-0.000143473
4.70447e-07
-0.00014376
5.74512e-07
-0.000144159
8.29321e-07
-0.000144633
1.00032e-06
-0.000145125
1.033e-06
-0.000145615
1.02371e-06
-0.000146116
1.03959e-06
-0.000146637
1.07911e-06
-0.000147176
1.11831e-06
-0.000147728
1.14228e-06
-0.000148288
1.15807e-06
-0.000148859
1.17835e-06
-0.00014944
1.19278e-06
-0.000150031
1.2229e-06
-0.000150629
1.23503e-06
-0.000151236
1.25072e-06
-0.000151851
1.2676e-06
-0.000152471
1.28061e-06
-0.000153098
1.29521e-06
-0.00015373
1.30483e-06
-0.000154365
1.31151e-06
-0.000155002
1.35096e-06
-0.000155642
1.29094e-06
-0.000156278
1.31847e-06
-0.000156917
1.3196e-06
-0.000157551
1.31547e-06
-0.000158184
1.31068e-06
-0.000158813
1.29987e-06
-0.000159439
1.30866e-06
-0.000160057
1.26962e-06
-0.00016067
1.26471e-06
-0.000161277
1.26294e-06
-0.000161879
1.22146e-06
-0.000162478
1.2593e-06
-0.000163068
1.22143e-06
-0.000163655
1.21453e-06
-0.00016424
1.20677e-06
-0.000164821
1.19807e-06
-0.000165398
1.19094e-06
-0.000165977
1.19213e-06
-0.000166559
1.19549e-06
-0.000167139
1.1408e-06
-0.000167726
1.25641e-06
-0.00016832
1.1684e-06
-0.000168922
1.28449e-06
-0.000169532
1.20927e-06
-0.00017015
1.31473e-06
-0.000169939
-3.71216e-07
-0.00017058
1.29148e-06
-0.000171248
1.3852e-06
-0.000171045
-3.76607e-07
-0.000171736
1.42596e-06
-0.000172446
1.46492e-06
-0.000173176
1.50753e-06
-0.000173924
1.54894e-06
-0.000174691
1.59014e-06
-0.000175475
1.6323e-06
-0.000176281
1.67471e-06
-0.000177107
1.7206e-06
-0.000177952
1.76428e-06
-0.000178816
1.80761e-06
-0.000179701
1.85268e-06
-0.000180603
1.91751e-06
-0.000181525
1.91122e-06
-0.00018247
2.01247e-06
-0.000183434
1.99661e-06
-0.000184412
2.08923e-06
-0.000185405
2.06932e-06
-0.000186416
2.15537e-06
-0.000187441
2.14216e-06
-0.000188481
2.21915e-06
-0.000189532
2.20157e-06
-0.00019059
2.26187e-06
-0.000191659
2.2471e-06
-0.000192738
2.30651e-06
-0.000193825
2.29148e-06
-0.000194918
2.33421e-06
-0.000196014
2.31808e-06
-0.000197114
2.3494e-06
-0.000198213
2.3301e-06
-0.000199311
2.34633e-06
-0.000200404
2.32237e-06
-0.000201496
2.33621e-06
-0.000202588
2.3208e-06
-0.000203677
2.33258e-06
-0.000204761
2.30727e-06
-0.000205827
2.2837e-06
-0.000206868
2.22448e-06
-0.00020788
2.17152e-06
-0.000208859
2.09462e-06
-0.0002098
2.02457e-06
-0.000210698
1.92607e-06
-0.000211543
1.81942e-06
-0.000212328
1.69544e-06
-0.000213051
1.5636e-06
-0.000213715
1.41246e-06
-0.000215638
4.43103e-06
-0.000217447
4.21768e-06
-0.000217858
9.22138e-07
-0.000218178
7.32926e-07
-0.000218414
5.54218e-07
-0.000218569
3.8028e-07
-0.000218642
2.07906e-07
-0.000218638
4.70335e-08
-0.000218547
-1.2529e-07
-0.000218346
-3.76284e-07
-0.000216729
-3.68427e-06
-0.000215132
-3.62775e-06
-0.000214858
-3.03647e-07
-0.000216179
3.06105e-06
-0.000218272
4.89942e-06
-0.000220653
5.30233e-06
-0.000224967
9.43881e-06
-0.00023056
1.22376e-05
-0.000235826
1.16465e-05
-0.000239046
7.36666e-06
-0.000239931
2.66223e-06
-0.000240016
1.22056e-06
-0.000241332
5.18355e-06
-0.000242443
6.30618e-06
-0.00023621
-7.94337e-06
-0.000207036
-5.70887e-05
-0.000143134
-0.000135211
-4.85441e-05
-0.000206121
5.39004e-05
-0.00022494
0.000147978
-0.000204925
0.00021097
-0.000133093
0.000239302
-5.51708e-05
0.000245174
-7.32224e-06
0.000244038
5.84406e-06
0.000241964
7.59751e-06
0.000240309
5.84135e-06
0.000238611
3.81007e-06
0.000233362
1.10469e-05
0.000224259
1.98406e-05
0.000215184
1.96832e-05
0.000208972
1.33709e-05
0.000206301
5.73288e-06
0.000204776
3.70406e-06
0.000204116
1.51419e-06
0.000204871
-1.34957e-06
0.000206851
-4.41727e-06
0.000208923
-4.46826e-06
0.000209744
-1.72108e-06
0.00021052
-1.60835e-06
0.000211245
-1.50652e-06
0.000211892
-1.34079e-06
0.000212432
-1.11531e-06
0.000212851
-8.54724e-07
0.000213137
-5.6995e-07
0.000213287
-2.83673e-07
0.000212031
2.97845e-06
0.000210631
3.26263e-06
0.000210434
4.24329e-07
0.000210153
6.28999e-07
0.000209785
8.11709e-07
0.000209336
9.2501e-07
0.000208818
1.18488e-06
0.000208237
1.20378e-06
0.000207598
1.43723e-06
0.000206909
1.48517e-06
0.000206175
1.58279e-06
0.000205398
1.60893e-06
0.00020459
1.79444e-06
0.000203762
1.71837e-06
0.000202917
1.86142e-06
0.000202055
1.78573e-06
0.000201181
1.92644e-06
0.000200292
1.83955e-06
0.000199394
1.97623e-06
0.000198483
1.87771e-06
0.000197565
2.01919e-06
0.000196641
1.90367e-06
0.000195716
2.03394e-06
0.000194792
1.90155e-06
0.000193871
2.01903e-06
0.00019296
1.86918e-06
0.000192061
1.97608e-06
0.000191173
1.81221e-06
0.000190297
1.92443e-06
0.000189434
1.75356e-06
0.000188587
1.86685e-06
0.000187751
1.69212e-06
0.000186925
1.81859e-06
0.000186107
1.64557e-06
0.0001853
1.78191e-06
0.000184502
1.67975e-06
0.000183708
1.66927e-06
0.000182923
1.65305e-06
0.000182141
1.6418e-06
0.000181364
1.62967e-06
0.000180593
1.6149e-06
0.000179828
1.60248e-06
0.000179069
1.58976e-06
0.000178314
1.57592e-06
0.000177562
1.56496e-06
0.000177777
-4.06656e-07
0.000177988
-3.96321e-07
0.000177251
1.5396e-06
0.000176502
1.51615e-06
0.000175758
1.60542e-06
0.000175022
1.4951e-06
0.000174288
1.57899e-06
0.000173557
1.49035e-06
0.000172826
1.56377e-06
0.000172097
1.48728e-06
0.000171369
1.54995e-06
0.000170643
1.51654e-06
0.000169913
1.52194e-06
0.000169182
1.52297e-06
0.000168452
1.52385e-06
0.000167716
1.53125e-06
0.000166977
1.5391e-06
0.000166236
1.54508e-06
0.000165491
1.55245e-06
0.000164742
1.5583e-06
0.000163987
1.55981e-06
0.000163229
1.58724e-06
0.000162467
1.57483e-06
0.000161699
1.60902e-06
0.00016093
1.60048e-06
0.000160155
1.60783e-06
0.000159378
1.6142e-06
0.0001586
1.617e-06
0.000157819
1.61998e-06
0.000157042
1.61583e-06
0.000156258
1.60216e-06
0.000155479
1.64088e-06
0.000154701
1.5904e-06
0.000153925
1.63127e-06
0.000153156
1.5936e-06
0.000152394
1.58071e-06
0.000151637
1.56679e-06
0.000150889
1.5478e-06
0.000150153
1.52551e-06
0.000149424
1.49546e-06
0.000148708
1.49636e-06
0.000148008
1.44936e-06
0.000147322
1.42121e-06
0.000146648
1.39479e-06
0.000145992
1.3577e-06
0.00014536
1.30551e-06
0.00014475
1.26331e-06
0.000144156
1.23026e-06
0.000143565
1.23035e-06
0.000142993
1.19e-06
0.000142499
1.01251e-06
0.000142116
7.57079e-07
0.000141787
6.51534e-07
0.000141369
8.88157e-07
0.000140776
1.30926e-06
0.000140168
1.32649e-06
0.000139965
3.30732e-07
0.000140482
-1.36866e-06
0.000141753
-3.09468e-06
0.000143055
-3.01446e-06
0.00014352
-8.69371e-07
0.000142706
2.18308e-06
0.00014045
5.56362e-06
0.000138013
5.74143e-06
0.000137827
-8.38529e-08
0.000141261
-8.87229e-06
0.000149023
-1.9162e-05
0.000163679
-3.65461e-05
0.000180953
-4.25372e-05
0.000167998
3.66966e-05
9.64894e-05