/*--------------------------------*- C++ -*----------------------------------*\
| =========                 |                                                 |
| \\      /  F ield         | OpenFOAM: The Open Source CFD Toolbox           |
|  \\    /   O peration     | Version:  2412                                  |
|   \\  /    A nd           | Website:  www.openfoam.com                      |
|    \\/     M anipulation  |                                                 |
\*---------------------------------------------------------------------------*/
FoamFile
{
    version     2.0;
    format      ascii;
    arch        "LSB;label=32;scalar=64";
    class       surfaceScalarField;
    location    "60";
    object      phi;
}
// * * * * * * * * * * * * * * * * * * * * * * * * * * * * * * * * * * * * * //

dimensions      [0 3 -1 0 0 0 0];

oriented        oriented;

internalField   nonuniform List<scalar> 
58903
(
5.78731e-06
7.39553e-08
-5.86128e-06
3.11338e-06
2.67391e-06
-4.25665e-07
3.53903e-06
7.02543e-07
-1.12822e-06
1.88843e-06
-1.18591e-06
-5.48427e-07
2.43684e-06
-4.02626e-06
3.47782e-06
-5.69897e-06
1.67269e-06
-5.23292e-06
-4.6607e-07
-4.36678e-06
-8.66168e-07
-3.88396e-06
-4.82829e-07
-3.63353e-06
-2.50494e-07
-3.53649e-06
-9.70528e-08
-3.56581e-06
2.91937e-08
-3.64744e-06
8.16895e-08
-3.69425e-06
4.67839e-08
-3.69304e-06
-1.25842e-09
-3.65306e-06
-4.001e-08
-3.58655e-06
-6.65468e-08
-3.52828e-06
-5.82988e-08
-3.49623e-06
-3.23294e-08
-3.48725e-06
-8.86518e-09
-3.49198e-06
4.68453e-09
-3.49652e-06
4.48152e-09
-3.49517e-06
-1.41363e-09
-3.48998e-06
-5.2558e-09
-3.48539e-06
-4.75497e-09
-3.48442e-06
-9.6633e-10
-3.48628e-06
1.72477e-09
-3.48939e-06
3.0052e-09
-3.49245e-06
2.95461e-09
-3.49565e-06
3.08473e-09
-3.49928e-06
3.51346e-09
-3.50357e-06
4.18203e-09
-3.50844e-06
4.67185e-09
-3.51344e-06
4.96312e-09
-3.51888e-06
5.16817e-09
-3.52451e-06
5.60925e-09
-3.5304e-06
5.73064e-09
-3.53643e-06
5.86969e-09
-3.54278e-06
6.21241e-09
-3.54927e-06
6.33072e-09
-3.55604e-06
6.67775e-09
-3.5629e-06
7.50307e-09
-3.56992e-06
6.08286e-09
-3.5771e-06
8.27961e-09
-3.58441e-06
5.90891e-09
-3.59184e-06
8.63856e-09
-3.59917e-06
5.79319e-09
-3.60653e-06
7.11181e-09
-3.61413e-06
7.49048e-09
-3.62158e-06
7.17197e-09
-3.62923e-06
7.52756e-09
-3.63675e-06
7.30449e-09
-3.64415e-06
7.34146e-09
-3.6517e-06
7.23132e-09
-3.65919e-06
5.21282e-09
-3.66667e-06
8.9729e-09
-3.67393e-06
4.48344e-09
-3.68126e-06
9.45435e-09
-3.68864e-06
4.00981e-09
-3.69614e-06
1.0312e-08
-3.70351e-06
7.16992e-09
-3.71093e-06
7.08017e-09
-3.71865e-06
7.19591e-09
-3.72638e-06
7.55297e-09
-3.73445e-06
7.5705e-09
-3.74259e-06
7.97191e-09
-3.75105e-06
7.9938e-09
-3.75984e-06
8.67117e-09
-3.76894e-06
8.69688e-09
-3.77827e-06
9.28415e-09
-3.78821e-06
9.7715e-09
-3.79829e-06
9.44135e-09
-3.80915e-06
1.23732e-08
-3.82043e-06
9.26516e-09
-3.83229e-06
1.34234e-08
-3.84451e-06
9.64185e-09
-3.85739e-06
1.57007e-08
-3.87085e-06
1.02271e-08
-3.88511e-06
1.69039e-08
-3.89982e-06
1.09022e-08
-3.91536e-06
1.92501e-08
-3.93162e-06
1.20478e-08
-3.94849e-06
2.02318e-08
-3.96612e-06
1.35567e-08
-3.98454e-06
1.83278e-08
-4.00376e-06
1.88974e-08
-4.0236e-06
1.96803e-08
-4.04429e-06
2.04972e-08
-4.06572e-06
2.1155e-08
-4.08781e-06
2.18531e-08
-4.11069e-06
2.27849e-08
-4.13424e-06
2.33634e-08
-4.15853e-06
2.42843e-08
-4.18347e-06
2.48377e-08
-4.20894e-06
2.55125e-08
-4.23508e-06
2.61588e-08
-4.26163e-06
2.64913e-08
-4.2887e-06
2.69394e-08
-4.31609e-06
2.73792e-08
-4.34387e-06
2.77656e-08
-4.37185e-06
2.79153e-08
-4.40009e-06
2.82637e-08
-4.42842e-06
2.81326e-08
-4.45681e-06
2.82756e-08
-4.48502e-06
2.81048e-08
-4.51299e-06
2.79438e-08
-4.54072e-06
2.76707e-08
-4.56797e-06
2.72542e-08
-4.5948e-06
2.67988e-08
-4.62132e-06
2.65234e-08
-4.64719e-06
2.58114e-08
-4.67237e-06
2.51745e-08
-4.69645e-06
2.40446e-08
-4.71946e-06
2.30007e-08
-4.7411e-06
2.15977e-08
-4.76127e-06
2.01688e-08
-4.77991e-06
1.86108e-08
-4.79672e-06
1.68033e-08
-4.81158e-06
1.47896e-08
-4.82411e-06
1.25324e-08
-4.8345e-06
1.07811e-08
-4.84247e-06
7.42997e-09
-4.84812e-06
5.21166e-09
-4.85084e-06
3.24408e-09
-4.85051e-06
-1.61924e-10
-4.84747e-06
-3.25188e-09
-4.84147e-06
-6.43779e-09
-4.83225e-06
-8.73124e-09
-4.82043e-06
-1.31822e-08
-4.80632e-06
-1.28095e-08
-4.79039e-06
-1.69835e-08
-4.7735e-06
-1.57683e-08
-4.75759e-06
-1.59094e-08
-4.75026e-06
-7.32257e-09
-4.76838e-06
1.81068e-08
-4.83575e-06
6.73613e-08
-4.96225e-06
1.26522e-07
-5.12223e-06
1.59968e-07
-5.26957e-06
1.47381e-07
-5.38235e-06
1.12772e-07
-5.48887e-06
1.06556e-07
-5.65689e-06
1.6802e-07
-5.86886e-06
2.12046e-07
-5.98989e-06
1.21076e-07
-5.69459e-06
-2.9513e-07
-4.25825e-06
-1.43215e-06
-1.51325e-06
-2.74925e-06
1.64629e-06
-3.15542e-06
4.37407e-06
-2.73192e-06
5.77814e-06
-1.40406e-06
6.03789e-06
-2.59822e-07
5.8946e-06
1.43275e-07
5.65475e-06
2.39837e-07
5.44114e-06
2.136e-07
5.25483e-06
1.863e-07
5.02459e-06
2.30232e-07
4.76662e-06
2.57954e-07
4.55597e-06
2.10626e-07
4.44402e-06
1.11925e-07
4.42059e-06
2.34163e-08
4.44424e-06
-2.36431e-08
4.48233e-06
-3.81017e-08
4.52118e-06
-3.89128e-08
4.55717e-06
-4.6137e-08
4.59022e-06
-2.29503e-08
4.61989e-06
-2.76215e-08
4.64589e-06
-2.8392e-08
4.66819e-06
-2.88209e-08
4.68626e-06
-1.10625e-08
4.70034e-06
-2.37812e-08
4.71078e-06
-4.92706e-10
4.71752e-06
-1.19401e-08
4.72081e-06
1.66934e-09
4.7213e-06
-5.46006e-09
4.7189e-06
7.30623e-09
4.7141e-06
4.76702e-09
4.70677e-06
7.36217e-09
4.69731e-06
9.43707e-09
4.68582e-06
1.1477e-08
4.67259e-06
1.32636e-08
4.65768e-06
1.49253e-08
4.64126e-06
1.64073e-08
4.62366e-06
1.75798e-08
4.60483e-06
1.88161e-08
4.58517e-06
1.9618e-08
4.56472e-06
2.03946e-08
4.54377e-06
2.08555e-08
4.5222e-06
2.15864e-08
4.4999e-06
2.2267e-08
4.47712e-06
2.27407e-08
4.4539e-06
2.31348e-08
4.43031e-06
2.3533e-08
4.40662e-06
2.35791e-08
4.38286e-06
2.36349e-08
4.35918e-06
2.3491e-08
4.33549e-06
2.36705e-08
4.31196e-06
2.34472e-08
4.28854e-06
2.33616e-08
4.26546e-06
2.29984e-08
4.24266e-06
2.27757e-08
4.22038e-06
2.21866e-08
4.19848e-06
2.18356e-08
4.17705e-06
2.13534e-08
4.15613e-06
2.0868e-08
4.13567e-06
2.03514e-08
4.11575e-06
1.98416e-08
4.0963e-06
1.93487e-08
4.07743e-06
1.88321e-08
4.0592e-06
1.81289e-08
4.04134e-06
1.78625e-08
4.02405e-06
1.71894e-08
4.00721e-06
1.14585e-08
3.99088e-06
2.14582e-08
3.97491e-06
9.91179e-09
3.95938e-06
2.13233e-08
3.94445e-06
8.45187e-09
3.9297e-06
2.09827e-08
3.91545e-06
8.62779e-09
3.90146e-06
1.92191e-08
3.88784e-06
7.81744e-09
3.87435e-06
1.90193e-08
3.86114e-06
8.26016e-09
3.84805e-06
1.76614e-08
3.83551e-06
8.02751e-09
3.82288e-06
1.68198e-08
3.81064e-06
1.21603e-08
3.7984e-06
1.21472e-08
3.7863e-06
1.20184e-08
3.77436e-06
1.18452e-08
3.76262e-06
1.15687e-08
3.75081e-06
1.15301e-08
3.73925e-06
1.14817e-08
3.72766e-06
1.15102e-08
3.71633e-06
1.10979e-08
3.70507e-06
1.11526e-08
3.69369e-06
1.00641e-08
3.68247e-06
1.2247e-08
3.67136e-06
1.0248e-08
3.6604e-06
1.15855e-08
3.64931e-06
1.0499e-08
3.63833e-06
1.14133e-08
3.62741e-06
1.05858e-08
3.61675e-06
1.05591e-08
3.60607e-06
1.05769e-08
3.59539e-06
1.04564e-08
3.585e-06
1.02501e-08
3.57457e-06
1.02356e-08
3.56443e-06
9.99874e-09
3.55445e-06
9.85025e-09
3.54441e-06
1.01288e-08
3.53455e-06
9.4323e-09
3.52488e-06
9.77501e-09
3.5154e-06
9.10931e-09
3.50613e-06
9.14247e-09
3.49697e-06
9.08233e-09
3.48814e-06
8.7638e-09
3.47946e-06
8.62066e-09
3.47114e-06
8.25484e-09
3.46299e-06
8.08983e-09
3.45512e-06
7.81872e-09
3.44749e-06
7.92246e-09
3.44031e-06
6.72826e-09
3.43328e-06
6.97522e-09
3.42685e-06
6.38815e-09
3.42109e-06
5.70168e-09
3.41573e-06
5.31521e-09
3.41052e-06
5.64985e-09
3.4052e-06
4.77168e-09
3.40108e-06
4.44356e-09
3.3997e-06
9.15791e-10
3.40179e-06
-2.12485e-09
3.40439e-06
-2.6347e-09
3.40314e-06
1.21344e-09
3.39607e-06
7.03836e-09
3.38889e-06
7.3894e-09
3.39514e-06
-6.51969e-09
3.42381e-06
-2.85033e-08
3.4779e-06
-5.43269e-08
3.53995e-06
-6.20691e-08
3.57619e-06
-3.62459e-08
3.57492e-06
1.24919e-09
3.52731e-06
4.75914e-08
3.4461e-06
8.12862e-08
3.41586e-06
3.01132e-08
3.50768e-06
-9.17865e-08
3.74656e-06
-2.38953e-07
4.20745e-06
-4.60906e-07
5.03473e-06
-8.27293e-07
5.4772e-06
-4.42487e-07
3.85398e-06
1.6232e-06
5.20134e-07
3.33372e-06
-1.82298e-06
2.34319e-06
-6.93627e-07
-1.12936e-06
4.79778e-07
-1.17342e-06
-2.91273e-06
3.39249e-06
-5.70033e-06
2.78759e-06
-5.62639e-06
1.77295e-05
2.45263e-07
-2.3836e-05
1.10156e-05
9.38774e-06
-3.98005e-07
1.49526e-05
2.36914e-06
-3.8954e-06
5.79003e-06
-4.60684e-06
-2.79373e-06
1.10206e-05
-1.43793e-05
1.50634e-05
-1.94841e-05
6.77741e-06
-1.79636e-05
-1.98655e-06
-1.51932e-05
-3.63662e-06
-1.36318e-05
-2.0443e-06
-1.28247e-05
-1.05766e-06
-1.25216e-05
-4.00174e-07
-1.26213e-05
1.28701e-07
-1.288e-05
3.40416e-07
-1.30241e-05
1.90864e-07
-1.30094e-05
-1.60217e-08
-1.28683e-05
-1.81164e-07
-1.26464e-05
-2.88506e-07
-1.24537e-05
-2.51113e-07
-1.23483e-05
-1.38178e-07
-1.23186e-05
-3.8396e-08
-1.23331e-05
1.91692e-08
-1.23467e-05
1.79494e-08
-1.2341e-05
-7.20254e-09
-1.2323e-05
-2.33645e-08
-1.23077e-05
-2.03236e-08
-1.23044e-05
-4.24564e-09
-1.23115e-05
8.51845e-09
-1.23217e-05
1.30054e-08
-1.23327e-05
1.37956e-08
-1.23438e-05
1.40221e-08
-1.23569e-05
1.63828e-08
-1.23726e-05
1.96709e-08
-1.23895e-05
2.12833e-08
-1.24081e-05
2.34389e-08
-1.24271e-05
2.38038e-08
-1.24475e-05
2.58719e-08
-1.24685e-05
2.64954e-08
-1.24907e-05
2.77958e-08
-1.25135e-05
2.8716e-08
-1.2537e-05
2.95738e-08
-1.25613e-05
3.08255e-08
-1.25863e-05
3.34362e-08
-1.26115e-05
2.97823e-08
-1.26375e-05
3.60448e-08
-1.26638e-05
2.99307e-08
-1.26905e-05
3.71856e-08
-1.27176e-05
3.05305e-08
-1.27446e-05
3.369e-08
-1.27719e-05
3.46e-08
-1.27993e-05
3.40483e-08
-1.28265e-05
3.45248e-08
-1.28541e-05
3.45106e-08
-1.28811e-05
3.42696e-08
-1.29083e-05
3.37971e-08
-1.2935e-05
2.83629e-08
-1.29625e-05
3.87526e-08
-1.29894e-05
2.70277e-08
-1.3016e-05
3.92856e-08
-1.30428e-05
2.55632e-08
-1.30696e-05
4.13361e-08
-1.30972e-05
3.44814e-08
-1.31249e-05
3.41737e-08
-1.31529e-05
3.42466e-08
-1.31814e-05
3.57985e-08
-1.32108e-05
3.6046e-08
-1.32412e-05
3.80924e-08
-1.32723e-05
3.82774e-08
-1.33043e-05
4.04757e-08
-1.33375e-05
4.12342e-08
-1.33724e-05
4.40838e-08
-1.34085e-05
4.5509e-08
-1.34466e-05
4.65611e-08
-1.34858e-05
5.3908e-08
-1.35275e-05
4.77605e-08
-1.35708e-05
5.90481e-08
-1.36159e-05
5.07079e-08
-1.36632e-05
6.73055e-08
-1.37127e-05
5.47497e-08
-1.37644e-05
7.25552e-08
-1.38186e-05
5.91117e-08
-1.3875e-05
8.13488e-08
-1.39336e-05
6.41598e-08
-1.39947e-05
8.64754e-08
-1.4059e-05
7.14629e-08
-1.41257e-05
8.49051e-08
-1.41945e-05
8.71196e-08
-1.42664e-05
9.13876e-08
-1.43411e-05
9.48e-08
-1.44177e-05
9.73827e-08
-1.44968e-05
1.00511e-07
-1.45789e-05
1.04752e-07
-1.46635e-05
1.07618e-07
-1.47502e-05
1.10956e-07
-1.48389e-05
1.13367e-07
-1.49299e-05
1.16642e-07
-1.50226e-05
1.18908e-07
-1.5117e-05
1.20757e-07
-1.52127e-05
1.22481e-07
-1.53103e-05
1.24896e-07
-1.54084e-05
1.25919e-07
-1.55076e-05
1.27032e-07
-1.56074e-05
1.28087e-07
-1.57075e-05
1.27858e-07
-1.58076e-05
1.28191e-07
-1.59068e-05
1.27145e-07
-1.60055e-05
1.26624e-07
-1.61031e-05
1.25187e-07
-1.61989e-05
1.23068e-07
-1.62932e-05
1.21059e-07
-1.63861e-05
1.19426e-07
-1.6477e-05
1.16613e-07
-1.65649e-05
1.13055e-07
-1.66495e-05
1.08595e-07
-1.67298e-05
1.03277e-07
-1.68053e-05
9.70648e-08
-1.68758e-05
9.06555e-08
-1.69404e-05
8.31941e-08
-1.69984e-05
7.4808e-08
-1.70496e-05
6.58773e-08
-1.7093e-05
5.59502e-08
-1.71284e-05
4.68079e-08
-1.71555e-05
3.36159e-08
-1.71733e-05
2.24009e-08
-1.71812e-05
1.20322e-08
-1.71788e-05
-2.31512e-09
-1.71669e-05
-1.55452e-08
-1.71441e-05
-2.98524e-08
-1.71104e-05
-4.16175e-08
-1.70678e-05
-5.79306e-08
-1.70168e-05
-6.17929e-08
-1.69592e-05
-7.62122e-08
-1.68981e-05
-7.50914e-08
-1.6841e-05
-7.29982e-08
-1.68135e-05
-3.48056e-08
-1.68758e-05
8.03634e-08
-1.71106e-05
3.02157e-07
-1.7549e-05
5.65024e-07
-1.80955e-05
7.06373e-07
-1.85883e-05
6.40327e-07
-1.89472e-05
4.71589e-07
-1.92702e-05
4.29629e-07
-1.97817e-05
6.79606e-07
-2.04082e-05
8.38631e-07
-2.06953e-05
4.08244e-07
-1.94986e-05
-1.49152e-06
-1.44675e-05
-6.45661e-06
-5.12074e-06
-1.21027e-05
5.57251e-06
-1.38422e-05
1.48631e-05
-1.2029e-05
1.97889e-05
-6.32992e-06
2.08671e-05
-1.33811e-06
2.05033e-05
5.07057e-07
1.97834e-05
9.5973e-07
1.91161e-05
8.80831e-07
1.85165e-05
7.85909e-07
1.7745e-05
1.00167e-06
1.6857e-05
1.14597e-06
1.61217e-05
9.45864e-07
1.57254e-05
5.08236e-07
1.56413e-05
1.0751e-07
1.57255e-05
-1.07862e-07
1.58618e-05
-1.7446e-07
1.60005e-05
-1.77656e-07
1.61296e-05
-1.90761e-07
1.62482e-05
-1.26172e-07
1.63549e-05
-1.31212e-07
1.64485e-05
-1.25592e-07
1.6529e-05
-1.19255e-07
1.65949e-05
-6.6193e-08
1.66463e-05
-9.0047e-08
1.66848e-05
-2.37894e-08
1.67106e-05
-4.56192e-08
1.67245e-05
-4.67736e-09
1.67275e-05
-1.60933e-08
1.67205e-05
2.18494e-08
1.67045e-05
2.07209e-08
1.66799e-05
3.20021e-08
1.66478e-05
4.14425e-08
1.66085e-05
5.08357e-08
1.65625e-05
5.93162e-08
1.65107e-05
6.67443e-08
1.64536e-05
7.34395e-08
1.63918e-05
7.93218e-08
1.63263e-05
8.43033e-08
1.62573e-05
8.85526e-08
1.61858e-05
9.18161e-08
1.61123e-05
9.42717e-08
1.60365e-05
9.73977e-08
1.5958e-05
1.00661e-07
1.58776e-05
1.0307e-07
1.57961e-05
1.04583e-07
1.57129e-05
1.06556e-07
1.56293e-05
1.07022e-07
1.55454e-05
1.07307e-07
1.54615e-05
1.07123e-07
1.53779e-05
1.07278e-07
1.52941e-05
1.07064e-07
1.52114e-05
1.05989e-07
1.51295e-05
1.0478e-07
1.50487e-05
1.03473e-07
1.49692e-05
1.01578e-07
1.48915e-05
9.94613e-08
1.48152e-05
9.75304e-08
1.47402e-05
9.57833e-08
1.46669e-05
9.34426e-08
1.45958e-05
9.07504e-08
1.45265e-05
8.85083e-08
1.44587e-05
8.66085e-08
1.43928e-05
8.38433e-08
1.43292e-05
8.14586e-08
1.42669e-05
7.93138e-08
1.42059e-05
6.41902e-08
1.41471e-05
8.80668e-08
1.40899e-05
5.7785e-08
1.4034e-05
8.61184e-08
1.39794e-05
5.30469e-08
1.39265e-05
8.34867e-08
1.38746e-05
5.18653e-08
1.38238e-05
7.80147e-08
1.37741e-05
4.85603e-08
1.37254e-05
7.62226e-08
1.36772e-05
4.87358e-08
1.36304e-05
7.14509e-08
1.35839e-05
4.76087e-08
1.35384e-05
6.86421e-08
1.34935e-05
5.69702e-08
1.34493e-05
5.6161e-08
1.34057e-05
5.54806e-08
1.33624e-05
5.50056e-08
1.33193e-05
5.4385e-08
1.32767e-05
5.35982e-08
1.32346e-05
5.34749e-08
1.31928e-05
5.31493e-08
1.31512e-05
5.23258e-08
1.31096e-05
5.25413e-08
1.30689e-05
4.86886e-08
1.30283e-05
5.44034e-08
1.29881e-05
4.91156e-08
1.29478e-05
5.28055e-08
1.29072e-05
5.01565e-08
1.28678e-05
5.14973e-08
1.28284e-05
4.93792e-08
1.27896e-05
4.92533e-08
1.27505e-05
4.94803e-08
1.27122e-05
4.83203e-08
1.26742e-05
4.80906e-08
1.26365e-05
4.75272e-08
1.25994e-05
4.69082e-08
1.25625e-05
4.64596e-08
1.25263e-05
4.644e-08
1.24908e-05
4.42707e-08
1.24557e-05
4.50431e-08
1.24215e-05
4.26546e-08
1.23879e-05
4.25616e-08
1.23549e-05
4.18851e-08
1.23229e-05
4.06379e-08
1.22918e-05
3.96477e-08
1.22614e-05
3.8589e-08
1.22322e-05
3.71689e-08
1.22038e-05
3.60823e-08
1.21768e-05
3.53455e-08
1.21504e-05
3.24045e-08
1.21257e-05
3.16013e-08
1.21023e-05
2.97317e-08
1.20815e-05
2.64067e-08
1.20625e-05
2.42387e-08
1.20436e-05
2.51986e-08
1.20254e-05
2.21146e-08
1.20101e-05
2.02611e-08
1.20048e-05
5.44523e-09
1.2011e-05
-8.39653e-09
1.20197e-05
-1.13466e-08
1.2016e-05
4.85465e-09
1.19933e-05
2.96908e-08
1.19698e-05
3.11511e-08
1.19899e-05
-2.69881e-08
1.20835e-05
-1.21914e-07
1.22621e-05
-2.33285e-07
1.24688e-05
-2.68845e-07
1.25969e-05
-1.6434e-07
1.26026e-05
-4.51315e-09
1.2455e-05
1.95181e-07
1.21969e-05
3.39517e-07
1.2094e-05
1.32812e-07
1.23809e-05
-3.78622e-07
1.31518e-05
-1.01001e-06
1.46449e-05
-1.95399e-06
1.72954e-05
-3.47786e-06
1.87436e-05
-1.89072e-06
1.37881e-05
6.57866e-06
2.68303e-06
1.44386e-05
-5.61351e-06
1.06399e-05
-2.33081e-06
-4.41206e-06
6.1441e-07
-4.11866e-06
-1.03927e-05
1.43996e-05
-1.76314e-05
1.00262e-05
-2.30125e-05
3.1316e-05
5.30777e-07
-5.56828e-05
2.15572e-05
1.91465e-05
8.42807e-07
3.5667e-05
4.56119e-06
-7.61381e-06
9.98888e-06
-1.00346e-05
-7.00915e-06
2.80186e-05
-2.88226e-05
3.68768e-05
-3.77341e-05
1.56889e-05
-3.48303e-05
-4.89037e-06
-2.98202e-05
-8.64686e-06
-2.69747e-05
-4.88983e-06
-2.55085e-05
-2.52394e-06
-2.49731e-05
-9.35584e-07
-2.51688e-05
3.24185e-07
-2.56335e-05
8.05205e-07
-2.58836e-05
4.40921e-07
-2.58376e-05
-6.21558e-08
-2.55585e-05
-4.60216e-07
-2.51393e-05
-7.07868e-07
-2.47793e-05
-6.11081e-07
-2.45831e-05
-3.34833e-07
-2.45289e-05
-9.24327e-08
-2.45543e-05
4.44578e-08
-2.45776e-05
4.11554e-08
-2.45649e-05
-1.99948e-08
-2.45314e-05
-5.69792e-08
-2.45037e-05
-4.83279e-08
-2.44993e-05
-8.63928e-09
-2.45127e-05
2.15983e-08
-2.45345e-05
3.46314e-08
-2.45568e-05
3.59578e-08
-2.45803e-05
3.73244e-08
-2.46078e-05
4.36588e-08
-2.464e-05
5.16783e-08
-2.46758e-05
5.67267e-08
-2.47135e-05
6.10255e-08
-2.47537e-05
6.35769e-08
-2.47956e-05
6.76915e-08
-2.48395e-05
7.01068e-08
-2.48853e-05
7.32892e-08
-2.49328e-05
7.59725e-08
-2.49819e-05
7.83957e-08
-2.50325e-05
8.12735e-08
-2.5084e-05
8.59317e-08
-2.51371e-05
8.14087e-08
-2.51909e-05
9.15336e-08
-2.52456e-05
8.24005e-08
-2.5301e-05
9.44207e-08
-2.53568e-05
8.39009e-08
-2.5413e-05
8.93935e-08
-2.54695e-05
9.09468e-08
-2.55263e-05
9.02942e-08
-2.55831e-05
9.11708e-08
-2.56395e-05
9.05118e-08
-2.56971e-05
9.16865e-08
-2.57528e-05
8.89481e-08
-2.58098e-05
8.16637e-08
-2.58653e-05
9.65741e-08
-2.59215e-05
7.87641e-08
-2.59778e-05
9.88702e-08
-2.60339e-05
7.62894e-08
-2.6091e-05
1.02767e-07
-2.61479e-05
9.1029e-08
-2.62059e-05
9.1585e-08
-2.6265e-05
9.23588e-08
-2.6325e-05
9.55175e-08
-2.63875e-05
9.76498e-08
-2.6451e-05
1.01305e-07
-2.65162e-05
1.02592e-07
-2.65845e-05
1.08636e-07
-2.66555e-05
1.11504e-07
-2.67291e-05
1.17592e-07
-2.68058e-05
1.21866e-07
-2.68853e-05
1.24957e-07
-2.69687e-05
1.39623e-07
-2.70558e-05
1.3155e-07
-2.71462e-05
1.51873e-07
-2.72409e-05
1.4122e-07
-2.73399e-05
1.70714e-07
-2.74434e-05
1.53094e-07
-2.75512e-05
1.84336e-07
-2.76632e-05
1.64982e-07
-2.77803e-05
2.04324e-07
-2.79023e-05
1.79367e-07
-2.80287e-05
2.18113e-07
-2.81596e-05
1.95846e-07
-2.8297e-05
2.22079e-07
-2.84393e-05
2.28865e-07
-2.85861e-05
2.3791e-07
-2.87377e-05
2.46011e-07
-2.8894e-05
2.53197e-07
-2.90559e-05
2.61959e-07
-2.92215e-05
2.70245e-07
-2.93924e-05
2.78187e-07
-2.95674e-05
2.85932e-07
-2.97472e-05
2.92974e-07
-2.99307e-05
3.0016e-07
-3.01171e-05
3.05339e-07
-3.03065e-05
3.1011e-07
-3.04991e-05
3.14827e-07
-3.06938e-05
3.19553e-07
-3.08908e-05
3.22909e-07
-3.1089e-05
3.25126e-07
-3.1288e-05
3.27094e-07
-3.14875e-05
3.27003e-07
-3.16859e-05
3.26332e-07
-3.18836e-05
3.24734e-07
-3.20796e-05
3.22526e-07
-3.22727e-05
3.18148e-07
-3.24633e-05
3.1371e-07
-3.26503e-05
3.07986e-07
-3.28334e-05
3.02563e-07
-3.3013e-05
2.96108e-07
-3.31872e-05
2.87231e-07
-3.33539e-05
2.7519e-07
-3.35114e-05
2.60817e-07
-3.36594e-05
2.44992e-07
-3.37971e-05
2.28293e-07
-3.39241e-05
2.1012e-07
-3.40376e-05
1.88362e-07
-3.41371e-05
1.65212e-07
-3.42213e-05
1.40178e-07
-3.4289e-05
1.1511e-07
-3.43395e-05
8.32615e-08
-3.43733e-05
5.54601e-08
-3.43854e-05
2.50222e-08
-3.43782e-05
-9.33682e-09
-3.43509e-05
-4.31745e-08
-3.43032e-05
-7.81741e-08
-3.42359e-05
-1.08224e-07
-3.41486e-05
-1.47351e-07
-3.40455e-05
-1.62858e-07
-3.3931e-05
-1.92358e-07
-3.38087e-05
-1.95622e-07
-3.36952e-05
-1.86537e-07
-3.36427e-05
-8.73071e-08
-3.37691e-05
2.06814e-07
-3.42354e-05
7.68404e-07
-3.5093e-05
1.4227e-06
-3.61456e-05
1.75889e-06
-3.70668e-05
1.56159e-06
-3.77014e-05
1.1062e-06
-3.82394e-05
9.67686e-07
-3.91015e-05
1.54169e-06
-4.01296e-05
1.86687e-06
-4.04362e-05
7.14969e-07
-3.77956e-05
-4.13185e-06
-2.78538e-05
-1.63921e-05
-9.82326e-06
-3.01397e-05
1.06919e-05
-3.43512e-05
2.86185e-05
-2.99618e-05
3.83657e-05
-1.60771e-05
4.07825e-05
-3.75502e-06
4.03294e-05
9.6011e-07
3.91262e-05
2.16291e-06
3.79685e-05
2.03852e-06
3.68947e-05
1.85968e-06
3.54461e-05
2.45022e-06
3.37274e-05
2.86466e-06
3.22721e-05
2.4012e-06
3.14721e-05
1.30816e-06
3.12927e-05
2.8691e-07
3.14549e-05
-2.70064e-07
3.17248e-05
-4.44376e-07
3.20021e-05
-4.55088e-07
3.22614e-05
-4.66376e-07
3.24993e-05
-3.47889e-07
3.27154e-05
-3.44046e-07
3.29059e-05
-3.19925e-07
3.30684e-05
-2.92174e-07
3.32035e-05
-1.90024e-07
3.33107e-05
-2.12699e-07
3.3391e-05
-8.81223e-08
3.34467e-05
-1.09685e-07
3.34769e-05
-2.70026e-08
3.34868e-05
-3.38881e-08
3.3476e-05
4.04736e-08
3.34466e-05
5.00506e-08
3.34003e-05
7.83315e-08
3.33386e-05
1.03181e-07
3.32619e-05
1.27472e-07
3.3173e-05
1.48297e-07
3.30722e-05
1.67557e-07
3.29608e-05
1.84785e-07
3.28395e-05
2.00583e-07
3.27098e-05
2.14033e-07
3.25736e-05
2.24605e-07
3.24329e-05
2.32398e-07
3.22872e-05
2.3988e-07
3.21363e-05
2.48293e-07
3.19813e-05
2.55555e-07
3.18219e-05
2.62424e-07
3.16593e-05
2.6705e-07
3.14948e-05
2.70901e-07
3.13281e-05
2.73505e-07
3.1161e-05
2.74239e-07
3.09934e-05
2.74384e-07
3.08256e-05
2.75054e-07
3.06586e-05
2.73857e-07
3.04924e-05
2.72077e-07
3.03282e-05
2.68879e-07
3.01661e-05
2.65494e-07
3.00061e-05
2.61443e-07
2.98488e-05
2.56661e-07
2.96951e-05
2.51085e-07
2.9544e-05
2.46722e-07
2.93968e-05
2.40493e-07
2.92518e-05
2.3563e-07
2.9111e-05
2.29041e-07
2.8974e-05
2.23565e-07
2.88404e-05
2.17324e-07
2.87095e-05
2.12334e-07
2.8582e-05
2.06574e-07
2.84588e-05
1.78871e-07
2.83382e-05
2.16773e-07
2.82203e-05
1.65963e-07
2.81054e-05
2.10277e-07
2.79937e-05
1.54325e-07
2.78846e-05
2.02509e-07
2.77774e-05
1.50054e-07
2.76725e-05
1.91232e-07
2.75698e-05
1.42023e-07
2.74695e-05
1.85272e-07
2.73704e-05
1.39888e-07
2.72728e-05
1.76304e-07
2.71772e-05
1.3596e-07
2.70827e-05
1.69743e-07
2.69896e-05
1.49928e-07
2.68973e-05
1.48316e-07
2.68061e-05
1.46493e-07
2.67169e-05
1.44078e-07
2.66281e-05
1.42839e-07
2.65393e-05
1.41928e-07
2.64521e-05
1.40546e-07
2.63653e-05
1.3979e-07
2.62792e-05
1.38038e-07
2.61941e-05
1.37466e-07
2.61086e-05
1.3199e-07
2.60244e-05
1.40208e-07
2.59402e-05
1.31902e-07
2.58567e-05
1.37349e-07
2.57742e-05
1.31621e-07
2.56912e-05
1.3519e-07
2.56102e-05
1.2978e-07
2.55281e-05
1.31139e-07
2.5448e-05
1.29459e-07
2.53682e-05
1.27751e-07
2.52892e-05
1.26778e-07
2.52112e-05
1.2522e-07
2.5134e-05
1.23796e-07
2.50581e-05
1.2213e-07
2.4983e-05
1.21657e-07
2.4909e-05
1.17535e-07
2.48365e-05
1.17718e-07
2.47649e-05
1.13617e-07
2.46954e-05
1.11865e-07
2.4627e-05
1.10098e-07
2.45605e-05
1.07025e-07
2.44959e-05
1.04196e-07
2.44332e-05
1.01111e-07
2.43727e-05
9.75636e-08
2.43145e-05
9.42371e-08
2.42581e-05
9.21052e-08
2.42045e-05
8.53453e-08
2.41528e-05
8.31448e-08
2.41049e-05
7.76327e-08
2.40616e-05
6.95915e-08
2.4022e-05
6.37233e-08
2.39836e-05
6.42425e-08
2.39453e-05
5.95895e-08
2.3915e-05
5.10316e-08
2.39018e-05
1.79486e-08
2.39109e-05
-1.75952e-08
2.39253e-05
-2.57978e-08
2.39187e-05
1.13681e-08
2.38766e-05
7.17825e-08
2.38329e-05
7.51519e-08
2.38674e-05
-6.19069e-08
2.40404e-05
-2.94665e-07
2.43727e-05
-5.65917e-07
2.47625e-05
-6.58685e-07
2.50155e-05
-4.1743e-07
2.5043e-05
-3.20363e-08
2.47843e-05
4.53855e-07
2.43185e-05
8.0544e-07
2.41161e-05
3.34991e-07
2.46223e-05
-8.8474e-07
2.60239e-05
-2.41169e-06
2.87479e-05
-4.67807e-06
3.35483e-05
-8.27825e-06
3.63162e-05
-4.65872e-06
2.76552e-05
1.52397e-05
6.71666e-06
3.5377e-05
-9.72873e-06
2.70854e-05
-4.5008e-06
-9.64001e-06
-3.85029e-07
-8.23445e-06
-2.04107e-05
3.44252e-05
-3.12498e-05
2.08653e-05
-5.37315e-05
4.59835e-05
8.53698e-07
-0.00010252
3.47939e-05
3.03359e-05
3.92315e-06
6.65377e-05
7.51962e-06
-1.12103e-05
1.39866e-05
-1.65016e-05
-1.42084e-05
5.62135e-05
-4.83761e-05
7.10445e-05
-6.12521e-05
2.85649e-05
-5.65665e-05
-9.57597e-06
-4.90808e-05
-1.61327e-05
-4.47953e-05
-9.17531e-06
-4.25916e-05
-4.72777e-06
-4.18187e-05
-1.70848e-06
-4.2137e-05
6.42212e-07
-4.28313e-05
1.49961e-06
-4.31843e-05
7.93894e-07
-4.30793e-05
-1.67263e-07
-4.26206e-05
-9.18995e-07
-4.19593e-05
-1.36926e-06
-4.14002e-05
-1.17023e-06
-4.10991e-05
-6.36397e-07
-4.10173e-05
-1.74112e-07
-4.10563e-05
8.34333e-08
-4.10901e-05
7.4809e-08
-4.10689e-05
-4.13914e-08
-4.10166e-05
-1.09354e-07
-4.0976e-05
-8.92739e-08
-4.09715e-05
-1.31631e-08
-4.09988e-05
4.85874e-08
-4.10369e-05
7.25776e-08
-4.10766e-05
7.54178e-08
-4.11195e-05
7.99794e-08
-4.11695e-05
9.33682e-08
-4.12274e-05
1.09356e-07
-4.12906e-05
1.19619e-07
-4.13581e-05
1.28364e-07
-4.14292e-05
1.34236e-07
-4.15041e-05
1.42422e-07
-4.15833e-05
1.49006e-07
-4.16644e-05
1.54031e-07
-4.17492e-05
1.60433e-07
-4.1836e-05
1.6492e-07
-4.19256e-05
1.70608e-07
-4.20174e-05
1.78752e-07
-4.21113e-05
1.73671e-07
-4.22064e-05
1.88307e-07
-4.23037e-05
1.77442e-07
-4.24018e-05
1.94296e-07
-4.25005e-05
1.8013e-07
-4.26002e-05
1.88585e-07
-4.27001e-05
1.90642e-07
-4.28012e-05
1.90735e-07
-4.29025e-05
1.92197e-07
-4.30031e-05
1.90639e-07
-4.31031e-05
1.91584e-07
-4.32039e-05
1.89073e-07
-4.33037e-05
1.77742e-07
-4.3404e-05
1.98997e-07
-4.35036e-05
1.73911e-07
-4.36042e-05
2.02578e-07
-4.37049e-05
1.71686e-07
-4.38066e-05
2.08681e-07
-4.39091e-05
1.93102e-07
-4.40139e-05
1.95608e-07
-4.41213e-05
1.98688e-07
-4.42307e-05
2.04582e-07
-4.43421e-05
2.07953e-07
-4.44568e-05
2.15691e-07
-4.45765e-05
2.21309e-07
-4.46995e-05
2.31408e-07
-4.48273e-05
2.38467e-07
-4.49604e-05
2.50566e-07
-4.50995e-05
2.60413e-07
-4.5243e-05
2.67341e-07
-4.53926e-05
2.91463e-07
-4.5549e-05
2.84731e-07
-4.57125e-05
3.176e-07
-4.58821e-05
3.06519e-07
-4.60577e-05
3.50662e-07
-4.6242e-05
3.32287e-07
-4.64327e-05
3.78949e-07
-4.66318e-05
3.57812e-07
-4.68381e-05
4.16302e-07
-4.70516e-05
3.8625e-07
-4.72736e-05
4.4513e-07
-4.75035e-05
4.19282e-07
-4.77421e-05
4.60475e-07
-4.7988e-05
4.74103e-07
-4.82435e-05
4.93067e-07
-4.85057e-05
5.07902e-07
-4.87751e-05
5.21979e-07
-4.90516e-05
5.38018e-07
-4.93361e-05
5.54584e-07
-4.96279e-05
5.6957e-07
-4.99271e-05
5.85088e-07
-5.02315e-05
5.97177e-07
-5.05422e-05
6.10971e-07
-5.08578e-05
6.20984e-07
-5.11787e-05
6.30932e-07
-5.15029e-05
6.38742e-07
-5.18302e-05
6.46884e-07
-5.21607e-05
6.53367e-07
-5.24935e-05
6.57811e-07
-5.28269e-05
6.60559e-07
-5.31603e-05
6.60059e-07
-5.34923e-05
6.58048e-07
-5.38219e-05
6.54126e-07
-5.41485e-05
6.49054e-07
-5.44709e-05
6.40503e-07
-5.47867e-05
6.29586e-07
-5.50972e-05
6.18381e-07
-5.54017e-05
6.07093e-07
-5.56987e-05
5.92966e-07
-5.59858e-05
5.74346e-07
-5.62604e-05
5.49762e-07
-5.65213e-05
5.21653e-07
-5.67646e-05
4.88244e-07
-5.69912e-05
4.54885e-07
-5.71972e-05
4.16081e-07
-5.73829e-05
3.74071e-07
-5.75439e-05
3.26129e-07
-5.76793e-05
2.75519e-07
-5.77882e-05
2.24604e-07
-5.78703e-05
1.64516e-07
-5.79201e-05
1.04678e-07
-5.79387e-05
4.44749e-08
-5.79232e-05
-2.45877e-08
-5.78751e-05
-9.15863e-08
-5.77934e-05
-1.60532e-07
-5.76771e-05
-2.2377e-07
-5.7531e-05
-2.9546e-07
-5.73608e-05
-3.3105e-07
-5.71705e-05
-3.84291e-07
-5.69711e-05
-3.93317e-07
-5.67872e-05
-3.70336e-07
-5.67072e-05
-1.67343e-07
-5.6932e-05
4.31637e-07
-5.77164e-05
1.55275e-06
-5.91253e-05
2.83166e-06
-6.08117e-05
3.44528e-06
-6.22331e-05
2.98304e-06
-6.31373e-05
2.01047e-06
-6.38347e-05
1.66518e-06
-6.49872e-05
2.69415e-06
-6.63132e-05
3.19307e-06
-6.63492e-05
7.51045e-07
-6.15021e-05
-8.97856e-06
-4.50085e-05
-3.28792e-05
-1.58137e-05
-5.9341e-05
1.72114e-05
-6.737e-05
4.6246e-05
-5.90028e-05
6.24408e-05
-3.22719e-05
6.69358e-05
-8.25012e-06
6.66696e-05
1.22621e-06
6.50744e-05
3.75806e-06
6.34608e-05
3.65214e-06
6.19044e-05
3.41609e-06
5.96614e-05
4.6932e-06
5.68872e-05
5.63877e-06
5.44681e-05
4.82029e-06
5.30946e-05
2.68165e-06
5.27567e-05
6.2473e-07
5.30056e-05
-5.18889e-07
5.34493e-05
-8.88094e-07
5.39093e-05
-9.15278e-07
5.4341e-05
-9.13785e-07
5.47414e-05
-7.32566e-07
5.51047e-05
-7.04274e-07
5.54275e-05
-6.46537e-07
5.57067e-05
-5.81323e-07
5.59382e-05
-4.10482e-07
5.61228e-05
-4.12252e-07
5.62629e-05
-2.12811e-07
5.63598e-05
-2.1467e-07
5.64185e-05
-7.79894e-08
5.64385e-05
-6.16662e-08
5.64258e-05
6.07816e-08
5.63828e-05
9.2994e-08
5.6311e-05
1.50203e-07
5.6212e-05
2.02112e-07
5.60901e-05
2.49346e-07
5.59449e-05
2.93561e-07
5.57804e-05
3.32134e-07
5.55965e-05
3.68627e-07
5.53974e-05
3.99676e-07
5.51842e-05
4.27186e-07
5.49596e-05
4.49178e-07
5.47257e-05
4.66205e-07
5.44838e-05
4.8159e-07
5.42341e-05
4.97976e-07
5.39752e-05
5.14412e-07
5.37096e-05
5.27976e-07
5.34387e-05
5.37755e-07
5.31635e-05
5.45998e-07
5.28851e-05
5.51741e-07
5.26051e-05
5.53999e-07
5.23238e-05
5.55306e-07
5.20426e-05
5.56214e-07
5.17622e-05
5.5402e-07
5.14829e-05
5.51288e-07
5.1205e-05
5.46597e-07
5.09311e-05
5.39384e-07
5.06607e-05
5.31668e-07
5.03951e-05
5.22125e-07
5.0133e-05
5.13053e-07
4.9876e-05
5.03592e-07
4.9624e-05
4.92239e-07
4.93776e-05
4.81879e-07
4.91365e-05
4.70024e-07
4.89006e-05
4.59316e-07
4.86695e-05
4.48287e-07
4.84451e-05
4.36686e-07
4.82257e-05
4.25796e-07
4.80112e-05
3.84953e-07
4.78018e-05
4.34106e-07
4.75978e-05
3.60447e-07
4.7398e-05
4.19033e-07
4.72024e-05
3.39789e-07
4.70121e-05
4.02462e-07
4.68244e-05
3.28882e-07
4.66415e-05
3.82103e-07
4.64612e-05
3.13293e-07
4.62836e-05
3.7132e-07
4.61094e-05
3.06245e-07
4.59383e-05
3.5447e-07
4.577e-05
2.97166e-07
4.56029e-05
3.43212e-07
4.54389e-05
3.1381e-07
4.52768e-05
3.10218e-07
4.51167e-05
3.06326e-07
4.49576e-05
3.0307e-07
4.48012e-05
2.98853e-07
4.46461e-05
2.96425e-07
4.44912e-05
2.9527e-07
4.4337e-05
2.93799e-07
4.41847e-05
2.89887e-07
4.40342e-05
2.87741e-07
4.38839e-05
2.80092e-07
4.37349e-05
2.90811e-07
4.35862e-05
2.79142e-07
4.34391e-05
2.85387e-07
4.32921e-05
2.77619e-07
4.31468e-05
2.81182e-07
4.30017e-05
2.74131e-07
4.28587e-05
2.73981e-07
4.27163e-05
2.71653e-07
4.25745e-05
2.68992e-07
4.24343e-05
2.667e-07
4.22964e-05
2.62671e-07
4.21597e-05
2.60302e-07
4.20254e-05
2.56075e-07
4.18925e-05
2.54581e-07
4.17613e-05
2.48056e-07
4.16332e-05
2.45926e-07
4.15069e-05
2.39206e-07
4.13835e-05
2.35019e-07
4.1263e-05
2.30421e-07
4.11458e-05
2.24112e-07
4.10312e-05
2.18661e-07
4.09208e-05
2.11332e-07
4.08128e-05
2.05433e-07
4.07097e-05
1.97242e-07
4.06108e-05
1.91468e-07
4.05157e-05
1.79615e-07
4.04252e-05
1.73611e-07
4.03401e-05
1.62647e-07
4.02629e-05
1.46668e-07
4.01922e-05
1.34228e-07
4.01248e-05
1.32345e-07
4.00581e-05
1.25434e-07
4.00015e-05
1.08133e-07
3.99754e-05
4.31923e-08
3.99839e-05
-2.61632e-08
4.00031e-05
-4.50672e-08
3.9991e-05
2.33981e-08
3.99244e-05
1.38333e-07
3.98532e-05
1.46629e-07
3.99011e-05
-1.10226e-07
4.01632e-05
-5.56461e-07
4.06767e-05
-1.07985e-06
4.12895e-05
-1.27148e-06
4.17044e-05
-8.32441e-07
4.17765e-05
-1.04158e-07
4.14055e-05
8.24828e-07
4.07049e-05
1.50619e-06
4.03737e-05
6.65948e-07
4.11021e-05
-1.61313e-06
4.32096e-05
-4.51924e-06
4.73164e-05