/*--------------------------------*- C++ -*----------------------------------*\
| =========                 |                                                 |
| \\      /  F ield         | OpenFOAM: The Open Source CFD Toolbox           |
|  \\    /   O peration     | Version:  2412                                  |
|   \\  /    A nd           | Website:  www.openfoam.com                      |
|    \\/     M anipulation  |                                                 |
\*---------------------------------------------------------------------------*/
FoamFile
{
    version     2.0;
    format      ascii;
    arch        "LSB;label=32;scalar=64";
    class       volVectorField;
    location    "60";
    object      U;
}
// * * * * * * * * * * * * * * * * * * * * * * * * * * * * * * * * * * * * * //

dimensions      [0 1 -1 0 0 0 0];

internalField   nonuniform List<vector> 
29601
(
(-0.0446249 -0.826895 -1.49079e-20)
(-0.309337 -1.08797 3.54311e-20)
(-0.029995 -0.0490071 -7.76492e-20)
(0.113811 0.134146 8.91347e-20)
(-0.336288 -0.251527 -1.8272e-23)
(-0.226469 -0.115611 -6.59589e-20)
(0.464983 0.144443 1.40373e-23)
(0.977721 0.184165 0)
(1.03692 0.132455 2.60801e-20)
(0.84286 0.103821 2.67705e-20)
(0.727054 0.0963734 -2.60496e-20)
(0.667082 0.0934113 0)
(0.636553 0.0923797 -4.62012e-20)
(0.632529 0.0931823 -4.2606e-20)
(0.647318 0.0945409 -7.84839e-20)
(0.661232 0.0942377 4.43501e-24)
(0.664673 0.0927503 3.39655e-20)
(0.660993 0.0909507 -6.34947e-20)
(0.65017 0.0890196 5.93384e-20)
(0.637435 0.0877146 0)
(0.629301 0.0871847 3.07769e-24)
(0.625918 0.0870464 4.6724e-20)
(0.626168 0.0870908 -5.00497e-26)
(0.627565 0.086988 -2.42139e-24)
(0.627844 0.0867244 0)
(0.627101 0.0864179 0)
(0.626038 0.086179 1.83319e-24)
(0.625521 0.0860404 -3.83586e-26)
(0.625712 0.0859551 -2.03496e-19)
(0.626255 0.0858705 9.30853e-20)
(0.626854 0.0857716 0)
(0.627417 0.0856709 -8.92743e-26)
(0.628041 0.0855788 -9.89696e-25)
(0.628785 0.0854924 -2.60223e-19)
(0.629646 0.0854072 0)
(0.630568 0.0853134 1.08436e-19)
(0.631534 0.0852161 -9.88878e-20)
(0.632555 0.0851125 0)
(0.633622 0.0850027 0)
(0.634731 0.0848831 -5.56962e-25)
(0.635883 0.0847563 1.35351e-19)
(0.637076 0.0846192 0)
(0.638306 0.0844728 1.10996e-19)
(0.639572 0.084315 0)
(0.640867 0.0841461 1.80542e-19)
(0.642185 0.083963 0)
(0.643538 0.0837694 -7.26037e-20)
(0.644904 0.08356 -1.29524e-19)
(0.646292 0.0833364 1.15009e-19)
(0.647668 0.0830956 -1.01562e-19)
(0.649071 0.082842 -8.90927e-20)
(0.650483 0.0825708 -7.75131e-20)
(0.651898 0.0822848 -1.20056e-25)
(0.653321 0.08198 1.15448e-25)
(0.654725 0.0816565 4.73752e-20)
(0.656135 0.0813169 0)
(0.657544 0.0809589 -5.16969e-26)
(0.658957 0.0805824 9.12205e-20)
(0.660343 0.0801863 0)
(0.66173 0.0797735 1.77064e-20)
(0.663121 0.0793435 5.05927e-28)
(0.664529 0.0788968 -1.41068e-20)
(0.665941 0.0784307 -1.41258e-25)
(0.667351 0.0779482 2.91538e-20)
(0.668789 0.0774521 2.1368e-26)
(0.670253 0.0769387 -2.07755e-26)
(0.671752 0.076411 3.02704e-26)
(0.673288 0.0758661 -2.94804e-26)
(0.674861 0.0753077 3.83709e-26)
(0.676493 0.0747346 -3.34043e-19)
(0.678185 0.0741466 1.82492e-19)
(0.67993 0.0735412 -4.47585e-26)
(0.681759 0.0729243 2.11755e-19)
(0.68365 0.0722865 5.158e-26)
(0.685631 0.0716375 2.39178e-19)
(0.687701 0.0709672 2.52341e-19)
(0.689889 0.0702817 0)
(0.69214 0.069572 0)
(0.694514 0.0688438 -2.90148e-19)
(0.696976 0.0680891 0)
(0.699587 0.0673138 -7.69891e-26)
(0.702288 0.0665066 1.55626e-25)
(0.705136 0.0656729 -7.86498e-26)
(0.708089 0.0648041 -1.51999e-25)
(0.711197 0.0639006 -3.97943e-27)
(0.714397 0.0629549 7.48257e-19)
(0.717778 0.0619702 3.86187e-19)
(0.721286 0.0609382 -3.98362e-19)
(0.724932 0.059852 4.10675e-19)
(0.728716 0.0587117 1.02872e-25)
(0.732638 0.0575106 -1.34264e-25)
(0.736689 0.0562403 0)
(0.740873 0.0548981 -4.6197e-19)
(0.745197 0.0534783 -9.50872e-19)
(0.74965 0.0519748 4.89213e-19)
(0.754237 0.0503793 5.03325e-19)
(0.758928 0.0486828 -5.17789e-19)
(0.763729 0.0468825 5.32636e-19)
(0.768624 0.0449671 -5.47903e-19)
(0.773608 0.0429291 0)
(0.778667 0.04076 5.79722e-19)
(0.783795 0.0384543 -5.96335e-19)
(0.788974 0.0359986 -2.06899e-27)
(0.794194 0.0333887 7.41911e-26)
(0.79944 0.0306118 0)
(0.804687 0.0276602 -3.33966e-19)
(0.809921 0.0245239 8.08834e-26)
(0.81511 0.021193 3.53558e-19)
(0.820248 0.0176599 -1.81907e-19)
(0.825305 0.0139127 4.41127e-26)
(0.830265 0.00994253 -9.63224e-20)
(0.835135 0.00574009 -2.33788e-26)
(0.839905 0.00129356 1.27535e-20)
(0.844539 -0.00340479 -5.25057e-20)
(0.848982 -0.00836822 1.08087e-19)
(0.853189 -0.0136056 2.22509e-19)
(0.857136 -0.0191278 -4.58072e-19)
(0.860782 -0.0249459 0)
(0.86411 -0.0310696 -1.69349e-26)
(0.867081 -0.0375123 4.9954e-19)
(0.869645 -0.0442855 -5.14151e-19)
(0.871752 -0.0514006 5.29146e-19)
(0.873371 -0.0588709 2.61018e-25)
(0.874485 -0.0667166 -2.65756e-25)
(0.875063 -0.0749536 -3.44872e-26)
(0.875053 -0.0836035 -2.83509e-25)
(0.874344 -0.0926841 2.67241e-25)
(0.872979 -0.10223 1.25203e-18)
(0.870924 -0.112281 6.12223e-25)
(0.868119 -0.122878 1.31928e-18)
(0.864513 -0.134069 1.35233e-18)
(0.860203 -0.14595 0)
(0.855169 -0.158614 7.71401e-25)
(0.849476 -0.172202 1.44264e-18)
(0.843167 -0.186888 -1.46611e-18)
(0.836758 -0.20302 -6.9689e-25)
(0.831978 -0.221394 7.21518e-25)
(0.832564 -0.243675 1.48404e-18)
(0.842284 -0.272226 1.33703e-24)
(0.859559 -0.308438 -1.39128e-24)
(0.875367 -0.351273 -1.31467e-18)
(0.880767 -0.399175 1.21243e-24)
(0.873916 -0.453361 0)
(0.860802 -0.52091 0)
(0.846861 -0.614499 4.25129e-20)
(0.802137 -0.727817 9.18887e-19)
(0.695396 -0.846219 -3.13554e-24)
(0.464432 -0.860418 8.66576e-18)
(0.148073 -0.561766 -3.26745e-24)
(0.00180602 0.0127231 6.93644e-24)
(0.153891 0.58403 -3.25738e-24)
(0.473492 0.877211 -8.51847e-18)
(0.702477 0.854833 0)
(0.806842 0.73207 -1.70173e-18)
(0.849127 0.616146 -1.06847e-19)
(0.857658 0.519009 0)
(0.861604 0.446979 0)
(0.850898 0.385646 1.2459e-24)
(0.822868 0.330219 -1.19286e-24)
(0.791106 0.283891 -1.4266e-24)
(0.771291 0.249289 1.37097e-24)
(0.768019 0.224785 -1.51968e-18)
(0.775301 0.206311 7.36411e-25)
(0.786066 0.190719 -7.11274e-25)
(0.796749 0.176598 0)
(0.806493 0.163487 -1.46658e-18)
(0.815214 0.151203 -1.43728e-18)
(0.823074 0.13965 0)
(0.829931 0.128705 -1.37166e-18)
(0.835916 0.118319 -1.33707e-18)
(0.840916 0.108413 6.19856e-25)
(0.845016 0.0989548 -1.26724e-18)
(0.84823 0.0899162 2.98017e-25)
(0.850677 0.0812741 -2.86715e-25)
(0.852311 0.0730048 2.48739e-26)
(0.853298 0.0650998 -2.68415e-25)
(0.853642 0.0575412 2.63629e-25)
(0.853433 0.0503204 -5.34128e-19)
(0.852696 0.0434223 5.18806e-19)
(0.851473 0.0368369 -5.03899e-19)
(0.849811 0.0305554 1.39042e-26)
(0.847757 0.0245683 0)
(0.845344 0.0188645 4.61656e-19)
(0.842599 0.0134366 -2.24188e-19)
(0.839576 0.00827546 -1.08874e-19)
(0.836295 0.00337146 5.28745e-20)
(0.832799 -0.00128267 -1.28398e-20)
(0.829143 -0.00569896 -2.35283e-26)
(0.825358 -0.00988381 2.33696e-26)
(0.821447 -0.0138477 4.4373e-26)
(0.817396 -0.0175985 3.65915e-19)
(0.813219 -0.0211438 -3.55513e-19)
(0.808951 -0.0244945 8.13009e-26)
(0.804603 -0.0276572 3.35648e-19)
(0.800209 -0.0306412 0)
(0.795789 -0.0334557 7.45184e-26)
(0.791367 -0.0361078 -2.09681e-27)
(0.786946 -0.0386089 5.98731e-19)
(0.782537 -0.0409625 -5.81897e-19)
(0.778155 -0.0431814 0)
(0.773814 -0.0452706 5.49655e-19)
(0.769531 -0.0472386 -5.34187e-19)
(0.765322 -0.0490928 5.19143e-19)
(0.761192 -0.0508438 -5.04487e-19)
(0.757141 -0.0524942 -4.90185e-19)
(0.753182 -0.0540513 9.52444e-19)
(0.749316 -0.0555236 4.62574e-19)
(0.745543 -0.0569161 4.49215e-19)
(0.741864 -0.0582347 -4.36116e-19)
(0.738282 -0.0594823 -4.23241e-19)
(0.734812 -0.0606676 -4.10582e-19)
(0.731432 -0.0617953 3.981e-19)
(0.728143 -0.062865 8.99707e-26)
(0.724949 -0.0638847 -7.47069e-19)
(0.721848 -0.0648574 -4.01545e-27)
(0.718829 -0.0657871 -2.52996e-26)
(0.715888 -0.0666742 -7.83767e-26)
(0.713032 -0.0675241 1.55039e-25)
(0.710253 -0.06834 -7.66742e-26)
(0.707543 -0.0691216 0)
(0.704892 -0.0698724 0)
(0.702303 -0.0705938 0)
(0.699764 -0.0712877 0)
(0.697271 -0.071955 -2.50178e-19)
(0.694808 -0.0725965 -2.36852e-19)
(0.692413 -0.0732134 5.09714e-26)
(0.69005 -0.0738111 -2.09085e-19)
(0.687723 -0.0743843 1.94527e-19)
(0.685428 -0.0749388 2.14823e-25)
(0.683153 -0.0754707 3.27478e-19)
(0.680907 -0.0759828 3.75488e-26)
(0.678695 -0.0764759 -2.85472e-26)
(0.676497 -0.0769511 -5.61938e-20)
(0.674316 -0.0774056 -4.67915e-20)
(0.672156 -0.0778425 2.02334e-26)
(0.670016 -0.07826 -2.64673e-20)
(0.667904 -0.0786624 1.31536e-25)
(0.665792 -0.0790477 7.56647e-21)
(0.663686 -0.0794112 -1.1645e-27)
(0.661612 -0.0797601 -2.17331e-20)
(0.659547 -0.08009 0)
(0.657506 -0.0804057 -1.01185e-19)
(0.655451 -0.0807014 -5.68037e-26)
(0.653427 -0.0809819 0)
(0.651422 -0.081245 -5.07884e-20)
(0.64944 -0.0814935 1.22878e-25)
(0.647461 -0.0817253 -1.27783e-25)
(0.64551 -0.0819401 0)
(0.643582 -0.0821419 9.41017e-20)
(0.641676 -0.0823272 1.07017e-19)
(0.639807 -0.0825005 -2.41851e-19)
(0.637958 -0.0826606 1.35914e-19)
(0.636116 -0.0828036 7.60419e-20)
(0.634322 -0.0829354 0)
(0.632552 -0.0830546 -1.88421e-19)
(0.630825 -0.0831622 0)
(0.629128 -0.0832585 -1.15472e-19)
(0.627474 -0.083344 0)
(0.625862 -0.0834209 -1.4043e-19)
(0.624296 -0.0834878 -5.77527e-25)
(0.622779 -0.0835482 0)
(0.621308 -0.0835994 0)
(0.619891 -0.0836451 -7.93852e-25)
(0.618532 -0.0836852 -1.12047e-19)
(0.617221 -0.083722 0)
(0.615976 -0.0837508 2.68676e-19)
(0.614849 -0.0837813 -1.18526e-24)
(0.613841 -0.0838172 8.73428e-26)
(0.612888 -0.0838606 0)
(0.61191 -0.0839038 9.59544e-20)
(0.610955 -0.0839277 1.0482e-19)
(0.610366 -0.0839559 -3.82447e-26)
(0.610438 -0.0840315 1.88655e-24)
(0.611048 -0.0842055 0)
(0.61132 -0.0844417 0)
(0.610579 -0.0846332 -2.48404e-24)
(0.608736 -0.0846659 -4.90297e-26)
(0.608048 -0.0845612 -4.78724e-20)
(0.610889 -0.0846332 3.15212e-24)
(0.61835 -0.0850879 0)
(0.630263 -0.0862933 -6.07212e-20)
(0.640314 -0.0881045 6.50078e-20)
(0.643419 -0.0897835 -3.48056e-20)
(0.639672 -0.0911638 4.54359e-24)
(0.625789 -0.0913951 4.02143e-20)
(0.611105 -0.0900247 4.3682e-20)
(0.614686 -0.0892046 4.73272e-20)
(0.643787 -0.0901472 0)
(0.701003 -0.0929167 0)
(0.811556 -0.0999593 -2.76247e-20)
(0.997113 -0.127355 -5.43458e-20)
(0.939255 -0.176897 0)
(0.442384 -0.13746 1.47985e-23)
(-0.21484 0.109228 2.34295e-24)
(-0.32996 0.246906 -1.88995e-23)
(0.110354 -0.130407 -9.04698e-20)
(-0.0165074 0.026236 7.95474e-20)
(-0.295634 1.04056 -3.65047e-20)
(-0.0460347 0.849927 -1.49085e-20)
(-0.153624 -2.22483 2.36903e-20)
(-0.89364 -3.11524 0)
(-0.166073 -0.336475 1.28883e-19)
(0.288656 0.339443 -1.46823e-19)
(-0.963184 -0.714309 1.30245e-19)
(-0.559053 -0.298424 -6.21006e-23)
(1.54712 0.465082 -2.77626e-24)
(2.99639 0.55885 -3.7858e-20)
(3.12453 0.400693 -8.51555e-20)
(2.57673 0.321049 -4.36533e-20)
(2.24787 0.299924 -8.81397e-24)
(2.07626 0.291706 8.07795e-20)
(1.99025 0.289198 1.50865e-19)
(1.9805 0.291687 8.40774e-24)
(2.02295 0.295236 6.40753e-20)
(2.06164 0.293711 -5.95163e-20)
(2.07003 0.288887 1.51268e-25)
(2.05757 0.283243 6.3228e-24)
(2.02496 0.277432 -1.93835e-19)
(1.98759 0.273654 -1.09738e-23)
(1.96383 0.272161 1.01344e-23)
(1.95401 0.271779 -7.63555e-20)
(1.95464 0.271873 -4.3163e-24)
(1.95847 0.271477 0)
(1.95901 0.270619 1.17971e-19)
(1.95664 0.269659 -1.08331e-19)
(1.95343 0.268927 9.93847e-20)
(1.95188 0.268498 -5.55874e-24)
(1.95245 0.268226 -3.64824e-25)
(1.95405 0.267945 -3.05257e-19)
(1.95584 0.267628 -1.39696e-19)
(1.95756 0.267306 1.6405e-24)
(1.95948 0.267016 -1.4492e-24)
(1.96181 0.266747 2.13682e-19)
(1.96448 0.266477 0)
(1.96736 0.266187 4.91803e-25)
(1.97039 0.265883 1.62477e-19)
(1.9736 0.265563 -2.25966e-24)
(1.97695 0.265223 1.04885e-24)
(1.98046 0.264858 0)
(1.98411 0.264467 -4.44748e-19)
(1.98787 0.264046 0)
(1.99177 0.263596 1.8235e-19)
(1.99578 0.263112 6.1141e-25)
(1.99988 0.262591 -2.96604e-19)
(2.00406 0.262029 -3.14175e-26)
(2.00835 0.261433 -4.70416e-25)
(2.01267 0.260787 2.12777e-19)
(2.01709 0.260103 -3.46543e-25)
(2.02149 0.259363 3.31883e-25)
(2.02595 0.25858 -1.46236e-19)
(2.03044 0.257746 2.54275e-19)
(2.03494 0.256861 1.09361e-19)
(2.03946 0.255923 1.65304e-25)
(2.04395 0.254924 -1.5912e-25)
(2.04845 0.253875 -1.08808e-25)
(2.05293 0.252766 1.88178e-25)
(2.05744 0.251606 -1.46091e-19)
(2.06189 0.250384 -5.72604e-26)
(2.06634 0.249107 -2.66383e-20)
(2.0708 0.247778 0)
(2.0753 0.246393 1.4566e-20)
(2.07984 0.244958 -5.69386e-25)
(2.08442 0.243469 -5.23057e-25)
(2.08906 0.241934 0)
(2.09379 0.240349 -8.43829e-20)
(2.09863 0.238717 -9.96973e-20)
(2.10361 0.237038 1.17124e-25)
(2.10872 0.235313 -1.14161e-25)
(2.114 0.233541 2.83146e-19)
(2.11948 0.231724 -3.08757e-19)
(2.12515 0.229857 0)
(2.13109 0.227949 -4.87585e-25)
(2.13724 0.225985 -3.80155e-19)
(2.14367 0.223976 4.02475e-19)
(2.15037 0.221907 4.24208e-19)
(2.15746 0.219786 -2.19367e-25)
(2.16475 0.217593 -4.66192e-19)
(2.17243 0.21534 4.86624e-19)
(2.1804 0.213006 -2.48415e-25)
(2.18882 0.210602 2.44379e-25)
(2.19753 0.208104 0)
(2.20669 0.205516 -5.66176e-19)
(2.21617 0.202819 -5.85848e-19)
(2.22613 0.200012 -1.41068e-25)
(2.23639 0.197075 -6.25342e-19)
(2.24721 0.194011 -6.45285e-19)
(2.2584 0.190795 6.65423e-19)
(2.27002 0.187415 0)
(2.28208 0.183861 0)
(2.29455 0.180112 -1.455e-18)
(2.3074 0.176145 6.59698e-27)
(2.32067 0.171956 6.61503e-27)
(2.33437 0.16752 -1.46849e-25)
(2.34845 0.162818 1.97861e-25)
(2.36293 0.157826 -1.67856e-18)
(2.37773 0.152519 1.72653e-18)
(2.39285 0.146882 -8.87887e-19)
(2.40825 0.140885 0)
(2.42391 0.134501 0)
(2.43981 0.12771 0)
(2.4559 0.120484 -2.40312e-25)
(2.47214 0.112792 3.6376e-25)
(2.4885 0.104613 -1.23589e-25)
(2.50492 0.0959117 0)
(2.52134 0.0866628 0)
(2.53769 0.0768333 5.72199e-19)
(2.5539 0.0663973 1.38631e-25)
(2.56995 0.0553259 6.05731e-19)
(2.58573 0.0435837 3.11643e-19)
(2.6012 0.0311445 -7.56025e-26)
(2.61637 0.0179776 -1.6501e-19)
(2.63123 0.0040482 -2.5555e-27)
(2.64565 -0.0106716 0)
(2.65946 -0.0262175 0)
(2.67254 -0.0426234 0)
(2.68479 -0.0599179 7.62214e-19)
(2.6961 -0.078138 0)
(2.70641 -0.0973154 -8.07477e-19)
(2.71559 -0.117488 3.99075e-25)
(2.72349 -0.138694 1.71065e-18)
(2.72998 -0.160969 8.39271e-25)
(2.73494 -0.184356 -1.81141e-18)
(2.73831 -0.208915 -1.86364e-18)
(2.74 -0.234697 -1.91701e-18)
(2.73983 -0.261768 9.4301e-25)
(2.7375 -0.290187 -2.02642e-18)
(2.73315 -0.320065 6.27272e-25)
(2.72663 -0.351521 0)
(2.71777 -0.384684 0)
(2.70645 -0.419713 -2.24854e-18)
(2.69293 -0.456903 0)
(2.67715 -0.496538 2.35303e-18)
(2.6593 -0.539068 2.39864e-18)
(2.63954 -0.585039 2.43745e-18)
(2.61945 -0.635528 0)
(2.60445 -0.693037 -2.31526e-24)
(2.60617 -0.762757 -2.62346e-24)
(2.63592 -0.85193 2.2227e-24)
(2.68806 -0.964567 2.33368e-18)
(2.73413 -1.0972 5.55174e-24)
(2.74629 -1.24464 2.01742e-24)
(2.71879 -1.4104 1.58596e-18)
(2.66976 -1.6155 1.00732e-18)
(2.61395 -1.89638 -1.06068e-24)
(2.4619 -2.23311 0)
(2.11865 -2.57568 3.77424e-18)
(1.40383 -2.5968 -7.17779e-18)
(0.444839 -1.68645 5.41797e-24)
(0.00419422 0.0382645 -1.15094e-23)
(0.462377 1.75341 5.40247e-24)
(1.43146 2.64794 7.06518e-18)
(2.14077 2.60257 -3.65215e-18)
(2.47698 2.24676 1.41239e-18)
(2.62182 1.90211 -1.23364e-24)
(2.66155 1.61055 3.84472e-24)
(2.68276 1.39174 -2.54699e-24)
(2.6562 1.20386 2.06698e-24)
(2.57333 1.03271 2.23671e-18)
(2.4762 0.888567 -2.38695e-18)
(2.4144 0.780333 2.27393e-24)
(2.40372 0.703494 7.10281e-24)
(2.42628 0.645615 -2.36428e-24)
(2.45999 0.596831 0)
(2.4935 0.552664 0)
(2.52408 0.511651 0)
(2.55148 0.473229 0)
(2.57621 0.437094 0)
(2.59781 0.402861 2.27831e-18)
(2.61668 0.37037 0)
(2.63248 0.339382 0)
(2.64547 0.309793 1.24018e-24)
(2.65567 0.281512 2.04819e-18)
(2.66347 0.254469 9.52965e-25)
(2.66875 0.228594 1.93612e-18)
(2.67199 0.203852 -4.50765e-25)
(2.67319 0.180193 1.82806e-18)
(2.67265 0.157587 8.46714e-25)
(2.67045 0.135992 -8.62631e-19)
(2.66674 0.115374 4.02424e-25)
(2.66165 0.0957045 8.13924e-19)
(2.65532 0.0769546 0)
(2.64785 0.0590922 -7.67899e-19)
(2.63934 0.0420927 0)
(2.62996 0.0259254 0)
(2.61976 0.010566 0)
(2.60888 -0.00401492 2.29203e-27)
(2.5975 -0.017849 1.66055e-19)
(2.5857 -0.03096 -7.60579e-26)
(2.5735 -0.0433786 7.56105e-26)
(2.56085 -0.0551311 -6.09192e-19)
(2.5478 -0.0662396 1.39381e-25)
(2.53447 -0.0767365 -5.75236e-19)
(2.52088 -0.086648 0)
(2.50713 -0.0959972 0)
(2.4933 -0.104816 -1.24157e-25)
(2.47944 -0.113126 3.65384e-25)
(2.46558 -0.12096 -2.41368e-25)
(2.45175 -0.128336 0)
(2.43799 -0.135283 0)
(2.42436 -0.141828 0)
(2.41089 -0.14799 1.78184e-18)
(2.39765 -0.153797 -1.73204e-18)
(2.38464 -0.159276 1.68352e-18)
(2.37187 -0.164442 8.18099e-19)
(2.35937 -0.169315 -2.4676e-25)
(2.34714 -0.173918 6.6781e-27)
(2.33521 -0.178269 6.65827e-27)
(2.32358 -0.182391 1.4574e-18)
(2.31224 -0.186291 0)
(2.30121 -0.18999 0)
(2.29048 -0.193506 -6.65924e-19)
(2.28005 -0.196847 6.45563e-19)
(2.26987 -0.200026 6.254e-19)
(2.25999 -0.203054 -1.41007e-25)
(2.25038 -0.20595 5.85489e-19)
(2.24101 -0.208712 -1.38196e-25)
(2.23188 -0.211358 0)
(2.223 -0.213891 2.43891e-25)
(2.21434 -0.216322 -2.47919e-25)
(2.20584 -0.218652 0)
(2.19755 -0.220891 4.64734e-19)
(2.18942 -0.223041 -2.18627e-25)
(2.18143 -0.225112 -4.22447e-19)
(2.17356 -0.227098 -4.00568e-19)
(2.16587 -0.229014 3.78117e-19)
(2.15829 -0.230857 4.10084e-25)
(2.15083 -0.232634 -3.311e-19)
(2.14347 -0.234346 3.06329e-19)
(2.13619 -0.235992 -2.80583e-19)
(2.12901 -0.237576 -1.12845e-25)
(2.12191 -0.2391 1.15774e-25)
(2.11487 -0.240563 9.81598e-20)
(2.10789 -0.241967 8.27281e-20)
(2.10098 -0.243313 0)
(2.09412 -0.244602 4.93612e-20)
(2.08733 -0.245839 4.53231e-25)
(2.08058 -0.24702 -1.21025e-20)
(2.07386 -0.248141 0)
(2.06723 -0.249214 2.98279e-20)
(2.06062 -0.250227 -6.09604e-26)
(2.05407 -0.251193 1.54542e-19)
(2.04751 -0.252096 1.9753e-25)
(2.04106 -0.252958 -1.1392e-25)
(2.03465 -0.253762 -1.6568e-25)
(2.0283 -0.254521 1.7212e-25)
(2.02199 -0.255225 -1.1367e-19)
(2.01576 -0.255881 -1.32054e-19)
(2.00961 -0.256493 1.51807e-19)
(2.00352 -0.257056 3.44266e-25)
(1.99754 -0.25758 1.95913e-19)
(1.99164 -0.25806 -2.20554e-19)
(1.98578 -0.258493 -4.87162e-25)
(1.98007 -0.258891 -3.21604e-26)
(1.97444 -0.259249 3.06846e-19)
(1.96895 -0.259573 6.32264e-25)
(1.96357 -0.259861 -1.88349e-19)
(1.95832 -0.260118 0)
(1.95321 -0.260347 2.29335e-19)
(1.94825 -0.260548 0)
(1.94345 -0.260726 1.08011e-24)
(1.93881 -0.26088 -2.32661e-24)
(1.93435 -0.261016 1.25387e-24)
(1.93007 -0.261139 -4.6257e-25)
(1.92594 -0.261246 0)
(1.92204 -0.261337 -2.19926e-19)
(1.9185 -0.261428 -2.10429e-24)
(1.91534 -0.261538 2.35604e-24)
(1.91236 -0.261674 1.4385e-19)
(1.90935 -0.261812 4.3683e-25)
(1.90642 -0.261898 1.7172e-19)
(1.90456 -0.261985 -5.72369e-24)
(1.90468 -0.262211 -1.02314e-19)
(1.90643 -0.262735 3.37085e-24)
(1.90731 -0.263471 -1.21365e-19)
(1.90529 -0.264099 0)
(1.90004 -0.264271 -4.43405e-24)
(1.89801 -0.263985 7.84129e-20)
(1.90615 -0.264159 1.04014e-23)
(1.92787 -0.265425 -1.1259e-23)
(1.96278 -0.268905 9.94272e-20)
(1.99305 -0.274353 -1.06427e-19)
(2.00371 -0.279623 -1.53753e-25)
(1.9943 -0.284109 6.11378e-20)
(1.95556 -0.285391 6.5833e-20)
(1.91331 -0.281783 8.63703e-24)
(1.92184 -0.27925 -1.54922e-19)
(2.00394 -0.281532 -8.2996e-20)
(2.16792 -0.289237 4.37435e-20)
(2.4824 -0.309262 4.51307e-20)
(3.00716 -0.385604 8.88735e-20)
(2.88142 -0.537301 4.02021e-20)
(1.47752 -0.444183 -2.62544e-24)
(-0.529262 0.282523 1.11724e-19)
(-0.946883 0.702661 -1.32065e-19)
(0.28191 -0.331247 1.46972e-19)
(-0.125951 0.265013 -1.29592e-19)
(-0.858164 2.99958 5.95307e-20)
(-0.155346 2.307 1.19273e-20)
(-0.30183 -3.36577 1.2877e-20)
(-1.44233 -5.06425 0)
(-0.403145 -0.846014 0)
(0.405928 0.482341 1.64635e-19)
(-1.55536 -1.14331 5.52958e-23)
(-0.746115 -0.430786 1.19944e-19)
(2.86555 0.834481 -5.06996e-23)
(5.17942 0.955175 4.19619e-20)
(5.32205 0.685981 4.74345e-20)
(4.44819 0.560146 4.87017e-20)
(3.9202 0.526211 4.75546e-20)
(3.64289 0.513337 9.26384e-24)
(3.50617 0.509996 -1.69286e-19)
(3.49341 0.51433 -7.81426e-20)
(3.56241 0.519515 0)
(3.6232 0.515978 6.6859e-20)
(3.63442 0.507247 -7.31034e-24)
(3.61112 0.497306 -1.16595e-19)
(3.55571 0.487437 1.0902e-19)
(3.49377 0.481254 -1.2348e-23)
(3.4546 0.478878 5.74769e-24)
(3.43852 0.478289 8.59859e-20)
(3.43949 0.478392 -1.57716e-19)
(3.44545 0.47759 8.10622e-26)
(3.446 0.47604 -1.32933e-19)
(3.44183 0.474362 1.22105e-19)
(3.43648 0.473112 -1.12045e-19)
(3.434 0.472381 0)
(3.43507 0.471905 1.88053e-19)
(3.43788 0.471406 1.72164e-19)
(3.44103 0.470851 1.57602e-19)
(3.44413 0.470294 1.44224e-19)
(3.44763 0.469799 4.48916e-25)
(3.45184 0.469342 1.81283e-24)
(3.45667 0.468881 -5.31971e-26)
(3.46188 0.468393 -2.01102e-19)
(3.46738 0.467877 0)
(3.47318 0.467338 0)
(3.47927 0.466763 0)
(3.48564 0.46615 0)
(3.49227 0.465488 2.51128e-19)
(3.49912 0.464778 0)
(3.50621 0.464015 8.42949e-25)
(3.51349 0.463193 0)
(3.52096 0.46231 1.67518e-19)
(3.52857 0.461354 5.9215e-25)
(3.53637 0.460335 1.34748e-19)
(3.54423 0.45923 -4.75241e-25)
(3.55227 0.458061 0)
(3.5603 0.456794 -3.4438e-25)
(3.56842 0.455448 -6.27479e-25)
(3.5766 0.454015 -2.87304e-19)
(3.5848 0.452488 8.13984e-25)
(3.59303 0.45087 0)
(3.60124 0.44915 -8.73545e-20)
(3.60945 0.447334 0)
(3.61763 0.445416 -9.4063e-26)
(3.62586 0.443406 8.25463e-20)
(3.63402 0.441293 5.55248e-20)
(3.6422 0.439082 -2.25855e-26)
(3.65039 0.436779 -6.14294e-21)
(3.65866 0.434377 -1.64598e-20)
(3.66703 0.431891 -7.56264e-20)
(3.67548 0.429312 -5.80168e-20)
(3.68407 0.42665 -6.35294e-26)
(3.69282 0.423903 6.22022e-25)
(3.7018 0.421075 1.12674e-19)
(3.71104 0.418166 0)
(3.72053 0.415173 0)
(3.73035 0.412102 0)
(3.74054 0.408953 3.48944e-19)
(3.7511 0.405721 1.7102e-25)
(3.76214 0.402409 -8.07295e-19)
(3.77357 0.399008 4.29633e-19)
(3.78553 0.395517 -4.54854e-19)
(3.79795 0.391926 -4.79411e-19)
(3.81105 0.388238 5.0337e-19)
(3.82455 0.384429 1.05369e-18)
(3.83875 0.38051 -2.69945e-25)
(3.85345 0.376447 -5.72687e-19)
(3.86893 0.372254 -5.95191e-19)
(3.88493 0.367898 3.02009e-25)
(3.90174 0.363377 6.39784e-19)
(3.91908 0.35866 -6.62001e-19)
(3.93724 0.353746 -6.84245e-19)
(3.95595 0.348602 3.44362e-25)
(3.97561 0.343228 1.45822e-18)
(3.99591 0.337579 0)
(4.01696 0.331639 -7.74849e-19)
(4.03875 0.325385 0)
(4.06122 0.31878 8.21915e-19)
(4.08435 0.311792 -3.95994e-25)
(4.10818 0.304399 -8.70707e-19)
(4.13274 0.29657 1.79176e-18)
(4.15795 0.288262 -9.21641e-19)
(4.18382 0.27944 9.48029e-19)
(4.21023 0.27006 -1.7229e-25)
(4.23717 0.260085 0)
(4.26457 0.249474 0)
(4.29239 0.238174 0)
(4.3206 0.226152 -2.63959e-25)
(4.34913 0.213356 2.63644e-25)
(4.37789 0.199735 0)
(4.40682 0.185248 0)
(4.43583 0.169837 0)
(4.46479 0.153453 -6.27969e-19)
(4.49361 0.136044 -6.46011e-19)
(4.52219 0.117562 1.60404e-25)
(4.55043 0.0979524 -3.41898e-19)
(4.5782 0.0771606 -1.58399e-26)
(4.60541 0.0551334 1.80992e-19)
(4.63207 0.0318179 1.86246e-19)
(4.65813 0.00715951 -4.79151e-20)
(4.68342 -0.0188998 -4.74909e-26)
(4.70763 -0.046415 -4.97768e-26)
(4.73052 -0.0754539 2.99736e-25)
(4.75193 -0.106059 -5.60341e-25)
(4.77168 -0.138299 -8.8519e-19)
(4.78966 -0.172229 0)
(4.80563 -0.207919 9.37596e-19)
(4.81935 -0.245431 -9.64913e-19)
(4.83058 -0.284831 0)
(4.83912 -0.326199 2.04327e-18)
(4.84487 -0.369635 4.20412e-18)
(4.84763 -0.415232 0)
(4.84711 -0.463103 -1.06353e-24)
(4.84283 -0.513362 1.08631e-24)
(4.835 -0.566201 -2.3479e-18)
(4.82337 -0.621836 2.41092e-18)
(4.80771 -0.6805 0)
(4.78778 -0.742478 -2.41316e-24)
(4.76397 -0.808286 2.59572e-18)
(4.73625 -0.878441 -2.65265e-18)
(4.70494 -0.953733 -1.09676e-24)
(4.67032 -1.03514 2.59206e-24)
(4.63522 -1.12459 -2.67901e-24)
(4.60927 -1.22652 0)
(4.61279 -1.35007 -1.06693e-23)
(4.66466 -1.50767 -5.00753e-24)
(4.75335 -1.70572 -2.62835e-18)
(4.82818 -1.93758 4.92535e-18)
(4.84067 -2.19382 2.20015e-18)
(4.78108 -2.4802 -1.78557e-18)
(4.68058 -2.83214 -4.75592e-23)
(4.56159 -3.30897 -8.81444e-20)
(4.27319 -3.87482 -1.70677e-18)
(3.65186 -4.43534 -4.25104e-18)
(2.40297 -4.43545 -1.2106e-23)
(0.759687 -2.86544 6.06745e-18)
(0.00857069 0.0651391 0)
(0.789598 2.97937 -6.02954e-18)
(2.4506 4.52354 -1.1846e-23)
(3.69086 4.48276 4.11329e-18)
(4.3005 3.89959 1.59032e-18)
(4.57713 3.32028 1.98215e-19)
(4.66955 2.82553 -1.22311e-18)
(4.72308 2.45022 1.85664e-18)
(4.68946 2.12545 -2.25888e-18)
(4.55264 1.82716 -5.03813e-18)
(4.38504 1.57364 2.68876e-18)
(4.27513 1.38178 -5.12477e-24)
(4.25414 1.24506 9.78378e-24)
(4.29258 1.1422 0)
(4.35148 1.05572 -2.72653e-24)
(4.41039 0.97751 2.63789e-24)
(4.46428 0.904927 -2.74603e-18)
(4.51266 0.83696 2.69179e-18)
(4.55638 0.773052 -2.63262e-18)
(4.59472 0.712527 -2.44655e-24)
(4.62821 0.65508 0)
(4.65635 0.600296 -2.44004e-18)
(4.67957 0.547989 2.37475e-18)
(4.69786 0.49799 1.09796e-24)
(4.71193 0.45018 -1.07492e-24)
(4.72156 0.404429 0)
(4.72755 0.360677 -2.12246e-18)
(4.72994 0.318835 -2.0623e-18)
(4.72923 0.27885 0)
(4.72557 0.240651 9.73253e-19)
(4.71925 0.204178 -9.4541e-19)
(4.71048 0.169378 0)
(4.6995 0.136202 8.92098e-19)
(4.68651 0.104595 4.33272e-19)
(4.67169 0.0745116 3.01933e-25)
(4.65528 0.045895 2.04424e-19)
(4.63742 0.0187105 -4.78202e-26)
(4.61835 -0.00710194 4.82311e-20)
(4.59837 -0.0315899 -1.87433e-19)
(4.57764 -0.0548043 -1.82107e-19)
(4.55616 -0.0767924 -3.53881e-19)
(4.53391 -0.0975999 3.4386e-19)
(4.51093 -0.117272 1.61307e-25)
(4.48742 -0.135859 1.62067e-25)
(4.46347 -0.153411 6.31182e-19)
(4.43922 -0.169969 0)
(4.41477 -0.185585 0)
(4.39026 -0.200302 0)
(4.36573 -0.214173 2.64744e-25)
(4.34121 -0.227234 -2.65059e-25)
(4.31682 -0.239531 0)
(4.29262 -0.251117 0)
(4.26871 -0.262022 -1.00626e-18)
(4.24514 -0.272301 2.06013e-25)
(4.22195 -0.281989 -9.50798e-19)
(4.19918 -0.291123 -9.24103e-19)
(4.17686 -0.299738 -1.79609e-18)
(4.155 -0.30787 8.72579e-19)
(4.13364 -0.315556 -3.96684e-25)
(4.11278 -0.322829 -8.23229e-19)
(4.09242 -0.32971 0)
(4.07259 -0.336233 7.75632e-19)
(4.05327 -0.342426 0)
(4.03445 -0.348308 -1.45876e-18)
(4.01608 -0.353902 3.44432e-25)
(3.99822 -0.359225 6.84027e-19)
(3.98083 -0.364313 6.61552e-19)
(3.96385 -0.369161 -6.09463e-25)
(3.94728 -0.373803 3.01631e-25)
(3.93114 -0.378238 5.94085e-19)
(3.91539 -0.382498 5.71382e-19)
(3.89991 -0.386571 -2.69269e-25)
(3.88479 -0.390485 -1.05032e-18)
(3.86995 -0.394237 -5.01507e-19)
(3.85541 -0.397855 4.77387e-19)
(3.84104 -0.401315 4.52669e-19)
(3.82701 -0.404658 -4.27302e-19)
(3.81314 -0.407861 8.02333e-19)
(3.79951 -0.410955 1.69751e-25)
(3.78605 -0.413927 -1.73738e-25)
(3.77276 -0.416785 0)
(3.75964 -0.419534 0)
(3.74668 -0.422178 0)
(3.73381 -0.424713 -1.10931e-19)
(3.72106 -0.427142 -5.01142e-25)
(3.70844 -0.429469 -6.15219e-26)
(3.69593 -0.431696 6.33292e-26)
(3.68351 -0.433829 7.06644e-20)
(3.67118 -0.435861 1.36755e-20)
(3.65892 -0.437793 9.30205e-21)
(3.64682 -0.439636 -2.29413e-26)
(3.63473 -0.441373 -5.96694e-20)
(3.62278 -0.443026 -8.73182e-20)
(3.61081 -0.44457 -9.9057e-26)
(3.59904 -0.44604 0)
(3.58734 -0.447412 0)
(3.57574 -0.448695 0)
(3.56424 -0.449887 -6.784e-25)
(3.55287 -0.450998 2.98413e-19)
(3.54163 -0.452025 1.15694e-24)
(3.53054 -0.45297 -3.57406e-25)
(3.5196 -0.453843 0)
(3.50883 -0.454639 -4.92468e-25)
(3.49817 -0.455357 -1.39594e-19)
(3.48776 -0.456014 6.12817e-25)
(3.47752 -0.456599 -1.73307e-19)
(3.46751 -0.457127 0)
(3.45772 -0.457592 -7.55183e-25)
(3.44818 -0.458004 0)
(3.4389 -0.458368 0)
(3.42989 -0.458687 0)
(3.42117 -0.458962 0)
(3.41277 -0.459203 0)
(3.4047 -0.459412 1.88814e-19)
(3.39696 -0.459602 2.06976e-19)
(3.38952 -0.459764 -5.48119e-26)
(3.38248 -0.459902 1.86589e-24)
(3.37605 -0.460036 -4.1767e-25)
(3.37033 -0.460207 -1.48501e-19)
(3.36496 -0.46043 -1.62296e-19)
(3.35958 -0.46066 -1.77316e-19)
(3.35437 -0.460805 -1.93687e-19)
(3.35095 -0.460944 0)
(3.35085 -0.461307 1.1536e-19)
(3.35356 -0.462181 -3.87141e-24)
(3.35501 -0.463454 1.36792e-19)
(3.35179 -0.464586 8.08547e-26)
(3.34323 -0.464981 1.62081e-19)
(3.33971 -0.464525 -8.83065e-20)
(3.3528 -0.464743 5.89868e-24)
(3.38843 -0.466723 -1.26714e-23)
(3.44616 -0.472395 1.36372e-23)
(3.49751 -0.481634 2.39377e-19)
(3.5176 -0.490914 -8.08675e-24)
(3.50442 -0.499033 -6.86977e-20)
(3.44322 -0.502102 -7.3956e-20)
(3.37432 -0.49677 8.02845e-20)
(3.38509 -0.49236 1.73893e-19)
(3.51562 -0.495367 9.30748e-20)
(3.78088 -0.50745 -4.89916e-20)
(4.28644 -0.539682 -5.03758e-20)
(5.12465 -0.660442 -4.94982e-20)
(4.98262 -0.918606 1.98961e-23)
(2.73951 -0.79771 -1.00131e-19)
(-0.708562 0.410066 9.37421e-23)
(-1.53304 1.12766 9.30874e-23)
(0.396474 -0.472739 -7.84599e-23)
(-0.331698 0.720378 0)
(-1.38578 4.88791 0)
(-0.302101 3.52076 2.59618e-20)
(-0.491601 -4.12951 1.36403e-20)
(-1.92185 -6.82305 4.37645e-23)
(-0.739725 -1.58833 0)
(0.4287 0.529856 -3.68282e-19)
(-2.08323 -1.51599 -3.25435e-19)
(-0.716909 -0.49119 0)
(4.44208 1.25089 1.02594e-19)
(7.49226 1.36545 -4.59482e-20)
(7.5891 0.984351 -5.22217e-20)
(6.43771 0.819678 -2.52642e-23)
(5.73624 0.774767 -5.27582e-20)
(5.36536 0.758352 -1.00722e-19)
(5.18618 0.755116 9.4325e-20)
(5.17387 0.761454 -5.36871e-25)
(5.26686 0.767493 0)
(5.34554 0.760985 7.46429e-20)
(5.35683 0.747736 -6.96687e-20)
(5.32065 0.733079 1.30313e-19)
(5.24222 0.719088 -1.21909e-19)
(5.15686 0.710697 1.37471e-23)
(5.10324 0.707597 -1.95614e-25)
(5.08151 0.706875 -9.63468e-20)
(5.08283 0.706947 1.76782e-19)
(5.09058 0.705618 0)
(5.0909 0.703287 0)
(5.08495 0.700849 0)
(5.07768 0.699083 -1.25778e-19)
(5.07456 0.698063 6.96016e-24)
(5.07641 0.697385 -6.52324e-24)
(5.08073 0.696669 5.83241e-24)
(5.08558 0.695872 1.77085e-19)
(5.09045 0.69509 0)
(5.09598 0.694406 -2.96565e-19)
(5.10258 0.69378 2.71126e-19)
(5.11009 0.693149 3.84067e-24)
(5.11819 0.69248 0)
(5.12674 0.691776 0)
(5.13577 0.691038 0)
(5.14527 0.690256 0)
(5.1552 0.689414 -2.32511e-24)
(5.16552 0.688506 4.31339e-24)
(5.1762 0.687527 2.56138e-19)
(5.18722 0.686472 1.07312e-24)
(5.19856 0.685329 0)
(5.21018 0.6841 -1.88537e-19)
(5.22202 0.682759 0)
(5.23414 0.681329 -1.51667e-19)
(5.24637 0.679769 -2.7058e-19)
(5.25885 0.678113 2.40245e-19)
(5.27134 0.676316 0)
(5.28396 0.6744 1.85997e-19)
(5.29668 0.672356 1.61714e-19)
(5.30945 0.670173 -1.3911e-19)
(5.32225 0.667851 0)
(5.33503 0.665386 9.83421e-20)
(5.34784 0.662772 -7.99173e-20)
(5.3606 0.660013 1.25308e-19)
(5.37345 0.65711 -9.29331e-20)
(5.3862 0.654061 -6.25098e-20)
(5.39904 0.650872 -9.04042e-26)