/*--------------------------------*- C++ -*----------------------------------*\
| =========                 |                                                 |
| \\      /  F ield         | OpenFOAM: The Open Source CFD Toolbox           |
|  \\    /   O peration     | Version:  2412                                  |
|   \\  /    A nd           | Website:  www.openfoam.com                      |
|    \\/     M anipulation  |                                                 |
\*---------------------------------------------------------------------------*/
FoamFile
{
    version     2.0;
    format      ascii;
    arch        "LSB;label=32;scalar=64";
    class       volVectorField;
    location    "60";
    object      U;
}
// * * * * * * * * * * * * * * * * * * * * * * * * * * * * * * * * * * * * * //

dimensions      [0 1 -1 0 0 0 0];

internalField   nonuniform List<vector> 
32591
(
(-0.067961 -1.10165 -5.06548e-24)
(-0.372684 -1.65024 2.17508e-22)
(0.0523832 0.0631333 -2.03647e-22)
(0.29789 0.441342 0)
(-0.850492 -0.761076 -1.90448e-19)
(-0.886792 -0.578139 1.54915e-19)
(0.000152038 0.00880501 0)
(0.987456 0.249616 -6.04279e-23)
(1.71713 0.276636 -5.87946e-20)
(1.63055 0.199427 5.66912e-23)
(1.31617 0.166484 0)
(1.17947 0.159446 0)
(1.09731 0.155792 0)
(1.07124 0.15667 0)
(1.09463 0.161111 8.6235e-20)
(1.14076 0.164778 7.86071e-20)
(1.16927 0.164696 7.23057e-20)
(1.17717 0.162759 0)
(1.16757 0.15994 2.99831e-23)
(1.14703 0.15747 2.28084e-19)
(1.13209 0.156614 -2.52999e-23)
(1.12806 0.156835 4.99465e-25)
(1.13168 0.15757 3.48352e-19)
(1.14242 0.158518 3.36175e-25)
(1.14735 0.158496 1.75474e-23)
(1.14967 0.158437 -1.32773e-19)
(1.15128 0.158498 0)
(1.15413 0.158745 2.21503e-19)
(1.15826 0.159072 0)
(1.16285 0.15937 -1.11163e-23)
(1.16726 0.159622 1.04294e-23)
(1.17155 0.159863 0)
(1.17595 0.160111 5.61146e-19)
(1.18052 0.160351 1.56213e-23)
(1.18519 0.160575 -1.42373e-23)
(1.18992 0.160778 -2.12371e-19)
(1.19469 0.160961 -5.78527e-24)
(1.19954 0.161129 1.75665e-19)
(1.20445 0.161274 -3.18939e-19)
(1.20943 0.161399 -2.89126e-19)
(1.21448 0.161502 1.79115e-26)
(1.21959 0.161582 -2.36369e-19)
(1.22478 0.16164 2.13057e-19)
(1.23003 0.161672 -2.8376e-24)
(1.23533 0.161676 1.71767e-19)
(1.24066 0.161651 -2.26351e-24)
(1.24603 0.161593 2.73292e-19)
(1.25145 0.16151 -2.42164e-19)
(1.25685 0.161386 4.26824e-19)
(1.26225 0.161226 1.86817e-19)
(1.26766 0.161031 1.62187e-19)
(1.27305 0.160795 1.00131e-24)
(1.2784 0.160517 1.18138e-19)
(1.28371 0.160197 0)
(1.28907 0.159842 5.55039e-25)
(1.29425 0.159426 -5.35457e-25)
(1.2995 0.158983 9.36997e-20)
(1.30459 0.15848 6.36432e-20)
(1.30971 0.157944 -3.54308e-20)
(1.31471 0.157353 8.31507e-26)
(1.31971 0.156722 -2.63114e-25)
(1.32466 0.156046 3.0229e-25)
(1.32957 0.155323 -4.72947e-25)
(1.33442 0.154555 8.33382e-20)
(1.33925 0.153746 -4.3729e-25)
(1.34408 0.152892 4.25617e-25)
(1.34891 0.151995 0)
(1.35373 0.151054 0)
(1.35863 0.150078 7.08274e-25)
(1.36352 0.149053 -3.8314e-19)
(1.36853 0.147994 0)
(1.37359 0.146888 0)
(1.37886 0.145716 -4.73735e-19)
(1.37779 0.14384 5.02411e-19)
(1.38977 0.143358 5.29706e-19)
(1.38913 0.141352 5.57269e-19)
(1.39493 0.140078 0)
(1.40088 0.138717 0)
(1.40703 0.137306 -6.35578e-19)
(1.41339 0.135836 6.61072e-19)
(1.41993 0.134303 6.86392e-19)
(1.42667 0.132701 0)
(1.43361 0.131021 0)
(1.44075 0.129264 -7.61998e-19)
(1.44812 0.127418 0)
(1.4557 0.125475 8.12852e-19)
(1.46349 0.123429 -8.38617e-19)
(1.47148 0.121266 -8.64674e-19)
(1.47966 0.118983 8.9111e-19)
(1.48809 0.116569 9.1798e-19)
(1.49672 0.114008 5.76498e-25)
(1.50555 0.111295 9.73214e-19)
(1.51456 0.108416 -2.00344e-18)
(1.52373 0.105354 -3.38486e-26)
(1.53307 0.1021 1.06076e-18)
(1.5426 0.098638 -1.09137e-18)
(1.55226 0.0949575 -2.24561e-18)
(1.56204 0.0910406 1.15513e-18)
(1.57191 0.0868689 1.18835e-18)
(1.5819 0.0824327 1.22252e-18)
(1.59201 0.0777175 -1.25771e-18)
(1.60221 0.0726995 6.46971e-19)
(1.61245 0.0673671 6.65646e-19)
(1.62274 0.0616985 -6.84888e-19)
(1.63306 0.05568 -7.04729e-19)
(1.64338 0.0492899 -7.25186e-19)
(1.65367 0.0425118 7.46285e-19)
(1.66395 0.0353234 -8.74083e-27)
(1.67418 0.0277086 -3.95241e-19)
(1.68441 0.0196428 -1.96137e-25)
(1.6946 0.0111088 9.66101e-26)
(1.70467 0.00207711 -2.69398e-20)
(1.71451 -0.0074682 -2.13674e-25)
(1.72408 -0.0175511 -4.1409e-27)
(1.73331 -0.0281993 2.22206e-25)
(1.74218 -0.0394313 0)
(1.75063 -0.0512755 0)
(1.75858 -0.0637565 1.21307e-25)
(1.76591 -0.0768969 1.05697e-18)
(1.77259 -0.090731 1.08821e-18)
(1.77853 -0.105281 2.12347e-24)
(1.78308 -0.120495 -2.30643e-18)
(1.80385 -0.137901 -4.74026e-18)
(1.80727 -0.155052 -2.43953e-18)
(1.80967 -0.173028 2.51014e-18)
(1.81104 -0.191959 4.93653e-24)
(1.81136 -0.211914 -5.05225e-24)
(1.81061 -0.232989 0)
(1.80878 -0.255296 7.01647e-24)
(1.80589 -0.278965 -2.87588e-18)
(1.80173 -0.304148 0)
(1.79571 -0.330991 4.27202e-24)
(1.77342 -0.356564 0)
(1.76575 -0.38742 -3.14481e-18)
(1.75694 -0.421039 6.38209e-18)
(1.76818 -0.463775 -3.21391e-18)
(1.77189 -0.509715 1.19445e-23)
(1.79042 -0.566643 3.17453e-18)
(1.82304 -0.637529 -3.07864e-18)
(1.8578 -0.722131 2.91733e-18)
(1.87591 -0.816858 -5.32561e-18)
(1.86338 -0.918585 2.27319e-18)
(1.82804 -1.03492 -2.57561e-23)
(1.78433 -1.1833 -6.3073e-25)
(1.73244 -1.38477 1.55049e-23)
(1.62266 -1.63345 3.13003e-18)
(1.3568 -1.84473 2.38406e-23)
(0.835563 -1.73942 -5.62995e-18)
(0.254708 -1.08059 8.48017e-23)
(0.00658962 0.0298581 -6.73895e-23)
(0.267128 1.13445 8.40751e-23)
(0.855312 1.78072 5.53065e-18)
(1.37521 1.86978 -1.59351e-22)
(1.64062 1.65148 -2.92464e-18)
(1.75168 1.40023 1.25333e-23)
(1.80866 1.19938 7.44503e-25)
(1.83057 1.03608 1.85144e-23)
(1.85823 0.915936 -2.39632e-18)
(1.86687 0.813002 2.76446e-18)
(1.81741 0.706453 -3.00811e-18)
(1.74758 0.611174 3.1703e-18)
(1.69068 0.535097 -3.26744e-18)
(1.66425 0.478761 1.22875e-23)
(1.66345 0.436319 3.29606e-18)
(1.66027 0.397874 -6.52805e-18)
(1.67356 0.367195 3.21174e-18)
(1.68513 0.338811 0)
(1.70926 0.315065 -3.94796e-24)
(1.72067 0.290466 3.00324e-18)
(1.73087 0.267375 -2.92819e-18)
(1.74028 0.245625 4.01813e-24)
(1.7487 0.225022 0)
(1.75591 0.205426 -5.13173e-24)
(1.76177 0.186735 5.0141e-24)
(1.76614 0.168864 2.41964e-24)
(1.769 0.151767 2.47463e-18)
(1.7705 0.135351 2.40307e-18)
(1.7553 0.118617 -2.24123e-24)
(1.75501 0.103888 2.15065e-24)
(1.75312 0.0897349 -3.1593e-24)
(1.75029 0.0762166 -1.06995e-18)
(1.74658 0.0633212 -9.84127e-26)
(1.74208 0.0510253 0)
(1.73696 0.0393126 0)
(1.73119 0.028165 2.24664e-25)
(1.72492 0.0175595 -4.23552e-27)
(1.71815 0.00748361 -2.15989e-25)
(1.71097 -0.00208548 2.72233e-20)
(1.7034 -0.0111665 9.75789e-26)
(1.69561 -0.0197743 -1.98143e-25)
(1.68762 -0.0279311 3.76247e-25)
(1.67951 -0.0356547 -8.8846e-27)
(1.67121 -0.0429626 -7.53476e-19)
(1.66281 -0.0498738 7.32073e-19)
(1.65428 -0.0564039 7.11319e-19)
(1.6457 -0.0625727 6.91208e-19)
(1.637 -0.0683933 -6.717e-19)
(1.62829 -0.0738842 -6.52784e-19)
(1.61951 -0.0790602 1.26886e-18)
(1.6108 -0.0839401 -1.23324e-18)
(1.60209 -0.0885371 -1.19864e-18)
(1.59349 -0.0928753 -1.16504e-18)
(1.58497 -0.0969587 2.26465e-18)
(1.57664 -0.100816 1.10053e-18)
(1.56838 -0.104451 -1.06953e-18)
(1.56031 -0.107885 -3.42352e-26)
(1.55234 -0.11112 2.01954e-18)
(1.54457 -0.114181 -9.80928e-19)
(1.53688 -0.117067 1.22223e-24)
(1.52936 -0.119803 -9.25002e-19)
(1.52187 -0.122377 -8.97772e-19)
(1.51455 -0.124816 8.7102e-19)
(1.50729 -0.127124 8.4463e-19)
(1.50012 -0.129304 -8.18546e-19)
(1.49302 -0.131369 0)
(1.48598 -0.133322 7.67079e-19)
(1.47904 -0.135174 0)
(1.47216 -0.136932 0)
(1.46535 -0.1386 -6.90622e-19)
(1.45862 -0.140184 -6.65034e-19)
(1.45196 -0.141691 6.39275e-19)
(1.44536 -0.143086 0)
(1.44602 -0.145237 0)
(1.43961 -0.146594 5.15628e-25)
(1.43304 -0.147828 -5.32257e-19)
(1.42653 -0.148998 -5.04284e-19)
(1.42011 -0.150119 4.75584e-19)
(1.41371 -0.15118 0)
(1.40738 -0.152195 0)
(1.40105 -0.153155 3.83865e-19)
(1.39475 -0.154069 7.09178e-25)
(1.38844 -0.154928 0)
(1.38216 -0.155742 0)
(1.37588 -0.15651 4.2131e-25)
(1.36958 -0.157228 -4.32866e-25)
(1.36328 -0.157899 -8.14577e-20)
(1.35697 -0.158526 -4.54094e-25)
(1.35063 -0.159106 -3.66671e-20)
(1.34425 -0.159639 1.16462e-25)
(1.33786 -0.160125 1.02201e-25)
(1.33145 -0.160568 4.09445e-20)
(1.32504 -0.160966 -7.01202e-20)
(1.31852 -0.161313 -1.01195e-19)
(1.31205 -0.161621 1.34356e-19)
(1.30547 -0.161878 -1.69799e-19)
(1.29891 -0.162096 0)
(1.29233 -0.162267 -1.2418e-19)
(1.28573 -0.162399 1.05057e-24)
(1.2791 -0.162487 1.69394e-19)
(1.27247 -0.162533 0)
(1.26585 -0.162544 -2.21702e-19)
(1.25925 -0.162519 1.84168e-24)
(1.25256 -0.162443 -2.82485e-19)
(1.24602 -0.162351 -2.33674e-24)
(1.23939 -0.162209 -1.76715e-19)
(1.23288 -0.162049 -2.91604e-24)
(1.22639 -0.161855 -2.18272e-19)
(1.21996 -0.161633 2.41698e-19)
(1.21361 -0.161388 1.88606e-26)
(1.20734 -0.161121 2.94704e-19)
(1.20117 -0.160836 3.24674e-19)
(1.19503 -0.160524 -1.78617e-19)
(1.18906 -0.160204 -5.87998e-24)
(1.1832 -0.159871 2.15594e-19)
(1.17744 -0.159526 -1.44419e-23)
(1.17179 -0.159168 1.58347e-23)
(1.16634 -0.158805 -5.68435e-19)
(1.1611 -0.158438 0)
(1.15607 -0.158093 1.05389e-23)
(1.15098 -0.157745 -1.1233e-23)
(1.14579 -0.157361 0)
(1.14111 -0.156956 -2.22991e-19)
(1.13777 -0.156639 0)
(1.13568 -0.156511 1.33057e-19)
(1.13294 -0.156508 1.45162e-19)
(1.12777 -0.156367 7.88113e-26)
(1.12011 -0.155841 -3.4589e-19)
(1.11566 -0.155127 3.89693e-25)
(1.11951 -0.154932 -2.49975e-23)
(1.13455 -0.155839 -2.24204e-19)
(1.15549 -0.158378 2.96843e-23)
(1.166 -0.161285 0)
(1.15981 -0.163411 -7.01297e-20)
(1.13417 -0.163873 -7.5925e-20)
(1.09204 -0.160775 -8.2674e-20)
(1.07329 -0.157032 0)
(1.10488 -0.15701 0)
(1.19436 -0.161736 0)
(1.34248 -0.170139 0)
(1.67393 -0.205286 5.14218e-23)
(1.79435 -0.290027 1.05152e-19)
(1.09418 -0.277397 -5.33161e-23)
(0.0532029 -0.0259421 0)
(-0.871771 0.567405 -1.44584e-19)
(-0.797375 0.71322 3.6471e-19)
(0.339905 -0.495763 0)
(0.0180256 -0.00513324 -1.86749e-22)
(-0.444519 2.00941 1.98693e-22)
(-0.0858172 1.49505 -5.51802e-24)
(-0.277217 -2.46937 -1.64804e-23)
(-0.959524 -4.29412 -3.14136e-22)
(-0.070825 -0.43226 2.96133e-22)
(0.692889 1.04332 0)
(-2.08796 -1.80984 -2.05801e-23)
(-2.23199 -1.4833 -4.57381e-19)
(0.352312 0.0898049 -2.08625e-22)
(3.27347 0.784816 1.16795e-23)
(5.0477 0.798058 1.70249e-22)
(4.76472 0.592558 -9.21596e-23)
(3.98987 0.515051 8.74081e-23)
(3.6387 0.497117 0)
(3.43263 0.490004 -1.61934e-19)
(3.37458 0.493735 0)
(3.44145 0.505201 -2.70403e-19)
(3.55988 0.512903 -1.23515e-19)
(3.63027 0.51083 -5.59319e-23)
(3.64568 0.504221 0)
(3.61595 0.495923 2.82942e-25)
(3.56065 0.489469 -1.80602e-19)
(3.52182 0.487551 1.65909e-19)
(3.51247 0.488256 3.76107e-23)
(3.52363 0.48974 -2.77282e-19)
(3.56056 0.493216 5.03336e-19)
(3.57375 0.493525 5.8161e-25)
(3.58039 0.493296 2.59864e-23)
(3.58548 0.493496 -1.92634e-19)
(3.59415 0.494214 3.52089e-19)
(3.6063 0.495124 0)
(3.61972 0.495931 2.9379e-19)
(3.63275 0.496629 2.68423e-19)
(3.64561 0.497313 -4.40843e-25)
(3.65886 0.498026 -4.47416e-19)
(3.67267 0.49872 -1.26638e-23)
(3.68685 0.499364 -3.72021e-19)
(3.70124 0.499952 3.38847e-19)
(3.71581 0.500485 0)
(3.73064 0.500973 0)
(3.74569 0.501396 5.08758e-19)
(3.761 0.501761 0)
(3.77652 0.502057 -4.17303e-19)
(3.79226 0.502285 3.76938e-19)
(3.80822 0.502443 -1.03747e-23)
(3.82437 0.502521 3.05521e-19)
(3.84069 0.502515 -2.73969e-19)
(3.85714 0.502419 -3.86746e-24)
(3.87367 0.50222 -4.36173e-19)
(3.89037 0.501943 3.06989e-24)
(3.90702 0.501538 -3.40891e-19)
(3.92369 0.501028 -1.55316e-24)
(3.94038 0.500405 -1.5088e-24)
(3.95703 0.49966 2.22852e-19)
(3.97358 0.498786 1.88974e-19)
(3.98999 0.497775 0)
(4.00654 0.496664 -8.87047e-25)
(4.0226 0.49537 1.53549e-24)
(4.03887 0.493982 -1.49355e-19)
(4.05467 0.492419 -3.0345e-25)
(4.07057 0.490748 5.55291e-20)
(4.08615 0.488917 0)
(4.1017 0.486959 -2.41803e-24)
(4.11715 0.484861 6.58411e-20)
(4.13245 0.482624 4.60783e-25)
(4.14765 0.480253 -1.36206e-19)
(4.16282 0.477751 7.12464e-25)
(4.17797 0.475113 -6.93403e-25)
(4.19318 0.47235 -9.40671e-25)
(4.20836 0.469443 9.16988e-25)
(4.22382 0.466436 -5.69462e-19)
(4.23929 0.463277 1.24302e-18)
(4.25516 0.460019 -1.23128e-25)
(4.27116 0.456616 -7.20091e-19)
(4.28762 0.453166 -1.4033e-24)
(4.26863 0.445725 0)
(4.32217 0.445726 -1.71347e-18)
(4.30373 0.438188 -1.82158e-18)
(4.32182 0.434085 1.87488e-24)
(4.34036 0.429884 9.95494e-19)
(4.35951 0.425517 -1.92207e-24)
(4.37925 0.420967 -1.07843e-18)
(4.39956 0.41622 1.11938e-18)
(4.42048 0.411255 -2.15787e-24)
(4.44198 0.406054 1.20087e-18)
(4.4641 0.400601 0)
(4.48687 0.394875 0)
(4.51026 0.38885 -1.32386e-18)
(4.5343 0.382497 1.36553e-18)
(4.55892 0.375786 0)
(4.58414 0.368696 -1.45042e-18)
(4.61006 0.361199 0)
(4.63658 0.353252 -1.53811e-18)
(4.6637 0.344825 -3.29344e-24)
(4.69133 0.335883 1.62933e-18)
(4.71946 0.326377 1.67651e-18)
(4.74808 0.316273 -1.72485e-18)
(4.77723 0.305528 1.77438e-18)
(4.80682 0.294104 1.82525e-18)
(4.83671 0.281949 -1.87755e-18)
(4.86688 0.269008 1.8139e-24)
(4.89741 0.255247 -1.9866e-18)
(4.92831 0.240622 2.04355e-18)
(4.95941 0.225064 -1.05109e-18)
(4.99066 0.208536 1.04541e-24)
(5.02205 0.190969 1.11244e-18)
(5.05351 0.17232 0)
(5.08495 0.152526 1.29033e-24)
(5.1163 0.131531 -1.21178e-18)
(5.14757 0.109279 0)
(5.17874 0.0857043 5.96573e-25)
(5.20987 0.0607449 3.1837e-25)
(5.24085 0.0343339 -3.2058e-25)
(5.27147 0.00639916 8.74404e-20)
(5.30137 -0.0231222 1.8001e-19)
(5.33042 -0.0543055 -3.63467e-25)
(5.35842 -0.0872263 7.21006e-25)
(5.3853 -0.121946 0)
(5.41088 -0.15855 0)
(5.43489 -0.197115 1.66492e-18)
(5.45703 -0.237713 -1.71401e-18)
(5.47713 -0.280443 -1.76447e-18)
(5.49505 -0.32539 3.44267e-24)
(5.50919 -0.37268 0)
(5.60443 -0.428683 3.76241e-18)
(5.61467 -0.481617 3.87273e-18)
(5.62173 -0.537416 -7.96794e-18)
(5.62553 -0.596163 0)
(5.62609 -0.658084 0)
(5.6233 -0.723468 0)
(5.61712 -0.792656 8.88985e-18)
(5.60749 -0.86604 -4.56059e-18)
(5.59374 -0.944076 0)
(5.5737 -1.02681 4.9841e-23)
(5.47195 -1.1001 -1.89298e-23)
(5.44683 -1.1954 3.878e-23)
(5.41836 -1.29915 -1.03254e-17)
(5.48104 -1.43776 5.0907e-18)
(5.48878 -1.5787 1.89143e-23)
(5.54072 -1.75332 -5.02335e-18)
(5.63413 -1.97011 9.73463e-18)
(5.73117 -2.2276 0)
(5.77278 -2.51363 4.21443e-18)
(5.71442 -2.81685 -7.21769e-18)
(5.57644 -3.15659 -2.66403e-18)
(5.38545 -3.57118 0)
(5.18757 -4.14651 0)
(4.79614 -4.82617 -1.00063e-17)
(3.94243 -5.35587 -1.06177e-17)
(2.38871 -4.96873 -1.13177e-22)
(0.719277 -3.05653 -1.27287e-17)
(0.0162588 0.0844046 1.08768e-22)
(0.754471 3.20915 1.26381e-17)
(2.44584 5.08813 -1.10625e-22)
(3.99774 5.43109 1.02756e-17)
(4.85123 4.88145 9.3836e-18)
(5.25005 4.19634 0)
(5.4751 3.63087 0)
(5.5668 3.15144 2.92974e-18)
(5.67632 2.79791 7.73299e-18)
(5.74828 2.50288 -8.72966e-18)
(5.61056 2.18086 0)
(5.40463 1.89 -1.00181e-17)
(5.23537 1.65677 5.17046e-18)
(5.15819 1.48363 1.9471e-23)
(5.15868 1.35319 -5.22798e-18)
(5.12341 1.22841 1.0552e-17)
(5.16526 1.13359 3.95759e-23)
(5.20189 1.0458 -1.93067e-23)
(5.30571 0.977436 -4.65611e-23)
(5.34191 0.901557 -4.76913e-18)
(5.37398 0.829959 4.65018e-18)
(5.40352 0.762497 -9.05743e-18)
(5.42999 0.69858 0)
(5.45266 0.637781 0)
(5.47112 0.579785 4.16453e-18)
(5.48502 0.524334 0)
(5.49426 0.471277 -3.93139e-18)
(5.49924 0.420623 -3.81707e-18)
(5.42263 0.366811 0)
(5.4216 0.321031 3.48533e-24)
(5.4161 0.277309 -4.60189e-26)
(5.40775 0.235558 1.7344e-18)
(5.39671 0.19572 -1.68427e-18)
(5.38324 0.157735 0)
(5.36785 0.121542 0)
(5.35047 0.0870922 7.28772e-25)
(5.33154 0.0543105 -3.67445e-25)
(5.31108 0.023159 -1.81893e-19)
(5.28932 -0.00642807 -8.83394e-20)
(5.26635 -0.0345043 -3.23796e-25)
(5.24274 -0.0611348 3.2156e-25)
(5.21846 -0.0863645 6.47914e-19)
(5.1938 -0.110266 0)
(5.16857 -0.132877 1.22332e-18)
(5.14304 -0.154274 -1.28114e-24)
(5.11709 -0.17449 0)
(5.09096 -0.193595 -1.12271e-18)
(5.06446 -0.211621 1.055e-24)
(5.03791 -0.228631 1.06061e-18)
(5.01115 -0.244668 -4.12379e-18)
(4.98457 -0.259795 1.93994e-24)
(4.95799 -0.274044 1.82995e-24)
(4.93174 -0.287494 1.89413e-18)
(4.90572 -0.300156 -1.84127e-18)
(4.88024 -0.312121 -1.78991e-18)
(4.85499 -0.323394 1.73983e-18)
(4.83033 -0.33405 -1.69103e-18)
(4.80593 -0.344087 -1.64334e-18)
(4.78212 -0.353587 3.43341e-24)
(4.75855 -0.362544 1.55118e-18)
(4.73548 -0.371031 0)
(4.71252 -0.379021 1.46259e-18)
(4.69004 -0.386596 0)
(4.66776 -0.393757 -1.3769e-18)
(4.64572 -0.400529 1.33485e-18)
(4.62389 -0.406935 0)
(4.60227 -0.413001 0)
(4.58088 -0.418751 -1.21085e-18)
(4.5597 -0.424208 -2.17599e-24)
(4.53872 -0.429384 -1.12882e-18)
(4.51797 -0.434301 1.08766e-18)
(4.49744 -0.438979 -1.93965e-24)
(4.47706 -0.443491 -1.00504e-18)
(4.49789 -0.451836 1.86929e-24)
(4.47813 -0.455871 0)
(4.45768 -0.459697 1.72813e-18)
(4.43733 -0.463328 8.19736e-19)
(4.4173 -0.466804 -1.41655e-24)
(4.39731 -0.470098 7.27352e-19)
(4.37754 -0.473247 -1.23501e-25)
(4.35777 -0.476223 -1.25743e-18)
(4.33814 -0.479057 5.76555e-19)
(4.31847 -0.481724 9.2977e-25)
(4.29891 -0.484255 -9.53802e-25)
(4.27933 -0.486636 -7.04803e-25)
(4.25974 -0.48887 7.24197e-25)
(4.24013 -0.490957 1.38791e-19)
(4.2205 -0.492904 4.7001e-25)
(4.20081 -0.49471 -6.75133e-20)
(4.18101 -0.496371 2.6274e-24)
(4.16116 -0.497888 0)
(4.14126 -0.499266 -5.60668e-20)
(4.12134 -0.500511 -3.07508e-25)
(4.10114 -0.501594 1.52016e-19)
(4.08107 -0.502565 1.56551e-24)
(4.06068 -0.503369 2.61249e-19)
(4.04039 -0.504059 0)
(4.02 -0.504607 -1.57457e-24)
(3.99957 -0.505025 -2.278e-19)
(3.97907 -0.505313 -2.65029e-19)
(3.95856 -0.505474 0)
(3.93808 -0.505519 0)
(3.9177 -0.505462 -3.94515e-19)
(3.89706 -0.505247 4.44561e-19)
(3.87686 -0.504982 -3.93394e-24)
(3.85643 -0.504565 2.78504e-19)
(3.83636 -0.504089 -3.10075e-19)
(3.81638 -0.503512 -1.05122e-23)
(3.7966 -0.502852 -3.81334e-19)
(3.77707 -0.502121 4.21522e-19)
(3.75778 -0.501322 0)
(3.73883 -0.50047 -5.12464e-19)
(3.72 -0.499533 0)
(3.70171 -0.498577 0)
(3.68376 -0.49758 -3.40271e-19)
(3.66614 -0.496547 3.73306e-19)
(3.64889 -0.49548 -1.26947e-23)
(3.63223 -0.494391 4.48375e-19)
(3.61621 -0.493291 -4.29898e-25)
(3.60086 -0.492258 -2.68536e-19)
(3.58549 -0.491231 -2.93739e-19)
(3.56989 -0.490115 0)
(3.5557 -0.488917 -3.51098e-19)
(3.54511 -0.48793 2.31604e-23)
(3.53811 -0.48746 2.57787e-23)
(3.52979 -0.487448 4.92912e-25)
(3.51523 -0.487173 -4.97089e-19)
(3.49397 -0.485899 2.71132e-19)
(3.48052 -0.483862 3.56084e-23)
(3.48875 -0.482973 -1.6135e-19)
(3.52712 -0.484844 1.75033e-19)
(3.58268 -0.491344 1.1166e-24)
(3.61382 -0.499833 0)
(3.60173 -0.506888 -5.33959e-23)
(3.53748 -0.509814 1.17767e-19)
(3.42806 -0.503439 2.56333e-19)
(3.37217 -0.493635 0)
(3.44346 -0.491818 0)
(3.6671 -0.501287 0)
(4.04467 -0.522479 8.04318e-23)
(4.85951 -0.605248 -8.47071e-23)
(5.22114 -0.828331 -7.91891e-20)
(3.53447 -0.852089 1.14373e-23)
(0.56028 -0.168112 -1.86916e-22)
(-2.13818 1.41757 4.42187e-19)
(-1.9769 1.70677 2.08042e-23)
(0.783031 -1.15425 0)
(-0.193205 0.700449 2.81701e-22)
(-1.11388 5.06583 -2.95107e-22)
(-0.303697 3.19131 -2.48673e-20)
(-0.582371 -3.09621 -1.22538e-20)
(-1.37677 -6.26799 3.51824e-22)
(-0.315535 -1.34731 6.1356e-22)
(0.874413 1.41258 -6.52464e-22)
(-2.96323 -2.47599 2.68293e-19)
(-3.25376 -2.21962 4.70645e-19)
(1.13279 0.259276 -2.28238e-19)
(5.95697 1.36067 -1.78767e-19)
(8.36578 1.30322 1.84356e-22)
(7.8855 0.995296 -2.69219e-22)
(6.81009 0.891847 8.99303e-23)
(6.3031 0.867005 -9.02626e-20)
(6.01381 0.860806 1.69648e-19)
(5.94341 0.869365 -7.72653e-23)
(6.04947 0.886436 1.42521e-19)
(6.21997 0.894714 -6.43598e-23)
(6.31704 0.888319 -1.20541e-19)
(6.33175 0.875867 5.44733e-23)
(6.28135 0.862053 -2.07872e-19)
(6.1979 0.852559 -1.92556e-19)
(6.14133 0.850446 -1.77292e-19)
(6.12971 0.85212 3.25135e-19)
(6.1502 0.854859 0)
(6.21931 0.861509 -2.64675e-19)
(6.23942 0.861576 0)
(6.2502 0.8611 2.68125e-23)
(6.25941 0.861488 4.06407e-19)
(6.27436 0.862694 7.65714e-25)
(6.29467 0.864146 3.39794e-19)
(6.31697 0.865402 -3.10559e-19)
(6.33888 0.866513 -2.83883e-19)
(6.36072 0.86763 0)
(6.38333 0.868806 4.73642e-19)
(6.40694 0.869955 -4.32185e-19)
(6.43123 0.87102 3.94077e-19)
(6.45592 0.871993 -1.1162e-23)
(6.48098 0.872882 -3.26727e-19)
(6.50655 0.873693 -2.97013e-19)
(6.53251 0.874394 -5.39285e-19)
(6.55894 0.874996 4.8884e-19)
(6.58575 0.875482 0)
(6.61294 0.875848 -3.9958e-19)
(6.64051 0.87609 -5.3447e-24)
(6.66842 0.876194 -3.23843e-19)
(6.6966 0.876151 0)
(6.72503 0.875951 -3.82777e-24)
(6.75358 0.875574 4.6221e-19)
(6.78244 0.875055 3.00365e-24)
(6.81119 0.874318 -5.51533e-24)
(6.84001 0.873398 -6.32441e-19)
(6.86883 0.872279 -1.96299e-24)
(6.89759 0.87095 -4.71916e-19)
(6.92621 0.869398 -1.64948e-24)
(6.95458 0.867608 0)
(6.98316 0.86564 -2.70854e-19)
(7.01099 0.863368 1.86232e-25)
(7.0391 0.860919 -1.57959e-19)
(7.0665 0.858181 -3.2085e-25)
(7.09406 0.855248 3.10311e-25)
(7.12111 0.852051 -3.06811e-26)
(7.14814 0.848628 -2.55238e-25)
(7.17499 0.844963 -6.95388e-20)
(7.20164 0.841064 0)
(7.22818 0.83694 1.4376e-19)
(7.25469 0.832588 6.05175e-25)
(7.28122 0.828005 8.74626e-25)
(7.30791 0.823212 -2.4181e-19)
(7.33458 0.818168 1.10364e-24)
(7.36174 0.812952 5.99877e-19)
(7.38899 0.807477 -6.54412e-19)
(7.41695 0.801832 7.06907e-19)
(7.44512 0.795926 7.57485e-19)
(7.47377 0.789864 0)
(7.41905 0.774657 0)
(7.53456 0.776991 4.60107e-25)
(7.47952 0.761452 9.93252e-19)
(7.51099 0.754372 -1.03944e-18)
(7.54323 0.747074 -1.08549e-18)
(7.57646 0.739474 2.09563e-24)
(7.61063 0.731555 -2.30278e-24)
(7.64577 0.723291 -1.5035e-24)
(7.68189 0.714643 -2.47154e-24)
(7.71898 0.705579 1.32254e-24)
(7.75707 0.696069 -2.52149e-24)
(7.7962 0.686081 0)
(7.83636 0.675571 1.44235e-18)
(7.87756 0.664484 0)
(7.9197 0.652774 -1.53326e-18)
(7.96283 0.640403 2.95398e-24)
(8.00707 0.627315 0)
(8.0523 0.613451 0)
(8.09849 0.59875 -1.72355e-18)
(8.14551 0.583152 -1.77349e-18)
(8.19331 0.566575 -1.96405e-24)
(8.24191 0.54896 5.57456e-24)
(8.29137 0.530236 6.01329e-26)
(8.34154 0.510338 1.98551e-18)
(8.3922 0.489173 2.04209e-18)
(8.44327 0.466646 -1.97252e-24)
(8.49492 0.442707 4.31991e-18)
(8.54716 0.417271 2.22149e-18)
(8.59972 0.390226 0)
(8.65248 0.361506 0)
(8.70548 0.330998 1.20866e-18)
(8.75855 0.29862 -1.24331e-18)
(8.81156 0.264267 2.5358e-24)
(8.86437 0.227848 1.31584e-18)
(8.91704 0.189262 0)
(8.96953 0.148399 6.9646e-19)
(9.02193 0.105153 -6.75791e-25)
(9.07405 0.0594025 0)
(9.12552 0.0110382 -4.74272e-20)
(9.17575 -0.0400637 -1.95233e-19)
(9.2245 -0.094019 1.15326e-24)
(9.27145 -0.150964 -7.81648e-25)
(9.31649 -0.211006 0)
(9.35926 -0.274289 1.68472e-24)
(9.3994 -0.340939 -5.17322e-24)
(9.4363 -0.411096 3.51537e-24)
(9.46974 -0.484914 0)
(9.49957 -0.562554 -1.96659e-18)
(9.52432 -0.644252 -3.8791e-24)
(9.71428 -0.743025 3.61924e-24)
(9.73082 -0.834749 -3.92471e-18)
(9.74193 -0.931349 4.03562e-18)
(9.74751 -1.03304 4.14873e-18)
(9.74756 -1.14023 -3.06762e-26)
(9.74185 -1.2534 -1.65852e-26)
(9.73026 -1.37314 -4.49609e-18)
(9.71259 -1.50011 4.61188e-18)
(9.68773 -1.6351 4.72498e-18)
(9.65177 -1.77824 9.68221e-18)
(9.44757 -1.89951 -5.40038e-18)
(9.40257 -2.06358 0)
(9.35299 -2.2425 5.57367e-18)
(9.48207 -2.48734 0)
(9.48946 -2.72962 1.9106e-23)
(9.56974 -3.02864 -5.71517e-23)
(9.71675 -3.39817 -4.90788e-18)
(9.86531 -3.83495 0)
(9.91546 -4.31788 4.26097e-18)
(9.79051 -4.82638 3.67254e-18)
(9.51757 -5.3878 2.73844e-18)
(9.1342 -6.05724 -1.23958e-18)
(8.72648 -6.97503 1.47149e-18)
(7.97638 -8.02426 5.35282e-18)
(6.45954 -8.76781 1.14411e-17)
(3.86161 -8.01548 -1.22634e-22)
(1.15811 -4.88537 1.38417e-17)
(0.0329973 0.134929 1.18417e-22)
(1.21453 5.12991 -1.37401e-17)
(3.95459 8.20988 -9.63857e-18)
(6.55212 8.89383 -1.10651e-17)
(8.06997 8.11831 -5.01592e-18)
(8.82907 7.05693 -1.12824e-18)
(9.28367 6.15659 1.43528e-18)
(9.50022 5.37836 -3.1575e-18)
(9.72008 4.7916 -8.32675e-18)
(9.87964 4.30244 3.73409e-22)
(9.6689 3.75908 0)
(9.33566 3.26534 5.06397e-18)
(9.05814 2.86697 -5.91172e-23)
(8.93344 2.56972 1.97941e-23)
(8.93884 2.3448 0)
(8.85455 2.12292 -5.70441e-18)
(8.92631 1.95901 0)
(8.99006 1.80749 5.51391e-18)
(9.19767 1.69455 -9.95955e-18)
(9.26022 1.56289 -1.85496e-23)
(9.31554 1.43873 -4.73361e-18)
(9.36645 1.32174 4.6095e-18)
(9.41206 1.21091 -2.25539e-26)
(9.45118 1.10551 -3.6435e-26)
(9.48311 1.00497 -8.47502e-18)
(9.50736 0.908879 -5.86152e-26)
(9.52375 0.816946 4.00025e-18)
(9.53289 0.72911 3.68439e-24)
(9.37436 0.634072 -3.93264e-24)
(9.37187 0.554962 1.99254e-18)
(9.36305 0.479423 0)
(9.34954 0.407291 3.55849e-24)
(9.33142 0.338446 -5.23581e-24)
(9.30917 0.272801 1.70468e-24)
(9.28365 0.210238 0)
(9.25475 0.150676 -7.90257e-25)
(9.22316 0.0939861 1.16581e-24)
(9.18898 0.0401037 1.97301e-19)
(9.15255 -0.011091 4.7919e-20)
(9.11408 -0.0596772 0)
(9.07446 -0.105784 -6.82469e-25)
(9.0337 -0.149472 -7.03253e-19)
(8.99226 -0.190875 0)
(8.94986 -0.230055 -1.32823e-18)
(8.90694 -0.267143 -2.55918e-24)
(8.86328 -0.302199 1.25468e-18)
(8.81925 -0.335339 -1.21957e-18)
(8.7746 -0.366615 0)
(8.72983 -0.396144 1.15246e-18)
(8.68471 -0.423992 6.40632e-24)
(8.63983 -0.450272 -2.17857e-18)
(8.59494 -0.475034 -1.98931e-24)
(8.55058 -0.498418 -2.05938e-18)
(8.50657 -0.52044 -2.00218e-18)
(8.46344 -0.541253 6.07087e-26)
(8.4207 -0.560874 -1.93706e-24)
(8.3789 -0.579422 5.49213e-24)
(8.33753 -0.596904 1.78788e-18)
(8.29713 -0.61345 1.73746e-18)
(8.25709 -0.629056 0)
(8.21787 -0.643845 1.63962e-18)
(8.17883 -0.657777 2.97705e-24)
(8.14054 -0.670985 1.54518e-18)
(8.10259 -0.683472 0)
(8.065 -0.695287 -1.4534e-18)
(8.02775 -0.706463 0)
(7.99083 -0.717049 -2.54071e-24)
(7.95426 -0.727088 8.77535e-24)
(7.91802 -0.736612 -2.49039e-24)
(7.88208 -0.745648 6.12448e-24)
(7.84652 -0.75423 -2.32065e-24)
(7.81134 -0.762399 2.11323e-24)
(7.77634 -0.770231 1.09505e-18)
(7.83787 -0.787287 9.93693e-19)
(7.804 -0.794427 -1.8698e-24)
(7.76872 -0.801137 5.64137e-25)
(7.73355 -0.807495 -8.57987e-19)
(7.69891 -0.813585 -8.10776e-19)
(7.66436 -0.819354 -7.62059e-19)
(7.63015 -0.824871 -7.1168e-19)
(7.59596 -0.830086 6.59359e-19)
(7.56202 -0.835055 -6.04941e-19)
(7.52804 -0.839737 1.11351e-24)
(7.49422 -0.844182 2.44358e-19)
(7.46037 -0.848363 -2.13202e-19)
(7.42651 -0.852293 6.1373e-25)
(7.39263 -0.855967 -1.45946e-19)
(7.35872 -0.859394 0)
(7.32471 -0.862581 7.10508e-20)
(7.29055 -0.86552 4.32358e-25)
(7.25626 -0.868206 -3.33832e-26)
(7.22189 -0.870645 3.13417e-25)
(7.18749 -0.872857 1.08063e-19)
(7.15265 -0.874788 7.05058e-25)
(7.11799 -0.876528 1.90344e-25)
(7.08281 -0.877972 -9.54784e-25)
(7.04779 -0.87922 0)
(7.0126 -0.880224 -2.03908e-19)
(6.97733 -0.880999 4.81166e-19)
(6.94196 -0.881546 -1.8936e-24)
(6.90657 -0.881876 3.22349e-19)
(6.8712 -0.881999 -5.61882e-24)
(6.83602 -0.881944 4.17103e-19)
(6.80044 -0.881626 -4.70112e-19)
(6.76555 -0.881207 -3.89111e-24)
(6.73031 -0.880531 0)
(6.69568 -0.879749 3.2809e-19)
(6.66124 -0.878795 -5.41063e-24)
(6.62713 -0.877696 4.03581e-19)
(6.59344 -0.876471 0)
(6.5602 -0.87513 -4.92304e-19)
(6.52754 -0.873698 5.42406e-19)
(6.49514 -0.87212 2.98421e-19)
(6.46364 -0.870508 3.27981e-19)
(6.43274 -0.868824 -1.11908e-23)
(6.40246 -0.867084 -3.94965e-19)
(6.37282 -0.865284 4.32902e-19)
(6.34418 -0.863441 -4.74154e-19)
(6.31664 -0.861577 0)
(6.29026 -0.859828 2.8379e-19)
(6.26402 -0.858109 3.10258e-19)
(6.23758 -0.85627 -3.39002e-19)
(6.21329 -0.854258 3.58703e-25)
(6.19451 -0.852516 -2.02209e-19)
(6.18142 -0.851584 2.66455e-23)
(6.167 -0.851541 2.39941e-19)
(6.14368 -0.851287 2.61268e-19)
(6.11029 -0.849571 0)
(6.08755 -0.84626 -3.10733e-19)
(6.09655 -0.844254 1.68968e-19)
(6.15102 -0.84614 1.82924e-19)
(6.23334 -0.855521 1.96658e-19)
(6.28423 -0.869394 5.1455e-23)
(6.27269 -0.882266 1.13159e-19)
(6.18293 -0.8897 1.21882e-19)
(6.02426 -0.88321 -1.32466e-19)
(5.9336 -0.868587 -7.13402e-23)
(6.02257 -0.862947 -6.12873e-25)
(6.33617 -0.872885 8.27482e-20)
(6.87852 -0.902618 8.11405e-23)
(8.00657 -1.01424 -2.39964e-22)
(8.59163 -1.34645 1.64661e-22)
(6.34267 -1.46358 1.56912e-19)
(1.57627 -0.429792 2.06096e-19)
(-3.00456 2.06011 -4.56246e-19)
(-2.79905 2.32316 -2.70203e-19)
(1.00603 -1.55836 3.64483e-19)
(-0.552699 1.8999 5.9937e-22)
(-1.57951 7.29363 3.27021e-22)
(-0.61452 3.86869 2.25851e-20)
(-0.966516 -3.17736 -2.05899e-20)
(-1.63889 -7.51881 8.01574e-20)
(-0.62673 -2.54916 0)
(0.715436 1.37588 0)
(-3.46676 -2.7322 0)
(-3.74066 -2.697 -2.36042e-19)
(2.53941 0.580003 2.13253e-19)
(8.93458 1.94984 1.64707e-19)
(11.5838 1.78352 -8.68323e-20)
(10.9497 1.40256 1.20576e-23)
(9.73666 1.29093 -1.78215e-22)
(9.13947 1.2647 1.81244e-19)
(8.81093 1.26399 1.71488e-19)
(8.74507 1.27864 1.59384e-19)
(8.88023 1.29905 -1.4509e-19)
(9.07863 1.30411 -1.29314e-22)
(9.18553 1.29112 1.23677e-19)
(9.19221 1.27195 0)
(9.12311 1.25296 -1.04262e-22)
(9.02045 1.24164 1.99336e-19)
(8.95368 1.24025 0)
(8.94319 1.24319 -3.38188e-19)
(8.97513 1.24718 3.08808e-19)
(9.06074 1.25479 2.65368e-19)
(9.08598 1.2545 2.43174e-19)
(9.10074 1.25373 0)
(9.11454 1.25433 -2.04452e-19)
(9.13587 1.25599 -7.48222e-19)
(9.16396 1.25789 -6.84356e-19)
(9.19465 1.25948 3.1293e-19)
(9.2251 1.2609 -3.44493e-23)
(9.25576 1.26238 2.61523e-19)
(9.28759 1.26395 -9.55249e-19)
(9.32086 1.26548 4.35869e-19)
(9.35514 1.26689 0)
(9.39004 1.26817 0)
(9.42554 1.26934 3.29452e-19)
(9.4618 1.2704 2.99424e-19)
(9.49863 1.2713 5.4351e-19)
(9.53615 1.27205 -4.9253e-19)
(9.5742 1.27264 0)
(9.61278 1.27305 4.02299e-19)
(9.65187 1.27327 6.20753e-25)
(9.69142 1.2733 5.94504e-25)
(9.73135 1.2731 9.2011e-24)
(9.77159 1.27267 5.21662e-19)
(9.81199 1.27199 -4.64249e-19)
(9.85278 1.27109 0)
(9.89341 1.26988 0)
(9.93412 1.2684 3.17074e-19)
(9.9748 1.26663 -2.75164e-19)
(10.0154 1.26455 2.36303e-19)
(10.0558 1.26215 -2.00217e-19)
(10.0958 1.25941 -3.97215e-25)
(10.1361 1.2564 -8.14168e-24)
(10.1754 1.25297 1.8086e-24)
(10.215 1.24927 1.57676e-19)
(10.2537 1.24517 9.90053e-25)
(10.2926 1.24079 0)
(10.3308 1.23603 0)
(10.369 1.23095 2.91152e-20)
(10.407 1.22553 0)
(10.4448 1.21977 -1.0697e-19)
(10.4825 1.21369 4.69211e-25)
(10.5201 1.20729 0)
(10.5578 1.20056 0)
(10.5958 1.19353 1.33381e-24)
(10.6338 1.18614 2.04782e-24)
(10.6725 1.17851 5.92834e-19)
(10.7114 1.1705 0)
(10.7513 1.16224 -6.97101e-19)
(10.7914 1.15361 0)
(10.8323 1.14478 -1.57612e-24)
(10.7663 1.12413 -9.46931e-19)
(10.9187 1.12593 5.36786e-24)
(10.8517 1.10476 -2.06631e-24)
(10.8968 1.0944 5.89046e-24)