/*--------------------------------*- C++ -*----------------------------------*\
| =========                 |                                                 |
| \\      /  F ield         | OpenFOAM: The Open Source CFD Toolbox           |
|  \\    /   O peration     | Version:  2412                                  |
|   \\  /    A nd           | Website:  www.openfoam.com                      |
|    \\/     M anipulation  |                                                 |
\*---------------------------------------------------------------------------*/
FoamFile
{
    version     2.0;
    format      ascii;
    arch        "LSB;label=32;scalar=64";
    class       volScalarField;
    location    "220";
    object      nut;
}
// * * * * * * * * * * * * * * * * * * * * * * * * * * * * * * * * * * * * * //

dimensions      [0 2 -1 0 0 0 0];

internalField   nonuniform List<scalar> 
7423
(
1.03887e-09
1.59318e-09
2.12645e-09
2.12942e-09
1.48841e-09
9.16367e-10
5.92089e-10
6.77956e-11
5.56185e-11
4.39075e-11
3.47409e-11
2.85696e-11
2.44637e-11
4.61986e-11
1.91533e-11
1.75474e-11
1.64224e-11
2.35188e-11
1.49487e-11
1.44474e-11
1.40375e-11
1.36857e-11
1.33652e-11
1.30662e-11
1.27789e-11
1.24984e-11
1.22216e-11
1.195e-11
1.16414e-11
1.13865e-11
1.10819e-11
1.07527e-11
1.06153e-11
1.05827e-11
1.04006e-11
1.0128e-11
9.82839e-12
9.5253e-12
9.22681e-12
8.93574e-12
8.65346e-12
8.37918e-12
8.11315e-12
7.85552e-12
7.60549e-12
7.36288e-12
7.12834e-12
6.90174e-12
6.6819e-12
6.46838e-12
6.26248e-12
6.0635e-12
5.87004e-12
5.68253e-12
5.50157e-12
5.32651e-12
5.15658e-12
4.99151e-12
4.83173e-12
4.67708e-12
4.52694e-12
4.38113e-12
4.23932e-12
4.10165e-12
3.9683e-12
3.83862e-12
3.71252e-12
3.58952e-12
3.46995e-12
3.35385e-12
3.24131e-12
3.13212e-12
3.02622e-12
2.9228e-12
2.82214e-12
2.72554e-12
9.34114e-08
1.42491e-07
1.9077e-07
1.98942e-07
1.51298e-07
1.01557e-07
6.94047e-08
4.66467e-09
3.67393e-09
2.84455e-09
2.25642e-09
1.91406e-09
1.71365e-09
5.58971e-09
1.44263e-09
1.35755e-09
1.30153e-09
2.65889e-09
1.22982e-09
1.20525e-09
1.18596e-09
1.16922e-09
1.15316e-09
1.13731e-09
1.12111e-09
1.10438e-09
1.08697e-09
1.06918e-09
1.04453e-09
1.02772e-09
1.00314e-09
9.76033e-10
9.79388e-10
9.99496e-10
9.95494e-10
9.74849e-10
9.48019e-10
9.19444e-10
8.90779e-10
8.62641e-10
8.35286e-10
8.087e-10
7.82908e-10
7.57947e-10
7.33739e-10
7.10254e-10
6.87558e-10
6.65627e-10
6.44368e-10
6.2372e-10
6.03809e-10
5.84584e-10
5.65899e-10
5.47782e-10
5.303e-10
5.13401e-10
4.96986e-10
4.81041e-10
4.65617e-10
4.50696e-10
4.36207e-10
4.22128e-10
4.08449e-10
3.95174e-10
3.82298e-10
3.69781e-10
3.57627e-10
3.45773e-10
3.34234e-10
3.23032e-10
3.12178e-10
3.01641e-10
2.91421e-10
2.81447e-10
2.71741e-10
2.6243e-10
6.46348e-07
1.00204e-06
1.36584e-06
1.47237e-06
1.20564e-06
8.68773e-07
6.23617e-07
5.81041e-08
4.52923e-08
3.47001e-08
2.67217e-08
2.12806e-08
1.74827e-08
6.0851e-08
1.30617e-08
1.19785e-08
1.13483e-08
2.91575e-08
1.0675e-08
1.04746e-08
1.03428e-08
1.02414e-08
1.01491e-08
1.00589e-08
9.96537e-09
9.86568e-09
9.75798e-09
9.6448e-09
9.44507e-09
9.3406e-09
9.14683e-09
8.95011e-09
9.17918e-09
9.62677e-09
9.73204e-09
9.5892e-09
9.34676e-09
9.07196e-09
8.79053e-09
8.51218e-09
8.24069e-09
7.97698e-09
7.72115e-09
7.47353e-09
7.23381e-09
7.00124e-09
6.77656e-09
6.5595e-09
6.34912e-09
6.14502e-09
5.94813e-09
5.75814e-09
5.57363e-09
5.3947e-09
5.22194e-09
5.05516e-09
4.89317e-09
4.73586e-09
4.58364e-09
4.43643e-09
4.2936e-09
4.15475e-09
4.0198e-09
3.88891e-09
3.76196e-09
3.6386e-09
3.51881e-09
3.40203e-09
3.28827e-09
3.17786e-09
3.07086e-09
2.96695e-09
2.86618e-09
2.7679e-09
2.67232e-09
2.58055e-09
1.93693e-06
3.11064e-06
4.43694e-06
4.96443e-06
4.39125e-06
3.38805e-06
2.55186e-06
3.80886e-07
2.91926e-07
2.20253e-07
1.66467e-07
1.29925e-07
1.04092e-07
3.14049e-07
7.31846e-08
6.42695e-08
5.81041e-08
1.5627e-07
5.0884e-08
4.8847e-08
4.75519e-08
4.6664e-08
4.60011e-08
4.54713e-08
4.50131e-08
4.45907e-08
4.41712e-08
4.37568e-08
4.29078e-08
4.25687e-08
4.1804e-08
4.1199e-08
4.33165e-08
4.67818e-08
4.80327e-08
4.76293e-08
4.65353e-08
4.52016e-08
4.38048e-08
4.24131e-08
4.10519e-08
3.97289e-08
3.84466e-08
3.72057e-08
3.60054e-08
3.48421e-08
3.37182e-08
3.26331e-08
3.15819e-08
3.05629e-08
2.958e-08
2.86315e-08
2.77111e-08
2.6819e-08
2.59574e-08
2.51259e-08
2.43188e-08
2.35354e-08
2.27772e-08
2.20437e-08
2.13327e-08
2.06415e-08
1.99695e-08
1.93178e-08
1.8686e-08
1.80722e-08
1.7476e-08
1.68951e-08
1.63291e-08
1.57797e-08
1.52472e-08
1.473e-08
1.42285e-08
1.37394e-08
1.32641e-08
1.28073e-08
3.9302e-06
6.41862e-06
9.51301e-06
1.11831e-05
1.07646e-05
8.88821e-06
7.02631e-06
1.7322e-06
1.31912e-06
9.90916e-07
7.43056e-07
5.71086e-07
4.50388e-07
1.10387e-06
3.0745e-07
2.65145e-07
2.34956e-07
5.77602e-07
1.96487e-07
1.83704e-07
1.74152e-07
1.668e-07
1.61111e-07
1.56709e-07
1.53261e-07
1.50498e-07
1.48182e-07
1.46196e-07
1.4306e-07
1.41694e-07
1.39213e-07
1.38037e-07
1.48136e-07
1.63742e-07
1.70133e-07
1.69515e-07
1.65914e-07
1.61245e-07
1.56269e-07
1.51281e-07
1.46394e-07
1.41644e-07
1.37043e-07
1.32592e-07
1.2829e-07
1.24125e-07
1.20102e-07
1.1622e-07
1.12462e-07
1.08821e-07
1.0531e-07
1.01923e-07
9.86375e-08
9.54546e-08
9.23805e-08
8.94134e-08
8.65358e-08
8.37435e-08
8.10411e-08
7.84266e-08
7.58925e-08
7.34303e-08
7.10363e-08
6.87145e-08
6.64633e-08
6.42772e-08
6.21538e-08
6.00858e-08
5.80699e-08
5.61122e-08
5.42148e-08
5.23725e-08
5.05851e-08
4.88424e-08
4.715e-08
4.55219e-08
6.51903e-06
1.07442e-05
1.64859e-05
2.04475e-05
2.08927e-05
1.83257e-05
1.52224e-05
6.30396e-06
4.78077e-06
3.58293e-06
2.67111e-06
2.03906e-06
1.59716e-06
3.04795e-06
1.06935e-06
9.11444e-07
7.9854e-07
1.68053e-06
6.52959e-07
6.02612e-07
5.63574e-07
5.32056e-07
5.06247e-07
4.8493e-07
4.67199e-07
4.52338e-07
4.39777e-07
4.29101e-07
4.16982e-07
4.09495e-07
4.00646e-07
3.97577e-07
4.28784e-07
4.76497e-07
4.96414e-07
4.95149e-07
4.84796e-07
4.71146e-07
4.56536e-07
4.41874e-07
4.27508e-07
4.13555e-07
4.00049e-07
3.86991e-07
3.7438e-07
3.6218e-07
3.50401e-07
3.39042e-07
3.28054e-07
3.1741e-07
3.07146e-07
2.97251e-07
2.8766e-07
2.78368e-07
2.69393e-07
2.60732e-07
2.52337e-07
2.44191e-07
2.36307e-07
2.28681e-07
2.21289e-07
2.1411e-07
2.0713e-07
2.00358e-07
1.93792e-07
1.87417e-07
1.81224e-07
1.75195e-07
1.69317e-07
1.63604e-07
1.58067e-07
1.5269e-07
1.47472e-07
1.42386e-07
1.37449e-07
1.32693e-07
9.3705e-06
1.57344e-05
2.51401e-05
3.26571e-05
3.50067e-05
3.27937e-05
2.87037e-05
1.85104e-05
1.46789e-05
1.11175e-05
8.27418e-06
6.30515e-06
4.92546e-06
7.09847e-06
3.26258e-06
2.76224e-06
2.40297e-06
4.1179e-06
1.93691e-06
1.7741e-06
1.64722e-06
1.54368e-06
1.45769e-06
1.38525e-06
1.32358e-06
1.27052e-06
1.2245e-06
1.18423e-06
1.14317e-06
1.11262e-06
1.08207e-06
1.06919e-06
1.13655e-06
1.23808e-06
1.27669e-06
1.2683e-06
1.23973e-06
1.20389e-06
1.16605e-06
1.12828e-06
1.09137e-06
1.05558e-06
1.02097e-06
9.8754e-07
9.55277e-07
9.24094e-07
8.93996e-07
8.64985e-07
8.36946e-07
8.09792e-07
7.83605e-07
7.5837e-07
7.33928e-07
7.10247e-07
6.8737e-07
6.65297e-07
6.43916e-07
6.23166e-07
6.03078e-07
5.83648e-07
5.6482e-07
5.46538e-07
5.2876e-07
5.11504e-07
4.94774e-07
4.78529e-07
4.62747e-07
4.47384e-07
4.32403e-07
4.17834e-07
4.03705e-07
3.89984e-07
3.76662e-07
3.63682e-07
3.51091e-07
3.38932e-07
1.19417e-05
2.06312e-05
3.45631e-05
4.67594e-05
5.22693e-05
5.18548e-05
4.79547e-05
3.87963e-05
3.33219e-05
2.73379e-05
2.16738e-05
1.70641e-05
1.3519e-05
1.47092e-05
8.99911e-06
7.60077e-06
6.59009e-06
8.8601e-06
5.271e-06
4.80739e-06
4.44553e-06
4.14946e-06
3.90247e-06
3.69297e-06
3.51294e-06
3.35617e-06
3.21828e-06
3.0955e-06
2.9749e-06
2.87713e-06
2.78475e-06
2.73504e-06
2.82844e-06
2.965e-06
2.99646e-06
2.95237e-06
2.87613e-06
2.78889e-06
2.69937e-06
2.611e-06
2.52504e-06
2.44189e-06
2.36164e-06
2.28422e-06
2.20956e-06
2.13746e-06
2.06789e-06
2.00087e-06
1.93615e-06
1.87349e-06
1.81306e-06
1.75484e-06
1.69849e-06
1.6439e-06
1.59114e-06
1.54025e-06
1.49097e-06
1.44315e-06
1.39684e-06
1.35204e-06
1.30863e-06
1.26649e-06
1.2255e-06
1.1857e-06
1.1471e-06
1.10962e-06
1.0732e-06
1.03775e-06
1.00317e-06
9.69507e-07
9.36842e-07
9.05115e-07
8.74299e-07
8.44271e-07
8.15162e-07
7.86979e-07
1.36393e-05
2.45115e-05
4.35663e-05
6.13009e-05
7.10429e-05
7.37437e-05
7.15033e-05
6.47298e-05
5.91673e-05
5.20972e-05
4.43258e-05
3.70312e-05
3.07406e-05
2.86741e-05
2.16506e-05
1.85677e-05
1.62338e-05
1.74917e-05
1.30586e-05
1.19226e-05
1.10183e-05
1.02706e-05
9.64104e-06
9.10187e-06
8.63403e-06
8.22231e-06
7.85625e-06
7.52629e-06
7.21153e-06
6.94114e-06
6.69019e-06
6.51163e-06
6.52249e-06
6.57974e-06
6.51321e-06
6.36056e-06
6.17321e-06
5.97638e-06
5.78047e-06
5.58948e-06
5.40475e-06
5.22658e-06
5.05491e-06
4.8895e-06
4.73014e-06
4.57637e-06
4.42806e-06
4.28522e-06
4.1474e-06
4.01402e-06
3.88532e-06
3.76137e-06
3.64149e-06
3.52532e-06
3.41303e-06
3.30467e-06
3.1998e-06
3.09804e-06
2.99944e-06
2.90402e-06
2.81158e-06
2.72184e-06
2.63453e-06
2.54969e-06
2.46739e-06
2.38746e-06
2.30975e-06
2.23411e-06
2.1603e-06
2.08839e-06
2.01853e-06
1.95065e-06
1.88469e-06
1.8204e-06
1.75813e-06
1.69762e-06
2.64862e-05
5.10058e-05
7.49414e-05
8.97574e-05
9.65719e-05
9.71984e-05
9.34924e-05
8.93137e-05
8.28164e-05
7.44698e-05
6.5575e-05
5.70851e-05
5.13436e-05
4.32257e-05
3.80206e-05
3.38412e-05
3.26581e-05
2.77863e-05
2.55439e-05
2.37028e-05
2.21525e-05
2.08281e-05
1.96794e-05
1.86717e-05
1.77762e-05
1.6973e-05
1.62429e-05
1.55583e-05
1.49497e-05
1.43853e-05
1.39158e-05
1.36473e-05
1.34335e-05
1.31176e-05
1.27345e-05
1.23304e-05
1.19278e-05
1.15353e-05
1.1156e-05
1.07906e-05
1.04388e-05
1.01001e-05
9.77397e-06
9.45977e-06
9.15668e-06
8.86422e-06
8.5825e-06
8.31073e-06
8.04765e-06
7.79352e-06
7.54869e-06
7.31196e-06
7.08244e-06
6.86033e-06
6.64588e-06
6.43834e-06
6.23685e-06
6.04141e-06
5.85214e-06
5.66872e-06
5.49061e-06
5.31721e-06
5.14852e-06
4.98477e-06
4.82563e-06
4.67082e-06
4.52011e-06
4.37291e-06
4.22928e-06
4.08959e-06
3.95376e-06
3.82164e-06
3.69284e-06
3.56816e-06
3.44632e-06
5.58907e-05
8.66023e-05
0.000107226
0.000118942
0.000123311
0.000123077
0.000121317
0.0001167
0.000109248
0.000100138
9.05669e-05
8.22438e-05
7.31486e-05
6.59802e-05
5.99068e-05
5.59943e-05
5.05394e-05
4.69185e-05
4.38539e-05
4.12195e-05
3.89308e-05
3.69179e-05
3.51313e-05
3.35276e-05
3.20769e-05
3.07485e-05
2.95121e-05
2.83888e-05
2.73443e-05
2.64141e-05
2.56721e-05
2.49977e-05
2.42709e-05
2.35173e-05
2.27693e-05
2.20414e-05
2.13386e-05
2.06618e-05
2.00102e-05
1.93827e-05
1.87781e-05
1.81951e-05
1.76328e-05
1.70897e-05
1.65646e-05
1.6058e-05
1.55688e-05
1.50944e-05
1.46351e-05
1.41919e-05
1.37628e-05
1.33461e-05
1.2942e-05
1.2551e-05
1.21722e-05
1.18038e-05
1.14458e-05
1.10985e-05
1.07613e-05
1.04336e-05
1.01139e-05
9.80234e-06
9.49933e-06
9.20445e-06
8.91712e-06
8.63708e-06
8.36312e-06
8.09522e-06
7.83407e-06
7.57978e-06
7.332e-06
7.0902e-06
6.85624e-06
6.62538e-06
9.53979e-05
0.00012258
0.000139947
0.000148773
0.000152366
0.000153719
0.000151864
0.000146393
0.000138217
0.00012863
0.000119084
0.000109269
0.000100643
9.30039e-05
8.68745e-05
8.05734e-05
7.55674e-05
7.12209e-05
6.74117e-05
6.40489e-05
6.10509e-05
5.8359e-05
5.59191e-05
5.36931e-05
5.16407e-05
4.97341e-05
4.79748e-05
4.63327e-05
4.48249e-05
4.34879e-05
4.22333e-05
4.09823e-05
3.97495e-05
3.85523e-05
3.73971e-05
3.62844e-05
3.52125e-05
3.41793e-05
3.31823e-05
3.22195e-05
3.1289e-05
3.03892e-05
2.95181e-05
2.86734e-05
2.7856e-05
2.70649e-05
2.62956e-05
2.55482e-05
2.48247e-05
2.41228e-05
2.34391e-05
2.27736e-05
2.21278e-05
2.15005e-05
2.08889e-05
2.02924e-05
1.97118e-05
1.91467e-05
1.8596e-05
1.80574e-05
1.75304e-05
1.70164e-05
1.65149e-05
1.60247e-05
1.55458e-05
1.5076e-05
1.46149e-05
1.41638e-05
1.37233e-05
1.32928e-05
1.28716e-05
1.24641e-05
1.20555e-05
0.000100515
0.000135105
0.000158951
0.000172949
0.000180804
0.000185821
0.00018737
0.000184682
0.000178324
0.000169558
0.000159791
0.000149582
0.000139984
0.000131164
0.000123444
0.000116185
0.000109945
0.00010442
9.9502e-05
9.5102e-05
9.11349e-05
8.75375e-05
8.42497e-05
8.1228e-05
7.84258e-05
7.58216e-05
7.33906e-05
7.11129e-05
6.89902e-05
6.70284e-05
6.51641e-05
6.33501e-05
6.15925e-05
5.98973e-05
5.82641e-05
5.66899e-05
5.5171e-05
5.37036e-05
5.22841e-05
5.09098e-05
4.9578e-05
4.82865e-05
4.70325e-05
4.58126e-05
4.46282e-05
4.3479e-05
4.23579e-05
4.12642e-05
4.02019e-05
3.91686e-05
3.81585e-05
3.71712e-05
3.62096e-05
3.52728e-05
3.43562e-05
3.34587e-05
3.25815e-05
3.1725e-05
3.08875e-05
3.00654e-05
2.92577e-05
2.84666e-05
2.76918e-05
2.69318e-05
2.61868e-05
2.54531e-05
2.47295e-05
2.40183e-05
2.3321e-05
2.26366e-05
2.19648e-05
2.13141e-05
2.06471e-05
0.000101117
0.000144097
0.000175391
0.000195362
0.000208051
0.000217293
0.000222822
0.000223606
0.000219844
0.00021264
0.00020339
0.000193125
0.000182894
0.00017315
0.000164228
0.000155985
0.000148638
0.000142039
0.000136097
0.000130731
0.000125853
0.000121399
0.000117303
0.00011352
0.000109998
0.000106722
0.000103641
0.000100745
9.80248e-05
9.54664e-05
9.30223e-05
9.0664e-05
8.83913e-05
8.62026e-05
8.40932e-05
8.20576e-05
8.00899e-05
7.81853e-05
7.63391e-05
7.45476e-05
7.28076e-05
7.1116e-05
6.94696e-05
6.78632e-05
6.62992e-05
6.4778e-05
6.32896e-05
6.18324e-05
6.04125e-05
5.90276e-05
5.76696e-05
5.6337e-05
5.50344e-05
5.37617e-05
5.25121e-05
5.12837e-05
5.00786e-05
4.88976e-05
4.7739e-05
4.65977e-05
4.54711e-05
4.43632e-05
4.32739e-05
4.22011e-05
4.11456e-05
4.01018e-05
3.90671e-05
3.8045e-05
3.70382e-05
3.60455e-05
3.50668e-05
3.41176e-05
9.62969e-05
0.000148781
0.000188651
0.000215518
0.00023377
0.000247878
0.000257997
0.000262932
0.00026254
0.000257683
0.000249674
0.000239792
0.000229234
0.000218742
0.000208793
0.000199529
0.000191094
0.000183432
0.000176473
0.000170144
0.000164361
0.000159056
0.000154163
0.000149629
0.0001454
0.000141466
0.00013775
0.000134251
0.000130953
0.000127828
0.000124839
0.000121965
0.000119201
0.000116541
0.000113977
0.000111501
0.000109106
0.000106786
0.000104534
0.000102347
0.000100219
9.81479e-05
9.61292e-05
9.41556e-05
9.22302e-05
9.03548e-05
8.85161e-05
8.67109e-05
8.49478e-05
8.3225e-05
8.15314e-05
7.98644e-05
7.82301e-05
7.66294e-05
7.50537e-05
7.34996e-05
7.19698e-05
7.0466e-05
6.89867e-05
6.75247e-05
6.60759e-05
6.46458e-05
6.32347e-05
6.18399e-05
6.04629e-05
5.9096e-05
5.77344e-05
5.63828e-05
5.50453e-05
5.37205e-05
5.24089e-05
5.11353e-05
8.50428e-05
0.000148313
0.000198007
0.000232804
0.000257503
0.000277239
0.000292638
0.000302441
0.000306216
0.000304565
0.000298633
0.000289767
0.000279321
0.000268321
0.000257473
0.000247164
0.000237595
0.000228798
0.000220741
0.000213369
0.000206604
0.000200379
0.000194624
0.000189284
0.000184303
0.000179667
0.000175283
0.000171153
0.000167254
0.000163552
0.000160013
0.000156619
0.000153362
0.000150231
0.000147214
0.000144303
0.000141488
0.000138762
0.000136117
0.000133547
0.000131048
0.000128615
0.000126243
0.000123922
0.000121656
0.000119448
0.000117282
0.000115152
0.000113069
0.000111032
0.000109027
0.00010705
0.000105107
0.000103203
0.000101324
9.94677e-05
9.76358e-05
9.58313e-05
9.40528e-05
9.22911e-05
9.054e-05
8.88065e-05
8.70915e-05
8.53914e-05
8.37083e-05
8.20326e-05
8.03568e-05
7.86863e-05
7.70266e-05
7.53763e-05
7.37362e-05
7.21419e-05
6.74477e-05
0.000141852
0.000202599
0.00024644
0.000278618
0.000304878
0.000326352
0.000341808
0.00035059
0.000353054
0.00035014
0.000343134
0.000333461
0.000322387
0.000310882
0.000299593
0.000288868
0.000278855
0.000269587
0.000261044
0.000253163
0.000245887
0.000239144
0.00023288
0.000227036
0.000221595
0.00021645
0.000211603
0.000207027
0.000202682
0.000198536
0.00019457
0.000190771
0.000187125
0.000183618
0.000180238
0.000176974
0.000173818
0.00017076
0.000167792
0.000164908
0.000162103
0.00015937
0.000156699
0.000154091
0.000151552
0.000149062
0.000146613
0.000144218
0.000141876
0.000139571
0.000137296
0.00013506
0.000132867
0.000130702
0.000128561
0.000126446
0.00012436
0.000122302
0.000120262
0.00011823
0.000116215
0.000114219
0.000112236
0.00011027
0.000108308
0.000106341
0.000104374
0.000102414
0.000100459
9.85106e-05
9.66158e-05
4.55783e-05
0.000128731
0.000201436
0.000255452
0.00029628
0.000330095
0.000358559
0.000380552
0.000395236
0.00040276
0.00040387
0.000399717
0.000391702
0.000381238
0.000369538
0.000357516
0.000345733
0.000334495
0.000323938
0.000314102
0.000304963
0.00029648
0.000288593
0.000281248
0.00027439
0.000267996
0.000261953
0.000256258
0.000250881
0.00024578
0.000240922
0.000236285
0.000231852
0.000227604
0.000223526
0.000219603
0.000215822
0.000212172
0.000208642
0.000205222
0.000201905
0.000198683
0.00019555
0.00019249
0.000189507
0.000186607
0.000183767
0.000180976
0.000178247
0.000175582
0.000172961
0.000170376
0.000167835
0.000165344
0.000162888
0.000160458
0.000158056
0.000155688
0.000153353
0.000151038
0.00014873
0.00014644
0.00014417
0.000141913
0.000139674
0.000137439
0.000135194
0.000132944
0.000130698
0.000128454
0.000126214
0.000124035
2.52313e-05
0.000108629
0.000193392
0.000258671
0.000309429
0.000351966
0.000388459
0.000417984
0.00043956
0.000453143
0.000459316
0.000459087
0.000453775
0.00044484
0.000433663
0.000421403
0.000408858
0.000396536
0.000384717
0.000373539
0.00036304
0.000353217
0.000344032
0.000335444
0.000327404
0.00031989
0.000312784
0.000306082
0.000299752
0.000293749
0.00028804
0.000282598
0.000277403
0.000272433
0.000267669
0.000263095
0.000258695
0.000254454
0.00025036
0.000246402
0.00024257
0.000238854
0.000235247
0.000231731
0.000228308
0.000224986
0.000221739
0.000218551
0.000215438
0.000212403
0.000209422
0.000206485
0.0002036
0.000200775
0.000197993
0.000195243
0.000192527
0.000189851
0.000187213
0.0001846
0.000181997
0.000179414
0.000176853
0.000174308
0.000171784
0.000169264
0.000166732
0.000164193
0.000161655
0.000159118
0.000156583
0.000154119
1.13067e-05
8.21262e-05
0.000177257
0.000254759
0.000316781
0.000369316
0.000414998
0.000453177
0.000482754
0.000503487
0.00051581
0.000520616
0.000519135
0.000512809
0.000503107
0.000491366
0.000478608
0.000465558
0.000452677
0.000440238
0.000428375
0.000417146
0.000406557
0.000396591
0.000387219
0.00037842
0.000370085
0.000362208
0.000354758
0.000347691
0.00034097
0.000334568
0.000328461
0.000322624
0.000317036
0.000311677
0.000306528
0.000301575
0.0002968
0.000292191
0.000287736
0.000283423
0.000279245
0.000275178
0.000271225
0.000267395
0.000263658
0.000259995
0.000256422
0.000252943
0.000249534
0.000246178
0.000242886
0.000239666
0.0002365
0.000233374
0.000230289
0.000227252
0.000224264
0.000221307
0.000218363
0.000215444
0.000212551
0.00020968
0.000206832
0.000203993
0.000201141
0.000198281
0.000195422
0.000192562
0.000189705
0.00018693
5.82271e-06
5.29898e-05
0.000152082
0.000242318
0.000316839
0.000380706
0.000436848
0.000484924
0.000523747
0.000552849
0.000572504
0.000583509
0.000587029
0.000584479
0.000577361
0.00056712
0.000554953
0.000541788
0.000528275
0.00051485
0.000501773
0.000489195
0.000477186
0.000465778
0.000454971
0.000444759
0.000435049
0.000425843
0.000417111
0.000408814
0.000400917
0.000393392
0.00038621
0.000379348
0.00037278
0.000366486
0.000360444
0.000354635
0.000349044
0.000343652
0.000338447
0.000333415
0.000328547
0.000323815
0.000319222
0.000314777
0.000310447
0.00030621
0.000302081
0.000298066
0.000294138
0.000290278
0.000286494
0.000282798
0.000279169
0.000275591
0.000272064
0.000268595
0.000265186
0.000261817
0.000258468
0.000255148
0.000251863
0.000248604
0.000245376
0.000242161
0.000238934
0.000235698
0.000232465
0.000229232
0.000226004
0.000222867
3.492e-06
2.72684e-05
0.000118126
0.000220179
0.000307973
0.000384428
0.000452372
0.000511708
0.000561164
0.000600007
0.000628312
0.000646775
0.000656524
0.000658968
0.000655629
0.000648019
0.000637459
0.000625034
0.000611571
0.000597673
0.000583743
0.00057005
0.000556754
0.000543955
0.000531703
0.00052002
0.000508846
0.000498195
0.000488049
0.000478378
0.000469152
0.000460344
0.000451928
0.000443879
0.000436172
0.000428783
0.000421692
0.000414877
0.000408318
0.000401998
0.000395902
0.000390014
0.000384322
0.000378796
0.000373435
0.000368253
0.000363213
0.000358286
0.000353488
0.000348828
0.000344277
0.000339808
0.000335432
0.000331162
0.000326976
0.000322853
0.000318793
0.000314804
0.000310888
0.000307025
0.000303188
0.000299388
0.00029563
0.000291906
0.000288222
0.000284557
0.000280883
0.0002772
0.000273522
0.000269846
0.000266178
0.000262609
2.53292e-06
1.17907e-05
7.90685e-05
0.00018781
0.00028857
0.000378546
0.000459615
0.00053166
0.000593269
0.00064339
0.000681836
0.000709168
0.000726481
0.000735199
0.000736892
0.00073313
0.000725328
0.000714693
0.000702192
0.000688578
0.000674397
0.000660046
0.000645794
0.000631824
0.00061826
0.000605169
0.000592537
0.000580402
0.000568771
0.000557628
0.000546956
0.000536734
0.000526943
0.000517559
0.000508559
0.000499922
0.000491625
0.000483648
0.000475969
0.000468568
0.000461431
0.000454538
0.000447878
0.000441417
0.000435151
0.000429097
0.000423214
0.00041747
0.000411877
0.00040645
0.000401155
0.000395963
0.00039088
0.000385924
0.000381072
0.000376299
0.000371602
0.00036699
0.000362468
0.000358012
0.000353592
0.000349217
0.000344894
0.000340615
0.000336384
0.000332182
0.000327974
0.000323759
0.000319551
0.000315347
0.000311156
0.000307064
2.36274e-06
6.02603e-06
4.31777e-05
0.000145508
0.000257297
0.00036101
0.00045632
0.000542534
0.000617925
0.000681024
0.000731291
0.000769094
0.000795467
0.000811864
0.000819918
0.000821286
0.000817478
0.000809803
0.000799346
0.000786983
0.000773386
0.000759074
0.000744426
0.000729723
0.000715172
0.000700903
0.000686963
0.00067343
0.000660344
0.000647717
0.000635551
0.000623841
0.000612578
0.000601746
0.000591329
0.000581309
0.000571666
0.000562381
0.000553434
0.000544803
0.000536475
0.000528428
0.000520652
0.000513109
0.000505792
0.000498722
0.000491857
0.000485157
0.000478635
0.000472307
0.000466138
0.000460094
0.00045418
0.000448415
0.000442775
0.000437234
0.000431785
0.000426436
0.000421195
0.000416037
0.000410927
0.000405871
0.000400879
0.000395941
0.000391062
0.000386223
0.000381384
0.000376539
0.000371703
0.000366874
0.000362066
0.000357339
2.46807e-06
4.0898e-06
1.912e-05
9.54491e-05
0.000213466
0.000329927
0.000440024
0.000541715
0.000632551
0.000710461
0.000774424
0.000824517
0.000861662
0.00088732
0.000903207
0.000911084
0.000912579
0.000909119
0.000901897
0.000891899
0.000879906
0.00086654
0.000852286
0.000837519
0.00082253
0.000807524
0.000792621
0.000777946
0.000763587
0.000749594
0.000735999
0.000722822
0.00071007
0.000697746
0.000685842
0.000674351
0.000663259
0.00065255
0.00064221
0.000632219
0.000622563
0.000613223
0.000604189
0.00059542
0.000586909
0.000578679
0.000570689
0.000562892
0.000555299
0.000547929
0.000540749
0.000533719
0.000526839
0.000520132
0.000513576
0.000507139
0.000500812
0.000494602
0.00048852
0.00048254
0.000476622
0.000470769
0.000464993
0.000459283
0.000453644
0.000448057
0.000442478
0.000436896
0.000431327
0.000425766
0.000420235
0.000414739
2.65139e-06
3.26799e-06
8.63806e-06
4.78554e-05
0.000157673
0.000284056
0.000408343
0.000526304
0.000634115
0.000728735
0.000808438
0.000872866
0.000922739
0.00095948
0.000984874
0.0010008
0.00100903
0.00101113
0.00100842
0.001002
0.000992753
0.000981402
0.000968518
0.000954563
0.000939909
0.000924833
0.000909528
0.000894178
0.000878923
0.000863861
0.000849062
0.000834579
0.000820449
0.000806696
0.000793331
0.000780361
0.000767785
0.000755598
0.00074379
0.000732348
0.000721264
0.000710519
0.000700108
0.000689989
0.000680154
0.00067063
0.000661379
0.00065235
0.000643548
0.000634998
0.000626668
0.000618514
0.000610532
0.000602747
0.000595139
0.000587673
0.000580335
0.000573134
0.000566081
0.000559151
0.000552299
0.000545525
0.000538842
0.000532237
0.000525717
0.000519263
0.000512828
0.000506393
0.000499975
0.000493568
0.000487202
0.000480784
2.96589e-06
3.00792e-06
4.81952e-06
1.90104e-05
9.52368e-05
0.000223969
0.000359614
0.000493392
0.000619208
0.00073233
0.00082992
0.000910939
0.000975756
0.00102568
0.00106251
0.00108826
0.00110484
0.00111399
0.00111718
0.00111565
0.00111039
0.00110223
0.00109183
0.00107972
0.00106636
0.00105208
0.00103715
0.00102181
0.00100625
0.000990628
0.00097505
0.000959611
0.000944382
0.000929418
0.000914758
0.000900427
0.000886444
0.000872818
0.000859554
0.000846646
0.000834097
0.000821892
0.000810033
0.000798481
0.000787227
0.000776306
0.000765683
0.000755305
0.000745174
0.000735319
0.000725711
0.000716304
0.00070709
0.000698094
0.000689301
0.000680672
0.000672192
0.000663866
0.000655709
0.000647699
0.000639783
0.00063196
0.000624241
0.000616614
0.000609087
0.000601641
0.000594226
0.000586817
0.000579429
0.000572056
0.000564736
3.09693e-06
3.09638e-06
3.77283e-06
8.20839e-06
4.29905e-05
0.000153554
0.00029414
0.000440752
0.000584315
0.000717248
0.000834803
0.000934813
0.00101704
0.00108253
0.00113306
0.00117068
0.0011975
0.0012154
0.00122606
0.00123086
0.00123095
0.00122726
0.00122055
0.00121144
0.00120046
0.001188
0.0011744
0.00115995
0.00114489
0.00112942
0.00111369
0.00109786
0.00108201
0.00106625
0.00105064
0.00103524
0.00102008
0.0010052
0.00099062
0.000976348
0.000962401
0.000948774
0.000935478
0.000922484
0.000909784
0.000897417
0.000885361
0.000873564
0.000862021
0.000850768
0.000839782
0.000829018
0.000818461
0.000808139
0.000798042
0.000788131
0.000778386
0.000768811
0.000759424
0.000750206
0.0007411
0.0007321
0.000723218
0.000714443
0.00070578
0.000697216
0.000688697
0.000680192
0.000671711
0.000663248
0.000654853
3.01683e-06
3.05129e-06
3.36019e-06
4.89307e-06
1.61734e-05
8.26534e-05
0.000215517
0.000368171
0.000526514
0.000679266
0.000818409
0.000939787
0.00104209
0.00112583
0.00119262
0.00124453
0.00128377
0.00131244
0.00133238
0.00134517
0.00135213
0.00135432
0.00135264
0.00134779
0.00134038
0.00133088
0.0013197
0.00130715
0.00129355
0.00127913
0.0012641
0.00124862
0.00123285
0.00121692
0.00120091
0.00118492
0.00116901
0.00115324
0.00113765
0.00112228
0.00110715
0.00109228
0.00107768
0.00106335
0.00104928
0.00103551
0.00102205
0.00100884
0.000995868
0.000983187
0.000970778
0.0009586
0.000946635
0.000934911
0.000923425
0.000912141
0.000901035
0.000890111
0.000879387
0.000868851
0.000858445
0.000848156
0.000837996
0.000827955
0.000818038
0.000808235
0.000798493
0.000788772
0.000779082
0.00076941
0.000759821
3.02044e-06
3.15564e-06
3.72995e-06
7.16777e-06
3.21686e-05
0.000131204
0.000279153
0.000444928
0.000614677
0.000775726
0.00092042
0.00104546
0.00115038
0.00123634
0.0013053
0.00135955
0.00140134
0.00143271
0.00145544
0.00147104
0.00148075
0.00148558
0.00148639
0.00148387
0.00147859
0.001471
0.00146151
0.00145045
0.00143811
0.00142475
0.00141056
0.00139574
0.00138043
0.00136478
0.00134889
0.00133285
0.00131676
0.00130068
0.00128466
0.00126875
0.00125298
0.00123739
0.00122198
0.00120676
0.00119179
0.00117706
0.00116256
0.00114826
0.00113422
0.00112043
0.00110687
0.0010935
0.00108037
0.00106748
0.00105478
0.00104227
0.00102995
0.00101782
0.0010059
0.000994112
0.000982451
0.000970926
0.000959528
0.00094826
0.000937119
0.000926053
0.000915017
0.000904014
0.00089303
0.000882139
3.10684e-06
3.08116e-06
3.29929e-06
4.43359e-06
1.15556e-05
5.77077e-05
0.000181637
0.000342981
0.000521913
0.0007022
0.000870821
0.00102087
0.00114993
0.00125823
0.00134739
0.00141963
0.00147731
0.00152265
0.00155764
0.00158398
0.00160311
0.00161623
0.00162431
0.00162818
0.0016285
0.00162583
0.00162064
0.00161331
0.00160421
0.0015936
0.00158176
0.00156888
0.00155517
0.00154078
0.00152585
0.0015105
0.00149485
0.00147898
0.00146296
0.00144687
0.00143075
0.00141467
0.00139863
0.00138267
0.00136684
0.00135117
0.00133565
0.00132027
0.00130508
0.0012901
0.0012753
0.00126066
0.00124622
0.00123199
0.00121795
0.00120408
0.00119037
0.00117686
0.00116354
0.00115036
0.00113731
0.00112438
0.00111158
0.00109891
0.00108637
0.00107392
0.0010615
0.00104912
0.00103675
0.00102448
3.17304e-06
3.11183e-06
3.18301e-06
3.58506e-06
5.67064e-06
1.90874e-05
8.91736e-05
0.000230112
0.00040442
0.000595622
0.000785564
0.000961456
0.00111719
0.00125109
0.00136389
0.00145752
0.00153431
0.0015966
0.00164659
0.00168619
0.00171703
0.00174051
0.00175777
0.00176978
0.00177734
0.0017811
0.00178162
0.00177937
0.00177476
0.00176813
0.00175978
0.00174997
0.00173891
0.00172682
0.00171384
0.00170014
0.00168583
0.00167103
0.00165585
0.00164035
0.00162462
0.00160873
0.00159271
0.0015766
0.00156047
0.00154438
0.00152831
0.00151227
0.00149632
0.00148049
0.00146476
0.00144914
0.00143364
0.0014183
0.0014031
0.00138803
0.00137309
0.00135831
0.0013437
0.00132921
0.00131482
0.00130055
0.00128639
0.00127234
0.00125842
0.00124458
0.00123078
0.001217
0.00120323
0.00118955
3.19905e-06
3.18092e-06
3.19431e-06
3.34506e-06
4.00948e-06
7.54286e-06
2.967e-05
0.000120724
0.000273644
0.000459753
0.00066195
0.000860946
0.00104431
0.00120656
0.00134652
0.00146525
0.0015648
0.00164752
0.00171575
0.00177158
0.00181687
0.00185322
0.00188195
0.0019042
0.00192092
0.00193289
0.00194077
0.00194513
0.00194646
0.00194517
0.00194162
0.0019361
0.0019289
0.00192023
0.00191031
0.0018993
0.00188737
0.00187464
0.00186124
0.00184726
0.0018328
0.00181795
0.00180276
0.00178728
0.00177158
0.00175574
0.00173978
0.0017237
0.00170757
0.00169142
0.00167528
0.00165913
0.001643
0.00162694
0.00161095
0.00159502
0.00157915
0.00156337
0.0015477
0.00153213
0.00151661
0.00150117
0.00148581
0.00147052
0.00145533
0.00144021
0.00142512
0.00141003
0.00139492
0.00137989
3.20924e-06
3.21418e-06
3.22051e-06
3.28219e-06
3.50641e-06
4.55014e-06
9.9157e-06
4.15582e-05
0.000147371
0.000308749
0.000504616
0.000716438
0.000924229
0.00111571
0.00128571
0.00143327
0.00155957
0.00166667
0.00175688
0.00183246
0.00189546
0.00194766
0.00199061
0.00202563
0.00205384
0.00207615
0.00209338
0.00210618
0.00211516
0.0021208
0.00212353
0.00212373
0.00212171
0.00211775
0.0021121
0.00210497
0.00209653
0.00208696
0.0020764
0.00206497
0.00205277
0.00203992
0.00202649
0.00201254
0.00199816
0.00198342
0.00196837
0.00195303
0.00193746
0.00192171
0.00190582
0.00188979
0.00187365
0.00185745
0.00184121
0.00182493
0.00180861
0.00179229
0.00177599
0.00175972
0.00174344
0.00172717
0.00171092
0.00169469
0.0016785
0.00166234
0.00164617
0.00162998
0.00161374
0.00159753
3.22054e-06