/*--------------------------------*- C++ -*----------------------------------*\
| =========                 |                                                 |
| \\      /  F ield         | OpenFOAM: The Open Source CFD Toolbox           |
|  \\    /   O peration     | Version:  2412                                  |
|   \\  /    A nd           | Website:  www.openfoam.com                      |
|    \\/     M anipulation  |                                                 |
\*---------------------------------------------------------------------------*/
FoamFile
{
    version     2.0;
    format      ascii;
    arch        "LSB;label=32;scalar=64";
    class       volScalarField;
    location    "220";
    object      nuTilda;
}
// * * * * * * * * * * * * * * * * * * * * * * * * * * * * * * * * * * * * * //

dimensions      [0 2 -1 0 0 0 0];

internalField   nonuniform List<scalar> 
7423
(
5.8925e-06
6.55741e-06
7.04833e-06
7.0508e-06
6.44682e-06
5.71051e-06
5.11976e-06
2.97813e-06
2.83431e-06
2.67163e-06
2.51972e-06
2.39948e-06
2.30819e-06
2.70582e-06
2.17121e-06
2.12419e-06
2.0893e-06
2.28557e-06
2.04076e-06
2.02343e-06
2.00892e-06
1.99622e-06
1.98443e-06
1.97323e-06
1.9623e-06
1.95144e-06
1.94054e-06
1.92967e-06
1.91709e-06
1.90651e-06
1.89362e-06
1.87941e-06
1.87337e-06
1.87193e-06
1.86383e-06
1.85149e-06
1.83764e-06
1.82331e-06
1.80885e-06
1.79442e-06
1.78007e-06
1.7658e-06
1.75161e-06
1.73754e-06
1.72354e-06
1.70963e-06
1.69585e-06
1.68221e-06
1.66865e-06
1.65516e-06
1.64183e-06
1.62863e-06
1.61548e-06
1.60242e-06
1.58951e-06
1.57671e-06
1.56398e-06
1.55131e-06
1.53874e-06
1.52628e-06
1.51388e-06
1.50154e-06
1.48924e-06
1.477e-06
1.46484e-06
1.45273e-06
1.44065e-06
1.42856e-06
1.41651e-06
1.40451e-06
1.39258e-06
1.3807e-06
1.36888e-06
1.35703e-06
1.34519e-06
1.33353e-06
1.81677e-05
2.02002e-05
2.17382e-05
2.19689e-05
2.0507e-05
1.8553e-05
1.6863e-05
8.57836e-06
8.08113e-06
7.58026e-06
7.15368e-06
6.86529e-06
6.67803e-06
8.97543e-06
6.39666e-06
6.30017e-06
6.23414e-06
7.45339e-06
6.14642e-06
6.11549e-06
6.09086e-06
6.06925e-06
6.0483e-06
6.0274e-06
6.00582e-06
5.98329e-06
5.95957e-06
5.93502e-06
5.90051e-06
5.87662e-06
5.84116e-06
5.80129e-06
5.80627e-06
5.83585e-06
5.83e-06
5.79953e-06
5.7592e-06
5.7153e-06
5.67022e-06
5.62489e-06
5.57975e-06
5.53481e-06
5.49014e-06
5.44584e-06
5.40182e-06
5.35806e-06
5.31473e-06
5.27183e-06
5.22922e-06
5.18681e-06
5.14491e-06
5.10345e-06
5.06217e-06
5.02116e-06
4.9806e-06
4.94044e-06
4.90046e-06
4.86067e-06
4.82123e-06
4.78213e-06
4.74322e-06
4.70447e-06
4.66588e-06
4.6275e-06
4.58933e-06
4.5513e-06
4.51343e-06
4.47555e-06
4.43773e-06
4.40007e-06
4.36263e-06
4.32534e-06
4.28823e-06
4.25105e-06
4.21392e-06
4.17734e-06
2.95906e-05
3.30902e-05
3.5827e-05
3.65268e-05
3.46964e-05
3.19054e-05
2.93227e-05
1.61281e-05
1.5152e-05
1.41739e-05
1.32762e-05
1.25407e-05
1.19385e-05
1.6316e-05
1.10986e-05
1.08608e-05
1.07149e-05
1.35694e-05
1.05522e-05
1.05023e-05
1.0469e-05
1.04433e-05
1.04197e-05
1.03964e-05
1.03721e-05
1.03461e-05
1.03177e-05
1.02876e-05
1.02339e-05
1.02055e-05
1.01521e-05
1.0097e-05
1.01611e-05
1.02828e-05
1.03108e-05
1.02728e-05
1.02072e-05
1.01312e-05
1.00517e-05
9.9711e-06
9.89057e-06
9.81043e-06
9.73076e-06
9.65174e-06
9.57335e-06
9.49541e-06
9.41826e-06
9.34188e-06
9.26601e-06
9.19059e-06
9.11603e-06
9.04232e-06
8.96896e-06
8.89606e-06
8.82393e-06
8.75259e-06
8.68158e-06
8.61092e-06
8.54085e-06
8.4714e-06
8.40235e-06
8.33356e-06
8.26502e-06
8.19688e-06
8.12912e-06
8.06163e-06
7.99442e-06
7.92722e-06
7.86009e-06
7.79324e-06
7.72678e-06
7.66055e-06
7.59463e-06
7.52866e-06
7.46279e-06
7.39786e-06
3.9212e-05
4.43855e-05
4.87825e-05
5.02799e-05
4.86473e-05
4.53992e-05
4.21345e-05
2.58791e-05
2.41978e-05
2.25391e-05
2.10057e-05
1.9737e-05
1.86682e-05
2.4648e-05
1.70888e-05
1.65411e-05
1.61281e-05
2.06744e-05
1.56006e-05
1.54416e-05
1.5338e-05
1.52657e-05
1.52111e-05
1.5167e-05
1.51286e-05
1.50929e-05
1.50572e-05
1.50217e-05
1.49481e-05
1.49184e-05
1.48508e-05
1.47967e-05
1.49837e-05
1.52754e-05
1.53767e-05
1.53443e-05
1.52552e-05
1.51444e-05
1.50258e-05
1.49047e-05
1.47834e-05
1.46626e-05
1.45426e-05
1.44236e-05
1.43056e-05
1.41884e-05
1.40723e-05
1.39575e-05
1.38436e-05
1.37303e-05
1.36184e-05
1.35077e-05
1.33976e-05
1.32883e-05
1.31801e-05
1.30731e-05
1.29667e-05
1.28608e-05
1.27558e-05
1.26518e-05
1.25483e-05
1.24453e-05
1.23426e-05
1.22406e-05
1.21391e-05
1.20381e-05
1.19374e-05
1.18368e-05
1.17363e-05
1.16362e-05
1.15367e-05
1.14375e-05
1.13388e-05
1.124e-05
1.11414e-05
1.10441e-05
4.72256e-05
5.39214e-05
6.01733e-05
6.30216e-05
6.23337e-05
5.90286e-05
5.52816e-05
3.80928e-05
3.55076e-05
3.29959e-05
3.06591e-05
2.86747e-05
2.7e-05
3.39204e-05
2.45162e-05
2.36177e-05
2.2909e-05
2.87574e-05
2.19004e-05
2.15328e-05
2.12454e-05
2.10162e-05
2.08336e-05
2.0689e-05
2.05736e-05
2.04797e-05
2.04e-05
2.0331e-05
2.02204e-05
2.01718e-05
2.00824e-05
2.00396e-05
2.03984e-05
2.09186e-05
2.1121e-05
2.11017e-05
2.09881e-05
2.0838e-05
2.06743e-05
2.05064e-05
2.03379e-05
2.017e-05
2.00032e-05
1.9838e-05
1.96743e-05
1.95118e-05
1.9351e-05
1.9192e-05
1.90342e-05
1.88776e-05
1.87227e-05
1.85697e-05
1.84176e-05
1.82666e-05
1.81172e-05
1.79693e-05
1.78225e-05
1.76764e-05
1.75315e-05
1.73879e-05
1.72452e-05
1.71031e-05
1.69616e-05
1.68208e-05
1.66809e-05
1.65416e-05
1.64028e-05
1.62643e-05
1.61257e-05
1.59877e-05
1.58504e-05
1.57137e-05
1.55775e-05
1.54413e-05
1.53054e-05
1.51713e-05
5.41518e-05
6.22998e-05
7.06736e-05
7.55232e-05
7.60361e-05
7.29949e-05
6.89961e-05
5.36554e-05
4.97713e-05
4.60774e-05
4.26419e-05
3.9739e-05
3.73017e-05
4.41478e-05
3.36455e-05
3.22984e-05
3.12268e-05
3.77955e-05
2.96673e-05
2.90686e-05
2.85786e-05
2.81644e-05
2.78116e-05
2.751e-05
2.72517e-05
2.70295e-05
2.68375e-05
2.66711e-05
2.64785e-05
2.63574e-05
2.62121e-05
2.61612e-05
2.66661e-05
2.7388e-05
2.76736e-05
2.76558e-05
2.75081e-05
2.73098e-05
2.70928e-05
2.68698e-05
2.6646e-05
2.64232e-05
2.62023e-05
2.59833e-05
2.57666e-05
2.55518e-05
2.53392e-05
2.51292e-05
2.4921e-05
2.47143e-05
2.45101e-05
2.43084e-05
2.41081e-05
2.39093e-05
2.37125e-05
2.35179e-05
2.33247e-05
2.31326e-05
2.29421e-05
2.27533e-05
2.25658e-05
2.23791e-05
2.21932e-05
2.20082e-05
2.18244e-05
2.16415e-05
2.14593e-05
2.12774e-05
2.10955e-05
2.09142e-05
2.07339e-05
2.05543e-05
2.03754e-05
2.01964e-05
2.00181e-05
1.98418e-05
5.99164e-05
6.96848e-05
8.0681e-05
8.80895e-05
9.02541e-05
8.82171e-05
8.42987e-05
7.32209e-05
6.82505e-05
6.29149e-05
5.78534e-05
5.36582e-05
5.01731e-05
5.5438e-05
4.49481e-05
4.3019e-05
4.1477e-05
4.78174e-05
3.92118e-05
3.83292e-05
3.76003e-05
3.69751e-05
3.64325e-05
3.59573e-05
3.55385e-05
3.51666e-05
3.48349e-05
3.45372e-05
3.4226e-05
3.39891e-05
3.37476e-05
3.36442e-05
3.41751e-05
3.49337e-05
3.52104e-05
3.51508e-05
3.49456e-05
3.46834e-05
3.44004e-05
3.41112e-05
3.38216e-05
3.3534e-05
3.3249e-05
3.29671e-05
3.26883e-05
3.24123e-05
3.21393e-05
3.18698e-05
3.1603e-05
3.13383e-05
3.10769e-05
3.08188e-05
3.05628e-05
3.03087e-05
3.00573e-05
2.98088e-05
2.95623e-05
2.93173e-05
2.90743e-05
2.88335e-05
2.85946e-05
2.83569e-05
2.812e-05
2.78845e-05
2.76504e-05
2.74176e-05
2.71857e-05
2.69543e-05
2.67229e-05
2.64921e-05
2.62626e-05
2.6034e-05
2.58062e-05
2.55785e-05
2.53518e-05
2.51271e-05
6.42303e-05
7.57355e-05
8.98498e-05
0.000100387
0.000104863
0.000104531
0.00010137
9.36326e-05
8.8708e-05
8.29375e-05
7.6923e-05
7.14176e-05
6.66052e-05
6.82925e-05
5.92353e-05
5.64991e-05
5.43134e-05
5.89759e-05
5.11014e-05
4.98458e-05
4.88079e-05
4.79151e-05
4.71366e-05
4.64492e-05
4.58369e-05
4.52857e-05
4.4786e-05
4.43284e-05
4.38665e-05
4.34823e-05
4.31108e-05
4.29074e-05
4.32876e-05
4.3828e-05
4.395e-05
4.37787e-05
4.34783e-05
4.31277e-05
4.27598e-05
4.23881e-05
4.20181e-05
4.16516e-05
4.12894e-05
4.09316e-05
4.05784e-05
4.02293e-05
3.98843e-05
3.95441e-05
3.92079e-05
3.88746e-05
3.85455e-05
3.8221e-05
3.78996e-05
3.75807e-05
3.72653e-05
3.69539e-05
3.66452e-05
3.63386e-05
3.60346e-05
3.57334e-05
3.54348e-05
3.51379e-05
3.48423e-05
3.45482e-05
3.42561e-05
3.39657e-05
3.36765e-05
3.33881e-05
3.30998e-05
3.28121e-05
3.25259e-05
3.22409e-05
3.19571e-05
3.16733e-05
3.13912e-05
3.11109e-05
6.67795e-05
8.00189e-05
9.77262e-05
0.000111969
0.000119431
0.000121476
0.00011978
0.000114613
0.000110311
0.000104725
9.83643e-05
9.20748e-05
8.62774e-05
8.42695e-05
7.68969e-05
7.32908e-05
7.03447e-05
7.1959e-05
6.59296e-05
6.42004e-05
6.27526e-05
6.15004e-05
6.0402e-05
5.94255e-05
5.85485e-05
5.77516e-05
5.70215e-05
5.63447e-05
5.56809e-05
5.50957e-05
5.45392e-05
5.41349e-05
5.41597e-05
5.42899e-05
5.41385e-05
5.37871e-05
5.33482e-05
5.28776e-05
5.23989e-05
5.19217e-05
5.14499e-05
5.09844e-05
5.05258e-05
5.0074e-05
4.96288e-05
4.91895e-05
4.87563e-05
4.83297e-05
4.79088e-05
4.74923e-05
4.70812e-05
4.66765e-05
4.62763e-05
4.58797e-05
4.54876e-05
4.51008e-05
4.47179e-05
4.4338e-05
4.39615e-05
4.35889e-05
4.32196e-05
4.28529e-05
4.2488e-05
4.21251e-05
4.17649e-05
4.14068e-05
4.10505e-05
4.06955e-05
4.03408e-05
3.99868e-05
3.96346e-05
3.92839e-05
3.89347e-05
3.85859e-05
3.82396e-05
3.78945e-05
8.20733e-05
0.000103848
0.000122381
0.000133514
0.00013863
0.0001391
0.000136317
0.000133182
0.000128307
0.000122025
0.000115262
0.000108681
0.00010412
9.74389e-05
9.29512e-05
8.91877e-05
8.80905e-05
8.33877e-05
8.11022e-05
7.91553e-05
7.74587e-05
7.5962e-05
7.46244e-05
7.34173e-05
7.23153e-05
7.13013e-05
7.03566e-05
6.94494e-05
6.8624e-05
6.78412e-05
6.71769e-05
6.67911e-05
6.64808e-05
6.60168e-05
6.54455e-05
6.48319e-05
6.42085e-05
6.35887e-05
6.29776e-05
6.23769e-05
6.17868e-05
6.12072e-05
6.06375e-05
6.00776e-05
5.95264e-05
5.89836e-05
5.84501e-05
5.79248e-05
5.74059e-05
5.68943e-05
5.63912e-05
5.58947e-05
5.54033e-05
5.4918e-05
5.44395e-05
5.39668e-05
5.34982e-05
5.30342e-05
5.25752e-05
5.2121e-05
5.16705e-05
5.12225e-05
5.07772e-05
5.03354e-05
4.98967e-05
4.94605e-05
4.90263e-05
4.85927e-05
4.816e-05
4.77294e-05
4.7301e-05
4.68744e-05
4.64488e-05
4.6027e-05
4.56048e-05
0.000107741
0.000131148
0.000146662
0.000155585
0.000158943
0.000158762
0.000157409
0.000153869
0.000148195
0.000141312
0.000134122
0.000127877
0.000121026
0.000115572
0.000110887
0.000107823
0.000103472
0.000100519
9.79683e-05
9.57317e-05
9.37503e-05
9.19739e-05
9.03672e-05
8.88984e-05
8.75456e-05
8.6285e-05
8.5091e-05
8.39875e-05
8.2944e-05
8.19996e-05
8.12353e-05
8.05317e-05
7.97635e-05
7.89552e-05
7.81404e-05
7.73348e-05
7.65445e-05
7.57708e-05
7.50137e-05
7.42724e-05
7.35463e-05
7.28344e-05
7.21361e-05
7.14502e-05
7.07758e-05
7.01138e-05
6.94634e-05
6.88219e-05
6.81898e-05
6.75691e-05
6.69576e-05
6.6353e-05
6.57562e-05
6.51683e-05
6.45884e-05
6.40141e-05
6.34456e-05
6.28838e-05
6.23283e-05
6.17779e-05
6.1231e-05
6.06875e-05
6.01487e-05
5.9614e-05
5.90826e-05
5.85543e-05
5.80269e-05
5.75005e-05
5.69766e-05
5.64556e-05
5.59371e-05
5.54201e-05
5.49089e-05
5.43933e-05
0.000137747
0.00015838
0.000171908
0.000178914
0.000181792
0.000182879
0.000181389
0.000177015
0.000170546
0.000163057
0.000155694
0.000148211
0.000141693
0.00013595
0.000131352
0.000126622
0.000122853
0.000119566
0.000116667
0.00011409
0.000111775
0.00010968
0.000107764
0.000106
0.000104359
0.00010282
0.000101386
0.000100035
9.87819e-05
9.76601e-05
9.65977e-05
9.55282e-05
9.44635e-05
9.34189e-05
9.23999e-05
9.14075e-05
9.04409e-05
8.94985e-05
8.85785e-05
8.76797e-05
8.68006e-05
8.59402e-05
8.50968e-05
8.42688e-05
8.34573e-05
8.26618e-05
8.18782e-05
8.11067e-05
8.03498e-05
7.96056e-05
7.88706e-05
7.81451e-05
7.74312e-05
7.67277e-05
7.60318e-05
7.53431e-05
7.46627e-05
7.39905e-05
7.33252e-05
7.26644e-05
7.20077e-05
7.13568e-05
7.07112e-05
7.00698e-05
6.94327e-05
6.87968e-05
6.81617e-05
6.75294e-05
6.69007e-05
6.62749e-05
6.56512e-05
6.50362e-05
6.44075e-05
0.000141596
0.000168104
0.000187106
0.000198576
0.000205114
0.000209327
0.000210633
0.000208368
0.000203042
0.000195776
0.000187787
0.00017956
0.000171938
0.000165026
0.000159045
0.000153475
0.000148724
0.000144541
0.000140833
0.000137525
0.000134548
0.000131849
0.000129383
0.000127114
0.000125007
0.000123045
0.000121209
0.000119484
0.00011787
0.000116374
0.000114947
0.000113552
0.000112195
0.000110879
0.000109605
0.000108371
0.000107173
0.000106008
0.000104875
0.000103771
0.000102693
0.000101641
0.000100612
9.96041e-05
9.86175e-05
9.76526e-05
9.67037e-05
9.57701e-05
9.48556e-05
9.3958e-05
9.30727e-05
9.21993e-05
9.13405e-05
9.04956e-05
8.96606e-05
8.88346e-05
8.8019e-05
8.72138e-05
8.64179e-05
8.56279e-05
8.48426e-05
8.40645e-05
8.32931e-05
8.2527e-05
8.17665e-05
8.10078e-05
8.02494e-05
7.94939e-05
7.87425e-05
7.79945e-05
7.72493e-05
7.65166e-05
7.57538e-05
0.000142049
0.000175191
0.000200601
0.000217417
0.00022833
0.000236381
0.000241237
0.000241929
0.000238619
0.000232317
0.000224302
0.000215512
0.000206865
0.000198743
0.000191403
0.000184706
0.000178805
0.000173561
0.000168882
0.000164689
0.000160905
0.000157471
0.00015433
0.000151442
0.000148764
0.000146282
0.000143953
0.000141769
0.000139722
0.000137799
0.000135964
0.000134194
0.00013249
0.000130848
0.000129266
0.000127737
0.000126259
0.000124826
0.000123435
0.000122084
0.000120768
0.000119486
0.000118235
0.000117012
0.000115817
0.00011465
0.000113506
0.00011238
0.00011128
0.000110202
0.00010914
0.000108093
0.000107065
0.000106055
0.000105058
0.000104072
0.000103099
0.00010214
0.000101193
0.000100254
9.93204e-05
9.83957e-05
9.74796e-05
9.65703e-05
9.56684e-05
9.47689e-05
9.38695e-05
9.29727e-05
9.20809e-05
9.1193e-05
9.03086e-05
8.94419e-05
0.000138423
0.00017892
0.000211717
0.000234828
0.000250936
0.000263583
0.00027275
0.000277248
0.000276889
0.000272464
0.000265205
0.000256314
0.000246905
0.000237651
0.000228973
0.000220983
0.000213786
0.000207317
0.0002015
0.000196259
0.000191511
0.000187192
0.000183237
0.000179598
0.000176226
0.000173108
0.000170179
0.000167436
0.000164862
0.000162434
0.000160121
0.000157906
0.000155784
0.000153748
0.00015179
0.000149906
0.000148087
0.00014633
0.000144627
0.000142976
0.000141373
0.000139814
0.000138297
0.000136814
0.000135369
0.000133962
0.000132583
0.000131229
0.000129907
0.000128614
0.000127342
0.000126089
0.00012486
0.000123654
0.000122466
0.000121291
0.000120133
0.000118993
0.000117868
0.000116753
0.000115646
0.000114549
0.000113463
0.000112386
0.000111319
0.000110255
0.000109191
0.000108129
0.000107073
0.000106022
0.000104975
0.000103953
0.000129978
0.000178546
0.000219678
0.000250076
0.000272301
0.000290377
0.000304646
0.000313797
0.000317335
0.000315787
0.000310237
0.000301977
0.000292298
0.000282178
0.000272274
0.00026294
0.000254349
0.000246518
0.000239407
0.000232953
0.000227077
0.000221712
0.000216788
0.000212252
0.000208049
0.000204163
0.000200511
0.000197091
0.000193881
0.00019085
0.000187968
0.000185219
0.000182592
0.00018008
0.00017767
0.000175355
0.000173125
0.000170975
0.000168897
0.000166886
0.000164936
0.000163045
0.000161206
0.000159414
0.000157669
0.000155973
0.000154314
0.000152687
0.000151099
0.000149549
0.000148027
0.000146529
0.00014506
0.000143622
0.000142206
0.000140807
0.000139429
0.000138073
0.000136737
0.000135415
0.000134101
0.000132801
0.000131515
0.00013024
0.000128977
0.000127719
0.00012646
0.000125203
0.000123954
0.000122709
0.00012147
0.000120264
0.000116694
0.000173413
0.00022362
0.000262287
0.00029165
0.00031608
0.000336307
0.000350981
0.000359355
0.00036171
0.000358926
0.000352244
0.000343045
0.000332557
0.000321715
0.000311134
0.000301141
0.000291868
0.000283339
0.000275525
0.000268362
0.000261788
0.000255735
0.000250143
0.000244957
0.000240157
0.000235644
0.000231415
0.000227443
0.000223692
0.000220131
0.000216742
0.000213512
0.000210427
0.000207473
0.00020464
0.000201917
0.000199296
0.000196767
0.000194323
0.000191959
0.000189668
0.000187446
0.000185282
0.000183179
0.000181139
0.000179145
0.000177191
0.000175287
0.000173432
0.000171612
0.000169823
0.000168069
0.000166354
0.000164667
0.000163003
0.000161363
0.000159752
0.000158166
0.000156598
0.00015504
0.000153498
0.000151975
0.000150465
0.00014897
0.000147482
0.000145993
0.000144506
0.000143027
0.000141554
0.000140087
0.000138662
9.94095e-05
0.000163135
0.00022262
0.000270437
0.000308041
0.000339853
0.000366977
0.000388105
0.00040228
0.000409562
0.000410638
0.000406615
0.000398864
0.000388766
0.000377508
0.000365979
0.000354721
0.000344027
0.000334023
0.000324744
0.00031616
0.000308228
0.000300886
0.000294079
0.000287752
0.00028188
0.000276353
0.000271169
0.000266296
0.000261693
0.000257327
0.000253179
0.000249229
0.00024546
0.000241858
0.000238407
0.000235095
0.00023191
0.000228842
0.000225882
0.000223023
0.000220257
0.000217578
0.000214971
0.000212441
0.00020999
0.000207599
0.000205257
0.000202978
0.000200759
0.000198586
0.00019645
0.000194359
0.000192316
0.000190308
0.000188329
0.000186381
0.000184467
0.000182585
0.000180726
0.00017888
0.000177053
0.000175249
0.000173461
0.000171694
0.000169934
0.000168173
0.000166414
0.000164663
0.00016292
0.000161184
0.000159501
8.07765e-05
0.000147726
0.000215739
0.000273363
0.00032035
0.00036067
0.000395732
0.000424332
0.000445335
0.000458595
0.000464629
0.000464405
0.000459212
0.000450485
0.000439587
0.000427655
0.000415473
0.000403538
0.00039212
0.000381353
0.00037127
0.000361866
0.000353099
0.000344928
0.000337303
0.000330199
0.000323503
0.000317209
0.000311283
0.000305682
0.000300372
0.000295328
0.000290528
0.000285952
0.00028158
0.000277396
0.000273385
0.000269532
0.000265825
0.000262252
0.000258805
0.000255474
0.000252252
0.000249121
0.000246084
0.000243146
0.000240284
0.000237484
0.000234758
0.00023211
0.000229519
0.000226974
0.000224483
0.000222052
0.000219666
0.000217316
0.000215003
0.000212732
0.000210501
0.000208299
0.000206113
0.000203952
0.000201816
0.000199702
0.000197612
0.000195534
0.000193453
0.000191374
0.000189304
0.000187242
0.000185189
0.000183201
6.32218e-05
0.000127789
0.000202153
0.000269809
0.000327267
0.000377294
0.000421432
0.000458627
0.000487586
0.000507944
0.000520065
0.000524796
0.000523337
0.000517112
0.000507571
0.000496037
0.00048352
0.000470737
0.000458139
0.000445996
0.000434436
0.000423517
0.000413241
0.000403591
0.000394535
0.000386051
0.000378033
0.000370473
0.00036334
0.000356588
0.000350183
0.000344096
0.000338304
0.000332781
0.000327507
0.000322462
0.000317627
0.000312987
0.000308526
0.00030423
0.00030009
0.000296092
0.000292228
0.000288478
0.000284842
0.000281329
0.00027791
0.000274568
0.000271318
0.000268162
0.000265078
0.000262051
0.00025909
0.000256202
0.00025337
0.000250583
0.000247841
0.000245149
0.000242509
0.000239904
0.000237319
0.000234763
0.00023224
0.000229742
0.000227275
0.000224822
0.000222367
0.000219912
0.000217468
0.000215033
0.000212608
0.000210262
5.2503e-05
0.000105439
0.000181563
0.00025858
0.000327322
0.000388253
0.00044269
0.000489715
0.000527879
0.00055657
0.000575981
0.000586858
0.000590339
0.000587818
0.000580781
0.000570661
0.000558646
0.000545657
0.000532338
0.00051912
0.000506259
0.000493906
0.000482127
0.000470952
0.000460381
0.000450406
0.000440937
0.000431972
0.000423484
0.00041543
0.000407778
0.000400497
0.000393561
0.000386945
0.000380624
0.000374576
0.000368782
0.000363222
0.000357879
0.000352737
0.000347782
0.000343002
0.000338385
0.000333907
0.000329569
0.000325379
0.000321306
0.000317329
0.00031346
0.000309708
0.000306044
0.000302451
0.000298937
0.000295512
0.000292158
0.000288858
0.000285613
0.000282428
0.000279307
0.00027623
0.000273179
0.000270162
0.000267184
0.000264238
0.000261328
0.000258438
0.000255546
0.000252654
0.000249774
0.000246903
0.000244045
0.000241277
4.57642e-05
8.28675e-05
0.00015496
0.000238912
0.000318983
0.000391842
0.000457841
0.000516029
0.000564778
0.000603179
0.000631211
0.000649514
0.000659184
0.000661608
0.000658296
0.000650748
0.000640277
0.000627963
0.000614628
0.00060087
0.00058709
0.000573555
0.000560424
0.000547794
0.000535715
0.000524208
0.000513214
0.000502744
0.000492781
0.000483295
0.000474255
0.000465635
0.000457407
0.000449548
0.000442031
0.000434834
0.000427935
0.000421313
0.000414949
0.000408824
0.000402925
0.000397233
0.000391739
0.000386413
0.000381254
0.000376274
0.000371436
0.000366715
0.000362125
0.000357674
0.000353332
0.000349077
0.000344917
0.000340864
0.000336897
0.000332998
0.000329165
0.000325405
0.000321721
0.000318093
0.000314497
0.000310942
0.000307434
0.000303966
0.000300541
0.000297142
0.000293742
0.000290341
0.000286954
0.000283576
0.000280214
0.000276953
4.20524e-05
6.39935e-05
0.000125491
0.000211005
0.000300865
0.000386172
0.000464922
0.000535673
0.000596512
0.000646157
0.000684305
0.000711453
0.000728659
0.000737327
0.00073901
0.00073527
0.000727514
0.000716943
0.000704522
0.000690999
0.00067692
0.000662678
0.000648541
0.000634692
0.000621252
0.000608288
0.000595788
0.000583787
0.000572292
0.000561287
0.000550754
0.000540674
0.000531026
0.000521786
0.000512932
0.000504441
0.000496292
0.000488463
0.000480933
0.000473684
0.000466698
0.000459958
0.000453452
0.000447146
0.000441036
0.000435139
0.000429415
0.000423832
0.000418402
0.000413138
0.000408008
0.000402983
0.00039807
0.000393285
0.000388606
0.000384009
0.000379491
0.000375061
0.000370722
0.000366453
0.000362224
0.000358044
0.000353921
0.000349845
0.000345821
0.000341831
0.000337843
0.000333854
0.000329879
0.000325916
0.000321972
0.00031813
4.12944e-05
5.29972e-05
9.73983e-05
0.000176312
0.000272114
0.000369324
0.000461699
0.000546393
0.00062092
0.000683498
0.000733442
0.000771041
0.000797289
0.000813613
0.000821633
0.000822996
0.000819203
0.000811561
0.00080115
0.000788843
0.000775312
0.000761072
0.000746502
0.000731883
0.00071742
0.000703241
0.000689396
0.00067596
0.000662974
0.000650448
0.000638386
0.000626781
0.000615624
0.000604901
0.000594593
0.000584683
0.000575152
0.00056598
0.000557147
0.000548631
0.000540419
0.000532489
0.000524831
0.000517407
0.000510211
0.000503262
0.000496519
0.000489944
0.000483547
0.000477345
0.000471304
0.00046539
0.000459608
0.000453976
0.000448471
0.000443067
0.000437757
0.00043255
0.000427452
0.00042244
0.000417479
0.000412577
0.000407741
0.000402962
0.000398246
0.000393574
0.000388907
0.00038424
0.000379589
0.00037495
0.000370337
0.000365809
4.17679e-05
4.773e-05
7.39584e-05
0.000137786
0.000233037
0.000339693
0.000445787
0.000545586
0.000635412
0.000712738
0.000776344
0.000826213
0.000863216
0.000888787
0.000904623
0.000912475
0.000913966
0.000910516
0.000903317
0.00089335
0.000881397
0.000868077
0.000853874
0.000839163
0.000824234
0.000809292
0.000794455
0.000779849
0.000765562
0.000751642
0.000738123
0.000725022
0.000712349
0.000700105
0.000688283
0.000676874
0.000665865
0.000655242
0.000644987
0.000635082
0.000625515
0.000616263
0.000607319
0.00059864
0.000590221
0.000582083
0.000574186
0.000566485
0.000558988
0.000551715
0.000544633
0.000537702
0.000530924
0.000524319
0.000517867
0.000511535
0.000505315
0.000499215
0.000493244
0.000487377
0.000481573
0.000475839
0.000470184
0.000464597
0.000459084
0.000453626
0.000448181
0.000442737
0.000437311
0.000431898
0.000426519
0.00042118
4.25591e-05
4.49678e-05
5.85562e-05
0.000101289
0.000186071
0.000296678
0.000414973
0.000530396
0.000636962
0.0007309
0.000810202
0.000874381
0.000924095
0.000960736
0.000986065
0.00100195
0.00101016
0.00101226
0.00100955
0.00100315
0.000993926
0.000982602
0.00096975
0.000955831
0.000941217
0.000926183
0.000910924
0.000895622
0.000880417
0.000865407
0.000850662
0.000836235
0.000822162
0.000808467
0.000795162
0.000782253
0.000769739
0.000757614
0.00074587
0.000734492
0.000723474
0.000712795
0.000702451
0.000692401
0.000682635
0.000673181
0.000664
0.000655043
0.000646314
0.000637837
0.000629582
0.000621503
0.000613599
0.000605891
0.000598362
0.000590976
0.000583721
0.000576603
0.000569634
0.000562791
0.000556027
0.000549343
0.000542752
0.000536242
0.000529818
0.000523464
0.00051713
0.000510802
0.000504493
0.0004982
0.00049195
0.000485654
4.38315e-05
4.39942e-05
4.98797e-05
7.38268e-05
0.000137626
0.000242249
0.000367987
0.000498026
0.000622191
0.000734475
0.000831594
0.000912331
0.00097697
0.00102678
0.00106354
0.00108924
0.00110579
0.00111492
0.00111811
0.00111658
0.00111133
0.00110318
0.0010928
0.00108071
0.00106738
0.00105313
0.00103823
0.00102292
0.0010074
0.000991806
0.000976265
0.000960866
0.000945678
0.000930756
0.000916138
0.000901851
0.000887913
0.000874334
0.000861116
0.000848256
0.000835755
0.000823599
0.00081179
0.000800289
0.000789086
0.000778217
0.000767647
0.000757323
0.000747247
0.000737447
0.000727894
0.000718544
0.000709388
0.000700451
0.000691717
0.000683149
0.000674731
0.000666468
0.000658375
0.00065043
0.000642581
0.000634826
0.000627176
0.000619622
0.000612167
0.000604797
0.000597459
0.00059013
0.000582825
0.000575538
0.000568306
4.43338e-05
4.43318e-05
4.67143e-05
5.77242e-05
9.72401e-05
0.000182747
0.000306046
0.000446497
0.000587656
0.000719482
0.000836458
0.000936135
0.00101816
0.00108352
0.00113396
0.00117153
0.0011983
0.00121619
0.00122683
0.00123162
0.00123171
0.00122803
0.00122132
0.00121223
0.00120126
0.00118882
0.00117524
0.00116081
0.00114577
0.00113032
0.00111463
0.00109882
0.001083
0.00106727
0.00105169
0.00103632
0.00102119
0.00100635
0.000991798
0.000977561
0.000963648
0.000950057
0.000936799
0.000923842
0.000911179
0.000898851
0.000886834
0.000875076
0.000863574
0.000852362
0.000841418
0.000830696
0.000820182
0.000809904
0.000799851
0.000789986
0.000780287
0.000770759
0.00076142
0.00075225
0.000743195
0.000734246
0.000725416
0.000716695
0.000708087
0.000699579
0.000691118
0.000682672
0.000674254
0.000665855
0.000657526
4.40286e-05
4.41606e-05
4.53001e-05
5.00838e-05
7.02656e-05
0.000128185
0.000234828
0.000376194
0.000530603
0.000681753
0.000820131
0.000941095
0.00104315
0.00112675
0.00119343
0.00124528
0.00128447
0.00131311
0.00133303
0.00134581
0.00135276
0.00135496
0.00135327
0.00134843
0.00134102
0.00133154
0.00132036
0.00130783
0.00129424
0.00127984
0.00126482
0.00124936
0.00123362
0.0012177
0.00120171
0.00118574
0.00116986
0.00115411
0.00113855
0.0011232
0.00110809
0.00109325
0.00107868
0.00106437
0.00105033
0.00103659
0.00102316
0.00100997
0.000997034
0.000984382
0.000972005
0.000959858
0.000947924
0.000936233
0.00092478
0.000913529
0.000902458
0.000891568
0.00088088
0.00087038
0.000860011
0.000849759
0.000839638
0.000829637
0.000819761
0.00081
0.0008003
0.000790624
0.000780979
0.000771355
0.000761815
4.40424e-05
4.45541e-05
4.65725e-05
5.55872e-05
8.76319e-05
0.000165057
0.000292143
0.000450572
0.000617703
0.00077764
0.000921783
0.00104652
0.00115126
0.00123709
0.00130598
0.00136018
0.00140193
0.00143328
0.00145599
0.00147158
0.00148128
0.00148611
0.00148692
0.0014844
0.00147912
0.00147154
0.00146205
0.001451
0.00143867
0.00142532
0.00141114
0.00139633
0.00138104
0.0013654
0.00134952
0.00133351
0.00131743
0.00130137
0.00128536
0.00126947
0.00125372
0.00123815
0.00122276
0.00120756
0.0011926
0.0011779
0.00116341
0.00114914
0.00113512
0.00112135
0.00110781
0.00109447
0.00108136
0.00106849
0.00105582
0.00104334
0.00103104
0.00101894
0.00100704
0.000995282
0.000983649
0.000972152
0.000960783
0.000949545
0.000938435
0.0009274
0.000916396
0.000905427
0.000894478
0.000883622
4.43712e-05
4.42742e-05
4.50814e-05
4.87727e-05
6.36211e-05
0.00010917
0.000205811
0.000352098
0.000526072
0.00070453
0.000872343
0.00102198
0.0011508
0.00125896
0.00134803
0.00142021
0.00147784
0.00152315
0.00155812
0.00158444
0.00160357
0.00161667
0.00162475
0.00162861
0.00162894
0.00162627
0.00162108
0.00161376
0.00160466
0.00159406
0.00158222
0.00156935
0.00155565
0.00154127
0.00152635
0.00151101
0.00149537
0.00147951
0.0014635
0.00144742
0.00143132
0.00141525
0.00139923
0.00138328
0.00136746
0.00135181
0.0013363
0.00132094
0.00130576
0.0012908
0.00127601
0.00126139
0.00124697
0.00123276
0.00121873
0.00120488
0.00119119
0.0011777
0.00116439
0.00115124
0.0011382
0.0011253
0.00111252
0.00109987
0.00108735
0.00107492
0.00106253
0.00105017
0.00103783
0.00102558
4.46189e-05
4.439e-05
4.46558e-05
4.60847e-05
5.21258e-05
7.39193e-05
0.000133076
0.000247683
0.00041117
0.00059884
0.000787431
0.000962707
0.00111812
0.00125183
0.00136452
0.00145807
0.0015348
0.00159706
0.00164702
0.0016866
0.00171743
0.00174089
0.00175815
0.00177016
0.00177771
0.00178147
0.00178198
0.00177973
0.00177512
0.0017685
0.00176015
0.00175034
0.0017393
0.00172721
0.00171424
0.00170054
0.00168624
0.00167145
0.00165627
0.00164078
0.00162506
0.00160918
0.00159317
0.00157707
0.00156095
0.00154486
0.0015288
0.00151278
0.00149684
0.00148102
0.0014653
0.00144969
0.0014342
0.00141887
0.00140369
0.00138864
0.00137371
0.00135894
0.00134434
0.00132986
0.00131549
0.00130124
0.00128709
0.00127306
0.00125915
0.00124533
0.00123154
0.00121778
0.00120403
0.00119037
4.47152e-05
4.46481e-05
4.46977e-05
4.5246e-05
4.74779e-05
5.63791e-05
8.52447e-05
0.000156952
0.000287066
0.000465057
0.000664567
0.000862502
0.00104537
0.00120735
0.00134716
0.00146579
0.00156527
0.00164795
0.00171614
0.00177195
0.00181723
0.00185355
0.00188228
0.00190452
0.00192124
0.0019332
0.00194108
0.00194544
0.00194677
0.00194548
0.00194193
0.00193641
0.00192921
0.00192055
0.00191063
0.00189963
0.00188769
0.00187497
0.00186157
0.0018476
0.00183315
0.0018183
0.00180311
0.00178764
0.00177195
0.00175612
0.00174016
0.00172409
0.00170797
0.00169183
0.00167569
0.00165955
0.00164343
0.00162738
0.0016114
0.00159547
0.00157961
0.00156384
0.00154819
0.00153262
0.00151712
0.00150169
0.00148634
0.00147106
0.00145588
0.00144077
0.00142569
0.00141061
0.00139552
0.0013805
4.47527e-05
4.47709e-05
4.47942e-05
4.50194e-05
4.58143e-05
4.91136e-05
6.08865e-05
9.60218e-05
0.000177795
0.000319711
0.000509055
0.000718677
0.000925582
0.00111664
0.00128641
0.00143384
0.00156005
0.00166708
0.00175726
0.00183281
0.00189578
0.00194797
0.00199091
0.00202592
0.00205411
0.00207642
0.00209364
0.00210644
0.00211542
0.00212106
0.00212379
0.00212398
0.00212197
0.00211801
0.00211236
0.00210523
0.0020968
0.00208723
0.00207667
0.00206524
0.00205305
0.0020402
0.00202677
0.00201283
0.00199845
0.00198371
0.00196867
0.00195334
0.00193777
0.00192203
0.00190614
0.00189012
0.00187398
0.00185779
0.00184155
0.00182528
0.00180896
0.00179265
0.00177636
0.00176009
0.00174382
0.00172756
0.00171132
0.00169509
0.00167891
0.00166276
0.0016466
0.00163042
0.00161419