/*--------------------------------*- C++ -*----------------------------------*\
| =========                 |                                                 |
| \\      /  F ield         | OpenFOAM: The Open Source CFD Toolbox           |
|  \\    /   O peration     | Version:  2412                                  |
|   \\  /    A nd           | Website:  www.openfoam.com                      |
|    \\/     M anipulation  |                                                 |
\*---------------------------------------------------------------------------*/
FoamFile
{
    version     2.0;
    format      ascii;
    arch        "LSB;label=32;scalar=64";
    class       surfaceScalarField;
    location    "220";
    object      phi;
}
// * * * * * * * * * * * * * * * * * * * * * * * * * * * * * * * * * * * * * //

dimensions      [0 3 -1 0 0 0 0];

oriented        oriented;

internalField   nonuniform List<scalar> 
14663
(
2.4149e-05
-2.29997e-06
2.42514e-05
-9.77311e-08
2.2566e-05
1.68908e-06
1.97265e-05
2.83549e-06
1.6417e-05
3.30954e-06
1.39534e-05
2.46365e-06
1.22198e-05
1.73359e-06
1.0566e-05
1.65373e-06
8.98308e-06
1.58296e-06
7.66094e-06
1.32214e-06
6.61338e-06
1.04755e-06
5.79756e-06
8.15811e-07
5.17312e-06
6.2442e-07
4.70504e-06
4.68078e-07
4.35763e-06
3.47397e-07
4.09784e-06
2.59785e-07
3.9012e-06
1.97898e-07
3.74983e-06
1.50169e-07
3.63022e-06
1.21798e-07
3.53218e-06
9.58671e-08
3.44929e-06
8.44995e-08
3.37687e-06
7.07909e-08
3.31194e-06
6.63929e-08
3.25261e-06
5.78675e-08
3.19724e-06
5.69406e-08
3.14487e-06
5.07865e-08
3.09513e-06
5.12684e-08
3.04819e-06
4.54161e-08
3.00249e-06
4.5703e-08
2.95702e-06
4.54701e-08
2.91301e-06
4.40137e-08
2.86982e-06
4.31899e-08
2.82701e-06
4.2812e-08
2.78446e-06
4.25523e-08
2.74228e-06
4.21855e-08
2.70062e-06
4.16548e-08
2.65939e-06
4.12365e-08
2.61863e-06
4.07633e-08
2.57822e-06
4.04046e-08
2.53837e-06
3.98577e-08
2.49899e-06
3.93778e-08
2.46004e-06
3.89573e-08
2.42162e-06
3.84231e-08
2.38368e-06
3.79384e-08
2.34619e-06
3.75017e-08
2.30924e-06
3.69525e-08
2.27288e-06
3.6365e-08
2.23708e-06
3.58027e-08
2.20166e-06
3.54237e-08
2.16683e-06
3.48252e-08
2.13261e-06
3.42263e-08
2.09887e-06
3.37433e-08
2.06551e-06
3.3374e-08
2.03273e-06
3.27774e-08
2.00051e-06
3.22302e-08
1.96875e-06
3.17672e-08
1.93736e-06
3.13845e-08
1.9064e-06
3.09683e-08
1.87596e-06
3.04473e-08
1.84592e-06
3.0044e-08
1.81624e-06
2.96906e-08
1.78692e-06
2.93255e-08
1.75791e-06
2.90162e-08
1.72935e-06
2.85676e-08
1.70112e-06
2.8228e-08
1.67322e-06
2.82894e-08
1.64554e-06
2.73215e-08
1.61812e-06
2.76346e-08
1.59107e-06
2.68527e-08
1.56434e-06
2.69997e-08
1.53803e-06
2.60808e-08
1.51202e-06
2.62259e-08
1.48629e-06
2.55485e-08
1.46069e-06
2.56517e-08
1.43555e-06
2.52192e-08
2.48357e-08
8.23852e-05
-1.0827e-05
8.3807e-05
-1.51308e-06
7.91711e-05
6.33026e-06
7.00078e-05
1.19936e-05
5.87763e-05
1.45411e-05
4.99658e-05
1.12741e-05
4.37509e-05
7.94851e-06
3.79236e-05
7.48101e-06
3.22546e-05
7.25192e-06
2.74966e-05
6.08017e-06
2.37257e-05
4.81842e-06
2.07891e-05
3.7524e-06
1.85324e-05
2.88106e-06
1.68447e-05
2.15585e-06
1.55987e-05
1.59336e-06
1.46583e-05
1.20018e-06
1.39424e-05
9.15564e-07
1.33925e-05
6.98334e-07
1.29603e-05
5.57234e-07
1.2603e-05
4.49976e-07
1.23009e-05
3.8891e-07
1.20374e-05
3.31965e-07
1.18012e-05
3.04676e-07
1.15857e-05
2.71249e-07
1.13852e-05
2.59764e-07
1.11961e-05
2.37564e-07
1.10162e-05
2.33329e-07
1.08466e-05
2.12866e-07
1.06815e-05
2.10789e-07
1.05181e-05
2.08874e-07
1.03603e-05
2.01868e-07
1.02055e-05
1.97936e-07
1.00521e-05
1.96235e-07
9.89972e-06
1.94932e-07
9.74891e-06
1.93e-07
9.59983e-06
1.9074e-07
9.45274e-06
1.88332e-07
9.3072e-06
1.86299e-07
9.16326e-06
1.84354e-07
9.0211e-06
1.82022e-07
8.88077e-06
1.79716e-07
8.74201e-06
1.77716e-07
8.60503e-06
1.75414e-07
8.47009e-06
1.72883e-07
8.33665e-06
1.70951e-07
8.20517e-06
1.6844e-07
8.07583e-06
1.6571e-07
7.94828e-06
1.63351e-07
7.82247e-06
1.61241e-07
7.6984e-06
1.58907e-07
7.57681e-06
1.55817e-07
7.45685e-06
1.53715e-07
7.33835e-06
1.5188e-07
7.22167e-06
1.49473e-07
7.10727e-06
1.46636e-07
6.99438e-06
1.44661e-07
6.88269e-06
1.43082e-07
6.77262e-06
1.41049e-07
6.66448e-06
1.38591e-07
6.55787e-06
1.36669e-07
6.45234e-06
1.3523e-07
6.34802e-06
1.33657e-07
6.24525e-06
1.31803e-07
6.14374e-06
1.30091e-07
6.0433e-06
1.28676e-07
5.94424e-06
1.27901e-07
5.84618e-06
1.24884e-07
5.74885e-06
1.25263e-07
5.65258e-06
1.22852e-07
5.55783e-06
1.22143e-07
5.46426e-06
1.19323e-07
5.37186e-06
1.18935e-07
5.28042e-06
1.16739e-07
5.1896e-06
1.16553e-07
5.10035e-06
1.14616e-07
1.12916e-07
0.000158604
-2.83433e-05
0.000163029
-5.93181e-06
0.000155897
1.34683e-05
0.000139311
2.85736e-05
0.000117964
3.58884e-05
0.000100509
2.87288e-05
8.81476e-05
2.03099e-05
7.66831e-05
1.89455e-05
6.53105e-05
1.86245e-05
5.57043e-05
1.56863e-05
4.8065e-05
1.24577e-05
4.2111e-05
9.70632e-06
3.75022e-05
7.48988e-06
3.40664e-05
5.59163e-06
3.15517e-05
4.10804e-06
2.96302e-05
3.12166e-06
2.8153e-05
2.39482e-06
2.70233e-05
1.82607e-06
2.6147e-05
1.437e-06
2.54128e-05
1.18072e-06
2.47902e-05
1.01408e-06
2.42485e-05
8.71119e-07
2.37641e-05
7.91346e-07
2.3322e-05
7.11031e-07
2.29119e-05
6.72316e-07
2.25248e-05
6.22141e-07
2.21579e-05
6.0269e-07
2.18115e-05
5.56827e-07
2.14747e-05
5.47629e-07
2.11428e-05
5.40794e-07
2.08222e-05
5.22404e-07
2.05084e-05
5.11795e-07
2.01979e-05
5.06687e-07
1.98897e-05
5.03189e-07
1.9585e-05
4.97714e-07
1.92839e-05
4.91774e-07
1.89867e-05
4.85548e-07
1.86932e-05
4.79807e-07
1.84035e-05
4.74052e-07
1.81171e-05
4.68406e-07
1.78342e-05
4.62715e-07
1.75552e-05
4.56661e-07
1.72797e-05
4.50962e-07
1.70079e-05
4.44626e-07
1.674e-05
4.38932e-07
1.64754e-05
4.32958e-07
1.62154e-05
4.25717e-07
1.59591e-05
4.19711e-07
1.57058e-05
4.14554e-07
1.54568e-05
4.07918e-07
1.52122e-05
4.00451e-07
1.49711e-05
3.94767e-07
1.4733e-05
3.8998e-07
1.44986e-05
3.83944e-07
1.42683e-05
3.76894e-07
1.40417e-05
3.71276e-07
1.38176e-05
3.67234e-07
1.35969e-05
3.61757e-07
1.33792e-05
3.56213e-07
1.31651e-05
3.50808e-07
1.29536e-05
3.46784e-07
1.27442e-05
3.43067e-07
1.25372e-05
3.3875e-07
1.23333e-05
3.34041e-07
1.21323e-05
3.29718e-07
1.19333e-05
3.27492e-07
1.17362e-05
3.21444e-07
1.15407e-05
3.21053e-07
1.13477e-05
3.15547e-07
1.11574e-05
3.12923e-07
1.09695e-05
3.06863e-07
1.07839e-05
3.04811e-07
1.06003e-05
3.00121e-07
1.04182e-05
2.98737e-07
1.02392e-05
2.93704e-07
2.90186e-07
0.00025424
-5.78983e-05
0.000263757
-1.54382e-05
0.00025495
2.22804e-05
0.000230254
5.32657e-05
0.000196949
6.91935e-05
0.00016867
5.70078e-05
0.000148314
4.06656e-05
0.000129612
3.76471e-05
0.000110864
3.73729e-05
9.48208e-05
3.17296e-05
8.19487e-05
2.53297e-05
7.186e-05
1.97951e-05
6.39545e-05
1.53953e-05
5.80788e-05
1.14673e-05
5.38287e-05
8.35815e-06
5.05215e-05
6.42888e-06
4.79385e-05
4.97967e-06
4.59826e-05
3.78017e-06
4.44935e-05
2.92932e-06
4.3218e-05
2.453e-06
4.21379e-05
2.09656e-06
4.11965e-05
1.81013e-06
4.03555e-05
1.6345e-06
3.9589e-05
1.4753e-06
3.88779e-05
1.3857e-06
3.82106e-05
1.2872e-06
3.75762e-05
1.23932e-06
3.69775e-05
1.15327e-06
3.63979e-05
1.12727e-06
3.58287e-05
1.10997e-06
3.5279e-05
1.07215e-06
3.47425e-05
1.04826e-06
3.42102e-05
1.03896e-06
3.36829e-05
1.03051e-06
3.3162e-05
1.01858e-06
3.26494e-05
1.00439e-06
3.21441e-05
9.9093e-07
3.16453e-05
9.78513e-07
3.11526e-05
9.66809e-07
3.06662e-05
9.54803e-07
3.01864e-05
9.42525e-07
2.97124e-05
9.30708e-07
2.9245e-05
9.18356e-07
2.87842e-05
9.05434e-07
2.83296e-05
8.93541e-07
2.78813e-05
8.81215e-07
2.74405e-05
8.6658e-07
2.70059e-05
8.54302e-07
2.65771e-05
8.43391e-07
2.61553e-05
8.29651e-07
2.57411e-05
8.14649e-07
2.53324e-05
8.03494e-07
2.49292e-05
7.9324e-07
2.45324e-05
7.80732e-07
2.4143e-05
7.66285e-07
2.37588e-05
7.55518e-07
2.33794e-05
7.4668e-07
2.30054e-05
7.35756e-07
2.26375e-05
7.24074e-07
2.22749e-05
7.13479e-07
2.19165e-05
7.05186e-07
2.15616e-05
6.9798e-07
2.12118e-05
6.88522e-07
2.08668e-05
6.79099e-07
2.0526e-05
6.7046e-07
2.01891e-05
6.65018e-07
1.98558e-05
6.54248e-07
1.95252e-05
6.5194e-07
1.91981e-05
6.42361e-07
1.88761e-05
6.35296e-07
1.85579e-05
6.24739e-07
1.82443e-05
6.18789e-07
1.79333e-05
6.10884e-07
1.76245e-05
6.07559e-07
1.73216e-05
5.96776e-07
5.89897e-07
0.000367549
-0.0001014
0.000383072
-3.0963e-05
0.000372802
3.25533e-05
0.000340323
8.57426e-05
0.000295095
0.000114421
0.000255025
9.70779e-05
0.00022498
7.07105e-05
0.000197514
6.5113e-05
0.000170433
6.44546e-05
0.000146789
5.53731e-05
0.000127493
4.46257e-05
0.000112174
3.51141e-05
9.9967e-05
2.76024e-05
9.08713e-05
2.0563e-05
8.43192e-05
1.49102e-05
7.91342e-05
1.16139e-05
7.50102e-05
9.10553e-06
7.19122e-05
6.87631e-06
6.96052e-05
5.23951e-06
6.75755e-05
4.47954e-06
6.58538e-05
3.82057e-06
6.43532e-05
3.30838e-06
6.30139e-05
2.97592e-06
6.17953e-05
2.69173e-06
6.06657e-05
2.51761e-06
5.96058e-05
2.34479e-06
5.8601e-05
2.24639e-06
5.765e-05
2.10203e-06
5.67308e-05
2.04642e-06
5.58329e-05
2.00788e-06
5.49657e-05
1.93939e-06
5.41172e-05
1.89678e-06
5.32771e-05
1.87907e-06
5.24456e-05
1.86201e-06
5.16293e-05
1.83485e-06
5.08265e-05
1.80717e-06
5.00356e-05
1.78183e-06
4.9257e-05
1.7572e-06
4.84882e-05
1.73559e-06
4.77297e-05
1.71328e-06
4.6981e-05
1.69128e-06
4.62428e-05
1.66882e-06
4.5514e-05
1.64725e-06
4.47959e-05
1.62348e-06
4.40871e-05
1.60234e-06
4.33893e-05
1.57909e-06
4.27028e-05
1.55309e-06
4.20265e-05
1.53053e-06
4.13588e-05
1.51116e-06
4.07013e-05
1.4871e-06
4.00571e-05
1.4589e-06
3.94215e-05
1.43911e-06
3.87935e-05
1.42119e-06
3.81766e-05
1.39765e-06
3.75695e-05
1.3734e-06
3.69714e-05
1.35364e-06
3.63814e-05
1.33673e-06
3.57998e-05
1.31729e-06
3.52273e-05
1.29659e-06
3.46625e-05
1.27827e-06
3.41049e-05
1.2628e-06
3.35537e-05
1.24926e-06
3.3009e-05
1.23325e-06
3.24716e-05
1.21645e-06
3.19409e-05
1.20116e-06
3.14173e-05
1.18916e-06
3.08983e-05
1.17276e-06
3.03839e-05
1.1667e-06
2.98746e-05
1.15136e-06
2.93731e-05
1.13716e-06
2.88783e-05
1.11927e-06
2.83894e-05
1.108e-06
2.79051e-05
1.0949e-06
2.74251e-05
1.0877e-06
2.69534e-05
1.06867e-06
1.05741e-06
0.000495195
-0.000158954
0.000515178
-5.09261e-05
0.000501361
4.63744e-05
0.000460299
0.000126802
0.000404049
0.000170671
0.00035358
0.000147547
0.000314191
0.0001101
0.000277788
0.000101516
0.000242689
9.95532e-05
0.00021141
8.66526e-05
0.000185322
7.07131e-05
0.000164208
5.62288e-05
0.000147141
4.46685e-05
0.000134214
3.349e-05
0.000124732
2.43924e-05
0.0001172
1.91462e-05
0.000111124
1.51826e-05
0.000106559
1.14404e-05
0.000103172
8.62912e-06
0.000100157
7.49174e-06
9.75896e-05
6.38997e-06
9.53485e-05
5.54723e-06
9.3347e-05
4.9794e-06
9.15235e-05
4.5133e-06
8.9836e-05
4.2072e-06
8.82508e-05
3.9278e-06
8.67507e-05
3.74857e-06
8.53256e-05
3.52504e-06
8.39525e-05
3.41956e-06
8.26144e-05
3.34596e-06
8.13195e-05
3.23428e-06
8.00496e-05
3.16675e-06
7.87936e-05
3.13503e-06
7.75553e-05
3.10033e-06
7.63426e-05
3.04753e-06
7.51543e-05
2.99554e-06
7.39866e-05
2.94945e-06
7.28348e-05
2.90901e-06
7.16997e-05
2.87072e-06
7.05793e-05
2.8337e-06
6.94745e-05
2.79604e-06
6.83848e-05
2.7586e-06
6.73104e-05
2.72162e-06
6.62502e-05
2.68366e-06
6.52057e-05
2.6469e-06
6.41761e-05
2.60871e-06
6.31626e-05
2.56656e-06
6.21647e-05
2.52846e-06
6.11791e-05
2.49673e-06
6.02104e-05
2.4558e-06
5.92582e-05
2.41114e-06
5.83208e-05
2.37652e-06
5.73945e-05
2.34753e-06
5.64827e-05
2.3095e-06
5.55876e-05
2.26845e-06
5.47058e-05
2.23545e-06
5.3834e-05
2.2086e-06
5.29741e-05
2.17722e-06
5.21288e-05
2.14188e-06
5.12955e-05
2.11155e-06
5.04717e-05
2.08659e-06
4.96567e-05
2.06431e-06
4.88522e-05
2.03782e-06
4.8059e-05
2.00968e-06
4.72752e-05
1.98495e-06
4.65002e-05
1.96469e-06
4.5733e-05
1.93953e-06
4.49725e-05
1.92748e-06
4.42206e-05
1.90301e-06
4.3478e-05
1.88008e-06
4.27463e-05
1.85071e-06
4.20223e-05
1.83234e-06
4.13061e-05
1.81084e-06
4.05954e-05
1.79849e-06
3.98973e-05
1.76699e-06
1.74942e-06
0.000636345
-0.00023031
0.000658969
-7.35259e-05
0.000638885
6.64576e-05
0.000586721
0.000178966
0.000518043
0.000239349
0.000457186
0.000208403
0.000409694
0.000157593
0.000365821
0.000145389
0.000323711
0.000141663
0.000285733
0.00012463
0.000253507
0.000102938
0.000226933
8.28032e-05
0.000205399
6.62027e-05
0.000188554
5.03347e-05
0.000175632
3.73144e-05
0.000165527
2.92517e-05
0.000157405
2.33051e-05
0.000151165
1.76797e-05
0.000146377
1.34192e-05
0.000142191
1.16751e-05
0.000138617
9.96564e-06
0.000135488
8.67418e-06
0.000132686
7.78339e-06
0.000130129
7.06921e-06
0.000127757
6.58107e-06
0.000125529
6.15318e-06
0.000123414
5.86588e-06
0.000121401
5.53612e-06
0.00011946
5.3605e-06
0.000117573
5.23301e-06
0.000115739
5.06814e-06
0.000113937
4.96892e-06
0.000112157
4.9152e-06
0.000110409
4.84786e-06
0.000108702
4.75483e-06
0.000107027
4.67005e-06
0.000105381
4.59578e-06
0.000103759
4.53056e-06
0.00010216
4.47039e-06
0.000100582
4.41185e-06
9.90238e-05
4.35394e-06
9.74868e-05
4.29557e-06
9.59705e-05
4.238e-06
9.44766e-05
4.17749e-06
9.30011e-05
4.12243e-06
9.15465e-05
4.06332e-06
9.01157e-05
3.99736e-06
8.87062e-05
3.93795e-06
8.73141e-05
3.88888e-06
8.5943e-05
3.82686e-06
8.45975e-05
3.75669e-06
8.32693e-05
3.70466e-06
8.19588e-05
3.65808e-06
8.06678e-05
3.60055e-06
7.93986e-05
3.5376e-06
7.81487e-05
3.48535e-06
7.69137e-05
3.44369e-06
7.5695e-05
3.39591e-06
7.44946e-05
3.34224e-06
7.33119e-05
3.29432e-06
7.21422e-05
3.25629e-06
7.09862e-05
3.22034e-06
6.98425e-05
3.18152e-06
6.87138e-05
3.13839e-06
6.76001e-05
3.09862e-06
6.64986e-05
3.06672e-06
6.54079e-05
3.02981e-06
6.43251e-05
3.0106e-06
6.32538e-05
2.97407e-06
6.21968e-05
2.93738e-06
6.11532e-05
2.89402e-06
6.0122e-05
2.86389e-06
5.91004e-05
2.83215e-06
5.80874e-05
2.81158e-06
5.70914e-05
2.76329e-06
2.73795e-06
0.000792895
-0.00031648
0.000817566
-9.81674e-05
0.000789424
9.46076e-05
0.000723759
0.000244624
0.00064004
0.000323068
0.00056663
0.000281813
0.000510353
0.00021387
0.000459185
0.000196557
0.000410134
0.000190714
0.000366017
0.000168748
0.000328493
0.000140462
0.000297308
0.000113988
0.000272141
9.13695e-05
0.000251876
7.06001e-05
0.000235665
5.35257e-05
0.000223163
4.17535e-05
0.000213334
3.31349e-05
0.00020547
2.55421e-05
0.000199038
1.98537e-05
0.000193675
1.70356e-05
0.000189068
1.45742e-05
0.000185015
1.27257e-05
0.00018137
1.14301e-05
0.000178032
1.04058e-05
0.000174929
9.68583e-06
0.000172004
9.07622e-06
0.000169223
8.64845e-06
0.000166561
8.19708e-06
0.000163989
7.93168e-06
0.000161494
7.72841e-06
0.000159058
7.50444e-06
0.000156662
7.36483e-06
0.000154303
7.2737e-06
0.000151992
7.15906e-06
0.000149721
7.02541e-06
0.00014749
6.9016e-06
0.00014529
6.7956e-06
0.000143119
6.70207e-06
0.000140975
6.6142e-06
0.000138857
6.52935e-06
0.000136765
6.44612e-06
0.000134699
6.36193e-06
0.00013266
6.27668e-06
0.000130646
6.19177e-06
0.000128657
6.11113e-06
0.000126695
6.02505e-06
0.000124761
5.9316e-06
0.000122854
5.84564e-06
0.000120969
5.77327e-06
0.000119112
5.68399e-06
0.000117285
5.58379e-06
0.000115484
5.5054e-06
0.000113702
5.44021e-06
0.000111946
5.35646e-06
0.00011022
5.26394e-06
0.000108516
5.18974e-06
0.000106831
5.12847e-06
0.000105168
5.0584e-06
0.000103529
4.98106e-06
0.000101912
4.91193e-06
0.000100312
4.85579e-06
9.87285e-05
4.80423e-06
9.71617e-05
4.74838e-06
9.5616e-05
4.68416e-06
9.40868e-05
4.62776e-06
9.25743e-05
4.57971e-06
9.1075e-05
4.52868e-06
8.95862e-05
4.49974e-06
8.81122e-05
4.44784e-06
8.66558e-05
4.39417e-06
8.5217e-05
4.33256e-06
8.3795e-05
4.28621e-06
8.23855e-05
4.2414e-06
8.09853e-05
4.21194e-06
7.96093e-05
4.13951e-06
4.10542e-06
0.000967907
0.00099528
-0.000125509
0.0009581
0.000131791
0.000876787
0.000325934
0.000775196
0.000424658
0.000686534
0.000370476
0.000619389
0.000281015
0.000559408
0.000256537
0.000502228
0.000247895
0.000451253
0.000219723
0.000408234
0.000183481
0.000372647
0.000149575
0.000344007
0.000120009
0.00032084
9.37676e-05
0.000302154
7.22113e-05
0.000287693
5.62146e-05
0.000276483
4.43461e-05
0.000267277
3.47473e-05
0.00025945
2.76818e-05
0.000253074
2.34099e-05
0.000247577
2.0073e-05
0.000242714
1.75868e-05
0.00023832
1.58254e-05
0.00023428
1.44444e-05
0.000230511
1.34566e-05
0.000226945
1.26404e-05
0.000223541
1.20536e-05
0.000220265
1.14719e-05
0.000217098
1.10991e-05
0.000214013
1.08132e-05
0.000210998
1.05191e-05
0.00020804
1.0323e-05
0.000205135
1.01787e-05
0.000202273
1.00211e-05
0.000199448
9.85087e-06
0.00019665
9.69927e-06
0.000193882
9.56329e-06
0.000191145
9.43973e-06
0.000188434
9.32527e-06
0.000185751
9.21182e-06
0.000183097
9.10081e-06
0.000180468
8.99082e-06
0.000177867
8.87693e-06
0.000175296
8.7635e-06
0.000172753
8.65416e-06
0.000170236
8.54203e-06
0.000167754
8.4129e-06
0.000165301
8.2986e-06
0.000162873
8.20151e-06
0.000160475
8.08197e-06
0.000158113
7.94599e-06
0.00015578
7.83847e-06
0.00015347
7.75063e-06
0.000151189
7.63698e-06
0.000148939
7.51353e-06
0.000146719
7.41012e-06
0.000144521
7.32652e-06
0.000142347
7.23268e-06
0.000140201
7.12667e-06
0.00013808
7.03277e-06
0.000135982
6.95441e-06
0.000133899
6.88688e-06
0.000131837
6.81066e-06
0.000129798
6.72318e-06
0.00012778
6.64567e-06
0.000125779
6.58061e-06
0.000123796
6.51215e-06
0.000121825
6.47076e-06
0.000119869
6.40393e-06
0.000117934
6.32888e-06
0.00011602
6.24621e-06
0.000114125
6.18193e-06
0.000112244
6.12229e-06
0.000110378
6.07773e-06
0.000108537
5.98092e-06
5.93531e-06
0.00119647
0.00114996
0.00017831
0.00105095
0.000424929
0.000928491
0.000547118
0.000821571
0.000477396
0.000741015
0.000361571
0.000670108
0.000327444
0.000603007
0.000314995
0.000543633
0.000279097
0.00049395
0.000233163
0.000453202
0.000190323
0.000420486
0.000152726
0.000394298
0.000119955
0.000373436
9.3074e-05
0.000357208
7.24417e-05
0.000344605
5.69503e-05
0.000334288
4.50633e-05
0.000325547
3.64243e-05
0.000318383
3.05727e-05
0.000312184
2.62729e-05
0.00030669
2.30797e-05
0.000301708
2.0808e-05
0.000297113
1.90391e-05
0.000292805
1.7765e-05
0.000288722
1.67223e-05
0.000284805
1.59722e-05
0.000281026
1.52497e-05
0.000277354
1.47712e-05
0.000273773
1.43938e-05
0.000270265
1.40272e-05
0.000266824
1.37636e-05
0.000263441
1.35625e-05
0.000260096
1.33655e-05
0.000256772
1.31753e-05
0.000253471
1.30002e-05
0.000250195
1.28397e-05
0.000246941
1.2693e-05
0.000243714
1.25528e-05
0.000240508
1.24178e-05
0.000237326
1.2282e-05
0.000234173
1.21443e-05
0.000231043
1.20068e-05
0.00022794
1.18663e-05
0.000224863
1.17315e-05
0.000221814
1.15908e-05
0.000218797
1.14301e-05
0.00021581
1.12855e-05
0.000212845
1.11663e-05
0.000209912
1.10155e-05
0.000207017
1.08412e-05
0.000204147
1.07081e-05
0.000201303
1.05952e-05
0.000198487
1.0453e-05
0.000195706
1.02941e-05
0.000192954
1.01621e-05
0.000190223
1.00574e-05
0.000187517
9.93846e-06
0.000184841
9.80355e-06
0.000182191
9.68245e-06
0.000179562
9.58331e-06
0.00017695
9.49852e-06
0.000174358
9.40347e-06
0.000171789
9.292e-06
0.000169242
9.19246e-06
0.000166714
9.10956e-06
0.000164201
9.02388e-06
0.000161699
8.97378e-06
0.000159211
8.89139e-06
0.000156747
8.79356e-06
0.000154302
8.69075e-06
0.000151879
8.60533e-06
0.000149471
8.53006e-06
0.000147075
8.47403e-06
0.000144711
8.34481e-06
8.29411e-06
0.00137001
0.00125141
0.000543527
0.00110478
0.000693748
0.000976319
0.000605853
0.000879509
0.000458381
0.00079531
0.000411644
0.000716249
0.000394057
0.000646636
0.000348711
0.000588721
0.000291078
0.000541548
0.000237496
0.000503793
0.000190481
0.000473889
0.000149858
0.000450382
0.000116581
0.000432108
9.07156e-05
0.000417877
7.11816e-05
0.000406387
5.65535e-05
0.000396827
4.59841e-05
0.000388912
3.84877e-05
0.00038208
3.31056e-05
0.00037602
2.91392e-05
0.000370529
2.62986e-05
0.000365459
2.41096e-05
0.000360699
2.25253e-05
0.000356175
2.12459e-05
0.000351831
2.03163e-05
0.000347622
1.94579e-05
0.000343527
1.88667e-05
0.000339524
1.83964e-05
0.000335591
1.79606e-05
0.000331722
1.76323e-05
0.000327912
1.73732e-05
0.000324133
1.71436e-05
0.000320378
1.69311e-05
0.000316639
1.67388e-05
0.000312918
1.65603e-05
0.000309219
1.63925e-05
0.000305537
1.62344e-05
0.000301876
1.60789e-05
0.000298235
1.59237e-05
0.000294614
1.57644e-05
0.000291016
1.56051e-05
0.000287442
1.54409e-05
0.000283888
1.52852e-05
0.00028036
1.51191e-05
0.000276861
1.4929e-05
0.000273389
1.47576e-05
0.000269938
1.46171e-05
0.000266513
1.444e-05
0.000263128
1.42267e-05
0.000259769
1.40672e-05
0.000256428
1.39364e-05
0.000253114
1.3767e-05
0.000249837
1.35705e-05
0.000246584
1.34155e-05
0.000243349
1.32917e-05
0.00024014
1.3148e-05
0.000236958
1.29855e-05
0.000233802
1.28386e-05
0.000230662
1.2723e-05
0.000227536
1.26247e-05
0.000224428
1.25112e-05
0.000221342
1.23779e-05
0.000218276
1.22589e-05
0.000215226
1.21594e-05
0.000212187
1.20634e-05
0.000209155
1.20053e-05
0.000206133
1.19134e-05
0.000203133
1.17935e-05
0.000200153
1.1671e-05
0.000197191
1.15675e-05
0.00019424
1.14807e-05
0.000191298
1.14158e-05
0.00018839
1.1253e-05
1.12027e-05
0.00148359
0.000682156
0.00130923
0.000868115
0.00115549
0.000759596
0.00103925
0.000574616
0.000939142
0.000511752
0.000845855
0.000487344
0.000763957
0.00043061
0.000696023
0.000359012
0.000640936
0.000292584
0.000596988
0.000234429
0.00056241
0.000184437
0.00053546
0.000143531
0.00051457
0.000111605
0.00049831
8.74421e-05
0.000485335
6.95287e-05
0.000474705
5.66142e-05
0.000465867
4.73248e-05
0.000458275
4.06986e-05
0.000451569
3.58448e-05
0.0004455
3.23681e-05
0.000439902
2.97073e-05
0.000434655
2.77721e-05
0.000429667
2.62332e-05
0.000424874
2.51103e-05
0.000420224
2.41072e-05
0.0004157
2.33908e-05
0.000411275
2.28209e-05
0.000406915
2.23213e-05
0.000402614
2.19326e-05
0.000398369
2.16188e-05
0.00039416
2.13521e-05
0.000389975
2.11163e-05
0.000385809
2.09046e-05
0.000381662
2.07074e-05
0.000377531
2.05237e-05
0.000373416
2.035e-05
0.000369317
2.01774e-05
0.000365238
2.00031e-05
0.000361174
1.98283e-05
0.000357131
1.96477e-05
0.000353111
1.94612e-05
0.000349107
1.92889e-05
0.000345127
1.90994e-05
0.000341177
1.88786e-05
0.000337252
1.86832e-05
0.000333342
1.85265e-05
0.000329464
1.83182e-05
0.00032562
1.80704e-05
0.0003218
1.78877e-05
0.000317998
1.77385e-05
0.000314223
1.75417e-05
0.000310479
1.73142e-05
0.000306764
1.71313e-05
0.000303064
1.69909e-05
0.000299384
1.68281e-05
0.000295732
1.66382e-05
0.000292102
1.64685e-05
0.000288489
1.63359e-05
0.000284885
1.6229e-05
0.000281295
1.61012e-05
0.000277724
1.59488e-05
0.000274171
1.58118e-05
0.000270629
1.57019e-05
0.000267097
1.5595e-05
0.000263564
1.55383e-05
0.00026004
1.54372e-05
0.000256531
1.53026e-05
0.000253043
1.51592e-05
0.000249565
1.50459e-05
0.000246096
1.49494e-05
0.000242631
1.48806e-05
0.000239201
1.46831e-05
1.46418e-05
0.00175339
0.000841891
0.0015475
0.001074
0.00136432
0.000942783
0.00122502
0.000713908
0.00110601
0.000630768
0.000995907
0.000597446
0.000899389
0.000527127
0.00081942
0.000438981
0.000754733
0.000357271
0.000703241
0.000285921
0.00066288
0.000224797
0.000631562
0.000174849
0.000607356
0.000135811
0.000588542
0.000106256
0.000573639
8.44314e-05
0.000561537
6.8716e-05
0.000551498
5.73635e-05
0.000542901
4.92962e-05
0.000535337
4.34083e-05
0.000528522
3.91833e-05
0.000522254
3.5975e-05
0.000516387
3.36394e-05
0.000510821
3.17992e-05
0.00050548
3.04518e-05
0.0005003
2.9287e-05
0.000495256
2.84344e-05
0.000490327
2.775e-05
0.00048547
2.71782e-05
0.000480677
2.67262e-05
0.000475936
2.63595e-05
0.000471239
2.60491e-05
0.00046657
2.57854e-05
0.000461922
2.5552e-05
0.000457292
2.53372e-05
0.000452682
2.51339e-05
0.000448089
2.49433e-05
0.00044351
2.47564e-05
0.000438946
2.45673e-05
0.000434402
2.43719e-05
0.000429878
2.41721e-05
0.000425375
2.39634e-05
0.000420894
2.377e-05
0.000416433
2.35612e-05
0.000412003
2.33084e-05
0.000407601
2.30849e-05
0.000403214
2.29135e-05
0.000398855
2.26774e-05
0.000394536
2.2389e-05
0.000390244
2.21796e-05
0.000385967
2.20164e-05
0.000381717
2.17916e-05
0.000377504
2.15273e-05
0.000373316
2.1319e-05
0.000369143
2.11634e-05
0.000364994
2.09776e-05
0.000360868
2.07639e-05
0.000356769
2.05676e-05
0.000352682
2.04229e-05
0.000348604
2.03066e-05
0.000344541
2.01651e-05
0.000340493
1.99962e-05
0.000336462
1.98427e-05
0.000332443
1.97213e-05
0.000328428
1.96096e-05
0.000324413
1.95534e-05
0.000320398
1.94521e-05
0.000316403
1.92982e-05
0.00031242
1.91422e-05
0.00030845
1.90154e-05
0.000304485
1.89149e-05
0.000300518
1.88473e-05
0.000296593
1.86078e-05
0.00206705
0.0010205
0.00182595
0.00131511
0.00160876
0.00115998
0.00144224
0.000880419
0.00130085
0.000772162
0.00117093
0.000727364
0.00105712
0.000640941
0.000962748
0.00053335
0.000886481
0.000433538
0.000825858
0.000346544
0.000778427
0.000272228
0.000741705
0.000211571
0.000713356
0.00016416
0.000691351
0.000128262
0.000673985
0.000101798
0.000659958
8.27432e-05
0.00064834
6.89812e-05
0.000638438
5.91985e-05
0.000629758
5.20876e-05
0.000621963
4.69783e-05
0.000614817
4.31211e-05
0.000608152
4.03048e-05
0.000601841
3.81097e-05
0.000595793
3.64999e-05
0.000589935
3.51453e-05
0.000584241
3.41276e-05
0.000578685
3.33067e-05
0.000573215
3.26478e-05
0.000567813
3.21284e-05
0.000562473
3.16996e-05
0.000557183
3.13384e-05
0.000551928
3.10404e-05
0.000546697
3.07831e-05
0.000541491
3.05434e-05
0.000536306
3.03188e-05
0.000531137
3.01128e-05
0.000525985
2.99079e-05
0.000520856
2.96964e-05
0.000515746
2.94818e-05
0.000510657
2.92619e-05
0.000505591
2.90287e-05
0.000500548
2.88138e-05
0.00049553
2.85784e-05
0.000490549
2.82902e-05
0.000485593
2.80407e-05
0.000480658
2.78488e-05
0.000475753
2.75816e-05
0.000470896
2.72468e-05
0.000466063
2.70121e-05
0.000461249
2.68304e-05
0.000456465
2.65759e-05
0.000451722
2.62696e-05
0.000447009
2.6032e-05
0.000442312
2.58611e-05
0.000437635
2.56545e-05
0.000432994
2.5405e-05
0.000428375
2.51861e-05
0.000423773
2.50253e-05
0.000419179
2.49001e-05
0.000414597
2.47469e-05
0.00041004
2.45538e-05
0.000405495
2.43875e-05
0.000400963
2.42533e-05
0.000396435
2.41378e-05
0.000391904
2.40847e-05
0.000387378
2.39774e-05
0.000382865
2.38113e-05
0.000378371
2.36362e-05
0.00037389
2.34965e-05
0.00036941
2.33954e-05
0.000364927
2.33298e-05
2.30463e-05
0.00243099
0.00121093
0.00215154
0.00159456
0.00189564
0.00141588
0.00169719
0.00107886
0.00152934
0.000940013
0.0013761
0.000880602
0.00124185
0.000775193
0.00113032
0.000644879
0.00104013
0.000523727
0.000968469
0.000418209
0.000912433
0.000328264
0.000869073
0.00025493
0.000835621
0.000197612
0.000809664
0.000154219
0.00078921
0.000122251
0.00077273
9.92238e-05
0.000759109
8.26021e-05
0.000747531
7.07763e-05
0.000737423
6.21954e-05
0.000728372
5.60295e-05
0.000720103
5.13901e-05
0.000712408
4.80001e-05
0.000705143
4.53744e-05
0.0006982
4.34425e-05
0.000691493
4.18527e-05
0.000684978
4.06426e-05
0.000678634
3.96503e-05
0.000672398
3.88845e-05
0.000666246
3.82795e-05
0.000660169
3.77773e-05
0.000654149
3.73578e-05
0.000648176
3.70141e-05
0.000642235
3.67238e-05
0.000636323
3.64548e-05
0.000630437
3.62049e-05
0.000624574
3.5976e-05
0.000618733
3.57488e-05
0.000612914
3.55151e-05
0.000607122
3.5274e-05
0.000601353
3.50307e-05
0.000595614
3.47686e-05
0.000589899
3.45282e-05
0.000584217
3.42609e-05
0.000578572
3.39352e-05
0.000572959
3.36529e-05
0.000567371
3.34374e-05
0.00056182
3.31325e-05
0.000556318
3.27488e-05
0.000550853
3.24775e-05
0.000545405
3.22785e-05
0.000539992
3.19882e-05
0.000534627
3.16346e-05
0.000529296
3.13631e-05
0.000523982
3.1175e-05
0.000518698
3.09389e-05
0.000513446
3.06568e-05
0.000508228
3.04044e-05
0.000503025
3.02277e-05
0.000497832
3.00938e-05
0.000492656
2.99229e-05
0.000487503
2.97062e-05
0.000482371
2.95194e-05
0.000477252
2.93723e-05
0.00047214
2.925e-05
0.000467024
2.92015e-05
0.00046191
2.90911e-05
0.000456819
2.8902e-05
0.000451748
2.8707e-05
0.000446689
2.85558e-05
0.000441635
2.84494e-05
0.000436576
2.83888e-05
2.80492e-05
0.00285147
0.00139921
0.00253164
0.00191439
0.00223283
0.00171469
0.00199722
0.00131447
0.00179817
0.00113906
0.00161751
0.00106126
0.00145913
0.000933569
0.00132716
0.000776849
0.00122023
0.000630656
0.00113521
0.000503228
0.00106871
0.000394763
0.00101725
0.000306399
0.000977519
0.000237339
0.000946675
0.000185063
0.000922388
0.000146539
0.000902835
0.000118777
0.000886698
9.87386e-05
0.000873017
8.44576e-05
0.000861098
7.41141e-05
0.000850461
6.66668e-05
0.000840774
6.10772e-05
0.000831787
5.69874e-05
0.000823329
5.38319e-05
0.000815265
5.15071e-05
0.000807489
4.96279e-05
0.000799962
4.81697e-05
0.000792641
4.69717e-05
0.00078546
4.60649e-05
0.000778386
4.53536e-05
0.000771409
4.47543e-05
0.0007645
4.4267e-05
0.00075765
4.38643e-05
0.000750843
4.3531e-05
0.000744076
4.32218e-05
0.000737342
4.29384e-05
0.000730637
4.26812e-05
0.000723962
4.24237e-05
0.000717316
4.21609e-05
0.0007107
4.18905e-05
0.000704116
4.16147e-05
0.000697568
4.13169e-05
0.000691049
4.10468e-05
0.000684566
4.07444e-05
0.000678131
4.03701e-05
0.000671736
4.00472e-05
0.000665368
3.98057e-05
0.000659043
3.94581e-05
0.00065278
3.90113e-05
0.000646552
3.87052e-05
0.00064035
3.84804e-05
0.000634192
3.81469e-05
0.000628085
3.77413e-05
0.000622021
3.74269e-05
0.00061598
3.72163e-05
0.000609968
3.6951e-05
0.000604
3.66245e-05
0.000598066
3.63389e-05
0.000592154
3.61394e-05
0.000586257
3.59912e-05
0.000580375
3.58041e-05
0.000574525
3.55569e-05
0.000568697
3.53465e-05
0.000562887
3.51826e-05
0.000557087
3.50501e-05
0.000551281
3.50074e-05
0.000545482
3.48908e-05
0.000539709
3.46747e-05
0.000533959
3.44566e-05
0.000528232
3.42828e-05
0.000522507
3.41744e-05
0.000516779
3.41173e-05
3.3718e-05
0.00333342
0.00156379
0.00297383
0.00227398
0.00262929
0.00205923
0.00235096
0.0015928
0.00211524
0.00137479
0.00190236
0.00127414
0.00171554
0.00112039
0.00155923
0.000933163
0.00143219
0.000757698
0.00133098
0.00060443
0.00125173
0.000474017
0.00119033
0.000367803
0.00114288
0.000284782
0.00110602
0.000221925
0.00107697
0.000175589
0.0010536
0.000142144
0.00103433
0.000118011
0.00101802
0.000100772
0.00100384
8.82905e-05
0.000991224
7.92814e-05
0.000979764
7.25375e-05
0.000969173
6.7578e-05
0.000959232
6.37737e-05
0.000949779
6.09595e-05
0.00094069
5.87175e-05
0.000931918
5.69413e-05
0.000923399
5.54911e-05
0.000915059
5.44046e-05
0.000906863
5.35495e-05
0.000898785
5.28327e-05
0.000890802
5.22492e-05
0.00088289
5.17768e-05
0.000875041
5.13794e-05
0.000867243
5.102e-05
0.000859488
5.06938e-05
0.000851776
5.03928e-05
0.000844101
5.00989e-05
0.000836463
4.97993e-05
0.000828865
4.94884e-05
0.000821307
4.91724e-05
0.000813793
4.88313e-05