/*--------------------------------*- C++ -*----------------------------------*\
| =========                 |                                                 |
| \\      /  F ield         | OpenFOAM: The Open Source CFD Toolbox           |
|  \\    /   O peration     | Version:  2412                                  |
|   \\  /    A nd           | Website:  www.openfoam.com                      |
|    \\/     M anipulation  |                                                 |
\*---------------------------------------------------------------------------*/
FoamFile
{
    version     2.0;
    format      ascii;
    arch        "LSB;label=32;scalar=64";
    class       volVectorField;
    location    "220";
    object      U;
}
// * * * * * * * * * * * * * * * * * * * * * * * * * * * * * * * * * * * * * //

dimensions      [0 1 -1 0 0 0 0];

internalField   nonuniform List<vector> 
7423
(
(0.747494 4.23999 -5.56991e-18)
(1.8827 4.10081 6.25562e-24)
(2.69052 3.39393 -2.80702e-23)
(2.96033 2.52739 6.04671e-17)
(2.76425 1.73767 -2.65197e-23)
(2.42432 1.1775 -4.50744e-17)
(2.19698 0.84993 0)
(1.97097 0.618315 -3.435e-17)
(1.7038 0.436778 -1.50779e-23)
(1.46044 0.30684 0)
(1.26168 0.216521 6.0467e-18)
(1.10312 0.153279 5.46443e-18)
(0.979325 0.108325 0)
(0.884796 0.0757933 -4.5363e-18)
(0.814508 0.0517589 4.16188e-18)
(0.761775 0.0332121 -1.0533e-24)
(0.721976 0.0183633 8.65525e-25)
(0.691386 0.00610524 4.10783e-19)
(0.667435 -0.00433178 -3.82061e-19)
(0.647991 -0.0134178 -1.4253e-18)
(0.631613 -0.0214467 0)
(0.617428 -0.0286374 0)
(0.60474 -0.0351048 -2.34655e-18)
(0.59318 -0.0409624 2.20867e-18)
(0.58242 -0.0462884 -1.98778e-24)
(0.572266 -0.0511355 9.56007e-25)
(0.562576 -0.0555411 -8.72518e-25)
(0.553317 -0.0595725 1.68409e-24)
(0.544651 -0.0632723 -3.35038e-18)
(0.535806 -0.066605 -3.18446e-18)
(0.52727 -0.0696409 6.06128e-18)
(0.518952 -0.0723959 5.77551e-18)
(0.510742 -0.0748799 0)
(0.502581 -0.0771047 5.26145e-18)
(0.494496 -0.0790904 -1.17931e-24)
(0.486512 -0.08085 4.81282e-18)
(0.478629 -0.0824114 0)
(0.47085 -0.0837731 4.41873e-18)
(0.463165 -0.0849594 -3.42444e-26)
(0.455582 -0.08597 4.07039e-18)
(0.448109 -0.0868273 -7.82243e-18)
(0.440737 -0.0875376 3.76094e-18)
(0.433472 -0.0881071 -8.77857e-25)
(0.426316 -0.088555 0)
(0.419271 -0.0888811 6.71461e-18)
(0.412323 -0.0890946 -1.54373e-24)
(0.4055 -0.0892111 1.02123e-24)
(0.398805 -0.0892334 6.02603e-18)
(0.392202 -0.0891714 1.16378e-17)
(0.385696 -0.0890185 6.82285e-25)
(0.379329 -0.0888059 -3.49699e-25)
(0.373081 -0.0885239 5.2533e-18)
(0.366907 -0.0881744 0)
(0.360836 -0.0877626 -4.91694e-18)
(0.354885 -0.0873099 0)
(0.349046 -0.0868078 -4.6079e-18)
(0.343284 -0.0862559 8.92521e-18)
(0.337603 -0.0856638 -4.32265e-18)
(0.332023 -0.0850363 -4.18772e-18)
(0.326539 -0.0843788 4.05752e-18)
(0.321133 -0.083686 -3.93161e-18)
(0.315795 -0.082962 3.80969e-18)
(0.310521 -0.0822136 0)
(0.30533 -0.0814377 -8.34207e-25)
(0.300219 -0.0806445 6.92791e-18)
(0.295171 -0.0798318 8.17992e-25)
(0.290186 -0.079001 0)
(0.285245 -0.0781457 -7.31286e-25)
(0.280359 -0.0772729 3.55814e-26)
(0.275545 -0.0763953 1.46821e-18)
(0.270808 -0.0755058 0)
(0.266133 -0.0746098 -1.36778e-18)
(0.261524 -0.0737066 6.46093e-25)
(0.256946 -0.0727902 0)
(0.25241 -0.0718605 1.21932e-18)
(0.248001 -0.0709492 1.1696e-18)
(2.24855 12.7412 4.50045e-23)
(5.72659 12.4526 -2.38723e-17)
(8.29798 10.4583 -5.24961e-17)
(9.25015 7.89861 -4.99543e-17)
(8.72789 5.48964 0)
(7.69218 3.74009 7.46246e-17)
(6.95116 2.69139 3.23553e-23)
(6.257 1.9625 1.62516e-22)
(5.41252 1.38756 -2.48929e-23)
(4.63889 0.974608 0)
(4.00511 0.687445 -9.27078e-24)
(3.49994 0.486352 1.73195e-23)
(3.10554 0.343612 -8.0934e-24)
(2.80136 0.240234 7.53333e-18)
(2.57945 0.163979 -6.90847e-18)
(2.41065 0.105143 -6.36488e-18)
(2.28298 0.0581412 -1.43729e-24)
(2.18366 0.0193357 -6.8245e-19)
(2.1075 -0.0136445 5.54183e-25)
(2.04478 -0.04231 1.18386e-18)
(1.99194 -0.0675937 2.21406e-18)
(1.94619 -0.0902231 -4.15062e-18)
(1.9053 -0.110569 7.79801e-18)
(1.8681 -0.128964 0)
(1.83354 -0.145684 1.62108e-24)
(1.801 -0.160877 -1.58881e-24)
(1.76998 -0.174713 -6.18969e-18)
(1.74038 -0.187342 2.74952e-24)
(1.71263 -0.198929 5.56888e-18)
(1.68447 -0.209359 5.29331e-18)
(1.65732 -0.218859 1.00757e-17)
(1.63092 -0.22749 -9.60103e-18)
(1.6049 -0.235274 -7.44972e-26)
(1.57903 -0.242235 -8.74719e-18)
(1.55342 -0.248442 0)
(1.52816 -0.253949 -8.00191e-18)
(1.50324 -0.258816 0)
(1.47867 -0.263077 -7.3471e-18)
(1.45442 -0.266777 -7.04899e-18)
(1.4305 -0.269934 -6.76834e-18)
(1.40693 -0.272603 1.57749e-24)
(1.38369 -0.274818 -6.25405e-18)
(1.3608 -0.276592 2.91964e-24)
(1.33826 -0.277975 0)
(1.31608 -0.27899 -1.11665e-17)
(1.29421 -0.279646 2.61196e-24)
(1.27275 -0.28 1.03842e-17)
(1.25167 -0.280063 -1.00219e-17)
(1.23091 -0.279849 -3.15916e-24)
(1.21045 -0.279371 2.2695e-24)
(1.19042 -0.278685 -1.80721e-17)
(1.17078 -0.277796 -8.73725e-18)
(1.15138 -0.27669 -8.45158e-18)
(1.1323 -0.275398 8.17802e-18)
(1.1136 -0.273963 -7.9157e-18)
(1.09526 -0.272387 7.66413e-18)
(1.07716 -0.270653 -7.42249e-18)
(1.05931 -0.268788 -7.18973e-18)
(1.04179 -0.266812 -6.96531e-18)
(1.02457 -0.264746 -1.34976e-17)
(1.0076 -0.262574 6.53938e-18)
(0.990834 -0.2603 0)
(0.974284 -0.257942 0)
(0.957999 -0.255515 0)
(0.941951 -0.253028 -5.7614e-18)
(0.926108 -0.250471 -1.30009e-24)
(0.910474 -0.247863 1.31773e-24)
(0.894981 -0.245185 1.21627e-24)
(0.879649 -0.242452 -1.23455e-24)
(0.864548 -0.239692 -1.808e-24)
(0.849693 -0.236907 2.35785e-18)
(0.835024 -0.234096 4.54937e-18)
(0.820569 -0.231263 -1.07447e-24)
(0.806215 -0.228389 9.76897e-25)
(0.791995 -0.225478 -5.84074e-26)
(0.778176 -0.222617 -9.56646e-25)
(3.81691 21.6184 0)
(9.81585 21.3107 0)
(14.3815 18.1163 3.5209e-21)
(16.2131 13.8479 1.04967e-22)
(15.4515 9.72316 0)
(13.6991 6.66412 -8.30959e-17)
(12.3659 4.78969 6.62155e-23)
(11.1845 3.50952 3.07882e-17)
(9.69245 2.48608 0)
(8.31367 1.74761 2.47001e-17)
(7.17809 1.23282 -1.11547e-17)
(6.27186 0.872052 -1.01296e-17)
(5.56351 0.615966 1.76555e-23)
(5.00862 0.429789 -4.29802e-25)
(4.61583 0.293656 -7.60986e-24)
(4.31075 0.188163 3.58302e-18)
(4.07945 0.104034 7.73118e-25)
(3.89583 0.0345835 -8.42158e-25)
(3.76057 -0.0242669 8.72404e-26)
(3.64635 -0.0753896 1.24826e-24)
(3.55005 -0.120448 -2.49812e-18)
(3.4667 -0.160667 4.68414e-18)
(3.39232 -0.196826 -4.40107e-18)
(3.32472 -0.229499 4.14346e-18)
(3.26201 -0.259142 3.66083e-24)
(3.20308 -0.286097 -3.58848e-24)
(3.147 -0.310613 -1.44129e-24)
(3.09351 -0.332978 0)
(3.04329 -0.353489 0)
(2.99262 -0.371934 0)
(2.94383 -0.388736 -2.27693e-17)
(2.89647 -0.404009 2.54349e-24)
(2.84981 -0.417761 1.03511e-17)
(2.80344 -0.430055 4.41466e-24)
(2.75761 -0.441007 -4.58553e-24)
(2.71244 -0.450745 -9.04602e-18)
(2.66794 -0.459328 0)
(2.62409 -0.466851 -3.89535e-24)
(2.58085 -0.473367 7.97027e-18)
(2.53822 -0.478946 -7.65338e-18)
(2.49622 -0.483651 0)
(2.45485 -0.487541 7.07256e-18)
(2.41409 -0.49067 0)
(2.37398 -0.493092 0)
(2.33453 -0.494869 0)
(2.29564 -0.496016 0)
(2.25746 -0.49662 1.17461e-17)
(2.22 -0.496717 1.13367e-17)
(2.18308 -0.496315 -1.09476e-17)
(2.14672 -0.495457 1.05767e-17)
(2.11114 -0.494218 -1.40645e-24)
(2.07624 -0.492627 0)
(2.04179 -0.490652 1.24465e-24)
(2.0079 -0.488356 -1.4335e-24)
(1.97469 -0.485793 1.2614e-24)
(1.94212 -0.482985 -1.73437e-17)
(1.90998 -0.479907 -1.96411e-24)
(1.87831 -0.476588 8.13559e-18)
(1.8472 -0.473081 1.57637e-17)
(1.81665 -0.469404 7.63697e-18)
(1.78653 -0.46555 1.72841e-24)
(1.75679 -0.461515 -1.7456e-24)
(1.72742 -0.457325 0)
(1.69853 -0.453019 0)
(1.67006 -0.448603 1.52022e-24)
(1.64196 -0.444066 6.31418e-18)
(1.61423 -0.439438 2.91489e-24)
(1.58676 -0.434692 -1.4439e-24)
(1.55957 -0.429846 1.33026e-24)
(1.53279 -0.424946 -5.52741e-18)
(1.50644 -0.420011 3.78784e-25)
(1.48042 -0.415023 -2.57458e-18)
(1.45478 -0.409997 0)
(1.42933 -0.404896 0)
(1.40413 -0.399743 -2.29501e-18)
(1.37963 -0.394668 -2.20141e-18)
(5.39693 30.5514 9.0545e-23)
(13.9905 30.3535 -9.15497e-23)
(20.7109 26.0858 1.20868e-16)
(23.5913 20.1567 2.10772e-22)
(22.7364 14.3147 5.18206e-17)
(20.3291 9.89465 4.42958e-17)
(18.3763 7.12058 0)
(16.6885 5.23853 -3.13591e-17)
(14.5333 3.7294 0)
(12.5086 2.63079 -2.62315e-17)
(10.8206 1.85937 -2.7839e-24)
(9.46476 1.31676 1.10491e-17)
(8.3999 0.93058 0)
(7.54653 0.64797 8.86656e-24)
(6.96616 0.443472 -8.62935e-18)
(6.502 0.284039 3.71932e-24)
(6.14887 0.156978 -5.33979e-24)
(5.85973 0.0521348 1.69333e-24)
(5.65996 -0.0364208 -8.00906e-19)
(5.48435 -0.113287 1.39837e-24)
(5.33617 -0.180988 -2.80081e-18)
(5.20789 -0.241296 5.25529e-18)
(5.09357 -0.295466 0)
(4.98975 -0.344391 -4.65374e-18)
(4.89362 -0.38871 8.38217e-24)
(4.80343 -0.429002 -4.03379e-24)
(4.71776 -0.465614 -1.25023e-24)
(4.63608 -0.498977 -3.49358e-24)
(4.55922 -0.529537 1.00723e-23)
(4.48226 -0.557038 6.73097e-18)
(4.40821 -0.582083 2.56332e-17)
(4.3364 -0.604824 5.72823e-24)
(4.2657 -0.62529 -1.16602e-17)
(4.19543 -0.643556 -6.19533e-26)
(4.12614 -0.659843 5.16924e-24)
(4.058 -0.674317 1.01998e-17)
(3.99096 -0.687084 0)
(3.92498 -0.698268 4.39363e-24)
(3.85996 -0.707949 -8.5774e-24)
(3.79591 -0.716241 8.63469e-18)
(3.73282 -0.723227 7.91668e-24)
(3.6707 -0.728991 -7.98138e-18)
(3.60954 -0.733625 3.6011e-24)
(3.54937 -0.737209 -3.58918e-24)
(3.4902 -0.739821 -1.42574e-17)
(3.4319 -0.741511 0)
(3.37468 -0.742378 -1.88882e-24)
(3.31854 -0.742493 -2.99909e-24)
(3.26322 -0.741866 1.23633e-17)
(3.20876 -0.740548 -1.19456e-17)
(3.15547 -0.738682 1.15467e-17)
(3.10321 -0.736278 -2.61428e-24)
(3.05163 -0.733303 1.08022e-17)
(3.0009 -0.729855 -1.04538e-17)
(2.95118 -0.726004 1.01195e-17)
(2.90243 -0.721787 9.79882e-18)
(2.85434 -0.717173 4.61368e-24)
(2.80696 -0.712198 0)
(2.76042 -0.706949 -8.90797e-18)
(2.7147 -0.701436 0)
(2.66965 -0.695663 8.3646e-18)
(2.62517 -0.689628 0)
(2.58124 -0.683357 3.66609e-24)
(2.53802 -0.676909 -3.70806e-24)
(2.49545 -0.670294 0)
(2.45343 -0.663518 -1.42778e-17)
(2.41197 -0.656591 3.21907e-24)
(2.3709 -0.649493 6.68761e-18)
(2.33025 -0.642242 0)
(2.29021 -0.634916 3.12523e-18)
(2.2508 -0.627535 -6.03579e-18)
(2.2119 -0.620071 2.9116e-18)
(2.17356 -0.612555 2.60138e-24)
(2.13552 -0.604925 -2.70086e-18)
(2.09785 -0.597222 2.59569e-18)
(2.06123 -0.589634 2.48992e-18)
(6.89718 39.0192 0)
(17.9401 38.9116 0)
(26.7028 33.6332 -5.55648e-17)
(30.6503 26.197 5.07085e-17)
(29.9744 18.8816 -4.70384e-17)
(27.1308 13.2127 -4.15744e-17)
(24.6598 9.55961 0)
(22.4053 7.03626 2.89534e-17)
(19.6956 5.0567 -2.7304e-17)
(17.0868 3.59569 -2.58015e-17)
(14.8652 2.55591 1.43415e-22)
(13.0536 1.81717 -2.25087e-23)
(11.6141 1.28751 0)
(10.4326 0.896371 -9.76945e-24)
(9.65031 0.614802 4.26001e-23)
(9.00765 0.393824 -4.32513e-18)
(8.516 0.217656 1.88033e-24)
(8.09919 0.0722554 -2.11277e-24)
(7.83086 -0.0502511 8.79079e-19)
(7.58368 -0.156545 0)
(7.37475 -0.250003 1.30129e-24)
(7.19375 -0.333222 -5.80501e-18)
(7.03249 -0.407866 5.46568e-18)
(6.88616 -0.475203 -5.15526e-18)
(6.75082 -0.536186 0)
(6.62402 -0.591523 0)
(6.50375 -0.641841 -7.11571e-24)
(6.38912 -0.687607 8.05241e-24)
(6.28088 -0.729451 7.38688e-24)
(6.17347 -0.767164 -7.49845e-18)
(6.07006 -0.801482 -1.42876e-17)
(5.96979 -0.832593 1.36289e-17)
(5.87096 -0.860564 6.3183e-24)
(5.77286 -0.885487 1.2459e-17)
(5.67649 -0.907736 0)
(5.582 -0.927523 -1.1423e-17)
(5.48922 -0.944992 0)
(5.398 -0.960285 4.92469e-24)
(5.3082 -0.973542 -1.00813e-17)
(5.21978 -0.984876 -1.1138e-23)
(5.13273 -0.994423 9.03353e-24)
(5.04706 -1.0023 -8.9577e-18)
(4.96274 -1.00863 -1.64531e-23)
(4.87981 -1.01351 8.06107e-24)
(4.79828 -1.01707 1.60149e-17)
(4.71797 -1.01936 1.54456e-17)
(4.63917 -1.02052 -2.98101e-17)
(4.56186 -1.02065 -6.74268e-24)
(4.48572 -1.01976 -1.39011e-17)
(4.41076 -1.01793 -1.34344e-17)
(4.33741 -1.01534 6.30684e-24)
(4.26549 -1.01202 5.88278e-24)
(4.19453 -1.00792 -5.90453e-24)
(4.12474 -1.00316 -1.17665e-17)
(4.05634 -0.997852 -5.33117e-24)
(3.98927 -0.992046 5.36241e-24)
(3.92312 -0.985684 -1.06885e-17)
(3.85796 -0.97884 -1.93337e-25)
(3.79396 -0.971613 1.00355e-17)
(3.73108 -0.964032 -4.73198e-24)
(3.66913 -0.956087 -9.42635e-18)
(3.60796 -0.947785 -9.13605e-18)
(3.54757 -0.939156 4.31245e-24)
(3.48813 -0.930288 0)
(3.4296 -0.921192 0)
(3.37182 -0.911867 3.15915e-24)
(3.31482 -0.902341 -3.63068e-24)
(3.25836 -0.892583 -7.54366e-18)
(3.20246 -0.882617 -3.39392e-24)
(3.1474 -0.872532 3.44804e-24)
(3.09322 -0.862381 3.40538e-18)
(3.03972 -0.852109 -7.84755e-24)
(2.98699 -0.841773 6.0406e-24)
(2.93466 -0.831278 3.04857e-18)
(2.88289 -0.820683 2.93015e-18)
(2.8325 -0.81024 0)
(8.23986 46.5729 0)
(21.3792 46.3595 0)
(31.758 40.0003 1.77846e-22)
(36.505 31.2092 -3.99955e-17)
(36.0863 22.7419 -1.25835e-23)
(33.1145 16.1355 3.27059e-17)
(30.4394 11.806 0)
(27.7217 8.71015 0)
(24.6749 6.33879 2.35514e-17)
(21.6697 4.56303 2.30232e-17)
(19.0449 3.27678 7.38316e-23)
(16.8571 2.34831 2.26855e-23)
(15.0858 1.67359 -1.04582e-17)
(13.6177 1.17095 -1.10358e-17)
(12.6164 0.804381 4.28325e-23)
(11.7931 0.516096 4.45128e-18)
(11.1579 0.285571 -8.18816e-24)
(10.6085 0.0949142 0)
(10.2637 -0.0656565 9.27142e-19)
(9.93854 -0.204963 0)
(9.66292 -0.32743 3.28798e-18)
(9.4236 -0.436394 -6.03814e-24)
(9.21021 -0.534056 -5.86002e-18)
(9.01647 -0.622104 5.54323e-18)
(8.8373 -0.701808 -1.05017e-17)
(8.6695 -0.774108 0)
(8.51046 -0.839782 1.89221e-17)
(8.35881 -0.899518 8.99752e-18)
(8.21495 -0.954001 0)
(8.07343 -1.0032 -8.16522e-18)
(7.93697 -1.04792 0)
(7.80428 -1.08839 -1.48929e-17)
(7.67326 -1.12468 1.33837e-23)
(7.54368 -1.15706 -1.32863e-23)
(7.41694 -1.186 0)
(7.29305 -1.21178 4.81242e-24)
(7.17158 -1.23457 0)
(7.05227 -1.25453 1.08846e-23)
(6.93488 -1.27183 2.23001e-17)
(6.81935 -1.28664 -3.94752e-24)
(6.70566 -1.29912 9.67146e-24)
(6.59378 -1.30942 1.98586e-17)
(6.48371 -1.31771 0)
(6.37545 -1.32411 -8.64464e-24)
(6.26904 -1.32878 -1.77871e-17)
(6.16425 -1.33179 -1.71654e-17)
(6.06141 -1.33334 1.65745e-17)
(5.96053 -1.33354 -1.60114e-17)
(5.86119 -1.33242 2.62051e-25)
(5.76339 -1.33006 1.49641e-17)
(5.66767 -1.3267 0)
(5.57383 -1.3224 -1.4008e-17)
(5.48126 -1.31708 -6.58669e-24)
(5.3902 -1.31088 4.13939e-24)
(5.30094 -1.30399 -5.95256e-24)
(5.21341 -1.29643 5.99008e-24)
(5.12711 -1.28815 2.38894e-17)
(5.04208 -1.27924 5.62983e-24)
(4.95855 -1.26982 -1.1224e-17)
(4.87647 -1.25995 0)
(4.79563 -1.24959 1.05506e-17)
(4.71579 -1.23877 1.02294e-17)
(4.63696 -1.22752 -9.91745e-18)
(4.55937 -1.21595 0)
(4.48294 -1.20409 4.34421e-24)
(4.40751 -1.19192 9.02623e-18)
(4.33307 -1.17949 -8.33776e-24)
(4.25935 -1.16676 4.13208e-24)
(4.18636 -1.15375 -3.8086e-24)
(4.11442 -1.14058 3.87044e-24)
(4.04362 -1.12731 3.55148e-24)
(3.97371 -1.1139 -3.69029e-18)
(3.90479 -1.10039 0)
(3.83641 -1.08667 -3.42559e-18)
(3.76876 -1.07283 -6.58667e-18)
(3.70288 -1.05918 -3.16012e-18)
(9.40272 53.082 1.88703e-22)
(24.2714 52.6172 3.80037e-23)
(35.8604 45.1677 -1.36918e-22)
(41.1092 35.1541 0)
(40.7854 25.7141 2.71445e-17)
(37.7335 18.3954 2.39136e-17)
(34.9949 13.5794 2.27773e-17)
(32.1206 10.0975 7.04989e-23)
(28.9391 7.43881 1.87963e-17)
(25.7595 5.42802 0)
(22.9287 3.94798 1.94431e-22)
(20.5205 2.8609 -3.70995e-23)
(18.5312 2.05753 1.86486e-17)
(16.912 1.45549 6.37426e-23)
(15.685 1.00097 8.83775e-18)
(14.7124 0.644553 -4.24091e-18)
(13.9534 0.357649 0)
(13.3109 0.119505 -4.99768e-25)
(12.8704 -0.0820283 -2.98302e-24)
(12.4718 -0.256936 0)
(12.1323 -0.410888 3.30104e-18)
(11.8364 -0.547932 1.19646e-23)
(11.5718 -0.67082 5.95342e-18)
(11.3309 -0.781655 0)
(11.1079 -0.881991 1.07714e-17)
(10.8988 -0.973046 -1.026e-17)
(10.7004 -1.05576 -9.78267e-18)
(10.511 -1.13101 -9.33738e-18)
(10.3302 -1.19953 0)
(10.1536 -1.2616 8.5293e-18)
(9.98281 -1.31794 0)
(9.81601 -1.36886 0)
(9.65117 -1.4145 0)
(9.48902 -1.45536 1.45581e-17)
(9.33081 -1.49196 0)
(9.17622 -1.52461 1.34804e-17)
(9.02466 -1.55349 0)
(8.87578 -1.57885 1.24675e-17)
(8.72932 -1.60086 -2.39971e-17)
(8.58516 -1.61974 -3.4663e-17)
(8.44327 -1.63569 0)
(8.30363 -1.64891 1.00656e-23)
(8.16623 -1.65959 -1.97586e-23)
(8.03105 -1.6679 1.90727e-23)
(7.89815 -1.67402 1.93101e-17)
(7.76726 -1.67807 0)
(7.63875 -1.68026 1.80397e-17)
(7.51265 -1.68073 9.0416e-24)
(7.38846 -1.67955 -1.68839e-17)
(7.26617 -1.67681 1.63446e-17)
(7.14641 -1.67279 0)
(7.02897 -1.66758 1.53335e-17)
(6.91312 -1.66108 1.48593e-17)
(6.79911 -1.65348 7.38163e-24)
(6.6873 -1.64497 1.39659e-17)
(6.57763 -1.63562 2.58391e-23)
(6.46949 -1.62537 -1.95807e-23)
(6.3629 -1.61431 0)
(6.25815 -1.60259 -1.1562e-23)
(6.1552 -1.59028 -1.20003e-17)
(6.05376 -1.57737 -6.27003e-24)
(5.95358 -1.56387 0)
(5.85463 -1.54982 1.09625e-17)
(5.75718 -1.53535 9.92214e-24)
(5.66117 -1.52051 -1.00548e-23)
(5.56639 -1.50527 0)
(5.47284 -1.4897 9.02751e-24)
(5.38018 -1.47373 -1.79065e-23)
(5.28839 -1.45741 -4.54415e-18)
(5.19788 -1.44088 8.17307e-24)
(5.10876 -1.42421 4.24928e-18)
(5.02075 -1.40736 -1.56544e-23)
(4.93394 -1.39035 7.76104e-24)
(4.84781 -1.3731 3.81355e-18)
(4.7626 -1.3557 7.33657e-18)
(4.67954 -1.33849 3.52176e-18)
(10.4034 58.6475 3.09254e-23)
(26.7225 57.918 3.47292e-22)
(39.2778 49.4768 1.9886e-23)
(44.8719 38.384 -1.97965e-22)
(44.5272 28.0867 -4.30809e-17)
(41.3166 20.1531 -1.82604e-17)
(38.4496 14.9275 -1.68548e-17)
(35.5355 11.1772 -1.49837e-17)
(32.2819 8.30357 -1.45126e-17)
(29.0376 6.12339 -5.33461e-23)
(26.1443 4.50533 1.46557e-17)
(23.6658 3.30226 2.94325e-23)
(21.5938 2.39977 -8.75863e-23)
(19.9465 1.71831 8.90902e-23)
(18.5662 1.18612 -7.5333e-18)
(17.507 0.767931 7.37893e-18)
(16.6709 0.428019 3.66308e-24)
(16.0061 0.144261 3.35631e-24)
(15.4605 -0.0980748 -8.34731e-19)
(15.0083 -0.30884 -1.60081e-18)
(14.6211 -0.494873 -3.06752e-18)
(14.2816 -0.660858 5.87358e-18)
(13.9766 -0.809999 -5.62188e-18)
(13.698 -0.944737 5.38172e-18)
(13.4391 -1.06691 0)
(13.1956 -1.17793 1.97529e-17)
(12.964 -1.27896 9.46939e-18)
(12.7423 -1.37095 -1.76475e-23)
(12.5293 -1.45476 0)
(12.3222 -1.53091 -8.38052e-18)
(12.121 -1.60011 -1.61203e-17)
(11.9239 -1.66269 -1.55552e-17)
(11.7298 -1.71903 0)
(11.5395 -1.76973 -1.46538e-17)
(11.3532 -1.81523 1.32994e-23)
(11.1706 -1.85587 -1.32845e-23)
(10.9911 -1.89189 0)
(10.8145 -1.9236 -1.27496e-17)
(10.6405 -1.95125 1.23073e-17)
(10.4692 -1.97509 2.37722e-17)
(10.3003 -1.99537 -1.14853e-17)
(10.134 -2.0123 2.15469e-23)
(9.97028 -2.02613 -2.14811e-17)
(9.80903 -2.03706 2.07884e-17)
(9.65035 -2.04533 2.01275e-17)
(9.49395 -2.05103 0)
(9.34024 -2.05445 -3.77849e-17)
(9.18928 -2.05575 1.48937e-23)
(9.04053 -2.05502 3.55217e-17)
(8.8939 -2.05237 -1.72302e-17)
(8.75016 -2.04812 -1.672e-17)
(8.6091 -2.04238 0)
(8.46988 -2.03506 -1.17761e-23)
(8.33274 -2.02637 1.53051e-17)
(8.19812 -2.01654 -2.97341e-17)
(8.06598 -2.00565 -1.44442e-17)
(7.93562 -1.99364 -2.80712e-17)
(7.80702 -1.98062 -1.36398e-17)
(7.68053 -1.96676 1.32559e-17)
(7.55612 -1.95216 2.57662e-17)
(7.43347 -1.9368 -1.25205e-17)
(7.31227 -1.92069 1.21672e-17)
(7.19247 -1.9039 -1.18226e-17)
(7.07438 -1.88656 -1.0716e-23)
(6.95797 -1.86874 4.72413e-25)
(6.84299 -1.85042 -1.08289e-17)
(6.72941 -1.83166 0)
(6.61685 -1.81242 -1.01935e-17)
(6.50529 -1.79271 1.37705e-23)
(6.39516 -1.77271 -4.78554e-18)
(6.28665 -1.75251 -4.63137e-18)
(6.17943 -1.73207 0)
(6.0736 -1.71143 0)
(5.96856 -1.69048 0)
(5.86461 -1.66931 -1.22376e-23)
(5.76315 -1.64837 3.85996e-18)
(11.2691 63.4261 0)
(28.8474 62.5097 2.08418e-17)
(42.2434 53.223 0)
(48.1234 41.1823 0)
(47.7111 30.1126 1.84296e-17)
(44.2893 21.6168 0)
(41.2263 16.0149 0)
(38.2269 12.0314 2.41528e-17)
(34.8751 8.9773 4.19754e-23)
(31.5602 6.66095 -1.11106e-17)
(28.629 4.93794 -5.56876e-18)
(26.133 3.64999 0)
(24.05 2.67534 -5.78216e-18)
(22.3981 1.93155 1.23635e-22)
(20.9929 1.34272 5.91953e-18)
(19.9125 0.874608 -2.90857e-23)
(19.0535 0.490077 -1.45789e-18)
(18.3969 0.166518 7.81924e-19)
(17.7964 -0.11232 6.9806e-19)
(17.3206 -0.355952 1.3549e-18)
(16.9108 -0.571979 2.62423e-18)
(16.5494 -0.765467 -5.07343e-18)
(16.2231 -0.939901 0)
(15.9234 -1.09796 -9.45399e-18)
(15.6438 -1.24169 0)
(15.3798 -1.37269 -2.85169e-23)
(15.1278 -1.49221 -2.56572e-23)
(14.8856 -1.60137 0)
(14.6516 -1.701 0)
(14.4243 -1.79189 7.65027e-18)
(14.2026 -1.87472 2.95957e-17)
(13.9853 -1.94998 2.87271e-17)
(13.7724 -2.01823 0)
(13.5634 -2.07998 -2.56684e-23)
(13.3575 -2.13555 2.58264e-23)
(13.1544 -2.18531 1.2915e-17)
(12.9539 -2.22962 0)
(12.7562 -2.26885 1.21374e-17)
(12.561 -2.3033 0)
(12.3683 -2.33325 -1.14147e-17)
(12.1781 -2.359 1.10761e-17)
(11.9905 -2.38081 -1.07521e-17)
(11.8054 -2.39893 9.80583e-24)
(11.6228 -2.41362 -2.02889e-17)
(11.4429 -2.42512 -1.97185e-17)
(11.2652 -2.43357 -1.91707e-17)
(11.0903 -2.43928 3.72891e-17)
(10.9183 -2.44245 1.81377e-17)
(10.7485 -2.44317 -3.53009e-17)
(10.581 -2.44157 0)
(10.4164 -2.43802 3.34542e-17)
(10.2546 -2.43266 1.62892e-17)
(10.0948 -2.42539 -3.60259e-24)
(9.93715 -2.41644 -1.50175e-23)
(9.78212 -2.40606 3.07507e-23)
(9.62974 -2.39439 1.6027e-23)
(9.47923 -2.38134 1.53311e-23)
(9.33056 -2.36704 2.78695e-17)
(9.18411 -2.35169 -2.71591e-17)
(9.03987 -2.3354 -1.32329e-17)
(8.89751 -2.31817 1.20463e-23)
(8.75668 -2.3 -1.25623e-17)
(8.61728 -2.28097 2.44742e-17)
(8.47968 -2.26123 1.1119e-23)
(8.34388 -2.24087 -1.13107e-23)
(8.20958 -2.21987 1.12897e-17)
(8.07676 -2.19831 -1.07173e-23)
(7.94502 -2.17612 2.13514e-17)
(7.81427 -2.15334 5.18584e-18)
(7.68502 -2.13016 6.64658e-24)
(7.5575 -2.10669 0)
(7.43135 -2.08288 0)
(7.3067 -2.0588 -8.48727e-24)
(7.18286 -2.03431 8.68199e-24)
(7.06023 -2.00954 -4.26812e-18)
(6.94031 -1.98496 -8.21959e-18)
(30.7298 66.5611 -2.18891e-17)
(44.9088 56.5951 3.09469e-17)
(51.0671 43.7235 0)
(50.5785 31.9445 2.41438e-22)
(46.9235 22.9195 1.32914e-17)
(43.625 16.9583 -9.21502e-23)
(40.4806 12.7502 -1.02468e-17)
(36.9958 9.53143 0)
(33.5748 7.09295 8.91255e-18)
(30.5743 5.27882 0)
(28.042 3.92077 -4.35142e-18)
(25.945 2.88929 3.45208e-23)
(24.273 2.09564 4.57795e-18)
(22.8925 1.46607 -1.7584e-23)
(21.8192 0.959736 -2.25184e-18)
(20.9668 0.540315 1.12254e-18)
(20.3104 0.184669 -5.82445e-19)
(19.7178 -0.12376 -5.47924e-19)
(19.2429 -0.394923 0)
(18.8326 -0.636526 -4.19813e-18)
(18.4694 -0.853873 -7.65882e-24)
(18.14 -1.05061 -3.983e-18)
(17.8363 -1.22954 3.87204e-18)
(17.5517 -1.39284 0)
(17.282 -1.54219 -7.30573e-18)
(17.0236 -1.67896 -3.10505e-23)
(16.7743 -1.80431 0)
(16.5323 -1.91911 -6.69203e-18)
(16.2969 -2.02431 0)
(16.0665 -2.12056 -2.52775e-17)
(15.8406 -2.20847 -2.4641e-17)
(15.6195 -2.28872 -2.26208e-23)
(15.4019 -2.36172 4.50493e-23)
(15.1864 -2.42776 -4.39865e-23)
(14.973 -2.48725 -1.12363e-17)
(14.7616 -2.54058 2.05342e-23)
(14.5525 -2.58818 -1.06647e-17)
(14.3456 -2.63037 -2.01629e-23)
(14.1409 -2.66748 3.03861e-17)
(13.9384 -2.69981 -1.85219e-23)
(13.7381 -2.72766 1.92652e-17)
(13.5401 -2.7513 1.87972e-17)
(13.3445 -2.771 -1.83463e-17)
(13.1512 -2.78703 -1.79118e-17)
(12.96 -2.79955 3.4985e-17)
(12.7714 -2.80888 -1.7088e-17)
(12.5855 -2.81527 0)
(12.4017 -2.81881 3.26351e-17)
(12.2199 -2.81962 2.98859e-23)
(12.041 -2.81814 -1.5595e-17)
(11.8648 -2.8145 -1.52495e-17)
(11.6904 -2.80861 -1.49136e-17)
(11.518 -2.80073 0)
(11.3482 -2.79113 1.42684e-17)
(11.1809 -2.77995 1.39573e-17)
(11.0154 -2.76712 1.36535e-17)
(10.8516 -2.75278 -1.33561e-17)
(10.69 -2.73716 2.6129e-17)
(10.5305 -2.72036 -2.38843e-23)
(10.3728 -2.7024 1.24962e-17)
(10.2165 -2.6833 -2.37945e-23)
(10.0615 -2.66312 -1.19443e-17)
(9.90824 -2.64205 0)
(9.75672 -2.62018 1.14025e-17)
(9.60661 -2.5975 0)
(9.45789 -2.57409 0)
(9.31015 -2.5499 -1.05993e-17)
(9.16325 -2.52494 -2.01906e-23)
(9.01775 -2.49944 5.03074e-18)
(8.87393 -2.47352 4.89475e-18)
(8.73143 -2.44715 0)
(8.59036 -2.42037 0)
(8.45002 -2.39305 0)
(8.31083 -2.36537 0)
(8.1745 -2.3378 9.49377e-24)
(47.367 59.7016 -4.69529e-20)
(53.825 46.112 -2.1482e-17)
(53.2723 33.6728 -1.60465e-17)
(49.3799 24.14 -1.23733e-17)
(45.8248 17.8277 0)
(42.4969 13.3967 0)
(38.8562 10.0207 0)
(35.3018 7.46605 0)
(32.2002 5.56604 0)
(29.6006 4.1437 3.51042e-18)
(27.4631 3.06215 -3.47556e-18)
(25.7549 2.22647 0)
(24.3817 1.56363 0)
(23.3092 1.0269 1.73347e-18)
(22.4622 0.580056 -3.52522e-24)
(21.7994 0.199162 -4.36167e-19)
(21.2291 -0.13246 3.16127e-24)
(20.7623 -0.425477 -3.24531e-24)
(20.3593 -0.687606 1.47925e-23)
(20.0025 -0.924298 0)
(19.6785 -1.13931 6.25947e-18)
(19.3793 -1.33554 -3.05644e-18)
(19.0983 -1.51525 -1.1596e-23)
(18.8314 -1.68015 0)
(18.5751 -1.83169 -5.67295e-18)
(18.3272 -1.97106 0)
(18.0857 -2.09918 5.39494e-18)
(17.8504 -2.21704 5.26105e-18)
(17.6197 -2.32531 1.03055e-23)
(17.3928 -2.42463 1.00307e-17)
(17.1701 -2.5157 -1.84269e-23)
(16.9506 -2.59898 1.86778e-23)
(16.733 -2.67478 -9.41989e-18)
(16.5171 -2.74355 9.21286e-18)
(16.3031 -2.80567 0)
(16.0909 -2.86158 3.30524e-23)
(15.8806 -2.91162 -3.34465e-23)
(15.6721 -2.95613 -1.68685e-17)
(15.4655 -2.99542 0)
(15.2608 -3.0298 -8.08523e-18)
(15.0582 -3.05957 1.58404e-17)
(14.8575 -3.08499 3.10442e-17)
(14.6589 -3.10636 1.52149e-17)
(14.4622 -3.12385 -1.49179e-17)
(14.2677 -3.1378 9.77687e-25)
(14.0757 -3.14844 5.47646e-23)
(13.8856 -3.1559 -1.40829e-17)
(13.6972 -3.16031 0)
(13.5114 -3.1621 1.35669e-17)
(13.3281 -3.16145 -9.25953e-25)
(13.1464 -3.15825 -1.30775e-17)
(12.9665 -3.15277 1.28419e-17)
(12.7889 -3.14531 -2.36066e-23)
(12.6136 -3.13601 2.40784e-23)
(12.4399 -3.12481 -1.21641e-17)
(12.2677 -3.11186 -1.19463e-17)
(12.0975 -3.09738 -1.17319e-17)
(11.9291 -3.08152 1.15201e-17)
(11.7624 -3.06429 -2.26209e-17)
(11.5969 -3.04569 2.07372e-23)
(11.4324 -3.02581 -2.12279e-23)
(11.2694 -3.00485 -1.99495e-23)
(11.108 -2.9829 -1.04844e-17)
(10.9478 -2.95997 -3.92116e-23)
(10.7887 -2.93613 8.93972e-25)
(10.6304 -2.91133 1.92594e-23)
(10.4727 -2.88559 -4.82483e-18)
(10.3161 -2.85914 -4.71731e-18)
(10.1611 -2.83214 -4.60791e-18)
(10.0071 -2.80451 4.49612e-18)
(9.85439 -2.77635 0)
(9.70217 -2.74749 0)
(9.55092 -2.71814 -4.14225e-18)
(9.40252 -2.68884 4.01642e-18)
(56.4695 48.4102 2.20548e-17)
(55.8794 35.3533 3.18698e-17)
(51.7567 25.3269 -1.95205e-22)
(47.9348 18.6658 0)
(44.4008 14.0106 0)
(40.5907 10.48 -5.51605e-23)
(36.8863 7.81107 -6.75308e-18)
(33.6616 5.82643 4.96136e-23)
(30.9702 4.34144 2.99527e-18)
(28.7683 3.21224 2.90779e-18)
(27.0097 2.33839 0)
(25.6163 1.6454 2.81852e-18)
(24.5283 1.08254 -3.20171e-23)
(23.6738 0.61279 0)
(22.9997 0.211249 3.42561e-19)
(22.4392 -0.139105 2.50652e-24)
(21.9754 -0.449614 -2.57021e-24)
(21.5763 -0.728094 1.29387e-18)
(21.2237 -0.980207 1.93586e-23)
(20.9041 -1.20981 -2.4806e-18)
(20.6091 -1.41988 2.42515e-18)
(20.3322 -1.61276 0)
(20.069 -1.79022 1.73469e-23)
(19.8162 -1.95374 -4.52022e-18)
(19.5714 -2.10456 1.71488e-23)
(19.3325 -2.24358 -4.31181e-18)
(19.0998 -2.37191 -8.42376e-18)
(18.8712 -2.49019 8.23083e-18)
(18.6459 -2.59905 -3.01885e-23)
(18.4242 -2.69918 3.0582e-23)
(18.2054 -2.79113 0)
(17.9888 -2.87526 7.55895e-18)
(17.7738 -2.95204 -7.40314e-18)
(17.5606 -3.02183 0)
(17.3491 -3.08509 -2.66572e-23)
(17.1392 -3.14215 9.00285e-25)
(16.931 -3.19336 -6.8302e-18)
(16.7245 -3.23904 -8.69983e-25)
(16.5198 -3.27951 6.57583e-18)
(16.3168 -3.31507 -2.5824e-17)
(16.1157 -3.34602 -1.26813e-17)
(15.9165 -3.37263 0)
(15.7189 -3.39508 1.22448e-17)
(15.5234 -3.41374 -2.25651e-23)
(15.3303 -3.42884 -1.18384e-17)
(15.1388 -3.4405 0)
(14.9488 -3.44889 0)
(14.7614 -3.45443 -1.12769e-17)
(14.5763 -3.4573 -1.11005e-17)
(14.3925 -3.4574 1.09287e-17)
(14.2104 -3.45502 -3.57182e-23)
(14.0304 -3.45045 0)
(13.8526 -3.44385 1.04385e-17)
(13.6762 -3.43516 3.3228e-23)
(13.5011 -3.42452 1.01277e-17)
(13.3278 -3.41219 -9.97597e-18)
(13.1562 -3.3983 -1.96522e-17)
(12.986 -3.38286 3.02638e-23)
(12.8168 -3.36589 -1.85584e-23)
(12.6485 -3.34749 -9.3828e-18)
(12.4815 -3.32784 3.44703e-23)
(12.3158 -3.30705 -3.54425e-23)
(12.1512 -3.28513 -8.93948e-18)
(11.9874 -3.26216 0)
(11.8243 -3.23808 0)
(11.6614 -3.21292 4.24062e-18)
(11.4995 -3.18691 4.16125e-18)
(11.3389 -3.16021 -3.03149e-23)
(11.1791 -3.13276 1.59698e-23)
(11.0204 -3.10463 0)
(10.8618 -3.07568 0)
(10.704 -3.04609 1.60091e-23)
(10.5492 -3.01652 0)
(59.0393 50.6514 2.34033e-17)
(58.4528 37.0202 -3.26231e-17)
(54.117 26.5118 -1.74137e-22)
(50.0248 19.5004 2.96618e-22)
(46.2706 14.6171 -2.50882e-22)
(42.2825 10.931 -7.09668e-18)
(38.4178 8.14712 6.28049e-18)
(35.0545 6.07677 0)
(32.2534 4.52846 -2.68105e-18)
(29.9687 3.35173 0)
(28.1465 2.44092 0)
(26.7123 1.71888 -2.41124e-18)
(25.594 1.13187 -2.3607e-18)
(24.7187 0.641565 -5.78859e-19)
(24.027 0.222016 -4.4433e-24)
(23.4616 -0.144385 0)
(22.9924 -0.46957 5.45226e-19)
(22.5902 -0.761596 0)
(22.236 -1.02635 2.08579e-18)
(21.9159 -1.26782 2.03752e-18)
(21.621 -1.48911 -1.98947e-18)
(21.3447 -1.69262 1.51007e-23)
(21.0823 -1.88019 0)
(20.8305 -2.05335 3.52321e-23)
(20.5868 -2.21337 0)
(20.3488 -2.36117 3.04451e-23)
(20.1173 -2.49793 3.44369e-18)
(19.8898 -2.62428 0)
(19.6655 -2.74084 0)
(19.4444 -2.84833 -2.41239e-23)
(19.2262 -2.94732 2.44252e-23)
(19.0102 -3.03824 2.31126e-23)
(18.7961 -3.12154 -7.79131e-25)
(18.5837 -3.19761 -2.29344e-23)
(18.3731 -3.26689 0)
(18.164 -3.32974 0)
(17.9566 -3.38651 5.57055e-18)
(17.7508 -3.43752 0)
(17.5467 -3.4831 5.36712e-18)
(17.3443 -3.52356 2.10872e-17)
(17.1437 -3.5592 3.88528e-23)
(16.945 -3.5903 -3.95343e-23)
(16.7478 -3.61707 -1.00157e-17)
(16.5528 -3.63985 -7.51954e-23)
(16.36 -3.6589 8.38804e-23)
(16.1687 -3.67433 3.57776e-23)
(15.979 -3.68632 -1.28472e-24)
(15.7918 -3.69532 -9.26059e-18)
(15.6068 -3.70149 1.82494e-17)
(15.4231 -3.70474 -3.36802e-23)
(15.241 -3.70535 -8.86497e-18)
(15.061 -3.70366 3.27228e-23)
(14.8831 -3.6998 -8.61984e-18)
(14.7065 -3.69371 -2.85321e-23)
(14.5312 -3.68555 3.26199e-23)
(14.3575 -3.67558 6.62667e-23)
(14.1855 -3.66394 -2.74166e-23)
(14.0149 -3.65064 1.60992e-17)
(13.8451 -3.6357 -3.09248e-23)
(13.6761 -3.61921 4.76228e-24)
(13.5084 -3.60139 1.28086e-24)
(13.3419 -3.58232 -7.61373e-18)
(13.1763 -3.56203 7.50419e-18)
(13.0115 -3.54058 0)
(12.8471 -3.51794 -7.28064e-18)
(12.6829 -3.49412 2.80087e-23)
(12.5196 -3.46936 0)
(12.3574 -3.44383 0)
(12.196 -3.41746 -3.40097e-18)
(12.0354 -3.39032 -2.47397e-23)
(11.8749 -3.36227 2.56522e-23)
(11.7149 -3.33348 3.19519e-18)
(11.5581 -3.30474 2.45622e-23)
(61.5449 52.844 -5.15366e-17)
(61.0212 38.6923 3.42951e-17)
(56.5019 27.7156 3.56163e-22)
(52.1424 20.3507 -9.6639e-18)
(48.1582 15.2329 -8.1014e-18)
(43.9854 11.388 6.90835e-18)
(39.9529 8.48652 0)