/*--------------------------------*- C++ -*----------------------------------*\
| =========                 |                                                 |
| \\      /  F ield         | OpenFOAM: The Open Source CFD Toolbox           |
|  \\    /   O peration     | Version:  2412                                  |
|   \\  /    A nd           | Website:  www.openfoam.com                      |
|    \\/     M anipulation  |                                                 |
\*---------------------------------------------------------------------------*/
FoamFile
{
    version     2.0;
    format      ascii;
    arch        "LSB;label=32;scalar=64";
    class       volScalarField;
    location    "500";
    object      nuTilda;
}
// * * * * * * * * * * * * * * * * * * * * * * * * * * * * * * * * * * * * * //

dimensions      [0 2 -1 0 0 0 0];

internalField   nonuniform List<scalar> 
7418
(
6.28506e-07
8.34018e-07
8.99641e-07
8.99965e-07
8.97914e-07
8.90178e-07
1.59021e-06
1.94688e-06
1.94169e-06
1.82313e-06
1.75299e-06
1.71537e-06
1.69861e-06
1.7007e-06
1.71494e-06
1.7266e-06
1.72978e-06
1.72765e-06
1.72028e-06
1.71195e-06
1.7073e-06
1.70616e-06
1.70768e-06
1.70983e-06
1.711e-06
1.71141e-06
1.7116e-06
1.71234e-06
1.71364e-06
1.71524e-06
1.71689e-06
1.71855e-06
1.7203e-06
1.72218e-06
1.72421e-06
1.72631e-06
1.7285e-06
1.73077e-06
1.73309e-06
1.73544e-06
1.73784e-06
1.7403e-06
1.74278e-06
1.74529e-06
1.74781e-06
1.75035e-06
1.7529e-06
1.75547e-06
1.75799e-06
1.76047e-06
1.76298e-06
1.76546e-06
1.76791e-06
1.77035e-06
1.77272e-06
1.77509e-06
1.77744e-06
1.77975e-06
1.782e-06
1.78418e-06
1.78634e-06
1.78849e-06
1.79056e-06
1.79257e-06
1.79456e-06
1.79652e-06
1.79845e-06
1.80032e-06
1.80212e-06
1.80393e-06
1.80572e-06
1.80745e-06
1.80918e-06
1.81085e-06
1.81244e-06
1.81406e-06
1.81564e-06
1.81718e-06
1.81871e-06
1.8202e-06
1.82172e-06
5.09296e-07
5.97422e-07
1.97053e-06
2.5694e-06
2.77376e-06
2.79083e-06
2.76524e-06
2.8003e-06
5.01886e-06
6.02214e-06
5.99524e-06
5.67371e-06
5.47543e-06
5.3688e-06
5.32294e-06
5.33061e-06
5.37103e-06
5.40338e-06
5.41165e-06
5.40449e-06
5.38275e-06
5.35883e-06
5.34574e-06
5.34291e-06
5.34757e-06
5.35391e-06
5.35739e-06
5.35877e-06
5.35964e-06
5.36212e-06
5.36629e-06
5.37129e-06
5.37644e-06
5.38165e-06
5.38714e-06
5.39308e-06
5.39943e-06
5.40602e-06
5.41286e-06
5.41993e-06
5.42718e-06
5.43455e-06
5.44209e-06
5.44973e-06
5.45749e-06
5.46534e-06
5.4732e-06
5.48112e-06
5.48909e-06
5.49706e-06
5.50497e-06
5.5128e-06
5.52061e-06
5.52837e-06
5.53603e-06
5.54364e-06
5.55109e-06
5.55848e-06
5.56578e-06
5.57298e-06
5.58005e-06
5.58689e-06
5.59363e-06
5.60029e-06
5.60681e-06
5.61314e-06
5.61938e-06
5.62549e-06
5.63147e-06
5.63733e-06
5.64303e-06
5.64865e-06
5.6542e-06
5.65965e-06
5.66503e-06
5.67027e-06
5.67529e-06
5.68031e-06
5.68524e-06
5.69007e-06
5.69485e-06
5.69957e-06
5.70431e-06
1.58603e-06
1.85772e-06
3.51921e-06
4.44036e-06
4.795e-06
4.8651e-06
4.77773e-06
5.17694e-06
8.98957e-06
1.04552e-05
1.03882e-05
9.94551e-06
9.65266e-06
9.49558e-06
9.43143e-06
9.44713e-06
9.50768e-06
9.55389e-06
9.56377e-06
9.54991e-06
9.51544e-06
9.47932e-06
9.46019e-06
9.45702e-06
9.465e-06
9.47517e-06
9.48091e-06
9.48359e-06
9.48584e-06
9.49072e-06
9.49822e-06
9.50702e-06
9.51613e-06
9.5254e-06
9.53515e-06
9.54573e-06
9.55697e-06
9.56861e-06
9.58067e-06
9.59313e-06
9.60588e-06
9.6189e-06
9.63223e-06
9.6457e-06
9.65939e-06
9.67324e-06
9.68712e-06
9.70109e-06
9.7151e-06
9.72912e-06
9.7431e-06
9.75695e-06
9.77072e-06
9.78439e-06
9.79791e-06
9.81129e-06
9.8245e-06
9.83752e-06
9.85035e-06
9.86302e-06
9.87548e-06
9.88763e-06
9.89952e-06
9.91123e-06
9.92272e-06
9.93394e-06
9.94494e-06
9.95568e-06
9.96625e-06
9.97664e-06
9.98672e-06
9.99659e-06
1.00064e-05
1.00161e-05
1.00255e-05
1.00348e-05
1.00437e-05
1.00525e-05
1.00612e-05
1.00697e-05
1.00781e-05
1.00865e-05
1.00949e-05
2.78971e-06
3.26102e-06
5.36073e-06
6.43521e-06
6.94641e-06
7.11527e-06
6.93598e-06
8.39281e-06
1.35576e-05
1.52263e-05
1.51152e-05
1.46677e-05
1.43332e-05
1.41557e-05
1.40897e-05
1.41153e-05
1.41849e-05
1.42337e-05
1.424e-05
1.42177e-05
1.41741e-05
1.41317e-05
1.41106e-05
1.41091e-05
1.41205e-05
1.41336e-05
1.41415e-05
1.41459e-05
1.41505e-05
1.41586e-05
1.41701e-05
1.41831e-05
1.41966e-05
1.42105e-05
1.42252e-05
1.4241e-05
1.42577e-05
1.42749e-05
1.42928e-05
1.43113e-05
1.43302e-05
1.43495e-05
1.43693e-05
1.43893e-05
1.44096e-05
1.44301e-05
1.44507e-05
1.44714e-05
1.44922e-05
1.45129e-05
1.45336e-05
1.45542e-05
1.45746e-05
1.45949e-05
1.4615e-05
1.46348e-05
1.46544e-05
1.46738e-05
1.46928e-05
1.47116e-05
1.473e-05
1.47481e-05
1.47658e-05
1.47832e-05
1.48002e-05
1.48169e-05
1.48332e-05
1.48492e-05
1.48649e-05
1.48803e-05
1.48953e-05
1.491e-05
1.49246e-05
1.49389e-05
1.4953e-05
1.49668e-05
1.498e-05
1.49932e-05
1.5006e-05
1.50187e-05
1.50312e-05
1.50437e-05
1.50562e-05
4.13437e-06
4.82969e-06
7.65314e-06
8.56007e-06
9.22438e-06
9.53985e-06
9.28139e-06
1.25867e-05
1.87244e-05
2.033e-05
2.01953e-05
1.98841e-05
1.95764e-05
1.9418e-05
1.937e-05
1.9405e-05
1.94679e-05
1.95047e-05
1.95007e-05
1.9469e-05
1.94218e-05
1.93814e-05
1.93638e-05
1.93667e-05
1.93812e-05
1.93962e-05
1.94058e-05
1.94128e-05
1.94209e-05
1.94332e-05
1.94493e-05
1.94671e-05
1.94855e-05
1.95046e-05
1.95248e-05
1.95465e-05
1.95693e-05
1.95928e-05
1.96172e-05
1.96423e-05
1.96681e-05
1.96944e-05
1.97213e-05
1.97485e-05
1.97761e-05
1.9804e-05
1.9832e-05
1.98603e-05
1.98885e-05
1.99168e-05
1.99449e-05
1.99729e-05
2.00007e-05
2.00283e-05
2.00557e-05
2.00828e-05
2.01095e-05
2.01359e-05
2.01618e-05
2.01874e-05
2.02126e-05
2.02372e-05
2.02614e-05
2.02851e-05
2.03083e-05
2.0331e-05
2.03534e-05
2.03753e-05
2.03967e-05
2.04177e-05
2.04381e-05
2.04583e-05
2.04782e-05
2.04978e-05
2.0517e-05
2.05359e-05
2.05539e-05
2.05719e-05
2.05895e-05
2.06068e-05
2.06239e-05
2.0641e-05
2.0658e-05
5.6461e-06
6.68029e-06
1.05461e-05
1.08415e-05
1.16438e-05
1.21486e-05
1.22501e-05
1.79465e-05
2.44423e-05
2.57777e-05
2.56681e-05
2.56518e-05
2.5454e-05
2.53615e-05
2.53525e-05
2.53929e-05
2.54289e-05
2.54363e-05
2.54144e-05
2.53734e-05
2.53308e-05
2.53027e-05
2.52955e-05
2.53056e-05
2.53228e-05
2.53381e-05
2.53493e-05
2.53597e-05
2.53729e-05
2.53908e-05
2.54121e-05
2.54351e-05
2.5459e-05
2.5484e-05
2.55105e-05
2.55387e-05
2.55683e-05
2.55988e-05
2.56303e-05
2.56629e-05
2.56962e-05
2.57303e-05
2.5765e-05
2.58003e-05
2.58359e-05
2.5872e-05
2.59083e-05
2.59447e-05
2.59813e-05
2.60178e-05
2.60542e-05
2.60904e-05
2.61265e-05
2.61623e-05
2.61977e-05
2.62327e-05
2.62673e-05
2.63015e-05
2.63352e-05
2.63683e-05
2.64009e-05
2.64329e-05
2.64643e-05
2.64951e-05
2.65253e-05
2.65547e-05
2.65837e-05
2.66121e-05
2.66399e-05
2.66672e-05
2.66938e-05
2.672e-05
2.67459e-05
2.67713e-05
2.67963e-05
2.68209e-05
2.68444e-05
2.68677e-05
2.68906e-05
2.69131e-05
2.69354e-05
2.69576e-05
2.69797e-05
7.37713e-06
9.08698e-06
1.41146e-05
1.3615e-05
1.42487e-05
1.49761e-05
1.63287e-05
2.46747e-05
3.06344e-05
3.16065e-05
3.1594e-05
3.20448e-05
3.2053e-05
3.20787e-05
3.21285e-05
3.21657e-05
3.21512e-05
3.21099e-05
3.20625e-05
3.20145e-05
3.19868e-05
3.19834e-05
3.19944e-05
3.20148e-05
3.20341e-05
3.20481e-05
3.20606e-05
3.20756e-05
3.20957e-05
3.21205e-05
3.2148e-05
3.21768e-05
3.22067e-05
3.22384e-05
3.22721e-05
3.23076e-05
3.23447e-05
3.2383e-05
3.24225e-05
3.24633e-05
3.2505e-05
3.25476e-05
3.25911e-05
3.26351e-05
3.26798e-05
3.27248e-05
3.27702e-05
3.28159e-05
3.28616e-05
3.29073e-05
3.29529e-05
3.29983e-05
3.30434e-05
3.30883e-05
3.31326e-05
3.31766e-05
3.322e-05
3.32629e-05
3.33051e-05
3.33467e-05
3.33877e-05
3.34278e-05
3.34672e-05
3.3506e-05
3.35439e-05
3.3581e-05
3.36174e-05
3.36531e-05
3.36881e-05
3.37224e-05
3.37559e-05
3.37889e-05
3.38215e-05
3.38535e-05
3.3885e-05
3.3916e-05
3.39456e-05
3.3975e-05
3.40038e-05
3.40322e-05
3.40603e-05
3.40883e-05
3.41162e-05
9.46326e-06
1.21336e-05
1.84497e-05
1.732e-05
1.71307e-05
1.81203e-05
2.17194e-05
3.2657e-05
3.72265e-05
3.78895e-05
3.80568e-05
3.91653e-05
3.94867e-05
3.96843e-05
3.98085e-05
3.98288e-05
3.97379e-05
3.96284e-05
3.95488e-05
3.94986e-05
3.94987e-05
3.95335e-05
3.95714e-05
3.96052e-05
3.96256e-05
3.96366e-05
3.96504e-05
3.96716e-05
3.97007e-05
3.97342e-05
3.97689e-05
3.98041e-05
3.9841e-05
3.98803e-05
3.99221e-05
3.9966e-05
4.00116e-05
4.00585e-05
4.0107e-05
4.01569e-05
4.02081e-05
4.02602e-05
4.03134e-05
4.03673e-05
4.04219e-05
4.04771e-05
4.05327e-05
4.05886e-05
4.06445e-05
4.07006e-05
4.07565e-05
4.08121e-05
4.08675e-05
4.09224e-05
4.09769e-05
4.10309e-05
4.10842e-05
4.11369e-05
4.11889e-05
4.124e-05
4.12903e-05
4.13397e-05
4.13882e-05
4.14359e-05
4.14826e-05
4.15283e-05
4.15732e-05
4.16173e-05
4.16604e-05
4.17027e-05
4.1744e-05
4.17848e-05
4.1825e-05
4.18644e-05
4.19032e-05
4.19415e-05
4.19782e-05
4.20144e-05
4.205e-05
4.20851e-05
4.21199e-05
4.21545e-05
4.21889e-05
1.21475e-05
1.59298e-05
2.36552e-05
2.19836e-05
2.05229e-05
2.19395e-05
2.87045e-05
4.13203e-05
4.41735e-05
4.47489e-05
4.51807e-05
4.71679e-05
4.79121e-05
4.83266e-05
4.85285e-05
4.85117e-05
4.8319e-05
4.81248e-05
4.80102e-05
4.79664e-05
4.80094e-05
4.80966e-05
4.81694e-05
4.82191e-05
4.82395e-05
4.82461e-05
4.82618e-05
4.82911e-05
4.83319e-05
4.83759e-05
4.84189e-05
4.84615e-05
4.85063e-05
4.85545e-05
4.86056e-05
4.8659e-05
4.87141e-05
4.87708e-05
4.88294e-05
4.88896e-05
4.89514e-05
4.90143e-05
4.90784e-05
4.91435e-05
4.92093e-05
4.92759e-05
4.9343e-05
4.94104e-05
4.94779e-05
4.95456e-05
4.96131e-05
4.96803e-05
4.97472e-05
4.98137e-05
4.98796e-05
4.9945e-05
5.00095e-05
5.00733e-05
5.01363e-05
5.01982e-05
5.02592e-05
5.03192e-05
5.03781e-05
5.04359e-05
5.04926e-05
5.05481e-05
5.06027e-05
5.06562e-05
5.07087e-05
5.07601e-05
5.08104e-05
5.086e-05
5.09088e-05
5.09567e-05
5.10039e-05
5.10507e-05
5.10954e-05
5.11395e-05
5.11828e-05
5.12255e-05
5.12679e-05
5.131e-05
5.13518e-05
1.55324e-05
2.05999e-05
2.97914e-05
2.76456e-05
2.51868e-05
2.73136e-05
3.76321e-05
5.02916e-05
5.14916e-05
5.23745e-05
5.31788e-05
5.62983e-05
5.75394e-05
5.8177e-05
5.84305e-05
5.83466e-05
5.80346e-05
5.77519e-05
5.76095e-05
5.75874e-05
5.76898e-05
5.78402e-05
5.79522e-05
5.80177e-05
5.80366e-05
5.80384e-05
5.80574e-05
5.80976e-05
5.81523e-05
5.82084e-05
5.82608e-05
5.83117e-05
5.83654e-05
5.84236e-05
5.84853e-05
5.85492e-05
5.86149e-05
5.86825e-05
5.87522e-05
5.88239e-05
5.88972e-05
5.8972e-05
5.90482e-05
5.91255e-05
5.92037e-05
5.92829e-05
5.93625e-05
5.94426e-05
5.95229e-05
5.96033e-05
5.96836e-05
5.97636e-05
5.98433e-05
5.99225e-05
6.0001e-05
6.00789e-05
6.01558e-05
6.02319e-05
6.0307e-05
6.0381e-05
6.04538e-05
6.05254e-05
6.05958e-05
6.06649e-05
6.07327e-05
6.07991e-05
6.08643e-05
6.09284e-05
6.09911e-05
6.10526e-05
6.11128e-05
6.11721e-05
6.12306e-05
6.12877e-05
6.13441e-05
6.14003e-05
6.14537e-05
6.15064e-05
6.15582e-05
6.16092e-05
6.16599e-05
6.17102e-05
6.176e-05
1.97712e-05
2.62578e-05
3.69223e-05
3.43482e-05
3.11941e-05
3.44407e-05
4.89144e-05
5.94702e-05
5.9246e-05
6.10545e-05
6.24555e-05
6.69036e-05
6.85861e-05
6.93651e-05
6.9599e-05
6.94141e-05
6.89875e-05
6.86387e-05
6.84929e-05
6.8515e-05
6.86891e-05
6.89027e-05
6.90488e-05
6.91254e-05
6.91409e-05
6.91397e-05
6.9165e-05
6.92185e-05
6.92884e-05
6.93571e-05
6.94192e-05
6.9479e-05
6.95423e-05
6.96112e-05
6.96841e-05
6.9759e-05
6.98358e-05
6.99147e-05
6.9996e-05
7.00796e-05
7.01651e-05
7.02522e-05
7.03409e-05
7.04308e-05
7.05219e-05
7.0614e-05
7.07067e-05
7.08e-05
7.08935e-05
7.09871e-05
7.10807e-05
7.1174e-05
7.12669e-05
7.13592e-05
7.14509e-05
7.15417e-05
7.16316e-05
7.17205e-05
7.18082e-05
7.18946e-05
7.19797e-05
7.20635e-05
7.21458e-05
7.22266e-05
7.23059e-05
7.23836e-05
7.24599e-05
7.25348e-05
7.26082e-05
7.26801e-05
7.27505e-05
7.28199e-05
7.2888e-05
7.29545e-05
7.30202e-05
7.3086e-05
7.31485e-05
7.32099e-05
7.32702e-05
7.33296e-05
7.33885e-05
7.3447e-05
7.35047e-05
2.50023e-05
3.30298e-05
4.51192e-05
4.21539e-05
3.85961e-05
4.35778e-05
6.28431e-05
6.88747e-05
6.77971e-05
7.1213e-05
7.37105e-05
7.932e-05
8.11804e-05
8.19329e-05
8.20548e-05
8.17476e-05
8.12381e-05
8.08712e-05
8.07602e-05
8.08497e-05
8.10972e-05
8.13589e-05
8.15238e-05
8.16028e-05
8.1614e-05
8.16142e-05
8.165e-05
8.17187e-05
8.18037e-05
8.18841e-05
8.19555e-05
8.20244e-05
8.2098e-05
8.2178e-05
8.2262e-05
8.23481e-05
8.24361e-05
8.25264e-05
8.26195e-05
8.27151e-05
8.28127e-05
8.29122e-05
8.30134e-05
8.31161e-05
8.32201e-05
8.33252e-05
8.3431e-05
8.35375e-05
8.36443e-05
8.37513e-05
8.38582e-05
8.39649e-05
8.40711e-05
8.41768e-05
8.42816e-05
8.43856e-05
8.44885e-05
8.45902e-05
8.46907e-05
8.47897e-05
8.48872e-05
8.49832e-05
8.50776e-05
8.51702e-05
8.5261e-05
8.535e-05
8.54375e-05
8.55233e-05
8.56073e-05
8.56895e-05
8.577e-05
8.58492e-05
8.59269e-05
8.60025e-05
8.60771e-05
8.61524e-05
8.62235e-05
8.62933e-05
8.63617e-05
8.6429e-05
8.64956e-05
8.65616e-05
8.66264e-05
3.13875e-05
4.10433e-05
5.4456e-05
5.11366e-05
4.75766e-05
5.51963e-05
7.61606e-05
7.8668e-05
7.76998e-05
8.34104e-05
8.75717e-05
9.36835e-05
9.53599e-05
9.59096e-05
9.58477e-05
9.54204e-05
9.48768e-05
9.45486e-05
9.45109e-05
9.46828e-05
9.49931e-05
9.52793e-05
9.54445e-05
9.55175e-05
9.55253e-05
9.55326e-05
9.55833e-05
9.56685e-05
9.57674e-05
9.58582e-05
9.59388e-05
9.60175e-05
9.6102e-05
9.61935e-05
9.62891e-05
9.63866e-05
9.64861e-05
9.65882e-05
9.66934e-05
9.68014e-05
9.69116e-05
9.70238e-05
9.7138e-05
9.72538e-05
9.73711e-05
9.74896e-05
9.7609e-05
9.77291e-05
9.78496e-05
9.79703e-05
9.8091e-05
9.82114e-05
9.83314e-05
9.84508e-05
9.85692e-05
9.86867e-05
9.8803e-05
9.8918e-05
9.90315e-05
9.91435e-05
9.92538e-05
9.93623e-05
9.9469e-05
9.95736e-05
9.96762e-05
9.97768e-05
9.98756e-05
9.99723e-05
0.000100067
0.000100159
0.00010025
0.000100339
0.000100426
0.00010051
0.000100593
0.000100678
0.000100757
0.000100835
0.000100911
0.000100985
0.000101058
0.000101131
0.000101202
3.91364e-05
5.04249e-05
6.50091e-05
6.1382e-05
5.8374e-05
6.99767e-05
8.8903e-05
8.91896e-05
8.96433e-05
9.81795e-05
0.000104107
0.000109956
0.00011117
0.000111392
0.000111112
0.000110589
0.000110065
0.000109827
0.000109891
0.000110149
0.000110504
0.000110789
0.000110938
0.000111
0.000111007
0.000111028
0.000111097
0.000111199
0.000111311
0.000111411
0.000111501
0.000111591
0.000111687
0.000111791
0.000111899
0.000112008
0.00011212
0.000112235
0.000112353
0.000112474
0.000112598
0.000112724
0.000112852
0.000112981
0.000113113
0.000113246
0.000113379
0.000113514
0.000113649
0.000113784
0.000113919
0.000114054
0.000114189
0.000114323
0.000114456
0.000114587
0.000114718
0.000114847
0.000114974
0.000115099
0.000115223
0.000115345
0.000115464
0.000115581
0.000115696
0.000115808
0.000115918
0.000116026
0.000116132
0.000116235
0.000116335
0.000116433
0.000116529
0.000116621
0.000116712
0.000116805
0.000116892
0.000116977
0.000117059
0.00011714
0.000117218
0.000117296
0.000117371
4.84998e-05
6.13256e-05
7.68516e-05
7.29988e-05
7.13082e-05
8.86878e-05
0.000101267
0.000100919
0.000104406
0.000115775
0.000123096
0.0001281
0.000128721
0.00012855
0.000128054
0.000127473
0.000127021
0.000126913
0.000127094
0.000127429
0.000127806
0.000128069
0.00012819
0.000128237
0.000128248
0.000128288
0.000128379
0.000128498
0.000128621
0.000128731
0.000128831
0.000128932
0.000129042
0.000129159
0.00012928
0.000129403
0.000129528
0.000129656
0.000129789
0.000129924
0.000130062
0.000130202
0.000130345
0.00013049
0.000130637
0.000130785
0.000130934
0.000131084
0.000131234
0.000131385
0.000131536
0.000131687
0.000131837
0.000131986
0.000132134
0.000132281
0.000132426
0.000132569
0.000132711
0.000132851
0.000132988
0.000133123
0.000133256
0.000133385
0.000133512
0.000133637
0.000133758
0.000133877
0.000133993
0.000134106
0.000134216
0.000134323
0.000134426
0.000134526
0.000134623
0.000134723
0.000134816
0.000134906
0.000134993
0.000135078
0.00013516
0.00013524
0.000135317
5.97866e-05
7.39402e-05
9.00416e-05
8.61333e-05
8.70028e-05
0.000107043
0.000113694
0.000114365
0.000122469
0.000136165
0.00014432
0.000148194
0.000148187
0.000147608
0.000146923
0.00014633
0.000145993
0.000146039
0.000146339
0.000146736
0.000147113
0.000147335
0.000147418
0.000147453
0.000147473
0.000147536
0.000147651
0.000147787
0.00014792
0.000148038
0.000148149
0.000148265
0.000148389
0.00014852
0.000148655
0.000148792
0.000148931
0.000149075
0.000149222
0.000149373
0.000149526
0.000149682
0.000149841
0.000150002
0.000150165
0.000150329
0.000150495
0.000150661
0.000150828
0.000150996
0.000151163
0.00015133
0.000151496
0.000151661
0.000151825
0.000151988
0.000152148
0.000152307
0.000152463
0.000152617
0.000152768
0.000152917
0.000153062
0.000153205
0.000153344
0.00015348
0.000153612
0.000153741
0.000153867
0.000153988
0.000154106
0.000154221
0.00015433
0.000154435
0.000154536
0.00015464
0.000154737
0.00015483
0.000154919
0.000155004
0.000155086
0.000155165
0.000155239
7.3344e-05
8.86004e-05
0.000104617
0.000100995
0.000106039
0.000124355
0.000126699
0.000129956
0.000143764
0.000159235
0.000167719
0.000170404
0.000169792
0.000168824
0.000167991
0.000167432
0.000167242
0.000167451
0.000167861
0.0001683
0.000168654
0.000168821
0.000168865
0.000168889
0.000168923
0.000169014
0.000169152
0.000169304
0.000169447
0.000169574
0.000169698
0.000169828
0.000169968
0.000170114
0.000170264
0.000170415
0.000170571
0.00017073
0.000170893
0.00017106
0.00017123
0.000171403
0.000171579
0.000171757
0.000171937
0.000172118
0.000172301
0.000172485
0.000172669
0.000172853
0.000173037
0.000173221
0.000173403
0.000173585
0.000173765
0.000173943
0.000174119
0.000174292
0.000174463
0.000174631
0.000174796
0.000174957
0.000175115
0.000175269
0.000175419
0.000175565
0.000175706
0.000175844
0.000175977
0.000176105
0.000176229
0.000176348
0.000176461
0.000176567
0.000176668
0.000176772
0.000176869
0.00017696
0.000177046
0.000177126
0.000177202
0.000177273
0.000177338
8.96596e-05
0.000105662
0.000120584
0.000117809
0.000129604
0.000140792
0.000140816
0.000148159
0.000167985
0.000184921
0.00019339
0.000194948
0.000193794
0.00019248
0.000191546
0.000191058
0.000191033
0.000191402
0.000191904
0.000192361
0.000192673
0.000192778
0.000192781
0.000192799
0.000192852
0.000192973
0.000193135
0.000193302
0.000193453
0.00019359
0.000193726
0.000193872
0.000194029
0.000194191
0.000194356
0.000194524
0.000194695
0.000194871
0.000195052
0.000195236
0.000195423
0.000195613
0.000195806
0.000196001
0.000196199
0.000196398
0.000196598
0.000196799
0.000197
0.000197201
0.000197402
0.000197603
0.000197801
0.000197999
0.000198194
0.000198387
0.000198577
0.000198765
0.000198949
0.000199129
0.000199306
0.000199479
0.000199647
0.00019981
0.000199969
0.000200122
0.000200271
0.000200414
0.000200551
0.000200682
0.000200808
0.000200927
0.000201038
0.00020114
0.000201236
0.000201331
0.000201422
0.000201505
0.000201581
0.000201649
0.00020171
0.000201765
0.000201811
0.00010689
0.000125376
0.000137909
0.000136917
0.000152954
0.00015669
0.000156622
0.00016948
0.000194877
0.000213252
0.000221539
0.000222096
0.000220466
0.000218869
0.000217877
0.000217487
0.000217629
0.000218143
0.000218713
0.000219167
0.000219423
0.000219461
0.000219425
0.000219442
0.000219518
0.000219669
0.000219855
0.000220034
0.000220194
0.00022034
0.000220491
0.000220654
0.000220827
0.000221006
0.000221187
0.000221371
0.000221559
0.000221753
0.00022195
0.000222152
0.000222356
0.000222564
0.000222774
0.000222987
0.000223202
0.000223418
0.000223635
0.000223853
0.000224071
0.000224288
0.000224505
0.000224721
0.000224935
0.000225147
0.000225356
0.000225562
0.000225765
0.000225964
0.000226159
0.00022635
0.000226536
0.000226717
0.000226892
0.000227061
0.000227224
0.000227381
0.000227532
0.000227675
0.000227811
0.00022794
0.000228061
0.000228173
0.000228275
0.000228366
0.000228447
0.000228524
0.0002286
0.000228665
0.00022872
0.000228765
0.0002288
0.000228825
0.000228839
0.00012406
0.000146443
0.000156594
0.000159008
0.000175479
0.000172731
0.00017469
0.000194249
0.000224439
0.000244335
0.000252426
0.000252152
0.000250065
0.000248286
0.000247269
0.000246987
0.000247287
0.000247924
0.000248537
0.000248967
0.000249159
0.000249129
0.00024906
0.00024908
0.00024918
0.000249362
0.000249569
0.00024976
0.000249927
0.000250084
0.000250249
0.000250429
0.00025062
0.000250815
0.000251012
0.000251213
0.000251418
0.000251629
0.000251844
0.000252062
0.000252284
0.000252508
0.000252735
0.000252965
0.000253196
0.000253428
0.000253661
0.000253895
0.000254128
0.00025436
0.000254591
0.00025482
0.000255046
0.00025527
0.00025549
0.000255707
0.000255919
0.000256126
0.000256328
0.000256525
0.000256715
0.000256899
0.000257076
0.000257245
0.000257407
0.000257561
0.000257707
0.000257843
0.000257971
0.000258088
0.000258196
0.000258292
0.000258375
0.000258443
0.000258498
0.000258542
0.000258591
0.000258623
0.000258643
0.00025865
0.000258642
0.000258621
0.000258584
0.000141525
0.000167018
0.000176696
0.000185279
0.000196727
0.000189614
0.000195638
0.00022265
0.000257032
0.000278336
0.000286302
0.000285425
0.000282892
0.000281014
0.000279991
0.000279817
0.000280254
0.000280987
0.00028162
0.000282012
0.000282134
0.00028204
0.000281943
0.000281968
0.000282094
0.000282306
0.000282532
0.000282732
0.000282906
0.000283073
0.000283253
0.000283451
0.000283659
0.00028387
0.000284083
0.000284299
0.000284522
0.000284749
0.00028498
0.000285215
0.000285452
0.000285692
0.000285935
0.00028618
0.000286425
0.000286672
0.000286918
0.000287165
0.00028741
0.000287653
0.000287895
0.000288134
0.000288369
0.000288601
0.000288827
0.000289049
0.000289265
0.000289475
0.000289678
0.000289874
0.000290063
0.000290243
0.000290414
0.000290575
0.000290727
0.000290869
0.000291
0.000291119
0.000291226
0.000291321
0.000291403
0.00029147
0.000291519
0.00029155
0.000291563
0.000159863
0.000187276
0.000198382
0.000217495
0.000217027
0.000208101
0.000219959
0.000254695
0.000292936
0.000315476
0.000323416
0.000322167
0.000319242
0.000317309
0.000316291
0.000316214
0.000316764
0.000317564
0.000318197
0.000318541
0.000318593
0.00031844
0.000318323
0.000318353
0.000318505
0.000318743
0.000318985
0.000319193
0.000319374
0.000319551
0.000319746
0.00031996
0.000320185
0.000320411
0.000320638
0.00032087
0.000321108
0.00032135
0.000321596
0.000321845
0.000322097
0.00032235
0.000322606
0.000322863
0.00032312
0.000323377
0.000323634
0.000323889
0.000324142
0.000324393
0.00032464
0.000324883
0.000325121
0.000325354
0.000325581
0.000325801
0.000326013
0.000326218
0.000326414
0.0003266
0.000326777
0.000326943
0.000327098
0.00032724
0.00032737
0.000327487
0.00032759
0.000327678
0.00032775
0.000327806
0.000327845
0.000327865
0.000327864
0.000327838
0.000327788
0.000179781
0.000207696
0.000221885
0.000248572
0.000236821
0.000228868
0.000248037
0.000290624
0.000332346
0.000356005
0.000364048
0.000362607
0.000359402
0.000357392
0.000356389
0.000356389
0.000357024
0.000357868
0.000358484
0.000358775
0.00035876
0.000358555
0.000358421
0.000358458
0.000358633
0.000358894
0.00035915
0.000359365
0.000359551
0.000359738
0.000359947
0.000360177
0.000360416
0.000360656
0.000360897
0.000361142
0.000361393
0.000361648
0.000361906
0.000362167
0.000362429
0.000362693
0.000362958
0.000363223
0.000363487
0.00036375
0.000364011
0.000364269
0.000364524
0.000364775
0.000365021
0.000365261
0.000365494
0.00036572
0.000365937
0.000366146
0.000366344
0.000366533
0.00036671
0.000366875
0.000367027
0.000367165
0.000367289
0.000367397
0.000367489
0.000367565
0.000367622
0.00036766
0.000367678
0.000367675
0.00036765
0.0003676
0.000367523
0.000367416
0.000367279
0.000202084
0.000228759
0.0002477
0.000277235
0.00025694
0.000252543
0.000280341
0.000330644
0.000375411
0.000400135
0.000408385
0.00040689
0.000403558
0.000401444
0.000400462
0.000400518
0.000401212
0.000402078
0.000402667
0.000402905
0.000402827
0.000402577
0.00040243
0.000402474
0.000402669
0.00040295
0.000403216
0.000403436
0.000403627
0.000403822
0.000404044
0.000404287
0.000404539
0.00040479
0.000405042
0.000405297
0.000405558
0.000405823
0.00040609
0.000406358
0.000406626
0.000406895
0.000407164
0.000407431
0.000407696
0.000407958
0.000408216
0.00040847
0.000408718
0.00040896
0.000409195
0.000409422
0.000409639
0.000409846
0.000410042
0.000410227
0.000410398
0.000410556
0.000410699
0.000410826
0.000410937
0.000411031
0.000411105
0.000411159
0.000411193
0.000411205
0.000411194
0.000411158
0.000411097
0.000411009
0.000410892
0.000410744
0.000410561
0.000410342
0.000410085
0.000227663
0.000250834
0.000276824
0.000303897
0.000278189
0.000279735
0.000317403
0.000374872
0.000422247
0.000448013
0.000456546
0.000455127
0.000451783
0.000449596
0.000448637
0.000448731
0.000449461
0.000450332
0.000450885
0.000451071
0.000450939
0.000450651
0.000450494
0.000450545
0.000450756
0.000451052
0.000451326
0.000451549
0.000451742
0.000451945
0.000452176
0.00045243
0.000452691
0.000452951
0.000453209
0.000453472
0.000453739
0.000454008
0.000454278
0.000454548
0.000454816
0.000455084
0.000455349
0.00045561
0.000455867
0.000456119
0.000456365
0.000456604
0.000456835
0.000457056
0.000457268
0.000457468
0.000457655
0.000457829
0.000457989
0.000458132
0.000458259
0.000458368
0.000458458
0.000458528
0.000458576
0.000458602
0.000458603
0.000458579
0.000458529
0.000458451
0.000458343
0.000458204
0.000458033
0.000457827
0.000457584
0.000457302
0.000456977
0.000456607
0.000456191
0.000257427
0.000274006
0.000311403
0.000329129
0.000301438
0.000311108
0.000359437
0.000423331
0.000472926
0.000499703
0.000508586
0.000507365
0.000504091
0.000501912
0.000500979
0.000501095
0.000501842
0.000502703
0.000503217
0.000503355
0.000503177
0.000502858
0.000502694
0.000502749
0.000502972
0.000503279
0.000503558
0.000503782
0.000503976
0.000504183
0.000504421
0.000504682
0.000504948
0.000505211
0.000505472
0.000505736
0.000506003
0.000506271
0.000506537
0.000506801
0.000507062
0.000507319
0.000507571
0.000507817
0.000508055
0.000508286
0.000508507
0.000508718
0.000508917
0.000509104
0.000509276
0.000509433
0.000509573
0.000509695
0.000509798
0.00050988
0.00050994
0.000509978
0.000509991
0.000509978
0.000509938
0.000509868
0.000509768
0.000509636
0.00050947
0.000509269
0.00050903
0.000508751
0.000508431
0.000508068
0.000507659
0.0005072
0.000506688
0.00050612
0.000505498
0.000292215
0.000297844
0.000345547
0.000353605
0.000327496
0.000347145
0.000406373
0.00047598
0.000527451
0.00055519
0.000564483
0.000563585
0.000560481
0.000558372
0.000557474
0.000557602
0.00055835
0.000559189
0.000559662
0.000559757
0.00055954
0.000559199
0.000559032
0.000559088
0.000559319
0.000559633
0.000559912
0.000560134
0.000560327
0.000560534
0.000560775
0.000561037
0.000561303
0.000561564
0.000561821
0.000562079
0.000562339
0.000562597
0.000562851
0.0005631
0.000563343
0.000563578
0.000563806
0.000564023
0.00056423
0.000564425
0.000564606
0.000564773
0.000564923
0.000565056
0.00056517
0.000565263
0.000565335
0.000565382
0.000565405
0.000565401
0.000565368
0.000565307
0.000565214
0.000565088
0.000564927
0.000564729
0.000564492
0.000564215
0.000563895
0.000563531
0.000563119
0.000562658
0.000562145
0.000561578
0.000560953
0.000560265
0.000559513
0.000558694
0.000557808
0.00033283
0.000321665
0.000381398
0.000378281
0.000357003
0.00038817
0.000458183
0.000532696
0.000585747
0.000614379
0.000624134
0.000623675
0.000620843
0.000618859
0.000618014
0.000618149
0.000618884
0.000619691
0.00062012
0.000620178
0.000619932
0.000619577
0.000619409
0.000619465
0.000619699
0.000620014
0.000620291
0.000620508
0.000620696
0.000620899
0.000621136
0.000621394
0.000621654
0.000621904
0.00062215
0.000622394
0.000622637
0.000622875
0.000623106
0.000623328
0.00062354
0.00062374
0.000623929
0.000624103
0.000624261
0.000624402
0.000624525
0.000624628
0.000624708
0.000624766
0.000624798
0.000624803
0.000624779
0.000624725
0.000624639
0.000624518
0.000624362
0.000624167
0.000623934
0.000623658
0.000623339
0.000622973
0.000622558
0.000622093
0.000621575
0.000621001
0.000620367
0.000619672
0.000618912
0.000618085
0.000617187
0.000616212
0.000615158
0.000614022
0.000612806
0.000380287
0.000358755
0.000418098
0.000404226
0.000390404
0.000434291
0.000514717
0.000593262
0.000647649
0.000677089
0.000687354
0.000687403
0.000684945
0.000683147
0.000682381
0.000682519
0.00068323
0.000683997
0.000684382
0.000684407
0.000684141
0.00068378
0.000683614
0.000683668
0.0006839
0.000684211
0.00068448
0.000684689
0.000684867
0.00068506
0.000685287
0.000685533
0.000685777
0.000686009
0.000686233
0.000686452
0.000686667
0.000686873
0.000687067
0.000687247
0.000687412
0.000687562
0.000687693
0.000687805
0.000687895
0.000687961
0.000688003
0.000688018
0.000688004
0.000687959
0.000687882
0.000687769
0.00068762
0.000687431
0.000687202
0.000686929
0.000686611
0.000686246
0.000685831
0.000685363
0.00068484
0.00068426
0.000683619
0.000682915
0.000682145
0.000681305
0.000680393
0.000679404
0.000678336
0.000677185
0.000675946
0.000674613
0.000673186
0.000671659
0.000670034
0.000435386
0.000405319
0.0004594
0.000432509
0.000428221
0.000485757
0.000575651
0.000657384
0.000712874
0.00074305
0.000753922
0.000754416
0.000752426
0.000750878
0.00075022
0.000750364
0.000751041
0.000751758
0.000752098
0.000752096
0.000751821
0.000751462
0.000751297
0.000751346
0.000751571
0.000751872
0.000752128
0.000752322
0.000752485
0.000752663
0.000752871
0.000753094
0.000753312
0.000753514
0.000753704
0.000753886
0.000754058
0.000754216
0.000754356
0.000754477
0.000754578
0.000754656
0.000754709
0.000754736
0.000754733
0.0007547
0.000754634
0.000754533
0.000754395
0.000754216
0.000753996
0.000753731
0.00075342
0.000753059
0.000752647
0.00075218
0.000751657
0.000751074
0.000750429
0.00074972
0.000748942
0.000748092
0.000747168
0.000746167
0.000745084
0.000743915
0.000742657
0.000741306
0.000739857
0.000738307
0.00073665
0.00073488
0.000732995
0.00073099
0.000728865
0.000498726
0.000462905
0.000503733
0.00046395
0.000470756
0.000542383
0.000640508
0.000724637
0.000780965
0.00081178
0.000823405
0.000824219
0.000822778
0.000821542
0.000821021
0.000821175
0.000821811
0.000822472
0.000822767
0.000822738
0.000822464
0.000822117
0.000821947
0.000821988
0.0008222
0.000822482
0.000822719
0.000822892
0.000823032
0.000823184
0.000823363
0.000823553
0.000823732
0.00082389
0.000824031
0.000824159
0.00082427
0.000824362
0.000824429
0.00082447
0.000824483
0.000824465