/*--------------------------------*- C++ -*----------------------------------*\
| =========                 |                                                 |
| \\      /  F ield         | OpenFOAM: The Open Source CFD Toolbox           |
|  \\    /   O peration     | Version:  2412                                  |
|   \\  /    A nd           | Website:  www.openfoam.com                      |
|    \\/     M anipulation  |                                                 |
\*---------------------------------------------------------------------------*/
FoamFile
{
    version     2.0;
    format      ascii;
    arch        "LSB;label=32;scalar=64";
    class       volScalarField;
    location    "500";
    object      nuTilda;
}
// * * * * * * * * * * * * * * * * * * * * * * * * * * * * * * * * * * * * * //

dimensions      [0 2 -1 0 0 0 0];

internalField   nonuniform List<scalar> 
8659
(
9.01363e-07
6.94822e-07
4.28717e-07
5.38595e-07
1.10344e-06
1.75726e-06
2.49219e-06
3.15749e-06
3.57693e-06
3.73978e-06
3.65706e-06
3.42572e-06
3.15509e-06
2.8908e-06
2.66192e-06
2.48207e-06
2.34372e-06
2.2401e-06
2.16152e-06
2.09816e-06
2.0448e-06
1.99859e-06
1.95758e-06
1.92057e-06
1.88662e-06
1.85519e-06
1.82583e-06
1.79817e-06
1.77199e-06
1.74701e-06
1.72315e-06
1.70025e-06
1.67811e-06
1.6567e-06
1.63586e-06
1.61559e-06
1.59581e-06
1.57644e-06
1.55753e-06
1.53898e-06
1.52078e-06
1.5029e-06
1.48533e-06
1.46809e-06
1.45113e-06
1.43447e-06
1.41808e-06
1.40193e-06
1.38605e-06
1.37042e-06
1.35507e-06
1.34001e-06
1.32522e-06
1.31075e-06
1.29662e-06
1.28279e-06
1.2693e-06
1.25615e-06
1.24333e-06
1.23089e-06
1.21885e-06
1.20723e-06
1.1961e-06
1.18549e-06
1.17547e-06
1.16615e-06
1.15763e-06
1.14998e-06
1.14329e-06
1.13765e-06
1.13314e-06
1.12976e-06
1.12741e-06
1.12601e-06
1.12548e-06
1.12567e-06
1.1265e-06
1.12785e-06
1.1296e-06
1.13168e-06
1.13398e-06
1.13642e-06
1.1389e-06
1.14137e-06
1.1438e-06
1.14615e-06
2.7632e-06
2.125e-06
1.31256e-06
1.69218e-06
3.39044e-06
5.33896e-06
7.50144e-06
9.50532e-06
1.08484e-05
1.14669e-05
1.13699e-05
1.0758e-05
9.95747e-06
9.13766e-06
8.4131e-06
7.83851e-06
7.39552e-06
7.06234e-06
6.80907e-06
6.60521e-06
6.43383e-06
6.28574e-06
6.15469e-06
6.03668e-06
5.92874e-06
5.82904e-06
5.73604e-06
5.64854e-06
5.5659e-06
5.48716e-06
5.41199e-06
5.33987e-06
5.27022e-06
5.20293e-06
5.13754e-06
5.07392e-06
5.01187e-06
4.95119e-06
4.89191e-06
4.83379e-06
4.77677e-06
4.72077e-06
4.66573e-06
4.61164e-06
4.55846e-06
4.50617e-06
4.4547e-06
4.40393e-06
4.3539e-06
4.30462e-06
4.25614e-06
4.20844e-06
4.16156e-06
4.11555e-06
4.07048e-06
4.0263e-06
3.98306e-06
3.94075e-06
3.89943e-06
3.85917e-06
3.82006e-06
3.78215e-06
3.74565e-06
3.71066e-06
3.67742e-06
3.6462e-06
3.61731e-06
3.59107e-06
3.56776e-06
3.54774e-06
3.53131e-06
3.51851e-06
3.50916e-06
3.50299e-06
3.49976e-06
3.49908e-06
3.50062e-06
3.50401e-06
3.5089e-06
3.515e-06
3.52198e-06
3.5295e-06
3.53728e-06
3.54509e-06
3.55284e-06
3.56037e-06
4.72302e-06
3.6233e-06
2.24768e-06
2.9916e-06
5.80472e-06
8.99599e-06
1.24742e-05
1.58314e-05
1.8261e-05
1.9616e-05
1.98215e-05
1.90476e-05
1.777e-05
1.63562e-05
1.50667e-05
1.40291e-05
1.32251e-05
1.26165e-05
1.21519e-05
1.17785e-05
1.14652e-05
1.11952e-05
1.0957e-05
1.07432e-05
1.05482e-05
1.03685e-05
1.02015e-05
1.00445e-05
9.89658e-06
9.75591e-06
9.62179e-06
9.49324e-06
9.36932e-06
9.24968e-06
9.13356e-06
9.02068e-06
8.91065e-06
8.80313e-06
8.69812e-06
8.59517e-06
8.49425e-06
8.39509e-06
8.29761e-06
8.20174e-06
8.10739e-06
8.0145e-06
7.92296e-06
7.83254e-06
7.74327e-06
7.6551e-06
7.56812e-06
7.48229e-06
7.39765e-06
7.31429e-06
7.23227e-06
7.15154e-06
7.07216e-06
6.99411e-06
6.91752e-06
6.8425e-06
6.76918e-06
6.6977e-06
6.62833e-06
6.5613e-06
6.49702e-06
6.43597e-06
6.37875e-06
6.32597e-06
6.2783e-06
6.2365e-06
6.20129e-06
6.17283e-06
6.15095e-06
6.13531e-06
6.12546e-06
6.12082e-06
6.12075e-06
6.12457e-06
6.13165e-06
6.14136e-06
6.15304e-06
6.16603e-06
6.17975e-06
6.19378e-06
6.20782e-06
6.22162e-06
6.72349e-06
5.14188e-06
3.20682e-06
4.44622e-06
8.30113e-06
1.26312e-05
1.72533e-05
2.19047e-05
2.55434e-05
2.79478e-05
2.8938e-05
2.83777e-05
2.6748e-05
2.47226e-05
2.27967e-05
2.12163e-05
1.99827e-05
1.90411e-05
1.83184e-05
1.77381e-05
1.72526e-05
1.68352e-05
1.64684e-05
1.61402e-05
1.58421e-05
1.55683e-05
1.53144e-05
1.50765e-05
1.48528e-05
1.46405e-05
1.44384e-05
1.42451e-05
1.4059e-05
1.38796e-05
1.37057e-05
1.35369e-05
1.33725e-05
1.3212e-05
1.30553e-05
1.29017e-05
1.27512e-05
1.26034e-05
1.24579e-05
1.23148e-05
1.21739e-05
1.20349e-05
1.18977e-05
1.17619e-05
1.16276e-05
1.14945e-05
1.13627e-05
1.12322e-05
1.11029e-05
1.09749e-05
1.08484e-05
1.07231e-05
1.05993e-05
1.04768e-05
1.03557e-05
1.02364e-05
1.01189e-05
1.00035e-05
9.89051e-06
9.78027e-06
9.67338e-06
9.57063e-06
9.47295e-06
9.38137e-06
9.29715e-06
9.22173e-06
9.15646e-06
9.10189e-06
9.05803e-06
9.02455e-06
9.00095e-06
8.98645e-06
8.98011e-06
8.98084e-06
8.98767e-06
8.99949e-06
9.01518e-06
9.0336e-06
9.05373e-06
9.07482e-06
9.09631e-06
9.1177e-06
8.71372e-06
6.63902e-06
4.16716e-06
6.05831e-06
1.08413e-05
1.61672e-05
2.17187e-05
2.75456e-05
3.24446e-05
3.61654e-05
3.85139e-05
3.87576e-05
3.70387e-05
3.44272e-05
3.1795e-05
2.95809e-05
2.78353e-05
2.64903e-05
2.54515e-05
2.46179e-05
2.39222e-05
2.3326e-05
2.28039e-05
2.23388e-05
2.19179e-05
2.15327e-05
2.11766e-05
2.08441e-05
2.05321e-05
2.02368e-05
1.99563e-05
1.96884e-05
1.94311e-05
1.91835e-05
1.89439e-05
1.87115e-05
1.84855e-05
1.82651e-05
1.80501e-05
1.78396e-05
1.76333e-05
1.74308e-05
1.72315e-05
1.70354e-05
1.68419e-05
1.6651e-05
1.64622e-05
1.62751e-05
1.60893e-05
1.59048e-05
1.57214e-05
1.5539e-05
1.53574e-05
1.51766e-05
1.49968e-05
1.48178e-05
1.46395e-05
1.44621e-05
1.42855e-05
1.411e-05
1.39358e-05
1.37631e-05
1.35925e-05
1.34244e-05
1.32596e-05
1.30991e-05
1.29444e-05
1.27971e-05
1.26592e-05
1.25331e-05
1.24213e-05
1.23249e-05
1.22445e-05
1.21801e-05
1.21312e-05
1.20969e-05
1.20761e-05
1.20673e-05
1.2069e-05
1.20796e-05
1.20971e-05
1.212e-05
1.21464e-05
1.21751e-05
1.22051e-05
1.22355e-05
1.06458e-05
8.07713e-06
5.11344e-06
7.82012e-06
1.3384e-05
1.9526e-05
2.57533e-05
3.25899e-05
3.87343e-05
4.39515e-05
4.8177e-05
4.99896e-05
4.87444e-05
4.57131e-05
4.2322e-05
3.93626e-05
3.69985e-05
3.51586e-05
3.37284e-05
3.25814e-05
3.16269e-05
3.08114e-05
3.01004e-05
2.94697e-05
2.89014e-05
2.83834e-05
2.79063e-05
2.74624e-05
2.70468e-05
2.66548e-05
2.62832e-05
2.59292e-05
2.559e-05
2.52639e-05
2.49492e-05
2.46445e-05
2.43486e-05
2.40605e-05
2.37797e-05
2.35051e-05
2.32363e-05
2.29725e-05
2.2713e-05
2.24576e-05
2.22056e-05
2.19567e-05
2.17102e-05
2.14654e-05
2.1222e-05
2.09794e-05
2.07374e-05
2.04956e-05
2.02538e-05
2.00117e-05
1.97694e-05
1.95265e-05
1.9283e-05
1.90388e-05
1.87939e-05
1.85486e-05
1.83029e-05
1.80573e-05
1.78122e-05
1.75682e-05
1.73263e-05
1.70879e-05
1.6855e-05
1.66299e-05
1.64156e-05
1.62161e-05
1.60351e-05
1.5875e-05
1.57373e-05
1.56225e-05
1.55307e-05
1.54612e-05
1.54127e-05
1.53835e-05
1.53714e-05
1.53742e-05
1.5389e-05
1.54133e-05
1.54445e-05
1.54805e-05
1.55196e-05
1.55604e-05
1.24726e-05
9.42185e-06
6.04389e-06
9.7124e-06
1.58805e-05
2.26208e-05
2.92338e-05
3.68761e-05
4.4192e-05
5.09982e-05
5.74902e-05
6.15226e-05
6.15975e-05
5.87557e-05
5.47384e-05
5.09291e-05
4.78013e-05
4.53349e-05
4.34054e-05
4.18593e-05
4.05771e-05
3.94864e-05
3.854e-05
3.77047e-05
3.69559e-05
3.62765e-05
3.56533e-05
3.50758e-05
3.4537e-05
3.40303e-05
3.35514e-05
3.30964e-05
3.26615e-05
3.22445e-05
3.18429e-05
3.14549e-05
3.10788e-05
3.07134e-05
3.03577e-05
3.00106e-05
2.96711e-05
2.93385e-05
2.90117e-05
2.869e-05
2.83728e-05
2.80592e-05
2.77486e-05
2.74399e-05
2.71323e-05
2.68251e-05
2.65175e-05
2.62091e-05
2.58991e-05
2.55872e-05
2.5273e-05
2.4956e-05
2.46359e-05
2.43126e-05
2.39858e-05
2.36555e-05
2.3322e-05
2.29853e-05
2.26462e-05
2.23053e-05
2.19637e-05
2.16231e-05
2.12861e-05
2.09561e-05
2.06373e-05
2.03352e-05
2.00557e-05
1.98029e-05
1.95795e-05
1.93874e-05
1.92276e-05
1.91e-05
1.90038e-05
1.89368e-05
1.88967e-05
1.88802e-05
1.88837e-05
1.89033e-05
1.89353e-05
1.89765e-05
1.9024e-05
1.90757e-05
1.41467e-05
1.06427e-05
6.98516e-06
1.17036e-05
1.82727e-05
2.53555e-05
3.20345e-05
4.02498e-05
4.86043e-05
5.70118e-05
6.60765e-05
7.279e-05
7.48584e-05
7.31094e-05
6.91492e-05
6.4673e-05
6.06976e-05
5.74523e-05
5.48754e-05
5.28059e-05
5.10949e-05
4.96458e-05
4.83953e-05
4.7298e-05
4.63201e-05
4.54374e-05
4.46319e-05
4.3889e-05
4.31985e-05
4.25518e-05
4.19425e-05
4.13654e-05
4.08156e-05
4.02899e-05
3.97851e-05
3.92987e-05
3.88283e-05
3.83725e-05
3.79297e-05
3.74985e-05
3.70777e-05
3.66663e-05
3.62626e-05
3.58659e-05
3.5475e-05
3.50889e-05
3.47065e-05
3.43264e-05
3.39474e-05
3.35681e-05
3.31877e-05
3.28048e-05
3.24185e-05
3.20279e-05
3.16321e-05
3.12303e-05
3.08219e-05
3.04063e-05
2.9983e-05
2.95517e-05
2.91123e-05
2.86648e-05
2.82098e-05
2.7748e-05
2.72807e-05
2.68098e-05
2.63388e-05
2.58718e-05
2.54149e-05
2.49754e-05
2.45615e-05
2.41796e-05
2.38344e-05
2.35295e-05
2.32677e-05
2.30503e-05
2.28772e-05
2.27468e-05
2.26564e-05
2.26023e-05
2.25796e-05
2.25833e-05
2.26079e-05
2.26488e-05
2.27018e-05
2.27633e-05
1.56211e-05
1.17149e-05
8.06627e-06
1.37499e-05
2.04945e-05
2.76281e-05
3.40811e-05
4.2575e-05
5.17661e-05
6.1707e-05
7.36252e-05
8.34329e-05
8.80099e-05
8.80341e-05
8.49378e-05
8.04145e-05
7.58561e-05
7.18548e-05
6.85477e-05
6.58439e-05
6.35947e-05
6.16882e-05
6.00465e-05
5.86115e-05
5.73387e-05
5.61952e-05
5.51566e-05
5.4203e-05
5.33202e-05
5.24967e-05
5.17235e-05
5.09938e-05
5.0301e-05
4.96405e-05
4.90083e-05
4.84009e-05
4.78154e-05
4.72495e-05
4.67013e-05
4.61689e-05
4.56507e-05
4.51454e-05
4.46508e-05
4.41658e-05
4.36887e-05
4.32182e-05
4.27528e-05
4.22907e-05
4.18299e-05
4.13685e-05
4.09049e-05
4.04374e-05
3.99642e-05
3.94837e-05
3.89945e-05
3.84952e-05
3.79845e-05
3.74614e-05
3.69246e-05
3.63737e-05
3.58078e-05
3.52268e-05
3.46312e-05
3.40216e-05
3.33993e-05
3.27668e-05
3.2128e-05
3.14885e-05
3.08557e-05
3.02392e-05
2.96498e-05
2.90963e-05
2.85858e-05
2.81245e-05
2.77177e-05
2.73689e-05
2.70797e-05
2.68496e-05
2.66766e-05
2.65569e-05
2.64847e-05
2.64535e-05
2.64562e-05
2.64863e-05
2.65375e-05
2.66046e-05
1.68515e-05
1.26231e-05
9.5136e-06
1.57954e-05
2.24749e-05
2.93374e-05
3.53262e-05
4.37512e-05
5.34765e-05
6.47881e-05
7.9848e-05
9.31835e-05
0.000100778
0.000103147
0.000101541
9.75655e-05
9.28617e-05
8.83554e-05
8.44236e-05
8.11052e-05
7.82947e-05
7.58874e-05
7.38029e-05
7.19765e-05
7.0356e-05
6.8901e-05
6.7581e-05
6.63713e-05
6.52532e-05
6.42121e-05
6.32364e-05
6.23174e-05
6.14469e-05
6.06188e-05
5.98279e-05
5.907e-05
5.8341e-05
5.76382e-05
5.69588e-05
5.63008e-05
5.56619e-05
5.50404e-05
5.44337e-05
5.38401e-05
5.32574e-05
5.26838e-05
5.21174e-05
5.15558e-05
5.09961e-05
5.04359e-05
4.98725e-05
4.93036e-05
4.87263e-05
4.81383e-05
4.75371e-05
4.69209e-05
4.62875e-05
4.56352e-05
4.4962e-05
4.42668e-05
4.35484e-05
4.28061e-05
4.20404e-05
4.12519e-05
4.0442e-05
3.96134e-05
3.8771e-05
3.79213e-05
3.70733e-05
3.62385e-05
3.54301e-05
3.46593e-05
3.39357e-05
3.32686e-05
3.26662e-05
3.21352e-05
3.16801e-05
3.13029e-05
3.10032e-05
3.0778e-05
3.06215e-05
3.05261e-05
3.04831e-05
3.04838e-05
3.05196e-05
3.05828e-05
1.78006e-05
1.33657e-05
1.13933e-05
1.7774e-05
2.41435e-05
3.04411e-05
3.57511e-05
4.3738e-05
5.35271e-05
6.59311e-05
8.44395e-05
0.000101764
0.000112924
0.00011822
0.000118681
0.00011578
0.000111344
0.000106614
0.00010223
9.8394e-05
9.50745e-05
9.21918e-05
8.96732e-05
8.74535e-05
8.54769e-05
8.36973e-05
8.20796e-05
8.05949e-05
7.92206e-05
7.79397e-05
7.67381e-05
7.56054e-05
7.45321e-05
7.35107e-05
7.25353e-05
7.16007e-05
7.07022e-05
6.98362e-05
6.89995e-05
6.81897e-05
6.74041e-05
6.66407e-05
6.58962e-05
6.51684e-05
6.44546e-05
6.37524e-05
6.30593e-05
6.23726e-05
6.16884e-05
6.10034e-05
6.03138e-05
5.96164e-05
5.89073e-05
5.81831e-05
5.74404e-05
5.66766e-05
5.5889e-05
5.50751e-05
5.42324e-05
5.3359e-05
5.24536e-05
5.15154e-05
5.05446e-05
4.95423e-05
4.85098e-05
4.74501e-05
4.63687e-05
4.5273e-05
4.41728e-05
4.30811e-05
4.20126e-05
4.09804e-05
3.99962e-05
3.90721e-05
3.822e-05
3.74502e-05
3.67713e-05
3.6189e-05
3.57063e-05
3.53226e-05
3.50333e-05
3.4831e-05
3.47061e-05
3.46477e-05
3.46447e-05
3.46867e-05
1.8444e-05
1.39625e-05
1.34621e-05
1.96129e-05
2.54402e-05
3.09295e-05
3.53845e-05
4.25911e-05
5.16682e-05
6.47838e-05
8.70633e-05
0.000108841
0.000124157
0.000133017
0.000136142
0.000134848
0.000131107
0.000126457
0.000121814
0.000117578
0.000113819
0.000110503
0.000107576
0.000104978
0.000102655
0.000100556
9.86425e-05
9.6882e-05
9.52482e-05
9.3722e-05
9.22869e-05
9.09309e-05
8.96437e-05
8.84162e-05
8.72422e-05
8.61152e-05
8.50301e-05
8.39828e-05
8.29689e-05
8.19864e-05
8.10317e-05
8.0103e-05
7.91961e-05
7.83084e-05
7.74362e-05
7.6577e-05
7.57276e-05
7.48848e-05
7.40439e-05
7.32006e-05
7.23502e-05
7.14885e-05
7.06106e-05
6.97122e-05
6.87891e-05
6.78384e-05
6.68569e-05
6.58419e-05
6.47906e-05
6.37011e-05
6.25719e-05
6.14021e-05
6.01925e-05
5.8944e-05
5.76583e-05
5.63381e-05
5.49889e-05
5.36186e-05
5.22372e-05
5.08579e-05
4.94962e-05
4.81656e-05
4.68794e-05
4.56518e-05
4.44979e-05
4.34321e-05
4.24677e-05
4.16153e-05
4.08832e-05
4.02752e-05
3.97903e-05
3.9423e-05
3.91645e-05
3.90029e-05
3.89246e-05
3.89163e-05
1.87789e-05
1.44731e-05
1.55434e-05
2.1239e-05
2.63257e-05
3.08387e-05
3.43181e-05
4.0501e-05
4.77295e-05
6.10205e-05
8.73647e-05
0.000114013
0.000134101
0.000147225
0.000153673
0.000154555
0.000151975
0.000147756
0.000143095
0.00013861
0.000134506
0.000130814
0.000127513
0.00012456
0.000121903
0.000119492
0.000117286
0.00011525
0.000113354
0.000111578
0.000109902
0.000108314
0.000106803
0.000105357
0.00010397
0.000102635
0.000101345
0.000100097
9.88857e-05
9.77076e-05
9.65595e-05
9.54392e-05
9.4342e-05
9.32646e-05
9.22025e-05
9.11525e-05
9.01115e-05
8.90758e-05
8.80401e-05
8.69994e-05
8.59479e-05
8.4881e-05
8.37932e-05
8.26795e-05
8.15354e-05
8.0358e-05
7.91444e-05
7.7892e-05
7.65979e-05
7.52605e-05
7.38783e-05
7.24506e-05
7.0978e-05
6.94618e-05
6.7903e-05
6.6304e-05
6.46697e-05
6.30077e-05
6.13271e-05
5.9641e-05
5.79639e-05
5.6309e-05
5.46898e-05
5.31216e-05
5.16219e-05
5.02086e-05
4.88996e-05
4.77113e-05
4.66582e-05
4.57509e-05
4.49944e-05
4.43884e-05
4.39275e-05
4.36007e-05
4.33936e-05
4.32906e-05
1.88344e-05
1.51276e-05
1.75317e-05
2.25887e-05
2.67943e-05
3.02641e-05
3.27138e-05
3.78116e-05
4.24507e-05
5.46338e-05
8.50158e-05
0.000116813
0.000142288
0.000160441
0.000170944
0.000174636
0.000173738
0.000170352
0.000165967
0.000161434
0.000157117
0.000153136
0.000149519
0.000146246
0.000143279
0.000140572
0.000138082
0.000135773
0.000133616
0.000131586
0.000129663
0.000127833
0.000126084
0.000124405
0.000122788
0.000121225
0.00011971
0.000118237
0.000116801
0.000115399
0.000114027
0.000112682
0.00011136
0.000110056
0.000108766
0.000107485
0.00010621
0.000104939
0.000103665
0.000102382
0.000101086
9.97703e-05
9.84299e-05
9.70596e-05
9.56549e-05
9.42133e-05
9.27326e-05
9.12105e-05
8.96446e-05
8.80333e-05
8.63751e-05
8.46694e-05
8.29164e-05
8.11173e-05
7.92724e-05
7.73833e-05
7.54537e-05
7.34902e-05
7.1501e-05
6.94975e-05
6.74925e-05
6.54978e-05
6.35256e-05
6.15913e-05
5.97133e-05
5.79116e-05
5.62077e-05
5.46231e-05
5.31792e-05
5.18945e-05
5.07823e-05
4.98509e-05
4.91019e-05
4.85291e-05
4.81199e-05
4.78579e-05
1.86827e-05
1.63751e-05
1.93388e-05
2.36215e-05
2.68857e-05
2.93625e-05
3.08006e-05
3.49901e-05
3.66994e-05
4.65828e-05
7.98667e-05
0.000116738
0.000148154
0.000172159
0.00018753
0.00019475
0.000196122
0.000194033
0.00019027
0.000185941
0.000181588
0.000177442
0.000173595
0.000170064
0.00016683
0.000163856
0.000161103
0.000158537
0.000156126
0.000153845
0.000151675
0.000149598
0.000147603
0.000145678
0.000143815
0.000142006
0.000140243
0.000138522
0.000136834
0.000135178
0.000133549
0.000131946
0.000130361
0.000128792
0.000127232
0.000125678
0.000124126
0.000122574
0.000121016
0.000119447
0.000117861
0.000116253
0.000114618
0.00011295
0.000111246
0.000109504
0.000107722
0.000105899
0.000104032
0.00010212
0.000100162
9.81566e-05
9.61042e-05
9.40052e-05
9.18591e-05
8.96666e-05
8.74301e-05
8.51549e-05
8.28477e-05
8.05179e-05
7.81759e-05
7.58308e-05
7.34929e-05
7.11758e-05
6.88973e-05
6.6678e-05
6.45407e-05
6.25106e-05
6.06144e-05
5.88783e-05
5.73254e-05
5.59748e-05
5.4839e-05
5.39214e-05
5.32155e-05
5.27081e-05
1.84657e-05
1.81716e-05
2.08953e-05
2.43334e-05
2.66921e-05
2.83403e-05
2.88872e-05
3.25389e-05
3.28112e-05
3.98854e-05
7.21778e-05
0.000113306
0.000151056
0.000181759
0.000202891
0.00021446
0.000218783
0.000218522
0.000215788
0.000211963
0.000207796
0.000203648
0.000199691
0.000195991
0.000192557
0.000189367
0.00018639
0.000183596
0.000180954
0.000178439
0.000176031
0.000173713
0.000171473
0.000169299
0.000167182
0.000165116
0.000163091
0.000161102
0.000159141
0.000157206
0.000155292
0.000153398
0.000151518
0.000149648
0.000147781
0.000145914
0.000144044
0.00014217
0.000140287
0.00013839
0.000136473
0.000134531
0.00013256
0.000130556
0.000128515
0.000126436
0.000124317
0.00012216
0.00011996
0.000117719
0.000115433
0.000113102
0.000110725
0.000108303
0.000105835
0.000103319
0.000100758
9.81542e-05
9.55139e-05
9.28443e-05
9.01529e-05
8.74454e-05
8.47292e-05
8.20156e-05
7.93202e-05
7.6662e-05
7.40634e-05
7.15503e-05
6.91523e-05
6.69013e-05
6.48289e-05
6.2966e-05
6.13387e-05
5.99643e-05
5.88483e-05
5.79859e-05
1.89346e-05
1.99093e-05
2.21628e-05
2.47692e-05
2.63571e-05
2.74366e-05
2.75084e-05
3.08301e-05
3.07189e-05
3.51692e-05
6.26655e-05
0.000106119
0.000150312
0.000188516
0.000216354
0.000233204
0.000241275
0.000243469
0.00024224
0.000239278
0.000235565
0.000231617
0.000227705
0.000223954
0.000220413
0.000217081
0.00021394
0.000210967
0.000208133
0.000205417
0.000202798
0.000200259
0.000197789
0.000195376
0.000193012
0.000190689
0.000188398
0.000186135
0.00018389
0.000181661
0.000179445
0.00017724
0.00017504
0.000172842
0.000170639
0.000168428
0.000166208
0.000163977
0.000161733
0.00015947
0.000157185
0.000154873
0.000152531
0.000150154
0.000147739
0.000145287
0.000142797
0.000140271
0.000137705
0.0001351
0.000132455
0.000129766
0.000127036
0.000124262
0.000121442
0.000118577
0.000115665
0.00011271
0.000109714
0.000106684
0.000103624
0.000100537
9.74258e-05
9.42994e-05
9.11704e-05
8.80548e-05
8.49725e-05
8.19476e-05
7.90097e-05
7.61926e-05
7.35337e-05
7.10736e-05
6.88526e-05
6.69044e-05
6.52512e-05
6.39034e-05
2.00696e-05
2.14166e-05
2.31485e-05
2.50269e-05
2.60741e-05
2.69417e-05
2.74281e-05
3.00368e-05
3.02892e-05
3.27629e-05
5.25586e-05
9.47946e-05
0.000145341
0.000191618
0.000227098
0.00025027
0.000263022
0.00026842
0.000269266
0.000267595
0.000264659
0.000261159
0.000257482
0.000253832
0.000250304
0.000246929
0.000243706
0.000240623
0.000237658
0.000234792
0.000232006
0.000229285
0.000226619
0.000223995
0.000221406
0.000218845
0.000216303
0.000213774
0.00021125
0.000208728
0.000206207
0.000203683
0.000201154
0.000198614
0.000196059
0.000193485
0.000190892
0.000188281
0.000185649
0.000182994
0.000180312
0.000177599
0.000174853
0.000172071
0.00016925
0.000166391
0.000163495
0.000160564
0.000157598
0.000154595
0.000151554
0.000148473
0.000145353
0.000142193
0.000138989
0.000135741
0.000132447
0.000129109
0.000125729
0.000122311
0.000118857
0.000115366
0.000111837
0.000108277
0.000104694
0.000101101
9.75139e-05
9.39529e-05
9.04444e-05
8.70212e-05
8.37218e-05
8.05927e-05
7.76854e-05
7.505e-05
7.27284e-05
7.07512e-05
6.89343e-05
2.15352e-05
2.26502e-05
2.39145e-05
2.52657e-05
2.62398e-05
2.74797e-05
2.83721e-05
3.01425e-05
3.12955e-05
3.25369e-05
4.34454e-05
8.031e-05
0.000135909
0.00019021
0.00023415
0.000264774
0.000283285
0.000292778
0.000296394
0.000296538
0.000294774
0.000292025
0.000288819
0.000285456
0.000282092
0.000278799
0.0002756
0.000272499
0.000269483
0.00026654
0.000263654
0.00026081
0.000258
0.000255213
0.000252443
0.000249681
0.000246921
0.000244156
0.000241378
0.000238585
0.000235774
0.000232945
0.000230094
0.000227217
0.00022431
0.00022137
0.000218398
0.000215396
0.000212363
0.000209299
0.000206201
0.000203065
0.000199892
0.000196678
0.000193422
0.000190126
0.000186792
0.000183424
0.000180021
0.000176583
0.000173109
0.000169599
0.000166051
0.000162465
0.000158839
0.00015517
0.000151456
0.0001477
0.0001439
0.000140061
0.00013618
0.000132255
0.000128282
0.000124262
0.0001202
0.000116107
0.000111992
0.000107872
0.000103767
9.97055e-05
9.57236e-05
9.18684e-05
8.81975e-05
8.47736e-05
8.16578e-05
7.89039e-05
7.64279e-05
2.28167e-05
2.36461e-05
2.4597e-05
2.594e-05
2.72899e-05
2.88224e-05
2.99845e-05
3.11027e-05
3.2388e-05
3.31052e-05
3.79557e-05
6.54999e-05
0.000122142
0.000183429
0.000236403
0.000275642
0.000301125
0.000315773
0.000323003
0.000325609
0.000325509
0.000323885
0.000321445
0.000318602
0.00031559
0.000312535
0.000309493
0.000306489
0.000303527
0.0003006
0.000297699
0.000294813
0.000291934
0.000289054
0.000286167
0.000283266
0.000280344
0.000277396
0.000274412
0.000271391
0.00026833
0.00026523
0.000262087
0.000258899
0.000255661
0.000252372
0.000249033
0.000245648
0.000242218
0.000238744
0.000235224
0.000231657
0.000228044
0.000224381
0.00022067
0.000216914
0.000213116
0.00020928
0.000205407
0.0002015
0.000197556
0.000193576
0.000189561
0.000185508
0.000181417
0.000177284
0.00017311
0.000168892
0.000164632
0.000160331
0.000155987
0.000151592
0.000147139
0.000142628
0.000138059
0.000133438
0.000128771
0.000124068
0.000119343
0.000114618
0.000109922
0.000105298
0.000100804
9.65095e-05
9.2489e-05
8.88195e-05
8.5486e-05
2.39079e-05
2.45404e-05
2.57134e-05
2.73259e-05
2.89522e-05
3.06467e-05
3.193e-05
3.28012e-05
3.35424e-05
3.40411e-05
3.59599e-05
5.23922e-05
0.000104669
0.000170579
0.000232677
0.000281603
0.000315378
0.00033641
0.000348275
0.000354144
0.000356324
0.000356302
0.000354996
0.000352966
0.000350544
0.000347923
0.000345203
0.000342443
0.000339662
0.000336869
0.000334063
0.000331236
0.000328385
0.000325505
0.000322589
0.000319632
0.000316629
0.000313573
0.000310456
0.000307276
0.00030403
0.000300719
0.00029734
0.000293891
0.000290369
0.000286772
0.000283102
0.000279364
0.000275562
0.000271697
0.00026777
0.00026378
0.000259729
0.000255616
0.000251443
0.000247214
0.000242934
0.000238608
0.000234241
0.000229833
0.000225386
0.000220901
0.000216377
0.000211816
0.000207215
0.000202574
0.000197891
0.000193167
0.000188399
0.000183591
0.000178737
0.00017383
0.000168858
0.000163817
0.000158705
0.000153525
0.000148277
0.000142966
0.000137598
0.000132186
0.000126753
0.000121331
0.000115973
0.000110747
0.000105735
0.000101031
9.66705e-05
2.49898e-05
2.59053e-05
2.73849e-05
2.91825e-05
3.09417e-05
3.26635e-05
3.39491e-05
3.47007e-05
3.48068e-05
3.50651e-05
3.54132e-05
4.40566e-05
8.53876e-05
0.000151648
0.000221909
0.000281226
0.000324625
0.000353436
0.00037115
0.000381266
0.000386496
0.000388678
0.00038898
0.000388137
0.000386607
0.000384667
0.00038248
0.000380142
0.000377703
0.00037519
0.000372612
0.00036997
0.000367268
0.000364501
0.000361668
0.000358764
0.000355783
0.000352721
0.00034957
0.000346325
0.000342986
0.000339552
0.000336021
0.000332391
0.000328658
0.000324822
0.000320885
0.000316852
0.000312728
0.000308518
0.000304221
0.00029984
0.000295377
0.000290833
0.00028621
0.000281513
0.00027675
0.000271928
0.000267052
0.000262125
0.000257149
0.000252127
0.000247062
0.000241953
0.000236801
0.000231605
0.000226366
0.000221084
0.000215758
0.00021039
0.000204977
0.000199507
0.000193966
0.000188349
0.000182651
0.000176871
0.000171006
0.000165054
0.000159015
0.000152895
0.000146704
0.000140464
0.000134217
0.000128023
0.000121961
0.000116133
0.000110609
2.65751e-05
2.772e-05
2.94061e-05
3.12671e-05
3.3024e-05
3.46612e-05
3.58661e-05
3.65258e-05
3.64905e-05
3.60237e-05
3.54603e-05
3.90515e-05
6.65957e-05
0.000128089
0.000203526
0.00027302
0.000327201
0.000365295
0.000390273
0.000405826
0.000415067
0.000420212
0.000422724
0.00042355
0.0004233
0.000422361
0.000420971
0.000419284
0.000417386
0.00041533
0.000413144
0.000410842
0.000408433
0.00040592
0.000403305
0.000400584
0.000397755
0.000394814
0.000391752
0.000388565
0.000385251
0.000381809
0.000378239
0.000374536
0.000370698
0.000366724
0.000362614
0.000358375
0.000354013
0.000349533
0.000344936
0.000340225
0.000335404
0.000330475
0.00032544
0.000320307
0.000315084
0.00030978
0.000304402
0.000298955
0.000293443
0.00028787
0.00028224
0.000276555
0.000270817
0.000265027
0.000259188
0.0002533
0.000247364
0.000241382
0.000235352
0.000229262
0.000223096
0.000216847
0.000210509
0.000204078
0.000197548
0.000190913
0.000184167
0.000177307
0.000170333
0.000163255
0.000156102
0.000148919
0.000141775
0.000134766
0.000127981
2.85319e-05
2.98041e-05
3.15717e-05
3.33804e-05
3.50294e-05
3.65032e-05
3.75786e-05
3.81466e-05
3.81065e-05
3.751e-05
3.65669e-05
3.74051e-05
5.34067e-05
0.000102826
0.000177702
0.000255667
0.00032126
0.000370117
0.000403944
0.000426349
0.000440777
0.000449838
0.000455325
0.000458436
0.000459965
0.000460435
0.000460185
0.000459438
0.000458332
0.000456956
0.000455365
0.000453588
0.000451648
0.000449556
0.000447319
0.00044494
0.000442417
0.000439747
0.000436923
0.000433942
0.0004308
0.000427496
0.000424027
0.000420391
0.000416584
0.000412603
0.000408449
0.000404128
0.000399645
0.000395006
0.000390213
0.00038527
0.000380181
0.000374948
0.000369576
0.000364072
0.000358445
0.000352705
0.000346863
0.000340923
0.000334893
0.000328779
0.000322585
0.000316316
0.000309976
0.000303568
0.000297097
0.000290565
0.000283973
0.000277327
0.000270626
0.000263859
0.000257008
0.000250065
0.000243024
0.00023588
0.000228625
0.000221249
0.000213744
0.000206098
0.000198304
0.00019036
0.000182279
0.000174091
0.000165846
0.000157625
0.000149518
0.000140703
0.000133338
0.000126635
3.06785e-05
3.19793e-05
3.37115e-05
3.53773e-05
3.68489e-05
3.81158e-05
3.90404e-05
3.95156e-05
3.94953e-05
3.8975e-05
3.80258e-05
3.80745e-05
4.58533e-05
7.89108e-05
0.000145903
0.000228519
0.000304984
0.000365749
0.00041008
0.000440964
0.000461998
0.000476154
0.000485579
0.000491758
0.000495707
0.000498115
0.000499444
0.000500008
0.000500013
0.000499598
0.000498851
0.000497827
0.000496568
0.000495098
0.000493431
0.000491578
0.000489541
0.000487321
0.000484912
0.00048231
0.000479512
0.000476517
0.00047332
0.00046992
0.000466311
0.000462488
0.000458452
0.000454206
0.000449756
0.000445107
0.000440261
0.000435223
0.000429995
0.000424582
0.000418987
0.000413218
0.000407284
0.000401197
0.000394968
0.000388604
0.000382114
0.000375505
0.000368784
0.000361957
0.00035503
0.000348008
0.0003409
0.000333709
0.000326439
0.000319095
0.000311682
0.00030419
0.000296601
0.000288906
0.000281099
0.000273176
0.000265128
0.000256944
0.000248613
0.000240119
0.000231449
0.00022259
0.000213543
0.00020432
0.000194953
0.0001855
0.000176036
0.000166209
0.000157181
0.000148744
3.28505e-05
3.40968e-05
3.57006e-05
3.71654e-05
3.84252e-05
3.94742e-05
4.02464e-05
4.06334e-05
4.06332e-05
4.02326e-05
3.94357e-05
3.90634e-05
4.16826e-05
6.04507e-05
0.000112491
0.000192578
0.000277055
0.000349925
0.000406231
0.000447362
0.000476663
0.000497345
0.000511904
0.000522141
0.000529326
0.000534348
0.00053782
0.000540173
0.000541698
0.000542597
0.000543008
0.000543021
0.000542702
0.000542094
0.000541227
0.000540118
0.000538779
0.000537215
0.000535423
0.000533402
0.000531149
0.00052866
0.000525935
0.000522967
0.000519751
0.000516283
0.000512558
0.00050858
0.000504353
0.000499879
0.000495163
0.000490206
0.000485012
0.000479584
0.000473926
0.000468044
0.000461949
0.000455651
0.000449161
0.000442491
0.000435646
0.000428638
0.000421475
0.000414163
0.000406711
0.000399126
0.000391419
0.000383595
0.00037566
0.000367623
0.000359489
0.000351254
0.000342899
0.000334415
0.000325798
0.000317043
0.000308143
0.000299086
0.00028986
0.000280448
0.000270833
0.000260994
0.000250923
0.000240618
0.000230092
0.000219377
0.000208528
0.000197388
0.000186642
0.000176357
3.49157e-05
3.60464e-05
3.74602e-05
3.86987e-05
3.97421e-05
4.05901e-05
4.1217e-05
4.15259e-05
4.15422e-05
4.12603e-05
4.06562e-05
3.99026e-05
4.06529e-05
4.99802e-05
8.33062e-05
0.000151198
0.000237513
0.000320699
0.000389721
0.00044279
0.000482202
0.000511104
0.000532257
0.000547782
0.000559233
0.00056773
0.000574069
0.000578822
0.000582389
0.000585055
0.000587021
0.000588424
0.000589365
0.000589914
0.00059012
0.000590016
0.000589624
0.000588956
0.000588017
0.000586808
0.000585328
0.000583574
0.000581544
0.000579234
0.000576638
0.000573747
0.000570559
0.000567072
0.000563289
0.000559212
0.000554843
0.000550183
0.000545236
0.000540002
0.000534484
0.000528689
0.000522625
0.000516302
0.000509732
0.000502925
0.000495889
0.000488635
0.000481172
0.000473507
0.000465652
0.000457614
0.000449404
0.000441032
0.000432505
0.000423832
0.000415025
0.000406079
0.00039698
0.000387717
0.000378289
0.00036869
0.000358914
0.000348951
0.000338788
0.000328408
0.000317791
0.000306914
0.00029576
0.000284317
0.000272585
0.000260573
0.00024831
0.000235707
0.000223202
0.000210979
3.67813e-05
3.77597e-05
3.89543e-05
3.99691e-05
4.08122e-05
4.14892e-05
4.19848e-05
4.22284e-05
4.22596e-05
4.20927e-05
4.16938e-05
4.09721e-05
4.10334e-05
4.48477e-05
6.28698e-05
0.000110591
0.000189106
0.000277369
0.000358077
0.000424191
0.000475542
0.000514561
0.000544039
0.000566355
0.000583353
0.000596411
0.000606537
0.000614471
0.000620749
0.000625759
0.000629784
0.000633022
0.000635622
0.000637691
0.000639305
0.000640518
0.000641368
0.000641881
0.000642068
0.000641936
0.000641491
0.000640729
0.000639652
0.000638255
0.000636531
0.000634473
0.000632074
0.000629331
0.000626246
0.000622818
0.000619048
0.000614936
0.000610482
0.000605689
0.000600557
0.000595089
0.000589295
0.000583181
0.00057676
0.00057004
0.00056303
0.000555741
0.000548182
0.00054036
0.000532287
0.000523972
0.000515427
0.000506662
0.000497687
0.000488511
0.000479148
0.000469599
0.000459849
0.000449891
0.000439721
0.000429337
0.000418731
0.000407895
0.000396816
0.000385478
0.000373859
0.000361935
0.000349683
0.000337085
0.000324129
0.00031081
0.000297137
0.000283034
0.000268791
0.000254629
3.83948e-05
3.92077e-05
4.01821e-05
4.09945e-05
4.16647e-05
4.21964e-05
4.25849e-05
4.27771e-05
4.28243e-05
4.27848e-05
4.26558e-05
4.20571e-05
4.18214e-05
4.27784e-05