/*--------------------------------*- C++ -*----------------------------------*\
| =========                 |                                                 |
| \\      /  F ield         | OpenFOAM: The Open Source CFD Toolbox           |
|  \\    /   O peration     | Version:  2412                                  |
|   \\  /    A nd           | Website:  www.openfoam.com                      |
|    \\/     M anipulation  |                                                 |
\*---------------------------------------------------------------------------*/
FoamFile
{
    version     2.0;
    format      ascii;
    arch        "LSB;label=32;scalar=64";
    class       volVectorField;
    location    "500";
    object      U;
}
// * * * * * * * * * * * * * * * * * * * * * * * * * * * * * * * * * * * * * //

dimensions      [0 1 -1 0 0 0 0];

internalField   nonuniform List<vector> 
8659
(
(0.164604 -0.118505 4.4129e-25)
(0.114957 -0.0922344 0)
(0.0423927 -0.0387096 1.76549e-24)
(-0.0596766 0.0644589 -1.41181e-18)
(-0.196754 0.263791 -2.61255e-24)
(-0.33174 0.608245 -1.72409e-18)
(-0.387963 1.20349 -1.98811e-20)
(-0.147094 1.85245 2.25895e-19)
(0.38647 2.19216 -4.65269e-24)
(0.94932 2.07767 2.80406e-18)
(1.25356 1.60794 0)
(1.27412 1.11972 -1.88662e-23)
(1.17054 0.766137 -5.6988e-18)
(1.03023 0.527534 2.3033e-24)
(0.901144 0.372105 -9.12345e-18)
(0.800913 0.271764 4.10953e-18)
(0.7253 0.204555 0)
(0.671244 0.158274 1.76582e-25)
(0.632013 0.124761 1.42849e-24)
(0.60086 0.0990292 -1.38503e-24)
(0.574794 0.0785374 0)
(0.552279 0.0617832 1.20054e-18)
(0.532286 0.0478343 -5.56758e-19)
(0.514197 0.0360245 4.11901e-26)
(0.497571 0.0259202 9.67045e-19)
(0.482174 0.017197 2.20351e-25)
(0.46779 0.00960307 2.1225e-19)
(0.454239 0.00295656 -4.98937e-20)
(0.441455 -0.00290065 4.70129e-20)
(0.429289 -0.00807253 -1.77541e-19)
(0.417719 -0.0126465 -3.35831e-19)
(0.406658 -0.0167258 3.18174e-19)
(0.396018 -0.0203461 4.73278e-27)
(0.385799 -0.0235771 1.39078e-25)
(0.375922 -0.0264529 -2.8691e-25)
(0.366387 -0.0290096 5.2019e-19)
(0.357157 -0.0312902 4.96229e-19)
(0.34821 -0.0333116 -4.73892e-19)
(0.33956 -0.0351022 -9.06119e-19)
(0.33116 -0.0366885 -8.67145e-19)
(0.323023 -0.0380801 -8.30632e-19)
(0.315128 -0.0393042 -7.96389e-19)
(0.307477 -0.0403678 0)
(0.300075 -0.0412945 -7.33926e-19)
(0.29292 -0.0420937 -6.72917e-25)
(0.286011 -0.0427798 3.28259e-25)
(0.279343 -0.0433623 0)
(0.272904 -0.0438504 1.25789e-18)
(0.266707 -0.0442571 1.2123e-18)
(0.260751 -0.0445927 0)
(0.255052 -0.044865 1.12807e-18)
(0.249612 -0.0450872 0)
(0.244434 -0.045267 0)
(0.239534 -0.0454107 1.01682e-18)
(0.234918 -0.0455331 9.83236e-19)
(0.230574 -0.0456352 9.51213e-19)
(0.226511 -0.0457243 -2.16356e-25)
(0.222724 -0.045809 8.91497e-19)
(0.21922 -0.045894 0)
(0.216002 -0.0459861 0)
(0.213076 -0.0460925 0)
(0.210443 -0.0462163 -7.8697e-19)
(0.208106 -0.0463652 1.8481e-25)
(0.206057 -0.0465417 7.41098e-19)
(0.204297 -0.04675 1.74184e-25)
(0.202825 -0.0469913 0)
(0.20163 -0.0472705 0)
(0.200682 -0.0475833 -6.59709e-19)
(0.199971 -0.0479255 -1.28247e-18)
(0.199478 -0.0483032 -1.51011e-25)
(0.199187 -0.0487084 0)
(0.199079 -0.0491411 0)
(0.199122 -0.0495976 2.94933e-26)
(0.199294 -0.0500683 0)
(0.199576 -0.0505555 5.4321e-19)
(0.199944 -0.0510513 5.28684e-19)
(0.200381 -0.0515535 -5.14595e-19)
(0.200873 -0.0520588 2.43011e-25)
(0.201407 -0.0525655 2.28441e-25)
(0.201977 -0.0530712 -4.74618e-19)
(0.20257 -0.0535752 9.23975e-19)
(0.203167 -0.0540718 2.10487e-25)
(0.203757 -0.0545578 -7.81332e-27)
(0.204332 -0.0550325 -2.06927e-25)
(0.204886 -0.0554948 4.14235e-19)
(0.205413 -0.0559419 -4.02883e-19)
(0.506591 -0.364614 4.18708e-18)
(0.35337 -0.283364 0)
(0.130849 -0.119238 2.11615e-24)
(-0.17988 0.194642 4.54774e-24)
(-0.593963 0.796575 2.12069e-18)
(-0.998813 1.83072 2.85747e-18)
(-1.16439 3.60526 1.71256e-20)
(-0.442383 5.55349 -7.48462e-19)
(1.16707 6.61479 5.80623e-25)
(2.89658 6.33178 0)
(3.88318 4.97717 -2.03833e-23)
(4.00667 3.52118 -5.29825e-23)
(3.71214 2.43051 9.43721e-18)
(3.27783 1.67913 -8.44749e-18)
(2.86836 1.1849 6.1948e-24)
(2.54768 0.864801 6.81713e-18)
(2.30544 0.650414 0)
(2.13119 0.502662 -4.247e-24)
(2.00404 0.395722 7.39656e-24)
(1.90311 0.313742 2.34254e-18)
(1.81875 0.248557 -2.00752e-24)
(1.74601 0.195388 9.26347e-26)
(1.68158 0.151146 9.24591e-19)
(1.62343 0.113781 8.60431e-19)
(1.57013 0.08183 -1.60619e-18)
(1.52088 0.054275 3.75799e-19)
(1.47497 0.0303052 -3.52585e-19)
(1.43179 0.00933199 8.28873e-20)
(1.39112 -0.00910902 -7.81064e-20)
(1.3525 -0.0254038 2.94984e-19)
(1.3158 -0.0398277 2.79006e-19)
(1.28075 -0.0526568 -1.05739e-18)
(1.24707 -0.0640605 7.1416e-25)
(1.21475 -0.0742192 9.53501e-19)
(1.18356 -0.0832666 -9.07356e-19)
(1.15345 -0.0913196 8.64538e-19)
(1.12432 -0.0984865 -8.24746e-19)
(1.09611 -0.104844 7.87658e-19)
(1.06884 -0.110484 2.15393e-26)
(1.04237 -0.115467 6.97786e-25)
(1.01673 -0.11985 1.38076e-18)
(0.991855 -0.123694 -1.84658e-26)
(0.967747 -0.127046 -1.27043e-18)
(0.944412 -0.129956 1.22013e-18)
(0.921851 -0.132465 1.17272e-18)
(0.90006 -0.134615 1.54619e-26)
(0.879018 -0.13644 1.48517e-26)
(0.858683 -0.137968 9.97554e-25)
(0.839091 -0.139233 2.01571e-18)
(0.820247 -0.140267 0)
(0.802191 -0.141105 -1.87575e-18)
(0.784928 -0.141776 8.63768e-25)
(0.768481 -0.142307 -1.74947e-18)
(0.752884 -0.142729 0)
(0.738158 -0.143068 0)
(0.724279 -0.143343 -1.58185e-18)
(0.711261 -0.143574 -1.46045e-24)
(0.699098 -0.143783 7.17423e-25)
(0.68781 -0.14399 -1.43626e-18)
(0.677416 -0.144216 -6.54074e-25)
(0.667928 -0.144481 6.53163e-25)
(0.659352 -0.144802 -5.53219e-25)
(0.6517 -0.145195 1.26998e-18)
(0.644954 -0.145673 1.2326e-18)
(0.639123 -0.146249 -5.62072e-25)
(0.6342 -0.146934 1.69581e-26)
(0.630149 -0.147733 5.46799e-25)
(0.626897 -0.148638 0)
(0.624397 -0.149647 1.29978e-26)
(0.622603 -0.15076 0)
(0.621472 -0.151972 0)
(0.620931 -0.153274 9.8092e-19)
(0.620894 -0.15465 4.66479e-25)
(0.621287 -0.156087 -9.28533e-19)
(0.622044 -0.157572 9.03579e-19)
(0.623094 -0.159094 0)
(0.624381 -0.160639 -4.01248e-25)
(0.625856 -0.1622 8.3322e-19)
(0.627482 -0.163768 0)
(0.629234 -0.165338 7.89515e-19)
(0.63107 -0.166905 -7.68509e-19)
(0.632934 -0.168451 -7.48e-19)
(0.634782 -0.16997 -7.27959e-19)
(0.636585 -0.171451 3.31348e-25)
(0.63833 -0.172896 -6.89098e-19)
(0.639992 -0.174296 6.70218e-19)
(0.879419 -0.632751 -1.17799e-24)
(0.611791 -0.490248 2.52974e-18)
(0.225535 -0.204946 5.29075e-18)
(-0.309957 0.336368 0)
(-1.01798 1.36672 -2.39353e-18)
(-1.70498 3.12675 -1.61071e-18)
(-1.97832 6.12379 1.93965e-20)
(-0.753108 9.43191 4.19969e-19)
(1.99464 11.2991 0)
(4.99724 10.9164 -2.15928e-23)
(6.79533 8.70891 -1.98506e-24)
(7.11328 6.25306 -2.31054e-17)
(6.64518 4.35248 1.94221e-23)
(5.88765 3.01719 -1.35738e-24)
(5.15529 2.13035 -1.55611e-25)
(4.57624 1.55389 -7.67158e-18)
(4.13792 1.16772 6.85609e-24)
(3.82089 0.901423 3.15519e-18)
(3.58853 0.708768 -2.88094e-18)
(3.40423 0.561339 -2.64231e-18)
(3.2504 0.444305 0)
(3.118 0.349004 -2.24978e-18)
(3.00103 0.269816 0)
(2.89573 0.203011 0)
(2.79944 0.145951 9.06823e-19)
(2.71066 0.0967898 -4.24397e-19)
(2.62806 0.0540395 1.8638e-25)
(2.55051 0.0166647 -9.3631e-20)
(2.47758 -0.0161854 8.82404e-20)
(2.40842 -0.0452003 -3.33292e-19)
(2.34275 -0.0708831 0)
(2.2801 -0.0937152 5.97469e-19)
(2.21998 -0.114011 0)
(2.16232 -0.132088 -1.44207e-25)
(2.10671 -0.148189 -1.02565e-18)
(2.05306 -0.162522 -1.37354e-25)
(2.0012 -0.175277 8.75963e-25)
(1.95099 -0.186592 -8.90545e-19)
(1.90244 -0.196637 -8.00187e-25)
(1.85534 -0.205502 1.62988e-18)
(1.80973 -0.21331 7.55784e-25)
(1.76547 -0.220154 7.03721e-25)
(1.72256 -0.226124 1.43681e-18)
(1.68101 -0.231299 -1.38e-18)
(1.64082 -0.235763 -1.32645e-18)
(1.60197 -0.239579 0)
(1.56442 -0.242813 0)
(1.5281 -0.245511 0)
(1.49306 -0.247736 -2.28037e-18)
(1.45932 -0.249539 0)
(1.42692 -0.250985 0)
(1.3959 -0.25212 -2.04905e-18)
(1.36628 -0.252996 1.01729e-25)
(1.33812 -0.253666 1.91325e-18)
(1.31146 -0.254177 0)
(1.28627 -0.254559 1.79001e-18)
(1.26256 -0.254853 0)
(1.24034 -0.255092 -1.67779e-18)
(1.21964 -0.255318 1.6254e-18)
(1.20049 -0.255568 -2.21446e-26)
(1.18294 -0.255878 -1.52735e-18)
(1.16698 -0.256278 1.48135e-18)
(1.15265 -0.2568 -1.43738e-18)
(1.13993 -0.257466 -1.3951e-18)
(1.12884 -0.258304 -1.35455e-18)
(1.11936 -0.259336 1.31552e-18)
(1.11145 -0.260568 1.27811e-18)
(1.105 -0.261992 0)
(1.09991 -0.263613 6.42044e-25)
(1.09613 -0.265419 1.17382e-18)
(1.09358 -0.267419 0)
(1.09213 -0.269587 -3.77366e-26)
(1.09163 -0.271899 1.08026e-18)
(1.09196 -0.274335 1.05112e-18)
(1.09299 -0.276869 -1.02287e-18)
(1.09459 -0.279481 -4.82772e-25)
(1.09667 -0.282149 0)
(1.09912 -0.284855 -9.43248e-19)
(1.10189 -0.287584 -9.18189e-19)
(1.10491 -0.29033 4.18643e-25)
(1.10811 -0.293074 -4.22401e-25)
(1.11139 -0.295791 8.46795e-19)
(1.11466 -0.298463 8.24105e-19)
(1.11787 -0.301077 3.75114e-25)
(1.12098 -0.303626 -3.7925e-25)
(1.12396 -0.306102 1.20768e-27)
(1.2802 -0.920784 -2.6718e-18)
(0.886498 -0.709816 -5.71484e-18)
(0.322294 -0.291887 -2.15931e-23)
(-0.453453 0.493731 -2.98758e-18)
(-1.46978 1.9761 -1.10336e-23)
(-2.44654 4.49155 -1.81225e-18)
(-2.81876 8.73252 -4.35217e-20)
(-1.07067 13.4311 -9.35176e-19)
(2.85706 16.173 1.90258e-23)
(7.22196 15.7725 5.66247e-18)
(9.97202 12.7808 1.28639e-17)
(10.607 9.32673 1.25544e-17)
(10.008 6.55731 -6.65833e-23)
(8.9093 4.56736 2.0708e-23)
(7.81234 3.22949 9.43121e-18)
(6.93318 2.35498 0)
(6.26491 1.76848 0)
(5.77837 1.3636 0)
(5.42008 1.07076 3.23082e-18)
(5.13611 0.847112 5.82318e-24)
(4.89953 0.6699 0)
(4.69634 0.525794 2.52915e-18)
(4.51729 0.406256 4.48437e-24)
(4.35653 0.305518 -4.17526e-24)
(4.20993 0.219574 2.94455e-24)
(4.07505 0.145579 -9.30967e-25)
(3.94981 0.0812905 -4.48603e-19)
(3.83246 0.0251032 1.05503e-19)
(3.72224 -0.0242612 -9.94548e-20)
(3.61788 -0.0678537 3.75739e-19)
(3.51889 -0.106419 0)
(3.42456 -0.14071 0)
(3.33415 -0.171182 6.39595e-19)
(3.24749 -0.198338 -1.21594e-18)
(3.16398 -0.222525 -8.37071e-25)
(3.08346 -0.24405 -1.10302e-18)
(3.00566 -0.263218 -9.88774e-25)
(2.93038 -0.28023 1.00538e-18)
(2.85759 -0.295328 -9.03491e-25)
(2.78698 -0.308664 -3.68105e-18)
(2.71859 -0.320407 1.76342e-18)
(2.65222 -0.330707 0)
(2.58785 -0.339683 0)
(2.52549 -0.34747 0)
(2.4651 -0.354177 1.40911e-24)
(2.40668 -0.359905 -1.39512e-24)
(2.35014 -0.364744 1.38791e-18)
(2.29539 -0.368765 -2.67393e-18)
(2.24248 -0.372061 1.21174e-24)
(2.19142 -0.374709 -1.20265e-24)
(2.14229 -0.376794 1.12785e-24)
(2.09512 -0.378392 -9.04975e-25)
(2.04996 -0.37958 2.23803e-18)
(2.00688 -0.380426 -2.1633e-18)
(1.96595 -0.381009 2.09211e-18)
(1.92712 -0.381372 -4.04843e-18)
(1.89043 -0.381576 1.95942e-18)
(1.85587 -0.381672 3.79509e-18)
(1.82352 -0.381724 0)
(1.79344 -0.381787 0)
(1.76567 -0.381919 1.72768e-18)
(1.74026 -0.382166 0)
(1.71726 -0.382581 7.63875e-25)
(1.69664 -0.383198 -1.5783e-18)
(1.67845 -0.384064 3.06499e-18)
(1.66271 -0.385213 -1.48839e-18)
(1.64935 -0.386665 -1.44612e-18)
(1.6382 -0.388414 -6.80651e-25)
(1.6292 -0.390459 -1.27344e-24)
(1.62224 -0.392811 -1.32825e-18)
(1.61722 -0.395467 -1.29174e-18)
(1.61398 -0.398403 -1.25654e-18)
(1.6123 -0.401585 3.79807e-26)
(1.61196 -0.404975 1.15322e-24)
(1.61279 -0.408544 0)
(1.61461 -0.412257 1.12664e-18)
(1.61724 -0.416085 0)
(1.62054 -0.419989 0)
(1.6244 -0.423957 1.03912e-18)
(1.62872 -0.427969 -1.0115e-18)
(1.63338 -0.431998 -9.84596e-19)
(1.63821 -0.436003 -1.82803e-24)
(1.64307 -0.439952 9.06168e-25)
(1.64788 -0.443827 -9.07506e-19)
(1.65257 -0.447615 -8.58396e-25)
(1.65709 -0.451298 -7.89309e-25)
(1.70484 -1.22569 3.01677e-18)
(1.17273 -0.938126 3.22649e-18)
(0.416349 -0.375485 -3.37327e-18)
(-0.613746 0.670735 3.37068e-18)
(-1.94876 2.62463 -1.24259e-23)
(-3.21681 5.91416 6.90313e-23)
(-3.671 11.3891 4.84917e-20)
(-1.38748 17.4619 1.02937e-18)
(3.73202 21.1083 -2.05951e-23)
(9.50461 20.7554 -6.01217e-18)
(13.3158 17.0685 -1.33629e-17)
(14.4 12.6654 1.2916e-17)
(13.7529 9.01428 -4.70536e-23)
(12.3352 6.3261 1.10267e-17)
(10.8557 4.4893 0)
(9.64477 3.2772 -9.28592e-18)
(8.71592 2.46117 0)
(8.03331 1.89627 3.89092e-18)
(7.52737 1.48746 0)
(7.12632 1.17567 -6.11226e-24)
(6.7926 0.928972 5.95199e-24)
(6.50647 0.728658 0)
(6.25495 0.562691 1.30807e-18)
(6.02971 0.42301 0)
(5.82481 0.303929 -1.14006e-18)
(5.63667 0.201477 5.34215e-19)
(5.46233 0.112523 4.04318e-25)
(5.29928 0.0348041 0)
(5.14634 -0.0334559 -1.11405e-19)
(5.00174 -0.0937238 -8.42258e-19)
(4.86471 -0.147051 7.47826e-25)
(4.7343 -0.194454 -7.33564e-25)
(4.60939 -0.2366 -1.43583e-18)
(4.48977 -0.274148 -1.3654e-18)
(4.3746 -0.307609 1.30015e-18)
(4.2636 -0.337406 1.1643e-24)
(4.1564 -0.363942 1.18317e-18)
(4.0527 -0.387507 0)
(3.95244 -0.408434 -2.16293e-18)
(3.8552 -0.426927 -1.33062e-24)
(3.76099 -0.443223 -1.98476e-18)
(3.66956 -0.457518 -1.90384e-18)
(3.58082 -0.469983 -1.71829e-24)
(3.49478 -0.480795 -1.75605e-18)
(3.41139 -0.4901 0)
(3.3306 -0.498038 -1.52757e-24)
(3.25231 -0.504728 -1.56431e-18)
(3.17636 -0.510268 3.01441e-18)
(3.10283 -0.514776 -2.90618e-18)
(3.0317 -0.518358 -2.80353e-18)
(2.96307 -0.521125 1.27218e-24)
(2.89696 -0.523183 5.22683e-18)
(2.83345 -0.524626 2.52529e-18)
(2.77262 -0.525555 -2.44136e-18)
(2.71457 -0.52607 1.85631e-24)
(2.65924 -0.526233 2.28509e-18)
(2.60668 -0.526127 -2.21227e-18)
(2.55692 -0.525827 -4.28539e-18)
(2.51005 -0.525419 2.0762e-18)
(2.46617 -0.524982 0)
(2.42538 -0.524597 -1.95164e-18)
(2.38773 -0.524336 0)
(2.35331 -0.52427 0)
(2.32213 -0.524459 -1.48508e-24)
(2.29429 -0.524969 -3.46385e-18)
(2.26981 -0.525855 0)
(2.24866 -0.527157 0)
(2.23064 -0.528871 -1.49178e-24)
(2.21568 -0.531013 1.54442e-18)
(2.20369 -0.533601 0)
(2.19458 -0.536646 1.46053e-18)
(2.1881 -0.54012 0)
(2.18399 -0.543978 0)
(2.18195 -0.548174 -1.34511e-18)
(2.18173 -0.552667 -1.30903e-18)
(2.18309 -0.55741 -5.11334e-26)
(2.18578 -0.562359 -1.16267e-24)
(2.18957 -0.567465 1.17136e-24)
(2.19431 -0.572703 0)
(2.19983 -0.57804 3.36895e-26)
(2.20595 -0.583435 1.1135e-18)
(2.21242 -0.58883 1.08378e-18)
(2.21902 -0.594177 1.05474e-18)
(2.22564 -0.59944 2.0526e-18)
(2.23216 -0.604603 -9.98419e-19)
(2.23847 -0.609638 -9.71056e-19)
(2.1479 -1.54345 -6.80871e-18)
(1.46463 -1.17031 3.64148e-18)
(0.502364 -0.450614 0)
(-0.793798 0.870969 0)
(-2.45226 3.3094 3.41624e-18)
(-4.00528 7.37656 2.00987e-25)
(-4.51678 14.0362 -2.03549e-22)
(-1.69409 21.4114 -2.58597e-22)
(4.59081 25.9394 2.18341e-23)
(11.7494 25.655 3.1838e-23)
(16.6426 21.3364 -4.5972e-23)
(18.2447 16.0521 -1.6802e-21)
(17.6507 11.5737 0)
(16.0074 8.21306 -1.07217e-17)
(14.1957 5.87317 -3.73957e-23)
(12.6651 4.30525 9.53769e-18)
(11.4699 3.24003 1.64474e-23)
(10.5781 2.49781 -8.24768e-18)
(9.91028 1.95895 -1.50271e-23)
(9.37919 1.54779 1.31648e-23)
(8.93687 1.22259 -1.28865e-23)
(8.55766 0.958664 3.05925e-18)
(8.22472 0.740152 -1.42677e-18)
(7.92702 0.556325 1.33397e-18)
(7.65668 0.399703 1.25008e-18)
(7.40882 0.264994 -3.28989e-24)
(7.17948 0.148046 5.52451e-19)
(6.96526 0.0458835 1.30232e-19)
(6.76452 -0.0438525 6.1407e-25)
(6.57495 -0.123087 -8.07568e-25)
(6.39544 -0.193209 4.41378e-19)
(6.22472 -0.25557 0)
(6.06134 -0.31104 1.59315e-18)
(5.90493 -0.360472 1.51647e-18)
(5.75445 -0.404552 1.4453e-18)
(5.60948 -0.443833 -1.37909e-18)
(5.4695 -0.478847 -2.63481e-18)
(5.33412 -0.509962 4.80779e-24)
(5.20322 -0.537621 2.4118e-18)
(5.07625 -0.562085 2.3108e-18)
(4.95322 -0.58366 -2.14527e-24)
(4.83376 -0.602612 2.12694e-18)
(4.71775 -0.619151 -2.04307e-18)
(4.60516 -0.633498 3.92806e-18)
(4.49591 -0.645858 1.82843e-24)
(4.38991 -0.656389 0)
(4.28702 -0.665258 0)
(4.18702 -0.672577 3.37804e-18)
(4.08998 -0.678504 6.51642e-18)
(3.99584 -0.683164 9.77412e-25)
(3.90474 -0.6867 -3.03641e-18)
(3.81667 -0.689239 -5.86729e-18)
(3.73172 -0.690907 -2.83583e-18)
(3.64999 -0.691825 2.74263e-18)
(3.5716 -0.692122 -6.49785e-25)
(3.49648 -0.69188 2.56895e-18)
(3.42472 -0.691207 2.48794e-18)
(3.35636 -0.690199 2.41052e-18)
(3.29154 -0.688974 1.78324e-24)
(3.23039 -0.687634 -2.1292e-24)
(3.17306 -0.686293 5.1549e-25)
(3.11966 -0.685041 2.13249e-18)
(3.07035 -0.683991 2.07011e-18)
(3.02518 -0.683221 -1.58236e-24)
(2.98429 -0.682833 3.90491e-18)
(2.94777 -0.682904 1.89691e-18)
(2.91564 -0.683504 0)
(2.8877 -0.684643 1.79224e-18)
(2.86392 -0.686361 1.68822e-24)
(2.84425 -0.688696 1.69478e-18)
(2.8286 -0.691678 -3.14487e-24)
(2.81671 -0.695284 1.60395e-18)
(2.80825 -0.699463 -1.46436e-24)
(2.80285 -0.704162 1.51883e-18)
(2.80018 -0.709327 1.4782e-18)
(2.79991 -0.714904 -1.43884e-18)
(2.80173 -0.720832 0)
(2.80531 -0.727049 1.27791e-24)
(2.81042 -0.733509 1.32724e-18)
(2.81683 -0.740171 1.29198e-18)
(2.82425 -0.746969 -1.25761e-18)
(2.83233 -0.753823 -1.22403e-18)
(2.84077 -0.760661 -1.19121e-18)
(2.84935 -0.767433 -2.31814e-18)
(2.85792 -0.774103 7.85614e-26)
(2.86631 -0.780634 0)
(2.60238 -1.86891 3.83867e-18)
(1.75517 -1.40055 -4.10696e-18)
(0.574638 -0.511756 3.21704e-23)
(-0.995742 1.09721 -3.3196e-23)
(-2.97505 4.02415 -3.82864e-18)
(-4.7975 8.85347 2.52418e-18)
(-5.33177 16.6078 -2.92006e-20)
(-1.98 25.1627 -6.02016e-19)
(5.40634 30.5101 0)
(13.8666 30.2751 -5.15964e-23)
(19.7628 25.3413 4.32475e-23)
(21.8329 19.2156 -1.09411e-17)
(21.3236 13.9883 7.27763e-23)
(19.571 10.0465 9.37606e-18)
(17.5583 7.26807 3.6222e-23)
(15.8 5.37348 0)
(14.3903 4.06676 0)
(13.3145 3.14519 4.0672e-18)
(12.4952 2.4708 -3.83588e-18)
(11.838 1.95423 1.41518e-23)
(11.2877 1.54473 0)
(10.8143 1.21191 -3.1747e-18)
(10.398 0.936095 -2.6308e-25)
(10.0255 0.703917 -1.40247e-18)
(9.68711 0.505979 0)
(9.37686 0.335632 -6.23045e-19)
(9.0898 0.187659 0)
(8.82174 0.0583105 -2.78496e-19)
(8.57051 -0.0553771 2.88494e-25)
(8.33331 -0.155843 5.00892e-19)
(8.10869 -0.244817 9.22078e-25)
(7.89508 -0.324011 -1.75778e-24)
(7.6907 -0.394509 -8.62927e-19)
(7.49503 -0.457418 -1.64614e-18)
(7.30678 -0.513569 -1.57185e-18)
(7.12541 -0.563666 1.50251e-18)
(6.95027 -0.60838 1.43769e-18)
(6.78084 -0.648175 -1.37697e-18)
(6.61696 -0.683597 -2.64006e-18)
(6.45796 -0.714988 0)
(6.30379 -0.742719 0)
(6.15401 -0.767119 0)
(6.00843 -0.788457 4.49629e-18)
(5.86698 -0.807001 -4.32734e-18)
(5.72953 -0.822998 0)
(5.59595 -0.836648 3.77635e-24)
(5.46604 -0.848149 -3.74761e-24)
(5.33954 -0.857644 -3.73704e-18)
(5.21645 -0.865315 -3.60794e-18)
(5.09671 -0.871312 3.48524e-18)
(4.98041 -0.875812 1.69961e-24)
(4.86756 -0.878955 6.51481e-18)
(4.75823 -0.880903 -3.15152e-18)
(4.65252 -0.881792 2.86795e-24)
(4.55058 -0.88178 -5.90826e-18)
(4.45233 -0.880972 -1.14482e-17)
(4.35789 -0.879498 -2.774e-18)
(4.26732 -0.877482 2.68977e-18)
(4.18082 -0.875069 -2.60914e-18)
(4.09855 -0.872392 2.53184e-18)
(4.02075 -0.869594 2.45777e-18)
(3.94758 -0.866804 1.50348e-24)
(3.87928 -0.864161 -2.31835e-18)
(3.81598 -0.861785 2.2526e-18)
(3.7579 -0.859811 3.69979e-24)
(3.70523 -0.858355 -5.3157e-25)
(3.65806 -0.857521 -2.06989e-18)
(3.61625 -0.857353 -8.13355e-24)
(3.57985 -0.857918 7.4725e-24)
(3.54888 -0.859296 -3.81134e-18)
(3.52333 -0.861549 3.59409e-24)
(3.50295 -0.864667 -1.80494e-18)
(3.48735 -0.868601 -1.75682e-18)
(3.47609 -0.873297 -3.20853e-24)
(3.4688 -0.878697 1.66478e-18)
(3.46507 -0.884736 -1.62073e-18)
(3.46447 -0.891344 -1.57788e-18)
(3.46659 -0.898435 0)
(3.47112 -0.905953 -2.99091e-18)
(3.47771 -0.913833 -2.82645e-24)
(3.48597 -0.921991 2.83413e-18)
(3.4954 -0.930306 5.26181e-24)
(3.50558 -0.938684 -2.6082e-24)
(3.51619 -0.947046 1.30595e-18)
(3.52698 -0.955335 1.27037e-18)
(3.53771 -0.963494 1.23546e-18)
(3.05969 -2.19572 -4.32393e-18)
(2.03629 -1.62212 -4.62748e-18)
(0.62738 -0.553261 0)
(-1.22044 1.35092 4.80275e-18)
(-3.50884 4.75865 2.67907e-23)
(-5.57593 10.3133 -2.69171e-23)
(-6.09269 19.033 3.08069e-20)
(-2.23734 28.6151 -6.4332e-19)
(6.16028 34.7139 4.74184e-23)
(15.8058 34.5051 -3.92243e-23)
(22.5792 28.9592 1.14393e-17)
(25.0029 22.0142 0)
(24.5199 16.093 8.1917e-18)
(22.6859 11.652 -7.61092e-18)
(20.5759 8.52195 7.45145e-18)
(18.7155 6.36843 2.94467e-23)
(17.1968 4.86229 -7.39019e-18)
(16.0119 3.78408 -3.6168e-18)
(15.0912 2.98538 3.49914e-18)
(14.342 2.36856 0)
(13.7079 1.8767 3.20458e-18)
(13.1579 1.47518 -3.05082e-18)
(12.6713 1.14129 1.4502e-18)
(12.234 0.859443 5.37936e-24)
(11.8355 0.618586 1.30954e-18)
(11.469 0.410872 -4.85021e-24)
(11.1292 0.230074 -5.92199e-19)
(10.8113 0.0717462 2.81919e-19)
(10.5128 -0.0676737 2.68656e-19)
(10.2306 -0.191085 -5.12522e-19)
(9.96297 -0.300585 -4.89313e-19)
(9.70813 -0.39822 1.69509e-24)
(9.46407 -0.485292 -3.47069e-24)
(9.23014 -0.563135 8.37866e-25)
(9.00488 -0.632758 -1.6414e-18)
(8.78764 -0.695007 0)
(8.57766 -0.750684 0)
(8.37436 -0.800359 2.54156e-24)
(8.17752 -0.844685 4.55584e-24)
(7.98635 -0.884076 2.6846e-18)
(7.8008 -0.918974 -2.58443e-18)
(7.62034 -0.949788 -2.48969e-18)
(7.44471 -0.976821 -3.02955e-24)
(7.2738 -1.0004 -1.57801e-24)
(7.10745 -1.02082 4.32407e-24)
(6.94546 -1.03831 2.1575e-18)
(6.7876 -1.05312 2.08464e-18)
(6.63352 -1.06539 0)
(6.48318 -1.07535 0)
(6.33646 -1.08317 3.77302e-18)
(6.19345 -1.08904 2.92073e-24)
(6.05411 -1.09313 3.90107e-24)
(5.91848 -1.09562 3.42986e-18)
(5.78667 -1.09667 -3.32566e-18)
(5.65883 -1.09645 6.45207e-18)
(5.53488 -1.0951 -2.08198e-24)
(5.41494 -1.09275 0)
(5.29911 -1.08958 -5.90407e-18)
(5.18762 -1.08573 -2.86821e-18)
(5.08071 -1.08138 -5.57547e-18)
(4.97867 -1.07671 -2.71048e-18)
(4.88174 -1.07186 -2.63607e-18)
(4.79028 -1.06704 -2.56467e-18)
(4.70449 -1.06239 -9.52202e-24)
(4.62474 -1.05809 3.69262e-24)
(4.55131 -1.05431 -4.72983e-18)
(4.48443 -1.05119 2.30294e-18)
(4.42408 -1.04884 -2.24282e-18)
(4.37043 -1.04735 2.18447e-18)
(4.32367 -1.04686 4.25557e-18)
(4.2839 -1.0475 0)
(4.25095 -1.04928 0)
(4.2244 -1.05216 1.96678e-18)
(4.20381 -1.05611 -3.71472e-24)
(4.18877 -1.06107 -3.73198e-18)
(4.1788 -1.06697 3.63489e-18)
(4.1734 -1.07374 1.77004e-18)
(4.17207 -1.08127 3.23113e-24)
(4.17438 -1.08951 -2.80147e-24)
(4.17988 -1.09835 0)
(4.18801 -1.10768 -1.59073e-18)
(4.19813 -1.11735 -3.00775e-24)
(4.20966 -1.12723 2.82029e-24)
(4.22212 -1.13719 1.46594e-18)
(4.23513 -1.14716 0)
(4.24834 -1.15705 -3.64092e-25)
(3.50959 -2.51631 4.86418e-18)
(2.29901 -1.82755 5.2072e-18)
(0.655096 -0.569699 4.12655e-23)
(-1.46698 1.6317 -7.23646e-23)
(-4.04235 5.49862 -2.97683e-23)
(-6.31929 11.7212 1.8342e-23)
(-6.78245 21.2458 -6.5689e-20)
(-2.45899 31.6928 2.75212e-18)
(6.84457 38.5021 0)
(17.5575 38.3245 -1.03639e-22)
(25.0949 32.1947 -1.07292e-17)
(27.7759 24.4673 -1.29022e-24)
(27.2459 17.8927 -6.83245e-18)
(25.286 12.9957 0)
(23.0794 9.56489 -5.84773e-18)
(21.1658 7.20647 -4.60784e-23)
(19.6125 5.54834 5.85326e-18)
(18.3944 4.3493 5.84342e-18)
(17.4378 3.45119 -2.1445e-23)
(16.6501 2.75099 2.22097e-23)
(15.9758 2.18821 -2.75046e-18)
(15.385 1.7257 2.66217e-18)
(14.8577 1.33893 -2.56838e-18)
(14.3804 1.01084 0)
(13.9427 0.729261 -2.37741e-18)
(13.5381 0.485465 0)
(13.1612 0.272509 1.09699e-18)
(12.8071 0.0853726 -1.31706e-19)
(12.4734 -0.0799436 -2.53056e-19)
(12.1569 -0.226744 2.6159e-24)
(11.8557 -0.357393 3.5087e-24)
(11.5682 -0.474242 -3.49151e-24)
(11.2922 -0.578783 8.65761e-19)
(11.0269 -0.672517 1.66736e-18)
(10.771 -0.756634 1.60646e-18)
(10.5236 -0.832088 6.00262e-24)
(10.284 -0.899814 0)
(10.0516 -0.960465 1.44169e-18)
(9.82613 -1.0148 5.56866e-18)
(9.60678 -1.06328 -1.17493e-23)
(9.39349 -1.10644 2.60036e-18)
(9.18568 -1.14473 2.51492e-18)
(8.98306 -1.17851 -2.43349e-18)
(8.78548 -1.20817 2.35586e-18)
(8.59276 -1.23401 -2.2818e-18)
(8.40467 -1.25632 -2.21109e-18)
(8.22092 -1.27537 -2.1436e-18)
(8.04111 -1.29133 2.27241e-25)
(7.86514 -1.30445 7.8084e-24)
(7.69283 -1.31491 -3.9173e-18)
(7.52424 -1.32292 3.80478e-18)
(7.35928 -1.32868 9.46701e-24)
(7.19796 -1.33236 -1.97068e-25)
(7.04036 -1.33415 3.49592e-18)
(6.8866 -1.33424 -3.4017e-18)
(6.7366 -1.33276 6.75054e-24)
(6.59047 -1.32988 0)
(6.44832 -1.32577 3.14194e-18)
(6.3104 -1.32062 -8.97164e-24)
(6.17702 -1.31462 2.98569e-18)
(6.0485 -1.30798 2.91206e-18)
(5.92518 -1.30088 -5.33907e-24)
(5.80751 -1.29354 2.77258e-18)
(5.69582 -1.28617 1.03255e-23)
(5.59058 -1.27899 -5.28429e-18)
(5.49226 -1.2722 2.57973e-18)
(5.40125 -1.26604 2.51924e-18)
(5.31769 -1.26062 4.62007e-24)
(5.24195 -1.25614 -4.80444e-18)
(5.17445 -1.25281 -2.34542e-18)
(5.11554 -1.25081 0)
(5.06515 -1.25021 2.23475e-18)
(5.02297 -1.25103 -1.35499e-25)
(4.98861 -1.25324 -4.12474e-24)
(4.96165 -1.25683 4.14923e-18)
(4.94165 -1.26173 -4.04565e-18)
(4.92806 -1.26789 0)
(4.92029 -1.27519 0)
(4.91785 -1.28355 1.87199e-18)
(4.92015 -1.29287 -1.82327e-18)
(4.92649 -1.30301 -1.77538e-18)
(4.93603 -1.31376 0)
(4.94799 -1.32494 0)
(4.96171 -1.33641 -7.0803e-25)
(4.97663 -1.34802 0)
(4.99221 -1.35966 -1.54753e-18)
(3.94039 -2.82202 5.46305e-18)
(2.53387 -2.00889 5.84927e-18)
(0.653173 -0.556385 9.13892e-23)
(-1.73217 1.93674 -1.76276e-22)
(-4.56152 6.22614 -6.57685e-23)
(-7.00741 13.039 7.67517e-23)
(-7.37779 23.1953 3.48681e-20)
(-2.63954 34.341 -7.42724e-19)
(7.4582 41.8666 1.05665e-22)
(19.1336 41.7594 -8.20096e-23)
(27.3597 35.1128 0)
(30.2495 26.6617 0)
(29.6293 19.4716 -5.90578e-18)
(27.4967 14.1427 -3.73151e-23)
(25.1505 10.431 2.59346e-24)
(23.1598 7.8907 6.9786e-23)
(21.5736 6.10687 -3.58286e-23)
(20.3433 4.81275 -1.06261e-22)
(19.3813 3.8378 0)
(18.5886 3.0728 2.23058e-18)
(17.9073 2.454 0)
(17.3071 1.94233 8.00576e-24)
(16.7682 1.51198 1.04761e-18)
(16.2776 1.14497 1.01942e-18)
(15.8252 0.8284 9.90189e-19)
(15.4049 0.553013 7.33636e-24)
(15.0114 0.31136 -4.65559e-19)
(14.6402 0.0980863 1.12762e-19)
(14.2889 -0.0911265 1.09231e-19)
(13.9544 -0.25986 8.46442e-19)
(13.6349 -0.410646 -4.09972e-19)
(13.3289 -0.546064 2.98161e-24)
(13.0341 -0.667726 -7.69916e-19)
(12.7499 -0.77729 -1.13951e-23)
(12.4749 -0.876034 5.61231e-24)
(12.2083 -0.96502 1.40424e-18)
(11.9495 -1.04528 -1.04015e-23)
(11.6978 -1.11751 5.12519e-24)
(11.4529 -1.18256 -2.56947e-18)
(11.2141 -1.24096 -9.63307e-24)
(10.9814 -1.29326 -9.12129e-24)
(10.7541 -1.33998 1.8e-23)
(10.532 -1.38153 -8.88007e-24)
(10.3149 -1.4183 0)
(10.1027 -1.45066 4.34394e-18)
(9.89499 -1.47891 7.95354e-24)
(9.69159 -1.50335 -7.97256e-24)
(9.49202 -1.52417 7.54908e-24)
(9.29614 -1.54162 -2.13727e-25)
(9.10371 -1.5559 -7.38579e-24)
(8.91475 -1.56725 0)
(8.72912 -1.57584 -7.27127e-18)
(8.54679 -1.58188 0)
(8.36777 -1.58555 0)
(8.19215 -1.58703 6.37959e-24)
(8.0198 -1.58648 3.31925e-18)
(7.85082 -1.58406 -6.10767e-24)
(7.68526 -1.57995 6.15783e-24)
(7.52337 -1.57433 6.23375e-18)
(7.36544 -1.56742 0)
(7.21184 -1.55942 -2.99574e-18)
(7.06295 -1.55055 1.10448e-23)
(6.91929 -1.54105 -1.11663e-23)
(6.78126 -1.53115 -2.82999e-18)
(6.64946 -1.52112 2.778e-18)
(6.52448 -1.51119 1.05638e-23)
(6.40692 -1.50166 -2.47918e-24)
(6.29711 -1.4927 0)
(6.19569 -1.48459 2.15564e-24)
(6.10337 -1.47763 9.49545e-24)
(6.02081 -1.47208 -9.60919e-24)
(5.94824 -1.46811 -2.42901e-18)
(5.88551 -1.46579 -8.9263e-24)
(5.8324 -1.46517 9.0255e-24)
(5.78868 -1.46628 -2.27587e-18)
(5.75398 -1.46911 2.22416e-18)
(5.72782 -1.47363 8.429e-24)
(5.70961 -1.47974 0)
(5.69884 -1.48738 0)
(5.69484 -1.49644 2.01629e-18)
(5.69677 -1.50674 1.9647e-18)
(5.7036 -1.51806 -1.91348e-18)
(5.71434 -1.53016 0)
(5.72808 -1.54284 -1.19254e-24)
(5.74405 -1.55592 0)
(5.7615 -1.5692 0)
(4.33924 -3.10333 1.60936e-22)
(2.73147 -2.15823 -6.55498e-18)
(0.618583 -0.510055 1.03496e-22)
(-2.01012 2.2603 -6.65697e-18)
(-5.05043 6.92068 -7.21604e-23)
(-7.62094 14.2289 3.6248e-18)
(-7.86774 24.8432 6.58794e-20)
(-2.775 36.5184 -7.98306e-19)
(8.00441 44.8197 -1.14701e-22)
(20.5463 44.8367 -6.91453e-18)
(29.4272 37.7826 1.03642e-17)
(32.5214 28.684 7.08777e-18)
(31.7993 20.9151 5.34037e-18)
(29.4675 15.17 7.00548e-23)
(26.9442 11.1846 0)
(24.837 8.46884 -3.72829e-18)
(23.1878 6.5684 2.68474e-23)
(21.9273 5.19073 -1.1329e-22)
(20.9528 4.15134 -5.40804e-23)
(20.1559 3.33372 -1.74507e-18)
(19.4735 2.67012 1.34613e-23)
(18.873 2.11932 1.25636e-23)
(18.3337 1.6542 8.24858e-19)
(17.842 1.25593 -8.06024e-19)
(17.3879 0.911017 5.88059e-24)
(16.9649 0.609746 -5.97292e-24)
(16.5682 0.34431 0)
(16.193 0.109091 -9.08955e-20)
(15.8371 -0.10045 8.84978e-20)
(15.4975 -0.288083 -6.89341e-19)
(15.1724 -0.456476 6.71244e-19)
(14.8602 -0.608361 2.53745e-24)
(14.5589 -0.745425 0)
(14.2677 -0.86943 1.24134e-18)
(13.9853 -0.981735 -1.21006e-18)
(13.711 -1.08345 -1.17997e-18)
(13.4441 -1.17568 8.92054e-24)
(13.1839 -1.25917 1.12318e-18)
(12.9303 -1.33481 8.24298e-24)
(12.6826 -1.40316 -2.14129e-18)
(12.4406 -1.46482 8.09943e-24)
(12.2039 -1.52035 7.68528e-24)
(11.972 -1.57016 -1.99781e-18)
(11.745 -1.61469 1.95353e-18)
(11.5226 -1.65431 -8.19691e-24)
(11.3046 -1.68936 7.03331e-24)
(11.0907 -1.72015 -7.08608e-24)
(10.8804 -1.74688 6.74414e-24)
(10.6735 -1.76982 6.41675e-24)
(10.4698 -1.78917 -1.33351e-23)
(10.2692 -1.80516 -1.27126e-23)
(10.0716 -1.818 6.63613e-18)
(9.8769 -1.82787 0)
(9.685 -1.83495 -1.20488e-23)
(9.49596 -1.83943 1.21998e-23)
(9.30957 -1.84144 1.93244e-23)
(9.12585 -1.84114 -1.1834e-23)
(8.94477 -1.8387 0)
(8.7665 -1.83429 -5.94832e-18)
(8.59127 -1.8281 -2.93665e-18)
(8.41936 -1.82034 2.90162e-18)
(8.25111 -1.81121 1.07818e-23)
(8.08704 -1.80096 -3.24414e-25)
(7.92751 -1.7898 5.61522e-18)
(7.77315 -1.77801 -2.77891e-18)
(7.62462 -1.76584 0)
(7.48263 -1.75363 -2.72271e-18)
(7.34766 -1.74158 0)
(7.22058 -1.73004 2.6647e-18)
(7.10244 -1.71937 -2.63365e-18)
(6.99425 -1.70996 0)
(6.89661 -1.70207 0)
(6.80972 -1.69587 -2.52754e-18)
(6.73371 -1.6915 9.64569e-24)
(6.66865 -1.6891 9.17107e-24)
(6.61447 -1.68875 2.39957e-18)
(6.57091 -1.69048 -9.12836e-24)
(6.53755 -1.69428 0)
(6.514 -1.70011 0)
(6.49961 -1.7079 0)
(6.49349 -1.71747 -2.1482e-18)
(6.49448 -1.72857 9.84239e-24)
(6.5014 -1.74093 -7.93164e-24)
(6.51309 -1.7543 -1.98685e-18)
(6.52851 -1.76843 -7.23071e-24)
(6.54667 -1.78308 1.43381e-23)
(4.6929 -3.35036 2.09375e-22)
(2.88346 -2.26845 -7.32276e-18)
(0.550747 -0.429662 -7.58505e-18)
(-2.29206 2.59355 1.13948e-22)
(-5.49272 7.56109 0)
(-8.13901 15.2595 -7.80331e-18)
(-8.24573 26.1692 -3.85229e-20)
(-2.86201 38.1962 -8.55927e-19)
(8.49023 47.3869 0)
(21.7869 47.5437 7.77497e-18)
(31.3344 40.2516 -2.16761e-17)
(34.6659 30.6001 -6.81818e-21)
(33.8533 22.288 -7.90495e-23)
(31.313 16.1371 0)
(28.5883 11.8792 3.49546e-18)
(26.3325 8.98707 3.2151e-18)
(24.5887 6.97091 4.8291e-23)
(23.2718 5.51297 -1.4798e-18)
(22.2651 4.41423 2.14417e-23)
(21.45 3.54998 -4.31687e-23)