/*--------------------------------*- C++ -*----------------------------------*\
| =========                 |                                                 |
| \\      /  F ield         | OpenFOAM: The Open Source CFD Toolbox           |
|  \\    /   O peration     | Version:  2412                                  |
|   \\  /    A nd           | Website:  www.openfoam.com                      |
|    \\/     M anipulation  |                                                 |
\*---------------------------------------------------------------------------*/
FoamFile
{
    version     2.0;
    format      ascii;
    arch        "LSB;label=32;scalar=64";
    class       volScalarField;
    location    "300";
    object      nut;
}
// * * * * * * * * * * * * * * * * * * * * * * * * * * * * * * * * * * * * * //

dimensions      [0 2 -1 0 0 0 0];

internalField   nonuniform List<scalar> 
7418
(
2.60003e-13
8.59591e-13
8.15978e-13
7.1152e-13
7.97933e-13
7.07154e-13
7.09371e-12
1.66246e-11
1.65818e-11
1.28725e-11
1.09898e-11
1.00755e-11
9.69006e-12
9.74152e-12
1.00823e-11
1.03703e-11
1.04536e-11
1.04051e-11
1.02297e-11
1.00331e-11
9.92471e-12
9.89865e-12
9.93437e-12
9.98451e-12
1.00108e-11
1.00183e-11
1.00199e-11
1.00336e-11
1.00598e-11
1.00924e-11
1.01254e-11
1.01581e-11
1.01924e-11
1.02292e-11
1.0269e-11
1.03102e-11
1.0353e-11
1.03973e-11
1.04425e-11
1.04881e-11
1.05346e-11
1.05821e-11
1.06302e-11
1.06787e-11
1.07272e-11
1.07759e-11
1.08249e-11
1.08742e-11
1.09222e-11
1.09691e-11
1.10166e-11
1.10634e-11
1.11094e-11
1.1155e-11
1.11988e-11
1.12426e-11
1.12857e-11
1.13277e-11
1.13682e-11
1.14067e-11
1.14445e-11
1.1482e-11
1.15174e-11
1.15507e-11
1.15838e-11
1.16156e-11
1.16464e-11
1.16754e-11
1.17025e-11
1.17294e-11
1.17554e-11
1.17798e-11
1.1804e-11
1.18255e-11
1.18423e-11
1.18592e-11
1.1874e-11
1.1887e-11
1.18983e-11
1.19072e-11
1.19149e-11
1.84885e-13
4.56382e-13
2.54952e-11
7.61093e-11
7.34072e-11
6.56652e-11
7.10852e-11
6.84806e-11
7.08883e-10
1.51745e-09
1.49877e-09
1.20365e-09
1.04422e-09
9.66151e-10
9.34467e-10
9.39895e-10
9.693e-10
9.9353e-10
1.00007e-09
9.94963e-10
9.79179e-10
9.61986e-10
9.52681e-10
9.50724e-10
9.54048e-10
9.58506e-10
9.60865e-10
9.61629e-10
9.61969e-10
9.63389e-10
9.65955e-10
9.69056e-10
9.72207e-10
9.75348e-10
9.78632e-10
9.82198e-10
9.86011e-10
9.89956e-10
9.94049e-10
9.98282e-10
1.00261e-09
1.007e-09
1.01149e-09
1.01603e-09
1.02063e-09
1.02529e-09
1.02993e-09
1.03461e-09
1.03931e-09
1.04401e-09
1.04865e-09
1.05322e-09
1.05777e-09
1.06228e-09
1.06671e-09
1.07109e-09
1.07536e-09
1.07956e-09
1.08368e-09
1.08772e-09
1.09165e-09
1.0954e-09
1.09905e-09
1.10263e-09
1.10608e-09
1.10937e-09
1.11257e-09
1.11564e-09
1.1186e-09
1.12143e-09
1.12411e-09
1.12669e-09
1.12918e-09
1.13158e-09
1.1339e-09
1.13601e-09
1.13767e-09
1.13928e-09
1.14072e-09
1.14198e-09
1.14309e-09
1.14398e-09
1.14473e-09
1.70013e-11
4.12343e-11
2.7117e-10
6.63564e-10
6.49934e-10
6.03883e-10
6.25397e-10
7.97517e-10
7.36147e-09
1.37216e-08
1.34094e-08
1.13107e-08
1.00549e-08
9.4367e-09
9.19952e-09
9.25711e-09
9.49765e-09
9.68567e-09
9.72747e-09
9.67164e-09
9.5343e-09
9.39234e-09
9.31801e-09
9.30618e-09
9.33704e-09
9.37569e-09
9.39651e-09
9.40462e-09
9.41056e-09
9.42621e-09
9.4516e-09
9.48145e-09
9.51203e-09
9.54273e-09
9.57487e-09
9.60986e-09
9.64704e-09
9.68548e-09
9.72525e-09
9.76632e-09
9.80831e-09
9.85109e-09
9.89491e-09
9.93912e-09
9.98399e-09
1.00294e-08
1.00747e-08
1.01204e-08
1.01661e-08
1.02117e-08
1.02572e-08
1.0302e-08
1.03465e-08
1.03905e-08
1.04339e-08
1.04767e-08
1.05187e-08
1.05598e-08
1.06001e-08
1.06395e-08
1.06781e-08
1.07152e-08
1.07511e-08
1.07861e-08
1.082e-08
1.08526e-08
1.08841e-08
1.09142e-08
1.09434e-08
1.09715e-08
1.0998e-08
1.10232e-08
1.10478e-08
1.10716e-08
1.10944e-08
1.11154e-08
1.11318e-08
1.11476e-08
1.11617e-08
1.1174e-08
1.1185e-08
1.11941e-08
1.12015e-08
1.55802e-10
3.70651e-10
1.60677e-09
2.86017e-09
2.82693e-09
2.74439e-09
2.74125e-09
5.56854e-09
3.83246e-08
6.13125e-08
5.95654e-08
5.31637e-08
4.86419e-08
4.64306e-08
4.56705e-08
4.59602e-08
4.68539e-08
4.74908e-08
4.75691e-08
4.72695e-08
4.67004e-08
4.6158e-08
4.58914e-08
4.5875e-08
4.60161e-08
4.61759e-08
4.62651e-08
4.63092e-08
4.6353e-08
4.64397e-08
4.65661e-08
4.67107e-08
4.68587e-08
4.70089e-08
4.71677e-08
4.73392e-08
4.75206e-08
4.77078e-08
4.79015e-08
4.81013e-08
4.83062e-08
4.85154e-08
4.87289e-08
4.89449e-08
4.91638e-08
4.9385e-08
4.96072e-08
4.98303e-08
5.00535e-08
5.02766e-08
5.04983e-08
5.07178e-08
5.09357e-08
5.11515e-08
5.13647e-08
5.15747e-08
5.17809e-08
5.19833e-08
5.2181e-08
5.23748e-08
5.25639e-08
5.27472e-08
5.29248e-08
5.30974e-08
5.32642e-08
5.34245e-08
5.35805e-08
5.37299e-08
5.38739e-08
5.40122e-08
5.41429e-08
5.42681e-08
5.43894e-08
5.45066e-08
5.46194e-08
5.4724e-08
5.48053e-08
5.48832e-08
5.49526e-08
5.50135e-08
5.50674e-08
5.51128e-08
5.51492e-08
7.06459e-10
1.66411e-09
7.32235e-09
8.77418e-09
8.65009e-09
8.78312e-09
8.69076e-09
2.84752e-08
1.39529e-07
1.93019e-07
1.87732e-07
1.77908e-07
1.67922e-07
1.63218e-07
1.61999e-07
1.6294e-07
1.64918e-07
1.66064e-07
1.6587e-07
1.64772e-07
1.63214e-07
1.61917e-07
1.61363e-07
1.61459e-07
1.61905e-07
1.62346e-07
1.62611e-07
1.62785e-07
1.62993e-07
1.63331e-07
1.63778e-07
1.64275e-07
1.64784e-07
1.65308e-07
1.65864e-07
1.6646e-07
1.67087e-07
1.67735e-07
1.68404e-07
1.69095e-07
1.69805e-07
1.7053e-07
1.71269e-07
1.72017e-07
1.72774e-07
1.7354e-07
1.7431e-07
1.75084e-07
1.75858e-07
1.76631e-07
1.774e-07
1.78162e-07
1.7892e-07
1.7967e-07
1.80412e-07
1.81142e-07
1.81859e-07
1.82564e-07
1.83253e-07
1.83928e-07
1.84587e-07
1.85226e-07
1.85846e-07
1.86448e-07
1.8703e-07
1.87591e-07
1.88135e-07
1.88658e-07
1.89161e-07
1.89642e-07
1.901e-07
1.90539e-07
1.90963e-07
1.9137e-07
1.91763e-07
1.92132e-07
1.92418e-07
1.92689e-07
1.92931e-07
1.93145e-07
1.93334e-07
1.93492e-07
1.93618e-07
2.26603e-09
5.395e-09
2.76256e-08
2.22584e-08
2.15525e-08
2.28033e-08
2.57394e-08
1.1852e-07
4.02082e-07
4.92384e-07
4.83014e-07
4.86184e-07
4.73774e-07
4.68901e-07
4.69251e-07
4.71411e-07
4.73538e-07
4.73684e-07
4.71839e-07
4.68736e-07
4.6569e-07
4.63786e-07
4.63327e-07
4.64019e-07
4.6512e-07
4.66031e-07
4.66647e-07
4.6721e-07
4.67969e-07
4.69034e-07
4.70316e-07
4.71693e-07
4.73111e-07
4.74594e-07
4.76172e-07
4.7785e-07
4.79612e-07
4.8143e-07
4.83308e-07
4.85249e-07
4.87238e-07
4.8927e-07
4.91342e-07
4.93442e-07
4.95568e-07
4.97716e-07
4.99878e-07
5.0205e-07
5.04222e-07
5.0639e-07
5.0855e-07
5.10695e-07
5.12826e-07
5.14936e-07
5.17017e-07
5.1907e-07
5.21087e-07
5.23068e-07
5.2501e-07
5.26908e-07
5.28759e-07
5.30558e-07
5.32307e-07
5.34003e-07
5.35642e-07
5.37221e-07
5.38749e-07
5.40222e-07
5.41637e-07
5.4299e-07
5.44279e-07
5.45517e-07
5.46707e-07
5.4785e-07
5.48953e-07
5.49995e-07
5.50802e-07
5.51563e-07
5.52244e-07
5.52851e-07
5.53384e-07
5.53831e-07
5.54186e-07
5.94518e-09
1.6911e-08
9.05282e-08
5.83282e-08
4.74202e-08
5.18031e-08
8.09674e-08
4.24614e-07
9.74543e-07
1.09288e-06
1.08799e-06
1.16063e-06
1.16689e-06
1.17451e-06
1.1834e-06
1.18667e-06
1.18317e-06
1.17618e-06
1.16878e-06
1.16171e-06
1.15788e-06
1.15759e-06
1.15917e-06
1.16182e-06
1.16406e-06
1.16546e-06
1.16667e-06
1.16825e-06
1.17053e-06
1.17341e-06
1.17659e-06
1.17988e-06
1.1833e-06
1.18692e-06
1.19079e-06
1.19488e-06
1.19915e-06
1.20356e-06
1.20811e-06
1.21281e-06
1.21763e-06
1.22254e-06
1.22756e-06
1.23264e-06
1.23779e-06
1.24299e-06
1.24822e-06
1.25348e-06
1.25874e-06
1.26399e-06
1.26921e-06
1.27441e-06
1.27957e-06
1.28468e-06
1.28971e-06
1.29468e-06
1.29957e-06
1.30436e-06
1.30906e-06
1.31364e-06
1.31812e-06
1.32247e-06
1.32669e-06
1.3308e-06
1.33476e-06
1.33857e-06
1.34226e-06
1.34582e-06
1.34923e-06
1.35249e-06
1.3556e-06
1.35858e-06
1.36145e-06
1.36419e-06
1.36685e-06
1.36937e-06
1.37132e-06
1.37316e-06
1.3748e-06
1.37626e-06
1.37755e-06
1.37864e-06
1.37951e-06
1.38392e-08
5.22941e-08
2.65161e-07
1.57564e-07
9.77682e-08
1.08805e-07
2.53459e-07
1.28085e-06
2.06241e-06
2.20159e-06
2.23255e-06
2.51415e-06
2.60138e-06
2.65613e-06
2.68881e-06
2.68947e-06
2.66329e-06
2.63348e-06
2.61226e-06
2.59922e-06
2.59922e-06
2.60786e-06
2.6169e-06
2.62445e-06
2.62826e-06
2.62958e-06
2.6317e-06
2.63568e-06
2.64161e-06
2.64847e-06
2.65547e-06
2.66252e-06
2.66988e-06
2.6778e-06
2.68625e-06
2.69514e-06
2.70438e-06
2.7139e-06
2.72374e-06
2.73389e-06
2.7443e-06
2.75492e-06
2.76573e-06
2.7767e-06
2.78781e-06
2.79903e-06
2.81032e-06
2.82166e-06
2.833e-06
2.84434e-06
2.85562e-06
2.86682e-06
2.87793e-06
2.88893e-06
2.89979e-06
2.91049e-06
2.92102e-06
2.93134e-06
2.94145e-06
2.9513e-06
2.96093e-06
2.97027e-06
2.97935e-06
2.98815e-06
2.99664e-06
3.00484e-06
3.01275e-06
3.02037e-06
3.02767e-06
3.03465e-06
3.0413e-06
3.04767e-06
3.05378e-06
3.05961e-06
3.06526e-06
3.0707e-06
3.07488e-06
3.07881e-06
3.08232e-06
3.08547e-06
3.08823e-06
3.0906e-06
3.09249e-06
3.06898e-08
1.54259e-07
7.01547e-07
4.13929e-07
2.08482e-07
2.28118e-07
7.67757e-07
3.11688e-06
3.91557e-06
4.13751e-06
4.28118e-06
5.06017e-06
5.35866e-06
5.52549e-06
5.60247e-06
5.58539e-06
5.5007e-06
5.41903e-06
5.37149e-06
5.35364e-06
5.37054e-06
5.40432e-06
5.43152e-06
5.4488e-06
5.45394e-06
5.4536e-06
5.45713e-06
5.46623e-06
5.47974e-06
5.49428e-06
5.50821e-06
5.52182e-06
5.53617e-06
5.55181e-06
5.56852e-06
5.58597e-06
5.604e-06
5.62258e-06
5.64178e-06
5.66158e-06
5.68188e-06
5.70258e-06
5.72366e-06
5.74504e-06
5.76669e-06
5.78856e-06
5.81056e-06
5.83263e-06
5.8547e-06
5.87677e-06
5.89873e-06
5.92052e-06
5.94214e-06
5.96352e-06
5.98465e-06
6.00546e-06
6.02588e-06
6.04594e-06
6.06556e-06
6.08468e-06
6.10334e-06
6.12145e-06
6.13904e-06
6.15609e-06
6.17252e-06
6.18835e-06
6.20365e-06
6.21835e-06
6.23244e-06
6.2459e-06
6.25871e-06
6.27095e-06
6.28266e-06
6.29378e-06
6.30458e-06
6.31517e-06
6.32324e-06
6.33081e-06
6.33761e-06
6.34368e-06
6.34905e-06
6.35367e-06
6.35738e-06
7.28281e-08
4.25417e-07
1.69178e-06
1.02689e-06
4.81882e-07
5.35994e-07
2.21571e-06
6.34235e-06
6.8194e-06
7.39077e-06
7.82049e-06
9.59903e-06
1.02916e-05
1.06386e-05
1.07604e-05
1.06867e-05
1.04915e-05
1.03238e-05
1.02415e-05
1.02305e-05
1.02896e-05
1.03732e-05
1.04324e-05
1.0464e-05
1.04686e-05
1.04642e-05
1.04705e-05
1.04892e-05
1.0516e-05
1.05432e-05
1.05678e-05
1.05915e-05
1.06168e-05
1.06445e-05
1.06742e-05
1.07049e-05
1.07365e-05
1.07691e-05
1.08028e-05
1.08375e-05
1.0873e-05
1.09092e-05
1.09461e-05
1.09836e-05
1.10214e-05
1.10597e-05
1.10982e-05
1.11368e-05
1.11754e-05
1.12139e-05
1.12523e-05
1.12904e-05
1.13282e-05
1.13655e-05
1.14024e-05
1.14387e-05
1.14744e-05
1.15093e-05
1.15435e-05
1.15768e-05
1.16094e-05
1.16409e-05
1.16715e-05
1.17011e-05
1.17297e-05
1.17572e-05
1.17837e-05
1.18092e-05
1.18335e-05
1.18568e-05
1.18789e-05
1.18999e-05
1.192e-05
1.19388e-05
1.19573e-05
1.19758e-05
1.19897e-05
1.20028e-05
1.20145e-05
1.2025e-05
1.20343e-05
1.20424e-05
1.20489e-05
1.76583e-07
1.09304e-06
3.73802e-06
2.38196e-06
1.12876e-06
1.3151e-06
5.97712e-06
1.12698e-05
1.10835e-05
1.27009e-05
1.38235e-05
1.72203e-05
1.83926e-05
1.8901e-05
1.90076e-05
1.88158e-05
1.8469e-05
1.8205e-05
1.81017e-05
1.81261e-05
1.82593e-05
1.84128e-05
1.85107e-05
1.85557e-05
1.8556e-05
1.85465e-05
1.85589e-05
1.85928e-05
1.86385e-05
1.86824e-05
1.87209e-05
1.87577e-05
1.87974e-05
1.88413e-05
1.8888e-05
1.8936e-05
1.89854e-05
1.90362e-05
1.90887e-05
1.91429e-05
1.91982e-05
1.92547e-05
1.93122e-05
1.93704e-05
1.94294e-05
1.9489e-05
1.95488e-05
1.96089e-05
1.9669e-05
1.9729e-05
1.97886e-05
1.98479e-05
1.99067e-05
1.99648e-05
2.00221e-05
2.00785e-05
2.01339e-05
2.01882e-05
2.02412e-05
2.02929e-05
2.03433e-05
2.03922e-05
2.04397e-05
2.04854e-05
2.05296e-05
2.0572e-05
2.06129e-05
2.06521e-05
2.06895e-05
2.07251e-05
2.07589e-05
2.07909e-05
2.08211e-05
2.08493e-05
2.08769e-05
2.09057e-05
2.0927e-05
2.09468e-05
2.09646e-05
2.09805e-05
2.09947e-05
2.10072e-05
2.1017e-05
4.23695e-07
2.61389e-06
7.58508e-06
5.14592e-06
2.58004e-06
3.21166e-06
1.36591e-05
1.80726e-05
1.73189e-05
2.11088e-05
2.37584e-05
2.89646e-05
3.04019e-05
3.09065e-05
3.08824e-05
3.05196e-05
3.00269e-05
2.97048e-05
2.96248e-05
2.97231e-05
2.99505e-05
3.0172e-05
3.02978e-05
3.03473e-05
3.03395e-05
3.03278e-05
3.03517e-05
3.04056e-05
3.04726e-05
3.05341e-05
3.05872e-05
3.06386e-05
3.06946e-05
3.07565e-05
3.0822e-05
3.08892e-05
3.0958e-05
3.10287e-05
3.1102e-05
3.11775e-05
3.12546e-05
3.13332e-05
3.14132e-05
3.14943e-05
3.15764e-05
3.16593e-05
3.17426e-05
3.18262e-05
3.19097e-05
3.19932e-05
3.20763e-05
3.21587e-05
3.22404e-05
3.23212e-05
3.24009e-05
3.24793e-05
3.25562e-05
3.26316e-05
3.27052e-05
3.27769e-05
3.28468e-05
3.29145e-05
3.29801e-05
3.30434e-05
3.31043e-05
3.31628e-05
3.3219e-05
3.32728e-05
3.3324e-05
3.33725e-05
3.34182e-05
3.34613e-05
3.35015e-05
3.35385e-05
3.35749e-05
3.36145e-05
3.36433e-05
3.36698e-05
3.36935e-05
3.37148e-05
3.37338e-05
3.37506e-05
3.37633e-05
9.90585e-07
5.79728e-06
1.41414e-05
1.03139e-05
5.64771e-06
7.6175e-06
2.45801e-05
2.6891e-05
2.64251e-05
3.38132e-05
3.89278e-05
4.52064e-05
4.64546e-05
4.67176e-05
4.64536e-05
4.59114e-05
4.53347e-05
4.50337e-05
4.50349e-05
4.52355e-05
4.55498e-05
4.581e-05
4.59383e-05
4.59791e-05
4.59626e-05
4.59555e-05
4.59966e-05
4.60718e-05
4.61582e-05
4.62346e-05
4.63007e-05
4.63661e-05
4.6438e-05
4.65172e-05
4.66003e-05
4.66853e-05
4.67722e-05
4.68619e-05
4.69546e-05
4.705e-05
4.71475e-05
4.72469e-05
4.7348e-05
4.74505e-05
4.75542e-05
4.7659e-05
4.77642e-05
4.78698e-05
4.79754e-05
4.80808e-05
4.81857e-05
4.82898e-05
4.8393e-05
4.8495e-05
4.85955e-05
4.86944e-05
4.87913e-05
4.88863e-05
4.89789e-05
4.90691e-05
4.9157e-05
4.9242e-05
4.93243e-05
4.94035e-05
4.94795e-05
4.95525e-05
4.96224e-05
4.9689e-05
4.97521e-05
4.98116e-05
4.98673e-05
4.99193e-05
4.9967e-05
5.001e-05
5.00525e-05
5.01011e-05
5.01359e-05
5.01673e-05
5.01953e-05
5.02202e-05
5.02424e-05
5.0262e-05
5.02762e-05
2.24138e-06
1.18407e-05
2.42302e-05
1.90834e-05
1.16607e-05
1.71079e-05
3.77085e-05
3.79733e-05
3.95537e-05
5.15995e-05
5.93427e-05
6.54343e-05
6.60847e-05
6.59205e-05
6.53704e-05
6.46947e-05
6.41293e-05
6.39348e-05
6.40611e-05
6.43657e-05
6.4733e-05
6.49884e-05
6.50906e-05
6.5112e-05
6.50901e-05
6.50959e-05
6.51577e-05
6.52522e-05
6.53524e-05
6.54387e-05
6.55147e-05
6.55919e-05
6.56776e-05
6.57712e-05
6.58686e-05
6.59678e-05
6.60696e-05
6.61747e-05
6.62833e-05
6.63948e-05
6.65089e-05
6.66251e-05
6.67433e-05
6.68632e-05
6.69845e-05
6.71069e-05
6.72299e-05
6.73534e-05
6.74768e-05
6.76e-05
6.77225e-05
6.78441e-05
6.79647e-05
6.80837e-05
6.82009e-05
6.83161e-05
6.84291e-05
6.85396e-05
6.86473e-05
6.87521e-05
6.8854e-05
6.89525e-05
6.90476e-05
6.91389e-05
6.92264e-05
6.93101e-05
6.939e-05
6.94657e-05
6.9537e-05
6.96037e-05
6.96656e-05
6.97226e-05
6.97736e-05
6.98182e-05
6.98623e-05
6.99158e-05
6.99537e-05
6.99869e-05
7.00161e-05
7.00417e-05
7.00642e-05
7.0084e-05
7.0097e-05
4.86116e-06
2.21594e-05
3.82453e-05
3.24898e-05
2.23457e-05
3.51188e-05
5.2111e-05
5.16813e-05
5.76992e-05
7.41875e-05
8.37226e-05
8.86491e-05
8.85225e-05
8.78632e-05
8.70548e-05
8.63249e-05
8.5862e-05
8.58326e-05
8.60968e-05
8.64808e-05
8.68555e-05
8.70658e-05
8.71211e-05
8.71193e-05
8.70981e-05
8.71234e-05
8.72063e-05
8.73152e-05
8.74226e-05
8.75136e-05
8.75963e-05
8.76829e-05
8.77793e-05
8.78834e-05
8.7991e-05
8.81005e-05
8.82129e-05
8.83291e-05
8.84492e-05
8.85724e-05
8.86983e-05
8.88266e-05
8.89571e-05
8.90894e-05
8.92233e-05
8.93583e-05
8.9494e-05
8.96301e-05
8.97661e-05
8.99019e-05
9.00369e-05
9.01708e-05
9.03035e-05
9.04344e-05
9.05632e-05
9.06898e-05
9.08136e-05
9.09347e-05
9.10526e-05
9.11671e-05
9.12782e-05
9.13854e-05
9.14885e-05
9.15873e-05
9.16816e-05
9.17713e-05
9.18566e-05
9.19368e-05
9.20116e-05
9.20809e-05
9.21444e-05
9.22016e-05
9.22511e-05
9.22924e-05
9.23329e-05
9.23857e-05
9.24229e-05
9.24541e-05
9.24807e-05
9.25032e-05
9.25223e-05
9.25387e-05
9.25471e-05
1.00226e-05
3.78632e-05
5.59211e-05
5.09636e-05
3.94577e-05
5.71492e-05
6.7451e-05
6.83111e-05
8.08442e-05
0.000100365
0.000110533
0.000113921
0.000113036
0.000111917
0.000110925
0.000110222
0.000109922
0.000110077
0.000110463
0.000110888
0.000111229
0.000111368
0.000111368
0.000111346
0.000111332
0.00011138
0.000111482
0.0001116
0.000111709
0.000111801
0.000111888
0.000111981
0.000112086
0.000112197
0.000112311
0.000112427
0.000112547
0.000112671
0.000112799
0.000112929
0.000113063
0.000113199
0.000113338
0.000113478
0.00011362
0.000113763
0.000113907
0.000114051
0.000114195
0.000114339
0.000114482
0.000114623
0.000114763
0.000114902
0.000115037
0.00011517
0.000115301
0.000115428
0.000115551
0.000115671
0.000115786
0.000115898
0.000116004
0.000116106
0.000116203
0.000116294
0.00011638
0.00011646
0.000116534
0.000116601
0.000116662
0.000116714
0.000116758
0.000116791
0.000116822
0.000116868
0.0001169
0.000116925
0.000116945
0.00011696
0.000116971
0.00011698
0.00011698
1.94303e-05
5.91741e-05
7.64514e-05
7.41855e-05
6.4203e-05
7.9613e-05
8.37715e-05
8.78882e-05
0.000107775
0.000128796
0.000138746
0.000140658
0.000139134
0.000137645
0.000136553
0.000135937
0.000135824
0.000136151
0.000136625
0.000137055
0.000137335
0.000137391
0.000137338
0.0001373
0.000137299
0.000137371
0.000137489
0.000137611
0.000137718
0.000137808
0.000137898
0.000137998
0.000138108
0.000138225
0.000138343
0.000138464
0.000138589
0.000138717
0.00013885
0.000138986
0.000139125
0.000139266
0.00013941
0.000139555
0.000139702
0.00013985
0.000139999
0.000140148
0.000140296
0.000140444
0.000140592
0.000140737
0.000140881
0.000141023
0.000141162
0.000141298
0.000141431
0.00014156
0.000141685
0.000141806
0.000141923
0.000142034
0.000142141
0.000142242
0.000142336
0.000142425
0.000142508
0.000142584
0.000142653
0.000142714
0.000142767
0.00014281
0.000142843
0.000142862
0.000142879
0.00014291
0.000142934
0.000142948
0.000142956
0.000142959
0.000142958
0.000142953
0.00014294
3.49975e-05
8.51691e-05
9.87855e-05
0.00010143
9.65635e-05
0.000100929
0.000101307
0.000110455
0.000137013
0.000158609
0.00016793
0.00016861
0.0001666
0.00016484
0.00016372
0.000163223
0.000163294
0.000163762
0.000164289
0.000164694
0.000164897
0.000164872
0.000164772
0.000164726
0.000164741
0.000164836
0.000164966
0.00016509
0.000165193
0.000165282
0.000165375
0.00016548
0.000165595
0.000165716
0.000165837
0.000165962
0.00016609
0.000166223
0.000166359
0.000166499
0.000166641
0.000166786
0.000166933
0.000167081
0.000167231
0.000167382
0.000167534
0.000167685
0.000167837
0.000167987
0.000168136
0.000168284
0.000168429
0.000168572
0.000168711
0.000168848
0.00016898
0.000169109
0.000169233
0.000169352
0.000169467
0.000169575
0.000169678
0.000169774
0.000169864
0.000169947
0.000170022
0.00017009
0.00017015
0.0001702
0.000170241
0.000170271
0.000170287
0.000170289
0.000170284
0.000170292
0.000170301
0.000170299
0.00017029
0.000170275
0.000170255
0.000170232
0.000170199
5.55549e-05
0.000114212
0.000121901
0.000132126
0.000126988
0.000120898
0.000120408
0.000135921
0.000167558
0.000189456
0.000198065
0.000197792
0.00019543
0.000193492
0.000192393
0.000192025
0.000192255
0.00019283
0.000193379
0.000193739
0.000193861
0.000193762
0.000193624
0.000193576
0.00019361
0.000193726
0.000193866
0.000193989
0.000194088
0.000194176
0.000194273
0.000194383
0.000194503
0.000194627
0.000194752
0.000194879
0.000195011
0.000195147
0.000195287
0.00019543
0.000195575
0.000195722
0.000195872
0.000196023
0.000196175
0.000196328
0.000196481
0.000196634
0.000196786
0.000196938
0.000197087
0.000197234
0.000197379
0.000197521
0.000197659
0.000197794
0.000197924
0.000198049
0.000198169
0.000198284
0.000198393
0.000198496
0.000198591
0.00019868
0.00019876
0.000198833
0.000198897
0.000198953
0.000198998
0.000199033
0.000199057
0.000199068
0.000199062
0.000199039
0.000199006
0.000198979
0.000198969
0.000198943
0.000198911
0.00019887
0.000198824
0.000198773
0.000198714
7.65542e-05
0.000140401
0.000145038
0.0001661
0.000154206
0.000140123
0.0001414
0.000164015
0.000199172
0.000221339
0.000229341
0.000228369
0.000225727
0.000223719
0.000222662
0.000222417
0.000222777
0.000223425
0.000223971
0.000224277
0.00022432
0.000224156
0.00022399
0.000223945
0.000223998
0.000224133
0.00022428
0.000224403
0.000224499
0.000224587
0.000224688
0.000224804
0.00022493
0.000225057
0.000225186
0.000225317
0.000225452
0.000225592
0.000225735
0.000225881
0.000226029
0.000226179
0.00022633
0.000226483
0.000226637
0.000226791
0.000226945
0.000227098
0.00022725
0.0002274
0.000227548
0.000227694
0.000227836
0.000227975
0.00022811
0.00022824
0.000228365
0.000228484
0.000228597
0.000228704
0.000228805
0.000228897
0.000228982
0.000229058
0.000229126
0.000229184
0.000229232
0.000229269
0.000229295
0.000229308
0.000229308
0.000229293
0.000229259
0.000229204
0.000229134
0.000229058
0.00022902
0.000228964
0.000228898
0.000228823
0.00022874
0.000228651
0.000228554
9.66701e-05
0.00016298
0.00016782
0.000198835
0.00017812
0.000159338
0.00016465
0.000194439
0.000232076
0.000254433
0.000261998
0.000260581
0.000257702
0.000255697
0.000254687
0.000254548
0.000255008
0.0002557
0.000256225
0.000256473
0.000256445
0.000256228
0.000256042
0.000256003
0.000256075
0.000256227
0.000256381
0.000256502
0.000256596
0.000256687
0.000256793
0.000256916
0.000257047
0.000257179
0.000257311
0.000257446
0.000257586
0.00025773
0.000257876
0.000258025
0.000258175
0.000258327
0.000258481
0.000258635
0.000258789
0.000258943
0.000259096
0.000259249
0.000259399
0.000259547
0.000259692
0.000259834
0.000259971
0.000260104
0.000260233
0.000260355
0.000260471
0.000260581
0.000260684
0.000260779
0.000260866
0.000260944
0.000261013
0.000261072
0.00026112
0.000261157
0.000261182
0.000261194
0.000261193
0.000261178
0.000261146
0.000261096
0.000261024
0.000260928
0.00026081
0.000115515
0.000182607
0.000190246
0.000228179
0.000199187
0.000179317
0.000190335
0.00022688
0.000266501
0.000288977
0.000296264
0.000294628
0.000291575
0.000289609
0.000288645
0.000288592
0.000289121
0.000289835
0.00029033
0.00029052
0.000290431
0.000290172
0.000289976
0.000289943
0.000290033
0.0002902
0.00029036
0.000290482
0.000290575
0.000290669
0.000290782
0.000290912
0.000291049
0.000291186
0.000291323
0.000291463
0.000291607
0.000291755
0.000291905
0.000292056
0.000292209
0.000292362
0.000292517
0.000292671
0.000292825
0.000292978
0.000293129
0.000293278
0.000293424
0.000293568
0.000293707
0.000293842
0.000293972
0.000294096
0.000294213
0.000294324
0.000294428
0.000294523
0.00029461
0.000294688
0.000294756
0.000294813
0.000294859
0.000294893
0.000294915
0.000294923
0.000294917
0.000294895
0.000294857
0.000294803
0.000294729
0.000294633
0.000294512
0.000294363
0.000294186
0.000133348
0.000200036
0.000212718
0.00025521
0.000218644
0.000200666
0.000218492
0.000261435
0.000302644
0.000325225
0.000332389
0.000330695
0.000327556
0.000325619
0.000324701
0.00032471
0.000325284
0.000326002
0.000326463
0.000326602
0.000326463
0.000326172
0.000325972
0.000325948
0.000326055
0.000326235
0.000326401
0.000326524
0.000326619
0.000326718
0.000326838
0.000326976
0.00032712
0.000327263
0.000327405
0.00032755
0.000327698
0.00032785
0.000328003
0.000328156
0.00032831
0.000328465
0.000328619
0.000328772
0.000328923
0.000329072
0.000329219
0.000329363
0.000329502
0.000329637
0.000329767
0.000329891
0.000330009
0.000330119
0.000330221
0.000330315
0.000330399
0.000330474
0.000330539
0.000330592
0.000330633
0.000330662
0.000330676
0.000330676
0.000330661
0.00033063
0.000330582
0.000330515
0.000330428
0.000330322
0.000330192
0.000330037
0.000329852
0.000329635
0.000329387
0.000150892
0.000216014
0.000235609
0.000279687
0.000237613
0.000223899
0.000249455
0.000298241
0.00034066
0.00036337
0.000370528
0.000368899
0.000365786
0.000363852
0.000362982
0.000363034
0.000363634
0.000364346
0.000364771
0.000364867
0.000364689
0.000364377
0.000364178
0.000364164
0.000364287
0.00036448
0.000364652
0.000364778
0.000364877
0.000364982
0.00036511
0.000365257
0.000365408
0.000365557
0.000365704
0.000365854
0.000366007
0.000366162
0.000366317
0.000366471
0.000366626
0.000366779
0.00036693
0.00036708
0.000367226
0.000367369
0.000367508
0.000367642
0.000367771
0.000367893
0.000368009
0.000368117
0.000368216
0.000368306
0.000368386
0.000368455
0.000368513
0.000368559
0.000368592
0.000368612
0.000368616
0.000368605
0.000368577
0.000368532
0.000368468
0.000368384
0.00036828
0.000368153
0.000368003
0.000367828
0.000367627
0.000367395
0.000367128
0.000366826
0.000366489
0.000169167
0.000231285
0.000260273
0.000301634
0.000256905
0.000249493
0.000283583
0.000337374
0.000380656
0.00040353
0.000410761
0.0004093
0.000406303
0.000404389
0.000403567
0.000403648
0.00040426
0.000404959
0.000405352
0.000405414
0.000405208
0.000404885
0.000404692
0.000404689
0.000404828
0.000405034
0.000405213
0.000405343
0.000405447
0.00040556
0.000405698
0.000405853
0.000406012
0.000406166
0.000406319
0.000406473
0.000406629
0.000406786
0.000406942
0.000407096
0.000407249
0.000407398
0.000407545
0.000407687
0.000407825
0.000407957
0.000408084
0.000408204
0.000408316
0.00040842
0.000408514
0.000408599
0.000408672
0.000408734
0.000408783
0.000408819
0.000408841
0.000408847
0.000408838
0.000408812
0.000408767
0.000408703
0.000408619
0.000408513
0.000408385
0.000408232
0.000408055
0.00040785
0.000407618
0.000407355
0.000407061
0.000406731
0.000406361
0.000405951
0.000405506
0.000189337
0.000246557
0.000288352
0.000321917
0.000277263
0.000277982
0.000320954
0.000378831
0.000422691
0.00044574
0.000453106
0.000451905
0.000449085
0.000447249
0.000446478
0.000446579
0.000447193
0.000447875
0.00044824
0.000448278
0.000448057
0.000447732
0.00044755
0.000447561
0.000447714
0.000447932
0.000448119
0.000448256
0.000448367
0.000448489
0.000448636
0.0004488
0.000448966
0.000449126
0.000449283
0.00044944
0.000449599
0.000449756
0.000449911
0.000450062
0.000450209
0.000450352
0.000450489
0.00045062
0.000450744
0.000450861
0.000450969
0.000451068
0.000451157
0.000451234
0.000451299
0.000451352
0.00045139
0.000451413
0.00045142
0.000451411
0.000451384
0.000451338
0.000451272
0.000451185
0.000451076
0.000450943
0.000450785
0.000450601
0.000450389
0.000450148
0.000449876
0.000449572
0.000449234
0.00044886
0.000448448
0.000447994
0.000447495
0.000446951
0.000446371
0.00021255
0.000262372
0.000317012
0.000341253
0.00029951
0.000309647
0.000361328
0.000422561
0.000466751
0.000489966
0.000497519
0.000496663
0.000494089
0.000492376
0.000491666
0.000491783
0.000492394
0.000493056
0.000493397
0.000493421
0.000493195
0.000492879
0.000492713
0.000492739
0.000492907
0.000493138
0.000493334
0.000493479
0.000493598
0.000493729
0.000493886
0.000494058
0.00049423
0.000494395
0.000494555
0.000494714
0.000494872
0.000495027
0.000495178
0.000495322
0.00049546
0.000495591
0.000495714
0.000495828
0.000495932
0.000496025
0.000496107
0.000496177
0.000496233
0.000496274
0.0004963
0.000496309
0.0004963
0.000496272
0.000496224
0.000496155
0.000496063
0.000495949
0.00049581
0.000495644
0.000495451
0.000495229
0.000494976
0.000494691
0.000494373
0.000494019
0.000493628
0.000493197
0.000492726
0.000492211
0.000491652
0.000491043
0.000490383
0.000489673
0.000488924
0.000239923
0.00027947
0.000344384
0.000360247
0.000324151
0.000344512
0.00040461
0.000468436
0.000512749
0.000536099
0.00054388
0.000543443
0.000541182
0.000539634
0.000538998
0.000539133
0.000539735
0.000540376
0.0005407
0.000540717
0.000540499
0.000540201
0.000540057
0.0005401
0.000540283
0.000540525
0.000540732
0.000540886
0.000541015
0.000541155
0.00054132
0.000541499
0.000541676
0.000541844
0.000542004
0.000542162
0.000542317
0.000542466
0.000542607
0.000542739
0.000542862
0.000542975
0.000543077
0.000543166
0.000543242
0.000543304
0.00054335
0.000543379
0.000543391
0.000543384
0.000543357
0.000543309
0.000543238
0.000543143
0.000543023
0.000542876
0.000542702
0.000542499
0.000542265
0.000542
0.0005417
0.000541364
0.000540991
0.000540579
0.000540126
0.00053963
0.000539088
0.000538499
0.000537861
0.000537172
0.000536429
0.000535628
0.000534769
0.000533853
0.000532893
0.000272467
0.000300585
0.000374274
0.000379755
0.000351538
0.000382765
0.000450626
0.00051625
0.00056052
0.000583956
0.000591996
0.000592013
0.000590129
0.000588786
0.000588245
0.0005884
0.00058899
0.000589611
0.00058992
0.000589941
0.00058974
0.00058947
0.000589354
0.000589415
0.000589613
0.000589867
0.000590083
0.000590248
0.000590386
0.000590535
0.000590707
0.000590891
0.00059107
0.000591237
0.000591395
0.000591547
0.000591693
0.000591831
0.000591957
0.00059207
0.000592171
0.000592257
0.000592329
0.000592384
0.000592421
0.000592439
0.000592437
0.000592413
0.000592367
0.000592297
0.000592201
0.000592078
0.000591926
0.000591745
0.000591532
0.000591287
0.000591007
0.000590692
0.000590339
0.000589946
0.000589511
0.000589033
0.000588509
0.000587938
0.000587317
0.000586643
0.000585915
0.00058513
0.000584286
0.00058338
0.00058241
0.000581374
0.000580269
0.000579099
0.000577877
0.000311006
0.000329851
0.000403179
0.000400727
0.000381969
0.00042456
0.000499048
0.000565724
0.000609797
0.000633276
0.000641643
0.000642029
0.000640578
0.000639483
0.00063906
0.000639239
0.000639816
0.000640414
0.000640715
0.000640747
0.000640573
0.000640339
0.000640254
0.000640335
0.000640547
0.000640812
0.000641038
0.000641212
0.00064136
0.000641516
0.000641692
0.000641877
0.000642054
0.000642216
0.000642366
0.000642507
0.000642637
0.000642755
0.000642858
0.000642944
0.000643012
0.000643062
0.000643091
0.000643099
0.000643084
0.000643044
0.000642978
0.000642885
0.000642763
0.000642611
0.000642426
0.000642208
0.000641954
0.000641663
0.000641333
0.000640963
0.00064055
0.000640093
0.00063959
0.000639038
0.000638436
0.00063778
0.000637069
0.0006363
0.000635471
0.000634578
0.00063362
0.000632593
0.000631496
0.000630325
0.000629078
0.000627752
0.000626346
0.000624863
0.000623316
0.000356123
0.000362549
0.000435756
0.000424005
0.000415642
0.000469701
0.000549415
0.00061647
0.000660159
0.000683599
0.000692367
0.00069302
0.000692047
0.000691238
0.000690953
0.000691163
0.000691727
0.000692302
0.000692597
0.000692645
0.000692508
0.000692318
0.000692267
0.000692368
0.000692593
0.000692867
0.0006931
0.000693283
0.000693437
0.000693597
0.000693773
0.000693954
0.000694123
0.000694273
0.000694407
0.000694528
0.000694634
0.000694723
0.000694791
0.000694837
0.000694861
0.00069486