/*--------------------------------*- C++ -*----------------------------------*\
| =========                 |                                                 |
| \\      /  F ield         | OpenFOAM: The Open Source CFD Toolbox           |
|  \\    /   O peration     | Version:  2412                                  |
|   \\  /    A nd           | Website:  www.openfoam.com                      |
|    \\/     M anipulation  |                                                 |
\*---------------------------------------------------------------------------*/
FoamFile
{
    version     2.0;
    format      ascii;
    arch        "LSB;label=32;scalar=64";
    class       surfaceScalarField;
    location    "20";
    object      phi;
}
// * * * * * * * * * * * * * * * * * * * * * * * * * * * * * * * * * * * * * //

dimensions      [0 3 -1 0 0 0 0];

oriented        oriented;

internalField   nonuniform List<scalar> 
14667
(
-8.27524e-06
-2.18612e-08
-8.26521e-06
-9.32359e-09
-8.25522e-06
-9.57174e-09
-8.24675e-06
-7.65918e-09
-8.23963e-06
-6.75366e-09
-8.23297e-06
-5.68811e-09
-8.22748e-06
-3.0008e-09
-8.22246e-06
-5.97536e-09
-8.21795e-06
-3.80257e-09
-8.21382e-06
-3.54244e-09
-8.21034e-06
-3.31053e-09
-8.20711e-06
-3.03725e-09
-8.2045e-06
-2.927e-09
-8.20217e-06
-1.85518e-09
-8.20019e-06
-2.84138e-09
-8.19842e-06
-2.13322e-09
-8.19711e-06
-1.00558e-09
-8.19603e-06
-2.24253e-09
-8.19481e-06
-3.46899e-10
-8.19401e-06
-9.85878e-10
-8.19381e-06
-3.96604e-10
-8.19344e-06
-6.67382e-10
-8.19373e-06
6.6318e-11
-8.19395e-06
-2.06555e-10
-8.19423e-06
1.14742e-10
-8.19511e-06
5.59634e-10
-8.19574e-06
-2.76455e-09
-8.19695e-06
4.2591e-09
-8.19756e-06
-5.0116e-09
-8.19862e-06
6.36014e-09
-8.19969e-06
-3.80538e-09
-8.20086e-06
5.30749e-09
-8.20223e-06
7.58189e-10
-8.20352e-06
2.15138e-09
-8.20549e-06
1.86651e-09
-8.20739e-06
3.12481e-09
-8.20976e-06
2.3482e-09
-8.21196e-06
3.06229e-09
-8.21442e-06
2.54579e-09
-8.21704e-06
3.25453e-09
-8.22001e-06
3.33292e-09
-8.22286e-06
3.07414e-09
-8.22576e-06
2.44641e-09
-8.22833e-06
3.75718e-09
-8.23152e-06
2.20931e-10
-8.23476e-06
6.46205e-09
-8.23848e-06
2.11581e-09
-8.24189e-06
5.52158e-09
-8.24614e-06
3.51259e-09
-8.25034e-06
4.88391e-09
-8.25525e-06
6.23112e-09
-8.25963e-06
4.04046e-09
-8.26353e-06
2.29961e-09
-8.26843e-06
6.8422e-09
-8.27333e-06
3.92181e-09
-8.27798e-06
6.16862e-09
-8.2839e-06
6.0186e-09
-8.29013e-06
6.25672e-09
-8.29605e-06
6.09203e-09
-8.30222e-06
6.23999e-09
-8.30886e-06
6.66631e-09
-8.31588e-06
7.0533e-09
-8.32347e-06
7.59997e-09
-8.33154e-06
8.0567e-09
-8.34044e-06
8.91498e-09
-8.34989e-06
9.31982e-09
-8.3596e-06
9.90324e-09
-8.36993e-06
1.03271e-08
-8.38072e-06
1.08183e-08
-8.39236e-06
1.15487e-08
-8.40463e-06
1.22054e-08
-8.41787e-06
1.31193e-08
-8.43201e-06
1.40445e-08
1.48045e-08
-2.88071e-05
-9.95515e-08
-2.87709e-05
-4.42991e-08
-2.87358e-05
-4.398e-08
-2.87065e-05
-3.54213e-08
-2.868e-05
-3.2623e-08
-2.86576e-05
-2.62597e-08
-2.86369e-05
-1.99111e-08
-2.86191e-05
-2.50224e-08
-2.86026e-05
-1.90527e-08
-2.85888e-05
-1.63047e-08
-2.85759e-05
-1.59711e-08
-2.85646e-05
-1.40966e-08
-2.85549e-05
-1.32978e-08
-2.85468e-05
-9.4862e-09
-2.85393e-05
-1.16194e-08
-2.85332e-05
-9.10325e-09
-2.85281e-05
-5.58862e-09
-2.85238e-05
-8.79051e-09
-2.85209e-05
-1.78466e-09
-2.85188e-05
-3.43235e-09
-2.85176e-05
-2.07612e-09
-2.8517e-05
-1.8741e-09
-2.85168e-05
-5.52142e-10
-2.85182e-05
2.54989e-10
-2.85194e-05
9.99214e-10
-2.85218e-05
2.27116e-09
-2.85229e-05
-7.1584e-09
-2.85277e-05
1.38833e-08
-2.85307e-05
-1.10148e-08
-2.8534e-05
1.79856e-08
-2.85373e-05
-8.42492e-09
-2.85398e-05
1.42658e-08
-2.85459e-05
5.64551e-09
-2.85514e-05
9.2023e-09
-2.85573e-05
7.62133e-09
-2.85641e-05
1.22251e-08
-2.85715e-05
9.64737e-09
-2.85799e-05
1.32059e-08
-2.85882e-05
1.0895e-08
-2.85964e-05
1.26795e-08
-2.86059e-05
1.347e-08
-2.86165e-05
1.42332e-08
-2.86254e-05
1.03261e-08
-2.86362e-05
1.67585e-08
-2.86455e-05
4.69959e-09
-2.86569e-05
2.32129e-08
-2.86691e-05
1.15889e-08
-2.86813e-05
2.1351e-08
-2.8696e-05
1.68205e-08
-2.87109e-05
2.10943e-08
-2.87267e-05
2.39785e-08
-2.87426e-05
1.9682e-08
-2.87555e-05
1.25163e-08
-2.87712e-05
2.57703e-08
-2.87875e-05
1.85595e-08
-2.8804e-05
2.51888e-08
-2.88243e-05
2.64818e-08
-2.88442e-05
2.62757e-08
-2.88651e-05
2.72468e-08
-2.88863e-05
2.76214e-08
-2.89082e-05
2.85594e-08
-2.89315e-05
3.052e-08
-2.89576e-05
3.36987e-08
-2.89857e-05
3.61705e-08
-2.90158e-05
3.90367e-08
-2.90474e-05
4.07576e-08
-2.90809e-05
4.37939e-08
-2.91155e-05
4.48595e-08
-2.91521e-05
4.75084e-08
-2.9191e-05
5.03301e-08
-2.92335e-05
5.45161e-08
-2.92781e-05
5.75231e-08
-2.93265e-05
6.23519e-08
6.52509e-08
-5.62537e-05
-2.59974e-07
-5.6182e-05
-1.14684e-07
-5.61133e-05
-1.11972e-07
-5.60547e-05
-9.26099e-08
-5.60038e-05
-8.28822e-08
-5.59577e-05
-7.062e-08
-5.59181e-05
-5.55789e-08
-5.5882e-05
-6.23305e-08
-5.58498e-05
-5e-08
-5.58218e-05
-4.32749e-08
-5.57969e-05
-4.04903e-08
-5.57752e-05
-3.54692e-08
-5.57565e-05
-3.25286e-08
-5.57402e-05
-2.51315e-08
-5.57272e-05
-2.59173e-08
-5.57148e-05
-2.20004e-08
-5.57053e-05
-1.46447e-08
-5.5697e-05
-1.87956e-08
-5.56903e-05
-7.22558e-09
-5.56865e-05
-7.49728e-09
-5.5684e-05
-4.96634e-09
-5.56828e-05
-3.51882e-09
-5.56834e-05
-3.42869e-10
-5.56842e-05
3.6556e-10
-5.56897e-05
6.15989e-09
-5.56927e-05
4.69719e-09
-5.56976e-05
-7.23254e-09
-5.57032e-05
2.39445e-08
-5.57092e-05
-1.33819e-08
-5.5717e-05
3.36732e-08
-5.57233e-05
-9.44662e-09
-5.57304e-05
2.74612e-08
-5.57399e-05
1.40316e-08
-5.57499e-05
2.07742e-08
-5.57618e-05
1.9349e-08
-5.57745e-05
2.70369e-08
-5.579e-05
2.50948e-08
-5.58048e-05
2.95374e-08
-5.58194e-05
2.57067e-08
-5.58366e-05
3.09015e-08
-5.58563e-05
3.38465e-08
-5.58764e-05
3.47367e-08
-5.5894e-05
2.74489e-08
-5.59128e-05
3.72922e-08
-5.59321e-05
1.96947e-08
-5.59528e-05
4.86756e-08
-5.5975e-05
3.16145e-08
-5.59985e-05
4.79468e-08
-5.60266e-05
4.39039e-08
-5.60551e-05
5.05532e-08
-5.60851e-05
5.61311e-08
-5.61137e-05
4.78554e-08
-5.61382e-05
3.4708e-08
-5.61689e-05
5.93725e-08
-5.61999e-05
4.81492e-08
-5.62282e-05
5.59118e-08
-5.62671e-05
6.55549e-08
-5.6307e-05
6.61691e-08
-5.63454e-05
6.59798e-08
-5.63838e-05
6.61475e-08
-5.64251e-05
6.98708e-08
-5.64713e-05
7.67538e-08
-5.65187e-05
8.11675e-08
-5.65711e-05
8.85389e-08
-5.66277e-05
9.56364e-08
-5.6689e-05
1.01828e-07
-5.67526e-05
1.07709e-07
-5.68178e-05
1.10016e-07
-5.68871e-05
1.16869e-07
-5.69617e-05
1.24786e-07
-5.7041e-05
1.33666e-07
-5.71267e-05
1.43064e-07
-5.72186e-05
1.54001e-07
1.60672e-07
-9.15185e-05
-5.29485e-07
-9.14007e-05
-2.30872e-07
-9.1289e-05
-2.2286e-07
-9.11936e-05
-1.86227e-07
-9.11089e-05
-1.66818e-07
-9.10339e-05
-1.43347e-07
-9.09679e-05
-1.17828e-07
-9.09092e-05
-1.2179e-07
-9.08589e-05
-9.87185e-08
-9.08123e-05
-8.86961e-08
-9.07723e-05
-8.01575e-08
-9.07361e-05
-7.13932e-08
-9.0705e-05
-6.44577e-08
-9.06792e-05
-5.07089e-08
-9.06574e-05
-4.90804e-08
-9.06367e-05
-4.36424e-08
-9.06222e-05
-2.85752e-08
-9.06088e-05
-3.46328e-08
-9.05979e-05
-1.66868e-08
-9.05926e-05
-1.33577e-08
-9.05881e-05
-1.00143e-08
-9.05874e-05
-4.93633e-09
-9.05896e-05
1.2719e-09
-9.05923e-05
1.89579e-09
-9.0597e-05
1.037e-08
-9.06054e-05
1.22881e-08
-9.06107e-05
-7.42514e-09
-9.06222e-05
4.00512e-08
-9.06305e-05
-1.38709e-08
-9.06429e-05
5.40825e-08
-9.06532e-05
-6.9347e-09
-9.06635e-05
4.38109e-08
-9.06787e-05
2.77343e-08
-9.06953e-05
3.93808e-08
-9.07161e-05
3.98407e-08
-9.0738e-05
5.18647e-08
-9.07592e-05
4.61181e-08
-9.0782e-05
5.44758e-08
-9.08082e-05
5.20674e-08
-9.08337e-05
5.79527e-08
-9.08633e-05
6.42446e-08
-9.08945e-05
6.65755e-08
-9.0923e-05
5.50694e-08
-9.09522e-05
6.88272e-08
-9.09811e-05
4.38733e-08
-9.10135e-05
8.64489e-08
-9.10508e-05
6.62981e-08
-9.10879e-05
8.87103e-08
-9.113e-05
8.45982e-08
-9.11748e-05
9.67668e-08
-9.12207e-05
1.04009e-07
-9.12663e-05
9.34316e-08
-9.13037e-05
6.95469e-08
-9.13497e-05
1.08633e-07
-9.13982e-05
9.49935e-08
-9.14443e-05
1.0472e-07
-9.15038e-05
1.2517e-07
-9.15634e-05
1.25952e-07
-9.16252e-05
1.28069e-07
-9.16858e-05
1.2692e-07
-9.17502e-05
1.34301e-07
-9.18195e-05
1.46222e-07
-9.1895e-05
1.56677e-07
-9.19768e-05
1.70378e-07
-9.20672e-05
1.86096e-07
-9.2161e-05
1.9543e-07
-9.22596e-05
2.067e-07
-9.23616e-05
2.12114e-07
-9.24717e-05
2.2695e-07
-9.25876e-05
2.40596e-07
-9.27112e-05
2.57111e-07
-9.28447e-05
2.76351e-07
-9.2989e-05
2.9813e-07
3.09916e-07
-0.000135337
-9.38715e-07
-0.000135162
-4.0423e-07
-0.000134996
-3.88065e-07
-0.000134853
-3.27103e-07
-0.000134731
-2.886e-07
-0.000134621
-2.51453e-07
-0.000134522
-2.13405e-07
-0.000134436
-2.0811e-07
-0.000134358
-1.74705e-07
-0.000134293
-1.53218e-07
-0.000134233
-1.39582e-07
-0.000134181
-1.22934e-07
-0.000134134
-1.11694e-07
-0.000134098
-8.67555e-08
-0.000134065
-8.29807e-08
-0.000134038
-7.06832e-08
-0.000134015
-5.17068e-08
-0.000133997
-5.36943e-08
-0.000133982
-3.07259e-08
-0.000133975
-2.05596e-08
-0.00013397
-1.58179e-08
-0.000133968
-7.10048e-09
-0.00013397
2.85874e-09
-0.000133975
6.25771e-09
-0.000133981
1.58679e-08
-0.000133992
2.30825e-08
-0.000134002
-2.11207e-09
-0.000134018
5.94091e-08
-0.000134031
-7.28856e-09
-0.000134047
7.62379e-08
-0.000134063
3.25129e-09
-0.000134077
6.23969e-08
-0.000134102
5.17495e-08
-0.000134126
6.49357e-08
-0.000134149
6.33107e-08
-0.000134181
8.60474e-08
-0.000134214
7.86532e-08
-0.000134248
9.09816e-08
-0.000134283
8.72307e-08
-0.000134322
9.79367e-08
-0.000134364
1.06386e-07
-0.000134408
1.11843e-07
-0.000134445
9.16169e-08
-0.000134489
1.14181e-07
-0.000134531
8.27356e-08
-0.000134577
1.36095e-07
-0.000134626
1.14371e-07
-0.000134679
1.44186e-07
-0.000134741
1.45054e-07
-0.000134801
1.57873e-07
-0.000134866
1.70722e-07
-0.000134929
1.56888e-07
-0.000134981
1.19245e-07
-0.000135046
1.76164e-07
-0.00013511
1.5801e-07
-0.000135176
1.72858e-07
-0.000135261
2.10047e-07
-0.000135345
2.10892e-07
-0.000135427
2.10268e-07
-0.000135511
2.10488e-07
-0.000135603
2.26628e-07
-0.000135699
2.42816e-07
-0.000135804
2.61071e-07
-0.000135918
2.84425e-07
-0.000136046
3.14305e-07
-0.000136182
3.30812e-07
-0.000136318
3.43689e-07
-0.000136463
3.57187e-07
-0.000136616
3.798e-07
-0.000136779
4.02895e-07
-0.000136956
4.34479e-07
-0.000137145
4.64918e-07
-0.000137348
5.00342e-07
5.19497e-07
-0.000188223
-1.50934e-06
-0.000187981
-6.44423e-07
-0.000187754
-6.14259e-07
-0.000187558
-5.20391e-07
-0.000187386
-4.60464e-07
-0.000187235
-3.99602e-07
-0.000187102
-3.4224e-07
-0.000186986
-3.25063e-07
-0.000186878
-2.80555e-07
-0.000186787
-2.43031e-07
-0.000186704
-2.22092e-07
-0.000186634
-1.92343e-07
-0.000186572
-1.7438e-07
-0.000186522
-1.37683e-07
-0.000186479
-1.26782e-07
-0.00018644
-1.10632e-07
-0.00018641
-8.13444e-08
-0.000186385
-8.09155e-08
-0.000186368
-4.68951e-08
-0.000186358
-3.07471e-08
-0.000186354
-2.10269e-08
-0.000186352
-9.8103e-09
-0.000186352
1.74078e-09
-0.000186359
1.2505e-08
-0.000186372
2.824e-08
-0.000186387
3.6507e-08
-0.000186403
8.77133e-09
-0.00018642
8.0793e-08
-0.000186437
2.23484e-09
-0.00018646
1.05725e-07
-0.000186481
1.69266e-08
-0.000186503
9.02908e-08
-0.000186535
8.11098e-08
-0.000186563
9.56902e-08
-0.000186603
1.02608e-07
-0.000186641
1.28549e-07
-0.000186685
1.21999e-07
-0.00018673
1.38393e-07
-0.000186777
1.34598e-07
-0.000186828
1.50556e-07
-0.000186884
1.63146e-07
-0.000186941
1.70202e-07
-0.00018699
1.40305e-07
-0.000187045
1.71591e-07
-0.000187099
1.31866e-07
-0.000187159
2.01454e-07
-0.000187226
1.79383e-07
-0.000187295
2.16272e-07
-0.000187378
2.26667e-07
-0.000187456
2.37218e-07
-0.000187542
2.58977e-07
-0.000187619
2.34154e-07
-0.000187686
1.83323e-07
-0.000187771
2.64962e-07
-0.000187857
2.42483e-07
-0.000187942
2.60484e-07
-0.00018805
3.17684e-07
-0.000188158
3.19869e-07
-0.000188267
3.18987e-07
-0.000188376
3.20203e-07
-0.000188492
3.42424e-07
-0.000188618
3.693e-07
-0.000188759
4.01699e-07
-0.000188911
4.36899e-07
-0.000189076
4.79331e-07
-0.000189251
5.05363e-07
-0.000189434
5.26673e-07
-0.000189623
5.47024e-07
-0.000189823
5.79877e-07
-0.000190041
6.20667e-07
-0.000190271
6.64176e-07
-0.000190522
7.15762e-07
-0.000190788
7.66071e-07
7.95659e-07
-0.00025119
-2.04371e-06
-0.00025052
-2.17807e-06
-0.000250199
-9.64099e-07
-0.000249905
-9.06915e-07
-0.000249652
-7.71474e-07
-0.000249432
-6.80177e-07
-0.000249234
-5.94705e-07
-0.00024906
-5.13143e-07
-0.000248904
-4.81172e-07
-0.00024877
-4.13262e-07
-0.00024865
-3.61652e-07
-0.000248545
-3.26327e-07
-0.000248452
-2.85256e-07
-0.000248375
-2.51336e-07
-0.00024831
-2.03081e-07
-0.000248254
-1.82982e-07
-0.000248208
-1.57239e-07
-0.000248173
-1.16114e-07
-0.000248143
-1.11755e-07
-0.000248123
-6.61759e-08
-0.000248109
-4.50236e-08
-0.000248103
-2.78928e-08
-0.000248101
-1.22134e-08
-0.000248108
8.25965e-09
-0.000248118
2.16144e-08
-0.000248135
4.55166e-08
-0.000248154
5.4289e-08
-0.000248168
2.01478e-08
-0.000248196
1.11378e-07
-0.000248224
2.49448e-08
-0.000248249
1.34839e-07
-0.000248274
3.74705e-08
-0.000248303
1.22731e-07
-0.000248342
1.19029e-07
-0.000248385
1.40399e-07
-0.000248431
1.48661e-07
-0.000248485
1.8502e-07
-0.000248538
1.75393e-07
-0.000248597
1.99548e-07
-0.000248655
1.92933e-07
-0.000248718
2.14597e-07
-0.000248789
2.35221e-07
-0.000248859
2.40751e-07
-0.000248922
2.03276e-07
-0.00024899
2.40592e-07
-0.000249059
1.98361e-07
-0.000249134
2.80078e-07
-0.000249216
2.60512e-07
-0.000249303
3.05321e-07
-0.000249403
3.25938e-07
-0.000249503
3.37686e-07
-0.000249606
3.63551e-07
-0.0002497
3.28821e-07
-0.000249786
2.67567e-07
-0.000249887
3.68089e-07
-0.00024999
3.44859e-07
-0.000250092
3.64648e-07
-0.00025023
4.5575e-07
-0.000250365
4.54893e-07
-0.000250493
4.47216e-07
-0.000250627
4.54439e-07
-0.000250771
4.86504e-07
-0.00025093
5.28698e-07
-0.000251102
5.73838e-07
-0.000251291
6.25529e-07
-0.000251497
6.85714e-07
-0.000251718
7.25796e-07
-0.000251945
7.53996e-07
-0.00025218
7.81876e-07
-0.000252435
8.35348e-07
-0.000252704
8.89113e-07
-0.000252995
9.55058e-07
-0.000253307
1.02708e-06
-0.000253639
1.09792e-06
1.13603e-06
-0.000323252
-2.79742e-06
-0.000322482
-2.94607e-06
-0.000322076
-1.36795e-06
-0.000321715
-1.26682e-06
-0.0003214
-1.08394e-06
-0.000321125
-9.53877e-07
-0.000320883
-8.33691e-07
-0.000320666
-7.26212e-07
-0.000320477
-6.70683e-07
-0.000320313
-5.74417e-07
-0.000320166
-5.07515e-07
-0.00032004
-4.51913e-07
-0.000319929
-3.95448e-07
-0.000319836
-3.45393e-07
-0.00031976
-2.79928e-07
-0.000319694
-2.50225e-07
-0.000319636
-2.1641e-07
-0.000319595
-1.56533e-07
-0.000319563
-1.4595e-07
-0.000319541
-8.70669e-08
-0.000319528
-5.86877e-08
-0.00031952
-3.65994e-08
-0.000319523
-1.02244e-08
-0.000319536
1.95771e-08
-0.000319549
3.30305e-08
-0.00031957
6.62981e-08
-0.000319596
7.85266e-08
-0.000319623
4.31075e-08
-0.000319657
1.48802e-07
-0.000319682
4.20298e-08
-0.00031972
1.79561e-07
-0.000319753
6.35241e-08
-0.00031979
1.64836e-07
-0.000319838
1.63905e-07
-0.000319893
1.98245e-07
-0.000319951
2.07224e-07
-0.000320012
2.49797e-07
-0.00032008
2.43132e-07
-0.00032015
2.72624e-07
-0.000320226
2.69505e-07
-0.000320301
2.918e-07
-0.000320388
3.23152e-07
-0.00032047
3.23205e-07
-0.000320544
2.7718e-07
-0.000320627
3.25747e-07
-0.000320709
2.7744e-07
-0.000320798
3.73662e-07
-0.000320903
3.62801e-07
-0.000321006
4.12476e-07
-0.000321124
4.42956e-07
-0.000321243
4.56909e-07
-0.000321364
4.87257e-07
-0.000321473
4.38452e-07
-0.000321572
3.64597e-07
-0.000321694
4.92705e-07
-0.000321813
4.63033e-07
-0.00032194
4.93422e-07
-0.000322096
6.12316e-07
-0.000322254
6.13389e-07
-0.000322407
6.0027e-07
-0.000322564
6.11693e-07
-0.000322736
6.58498e-07
-0.000322923
7.16597e-07
-0.000323128
7.78524e-07
-0.000323356
8.53542e-07
-0.000323609
9.38631e-07
-0.000323869
9.85363e-07
-0.00032414
1.02566e-06
-0.000324426
1.06822e-06
-0.000324727
1.13624e-06
-0.000325055
1.2171e-06
-0.000325405
1.30498e-06
-0.000325781
1.4026e-06
-0.000326183
1.49968e-06
1.54488e-06
-0.000405153
-3.62375e-06
-0.000404388
-3.71005e-06
-0.000403901
-1.85253e-06
-0.000403477
-1.69006e-06
-0.000403104
-1.45481e-06
-0.000402783
-1.27424e-06
-0.000402496
-1.11772e-06
-0.000402245
-9.7483e-07
-0.000402025
-8.89949e-07
-0.000401827
-7.70548e-07
-0.000401662
-6.70949e-07
-0.000401517
-5.96004e-07
-0.000401391
-5.21483e-07
-0.000401285
-4.51377e-07
-0.0004012
-3.65425e-07
-0.000401127
-3.24203e-07
-0.000401071
-2.72108e-07
-0.000401025
-2.02541e-07
-0.000400992
-1.79473e-07
-0.00040097
-1.08551e-07
-0.000400964
-6.46968e-08
-0.000400964
-3.70952e-08
-0.000400972
-3.04293e-09
-0.000400986
3.31937e-08
-0.000401009
5.54773e-08
-0.000401039
9.52457e-08
-0.000401072
1.11403e-07
-0.000401106
7.50367e-08
-0.000401148
1.91599e-07
-0.00040119
8.05693e-08
-0.00040123
2.23401e-07
-0.000401273
1.03309e-07
-0.000401322
2.15152e-07
-0.000401383
2.23752e-07
-0.000401442
2.59966e-07
-0.000401516
2.80605e-07
-0.000401597
3.33581e-07
-0.00040168
3.26757e-07
-0.000401763
3.58e-07
-0.000401849
3.55513e-07
-0.000401942
3.85825e-07
-0.000402041
4.23561e-07
-0.000402136
4.19136e-07
-0.000402227
3.68907e-07
-0.00040232
4.19577e-07
-0.000402414
3.70242e-07
-0.000402528
4.89187e-07
-0.000402639
4.7407e-07
-0.000402766
5.40492e-07
-0.000402907
5.84063e-07
-0.000403042
5.91989e-07
-0.000403177
6.23518e-07
-0.000403299
5.60904e-07
-0.000403408
4.73017e-07
-0.000403545
6.31451e-07
-0.000403685
6.02758e-07
-0.000403829
6.39754e-07
-0.000404011
7.9466e-07
-0.00040419
7.9159e-07
-0.000404364
7.75278e-07
-0.00040454
7.88089e-07
-0.000404739
8.57416e-07
-0.000404955
9.32853e-07
-0.000405196
1.01928e-06
-0.000405461
1.11847e-06
-0.000405754
1.23109e-06
-0.000406063
1.29454e-06
-0.000406376
1.33944e-06
-0.000406707
1.39856e-06
-0.000407062
1.49143e-06
-0.000407446
1.60114e-06
-0.000407858
1.71668e-06
-0.000408301
1.84502e-06
-0.000408768
1.96601e-06
2.01334e-06
-0.000497374
-4.47605e-06
-0.000496604
-4.4777e-06
-0.000496054
-2.39966e-06
-0.000495574
-2.1698e-06
-0.000495158
-1.8673e-06
-0.000494798
-1.63291e-06
-0.000494483
-1.42973e-06
-0.000494203
-1.25085e-06
-0.000493961
-1.13148e-06
-0.000493751
-9.77455e-07
-0.000493573
-8.47364e-07
-0.000493414
-7.54796e-07
-0.000493284
-6.50696e-07
-0.000493176
-5.61134e-07
-0.000493085
-4.57174e-07
-0.000493017
-3.9347e-07
-0.000492961
-3.28601e-07
-0.000492925
-2.38478e-07
-0.000492898
-2.09265e-07
-0.000492891
-1.14119e-07
-0.00049289
-6.64364e-08
-0.000492901
-2.76836e-08
-0.000492918
1.34532e-08
-0.000492947
6.11513e-08
-0.000492983
8.93676e-08
-0.000493029
1.40279e-07
-0.00049307
1.51104e-07
-0.00049312
1.20214e-07
-0.000493175
2.50134e-07
-0.000493223
1.21706e-07
-0.000493284
2.90052e-07
-0.000493334
1.47141e-07
-0.000493396
2.80035e-07
-0.000493477
3.02226e-07
-0.000493554
3.40707e-07
-0.000493643
3.69181e-07
-0.000493735
4.30289e-07
-0.000493829
4.21081e-07
-0.000493933
4.65358e-07
-0.000494037
4.59451e-07
-0.000494149
5.00501e-07
-0.000494263
5.3945e-07
-0.000494372
5.29112e-07
-0.000494469
4.65565e-07
-0.000494578
5.30839e-07
-0.000494693
4.82229e-07
-0.000494815
6.15702e-07
-0.00049495
6.08123e-07
-0.000495092
6.85131e-07
-0.000495248
7.39152e-07
-0.000495404
7.49178e-07
-0.000495549
7.70007e-07
-0.000495682
6.95662e-07
-0.000495809
5.98202e-07
-0.000495958
7.83028e-07
-0.000496111
7.55142e-07
-0.000496277
8.07882e-07
-0.000496481
9.99639e-07
-0.000496678
9.88054e-07
-0.000496867
9.65421e-07
-0.000497066
9.87261e-07
-0.000497287
1.07862e-06
-0.000497535
1.18104e-06
-0.000497809
1.29322e-06
-0.000498115
1.42429e-06
-0.000498447
1.56385e-06
-0.000498793
1.64016e-06
-0.000499152
1.69901e-06
-0.00049953
1.77626e-06
-0.000499943
1.90488e-06
-0.000500382
2.03913e-06
-0.000500856
2.19141e-06
-0.000501366
2.35427e-06
-0.000501899
2.49873e-06
2.54864e-06
-0.000600374
-5.32198e-06
-0.000599622
-5.22849e-06
-0.000599025
-2.99398e-06
-0.000598521
-2.67341e-06
-0.000598093
-2.2933e-06
-0.000597716
-2.00832e-06
-0.000597384
-1.7584e-06
-0.000597106
-1.52688e-06
-0.000596859
-1.37657e-06
-0.000596651
-1.18404e-06
-0.000596472
-1.02479e-06
-0.000596323
-9.02411e-07
-0.000596204
-7.6935e-07
-0.000596107
-6.58909e-07
-0.000596034
-5.30469e-07
-0.000595977
-4.50378e-07
-0.00059594
-3.65444e-07
-0.000595923
-2.55916e-07
-0.000595915
-2.17332e-07
-0.000595924
-1.04538e-07
-0.000595948
-4.26911e-08
-0.000595977
5.41836e-10
-0.00059602
5.55098e-08
-0.000596067
1.0797e-07
-0.000596124
1.45787e-07
-0.000596185
2.00412e-07
-0.000596252
2.17661e-07
-0.000596321
1.87269e-07
-0.000596394
3.24519e-07
-0.000596461
1.85873e-07
-0.000596535
3.66619e-07
-0.000596606
2.15631e-07
-0.00059669
3.65367e-07
-0.000596786
3.9621e-07
-0.000596887
4.44593e-07
-0.000596992
4.74196e-07
-0.00059711
5.51226e-07
-0.000597227
5.38408e-07
-0.000597348
5.88357e-07
-0.000597469
5.80681e-07
-0.000597591
6.2485e-07
-0.000597724
6.73873e-07
-0.000597851
6.56087e-07
-0.000597964
5.79354e-07
-0.00059809
6.58249e-07
-0.000598216
6.07474e-07
-0.00059836
7.6123e-07
-0.000598515
7.63785e-07
-0.000598678
8.49061e-07
-0.00059885
9.11175e-07
-0.000599014
9.13067e-07
-0.000599169
9.26933e-07
-0.000599314
8.41205e-07
-0.000599451
7.34763e-07
-0.000599619
9.52823e-07
-0.000599782
9.18379e-07
-0.000599967
9.94416e-07
-0.000600187
1.22031e-06
-0.000600397
1.19729e-06
-0.000600605
1.17433e-06
-0.000600827
1.20917e-06
-0.000601071
1.32352e-06
-0.000601347
1.45632e-06
-0.000601654
1.60012e-06
-0.000602001
1.77162e-06
-0.000602378
1.94073e-06
-0.000602762
2.0232e-06
-0.000603167
2.1048e-06
-0.000603595
2.20476e-06
-0.000604058
2.36804e-06
-0.000604558
2.53823e-06
-0.000605101
2.73413e-06
-0.000605678
2.93061e-06
-0.000606277
3.09772e-06
3.14477e-06
-0.000714734
-6.11154e-06
-0.000714023
-5.93674e-06
-0.000713436
-3.57856e-06
-0.000712949
-3.15878e-06
-0.000712534
-2.70509e-06
-0.000712183
-2.35769e-06
-0.000711883
-2.05446e-06
-0.000711622
-1.78498e-06
-0.000711408
-1.58829e-06
-0.00071123
-1.35941e-06
-0.000711083
-1.16922e-06
-0.000710974
-1.01098e-06
-0.000710886
-8.57185e-07
-0.000710831
-7.15861e-07
-0.000710791
-5.71561e-07
-0.000710773
-4.69257e-07
-0.000710771
-3.68696e-07
-0.00071079
-2.36762e-07
-0.000710831
-1.78484e-07
-0.000710874
-6.09633e-08
-0.00071093
1.27493e-08
-0.000710998
6.70219e-08
-0.000711079
1.34884e-07
-0.000711157
1.84897e-07
-0.00071125
2.36505e-07
-0.000711345
2.94831e-07
-0.000711443
3.14012e-07
-0.000711539
2.78586e-07
-0.000711642
4.30029e-07
-0.000711738
2.75763e-07
-0.00071183
4.64251e-07
-0.000711941
3.20093e-07
-0.000712049
4.76396e-07
-0.000712173
5.17594e-07
-0.0007123
5.75191e-07
-0.000712439
6.12763e-07
-0.000712577
6.94844e-07
-0.000712721
6.82783e-07
-0.000712862
7.33753e-07
-0.000713006
7.2509e-07
-0.000713159
7.80568e-07
-0.000713309
8.26107e-07
-0.000713445
7.93388e-07
-0.000713577
7.11147e-07
-0.000713721
8.04844e-07
-0.00071387
7.53743e-07
-0.000714035
9.3069e-07
-0.000714209
9.36647e-07
-0.00071439
1.0335e-06
-0.000714584
1.1035e-06
-0.000714753
1.08295e-06
-0.00071492
1.0966e-06
-0.000715067
9.89186e-07
-0.00071522
8.87278e-07
-0.000715394
1.12891e-06
-0.000715577
1.10154e-06
-0.000715779
1.19871e-06
-0.000716016
1.45761e-06
-0.000716238
1.4193e-06
-0.000716459
1.39667e-06
-0.000716696
1.44591e-06
-0.00071697
1.59823e-06
-0.000717277
1.76351e-06
-0.000717625
1.94821e-06
-0.000718008
2.15438e-06
-0.000718423
2.35535e-06
-0.000718858
2.4585e-06
-0.000719306
2.55323e-06
-0.000719789
2.68829e-06
-0.000720318
2.89702e-06
-0.000720887
3.10657e-06
-0.000721494
3.34064e-06
-0.000722144
3.58092e-06
-0.000722809
3.76203e-06
3.79572e-06
-0.000841119
-6.78295e-06
-0.000840512
-6.54239e-06
-0.000839995
-4.09282e-06
-0.000839583
-3.5693e-06
-0.000839249
-3.03742e-06
-0.000838972
-2.63233e-06
-0.000838748
-2.27573e-06
-0.000838566
-1.96443e-06
-0.000838429
-1.72424e-06
-0.000838326
-1.45928e-06
-0.00083826
-1.23366e-06
-0.000838217
-1.05299e-06
-0.000838209
-8.64953e-07
-0.000838218
-7.06673e-07
-0.000838256
-5.3434e-07
-0.000838311
-4.14809e-07
-0.000838385
-2.94219e-07
-0.000838472
-1.49552e-07
-0.000838563
-8.79014e-08
-0.000838677
5.39271e-08
-0.000838802
1.37173e-07
-0.000838932
1.9594e-07
-0.000839058
2.60609e-07
-0.000839198
3.2475e-07
-0.000839338
3.74881e-07
-0.000839485
4.42119e-07
-0.000839631
4.58683e-07
-0.000839774
4.19985e-07
-0.000839917
5.74394e-07
-0.000840058
4.15044e-07
-0.0008402
6.0794e-07
-0.000840341
4.58601e-07
-0.000840498
6.33834e-07
-0.000840662
6.80478e-07
-0.000840832
7.47883e-07
-0.000841003
7.83922e-07
-0.000841179
8.74332e-07
-0.00084135
8.54413e-07
-0.000841528
9.14253e-07
-0.000841708
9.05822e-07
-0.000841876
9.50911e-07
-0.000842044
9.95233e-07
-0.000842208
9.57802e-07
-0.000842367
8.72159e-07
-0.000842534
9.72227e-07
-0.000842711
9.30928e-07
-0.000842894
1.11497e-06
-0.000843092
1.13541e-06
-0.000843292
1.23453e-06
-0.000843492
1.30317e-06
-0.000843677
1.26798e-06
-0.000843843
1.26514e-06
-0.000844007
1.15355e-06
-0.000844167
1.04775e-06
-0.000844356
1.31873e-06
-0.00084455
1.29698e-06
-0.000844773
1.42318e-06
-0.000845023
1.70773e-06
-0.000845251
1.64765e-06
-0.000845488
1.63377e-06
-0.000845755
1.71324e-06
-0.000846056
1.89925e-06
-0.000846405
2.11328e-06
-0.000846789
2.33202e-06
-0.00084722
2.58552e-06
-0.000847683
2.81827e-06
-0.000848163
2.93686e-06
-0.00084867
3.06197e-06
-0.000849221
3.2384e-06
-0.000849816
3.49218e-06
-0.000850462
3.7518e-06
-0.000851154
4.03267e-06
-0.000851876
4.30223e-06
-0.000852598
4.48387e-06
4.49944e-06
-0.000980309
-7.26428e-06
-0.000979893
-6.95515e-06
-0.000979539
-4.44337e-06
-0.000979287
-3.82032e-06
-0.0009791
-3.2214e-06
-0.000978978
-2.75212e-06
-0.0009789
-2.34968e-06
-0.00097886
-2.00001e-06
-0.000978859
-1.72379e-06
-0.000978899
-1.4158e-06
-0.000978963
-1.16737e-06
-0.000979056
-9.58242e-07
-0.000979172
-7.49493e-07
-0.000979311
-5.68612e-07
-0.000979466
-3.80837e-07
-0.000979636
-2.46329e-07
-0.000979817
-1.14801e-07
-0.000980012
4.62541e-08
-0.000980223
1.20615e-07
-0.000980428
2.58689e-07
-0.000980644
3.52293e-07
-0.000980861
4.1178e-07
-0.000981083
4.81161e-07
-0.000981308
5.47964e-07
-0.000981531
5.95397e-07
-0.000981753
6.62976e-07
-0.00098197
6.73164e-07
-0.000982185
6.31668e-07
-0.000982392
7.83348e-07
-0.000982592
6.09263e-07
-0.000982799
8.19074e-07
-0.000983004
6.58516e-07
-0.000983222
8.53646e-07
-0.000983445
9.00112e-07
-0.000983664
9.71737e-07
-0.000983889
1.00848e-06
-0.000984115
1.10671e-06
-0.000984337
1.07705e-06
-0.000984553
1.13515e-06
-0.000984762
1.11556e-06
-0.000984979
1.17107e-06
-0.000985177
1.19541e-06
-0.000985366
1.14893e-06
-0.000985555
1.06158e-06
-0.000985755
1.17516e-06
-0.000985959
1.13296e-06
-0.000986179
1.33862e-06
-0.000986396
1.35224e-06
-0.000986618
1.45981e-06
-0.000986826
1.51028e-06
-0.000987015
1.4575e-06
-0.000987196
1.44891e-06
-0.00098736
1.31949e-06
-0.00098754
1.22689e-06
-0.000987746
1.52723e-06
-0.000987959
1.50978e-06
-0.000988202
1.66917e-06
-0.000988454
1.95952e-06
-0.000988702
1.89648e-06
-0.00098896
1.89217e-06
-0.000989256
2.00971e-06
-0.000989602
2.24566e-06
-0.000989988
2.49934e-06
-0.000990436
2.78046e-06
-0.000990922
3.07189e-06
-0.000991439
3.33537e-06
-0.000991982
3.4787e-06
-0.000992562
3.64388e-06
-0.000993194
3.87003e-06
-0.000993882
4.18025e-06
-0.000994614
4.48312e-06
-0.000995389
4.80752e-06
-0.00099618
5.09273e-06
-0.000996961
5.26415e-06
5.23426e-06
-0.00113328
-7.44372e-06
-0.00113314
-7.09169e-06
-0.00113305
-4.53159e-06
-0.00113305
-3.82165e-06
-0.00113311
-3.15055e-06
-0.00113323
-2.63715e-06
-0.00113338
-2.19227e-06
-0.00113358
-1.80413e-06
-0.0011338
-1.49753e-06
-0.00113405
-1.16576e-06
-0.00113432
-8.91739e-07
-0.00113462
-6.58979e-07
-0.00113493
-4.36115e-07
-0.00113526
-2.42406e-07
-0.00113559
-4.57021e-08
-0.00113594
1.02001e-07
-0.0011363
2.38738e-07
-0.00113665
4.03283e-07
-0.00113701
4.79041e-07
-0.00113737
6.16358e-07
-0.00113772
7.09238e-07
-0.00113807
7.61143e-07
-0.00113842
8.27336e-07
-0.00113877
8.93247e-07
-0.00113911
9.36682e-07
-0.00113944
9.90328e-07
-0.00113976
9.97559e-07
-0.00114008
9.45516e-07
-0.00114038
1.08875e-06
-0.00114068
9.06229e-07
-0.00114098
1.11963e-06
-0.00114128
9.55945e-07
-0.00114158
1.15738e-06
-0.00114188
1.19805e-06
-0.00114218
1.27269e-06
-0.00114247
1.30188e-06
-0.00114276
1.4001e-06
-0.00114304
1.35392e-06
-0.00114332
1.41623e-06
-0.00114358
1.3802e-06
-0.00114383
1.42592e-06
-0.00114408
1.44147e-06
-0.00114432
1.38779e-06
-0.00114455
1.29678e-06
-0.00114479
1.41668e-06
-0.00114504
1.38386e-06
-0.00114529
1.58637e-06
-0.00114553
1.60015e-06
-0.00114577
1.69832e-06
-0.001146
1.73483e-06
-0.00114619
1.65195e-06
-0.00114638
1.63656e-06
-0.00114657
1.51138e-06
-0.00114677
1.42828e-06
-0.00114699
1.74813e-06
-0.00114722
1.74672e-06
-0.00114748
1.93005e-06
-0.00114776
2.23439e-06
-0.00114803
2.1662e-06
-0.00114833
2.19383e-06
-0.00114867
2.35726e-06
-0.00114907
2.64477e-06
-0.00114954
2.96315e-06
-0.00115005
3.29017e-06
-0.00115061
3.63431e-06
-0.0011512
3.92951e-06
-0.00115183
4.10764e-06
-0.00115251
4.32437e-06
-0.00115325
4.60916e-06
-0.00115404
4.96929e-06
-0.00115488
5.32154e-06
-0.00115574
5.6659e-06
-0.00115659
5.94432e-06
-0.0011574
6.07418e-06
5.97225e-06
-0.00130125
-7.22521e-06
-0.0013015
-6.83495e-06
-0.00130177
-4.25552e-06
-0.00130213
-3.46383e-06
-0.00130255
-2.73064e-06
-0.00130301
-2.17243e-06
-0.00130349
-1.7017e-06
-0.001304
-1.28953e-06
-0.00130454
-9.60234e-07
-0.0013051
-5.99548e-07
-0.00130567
-3.18472e-07
-0.00130625
-7.71969e-08
-0.00130684
1.50387e-07
-0.00130743
3.46642e-07
-0.00130803
5.47674e-07
-0.00130861
6.89776e-07
-0.0013092
8.20042e-07
-0.00130978
9.87478e-07
-0.00131035
1.04664e-06
-0.00131092
1.18305e-06
-0.00131147
1.2614e-06
-0.00131201
1.29823e-06
-0.00131254
1.35471e-06
-0.00131306
1.41026e-06
-0.00131355
1.42965e-06
-0.00131405
1.48239e-06
-0.00131451
1.46313e-06
-0.00131497
1.39681e-06
-0.00131541
1.53285e-06
-0.00131585
1.33857e-06
-0.00131627
1.54595e-06
-0.00131671
1.38417e-06
-0.00131712
1.57468e-06
-0.00131753
1.60057e-06
-0.00131793
1.67727e-06
-0.00131832
1.68996e-06
-0.0013187
1.78934e-06
-0.00131906
1.7211e-06
-0.0013194
1.76288e-06
-0.00131974
1.71503e-06
-0.00132006
1.75066e-06
-0.00132036
1.74789e-06
-0.00132066
1.68631e-06
-0.00132096
1.59406e-06
-0.00132125
1.71556e-06
-0.00132155
1.67616e-06
-0.00132184
1.88126e-06
-0.00132211
1.87538e-06
-0.00132237
1.96119e-06
-0.0013226
1.96265e-06
-0.00132282
1.8712e-06
-0.00132303
1.84848e-06
-0.00132325
1.73291e-06