/*--------------------------------*- C++ -*----------------------------------*\
| =========                 |                                                 |
| \\      /  F ield         | OpenFOAM: The Open Source CFD Toolbox           |
|  \\    /   O peration     | Version:  2412                                  |
|   \\  /    A nd           | Website:  www.openfoam.com                      |
|    \\/     M anipulation  |                                                 |
\*---------------------------------------------------------------------------*/
FoamFile
{
    version     2.0;
    format      ascii;
    arch        "LSB;label=32;scalar=64";
    class       volVectorField;
    location    "20";
    object      U;
}
// * * * * * * * * * * * * * * * * * * * * * * * * * * * * * * * * * * * * * //

dimensions      [0 1 -1 0 0 0 0];

internalField   nonuniform List<vector> 
7421
(
(1.48675 0.20341 0)
(1.4851 0.202762 -5.70701e-25)
(1.48324 0.202089 -3.79374e-25)
(1.48167 0.201433 -2.2003e-19)
(1.48035 0.200777 0)
(1.4792 0.200108 8.87599e-20)
(1.47817 0.199433 -7.95476e-20)
(1.47731 0.198755 0)
(1.47652 0.198057 0)
(1.47584 0.197343 -4.18267e-25)
(1.47525 0.196611 1.00475e-19)
(1.47473 0.195857 0)
(1.47431 0.195085 7.84049e-20)
(1.47394 0.194287 0)
(1.47369 0.193472 1.20071e-19)
(1.47344 0.192622 0)
(1.47327 0.191751 -4.46977e-20)
(1.47318 0.190855 -7.59865e-20)
(1.47307 0.189922 6.36906e-20)
(1.47304 0.188967 -5.24135e-20)
(1.47308 0.187987 -4.20547e-20)
(1.47316 0.186976 -3.25292e-20)
(1.47328 0.185937 -3.83207e-26)
(1.47347 0.18487 3.68501e-26)
(1.47363 0.183765 8.18649e-21)
(1.47392 0.182642 0)
(1.47418 0.18148 1.57569e-26)
(1.47443 0.180281 -4.43811e-20)
(1.47486 0.17907 0)
(1.47501 0.177792 -4.35814e-20)
(1.47556 0.176528 2.79721e-26)
(1.47571 0.175179 -1.24542e-19)
(1.47626 0.173841 -1.88458e-24)
(1.47657 0.172443 7.87315e-20)
(1.47711 0.171038 4.3442e-26)
(1.47756 0.169584 -4.22376e-26)
(1.47819 0.168117 4.99725e-26)
(1.47869 0.166594 -4.86684e-26)
(1.47938 0.165058 5.59078e-26)
(1.47992 0.163466 -4.75107e-19)
(1.48067 0.161857 2.4895e-19)
(1.48133 0.160196 -5.99662e-26)
(1.48216 0.158513 2.70666e-19)
(1.48267 0.156748 6.50621e-26)
(1.4836 0.154987 2.9124e-19)
(1.48411 0.153128 3.01221e-19)
(1.48519 0.151276 0)
(1.48581 0.149324 0)
(1.48688 0.147363 -3.30255e-19)
(1.48774 0.145317 0)
(1.48886 0.143232 -8.50773e-26)
(1.48987 0.141067 1.711e-25)
(1.49095 0.138836 -8.60502e-26)
(1.49168 0.136493 -2.07351e-24)
(1.49313 0.134134 -3.55842e-27)
(1.4939 0.131624 7.95582e-19)
(1.49526 0.129073 4.0786e-19)
(1.49653 0.126412 -4.18118e-19)
(1.49796 0.123653 4.28586e-19)
(1.49921 0.120768 1.06532e-25)
(1.50067 0.117777 -1.70138e-24)
(1.50208 0.114651 0)
(1.50371 0.111404 -4.73113e-19)
(1.50531 0.108008 -9.69935e-19)
(1.50716 0.104475 4.97127e-19)
(1.50905 0.100778 5.09615e-19)
(1.5111 0.0969146 -5.22465e-19)
(1.51311 0.0928665 5.35737e-19)
(1.51531 0.0886343 -5.49471e-19)
(1.51756 0.0841961 0)
(1.52001 0.0795517 5.78275e-19)
(1.52253 0.0746834 -5.93352e-19)
(1.52529 0.0695818 -1.88796e-27)
(1.52817 0.0642332 7.35626e-26)
(4.57303 0.625788 -1.281e-19)
(4.5677 0.623741 -4.80688e-25)
(4.56177 0.621646 5.79977e-25)
(4.5568 0.619606 1.87825e-19)
(4.55254 0.617556 0)
(4.54882 0.615478 3.55867e-24)
(4.54551 0.613378 1.36036e-19)
(4.54268 0.611268 -1.85961e-24)
(4.54008 0.609098 8.55229e-25)
(4.53788 0.606887 0)
(4.53594 0.604619 -3.44793e-19)
(4.53423 0.602284 0)
(4.5328 0.599892 1.34867e-19)
(4.53157 0.597425 4.34022e-25)
(4.5307 0.594905 -2.07241e-19)
(4.52982 0.592281 -3.35725e-26)
(4.52922 0.589588 -3.12138e-25)
(4.52884 0.586821 1.32254e-19)
(4.52845 0.583946 -1.98282e-25)
(4.52835 0.581007 1.89901e-25)
(4.52842 0.577986 -7.45519e-20)
(4.5286 0.574871 1.16684e-19)
(4.52891 0.571666 4.3419e-20)
(4.52942 0.568378 4.52695e-26)
(4.5299 0.564979 -4.35771e-26)
(4.53071 0.561517 5.67058e-28)
(4.53142 0.557932 -2.15265e-26)
(4.53216 0.554243 6.34919e-20)
(4.53344 0.550517 3.85864e-26)
(4.5339 0.546584 6.81651e-20)
(4.53551 0.542689 0)
(4.53589 0.538532 9.99936e-20)
(4.53752 0.534417 -7.66628e-24)
(4.53853 0.530121 -7.38065e-24)
(4.54015 0.525795 0)
(4.54147 0.521323 -1.53037e-19)
(4.54336 0.516804 -1.64596e-19)
(4.54487 0.512123 1.74702e-25)
(4.54697 0.507397 -1.70285e-25)
(4.54857 0.502496 3.9246e-19)
(4.55081 0.497543 -4.1185e-19)
(4.55283 0.492437 0)
(4.5553 0.487251 -1.08373e-23)
(4.55688 0.481832 -4.66288e-19)
(4.5597 0.476408 4.8346e-19)
(4.56123 0.470692 5.0026e-19)
(4.56446 0.464994 -2.52595e-25)
(4.56635 0.458993 -5.32956e-19)
(4.56962 0.452961 5.49005e-19)
(4.57227 0.446671 -2.7539e-25)
(4.57563 0.440255 2.70918e-25)
(4.57869 0.433598 0)
(4.58197 0.426735 -6.12617e-19)
(4.58417 0.41953 -6.28724e-19)
(4.58852 0.412268 -1.50818e-25)
(4.59087 0.404555 -6.61538e-19)
(4.59502 0.396709 -6.78305e-19)
(4.59885 0.388523 6.95375e-19)
(4.60314 0.38004 0)
(4.60697 0.37117 0)
(4.61137 0.361972 -1.49738e-18)
(4.61564 0.352357 5.98411e-27)
(4.62059 0.342375 6.007e-27)
(4.62547 0.331936 5.38357e-24)
(4.63111 0.321075 2.00034e-25)
(4.63682 0.309706 -1.69403e-18)
(4.64305 0.297831 1.73651e-18)
(4.64918 0.285385 -8.90164e-19)
(4.65585 0.272374 0)
(4.66265 0.258729 0)
(4.6701 0.244456 0)
(4.67777 0.22949 -2.3821e-25)
(4.68616 0.21381 3.60332e-25)
(4.69491 0.197371 -1.22261e-25)
(7.89063 1.07982 1.4388e-19)
(7.88101 1.0762 1.29961e-19)
(7.87056 1.07255 3.10018e-24)
(7.86177 1.069 1.57559e-24)
(7.85416 1.06542 -6.90303e-26)
(7.84751 1.06181 -1.70632e-19)
(7.84158 1.05815 0)
(7.83647 1.05448 0)
(7.83179 1.05071 0)
(7.82781 1.04687 0)
(7.82431 1.04293 1.94094e-19)
(7.82121 1.03889 0)
(7.81861 1.03474 6.88918e-24)
(7.81636 1.03047 0)
(7.81472 1.0261 1.16726e-19)
(7.81312 1.02157 4.06192e-25)
(7.81197 1.01691 8.73693e-20)
(7.81118 1.01212 -3.01795e-25)
(7.81044 1.00715 0)
(7.81024 1.00208 -1.82981e-25)
(7.81027 0.996853 -9.01944e-24)
(7.81051 0.991472 -1.31541e-19)
(7.81097 0.985933 8.36486e-24)
(7.81173 0.980251 0)
(7.81254 0.974388 -1.91025e-20)
(7.81387 0.968403 0)
(7.81499 0.962209 2.36432e-26)
(7.8162 0.955838 -3.5792e-20)
(7.81829 0.949401 -5.70258e-20)
(7.81911 0.94262 -2.06868e-26)
(7.82174 0.935886 9.53882e-20)
(7.82238 0.928714 -1.12754e-19)
(7.82509 0.921607 -2.58119e-19)
(7.82681 0.914198 -1.44405e-19)
(7.82952 0.906725 -1.42529e-25)
(7.83175 0.899009 9.90627e-24)
(7.83493 0.891205 1.85665e-19)
(7.83749 0.883131 0)
(7.84099 0.874967 0)
(7.8437 0.866509 0)
(7.84748 0.857958 4.64582e-19)
(7.85092 0.849152 2.23946e-25)
(7.85505 0.840194 -1.01234e-18)
(7.85777 0.830853 5.26057e-19)
(7.8625 0.821481 -5.45438e-19)
(7.86511 0.811625 -5.64398e-19)
(7.87051 0.80178 5.82972e-19)
(7.87374 0.791431 1.20258e-18)
(7.87928 0.78102 -3.02196e-25)
(7.8838 0.770171 -6.37355e-19)
(7.88948 0.759095 -6.55241e-19)
(7.89463 0.747606 3.27714e-25)
(7.90012 0.735758 6.91196e-19)
(7.90389 0.723332 -7.09351e-19)
(7.91116 0.71079 -7.27735e-19)
(7.91514 0.697487 3.6258e-25)
(7.92215 0.683947 1.53061e-18)
(7.92864 0.669823 0)
(7.93588 0.655187 -8.04158e-19)
(7.94235 0.639885 0)
(7.94976 0.624011 8.44704e-19)
(7.95699 0.607428 -4.06078e-25)
(7.96537 0.590206 -8.87336e-19)
(7.97364 0.572203 1.81903e-18)
(7.98319 0.553466 -9.32256e-19)
(7.99289 0.533859 9.55584e-19)
(8.00347 0.51338 -7.33584e-24)
(8.01386 0.491912 0)
(8.02515 0.469475 0)
(8.03669 0.445945 0)
(8.04932 0.421333 -2.61926e-25)
(8.06236 0.395527 2.61619e-25)
(8.0766 0.368494 0)
(8.09143 0.340148 0)
(11.3428 1.55239 1.60519e-19)
(11.3284 1.54705 0)
(11.3131 1.54177 -2.61778e-19)
(11.3002 1.53662 2.35881e-19)
(11.289 1.53143 3.31815e-24)
(11.2791 1.52619 0)
(11.2703 1.52089 0)
(11.2627 1.51558 0)
(11.2558 1.51013 0)
(11.2498 1.50458 -1.80716e-24)
(11.2446 1.49889 3.31826e-24)
(11.2399 1.49305 1.92602e-19)
(11.236 1.48707 8.5342e-24)
(11.2326 1.48091 0)
(11.2301 1.47461 -1.30767e-19)
(11.2277 1.46807 0)
(11.2259 1.46136 -9.78981e-20)
(11.2246 1.45446 -1.67043e-19)
(11.2234 1.44731 1.40671e-19)
(11.2231 1.44 0)
(11.223 1.43248 9.42118e-20)
(11.2232 1.42473 7.37466e-20)
(11.2238 1.41676 -5.48924e-20)
(11.2248 1.40858 0)
(11.2259 1.40015 2.14236e-20)
(11.2277 1.39153 -6.54722e-21)
(11.2292 1.38262 -1.44923e-20)
(11.2308 1.37345 4.01183e-20)
(11.2336 1.36417 6.39738e-20)
(11.2348 1.35444 1.40835e-25)
(11.2383 1.34473 -1.47471e-23)
(11.2393 1.33443 1.26516e-19)
(11.243 1.32419 1.44812e-19)
(11.2454 1.31354 -2.88267e-25)
(11.2491 1.30279 -1.78286e-19)
(11.2523 1.2917 3.87418e-19)
(11.2567 1.28046 0)
(11.2603 1.26885 -2.22303e-19)
(11.2651 1.2571 0)
(11.2689 1.24494 -4.96868e-19)
(11.2742 1.23264 -2.03369e-23)
(11.2791 1.21997 -2.51364e-25)
(11.2848 1.20708 5.68169e-19)
(11.2886 1.19365 -5.90478e-19)
(11.2951 1.18016 6.12248e-19)
(11.2989 1.166 6.33543e-19)
(11.3063 1.15182 -1.66939e-23)
(11.3109 1.13696 -6.75008e-19)
(11.3187 1.12197 0)
(11.325 1.10638 7.15513e-19)
(11.3329 1.09044 7.35599e-19)
(11.3401 1.07391 0)
(11.3477 1.05687 0)
(11.353 1.03901 1.59272e-18)
(11.363 1.02096 8.17006e-19)
(11.3687 1.00184 -8.37923e-19)
(11.3784 0.982367 -1.27775e-23)
(11.3875 0.962063 0)
(11.3976 0.941015 9.02804e-19)
(11.4067 0.919014 0)
(11.417 0.896191 9.48292e-19)
(11.4271 0.872358 -9.71901e-19)
(11.4388 0.847598 1.16748e-23)
(11.4504 0.821724 -1.02102e-18)
(11.4638 0.794796 1.04653e-18)
(11.4775 0.766621 0)
(11.4923 0.737189 -1.09954e-18)
(11.5069 0.706341 -1.12722e-18)
(11.5228 0.674102 5.43409e-25)
(11.539 0.640298 2.8662e-25)
(11.5567 0.604935 -5.80038e-25)
(11.575 0.567865 -1.24819e-18)
(11.5951 0.529032 0)
(11.6158 0.488314 3.17568e-25)
(14.821 2.02853 -1.7736e-19)
(14.8014 2.02137 -1.60394e-19)
(14.7813 2.01444 1.44812e-19)
(14.7641 2.00766 -2.61108e-19)
(14.7492 2.00084 -2.35093e-19)
(14.736 1.99395 0)
(14.7242 1.98699 -1.89712e-19)
(14.714 1.97999 2.52322e-24)
(14.7047 1.97284 -2.38939e-24)
(14.6967 1.96556 0)
(14.6896 1.9581 0)
(14.6834 1.95044 -2.13861e-19)
(14.6781 1.9426 -1.88908e-19)
(14.6735 1.93453 1.66141e-19)
(14.67 1.92628 -1.00015e-23)
(14.6667 1.91772 1.92917e-24)
(14.6642 1.90893 -8.76293e-25)
(14.6624 1.89989 3.71466e-19)
(14.6608 1.89054 -3.12877e-19)
(14.6601 1.88098 0)
(14.6599 1.87113 1.04826e-19)
(14.6601 1.861 -3.49191e-25)
(14.6607 1.85058 0)
(14.6618 1.83987 0)
(14.6631 1.82884 0)
(14.6653 1.81756 7.28741e-21)
(14.6671 1.8059 1.61324e-20)
(14.6692 1.79392 -4.46627e-20)
(14.6725 1.78176 -2.70669e-25)
(14.6741 1.76904 -5.16844e-26)
(14.6783 1.75632 -1.1916e-19)
(14.6796 1.74287 0)
(14.6841 1.72947 0)
(14.6872 1.71555 -3.66667e-25)
(14.6919 1.70148 3.9715e-19)
(14.696 1.68698 -2.15764e-19)
(14.7015 1.67229 4.63519e-25)
(14.706 1.6571 2.47646e-19)
(14.712 1.64173 5.25007e-19)
(14.7169 1.62584 1.1071e-18)
(14.7236 1.60974 -2.39344e-23)
(14.7297 1.59318 0)
(14.7367 1.5763 0)
(14.7417 1.55876 2.23657e-23)
(14.7498 1.5411 -6.82221e-19)
(14.7546 1.5226 -7.05967e-19)
(14.7639 1.50404 -7.29247e-19)
(14.7699 1.48462 7.52163e-19)
(14.7796 1.46502 7.74837e-19)
(14.7877 1.44463 0)
(14.7976 1.42378 0)
(14.8066 1.40217 -8.19993e-25)
(14.8159 1.37987 8.07879e-25)
(14.8228 1.35655 -1.77499e-18)
(14.8352 1.33292 -4.42528e-25)
(14.8424 1.30794 1.59959e-23)
(14.8547 1.28248 -9.57534e-19)
(14.8662 1.25594 4.76429e-25)
(14.8789 1.22842 1.00614e-18)
(14.8903 1.19966 -4.83336e-25)
(14.9032 1.16983 -2.11368e-18)
(14.9161 1.13869 2.16626e-18)
(14.9308 1.10633 1.11012e-18)
(14.9456 1.07253 -5.34055e-25)
(14.9626 1.03735 0)
(14.98 1.00054 1.19531e-18)
(14.9987 0.962093 5.928e-25)
(15.0172 0.9218 1.08533e-23)
(15.0373 0.879694 -1.28788e-18)
(15.0579 0.835544 0)
(15.0804 0.789364 0)
(15.1036 0.740958 2.78101e-18)
(15.129 0.690255 -6.71584e-25)
(15.1553 0.637091 3.53739e-25)
(18.2132 2.49306 1.93926e-19)
(18.1885 2.48405 1.75516e-19)
(18.1638 2.47552 -4.94625e-24)
(18.1425 2.46715 0)
(18.1239 2.45874 2.57788e-19)
(18.1076 2.45023 2.31901e-19)
(18.0929 2.44165 2.0827e-19)
(18.0801 2.43302 2.7715e-24)
(18.0685 2.4242 1.67007e-19)
(18.0585 2.41523 2.20478e-24)
(18.0496 2.40603 -1.35024e-25)
(18.0418 2.3966 -2.35304e-19)
(18.0351 2.38694 -2.07923e-19)
(18.0294 2.37701 -1.829e-19)
(18.0249 2.36684 -1.01662e-23)
(18.0207 2.35631 0)
(18.0175 2.34548 0)
(18.0152 2.33436 -2.04688e-19)
(18.0131 2.32286 1.72443e-19)
(18.0122 2.3111 -5.88559e-25)
(18.0118 2.29899 1.46132e-23)
(18.0119 2.28652 9.05278e-20)
(18.0125 2.27369 -6.7411e-20)
(18.0137 2.26051 2.12245e-25)
(18.0152 2.24694 6.68218e-26)
(18.0175 2.23305 -6.4411e-26)
(18.0196 2.21871 1.77594e-20)
(18.0221 2.20397 -4.92544e-20)
(18.0257 2.18898 -2.98713e-25)
(18.0277 2.17337 1.73051e-25)
(18.0324 2.15768 0)
(18.0341 2.14117 1.55521e-19)
(18.0393 2.12466 0)
(18.043 2.10754 -1.9926e-19)
(18.0485 2.09022 -2.19314e-19)
(18.0533 2.0724 4.30314e-25)
(18.0597 2.0543 0)
(18.0651 2.03564 0)
(18.0722 2.0167 -5.80004e-19)
(18.078 1.99717 -6.11554e-19)
(18.0858 1.97736 -2.6545e-23)
(18.093 1.95698 -6.18855e-25)
(18.1012 1.93619 6.87513e-25)
(18.1072 1.91463 7.27012e-19)
(18.1165 1.89287 3.99879e-26)
(18.1224 1.87015 -7.80109e-19)
(18.1332 1.8473 0)
(18.1404 1.82343 -8.31255e-19)
(18.1518 1.79931 -8.56338e-19)
(18.1614 1.77423 -8.21462e-25)
(18.173 1.74857 0)
(18.1835 1.72198 0)
(18.1943 1.69452 0)
(18.2027 1.66587 9.80963e-19)
(18.217 1.63677 9.41297e-25)
(18.2256 1.60608 1.81873e-23)
(18.2401 1.57476 -1.02785e-24)
(18.2537 1.54213 1.0163e-24)
(18.2684 1.50827 -1.11218e-18)
(18.2818 1.47292 1.13984e-18)
(18.297 1.43624 2.33638e-18)
(18.3122 1.39796 -1.19724e-18)
(18.3297 1.35818 1.22702e-18)
(18.3472 1.31664 0)
(18.3674 1.27341 0)
(18.388 1.22818 -1.32105e-18)
(18.4102 1.18092 0)
(18.4321 1.13142 2.77593e-18)
(18.4559 1.07968 1.42313e-18)
(18.4804 1.02545 0)
(18.507 0.968726 0)
(18.5347 0.909275 -1.53622e-18)
(18.5647 0.847002 7.41916e-25)
(18.5957 0.781714 0)
(21.5059 2.95031 0)
(21.419 2.93216 -2.10023e-19)
(21.3894 2.92133 1.90322e-19)
(21.3606 2.91132 -1.07351e-23)
(21.3358 2.90149 0)
(21.314 2.89158 -8.35344e-24)
(21.2947 2.88156 -2.52234e-19)
(21.2775 2.87146 2.26699e-19)
(21.2623 2.8613 0)
(21.2487 2.85092 -1.81991e-19)
(21.2369 2.84035 0)
(21.2264 2.82952 2.89353e-19)
(21.2171 2.81842 -9.61801e-24)
(21.2092 2.80705 2.2699e-19)
(21.2025 2.79536 3.17723e-24)
(21.197 2.78338 3.4968e-19)
(21.1921 2.77099 2.436e-24)
(21.1883 2.75825 0)
(21.1854 2.74516 -2.23868e-19)
(21.183 2.73163 2.8832e-24)
(21.1818 2.71779 -2.3891e-24)
(21.1812 2.70352 1.90372e-23)
(21.1812 2.68884 -9.9085e-20)
(21.1818 2.67374 1.4761e-19)
(21.183 2.65822 0)
(21.1846 2.64225 2.88646e-20)
(21.1872 2.62589 -8.84787e-21)
(21.1894 2.609 -1.94551e-20)
(21.1922 2.59165 5.39647e-20)
(21.196 2.57397 -3.91916e-25)
(21.1984 2.55561 3.79211e-25)
(21.2034 2.53709 0)
(21.2055 2.51769 -1.70476e-19)
(21.2112 2.49823 1.95169e-19)
(21.2154 2.47809 2.18463e-19)
(21.2215 2.45769 -9.70288e-25)
(21.227 2.43671 2.61284e-19)
(21.2341 2.41539 1.02293e-25)
(21.2403 2.39341 2.99984e-19)
(21.2481 2.3711 0)
(21.2548 2.34811 0)
(21.2635 2.32477 -7.0407e-19)
(21.2716 2.30078 6.7887e-25)
(21.2805 2.27626 -7.6733e-19)
(21.2874 2.2509 -7.97581e-19)
(21.2976 2.22524 0)
(21.3046 2.19853 8.55967e-19)
(21.3164 2.17158 0)
(21.3248 2.14351 0)
(21.3376 2.11509 0)
(21.3484 2.08557 0)
(21.3613 2.05534 9.68726e-25)
(21.3729 2.02401 -9.53789e-25)
(21.3848 1.99166 0)
(21.3945 1.95797 1.07667e-18)
(21.4101 1.92366 0)
(21.42 1.88758 1.13303e-18)
(21.4363 1.8507 -1.12825e-24)
(21.4515 1.81228 -1.19105e-18)
(21.4679 1.77242 1.14401e-24)
(21.4829 1.73081 -1.25125e-18)
(21.4999 1.68764 -1.9767e-23)
(21.5171 1.64261 1.31418e-18)
(21.5367 1.59581 -2.69374e-18)
(21.5566 1.54695 0)
(21.5794 1.49608 1.36985e-24)
(21.6027 1.44289 -1.44986e-18)
(21.6277 1.3873 1.48595e-18)
(21.6525 1.32908 -1.52313e-18)
(21.6793 1.26824 -1.46826e-24)
(21.7071 1.20448 0)
(21.7372 1.13779 0)
(21.7685 1.0679 0)
(21.8024 0.994701 -8.35464e-25)
(21.8373 0.917962 -2.1697e-26)
(24.4477 3.35402 2.49118e-19)
(24.3614 3.33528 2.25916e-19)
(24.3276 3.32278 -4.09931e-19)
(24.2956 3.31148 0)
(24.2679 3.30034 -3.35471e-19)
(24.2435 3.28912 -3.02741e-19)
(24.2219 3.27775 0)
(24.2027 3.26629 -2.45322e-19)
(24.1856 3.25474 -2.20224e-19)
(24.1704 3.24296 1.20481e-23)
(24.157 3.23094 3.52425e-19)
(24.1452 3.21864 -6.27913e-19)
(24.1349 3.20603 -1.60112e-23)
(24.126 3.1931 0)
(24.1184 3.17982 0)
(24.1122 3.16619 -1.90069e-19)
(24.1067 3.1521 2.46609e-25)
(24.1024 3.13761 -1.42644e-19)
(24.0992 3.12272 2.43617e-19)
(24.0965 3.10734 -2.05381e-19)
(24.0952 3.09159 -1.19915e-24)
(24.0944 3.07535 2.11224e-23)
(24.0943 3.05864 -1.07983e-19)
(24.0949 3.04146 -8.0433e-20)
(24.0962 3.02378 3.36082e-25)
(24.0979 3.0056 -3.14672e-20)
(24.1006 2.98696 9.64732e-21)
(24.103 2.96772 0)
(24.106 2.94798 -5.88062e-20)
(24.1099 2.92782 9.38671e-20)
(24.1127 2.90694 0)
(24.1177 2.8858 -6.64959e-25)
(24.1203 2.86376 6.44602e-25)
(24.1263 2.84156 -2.13034e-19)
(24.131 2.81864 -2.3844e-19)
(24.1376 2.79539 2.00106e-24)
(24.1437 2.77152 -2.85288e-19)
(24.1513 2.74721 0)
(24.1581 2.72219 -3.27609e-19)
(24.1665 2.69676 0)
(24.1739 2.67059 0)
(24.1833 2.64398 0)
(24.1921 2.61665 -1.58383e-24)
(24.2015 2.58869 3.41597e-23)
(24.2091 2.55983 8.71449e-19)
(24.2199 2.53056 -9.03729e-19)
(24.2278 2.50018 0)
(24.2404 2.46944 1.88946e-24)
(24.2498 2.43751 9.96802e-19)
(24.2635 2.40511 1.027e-18)
(24.2754 2.3715 1.05697e-18)
(24.2892 2.33703 1.08683e-18)
(24.3016 2.30134 -1.11675e-18)
(24.3141 2.26447 0)
(24.325 2.22615 -2.35415e-18)
(24.3414 2.18701 1.20776e-18)
(24.3524 2.14597 2.40714e-24)
(24.37 2.10396 -2.37856e-24)
(24.3864 2.06022 2.54126e-23)
(24.4039 2.0148 1.33495e-18)
(24.4201 1.96744 0)
(24.4385 1.91829 -1.40223e-18)
(24.4572 1.86704 -1.43703e-18)
(24.4785 1.81377 1.47272e-18)
(24.5003 1.75818 -1.50925e-18)
(24.5252 1.70029 1.45249e-24)
(24.5507 1.63976 1.58511e-18)
(24.5778 1.57651 -1.62446e-18)
(24.6048 1.51028 1.61076e-24)
(24.6341 1.44107 4.6083e-26)
(24.6644 1.36855 -3.33845e-24)
(24.6972 1.2927 -1.79514e-18)
(24.7314 1.21323 1.84163e-18)
(24.7684 1.12999 -3.6045e-24)
(24.8062 1.04274 1.82614e-24)
(27.0631 3.71345 -2.66599e-19)
(26.9919 3.69577 -2.42166e-19)
(26.9546 3.68183 4.40073e-19)
(26.9207 3.66947 -2.48845e-23)
(26.8911 3.65725 3.61021e-19)
(26.8651 3.64492 6.52351e-19)
(26.842 3.63241 1.75188e-23)
(26.8213 3.61979 -8.5404e-25)
(26.803 3.60706 4.75879e-19)
(26.7868 3.59408 1.97365e-23)
(26.7725 3.58082 -3.81413e-19)
(26.7599 3.56724 3.40017e-19)
(26.7489 3.55331 3.02106e-19)
(26.7394 3.53904 -2.67369e-19)
(26.7314 3.52435 -7.19562e-24)
(26.7247 3.50927 2.06345e-19)
(26.719 3.49369 0)
(26.7145 3.47766 1.5498e-19)
(26.711 3.46118 2.64838e-19)
(26.7083 3.44416 2.23311e-19)
(26.707 3.42671 0)
(26.7062 3.40873 -2.99939e-19)
(26.7061 3.39021 1.17527e-19)
(26.7068 3.37116 8.76105e-20)
(26.7082 3.35157 0)
(26.7101 3.33141 -3.4314e-20)
(26.7128 3.31072 3.76887e-27)
(26.7155 3.2894 -2.30221e-20)
(26.7187 3.2675 3.39595e-23)
(26.7227 3.24511 -3.25778e-23)
(26.7258 3.22197 5.99755e-25)
(26.7308 3.19848 -5.81035e-25)
(26.7339 3.17407 -2.02868e-19)
(26.7402 3.14942 0)
(26.7454 3.12402 2.60162e-19)
(26.7523 3.09821 2.86403e-19)
(26.7589 3.07172 3.11309e-19)
(26.7669 3.04473 -1.33821e-24)
(26.7742 3.01698 1.30389e-24)
(26.783 2.98874 0)
(26.791 2.95971 7.9987e-19)
(26.8008 2.93016 -8.39757e-19)
(26.8101 2.89981 -8.7829e-19)
(26.8198 2.86875 9.15643e-19)
(26.8281 2.83675 9.51834e-19)
(26.8392 2.80423 9.87266e-19)
(26.848 2.77056 -1.89691e-24)
(26.861 2.7364 -2.06436e-24)
(26.8713 2.70101 -1.08918e-18)
(26.8856 2.66501 -3.53413e-23)
(26.8982 2.62772 -1.15514e-18)
(26.9125 2.58944 -3.41141e-23)
(26.9253 2.5498 1.22069e-18)
(26.9383 2.50886 0)
(26.9501 2.46638 3.26835e-23)
(26.9668 2.4229 -1.32047e-18)
(26.9789 2.37741 1.3544e-18)
(26.9973 2.33078 1.38894e-18)
(27.0146 2.28224 1.42408e-18)
(27.0328 2.23183 -2.91959e-18)
(27.0498 2.1793 0)
(27.0692 2.12478 -2.97357e-24)
(27.0891 2.06794 -1.57135e-18)
(27.1116 2.00885 0)
(27.1348 1.94722 1.65025e-18)
(27.1613 1.88303 0)
(27.1884 1.81592 -1.73294e-18)
(27.217 1.74578 -1.71847e-24)
(27.2457 1.67236 3.47149e-24)
(27.2768 1.59565 5.0369e-26)
(27.3091 1.51528 1.91279e-18)
(27.344 1.43121 1.9618e-18)
(27.3805 1.34316 -2.01248e-18)
(27.4197 1.25093 1.99516e-24)
(27.4596 1.15425 -1.99554e-24)
(29.3468 4.02718 2.84872e-19)
(29.2872 4.01041 -2.59151e-19)
(29.2482 3.9954 -2.3598e-19)
(29.2137 3.98226 2.56072e-23)
(29.1835 3.96922 -1.07295e-24)
(29.157 3.95604 -3.51395e-19)
(29.1334 3.94264 3.17342e-19)
(29.1124 3.92911 0)
(29.0937 3.91544 -2.57241e-19)
(29.0772 3.90148 2.30833e-19)
(29.0627 3.88721 -4.1319e-19)
(29.05 3.87258 3.68663e-19)
(29.0389 3.85757 2.0028e-23)
(29.0294 3.84217 5.80654e-19)
(29.0214 3.82632 -7.49723e-24)
(29.0148 3.81001 -4.48711e-19)
(29.0092 3.79318 0)
(29.0048 3.77585 4.8785e-24)
(29.0016 3.75801 -5.76899e-19)
(28.9992 3.73959 -2.4338e-19)
(28.998 3.72069 0)
(28.9974 3.70119 1.63561e-19)
(28.9976 3.68112 4.41599e-25)
(28.9986 3.66045 2.70652e-23)
(29.0002 3.63919 0)
(29.0024 3.61732 3.74753e-20)
(29.0053 3.59485 -3.6742e-25)
(29.0083 3.5717 2.51571e-20)
(29.0118 3.54792 4.10493e-23)
(29.0159 3.52359 -1.11852e-19)
(29.0194 3.49848 0)
(29.0245 3.47292 1.87549e-19)
(29.0281 3.44646 2.21942e-19)
(29.0346 3.41965 -2.08566e-24)
(29.0403 3.39207 2.84673e-19)
(29.0475 3.36402 -3.13499e-19)
(29.0546 3.33525 -6.81613e-19)
(29.0629 3.30589 2.93039e-24)
(29.0707 3.27575 3.91581e-19)
(29.0798 3.24503 -8.30631e-19)
(29.0883 3.21349 -1.75238e-18)
(29.0984 3.18135 5.1368e-23)
(29.1079 3.14835 9.62397e-19)
(29.1178 3.11455 -1.00335e-18)
(29.1266 3.07978 -1.04322e-18)
(29.1379 3.0444 0)
(29.1474 3.00785 -1.12006e-18)
(29.1606 2.97067 1.1175e-25)
(29.1717 2.93223 1.19418e-18)
(29.1864 2.89307 -1.23069e-18)
(29.1995 2.85253 1.26681e-18)
(29.2139 2.81086 -2.60581e-18)
(29.2269 2.76775 0)
(29.24 2.72322 0)
(29.2526 2.67709 2.82358e-18)
(29.2693 2.62976 2.81679e-24)
(29.2823 2.58038 -4.24983e-23)
(29.3012 2.52967 -1.52429e-18)
(29.319 2.4769 1.56287e-18)
(29.3374 2.42209 1.60221e-18)
(29.355 2.36501 0)
(29.375 2.30576 0)
(29.3958 2.24402 1.72463e-18)
(29.4192 2.17982 -3.31697e-24)
(29.4436 2.11288 -1.81097e-18)
(29.4712 2.04315 0)
(29.4993 1.97025 1.90154e-18)
(29.529 1.89405 -3.66198e-24)
(29.5589 1.81433 0)
(29.5914 1.73102 2.04638e-18)
(29.6252 1.64377 -2.09805e-18)
(29.6617 1.5525 -2.1516e-18)
(29.7 1.45691 -2.20707e-18)
(29.7408 1.35678 2.18814e-24)
(29.7821 1.25184 -4.43425e-24)
(31.2942 4.29486 -3.04059e-19)
(31.2437 4.27869 2.77303e-19)
(31.2051 4.26305 0)
(31.1718 4.24944 2.30196e-19)
(31.1425 4.23588 4.18062e-19)
(31.1169 4.22215 0)
(31.0942 4.20815 -1.03356e-24)
(31.0739 4.19397 -3.09373e-19)
(31.056 4.17963 0)
(31.0402 4.16496 -2.50348e-19)
(31.0264 4.14994 4.4863e-19)
(31.0144 4.13453 -4.00741e-19)
(31.004 4.11869 3.56734e-19)
(30.9953 4.10241 -3.16215e-19)
(30.988 4.08564 0)
(30.982 4.06837 2.44792e-19)
(30.9771 4.05053 0)
(30.9734 4.03214 0)
(30.9709 4.0132 3.15408e-19)
(30.9691 3.99365 2.66269e-19)
(30.9685 3.97353 3.64251e-24)
(30.9685 3.95279 1.79217e-19)
(30.9693 3.93142 1.40606e-19)
(30.9708 3.90941 -2.09758e-19)
(30.9729 3.88675 0)
(30.9756 3.86342 4.11778e-20)
(30.9789 3.83945 8.29687e-27)
(30.9823 3.81476 -8.01465e-27)
(30.9863 3.78938 7.68867e-20)
(30.9906 3.76339 -1.11895e-24)
(30.9946 3.7366 1.08361e-24)
(30.9998 3.70928 -4.36301e-23)
(31.0043 3.68108 -2.44038e-19)
(31.011 3.65243 4.26249e-24)
(31.0172 3.62299 -3.13259e-19)
(31.0248 3.593 -3.44986e-19)
(31.0324 3.56228 7.50322e-19)
(31.041 3.53089 0)
(31.0493 3.49869 -4.31273e-19)
(31.0586 3.46584 1.82993e-18)
(31.0676 3.43214 6.05411e-23)
(31.0778 3.39775 1.01383e-18)
(31.0876 3.36246 0)
(31.0974 3.3263 2.21204e-18)
(31.1068 3.28916 1.15005e-18)
(31.1181 3.25129 1.19313e-18)
(31.1284 3.21226 1.23522e-18)
(31.1417 3.17247 -1.27659e-18)
(31.1534 3.13142 -5.88402e-23)
(31.1682 3.0895 1.35774e-18)
(31.1815 3.04614 -2.79575e-18)
(31.1958 3.00154 1.43793e-18)
(31.2088 2.95542 0)
(31.222 2.9078 0)
(31.2351 2.85851 -1.55865e-18)
(31.2516 2.80785 0)
(31.2653 2.75511 -3.28227e-18)
(31.2844 2.70087 0)
(31.3023 2.64445 -3.45211e-18)
(31.3208 2.58583 1.7695e-18)
(31.3388 2.52482 0)
(31.3593 2.46149 0)
(31.3807 2.39552 0)
(31.4047 2.32691 0)
(31.43 2.2554 3.99959e-18)
(31.4583 2.18089 0)
(31.4872 2.10299 -2.09939e-18)
(31.5176 2.02158 -4.04266e-24)
(31.5485 1.93642 -2.20381e-18)
(31.582 1.84744 -4.51715e-18)
(31.6171 1.75425 -2.31531e-18)
(31.6548 1.65678 2.37438e-18)
(31.6944 1.55471 4.87105e-18)
(31.7363 1.44778 1.24957e-18)
(31.7784 1.33571 0)
(32.913 4.51752 3.23663e-19)
(32.8705 4.50188 7.09434e-23)
(32.835 4.48606 2.70832e-19)
(32.8046 4.47232 -2.47093e-19)
(32.7781 4.45859 -4.49858e-19)
(32.7549 4.44461 5.10945e-23)
(32.7345 4.43032 -3.70317e-19)
(32.7164 4.41581 3.34932e-19)
(32.7005 4.40109 3.02184e-19)
(32.6867 4.386 3.42077e-23)
(32.6748 4.37051 2.88859e-23)
(32.6646 4.35459 -4.36711e-19)
(32.6559 4.33819 -7.78442e-19)
(32.6488 4.32132 2.03022e-23)
(32.643 4.30389 -3.05218e-19)
(32.6384 4.28592 2.68045e-19)
(32.635 4.26734 1.49874e-23)
(32.6326 4.24816 1.16981e-23)
(32.6313 4.22839 3.46383e-19)
(32.6308 4.20794 1.78932e-23)
(32.6313 4.18689 -8.01322e-24)
(32.6323 4.16516 4.14178e-23)
(32.6341 4.14276 -1.54856e-19)
(32.6365 4.11967 2.31242e-19)
(32.6394 4.09588 -9.68491e-25)
(32.6429 4.07138 3.54407e-23)
(32.6469 4.04618 -1.40535e-20)
(32.651 4.02023 0)
(32.6556 3.99353 -8.55099e-25)
(32.6605 3.96617 -1.35731e-19)
(32.6652 3.938 1.83365e-19)
(32.6709 3.90922 -2.2812e-19)
(32.6762 3.87958 2.70091e-19)
(32.6834 3.84939 -2.17866e-24)
(32.6903 3.8184 0)
(32.6984 3.78681 3.82182e-19)
(32.7065 3.75444 -4.50612e-23)
(32.7154 3.72135 0)
(32.7242 3.68742 0)
(32.7338 3.65277 -1.01469e-18)
(32.7433 3.61725 1.07079e-18)
(32.7536 3.58096 0)
(32.7635 3.54372 0)
(32.7735 3.50557 -7.40764e-23)
(32.7833 3.46642 -1.27686e-18)
(32.7948 3.42646 -1.32494e-18)
(32.8057 3.38534 0)
(32.819 3.34333 6.30071e-23)
(32.8313 3.30005 -6.77299e-23)
(32.8459 3.25578 -6.10281e-23)
(32.8593 3.21003 1.55379e-18)
(32.8732 3.16292 5.96544e-24)
(32.8861 3.11425 6.40008e-24)
(32.8993 3.064 -6.30906e-24)
(32.9128 3.01204 0)
(32.929 2.95854 -1.77949e-18)
(32.9434 2.90297 1.82573e-18)
(32.9624 2.84571 -7.01332e-24)
(32.9802 2.78618 1.92051e-18)
(32.9986 2.72432 -7.301e-23)
(33.0169 2.65999 7.56684e-24)
(33.0376 2.59321 0)
(33.0596 2.52366 0)
(33.0841 2.45133 0)
(33.1102 2.37594 -2.22463e-18)
(33.139 2.29737 -8.82778e-24)
(33.1685 2.21525 2.33498e-18)
(33.1993 2.12941 0)
(33.2311 2.03966 4.9007e-18)
(33.2656 1.94588 2.51092e-18)
(33.3018 1.84768 2.57383e-18)
(33.3405 1.74496 5.10302e-24)
(33.3812 1.6374 -9.78617e-23)
(33.4238 1.52471 -1.38913e-18)
(33.4662 1.4066 -5.37156e-24)
(34.2191 4.69727 -6.85602e-19)
(34.1849 4.6823 -7.83926e-23)
(34.1549 4.66676 -2.88845e-19)
(34.1295 4.65324 6.3176e-23)
(34.1075 4.63967 -2.6656e-24)
(34.0887 4.62579 -4.39527e-19)
(34.0722 4.61153 -3.99365e-19)
(34.0578 4.59701 -4.30624e-23)
(34.0454 4.58222 -3.27362e-19)
(34.035 4.56701 3.50104e-23)
(34.0262 4.55135 -3.34554e-23)
(34.0189 4.53521 4.75903e-19)
(34.0131 4.51854 4.24963e-19)
(34.0086 4.50134 3.77811e-19)
(34.0053 4.48355 3.34252e-19)
(34.0031 4.46515 -2.94021e-19)
(34.0019 4.44611 3.13926e-23)
(34.0016 4.4264 -2.71955e-23)
(34.0023 4.40606 -7.6281e-19)
(34.0037 4.385 -1.0532e-23)
(34.0059 4.36327 0)
(34.0085 4.34082 -2.17899e-19)
(34.0117 4.31765 0)
(34.0155 4.29374 -1.27954e-19)
(34.0198 4.2691 3.23409e-24)
(34.0245 4.24369 -5.03878e-20)
(34.0296 4.21754 1.5585e-20)
(34.0348 4.1906 1.74824e-26)
(34.0403 4.16286 0)
(34.046 4.13442 3.01546e-19)
(34.0517 4.10515 -4.07624e-19)
(34.0582 4.07522 0)
(34.0647 4.04443 0)
(34.0727 4.013 3.44571e-19)
(34.0804 3.98077 0)
(34.0892 3.94787 4.25748e-19)
(34.098 3.91416 -4.63346e-19)
(34.1074 3.87968 -7.24809e-24)
(34.1168 3.84432 0)
(34.1267 3.80819 0)
(34.1366 3.77117 1.19514e-18)
(34.1471 3.7333 0)
(34.1573 3.69445 0)
(34.1675 3.65466 -2.74313e-18)
(34.1778 3.61386 1.42681e-18)
(34.1895 3.57217 1.09825e-23)
(34.201 3.52931 1.53383e-18)
(34.2143 3.48546 3.17209e-18)
(34.227 3.44033 -6.0988e-23)
(34.2414 3.39409 -9.77173e-23)
(34.2546 3.34632 -6.78214e-24)
(34.2681 3.29711 6.67827e-24)
(34.2808 3.24631 -1.84001e-18)
(34.294 3.19388 0)
(34.3079 3.13969 1.94166e-18)
(34.3237 3.08383 1.99359e-18)
(34.3387 3.0259 -2.04547e-18)
(34.3574 2.96613 0)
(34.375 2.90399 0)
(34.3932 2.83944 -9.39855e-23)
(34.4119 2.77235 8.47919e-24)
(34.4329 2.7027 2.31725e-18)
(34.4555 2.63019 -2.37428e-18)
(34.4806 2.55476 -2.43257e-18)
(34.5074 2.47616 2.49208e-18)
(34.5366 2.39422 -9.58986e-24)
(34.5666 2.30859 1.01252e-23)
(34.598 2.21908 -2.67841e-18)
(34.6307 2.12552 -2.74344e-18)
(34.6662 2.02776 0)
(34.7035 1.9254 -2.88098e-18)
(34.7433 1.81832 0)
(34.7848 1.70619 -1.18527e-22)
(34.8276 1.58869 6.01029e-24)
(34.8699 1.46554 -6.01486e-24)
(35.2342 4.83704 7.19571e-19)
(35.2093 4.82297 -8.25968e-23)
(35.1869 4.80812 -7.31106e-23)
(35.1684 4.79515 2.8065e-19)
(35.1529 4.78209 0)
(35.14 4.76864 4.69637e-19)
(35.1292 4.75474 4.28152e-19)
(35.1201 4.74051 -4.88109e-23)
(35.1127 4.72596 0)
(35.107 4.71094 0)
(35.1027 4.69541 0)
(35.0996 4.67933 3.05327e-23)
(35.0978 4.66269 -2.92725e-23)
(35.0971 4.64545 -4.12167e-19)
(35.0973 4.62756 -2.32474e-23)
(35.0985 4.60901 0)
(35.1004 4.58977 0)
(35.1032 4.56981 0)
(35.1066 4.54916 4.19823e-19)
(35.1106 4.52774 0)
(35.1151 4.50559 0)
(35.12 4.48269 -6.6888e-24)
(35.1254 4.45902 -1.89594e-19)
(35.1311 4.43456 0)
(35.1372 4.40931 -9.74239e-20)
(35.1435 4.38326 5.60401e-20)
(35.1502 4.35642 -1.86003e-26)
(35.1569 4.32875 -3.72624e-20)
(35.1638 4.30025 0)
(35.1708 4.27101 -1.67924e-19)
(35.1779 4.24091 2.27178e-19)
(35.1857 4.21012 -2.82841e-19)
(35.1937 4.17845 -3.35317e-19)
(35.2027 4.14608 -3.84904e-19)
(35.2116 4.11287 -1.31614e-23)
(35.2212 4.07895 -7.51396e-23)
(35.2308 4.04419 7.4882e-24)
(35.241 4.0086 0)
(35.2511 3.97212 0)
(35.2616 3.93481 -1.26856e-18)
(35.272 3.89658 -2.6797e-18)
(35.2827 3.85744 -1.11182e-23)
(35.2932 3.81731 1.08805e-23)
(35.3039 3.77619 1.53946e-18)
(35.3148 3.73407 -1.1745e-22)
(35.3268 3.69098 -1.66335e-18)
(35.3389 3.64671 -3.44689e-18)
(35.3523 3.60136 -1.25427e-22)
(35.3652 3.55472 -1.84108e-18)
(35.3792 3.50685 -1.89906e-18)
(35.3921 3.45743 0)
(35.4052 3.40651 0)
(35.4179 3.35397 2.07128e-18)
(35.4312 3.29977 0)
(35.4453 3.24376 -2.18669e-18)
(35.4609 3.18599 -1.74609e-23)
(35.4764 3.12613 2.30433e-18)
(35.4947 3.06429 2.36409e-18)
(35.5122 3.00003 0)
(35.5304 2.9333 -2.48582e-18)