/*--------------------------------*- C++ -*----------------------------------*\
| =========                 |                                                 |
| \\      /  F ield         | OpenFOAM: The Open Source CFD Toolbox           |
|  \\    /   O peration     | Version:  2412                                  |
|   \\  /    A nd           | Website:  www.openfoam.com                      |
|    \\/     M anipulation  |                                                 |
\*---------------------------------------------------------------------------*/
FoamFile
{
    version     2.0;
    format      ascii;
    arch        "LSB;label=32;scalar=64";
    class       volScalarField;
    location    "60";
    object      nut;
}
// * * * * * * * * * * * * * * * * * * * * * * * * * * * * * * * * * * * * * //

dimensions      [0 2 -1 0 0 0 0];

internalField   nonuniform List<scalar> 
7423
(
2.62671e-10
4.57598e-10
4.36897e-10
3.48652e-10
2.04771e-10
1.06796e-10
6.22786e-11
3.26219e-11
2.48198e-11
1.9618e-11
1.64487e-11
1.4441e-11
1.38737e-11
1.42423e-11
1.48509e-11
1.54643e-11
1.59872e-11
1.64115e-11
1.67061e-11
1.69142e-11
1.70213e-11
1.70641e-11
1.70277e-11
1.69445e-11
1.68063e-11
1.66371e-11
1.6429e-11
1.62029e-11
1.59509e-11
1.56828e-11
1.54003e-11
1.51064e-11
1.4805e-11
1.44976e-11
1.41878e-11
1.38786e-11
1.35724e-11
1.3271e-11
1.2976e-11
1.26898e-11
1.24146e-11
1.21502e-11
1.18979e-11
1.1659e-11
1.14328e-11
1.12206e-11
1.10224e-11
1.08383e-11
1.06672e-11
1.05094e-11
1.03655e-11
1.02342e-11
1.01166e-11
1.00133e-11
9.92487e-12
9.85134e-12
9.79392e-12
9.75322e-12
9.73102e-12
9.72723e-12
9.74399e-12
9.78375e-12
9.8486e-12
9.94221e-12
1.00711e-11
1.02358e-11
1.04267e-11
1.06279e-11
1.0825e-11
1.10079e-11
1.11748e-11
1.13269e-11
1.14658e-11
1.15942e-11
1.16966e-11
1.18021e-11
2.18793e-08
4.74341e-08
5.18813e-08
4.58565e-08
2.83949e-08
1.47112e-08
8.03639e-09
2.62362e-09
2.17932e-09
1.8596e-09
1.62084e-09
1.42394e-09
1.36161e-09
1.3897e-09
1.44386e-09
1.49977e-09
1.54782e-09
1.58689e-09
1.61396e-09
1.63284e-09
1.64227e-09
1.64556e-09
1.64137e-09
1.63265e-09
1.61871e-09
1.60176e-09
1.58106e-09
1.55852e-09
1.53346e-09
1.50684e-09
1.47883e-09
1.44969e-09
1.41976e-09
1.3893e-09
1.35858e-09
1.32784e-09
1.29735e-09
1.26727e-09
1.23776e-09
1.20905e-09
1.18132e-09
1.15459e-09
1.12898e-09
1.10464e-09
1.0815e-09
1.05968e-09
1.03918e-09
1.02002e-09
1.00213e-09
9.85501e-10
9.70209e-10
9.56158e-10
9.43442e-10
9.32105e-10
9.22238e-10
9.13865e-10
9.07071e-10
9.01958e-10
8.98739e-10
8.97411e-10
8.98177e-10
9.01273e-10
9.06994e-10
9.15742e-10
9.28203e-10
9.44608e-10
9.64061e-10
9.84847e-10
1.00527e-09
1.02423e-09
1.04148e-09
1.05712e-09
1.07134e-09
1.08445e-09
1.09503e-09
1.10555e-09
1.71783e-07
3.7797e-07
4.60844e-07
4.4585e-07
2.98472e-07
1.64711e-07
9.39492e-08
2.27326e-08
1.91052e-08
1.70822e-08
1.54996e-08
1.40714e-08
1.37129e-08
1.39176e-08
1.4384e-08
1.48852e-08
1.53227e-08
1.56789e-08
1.59264e-08
1.60957e-08
1.61757e-08
1.61961e-08
1.61463e-08
1.60508e-08
1.59056e-08
1.57292e-08
1.55166e-08
1.52845e-08
1.50273e-08
1.47543e-08
1.44672e-08
1.41687e-08
1.38618e-08
1.35491e-08
1.32331e-08
1.29159e-08
1.26e-08
1.22874e-08
1.19798e-08
1.16789e-08
1.13865e-08
1.11036e-08
1.08309e-08
1.05697e-08
1.03204e-08
1.00833e-08
9.859e-09
9.64753e-09
9.4483e-09
9.26181e-09
9.08842e-09
8.92765e-09
8.78047e-09
8.64732e-09
8.52923e-09
8.42716e-09
8.34169e-09
8.27415e-09
8.22677e-09
8.19967e-09
8.19524e-09
8.21566e-09
8.26432e-09
8.34655e-09
8.47048e-09
8.64007e-09
8.84649e-09
9.07094e-09
9.29289e-09
9.49924e-09
9.68625e-09
9.85485e-09
1.00077e-08
1.01477e-08
1.02629e-08
1.03712e-08
6.37098e-07
1.32909e-06
1.81228e-06
1.93693e-06
1.41723e-06
8.45001e-07
5.09358e-07
1.22427e-07
9.1426e-08
7.79169e-08
7.17857e-08
6.88341e-08
6.99497e-08
7.06437e-08
7.252e-08
7.46748e-08
7.66075e-08
7.81876e-08
7.92907e-08
8.0024e-08
8.03477e-08
8.03756e-08
8.0077e-08
7.95485e-08
7.87791e-08
7.78495e-08
7.67408e-08
7.55272e-08
7.41905e-08
7.27704e-08
7.12778e-08
6.97268e-08
6.81292e-08
6.64996e-08
6.4848e-08
6.31855e-08
6.15227e-08
5.98706e-08
5.82366e-08
5.66307e-08
5.50603e-08
5.35313e-08
5.20488e-08
5.06189e-08
4.92441e-08
4.79277e-08
4.66715e-08
4.54779e-08
4.43442e-08
4.32743e-08
4.22707e-08
4.13315e-08
4.04629e-08
3.96683e-08
3.89535e-08
3.83249e-08
3.77862e-08
3.73451e-08
3.70134e-08
3.67913e-08
3.66925e-08
3.67281e-08
3.69167e-08
3.72916e-08
3.79025e-08
3.87794e-08
3.98816e-08
4.11069e-08
4.23316e-08
4.34735e-08
4.45057e-08
4.54326e-08
4.62694e-08
4.70314e-08
4.76695e-08
4.82349e-08
1.58762e-06
3.13797e-06
4.58326e-06
5.52634e-06
4.45399e-06
2.87808e-06
1.83505e-06
5.14736e-07
3.65263e-07
2.78545e-07
2.40311e-07
2.39666e-07
2.56263e-07
2.57534e-07
2.6223e-07
2.68365e-07
2.74138e-07
2.78889e-07
2.82249e-07
2.84375e-07
2.8521e-07
2.85014e-07
2.83755e-07
2.81672e-07
2.78772e-07
2.75266e-07
2.71147e-07
2.66607e-07
2.61639e-07
2.5636e-07
2.50813e-07
2.45047e-07
2.39106e-07
2.33031e-07
2.26863e-07
2.20631e-07
2.14375e-07
2.08131e-07
2.01926e-07
1.95793e-07
1.89759e-07
1.83848e-07
1.7808e-07
1.72477e-07
1.67054e-07
1.61823e-07
1.56797e-07
1.51986e-07
1.47387e-07
1.43015e-07
1.38886e-07
1.34997e-07
1.31373e-07
1.28032e-07
1.24998e-07
1.22296e-07
1.19943e-07
1.17969e-07
1.16416e-07
1.15285e-07
1.14622e-07
1.14472e-07
1.14903e-07
1.16053e-07
1.18132e-07
1.21292e-07
1.2542e-07
1.30132e-07
1.34912e-07
1.39392e-07
1.43443e-07
1.47068e-07
1.50331e-07
1.53286e-07
1.55799e-07
1.579e-07
3.05332e-06
5.9568e-06
9.04361e-06
1.20183e-05
1.07606e-05
7.54624e-06
5.08354e-06
1.81977e-06
1.26241e-06
9.16926e-07
7.33482e-07
7.03548e-07
7.7323e-07
7.71358e-07
7.77901e-07
7.90213e-07
8.02988e-07
8.13646e-07
8.21343e-07
8.25799e-07
8.27114e-07
8.25533e-07
8.21231e-07
8.1453e-07
8.05633e-07
7.94844e-07
7.82365e-07
7.68523e-07
7.53466e-07
7.37456e-07
7.20647e-07
7.03173e-07
6.85168e-07
6.66738e-07
6.47978e-07
6.28981e-07
6.0984e-07
5.90648e-07
5.71491e-07
5.52451e-07
5.3361e-07
5.15045e-07
4.96817e-07
4.78997e-07
4.61638e-07
4.44789e-07
4.28502e-07
4.1282e-07
3.97754e-07
3.83358e-07
3.69701e-07
3.56797e-07
3.44716e-07
3.33527e-07
3.23312e-07
3.14149e-07
3.06086e-07
2.99205e-07
2.93634e-07
2.8936e-07
2.86513e-07
2.85213e-07
2.85667e-07
2.88306e-07
2.93819e-07
3.02788e-07
3.15033e-07
3.29448e-07
3.44347e-07
3.58433e-07
3.71189e-07
3.82591e-07
3.92829e-07
4.02059e-07
4.10017e-07
4.16313e-07
4.85701e-06
9.68473e-06
1.53307e-05
2.21704e-05
2.18854e-05
1.66826e-05
1.18068e-05
5.657e-06
3.90699e-06
2.77526e-06
2.13459e-06
1.9279e-06
2.05903e-06
2.02741e-06
2.02131e-06
2.03514e-06
2.05472e-06
2.07161e-06
2.0843e-06
2.08994e-06
2.08955e-06
2.08227e-06
2.06924e-06
2.05024e-06
2.02621e-06
1.99715e-06
1.96407e-06
1.92721e-06
1.8874e-06
1.8451e-06
1.80074e-06
1.75472e-06
1.70733e-06
1.65884e-06
1.60942e-06
1.55929e-06
1.50865e-06
1.45769e-06
1.40662e-06
1.35562e-06
1.3049e-06
1.25465e-06
1.20505e-06
1.1563e-06
1.10856e-06
1.06198e-06
1.01674e-06
9.73006e-07
9.30864e-07
8.90481e-07
8.52079e-07
8.15757e-07
7.817e-07
7.50101e-07
7.21181e-07
6.9514e-07
6.72077e-07
6.52171e-07
6.35724e-07
6.22679e-07
6.13315e-07
6.07904e-07
6.06935e-07
6.11532e-07
6.23557e-07
6.44785e-07
6.75242e-07
7.12362e-07
7.51585e-07
7.89089e-07
8.23171e-07
8.53628e-07
8.80933e-07
9.05476e-07
9.26862e-07
9.42953e-07
6.64366e-06
1.38529e-05
2.2968e-05
3.59365e-05
3.88288e-05
3.30397e-05
2.49111e-05
1.55296e-05
1.09166e-05
7.74415e-06
5.84594e-06
5.05478e-06
5.02716e-06
4.85116e-06
4.76928e-06
4.74973e-06
4.75617e-06
4.76437e-06
4.77178e-06
4.76687e-06
4.75329e-06
4.72577e-06
4.68824e-06
4.63782e-06
4.57754e-06
4.50555e-06
4.42528e-06
4.33594e-06
4.2404e-06
4.13926e-06
4.0337e-06
3.92459e-06
3.81264e-06
3.69834e-06
3.58196e-06
3.46393e-06
3.34459e-06
3.22426e-06
3.10335e-06
2.98221e-06
2.86128e-06
2.74099e-06
2.62179e-06
2.50415e-06
2.38851e-06
2.27527e-06
2.16497e-06
2.05804e-06
1.95487e-06
1.85588e-06
1.76167e-06
1.67259e-06
1.58906e-06
1.51153e-06
1.44049e-06
1.37638e-06
1.31934e-06
1.26972e-06
1.22809e-06
1.19429e-06
1.1688e-06
1.15216e-06
1.14534e-06
1.15081e-06
1.17289e-06
1.21609e-06
1.28167e-06
1.3647e-06
1.45459e-06
1.54167e-06
1.62117e-06
1.69223e-06
1.75586e-06
1.81288e-06
1.86299e-06
1.89896e-06
7.97327e-06
1.77431e-05
3.12157e-05
5.21098e-05
6.0411e-05
5.67438e-05
4.69889e-05
3.51659e-05
2.63442e-05
1.93148e-05
1.46806e-05
1.22995e-05
1.14114e-05
1.07464e-05
1.0385e-05
1.02011e-05
1.0106e-05
1.00369e-05
9.98769e-06
9.92432e-06
9.85531e-06
9.76349e-06
9.65846e-06
9.53019e-06
9.38589e-06
9.21868e-06
9.03708e-06
8.83736e-06
8.6268e-06
8.40601e-06
8.17751e-06
7.94306e-06
7.704e-06
7.46115e-06
7.21475e-06
6.96542e-06
6.71358e-06
6.45966e-06
6.20434e-06
5.94813e-06
5.6918e-06
5.43619e-06
5.18223e-06
4.9309e-06
4.68318e-06
4.43993e-06
4.20248e-06
3.97183e-06
3.74899e-06
3.53496e-06
3.3311e-06
3.13831e-06
2.95741e-06
2.78937e-06
2.63518e-06
2.49562e-06
2.37094e-06
2.26171e-06
2.16893e-06
2.0922e-06
2.03226e-06
1.99001e-06
1.96716e-06
1.96851e-06
2.00267e-06
2.07969e-06
2.20442e-06
2.36899e-06
2.5519e-06
2.73156e-06
2.89635e-06
3.04362e-06
3.17518e-06
3.29272e-06
3.39662e-06
3.46799e-06
2.05663e-05
3.91132e-05
6.90879e-05
8.43627e-05
8.5216e-05
7.67085e-05
6.44068e-05
5.22553e-05
4.07628e-05
3.20248e-05
2.66039e-05
2.37012e-05
2.18394e-05
2.07245e-05
2.00463e-05
1.9612e-05
1.92803e-05
1.90303e-05
1.87829e-05
1.85503e-05
1.82921e-05
1.80251e-05
1.77259e-05
1.74071e-05
1.70525e-05
1.66783e-05
1.62751e-05
1.58572e-05
1.54247e-05
1.4982e-05
1.45319e-05
1.40764e-05
1.36167e-05
1.31525e-05
1.26845e-05
1.2213e-05
1.17382e-05
1.1261e-05
1.07819e-05
1.0302e-05
9.82254e-06
9.34519e-06
8.87155e-06
8.40349e-06
7.9425e-06
7.49119e-06
7.05153e-06
6.62568e-06
6.21559e-06
5.82392e-06
5.45273e-06
5.1035e-06
4.77815e-06
4.47857e-06
4.20623e-06
3.96158e-06
3.74562e-06
3.56003e-06
3.40409e-06
3.27888e-06
3.18581e-06
3.12757e-06
3.1124e-06
3.15576e-06
3.27726e-06
3.48983e-06
3.78326e-06
4.1186e-06
4.45277e-06
4.76057e-06
5.03523e-06
5.27975e-06
5.49726e-06
5.69024e-06
5.81652e-06
4.57062e-05
8.54197e-05
0.00010866
0.000115527
0.000110682
0.00010005
8.67978e-05
7.20642e-05
5.9134e-05
4.97828e-05
4.37863e-05
3.9829e-05
3.72683e-05
3.55756e-05
3.44079e-05
3.35022e-05
3.28016e-05
3.21586e-05
3.15807e-05
3.0993e-05
3.04173e-05
2.98105e-05
2.91895e-05
2.85246e-05
2.78401e-05
2.7119e-05
2.63828e-05
2.56309e-05
2.4869e-05
2.41011e-05
2.33296e-05
2.25555e-05
2.17777e-05
2.09966e-05
2.02118e-05
1.94231e-05
1.86312e-05
1.78361e-05
1.70391e-05
1.62417e-05
1.54461e-05
1.46545e-05
1.38697e-05
1.3094e-05
1.23316e-05
1.15856e-05
1.08599e-05
1.01579e-05
9.48407e-06
8.84245e-06
8.23562e-06
7.66715e-06
7.14057e-06
6.65864e-06
6.22248e-06
5.83399e-06
5.49606e-06
5.20789e-06
4.97106e-06
4.78778e-06
4.66204e-06
4.60671e-06
4.64689e-06
4.81694e-06
5.14495e-06
5.62131e-06
6.18229e-06
6.74986e-06
7.27464e-06
7.74168e-06
8.15535e-06
8.52124e-06
8.84642e-06
9.04809e-06
9.99555e-05
0.000131944
0.00014575
0.000146051
0.000138754
0.00012655
0.000110467
9.43658e-05
8.12063e-05
7.16592e-05
6.49353e-05
6.02937e-05
5.70516e-05
5.47145e-05
5.28777e-05
5.14284e-05
5.01382e-05
4.89974e-05
4.78898e-05
4.68353e-05
4.57682e-05
4.47055e-05
4.36019e-05
4.24873e-05
4.13358e-05
4.01744e-05
3.90014e-05
3.78227e-05
3.66427e-05
3.5464e-05
3.42871e-05
3.31096e-05
3.19311e-05
3.07505e-05
2.95665e-05
2.83792e-05
2.71878e-05
2.59932e-05
2.47967e-05
2.36006e-05
2.24075e-05
2.12209e-05
2.00434e-05
1.88808e-05
1.77377e-05
1.66197e-05
1.55317e-05
1.44806e-05
1.34731e-05
1.25133e-05
1.16071e-05
1.07608e-05
9.97926e-06
9.26523e-06
8.62247e-06
8.05595e-06
7.56559e-06
7.15409e-06
6.82506e-06
6.58428e-06
6.45037e-06
6.46067e-06
6.67018e-06
7.13174e-06
7.84291e-06
8.70895e-06
9.59994e-06
1.04271e-05
1.11607e-05
1.18063e-05
1.23733e-05
1.28775e-05
1.31721e-05
0.000111756
0.000153336
0.000174907
0.000181309
0.000178507
0.000168974
0.000153205
0.000135163
0.000118846
0.000105862
9.6107e-05
8.89958e-05
8.38089e-05
7.99412e-05
7.68597e-05
7.4386e-05
7.22127e-05
7.03016e-05
6.84941e-05
6.68009e-05
6.51327e-05
6.35017e-05
6.18466e-05
6.01987e-05
5.85229e-05
5.68487e-05
5.51724e-05
5.34989e-05
5.18321e-05
5.01743e-05
4.85251e-05
4.68807e-05
4.52396e-05
4.36e-05
4.19592e-05
4.03166e-05
3.86699e-05
3.70191e-05
3.53647e-05
3.37087e-05
3.20536e-05
3.04031e-05
2.87594e-05
2.71297e-05
2.55194e-05
2.39357e-05
2.23849e-05
2.08761e-05
1.94189e-05
1.80192e-05
1.66857e-05
1.54282e-05
1.42548e-05
1.31707e-05
1.21829e-05
1.12997e-05
1.05234e-05
9.85886e-06
9.31237e-06
8.89245e-06
8.6244e-06
8.55991e-06
8.78016e-06
9.37446e-06
1.03588e-05
1.16051e-05
1.29127e-05
1.4133e-05
1.52112e-05
1.61531e-05
1.69738e-05
1.77034e-05
1.81044e-05
0.00011996
0.000172141
0.000202465
0.000215828
0.000218443
0.000212869
0.000198841
0.000179926
0.000161064
0.0001449
0.000132064
0.000122281
0.000114889
0.000109223
0.000104649
0.000100922
9.76661e-05
9.48065e-05
9.21447e-05
8.96757e-05
8.72868e-05
8.49813e-05
8.26823e-05
8.04183e-05
7.81449e-05
7.58909e-05
7.36495e-05
7.14233e-05
6.92149e-05
6.70252e-05
6.4853e-05
6.26929e-05
6.05423e-05
5.83989e-05
5.62587e-05
5.41201e-05
5.19793e-05
4.98349e-05
4.76859e-05
4.55337e-05
4.33799e-05
4.12279e-05
3.90789e-05
3.69405e-05
3.48187e-05
3.27215e-05
3.06558e-05
2.86325e-05
2.6664e-05
2.47572e-05
2.29237e-05
2.11769e-05
1.95285e-05
1.79871e-05
1.65641e-05
1.52724e-05
1.41186e-05
1.31113e-05
1.22618e-05
1.15828e-05
1.11073e-05
1.09026e-05
1.10802e-05
1.17787e-05
1.30495e-05
1.47356e-05
1.65476e-05
1.82516e-05
1.97525e-05
2.10534e-05
2.21771e-05
2.31758e-05
0.000123687
0.000187642
0.000227953
0.00024928
0.000258206
0.000257739
0.000246887
0.000228245
0.000207376
0.000188182
0.000172182
0.00015953
0.000149691
0.000141979
0.000135682
0.00013049
0.000125965
0.00012199
0.00011833
0.000114958
0.000111738
0.000108661
0.000105635
0.000102681
9.97467e-05
9.68559e-05
9.39985e-05
9.11729e-05
8.83791e-05
8.56162e-05
8.28815e-05
8.01679e-05
7.74721e-05
7.47914e-05
7.21206e-05
6.94576e-05
6.67968e-05
6.41353e-05
6.14704e-05
5.8802e-05
5.61304e-05
5.3458e-05
5.07846e-05
4.81175e-05
4.54623e-05
4.28272e-05
4.02189e-05
3.7649e-05
3.5132e-05
3.26752e-05
3.02918e-05
2.79986e-05
2.58103e-05
2.3739e-05
2.18008e-05
2.00139e-05
1.83909e-05
1.69464e-05
1.56985e-05
1.46673e-05
1.3895e-05
1.34636e-05
1.35176e-05
1.42572e-05
1.57916e-05
1.79504e-05
2.03421e-05
2.26166e-05
2.46166e-05
2.63369e-05
2.78089e-05
2.91171e-05
0.000122012
0.000198997
0.000250777
0.000281302
0.000297539
0.000303279
0.00029708
0.000280185
0.000258097
0.000236032
0.000216704
0.000200889
0.000188279
0.000178208
0.000169906
0.000162995
0.000156981
0.0001517
0.000146876
0.000142455
0.00013828
0.000134322
0.000130474
0.000126748
0.000123081
0.000119491
0.000115963
0.000112489
0.000109065
0.000105687
0.000102351
9.90475e-05
9.57722e-05
9.25224e-05
8.92922e-05
8.60792e-05
8.28763e-05
7.9679e-05
7.64828e-05
7.32855e-05
7.00856e-05
6.68844e-05
6.36793e-05
6.04765e-05
5.72809e-05
5.41e-05
5.09395e-05
4.78105e-05
4.47289e-05
4.17012e-05
3.8741e-05
3.58672e-05
3.30965e-05
3.04433e-05
2.79275e-05
2.55722e-05
2.33968e-05
2.1423e-05
1.96781e-05
1.8193e-05
1.70209e-05
1.62578e-05
1.60792e-05
1.67575e-05
1.84879e-05
2.11153e-05
2.41422e-05
2.70678e-05
2.96425e-05
3.18414e-05
3.37046e-05
3.53612e-05
0.000114064
0.000205203
0.00027013
0.000311337
0.000336074
0.000349147
0.000349048
0.000335665
0.000313677
0.000289219
0.000266471
0.000247152
0.00023135
0.000218503
0.000207817
0.000198851
0.000191055
0.00018421
0.000178002
0.000172341
0.000167043
0.000162058
0.000157262
0.000152653
0.000148158
0.000143784
0.00013951
0.000135322
0.000131209
0.000127164
0.000123178
0.00011924
0.000115343
0.000111485
0.00010766
0.000103866
0.000100094
9.63386e-05
9.2593e-05
8.88529e-05
8.51147e-05
8.13777e-05
7.76368e-05
7.38963e-05
7.01598e-05
6.64336e-05
6.27214e-05
5.90333e-05
5.53851e-05
5.17822e-05
4.82367e-05
4.47683e-05
4.13942e-05
3.81291e-05
3.49952e-05
3.20181e-05
2.92229e-05
2.66383e-05
2.43016e-05
2.22583e-05
2.05754e-05
1.93611e-05
1.88158e-05
1.92889e-05
2.1096e-05
2.41414e-05
2.78329e-05
3.14831e-05
3.47089e-05
3.74475e-05
3.97447e-05
4.17899e-05
9.92806e-05
0.000205129
0.00028498
0.000338575
0.000373229
0.000394873
0.000402267
0.000394237
0.0003742
0.000348438
0.00032252
0.00029947
0.000280045
0.000263933
0.000250387
0.000238926
0.000228959
0.000220207
0.000212313
0.000205146
0.000198495
0.00019228
0.000186357
0.000180707
0.000175245
0.000169966
0.00016484
0.000159843
0.000154958
0.00015017
0.000145466
0.00014083
0.000136254
0.000131735
0.000127267
0.000122846
0.000118467
0.00011412
0.000109798
0.000105493
0.0001012
9.69152e-05
9.26307e-05
8.83483e-05
8.407e-05
7.98002e-05
7.554e-05
7.12974e-05
6.70882e-05
6.29152e-05
5.87881e-05
5.47259e-05
5.0745e-05
4.68584e-05
4.30877e-05
3.94581e-05
3.59975e-05
3.27391e-05
2.97282e-05
2.70271e-05
2.47212e-05
2.29288e-05
2.18634e-05
2.19478e-05
2.3657e-05
2.70151e-05
3.13678e-05
3.58076e-05
3.97643e-05
4.31092e-05
4.58869e-05
4.83658e-05
7.77258e-05
0.000197641
0.000294077
0.000361915
0.000408152
0.000439786
0.000456086
0.000455159
0.000439188
0.000413896
0.000385685
0.000359033
0.000335703
0.000315865
0.000298941
0.00028447
0.000271847
0.000260746
0.000250771
0.000241745
0.000233426
0.000225702
0.000218404
0.000211493
0.000204869
0.000198511
0.000192379
0.000186438
0.00018066
0.000175021
0.000169502
0.000164081
0.000158745
0.000153489
0.000148308
0.000143199
0.000138155
0.000133168
0.000128226
0.000123322
0.000118445
0.00011359
0.000108745
0.000103909
9.90827e-05
9.42668e-05
8.94598e-05
8.46669e-05
7.99031e-05
7.51688e-05
7.04697e-05
6.58233e-05
6.12444e-05
5.67426e-05
5.23362e-05
4.80465e-05
4.39001e-05
3.99295e-05
3.61833e-05
3.27387e-05
2.97047e-05
2.72107e-05
2.54644e-05
2.49429e-05
2.63288e-05
2.9836e-05
3.48075e-05
4.00917e-05
4.48658e-05
4.88941e-05
5.22064e-05
5.5173e-05
5.21029e-05
0.00018189
0.000296026
0.000379946
0.000439672
0.000482944
0.000509678
0.000517532
0.000507704
0.000485101
0.000456235
0.000426732
0.000399593
0.000375756
0.000355007
0.000337006
0.000321192
0.000307224
0.000294682
0.00028335
0.000272956
0.000263355
0.00025435
0.000245878
0.000237824
0.000230146
0.000222792
0.000215715
0.000208874
0.000202233
0.000195763
0.000189433
0.000183224
0.000177128
0.000171137
0.000165251
0.000159462
0.000153762
0.000148139
0.000142581
0.000137075
0.000131613
0.000126178
0.000120766
0.000115374
0.000110002
0.000104642
9.92984e-05
9.39835e-05
8.86953e-05
8.34348e-05
7.82175e-05
7.30561e-05
6.7956e-05
6.29304e-05
5.7994e-05
5.31672e-05
4.84757e-05
4.39627e-05
3.9713e-05
3.58638e-05
3.25627e-05
2.99896e-05
2.86283e-05
2.94081e-05
3.28417e-05
3.83493e-05
4.45229e-05
5.02099e-05
5.50119e-05
5.89241e-05
6.24455e-05
2.79808e-05
0.000157714
0.000289385
0.000390947
0.00046627
0.000523078
0.000561966
0.000580318
0.000578575
0.00056095
0.000533635
0.000502809
0.000472583
0.000444885
0.000420105
0.000398175
0.000378678
0.000361311
0.000345666
0.00033151
0.000318549
0.00030661
0.000295475
0.000285051
0.000275209
0.000265887
0.000257019
0.000248543
0.000240402
0.000232547
0.000224936
0.000217525
0.000210288
0.000203209
0.000196278
0.000189492
0.000182847
0.000176333
0.000169939
0.000163648
0.000157445
0.000151318
0.000145246
0.000139219
0.000133231
0.000127279
0.000121352
0.000115448
0.000109579
0.000103739
9.79249e-05
9.21487e-05
8.64222e-05
8.07466e-05
7.51289e-05
6.9576e-05
6.40988e-05
5.87098e-05
5.34361e-05
4.83565e-05
4.36328e-05
3.94445e-05
3.59332e-05
3.35079e-05
3.3353e-05
3.64411e-05
4.23708e-05
4.94748e-05
5.61819e-05
6.18638e-05
6.6455e-05
7.06144e-05
1.22728e-05
0.000125752
0.000272742
0.000392926
0.000486043
0.00055853
0.000611522
0.000642253
0.000650506
0.000640001
0.00061661
0.000586604
0.000554785
0.00052401
0.00049545
0.000469497
0.000446013
0.000424815
0.000405571
0.00038806
0.000371997
0.000357196
0.000343424
0.00033057
0.000318489
0.000307104
0.000296336
0.000286107
0.000276346
0.000266988
0.000257974
0.000249248
0.000240768
0.00023251
0.000224456
0.000216605
0.000208949
0.000201482
0.00019419
0.000187056
0.000180059
0.000173183
0.000166402
0.0001597
0.000153066
0.000146495
0.00013997
0.000133484
0.000127045
0.000120648
0.00011428
0.000107952
0.000101673
9.54424e-05
8.92613e-05
8.31294e-05
7.70481e-05
7.10121e-05
6.50226e-05
5.91334e-05
5.35147e-05
4.83952e-05
4.38959e-05
4.02402e-05
3.88207e-05
4.12799e-05
4.75149e-05
5.56052e-05
6.34596e-05
7.01461e-05
7.55119e-05
8.04105e-05
6.56798e-06
8.8406e-05
0.000244913
0.000383751
0.000496706
0.000587207
0.000656497
0.000701717
0.000722006
0.000720676
0.000703464
0.000676622
0.000645307
0.00061299
0.000581575
0.000552028
0.00052463
0.000499436
0.000476271
0.000454981
0.000435332
0.000417147
0.000400205
0.000384386
0.000369542
0.000355587
0.000342437
0.000330004
0.000318204
0.000306957
0.000296188
0.000285824
0.000275808
0.000266101
0.000256678
0.000247532
0.000238654
0.00023004
0.000221675
0.000213541
0.00020561
0.000197862
0.000190265
0.000182795
0.000175437
0.000168181
0.000161004
0.000153893
0.000146853
0.000139875
0.000132941
0.000126054
0.000119225
0.000112452
0.000105729
9.90542e-05
9.24202e-05
8.58057e-05
7.91784e-05
7.25483e-05
6.60628e-05
6.00172e-05
5.45771e-05
4.9669e-05
4.67736e-05
4.84502e-05
5.49641e-05
6.41622e-05
7.33351e-05
8.11829e-05
8.74532e-05
9.32028e-05
4.06061e-06
5.11993e-05
0.000205659
0.000361505
0.000495648
0.000606532
0.000694539
0.000756622
0.000791233
0.000801232
0.000792353
0.000770909
0.000742381
0.000710594
0.000677959
0.000645941
0.000615292
0.000586402
0.000559345
0.000534116
0.000510585
0.000488625
0.000468055
0.000448769
0.000430633
0.000413567
0.000397493
0.000382324
0.000367973
0.00035435
0.00034137
0.000328944
0.000316998
0.000305479
0.00029435
0.000283594
0.000273205
0.000263174
0.000253491
0.000244134
0.00023507
0.000226271
0.000217701
0.000209326
0.000201123
0.000193076
0.00018516
0.00017735
0.000169648
0.000162042
0.000154505
0.000147035
0.000139642
0.000132321
0.000125067
0.000117874
0.000110736
0.000103618
9.64563e-05
8.92027e-05
8.19446e-05
7.50518e-05
6.88787e-05
6.30377e-05
5.90672e-05
6.09364e-05
6.86492e-05
7.95729e-05
9.05123e-05
9.99055e-05
0.000107499
0.000114093
3.03301e-06
2.38484e-05
0.00015682
0.000325158
0.000480131
0.000613436
0.000722727
0.000804302
0.000855828
0.000879577
0.000881241
0.000867361
0.000843798
0.000814737
0.000782938
0.000750204
0.000717661
0.000686018
0.000655653
0.000626774
0.000599421
0.000573577
0.000549143
0.000526055
0.000504216
0.00048357
0.000464063
0.000445624
0.000428177
0.000411635
0.000395909
0.000380906
0.000366539
0.000352743
0.000339468
0.000326691
0.000314401
0.000302593
0.000291257
0.00028037
0.000269898
0.000259802
0.000250036
0.000240559
0.000231335
0.000222346
0.000213556
0.000204932
0.000196471
0.000188156
0.000179953
0.000171849
0.000163854
0.000155966
0.000148177
0.000140486
0.000132893
0.000125365
0.000117813
0.000110141
0.000102356
9.49269e-05
8.87357e-05
8.36386e-05
8.03042e-05
8.23701e-05
9.1578e-05
0.000104735
0.000117815
0.000128969
0.000137998
0.000145639
2.71481e-06
1.02951e-05
0.000103486
0.00027512
0.000447705
0.000604452
0.000737522
0.000841423
0.000912773
0.000953054
0.000967766
0.000963735
0.000947224
0.00092297
0.000894098
0.000862678
0.000830092
0.000797277
0.000764853
0.000733237
0.000702674
0.000673298
0.000645144
0.000618234
0.00059254
0.000568061
0.000544783
0.000522671
0.000501673
0.000481722
0.000462739
0.000444635
0.000427324
0.000410734
0.00039481
0.000379525
0.000364868
0.000350841
0.00033744
0.000324647
0.000312424
0.000300722
0.000289487
0.000278664
0.000268205
0.00025808
0.000248252
0.000238676
0.000229338
0.000220219
0.00021128
0.000202499
0.000193884
0.000185439
0.000177167
0.000169082
0.00016121
0.000153544
0.000146017
0.000138547
0.000131135
0.000124133
0.000118204
0.000113455
0.000110383
0.000112434
0.000123139
0.000138715
0.000154068
0.000167051
0.000177554
0.000186393
2.8445e-06
5.96224e-06
5.53349e-05
0.000212997
0.00039689
0.000576033
0.000734795
0.000863898
0.000958264
0.00101826
0.00104894
0.00105734
0.00105016
0.00103275
0.00100878
0.000980649
0.000949986
0.000917897
0.000885163
0.000852338
0.000819824
0.000787896
0.000756733
0.000726468
0.000697186
0.00066897
0.000641884
0.000615952
0.000591171
0.00056751
0.000544916
0.000523321
0.000502647
0.000482827
0.000463812
0.000445576
0.00042812
0.000411459
0.000395606
0.000380556
0.000366273
0.000352702
0.000339777
0.000327427
0.000315589
0.000304222
0.000293281
0.000282715
0.000272493
0.000262593
0.000252973
0.000243599
0.000234463
0.000225563
0.000216886
0.000208423
0.000200188
0.00019218
0.000184357
0.000176668
0.000169126
0.000162018
0.000155965
0.00015124
0.000148241
0.000149959
0.000161932
0.000180035
0.000197716
0.000212605
0.000224663
3.00402e-06
4.19624e-06
2.35555e-05
0.000142286
0.000328296
0.000525264
0.000710043
0.000866866
0.0009876
0.00107088
0.00112093
0.00114478
0.0011496
0.00114131
0.00112424
0.00110128
0.0010744
0.0010449
0.00101372
0.000981512
0.000948769
0.000915848
0.000883026
0.000850512
0.000818508
0.000787189
0.000756713
0.000727201
0.00069873
0.000671336
0.000645022
0.000619757
0.000595495
0.000572189
0.000549803
0.000528328
0.000507781
0.000488202
0.00046963
0.000452078
0.000435515
0.000419872
0.000405058
0.000390975
0.000377528
0.000364652
0.000352292
0.000340389
0.000328897
0.000317799
0.00030706
0.000296636
0.000286513
0.000276692
0.000267154
0.000257875
0.000248859
0.000240113
0.000231608
0.000223302
0.000215212
0.000207575
0.000201068
0.000196122
0.00019302
0.000193931
0.000206725
0.000227735
0.000248142
0.000265269
0.000279159
3.08213e-06
3.4292e-06
9.9962e-06
7.55243e-05
0.000246181
0.000451306
0.000659013
0.000844839
0.000995118
0.00110554
0.00117886
0.00122174
0.00124169
0.00124524
0.00123738
0.0012216
0.00120033
0.00117518
0.0011473
0.00111748
0.0010863
0.00105417
0.00102141
0.000988287
0.000955049
0.000921918
0.000889123
0.000856865
0.000825313
0.000794595
0.000764798
0.000735965
0.000708107
0.000681223
0.000655309
0.000630383
0.000606486
0.000583684
0.00056204
0.000541586
0.000522297
0.000504096
0.000486876
0.000470527
0.000454935
0.000440019
0.000425723
0.000411978
0.000398728
0.000385953
0.000373625
0.000361689
0.000350124
0.000338934
0.0003281
0.000317581
0.000307376
0.000297499
0.00028793
0.000278626
0.000269599
0.000261052
0.000253767
0.000248339
0.000244643
0.000244211
0.000257612
0.000282358
0.000305567
0.00032457
0.000339937
3.28011e-06
5.63607e-06
3.04646e-05
0.000157427
0.000357103
0.000579036
0.000792247
0.000974302
0.00111571
0.00121662
0.0012827
0.00132152
0.00134016
0.0013443
0.0013381
0.0013245
0.00130553
0.00128265
0.00125686
0.00122887
0.0011992
0.00116823
0.00113626
0.00110355
0.00107033
0.00103686
0.00100335
0.000970025
0.000937072
0.000904649
0.000872877
0.000841842
0.000811612
0.00078224
0.000753788
0.000726337
0.000699987
0.00067484
0.00065097
0.000628383
0.000607025
0.000586795
0.000567585
0.00054927
0.000531757
0.000514986
0.000498884
0.000483375
0.000468441
0.000454055
0.000440151
0.000426692
0.00041369
0.000401128
0.00038895
0.000377143
0.000365734
0.00035471
0.000344024
0.00033368
0.000323845
0.000315454
0.000308936
0.000304157
0.000301921
0.000315393
0.000341348
0.000365722
0.000385999
0.000402595
3.28356e-06
4.03648e-06
1.15509e-05
7.68572e-05
0.000251032
0.000471584
0.000704867
0.000918309
0.00109379
0.00122672
0.00132071
0.00138281
0.00142047
0.00144
0.00144627
0.00144282
0.00143219
0.00141621
0.00139616
0.00137297
0.00134732
0.0013197
0.00129046
0.00125992
0.00122832
0.00119592
0.00116294
0.0011296
0.0010961
0.00106261
0.0010293
0.000996278
0.000963658
0.000931537
0.000900018
0.000869222
0.000839299
0.000810411
0.000782711
0.000756297
0.000731187
0.000707332
0.000684648
0.000663014
0.000642327
0.000622523
0.000603523
0.000585233
0.000567627
0.000550685
0.000534331
0.000518507
0.000503233
0.000488498
0.000474227
0.000460391
0.000447031
0.000434147
0.000421682
0.000409629
0.000398123
0.000388055
0.000379889
0.000373526
0.000369064
0.000379337
0.00040413
0.000428533
0.000449528
0.000467091
3.30061e-06
3.57608e-06
5.9711e-06
2.80399e-05
0.00014615
0.000345766
0.00058281
0.00082146
0.00103163
0.0012004
0.00132723
0.00141767
0.001479
0.00151805
0.00154036
0.00155015
0.00155051
0.00154372
0.00153142
0.00151483
0.00149483
0.00147207
0.00144704
0.00142012
0.00139163
0.00136184
0.001331
0.00129933
0.00126703
0.00123428
0.00120124
0.00116802
0.00113474
0.00110147
0.00106832
0.00103539
0.0010028
0.00097074
0.000939408
0.000909027
0.000879776
0.000851758
0.000824997
0.000799426
0.000774955
0.000751522
0.000729048
0.000707419
0.000686593
0.000666562
0.00064724
0.000628542
0.000610492
0.000593096
0.000576262
0.000559934
0.000544172
0.000528995
0.000514328
0.000500152
0.000486583
0.000474239
0.000463842
0.000455329
0.000448349
0.000451478
0.000472467
0.000495547
0.000516418
0.000534405
3.31291e-06
3.42955e-06
4.25618e-06
1.05153e-05
6.1899e-05
0.000218256
0.000435208
0.000682651
0.000922176
0.00112817
0.00129226
0.00141638
0.00150674
0.00157023
0.00161295
0.00163978
0.00165444
0.00165971
0.00165767
0.00164987
0.00163745
0.00162129
0.00160204
0.00158022
0.00155622
0.00153041
0.00150309
0.0014745
0.00144488
0.00141443
0.00138329
0.00135161
0.00131947
0.00128696
0.00125414
0.00122108
0.00118784
0.00115452
0.00112124
0.00108816
0.00105548
0.00102346
0.000992361
0.000962356
0.000933498
0.000905803
0.00087923
0.000853651
0.000829008
0.000805308
0.000782458
0.000760334
0.00073896
0.000718373
0.000698461
0.000679132
0.00066046
0.000642499
0.000625159
0.000608396
0.000592348
0.000577303
0.000564022
0.000552699
0.000542884
0.00053783
0.000549633
0.000569218
0.000588647
0.000606122
3.3221e-06
3.38255e-06
3.68004e-06
5.5915e-06
2.00993e-05
0.000106265
0.00028201
0.000511025
0.000763343
0.00100172
0.00120493
0.00136756
0.00149266
0.00158624
0.00165458
0.0017031
0.00173614
0.00175705
0.00176841
0.00177215
0.00176975
0.00176234
0.00175078
0.00173577
0.00171785
0.00169746
0.00167501
0.00165081
0.00162516
0.00159828
0.00157037
0.00154159
0.00151206
0.00148186
0.00145105
0.00141968
0.0013878
0.00135542
0.00132262
0.00128943
0.00125594
0.00122226
0.00118855
0.00115501
0.00112192
0.00108964
0.00105841
0.00102824
0.000999124
0.00097111
0.000944115
0.000917957
0.000892657
0.000868296