/*--------------------------------*- C++ -*----------------------------------*\
| =========                 |                                                 |
| \\      /  F ield         | OpenFOAM: The Open Source CFD Toolbox           |
|  \\    /   O peration     | Version:  2412                                  |
|   \\  /    A nd           | Website:  www.openfoam.com                      |
|    \\/     M anipulation  |                                                 |
\*---------------------------------------------------------------------------*/
FoamFile
{
    version     2.0;
    format      ascii;
    arch        "LSB;label=32;scalar=64";
    class       volScalarField;
    location    "60";
    object      nuTilda;
}
// * * * * * * * * * * * * * * * * * * * * * * * * * * * * * * * * * * * * * //

dimensions      [0 2 -1 0 0 0 0];

internalField   nonuniform List<scalar> 
8553
(
7.08233e-07
1.0054e-06
1.43201e-06
1.68364e-06
2.00742e-06
3.31615e-06
3.85442e-06
3.78638e-06
3.49012e-06
3.23654e-06
3.12794e-06
3.06279e-06
3.03211e-06
3.0202e-06
3.01364e-06
3.00195e-06
2.98665e-06
2.96907e-06
2.95111e-06
2.93657e-06
2.92624e-06
2.91878e-06
2.91305e-06
2.90756e-06
2.90167e-06
2.89568e-06
2.88998e-06
2.88497e-06
2.88066e-06
2.87677e-06
2.87305e-06
2.86951e-06
2.86624e-06
2.86311e-06
2.86022e-06
2.8576e-06
2.85517e-06
2.85281e-06
2.85061e-06
2.84863e-06
2.84673e-06
2.84495e-06
2.84324e-06
2.84166e-06
2.84019e-06
2.83879e-06
2.83748e-06
2.83628e-06
2.83513e-06
2.83401e-06
2.83295e-06
2.83197e-06
2.83105e-06
2.83017e-06
2.82935e-06
2.82857e-06
2.82784e-06
2.82712e-06
2.82638e-06
2.82573e-06
2.82515e-06
2.82455e-06
2.82402e-06
2.82347e-06
2.82298e-06
2.82251e-06
2.822e-06
2.82153e-06
2.82113e-06
2.82073e-06
2.82032e-06
2.81994e-06
2.81954e-06
2.81919e-06
2.81886e-06
2.81855e-06
2.81827e-06
2.81807e-06
2.7929e-06
2.78851e-06
2.7854e-06
2.79494e-06
2.82742e-06
2.89623e-06
3.06324e-06
3.27169e-06
3.27351e-06
2.90133e-06
2.10041e-06
1.38073e-06
1.12231e-06
8.24377e-07
7.68595e-07
2.19227e-06
3.042e-06
4.15308e-06
4.86318e-06
6.75719e-06
1.00013e-05
1.0874e-05
1.05132e-05
9.82686e-06
9.2809e-06
9.02337e-06
8.87114e-06
8.79806e-06
8.76437e-06
8.73913e-06
8.70136e-06
8.65537e-06
8.6053e-06
8.55699e-06
8.51856e-06
8.4909e-06
8.47043e-06
8.4539e-06
8.43762e-06
8.42043e-06
8.40331e-06
8.38725e-06
8.37311e-06
8.36073e-06
8.34948e-06
8.33876e-06
8.32857e-06
8.31909e-06
8.3102e-06
8.30193e-06
8.29434e-06
8.28724e-06
8.28047e-06
8.27418e-06
8.26834e-06
8.26283e-06
8.2577e-06
8.25281e-06
8.24823e-06
8.24396e-06
8.23992e-06
8.23613e-06
8.23257e-06
8.22916e-06
8.22594e-06
8.22289e-06
8.22003e-06
8.21737e-06
8.21481e-06
8.21236e-06
8.21007e-06
8.20793e-06
8.20584e-06
8.20376e-06
8.20186e-06
8.20009e-06
8.19837e-06
8.19675e-06
8.19516e-06
8.1937e-06
8.19225e-06
8.19079e-06
8.18945e-06
8.1882e-06
8.18698e-06
8.18574e-06
8.1846e-06
8.18343e-06
8.18233e-06
8.18133e-06
8.18035e-06
8.17944e-06
8.17889e-06
8.10176e-06
8.0946e-06
8.08601e-06
8.10328e-06
8.17403e-06
8.33092e-06
8.69526e-06
9.1832e-06
9.28894e-06
8.66968e-06
6.72894e-06
4.10627e-06
3.35189e-06
2.50538e-06
2.32063e-06
3.86847e-06
5.17005e-06
6.76291e-06
7.91129e-06
1.29385e-05
1.62142e-05
1.6672e-05
1.5968e-05
1.51316e-05
1.45241e-05
1.4204e-05
1.4018e-05
1.39255e-05
1.3873e-05
1.38245e-05
1.37596e-05
1.36855e-05
1.3609e-05
1.35394e-05
1.34851e-05
1.34457e-05
1.34156e-05
1.339e-05
1.33643e-05
1.33375e-05
1.33113e-05
1.3287e-05
1.32657e-05
1.32468e-05
1.32294e-05
1.3213e-05
1.31973e-05
1.31827e-05
1.31691e-05
1.31565e-05
1.31448e-05
1.31338e-05
1.31235e-05
1.31137e-05
1.31047e-05
1.30962e-05
1.30882e-05
1.30808e-05
1.30737e-05
1.3067e-05
1.30608e-05
1.30549e-05
1.30493e-05
1.30441e-05
1.30391e-05
1.30344e-05
1.30299e-05
1.30257e-05
1.30217e-05
1.30179e-05
1.30143e-05
1.30109e-05
1.30077e-05
1.30045e-05
1.30015e-05
1.29987e-05
1.2996e-05
1.29934e-05
1.29909e-05
1.29886e-05
1.29862e-05
1.2984e-05
1.29818e-05
1.29798e-05
1.29778e-05
1.29758e-05
1.2974e-05
1.29721e-05
1.29703e-05
1.29687e-05
1.2967e-05
1.29655e-05
1.29647e-05
1.28313e-05
1.28284e-05
1.28165e-05
1.28295e-05
1.29072e-05
1.30929e-05
1.35051e-05
1.41128e-05
1.43688e-05
1.39773e-05
1.18778e-05
7.64825e-06
5.63459e-06
4.28504e-06
3.92853e-06
5.81458e-06
7.40211e-06
9.30683e-06
1.21634e-05
1.90915e-05
2.13646e-05
2.10813e-05
2.00972e-05
1.92991e-05
1.87854e-05
1.8471e-05
1.82899e-05
1.81937e-05
1.81246e-05
1.80511e-05
1.79602e-05
1.78625e-05
1.77671e-05
1.76848e-05
1.76223e-05
1.75763e-05
1.75401e-05
1.75076e-05
1.74743e-05
1.74401e-05
1.74071e-05
1.73772e-05
1.73508e-05
1.73272e-05
1.73054e-05
1.72847e-05
1.7265e-05
1.72467e-05
1.72297e-05
1.72139e-05
1.71991e-05
1.71852e-05
1.71722e-05
1.71599e-05
1.71485e-05
1.71377e-05
1.71277e-05
1.71182e-05
1.71092e-05
1.71008e-05
1.70928e-05
1.70853e-05
1.70783e-05
1.70716e-05
1.70652e-05
1.70592e-05
1.70535e-05
1.70482e-05
1.7043e-05
1.70382e-05
1.70335e-05
1.70291e-05
1.7025e-05
1.70209e-05
1.7017e-05
1.70134e-05
1.70099e-05
1.70065e-05
1.70032e-05
1.70001e-05
1.69971e-05
1.69942e-05
1.69914e-05
1.69886e-05
1.6986e-05
1.69834e-05
1.6981e-05
1.69785e-05
1.69761e-05
1.69738e-05
1.69716e-05
1.69696e-05
1.69689e-05
1.67721e-05
1.67788e-05
1.67671e-05
1.67699e-05
1.68333e-05
1.70038e-05
1.7361e-05
1.79646e-05
1.83481e-05
1.84318e-05
1.67411e-05
1.20494e-05
8.0073e-06
6.17889e-06
5.577e-06
8.07524e-06
9.72804e-06
1.18378e-05
1.7444e-05
2.43125e-05
2.52141e-05
2.41005e-05
2.2967e-05
2.23462e-05
2.20247e-05
2.17686e-05
2.16197e-05
2.15292e-05
2.14445e-05
2.13461e-05
2.12324e-05
2.11171e-05
2.10109e-05
2.09245e-05
2.08606e-05
2.08129e-05
2.07735e-05
2.07363e-05
2.06976e-05
2.06585e-05
2.06215e-05
2.05883e-05
2.05591e-05
2.05328e-05
2.05083e-05
2.0485e-05
2.04628e-05
2.04422e-05
2.04231e-05
2.04053e-05
2.03886e-05
2.03729e-05
2.03581e-05
2.03443e-05
2.03313e-05
2.03191e-05
2.03076e-05
2.02968e-05
2.02866e-05
2.02769e-05
2.02678e-05
2.02593e-05
2.02512e-05
2.02435e-05
2.02362e-05
2.02293e-05
2.02228e-05
2.02166e-05
2.02107e-05
2.0205e-05
2.01996e-05
2.01945e-05
2.01897e-05
2.01849e-05
2.01804e-05
2.01761e-05
2.0172e-05
2.01681e-05
2.01642e-05
2.01605e-05
2.0157e-05
2.01535e-05
2.01502e-05
2.01469e-05
2.01438e-05
2.01407e-05
2.01377e-05
2.01348e-05
2.01319e-05
2.01291e-05
2.01264e-05
2.0124e-05
2.01236e-05
1.98488e-05
1.9869e-05
1.98618e-05
1.98525e-05
1.98874e-05
2.00097e-05
2.02431e-05
2.07477e-05
2.11845e-05
2.18551e-05
2.09016e-05
1.71841e-05
1.1013e-05
8.20269e-06
7.28501e-06
1.05993e-05
1.20936e-05
1.43984e-05
2.37199e-05
2.83555e-05
2.7674e-05
2.58459e-05
2.47304e-05
2.43694e-05
2.42813e-05
2.41162e-05
2.40137e-05
2.39321e-05
2.38319e-05
2.37105e-05
2.35786e-05
2.34531e-05
2.33449e-05
2.32624e-05
2.32029e-05
2.31575e-05
2.31177e-05
2.30778e-05
2.30359e-05
2.29944e-05
2.2956e-05
2.2922e-05
2.28922e-05
2.28651e-05
2.28395e-05
2.28151e-05
2.2792e-05
2.27705e-05
2.27505e-05
2.27319e-05
2.27144e-05
2.2698e-05
2.26824e-05
2.26678e-05
2.26541e-05
2.26413e-05
2.26291e-05
2.26176e-05
2.26068e-05
2.25965e-05
2.25869e-05
2.25777e-05
2.2569e-05
2.25608e-05
2.25529e-05
2.25455e-05
2.25385e-05
2.25318e-05
2.25254e-05
2.25193e-05
2.25134e-05
2.25079e-05
2.25026e-05
2.24974e-05
2.24925e-05
2.24878e-05
2.24833e-05
2.24789e-05
2.24747e-05
2.24706e-05
2.24666e-05
2.24627e-05
2.2459e-05
2.24554e-05
2.24518e-05
2.24484e-05
2.2445e-05
2.24417e-05
2.24384e-05
2.24353e-05
2.24322e-05
2.24295e-05
2.24297e-05
2.20551e-05
2.20909e-05
2.20925e-05
2.20729e-05
2.20724e-05
2.2126e-05
2.21989e-05
2.25416e-05
2.29162e-05
2.41759e-05
2.41573e-05
2.1707e-05
1.45525e-05
1.03575e-05
9.07617e-06
1.32374e-05
1.44011e-05
1.79981e-05
2.89369e-05
3.11408e-05
2.87837e-05
2.65495e-05
2.56167e-05
2.55346e-05
2.56671e-05
2.56e-05
2.55436e-05
2.54675e-05
2.53512e-05
2.52106e-05
2.50672e-05
2.49399e-05
2.48378e-05
2.47656e-05
2.47148e-05
2.46741e-05
2.46356e-05
2.45947e-05
2.45515e-05
2.45098e-05
2.44722e-05
2.44396e-05
2.44108e-05
2.43844e-05
2.43592e-05
2.4335e-05
2.43122e-05
2.4291e-05
2.42713e-05
2.42529e-05
2.42355e-05
2.42191e-05
2.42036e-05
2.4189e-05
2.41753e-05
2.41623e-05
2.41501e-05
2.41385e-05
2.41275e-05
2.41171e-05
2.41073e-05
2.40979e-05
2.4089e-05
2.40806e-05
2.40725e-05
2.40649e-05
2.40577e-05
2.40508e-05
2.40441e-05
2.40378e-05
2.40317e-05
2.40259e-05
2.40203e-05
2.40149e-05
2.40098e-05
2.40048e-05
2.4e-05
2.39954e-05
2.39909e-05
2.39865e-05
2.39823e-05
2.39782e-05
2.39742e-05
2.39703e-05
2.39664e-05
2.39627e-05
2.39591e-05
2.39555e-05
2.3952e-05
2.39486e-05
2.39452e-05
2.39423e-05
2.39435e-05
2.34447e-05
2.34965e-05
2.35107e-05
2.34861e-05
2.34518e-05
2.34326e-05
2.33396e-05
2.3493e-05
2.3665e-05
2.54299e-05
2.63785e-05
2.5383e-05
1.86318e-05
1.2625e-05
1.09584e-05
1.58063e-05
1.65245e-05
2.23911e-05
3.29021e-05
3.26712e-05
2.87315e-05
2.65201e-05
2.58975e-05
2.60547e-05
2.63527e-05
2.63632e-05
2.63385e-05
2.62595e-05
2.61272e-05
2.59732e-05
2.58261e-05
2.57051e-05
2.56155e-05
2.5557e-05
2.55161e-05
2.54806e-05
2.54435e-05
2.54023e-05
2.53593e-05
2.53191e-05
2.52837e-05
2.52535e-05
2.52268e-05
2.52018e-05
2.51777e-05
2.51545e-05
2.51327e-05
2.51124e-05
2.50936e-05
2.50759e-05
2.50592e-05
2.50433e-05
2.50283e-05
2.50141e-05
2.50007e-05
2.4988e-05
2.4976e-05
2.49646e-05
2.49538e-05
2.49435e-05
2.49337e-05
2.49244e-05
2.49155e-05
2.4907e-05
2.48989e-05
2.48912e-05
2.48839e-05
2.48769e-05
2.48702e-05
2.48637e-05
2.48575e-05
2.48515e-05
2.48458e-05
2.48403e-05
2.4835e-05
2.48298e-05
2.48249e-05
2.48201e-05
2.48154e-05
2.48108e-05
2.48064e-05
2.48021e-05
2.47979e-05
2.47938e-05
2.47897e-05
2.47858e-05
2.4782e-05
2.47782e-05
2.47745e-05
2.47708e-05
2.47672e-05
2.47644e-05
2.47668e-05
2.41271e-05
2.41929e-05
2.42226e-05
2.4201e-05
2.41431e-05
2.4065e-05
2.38272e-05
2.37987e-05
2.363e-05
2.57642e-05
2.75029e-05
2.81411e-05
2.33202e-05
1.50167e-05
1.29479e-05
1.81435e-05
1.85791e-05
2.75028e-05
3.55526e-05
3.30491e-05
2.81573e-05
2.60686e-05
2.58362e-05
2.61541e-05
2.65405e-05
2.65869e-05
2.65705e-05
2.64782e-05
2.63312e-05
2.61712e-05
2.60282e-05
2.59193e-05
2.5845e-05
2.57998e-05
2.57666e-05
2.57342e-05
2.56971e-05
2.56553e-05
2.56129e-05
2.55744e-05
2.55416e-05
2.55137e-05
2.54887e-05
2.54648e-05
2.54416e-05
2.54194e-05
2.53985e-05
2.53791e-05
2.53611e-05
2.5344e-05
2.53277e-05
2.53123e-05
2.52976e-05
2.52838e-05
2.52706e-05
2.52581e-05
2.52462e-05
2.52349e-05
2.52241e-05
2.52138e-05
2.5204e-05
2.51946e-05
2.51856e-05
2.5177e-05
2.51688e-05
2.5161e-05
2.51535e-05
2.51464e-05
2.51395e-05
2.51328e-05
2.51264e-05
2.51202e-05
2.51143e-05
2.51086e-05
2.51031e-05
2.50977e-05
2.50925e-05
2.50874e-05
2.50825e-05
2.50778e-05
2.50731e-05
2.50686e-05
2.50642e-05
2.50598e-05
2.50556e-05
2.50514e-05
2.50474e-05
2.50434e-05
2.50395e-05
2.50356e-05
2.50318e-05
2.5029e-05
2.50326e-05
2.42543e-05
2.43312e-05
2.43779e-05
2.43685e-05
2.43037e-05
2.41974e-05
2.38501e-05
2.36758e-05
2.32564e-05
2.54308e-05
2.76648e-05
2.99208e-05
2.72137e-05
1.79958e-05
1.52121e-05
2.01491e-05
2.14214e-05
3.2964e-05
3.68799e-05
3.25641e-05
2.7384e-05
2.54324e-05
2.56445e-05
2.60295e-05
2.64317e-05
2.64637e-05
2.64312e-05
2.63174e-05
2.61589e-05
2.60009e-05
2.58678e-05
2.57733e-05
2.57123e-05
2.56759e-05
2.5645e-05
2.56112e-05
2.55714e-05
2.55275e-05
2.54846e-05
2.54469e-05
2.54152e-05
2.5388e-05
2.53631e-05
2.5339e-05
2.53154e-05
2.52929e-05
2.52719e-05
2.52524e-05
2.52341e-05
2.52167e-05
2.52001e-05
2.51843e-05
2.51693e-05
2.5155e-05
2.51414e-05
2.51284e-05
2.51161e-05
2.51043e-05
2.5093e-05
2.50822e-05
2.50718e-05
2.50619e-05
2.50524e-05
2.50433e-05
2.50346e-05
2.50263e-05
2.50183e-05
2.50106e-05
2.50032e-05
2.49961e-05
2.49892e-05
2.49825e-05
2.49761e-05
2.49699e-05
2.4964e-05
2.49581e-05
2.49525e-05
2.49471e-05
2.49418e-05
2.49366e-05
2.49316e-05
2.49267e-05
2.49219e-05
2.49172e-05
2.49126e-05
2.49081e-05
2.49038e-05
2.48995e-05
2.48953e-05
2.48911e-05
2.48871e-05
2.48843e-05
2.48886e-05
2.40908e-05
2.41534e-05
2.41644e-05
2.41125e-05
2.40169e-05
2.36338e-05
2.33093e-05
2.29621e-05
2.46731e-05
2.7272e-05
3.07783e-05
3.02244e-05
2.14318e-05
1.78857e-05
2.18467e-05
2.49226e-05
3.72019e-05
3.70849e-05
3.16259e-05
2.66734e-05
2.47949e-05
2.54742e-05
2.58242e-05
2.61975e-05
2.61715e-05
2.6107e-05
2.59686e-05
2.58035e-05
2.56539e-05
2.55331e-05
2.54503e-05
2.53963e-05
2.53609e-05
2.53246e-05
2.52841e-05
2.52377e-05
2.51892e-05
2.51435e-05
2.51041e-05
2.50706e-05
2.50412e-05
2.50135e-05
2.49866e-05
2.49605e-05
2.49358e-05
2.49126e-05
2.48911e-05
2.48707e-05
2.48513e-05
2.48328e-05
2.48151e-05
2.47983e-05
2.47823e-05
2.47671e-05
2.47525e-05
2.47385e-05
2.47252e-05
2.47124e-05
2.47001e-05
2.46884e-05
2.46771e-05
2.46662e-05
2.46559e-05
2.4646e-05
2.46365e-05
2.46274e-05
2.46186e-05
2.46101e-05
2.46019e-05
2.4594e-05
2.45864e-05
2.45791e-05
2.4572e-05
2.45652e-05
2.45585e-05
2.45521e-05
2.45458e-05
2.45398e-05
2.45339e-05
2.45283e-05
2.45227e-05
2.45172e-05
2.45119e-05
2.45067e-05
2.45017e-05
2.44968e-05
2.44921e-05
2.44874e-05
2.44827e-05
2.44783e-05
2.44753e-05
2.44794e-05
2.44981e-05
2.44924e-05
2.44802e-05
2.36607e-05
2.37343e-05
2.37714e-05
2.37516e-05
2.37061e-05
2.33676e-05
2.27384e-05
2.28328e-05
2.39436e-05
2.67173e-05
3.0936e-05
3.23004e-05
2.53033e-05
2.10395e-05
2.36612e-05
2.91259e-05
3.98512e-05
3.64741e-05
3.05997e-05
2.63355e-05
2.51525e-05
2.55648e-05
2.56487e-05
2.59667e-05
2.58599e-05
2.57607e-05
2.56005e-05
2.54339e-05
2.5294e-05
2.51829e-05
2.51042e-05
2.50471e-05
2.50035e-05
2.49534e-05
2.49005e-05
2.48437e-05
2.47875e-05
2.47359e-05
2.46912e-05
2.46521e-05
2.46166e-05
2.45828e-05
2.455e-05
2.45185e-05
2.44888e-05
2.44609e-05
2.44348e-05
2.441e-05
2.43864e-05
2.43638e-05
2.43423e-05
2.43218e-05
2.43023e-05
2.42836e-05
2.42658e-05
2.42487e-05
2.42323e-05
2.42167e-05
2.42016e-05
2.41872e-05
2.41734e-05
2.41601e-05
2.41475e-05
2.41354e-05
2.41238e-05
2.41127e-05
2.41019e-05
2.40915e-05
2.40816e-05
2.4072e-05
2.40627e-05
2.40538e-05
2.40452e-05
2.40369e-05
2.40288e-05
2.40211e-05
2.40135e-05
2.40063e-05
2.39993e-05
2.39925e-05
2.39858e-05
2.39793e-05
2.39729e-05
2.39669e-05
2.3961e-05
2.39553e-05
2.39497e-05
2.39442e-05
2.39388e-05
2.39337e-05
2.39303e-05
2.39333e-05
2.39522e-05
2.39459e-05
2.39334e-05
2.32057e-05
2.32882e-05
2.33571e-05
2.33908e-05
2.34378e-05
2.32114e-05
2.30901e-05
2.29731e-05
2.34004e-05
2.62578e-05
3.06753e-05
3.34987e-05
2.94634e-05
2.47518e-05
2.60887e-05
3.43596e-05
4.0964e-05
3.55623e-05
2.98745e-05
2.63927e-05
2.61202e-05
2.6422e-05
2.61059e-05
2.58734e-05
2.56657e-05
2.55314e-05
2.53491e-05
2.51814e-05
2.50457e-05
2.49345e-05
2.4847e-05
2.4774e-05
2.47136e-05
2.46426e-05
2.45735e-05
2.45033e-05
2.44365e-05
2.4376e-05
2.43223e-05
2.42739e-05
2.42287e-05
2.41853e-05
2.41435e-05
2.41034e-05
2.40656e-05
2.403e-05
2.39963e-05
2.39641e-05
2.39334e-05
2.3904e-05
2.38761e-05
2.38494e-05
2.3824e-05
2.37997e-05
2.37766e-05
2.37544e-05
2.37332e-05
2.37129e-05
2.36935e-05
2.3675e-05
2.36572e-05
2.36403e-05
2.36242e-05
2.36087e-05
2.35939e-05
2.35796e-05
2.35659e-05
2.35527e-05
2.35401e-05
2.35279e-05
2.35161e-05
2.35049e-05
2.3494e-05
2.34836e-05
2.34734e-05
2.34637e-05
2.34543e-05
2.34453e-05
2.34366e-05
2.34281e-05
2.34198e-05
2.34118e-05
2.3404e-05
2.33966e-05
2.33895e-05
2.33825e-05
2.33757e-05
2.3369e-05
2.33625e-05
2.33564e-05
2.3352e-05
2.3353e-05
2.33673e-05
2.33601e-05
2.33478e-05
2.2855e-05
2.29541e-05
2.30732e-05
2.32179e-05
2.3463e-05
2.38109e-05
2.40282e-05
2.38466e-05
2.37436e-05
2.61421e-05
3.02617e-05
3.40224e-05
3.27708e-05
2.91162e-05
2.90066e-05
3.88943e-05
4.10146e-05
3.47688e-05
2.96293e-05
2.72081e-05
2.74911e-05
2.77022e-05
2.71152e-05
2.64122e-05
2.59363e-05
2.56383e-05
2.53911e-05
2.51981e-05
2.50425e-05
2.49033e-05
2.47794e-05
2.4672e-05
2.45858e-05
2.44883e-05
2.44009e-05
2.43152e-05
2.42352e-05
2.41621e-05
2.40954e-05
2.40329e-05
2.39732e-05
2.39153e-05
2.38594e-05
2.38058e-05
2.37547e-05
2.37061e-05
2.36599e-05
2.36158e-05
2.35738e-05
2.35339e-05
2.34962e-05
2.34604e-05
2.34264e-05
2.33942e-05
2.33635e-05
2.33344e-05
2.33066e-05
2.32801e-05
2.32548e-05
2.32307e-05
2.32078e-05
2.31859e-05
2.31651e-05
2.31452e-05
2.3126e-05
2.31077e-05
2.309e-05
2.30731e-05
2.30568e-05
2.30412e-05
2.30261e-05
2.30117e-05
2.29978e-05
2.29845e-05
2.29715e-05
2.29592e-05
2.29472e-05
2.29358e-05
2.29247e-05
2.29139e-05
2.29034e-05
2.28933e-05
2.28837e-05
2.28744e-05
2.28654e-05
2.28567e-05
2.28482e-05
2.28398e-05
2.28317e-05
2.28243e-05
2.28184e-05
2.28165e-05
2.28243e-05
2.2816e-05
2.28038e-05
2.33651e-05
2.34926e-05
2.36604e-05
2.38965e-05
2.42893e-05
2.49074e-05
2.53194e-05
2.51422e-05
2.47164e-05
2.63892e-05
2.9895e-05
3.4099e-05
3.51341e-05
3.29156e-05
3.24243e-05
4.21236e-05
4.05852e-05
3.42885e-05
2.98351e-05
2.84819e-05
2.90423e-05
2.91777e-05
2.84488e-05
2.75445e-05
2.69271e-05
2.65298e-05
2.62325e-05
2.60092e-05
2.58237e-05
2.56432e-05
2.54608e-05
2.52805e-05
2.51065e-05
2.49383e-05
2.47859e-05
2.46451e-05
2.45147e-05
2.43922e-05
2.42753e-05
2.41633e-05
2.40561e-05
2.3954e-05
2.38571e-05
2.37653e-05
2.36786e-05
2.35971e-05
2.35212e-05
2.34512e-05
2.33872e-05
2.33286e-05
2.3275e-05
2.32255e-05
2.31795e-05
2.31365e-05
2.30961e-05
2.3058e-05
2.30218e-05
2.29875e-05
2.29548e-05
2.29237e-05
2.28941e-05
2.28658e-05
2.28387e-05
2.28127e-05
2.27877e-05
2.27637e-05
2.27406e-05
2.27184e-05
2.26971e-05
2.26765e-05
2.26567e-05
2.26378e-05
2.26195e-05
2.26019e-05
2.25849e-05
2.25687e-05
2.2553e-05
2.2538e-05
2.25235e-05
2.25093e-05
2.24957e-05
2.24826e-05
2.24701e-05
2.24581e-05
2.24465e-05
2.24352e-05
2.24242e-05
2.24135e-05
2.24031e-05
2.23937e-05
2.23856e-05
2.23802e-05
2.23813e-05
2.23713e-05
2.23587e-05
2.43874e-05
2.45364e-05
2.47389e-05
2.50333e-05
2.55115e-05
2.62545e-05
2.67684e-05
2.66187e-05
2.60275e-05
2.68314e-05
2.97071e-05
3.39439e-05
3.65139e-05
3.58605e-05
3.55714e-05
4.42544e-05
4.00527e-05
3.41128e-05
3.03162e-05
2.99805e-05
3.0647e-05
3.07227e-05
2.99315e-05
2.89554e-05
2.82742e-05
2.78242e-05
2.74927e-05
2.72425e-05
2.70296e-05
2.68157e-05
2.65931e-05
2.63679e-05
2.61452e-05
2.59333e-05
2.57399e-05
2.55616e-05
2.5395e-05
2.52361e-05
2.50815e-05
2.49314e-05
2.47867e-05
2.46485e-05
2.45169e-05
2.43914e-05
2.42716e-05
2.4157e-05
2.40476e-05
2.39434e-05
2.38443e-05
2.37502e-05
2.36609e-05
2.3576e-05
2.34955e-05
2.34189e-05
2.33461e-05
2.3277e-05
2.32113e-05
2.31488e-05
2.30894e-05
2.30328e-05
2.2979e-05
2.29278e-05
2.28791e-05
2.28326e-05
2.27882e-05
2.27459e-05
2.27055e-05
2.26669e-05
2.26301e-05
2.2595e-05
2.25614e-05
2.25294e-05
2.24989e-05
2.24697e-05
2.24417e-05
2.24151e-05
2.23898e-05
2.23655e-05
2.23423e-05
2.23201e-05
2.2299e-05
2.22788e-05
2.22596e-05
2.22413e-05
2.22239e-05
2.2207e-05
2.21909e-05
2.21753e-05
2.21606e-05
2.2147e-05
2.21351e-05
2.21266e-05
2.21232e-05
2.21095e-05
2.20931e-05
2.5644e-05
2.5823e-05
2.60494e-05
2.6382e-05
2.69042e-05
2.76964e-05
2.82652e-05
2.81493e-05
2.74932e-05
2.74341e-05
2.97526e-05
3.37406e-05
3.7235e-05
3.79433e-05
3.87085e-05
4.51986e-05
3.96392e-05
3.42232e-05
3.12491e-05
3.15638e-05
3.22485e-05
3.22781e-05
3.14619e-05
3.04719e-05
2.97653e-05
2.92864e-05
2.89311e-05
2.86578e-05
2.84207e-05
2.81799e-05
2.7928e-05
2.76721e-05
2.74185e-05
2.71773e-05
2.6956e-05
2.6751e-05
2.65579e-05
2.63722e-05
2.61902e-05
2.60124e-05
2.58402e-05
2.56748e-05
2.55166e-05
2.53649e-05
2.52191e-05
2.50787e-05
2.49438e-05
2.48143e-05
2.46903e-05
2.45715e-05
2.44578e-05
2.43488e-05
2.42446e-05
2.41449e-05
2.40496e-05
2.39584e-05
2.38714e-05
2.37881e-05
2.37086e-05
2.36327e-05
2.35602e-05
2.34909e-05
2.34247e-05
2.33615e-05
2.33011e-05
2.32436e-05
2.31885e-05
2.3136e-05
2.30857e-05
2.30377e-05
2.29918e-05
2.2948e-05
2.29061e-05
2.28661e-05
2.28278e-05
2.27912e-05
2.27562e-05
2.27227e-05
2.26906e-05
2.26599e-05
2.26306e-05
2.26025e-05
2.25757e-05
2.255e-05
2.25254e-05
2.25018e-05
2.24792e-05
2.24575e-05
2.24368e-05
2.24176e-05
2.24008e-05
2.23882e-05
2.23795e-05
2.23607e-05
2.23387e-05
2.7194e-05
2.74408e-05
2.78075e-05
2.83521e-05
2.91624e-05
2.97643e-05
2.96822e-05
2.90171e-05
2.8444e-05
3.00843e-05
3.36177e-05
3.75707e-05
3.9207e-05
4.16106e-05
4.54671e-05
3.94431e-05
3.45921e-05
3.2457e-05
3.31656e-05
3.38381e-05
3.38326e-05
3.29956e-05
3.202e-05
3.13063e-05
3.08098e-05
3.04364e-05
3.01433e-05
2.9885e-05
2.96218e-05
2.93469e-05
2.90678e-05
2.87912e-05
2.85277e-05
2.82846e-05
2.80582e-05
2.78437e-05
2.76363e-05
2.74322e-05
2.72323e-05
2.7038e-05
2.68507e-05
2.66708e-05
2.64977e-05
2.63306e-05
2.61691e-05
2.60133e-05
2.58633e-05
2.5719e-05
2.55802e-05
2.54468e-05
2.53185e-05
2.51953e-05
2.50771e-05
2.49636e-05
2.48548e-05
2.47504e-05
2.46504e-05
2.45546e-05
2.44627e-05
2.43747e-05
2.42905e-05
2.42098e-05
2.41325e-05
2.40586e-05
2.39877e-05
2.392e-05
2.38551e-05
2.37929e-05
2.37334e-05
2.36765e-05
2.3622e-05
2.35698e-05
2.35199e-05
2.3472e-05
2.34262e-05
2.33824e-05
2.33404e-05
2.33002e-05
2.32617e-05
2.32248e-05
2.31895e-05
2.31556e-05
2.31232e-05
2.30921e-05
2.30623e-05
2.30337e-05
2.30063e-05
2.29802e-05
2.29558e-05
2.2934e-05
2.2916e-05
2.29007e-05
2.28773e-05
2.28516e-05
2.92482e-05
2.98076e-05
3.06291e-05
3.1256e-05
3.12052e-05
3.05568e-05
2.96962e-05
3.0677e-05
3.36445e-05
3.77214e-05
4.01745e-05
4.34309e-05
4.55134e-05
3.94715e-05
3.52011e-05
3.38216e-05
3.47706e-05
3.54416e-05
3.54198e-05
3.45194e-05
3.35762e-05
3.28659e-05
3.23588e-05
3.19713e-05
3.16612e-05
3.13847e-05
3.11025e-05
3.08084e-05
3.051e-05
3.02142e-05
2.99319e-05
2.967e-05
2.94249e-05
2.91915e-05
2.8965e-05
2.87416e-05
2.85222e-05
2.83085e-05
2.81018e-05
2.79026e-05
2.77103e-05
2.75241e-05
2.73436e-05
2.7169e-05
2.70003e-05
2.68375e-05
2.66806e-05
2.65292e-05
2.63833e-05
2.62427e-05
2.61074e-05
2.59773e-05
2.58522e-05
2.57319e-05
2.56163e-05
2.55052e-05
2.53985e-05
2.52961e-05
2.51978e-05
2.51034e-05
2.50129e-05
2.4926e-05
2.48427e-05
2.47629e-05
2.46862e-05
2.46128e-05
2.45423e-05
2.44748e-05
2.441e-05
2.43479e-05
2.42884e-05
2.42314e-05
2.41767e-05
2.41243e-05
2.4074e-05
2.40258e-05
2.39796e-05
2.39353e-05
2.38928e-05
2.3852e-05
2.38129e-05
2.37754e-05
2.37394e-05
2.37049e-05
2.36718e-05
2.36403e-05
2.36106e-05
2.35833e-05
2.35593e-05
2.35369e-05
2.35093e-05
2.34803e-05
3.06688e-05
3.12572e-05
3.20974e-05
3.27489e-05
3.27283e-05
3.2103e-05
3.10842e-05
3.14722e-05
3.3841e-05
3.78138e-05
4.054e-05
4.46471e-05
4.5542e-05
3.96901e-05
3.60002e-05
3.52609e-05
3.63649e-05
3.7081e-05
3.71448e-05
3.60326e-05
3.51362e-05
3.44416e-05
3.39303e-05
3.35329e-05
3.32093e-05
3.29174e-05
3.26191e-05
3.23085e-05
3.19932e-05
3.16803e-05
3.13807e-05
3.11016e-05
3.0839e-05
3.0588e-05
3.03435e-05
3.0102e-05
2.98644e-05
2.96323e-05
2.94073e-05
2.91898e-05
2.89791e-05
2.87745e-05
2.85758e-05
2.83829e-05
2.81962e-05
2.80155e-05
2.78408e-05
2.76719e-05
2.75087e-05
2.7351e-05
2.7199e-05
2.70523e-05
2.6911e-05
2.67748e-05
2.66436e-05
2.65173e-05
2.63957e-05
2.62787e-05
2.61661e-05
2.6058e-05
2.5954e-05
2.5854e-05
2.5758e-05
2.56657e-05
2.55771e-05
2.54919e-05
2.54102e-05
2.53317e-05
2.52564e-05
2.5184e-05
2.51146e-05
2.50479e-05
2.49839e-05
2.49225e-05
2.48636e-05
2.4807e-05
2.47527e-05
2.47005e-05
2.46505e-05
2.46024e-05
2.45562e-05
2.45119e-05
2.44693e-05
2.44284e-05
2.43893e-05
2.43518e-05
2.43163e-05
2.42832e-05
2.42527e-05
2.42232e-05
2.41911e-05
2.41587e-05
3.2112e-05
3.27278e-05
3.35899e-05
3.42656e-05
3.42771e-05
3.36667e-05
3.25525e-05
3.2397e-05
3.41929e-05
3.79217e-05
4.06393e-05
4.52632e-05
4.56214e-05
4.00477e-05
3.69187e-05
3.66715e-05
3.78022e-05
3.8451e-05
3.85122e-05
3.75316e-05
3.66998e-05
3.60376e-05
3.55319e-05
3.51313e-05
3.47992e-05
3.44963e-05
3.41854e-05
3.3861e-05
3.35307e-05
3.32021e-05
3.28861e-05
3.25904e-05
3.23108e-05
3.20426e-05
3.17806e-05
3.15213e-05
3.12656e-05
3.10153e-05
3.0772e-05
3.05361e-05
3.0307e-05
3.0084e-05
2.98669e-05
2.96557e-05
2.94507e-05
2.92518e-05
2.9059e-05
2.88722e-05
2.86913e-05
2.85162e-05
2.83469e-05
2.81832e-05
2.80251e-05
2.78724e-05
2.7725e-05
2.75828e-05
2.74456e-05
2.73134e-05
2.71859e-05
2.70632e-05
2.6945e-05
2.68312e-05
2.67217e-05
2.66163e-05
2.65149e-05
2.64174e-05
2.63236e-05
2.62334e-05
2.61467e-05
2.60634e-05
2.59833e-05
2.59063e-05
2.58323e-05
2.57612e-05
2.56929e-05
2.56272e-05
2.55641e-05
2.55034e-05
2.5445e-05
2.5389e-05
2.53351e-05
2.52833e-05
2.52335e-05
2.51858e-05
2.51399e-05
2.50959e-05
2.50541e-05
2.50144e-05
2.4977e-05
2.49408e-05
2.49036e-05
2.4867e-05
3.35891e-05
3.42412e-05
3.51317e-05
3.58354e-05
3.5874e-05
3.52644e-05
3.40789e-05
3.33744e-05
3.46782e-05
3.80857e-05
4.07065e-05
4.57519e-05
4.57559e-05
4.04807e-05
3.78758e-05
3.79698e-05
3.90109e-05
3.95181e-05
3.95226e-05
3.89838e-05
3.82566e-05
3.76487e-05
3.7166e-05
3.67738e-05
3.6442e-05
3.61352e-05
3.58177e-05
3.54843e-05
3.51424e-05
3.48003e-05
3.44694e-05
3.41577e-05
3.38617e-05
3.35764e-05
3.32969e-05
3.30196e-05
3.27454e-05
3.24764e-05
3.22141e-05
3.19592e-05
3.1711e-05
3.14689e-05
3.12326e-05
3.10022e-05
3.0778e-05
3.056e-05
3.03483e-05
3.01427e-05
2.99431e-05
2.97495e-05
2.9562e-05
2.93803e-05
2.92043e-05
2.90341e-05
2.88694e-05
2.87102e-05
2.85563e-05
2.84078e-05
2.82643e-05
2.8126e-05
2.79925e-05
2.78638e-05
2.77397e-05
2.76201e-05
2.75049e-05
2.7394e-05
2.72871e-05
2.71842e-05
2.70852e-05
2.69899e-05
2.68981e-05
2.68099e-05
2.6725e-05
2.66432e-05
2.65646e-05
2.64889e-05
2.6416e-05
2.63459e-05
2.62785e-05
2.62136e-05
2.61513e-05
2.60913e-05
2.60336e-05
2.59782e-05
2.59248e-05
2.58737e-05
2.58247e-05
2.5778e-05
2.57335e-05
2.56903e-05
2.56476e-05
2.5606e-05
3.74693e-05
3.75218e-05
3.69032e-05
3.5655e-05
3.45466e-05
3.53115e-05
3.83293e-05
4.08092e-05
4.63296e-05
4.59229e-05
4.0931e-05
3.88038e-05
3.91617e-05
4.01384e-05
4.06521e-05
4.07265e-05
4.03518e-05
3.97685e-05
3.92465e-05
3.88126e-05
3.84483e-05
3.8132e-05
3.7834e-05
3.75213e-05
3.71886e-05
3.68431e-05
3.64932e-05
3.61512e-05
3.58262e-05
3.55153e-05
3.52141e-05
3.49176e-05
3.46224e-05
3.43296e-05
3.40412e-05
3.37593e-05
3.34845e-05
3.32161e-05
3.29537e-05
3.26968e-05
3.24459e-05
3.22011e-05
3.19627e-05
3.17306e-05
3.15047e-05
3.12849e-05
3.10714e-05
3.0864e-05
3.06627e-05
3.04674e-05
3.0278e-05
3.00945e-05
2.99167e-05
2.97447e-05
2.95783e-05
2.94174e-05
2.92619e-05
2.91117e-05
2.89666e-05
2.88266e-05
2.86914e-05
2.85611e-05
2.84353e-05
2.83141e-05
2.81973e-05
2.80846e-05
2.79761e-05
2.78715e-05
2.77707e-05
2.76736e-05
2.75801e-05
2.749e-05
2.74032e-05
2.73195e-05
2.7239e-05
2.71616e-05
2.7087e-05
2.70153e-05
2.69462e-05
2.68797e-05
2.68156e-05
2.6754e-05
2.66949e-05
2.66381e-05
2.65838e-05
2.65317e-05
2.64814e-05
2.64324e-05
2.6385e-05
3.91481e-05
3.92033e-05
3.8573e-05
3.72703e-05
3.58626e-05
3.6087e-05
3.86624e-05
4.09635e-05
4.70684e-05
4.60982e-05
4.13786e-05
3.96704e-05
4.02398e-05
4.11637e-05
4.16874e-05
4.18134e-05
4.15831e-05
4.11677e-05
4.07687e-05
4.04172e-05
4.0108e-05
3.983e-05
3.95609e-05
3.92724e-05
3.89587e-05
3.86255e-05
3.8281e-05
3.79378e-05
3.76066e-05
3.72863e-05
3.69733e-05
3.66632e-05
3.63526e-05
3.60428e-05
3.5736e-05
3.54346e-05
3.51396e-05
3.48504e-05
3.45667e-05
3.42883e-05
3.40156e-05
3.37488e-05
3.34883e-05
3.32341e-05
3.2986e-05
3.27442e-05
3.25087e-05
3.22795e-05
3.20565e-05
3.18398e-05
3.16292e-05
3.14248e-05
3.12265e-05
3.10343e-05
3.08481e-05
3.06677e-05
3.04931e-05
3.03242e-05
3.01609e-05
3.0003e-05
2.98505e-05
2.97032e-05
2.9561e-05
2.94237e-05
2.92912e-05
2.91633e-05
2.90399e-05
2.89209e-05
2.88061e-05
2.86953e-05
2.85885e-05
2.84855e-05
2.83862e-05
2.82905e-05
2.81984e-05
2.81097e-05
2.80243e-05
2.79421e-05
2.78628e-05
2.77863e-05
2.77127e-05
2.76419e-05
2.75738e-05
2.75085e-05
2.7446e-05
2.73858e-05
2.73279e-05
2.72719e-05
2.72177e-05
4.08737e-05
4.09033e-05
4.02526e-05
3.89064e-05
3.72787e-05
3.69893e-05
3.90855e-05
4.11498e-05
4.80443e-05
4.62665e-05
4.18163e-05
4.04975e-05
4.11815e-05
4.2037e-05
4.25401e-05
4.27017e-05
4.2605e-05
4.23679e-05
4.21207e-05
4.18863e-05
4.1664e-05
4.14511e-05
4.12356e-05
4.09978e-05
4.07307e-05
4.0437e-05
4.01227e-05
3.97996e-05
3.94793e-05
3.91634e-05
3.88501e-05
3.85358e-05
3.82174e-05
3.78963e-05
3.75755e-05
3.72581e-05
3.69455e-05
3.66376e-05
3.6334e-05
3.60348e-05
3.57403e-05
3.54511e-05
3.51675e-05
3.48899e-05
3.46182e-05
3.43526e-05
3.40932e-05
3.38401e-05
3.35934e-05
3.3353e-05
3.31189e-05
3.28913e-05
3.267e-05
3.2455e-05
3.22464e-05
3.20441e-05
3.1848e-05
3.1658e-05
3.14741e-05
3.12961e-05
3.1124e-05
3.09575e-05
3.07965e-05
3.06409e-05
3.04905e-05
3.03451e-05
3.02047e-05
3.00692e-05
2.99382e-05
2.98118e-05
2.96898e-05
2.95722e-05
2.94588e-05
2.93495e-05
2.92443e-05
2.91428e-05
2.90451e-05
2.89507e-05
2.88597e-05
2.8772e-05
2.86876e-05
2.86064e-05
2.85286e-05
2.84539e-05
2.83824e-05
2.83136e-05
2.82474e-05
2.81834e-05
2.81216e-05
3.80003e-05
3.95899e-05
4.13066e-05
4.91433e-05
4.6406e-05
4.22293e-05
4.12473e-05
4.19665e-05
4.27278e-05
4.31794e-05
4.33578e-05
4.33647e-05
4.32826e-05
4.31878e-05
4.30829e-05
4.29603e-05
4.28308e-05
4.26917e-05
4.25321e-05
4.23458e-05
4.21329e-05
4.18951e-05
4.16379e-05
4.13682e-05
4.10879e-05
4.07973e-05
4.04964e-05
4.0185e-05
3.98663e-05
3.95443e-05
3.92225e-05
3.89027e-05
3.85846e-05
3.82679e-05
3.79525e-05
3.76393e-05
3.73298e-05
3.70247e-05
3.67247e-05
3.643e-05
3.61409e-05
3.58574e-05
3.55797e-05
3.53079e-05
3.50421e-05
3.47826e-05
3.45293e-05
3.42826e-05
3.40426e-05
3.38091e-05
3.35823e-05
3.33621e-05
3.31485e-05
3.29413e-05
3.27405e-05
3.25458e-05
3.23572e-05
3.21746e-05
3.19978e-05
3.18266e-05
3.1661e-05
3.15009e-05
3.1346e-05
3.11964e-05
3.10519e-05
3.09124e-05
3.07779e-05
3.06482e-05
3.05232e-05
3.04026e-05
3.02863e-05
3.0174e-05
3.00656e-05
2.9961e-05
2.98604e-05
2.97637e-05
2.9671e-05
2.95822e-05
2.94972e-05
2.94157e-05
2.93373e-05
2.92618e-05
2.91888e-05
2.91181e-05
3.9063e-05
4.01597e-05
4.14594e-05
5.01422e-05
4.64875e-05
4.26024e-05
4.18967e-05
4.25897e-05
4.32376e-05
4.36198e-05
4.37958e-05
4.38629e-05
4.38799e-05
4.38856e-05
4.38492e-05
4.37949e-05
4.37331e-05
4.36628e-05
4.35778e-05
4.34744e-05
4.33521e-05
4.3211e-05
4.30537e-05
4.28835e-05
4.27004e-05
4.25034e-05
4.22904e-05
4.20594e-05
4.18105e-05
4.15447e-05
4.12638e-05
4.09693e-05
4.06629e-05
4.0347e-05
4.00253e-05
3.97019e-05
3.93804e-05
3.90624e-05
3.87483e-05
3.84379e-05
3.81306e-05
3.78266e-05
3.7526e-05
3.72297e-05
3.69385e-05
3.66531e-05
3.6374e-05
3.61013e-05
3.58354e-05
3.55762e-05
3.53236e-05
3.50776e-05
3.4838e-05
3.4605e-05
3.43784e-05
3.41582e-05