/*--------------------------------*- C++ -*----------------------------------*\
| =========                 |                                                 |
| \\      /  F ield         | OpenFOAM: The Open Source CFD Toolbox           |
|  \\    /   O peration     | Version:  2412                                  |
|   \\  /    A nd           | Website:  www.openfoam.com                      |
|    \\/     M anipulation  |                                                 |
\*---------------------------------------------------------------------------*/
FoamFile
{
    version     2.0;
    format      ascii;
    arch        "LSB;label=32;scalar=64";
    class       volScalarField;
    location    "60";
    object      nuTilda;
}
// * * * * * * * * * * * * * * * * * * * * * * * * * * * * * * * * * * * * * //

dimensions      [0 2 -1 0 0 0 0];

internalField   nonuniform List<scalar> 
7423
(
4.1783e-06
4.80033e-06
4.74509e-06
4.48484e-06
3.92611e-06
3.33643e-06
2.91559e-06
2.48038e-06
2.31655e-06
2.18426e-06
2.09013e-06
2.02321e-06
2.00304e-06
2.01621e-06
2.03741e-06
2.05813e-06
2.07531e-06
2.08895e-06
2.09826e-06
2.10476e-06
2.10809e-06
2.10941e-06
2.10829e-06
2.10571e-06
2.1014e-06
2.09609e-06
2.08951e-06
2.08228e-06
2.07414e-06
2.06536e-06
2.056e-06
2.04612e-06
2.03584e-06
2.02519e-06
2.01428e-06
2.00321e-06
1.99207e-06
1.98092e-06
1.96982e-06
1.95887e-06
1.94816e-06
1.9377e-06
1.92756e-06
1.91781e-06
1.90844e-06
1.89953e-06
1.89108e-06
1.88313e-06
1.87566e-06
1.86868e-06
1.86225e-06
1.85632e-06
1.85097e-06
1.84623e-06
1.84214e-06
1.83872e-06
1.83603e-06
1.83412e-06
1.83307e-06
1.8329e-06
1.83369e-06
1.83555e-06
1.83859e-06
1.84294e-06
1.84888e-06
1.8564e-06
1.86499e-06
1.87393e-06
1.88255e-06
1.89046e-06
1.89758e-06
1.90401e-06
1.90982e-06
1.91514e-06
1.91936e-06
1.92367e-06
1.26281e-05
1.53285e-05
1.56766e-05
1.51991e-05
1.34797e-05
1.14338e-05
9.82866e-06
7.42854e-06
7.09176e-06
6.81592e-06
6.5857e-06
6.37584e-06
6.30487e-06
6.33715e-06
6.39802e-06
6.45909e-06
6.51023e-06
6.55093e-06
6.5787e-06
6.59786e-06
6.60737e-06
6.61067e-06
6.60646e-06
6.59767e-06
6.58354e-06
6.56622e-06
6.5449e-06
6.52145e-06
6.49507e-06
6.46669e-06
6.43642e-06
6.40447e-06
6.37115e-06
6.33669e-06
6.30136e-06
6.26541e-06
6.22912e-06
6.19269e-06
6.15632e-06
6.12029e-06
6.08489e-06
6.05018e-06
6.01634e-06
5.98363e-06
5.95204e-06
5.92179e-06
5.89294e-06
5.86558e-06
5.83968e-06
5.81531e-06
5.79261e-06
5.77152e-06
5.75224e-06
5.73487e-06
5.71963e-06
5.70661e-06
5.69597e-06
5.68793e-06
5.68284e-06
5.68074e-06
5.68195e-06
5.68684e-06
5.69585e-06
5.70954e-06
5.72886e-06
5.75401e-06
5.78341e-06
5.81434e-06
5.84425e-06
5.87163e-06
5.89619e-06
5.91821e-06
5.93802e-06
5.9561e-06
5.97058e-06
5.98487e-06
2.11724e-05
2.58288e-05
2.71573e-05
2.69308e-05
2.43336e-05
2.09497e-05
1.81939e-05
1.27496e-05
1.22067e-05
1.18695e-05
1.15842e-05
1.13073e-05
1.12345e-05
1.12763e-05
1.13697e-05
1.14675e-05
1.1551e-05
1.16176e-05
1.16632e-05
1.16941e-05
1.17086e-05
1.17123e-05
1.17033e-05
1.16859e-05
1.16594e-05
1.16269e-05
1.15874e-05
1.15437e-05
1.14948e-05
1.14422e-05
1.13861e-05
1.13268e-05
1.12649e-05
1.12008e-05
1.11348e-05
1.10675e-05
1.09991e-05
1.09302e-05
1.08611e-05
1.07922e-05
1.07239e-05
1.06566e-05
1.05905e-05
1.0526e-05
1.04634e-05
1.04027e-05
1.03443e-05
1.02884e-05
1.02348e-05
1.01839e-05
1.01358e-05
1.00907e-05
1.00488e-05
1.00105e-05
9.97609e-06
9.94609e-06
9.92076e-06
9.9006e-06
9.88639e-06
9.87823e-06
9.8769e-06
9.88305e-06
9.89766e-06
9.9222e-06
9.95886e-06
1.00084e-05
1.00677e-05
1.0131e-05
1.01924e-05
1.02486e-05
1.02987e-05
1.03432e-05
1.03831e-05
1.04193e-05
1.04487e-05
1.04762e-05
2.94824e-05
3.55764e-05
3.85412e-05
3.9212e-05
3.61693e-05
3.16803e-05
2.78548e-05
1.94444e-05
1.807e-05
1.73595e-05
1.70063e-05
1.68281e-05
1.68961e-05
1.6938e-05
1.70497e-05
1.71754e-05
1.72858e-05
1.73746e-05
1.74357e-05
1.74761e-05
1.74938e-05
1.74953e-05
1.7479e-05
1.74499e-05
1.74075e-05
1.73557e-05
1.72934e-05
1.72244e-05
1.71474e-05
1.70645e-05
1.6976e-05
1.68826e-05
1.67848e-05
1.66832e-05
1.65783e-05
1.64707e-05
1.63609e-05
1.62497e-05
1.61373e-05
1.60246e-05
1.5912e-05
1.58001e-05
1.56893e-05
1.55801e-05
1.5473e-05
1.53683e-05
1.52664e-05
1.51676e-05
1.50719e-05
1.498e-05
1.48922e-05
1.48086e-05
1.473e-05
1.4657e-05
1.45904e-05
1.4531e-05
1.44796e-05
1.44371e-05
1.44049e-05
1.43832e-05
1.43735e-05
1.4377e-05
1.43954e-05
1.44319e-05
1.44908e-05
1.4574e-05
1.46767e-05
1.47884e-05
1.48976e-05
1.49972e-05
1.50857e-05
1.51638e-05
1.52333e-05
1.52958e-05
1.53475e-05
1.53929e-05
3.7244e-05
4.44881e-05
4.92094e-05
5.17617e-05
4.88328e-05
4.34861e-05
3.86662e-05
2.7929e-05
2.56066e-05
2.39131e-05
2.30394e-05
2.30238e-05
2.34157e-05
2.34449e-05
2.35519e-05
2.36896e-05
2.38171e-05
2.39205e-05
2.39929e-05
2.40384e-05
2.40562e-05
2.4052e-05
2.40251e-05
2.39805e-05
2.3918e-05
2.38418e-05
2.37513e-05
2.36504e-05
2.35385e-05
2.34179e-05
2.32891e-05
2.3153e-05
2.30103e-05
2.28616e-05
2.27076e-05
2.25489e-05
2.23861e-05
2.22201e-05
2.20514e-05
2.18809e-05
2.17092e-05
2.1537e-05
2.1365e-05
2.11939e-05
2.10242e-05
2.08567e-05
2.06919e-05
2.05304e-05
2.03724e-05
2.02188e-05
2.00705e-05
1.99278e-05
1.9792e-05
1.96643e-05
1.95462e-05
1.94392e-05
1.93446e-05
1.92641e-05
1.92001e-05
1.91531e-05
1.91254e-05
1.91191e-05
1.91371e-05
1.9185e-05
1.92708e-05
1.9399e-05
1.95628e-05
1.97449e-05
1.99246e-05
2.00889e-05
2.0234e-05
2.03614e-05
2.0474e-05
2.05744e-05
2.06587e-05
2.07284e-05
4.41683e-05
5.28302e-05
5.93179e-05
6.43497e-05
6.2327e-05
5.63861e-05
5.0603e-05
3.85824e-05
3.51088e-05
3.23479e-05
3.0558e-05
3.02357e-05
3.09715e-05
3.09524e-05
3.10191e-05
3.11434e-05
3.1271e-05
3.13763e-05
3.14517e-05
3.14951e-05
3.15079e-05
3.14925e-05
3.14506e-05
3.1385e-05
3.12972e-05
3.11899e-05
3.10643e-05
3.09234e-05
3.07679e-05
3.06001e-05
3.0421e-05
3.02316e-05
3.00327e-05
2.98252e-05
2.96096e-05
2.93866e-05
2.91567e-05
2.8921e-05
2.86799e-05
2.84344e-05
2.81852e-05
2.79333e-05
2.76793e-05
2.74243e-05
2.71692e-05
2.69146e-05
2.66617e-05
2.64113e-05
2.61642e-05
2.59214e-05
2.56848e-05
2.54553e-05
2.52347e-05
2.50253e-05
2.48295e-05
2.465e-05
2.44887e-05
2.43486e-05
2.42334e-05
2.4144e-05
2.40838e-05
2.40562e-05
2.40659e-05
2.41217e-05
2.42373e-05
2.44219e-05
2.46675e-05
2.49477e-05
2.52279e-05
2.54847e-05
2.57109e-05
2.59083e-05
2.60819e-05
2.62355e-05
2.63659e-05
2.64677e-05
4.9984e-05
6.04796e-05
6.91429e-05
7.74785e-05
7.71605e-05
7.09282e-05
6.40188e-05
5.20917e-05
4.71511e-05
4.30722e-05
4.02152e-05
3.91644e-05
3.98398e-05
3.96798e-05
3.96487e-05
3.97191e-05
3.98181e-05
3.9903e-05
3.99665e-05
3.99946e-05
3.99926e-05
3.99563e-05
3.98911e-05
3.97955e-05
3.96737e-05
3.9525e-05
3.93539e-05
3.91608e-05
3.89493e-05
3.87209e-05
3.84775e-05
3.82203e-05
3.79505e-05
3.76687e-05
3.73754e-05
3.70712e-05
3.67568e-05
3.64326e-05
3.60994e-05
3.57578e-05
3.54088e-05
3.50532e-05
3.4692e-05
3.43264e-05
3.39573e-05
3.35859e-05
3.32138e-05
3.28423e-05
3.24728e-05
3.2107e-05
3.17478e-05
3.1397e-05
3.10576e-05
3.07329e-05
3.04267e-05
3.01433e-05
2.98858e-05
2.96582e-05
2.94663e-05
2.93115e-05
2.91989e-05
2.91332e-05
2.91214e-05
2.91773e-05
2.9322e-05
2.95724e-05
2.99215e-05
3.03316e-05
3.07483e-05
3.11321e-05
3.14695e-05
3.17625e-05
3.20188e-05
3.22442e-05
3.24371e-05
3.258e-05
5.44345e-05
6.70868e-05
7.83581e-05
9.1095e-05
9.36611e-05
8.84461e-05
8.04408e-05
6.94109e-05
6.25854e-05
5.67937e-05
5.256e-05
5.05255e-05
5.04507e-05
4.99678e-05
4.97391e-05
4.96841e-05
4.97022e-05
4.97252e-05
4.97461e-05
4.97323e-05
4.96941e-05
4.96164e-05
4.95101e-05
4.93662e-05
4.91929e-05
4.89839e-05
4.87481e-05
4.84823e-05
4.81938e-05
4.78836e-05
4.75543e-05
4.72076e-05
4.6845e-05
4.64672e-05
4.60742e-05
4.56664e-05
4.52443e-05
4.4808e-05
4.43581e-05
4.38949e-05
4.34192e-05
4.29319e-05
4.2434e-05
4.19268e-05
4.14116e-05
4.08897e-05
4.03635e-05
3.98348e-05
3.93059e-05
3.87795e-05
3.82595e-05
3.77492e-05
3.72527e-05
3.67749e-05
3.63213e-05
3.58979e-05
3.55091e-05
3.51609e-05
3.48612e-05
3.46123e-05
3.44212e-05
3.42948e-05
3.42426e-05
3.42845e-05
3.4452e-05
3.47734e-05
3.52457e-05
3.58192e-05
3.64126e-05
3.69627e-05
3.74457e-05
3.78634e-05
3.82268e-05
3.85445e-05
3.88179e-05
3.9011e-05
5.72572e-05
7.22741e-05
8.67309e-05
0.000104735
0.000111279
0.000108413
0.000100577
9.03986e-05
8.1928e-05
7.41915e-05
6.82529e-05
6.47844e-05
6.33904e-05
6.23035e-05
6.16954e-05
6.13812e-05
6.12172e-05
6.10976e-05
6.10121e-05
6.09015e-05
6.07807e-05
6.0619e-05
6.0433e-05
6.02041e-05
5.99443e-05
5.96401e-05
5.93058e-05
5.89332e-05
5.85347e-05
5.81102e-05
5.76634e-05
5.71966e-05
5.67115e-05
5.62088e-05
5.56878e-05
5.51489e-05
5.45916e-05
5.40158e-05
5.34217e-05
5.28092e-05
5.21787e-05
5.15309e-05
5.08669e-05
5.0188e-05
4.94957e-05
4.87914e-05
4.80781e-05
4.73585e-05
4.66356e-05
4.59129e-05
4.51959e-05
4.44894e-05
4.37984e-05
4.31297e-05
4.24907e-05
4.18894e-05
4.13318e-05
4.0826e-05
4.03827e-05
4.00058e-05
3.97045e-05
3.94883e-05
3.937e-05
3.9377e-05
3.95534e-05
3.99434e-05
4.05539e-05
4.13229e-05
4.21346e-05
4.28931e-05
4.35586e-05
4.41313e-05
4.46268e-05
4.50576e-05
4.54296e-05
4.56806e-05
7.56606e-05
9.39096e-05
0.000117945
0.000129468
0.000130108
0.000123714
0.000114365
0.000104852
9.53394e-05
8.74966e-05
8.21935e-05
7.91535e-05
7.7109e-05
7.5843e-05
7.5056e-05
7.45447e-05
7.41503e-05
7.38507e-05
7.35522e-05
7.32696e-05
7.29536e-05
7.26246e-05
7.22526e-05
7.18525e-05
7.14029e-05
7.09227e-05
7.03989e-05
6.98482e-05
6.92698e-05
6.86681e-05
6.80462e-05
6.74056e-05
6.67467e-05
6.60684e-05
6.53702e-05
6.46513e-05
6.39106e-05
6.3148e-05
6.23624e-05
6.1554e-05
6.07231e-05
5.98705e-05
5.89974e-05
5.81053e-05
5.71955e-05
5.62715e-05
5.53364e-05
5.43939e-05
5.34482e-05
5.2506e-05
5.15734e-05
5.06567e-05
4.97639e-05
4.89049e-05
4.80896e-05
4.73259e-05
4.66244e-05
4.59991e-05
4.5456e-05
4.50074e-05
4.46662e-05
4.44491e-05
4.43921e-05
4.45545e-05
4.50015e-05
4.57567e-05
4.67487e-05
4.78196e-05
4.88292e-05
4.97146e-05
5.04726e-05
5.11244e-05
5.16875e-05
5.21748e-05
5.24878e-05
9.95158e-05
0.000130261
0.000147749
0.000152973
0.000149283
0.000141246
0.000131295
0.000120205
0.000110285
0.00010286
9.79114e-05
9.45325e-05
9.22856e-05
9.07696e-05
8.9708e-05
8.88749e-05
8.82244e-05
8.76225e-05
8.70774e-05
8.65187e-05
8.59672e-05
8.53811e-05
8.47759e-05
8.41218e-05
8.34414e-05
8.27166e-05
8.19675e-05
8.11925e-05
8.03964e-05
7.95823e-05
7.87519e-05
7.79051e-05
7.70398e-05
7.6155e-05
7.52493e-05
7.43205e-05
7.3368e-05
7.23899e-05
7.13857e-05
7.03551e-05
6.92986e-05
6.82167e-05
6.7111e-05
6.5982e-05
6.48337e-05
6.36688e-05
6.24918e-05
6.13068e-05
6.01213e-05
5.89428e-05
5.77778e-05
5.66359e-05
5.55287e-05
5.44683e-05
5.34645e-05
5.25307e-05
5.16844e-05
5.0935e-05
5.0298e-05
4.9791e-05
4.94355e-05
4.9277e-05
4.93922e-05
4.98725e-05
5.07676e-05
5.2002e-05
5.33697e-05
5.46727e-05
5.58155e-05
5.67886e-05
5.76196e-05
5.83326e-05
5.89503e-05
5.93262e-05
0.000141175
0.000165634
0.000176504
0.000176744
0.000170968
0.000161444
0.00014912
0.000136972
0.000127098
0.000119898
0.000114771
0.000111187
0.000108655
0.000106811
0.00010535
0.000104188
0.000103148
0.000102221
0.000101317
0.00010045
9.95672e-05
9.86821e-05
9.77562e-05
9.68136e-05
9.58315e-05
9.48317e-05
9.3812e-05
9.27765e-05
9.17282e-05
9.06687e-05
8.95974e-05
8.85111e-05
8.74083e-05
8.62869e-05
8.51439e-05
8.39779e-05
8.27862e-05
8.15673e-05
8.03203e-05
7.9045e-05
7.77416e-05
7.64108e-05
7.50525e-05
7.36706e-05
7.22673e-05
7.08471e-05
6.94137e-05
6.79747e-05
6.65384e-05
6.5111e-05
6.3703e-05
6.23273e-05
6.09974e-05
5.97251e-05
5.85265e-05
5.74224e-05
5.64263e-05
5.55578e-05
5.48399e-05
5.43002e-05
5.39945e-05
5.40182e-05
5.44942e-05
5.55098e-05
5.69945e-05
5.86909e-05
6.03288e-05
6.17671e-05
6.29853e-05
6.4018e-05
6.48977e-05
6.566e-05
6.60974e-05
0.0001501
0.000182572
0.000200199
0.000205536
0.000203195
0.000195295
0.000182466
0.000168149
0.000155511
0.000145631
0.00013828
0.000132943
0.000129052
0.000126147
0.000123828
0.000121961
0.000120317
0.000118868
0.000117493
0.0001162
0.000114923
0.000113669
0.000112391
0.000111114
0.000109808
0.000108496
0.000107174
0.000105845
0.000104513
0.000103177
0.000101836
0.000100487
9.91277e-05
9.77546e-05
9.63642e-05
9.49547e-05
9.35219e-05
9.2064e-05
9.05788e-05
8.90656e-05
8.75238e-05
8.59535e-05
8.43536e-05
8.27274e-05
8.10768e-05
7.94055e-05
7.77166e-05
7.60171e-05
7.43155e-05
7.26172e-05
7.09323e-05
6.92745e-05
6.76578e-05
6.60952e-05
6.46049e-05
6.32106e-05
6.19298e-05
6.07869e-05
5.98109e-05
5.90365e-05
5.85301e-05
5.84068e-05
5.88256e-05
5.99236e-05
6.1651e-05
6.36999e-05
6.57125e-05
6.74858e-05
6.89809e-05
7.02388e-05
7.13023e-05
7.22245e-05
7.27226e-05
0.000156366
0.000197908
0.000223505
0.000235099
0.000237389
0.000232516
0.000220393
0.00020438
0.000188823
0.000175829
0.000165728
0.000158149
0.000152486
0.000148176
0.000144714
0.000141902
0.000139452
0.000137303
0.000135305
0.000133453
0.000131661
0.000129932
0.000128207
0.000126506
0.000124796
0.000123097
0.000121405
0.000119719
0.000118041
0.000116372
0.000114708
0.000113045
0.000111381
0.000109711
0.000108031
0.00010634
0.000104631
0.000102902
0.00010115
9.93725e-05
9.75691e-05
9.5739e-05
9.38797e-05
9.1994e-05
9.0083e-05
8.81497e-05
8.61962e-05
8.42285e-05
8.22547e-05
8.02787e-05
7.83096e-05
7.63608e-05
7.44458e-05
7.25775e-05
7.0775e-05
6.90639e-05
6.74654e-05
6.60076e-05
6.47265e-05
6.36643e-05
6.28983e-05
6.25622e-05
6.28539e-05
6.39745e-05
6.5916e-05
6.8329e-05
7.07537e-05
7.2904e-05
7.47108e-05
7.622e-05
7.7486e-05
7.85847e-05
0.000159233
0.000210864
0.00024577
0.000264849
0.00027294
0.000272515
0.00026269
0.000246028
0.000227745
0.000211319
0.000197942
0.000187576
0.000179647
0.000173513
0.000168556
0.000164501
0.000160991
0.000157926
0.000155116
0.000152538
0.000150086
0.00014775
0.000145459
0.000143228
0.000141017
0.000138843
0.000136697
0.000134576
0.000132481
0.000130408
0.000128356
0.000126318
0.000124289
0.000122268
0.000120248
0.000118226
0.000116197
0.000114157
0.0001121
0.000110026
0.00010793
0.000105813
0.00010367
0.000101503
9.93131e-05
9.71019e-05
9.48703e-05
9.2623e-05
9.03678e-05
8.81065e-05
8.58464e-05
8.35996e-05
8.13784e-05
7.91942e-05
7.70657e-05
7.5018e-05
7.30748e-05
7.12673e-05
6.9637e-05
6.82345e-05
6.71471e-05
6.65245e-05
6.6603e-05
6.76612e-05
6.97611e-05
7.2532e-05
7.54009e-05
7.79724e-05
8.01302e-05
8.19205e-05
8.34103e-05
8.47051e-05
0.000157942
0.000220526
0.000266201
0.000294129
0.000309216
0.000314582
0.000308788
0.000293096
0.000272841
0.000252952
0.000235866
0.00022215
0.000211401
0.000202945
0.000196063
0.000190396
0.000185511
0.000181257
0.0001774
0.00017389
0.000170596
0.000167491
0.000164489
0.000161597
0.000158766
0.000156006
0.000153305
0.000150657
0.000148056
0.000145498
0.00014298
0.000140491
0.000138029
0.000135589
0.000133165
0.000130756
0.000128352
0.00012595
0.000123544
0.00012113
0.000118704
0.000116264
0.000113806
0.00011133
0.000108835
0.000106324
0.000103795
0.000101252
9.87017e-05
9.61441e-05
9.35843e-05
9.10326e-05
8.84989e-05
8.59921e-05
8.35288e-05
8.11317e-05
7.88248e-05
7.664e-05
7.46229e-05
7.28318e-05
7.13625e-05
7.03761e-05
7.01417e-05
7.10248e-05
7.31935e-05
7.62906e-05
7.96263e-05
8.26648e-05
8.52179e-05
8.73238e-05
8.90618e-05
9.05757e-05
0.000151857
0.000225866
0.000283837
0.000322143
0.000345526
0.000357977
0.000357883
0.000345138
0.000324343
0.000301467
0.000280483
0.000262929
0.000248783
0.000237442
0.000228127
0.000220401
0.000213753
0.000207971
0.000202774
0.000198073
0.000193709
0.000189632
0.000185738
0.000182022
0.000178423
0.000174943
0.000171564
0.000168274
0.000165062
0.00016192
0.000158841
0.000155813
0.000152832
0.000149894
0.000146992
0.000144122
0.000141279
0.000138454
0.000135642
0.000132836
0.000130032
0.000127227
0.000124413
0.000121591
0.00011876
0.000115919
0.000113067
0.000110206
0.000107342
0.000104473
0.000101601
9.87346e-05
9.58815e-05
9.30468e-05
9.02436e-05
8.74903e-05
8.48086e-05
8.22286e-05
7.97961e-05
7.75762e-05
7.56711e-05
7.42467e-05
7.35919e-05
7.41606e-05
7.62686e-05
7.96254e-05
8.34342e-05
8.69849e-05
8.99829e-05
9.24445e-05
9.44594e-05
9.62198e-05
0.000140666
0.000225802
0.000297533
0.000347904
0.000381056
0.000401929
0.000409085
0.000401314
0.00038199
0.000357301
0.000332683
0.000311019
0.000292967
0.000278161
0.000265849
0.00025554
0.000246661
0.000238937
0.000232032
0.000225817
0.000220096
0.000214793
0.000209778
0.000205033
0.00020048
0.000196112
0.000191903
0.00018783
0.000183878
0.000180031
0.000176279
0.000172606
0.000169005
0.000165471
0.000161999
0.000158585
0.000155221
0.000151899
0.000148612
0.000145352
0.000142112
0.000138887
0.00013567
0.000132457
0.000129248
0.000126041
0.000122833
0.000119624
0.00011642
0.000113217
0.000110015
0.00010682
0.000103638
0.000100469
9.73223e-05
9.42103e-05
9.11499e-05
8.81661e-05
8.53012e-05
8.26236e-05
8.02407e-05
7.83152e-05
7.71358e-05
7.72303e-05
7.91059e-05
8.26115e-05
8.68755e-05
9.09789e-05
9.44764e-05
9.73405e-05
9.96657e-05
0.000101706
0.00012448
0.000219365
0.000305987
0.000370192
0.000414788
0.000445555
0.00046147
0.000460565
0.000444972
0.000420361
0.000393055
0.000367431
0.000345174
0.000326403
0.000310525
0.000297061
0.000285413
0.000275253
0.000266196
0.000258065
0.000250629
0.000243779
0.000237355
0.000231318
0.000225578
0.00022011
0.000214877
0.000209847
0.000204993
0.000200294
0.00019573
0.000191282
0.000186939
0.000182695
0.000178542
0.000174479
0.000170497
0.000166589
0.000162743
0.000158951
0.000155204
0.000151495
0.000147814
0.000144155
0.000140518
0.000136898
0.000133291
0.000129696
0.000126119
0.000122553
0.000118995
0.000115452
0.000111925
0.000108412
0.000104917
0.000101445
9.80071e-05
9.46197e-05
9.13168e-05
8.81657e-05
8.52784e-05
8.28093e-05
8.10196e-05
8.04742e-05
8.19122e-05
8.54058e-05
9.00728e-05
9.47602e-05
9.8816e-05
0.000102137
0.000104813
0.000107174
0.00010473
0.000206023
0.000307804
0.000387521
0.000445444
0.000487773
0.000514032
0.00052176
0.00051209
0.000489889
0.000461616
0.000432838
0.000406495
0.000383486
0.000363578
0.000346412
0.000331429
0.00031828
0.000306551
0.000296024
0.000286433
0.000277634
0.000269438
0.000261781
0.000254553
0.000247714
0.000241211
0.000235001
0.000229043
0.000223306
0.000217759
0.000212378
0.000207142
0.000202045
0.000197078
0.00019224
0.000187521
0.000182914
0.000178408
0.00017399
0.000169649
0.000165376
0.000161157
0.000156985
0.000152856
0.000148767
0.000144709
0.00014068
0.000136685
0.000132718
0.000128771
0.00012485
0.000120956
0.000117082
0.000113229
0.000109394
0.000105581
0.000101796
9.80597e-05
9.44319e-05
9.10296e-05
8.80014e-05
8.55546e-05
8.42243e-05
8.49896e-05
8.82618e-05
9.32406e-05
9.85294e-05
0.000103206
0.000107047
0.000110121
0.000112854
8.35819e-05
0.000186104
0.000301621
0.000398135
0.000471433
0.000527219
0.00056557
0.000583704
0.000581981
0.000564567
0.000537619
0.000507278
0.000477616
0.00045053
0.000426392
0.000405123
0.0003863
0.000369613
0.000354657
0.000341194
0.000328934
0.000317704
0.00030729
0.0002976
0.000288506
0.000279948
0.000271861
0.000264183
0.000256861
0.000249847
0.000243101
0.000236585
0.000230271
0.000224146
0.000218199
0.000212428
0.000206826
0.000201384
0.00019609
0.000190929
0.000185887
0.000180951
0.000176104
0.000171335
0.000166639
0.000162009
0.000157435
0.000152912
0.000148446
0.000144027
0.000139647
0.000135308
0.000131013
0.000126753
0.000122522
0.000118316
0.000114129
0.000109954
0.000105795
0.000101699
9.77822e-05
9.41984e-05
9.1092e-05
8.88802e-05
8.87368e-05
9.1548e-05
9.67146e-05
0.00010261
0.000107971
0.000112405
0.000115936
0.000119105
6.47435e-05
0.000160827
0.000286236
0.000400046
0.000490812
0.000562177
0.000614579
0.00064503
0.000653214
0.000642797
0.000619618
0.000589919
0.00055848
0.000528137
0.000500047
0.000474593
0.00045163
0.000430973
0.000412286
0.000395347
0.000379871
0.000365672
0.000352519
0.000340302
0.000328877
0.000318167
0.000308093
0.000298578
0.000289553
0.000280956
0.000272729
0.00026482
0.000257189
0.000249814
0.000242678
0.000235779
0.000229108
0.000222659
0.000216418
0.000210369
0.000204491
0.000198769
0.000193182
0.000187714
0.000182354
0.000177097
0.000171927
0.000166836
0.000161828
0.000156894
0.000152022
0.000147212
0.000142468
0.000137781
0.000133142
0.000128542
0.00012397
0.000119407
0.000114838
0.000110284
0.000105858
0.00010173
9.80035e-05
9.48887e-05
9.3654e-05
9.57836e-05
0.000101009
0.000107516
0.000113637
0.00011875
0.000122812
0.0001265
5.42632e-05
0.000132501
0.000260912
0.000391189
0.000501281
0.000590515
0.000659157
0.00070405
0.000724212
0.000722889
0.000705786
0.000679129
0.000648058
0.000616032
0.000584947
0.000555759
0.000528748
0.000503964
0.000481229
0.000460391
0.000441213
0.000423518
0.000407088
0.000391801
0.000377511
0.000364132
0.00035158
0.000339766
0.000328609
0.000318029
0.000307955
0.000298316
0.000289058
0.000280144
0.000271551
0.000263271
0.000255296
0.000247619
0.000240228
0.000233102
0.000226218
0.000219554
0.000213083
0.000206783
0.000200639
0.000194643
0.000188774
0.000183019
0.000177382
0.000171852
0.000166412
0.00016106
0.000155802
0.000150629
0.000145531
0.000140496
0.000135512
0.00013055
0.000125574
0.000120572
0.000115636
0.000110973
0.000106702
0.000102767
0.000100399
0.000101775
0.000107009
0.000114177
0.000121167
0.00012708
0.000131786
0.000136099
4.76388e-05
0.000104004
0.00022626
0.000369799
0.000500242
0.000609638
0.00069692
0.000758633
0.000793074
0.000803027
0.000794188
0.000772846
0.000744469
0.00071287
0.000680456
0.000648687
0.000618313
0.000589719
0.000562982
0.000538094
0.000514924
0.000493346
0.000473181
0.000454322
0.000436636
0.000420042
0.000404463
0.000389813
0.000376004
0.000362949
0.000350563
0.000338761
0.000327471
0.000316643
0.000306241
0.00029625
0.000286661
0.000277469
0.000268659
0.000260211
0.000252094
0.000244282
0.000236739
0.000229435
0.00022235
0.00021547
0.00020877
0.00020223
0.00019585
0.000189619
0.000183513
0.000177527
0.000171668
0.000165928
0.000160298
0.000154767
0.000149324
0.000143935
0.000138543
0.000133098
0.000127653
0.000122464
0.000117786
0.000113311
0.000110233
0.000111686
0.000117611
0.00012587
0.000134081
0.000141137
0.000146869
0.000151879
4.40907e-05
7.93118e-05
0.000185381
0.000335177
0.000485013
0.000616473
0.000724929
0.000806084
0.000857404
0.000881069
0.000882728
0.000868896
0.000845418
0.000816474
0.000784818
0.000752249
0.000719892
0.000688457
0.000658319
0.000629686
0.0006026
0.000577041
0.000552912
0.000530152
0.000508661
0.000488386
0.000469273
0.000451251
0.000434244
0.000418167
0.000402931
0.000388446
0.000374628
0.000361413
0.000348754
0.000336628
0.000325025
0.00031394
0.000303361
0.000293268
0.000283623
0.000274393
0.000265532
0.000257002
0.00024877
0.000240818
0.000233115
0.000225632
0.000218364
0.000211297
0.000204402
0.000197667
0.000191097
0.00018469
0.000178438
0.000172334
0.000166374
0.000160528
0.000154721
0.000148872
0.000142983
0.000137394
0.000132748
0.000128924
0.00012642
0.000127972
0.00013488
0.000144779
0.000154722
0.000163319
0.000170374
0.000176416
4.28238e-05
6.15423e-05
0.000143836
0.000288424
0.000453282
0.000607579
0.000739637
0.000843052
0.000914159
0.000954327
0.000969
0.000964979
0.000948512
0.000924326
0.000895542
0.000864228
0.000831766
0.00079909
0.000766821
0.000735377
0.000705001
0.000675829
0.000647896
0.000621226
0.000595791
0.00057159
0.000548611
0.000526819
0.000506162
0.000486574
0.000467978
0.000450286
0.000433414
0.000417292
0.000401868
0.000387115
0.000373024
0.000359596
0.000346825
0.000334694
0.000323164
0.00031219
0.000301716
0.000291691
0.000282071
0.000272826
0.000263921
0.000255315
0.000246997
0.000238947
0.000231133
0.000223535
0.000216158
0.000209005
0.000202078
0.000195384
0.000188942
0.000182739
0.000176717
0.000170806
0.000165004
0.000159577
0.000155019
0.000151393
0.000149056
0.000150615
0.000158811
0.000170938
0.00018316
0.000193715
0.0002024
0.000209809
4.33521e-05
5.28434e-05
0.000107302
0.000232628
0.00040388
0.000579468
0.000736926
0.000865444
0.000959523
0.00101938
0.00104999
0.00105837
0.0010512
0.00103384
0.00100992
0.000981851
0.000951267
0.000919268
0.000886636
0.000853926
0.00082154
0.000789752
0.000758743
0.000728646
0.000699549
0.000671533
0.000644663
0.000618965
0.000594436
0.000571046
0.000548743
0.000527459
0.000507119
0.000487658
0.000469028
0.000451205
0.000434189
0.000417996
0.000402638
0.000388109
0.000374372
0.000361374
0.000349047
0.000337325
0.000326144
0.000315465
0.000305245
0.000295436
0.000286007
0.000276937
0.000268189
0.00025973
0.000251553
0.000243655
0.000236025
0.000228652
0.000221548
0.000214708
0.000208095
0.000201662
0.000195421
0.000189599
0.00018469
0.000180888
0.000178489
0.000179862
0.000189529
0.00020447
0.000219429
0.000232287
0.000242861
4.39792e-05
4.8059e-05
7.89964e-05
0.000173756
0.000338148
0.000529372
0.000712322
0.000868402
0.000988785
0.00107189
0.00112186
0.00114566
0.00115047
0.0011422
0.00112515
0.00110224
0.0010754
0.00104596
0.00101485
0.000982712
0.000950052
0.000917225
0.000884507
0.000852107
0.000820229
0.000789048
0.000758724
0.000729375
0.000701082
0.000673881
0.000647775
0.000622735
0.000598714
0.000575669
0.000553564
0.00053239
0.000512166
0.000492931
0.000474723
0.000457554
0.000441391
0.000426166
0.000411788
0.000398161
0.000385192
0.000372816
0.000360982
0.00034963
0.000338717
0.000328227
0.000318126
0.000308373
0.000298955
0.000289873
0.000281108
0.000272639
0.000264468
0.000256602
0.000249012
0.000241661
0.000234561
0.000227917
0.000222303
0.000218066
0.000215422
0.000216198
0.000227181
0.000245577
0.000263821
0.000279383
0.000292149
4.42778e-05
4.55446e-05
6.10269e-05
0.000122821
0.000262054
0.0004568
0.000661653
0.000846455
0.000996286
0.00110648
0.0011797
0.00122252
0.00124244
0.00124599
0.00123814
0.00122238
0.00120113
0.00117602
0.00114818
0.00111841
0.00108728
0.00105521
0.00102252
0.000989471
0.000956316
0.000923277
0.000890584
0.000858436
0.000827006
0.000796421
0.000766767
0.000738089
0.000710399
0.000683696
0.000657978
0.000633263
0.000609593
0.000587032
0.000565643
0.000545458
0.00052645
0.000508543
0.00049163
0.000475602
0.000460346
0.000445782
0.000431856
0.0004185
0.000405658
0.000393313
0.000381436
0.000369976
0.00035891
0.000348246
0.000337962
0.000328022
0.000318422
0.000309178
0.00030027
0.000291657
0.00028335
0.000275532
0.000268909
0.000264
0.000260669
0.00026028
0.0002724
0.000295106
0.000316726
0.000334621
0.0003492
4.50119e-05
5.20391e-05
8.60126e-05
0.000185872
0.000365583
0.000582437
0.000794082
0.00097552
0.00111664
0.0012174
0.0012834
0.00132218
0.0013408
0.00134495
0.00133874
0.00132516
0.00130621
0.00128336
0.00125759
0.00122964
0.0012
0.00116908
0.00113716
0.0011045
0.00107134
0.00103793
0.0010045
0.000971253
0.000938388
0.00090606
0.000874392
0.00084347
0.000813362
0.000784123
0.000755814
0.000728517
0.000702331
0.00067736
0.000653674
0.000631281
0.000610126
0.000590109
0.00057112
0.000553037
0.000535768
0.000519254
0.000503421
0.000488195
0.000473559
0.000459485
0.000445911
0.000432799
0.000420162
0.000407982
0.000396206
0.000384821
0.000373855
0.000363293
0.000353091
0.000343253
0.000333935
0.000326016
0.000319887
0.000315405
0.000313311
0.000325959
0.000350543
0.000373843
0.000393358
0.000409403
4.50244e-05
4.7563e-05
6.36135e-05
0.000123826
0.000266432
0.000476637
0.000707179
0.000919679
0.00109475
0.00122749
0.00132137
0.00138342
0.00142104
0.00144056
0.00144682
0.00144338
0.00143276
0.00141679
0.00139675
0.00137359
0.00134796
0.00132036
0.00129116
0.00126065
0.00122909
0.00119673
0.0011638
0.00113051
0.00109706
0.00106364
0.00103039
0.000997443
0.000964903
0.000932869
0.000901443
0.00087075
0.000840936
0.000812166
0.000784591
0.000758309
0.000733338
0.000709629
0.000687097
0.000665622
0.000645103
0.000625475
0.000606659
0.000588563
0.000571161
0.000554434
0.000538306
0.000522719
0.000507695
0.000493222
0.000479226
0.00046568
0.000452625
0.000440058
0.000427925
0.00041622
0.000405073
0.000395342
0.000387466
0.000381341
0.000377052
0.000386934
0.000410889
0.000434591
0.000455063
0.000472237
4.50861e-05
4.6054e-05
5.28648e-05
8.36408e-05
0.000176823
0.000354752
0.000586168
0.000823168
0.00103271
0.0012012
0.00132789
0.00141824
0.00147953
0.00151856
0.00154085
0.00155064
0.00155099
0.00154421
0.00153192
0.00151534
0.00149535
0.00147261
0.00144759
0.0014207
0.00139223
0.00136246
0.00133165
0.00130001
0.00126775
0.00123504
0.00120204
0.00116887
0.00113564
0.00110243
0.00106933
0.00103646
0.00100395
0.000971966
0.000940718
0.000910424
0.000881267
0.000853349
0.000826691
0.000801229
0.000776873
0.00075356
0.000731212
0.000709715
0.000689028
0.000669143
0.000649975
0.000631438
0.000613558
0.000596341
0.000579694
0.000563564
0.000548009
0.000533048
0.000518606
0.000504667
0.000491342
0.000479239
0.000469057
0.000460731
0.000453912
0.000456968
0.000477502
0.000500143
0.000520664
0.000538378
4.51305e-05
4.55459e-05
4.82418e-05
6.19162e-05
0.000112432
0.000237225
0.000441092
0.000685114
0.000923534
0.00112908
0.00129295
0.00141696
0.00150725
0.0015707
0.0016134
0.00164022
0.00165486
0.00166013
0.00165809
0.00165029
0.00163788
0.00162173
0.00160249
0.00158068
0.0015567
0.00153091
0.0015036
0.00147503
0.00144544
0.00141501
0.0013839
0.00135224
0.00132014
0.00128766
0.00125488
0.00122185
0.00118866
0.00115539
0.00112216
0.00108913
0.00105652
0.00102456
0.000993535
0.000963604
0.000934824
0.00090721
0.000880723
0.000855235
0.000830686
0.000807085
0.00078434
0.000762326
0.000741067
0.0007206
0.000700815
0.00068162
0.000663088
0.000645274
0.000628086
0.000611483
0.000595601
0.000580724
0.000567601
0.000556421
0.000546738
0.000541755
0.000553396
0.000572733
0.00059194
0.000609232
4.51636e-05
4.53797e-05
4.6406e-05
5.19269e-05
7.51179e-05
0.000145935
0.000294784
0.000515357
0.000765319
0.00100287
0.00120572
0.00136818
0.00149318
0.0015867
0.00165501
0.0017035
0.00173652
0.00175743
0.00176878
0.00177252
0.00177012
0.00176271
0.00175116
0.00173616
0.00171824
0.00169787
0.00167542
0.00165124
0.0016256
0.00159873
0.00157084
0.00154208
0.00151257
0.00148239
0.0014516
0.00142026
0.0013884
0.00135606
0.00132328
0.00129012
0.00125667
0.00122303
0.00118937
0.00115588
0.00112284
0.00109061
0.00105944
0.00102933
0.00100028
0.000972336
0.000945411
0.000919328
0.000894106
0.000869827
0.000846364