/*--------------------------------*- C++ -*----------------------------------*\
| =========                 |                                                 |
| \\      /  F ield         | OpenFOAM: The Open Source CFD Toolbox           |
|  \\    /   O peration     | Version:  2412                                  |
|   \\  /    A nd           | Website:  www.openfoam.com                      |
|    \\/     M anipulation  |                                                 |
\*---------------------------------------------------------------------------*/
FoamFile
{
    version     2.0;
    format      ascii;
    arch        "LSB;label=32;scalar=64";
    class       surfaceScalarField;
    location    "60";
    object      phi;
}
// * * * * * * * * * * * * * * * * * * * * * * * * * * * * * * * * * * * * * //

dimensions      [0 3 -1 0 0 0 0];

oriented        oriented;

internalField   nonuniform List<scalar> 
14663
(
1.6805e-05
-2.08269e-06
1.65227e-05
4.87203e-07
1.45804e-05
2.1277e-06
1.17398e-05
2.63559e-06
8.71594e-06
3.02432e-06
6.7056e-06
2.01085e-06
5.48174e-06
1.22418e-06
4.46318e-06
1.01857e-06
3.68962e-06
7.73294e-07
3.24613e-06
4.43401e-07
3.05841e-06
1.87485e-07
3.03012e-06
2.80354e-08
3.08748e-06
-5.76483e-08
3.17854e-06
-9.12707e-08
3.27182e-06
-9.36811e-08
3.35265e-06
-8.06707e-08
3.41761e-06
-5.87934e-09
3.46652e-06
-1.07385e-07
3.50139e-06
1.06676e-08
3.52482e-06
-6.87035e-08
3.53866e-06
2.23999e-08
3.54436e-06
-4.22727e-08
3.54302e-06
2.87344e-08
3.53619e-06
-2.06869e-08
3.52476e-06
4.10235e-08
3.50961e-06
-1.44294e-08
3.49154e-06
4.38339e-08
3.47107e-06
-5.08044e-09
3.44838e-06
2.27634e-08
3.42393e-06
2.4433e-08
3.39815e-06
2.58392e-08
3.37134e-06
2.67823e-08
3.34391e-06
2.74676e-08
3.31623e-06
2.77043e-08
3.28862e-06
2.76936e-08
3.26148e-06
2.71507e-08
3.23498e-06
2.65558e-08
3.20948e-06
2.55404e-08
3.18508e-06
2.4488e-08
3.16223e-06
2.29117e-08
3.14099e-06
2.13503e-08
3.12139e-06
1.96428e-08
3.10367e-06
1.78156e-08
3.0878e-06
1.59383e-08
3.07383e-06
1.40933e-08
3.06182e-06
1.21355e-08
3.05169e-06
1.01921e-08
3.04341e-06
8.37776e-09
3.03678e-06
6.69387e-09
3.03188e-06
4.99808e-09
3.02845e-06
3.52225e-09
3.02646e-06
2.12117e-09
3.02579e-06
8.19769e-10
3.02645e-06
-4.73552e-10
3.02816e-06
-1.61881e-09
3.03091e-06
-2.62611e-09
3.03465e-06
-3.66619e-09
3.03927e-06
-4.51636e-09
3.04485e-06
-5.47849e-09
3.05131e-06
-6.32327e-09
3.05877e-06
-7.30092e-09
3.06731e-06
-8.33495e-09
3.07665e-06
-9.18862e-09
3.08687e-06
-1.00374e-08
3.09773e-06
-1.07502e-08
3.10901e-06
-1.12237e-08
3.12028e-06
-1.09007e-08
3.13143e-06
-1.10681e-08
3.14238e-06
-1.04501e-08
3.15277e-06
-9.57553e-09
3.16283e-06
-1.03295e-08
3.17233e-06
-8.66169e-09
3.18146e-06
-9.46821e-09
3.18896e-06
-8.55387e-09
3.19678e-06
-4.77645e-09
-1.13005e-08
5.72344e-05
-9.42108e-06
5.70606e-05
9.17107e-07
5.11363e-05
8.31631e-06
4.17491e-05
1.17506e-05
3.14098e-05
1.33645e-05
2.42216e-05
9.19984e-06
1.97744e-05
5.67195e-06
1.61237e-05
4.66927e-06
1.33313e-05
3.56517e-06
1.17066e-05
2.068e-06
1.10012e-05
8.92431e-07
1.0871e-05
1.57796e-07
1.10512e-05
-2.3834e-07
1.13557e-05
-3.96093e-07
1.16719e-05
-4.10545e-07
1.19466e-05
-3.55114e-07
1.21679e-05
-1.41599e-07
1.23342e-05
-3.58304e-07
1.24518e-05
-4.09373e-08
1.25297e-05
-2.12209e-07
1.25743e-05
3.02564e-08
1.25908e-05
-1.11886e-07
1.25826e-05
7.66041e-08
1.25553e-05
-3.32188e-08
1.2512e-05
1.27126e-07
1.2456e-05
-1.28417e-09
1.23892e-05
1.47968e-07
1.2314e-05
3.31563e-08
1.22306e-05
1.06265e-07
1.21414e-05
1.13644e-07
1.20474e-05
1.19855e-07
1.19497e-05
1.24498e-07
1.18495e-05
1.2775e-07
1.17483e-05
1.28912e-07
1.16474e-05
1.28764e-07
1.15476e-05
1.26916e-07
1.14505e-05
1.23791e-07
1.13565e-05
1.19606e-07
1.12666e-05
1.14548e-07
1.11818e-05
1.07799e-07
1.11028e-05
1.00595e-07
1.10296e-05
9.29159e-08
1.09628e-05
8.47336e-08
1.09031e-05
7.58221e-08
1.085e-05
6.73887e-08
1.0804e-05
5.83795e-08
1.07648e-05
4.94615e-08
1.07321e-05
4.12596e-08
1.07059e-05
3.29835e-08
1.06856e-05
2.55473e-08
1.06711e-05
1.81194e-08
1.06619e-05
1.16041e-08
1.06578e-05
5.20798e-09
1.06581e-05
-5.25981e-10
1.0663e-05
-6.33732e-09
1.06716e-05
-1.09913e-08
1.06837e-05
-1.55863e-08
1.06993e-05
-1.99394e-08
1.07186e-05
-2.46555e-08
1.07415e-05
-2.89279e-08
1.07678e-05
-3.33644e-08
1.07981e-05
-3.82445e-08
1.08323e-05
-4.31325e-08
1.08695e-05
-4.68745e-08
1.09091e-05
-5.01936e-08
1.0951e-05
-5.29886e-08
1.09936e-05
-5.28404e-08
1.10353e-05
-5.26452e-08
1.10757e-05
-5.00373e-08
1.11147e-05
-4.72846e-08
1.11517e-05
-4.77103e-08
1.11868e-05
-4.24152e-08
1.12203e-05
-4.34604e-08
1.12484e-05
-3.79406e-08
1.12771e-05
-2.87775e-08
-5.05197e-08
0.000110374
-2.43376e-05
0.000111427
1.33153e-07
0.000101263
1.87768e-05
8.37662e-05
2.89434e-05
6.37896e-05
3.3342e-05
4.93695e-05
2.36208e-05
4.02932e-05
1.47488e-05
3.29113e-05
1.20512e-05
2.72128e-05
9.26324e-06
2.38463e-05
5.43428e-06
2.23417e-05
2.39664e-06
2.20138e-05
4.85312e-07
2.23247e-05
-5.49786e-07
2.28967e-05
-9.6843e-07
2.3501e-05
-1.01557e-06
2.40301e-05
-8.83954e-07
2.44575e-05
-4.74511e-07
2.47773e-05
-7.71525e-07
2.50032e-05
-1.9423e-07
2.51516e-05
-4.32833e-07
2.52327e-05
6.91883e-09
2.52595e-05
-1.97126e-07
2.5238e-05
1.41641e-07
2.51777e-05
-1.66491e-08
2.50863e-05
2.65488e-07
2.49682e-05
6.97885e-08
2.48293e-05
3.27772e-07
2.46734e-05
1.48476e-07
2.45004e-05
2.79362e-07
2.43159e-05
2.98142e-07
2.41214e-05
3.14447e-07
2.39188e-05
3.27052e-07
2.37117e-05
3.34987e-07
2.35021e-05
3.38531e-07
2.32925e-05
3.38513e-07
2.30846e-05
3.34844e-07
2.28809e-05
3.27555e-07
2.26835e-05
3.1704e-07
2.24946e-05
3.03662e-07
2.23151e-05
2.87394e-07
2.21463e-05
2.69516e-07
2.19902e-05
2.49134e-07
2.18467e-05
2.28454e-07
2.17167e-05
2.05905e-07
2.16012e-05
1.83141e-07
2.14994e-05
1.60391e-07
2.14119e-05
1.37028e-07
2.13378e-05
1.15503e-07
2.12767e-05
9.42191e-08
2.12289e-05
7.35435e-08
2.11927e-05
5.44536e-08
2.1168e-05
3.65562e-08
2.11542e-05
1.92787e-08
2.11501e-05
3.89656e-09
2.11551e-05
-1.12246e-08
2.11691e-05
-2.47702e-08
2.11908e-05
-3.71189e-08
2.12206e-05
-4.95139e-08
2.12572e-05
-6.11157e-08
2.13021e-05
-7.36189e-08
2.13555e-05
-8.63798e-08
2.14169e-05
-9.93574e-08
2.14862e-05
-1.12096e-07
2.15632e-05
-1.23599e-07
2.16478e-05
-1.34624e-07
2.17369e-05
-1.41888e-07
2.18275e-05
-1.42849e-07
2.19171e-05
-1.42041e-07
2.20043e-05
-1.36415e-07
2.20875e-05
-1.29166e-07
2.21665e-05
-1.27024e-07
2.22409e-05
-1.15562e-07
2.23119e-05
-1.14912e-07
2.23723e-05
-9.98059e-08
2.24332e-05
-8.46159e-08
-1.28874e-07
0.000178132
-4.97377e-05
0.000182113
-3.37744e-06
0.000167923
3.31938e-05
0.000140905
5.57431e-05
0.000108792
6.54565e-05
8.4719e-05
4.76946e-05
6.92371e-05
3.02313e-05
5.67139e-05
2.45745e-05
4.69181e-05
1.90585e-05
4.10194e-05
1.13329e-05
3.82909e-05
5.12458e-06
3.75913e-05
1.18448e-06
3.80098e-05
-9.68893e-07
3.88976e-05
-1.85666e-06
3.98627e-05
-1.98146e-06
4.07153e-05
-1.73624e-06
4.14058e-05
-1.07867e-06
4.19243e-05
-1.37541e-06
4.22878e-05
-4.91201e-07
4.25239e-05
-7.35106e-07
4.26505e-05
-6.68798e-08
4.26847e-05
-2.84905e-07
4.2638e-05
2.28133e-07
4.25264e-05
5.48968e-08
4.23608e-05
4.73969e-07
4.21531e-05
2.34559e-07
4.19069e-05
6.11288e-07
4.16327e-05
3.85663e-07
4.13303e-05
5.81842e-07
4.10074e-05
6.21037e-07
4.06663e-05
6.55671e-07
4.03123e-05
6.80997e-07
3.99477e-05
6.99687e-07
3.95786e-05
7.07712e-07
3.92072e-05
7.10033e-07
3.88387e-05
7.03364e-07
3.84764e-05
6.90053e-07
3.81235e-05
6.70029e-07
3.77828e-05
6.44569e-07
3.74578e-05
6.1254e-07
3.7151e-05
5.76496e-07
3.68634e-05
5.36784e-07
3.65978e-05
4.94302e-07
3.63551e-05
4.48761e-07
3.61366e-05
4.01949e-07
3.59422e-05
3.55012e-07
3.57724e-05
3.06997e-07
3.56261e-05
2.61999e-07
3.55035e-05
2.16997e-07
3.54043e-05
1.72905e-07
3.53264e-05
1.32549e-07
3.52684e-05
9.48125e-08
3.5231e-05
5.70017e-08
3.52122e-05
2.31675e-08
3.52108e-05
-9.67147e-09
3.52247e-05
-3.83223e-08
3.52539e-05
-6.61683e-08
3.52978e-05
-9.31918e-08
3.53563e-05
-1.19416e-07
3.54293e-05
-1.46296e-07
3.55179e-05
-1.74594e-07
3.56219e-05
-2.02948e-07
3.5743e-05
-2.32852e-07
3.58795e-05
-2.59737e-07
3.6031e-05
-2.85854e-07
3.61933e-05
-3.0394e-07
3.6361e-05
-3.09956e-07
3.65274e-05
-3.08064e-07
3.66879e-05
-2.96094e-07
3.68419e-05
-2.81754e-07
3.69867e-05
-2.72095e-07
3.7124e-05
-2.51441e-07
3.72532e-05
-2.44528e-07
3.7363e-05
-2.107e-07
3.74728e-05
-1.89378e-07
-2.66458e-07
0.000261116
-8.72894e-05
0.000269697
-1.20672e-05
0.000252204
5.08744e-05
0.000215
9.27761e-05
0.000168832
0.000111625
0.00013284
8.36872e-05
0.00010902
5.40522e-05
8.97281e-05
4.38664e-05
7.4413e-05
3.43731e-05
6.49603e-05
2.07854e-05
6.04094e-05
9.6751e-06
5.90566e-05
2.53677e-06
5.95058e-05
-1.41871e-06
6.07398e-05
-3.09107e-06
6.21315e-05
-3.37394e-06
6.33798e-05
-2.98422e-06
6.43981e-05
-2.01011e-06
6.51624e-05
-2.2255e-06
6.56981e-05
-9.60323e-07
6.60404e-05
-1.14373e-06
6.62165e-05
-1.90164e-07
6.62522e-05
-3.74117e-07
6.6165e-05
3.5484e-07
6.59786e-05
2.01336e-07
6.5708e-05
7.8727e-07
6.53699e-05
5.29829e-07
6.49737e-05
1.04472e-06
6.45313e-05
7.91124e-07
6.40438e-05
1.06943e-06
6.3524e-05
1.14089e-06
6.29748e-05
1.20494e-06
6.24021e-05
1.25366e-06
6.18129e-05
1.2889e-06
6.12129e-05
1.30775e-06
6.06096e-05
1.31355e-06
6.00064e-05
1.30655e-06
5.94095e-05
1.28711e-06
5.8826e-05
1.25357e-06
5.82593e-05
1.21147e-06
5.77149e-05
1.1571e-06
5.7196e-05
1.09561e-06
5.67072e-05
1.02565e-06
5.62498e-05
9.51898e-07
5.5828e-05
8.70739e-07
5.54428e-05
7.8737e-07
5.50968e-05
7.01271e-07
5.47896e-05
6.14363e-07
5.45208e-05
5.30959e-07
5.42898e-05
4.48142e-07
5.40965e-05
3.66399e-07
5.39407e-05
2.88507e-07
5.38187e-05
2.17084e-07
5.37304e-05
1.45645e-07
5.36754e-05
7.85499e-08
5.36485e-05
1.74121e-08
5.36498e-05
-3.92851e-08
5.36789e-05
-9.51155e-08
5.37342e-05
-1.4827e-07
5.38146e-05
-1.99625e-07
5.39201e-05
-2.51487e-07
5.4054e-05
-3.08138e-07
5.42172e-05
-3.65743e-07
5.44093e-05
-4.24645e-07
5.46313e-05
-4.81376e-07
5.48832e-05
-5.37525e-07
5.51605e-05
-5.81034e-07
5.54486e-05
-5.97361e-07
5.57365e-05
-5.95701e-07
5.60142e-05
-5.72933e-07
5.62792e-05
-5.45501e-07
5.65289e-05
-5.22036e-07
5.67624e-05
-4.83653e-07
5.69823e-05
-4.64738e-07
5.71718e-05
-4.01392e-07
5.73562e-05
-3.68637e-07
-4.88045e-07
0.000358658
-0.000140952
0.00037206
-2.4482e-05
0.000350774
7.23871e-05
0.000303304
0.000140032
0.000243334
0.000171596
0.000194713
0.000132309
0.000161203
8.75635e-05
0.000133723
7.13456e-05
0.000111635
5.64611e-05
9.75694e-05
3.48508e-05
9.04909e-05
1.6753e-05
8.81025e-05
4.92467e-06
8.84387e-05
-1.75559e-06
9.00089e-05
-4.66169e-06
9.18735e-05
-5.23941e-06
9.35794e-05
-4.68977e-06
9.49815e-05
-3.33171e-06
9.60393e-05
-3.3628e-06
9.67768e-05
-1.63597e-06
9.72472e-05
-1.67568e-06
9.74782e-05
-3.72207e-07
9.75083e-05
-4.54135e-07
9.73622e-05
5.37707e-07
9.70699e-05
4.56536e-07
9.66569e-05
1.23997e-06
9.61412e-05
1.00561e-06
9.55418e-05
1.67868e-06
9.48712e-05
1.42736e-06
9.4135e-05
1.80582e-06
9.3347e-05
1.9288e-06
9.25144e-05
2.03775e-06
9.16445e-05
2.12349e-06
9.07477e-05
2.18581e-06
8.98303e-05
2.22522e-06
8.89015e-05
2.24249e-06
8.79704e-05
2.23776e-06
8.70456e-05
2.21206e-06
8.61322e-05
2.16705e-06
8.52406e-05
2.10329e-06
8.43764e-05
2.0215e-06
8.3547e-05
1.92522e-06
8.27575e-05
1.81529e-06
8.20134e-05
1.69623e-06
8.13173e-05
1.56699e-06
8.06763e-05
1.42875e-06
8.00911e-05
1.28679e-06
7.95629e-05
1.14276e-06
7.90931e-05
1.00093e-06
7.86811e-05
8.60398e-07
7.833e-05
7.17752e-07
7.80341e-05
5.84577e-07
7.7795e-05
4.56535e-07
7.761e-05
3.3105e-07
7.74771e-05
2.11937e-07
7.73946e-05
1.00137e-07
7.73591e-05
-3.42651e-09
7.73675e-05
-1.03253e-07
7.74194e-05
-1.99939e-07
7.75162e-05
-2.961e-07
7.76565e-05
-3.9146e-07
7.7843e-05
-4.94205e-07
7.80786e-05
-6.00829e-07
7.83666e-05
-7.12189e-07
7.871e-05
-8.24349e-07
7.91096e-05
-9.36808e-07
7.95562e-05
-1.02727e-06
8.00294e-05
-1.0698e-06
8.05062e-05
-1.07206e-06
8.09686e-05
-1.03444e-06
8.14047e-05
-9.80155e-07
8.18154e-05
-9.3279e-07
8.21957e-05
-8.62585e-07
8.25539e-05
-8.232e-07
8.28632e-05
-7.11467e-07
8.3159e-05
-6.59034e-07
-8.31805e-07
0.000470158
-0.000208951
0.000487339
-4.04421e-05
0.000459481
0.00010022
0.000399685
0.000199906
0.00032679
0.000244491
0.000267205
0.000191894
0.000224565
0.000130204
0.000188679
0.000107232
0.000159443
8.5697e-05
0.00014015
5.41436e-05
0.000130012
2.68903e-05
0.000126253
8.68349e-06
0.000126307
-1.81018e-06
0.000128154
-6.50911e-06
0.000130501
-7.58713e-06
0.000132697
-6.88579e-06
0.000134522
-5.0847e-06
0.000135905
-4.81676e-06
0.000136874
-2.55061e-06
0.000137481
-2.33677e-06
0.000137773
-6.21152e-07
0.000137795
-5.20101e-07
0.000137577
7.87917e-07
0.000137158
8.42756e-07
0.00013657
1.86343e-06
0.00013584
1.69988e-06
0.000134987
2.56246e-06
0.000134036
2.34766e-06
0.000132989
2.85277e-06
0.000131867
3.05113e-06
0.000130678
3.22663e-06
0.000129435
3.36696e-06
0.000128146
3.47479e-06
0.000126822
3.54892e-06
0.000125477
3.58757e-06
0.000124119
3.59573e-06
0.000122761
3.57036e-06
0.000121414
3.51447e-06
0.000120087
3.43021e-06
0.000118792
3.31687e-06
0.000117536
3.18112e-06
0.00011633
3.02192e-06
0.00011518
2.84613e-06
0.000114096
2.65092e-06
0.000113082
2.44353e-06
0.000112143
2.22519e-06
0.000111286
1.99999e-06
0.000110512
1.77591e-06
0.00010982
1.55208e-06
0.000109215
1.32315e-06
0.000108696
1.1039e-06
0.000108258
8.94721e-07
0.000107906
6.83492e-07
0.000107634
4.8393e-07
0.00010744
2.94361e-07
0.000107322
1.1504e-07
0.000107276
-5.70156e-08
0.000107301
-2.24405e-07
0.000107395
-3.90155e-07
0.000107561
-5.57344e-07
0.000107802
-7.34712e-07
0.000108126
-9.23819e-07
0.000108533
-1.11917e-06
0.000109034
-1.32546e-06
0.000109639
-1.54138e-06
0.000110332
-1.71994e-06
0.00011108
-1.81646e-06
0.000111837
-1.82941e-06
0.000112573
-1.76917e-06
0.000113267
-1.67295e-06
0.000113913
-1.57911e-06
0.000114512
-1.46006e-06
0.00011507
-1.38121e-06
0.000115555
-1.19787e-06
0.00011601
-1.10904e-06
-1.34243e-06
0.000596262
-0.00029493
0.000616287
-5.89451e-05
0.000578792
0.000138241
0.000502831
0.000275338
0.000415181
0.000332142
0.000345029
0.000262047
0.000294839
0.000180394
0.00025202
0.00015005
0.000216486
0.000121231
0.000192287
7.83424e-05
0.000179128
4.00489e-05
0.000173971
1.38402e-05
0.000173677
-1.51696e-06
0.00017575
-8.58317e-06
0.000178558
-1.03959e-05
0.000181251
-9.57772e-06
0.000183514
-7.2852e-06
0.000185243
-6.60795e-06
0.000186461
-3.72063e-06
0.000187232
-3.15594e-06
0.000187602
-9.52327e-07
0.000187627
-5.84184e-07
0.000187345
1.09868e-06
0.000186803
1.35539e-06
0.000186041
2.6565e-06
0.000185089
2.62066e-06
0.000183975
3.70306e-06
0.000182725
3.5705e-06
0.000181344
4.23406e-06
0.000179862
4.53344e-06
0.000178284
4.80464e-06
0.000176625
5.02597e-06
0.000174897
5.20229e-06
0.000173118
5.32797e-06
0.000171296
5.41052e-06
0.000169448
5.44368e-06
0.000167586
5.43205e-06
0.000165724
5.37624e-06
0.000163878
5.27678e-06
0.00016206
5.1351e-06
0.000160282
4.95944e-06
0.000158557
4.74733e-06
0.000156898
4.50511e-06
0.000155312
4.23698e-06
0.000153813
3.94306e-06
0.000152409
3.62902e-06
0.000151106
3.30367e-06
0.000149909
2.97331e-06
0.000148824
2.6371e-06
0.000147857
2.29036e-06
0.000147006
1.95535e-06
0.000146275
1.62655e-06
0.000145661
1.29766e-06
0.000145167
9.78776e-07
0.000144789
6.71894e-07
0.000144522
3.82846e-07
0.000144365
1.00242e-07
0.000144319
-1.77815e-07
0.00014438
-4.51324e-07
0.00014455
-7.26971e-07
0.000144837
-1.02158e-06
0.00014525
-1.33538e-06
0.000145797
-1.66598e-06
0.0001465
-2.02765e-06
0.00014737
-2.41095e-06
0.000148395
-2.74461e-06
0.000149521
-2.9415e-06
0.000150675
-2.98362e-06
0.000151799
-2.89153e-06
0.000152853
-2.72536e-06
0.000153828
-2.55399e-06
0.000154726
-2.35717e-06
0.000155557
-2.21269e-06
0.000156279
-1.92006e-06
0.00015695
-1.77483e-06
-2.07186e-06
0.000738707
0.000761587
-8.02615e-05
0.000712211
0.000187848
0.00061626
0.000371103
0.00051037
0.000438033
0.000427407
0.00034501
0.00036931
0.000238491
0.000320349
0.000199011
0.000279536
0.000162045
0.000251459
0.000106419
0.000235979
5.55283e-05
0.000229811
2.00077e-05
0.000229359
-1.06492e-06
0.000231744
-1.09689e-05
0.000235066
-1.37177e-05
0.000238294
-1.28061e-05
0.000241036
-9.98454e-06
0.000243156
-8.77041e-06
0.000244672
-5.20365e-06
0.000245649
-4.16577e-06
0.000246152
-1.42886e-06
0.000246237
-6.96728e-07
0.00024595
1.4058e-06
0.000245346
1.93927e-06
0.00024447
3.55376e-06
0.000243356
3.71253e-06
0.000242037
5.04146e-06
0.00024054
5.04838e-06
0.000238879
5.89477e-06
0.000237077
6.33598e-06
0.00023515
6.73109e-06
0.000233112
7.06424e-06
0.000230978
7.33636e-06
0.000228763
7.54248e-06
0.000226488
7.68632e-06
0.00022416
7.77177e-06
0.000221799
7.79245e-06
0.000219424
7.75139e-06
0.000217048
7.65311e-06
0.00021469
7.49342e-06
0.000212364
7.28536e-06
0.000210084
7.02797e-06
0.000207866
6.72258e-06
0.000205725
6.3779e-06
0.000203678
5.99078e-06
0.000201732
5.57538e-06
0.000199905
5.13033e-06
0.000198201
4.67763e-06
0.00019663
4.20808e-06
0.000195204
3.71689e-06
0.000193925
3.23445e-06
0.000192799
2.75323e-06
0.00019183
2.26671e-06
0.000191022
1.78736e-06
0.00019037
1.32421e-06
0.000189877
8.76366e-07
0.00018954
4.37002e-07
0.000189361
2.02771e-09
0.000189339
-4.29835e-07
0.000189477
-8.64237e-07
0.000189788
-1.33214e-06
0.00019028
-1.82717e-06
0.000190976
-2.36093e-06
0.000191905
-2.95613e-06
0.000193097
-3.60354e-06
0.000194539
-4.18536e-06
0.000196156
-4.55782e-06
0.000197835
-4.66244e-06
0.000199467
-4.52283e-06
0.000200993
-4.25004e-06
0.000202392
-3.95351e-06
0.000203669
-3.63266e-06
0.00020484
-3.38372e-06
0.000205865
-2.94557e-06
0.000206801
-2.70663e-06
-3.06725e-06
0.000926721
0.000864122
0.000251057
0.000744678
0.000489943
0.00061663
0.000566081
0.000517527
0.000444113
0.000449377
0.000306641
0.000393146
0.000255242
0.00034673
0.000208461
0.000315144
0.000138005
0.000297959
7.27126e-05
0.000291306
2.66601e-05
0.000291099
-8.57735e-07
0.000294093
-1.39632e-05
0.000298137
-1.77627e-05
0.000302063
-1.67316e-05
0.000305413
-1.32967e-05
0.000308043
-1.14379e-05
0.00030997
-7.10123e-06
0.000311271
-5.49717e-06
0.000312014
-2.14732e-06
0.000312274
-9.81863e-07
0.000312098
1.60014e-06
0.000311548
2.4703e-06
0.000310672
4.44974e-06
0.000309517
4.84778e-06
0.000308105
6.47023e-06
0.000306483
6.65259e-06
0.000304651
7.72769e-06
0.000302642
8.34419e-06
0.000300474
8.90012e-06
0.00029816
9.37748e-06
0.000295718
9.77911e-06
0.00029317
1.00904e-05
0.000290528
1.03283e-05
0.000287814
1.04859e-05
0.000285045
1.05612e-05
0.000282238
1.05591e-05
0.000279412
1.04784e-05
0.000276583
1.03231e-05
0.000273769
1.00991e-05
0.000270992
9.80557e-06
0.000268262
9.4525e-06
0.0002656
9.04055e-06
0.000263022
8.56853e-06
0.000260548
8.05037e-06
0.000258189
7.48945e-06
0.000255959
6.90724e-06
0.000253871
6.29691e-06
0.000251943
5.64528e-06
0.000250183
4.99434e-06
0.000248596
4.34097e-06
0.000247201
3.66237e-06
0.000246
2.98839e-06
0.000245001
2.32406e-06
0.000244203
1.67409e-06
0.000243611
1.02987e-06
0.000243231
3.82352e-07
0.000243065
-2.63981e-07
0.000243121
-9.19292e-07
0.000243413
-1.62421e-06
0.000243962
-2.37548e-06
0.000244795
-3.19329e-06
0.000245962
-4.12258e-06
0.000247516
-5.15647e-06
0.000249447
-6.11586e-06
0.000251657
-6.76737e-06
0.000253973
-6.9777e-06
0.000256229
-6.77804e-06
0.000258326
-6.34595e-06
0.000260229
-5.85625e-06
0.000261953
-5.35488e-06
0.000263522
-4.95262e-06
0.000264884
-4.30769e-06
0.000266142
-3.95936e-06
-4.35828e-06
0.00103928
0.000893035
0.000635782
0.000738507
0.000720609
0.000619499
0.000563122
0.000538459
0.000387681
0.000472855
0.000320846
0.000419374
0.000261942
0.000383508
0.000173871
0.000364454
9.17667e-05
0.000357487
3.36266e-05
0.000357828
-1.19899e-06
0.00036175
-1.78854e-05
0.000366801
-2.28137e-05
0.000371664
-2.15943e-05
0.000375835
-1.74482e-05
0.000379158
-1.47814e-05
0.000381665
-9.59159e-06
0.000383446
-7.29432e-06
0.000384585
-3.2741e-06
0.000385159
-1.56958e-06
0.000385236
1.53296e-06
0.000384879
2.81687e-06
0.000384143
5.19693e-06
0.000383075
5.90429e-06
0.000381713
7.8426e-06
0.000380088
8.26705e-06
0.000378214
9.60212e-06
0.000376122
1.04358e-05
0.000373831
1.11915e-05
0.00037136
1.18485e-05
0.00036873
1.24087e-05
0.00036596
1.2861e-05
0.000363074
1.32142e-05
0.000360088
1.34712e-05
0.000357023
1.36263e-05
0.000353901
1.36811e-05
0.000350738
1.36417e-05
0.000347556
1.35057e-05
0.00034437
1.3285e-05
0.0003412
1.29753e-05
0.000338064
1.25887e-05
0.00033498
1.21252e-05
0.000331964
1.15841e-05
0.000329039
1.09762e-05
0.000326218
1.03104e-05
0.000323516
9.6088e-06
0.000320952
8.86093e-06
0.000318544
8.05336e-06
0.00031631
7.22898e-06
0.00031426
6.39164e-06
0.000312412
5.51043e-06
0.000310782
4.61874e-06
0.000309386
3.71984e-06
0.000308225
2.83604e-06
0.000307312
1.94228e-06
0.000306668
1.02753e-06
0.000306296
1.07755e-07
0.000306211
-8.33608e-07
0.000306433
-1.84632e-06
0.000306994
-2.93542e-06
0.000307937
-4.13601e-06
0.000309332
-5.5172e-06
0.000311259
-7.08352e-06
0.000313727
-8.58347e-06
0.000316606
-9.64514e-06
0.000319661
-1.00326e-05
0.000322638
-9.75362e-06
0.000325387
-9.09474e-06
0.00032786
-8.32933e-06
0.000330075
-7.56849e-06
0.00033207
-6.94742e-06
0.000333794
-6.03236e-06
0.000335405
-5.56614e-06
-5.96915e-06
0.00106669
0.000810828
0.000880804
0.000906491
0.000737511
0.000706415
0.000640339
0.000484853
0.00056288
0.000398306
0.000500375
0.000324447
0.000458829
0.000215417
0.000437119
0.000113477
0.000429554
4.11906e-05
0.000430466
-2.11064e-06
0.000435476
-2.28954e-05
0.00044174
-2.90788e-05
0.000447753
-2.76067e-05
0.000452949
-2.26217e-05
0.000457155
-1.90098e-05
0.000460416
-1.28354e-05
0.000462834
-9.7307e-06
0.000464518
-4.94371e-06
0.000465558
-2.62468e-06
0.000466018
1.08395e-06
0.000465978
2.84555e-06
0.000465505
5.68258e-06
0.000464644
6.75221e-06
0.000463435
9.06266e-06
0.000461916
9.7745e-06
0.000460106
1.14131e-05
0.000458032
1.25091e-05
0.000455714
1.35104e-05
0.000453178
1.43845e-05
0.000450447
1.51389e-05
0.000447548
1.57606e-05
0.000444504
1.62585e-05
0.000441338
1.66371e-05
0.000438074
1.68907e-05
0.00043473
1.70252e-05
0.000431328
1.7044e-05
0.000427889
1.69443e-05
0.000424434
1.67399e-05
0.000420976
1.64334e-05
0.000417539
1.60264e-05
0.000414138
1.5526e-05
0.000410789
1.49338e-05
0.000407513
1.4252e-05
0.00040433
1.34942e-05
0.000401248
1.26904e-05
0.000398286
1.18234e-05
0.000395474
1.08655e-05
0.00039282
9.88325e-06
0.000390341
8.87174e-06
0.000388065
7.78611e-06
0.000386015
6.66943e-06
0.000384204
5.53085e-06
0.000382656
4.38462e-06
0.000381388
3.21051e-06
0.000380425
1.99113e-06
0.000379789
7.43949e-07
0.0003795
-5.43804e-07
0.000379597
-1.94287e-06
0.000380117
-3.4549e-06
0.000381123
-5.14062e-06
0.00038271
-7.10384e-06
0.000384999
-9.37191e-06
0.000388018
-1.16017e-05
0.000391627
-1.3254e-05
0.0003955
-1.39045e-05
0.000399287
-1.35394e-05
0.000402756
-1.25627e-05
0.00040585
-1.14237e-05
0.000408584
-1.03005e-05
0.000411026
-9.38992e-06
0.000413126
-8.13217e-06
0.000415131
-7.56708e-06
-7.91269e-06
0.00127159
0.00101785
0.00104882
0.00112926
0.000876102
0.000879132
0.000758995
0.000601959
0.000666811
0.00049049
0.000592972
0.000398285
0.000543988
0.000264401
0.000518494
0.000138972
0.000509743
4.99407e-05
0.000510997
-3.36433e-06
0.000517084
-2.89823e-05
0.000524657
-3.6652e-05
0.000531965
-3.49143e-05
0.000538339
-2.89868e-05
0.000543586
-2.4266e-05
0.000547745
-1.6988e-05
0.000550953
-1.29456e-05
0.000553306
-7.29094e-06
0.000554921
-4.24656e-06
0.00055588
1.29188e-07
0.000556267
2.45427e-06
0.000556148
5.80608e-06
0.000555586
7.30919e-06
0.000554621
1.0032e-05
0.000553293
1.10975e-05
0.000551615
1.30918e-05
0.000549624
1.44993e-05
0.000547345
1.57893e-05
0.000544809
1.69213e-05
0.000542036
1.79114e-05
0.000539063
1.87335e-05
0.000535917
1.9405e-05
0.000532623
1.99307e-05
0.000529207
2.03068e-05
0.000525697
2.05351e-05
0.000522115
2.06262e-05
0.00051848
2.05796e-05
0.000514811
2.04087e-05
0.000511133
2.01112e-05
0.000507462
1.96979e-05
0.000503815
1.91729e-05
0.000500213
1.85365e-05
0.000496666
1.7799e-05
0.000493197
1.69634e-05
0.000489818
1.6069e-05
0.000486541
1.51011e-05
0.000483391
1.4015e-05
0.000480387
1.28875e-05
0.000477544
1.17149e-05
0.000474887
1.04433e-05
0.000472446
9.11119e-06
0.000470245
7.73157e-06
0.000468307
6.32318e-06
0.000466661
4.85632e-06
0.000465351
3.30161e-06
0.000464402
1.69341e-06
0.000463856
1.9374e-09
0.000463761
-1.84657e-06
0.000464177
-3.87049e-06
0.000465185
-6.14812e-06
0.00046691
-8.829e-06
0.000469522
-1.19829e-05
0.000473093
-1.5173e-05
0.00047747
-1.763e-05
0.000482245
-1.8679e-05
0.000486923
-1.82167e-05
0.000491195
-1.68343e-05
0.000494957
-1.5185e-05
0.000498253
-1.35957e-05
0.000501166
-1.23033e-05
0.000503656
-1.06216e-05
0.000506101
-1.00092e-05
0.00151444
0.00125772
0.00124868
0.00139502
0.00104042
0.00108739
0.000898816
0.000743566
0.000788509
0.000600798
0.000700592
0.000486202
0.000642061
0.000322932
0.00061135
0.000169683
0.000600574
6.07165e-05
0.000601755
-4.54552e-06
0.000608763
-3.59902e-05
0.000617645
-4.55349e-05
0.000626314
-4.35832e-05
0.000633969
-3.66268e-05
0.000640368
-3.06799e-05
0.000645549
-2.2157e-05
0.000649643
-1.70523e-05
0.000652779
-1.04174e-05
0.000655075
-6.55294e-06
0.000656623
-1.41091e-06
0.000657517
1.5525e-06
0.000657839
5.49202e-06
0.000657649
7.49102e-06
0.00065699
1.06983e-05
0.000655907
1.21724e-05
0.00065442
1.45795e-05
0.000652564
1.63543e-05
0.00065037
1.79835e-05
0.000647865
1.94268e-05
0.000645084
2.06927e-05
0.000642065
2.17523e-05
0.00063884
2.26297e-05
0.000635438
2.33329e-05
0.000631895
2.38502e-05
0.000628237
2.41927e-05
0.000624487
2.43766e-05
0.000620673
2.43941e-05
0.00061682
2.42612e-05
0.000612945
2.39863e-05
0.000609067
2.35769e-05
0.000605204
2.30359e-05
0.000601375
2.23657e-05
0.000597598
2.15756e-05
0.00059389
2.06718e-05
0.000590255
1.97043e-05
0.000586712
1.86442e-05
0.000583282
1.7445e-05
0.000579983
1.61868e-05
0.000576822
1.4877e-05
0.000573831
1.34344e-05
0.000571038
1.1905e-05
0.000568472
1.02973e-05
0.00056616
8.63546e-06
0.000564137
6.87976e-06
0.000562453
4.98655e-06
0.000561163
2.98333e-06
0.000560306
8.59154e-07
0.000559959
-1.49888e-06
0.000560201
-4.1113e-06
0.000561133
-7.07944e-06
0.000562931
-1.06268e-05
0.000565807
-1.48584e-05
0.000569907
-1.92725e-05
0.000575087
-2.28085e-05
0.000580845
-2.44369e-05
0.000586538
-2.39081e-05
0.000591706
-2.20009e-05
0.000596221
-1.97003e-05
0.000600134
-1.75072e-05
0.000603557
-1.57261e-05
0.000606468
-1.35329e-05
-1.28909e-05
0.00180261
0.00152801
0.00148755
0.00171008
0.00123655
0.00133839
0.00106491
0.00091521
0.000932349
0.000733357
0.000827032
0.000591519
0.000756362
0.000393602
0.000718647
0.000207397
0.000704745
7.46185e-05
0.000705243
-5.04314e-06
0.000712878
-4.36252e-05
0.000722957
-5.56138e-05
0.000732991
-5.3617e-05
0.000741979
-4.56108e-05
0.000749605
-3.83112e-05
0.000755887
-2.84354e-05
0.00076096
-2.21287e-05
0.000764956
-1.44108e-05
0.000768015
-9.61482e-06
0.000770225
-3.61958e-06
0.000771699
7.64257e-08
0.000772517
4.67683e-06
0.000772751
7.25405e-06
0.000772452
1.09992e-05
0.000771668
1.29536e-05
0.000770407
1.58412e-05
0.000768721
1.80396e-05
0.000766636
2.00685e-05
0.000764188
2.18753e-05
0.000761414
2.3467e-05
0.000758355
2.48105e-05
0.000755057
2.59283e-05
0.000751551
2.6839e-05
0.000747875
2.75261e-05
0.000744061
2.80065e-05
0.00074014
2.82977e-05
0.00073614
2.83939e-05
0.000732086
2.83156e-05
0.000728004
2.80687e-05
0.000723909
2.76715e-05
0.000719824
2.71207e-05
0.000715768
2.64225e-05
0.00071176
2.55837e-05
0.00070781
2.46213e-05
0.000703929
2.35851e-05
0.000700132
2.24419e-05
0.00069644
2.11373e-05
0.000692861
1.97657e-05
0.000689412
1.8326e-05
0.000686112
1.67348e-05
0.000682993
1.5024e-05
0.000680083
1.32073e-05
0.00067741
1.13093e-05
0.00067501
9.2795e-06
0.00067295
7.04714e-06
0.00067128
4.65308e-06
0.000670073
2.06709e-06
0.000669411
-8.36531e-07
0.000669399
-4.09908e-06
0.000670176
-7.856e-06
0.000671951
-1.2401e-05
0.000675018
-1.79255e-05
0.000679607
-2.38609e-05
0.000685624
-2.8825e-05
0.000692477
-3.12893e-05
0.000699319
-3.07496e-05
0.000705537
-2.82178e-05
0.00071092
-2.50837e-05
0.00071553
-2.21161e-05
0.000719531
-1.97268e-05
0.000722914
-1.69159e-05
-1.62728e-05
0.00214384
0.00182007
0.00177379
0.00208013
0.0014718
0.00164039
0.00126337
0.00112363
0.00110352
0.000893207
0.000976749
0.000718294
0.000890713
0.000479638
0.000843708
0.000254402
0.000825224
9.3103e-05
0.00082419
-4.00927e-06
0.000831998
-5.14337e-05
0.000843061
-6.66768e-05
0.000854372
-6.49286e-05
0.000864674
-5.59013e-05
0.000873557
-4.72056e-05
0.000880984
-3.5853e-05
0.000887086
-2.824e-05
0.000892004
-1.93211e-05
0.000895871
-1.34908e-05
0.000898798
-6.54031e-06
0.000900899
-2.03082e-06
0.000902262
3.32011e-06
0.000902968
6.54129e-06
0.000903066
1.09075e-05
0.000902604
1.34092e-05
0.000901605
1.68402e-05
0.000900109
1.95354e-05
0.000898153
2.20244e-05
0.00089577
2.42587e-05
0.000893011
2.6226e-05
0.000889912
2.79096e-05
0.000886529
2.93109e-05
0.000882901
3.04677e-05
0.000879072
3.13548e-05
0.000875079
3.19994e-05
0.000870955
3.24219e-05
0.000866737
3.26127e-05
0.00086245
3.2602e-05
0.000858122
3.23977e-05
0.000853776
3.20171e-05
0.000849435
3.14621e-05
0.000845116
3.07421e-05
0.000840838
2.98614e-05
0.000836621
2.88386e-05
0.000832471
2.77354e-05
0.000828396
2.65167e-05
0.00082442
2.51136e-05
0.000820558
2.36278e-05
0.000816806
2.20788e-05
0.000813194
2.03466e-05
0.000809752
1.84666e-05
0.000806499
1.64608e-05
0.000803467
1.43416e-05
0.000800692
1.20547e-05
0.000798235
9.50452e-06
0.000796169
6.71916e-06
0.000794562
3.67475e-06
0.000793526
2.00034e-07
0.000793191
-3.76328e-06
0.000793717
-8.38095e-06
0.000795369
-1.4053e-05
0.000798524
-2.10799e-05
0.000803539
-2.88753e-05
0.000810415
-3.57001e-05
0.000818487
-3.93605e-05
0.000826677
-3.89383e-05
0.000834132
-3.56718e-05
0.000840538
-3.14892e-05
0.000845977
-2.75546e-05
0.000850646
-2.43953e-05
0.000854579
-2.08486e-05
-2.01392e-05
0.00254525
0.00211574
0.0021169
0.00250848
0.00175494
0.00200234
0.00150165
0.00137693
0.00130833
0.00108652
0.00115513
0.000871492
0.00104971
0.000585064
0.000990457
0.000313652
0.00096546
0.0001181
0.000961714
-2.63558e-07
0.000969016
-5.87352e-05
0.000980689
-7.83505e-05
0.000993087
-7.73258e-05
0.00100462
-6.74325e-05
0.00101471
-5.72984e-05
0.00102328
-4.44238e-05
0.00103042
-3.53842e-05
0.00103628
-2.51733e-05
0.00104098