/*--------------------------------*- C++ -*----------------------------------*\
| =========                 |                                                 |
| \\      /  F ield         | OpenFOAM: The Open Source CFD Toolbox           |
|  \\    /   O peration     | Version:  2412                                  |
|   \\  /    A nd           | Website:  www.openfoam.com                      |
|    \\/     M anipulation  |                                                 |
\*---------------------------------------------------------------------------*/
FoamFile
{
    version     2.0;
    format      ascii;
    arch        "LSB;label=32;scalar=64";
    class       volVectorField;
    location    "60";
    object      U;
}
// * * * * * * * * * * * * * * * * * * * * * * * * * * * * * * * * * * * * * //

dimensions      [0 1 -1 0 0 0 0];

internalField   nonuniform List<vector> 
7448
(
(0.853755 0.0575485 -2.63634e-25)
(0.853422 0.0503198 -5.34118e-19)
(0.852546 0.0434147 5.18793e-19)
(0.851261 0.0368278 -5.03893e-19)
(0.849596 0.0305476 1.39705e-26)
(0.847568 0.0245628 0)
(0.845188 0.0188611 4.61651e-19)
(0.842474 0.0134347 -2.2419e-19)
(0.83947 0.00827441 -1.08877e-19)
(0.8362 0.00337108 5.28758e-20)
(0.832712 -0.00128254 -1.28401e-20)
(0.829063 -0.00569841 -2.3529e-26)
(0.825282 -0.0098829 2.33703e-26)
(0.821383 -0.0138467 4.43743e-26)
(0.817346 -0.0175974 3.65926e-19)
(0.813185 -0.0211429 -3.55523e-19)
(0.808925 -0.0244938 8.13031e-26)
(0.804584 -0.0276566 3.35657e-19)
(0.800188 -0.0306404 0)
(0.795765 -0.0334547 7.45201e-26)
(0.791338 -0.0361065 -2.09683e-27)
(0.786918 -0.0386075 5.98746e-19)
(0.782511 -0.0409611 -5.81911e-19)
(0.778133 -0.0431802 0)
(0.773796 -0.0452696 5.49669e-19)
(0.769518 -0.0472378 -5.342e-19)
(0.765312 -0.0490921 5.19156e-19)
(0.761183 -0.0508432 -5.045e-19)
(0.757133 -0.0524936 -4.90198e-19)
(0.753176 -0.0540508 9.52469e-19)
(0.749309 -0.0555231 4.62586e-19)
(0.745535 -0.0569155 4.49228e-19)
(0.741855 -0.058234 -4.36129e-19)
(0.738274 -0.0594817 -4.23254e-19)
(0.734802 -0.0606668 -4.10596e-19)
(0.731424 -0.0617946 3.98114e-19)
(0.728135 -0.0628644 8.99741e-26)
(0.724948 -0.0638842 -7.47097e-19)
(0.721846 -0.0648577 -4.01557e-27)
(0.71883 -0.0657867 -2.30203e-26)
(0.715885 -0.0666744 -7.83805e-26)
(0.713038 -0.0675241 1.55047e-25)
(0.710261 -0.0683412 -7.66782e-26)
(0.707543 -0.0691212 0)
(0.704892 -0.069873 0)
(0.702304 -0.0705933 0)
(0.699766 -0.0712883 0)
(0.697264 -0.0719538 -2.50195e-19)
(0.694804 -0.0725964 -2.36874e-19)
(0.6924 -0.0732117 5.09764e-26)
(0.690042 -0.0738105 -2.09109e-19)
(0.687708 -0.0743827 1.94548e-19)
(0.685413 -0.0749371 2.14816e-25)
(0.683135 -0.0754687 3.27526e-19)
(0.680888 -0.0759806 3.75546e-26)
(0.678674 -0.0764735 -2.85532e-26)
(0.676473 -0.0769484 -5.62068e-20)
(0.67429 -0.0774026 -4.68051e-20)
(0.67213 -0.0778396 2.024e-26)
(0.669992 -0.0782572 -2.6481e-20)
(0.667879 -0.0786596 1.31085e-25)
(0.665764 -0.0790442 7.59346e-21)
(0.663664 -0.0794088 -1.15784e-27)
(0.66158 -0.0797561 -2.17206e-20)
(0.659525 -0.0800874 0)
(0.65747 -0.0804012 -1.01164e-19)
(0.655431 -0.080699 -5.67936e-26)
(0.653395 -0.0809779 0)
(0.651394 -0.0812415 -5.07854e-20)
(0.649413 -0.0814901 1.22877e-25)
(0.647434 -0.0817219 -1.27781e-25)
(0.645483 -0.0819366 0)
(0.643555 -0.0821385 9.41052e-20)
(0.641651 -0.0823241 1.07023e-19)
(0.639787 -0.0824979 -2.41864e-19)
(0.63794 -0.0826582 1.3592e-19)
(0.636116 -0.0828035 7.60436e-20)
(0.634338 -0.0829375 0)
(0.632586 -0.0830591 -1.88389e-19)
(0.630915 -0.0831742 0)
(0.629157 -0.0832625 -1.15398e-19)
(2.67354 0.180216 1.82816e-18)
(2.67263 0.157586 8.4671e-25)
(2.67 0.135969 -8.62606e-19)
(2.6661 0.115346 4.02415e-25)
(2.66099 0.0956807 8.13913e-19)
(2.65473 0.0769376 0)
(2.64737 0.0590814 -7.6789e-19)
(2.63896 0.0420865 0)
(2.62963 0.0259222 0)
(2.61946 0.0105648 0)
(2.60862 -0.00401452 2.29069e-27)
(2.59725 -0.0178473 1.66059e-19)
(2.58547 -0.0309573 -7.60603e-26)
(2.5733 -0.0433753 7.56128e-26)
(2.5607 -0.0551278 -6.0921e-19)
(2.5477 -0.066237 1.39385e-25)
(2.53439 -0.0767342 -5.75252e-19)
(2.52083 -0.0866461 0)
(2.50707 -0.0959949 0)
(2.49323 -0.104813 -1.2416e-25)
(2.47936 -0.113122 3.65393e-25)
(2.4655 -0.120956 -2.41374e-25)
(2.45167 -0.128332 0)
(2.43792 -0.135279 0)
(2.42431 -0.141825 0)
(2.41086 -0.147988 1.78189e-18)
(2.39762 -0.153796 -1.73208e-18)
(2.38461 -0.159275 1.68356e-18)
(2.37185 -0.164441 8.1812e-19)
(2.35935 -0.169314 -2.4661e-25)
(2.34713 -0.173917 6.67813e-27)
(2.33519 -0.178268 6.65824e-27)
(2.32356 -0.182389 1.45745e-18)
(2.31221 -0.186289 0)
(2.30119 -0.189988 0)
(2.29046 -0.193505 -6.65948e-19)
(2.28002 -0.196845 6.45586e-19)
(2.26987 -0.200025 6.25423e-19)
(2.25999 -0.203056 -1.41013e-25)
(2.25039 -0.205949 5.8551e-19)
(2.24101 -0.208714 -1.38202e-25)
(2.2319 -0.211358 0)
(2.22303 -0.213895 2.43903e-25)
(2.21434 -0.216321 -2.47931e-25)
(2.20585 -0.218654 0)
(2.19755 -0.220889 4.64759e-19)
(2.18943 -0.223044 -2.1864e-25)
(2.18141 -0.225109 -4.22472e-19)
(2.17354 -0.227098 -4.00601e-19)
(2.16583 -0.229008 3.78145e-19)
(2.15826 -0.230856 4.07059e-25)
(2.15078 -0.23263 -3.31131e-19)
(2.14342 -0.234341 3.06364e-19)
(2.13614 -0.235986 -2.80619e-19)
(2.12895 -0.23757 -1.12863e-25)
(2.12184 -0.239092 1.15792e-25)
(2.11479 -0.240555 9.81791e-20)
(2.10781 -0.241958 8.27483e-20)
(2.1009 -0.243304 0)
(2.09405 -0.244593 4.93814e-20)
(2.08725 -0.24583 4.48659e-25)
(2.08049 -0.247009 -1.21222e-20)
(2.07379 -0.248134 0)
(2.06713 -0.249201 2.98101e-20)
(2.06055 -0.250218 -6.09454e-26)
(2.05396 -0.251179 1.54512e-19)
(2.04744 -0.252088 1.97507e-25)
(2.04095 -0.252945 -1.1391e-25)
(2.03456 -0.253751 -1.65678e-25)
(2.02821 -0.25451 1.72117e-25)
(2.0219 -0.255213 -1.13673e-19)
(2.01567 -0.25587 -1.3206e-19)
(2.00952 -0.256482 1.51816e-19)
(2.00344 -0.257046 3.44291e-25)
(1.99747 -0.257571 1.95927e-19)
(1.99157 -0.258052 -2.20569e-19)
(1.98577 -0.258492 -4.87163e-25)
(1.98011 -0.258897 -3.21071e-26)
(1.97454 -0.259261 3.06799e-19)
(1.96922 -0.259608 6.32138e-25)
(1.96365 -0.259873 -1.88231e-19)
(4.73057 0.318876 -2.0624e-18)
(4.72924 0.278852 0)
(4.72484 0.240614 9.73224e-19)
(4.71816 0.204131 -9.45396e-19)
(4.70935 0.169337 0)
(4.69849 0.136173 8.9208e-19)
(4.68568 0.104576 4.33267e-19)
(4.67102 0.0745009 3.01934e-25)
(4.65471 0.0458894 2.04429e-19)
(4.63691 0.0187084 -4.78213e-26)
(4.61789 -0.00710127 4.82323e-20)
(4.59795 -0.031587 -1.87439e-19)
(4.57725 -0.0547997 -1.82113e-19)
(4.55584 -0.076787 -3.53892e-19)
(4.53365 -0.0975943 3.43871e-19)
(4.51076 -0.117268 1.61312e-25)
(4.4873 -0.135855 1.6207e-25)
(4.46339 -0.153408 6.31199e-19)
(4.43912 -0.169966 0)
(4.41467 -0.185581 0)
(4.39013 -0.200296 0)
(4.36559 -0.214166 2.6475e-25)
(4.34109 -0.227227 -2.65066e-25)
(4.31672 -0.239525 0)
(4.29254 -0.251113 0)
(4.26865 -0.262019 -1.00628e-18)
(4.2451 -0.272298 2.05927e-25)
(4.22191 -0.281987 -9.50822e-19)
(4.19916 -0.291121 -9.24127e-19)
(4.17684 -0.299737 -1.79613e-18)
(4.15498 -0.307869 8.72603e-19)
(4.13361 -0.315554 -3.96695e-25)
(4.11275 -0.322826 -8.23253e-19)
(4.0924 -0.329708 0)
(4.07256 -0.336231 7.75657e-19)
(4.05325 -0.342424 0)
(4.03442 -0.348307 -1.45881e-18)
(4.01609 -0.3539 3.44444e-25)
(3.99823 -0.359229 6.84057e-19)
(3.98084 -0.364311 6.61576e-19)
(3.96386 -0.369165 -6.0949e-25)
(3.94732 -0.373803 3.01644e-25)
(3.9312 -0.378247 5.94117e-19)
(3.91539 -0.382496 5.71407e-19)
(3.89993 -0.386576 -2.69284e-25)
(3.88479 -0.390482 -1.05037e-18)
(3.86998 -0.394242 -5.01543e-19)
(3.85537 -0.397848 4.77415e-19)
(3.84103 -0.401316 4.52706e-19)
(3.82694 -0.404648 -4.27333e-19)
(3.8131 -0.407859 8.02417e-19)
(3.79944 -0.410947 1.69768e-25)
(3.78597 -0.413918 -1.73756e-25)
(3.77266 -0.416774 0)
(3.75954 -0.419523 0)
(3.74656 -0.422165 0)
(3.73367 -0.424697 -1.10952e-19)
(3.72092 -0.427125 -5.00682e-25)
(3.7083 -0.429452 -6.15433e-26)
(3.69579 -0.43168 6.33512e-26)
(3.68337 -0.433812 7.07084e-20)
(3.67102 -0.435841 1.36978e-20)
(3.65879 -0.437779 9.27954e-21)
(3.64662 -0.439612 -2.29434e-26)
(3.63459 -0.441357 -5.96501e-20)
(3.62257 -0.443 -8.73014e-20)
(3.61068 -0.444555 -9.9042e-26)
(3.59885 -0.446016 0)
(3.58717 -0.447391 0)
(3.57557 -0.448674 0)
(3.56406 -0.449865 -6.78561e-25)
(3.5527 -0.450976 2.98426e-19)
(3.54146 -0.452003 1.15597e-24)
(3.53038 -0.45295 -3.57429e-25)
(3.51946 -0.453825 0)
(3.5087 -0.454623 -4.92494e-25)
(3.49813 -0.455352 -1.396e-19)
(3.48781 -0.456021 6.12757e-25)
(3.47765 -0.456618 -1.73281e-19)
(3.46794 -0.457183 0)
(3.45785 -0.457613 -7.47024e-25)
(7.04722 0.475037 1.1079e-24)
(7.04574 0.415443 0)
(7.03965 0.3585 -9.62548e-25)
(7.03013 0.304162 1.39784e-24)
(7.01743 0.252336 -7.67333e-27)
(7.00169 0.202932 -9.99857e-19)
(6.98303 0.155857 -4.85652e-19)
(6.96164 0.111043 0)
(6.93777 0.0684063 -2.29186e-19)
(6.91167 0.0278949 6.67551e-26)
(6.88373 -0.0105763 -2.70419e-20)
(6.85439 -0.0470776 0)
(6.82389 -0.0816874 2.04247e-19)
(6.79229 -0.114472 3.96946e-19)
(6.75953 -0.145499 -3.85745e-19)
(6.72571 -0.174839 0)
(6.69101 -0.202564 7.28705e-19)
(6.65562 -0.228742 -7.08282e-19)
(6.61968 -0.253445 -3.23863e-25)
(6.58341 -0.276737 3.23547e-25)
(6.54697 -0.298689 0)
(6.51047 -0.319379 1.26498e-18)
(6.47401 -0.338858 -5.86436e-25)
(6.43768 -0.357203 2.89432e-25)
(6.40159 -0.374482 5.4563e-25)
(6.36588 -0.39074 1.13012e-18)
(6.33062 -0.406062 2.19737e-18)
(6.29585 -0.420497 0)
(6.26166 -0.4341 0)
(6.22808 -0.446926 1.00898e-18)
(6.19514 -0.459025 5.39365e-25)
(6.16288 -0.470457 9.52553e-19)
(6.1313 -0.481261 -9.25181e-19)
(6.10046 -0.491479 0)
(6.07034 -0.501158 -8.71834e-19)
(6.04094 -0.510339 0)
(6.01222 -0.51905 3.39919e-25)
(5.98422 -0.527322 7.94445e-19)
(5.95691 -0.535202 -7.69107e-19)
(5.93024 -0.542703 -1.48777e-18)
(5.90415 -0.549863 0)
(5.8787 -0.556692 0)
(5.85386 -0.56323 -6.68163e-19)
(5.82946 -0.569475 -6.42662e-19)
(5.80557 -0.575462 0)
(5.78214 -0.581186 5.90753e-19)
(5.75918 -0.586692 7.50153e-25)
(5.73654 -0.591964 -5.37073e-19)
(5.7143 -0.597031 -5.09302e-19)
(5.69243 -0.601889 4.8078e-19)
(5.67093 -0.60657 -4.51411e-19)
(5.64969 -0.611062 -4.21049e-19)
(5.62874 -0.61538 -3.89573e-19)
(5.60804 -0.619525 0)
(5.58762 -0.623509 0)
(5.56744 -0.627334 0)
(5.54742 -0.631 0)
(5.52759 -0.634506 -2.10487e-19)
(5.50795 -0.63786 8.45865e-20)
(5.48848 -0.641064 -9.63861e-26)
(5.46918 -0.644126 -3.9792e-20)
(5.44997 -0.647041 -1.54177e-20)
(5.43095 -0.649811 9.03154e-25)
(5.41202 -0.652428 -9.85248e-26)
(5.39329 -0.654911 6.71435e-20)
(5.37461 -0.657244 9.8273e-20)
(5.35613 -0.659451 -1.31488e-19)
(5.33774 -0.661509 0)
(5.31955 -0.663444 0)
(5.3015 -0.665237 0)
(5.2836 -0.6669 1.44583e-19)
(5.26591 -0.668437 -1.67963e-19)
(5.24842 -0.669853 -1.93083e-19)
(5.23117 -0.671151 0)
(5.21417 -0.67234 -2.49164e-19)
(5.19744 -0.673419 2.80486e-19)
(5.18099 -0.674397 1.57129e-19)
(5.16492 -0.675283 0)
(5.14912 -0.67607 1.95026e-19)
(5.13398 -0.676804 0)
(5.11836 -0.677352 2.3926e-19)
(9.62942 0.649098 0)
(9.62816 0.567716 1.17183e-24)
(9.6206 0.489944 -1.20163e-18)
(9.60833 0.415715 1.16748e-18)
(9.59171 0.344913 -1.13434e-18)
(9.57098 0.277407 0)
(9.5463 0.213078 5.354e-19)
(9.5179 0.151828 0)
(9.48614 0.0935462 0)
(9.45134 0.0381576 0)
(9.41402 -0.0144487 2.98339e-20)
(9.37474 -0.0643751 1.09396e-25)
(9.33382 -0.111718 -1.08702e-25)
(9.29138 -0.156574 0)
(9.24735 -0.199035 4.25947e-19)
(9.20184 -0.239193 0)
(9.1551 -0.277145 8.05029e-19)
(9.10739 -0.312991 3.781e-25)
(9.05889 -0.346817 -7.60945e-19)
(9.00987 -0.378718 3.57696e-25)
(8.96056 -0.408786 -6.76381e-25)
(8.9111 -0.437126 -2.79839e-18)
(8.8616 -0.463812 0)
(8.81224 -0.488941 0)
(8.76311 -0.51261 1.28675e-18)
(8.71439 -0.534876 -1.77597e-24)
(8.66621 -0.555854 -1.21678e-18)
(8.61861 -0.575617 -1.18315e-18)
(8.57168 -0.594233 0)
(8.52551 -0.611773 -5.23815e-25)
(8.48014 -0.628315 -1.0869e-18)
(8.43561 -0.643934 -2.11242e-18)
(8.3919 -0.658687 2.0522e-18)
(8.34911 -0.672625 -4.65832e-25)
(8.30721 -0.685817 -9.67363e-19)
(8.26622 -0.698316 4.56907e-25)
(8.22611 -0.710165 9.10219e-19)
(8.18687 -0.721403 -3.60442e-25)
(8.14852 -0.732094 -4.16637e-25)
(8.11099 -0.742259 1.65252e-18)
(8.07422 -0.75195 7.42495e-25)
(8.03821 -0.761179 -7.53867e-25)
(8.00302 -0.769998 0)
(7.9684 -0.778413 0)
(7.93445 -0.786467 -6.85871e-19)
(7.90108 -0.794157 -6.5693e-19)
(7.86834 -0.80154 6.27502e-19)
(7.83602 -0.808599 5.97449e-19)
(7.80424 -0.815375 5.66656e-19)
(7.77293 -0.821858 -4.39803e-25)
(7.74214 -0.828095 0)
(7.7117 -0.834072 9.37395e-19)
(7.68167 -0.839808 1.15462e-24)
(7.65199 -0.845308 -3.9736e-19)
(7.62268 -0.850583 -3.59427e-19)
(7.59371 -0.855637 -2.81341e-25)
(7.56499 -0.860474 -1.39099e-19)
(7.53651 -0.865094 1.17257e-19)
(7.50831 -0.8695 -1.88511e-19)
(7.48036 -0.873704 -1.58925e-25)
(7.45264 -0.877711 0)
(7.42507 -0.881513 0)
(7.39775 -0.88512 -1.16458e-20)
(7.37055 -0.888514 -5.75901e-26)
(7.34363 -0.891723 2.86498e-25)
(7.3168 -0.894731 -1.09597e-19)
(7.29025 -0.89756 1.46654e-19)
(7.2638 -0.90019 0)
(7.23764 -0.902642 0)
(7.2117 -0.904909 0)
(7.18595 -0.906995 0)
(7.16047 -0.908905 -7.52616e-25)
(7.1353 -0.91065 -2.15462e-19)
(7.11045 -0.912237 0)
(7.08597 -0.913673 5.56142e-19)
(7.06186 -0.914963 -6.26079e-19)
(7.03816 -0.916114 -1.38276e-24)
(7.01498 -0.917142 2.98797e-24)
(6.99221 -0.918037 -6.59654e-25)
(6.97033 -0.91886 -2.41432e-19)
(6.94792 -0.919447 2.67056e-19)
(12.4399 0.838546 1.28442e-24)
(12.4392 0.733475 -2.51064e-24)
(12.4306 0.633056 1.27934e-18)
(12.4159 0.537199 1.24321e-18)
(12.3957 0.445753 2.41637e-18)
(12.3702 0.358557 1.11963e-24)
(12.3398 0.275447 5.70558e-19)
(12.3047 0.196302 -2.61978e-25)
(12.2653 0.120972 2.59492e-25)
(12.2221 0.0493636 1.30997e-19)
(12.1756 -0.0186661 -5.27245e-26)
(12.1265 -0.0832494 2.47626e-19)
(12.0753 -0.14451 0)
(12.0221 -0.202569 0)
(11.9669 -0.257546 0)
(11.9098 -0.309561 -8.85619e-19)
(11.8511 -0.358736 -1.50584e-24)
(11.7911 -0.405196 -4.04748e-25)
(11.73 -0.449054 8.14975e-19)
(11.6682 -0.490433 0)
(11.6059 -0.529442 7.2513e-25)
(11.5433 -0.566223 1.5008e-18)
(11.4806 -0.600864 0)
(11.4179 -0.63349 0)
(11.3555 -0.664226 -1.38233e-18)
(11.2934 -0.693147 -2.68987e-18)
(11.2319 -0.720391 0)
(11.171 -0.746059 1.27302e-18)
(11.1108 -0.770231 0)
(11.0514 -0.793002 0)
(10.9929 -0.814472 -1.17129e-18)
(10.9354 -0.834733 1.1388e-18)
(10.8788 -0.853864 -2.2138e-18)
(10.8232 -0.871923 1.04587e-24)
(10.7687 -0.889004 1.0446e-18)
(10.7152 -0.905175 9.46933e-25)
(10.6626 -0.920489 -9.58485e-25)
(10.6111 -0.934999 -1.6417e-24)
(10.5606 -0.948784 8.60995e-25)
(10.5111 -0.961876 -8.94445e-19)
(10.4624 -0.974339 0)
(10.4146 -0.986193 0)
(10.3678 -0.997501 0)
(10.3217 -1.00827 -7.17891e-25)
(10.2763 -1.01857 7.44246e-19)
(10.2316 -1.02838 7.13171e-19)
(10.1877 -1.03779 0)
(10.1443 -1.04677 6.49196e-19)
(10.1016 -1.05537 6.16014e-19)
(10.0594 -1.06359 -5.81876e-19)
(10.0178 -1.07148 5.46661e-19)
(9.97673 -1.07903 -5.10201e-19)
(9.93614 -1.08626 2.38944e-24)
(9.896 -1.09318 4.32913e-19)
(9.85633 -1.0998 3.9175e-19)
(9.8171 -1.10614 0)
(9.77819 -1.11219 1.5173e-19)
(9.73961 -1.11796 2.17005e-25)
(9.70139 -1.12344 1.02893e-19)
(9.66351 -1.12867 7.64376e-20)
(9.62591 -1.13364 0)
(9.5885 -1.13833 -1.87787e-20)
(9.55142 -1.14277 0)
(9.5145 -1.14694 -1.20143e-25)
(9.47794 -1.15086 3.13428e-25)
(9.44152 -1.15452 -1.19939e-19)
(9.40543 -1.15795 1.60544e-19)
(9.36946 -1.16111 1.01979e-19)
(9.33387 -1.16404 4.41456e-25)
(9.29856 -1.16673 6.11217e-25)
(9.26351 -1.16918 1.76801e-19)
(9.22881 -1.17141 -2.05464e-19)
(9.1945 -1.17342 2.36268e-19)
(9.1606 -1.17522 -2.69405e-19)
(9.12717 -1.17683 -3.05072e-19)
(9.09424 -1.17825 3.43514e-19)
(9.06186 -1.17948 0)
(9.03017 -1.18057 0)
(8.99903 -1.18148 1.21677e-24)
(8.96902 -1.18229 2.65134e-19)
(8.93849 -1.18282 1.39289e-24)
(15.3632 1.03561 2.61242e-24)
(15.3637 0.905928 -1.32389e-18)
(15.3545 0.781981 -2.57358e-18)
(15.3381 0.663655 -1.25084e-18)
(15.3151 0.550761 -1.21603e-18)
(15.286 0.443097 0)
(15.2509 0.340453 -2.99307e-24)
(15.2102 0.242682 0)
(15.1645 0.149595 0)
(15.1141 0.0610766 -1.3217e-19)
(15.0599 -0.0230573 -3.21418e-20)
(15.0025 -0.10296 -2.50153e-19)
(14.9425 -0.178789 0)
(14.8801 -0.25069 4.73654e-19)
(14.8152 -0.318811 4.44861e-25)
(14.7481 -0.383297 1.79438e-18)
(14.6789 -0.4443 -8.73272e-19)
(14.6082 -0.501969 8.50066e-19)
(14.5361 -0.556444 7.78579e-25)
(14.463 -0.607869 -2.12834e-26)
(14.3893 -0.65638 -7.58782e-25)
(14.3151 -0.70215 0)
(14.2406 -0.745281 0)
(14.1661 -0.785931 0)
(14.0917 -0.824244 -1.3244e-24)
(14.0176 -0.860312 1.37384e-18)
(13.944 -0.894308 -1.33784e-18)
(13.871 -0.926346 1.30271e-18)
(13.7987 -0.956527 1.23053e-24)
(13.7272 -0.984971 0)
(13.6566 -1.01179 1.20191e-18)
(13.587 -1.0371 -1.09473e-24)
(13.5183 -1.061 3.36721e-24)
(13.4507 -1.08356 1.0762e-24)
(13.3841 -1.10489 1.00532e-24)
(13.3186 -1.12507 -4.15855e-26)
(13.2542 -1.14418 -9.89092e-25)
(13.1908 -1.16227 -9.85319e-19)
(13.1285 -1.17945 0)
(13.0672 -1.19575 -9.25665e-19)
(13.0068 -1.21126 0)
(12.9474 -1.22599 -8.04238e-25)
(12.8889 -1.24003 8.1833e-25)
(12.8312 -1.25339 0)
(12.7743 -1.26614 0)
(12.7182 -1.27827 0)
(12.6629 -1.28989 0)
(12.6081 -1.30097 -6.77059e-19)
(12.554 -1.31156 -6.43066e-19)
(12.5006 -1.32167 6.07999e-19)
(12.4479 -1.33135 -3.14603e-24)
(12.3957 -1.34061 4.8462e-25)
(12.344 -1.34946 4.94924e-19)
(12.2929 -1.35792 0)
(12.2423 -1.366 0)
(12.1922 -1.37372 -6.44598e-25)
(12.1425 -1.38108 1.09664e-25)
(12.0932 -1.38808 -1.34664e-19)
(12.0443 -1.39472 -4.70454e-25)
(11.9958 -1.40104 -8.05826e-20)
(11.9477 -1.40703 -5.11167e-20)
(11.8997 -1.41268 1.98291e-20)
(11.8522 -1.418 0)
(11.8048 -1.42298 -2.54133e-25)
(11.7578 -1.42765 2.63078e-25)
(11.7111 -1.43199 1.27036e-19)
(11.6646 -1.43604 -1.70167e-19)
(11.6184 -1.43975 8.02889e-25)
(11.5725 -1.44317 -1.32909e-19)
(11.527 -1.44629 0)
(11.4818 -1.4491 -3.75847e-19)
(11.437 -1.45163 2.1853e-19)
(11.3926 -1.45389 -2.51457e-19)
(11.3487 -1.45588 2.86898e-19)
(11.3054 -1.45763 4.96381e-24)
(11.2627 -1.45913 3.66266e-19)
(11.2207 -1.46042 0)
(11.1795 -1.4615 3.6081e-24)
(11.1391 -1.46237 -5.10515e-19)
(11.0999 -1.46311 4.43909e-24)
(11.0603 -1.46354 -3.13552e-19)
(18.2029 1.22705 0)
(18.205 1.07349 1.2389e-18)
(18.1962 0.926728 1.20462e-18)
(18.1792 0.786613 -1.17144e-18)
(18.1549 0.652915 1.1394e-18)
(18.1236 0.525385 1.7558e-26)
(18.0858 0.403773 -5.39129e-19)
(18.0416 0.287895 0)
(17.9918 0.177526 0)
(17.9368 0.0725239 -1.24223e-19)
(17.8773 -0.0273278 3.02315e-20)
(17.8143 -0.122214 -2.22115e-25)
(17.7484 -0.212317 2.21131e-25)
(17.6797 -0.297811 -2.9146e-24)
(17.6082 -0.378868 0)
(17.5342 -0.45566 -5.23801e-24)
(17.4579 -0.528364 8.25707e-19)
(17.3797 -0.597157 -1.60911e-18)
(17.3 -0.662195 0)
(17.219 -0.723652 1.43726e-24)
(17.1372 -0.781682 -2.84112e-24)
(17.0549 -0.836484 -1.45195e-18)
(16.9721 -0.888182 1.32975e-24)
(16.8891 -0.936952 -2.63203e-24)
(16.8061 -0.982969 4.0192e-26)
(16.7234 -1.02633 1.27097e-24)
(16.6411 -1.06724 1.27878e-18)
(16.5593 -1.10583 -1.24672e-18)
(16.4782 -1.14222 1.13911e-24)
(16.3978 -1.17655 1.18468e-18)
(16.3183 -1.20894 0)
(16.2397 -1.23954 1.05305e-24)
(16.162 -1.26845 1.09608e-18)
(16.0854 -1.29576 0)
(16.0098 -1.32159 -1.03918e-18)
(15.9352 -1.34605 0)
(15.8616 -1.36922 -9.83421e-19)
(15.789 -1.39116 -9.55773e-19)
(15.7176 -1.41201 -9.28191e-19)
(15.647 -1.43178 1.80115e-18)
(15.5774 -1.4506 0)
(15.5087 -1.46847 8.44886e-19)
(15.4409 -1.4855 -8.16627e-19)
(15.3738 -1.50171 -7.87963e-19)
(15.3076 -1.51718 -7.58783e-19)
(15.242 -1.53189 -7.28946e-19)
(15.1773 -1.54597 1.37616e-24)
(15.113 -1.55939 0)
(15.0495 -1.57222 6.34447e-19)
(14.9865 -1.58445 -6.00805e-19)
(14.9242 -1.59616 -5.20405e-24)
(14.8625 -1.60735 -1.058e-24)
(14.8013 -1.61804 0)
(14.7406 -1.62825 0)
(14.6805 -1.638 0)
(14.6209 -1.6473 0)
(14.5616 -1.65616 0)
(14.5027 -1.66459 1.34711e-19)
(14.4443 -1.67258 8.26919e-25)
(14.3863 -1.68016 8.08383e-20)
(14.3286 -1.68735 5.13549e-20)
(14.2711 -1.69412 1.20492e-26)
(14.2139 -1.7005 -1.24687e-26)
(14.157 -1.70645 0)
(14.1005 -1.71203 8.75843e-20)
(14.0441 -1.7172 -1.28503e-19)
(13.9881 -1.72201 0)
(13.9322 -1.72642 2.52953e-24)
(13.8768 -1.73045 1.34951e-19)
(13.8216 -1.73412 1.15595e-24)
(13.7668 -1.73742 -1.42454e-24)
(13.7124 -1.74036 2.22705e-19)
(13.6585 -1.74297 -1.23925e-24)
(13.6051 -1.74525 -2.14291e-24)
(13.5523 -1.74723 3.32444e-19)
(13.5002 -1.74891 -3.74964e-19)
(13.4488 -1.75031 2.10461e-19)
(13.3984 -1.75146 2.19103e-25)
(13.3487 -1.75236 2.62135e-19)
(13.3006 -1.75309 0)
(13.2521 -1.75345 0)
(20.7608 1.39948 0)
(20.7652 1.22447 2.06268e-24)
(20.7577 1.05721 -1.05884e-18)
(20.7414 0.897507 1.03023e-18)
(20.7173 0.745099 -1.00259e-18)
(20.6857 0.599692 0)
(20.647 0.460995 4.74935e-19)
(20.6017 0.32879 -1.32691e-24)
(20.5502 0.202817 4.3354e-25)
(20.4933 0.0829095 1.09642e-19)
(20.4315 -0.0311812 -2.67017e-20)
(20.366 -0.139667 -2.08131e-19)
(20.2973 -0.242754 3.91215e-25)
(20.2257 -0.340642 -7.9079e-19)
(20.1511 -0.433526 -3.85442e-19)
(20.0738 -0.521599 -7.5161e-19)
(19.9941 -0.605064 -7.32915e-19)
(19.9123 -0.684115 7.14794e-19)
(19.8288 -0.758934 1.34779e-24)
(19.7441 -0.82971 -1.27937e-24)
(19.6583 -0.896617 1.28376e-24)
(19.572 -0.959878 1.2951e-18)
(19.4851 -1.01963 -2.41071e-24)
(19.398 -1.07607 -1.2335e-18)
(19.3108 -1.1294 -1.20396e-18)
(19.2238 -1.17972 2.24158e-24)
(19.1372 -1.22726 -1.11202e-24)
(19.0511 -1.27217 1.1198e-18)
(18.9656 -1.31458 0)
(18.8808 -1.35464 -1.0669e-18)
(18.7969 -1.39251 0)
(18.7138 -1.42832 1.01609e-18)
(18.6316 -1.46221 -1.927e-24)
(18.5504 -1.49427 0)
(18.4702 -1.52464 1.88554e-18)
(18.391 -1.55344 1.71603e-24)
(18.3128 -1.58075 3.36579e-24)
(18.2355 -1.60666 8.49565e-24)
(18.1593 -1.6313 8.47701e-19)
(18.0839 -1.65471 -6.71228e-24)
(18.0093 -1.677 0)
(17.9356 -1.69821 -7.75803e-19)
(17.8628 -1.71844 6.62374e-24)
(17.7906 -1.73771 7.26267e-19)
(17.7191 -1.75612 6.6824e-24)
(17.6482 -1.77366 6.74475e-19)
(17.578 -1.79045 -1.27583e-24)
(17.5082 -1.80647 -1.1395e-24)
(17.4391 -1.8218 -5.90536e-19)
(17.3704 -1.83642 -5.60337e-19)
(17.3023 -1.85044 -5.2882e-19)
(17.2347 -1.86384 4.95769e-19)
(17.1676 -1.87665 4.61039e-19)
(17.1008 -1.88889 -4.24443e-19)
(17.0345 -1.90058 0)
(16.9687 -1.91175 6.06841e-25)
(16.9031 -1.9224 -6.26168e-25)
(16.8379 -1.93253 -1.2765e-19)
(16.773 -1.94215 -1.0308e-19)
(16.7084 -1.95129 -7.69006e-20)
(16.6441 -1.95996 0)
(16.58 -1.96814 1.90374e-20)
(16.5161 -1.97584 1.12699e-25)
(16.4524 -1.98305 -1.16934e-25)
(16.389 -1.9898 5.74327e-24)
(16.3257 -1.99609 -6.08517e-24)
(16.2627 -2.00193 -1.66071e-19)
(16.1998 -2.0073 -1.05881e-19)
(16.1372 -2.01223 1.30486e-19)
(16.0749 -2.01671 0)
(16.0128 -2.02076 -4.1391e-24)
(15.9511 -2.02438 -2.16424e-19)
(15.8899 -2.0276 4.99479e-19)
(15.8291 -2.03043 0)
(15.769 -2.03288 -3.24648e-19)
(15.7094 -2.03498 -3.6676e-19)
(15.6506 -2.03674 -2.06168e-19)
(15.5928 -2.03819 0)
(15.5358 -2.03933 -2.5757e-19)
(15.4805 -2.04026 -8.74855e-24)
(15.4246 -2.04077 3.17909e-19)
(22.943 1.54658 -3.64911e-24)
(22.9502 1.35333 -9.25869e-19)
(22.9449 1.16862 9.01167e-19)
(22.9303 0.992252 -8.77249e-19)
(22.9076 0.823906 -8.54171e-19)
(22.8771 0.663259 0)
(22.8392 0.509983 -4.05057e-19)
(22.7943 0.363832 0)
(22.7431 0.224511 0)
(22.6861 0.0918359 9.36498e-20)
(22.6242 -0.0344698 -1.72264e-25)
(22.5584 -0.154642 1.77966e-19)
(22.4893 -0.26891 -6.54495e-25)
(22.4173 -0.377491 3.38489e-19)
(22.3423 -0.480602 3.30178e-19)
(22.2645 -0.578455 6.44243e-19)
(22.1841 -0.671272 -6.28632e-19)
(22.1017 -0.759266 6.13506e-19)
(22.0176 -0.842636 1.12681e-24)
(21.9321 -0.921585 -2.23019e-24)
(21.8456 -0.996306 1.10425e-24)
(21.7585 -1.06704 1.11488e-18)
(21.6709 -1.13394 -3.09991e-24)
(21.583 -1.19722 1.06363e-18)
(21.4951 -1.25708 1.03908e-18)
(21.4074 -1.31365 0)
(21.3202 -1.36718 -1.86093e-24)
(21.2334 -1.41783 -9.69245e-19)
(21.1473 -1.46574 0)
(21.062 -1.51106 9.25439e-19)
(20.9775 -1.55398 -1.6935e-24)
(20.8939 -1.59464 -8.83457e-19)
(20.8112 -1.63319 0)
(20.7294 -1.66972 0)
(20.6487 -1.7044 -8.22913e-19)
(20.569 -1.73734 -8.03157e-19)
(20.4902 -1.76864 7.83519e-19)
(20.4124 -1.79839 7.17418e-24)
(20.3356 -1.82673 1.45232e-24)
(20.2596 -1.85372 -1.44921e-18)
(20.1844 -1.87947 0)
(20.1099 -1.90401 0)
(20.0363 -1.92746 1.3281e-18)
(19.9632 -1.94986 -6.43098e-19)
(19.8908 -1.97128 6.21604e-19)
(19.8188 -1.99173 -5.99428e-19)
(19.7475 -2.01134 -5.76509e-19)
(19.6764 -2.0301 5.52691e-19)
(19.6059 -2.04807 0)
(19.5357 -2.06526 5.01833e-19)
(19.466 -2.08175 4.74528e-19)
(19.3966 -2.09755 -4.45767e-19)
(19.3275 -2.11268 -1.02431e-23)
(19.2587 -2.12716 7.6631e-19)
(19.1903 -2.14102 3.48946e-19)
(19.1221 -2.15428 1.82631e-25)
(19.0542 -2.16695 1.13729e-24)
(18.9864 -2.17903 2.32308e-19)
(18.9189 -2.19053 9.39866e-20)
(18.8516 -2.20148 -7.02413e-20)
(18.7844 -2.21188 -4.47169e-25)
(18.7172 -2.22174 -1.74596e-20)
(18.6503 -2.23104 1.19359e-20)
(18.5833 -2.23978 0)
(18.5166 -2.248 -7.757e-20)
(18.4499 -2.25569 -9.50669e-24)
(18.3834 -2.26286 1.53761e-19)
(18.3168 -2.2695 -9.82225e-20)
(18.2505 -2.27562 -1.2126e-19)
(18.1843 -2.28123 0)
(18.1184 -2.28633 -2.60895e-24)
(18.0527 -2.29095 3.198e-25)
(17.9873 -2.29509 -2.33783e-19)
(17.9224 -2.29878 0)
(17.8579 -2.30202 3.04995e-19)
(17.7941 -2.30486 6.90303e-19)
(17.7309 -2.30729 5.73982e-24)
(17.6686 -2.30935 0)
(17.6072 -2.31105 4.87305e-19)
(17.5474 -2.31247 -8.06965e-24)
(17.4869 -2.31344 -6.03418e-19)
(24.7688 1.66965 0)
(24.7794 1.4612 1.57557e-18)
(24.777 1.26196 0)
(24.7648 1.07166 7.47219e-19)
(24.7442 0.89 7.27911e-19)
(24.7157 0.716605 0)
(24.6795 0.551123 -3.45472e-19)
(24.6361 0.393281 0)
(24.5862 0.242762 0)
(24.5303 0.0993638 -1.59931e-19)
(24.4694 -0.0372158 0)
(24.4045 -0.16723 1.52064e-19)
(24.3365 -0.290927 0)
(24.2654 -0.40854 -2.89446e-19)
(24.1914 -0.520303 5.19292e-25)
(24.1146 -0.626448 -1.0383e-23)
(24.0353 -0.727209 1.07646e-18)
(23.9539 -0.822815 -5.25506e-19)
(23.8707 -0.913478 0)
(23.7863 -0.999418 0)
(23.7009 -1.08084 -4.896e-19)
(23.6149 -1.158 -1.91344e-18)
(23.5284 -1.23106 -1.80984e-24)
(23.4418 -1.30024 9.137e-19)
(23.3552 -1.36578 8.93117e-19)
(23.2689 -1.4278 8.73099e-19)
(23.1831 -1.48656 -1.60152e-24)
(23.0978 -1.54224 8.34689e-19)
(23.0133 -1.59499 0)
(22.9296 -1.64497 -1.59627e-18)
(22.8468 -1.69238 7.80462e-19)
(22.765 -1.73737 0)
(22.6841 -1.78009 0)
(22.6043 -1.82066 0)
(22.5255 -1.85923 -7.12786e-19)
(22.4478 -1.89595 6.96385e-19)
(22.3709 -1.93089 0)
(22.2951 -1.96419 6.63771e-19)
(22.2203 -1.99595 6.47447e-19)
(22.1463 -2.02627 6.31052e-19)
(22.0731 -2.05526 0)
(22.0006 -2.08295 0)
(21.929 -2.10945 -5.80489e-19)
(21.8578 -2.13482 1.12584e-18)
(21.7872 -2.15914 -5.44837e-19)
(21.717 -2.18241 8.65796e-24)
(21.6473 -2.20476 1.01351e-18)
(21.5778 -2.22619 -4.86535e-19)
(21.5087 -2.24677 -4.65338e-19)
(21.4399 -2.26648 -4.43079e-19)
(21.3715 -2.28544 -4.19636e-19)
(21.3032 -2.30364 -3.94798e-19)
(21.2352 -2.32111 -3.68463e-19)
(21.1673 -2.33786 -1.43246e-23)
(21.0996 -2.35394 -6.2108e-19)
(21.0321 -2.36935 0)
(20.9646 -2.38411 0)
(20.8972 -2.39823 -2.0774e-19)
(20.8299 -2.41169 8.41756e-20)
(20.7627 -2.42455 6.30216e-20)
(20.6956 -2.43681 6.11481e-25)
(20.6283 -2.44846 1.57004e-20)
(20.5611 -2.45951 9.10615e-24)
(20.4938 -2.46993 -4.08697e-25)
(20.4267 -2.47976 4.25903e-25)
(20.3595 -2.48901 1.03489e-19)
(20.2923 -2.49769 1.18634e-24)
(20.225 -2.50578 8.92648e-20)
(20.1578 -2.51329 -1.10392e-19)
(20.0907 -2.52023 0)
(20.0237 -2.52661 3.16143e-19)
(19.9569 -2.53244 -1.84973e-19)
(19.8904 -2.53773 -2.14169e-19)
(19.8241 -2.54252 3.91285e-24)
(19.7583 -2.54681 -2.80278e-19)
(19.6929 -2.55062 -3.17667e-19)
(19.6282 -2.55398 0)
(19.5643 -2.55691 0)
(19.5011 -2.55943 -2.25288e-19)
(19.4396 -2.56161 0)
(19.3772 -2.56329 2.79815e-19)
(26.3081 1.77341 1.07141e-23)
(26.3226 1.55221 -6.84426e-19)
(26.3234 1.34074 6.66864e-19)
(26.3141 1.13874 0)
(26.2961 0.945855 -6.33311e-19)
(26.2699 0.761716 6.17247e-19)
(26.2359 0.585933 3.0082e-19)
(26.1946 0.41822 0)
(26.1465 0.258235 -2.69999e-25)
(26.0924 0.105762 6.9691e-20)
(26.0331 -0.0395185 6.549e-26)
(25.9698 -0.177877 -1.32591e-19)
(25.9033 -0.309576 -4.9904e-25)
(25.8339 -0.434864 2.52505e-19)
(25.7616 -0.55399 2.2623e-26)
(25.6865 -0.667195 -4.81236e-19)
(25.609 -0.774732 -4.69894e-19)
(25.5293 -0.876841 1.72758e-24)
(25.448 -0.973744 -1.73298e-24)
(25.3654 -1.06567 -4.37904e-19)
(25.2819 -1.15284 4.279e-19)
(25.1979 -1.23553 1.30526e-23)
(25.1135 -1.31389 1.58266e-24)
(25.029 -1.38818 -7.99272e-19)
(24.9445 -1.45863 -7.81529e-19)
(24.8605 -1.52536 -1.52854e-18)
(24.777 -1.58867 0)
(24.6942 -1.64873 -7.31213e-19)
(24.6121 -1.70571 -2.77583e-24)
(24.531 -1.75977 6.9979e-19)
(24.4509 -1.81111 -6.84621e-19)
(24.3719 -1.85991 0)
(24.2938 -1.90632 0)
(24.2168 -1.95045 2.39635e-24)
(24.141 -1.99248 9.50832e-24)
(24.0662 -2.03255 6.1252e-19)
(23.9923 -2.07075 -2.23408e-24)
(23.9196 -2.10721 2.27962e-24)
(23.8478 -2.14206 -1.16784e-23)
(23.7769 -2.17538 0)
(23.7068 -2.20728 -2.01732e-24)
(23.6374 -2.23782 2.06578e-24)
(23.5688 -2.26711 1.90439e-24)
(23.5007 -2.29519 -4.98057e-19)
(23.433 -2.32216 1.40171e-23)
(23.3658 -2.34801 1.2411e-23)
(23.299 -2.37289 -1.44337e-23)
(23.2324 -2.3968 0)
(23.166 -2.41979 4.13613e-19)
(23.0999 -2.44186 3.94215e-19)
(23.034 -2.46313 0)
(22.9682 -2.48358 3.5198e-19)
(22.9025 -2.50325 0)
(22.8369 -2.52216 -3.04149e-19)
(22.7714 -2.54034 2.77747e-19)
(22.7059 -2.5578 0)
(22.6404 -2.57457 0)
(22.5748 -2.59064 8.79489e-24)
(22.5093 -2.60601 -7.56256e-20)
(22.4437 -2.62072 0)
(22.3781 -2.63479 -1.88748e-25)
(22.3123 -2.64821 -1.01935e-23)
(22.2465 -2.66097 -9.72081e-21)
(22.1805 -2.67305 3.55556e-20)
(22.1145 -2.68451 -6.34984e-20)
(22.0484 -2.69533 6.12293e-25)
(21.9822 -2.70554 0)
(21.9159 -2.7151 8.1044e-20)
(21.8496 -2.72404 -5.53246e-24)
(21.7833 -2.73237 -1.72952e-24)
(21.717 -2.74008 -2.87982e-19)
(21.6509 -2.7472 1.68683e-19)
(21.5849 -2.75373 -8.7916e-24)
(21.5191 -2.7597 -7.15319e-24)
(21.4537 -2.76513 1.5665e-23)
(21.3887 -2.77003 -2.91067e-19)
(21.3243 -2.77443 9.70613e-24)
(21.2606 -2.77836 1.16304e-23)
(21.1976 -2.78183 -2.07129e-19)
(21.1361 -2.78491 -1.45046e-23)
(21.0737 -2.78746 1.53526e-23)
(27.6319 1.86262 -4.76034e-24)
(27.6504 1.63051 9.33778e-24)
(27.6547 1.40857 -5.96732e-19)
(27.6485 1.19651 0)
(27.6334 0.993997 2.36368e-23)
(27.6099 0.800619 -5.53031e-19)
(27.5783 0.615973 0)
(27.5393 0.439758 0)
(27.4934 0.271613 0)
(27.4413 0.111311 -6.25072e-20)