/*--------------------------------*- C++ -*----------------------------------*\
| =========                 |                                                 |
| \\      /  F ield         | OpenFOAM: The Open Source CFD Toolbox           |
|  \\    /   O peration     | Version:  2412                                  |
|   \\  /    A nd           | Website:  www.openfoam.com                      |
|    \\/     M anipulation  |                                                 |
\*---------------------------------------------------------------------------*/
FoamFile
{
    version     2.0;
    format      ascii;
    arch        "LSB;label=32;scalar=64";
    class       volVectorField;
    location    "220";
    object      U;
}
// * * * * * * * * * * * * * * * * * * * * * * * * * * * * * * * * * * * * * //

dimensions      [0 1 -1 0 0 0 0];

internalField   nonuniform List<vector> 
8702
(
(0.531346 -0.145475 3.64854e-19)
(0.530965 -0.146118 0)
(0.530672 -0.146766 -3.50686e-19)
(0.530465 -0.147419 -3.4387e-19)
(0.530251 -0.148054 0)
(0.530029 -0.148667 -3.30611e-19)
(0.529816 -0.149269 3.09167e-25)
(0.529585 -0.14985 -3.03144e-25)
(0.52934 -0.150413 -3.11648e-19)
(0.529104 -0.150964 0)
(0.528874 -0.151503 2.99446e-19)
(0.52864 -0.152029 -2.93445e-19)
(0.528403 -0.152542 1.34396e-25)
(0.528174 -0.153045 -5.38581e-27)
(0.527944 -0.153536 1.37837e-19)
(0.527725 -0.15402 0)
(0.5275 -0.154491 -1.23096e-25)
(0.527277 -0.154951 1.28965e-19)
(0.52707 -0.155406 6.04881e-27)
(0.526849 -0.155848 9.26035e-27)
(0.526627 -0.156279 0)
(0.526412 -0.156702 -1.16589e-19)
(0.526193 -0.157114 0)
(0.525975 -0.157516 1.09856e-19)
(0.525766 -0.157912 0)
(0.525556 -0.158299 0)
(0.525341 -0.158675 0)
(0.525135 -0.159043 -9.44055e-20)
(0.524932 -0.159402 -1.715e-25)
(0.524727 -0.159752 4.26148e-20)
(0.52453 -0.160095 4.00885e-20)
(0.52434 -0.160432 6.75089e-26)
(0.524145 -0.160756 3.44907e-20)
(0.52396 -0.161074 5.58132e-26)
(0.523779 -0.161385 -5.76071e-26)
(0.523586 -0.161682 -4.90376e-20)
(0.523406 -0.161974 0)
(0.523231 -0.162258 -1.66553e-20)
(0.523057 -0.162532 0)
(0.522892 -0.1628 9.53188e-27)
(0.522726 -0.163058 -9.87938e-27)
(0.522562 -0.163307 -1.4084e-21)
(0.522396 -0.163547 -4.30602e-21)
(0.522229 -0.163777 7.42267e-21)
(0.522076 -0.164002 0)
(0.521925 -0.164219 1.439e-20)
(0.521775 -0.164427 1.82912e-20)
(0.521623 -0.164625 -2.25053e-20)
(0.521471 -0.164814 2.70606e-20)
(0.521315 -0.164994 -1.59941e-20)
(0.521157 -0.165163 -1.35058e-25)
(0.52101 -0.165328 0)
(0.520864 -0.165485 0)
(0.52072 -0.165634 0)
(0.52058 -0.165776 2.52054e-25)
(0.52045 -0.165913 3.58455e-20)
(0.52032 -0.166044 0)
(0.520191 -0.166167 0)
(0.520073 -0.166286 -3.40491e-29)
(0.51998 -0.166405 2.79366e-20)
(0.519896 -0.166522 3.10218e-20)
(0.519813 -0.166633 -3.43803e-20)
(0.519758 -0.166746 -7.60774e-20)
(0.519751 -0.166864 -6.25375e-25)
(0.519815 -0.166996 2.31746e-20)
(0.519919 -0.167142 7.62675e-25)
(0.520033 -0.167296 2.80753e-20)
(0.520111 -0.167442 0)
(0.520226 -0.167577 2.58702e-27)
(0.520608 -0.16776 0)
(0.521448 -0.168056 -2.03053e-20)
(0.522681 -0.168499 2.21763e-20)
(0.523739 -0.168984 4.83469e-20)
(0.524236 -0.16938 -2.63294e-20)
(0.523888 -0.169552 1.77829e-24)
(0.523686 -0.169573 -3.11983e-20)
(0.525552 -0.169959 -2.03863e-24)
(0.530154 -0.170963 -3.28757e-26)
(0.538841 -0.173109 -1.97652e-20)
(0.549456 -0.176397 0)
(0.556952 -0.179578 -2.2543e-20)
(0.559847 -0.182074 0)
(1.64759 -0.451087 -2.93903e-25)
(1.64641 -0.453083 5.94623e-19)
(1.6455 -0.45509 0)
(1.64486 -0.457116 0)
(1.64422 -0.459087 0)
(1.64353 -0.460994 -5.49579e-19)
(1.64287 -0.462856 -5.38845e-19)
(1.64217 -0.464663 2.5643e-25)
(1.64142 -0.466413 5.18019e-19)
(1.6407 -0.468124 -5.07797e-19)
(1.63998 -0.469795 2.41792e-25)
(1.63926 -0.471426 0)
(1.63853 -0.473019 0)
(1.63783 -0.47458 -2.18643e-25)
(1.63712 -0.476106 -2.29052e-19)
(1.63645 -0.477606 -2.18258e-25)
(1.63576 -0.479072 2.19225e-19)
(1.63508 -0.480503 1.99776e-25)
(1.63442 -0.481911 -2.09271e-19)
(1.63375 -0.483283 1.32421e-26)
(1.63309 -0.484626 0)
(1.63243 -0.485939 -1.79887e-25)
(1.63177 -0.487222 1.88168e-19)
(1.63111 -0.488475 -1.82461e-19)
(1.63047 -0.489707 0)
(1.62984 -0.490911 -1.70273e-19)
(1.62919 -0.492081 -3.12088e-25)
(1.62857 -0.493229 1.65893e-25)
(1.62795 -0.494348 0)
(1.62734 -0.49544 -7.0748e-20)
(1.62674 -0.496508 -1.20824e-25)
(1.62616 -0.497553 6.2051e-20)
(1.62558 -0.498568 0)
(1.62501 -0.499557 0)
(1.62446 -0.500525 -8.18216e-26)
(1.62391 -0.50146 9.88227e-26)
(1.62337 -0.502369 0)
(1.62285 -0.503255 5.51212e-20)
(1.62234 -0.504115 -2.02931e-20)
(1.62185 -0.504953 0)
(1.62136 -0.505763 2.06659e-21)
(1.62088 -0.506544 1.80853e-26)
(1.62039 -0.507297 -1.8771e-26)
(1.61992 -0.508024 -1.24264e-20)
(1.61947 -0.508732 0)
(1.61903 -0.509412 0)
(1.61859 -0.510066 -3.05024e-20)
(1.61816 -0.510692 -1.32376e-25)
(1.61773 -0.511293 -4.50841e-20)
(1.61731 -0.511871 5.32774e-20)
(1.6169 -0.512421 0)
(1.61649 -0.512949 -3.5881e-20)
(1.6161 -0.513454 0)
(1.61572 -0.51394 3.71519e-25)
(1.61537 -0.514406 3.02428e-26)
(1.61503 -0.514854 -5.96204e-20)
(1.61471 -0.515284 5.27693e-25)
(1.61441 -0.5157 -3.74192e-20)
(1.61416 -0.516105 4.17349e-20)
(1.61398 -0.516508 -6.22167e-28)
(1.61384 -0.516909 0)
(1.61372 -0.517299 5.71259e-20)
(1.61368 -0.517693 1.26389e-19)
(1.61381 -0.518107 6.97976e-20)
(1.61415 -0.518564 -3.8487e-20)
(1.61464 -0.519071 0)
(1.61517 -0.519606 1.4527e-24)
(1.6156 -0.520121 -3.12687e-24)
(1.61618 -0.520614 5.61834e-20)
(1.61754 -0.521243 0)
(1.62026 -0.522204 3.36825e-20)
(1.62417 -0.523608 0)
(1.62765 -0.525173 -2.02758e-26)
(1.62955 -0.526508 4.36463e-20)
(1.629 -0.527211 0)
(1.62878 -0.527428 -3.17139e-24)
(1.63449 -0.528633 6.85305e-24)
(1.64824 -0.531639 -3.03815e-20)
(1.67398 -0.537966 3.27194e-20)
(1.70572 -0.547787 0)
(1.72903 -0.557612 3.72895e-20)
(1.73911 -0.565619 -3.97705e-20)
(2.8757 -0.787327 0)
(2.87368 -0.790819 -6.72757e-19)
(2.87209 -0.794323 -3.09348e-25)
(2.87098 -0.797862 6.4675e-19)
(2.86988 -0.801307 6.34181e-19)
(2.8687 -0.804642 6.21788e-19)
(2.86755 -0.807894 5.3148e-26)
(2.86636 -0.811056 -5.9778e-19)
(2.8651 -0.814121 5.86077e-19)
(2.86384 -0.817113 5.74508e-19)
(2.8626 -0.820032 -5.63078e-19)
(2.86136 -0.822884 0)
(2.86012 -0.825671 0)
(2.85889 -0.828399 0)
(2.85767 -0.831066 0)
(2.8565 -0.833685 -2.36723e-25)
(2.85533 -0.83625 -2.4801e-19)
(2.85416 -0.838754 2.42407e-19)
(2.85301 -0.84121 2.20556e-25)
(2.85186 -0.843613 2.30993e-19)
(2.85072 -0.845964 -2.09332e-25)
(2.84958 -0.84826 4.17779e-25)
(2.84845 -0.850505 -2.1286e-19)
(2.84733 -0.852702 3.93565e-25)
(2.84623 -0.854855 1.99664e-19)
(2.84513 -0.856962 1.92607e-19)
(2.84403 -0.859013 0)
(2.84295 -0.861019 1.77308e-19)
(2.84189 -0.862977 1.54667e-25)
(2.84086 -0.864893 -8.00212e-20)
(2.83983 -0.866763 -1.50236e-25)
(2.83882 -0.868589 -7.01803e-20)
(2.83784 -0.87037 6.47328e-20)
(2.83686 -0.872104 -5.89009e-20)
(2.83592 -0.873795 0)
(2.83499 -0.875439 4.59653e-20)
(2.83408 -0.877036 -1.47803e-25)
(2.83318 -0.878586 -3.11659e-20)
(2.83231 -0.880096 4.03517e-26)
(2.83149 -0.881567 0)
(2.83066 -0.882989 -2.33667e-21)
(2.82984 -0.88436 -2.73658e-21)
(2.82903 -0.885685 2.12227e-26)
(2.82824 -0.886969 -8.03818e-26)
(2.8275 -0.888215 -2.19335e-26)
(2.82675 -0.889412 2.71481e-20)
(2.82603 -0.890566 3.44796e-20)
(2.82531 -0.891672 4.23984e-20)
(2.82461 -0.892736 -5.09569e-20)
(2.82394 -0.893761 -3.01067e-20)
(2.82329 -0.894745 2.82316e-25)
(2.82265 -0.895687 4.05466e-20)
(2.82203 -0.896591 3.39217e-25)
(2.82145 -0.897464 4.19775e-25)
(2.82092 -0.898307 -4.39531e-25)
(2.82041 -0.899116 -5.32326e-25)
(2.81994 -0.899897 7.55789e-20)
(2.81954 -0.90066 4.22652e-20)
(2.81923 -0.901409 4.71353e-20)
(2.81903 -0.902152 -5.24388e-20)
(2.81891 -0.902894 8.65277e-25)
(2.81887 -0.903627 0)
(2.81896 -0.904365 -7.134e-20)
(2.81933 -0.90514 0)
(2.82009 -0.905993 4.34372e-20)
(2.82114 -0.906941 -4.7826e-20)
(2.82228 -0.907943 0)
(2.82327 -0.908919 -5.77561e-20)
(2.82454 -0.90987 -6.33633e-20)
(2.82713 -0.911041 -4.16105e-24)
(2.83197 -0.912759 4.71863e-24)
(2.83883 -0.915229 -4.9779e-24)
(2.84513 -0.918029 -4.51728e-20)
(2.84892 -0.920497 0)
(2.84867 -0.92195 5.35046e-20)
(2.84884 -0.922532 5.8221e-20)
(2.85855 -0.924623 -7.82713e-24)
(2.88162 -0.929668 8.23845e-24)
(2.9245 -0.940164 -3.68128e-20)
(2.9779 -0.956679 -3.93484e-20)
(3.01856 -0.973714 4.1935e-20)
(3.03772 -0.988048 4.46897e-20)
(4.20341 -1.15083 -7.75455e-19)
(4.20053 -1.15596 -7.36828e-25)
(4.19824 -1.16109 -7.45304e-19)
(4.19662 -1.16626 -7.30797e-19)
(4.19504 -1.17131 -8.69414e-25)
(4.19337 -1.1762 0)
(4.19172 -1.18096 6.88856e-19)
(4.19003 -1.1856 6.75448e-19)
(4.18825 -1.1901 -1.63856e-25)
(4.18646 -1.19448 0)
(4.18468 -1.19876 6.36225e-19)
(4.18291 -1.20294 0)
(4.18113 -1.20703 0)
(4.17937 -1.21102 0)
(4.17762 -1.21493 0)
(4.17592 -1.21877 0)
(4.17424 -1.22252 0)
(4.17256 -1.22619 -5.47743e-19)
(4.17091 -1.22979 -2.67472e-19)
(4.16927 -1.23332 0)
(4.16762 -1.23676 2.5432e-19)
(4.16598 -1.24012 2.47498e-19)
(4.16436 -1.24341 0)
(4.16275 -1.24664 4.31961e-25)
(4.16116 -1.24979 -4.51099e-19)
(4.15958 -1.25288 2.17572e-19)
(4.158 -1.25589 -3.85198e-25)
(4.15644 -1.25882 2.00279e-19)
(4.15492 -1.26169 0)
(4.15343 -1.2645 9.03825e-20)
(4.15195 -1.26724 8.50096e-20)
(4.1505 -1.26992 0)
(4.14908 -1.27253 -7.31072e-20)
(4.14769 -1.27507 6.65184e-20)
(4.14633 -1.27755 -2.08995e-25)
(4.145 -1.27997 -5.19056e-20)
(4.14369 -1.28231 1.85605e-25)
(4.14241 -1.28459 0)
(4.14117 -1.2868 2.59093e-20)
(4.13999 -1.28896 3.97594e-26)
(4.13881 -1.29105 -4.1204e-26)
(4.13764 -1.29306 3.08934e-21)
(4.13649 -1.29501 0)
(4.13538 -1.2969 1.5858e-20)
(4.13432 -1.29873 0)
(4.13328 -1.3005 -3.06396e-20)
(4.13226 -1.3022 5.35753e-26)
(4.13126 -1.30383 -4.78451e-20)
(4.13029 -1.3054 5.74982e-20)
(4.12936 -1.30692 5.49363e-25)
(4.12847 -1.30838 6.35115e-26)
(4.1276 -1.30978 6.65105e-26)
(4.12678 -1.31113 -7.65245e-25)
(4.12602 -1.31243 9.46874e-25)
(4.12532 -1.31369 -9.91326e-25)
(4.12468 -1.3149 0)
(4.12411 -1.31608 -1.29528e-24)
(4.12365 -1.31724 -4.76431e-20)
(4.12332 -1.31837 -5.31275e-20)
(4.12315 -1.3195 0)
(4.12313 -1.32064 0)
(4.12324 -1.32176 0)
(4.12356 -1.3229 8.03573e-20)
(4.12427 -1.32409 2.77266e-24)
(4.12554 -1.32539 -5.97019e-24)
(4.12728 -1.32685 1.0768e-19)
(4.12917 -1.32839 -3.68933e-24)
(4.13091 -1.32991 6.4995e-20)
(4.13306 -1.3314 1.79476e-25)
(4.13703 -1.33318 -9.53573e-24)
(4.14413 -1.33572 5.12162e-24)
(4.15413 -1.33933 0)
(4.16356 -1.34349 5.07548e-20)
(4.16965 -1.34726 -6.8531e-24)
(4.17025 -1.34968 -6.00693e-20)
(4.17121 -1.3508 -8.10391e-24)
(4.1849 -1.35379 8.53209e-24)
(4.21699 -1.3608 -9.47421e-24)
(4.27633 -1.37525 8.25101e-20)
(4.35103 -1.39834 4.40818e-20)
(4.41004 -1.42297 -4.69321e-20)
(4.44019 -1.44437 0)
(5.61456 -1.53719 8.7417e-19)
(5.61086 -1.54407 -8.03993e-25)
(5.60785 -1.55094 8.40171e-19)
(5.60572 -1.55786 -7.98811e-25)
(5.60366 -1.56461 -1.61559e-18)
(5.60151 -1.57117 7.42288e-25)
(5.59939 -1.57755 -7.76513e-19)
(5.59723 -1.58377 0)
(5.59494 -1.58981 -3.85758e-25)
(5.59264 -1.59569 6.84931e-25)
(5.59034 -1.60143 -6.96808e-25)
(5.58803 -1.60703 -6.57282e-25)
(5.58571 -1.61251 2.57775e-26)
(5.58342 -1.61786 6.55845e-25)
(5.58115 -1.6231 0)
(5.57893 -1.62824 6.02899e-25)
(5.57673 -1.63327 -1.20465e-24)
(5.57454 -1.63819 6.1733e-19)
(5.57238 -1.64302 3.01444e-19)
(5.57023 -1.64774 0)
(5.56807 -1.65235 -2.47478e-25)
(5.56592 -1.65686 -2.78913e-19)
(5.5638 -1.66127 2.70981e-19)
(5.5617 -1.66559 -5.15241e-25)
(5.55961 -1.66981 2.54155e-19)
(5.55754 -1.67394 -2.45157e-19)
(5.55546 -1.67797 -4.64589e-25)
(5.55341 -1.68191 -2.25656e-19)
(5.55141 -1.68575 -4.26074e-25)
(5.54945 -1.68952 3.71444e-25)
(5.54751 -1.69319 -1.91539e-19)
(5.54561 -1.69678 8.92907e-20)
(5.54374 -1.70027 -8.2353e-20)
(5.5419 -1.70368 -2.66395e-25)
(5.54012 -1.707 2.74917e-25)
(5.53836 -1.71023 5.8461e-20)
(5.53665 -1.71337 4.93631e-20)
(5.53497 -1.71643 -3.96303e-20)
(5.53335 -1.7194 -2.91758e-20)
(5.53179 -1.72229 4.66994e-26)
(5.53024 -1.72509 4.63919e-26)
(5.52871 -1.72779 0)
(5.52722 -1.73041 1.04043e-20)
(5.52577 -1.73294 1.78508e-20)
(5.52438 -1.7354 2.25684e-25)
(5.52303 -1.73777 3.4483e-20)
(5.5217 -1.74005 -6.02899e-26)
(5.52041 -1.74225 3.79984e-25)
(5.51918 -1.74437 -6.46902e-20)
(5.51799 -1.74641 -5.49664e-25)
(5.51685 -1.74838 0)
(5.51577 -1.75027 8.23233e-25)
(5.51474 -1.7521 -8.60524e-25)
(5.5138 -1.75386 0)
(5.51295 -1.75557 -7.57992e-20)
(5.51219 -1.75723 9.12077e-26)
(5.51154 -1.75884 -1.30695e-24)
(5.51104 -1.76042 1.07063e-19)
(5.51072 -1.76197 0)
(5.51062 -1.76353 0)
(5.51074 -1.76509 0)
(5.51105 -1.76665 0)
(5.51165 -1.76823 -9.0181e-20)
(5.51277 -1.76988 -2.96913e-24)
(5.51463 -1.77167 -5.48586e-20)
(5.51713 -1.77367 2.31677e-26)
(5.51988 -1.77581 -6.63445e-20)
(5.52249 -1.77793 -7.28263e-20)
(5.52564 -1.78002 7.98509e-20)
(5.53108 -1.78247 0)
(5.54048 -1.78585 0)
(5.55365 -1.79063 0)
(5.56639 -1.79623 -5.67601e-20)
(5.57515 -1.80143 6.17523e-20)
(5.57715 -1.80504 2.5951e-25)
(5.57928 -1.80686 -8.76986e-24)
(5.5967 -1.81072 0)
(5.63706 -1.81951 -4.27348e-20)
(5.71132 -1.83744 -9.19213e-20)
(5.80589 -1.86669 0)
(5.88347 -1.89901 -5.21964e-20)
(5.92623 -1.92807 0)
(7.08879 -1.94081 0)
(7.08435 -1.94957 0)
(7.08067 -1.95828 -9.4364e-19)
(7.07802 -1.96702 8.97177e-25)
(7.07552 -1.97558 9.07253e-19)
(7.07292 -1.98388 0)
(7.07039 -1.99199 1.74418e-18)
(7.0678 -1.99988 0)
(7.06505 -2.00754 -1.67661e-18)
(7.06228 -2.01501 7.9815e-25)
(7.05949 -2.02229 0)
(7.05669 -2.0294 0)
(7.05387 -2.03634 -7.73043e-19)
(7.05108 -2.04313 -3.78525e-19)
(7.04832 -2.04978 0)
(7.0456 -2.0563 -6.76966e-25)
(7.04289 -2.06267 6.90951e-25)
(7.04021 -2.06891 -6.9313e-19)
(7.03757 -2.07503 -6.60326e-25)
(7.03492 -2.08101 -3.30198e-19)
(7.03226 -2.08685 -3.21769e-19)
(7.02962 -2.09257 -5.81687e-25)
(7.027 -2.09816 -4.82371e-25)
(7.02441 -2.10363 5.78381e-25)
(7.02182 -2.10898 -2.85288e-19)
(7.01926 -2.11422 -2.75175e-19)
(7.01669 -2.11932 0)
(7.01416 -2.12431 2.53263e-19)
(7.01167 -2.12918 0)
(7.00924 -2.13395 0)
(7.00683 -2.1386 2.14937e-19)
(7.00447 -2.14314 -1.00194e-19)
(7.00214 -2.14757 9.24019e-20)
(6.99987 -2.15189 5.9776e-25)
(6.99765 -2.15609 -6.16837e-25)
(6.99547 -2.16018 4.53828e-25)
(6.99334 -2.16416 -5.53711e-20)
(6.99126 -2.16803 4.44495e-20)
(6.98924 -2.17179 6.54408e-20)
(6.98729 -2.17545 -1.00404e-25)
(6.98537 -2.17899 1.04035e-25)
(6.98348 -2.18242 0)
(6.98163 -2.18574 -1.16637e-20)
(6.97983 -2.18895 -2.00098e-20)
(6.9781 -2.19206 2.89842e-20)
(6.97641 -2.19506 2.96496e-25)
(6.97478 -2.19796 -4.90657e-20)
(6.9732 -2.20075 0)
(6.97168 -2.20344 7.24654e-20)
(6.97022 -2.20603 -1.23123e-24)
(6.96883 -2.20853 0)
(6.96752 -2.21094 0)
(6.96628 -2.21327 6.59331e-20)
(6.96516 -2.21552 -7.4984e-20)
(6.96416 -2.2177 8.48158e-20)
(6.96329 -2.21982 9.54832e-20)
(6.96255 -2.22189 -1.07089e-19)
(6.96201 -2.22391 -1.19708e-19)
(6.96171 -2.22591 -6.67087e-20)
(6.96169 -2.22791 -7.416e-20)
(6.96196 -2.22992 0)
(6.96249 -2.23194 0)
(6.9634 -2.23399 1.00673e-19)
(6.96495 -2.23611 -1.11085e-19)
(6.96742 -2.23842 0)
(6.97071 -2.241 -1.34617e-19)
(6.97436 -2.24376 7.3936e-20)
(6.97792 -2.24653 8.1115e-20)
(6.98214 -2.24925 0)
(6.98905 -2.25238 9.7294e-20)
(7.00065 -2.2566 -1.27483e-23)
(7.01685 -2.26252 5.79419e-20)
(7.03291 -2.26957 -6.30433e-20)
(7.0446 -2.27632 -6.85346e-20)
(7.04851 -2.28129 1.78989e-23)
(7.0522 -2.28398 0)
(7.07294 -2.28863 -8.76463e-20)
(7.12033 -2.29887 9.45715e-20)
(7.20713 -2.31963 5.07626e-20)
(7.31899 -2.35428 -2.66187e-23)
(7.41433 -2.39402 1.15065e-19)
(7.47078 -2.43107 -6.11934e-20)
(8.6018 -2.35505 -1.09745e-18)
(8.5968 -2.36578 0)
(8.59251 -2.3764 2.10938e-18)
(8.58939 -2.38704 -1.93956e-24)
(8.58648 -2.39746 1.01398e-18)
(8.58351 -2.40759 0)
(8.58063 -2.41748 -9.7462e-19)
(8.5777 -2.42712 -1.79022e-24)
(8.57459 -2.43648 1.87361e-18)
(8.57142 -2.4456 1.78381e-24)
(8.56822 -2.45449 0)
(8.56499 -2.46316 0)
(8.56175 -2.47164 1.72754e-18)
(8.55852 -2.47993 8.4587e-19)
(8.5553 -2.48804 -6.49407e-26)
(8.55213 -2.49599 -6.51578e-26)
(8.54898 -2.50376 3.96153e-19)
(8.54585 -2.51137 7.74329e-19)
(8.54276 -2.51883 -3.78077e-19)
(8.53966 -2.52613 7.37692e-19)
(8.53654 -2.53325 0)
(8.53343 -2.54022 0)
(8.53034 -2.54703 -3.39756e-19)
(8.52728 -2.5537 -1.22049e-24)
(8.52423 -2.56022 3.186e-19)
(8.52119 -2.5666 1.04796e-24)
(8.51814 -2.57282 0)
(8.51514 -2.5789 -2.8278e-19)
(8.51219 -2.58483 -8.12351e-26)
(8.50929 -2.59064 -1.27573e-19)
(8.50644 -2.5963 -1.19969e-19)
(8.50362 -2.60183 1.11837e-19)
(8.50085 -2.60722 0)
(8.49814 -2.61248 0)
(8.49549 -2.6176 8.38457e-20)
(8.49289 -2.62258 0)
(8.49035 -2.62743 0)
(8.48786 -2.63213 0)
(8.48544 -2.63671 -7.2995e-20)
(8.48309 -2.64116 2.28792e-25)
(8.48079 -2.64547 0)
(8.47854 -2.64965 -4.34895e-21)
(8.47634 -2.65369 -1.34842e-25)
(8.47419 -2.6576 0)
(8.47211 -2.66138 -3.23029e-20)
(8.47009 -2.66503 -8.61253e-20)
(8.46814 -2.66856 5.46664e-20)
(8.46625 -2.67195 6.71848e-20)
(8.46443 -2.67523 8.07048e-20)
(8.4627 -2.67839 4.76546e-20)
(8.46105 -2.68144 -3.39459e-24)
(8.4595 -2.68438 1.86513e-24)
(8.45804 -2.68722 -7.33621e-20)
(8.45673 -2.68997 8.34099e-20)
(8.45556 -2.69263 -2.98876e-24)
(8.45455 -2.69522 3.5428e-24)
(8.45372 -2.69775 1.19012e-19)
(8.45313 -2.70023 6.64862e-20)
(8.45283 -2.70268 7.40836e-20)
(8.45288 -2.70513 -2.3524e-25)
(8.45329 -2.7076 9.12867e-20)
(8.45404 -2.71009 -1.01017e-19)
(8.45523 -2.71261 -2.23198e-19)
(8.45719 -2.71522 1.23062e-19)
(8.46023 -2.71805 1.65529e-23)
(8.46427 -2.72119 7.44811e-20)
(8.46881 -2.72458 -8.17737e-20)
(8.47332 -2.72801 8.96545e-20)
(8.47861 -2.73139 9.81819e-20)
(8.4869 -2.73518 -2.14731e-19)
(8.50048 -2.74019 0)
(8.51941 -2.74717 1.58645e-23)
(8.53861 -2.75564 1.38749e-19)
(8.55331 -2.76395 0)
(8.55956 -2.77043 -2.02997e-23)
(8.56514 -2.77413 8.87882e-20)
(8.58867 -2.77947 9.60361e-20)
(8.6415 -2.79078 -5.17496e-20)
(8.7378 -2.81352 0)
(8.86333 -2.85249 0)
(8.97437 -2.89901 3.25423e-23)
(9.0447 -2.94402 6.66154e-20)
(10.1264 -2.77247 2.44056e-24)
(10.1211 -2.78525 0)
(10.1163 -2.79784 -1.17216e-18)
(10.1128 -2.81041 -2.2288e-24)
(10.1096 -2.82273 -2.44245e-24)
(10.1063 -2.83472 -1.10471e-18)
(10.1032 -2.84644 -2.10201e-24)
(10.1001 -2.85788 1.06182e-18)
(10.0967 -2.86898 -1.0409e-18)
(10.0932 -2.8798 0)
(10.0897 -2.89034 0)
(10.0862 -2.90063 0)
(10.0826 -2.91068 -9.5957e-19)
(10.079 -2.92051 -4.69818e-19)
(10.0754 -2.93013 -4.59882e-19)
(10.0719 -2.93954 0)
(10.0684 -2.94876 -4.40004e-19)
(10.0649 -2.95777 -4.29993e-19)
(10.0614 -2.9666 4.19878e-19)
(10.0579 -2.97524 -8.19197e-19)
(10.0544 -2.98368 0)
(10.0509 -2.99192 0)
(10.0474 -2.99999 0)
(10.0439 -3.00788 0)
(10.0404 -3.0156 0)
(10.0369 -3.02315 1.82761e-24)
(10.0335 -3.03051 0)
(10.03 -3.03769 3.13837e-19)
(10.0266 -3.04471 1.09475e-24)
(10.0233 -3.05157 1.41556e-19)
(10.02 -3.05827 1.33104e-19)
(10.0168 -3.06481 -1.24071e-19)
(10.0136 -3.07118 0)
(10.0105 -3.07739 7.39925e-25)
(10.0074 -3.08344 -9.29887e-20)
(10.0044 -3.08933 6.74814e-25)
(10.0015 -3.09506 6.84917e-20)
(9.99859 -3.10062 3.57829e-25)
(9.99578 -3.10602 4.04536e-20)
(9.99305 -3.11127 2.48889e-20)
(9.9904 -3.11637 5.3002e-27)
(9.98778 -3.1213 4.81836e-21)
(9.98522 -3.12607 -1.4405e-20)
(9.98272 -3.13069 -3.03951e-25)
(9.98031 -3.13515 6.24293e-25)
(9.97796 -3.13947 4.76689e-20)
(9.97568 -3.14363 0)
(9.97347 -3.14764 -7.43372e-20)
(9.97136 -3.1515 -8.92704e-20)
(9.96934 -3.15523 5.65103e-25)
(9.96742 -3.15883 -6.14127e-20)
(9.96561 -3.1623 0)
(9.96392 -3.16565 8.10533e-20)
(9.96239 -3.1689 -2.70077e-24)
(9.96103 -3.17205 0)
(9.95987 -3.17511 -1.17145e-19)
(9.95893 -3.1781 -2.62545e-19)
(9.95825 -3.18102 -7.33089e-20)
(9.95792 -3.18392 2.92715e-25)
(9.958 -3.18682 -5.81015e-24)
(9.95849 -3.18973 -2.00979e-19)
(9.9594 -3.19268 1.1114e-19)
(9.96084 -3.19566 1.22698e-19)
(9.96314 -3.19874 0)
(9.96667 -3.20206 -7.43938e-20)
(9.97136 -3.20575 -1.01959e-23)
(9.97669 -3.20974 8.96491e-20)
(9.9821 -3.21382 -9.818e-20)
(9.98838 -3.21784 -1.07445e-19)
(9.99789 -3.22226 2.34742e-19)
(10.0131 -3.22797 6.3954e-20)
(10.0343 -3.23587 -4.80975e-25)
(10.0562 -3.24564 1.85594e-23)
(10.0739 -3.25547 0)
(10.0827 -3.26355 0)
(10.0905 -3.26837 -1.92644e-19)
(10.1162 -3.27429 0)
(10.1727 -3.28623 -2.76628e-23)
(10.2751 -3.31004 2.89113e-23)
(10.4098 -3.35206 0)
(10.5333 -3.40429 -6.74855e-20)
(10.6165 -3.4568 3.46986e-23)
(11.6345 -3.18536 1.34819e-18)
(11.629 -3.20023 -1.3214e-18)
(11.624 -3.21481 -2.43011e-24)
(11.6202 -3.22932 4.8449e-24)
(11.6168 -3.24356 -2.49032e-18)
(11.6133 -3.25743 1.22064e-18)
(11.6101 -3.271 0)
(11.6069 -3.28425 -2.34616e-18)
(11.6034 -3.29712 -1.14989e-18)
(11.5998 -3.30966 -8.59835e-24)
(11.5962 -3.32188 4.29219e-24)
(11.5924 -3.33381 4.04807e-24)
(11.5886 -3.34546 -4.12201e-24)
(11.5848 -3.35684 0)
(11.581 -3.36798 5.07837e-19)
(11.5772 -3.37888 0)
(11.5734 -3.38955 4.85817e-19)
(11.5696 -3.39998 -1.61497e-25)
(11.5659 -3.4102 -4.63521e-19)
(11.5621 -3.42019 4.52136e-19)
(11.5582 -3.42995 0)
(11.5544 -3.43949 0)
(11.5506 -3.44882 3.08937e-24)
(11.5467 -3.45795 -3.16525e-24)
(11.5429 -3.46687 0)
(11.5391 -3.47559 3.76304e-19)
(11.5352 -3.48409 2.85166e-24)
(11.5314 -3.49239 -3.20188e-24)
(11.5276 -3.5005 -3.29761e-19)
(11.5239 -3.50842 0)
(11.5202 -3.51616 -3.90292e-24)
(11.5166 -3.52371 1.36783e-19)
(11.513 -3.53107 0)
(11.5095 -3.53824 1.14684e-19)
(11.5061 -3.54522 1.4406e-24)
(11.5028 -3.55202 -1.487e-24)
(11.4995 -3.55862 -7.54514e-20)
(11.4962 -3.56504 7.88207e-25)
(11.4931 -3.57128 -8.15204e-25)
(11.49 -3.57734 -2.74027e-20)
(11.487 -3.58321 2.82948e-25)
(11.4841 -3.5889 -3.16984e-25)
(11.4812 -3.5944 1.58496e-20)
(11.4783 -3.59972 2.71738e-20)
(11.4756 -3.60487 1.37309e-24)
(11.4729 -3.60983 -3.20581e-24)
(11.4703 -3.61462 1.84987e-24)
(11.4678 -3.61924 0)
(11.4654 -3.6237 -9.80516e-20)
(11.4631 -3.62799 -5.78601e-20)
(11.4609 -3.63213 6.74017e-20)
(11.4588 -3.63612 0)
(11.4568 -3.63997 -8.88863e-20)
(11.4551 -3.6437 1.2338e-23)
(11.4535 -3.64732 -1.39381e-23)
(11.4522 -3.65084 1.28288e-19)
(11.4511 -3.65427 1.4367e-19)
(11.4503 -3.65763 8.01727e-20)
(11.4498 -3.66095 -1.12216e-23)
(11.4499 -3.66427 1.98111e-19)
(11.4504 -3.66761 1.09677e-19)
(11.4514 -3.67098 2.96178e-23)
(11.453 -3.6744 -1.59377e-23)
(11.4555 -3.67792 1.84059e-23)
(11.4594 -3.68169 8.0914e-20)
(11.4646 -3.68588 0)
(11.4705 -3.69042 0)
(11.4767 -3.6951 1.0652e-19)
(11.4838 -3.69971 -2.78785e-23)
(11.4943 -3.7047 3.1774e-23)
(11.5107 -3.71098 -6.91312e-20)
(11.5335 -3.71963 -1.5022e-19)
(11.5577 -3.73051 -8.14813e-20)
(11.5779 -3.74176 8.81822e-20)
(11.5894 -3.75143 4.59243e-23)
(11.5995 -3.75742 1.03288e-19)
(11.627 -3.76384 0)
(11.6853 -3.776 -5.98242e-20)
(11.7903 -3.79998 -1.24619e-24)
(11.9296 -3.84368 -1.02591e-24)
(12.0612 -3.90026 6.94002e-23)
(12.1551 -3.95936 0)
(13.099 -3.58631 -5.56662e-24)
(13.0937 -3.60329 2.90679e-18)
(13.0886 -3.61988 5.34524e-24)
(13.0847 -3.63632 -1.0656e-23)
(13.0812 -3.65245 2.73844e-18)
(13.0778 -3.66819 0)
(13.0746 -3.68361 -1.31558e-18)
(13.0715 -3.69866 1.28963e-18)
(13.068 -3.7133 1.26402e-18)
(13.0645 -3.72756 -1.23872e-18)
(13.0608 -3.74146 0)
(13.0571 -3.75503 -4.44862e-24)
(13.0533 -3.76827 1.74425e-25)
(13.0494 -3.78122 5.70083e-19)
(13.0455 -3.79387 -8.51311e-24)
(13.0416 -3.80626 8.32784e-24)
(13.0377 -3.81838 -1.06728e-18)
(13.0337 -3.83022 7.95531e-24)
(13.0298 -3.84183 1.01808e-18)
(13.0258 -3.85317 -3.69704e-24)
(13.0217 -3.86425 1.82829e-25)
(13.0177 -3.87508 4.70511e-19)
(13.0136 -3.88565 -4.56957e-19)
(13.0095 -3.896 -4.42899e-19)
(13.0054 -3.90612 0)
(13.0013 -3.916 -3.04865e-24)
(12.9971 -3.92564 2.05866e-25)
(12.993 -3.93505 -3.79739e-19)
(12.9889 -3.94423 3.61699e-19)
(12.9849 -3.95322 0)
(12.9809 -3.96198 -2.78927e-24)
(12.977 -3.97053 -1.49953e-19)
(12.9731 -3.97886 1.38219e-19)
(12.9693 -3.98698 -1.25684e-19)
(12.9655 -3.99489 -1.1227e-19)
(12.9619 -4.00259 -1.35542e-24)
(12.9583 -4.01006 2.8218e-25)
(12.9547 -4.01733 1.15475e-24)
(12.9513 -4.02439 -5.90486e-25)
(12.9479 -4.03124 6.10963e-25)
(12.9446 -4.03788 -1.28546e-26)
(12.9413 -4.04432 1.33179e-26)
(12.9381 -4.05054 0)
(12.935 -4.05656 -2.97059e-20)
(12.932 -4.06237 0)
(12.929 -4.06798 5.72557e-20)
(12.9261 -4.07338 0)
(12.9233 -4.0786 -2.93322e-24)
(12.9206 -4.08362 2.13976e-19)
(12.918 -4.08846 0)
(12.9155 -4.09312 -4.72554e-24)
(12.9131 -4.09761 4.92789e-24)
(12.9109 -4.10195 9.67832e-20)
(12.9089 -4.10614 1.09899e-19)
(12.9071 -4.1102 7.86361e-24)
(12.9055 -4.11415 -1.39424e-19)
(12.9042 -4.118 -1.90662e-23)
(12.9032 -4.12176 1.03031e-23)
(12.9026 -4.12547 1.21703e-23)
(12.9025 -4.12917 -1.07346e-19)
(12.903 -4.1329 -1.48936e-23)
(12.904 -4.13666 1.31155e-19)
(12.9056 -4.14046 -1.72214e-23)
(12.9082 -4.14436 0)
(12.9122 -4.14853 -8.72798e-20)
(12.9177 -4.15314 -9.562e-20)
(12.9241 -4.15815 1.04693e-19)
(12.9308 -4.16336 -5.50079e-23)
(12.9385 -4.16849 2.98981e-23)
(12.9497 -4.17394 -2.71926e-19)
(12.9668 -4.18067 -7.39038e-20)
(12.9905 -4.18986 8.0157e-20)
(13.0161 -4.20163 8.68078e-20)
(13.0383 -4.21408 -1.87694e-19)
(13.0523 -4.22523 5.03152e-23)
(13.0647 -4.23239 -5.26064e-23)
(13.0934 -4.23923 0)
(13.1521 -4.25126 6.29909e-20)
(13.2565 -4.27465 6.69712e-20)
(13.3958 -4.31877 -7.08294e-20)
(13.5309 -4.37818 7.36944e-23)
(13.6321 -4.44256 -1.54816e-22)
(13.6804 -4.5025 -8.39273e-20)
(14.496 -3.96881 -1.62626e-18)
(14.4913 -3.98791 -1.59353e-18)
(14.4865 -4.00648 1.56176e-18)
(14.4827 -4.02484 0)
(14.4793 -4.04283 -1.50072e-18)
(14.4761 -4.0604 1.47088e-18)
(14.4731 -4.07762 1.44161e-18)
(14.4703 -4.09446 -5.29428e-24)
(14.4671 -4.11084 5.37829e-24)
(14.4638 -4.12681 5.01017e-24)
(14.4603 -4.14237 5.16668e-24)
(14.4568 -4.15755 1.30214e-18)
(14.4531 -4.17238 -4.95973e-24)
(14.4493 -4.18687 -1.24831e-18)
(14.4455 -4.20103 -9.31956e-24)
(14.4417 -4.21488 9.11558e-24)
(14.4378 -4.22843 5.84028e-19)
(14.4338 -4.24167 -5.70563e-19)
(14.4298 -4.25463 -5.56977e-19)
(14.4258 -4.26731 -5.4315e-19)
(14.4217 -4.27968 0)
(14.4175 -4.29177 -5.1459e-19)
(14.4133 -4.30357 4.99692e-19)
(14.409 -4.31512 1.05709e-23)
(14.4048 -4.32641 0)
(14.4004 -4.33744 0)
(14.3961 -4.34819 0)
(14.3917 -4.35868 -3.04831e-24)
(14.3874 -4.36892 2.38261e-25)
(14.3832 -4.37893 2.97402e-24)
(14.379 -4.38871 -1.75723e-19)
(14.3749 -4.39823 2.62678e-24)
(14.3707 -4.40752 -1.50868e-19)
(14.3667 -4.41656 0)
(14.3627 -4.42538 2.44961e-19)
(14.3588 -4.43395 1.47827e-24)
(14.3549 -4.44228 -1.52613e-24)
(14.3512 -4.45037 0)
(14.3475 -4.45823 -5.31299e-20)
(14.3438 -4.46586 -6.65501e-25)
(14.3403 -4.47325 0)
(14.3368 -4.48041 0)
(14.3333 -4.48733 -7.66974e-25)
(14.33 -4.49402 -3.23187e-20)
(14.3266 -4.50048 0)
(14.3234 -4.50671 -6.22294e-20)
(14.3202 -4.51271 -4.34399e-25)
(14.3171 -4.5185 -9.68078e-20)
(14.3142 -4.52406 -1.16102e-19)
(14.3113 -4.52942 6.8449e-20)
(14.3085 -4.53458 -4.61154e-24)
(14.3058 -4.53955 0)
(14.3033 -4.54433 -1.04773e-19)
(14.301 -4.54896 -1.1887e-19)
(14.2989 -4.55343 0)
(14.297 -4.55777 0)
(14.2955 -4.56199 0)
(14.2942 -4.56612 9.38365e-20)
(14.2934 -4.57017 -1.04244e-19)
(14.2931 -4.57421 0)
(14.2933 -4.57826 0)
(14.2941 -4.58234 -2.81489e-19)
(14.2956 -4.58646 -1.54913e-19)
(14.2982 -4.59068 -4.15733e-23)
(14.3021 -4.59515 9.33157e-20)
(14.3076 -4.60009 2.04214e-19)
(14.3141 -4.60548 -1.11566e-19)
(14.321 -4.6111 -2.43455e-19)
(14.3291 -4.61664 6.47729e-23)
(14.3405 -4.62245 2.88329e-19)
(14.3578 -4.62945 7.81685e-20)
(14.3817 -4.63897 8.46926e-20)
(14.4079 -4.65135 -9.14809e-20)
(14.4314 -4.66474 1.97343e-19)
(14.4474 -4.67718 -5.27983e-23)
(14.4617 -4.6854 5.50683e-23)
(14.4911 -4.69256 0)
(14.5488 -4.70421 6.4794e-23)
(14.6501 -4.72643 -6.96788e-20)
(14.7855 -4.76988 -3.35029e-24)
(14.9195 -4.83063 7.7248e-20)
(15.024 -4.89874 -8.14757e-20)
(15.079 -4.96427 -1.11526e-22)
(15.8065 -4.32759 2.80593e-23)
(15.8026 -4.34877 1.7452e-18)
(15.7984 -4.36931 -1.42176e-23)
(15.795 -4.38953 0)
(15.792 -4.40934 1.64279e-18)
(15.7891 -4.42869 -3.21981e-18)
(15.7866 -4.44767 -1.57764e-18)
(15.7842 -4.46626 1.20056e-23)
(15.7815 -4.48435 1.51494e-18)
(15.7787 -4.50198 1.48422e-18)
(15.7757 -4.51917 0)
(15.7725 -4.53594 -1.42388e-18)
(15.7692 -4.55232 0)
(15.7658 -4.56832 1.36458e-18)
(15.7622 -4.58396 9.97652e-24)
(15.7586 -4.59925 -1.01714e-23)
(15.7549 -4.61419 6.38115e-19)
(15.7511 -4.62879 6.23317e-19)
(15.7473 -4.64308 -4.27338e-25)
(15.7433 -4.65705 5.93145e-19)
(15.7393 -4.67069 5.7763e-19)
(15.7351 -4.684 8.79125e-24)
(15.7309 -4.697 0)
(15.7267 -4.70972 1.05684e-18)
(15.7223 -4.72214 5.10734e-19)
(15.7179 -4.73427 4.92268e-19)
(15.7135 -4.7461 6.96629e-24)
(15.709 -4.75764 -4.52349e-19)
(15.7046 -4.76889 0)
(15.7003 -4.77991 2.03733e-19)
(15.696 -4.79065 6.11378e-24)
(15.6916 -4.80112 0)
(15.6874 -4.81133 0)
(15.6832 -4.82128 4.24593e-24)
(15.6791 -4.83096 -1.33278e-19)
(15.675 -4.84038 -1.16186e-19)
(15.671 -4.84954 9.79683e-20)
(15.667 -4.85842 0)
(15.6631 -4.86705 5.77322e-20)
(15.6593 -4.87543 0)
(15.6556 -4.88355 0)
(15.6519 -4.8914 6.86567e-21)
(15.6483 -4.899 -2.04704e-20)
(15.6447 -4.90633 3.50383e-20)
(15.6411 -4.91341 0)
(15.6377 -4.92022 0)
(15.6342 -4.92679 -8.53832e-20)
(15.6309 -4.93311 1.04708e-19)
(15.6276 -4.93919 8.17847e-24)
(15.6245 -4.94504 -7.39333e-20)
(15.6214 -4.95065 -1.10566e-23)
(15.6184 -4.95606 -9.88965e-20)
(15.6156 -4.96125 -2.75909e-23)
(15.6129 -4.96626 -1.25876e-24)
(15.6105 -4.9711 -1.3186e-24)
(15.6083 -4.97578 1.9075e-23)
(15.6064 -4.98033 -1.80698e-19)
(15.6047 -4.98476 -1.00573e-19)
(15.6035 -4.98909 1.11569e-19)
(15.6029 -4.99339 -1.23483e-19)
(15.6027 -4.9977 1.36293e-19)
(15.6032 -5.00203 -2.66853e-24)
(15.6043 -5.00638 1.64889e-19)
(15.6065 -5.01081 1.80929e-19)
(15.6102 -5.01549 -4.94487e-23)
(15.6153 -5.02063 -6.66345e-25)
(15.6215 -5.02626 5.64372e-23)
(15.6283 -5.03217 1.28485e-19)
(15.6363 -5.03798 -1.364e-22)
(15.6475 -5.04399 -1.51305e-19)
(15.6644 -5.0511 -8.20467e-20)
(15.6877 -5.0607 9.7419e-25)
(15.7136 -5.07339 9.46794e-23)
(15.7375 -5.08741 -9.50753e-23)
(15.7546 -5.10082 0)
(15.7703 -5.1099 -1.18526e-19)
(15.7998 -5.11727 0)
(15.8554 -5.12833 1.33227e-22)
(15.9516 -5.14898 -2.77928e-22)
(16.0801 -5.19094 7.48739e-20)
(16.2089 -5.25171 1.67296e-22)
(16.3124 -5.32192 8.28322e-20)
(16.3707 -5.39144 1.3857e-22)
(17.0157 -4.65866 1.95341e-18)
(17.0131 -4.6819 -1.91315e-18)
(17.0098 -4.70436 -1.87422e-18)
(17.0072 -4.7264 0)