/*--------------------------------*- C++ -*----------------------------------*\
| =========                 |                                                 |
| \\      /  F ield         | OpenFOAM: The Open Source CFD Toolbox           |
|  \\    /   O peration     | Version:  2412                                  |
|   \\  /    A nd           | Website:  www.openfoam.com                      |
|    \\/     M anipulation  |                                                 |
\*---------------------------------------------------------------------------*/
FoamFile
{
    version     2.0;
    format      ascii;
    arch        "LSB;label=32;scalar=64";
    class       volScalarField;
    location    "480";
    object      nut;
}
// * * * * * * * * * * * * * * * * * * * * * * * * * * * * * * * * * * * * * //

dimensions      [0 2 -1 0 0 0 0];

internalField   nonuniform List<scalar> 
7418
(
1.37673e-13
4.31429e-13
5.76853e-13
5.7361e-13
5.72258e-13
5.51133e-13
5.61126e-12
1.2641e-11
1.25133e-11
9.72539e-12
8.31224e-12
7.62108e-12
7.32745e-12
7.36373e-12
7.61377e-12
7.82318e-12
7.88099e-12
7.84213e-12
7.70893e-12
7.56055e-12
7.47849e-12
7.45828e-12
7.48463e-12
7.52214e-12
7.54234e-12
7.5491e-12
7.55206e-12
7.5646e-12
7.58707e-12
7.61486e-12
7.6435e-12
7.67234e-12
7.70297e-12
7.73587e-12
7.77153e-12
7.80871e-12
7.84748e-12
7.88776e-12
7.92918e-12
7.97134e-12
8.01448e-12
8.05879e-12
8.10386e-12
8.14955e-12
8.1956e-12
8.24206e-12
8.28907e-12
8.33653e-12
8.38329e-12
8.42951e-12
8.47637e-12
8.52288e-12
8.56909e-12
8.61511e-12
8.66003e-12
8.70518e-12
8.74998e-12
8.79418e-12
8.83748e-12
8.87937e-12
8.92098e-12
8.96256e-12
9.00277e-12
9.04164e-12
9.08049e-12
9.11868e-12
9.15628e-12
9.19282e-12
9.22815e-12
9.26367e-12
9.29877e-12
9.33278e-12
9.36683e-12
9.39976e-12
9.43099e-12
9.46271e-12
9.49356e-12
9.52381e-12
9.55376e-12
9.58302e-12
9.61265e-12
6.25734e-14
1.22244e-13
1.33269e-11
3.88181e-11
5.20941e-11
5.30387e-11
5.14362e-11
5.39346e-11
5.56937e-10
1.15678e-09
1.13667e-09
9.11884e-10
7.90962e-10
7.31144e-10
7.06488e-10
7.10588e-10
7.32391e-10
7.50202e-10
7.54802e-10
7.50802e-10
7.38778e-10
7.25719e-10
7.18635e-10
7.17089e-10
7.19569e-10
7.22953e-10
7.248e-10
7.25504e-10
7.25931e-10
7.27225e-10
7.29434e-10
7.32097e-10
7.34845e-10
7.37631e-10
7.4057e-10
7.43768e-10
7.47195e-10
7.50762e-10
7.54481e-10
7.58342e-10
7.6231e-10
7.66364e-10
7.70529e-10
7.74764e-10
7.79081e-10
7.83468e-10
7.87872e-10
7.92332e-10
7.96836e-10
8.0136e-10
8.05868e-10
8.1034e-10
8.14824e-10
8.1929e-10
8.23714e-10
8.28127e-10
8.32467e-10
8.36782e-10
8.41054e-10
8.45284e-10
8.4945e-10
8.53489e-10
8.5748e-10
8.61432e-10
8.65308e-10
8.69083e-10
8.72811e-10
8.76462e-10
8.80047e-10
8.83566e-10
8.86993e-10
8.90378e-10
8.9372e-10
8.9701e-10
9.0026e-10
9.03429e-10
9.06445e-10
9.09469e-10
9.12432e-10
9.15334e-10
9.18209e-10
9.2105e-10
9.23898e-10
5.8779e-12
1.14038e-11
1.3621e-10
3.4567e-10
4.64743e-10
4.89655e-10
4.57881e-10
6.2988e-10
5.73262e-09
1.04974e-08
1.02331e-08
8.60092e-09
7.63315e-09
7.14908e-09
6.95828e-09
7.00488e-09
7.186e-09
7.32651e-09
7.35669e-09
7.31396e-09
7.20889e-09
7.09999e-09
7.04272e-09
7.03305e-09
7.05653e-09
7.08652e-09
7.10333e-09
7.11095e-09
7.11724e-09
7.13139e-09
7.15342e-09
7.17935e-09
7.20627e-09
7.2337e-09
7.26263e-09
7.29415e-09
7.32775e-09
7.36268e-09
7.39898e-09
7.43664e-09
7.47533e-09
7.51496e-09
7.55572e-09
7.59708e-09
7.63925e-09
7.6821e-09
7.72519e-09
7.76874e-09
7.81259e-09
7.85663e-09
7.90071e-09
7.94456e-09
7.98829e-09
8.03187e-09
8.07511e-09
8.11809e-09
8.16065e-09
8.20274e-09
8.24435e-09
8.28553e-09
8.32618e-09
8.36588e-09
8.40486e-09
8.44332e-09
8.48115e-09
8.51818e-09
8.55456e-09
8.59012e-09
8.6252e-09
8.6597e-09
8.69326e-09
8.72615e-09
8.75882e-09
8.79116e-09
8.82283e-09
8.85379e-09
8.88337e-09
8.91285e-09
8.94174e-09
8.96997e-09
8.99812e-09
9.0261e-09
9.05395e-09
5.61171e-11
1.0785e-10
7.39924e-10
1.52193e-09
2.04411e-09
2.23884e-09
2.03108e-09
4.35331e-09
2.96246e-08
4.71055e-08
4.57507e-08
4.05993e-08
3.7034e-08
3.52412e-08
3.45925e-08
3.4845e-08
3.55346e-08
3.60241e-08
3.60856e-08
3.58601e-08
3.54222e-08
3.50005e-08
3.47914e-08
3.47761e-08
3.48863e-08
3.50144e-08
3.50898e-08
3.51321e-08
3.51751e-08
3.52533e-08
3.53644e-08
3.54919e-08
3.56239e-08
3.57595e-08
3.59036e-08
3.60594e-08
3.62246e-08
3.63962e-08
3.65743e-08
3.67588e-08
3.69489e-08
3.71438e-08
3.73434e-08
3.75466e-08
3.77533e-08
3.79631e-08
3.81749e-08
3.83886e-08
3.86035e-08
3.88193e-08
3.90351e-08
3.92501e-08
3.94647e-08
3.96785e-08
3.98911e-08
4.01021e-08
4.03109e-08
4.05177e-08
4.07218e-08
4.09236e-08
4.11226e-08
4.1318e-08
4.15098e-08
4.16988e-08
4.18842e-08
4.20655e-08
4.22446e-08
4.24197e-08
4.2592e-08
4.27612e-08
4.29259e-08
4.30879e-08
4.32486e-08
4.34073e-08
4.35632e-08
4.37155e-08
4.38608e-08
4.40055e-08
4.41473e-08
4.42861e-08
4.44243e-08
4.4562e-08
4.46989e-08
2.69661e-10
5.15973e-10
3.11115e-09
4.75467e-09
6.34582e-09
7.2273e-09
6.50265e-09
2.20132e-08
1.07424e-07
1.49015e-07
1.45117e-07
1.36508e-07
1.28328e-07
1.24263e-07
1.23056e-07
1.23947e-07
1.25545e-07
1.26484e-07
1.26372e-07
1.25552e-07
1.24344e-07
1.23316e-07
1.22869e-07
1.22937e-07
1.23299e-07
1.23671e-07
1.23908e-07
1.24078e-07
1.24276e-07
1.24583e-07
1.24982e-07
1.25428e-07
1.2589e-07
1.2637e-07
1.2688e-07
1.27428e-07
1.28006e-07
1.28607e-07
1.29229e-07
1.29873e-07
1.30538e-07
1.3122e-07
1.31917e-07
1.32626e-07
1.33348e-07
1.3408e-07
1.34819e-07
1.35566e-07
1.36316e-07
1.37069e-07
1.37822e-07
1.38573e-07
1.39323e-07
1.4007e-07
1.40813e-07
1.4155e-07
1.42279e-07
1.43002e-07
1.43715e-07
1.44421e-07
1.45116e-07
1.45799e-07
1.46471e-07
1.47131e-07
1.47779e-07
1.48414e-07
1.4904e-07
1.49654e-07
1.50257e-07
1.50847e-07
1.51424e-07
1.51993e-07
1.52555e-07
1.5311e-07
1.53655e-07
1.5419e-07
1.547e-07
1.55205e-07
1.55701e-07
1.56189e-07
1.56673e-07
1.57155e-07
1.57633e-07
9.32643e-10
1.85483e-09
1.12808e-08
1.22348e-08
1.60795e-08
1.89765e-08
1.97036e-08
9.07516e-08
3.09724e-07
3.82127e-07
3.75694e-07
3.75025e-07
3.63828e-07
3.58687e-07
3.58217e-07
3.60477e-07
3.62474e-07
3.6286e-07
3.61602e-07
3.5929e-07
3.56901e-07
3.55335e-07
3.54928e-07
3.55475e-07
3.56415e-07
3.57246e-07
3.57848e-07
3.58407e-07
3.59121e-07
3.60096e-07
3.61266e-07
3.62533e-07
3.63849e-07
3.6523e-07
3.66701e-07
3.68269e-07
3.69919e-07
3.7163e-07
3.73402e-07
3.75237e-07
3.77126e-07
3.79063e-07
3.81044e-07
3.83061e-07
3.85111e-07
3.87189e-07
3.89291e-07
3.91411e-07
3.93541e-07
3.95678e-07
3.97817e-07
3.99954e-07
4.02087e-07
4.04211e-07
4.06321e-07
4.08415e-07
4.1049e-07
4.12544e-07
4.14577e-07
4.16582e-07
4.18559e-07
4.20502e-07
4.22415e-07
4.24296e-07
4.26143e-07
4.27951e-07
4.29731e-07
4.31479e-07
4.33195e-07
4.34877e-07
4.36522e-07
4.38145e-07
4.39748e-07
4.41328e-07
4.42881e-07
4.44407e-07
4.45862e-07
4.47303e-07
4.48716e-07
4.50109e-07
4.51491e-07
4.52863e-07
4.54225e-07
2.69475e-09
6.29077e-09
3.62453e-08
3.06129e-08
3.5981e-08
4.37191e-08
6.20774e-08
3.21975e-07
7.54762e-07
8.52735e-07
8.51284e-07
9.00592e-07
9.01776e-07
9.0475e-07
9.10327e-07
9.14424e-07
9.12725e-07
9.08061e-07
9.02764e-07
8.97452e-07
8.94406e-07
8.94015e-07
8.95205e-07
8.97404e-07
8.99466e-07
9.00946e-07
9.02265e-07
9.0386e-07
9.06019e-07
9.08696e-07
9.11673e-07
9.14799e-07
9.18055e-07
9.2151e-07
9.25194e-07
9.29094e-07
9.33178e-07
9.37407e-07
9.41789e-07
9.46323e-07
9.50983e-07
9.55756e-07
9.6064e-07
9.65612e-07
9.70665e-07
9.75787e-07
9.80964e-07
9.86189e-07
9.91439e-07
9.96707e-07
1.00198e-06
1.00725e-06
1.01251e-06
1.01775e-06
1.02295e-06
1.02811e-06
1.03324e-06
1.03831e-06
1.04332e-06
1.04827e-06
1.05315e-06
1.05795e-06
1.06267e-06
1.06732e-06
1.07189e-06
1.07636e-06
1.08076e-06
1.08508e-06
1.08932e-06
1.09347e-06
1.09755e-06
1.10156e-06
1.10552e-06
1.10943e-06
1.11327e-06
1.11705e-06
1.12065e-06
1.12421e-06
1.12771e-06
1.13116e-06
1.13458e-06
1.13798e-06
1.14135e-06
7.18239e-09
1.99144e-08
1.05619e-07
8.0278e-08
7.49986e-08
9.33609e-08
1.93429e-07
9.71376e-07
1.61339e-06
1.7271e-06
1.75647e-06
1.96371e-06
2.02698e-06
2.06645e-06
2.09142e-06
2.0954e-06
2.07689e-06
2.05479e-06
2.03886e-06
2.02885e-06
2.02884e-06
2.03569e-06
2.04313e-06
2.04974e-06
2.05367e-06
2.05572e-06
2.05835e-06
2.06244e-06
2.06814e-06
2.07469e-06
2.08149e-06
2.08842e-06
2.09567e-06
2.10344e-06
2.11173e-06
2.12045e-06
2.12953e-06
2.13892e-06
2.14864e-06
2.15869e-06
2.16902e-06
2.17959e-06
2.1904e-06
2.2014e-06
2.21258e-06
2.22392e-06
2.23537e-06
2.24693e-06
2.25854e-06
2.2702e-06
2.28188e-06
2.29353e-06
2.30517e-06
2.31676e-06
2.32828e-06
2.33973e-06
2.35108e-06
2.36232e-06
2.37343e-06
2.38439e-06
2.3952e-06
2.40584e-06
2.41632e-06
2.42663e-06
2.43674e-06
2.44667e-06
2.45643e-06
2.46602e-06
2.47543e-06
2.48465e-06
2.4937e-06
2.50261e-06
2.51141e-06
2.52005e-06
2.52857e-06
2.53699e-06
2.54501e-06
2.55292e-06
2.56068e-06
2.56835e-06
2.57595e-06
2.5835e-06
2.59099e-06
1.9276e-08
5.89958e-08
2.83567e-07
2.07748e-07
1.54171e-07
1.99392e-07
5.8361e-07
2.41332e-06
3.10636e-06
3.26382e-06
3.38408e-06
3.98212e-06
4.22271e-06
4.36048e-06
4.42838e-06
4.42221e-06
4.35672e-06
4.29153e-06
4.25337e-06
4.23881e-06
4.25296e-06
4.28171e-06
4.30572e-06
4.32204e-06
4.32858e-06
4.3305e-06
4.33547e-06
4.34504e-06
4.35842e-06
4.3729e-06
4.38707e-06
4.40113e-06
4.41591e-06
4.43188e-06
4.44891e-06
4.4667e-06
4.48512e-06
4.50415e-06
4.52385e-06
4.54418e-06
4.56507e-06
4.58645e-06
4.60828e-06
4.63049e-06
4.65307e-06
4.67596e-06
4.69908e-06
4.72239e-06
4.74582e-06
4.76936e-06
4.79292e-06
4.81645e-06
4.83993e-06
4.86332e-06
4.88659e-06
4.90972e-06
4.93262e-06
4.95533e-06
4.97778e-06
4.99992e-06
5.02176e-06
5.04327e-06
5.06445e-06
5.08529e-06
5.10573e-06
5.12579e-06
5.14553e-06
5.16493e-06
5.18395e-06
5.20261e-06
5.22091e-06
5.23893e-06
5.2567e-06
5.27414e-06
5.29135e-06
5.30844e-06
5.32466e-06
5.34065e-06
5.35636e-06
5.37186e-06
5.38723e-06
5.4025e-06
5.41761e-06
5.1105e-08
1.64237e-07
7.04198e-07
5.1494e-07
3.48051e-07
4.74353e-07
1.68217e-06
5.05163e-06
5.50511e-06
5.86741e-06
6.20408e-06
7.63241e-06
8.25038e-06
8.57831e-06
8.70983e-06
8.66429e-06
8.5003e-06
8.35382e-06
8.28067e-06
8.26938e-06
8.32169e-06
8.39873e-06
8.45616e-06
8.48959e-06
8.49884e-06
8.49926e-06
8.50867e-06
8.52906e-06
8.55707e-06
8.58584e-06
8.61268e-06
8.63878e-06
8.66635e-06
8.69635e-06
8.72827e-06
8.76138e-06
8.7955e-06
8.83069e-06
8.86709e-06
8.90464e-06
8.94316e-06
8.98254e-06
9.02275e-06
9.06365e-06
9.10518e-06
9.14729e-06
9.18979e-06
9.23264e-06
9.27571e-06
9.31895e-06
9.36223e-06
9.40547e-06
9.44862e-06
9.49161e-06
9.53437e-06
9.57685e-06
9.61895e-06
9.66066e-06
9.70188e-06
9.74255e-06
9.78269e-06
9.82221e-06
9.8611e-06
9.89937e-06
9.93692e-06
9.97376e-06
1.001e-05
1.00456e-05
1.00805e-05
1.01148e-05
1.01484e-05
1.01814e-05
1.0214e-05
1.02459e-05
1.02773e-05
1.03088e-05
1.03385e-05
1.03678e-05
1.03966e-05
1.04249e-05
1.0453e-05
1.0481e-05
1.05085e-05
1.33172e-07
4.2981e-07
1.62398e-06
1.20599e-06
8.09477e-07
1.17765e-06
4.56079e-06
9.25657e-06
9.13052e-06
1.01732e-05
1.10149e-05
1.39436e-05
1.51441e-05
1.57153e-05
1.58859e-05
1.57441e-05
1.54253e-05
1.51683e-05
1.5062e-05
1.50785e-05
1.52059e-05
1.53624e-05
1.54694e-05
1.55251e-05
1.55356e-05
1.55339e-05
1.5552e-05
1.5591e-05
1.56424e-05
1.56927e-05
1.57382e-05
1.5782e-05
1.58286e-05
1.58794e-05
1.59332e-05
1.59887e-05
1.60456e-05
1.61042e-05
1.61648e-05
1.62272e-05
1.62912e-05
1.63565e-05
1.64231e-05
1.64909e-05
1.65596e-05
1.66293e-05
1.66995e-05
1.67703e-05
1.68415e-05
1.69129e-05
1.69844e-05
1.70558e-05
1.7127e-05
1.7198e-05
1.72685e-05
1.73386e-05
1.74081e-05
1.74768e-05
1.75447e-05
1.76118e-05
1.76779e-05
1.7743e-05
1.78071e-05
1.787e-05
1.79318e-05
1.79925e-05
1.80521e-05
1.81106e-05
1.8168e-05
1.82242e-05
1.82793e-05
1.83335e-05
1.83867e-05
1.84387e-05
1.84901e-05
1.85418e-05
1.85904e-05
1.86382e-05
1.86851e-05
1.87313e-05
1.87771e-05
1.88225e-05
1.88671e-05
3.37468e-07
1.05897e-06
3.48784e-06
2.65498e-06
1.85402e-06
2.91447e-06
1.12187e-05
1.53136e-05
1.45342e-05
1.71591e-05
1.92054e-05
2.41862e-05
2.59354e-05
2.66524e-05
2.6762e-05
2.64572e-05
2.59625e-05
2.56107e-05
2.55059e-05
2.55925e-05
2.58298e-05
2.60806e-05
2.62381e-05
2.63127e-05
2.63221e-05
2.63211e-05
2.63549e-05
2.64206e-05
2.65021e-05
2.6579e-05
2.66474e-05
2.67134e-05
2.67839e-05
2.68609e-05
2.69418e-05
2.70249e-05
2.71099e-05
2.71973e-05
2.72875e-05
2.73804e-05
2.74754e-05
2.75723e-05
2.7671e-05
2.77714e-05
2.78732e-05
2.79762e-05
2.80801e-05
2.81847e-05
2.82899e-05
2.83953e-05
2.85009e-05
2.86062e-05
2.87113e-05
2.8816e-05
2.892e-05
2.90233e-05
2.91256e-05
2.92268e-05
2.93268e-05
2.94255e-05
2.95228e-05
2.96185e-05
2.97127e-05
2.98052e-05
2.98959e-05
2.99848e-05
3.00722e-05
3.0158e-05
3.02419e-05
3.03241e-05
3.04045e-05
3.04836e-05
3.0561e-05
3.06363e-05
3.07107e-05
3.07861e-05
3.08567e-05
3.09259e-05
3.09937e-05
3.10604e-05
3.11263e-05
3.11915e-05
3.12552e-05
8.26481e-07
2.45319e-06
6.97813e-06
5.47519e-06
4.10682e-06
7.0141e-06
2.12093e-05
2.34774e-05
2.26195e-05
2.81829e-05
3.25299e-05
3.92815e-05
4.11741e-05
4.179e-05
4.1704e-05
4.12016e-05
4.05735e-05
4.01989e-05
4.01585e-05
4.03573e-05
4.07137e-05
4.10412e-05
4.12289e-05
4.13105e-05
4.13176e-05
4.13247e-05
4.13822e-05
4.14796e-05
4.15927e-05
4.16964e-05
4.17883e-05
4.18783e-05
4.1975e-05
4.20798e-05
4.21895e-05
4.23015e-05
4.24159e-05
4.25334e-05
4.26547e-05
4.27792e-05
4.29065e-05
4.30362e-05
4.31683e-05
4.33024e-05
4.34384e-05
4.35759e-05
4.37145e-05
4.38541e-05
4.39942e-05
4.41347e-05
4.42752e-05
4.44155e-05
4.45555e-05
4.46947e-05
4.4833e-05
4.49703e-05
4.51062e-05
4.52407e-05
4.53733e-05
4.55042e-05
4.56333e-05
4.57601e-05
4.58848e-05
4.60072e-05
4.61271e-05
4.62446e-05
4.636e-05
4.6473e-05
4.65834e-05
4.66914e-05
4.67971e-05
4.69005e-05
4.70014e-05
4.70992e-05
4.71957e-05
4.72942e-05
4.7386e-05
4.74756e-05
4.75631e-05
4.76489e-05
4.77335e-05
4.78169e-05
4.78978e-05
1.94857e-06
5.31931e-06
1.29822e-05
1.05377e-05
8.66828e-06
1.60053e-05
3.37795e-05
3.41005e-05
3.46655e-05
4.45891e-05
5.18511e-05
5.91815e-05
6.06822e-05
6.09364e-05
6.05621e-05
5.98871e-05
5.92215e-05
5.8924e-05
5.90096e-05
5.93383e-05
5.97882e-05
6.01478e-05
6.0333e-05
6.04076e-05
6.04145e-05
6.04393e-05
6.05264e-05
6.06553e-05
6.07957e-05
6.09217e-05
6.10347e-05
6.11473e-05
6.12688e-05
6.13996e-05
6.15354e-05
6.16736e-05
6.18148e-05
6.19598e-05
6.21092e-05
6.22624e-05
6.24188e-05
6.25781e-05
6.27401e-05
6.29046e-05
6.30712e-05
6.32396e-05
6.34092e-05
6.358e-05
6.37514e-05
6.39231e-05
6.40948e-05
6.42662e-05
6.44371e-05
6.4607e-05
6.47757e-05
6.4943e-05
6.51086e-05
6.52724e-05
6.54339e-05
6.55931e-05
6.57499e-05
6.5904e-05
6.60553e-05
6.62035e-05
6.63487e-05
6.64908e-05
6.66301e-05
6.67663e-05
6.68992e-05
6.70289e-05
6.71554e-05
6.7279e-05
6.73989e-05
6.75144e-05
6.76281e-05
6.77448e-05
6.78534e-05
6.79586e-05
6.8061e-05
6.8161e-05
6.8259e-05
6.83551e-05
6.84476e-05
4.39751e-06
1.07381e-05
2.24032e-05
1.88637e-05
1.71901e-05
3.33855e-05
4.80836e-05
4.76739e-05
5.20895e-05
6.67778e-05
7.6428e-05
8.29849e-05
8.37467e-05
8.34876e-05
8.2815e-05
8.20424e-05
8.14492e-05
8.1313e-05
8.15567e-05
8.19998e-05
8.24939e-05
8.28347e-05
8.29874e-05
8.30458e-05
8.30578e-05
8.31084e-05
8.32268e-05
8.33823e-05
8.35422e-05
8.3684e-05
8.38138e-05
8.39457e-05
8.40884e-05
8.42407e-05
8.43977e-05
8.45572e-05
8.47201e-05
8.48875e-05
8.50596e-05
8.52359e-05
8.54158e-05
8.55988e-05
8.57848e-05
8.59736e-05
8.61647e-05
8.63576e-05
8.6552e-05
8.67475e-05
8.69436e-05
8.71402e-05
8.73365e-05
8.75324e-05
8.77277e-05
8.79217e-05
8.81142e-05
8.8305e-05
8.84938e-05
8.86803e-05
8.88641e-05
8.90451e-05
8.92232e-05
8.93981e-05
8.95695e-05
8.97373e-05
8.99014e-05
9.00617e-05
9.02186e-05
9.03716e-05
9.05205e-05
9.06654e-05
9.08064e-05
9.09434e-05
9.10755e-05
9.12018e-05
9.13257e-05
9.14533e-05
9.15719e-05
9.16859e-05
9.1796e-05
9.19028e-05
9.20067e-05
9.21077e-05
9.22038e-05
9.41291e-06
2.0067e-05
3.58205e-05
3.1355e-05
3.18125e-05
5.51086e-05
6.37665e-05
6.46553e-05
7.54521e-05
9.37875e-05
0.000104593
0.000109608
0.000109537
0.000108746
0.000107833
0.000107054
0.000106619
0.000106686
0.000107084
0.000107603
0.00010809
0.000108372
0.000108475
0.000108515
0.000108539
0.00010862
0.000108767
0.000108943
0.000109114
0.000109266
0.000109408
0.000109556
0.000109716
0.000109884
0.000110057
0.000110233
0.000110413
0.000110597
0.000110787
0.000110981
0.000111178
0.000111379
0.000111583
0.00011179
0.000111999
0.000112211
0.000112423
0.000112637
0.000112851
0.000113066
0.000113281
0.000113494
0.000113707
0.000113919
0.000114129
0.000114336
0.000114542
0.000114744
0.000114944
0.00011514
0.000115333
0.000115522
0.000115707
0.000115888
0.000116064
0.000116236
0.000116404
0.000116567
0.000116725
0.000116878
0.000117027
0.00011717
0.000117307
0.000117437
0.000117564
0.000117694
0.000117815
0.00011793
0.000118041
0.000118146
0.000118248
0.000118345
0.000118436
1.88255e-05
3.46333e-05
5.31997e-05
4.84768e-05
5.41376e-05
7.76531e-05
8.08553e-05
8.51989e-05
0.00010371
0.000124075
0.000134945
0.000138273
0.00013744
0.000136186
0.000135119
0.00013441
0.000134176
0.000134449
0.000134971
0.000135524
0.000135964
0.000136167
0.000136214
0.00013624
0.00013628
0.000136393
0.000136566
0.000136755
0.000136932
0.000137089
0.000137242
0.000137403
0.000137577
0.000137759
0.000137944
0.000138132
0.000138325
0.000138523
0.000138726
0.000138933
0.000139144
0.000139358
0.000139576
0.000139797
0.00014002
0.000140245
0.000140471
0.000140698
0.000140926
0.000141154
0.000141382
0.000141609
0.000141834
0.000142058
0.00014228
0.000142499
0.000142716
0.000142929
0.000143139
0.000143345
0.000143548
0.000143746
0.000143939
0.000144127
0.00014431
0.000144488
0.000144661
0.000144828
0.00014499
0.000145146
0.000145295
0.000145439
0.000145574
0.000145701
0.000145822
0.000145947
0.000146064
0.000146172
0.000146275
0.000146371
0.000146461
0.000146546
0.000146622
3.47085e-05
5.51548e-05
7.38806e-05
7.00556e-05
8.49804e-05
9.95059e-05
9.95783e-05
0.000109289
0.000135134
0.000156472
0.000166815
0.000168633
0.000167183
0.000165566
0.000164424
0.000163834
0.00016381
0.000164265
0.000164874
0.000165423
0.000165792
0.000165909
0.000165905
0.000165923
0.000165984
0.000166128
0.000166322
0.00016652
0.000166699
0.000166861
0.000167023
0.000167196
0.000167382
0.000167575
0.00016777
0.000167969
0.000168173
0.000168382
0.000168597
0.000168815
0.000169037
0.000169263
0.000169492
0.000169724
0.000169958
0.000170194
0.000170431
0.000170669
0.000170908
0.000171146
0.000171384
0.000171621
0.000171856
0.000172089
0.000172319
0.000172547
0.000172771
0.000172992
0.000173208
0.000173421
0.000173628
0.000173831
0.000174028
0.000174219
0.000174404
0.000174583
0.000174756
0.000174923
0.000175082
0.000175235
0.00017538
0.000175517
0.000175645
0.000175761
0.00017587
0.00017598
0.000176085
0.000176179
0.000176265
0.000176343
0.000176413
0.000176475
0.000176527
5.51173e-05
8.11492e-05
9.68842e-05
9.55369e-05
0.000115881
0.000120379
0.000120285
0.000136817
0.000168468
0.000190483
0.000200133
0.00020072
0.000198785
0.00019691
0.000195752
0.0001953
0.000195472
0.000196074
0.000196735
0.000197254
0.000197542
0.000197576
0.000197528
0.000197543
0.000197628
0.000197801
0.000198013
0.000198217
0.000198398
0.000198564
0.000198735
0.00019892
0.000199117
0.000199321
0.000199526
0.000199736
0.00019995
0.00020017
0.000200395
0.000200624
0.000200857
0.000201093
0.000201332
0.000201574
0.000201818
0.000202064
0.000202311
0.000202558
0.000202806
0.000203053
0.000203299
0.000203543
0.000203785
0.000204025
0.000204262
0.000204495
0.000204724
0.000204949
0.000205169
0.000205384
0.000205594
0.000205797
0.000205994
0.000206184
0.000206367
0.000206543
0.000206711
0.000206871
0.000207023
0.000207166
0.000207301
0.000207425
0.000207537
0.000207635
0.000207723
0.000207807
0.000207891
0.000207962
0.000208022
0.00020807
0.000208108
0.000208135
0.00020815
7.72808e-05
0.000108913
0.000121375
0.000124679
0.000144747
0.000140898
0.000143321
0.000167494
0.000203342
0.000226111
0.000235157
0.000234804
0.000232436
0.00023043
0.000229288
0.000228976
0.000229316
0.000230031
0.000230714
0.000231186
0.00023139
0.000231347
0.000231263
0.000231281
0.00023139
0.000231591
0.000231819
0.000232027
0.00023221
0.00023238
0.000232561
0.000232759
0.000232968
0.000233182
0.000233398
0.000233618
0.000233843
0.000234074
0.00023431
0.000234549
0.000234792
0.000235038
0.000235288
0.000235539
0.000235793
0.000236047
0.000236303
0.000236558
0.000236813
0.000237067
0.00023732
0.00023757
0.000237818
0.000238062
0.000238303
0.000238539
0.00023877
0.000238996
0.000239216
0.00023943
0.000239637
0.000239837
0.000240029
0.000240213
0.000240388
0.000240555
0.000240712
0.000240859
0.000240996
0.000241122
0.000241237
0.000241339
0.000241427
0.000241497
0.000241553
0.000241598
0.00024165
0.000241683
0.000241704
0.000241709
0.0002417
0.000241676
0.000241637
0.000100212
0.000135256
0.000146868
0.000157924
0.000170881
0.000161827
0.000169083
0.000201065
0.000240139
0.000263622
0.000272247
0.000271258
0.000268486
0.000266435
0.000265323
0.000265137
0.000265615
0.00026641
0.000267092
0.000267508
0.000267629
0.000267518
0.000267407
0.00026743
0.000267564
0.00026779
0.000268031
0.000268244
0.000268428
0.000268605
0.000268796
0.000269006
0.000269228
0.000269453
0.000269679
0.00026991
0.000270146
0.000270388
0.000270634
0.000270884
0.000271137
0.000271393
0.000271652
0.000271912
0.000272174
0.000272436
0.000272699
0.000272961
0.000273221
0.000273481
0.000273738
0.000273991
0.000274241
0.000274487
0.000274728
0.000274963
0.000275192
0.000275415
0.00027563
0.000275838
0.000276037
0.000276227
0.000276407
0.000276578
0.000276738
0.000276887
0.000277024
0.000277149
0.000277261
0.00027736
0.000277445
0.000277513
0.000277563
0.000277593
0.000277602
0.000123848
0.00016019
0.000173278
0.000196439
0.000194925
0.000184008
0.000197829
0.000237334
0.00027926
0.0003034
0.00031179
0.000310436
0.000307321
0.000305262
0.000304183
0.000304103
0.000304688
0.000305534
0.000306198
0.000306553
0.000306598
0.000306428
0.000306297
0.000306326
0.000306483
0.000306732
0.000306984
0.000307201
0.000307387
0.000307571
0.000307773
0.000307997
0.00030823
0.000308466
0.000308703
0.000308944
0.000309191
0.000309444
0.0003097
0.000309959
0.000310221
0.000310486
0.000310752
0.00031102
0.000311288
0.000311556
0.000311823
0.000312089
0.000312352
0.000312613
0.00031287
0.000313123
0.000313371
0.000313614
0.000313849
0.000314078
0.000314299
0.000314511
0.000314714
0.000314908
0.000315091
0.000315263
0.000315423
0.00031557
0.000315704
0.000315824
0.00031593
0.00031602
0.000316094
0.000316151
0.00031619
0.000316209
0.000316205
0.000316175
0.00031612
0.000148642
0.000184349
0.00020075
0.000231914
0.000217644
0.000208132
0.000229759
0.000276563
0.000321054
0.000345853
0.0003542
0.000352676
0.00034933
0.000347231
0.000346187
0.000346188
0.00034685
0.000347725
0.000348359
0.000348653
0.000348627
0.000348407
0.000348262
0.000348297
0.000348476
0.000348745
0.000349007
0.000349226
0.000349415
0.000349606
0.00034982
0.000350055
0.0003503
0.000350546
0.000350793
0.000351044
0.000351301
0.000351563
0.000351828
0.000352095
0.000352364
0.000352634
0.000352906
0.000353177
0.000353448
0.000353718
0.000353986
0.000354251
0.000354512
0.00035477
0.000355022
0.000355268
0.000355507
0.000355738
0.000355961
0.000356174
0.000356378
0.000356571
0.000356752
0.000356921
0.000357076
0.000357218
0.000357344
0.000357454
0.000357548
0.000357625
0.000357682
0.000357721
0.000357739
0.000357735
0.000357709
0.000357657
0.000357576
0.000357464
0.000357321
0.000175304
0.000208397
0.00022987
0.000263444
0.000240138
0.000234806
0.000265273
0.000319057
0.000365819
0.000391328
0.000399777
0.000398223
0.000394793
0.000392619
0.00039161
0.000391669
0.000392381
0.000393266
0.000393864
0.000394099
0.000394012
0.000393748
0.000393593
0.000393636
0.000393833
0.000394118
0.000394388
0.00039461
0.000394802
0.000394999
0.000395223
0.00039547
0.000395725
0.000395979
0.000396234
0.000396493
0.000396758
0.000397026
0.000397297
0.000397569
0.000397841
0.000398114
0.000398386
0.000398657
0.000398926
0.000399192
0.000399454
0.000399712
0.000399964
0.00040021
0.000400448
0.000400678
0.000400899
0.000401109
0.000401309
0.000401496
0.00040167
0.00040183
0.000401976
0.000402105
0.000402218
0.000402313
0.000402388
0.000402444
0.000402479
0.000402491
0.00040248
0.000402444
0.000402383
0.000402294
0.000402176
0.000402026
0.000401841
0.000401618
0.000401356
0.000204672
0.000232848
0.000261706
0.000292
0.000263371
0.000264613
0.000304897
0.000365056
0.000413799
0.000440076
0.000448731
0.000447273
0.000443867
0.000441643
0.000440669
0.000440765
0.000441506
0.000442387
0.000442943
0.000443125
0.000442984
0.000442686
0.000442523
0.000442572
0.000442784
0.000443082
0.000443358
0.000443581
0.000443775
0.000443978
0.00044421
0.000444466
0.000444729
0.00044499
0.00044525
0.000445514
0.000445783
0.000446054
0.000446326
0.000446598
0.000446868
0.000447138
0.000447405
0.000447669
0.000447928
0.000448183
0.000448431
0.000448672
0.000448905
0.000449129
0.000449342
0.000449544
0.000449734
0.00044991
0.000450071
0.000450217
0.000450346
0.000450456
0.000450548
0.00045062
0.00045067
0.000450697
0.0004507
0.000450678
0.000450629
0.000450553
0.000450446
0.000450308
0.000450138
0.000449933
0.000449692
0.00044941
0.000449085
0.000448714
0.000448297
0.000237628
0.000257888
0.00029852
0.000318561
0.000288312
0.000298195
0.000348866
0.000414701
0.000465169
0.000492244
0.00050119
0.000499946
0.000496639
0.000494442
0.000493501
0.000493619
0.000494371
0.000495236
0.00049575
0.000495884
0.000495698
0.000495373
0.000495205
0.000495259
0.000495482
0.00049579
0.000496069
0.000496293
0.000496487
0.000496693
0.000496932
0.000497193
0.00049746
0.000497724
0.000497985
0.00049825
0.000498518
0.000498787
0.000499054
0.000499319
0.000499581
0.000499839
0.000500093
0.00050034
0.00050058
0.000500812
0.000501035
0.000501248
0.000501449
0.000501637
0.000501812
0.000501971
0.000502113
0.000502237
0.000502342
0.000502427
0.00050249
0.00050253
0.000502546
0.000502536
0.000502499
0.000502432
0.000502335
0.000502206
0.000502044
0.000501847
0.000501611
0.000501337
0.000501022
0.000500663
0.000500258
0.000499804
0.000499296
0.000498733
0.000498115
0.000274998
0.000283119
0.000334174
0.000344008
0.000315817
0.000336011
0.000397159
0.000468058
0.000520014
0.000547883
0.000557193
0.000556283
0.000553167
0.000551053
0.000550154
0.000550284
0.000551034
0.000551873
0.000552344
0.000552435
0.000552214
0.000551869
0.0005517
0.000551756
0.000551988
0.000552301
0.000552581
0.000552803
0.000552995
0.000553202
0.000553443
0.000553706
0.000553973
0.000554233
0.000554491
0.00055475
0.00055501
0.000555269
0.000555524
0.000555774
0.000556018
0.000556255
0.000556483
0.000556703
0.000556911
0.000557108
0.000557292
0.000557461
0.000557614
0.000557749
0.000557866
0.000557962
0.000558037
0.000558088
0.000558114
0.000558115
0.000558087
0.00055803
0.000557942
0.000557822
0.000557666
0.000557474
0.000557244
0.000556974
0.000556662
0.000556305
0.000555901
0.000555449
0.000554945
0.000554387
0.000553772
0.000553095
0.000552354
0.000551546
0.000550673
0.000317592
0.000307632
0.000371393
0.000369406
0.000346533
0.000378369
0.000449827
0.000525088
0.00057832
0.00060695
0.000616684
0.000616219
0.000613391
0.000611412
0.000610571
0.000610708
0.000611442
0.000612248
0.000612675
0.00061273
0.000612483
0.000612127
0.00061196
0.000612017
0.000612252
0.000612567
0.000612844
0.000613061
0.000613249
0.000613453
0.000613691
0.00061395
0.000614209
0.000614461
0.000614707
0.000614953
0.000615197
0.000615437
0.000615669
0.000615892
0.000616106
0.000616309
0.0006165
0.000616676
0.000616838
0.000616983
0.000617109
0.000617216
0.000617301
0.000617363
0.0006174
0.00061741
0.000617392
0.000617344
0.000617264
0.000617151
0.000617002
0.000616816
0.000616592
0.000616325
0.000616016
0.00061566
0.000615257
0.000614803
0.000614298
0.000613737
0.000613117
0.000612437
0.000611693
0.000610883
0.000610001
0.000609045
0.00060801
0.000606895
0.0006057
0.000366472
0.000345865
0.000408867
0.000395884
0.000380895
0.000425415
0.000506797
0.000585645
0.000639974
0.000669304
0.000679515
0.000679562
0.000677117
0.000675332
0.000674573
0.000674714
0.000675424
0.000676188
0.000676571
0.000676596
0.000676332
0.000675974
0.00067581
0.000675867
0.0006761
0.000676412
0.000676682
0.000676892
0.000677072
0.000677267
0.000677495
0.000677743
0.000677988
0.000678222
0.000678448
0.00067867
0.000678887
0.000679095
0.000679292
0.000679475
0.000679644
0.000679798
0.000679934
0.00068005
0.000680145
0.000680217
0.000680265
0.000680287
0.00068028
0.000680243
0.000680173
0.000680069
0.000679929
0.000679751
0.000679532
0.000679271
0.000678965
0.000678613
0.000678212
0.000677759
0.000677251
0.000676687
0.000676063
0.000675378
0.000674627
0.000673808
0.000672917
0.000671952
0.000670908
0.000669782
0.000668569
0.000667265
0.000665866
0.000664371
0.000662779
0.000422474
0.000393417
0.000450566
0.000424551
0.000419425
0.000477436
0.000567815
0.000649488
0.00070473
0.000734708
0.000745497
0.000745989
0.000744017
0.000742487
0.000741838
0.000741986
0.000742662
0.000743377
0.000743717
0.000743717
0.000743446
0.000743093
0.000742934
0.000742988
0.000743215
0.000743518
0.000743776
0.000743973
0.000744139
0.00074432
0.000744531
0.000744758
0.000744979
0.000745185
0.000745378
0.000745564
0.00074574
0.000745903
0.000746048
0.000746175
0.000746281
0.000746366
0.000746426
0.00074646
0.000746466
0.000746442
0.000746386
0.000746295
0.000746167
0.000746
0.000745792
0.000745541
0.000745244
0.000744898
0.000744501
0.000744052
0.000743547
0.000742983
0.000742359
0.000741671
0.000740915
0.00074009
0.000739191
0.000738216
0.00073716
0.000736021
0.000734794
0.000733475
0.000732061
0.000730547
0.000728927
0.000727197
0.000725353
0.000723392
0.000721313
0.00048628
0.000451493
0.000495243
0.000456252
0.000462422
0.00053429
0.000632461
0.000716239
0.000772165
0.000802709
0.000814223
0.000815032
0.00081361
0.000812393
0.000811884
0.000812043
0.000812679
0.000813339
0.000813636
0.000813613
0.000813346
0.000813006
0.000812846
0.000812893
0.00081311
0.000813396
0.000813636
0.000813814
0.00081396
0.000814117
0.000814301
0.000814495
0.00081468
0.000814844
0.000814991
0.000815125
0.000815244
0.000815343
0.000815418
0.000815467