/*--------------------------------*- C++ -*----------------------------------*\
| =========                 |                                                 |
| \\      /  F ield         | OpenFOAM: The Open Source CFD Toolbox           |
|  \\    /   O peration     | Version:  2412                                  |
|   \\  /    A nd           | Website:  www.openfoam.com                      |
|    \\/     M anipulation  |                                                 |
\*---------------------------------------------------------------------------*/
FoamFile
{
    version     2.0;
    format      ascii;
    arch        "LSB;label=32;scalar=64";
    class       volScalarField;
    location    "480";
    object      nuTilda;
}
// * * * * * * * * * * * * * * * * * * * * * * * * * * * * * * * * * * * * * //

dimensions      [0 2 -1 0 0 0 0];

internalField   nonuniform List<scalar> 
7418
(
6.32197e-07
8.41138e-07
9.04495e-07
9.03222e-07
9.02689e-07
8.9424e-07
1.59737e-06
1.95698e-06
1.95202e-06
1.83281e-06
1.76226e-06
1.72443e-06
1.70757e-06
1.70968e-06
1.72401e-06
1.73575e-06
1.73894e-06
1.7368e-06
1.72937e-06
1.72099e-06
1.7163e-06
1.71514e-06
1.71666e-06
1.7188e-06
1.71995e-06
1.72034e-06
1.72051e-06
1.72122e-06
1.7225e-06
1.72407e-06
1.72569e-06
1.72732e-06
1.72904e-06
1.73088e-06
1.73287e-06
1.73494e-06
1.73709e-06
1.73932e-06
1.7416e-06
1.74391e-06
1.74626e-06
1.74867e-06
1.75111e-06
1.75357e-06
1.75605e-06
1.75853e-06
1.76103e-06
1.76355e-06
1.76601e-06
1.76844e-06
1.7709e-06
1.77332e-06
1.77572e-06
1.7781e-06
1.78041e-06
1.78273e-06
1.78502e-06
1.78727e-06
1.78946e-06
1.79158e-06
1.79368e-06
1.79576e-06
1.79777e-06
1.79971e-06
1.80164e-06
1.80353e-06
1.80539e-06
1.80719e-06
1.80892e-06
1.81066e-06
1.81237e-06
1.81403e-06
1.81568e-06
1.81727e-06
1.81878e-06
1.82031e-06
1.82179e-06
1.82324e-06
1.82467e-06
1.82607e-06
1.82747e-06
5.19084e-07
6.13687e-07
1.983e-06
2.5906e-06
2.7883e-06
2.80085e-06
2.77945e-06
2.81261e-06
5.04201e-06
6.05304e-06
6.02656e-06
5.70351e-06
5.50421e-06
5.39704e-06
5.35095e-06
5.35869e-06
5.39934e-06
5.43187e-06
5.44018e-06
5.43296e-06
5.41107e-06
5.387e-06
5.3738e-06
5.37091e-06
5.37555e-06
5.38186e-06
5.38529e-06
5.3866e-06
5.38739e-06
5.38979e-06
5.39388e-06
5.3988e-06
5.40386e-06
5.40897e-06
5.41435e-06
5.42019e-06
5.42642e-06
5.43289e-06
5.4396e-06
5.44655e-06
5.45366e-06
5.4609e-06
5.4683e-06
5.4758e-06
5.48342e-06
5.49112e-06
5.49882e-06
5.50659e-06
5.5144e-06
5.52221e-06
5.52996e-06
5.53761e-06
5.54526e-06
5.55284e-06
5.56033e-06
5.56776e-06
5.57504e-06
5.58225e-06
5.58936e-06
5.59638e-06
5.60326e-06
5.60991e-06
5.61646e-06
5.62292e-06
5.62924e-06
5.63537e-06
5.6414e-06
5.64729e-06
5.65306e-06
5.6587e-06
5.66418e-06
5.66958e-06
5.67489e-06
5.68011e-06
5.68525e-06
5.69024e-06
5.69499e-06
5.69973e-06
5.70437e-06
5.7089e-06
5.71338e-06
5.71779e-06
5.72221e-06
1.61602e-06
1.90723e-06
3.54566e-06
4.47522e-06
4.81896e-06
4.88229e-06
4.80107e-06
5.19957e-06
9.03228e-06
1.0508e-05
1.04412e-05
9.997e-06
9.7029e-06
9.54517e-06
9.4808e-06
9.49665e-06
9.55748e-06
9.60389e-06
9.61377e-06
9.59977e-06
9.56509e-06
9.52874e-06
9.50945e-06
9.50619e-06
9.51411e-06
9.52421e-06
9.52986e-06
9.53242e-06
9.53452e-06
9.53926e-06
9.54663e-06
9.55527e-06
9.56422e-06
9.57331e-06
9.58288e-06
9.59326e-06
9.6043e-06
9.61573e-06
9.62757e-06
9.6398e-06
9.65232e-06
9.6651e-06
9.67818e-06
9.69141e-06
9.70484e-06
9.71843e-06
9.73203e-06
9.74573e-06
9.75946e-06
9.77319e-06
9.78688e-06
9.80044e-06
9.81391e-06
9.82727e-06
9.84048e-06
9.85356e-06
9.86645e-06
9.87916e-06
9.89167e-06
9.90401e-06
9.91614e-06
9.92795e-06
9.9395e-06
9.95086e-06
9.96199e-06
9.97285e-06
9.98349e-06
9.99386e-06
1.00041e-05
1.0014e-05
1.00237e-05
1.00332e-05
1.00426e-05
1.00519e-05
1.00609e-05
1.00697e-05
1.00781e-05
1.00865e-05
1.00947e-05
1.01026e-05
1.01105e-05
1.01184e-05
1.01262e-05
2.84064e-06
3.34464e-06
5.41317e-06
6.48282e-06
6.97907e-06
7.1397e-06
6.96792e-06
8.43142e-06
1.36235e-05
1.53018e-05
1.51903e-05
1.47424e-05
1.44069e-05
1.42289e-05
1.41629e-05
1.41887e-05
1.42585e-05
1.43074e-05
1.43136e-05
1.42911e-05
1.42472e-05
1.42045e-05
1.41832e-05
1.41817e-05
1.41929e-05
1.42059e-05
1.42136e-05
1.42179e-05
1.42222e-05
1.42301e-05
1.42414e-05
1.42542e-05
1.42675e-05
1.42811e-05
1.42954e-05
1.4311e-05
1.43274e-05
1.43443e-05
1.43619e-05
1.438e-05
1.43986e-05
1.44176e-05
1.44369e-05
1.44566e-05
1.44765e-05
1.44966e-05
1.45168e-05
1.45371e-05
1.45574e-05
1.45778e-05
1.4598e-05
1.46181e-05
1.46381e-05
1.46579e-05
1.46776e-05
1.4697e-05
1.47161e-05
1.4735e-05
1.47536e-05
1.47718e-05
1.47898e-05
1.48074e-05
1.48246e-05
1.48414e-05
1.4858e-05
1.4874e-05
1.48899e-05
1.49053e-05
1.49205e-05
1.49353e-05
1.49497e-05
1.49638e-05
1.49778e-05
1.49915e-05
1.5005e-05
1.50181e-05
1.50306e-05
1.5043e-05
1.50551e-05
1.5067e-05
1.50788e-05
1.50905e-05
1.51021e-05
4.20583e-06
4.94661e-06
7.752e-06
8.61946e-06
9.26481e-06
9.57119e-06
9.32156e-06
1.26474e-05
1.88164e-05
2.04288e-05
2.02931e-05
1.99836e-05
1.96757e-05
1.95173e-05
1.94695e-05
1.95048e-05
1.95676e-05
1.96043e-05
1.96e-05
1.95679e-05
1.95205e-05
1.94798e-05
1.9462e-05
1.94647e-05
1.94791e-05
1.94939e-05
1.95033e-05
1.951e-05
1.95178e-05
1.95299e-05
1.95456e-05
1.95631e-05
1.95812e-05
1.95999e-05
1.96197e-05
1.9641e-05
1.96633e-05
1.96865e-05
1.97103e-05
1.9735e-05
1.97603e-05
1.97862e-05
1.98126e-05
1.98393e-05
1.98663e-05
1.98937e-05
1.99212e-05
1.99488e-05
1.99765e-05
2.00042e-05
2.00318e-05
2.00591e-05
2.00864e-05
2.01134e-05
2.01401e-05
2.01666e-05
2.01926e-05
2.02184e-05
2.02437e-05
2.02686e-05
2.02931e-05
2.03171e-05
2.03405e-05
2.03635e-05
2.03861e-05
2.04081e-05
2.04296e-05
2.04508e-05
2.04714e-05
2.04916e-05
2.05113e-05
2.05307e-05
2.05497e-05
2.05685e-05
2.05869e-05
2.06049e-05
2.0622e-05
2.06389e-05
2.06555e-05
2.06717e-05
2.06878e-05
2.07038e-05
2.07196e-05
5.7357e-06
6.81155e-06
1.06989e-05
1.09184e-05
1.16912e-05
1.21861e-05
1.23013e-05
1.80365e-05
2.45619e-05
2.59004e-05
2.57894e-05
2.57778e-05
2.55811e-05
2.54893e-05
2.54808e-05
2.55214e-05
2.5557e-05
2.55639e-05
2.55415e-05
2.55001e-05
2.54572e-05
2.54289e-05
2.54215e-05
2.54314e-05
2.54484e-05
2.54634e-05
2.54742e-05
2.54843e-05
2.54971e-05
2.55145e-05
2.55355e-05
2.55581e-05
2.55815e-05
2.5606e-05
2.5632e-05
2.56597e-05
2.56887e-05
2.57186e-05
2.57496e-05
2.57815e-05
2.58143e-05
2.58477e-05
2.58818e-05
2.59163e-05
2.59513e-05
2.59867e-05
2.60223e-05
2.6058e-05
2.60938e-05
2.61296e-05
2.61652e-05
2.62007e-05
2.6236e-05
2.62709e-05
2.63056e-05
2.63398e-05
2.63736e-05
2.64069e-05
2.64397e-05
2.6472e-05
2.65038e-05
2.65348e-05
2.65653e-05
2.65952e-05
2.66244e-05
2.6653e-05
2.6681e-05
2.67084e-05
2.67353e-05
2.67615e-05
2.67871e-05
2.68123e-05
2.68371e-05
2.68614e-05
2.68853e-05
2.69087e-05
2.6931e-05
2.6953e-05
2.69746e-05
2.69957e-05
2.70167e-05
2.70375e-05
2.7058e-05
7.4784e-06
9.24464e-06
1.43294e-05
1.37359e-05
1.43032e-05
1.50184e-05
1.63978e-05
2.48036e-05
3.07814e-05
3.1754e-05
3.17403e-05
3.21997e-05
3.22105e-05
3.22376e-05
3.22882e-05
3.23253e-05
3.23099e-05
3.22677e-05
3.22195e-05
3.2171e-05
3.21431e-05
3.21395e-05
3.21504e-05
3.21706e-05
3.21894e-05
3.22029e-05
3.2215e-05
3.22295e-05
3.22492e-05
3.22735e-05
3.23004e-05
3.23287e-05
3.2358e-05
3.23891e-05
3.24221e-05
3.2457e-05
3.24934e-05
3.25309e-05
3.25697e-05
3.26097e-05
3.26507e-05
3.26925e-05
3.27351e-05
3.27784e-05
3.28221e-05
3.28663e-05
3.29108e-05
3.29556e-05
3.30003e-05
3.30451e-05
3.30897e-05
3.31342e-05
3.31783e-05
3.32222e-05
3.32655e-05
3.33084e-05
3.33509e-05
3.33927e-05
3.34339e-05
3.34744e-05
3.35142e-05
3.35533e-05
3.35916e-05
3.36291e-05
3.36659e-05
3.37018e-05
3.3737e-05
3.37716e-05
3.38053e-05
3.38383e-05
3.38705e-05
3.39022e-05
3.39335e-05
3.39641e-05
3.39942e-05
3.40238e-05
3.40519e-05
3.40796e-05
3.41067e-05
3.41334e-05
3.41599e-05
3.41861e-05
3.4212e-05
9.55628e-06
1.23341e-05
1.87366e-05
1.749e-05
1.7194e-05
1.81652e-05
2.18141e-05
3.28283e-05
3.73992e-05
3.80637e-05
3.82302e-05
3.93521e-05
3.96776e-05
3.98771e-05
4.00019e-05
4.00217e-05
3.99294e-05
3.98185e-05
3.9738e-05
3.96871e-05
3.96871e-05
3.97219e-05
3.97596e-05
3.9793e-05
3.98128e-05
3.98232e-05
3.98364e-05
3.9857e-05
3.98856e-05
3.99184e-05
3.99524e-05
3.9987e-05
4.00231e-05
4.00616e-05
4.01026e-05
4.01457e-05
4.01904e-05
4.02364e-05
4.0284e-05
4.03329e-05
4.03831e-05
4.04343e-05
4.04865e-05
4.05394e-05
4.05929e-05
4.0647e-05
4.07015e-05
4.07563e-05
4.08111e-05
4.0866e-05
4.09207e-05
4.09751e-05
4.10293e-05
4.1083e-05
4.11363e-05
4.1189e-05
4.12411e-05
4.12925e-05
4.13431e-05
4.13929e-05
4.14419e-05
4.14899e-05
4.1537e-05
4.15833e-05
4.16286e-05
4.16728e-05
4.17163e-05
4.17588e-05
4.18004e-05
4.18411e-05
4.18809e-05
4.192e-05
4.19586e-05
4.19963e-05
4.20334e-05
4.207e-05
4.21048e-05
4.2139e-05
4.21726e-05
4.22056e-05
4.22383e-05
4.22707e-05
4.23028e-05
1.22339e-05
1.61898e-05
2.40211e-05
2.22098e-05
2.06042e-05
2.19814e-05
2.88331e-05
4.15236e-05
4.43694e-05
4.49527e-05
4.53851e-05
4.73912e-05
4.81399e-05
4.85557e-05
4.87573e-05
4.8739e-05
4.85444e-05
4.83487e-05
4.82333e-05
4.8189e-05
4.8232e-05
4.83191e-05
4.83915e-05
4.84406e-05
4.84602e-05
4.8466e-05
4.84809e-05
4.85095e-05
4.85495e-05
4.85927e-05
4.86349e-05
4.86766e-05
4.87204e-05
4.87676e-05
4.88178e-05
4.88701e-05
4.89242e-05
4.89798e-05
4.90372e-05
4.90963e-05
4.91569e-05
4.92186e-05
4.92815e-05
4.93453e-05
4.94098e-05
4.94751e-05
4.95409e-05
4.96069e-05
4.9673e-05
4.97393e-05
4.98053e-05
4.98711e-05
4.99365e-05
5.00015e-05
5.00659e-05
5.01297e-05
5.01927e-05
5.0255e-05
5.03164e-05
5.03767e-05
5.04361e-05
5.04943e-05
5.05516e-05
5.06077e-05
5.06626e-05
5.07164e-05
5.07692e-05
5.08209e-05
5.08715e-05
5.0921e-05
5.09694e-05
5.1017e-05
5.10638e-05
5.11097e-05
5.11548e-05
5.11996e-05
5.12419e-05
5.12836e-05
5.13245e-05
5.13647e-05
5.14045e-05
5.1444e-05
5.14831e-05
1.56175e-05
2.09345e-05
3.02428e-05
2.79318e-05
2.52962e-05
2.73567e-05
3.7805e-05
5.05169e-05
5.17075e-05
5.26126e-05
5.34211e-05
5.65644e-05
5.78067e-05
5.84421e-05
5.86926e-05
5.86061e-05
5.82924e-05
5.80088e-05
5.78661e-05
5.7844e-05
5.79462e-05
5.80961e-05
5.82072e-05
5.82717e-05
5.82895e-05
5.82903e-05
5.83084e-05
5.83476e-05
5.84014e-05
5.84565e-05
5.85078e-05
5.85575e-05
5.861e-05
5.8667e-05
5.87275e-05
5.87901e-05
5.88545e-05
5.89207e-05
5.8989e-05
5.90593e-05
5.91312e-05
5.92045e-05
5.92792e-05
5.93549e-05
5.94316e-05
5.95091e-05
5.95872e-05
5.96656e-05
5.97442e-05
5.98229e-05
5.99014e-05
5.99797e-05
6.00575e-05
6.01349e-05
6.02116e-05
6.02876e-05
6.03627e-05
6.04369e-05
6.051e-05
6.0582e-05
6.06529e-05
6.07225e-05
6.07908e-05
6.08579e-05
6.09235e-05
6.09878e-05
6.10509e-05
6.11127e-05
6.11733e-05
6.12325e-05
6.12904e-05
6.13474e-05
6.14033e-05
6.1458e-05
6.15119e-05
6.15657e-05
6.16164e-05
6.16663e-05
6.17151e-05
6.17632e-05
6.18109e-05
6.18582e-05
6.19047e-05
1.98598e-05
2.66822e-05
3.74625e-05
3.4699e-05
3.13352e-05
3.44878e-05
4.91445e-05
5.97093e-05
5.94783e-05
6.13331e-05
6.27471e-05
6.72166e-05
6.88896e-05
6.96593e-05
6.98863e-05
6.96978e-05
6.92706e-05
6.89226e-05
6.87777e-05
6.88002e-05
6.89737e-05
6.91857e-05
6.933e-05
6.94048e-05
6.9419e-05
6.94167e-05
6.9441e-05
6.94933e-05
6.9562e-05
6.96293e-05
6.96899e-05
6.97483e-05
6.98102e-05
6.98776e-05
6.99489e-05
7.00223e-05
7.00974e-05
7.01746e-05
7.02543e-05
7.03362e-05
7.04198e-05
7.05052e-05
7.0592e-05
7.06801e-05
7.07693e-05
7.08594e-05
7.09501e-05
7.10414e-05
7.11328e-05
7.12244e-05
7.13159e-05
7.1407e-05
7.14978e-05
7.15879e-05
7.16774e-05
7.1766e-05
7.18537e-05
7.19403e-05
7.20257e-05
7.21098e-05
7.21926e-05
7.22739e-05
7.23538e-05
7.24322e-05
7.25089e-05
7.25841e-05
7.26579e-05
7.27302e-05
7.2801e-05
7.28702e-05
7.29379e-05
7.30045e-05
7.30697e-05
7.31334e-05
7.31961e-05
7.32592e-05
7.33184e-05
7.33766e-05
7.34336e-05
7.34896e-05
7.35451e-05
7.36001e-05
7.3654e-05
2.50997e-05
3.35615e-05
4.57498e-05
4.25742e-05
3.87694e-05
4.36301e-05
6.30795e-05
6.91197e-05
6.80495e-05
7.15386e-05
7.40608e-05
7.96732e-05
8.15077e-05
8.22429e-05
8.23545e-05
8.20437e-05
8.15356e-05
8.11716e-05
8.10627e-05
8.11527e-05
8.13986e-05
8.16573e-05
8.18192e-05
8.18957e-05
8.19053e-05
8.19043e-05
8.19389e-05
8.20062e-05
8.20895e-05
8.21681e-05
8.22378e-05
8.2305e-05
8.23768e-05
8.2455e-05
8.25372e-05
8.26214e-05
8.27074e-05
8.27957e-05
8.28868e-05
8.29803e-05
8.30759e-05
8.31732e-05
8.32723e-05
8.33728e-05
8.34745e-05
8.35773e-05
8.36808e-05
8.37849e-05
8.38893e-05
8.39939e-05
8.40984e-05
8.42025e-05
8.43062e-05
8.44093e-05
8.45116e-05
8.4613e-05
8.47134e-05
8.48125e-05
8.49102e-05
8.50065e-05
8.51014e-05
8.51946e-05
8.52861e-05
8.53759e-05
8.54638e-05
8.555e-05
8.56345e-05
8.57173e-05
8.57983e-05
8.58774e-05
8.59549e-05
8.60309e-05
8.61052e-05
8.61775e-05
8.62488e-05
8.6321e-05
8.63885e-05
8.64547e-05
8.65193e-05
8.65829e-05
8.66458e-05
8.67079e-05
8.67685e-05
3.15018e-05
4.17018e-05
5.51766e-05
5.1631e-05
4.7783e-05
5.52551e-05
7.63976e-05
7.8912e-05
7.79757e-05
8.37831e-05
8.79707e-05
9.40565e-05
9.56928e-05
9.62199e-05
9.61465e-05
9.57165e-05
9.51764e-05
9.4853e-05
9.48179e-05
9.49898e-05
9.52972e-05
9.55788e-05
9.57398e-05
9.58098e-05
9.58159e-05
9.58219e-05
9.58712e-05
9.59546e-05
9.60513e-05
9.614e-05
9.62185e-05
9.62952e-05
9.63777e-05
9.64671e-05
9.65604e-05
9.66557e-05
9.67529e-05
9.68528e-05
9.69557e-05
9.70612e-05
9.7169e-05
9.72788e-05
9.73904e-05
9.75037e-05
9.76184e-05
9.77343e-05
9.7851e-05
9.79684e-05
9.80861e-05
9.82041e-05
9.8322e-05
9.84395e-05
9.85567e-05
9.86731e-05
9.87886e-05
9.89032e-05
9.90166e-05
9.91286e-05
9.92391e-05
9.9348e-05
9.94552e-05
9.95606e-05
9.9664e-05
9.97655e-05
9.98648e-05
9.99621e-05
0.000100058
0.000100151
0.000100242
0.000100331
0.000100418
0.000100504
0.000100587
0.000100667
0.000100747
0.000100828
0.000100903
0.000100977
0.000101049
0.000101119
0.000101189
0.000101257
0.000101323
3.9273e-05
5.12279e-05
6.58161e-05
6.19539e-05
5.86137e-05
7.00442e-05
8.91309e-05
8.94262e-05
8.99433e-05
9.85848e-05
0.000104528
0.000110322
0.000111489
0.000111686
0.000111396
0.000110871
0.000110353
0.000110121
0.000110188
0.000110444
0.000110794
0.000111074
0.000111218
0.000111276
0.000111281
0.000111301
0.000111368
0.000111468
0.000111577
0.000111675
0.000111763
0.00011185
0.000111944
0.000112045
0.000112151
0.000112258
0.000112367
0.000112479
0.000112594
0.000112713
0.000112834
0.000112957
0.000113082
0.000113209
0.000113337
0.000113467
0.000113598
0.000113729
0.000113861
0.000113993
0.000114125
0.000114257
0.000114389
0.000114519
0.000114649
0.000114777
0.000114904
0.00011503
0.000115154
0.000115276
0.000115396
0.000115514
0.00011563
0.000115743
0.000115854
0.000115963
0.00011607
0.000116174
0.000116275
0.000116375
0.000116471
0.000116566
0.000116657
0.000116745
0.000116832
0.000116921
0.000117004
0.000117084
0.000117162
0.000117239
0.000117313
0.000117387
0.000117457
4.86659e-05
6.22897e-05
7.77369e-05
7.36499e-05
7.15779e-05
8.8767e-05
0.000101475
0.00010114
0.000104719
0.000116183
0.000123503
0.000128434
0.000129005
0.000128811
0.000128306
0.000127726
0.00012728
0.000127178
0.000127361
0.000127694
0.000128065
0.000128321
0.000128436
0.000128479
0.000128488
0.000128526
0.000128615
0.000128732
0.000128852
0.000128958
0.000129056
0.000129155
0.000129262
0.000129376
0.000129494
0.000129614
0.000129736
0.000129862
0.000129991
0.000130123
0.000130258
0.000130395
0.000130535
0.000130676
0.00013082
0.000130964
0.00013111
0.000131257
0.000131404
0.000131551
0.000131699
0.000131846
0.000131992
0.000132138
0.000132282
0.000132425
0.000132567
0.000132706
0.000132844
0.00013298
0.000133114
0.000133245
0.000133373
0.000133499
0.000133622
0.000133743
0.00013386
0.000133975
0.000134087
0.000134195
0.000134301
0.000134404
0.000134503
0.000134598
0.000134691
0.000134786
0.000134875
0.000134961
0.000135044
0.000135124
0.000135202
0.000135277
0.00013535
5.99931e-05
7.50801e-05
9.09905e-05
8.68633e-05
8.72965e-05
0.000107123
0.000113873
0.000114556
0.000122766
0.000136538
0.000144672
0.000148468
0.000148414
0.000147814
0.000147123
0.000146533
0.000146203
0.000146254
0.000146555
0.000146948
0.000147317
0.000147531
0.000147609
0.000147639
0.000147657
0.000147719
0.00014783
0.000147963
0.000148093
0.000148208
0.000148316
0.000148428
0.00014855
0.000148678
0.000148809
0.000148943
0.000149079
0.000149219
0.000149363
0.00014951
0.00014966
0.000149813
0.000149968
0.000150125
0.000150285
0.000150445
0.000150607
0.00015077
0.000150933
0.000151096
0.00015126
0.000151423
0.000151585
0.000151746
0.000151906
0.000152064
0.000152221
0.000152375
0.000152527
0.000152677
0.000152824
0.000152969
0.00015311
0.000153248
0.000153383
0.000153514
0.000153642
0.000153767
0.000153888
0.000154005
0.000154119
0.000154229
0.000154333
0.000154433
0.000154529
0.000154629
0.000154722
0.00015481
0.000154895
0.000154975
0.000155053
0.000155128
0.000155197
7.36037e-05
8.9914e-05
0.000105607
0.000101797
0.000106354
0.000124426
0.000126834
0.000130095
0.000144005
0.000159532
0.000167979
0.00017059
0.000169936
0.000168951
0.000168115
0.00016756
0.000167377
0.000167591
0.000167999
0.000168432
0.000168777
0.000168936
0.000168973
0.000168993
0.000169025
0.000169114
0.000169249
0.000169397
0.000169536
0.00016966
0.00016978
0.000169906
0.000170043
0.000170186
0.000170331
0.00017048
0.000170631
0.000170787
0.000170946
0.00017111
0.000171276
0.000171445
0.000171616
0.00017179
0.000171966
0.000172143
0.000172322
0.000172501
0.000172681
0.000172861
0.000173041
0.00017322
0.000173399
0.000173576
0.000173751
0.000173925
0.000174097
0.000174266
0.000174432
0.000174595
0.000174756
0.000174912
0.000175066
0.000175215
0.00017536
0.000175501
0.000175639
0.000175772
0.0001759
0.000176024
0.000176143
0.000176257
0.000176364
0.000176465
0.000176562
0.000176661
0.000176754
0.00017684
0.000176922
0.000176998
0.00017707
0.000177138
0.000177198
8.99825e-05
0.00010716
0.00012158
0.000118681
0.000129931
0.000140836
0.000140891
0.000148226
0.000168127
0.0001851
0.000193521
0.000195015
0.000193823
0.000192497
0.000191563
0.000191081
0.000191061
0.000191433
0.000191931
0.00019238
0.000192683
0.000192779
0.000192775
0.00019279
0.00019284
0.000192958
0.000193117
0.000193279
0.000193426
0.000193559
0.000193691
0.000193834
0.000193986
0.000194145
0.000194305
0.000194469
0.000194636
0.000194808
0.000194985
0.000195165
0.000195347
0.000195533
0.000195722
0.000195913
0.000196106
0.0001963
0.000196496
0.000196692
0.000196889
0.000197086
0.000197282
0.000197477
0.000197672
0.000197864
0.000198055
0.000198243
0.000198429
0.000198611
0.000198791
0.000198966
0.000199138
0.000199306
0.000199469
0.000199628
0.000199782
0.00019993
0.000200074
0.000200212
0.000200345
0.000200471
0.000200592
0.000200706
0.000200812
0.000200908
0.000200999
0.00020109
0.000201178
0.000201256
0.000201328
0.000201392
0.000201451
0.000201502
0.000201545
0.00010713
0.000127055
0.000138864
0.000137852
0.000153243
0.000156687
0.000156615
0.000169446
0.000194879
0.000213268
0.0002215
0.000222005
0.000220344
0.000218739
0.00021775
0.000217365
0.000217511
0.000218026
0.00021859
0.000219034
0.00021928
0.000219309
0.000219268
0.000219281
0.000219353
0.000219502
0.000219683
0.000219858
0.000220013
0.000220155
0.000220301
0.00022046
0.000220629
0.000220804
0.00022098
0.00022116
0.000221344
0.000221532
0.000221726
0.000221922
0.000222122
0.000222325
0.000222531
0.000222739
0.000222949
0.00022316
0.000223372
0.000223585
0.000223798
0.000224011
0.000224223
0.000224434
0.000224643
0.000224849
0.000225054
0.000225255
0.000225453
0.000225647
0.000225837
0.000226023
0.000226204
0.000226379
0.00022655
0.000226714
0.000226872
0.000227024
0.00022717
0.000227308
0.00022744
0.000227564
0.00022768
0.000227787
0.000227884
0.00022797
0.000228046
0.000228119
0.000228192
0.000228252
0.000228304
0.000228347
0.000228379
0.000228403
0.000228416
0.000124145
0.000147941
0.000157453
0.000159998
0.000175707
0.000172659
0.000174576
0.000194079
0.000224261
0.00024414
0.000252172
0.000251857
0.000249748
0.000247965
0.000246952
0.000246676
0.000246978
0.000247612
0.000248218
0.000248637
0.000248818
0.00024878
0.000248706
0.000248721
0.000248819
0.000248997
0.000249199
0.000249385
0.000249547
0.000249699
0.00024986
0.000250035
0.000250222
0.000250412
0.000250604
0.0002508
0.000251001
0.000251207
0.000251416
0.00025163
0.000251847
0.000252066
0.000252288
0.000252513
0.000252739
0.000252966
0.000253194
0.000253422
0.00025365
0.000253877
0.000254103
0.000254327
0.000254548
0.000254766
0.000254982
0.000255193
0.0002554
0.000255602
0.000255799
0.00025599
0.000256176
0.000256355
0.000256527
0.000256692
0.000256849
0.000256998
0.000257139
0.000257271
0.000257393
0.000257507
0.00025761
0.000257701
0.00025778
0.000257843
0.000257893
0.000257933
0.00025798
0.00025801
0.000258028
0.000258033
0.000258025
0.000258004
0.000257968
0.000141367
0.000168222
0.000177394
0.000186274
0.000196867
0.000189444
0.000195385
0.000222301
0.000256625
0.000277878
0.000285781
0.000284872
0.000282329
0.00028045
0.000279433
0.000279262
0.0002797
0.000280427
0.000281051
0.000281432
0.000281543
0.000281442
0.00028134
0.000281361
0.000281484
0.000281691
0.000281912
0.000282107
0.000282275
0.000282437
0.000282613
0.000282806
0.000283009
0.000283215
0.000283423
0.000283634
0.000283851
0.000284073
0.0002843
0.000284529
0.000284761
0.000284996
0.000285234
0.000285473
0.000285714
0.000285955
0.000286196
0.000286437
0.000286677
0.000286915
0.000287152
0.000287385
0.000287615
0.000287841
0.000288063
0.00028828
0.000288491
0.000288696
0.000288894
0.000289085
0.000289269
0.000289444
0.00028961
0.000289767
0.000289915
0.000290052
0.000290179
0.000290294
0.000290398
0.000290489
0.000290567
0.00029063
0.000290676
0.000290703
0.000290712
0.000159357
0.000188112
0.000198848
0.000218337
0.000217045
0.000207801
0.000219526
0.000254115
0.000292242
0.000314695
0.000322568
0.000321296
0.000318371
0.00031644
0.000315429
0.000315354
0.000315902
0.000316695
0.000317317
0.00031765
0.000317692
0.000317533
0.00031741
0.000317437
0.000317585
0.000317818
0.000318055
0.000318258
0.000318433
0.000318605
0.000318795
0.000319005
0.000319224
0.000319445
0.000319668
0.000319894
0.000320126
0.000320363
0.000320604
0.000320848
0.000321094
0.000321343
0.000321593
0.000321844
0.000322096
0.000322348
0.000322599
0.000322849
0.000323097
0.000323343
0.000323585
0.000323823
0.000324056
0.000324284
0.000324506
0.000324721
0.000324929
0.000325129
0.00032532
0.000325502
0.000325675
0.000325837
0.000325987
0.000326126
0.000326252
0.000326365
0.000326465
0.00032655
0.00032662
0.000326674
0.00032671
0.000326728
0.000326724
0.000326696
0.000326644
0.000178809
0.000208088
0.00022203
0.000249284
0.000236689
0.0002284
0.000247371
0.000289753
0.000331298
0.000354835
0.000362806
0.000361349
0.000358152
0.000356149
0.000355153
0.000355155
0.000355785
0.00035662
0.000357225
0.000357506
0.000357482
0.000357271
0.000357133
0.000357167
0.000357337
0.000357594
0.000357844
0.000358053
0.000358234
0.000358416
0.00035862
0.000358845
0.000359079
0.000359314
0.000359549
0.000359789
0.000360035
0.000360285
0.000360538
0.000360793
0.00036105
0.000361309
0.000361568
0.000361828
0.000362087
0.000362345
0.000362601
0.000362854
0.000363104
0.00036335
0.000363591
0.000363827
0.000364055
0.000364277
0.00036449
0.000364694
0.000364889
0.000365073
0.000365247
0.000365409
0.000365558
0.000365693
0.000365814
0.000365919
0.000366009
0.000366082
0.000366138
0.000366174
0.000366192
0.000366188
0.000366163
0.000366113
0.000366036
0.000365929
0.000365792
0.000200528
0.00022863
0.000247468
0.000277715
0.000256625
0.000251859
0.000279386
0.000329414
0.000373937
0.000398502
0.000406674
0.000405169
0.000401852
0.00039975
0.000398776
0.000398832
0.000399521
0.000400376
0.000400953
0.000401181
0.000401097
0.000400842
0.000400691
0.000400733
0.000400924
0.000401199
0.00040146
0.000401675
0.00040186
0.000402051
0.000402267
0.000402506
0.000402753
0.000402999
0.000403245
0.000403496
0.000403752
0.000404012
0.000404274
0.000404536
0.0004048
0.000405064
0.000405328
0.00040559
0.00040585
0.000406108
0.000406361
0.000406611
0.000406855
0.000407093
0.000407324
0.000407546
0.00040776
0.000407964
0.000408157
0.000408338
0.000408506
0.000408662
0.000408802
0.000408928
0.000409037
0.000409129
0.000409202
0.000409256
0.00040929
0.000409302
0.000409291
0.000409257
0.000409197
0.000409111
0.000408997
0.000408851
0.000408672
0.000408456
0.000408203
0.000225407
0.000250115
0.000276129
0.000304053
0.000277648
0.000278783
0.000316097
0.000373204
0.000420267
0.000445838
0.000454284
0.00045286
0.000449536
0.000447366
0.000446416
0.00044651
0.000447233
0.000448092
0.000448635
0.000448812
0.000448675
0.000448384
0.000448224
0.000448272
0.000448479
0.00044877
0.000449039
0.000449257
0.000449446
0.000449644
0.000449871
0.000450121
0.000450377
0.000450632
0.000450886
0.000451143
0.000451406
0.000451671
0.000451936
0.000452202
0.000452466
0.000452729
0.00045299
0.000453247
0.000453501
0.000453749
0.000453991
0.000454227
0.000454454
0.000454673
0.000454881
0.000455079
0.000455264
0.000455436
0.000455593
0.000455736
0.000455861
0.00045597
0.000456059
0.00045613
0.000456179
0.000456205
0.000456208
0.000456186
0.000456139
0.000456064
0.000455959
0.000455825
0.000455659
0.000455459
0.000455223
0.000454947
0.00045463
0.000454268
0.00045386
0.000254378
0.000272651
0.000310131
0.000328945
0.000300625
0.000309828
0.00035771
0.000421143
0.000470356
0.000496899
0.000505687
0.000504464
0.000501215
0.000499057
0.000498134
0.000498249
0.000498988
0.000499838
0.000500342
0.000500473
0.000500291
0.000499972
0.000499807
0.000499859
0.000500079
0.000500382
0.000500656
0.000500875
0.000501066
0.000501269
0.000501503
0.00050176
0.000502022
0.000502281
0.000502538
0.000502798
0.000503061
0.000503325
0.000503588
0.000503848
0.000504106
0.00050436
0.000504609
0.000504852
0.000505088
0.000505316
0.000505535
0.000505744
0.000505942
0.000506127
0.000506298
0.000506454
0.000506594
0.000506716
0.000506819
0.000506903
0.000506965
0.000507004
0.00050702
0.00050701
0.000506973
0.000506908
0.000506813
0.000506686
0.000506526
0.000506332
0.000506101
0.000505832
0.000505522
0.000505169
0.000504771
0.000504325
0.000503826
0.000503273
0.000502666
0.000288312
0.00029581
0.000343722
0.000353076
0.000326359
0.000345466
0.00040414
0.000473184
0.000524203
0.000551669
0.000560857
0.000559959
0.000556884
0.000554797
0.00055391
0.000554038
0.000554778
0.000555607
0.000556071
0.000556161
0.000555943
0.000555603
0.000555436
0.000555491
0.000555719
0.000556029
0.000556305
0.000556524
0.000556714
0.000556918
0.000557156
0.000557416
0.000557678
0.000557936
0.00055819
0.000558446
0.000558703
0.000558958
0.00055921
0.000559456
0.000559697
0.000559931
0.000560157
0.000560373
0.000560579
0.000560774
0.000560955
0.000561122
0.000561273
0.000561407
0.000561522
0.000561617
0.000561691
0.000561741
0.000561767
0.000561767
0.00056174
0.000561684
0.000561597
0.000561478
0.000561325
0.000561135
0.000560908
0.000560641
0.000560333
0.000559981
0.000559582
0.000559136
0.000558638
0.000558088
0.000557481
0.000556813
0.000556081
0.000555284
0.000554422
0.000328032
0.000318663
0.00037929
0.000377381
0.000355484
0.000386002
0.000455355
0.000529198
0.000581729
0.000610051
0.00061969
0.00061923
0.000616429
0.00061447
0.000613637
0.000613772
0.0006145
0.000615298
0.00061572
0.000615775
0.00061553
0.000615178
0.000615012
0.000615069
0.000615301
0.000615613
0.000615888
0.000616103
0.000616289
0.000616491
0.000616726
0.000616983
0.00061724
0.000617489
0.000617733
0.000617976
0.000618218
0.000618455
0.000618685
0.000618906
0.000619118
0.000619319
0.000619508
0.000619683
0.000619843
0.000619986
0.000620112
0.000620217
0.000620301
0.000620363
0.000620399
0.00062041
0.000620392
0.000620344
0.000620265
0.000620153
0.000620006
0.000619822
0.000619599
0.000619336
0.000619029
0.000618677
0.000618277
0.000617828
0.000617327
0.000616772
0.000616158
0.000615485
0.000614748
0.000613946
0.000613073
0.000612126
0.000611101
0.000609997
0.000608815
0.000374563
0.000354846
0.000415481
0.000402907
0.000388436
0.000431556
0.000511199
0.000588971
0.00064277
0.000671864
0.000682001
0.000682047
0.00067962
0.000677847
0.000677094
0.000677234
0.000677939
0.000678697
0.000679078
0.000679102
0.000678841
0.000678485
0.000678323
0.000678379
0.000678611
0.00067892
0.000679188
0.000679396
0.000679575
0.000679769
0.000679995
0.000680241
0.000680485
0.000680717
0.000680941
0.000681161
0.000681377
0.000681584
0.000681779
0.000681961
0.000682129
0.000682281
0.000682416
0.000682531
0.000682626
0.000682698
0.000682745
0.000682767
0.00068276
0.000682723
0.000682654
0.000682551
0.000682412
0.000682235
0.000682017
0.000681758
0.000681455
0.000681105
0.000680706
0.000680257
0.000679753
0.000679193
0.000678574
0.000677893
0.000677148
0.000676335
0.000675451
0.000674492
0.000673456
0.000672339
0.000671135
0.000669841
0.000668453
0.000666969
0.000665389
0.000428696
0.000400522
0.000456077
0.000430715
0.000425731
0.000482371
0.000571347
0.000652205
0.000707044
0.000736839
0.000747568
0.000748057
0.000746096
0.000744574
0.000743929
0.000744076
0.000744748
0.000745459
0.000745797
0.000745798
0.000745528
0.000745177
0.000745019
0.000745072
0.000745298
0.000745599
0.000745856
0.000746052
0.000746217
0.000746397
0.000746607
0.000746832
0.000747052
0.000747257
0.000747449
0.000747634
0.000747809
0.000747971
0.000748116
0.000748241
0.000748347
0.000748431
0.000748492
0.000748526
0.000748531
0.000748507
0.000748451
0.000748361
0.000748234
0.000748068
0.000747861
0.000747611
0.000747315
0.000746971
0.000746577
0.00074613
0.000745628
0.000745067
0.000744447
0.000743762
0.000743011
0.00074219
0.000741296
0.000740326
0.000739277
0.000738145
0.000736924
0.000735613
0.000734207
0.000732702
0.000731091
0.000729371
0.000727538
0.000725589
0.000723523
0.000491045
0.000456982
0.000499845
0.000461633
0.000467668
0.000538265
0.000635322
0.000718479
0.000774096
0.000804497
0.000815962
0.000816768
0.000815352
0.00081414
0.000813633
0.000813791
0.000814424
0.000815082
0.000815377
0.000815354
0.000815088
0.00081475
0.000814591
0.000814638
0.000814853
0.000815138
0.000815378
0.000815555
0.0008157
0.000815856
0.00081604
0.000816233
0.000816417
0.000816581
0.000816727
0.00081686
0.000816978
0.000817077
0.000817152
0.000817201
0.000817223