/*--------------------------------*- C++ -*----------------------------------*\
| =========                 |                                                 |
| \\      /  F ield         | OpenFOAM: The Open Source CFD Toolbox           |
|  \\    /   O peration     | Version:  2412                                  |
|   \\  /    A nd           | Website:  www.openfoam.com                      |
|    \\/     M anipulation  |                                                 |
\*---------------------------------------------------------------------------*/
FoamFile
{
    version     2.0;
    format      ascii;
    arch        "LSB;label=32;scalar=64";
    class       volScalarField;
    location    "480";
    object      p;
}
// * * * * * * * * * * * * * * * * * * * * * * * * * * * * * * * * * * * * * //

dimensions      [0 2 -2 0 0 0 0];

internalField   nonuniform List<scalar> 
8659
(
422.622
437.606
442.93
429.09
376.894
249.551
7.01097
-450.595
-964.578
-1431.93
-1709.76
-1734.04
-1641.25
-1524.76
-1415.64
-1321.45
-1236.69
-1160.54
-1093.61
-1034.25
-981.224
-933.647
-890.677
-851.634
-815.953
-783.151
-752.887
-724.786
-698.603
-674.12
-651.105
-629.453
-608.96
-589.546
-571.093
-553.505
-536.718
-520.641
-505.236
-490.429
-476.18
-462.455
-449.204
-436.402
-424.016
-412.02
-400.393
-389.11
-378.155
-367.511
-357.162
-347.096
-337.297
-327.754
-318.458
-309.397
-300.564
-291.951
-283.549
-275.35
-267.352
-259.535
-251.919
-244.473
-237.197
-230.088
-223.146
-216.367
-209.73
-203.246
-196.899
-190.704
-184.637
-178.699
-172.886
-167.199
-161.634
-156.18
-150.838
-145.602
-140.474
-135.446
-130.516
-125.681
-120.938
-116.284
422.621
437.605
442.929
429.088
376.889
249.543
6.99845
-450.585
-964.569
-1431.92
-1709.73
-1734.03
-1641.25
-1524.76
-1415.64
-1321.45
-1236.69
-1160.54
-1093.61
-1034.25
-981.224
-933.647
-890.677
-851.634
-815.953
-783.151
-752.887
-724.786
-698.603
-674.12
-651.105
-629.453
-608.96
-589.546
-571.093
-553.505
-536.718
-520.641
-505.236
-490.429
-476.18
-462.455
-449.204
-436.401
-424.016
-412.02
-400.392
-389.11
-378.155
-367.511
-357.162
-347.096
-337.297
-327.754
-318.458
-309.397
-300.564
-291.951
-283.549
-275.35
-267.352
-259.535
-251.919
-244.473
-237.197
-230.088
-223.146
-216.367
-209.73
-203.246
-196.899
-190.704
-184.637
-178.699
-172.886
-167.199
-161.634
-156.18
-150.838
-145.602
-140.474
-135.446
-130.516
-125.681
-120.938
-116.284
422.621
437.605
442.927
429.085
376.883
249.531
6.97676
-450.583
-964.537
-1431.86
-1709.69
-1734.01
-1641.24
-1524.75
-1415.64
-1321.45
-1236.69
-1160.54
-1093.6
-1034.25
-981.224
-933.647
-890.677
-851.634
-815.953
-783.151
-752.887
-724.786
-698.603
-674.12
-651.105
-629.453
-608.96
-589.546
-571.093
-553.505
-536.718
-520.641
-505.236
-490.429
-476.18
-462.455
-449.204
-436.401
-424.016
-412.02
-400.392
-389.11
-378.155
-367.511
-357.162
-347.096
-337.297
-327.754
-318.458
-309.397
-300.564
-291.951
-283.549
-275.35
-267.352
-259.535
-251.919
-244.473
-237.197
-230.088
-223.146
-216.367
-209.73
-203.246
-196.899
-190.704
-184.637
-178.699
-172.886
-167.199
-161.634
-156.18
-150.838
-145.602
-140.474
-135.446
-130.516
-125.681
-120.938
-116.284
422.621
437.604
442.926
429.081
376.875
249.518
6.95823
-450.555
-964.451
-1431.74
-1709.59
-1733.97
-1641.22
-1524.75
-1415.64
-1321.45
-1236.68
-1160.54
-1093.6
-1034.25
-981.223
-933.647
-890.677
-851.634
-815.953
-783.151
-752.886
-724.786
-698.602
-674.12
-651.105
-629.453
-608.96
-589.546
-571.093
-553.505
-536.718
-520.641
-505.235
-490.429
-476.18
-462.454
-449.204
-436.401
-424.016
-412.02
-400.392
-389.11
-378.155
-367.511
-357.162
-347.096
-337.297
-327.754
-318.458
-309.397
-300.564
-291.951
-283.549
-275.35
-267.352
-259.535
-251.919
-244.473
-237.197
-230.088
-223.146
-216.367
-209.73
-203.246
-196.899
-190.704
-184.637
-178.699
-172.886
-167.199
-161.634
-156.18
-150.838
-145.602
-140.474
-135.446
-130.516
-125.681
-120.938
-116.284
422.621
437.604
442.925
429.078
376.867
249.507
6.95408
-450.477
-964.271
-1431.51
-1709.4
-1733.87
-1641.18
-1524.73
-1415.63
-1321.44
-1236.68
-1160.53
-1093.6
-1034.24
-981.222
-933.646
-890.676
-851.633
-815.952
-783.15
-752.886
-724.785
-698.602
-674.119
-651.104
-629.453
-608.96
-589.546
-571.093
-553.505
-536.718
-520.641
-505.235
-490.428
-476.18
-462.454
-449.204
-436.401
-424.016
-412.02
-400.392
-389.11
-378.155
-367.511
-357.162
-347.096
-337.297
-327.754
-318.458
-309.397
-300.564
-291.95
-283.549
-275.35
-267.352
-259.535
-251.919
-244.473
-237.197
-230.088
-223.146
-216.367
-209.73
-203.246
-196.899
-190.704
-184.637
-178.699
-172.886
-167.199
-161.634
-156.18
-150.838
-145.602
-140.474
-135.446
-130.516
-125.681
-120.938
-116.284
422.621
437.603
442.923
429.073
376.858
249.501
6.97711
-450.319
-963.947
-1431.11
-1709.07
-1733.7
-1641.1
-1524.69
-1415.61
-1321.43
-1236.67
-1160.53
-1093.6
-1034.24
-981.22
-933.644
-890.674
-851.632
-815.951
-783.149
-752.885
-724.785
-698.601
-674.119
-651.104
-629.452
-608.959
-589.545
-571.093
-553.504
-536.718
-520.641
-505.235
-490.428
-476.179
-462.454
-449.203
-436.401
-424.016
-412.019
-400.392
-389.11
-378.155
-367.511
-357.162
-347.096
-337.297
-327.754
-318.458
-309.397
-300.564
-291.95
-283.549
-275.35
-267.352
-259.535
-251.919
-244.473
-237.197
-230.088
-223.146
-216.367
-209.73
-203.246
-196.899
-190.704
-184.637
-178.699
-172.886
-167.199
-161.634
-156.18
-150.838
-145.602
-140.474
-135.446
-130.516
-125.681
-120.938
-116.284
422.622
437.603
442.921
429.068
376.85
249.504
7.03046
-450.047
-963.417
-1430.47
-1708.55
-1733.4
-1640.95
-1524.61
-1415.56
-1321.4
-1236.66
-1160.52
-1093.59
-1034.23
-981.215
-933.64
-890.671
-851.629
-815.949
-783.147
-752.884
-724.783
-698.6
-674.118
-651.103
-629.451
-608.959
-589.545
-571.092
-553.504
-536.717
-520.641
-505.235
-490.428
-476.179
-462.454
-449.203
-436.401
-424.016
-412.019
-400.392
-389.109
-378.155
-367.511
-357.162
-347.096
-337.297
-327.754
-318.458
-309.397
-300.564
-291.95
-283.549
-275.35
-267.352
-259.535
-251.919
-244.473
-237.197
-230.087
-223.146
-216.367
-209.73
-203.246
-196.899
-190.704
-184.637
-178.699
-172.886
-167.199
-161.634
-156.18
-150.838
-145.602
-140.474
-135.445
-130.516
-125.681
-120.938
-116.284
422.623
437.603
442.919
429.063
376.843
249.519
7.11244
-449.618
-962.618
-1429.51
-1707.76
-1732.94
-1640.71
-1524.48
-1415.49
-1321.36
-1236.63
-1160.5
-1093.58
-1034.22
-981.207
-933.633
-890.666
-851.625
-815.945
-783.144
-752.881
-724.781
-698.598
-674.116
-651.102
-629.45
-608.958
-589.544
-571.091
-553.503
-536.716
-520.64
-505.234
-490.427
-476.179
-462.453
-449.203
-436.401
-424.015
-412.019
-400.392
-389.109
-378.155
-367.511
-357.162
-347.095
-337.297
-327.754
-318.457
-309.397
-300.563
-291.95
-283.549
-275.35
-267.352
-259.534
-251.919
-244.472
-237.197
-230.087
-223.146
-216.367
-209.73
-203.246
-196.899
-190.704
-184.637
-178.699
-172.886
-167.199
-161.634
-156.18
-150.838
-145.602
-140.474
-135.445
-130.516
-125.681
-120.938
-116.284
422.626
437.604
442.916
429.057
376.838
249.548
7.25231
-448.977
-961.481
-1428.16
-1706.63
-1732.28
-1640.36
-1524.29
-1415.38
-1321.29
-1236.58
-1160.47
-1093.55
-1034.21
-981.193
-933.623
-890.657
-851.618
-815.939
-783.139
-752.877
-724.777
-698.595
-674.113
-651.099
-629.448
-608.956
-589.542
-571.089
-553.502
-536.715
-520.639
-505.233
-490.426
-476.178
-462.453
-449.202
-436.4
-424.015
-412.018
-400.391
-389.109
-378.154
-367.51
-357.161
-347.095
-337.297
-327.754
-318.457
-309.396
-300.563
-291.95
-283.549
-275.35
-267.351
-259.534
-251.919
-244.472
-237.197
-230.087
-223.146
-216.367
-209.729
-203.246
-196.899
-190.704
-184.637
-178.699
-172.886
-167.199
-161.634
-156.18
-150.838
-145.602
-140.474
-135.445
-130.516
-125.681
-120.938
-116.284
422.629
437.605
442.914
429.051
376.837
249.599
7.47886
-448.071
-959.938
-1426.32
-1705.12
-1731.38
-1639.88
-1524.02
-1415.22
-1321.19
-1236.52
-1160.42
-1093.52
-1034.18
-981.173
-933.606
-890.644
-851.607
-815.93
-783.131
-752.87
-724.771
-698.59
-674.109
-651.095
-629.444
-608.952
-589.539
-571.087
-553.499
-536.713
-520.637
-505.231
-490.425
-476.176
-462.451
-449.201
-436.399
-424.014
-412.017
-400.39
-389.108
-378.154
-367.51
-357.161
-347.095
-337.296
-327.753
-318.457
-309.396
-300.563
-291.95
-283.548
-275.35
-267.351
-259.534
-251.919
-244.472
-237.197
-230.087
-223.146
-216.367
-209.729
-203.246
-196.899
-190.704
-184.637
-178.699
-172.886
-167.199
-161.634
-156.18
-150.838
-145.602
-140.474
-135.445
-130.516
-125.681
-120.938
-116.284
422.633
437.607
442.911
429.045
376.84
249.692
7.78744
-446.851
-957.922
-1423.91
-1703.13
-1730.2
-1639.25
-1523.67
-1415.02
-1321.06
-1236.43
-1160.36
-1093.47
-1034.14
-981.144
-933.583
-890.625
-851.591
-815.916
-783.12
-752.86
-724.763
-698.582
-674.102
-651.089
-629.439
-608.948
-589.535
-571.083
-553.496
-536.71
-520.634
-505.229
-490.423
-476.174
-462.45
-449.199
-436.397
-424.012
-412.016
-400.389
-389.107
-378.153
-367.509
-357.16
-347.094
-337.295
-327.752
-318.456
-309.396
-300.562
-291.949
-283.548
-275.349
-267.351
-259.534
-251.918
-244.472
-237.197
-230.087
-223.145
-216.367
-209.729
-203.246
-196.899
-190.704
-184.636
-178.699
-172.886
-167.199
-161.633
-156.18
-150.838
-145.602
-140.474
-135.445
-130.516
-125.681
-120.938
-116.284
422.64
437.61
442.907
429.038
376.851
249.842
8.16657
-445.271
-955.375
-1420.81
-1700.58
-1728.68
-1638.44
-1523.22
-1414.75
-1320.89
-1236.31
-1160.28
-1093.41
-1034.1
-981.106
-933.552
-890.599
-851.569
-815.898
-783.104
-752.846
-724.751
-698.572
-674.093
-651.081
-629.432
-608.941
-589.529
-571.078
-553.491
-536.706
-520.63
-505.225
-490.419
-476.171
-462.447
-449.197
-436.395
-424.01
-412.014
-400.387
-389.105
-378.151
-367.507
-357.159
-347.092
-337.294
-327.751
-318.455
-309.395
-300.562
-291.948
-283.547
-275.349
-267.35
-259.533
-251.918
-244.471
-237.196
-230.087
-223.145
-216.367
-209.729
-203.245
-196.899
-190.703
-184.636
-178.699
-172.885
-167.198
-161.633
-156.179
-150.837
-145.602
-140.474
-135.445
-130.515
-125.681
-120.937
-116.284
422.648
437.613
442.903
429.032
376.869
250.051
8.60444
-443.291
-952.216
-1416.99
-1697.39
-1726.76
-1637.42
-1522.66
-1414.42
-1320.68
-1236.17
-1160.17
-1093.33
-1034.04
-981.058
-933.513
-890.566
-851.542
-815.875
-783.084
-752.829
-724.736
-698.559
-674.081
-651.071
-629.422
-608.933
-589.521
-571.071
-553.485
-536.7
-520.625
-505.22
-490.415
-476.167
-462.443
-449.193
-436.392
-424.007
-412.011
-400.385
-389.103
-378.149
-367.505
-357.157
-347.091
-337.293
-327.75
-318.454
-309.393
-300.56
-291.947
-283.546
-275.348
-267.349
-259.532
-251.917
-244.471
-237.196
-230.086
-223.145
-216.366
-209.728
-203.245
-196.898
-190.703
-184.636
-178.698
-172.885
-167.198
-161.633
-156.179
-150.837
-145.601
-140.473
-135.445
-130.515
-125.681
-120.937
-116.284
422.658
437.617
442.898
429.025
376.897
250.319
9.09551
-440.885
-948.364
-1412.47
-1693.39
-1724.33
-1636.13
-1521.96
-1414.01
-1320.42
-1235.99
-1160.05
-1093.24
-1033.96
-980.999
-933.464
-890.526
-851.508
-815.846
-783.059
-752.807
-724.717
-698.542
-674.066
-651.057
-629.41
-608.922
-589.511
-571.062
-553.477
-536.692
-520.618
-505.214
-490.409
-476.162
-462.438
-449.189
-436.388
-424.003
-412.008
-400.382
-389.1
-378.146
-367.503
-357.154
-347.089
-337.29
-327.748
-318.452
-309.392
-300.559
-291.946
-283.545
-275.347
-267.348
-259.531
-251.916
-244.47
-237.195
-230.085
-223.144
-216.365
-209.728
-203.244
-196.898
-190.703
-184.635
-178.698
-172.885
-167.198
-161.633
-156.179
-150.837
-145.601
-140.473
-135.444
-130.515
-125.68
-120.937
-116.284
422.67
437.621
442.892
429.019
376.934
250.645
9.6645
-438.065
-943.776
-1407.25
-1688.48
-1721.31
-1634.52
-1521.09
-1413.5
-1320.1
-1235.78
-1159.89
-1093.12
-1033.87
-980.926
-933.405
-890.476
-851.466
-815.81
-783.028
-752.78
-724.693
-698.521
-674.048
-651.041
-629.395
-608.908
-589.499
-571.051
-553.466
-536.683
-520.609
-505.206
-490.402
-476.155
-462.432
-449.183
-436.382
-423.998
-412.003
-400.377
-389.096
-378.142
-367.499
-357.151
-347.086
-337.288
-327.745
-318.45
-309.39
-300.557
-291.944
-283.543
-275.345
-267.347
-259.53
-251.915
-244.469
-237.194
-230.084
-223.143
-216.365
-209.727
-203.244
-196.897
-190.702
-184.635
-178.697
-172.884
-167.197
-161.632
-156.178
-150.836
-145.601
-140.473
-135.444
-130.514
-125.68
-120.936
-116.283
422.684
437.625
442.884
429.012
376.981
251.029
10.3336
-434.852
-938.5
-1401.22
-1682.61
-1717.57
-1632.52
-1520.01
-1412.88
-1319.71
-1235.51
-1159.7
-1092.98
-1033.76
-980.837
-933.333
-890.416
-851.415
-815.767
-782.991
-752.748
-724.665
-698.496
-674.025
-651.021
-629.377
-608.892
-589.485
-571.037
-553.454
-536.672
-520.599
-505.197
-490.393
-476.147
-462.424
-449.176
-436.376
-423.992
-411.998
-400.372
-389.091
-378.138
-367.495
-357.147
-347.082
-337.284
-327.742
-318.447
-309.387
-300.554
-291.942
-283.541
-275.343
-267.345
-259.528
-251.913
-244.467
-237.192
-230.083
-223.142
-216.364
-209.726
-203.243
-196.896
-190.701
-184.634
-178.697
-172.883
-167.197
-161.631
-156.178
-150.836
-145.6
-140.472
-135.443
-130.514
-125.679
-120.936
-116.283
422.7
437.628
442.875
429.004
377.036
251.468
11.1071
-431.241
-932.588
-1394.24
-1675.75
-1712.96
-1630.03
-1518.67
-1412.1
-1319.22
-1235.18
-1159.47
-1092.81
-1033.63
-980.73
-933.245
-890.344
-851.354
-815.715
-782.946
-752.709
-724.63
-698.465
-673.998
-650.996
-629.356
-608.873
-589.467
-571.021
-553.439
-536.658
-520.587
-505.185
-490.383
-476.137
-462.415
-449.168
-436.368
-423.985
-411.991
-400.366
-389.085
-378.132
-367.49
-357.143
-347.078
-337.28
-327.739
-318.443
-309.384
-300.551
-291.939
-283.538
-275.34
-267.343
-259.526
-251.911
-244.465
-237.191
-230.081
-223.14
-216.362
-209.725
-203.242
-196.895
-190.7
-184.633
-178.696
-172.882
-167.196
-161.631
-156.177
-150.835
-145.599
-140.471
-135.443
-130.513
-125.679
-120.935
-116.282
422.717
437.631
442.863
428.995
377.1
251.951
12.0028
-427.215
-926.012
-1386.27
-1667.88
-1707.47
-1626.87
-1517
-1411.14
-1318.62
-1234.78
-1159.18
-1092.59
-1033.46
-980.601
-933.14
-890.257
-851.281
-815.652
-782.892
-752.662
-724.589
-698.429
-673.966
-650.968
-629.33
-608.849
-589.445
-571.002
-553.422
-536.642
-520.572
-505.172
-490.37
-476.126
-462.405
-449.158
-436.359
-423.976
-411.983
-400.358
-389.078
-378.126
-367.484
-357.137
-347.072
-337.275
-327.734
-318.439
-309.379
-300.547
-291.935
-283.535
-275.337
-267.34
-259.523
-251.909
-244.463
-237.188
-230.079
-223.138
-216.36
-209.723
-203.24
-196.893
-190.699
-184.632
-178.694
-172.881
-167.195
-161.63
-156.176
-150.834
-145.598
-140.47
-135.442
-130.512
-125.678
-120.934
-116.281
-111.714
422.735
437.633
442.849
428.984
377.169
252.475
13.0338
-422.739
-918.718
-1377.23
-1658.9
-1701.67
-1622.57
-1514.93
-1409.94
-1317.88
-1234.29
-1158.83
-1092.34
-1033.26
-980.443
-933.012
-890.151
-851.192
-815.577
-782.827
-752.605
-724.54
-698.385
-673.927
-650.933
-629.298
-608.821
-589.42
-570.979
-553.401
-536.623
-520.554
-505.155
-490.355
-476.112
-462.392
-449.146
-436.348
-423.966
-411.973
-400.349
-389.07
-378.118
-367.477
-357.13
-347.066
-337.269
-327.728
-318.434
-309.375
-300.543
-291.931
-283.531
-275.333
-267.336
-259.52
-251.906
-244.46
-237.186
-230.077
-223.136
-216.358
-209.721
-203.238
-196.892
-190.697
-184.63
-178.693
-172.88
-167.193
-161.628
-156.175
-150.833
-145.597
-140.469
-135.441
-130.511
-125.677
-120.933
-116.28
-111.713
422.754
437.634
442.832
428.969
377.244
253.045
14.2082
-417.768
-910.63
-1367.04
-1648.73
-1695.15
-1617.29
-1512.33
-1408.44
-1316.95
-1233.68
-1158.4
-1092.02
-1033.02
-980.252
-932.857
-890.023
-851.085
-815.486
-782.749
-752.537
-724.48
-698.333
-673.881
-650.891
-629.261
-608.787
-589.389
-570.951
-553.375
-536.6
-520.533
-505.136
-490.337
-476.095
-462.376
-449.131
-436.334
-423.954
-411.962
-400.339
-389.06
-378.109
-367.468
-357.122
-347.058
-337.262
-327.721
-318.427
-309.369
-300.537
-291.926
-283.526
-275.329
-267.332
-259.516
-251.902
-244.456
-237.182
-230.073
-223.133
-216.355
-209.718
-203.235
-196.889
-190.694
-184.628
-178.691
-172.878
-167.191
-161.627
-156.173
-150.831
-145.596
-140.468
-135.439
-130.51
-125.675
-120.932
-116.279
-111.711
422.774
437.632
442.809
428.949
377.323
253.665
15.5374
-412.249
-901.653
-1355.57
-1637.32
-1686.97
-1611.57
-1509.13
-1406.56
-1315.79
-1232.92
-1157.87
-1091.63
-1032.73
-980.019
-932.67
-889.869
-850.956
-815.376
-782.655
-752.456
-724.409
-698.27
-673.825
-650.842
-629.216
-608.747
-589.353
-570.918
-553.345
-536.572
-520.507
-505.112
-490.315
-476.075
-462.358
-449.114
-436.318
-423.939
-411.948
-400.326
-389.048
-378.098
-367.458
-357.112
-347.049
-337.253
-327.713
-318.42
-309.361
-300.53
-291.919
-283.52
-275.323
-267.326
-259.511
-251.897
-244.452
-237.178
-230.069
-223.129
-216.351
-209.715
-203.232
-196.886
-190.692
-184.625
-178.688
-172.876
-167.189
-161.625
-156.171
-150.829
-145.594
-140.466
-135.438
-130.508
-125.674
-120.93
-116.277
-111.71
422.795
437.628
442.781
428.921
377.405
254.337
17.0379
-406.122
-891.671
-1342.69
-1624.59
-1677.37
-1605.19
-1505.19
-1404.22
-1314.35
-1231.97
-1157.22
-1091.15
-1032.36
-979.735
-932.442
-889.682
-850.8
-815.244
-782.542
-752.358
-724.323
-698.195
-673.758
-650.782
-629.163
-608.699
-589.309
-570.878
-553.309
-536.539
-520.477
-505.084
-490.289
-476.051
-462.336
-449.094
-436.299
-423.921
-411.932
-400.311
-389.033
-378.084
-367.445
-357.1
-347.038
-337.243
-327.704
-318.41
-309.353
-300.522
-291.912
-283.513
-275.316
-267.32
-259.505
-251.891
-244.446
-237.173
-230.064
-223.124
-216.347
-209.711
-203.228
-196.882
-190.688
-184.622
-178.685
-172.873
-167.187
-161.622
-156.169
-150.827
-145.592
-140.464
-135.436
-130.506
-125.672
-120.929
-116.275
-111.708
422.815
437.62
442.746
428.885
377.489
255.065
18.7301
-399.33
-880.573
-1328.31
-1610.43
-1666.64
-1598.48
-1500.01
-1401.3
-1312.54
-1230.79
-1156.4
-1090.56
-1031.92
-979.388
-932.164
-889.455
-850.611
-815.084
-782.405
-752.24
-724.22
-698.104
-673.678
-650.711
-629.099
-608.641
-589.257
-570.831
-553.266
-536.499
-520.441
-505.051
-490.259
-476.023
-462.309
-449.069
-436.277
-423.9
-411.912
-400.292
-389.016
-378.068
-367.43
-357.086
-347.025
-337.231
-327.692
-318.4
-309.343
-300.513
-291.903
-283.504
-275.308
-267.312
-259.497
-251.884
-244.44
-237.167
-230.059
-223.119
-216.342
-209.706
-203.224
-196.878
-190.684
-184.618
-178.681
-172.869
-167.183
-161.619
-156.166
-150.824
-145.589
-140.462
-135.433
-130.504
-125.67
-120.926
-116.273
-111.706
422.836
437.608
442.701
428.837
377.573
255.848
20.6377
-391.816
-868.266
-1312.34
-1594.66
-1654.57
-1590.93
-1493.91
-1397.72
-1310.27
-1229.31
-1155.39
-1089.83
-1031.37
-978.962
-931.824
-889.178
-850.381
-814.891
-782.24
-752.097
-724.096
-697.995
-673.581
-650.625
-629.022
-608.572
-589.194
-570.774
-553.214
-536.452
-520.397
-505.011
-490.222
-475.989
-462.278
-449.04
-436.25
-423.875
-411.889
-400.27
-388.996
-378.049
-367.412
-357.07
-347.009
-337.216
-327.678
-318.387
-309.33
-300.501
-291.892
-283.494
-275.298
-267.303
-259.489
-251.876
-244.432
-237.159
-230.052
-223.112
-216.336
-209.7
-203.218
-196.873
-190.679
-184.613
-178.677
-172.865
-167.179
-161.615
-156.162
-150.821
-145.586
-140.458
-135.43
-130.501
-125.667
-120.924
-116.271
-111.703
-107.221
-102.822
-98.4995
422.856
437.59
442.644
428.775
377.654
256.692
22.7882
-383.526
-854.647
-1294.63
-1577.11
-1641.12
-1581.73
-1487.41
-1393.39
-1307.46
-1227.45
-1154.11
-1088.92
-1030.69
-978.436
-931.407
-888.839
-850.101
-814.656
-782.04
-751.925
-723.947
-697.864
-673.465
-650.522
-628.929
-608.489
-589.119
-570.706
-553.152
-536.395
-520.345
-504.963
-490.178
-475.948
-462.24
-449.005
-436.217
-423.845
-411.861
-400.244
-388.972
-378.026
-367.391
-357.05
-346.99
-337.198
-327.662
-318.371
-309.316
-300.487
-291.879
-283.482
-275.287
-267.292
-259.479
-251.866
-244.423
-237.151
-230.043
-223.104
-216.328
-209.693
-203.211
-196.866
-190.673
-184.607
-178.671
-172.86
-167.174
-161.61
-156.157
-150.817
-145.582
-140.455
-135.427
-130.498
-125.664
-120.921
-116.268
-111.7
-107.218
-102.819
-98.4966
422.874
437.563
442.573
428.694
377.73
257.61
25.2148
-374.408
-839.618
-1275.06
-1557.62
-1626.13
-1571.3
-1480.5
-1388.02
-1304.01
-1225.12
-1152.52
-1087.78
-1029.84
-977.787
-930.894
-888.425
-849.76
-814.37
-781.797
-751.716
-723.765
-697.705
-673.325
-650.397
-628.818
-608.389
-589.029
-570.624
-553.078
-536.327
-520.283
-504.906
-490.126
-475.9
-462.196
-448.964
-436.179
-423.809
-411.827
-400.213
-388.943
-377.999
-367.366
-357.026
-346.968
-337.178
-327.642
-318.353
-309.298
-300.471
-291.863
-283.467
-275.273
-267.279
-259.466
-251.855
-244.412
-237.14
-230.034
-223.095
-216.319
-209.684
-203.203
-196.859
-190.666
-184.601
-178.665
-172.853
-167.168
-161.605
-156.152
-150.811
-145.577
-140.45
-135.422
-130.494
-125.66
-120.917
-116.264
-111.697
-107.214
-102.816
-98.4933
422.889
437.526
442.482
428.59
377.796
258.551
27.9517
-364.403
-823.081
-1253.48
-1536.04
-1609.43
-1559.66
-1472.68
-1381.82
-1299.89
-1222.24
-1150.52
-1086.35
-1028.79
-976.983
-930.261
-887.916
-849.341
-814.021
-781.502
-751.463
-723.546
-697.514
-673.156
-650.248
-628.685
-608.269
-588.921
-570.526
-552.989
-536.246
-520.209
-504.838
-490.063
-475.842
-462.142
-448.914
-436.133
-423.767
-411.788
-400.176
-388.908
-377.967
-367.335
-356.998
-346.942
-337.153
-327.619
-318.331
-309.278
-300.452
-291.845
-283.45
-275.257
-267.264
-259.452
-251.841
-244.399
-237.128
-230.022
-223.084
-216.309
-209.674
-203.194
-196.85
-190.657
-184.592
-178.657
-172.846
-167.161
-161.598
-156.146
-150.805
-145.571
-140.444
-135.417
-130.489
-125.655
-120.912
-116.259
-111.693
-107.21
-102.812
-98.4893
422.898
437.476
442.369
428.456
377.846
259.52
31.0216
-353.476
-804.948
-1229.75
-1512.21
-1590.85
-1546.65
-1463.53
-1375.15
-1294.97
-1218.77
-1148.02
-1084.57
-1027.48
-975.982
-929.477
-887.287
-848.827
-813.593
-781.141
-751.154
-723.28
-697.281
-672.952
-650.067
-628.523
-608.125
-588.791
-570.409
-552.882
-536.149
-520.12
-504.757
-489.988
-475.773
-462.078
-448.855
-436.078
-423.716
-411.74
-400.132
-388.867
-377.929
-367.299
-356.964
-346.91
-337.123
-327.591
-318.305
-309.253
-300.429
-291.823
-283.429
-275.238
-267.245
-259.434
-251.825
-244.383
-237.113
-230.008
-223.071
-216.296
-209.662
-203.182
-196.839
-190.647
-184.583
-178.648
-172.837
-167.153
-161.59
-156.138
-150.798
-145.564
-140.438
-135.411
-130.483
-125.649
-120.907
-116.254
-111.688
-107.205
-102.807
-98.4846
422.901
437.407
442.226
428.286
377.874
260.574
34.4377
-341.601
-785.135
-1203.77
-1485.96
-1570.21
-1532.13
-1453.23
-1367.73
-1289.2
-1214.7
-1144.97
-1082.34
-1025.83
-974.735
-928.504
-886.51
-848.194
-813.068
-780.699
-750.778
-722.955
-696.999
-672.704
-649.848
-628.329
-607.951
-588.635
-570.267
-552.753
-536.032
-520.013
-504.659
-489.898
-475.69
-462.002
-448.785
-436.013
-423.655
-411.684
-400.08
-388.818
-377.883
-367.257
-356.924
-346.873
-337.088
-327.558
-318.274
-309.224
-300.401
-291.797
-283.405
-275.215
-267.224
-259.414
-251.805
-244.365
-237.096
-229.992
-223.055
-216.282
-209.648
-203.169
-196.826
-190.635
-184.571
-178.637
-172.827
-167.143
-161.58
-156.129
-150.789
-145.556
-140.43
-135.403
-130.475
-125.642
-120.9
-116.248
-111.682
-107.2
-102.801
-98.4789
422.892
437.315
442.046
428.068
377.87
261.687
38.2293
-328.744
-763.572
-1175.4
-1457.15
-1547.34
-1515.93
-1441.73
-1359.37
-1282.69
-1209.96
-1141.34
-1079.61
-1023.79
-973.18
-927.293
-885.546
-847.411
-812.421
-780.157
-750.316
-722.559
-696.655
-672.403
-649.583
-628.093
-607.74
-588.446
-570.097
-552.599
-535.892
-519.885
-504.542
-489.79
-475.591
-461.911
-448.701
-435.935
-423.583
-411.617
-400.017
-388.76
-377.828
-367.206
-356.877
-346.828
-337.046
-327.519
-318.237
-309.19
-300.369
-291.767
-283.376
-275.187
-267.198
-259.39
-251.782
-244.343
-237.075
-229.972
-223.037
-216.264
-209.632
-203.153
-196.811
-190.62
-184.558
-178.624
-172.814
-167.131
-161.569
-156.118
-150.779
-145.546
-140.42
-135.394
-130.467
-125.634
-120.892
-116.24
-111.674
-107.192
-102.794
-98.4722
422.869
437.194
441.82
427.793
377.822
262.863
42.4316
-314.898
-740.21
-1144.57
-1425.64
-1522.09
-1497.89
-1428.82
-1350.07
-1275.37
-1204.47
-1137.11
-1076.33
-1021.27
-971.247
-925.787
-884.349
-846.441
-811.622
-779.489
-749.75
-722.074
-696.235
-672.036
-649.26
-627.807
-607.485
-588.217
-569.891
-552.413
-535.722
-519.731
-504.401
-489.661
-475.473
-461.801
-448.6
-435.841
-423.496
-411.536
-399.942
-388.69
-377.764
-367.146
-356.82
-346.775
-336.997
-327.472
-318.193
-309.149
-300.33
-291.731
-283.342
-275.155
-267.168
-259.361
-251.755
-244.318
-237.051
-229.949
-223.015
-216.243
-209.612
-203.134
-196.793
-190.603
-184.541
-178.608
-172.8
-167.117
-161.555
-156.105
-150.767
-145.534
-140.409
-135.383
-130.456
-125.624
-120.883
-116.231
-111.665
-107.184
-102.786
-98.4642
422.824
437.034
441.536
427.445
377.716
264.088
47.074
-300.066
-715.019
-1111.22
-1391.31
-1494.27
-1477.83
-1414.38
-1339.63
-1267.14
-1198.26
-1132.27
-1072.5
-1018.25
-968.874
-923.919
-882.861
-845.238
-810.632
-778.664
-749.053
-721.478
-695.721
-671.588
-648.867
-627.458
-607.176
-587.94
-569.641
-552.188
-535.518
-519.546
-504.231
-489.506
-475.33
-461.67
-448.479
-435.73
-423.393
-411.44
-399.853
-388.607
-377.686
-367.073
-356.753
-346.712
-336.938
-327.417
-318.141
-309.1
-300.284
-291.688
-283.301
-275.117
-267.132
-259.327
-251.723
-244.287
-237.022
-229.922
-222.989
-216.219
-209.589
-203.112
-196.772
-190.583
-184.522
-178.59
-172.782
-167.1
-161.539
-156.09
-150.752
-145.52
-140.396
-135.371
-130.444
-125.612
-120.871
-116.22
-111.655
-107.174
-102.776
-98.4546
422.752
436.826
441.18
427.008
377.535
265.35
52.1864
-284.277
-688
-1075.31
-1354.06
-1463.75
-1455.58
-1398.27
-1327.9
-1257.89
-1191.24
-1126.78
-1068.11
-1014.72
-966.033
-921.635
-881.024
-843.747
-809.407
-777.644
-748.192
-720.744
-695.089
-671.038
-648.385
-627.033
-606.798
-587.603
-569.339
-551.915
-535.271
-519.321
-504.026
-489.319
-475.159
-461.513
-448.333
-435.596
-423.269
-411.326
-399.747
-388.508
-377.594
-366.988
-356.673
-346.637
-336.868
-327.352
-318.08
-309.042
-300.23
-291.637
-283.253
-275.072
-267.089
-259.287
-251.685
-244.251
-236.988
-229.889
-222.958
-216.19
-209.561
-203.086
-196.747
-190.559
-184.499
-178.568
-172.761
-167.08
-161.521
-156.072
-150.735
-145.504
-140.38
-135.355
-130.429
-125.598
-120.858
-116.207
-111.642
-107.162
-102.764
-98.4431
422.643
436.556
440.735
426.459
377.256
266.631
57.7953
-267.581
-659.187
-1036.86
-1313.85
-1430.37
-1430.96
-1380.3
-1314.8
-1247.52
-1183.32
-1120.57
-1063.12
-1010.68
-962.723
-918.915
-878.79
-841.912
-807.893
-776.383
-747.129
-719.839
-694.31
-670.363
-647.795
-626.513
-606.338
-587.192
-568.971
-551.584
-534.972
-519.05
-503.779
-489.093
-474.952
-461.323
-448.159
-435.434
-423.12
-411.188
-399.619
-388.39
-377.484
-366.885
-356.577
-346.548
-336.784
-327.273
-318.007
-308.974
-300.166
-291.576
-283.196
-275.018
-267.038
-259.239
-251.64
-244.209
-236.948
-229.851
-222.922
-216.155
-209.528
-203.055
-196.718
-190.531
-184.473
-178.543
-172.737
-167.057
-161.498
-156.051
-150.714
-145.484
-140.361
-135.337
-130.412
-125.581
-120.842
-116.192
-111.627
-107.147
-102.75
-98.4295
422.485
436.208
440.18
425.774
376.852
267.907
63.9367
-250.062
-628.653
-995.939
-1270.66
-1394.03
-1403.8
-1360.34
-1300.07
-1235.99
-1174.38
-1113.57
-1057.49
-1006.08
-958.932
-915.76
-876.153
-839.703
-806.042
-774.83
-745.818
-718.723
-693.352
-669.532
-647.071
-625.875
-605.774
-586.69
-568.522
-551.181
-534.608
-518.72
-503.479
-488.82
-474.702
-461.093
-447.948
-435.24
-422.941
-411.022
-399.465
-388.247
-377.352
-366.762
-356.462
-346.441
-336.684
-327.18
-317.919
-308.892
-300.089
-291.504
-283.129
-274.954
-266.978
-259.182
-251.587
-244.158
-236.9
-229.806
-222.879
-216.115
-209.49
-203.018
-196.683
-190.498
-184.441
-178.513
-172.708
-167.029
-161.472
-156.025
-150.69
-145.461
-140.339
-135.316
-130.391
-125.562
-120.823
-116.173
-111.61
-107.13
-102.733
-98.4133
422.263
435.762
439.487
424.921
376.292
269.149
70.6119
-231.854
-596.519
-952.654
-1224.53
-1354.65
-1373.93
-1338.21
-1283.49
-1223.22
-1164.34
-1105.67
-1051.12
-1000.88
-954.624
-912.151
-873.106
-837.117
-803.839
-772.952
-744.214
-717.352
-692.173
-668.511
-646.18
-625.092
-605.082
-586.076
-567.973
-550.688
-534.164
-518.318
-503.114
-488.488
-474.399
-460.816
-447.693
-435.006
-422.724
-410.822
-399.281
-388.076
-377.193
-366.614
-356.325
-346.313
-336.565
-327.068
-317.815
-308.794
-299.997
-291.418
-283.048
-274.878
-266.907
-259.115
-251.523
-244.098
-236.843
-229.752
-222.829
-216.067
-209.444
-202.975
-196.641
-190.459
-184.404
-178.477
-172.674
-166.997
-161.441
-155.996
-150.662
-145.433
-140.312
-135.29
-130.367
-125.538
-120.8
-116.151
-111.589
-107.11
-102.714
-98.3941
421.959
435.192
438.628
423.864
375.539
270.324
77.6923
-213.054
-562.942
-907.183
-1175.56
-1312.19
-1341.2
-1313.77
-1264.97
-1209
-1153.08
-1096.78
-1043.93
-994.995
-949.745
-908.054
-869.629
-834.143
-801.281
-770.743
-742.299
-715.691
-690.731
-667.257
-645.086
-624.132
-604.234
-585.322
-567.301
-550.086
-533.621
-517.829
-502.67
-488.084
-474.03
-460.478
-447.384
-434.722
-422.463
-410.581
-399.057
-387.869
-377.001
-366.436
-356.159
-346.159
-336.421
-326.934
-317.69
-308.677
-299.888
-291.315
-282.951
-274.788
-266.822
-259.035
-251.448
-244.027
-236.776
-229.689
-222.768
-216.01
-209.39
-202.924
-196.593
-190.413
-184.36
-178.435
-172.634
-166.958
-161.404
-155.96
-150.628
-145.401
-140.281
-135.261
-130.338
-125.511
-120.773
-116.125
-111.564
-107.086
-102.69
-98.3715
421.55
434.471
437.563
422.56
374.549
271.389
84.9958
-193.634
-528.109
-859.767
-1123.9
-1266.65
-1305.51
-1286.83
-1244.4
-1193.1
-1140.46
-1086.78
-1035.84
-988.355
-944.228
-903.414
-865.685
-830.757
-798.352
-768.195
-740.072
-713.738
-689.014
-665.744
-643.754
-622.956
-603.195
-584.4
-566.478
-549.349
-532.958
-517.23
-502.127
-487.591
-473.581
-460.068
-447.008
-434.376
-422.145
-410.288
-398.787
-387.619
-376.77
-366.221
-355.96
-345.973
-336.248
-326.773
-317.539
-308.536
-299.756