# Force       
# CofR        : (0.000000e+00 0.000000e+00 0.000000e+00)
#
# Time        	total_x total_y total_z	pressure_x pressure_y pressure_z	viscous_x viscous_y viscous_z
1              1.779178e+04 5.299120e+04 -1.159348e-16 1.745221e+04 5.300786e+04 -1.482101e-16 3.395671e+02 -1.665687e+01 3.227529e-17
2              6.879951e+02 1.342530e+03 -4.478724e-18 4.271242e+02 1.383086e+03 -2.860764e-18 2.608709e+02 -4.055593e+01 -1.617960e-18
3              1.288505e+02 -3.079332e+02 6.337536e-19 -8.497994e+01 -2.709934e+02 8.193571e-19 2.138304e+02 -3.693980e+01 -1.856035e-19
4              1.718445e+02 -1.556313e+01 1.446268e-19 -7.892431e+00 1.576182e+01 2.277595e-19 1.797369e+02 -3.132494e+01 -8.313263e-20
5              1.583803e+02 3.866085e+01 6.274412e-20 4.460950e+00 6.534039e+01 1.499785e-19 1.539194e+02 -2.667954e+01 -8.723437e-20
6              1.380176e+02 4.271109e+01 6.264048e-20 4.017465e+00 6.578059e+01 1.495320e-19 1.340001e+02 -2.306950e+01 -8.689154e-20
7              1.226164e+02 4.806802e+01 5.894903e-20 4.217326e+00 6.833842e+01 1.460652e-19 1.183991e+02 -2.027039e+01 -8.711620e-20
8              1.107982e+02 5.430578e+01 5.437239e-20 4.799270e+00 7.238049e+01 1.414818e-19 1.059990e+02 -1.807470e+01 -8.710937e-20
9              1.013813e+02 6.012077e+01 5.010341e-20 5.380298e+00 7.644694e+01 1.371092e-19 9.600104e+01 -1.632617e+01 -8.700578e-20
10             9.375928e+01 6.554826e+01 4.621712e-20 5.935734e+00 8.045874e+01 1.331387e-19 8.782355e+01 -1.491048e+01 -8.692163e-20
11             8.751603e+01 7.068918e+01 4.274904e-20 6.472881e+00 8.443479e+01 1.296791e-19 8.104315e+01 -1.374561e+01 -8.693009e-20
12             8.234318e+01 7.560526e+01 3.959561e-20 6.995000e+00 8.837778e+01 1.266162e-19 7.534818e+01 -1.277251e+01 -8.702063e-20
13             7.801198e+01 8.034173e+01 3.665927e-20 7.505100e+00 9.229005e+01 1.238198e-19 7.050688e+01 -1.194832e+01 -8.716054e-20
14             7.434975e+01 8.493224e+01 3.385316e-20 8.004721e+00 9.617372e+01 1.211783e-19 6.634503e+01 -1.124148e+01 -8.732517e-20
15             7.122626e+01 8.940017e+01 3.108528e-20 8.495973e+00 1.000286e+02 1.185688e-19 6.273029e+01 -1.062846e+01 -8.748353e-20
16             6.854112e+01 9.376412e+01 2.827846e-20 8.980143e+00 1.038556e+02 1.158952e-19 5.956098e+01 -1.009145e+01 -8.761669e-20
17             6.621335e+01 9.803482e+01 2.551887e-20 9.455105e+00 1.076516e+02 1.132585e-19 5.675824e+01 -9.616750e+00 -8.773965e-20
18             6.417996e+01 1.022224e+02 2.288672e-20 9.919735e+00 1.114161e+02 1.107586e-19 5.426023e+01 -9.193731e+00 -8.787191e-20
19             6.239218e+01 1.063332e+02 2.038332e-20 1.037422e+01 1.151472e+02 1.083877e-19 5.201796e+01 -8.814014e+00 -8.800442e-20
20             6.081032e+01 1.103715e+02 1.797619e-20 1.081806e+01 1.188425e+02 1.061081e-19 4.999226e+01 -8.470929e+00 -8.813196e-20
21             5.940242e+01 1.143426e+02 1.572283e-20 1.125091e+01 1.225017e+02 1.039961e-19 4.815151e+01 -8.159103e+00 -8.827322e-20
22             5.814205e+01 1.182475e+02 1.362263e-20 1.167210e+01 1.261216e+02 1.020460e-19 4.646995e+01 -7.874172e+00 -8.842336e-20
23             5.700832e+01 1.220899e+02 1.167977e-20 1.208191e+01 1.297025e+02 1.002591e-19 4.492641e+01 -7.612553e+00 -8.857933e-20
24             5.598431e+01 1.258724e+02 9.861265e-21 1.248096e+01 1.332437e+02 9.860006e-20 4.350335e+01 -7.371282e+00 -8.873880e-20
25             5.505553e+01 1.295967e+02 8.166773e-21 1.286940e+01 1.367446e+02 9.705994e-20 4.218613e+01 -7.147885e+00 -8.889317e-20
26             5.420996e+01 1.332645e+02 6.581909e-21 1.324752e+01 1.402048e+02 9.562854e-20 4.096243e+01 -6.940280e+00 -8.904663e-20
27             5.343740e+01 1.368776e+02 5.096265e-21 1.361558e+01 1.436243e+02 9.429234e-20 3.982182e+01 -6.746707e+00 -8.919607e-20
28             5.272830e+01 1.404350e+02 3.732863e-21 1.397290e+01 1.470006e+02 9.307939e-20 3.875540e+01 -6.565662e+00 -8.934653e-20
29             5.207537e+01 1.439377e+02 2.471053e-21 1.431983e+01 1.503336e+02 9.195932e-20 3.775554e+01 -6.395859e+00 -8.948827e-20
30             5.147206e+01 1.473862e+02 1.325294e-21 1.465641e+01 1.536224e+02 9.095959e-20 3.681565e+01 -6.236184e+00 -8.963430e-20
31             5.091275e+01 1.507809e+02 2.404735e-22 1.498273e+01 1.568665e+02 9.001667e-20 3.593002e+01 -6.085673e+00 -8.977620e-20
32             5.039270e+01 1.541211e+02 -7.850659e-22 1.529904e+01 1.600646e+02 8.913870e-20 3.509366e+01 -5.943486e+00 -8.992376e-20
33             4.990796e+01 1.574086e+02 -1.690830e-21 1.560576e+01 1.632175e+02 8.838861e-20 3.430220e+01 -5.808882e+00 -9.007944e-20
34             4.945454e+01 1.606435e+02 -2.440273e-21 1.590274e+01 1.663247e+02 8.781043e-20 3.355179e+01 -5.681211e+00 -9.025070e-20
35             4.902935e+01 1.638265e+02 -3.009269e-21 1.619031e+01 1.693864e+02 8.742379e-20 3.283903e+01 -5.559899e+00 -9.043305e-20
36             4.862934e+01 1.669571e+02 -3.373968e-21 1.646844e+01 1.724016e+02 8.725809e-20 3.216091e+01 -5.444439e+00 -9.063206e-20
37             4.825216e+01 1.700364e+02 -3.527465e-21 1.673744e+01 1.753708e+02 8.731734e-20 3.151472e+01 -5.334375e+00 -9.084481e-20
38             4.789568e+01 1.730647e+02 -3.485296e-21 1.699762e+01 1.782940e+02 8.759540e-20 3.089805e+01 -5.229299e+00 -9.108070e-20
39             4.755804e+01 1.760426e+02 -3.251003e-21 1.724928e+01 1.811715e+02 8.808672e-20 3.030876e+01 -5.128848e+00 -9.133772e-20
40             4.723726e+01 1.789689e+02 -2.845508e-21 1.749239e+01 1.840016e+02 8.876894e-20 2.974488e+01 -5.032693e+00 -9.161445e-20
41             4.693229e+01 1.818457e+02 -2.289545e-21 1.772763e+01 1.867862e+02 8.961893e-20 2.920466e+01 -4.940536e+00 -9.190847e-20
42             4.664155e+01 1.846725e+02 -1.575105e-21 1.795504e+01 1.895246e+02 9.065593e-20 2.868652e+01 -4.852109e+00 -9.223103e-20
43             4.636350e+01 1.874494e+02 -9.673119e-22 1.817450e+01 1.922166e+02 9.159574e-20 2.818899e+01 -4.767167e+00 -9.256306e-20
44             4.609721e+01 1.901783e+02 -4.462888e-22 1.838643e+01 1.948638e+02 9.247376e-20 2.771078e+01 -4.685486e+00 -9.292004e-20
45             4.584197e+01 1.928590e+02 8.077687e-23 1.859131e+01 1.974658e+02 9.337593e-20 2.725066e+01 -4.606857e+00 -9.329515e-20
46             4.559704e+01 1.954923e+02 6.387179e-22 1.878950e+01 2.000234e+02 9.431974e-20 2.680755e+01 -4.531100e+00 -9.368103e-20
47             4.536165e+01 1.980788e+02 1.281501e-21 1.898122e+01 2.025368e+02 9.536180e-20 2.638043e+01 -4.458046e+00 -9.408030e-20
48             4.513504e+01 2.006179e+02 1.993767e-21 1.916666e+01 2.050055e+02 9.647963e-20 2.596838e+01 -4.387537e+00 -9.448586e-20
49             4.491686e+01 2.031112e+02 2.774074e-21 1.934631e+01 2.074306e+02 9.767524e-20 2.557055e+01 -4.319430e+00 -9.490117e-20
50             4.470638e+01 2.055588e+02 3.606059e-21 1.952023e+01 2.098124e+02 9.892779e-20 2.518615e+01 -4.253593e+00 -9.532174e-20
51             4.450291e+01 2.079607e+02 4.491345e-21 1.968846e+01 2.121506e+02 1.002377e-19 2.481445e+01 -4.189901e+00 -9.574640e-20
52             4.430624e+01 2.103192e+02 5.399149e-21 1.985146e+01 2.144475e+02 1.015776e-19 2.445477e+01 -4.128240e+00 -9.617850e-20
53             4.411566e+01 2.126330e+02 6.313120e-21 2.000917e+01 2.167015e+02 1.029289e-19 2.410650e+01 -4.068505e+00 -9.661580e-20
54             4.393090e+01 2.149035e+02 7.245473e-21 2.016187e+01 2.189141e+02 1.043073e-19 2.376904e+01 -4.010597e+00 -9.706182e-20
55             4.375153e+01 2.171307e+02 8.184478e-21 2.030967e+01 2.210851e+02 1.056977e-19 2.344186e+01 -3.954426e+00 -9.751327e-20
56             4.357722e+01 2.193162e+02 9.120086e-21 2.045276e+01 2.232161e+02 1.070846e-19 2.312446e+01 -3.899907e+00 -9.796450e-20
57             4.340773e+01 2.214601e+02 1.002396e-20 2.059135e+01 2.253070e+02 1.084343e-19 2.281637e+01 -3.846961e+00 -9.841032e-20
58             4.324245e+01 2.235624e+02 1.089473e-20 2.072529e+01 2.273579e+02 1.097401e-19 2.251716e+01 -3.795514e+00 -9.884534e-20
59             4.308147e+01 2.256253e+02 1.172527e-20 2.085505e+01 2.293708e+02 1.109944e-19 2.222642e+01 -3.745498e+00 -9.926909e-20
60             4.292422e+01 2.276481e+02 1.251148e-20 2.098047e+01 2.313450e+02 1.121973e-19 2.194375e+01 -3.696845e+00 -9.968587e-20
61             4.277080e+01 2.296334e+02 1.327723e-20 2.110199e+01 2.332829e+02 1.133654e-19 2.166881e+01 -3.649497e+00 -1.000882e-19
62             4.262063e+01 2.315792e+02 1.400645e-20 2.121939e+01 2.351826e+02 1.144810e-19 2.140124e+01 -3.603395e+00 -1.004745e-19
63             4.247421e+01 2.334893e+02 1.469402e-20 2.133346e+01 2.370478e+02 1.155385e-19 2.114075e+01 -3.558486e+00 -1.008445e-19
64             4.233085e+01 2.353630e+02 1.533743e-20 2.144383e+01 2.388777e+02 1.165316e-19 2.088702e+01 -3.514720e+00 -1.011941e-19
65             4.219045e+01 2.372007e+02 1.594052e-20 2.155068e+01 2.406727e+02 1.174669e-19 2.063977e+01 -3.472049e+00 -1.015264e-19
66             4.205324e+01 2.390051e+02 1.652450e-20 2.165449e+01 2.424355e+02 1.183665e-19 2.039875e+01 -3.430427e+00 -1.018420e-19
67             4.191882e+01 2.407752e+02 1.706417e-20 2.175513e+01 2.441650e+02 1.192016e-19 2.016369e+01 -3.389813e+00 -1.021374e-19
68             4.178714e+01 2.425125e+02 1.757292e-20 2.185277e+01 2.458626e+02 1.199827e-19 1.993437e+01 -3.350166e+00 -1.024098e-19
69             4.165822e+01 2.442180e+02 1.806064e-20 2.194766e+01 2.475294e+02 1.207207e-19 1.971056e+01 -3.311449e+00 -1.026601e-19
70             4.153183e+01 2.458922e+02 1.852516e-20 2.203978e+01 2.491658e+02 1.214140e-19 1.949205e+01 -3.273626e+00 -1.028889e-19
71             4.140833e+01 2.475374e+02 1.898555e-20 2.212970e+01 2.507741e+02 1.220867e-19 1.927864e+01 -3.236662e+00 -1.031011e-19
72             4.128739e+01 2.491526e+02 1.943435e-20 2.221726e+01 2.523531e+02 1.227275e-19 1.907013e+01 -3.200525e+00 -1.032932e-19
73             4.116890e+01 2.507384e+02 1.985243e-20 2.230255e+01 2.539036e+02 1.233183e-19 1.886635e+01 -3.165186e+00 -1.034659e-19
74             4.105311e+01 2.522978e+02 2.024237e-20 2.238597e+01 2.554284e+02 1.238585e-19 1.866713e+01 -3.130616e+00 -1.036161e-19
75             4.093946e+01 2.538295e+02 2.058807e-20 2.246716e+01 2.569263e+02 1.243308e-19 1.847230e+01 -3.096787e+00 -1.037427e-19
76             4.082838e+01 2.553364e+02 2.088675e-20 2.254666e+01 2.584001e+02 1.247348e-19 1.828172e+01 -3.063668e+00 -1.038481e-19
77             4.071961e+01 2.568179e+02 2.114248e-20 2.262438e+01 2.598491e+02 1.250699e-19 1.809522e+01 -3.031240e+00 -1.039274e-19
78             4.061305e+01 2.582741e+02 2.135009e-20 2.270036e+01 2.612736e+02 1.253320e-19 1.791268e+01 -2.999478e+00 -1.039820e-19
79             4.050908e+01 2.597077e+02 2.151345e-20 2.277511e+01 2.626761e+02 1.255308e-19 1.773396e+01 -2.968360e+00 -1.040174e-19
80             4.040734e+01 2.611173e+02 2.165320e-20 2.284841e+01 2.640551e+02 1.256880e-19 1.755893e+01 -2.937864e+00 -1.040348e-19
81             4.030818e+01 2.625066e+02 2.177011e-20 2.292070e+01 2.654146e+02 1.258108e-19 1.738748e+01 -2.907968e+00 -1.040406e-19
82             4.021075e+01 2.638729e+02 2.187915e-20 2.299127e+01 2.667516e+02 1.259168e-19 1.721948e+01 -2.878655e+00 -1.040377e-19
83             4.011567e+01 2.652198e+02 2.193706e-20 2.306085e+01 2.680697e+02 1.259503e-19 1.705482e+01 -2.849904e+00 -1.040133e-19
84             4.002240e+01 2.665462e+02 2.194163e-20 2.312900e+01 2.693679e+02 1.259059e-19 1.689340e+01 -2.821698e+00 -1.039642e-19
85             3.993097e+01 2.678532e+02 2.192304e-20 2.319585e+01 2.706472e+02 1.258219e-19 1.673512e+01 -2.794019e+00 -1.038988e-19
86             3.984152e+01 2.691409e+02 2.185482e-20 2.326163e+01 2.719078e+02 1.256739e-19 1.657988e+01 -2.766851e+00 -1.038191e-19
87             3.975440e+01 2.704118e+02 2.174687e-20 2.332681e+01 2.731520e+02 1.254709e-19 1.642759e+01 -2.740179e+00 -1.037241e-19
88             3.966925e+01 2.716652e+02 2.159569e-20 2.339109e+01 2.743791e+02 1.252147e-19 1.627816e+01 -2.713987e+00 -1.036190e-19
89             3.958606e+01 2.729017e+02 2.141681e-20 2.345455e+01 2.755900e+02 1.249199e-19 1.613151e+01 -2.688261e+00 -1.035031e-19
90             3.950432e+01 2.741210e+02 2.122011e-20 2.351677e+01 2.767840e+02 1.246011e-19 1.598754e+01 -2.662986e+00 -1.033810e-19
91             3.942435e+01 2.753256e+02 2.100737e-20 2.357815e+01 2.779637e+02 1.242634e-19 1.584619e+01 -2.638149e+00 -1.032561e-19
92             3.934592e+01 2.765149e+02 2.077653e-20 2.363854e+01 2.791287e+02 1.239071e-19 1.570738e+01 -2.613738e+00 -1.031306e-19
93             3.926928e+01 2.776899e+02 2.050853e-20 2.369825e+01 2.802797e+02 1.235113e-19 1.557104e+01 -2.589742e+00 -1.030027e-19
94             3.919425e+01 2.788516e+02 2.019896e-20 2.375717e+01 2.814177e+02 1.230671e-19 1.543708e+01 -2.566147e+00 -1.028682e-19
95             3.912077e+01 2.799999e+02 1.985194e-20 2.381531e+01 2.825428e+02 1.225774e-19 1.530547e+01 -2.542943e+00 -1.027255e-19
96             3.904879e+01 2.811333e+02 1.947824e-20 2.387267e+01 2.836534e+02 1.220601e-19 1.517611e+01 -2.520118e+00 -1.025818e-19
97             3.897851e+01 2.822560e+02 1.907013e-20 2.392954e+01 2.847537e+02 1.215049e-19 1.504897e+01 -2.497660e+00 -1.024348e-19
98             3.890940e+01 2.833659e+02 1.864703e-20 2.398543e+01 2.858415e+02 1.209362e-19 1.492397e+01 -2.475560e+00 -1.022891e-19
99             3.884158e+01 2.844642e+02 1.821056e-20 2.404053e+01 2.869180e+02 1.203577e-19 1.480106e+01 -2.453810e+00 -1.021472e-19
100            3.877498e+01 2.855508e+02 1.775647e-20 2.409480e+01 2.879832e+02 1.197632e-19 1.468018e+01 -2.432401e+00 -1.020067e-19
101            3.870991e+01 2.866283e+02 1.726242e-20 2.414863e+01 2.890396e+02 1.191248e-19 1.456128e+01 -2.411322e+00 -1.018624e-19
102            3.864596e+01 2.876952e+02 1.672141e-20 2.420165e+01 2.900858e+02 1.184275e-19 1.444432e+01 -2.390565e+00 -1.017061e-19
103            3.858314e+01 2.887524e+02 1.615805e-20 2.425391e+01 2.911225e+02 1.176996e-19 1.432923e+01 -2.370122e+00 -1.015416e-19
104            3.852156e+01 2.897994e+02 1.556514e-20 2.430558e+01 2.921494e+02 1.169346e-19 1.421598e+01 -2.349985e+00 -1.013694e-19
105            3.846133e+01 2.908356e+02 1.496106e-20 2.435682e+01 2.931657e+02 1.161585e-19 1.410451e+01 -2.330146e+00 -1.011975e-19
106            3.840215e+01 2.918632e+02 1.433952e-20 2.440736e+01 2.941738e+02 1.153632e-19 1.399479e+01 -2.310599e+00 -1.010237e-19
107            3.834374e+01 2.928816e+02 1.369446e-20 2.445697e+01 2.951730e+02 1.145360e-19 1.388677e+01 -2.291336e+00 -1.008416e-19
108            3.828616e+01 2.938918e+02 1.302087e-20 2.450576e+01 2.961641e+02 1.136736e-19 1.378040e+01 -2.272349e+00 -1.006527e-19
109            3.822954e+01 2.948946e+02 1.233641e-20 2.455389e+01 2.971482e+02 1.128008e-19 1.367565e+01 -2.253631e+00 -1.004644e-19
110            3.817389e+01 2.958904e+02 1.164531e-20 2.460141e+01 2.981255e+02 1.119191e-19 1.357249e+01 -2.235177e+00 -1.002738e-19
111            3.811926e+01 2.968787e+02 1.094966e-20 2.464840e+01 2.990956e+02 1.110301e-19 1.347086e+01 -2.216978e+00 -1.000804e-19
112            3.806571e+01 2.978597e+02 1.023235e-20 2.469497e+01 3.000588e+02 1.101166e-19 1.337074e+01 -2.199031e+00 -9.988421e-20
113            3.801310e+01 2.988319e+02 9.504213e-21 2.474100e+01 3.010132e+02 1.091839e-19 1.327209e+01 -2.181328e+00 -9.967968e-20
114            3.796157e+01 2.997977e+02 8.773758e-21 2.478669e+01 3.019615e+02 1.082511e-19 1.317488e+01 -2.163864e+00 -9.947731e-20
115            3.791053e+01 3.007563e+02 8.032182e-21 2.483145e+01 3.029030e+02 1.073091e-19 1.307908e+01 -2.146634e+00 -9.927691e-20
116            3.786011e+01 3.017090e+02 7.285001e-21 2.487547e+01 3.038386e+02 1.063593e-19 1.298464e+01 -2.129634e+00 -9.907427e-20
117            3.781037e+01 3.026559e+02 6.528717e-21 2.491882e+01 3.047687e+02 1.053933e-19 1.289155e+01 -2.112857e+00 -9.886457e-20
118            3.776142e+01 3.035970e+02 5.780146e-21 2.496165e+01 3.056933e+02 1.044290e-19 1.279977e+01 -2.096300e+00 -9.864882e-20
119            3.771306e+01 3.045323e+02 5.041532e-21 2.500378e+01 3.066122e+02 1.034657e-19 1.270927e+01 -2.079956e+00 -9.842419e-20
120            3.766548e+01 3.054620e+02 4.293812e-21 2.504544e+01 3.075259e+02 1.024887e-19 1.262003e+01 -2.063820e+00 -9.819489e-20
121            3.761885e+01 3.063862e+02 3.556866e-21 2.508683e+01 3.084341e+02 1.015220e-19 1.253202e+01 -2.047888e+00 -9.796515e-20
122            3.757271e+01 3.073033e+02 2.834037e-21 2.512750e+01 3.093355e+02 1.005697e-19 1.244522e+01 -2.032157e+00 -9.773569e-20
123            3.752729e+01 3.082158e+02 2.099172e-21 2.516770e+01 3.102325e+02 9.960084e-20 1.235959e+01 -2.016622e+00 -9.750166e-20
124            3.748228e+01 3.091227e+02 1.370926e-21 2.520717e+01 3.111240e+02 9.863878e-20 1.227511e+01 -2.001280e+00 -9.726785e-20
125            3.743785e+01 3.100249e+02 6.316783e-22 2.524609e+01 3.120110e+02 9.765765e-20 1.219176e+01 -1.986125e+00 -9.702598e-20
126            3.739399e+01 3.109224e+02 -1.050893e-22 2.528447e+01 3.128936e+02 9.667696e-20 1.210952e+01 -1.971155e+00 -9.678205e-20
127            3.735060e+01 3.118151e+02 -8.322813e-22 2.532224e+01 3.137714e+02 9.570843e-20 1.202836e+01 -1.956365e+00 -9.654071e-20
128            3.730783e+01 3.127033e+02 -1.562286e-21 2.535957e+01 3.146450e+02 9.473369e-20 1.194826e+01 -1.941753e+00 -9.629597e-20
129            3.726586e+01 3.135859e+02 -2.305355e-21 2.539666e+01 3.155132e+02 9.374148e-20 1.186921e+01 -1.927314e+00 -9.604684e-20
130            3.722436e+01 3.144637e+02 -3.070954e-21 2.543319e+01 3.163768e+02 9.272923e-20 1.179116e+01 -1.913046e+00 -9.580018e-20
131            3.718328e+01 3.153363e+02 -3.858054e-21 2.546915e+01 3.172353e+02 9.168872e-20 1.171412e+01 -1.898946e+00 -9.554678e-20
132            3.714247e+01 3.162023e+02 -4.651982e-21 2.550441e+01 3.180873e+02 9.063950e-20 1.163806e+01 -1.885010e+00 -9.529149e-20
133            3.710210e+01 3.170646e+02 -5.449104e-21 2.553915e+01 3.189358e+02 8.958132e-20 1.156296e+01 -1.871234e+00 -9.503043e-20
134            3.706195e+01 3.179205e+02 -6.238233e-21 2.557315e+01 3.197782e+02 8.852800e-20 1.148880e+01 -1.857616e+00 -9.476623e-20
135            3.702148e+01 3.187702e+02 -7.022787e-21 2.560592e+01 3.206144e+02 8.748306e-20 1.141556e+01 -1.844153e+00 -9.450585e-20
136            3.698122e+01 3.196145e+02 -7.810982e-21 2.563799e+01 3.214453e+02 8.643530e-20 1.134324e+01 -1.830843e+00 -9.424628e-20
137            3.694097e+01 3.204537e+02 -8.601532e-21 2.566917e+01 3.222714e+02 8.538476e-20 1.127180e+01 -1.817683e+00 -9.398630e-20
138            3.690071e+01 3.212874e+02 -9.379328e-21 2.569948e+01 3.230920e+02 8.434924e-20 1.120124e+01 -1.804670e+00 -9.372857e-20
139            3.686078e+01 3.221144e+02 -1.014207e-20 2.572925e+01 3.239062e+02 8.333019e-20 1.113153e+01 -1.791803e+00 -9.347226e-20
140            3.682078e+01 3.229362e+02 -1.091182e-20 2.575811e+01 3.247153e+02 8.229789e-20 1.106267e+01 -1.779078e+00 -9.320971e-20
141            3.678087e+01 3.237526e+02 -1.168527e-20 2.578624e+01 3.255191e+02 8.125992e-20 1.099463e+01 -1.766494e+00 -9.294519e-20
142            3.674140e+01 3.245620e+02 -1.244699e-20 2.581400e+01 3.263161e+02 8.023771e-20 1.092740e+01 -1.754048e+00 -9.268471e-20
143            3.670184e+01 3.253650e+02 -1.319736e-20 2.584087e+01 3.271067e+02 7.922889e-20 1.086096e+01 -1.741739e+00 -9.242625e-20
144            3.666135e+01 3.261621e+02 -1.392974e-20 2.586603e+01 3.278917e+02 7.823953e-20 1.079531e+01 -1.729563e+00 -9.216927e-20
145            3.662016e+01 3.269533e+02 -1.467097e-20 2.588973e+01 3.286708e+02 7.723908e-20 1.073043e+01 -1.717519e+00 -9.191005e-20
146            3.657864e+01 3.277380e+02 -1.541388e-20 2.591234e+01 3.294436e+02 7.623583e-20 1.066630e+01 -1.705605e+00 -9.164971e-20
147            3.653664e+01 3.285149e+02 -1.614491e-20 2.593373e+01 3.302087e+02 7.524596e-20 1.060291e+01 -1.693819e+00 -9.139087e-20
148            3.649398e+01 3.292840e+02 -1.687098e-20 2.595373e+01 3.309662e+02 7.426488e-20 1.054025e+01 -1.682158e+00 -9.113585e-20
149            3.645088e+01 3.300473e+02 -1.758915e-20 2.597257e+01 3.317180e+02 7.329119e-20 1.047831e+01 -1.670622e+00 -9.088034e-20
150            3.640754e+01 3.308051e+02 -1.829676e-20 2.599047e+01 3.324643e+02 7.232406e-20 1.041707e+01 -1.659208e+00 -9.062082e-20
151            3.636369e+01 3.315562e+02 -1.899118e-20 2.600717e+01 3.332041e+02 7.137025e-20 1.035652e+01 -1.647912e+00 -9.036142e-20
152            3.631972e+01 3.323012e+02 -1.968165e-20 2.602307e+01 3.339379e+02 7.042071e-20 1.029665e+01 -1.636736e+00 -9.010236e-20
153            3.627479e+01 3.330391e+02 -2.036228e-20 2.603734e+01 3.346647e+02 6.948128e-20 1.023745e+01 -1.625675e+00 -8.984356e-20
154            3.622911e+01 3.337696e+02 -2.103735e-20 2.605020e+01 3.353843e+02 6.854545e-20 1.017891e+01 -1.614729e+00 -8.958280e-20
155            3.618317e+01 3.344944e+02 -2.171185e-20 2.606215e+01 3.360983e+02 6.761004e-20 1.012102e+01 -1.603896e+00 -8.932189e-20
156            3.613649e+01 3.352113e+02 -2.238274e-20 2.607273e+01 3.368045e+02 6.667962e-20 1.006376e+01 -1.593174e+00 -8.906235e-20
157            3.608944e+01 3.359215e+02 -2.304722e-20 2.608231e+01 3.375040e+02 6.575206e-20 1.000713e+01 -1.582561e+00 -8.879928e-20
158            3.604180e+01 3.366257e+02 -2.370712e-20 2.609069e+01 3.381977e+02 6.482786e-20 9.951112e+00 -1.572055e+00 -8.853498e-20
159            3.599369e+01 3.373233e+02 -2.436601e-20 2.609799e+01 3.388850e+02 6.390557e-20 9.895703e+00 -1.561656e+00 -8.827158e-20
160            3.594490e+01 3.380134e+02 -2.502626e-20 2.610401e+01 3.395648e+02 6.297974e-20 9.840890e+00 -1.551361e+00 -8.800600e-20
161            3.589525e+01 3.386962e+02 -2.568715e-20 2.610859e+01 3.402373e+02 6.204993e-20 9.786666e+00 -1.541169e+00 -8.773707e-20
162            3.584499e+01 3.393731e+02 -2.633810e-20 2.611197e+01 3.409042e+02 6.113051e-20 9.733019e+00 -1.531077e+00 -8.746861e-20
163            3.579455e+01 3.400456e+02 -2.698552e-20 2.611461e+01 3.415667e+02 6.021206e-20 9.679941e+00 -1.521085e+00 -8.719758e-20
164            3.574334e+01 3.407118e+02 -2.762848e-20 2.611591e+01 3.422230e+02 5.929745e-20 9.627424e+00 -1.511190e+00 -8.692592e-20
165            3.569165e+01 3.413729e+02 -2.827084e-20 2.611619e+01 3.428743e+02 5.837776e-20 9.575459e+00 -1.501391e+00 -8.664860e-20
166            3.564022e+01 3.420292e+02 -2.891002e-20 2.611618e+01 3.435209e+02 5.745908e-20 9.524039e+00 -1.491687e+00 -8.636910e-20
167            3.558836e+01 3.426805e+02 -2.955334e-20 2.611521e+01 3.441625e+02 5.653038e-20 9.473155e+00 -1.482075e+00 -8.608372e-20
168            3.553601e+01 3.433247e+02 -3.020697e-20 2.611321e+01 3.447972e+02 5.558446e-20 9.422799e+00 -1.472555e+00 -8.579142e-20
169            3.548330e+01 3.439626e+02 -3.086561e-20 2.611034e+01 3.454258e+02 5.463181e-20 9.372964e+00 -1.463124e+00 -8.549742e-20
170            3.543037e+01 3.445938e+02 -3.152780e-20 2.610673e+01 3.460476e+02 5.367071e-20 9.323642e+00 -1.453782e+00 -8.519852e-20
171            3.537757e+01 3.452198e+02 -3.219342e-20 2.610275e+01 3.466644e+02 5.270255e-20 9.274825e+00 -1.444528e+00 -8.489598e-20
172            3.532556e+01 3.458413e+02 -3.286539e-20 2.609905e+01 3.472767e+02 5.172258e-20 9.226508e+00 -1.435359e+00 -8.458796e-20
173            3.527310e+01 3.464575e+02 -3.353432e-20 2.609442e+01 3.478838e+02 5.074304e-20 9.178683e+00 -1.426276e+00 -8.427737e-20
174            3.521990e+01 3.470672e+02 -3.420452e-20 2.608855e+01 3.484845e+02 4.975759e-20 9.131343e+00 -1.417275e+00 -8.396211e-20
175            3.516613e+01 3.476713e+02 -3.488539e-20 2.608165e+01 3.490796e+02 4.875653e-20 9.084481e+00 -1.408356e+00 -8.364192e-20
176            3.511202e+01 3.482688e+02 -3.557670e-20 2.607393e+01 3.496683e+02 4.773915e-20 9.038090e+00 -1.399517e+00 -8.331585e-20
177            3.505794e+01 3.488605e+02 -3.627820e-20 2.606578e+01 3.502513e+02 4.670399e-20 8.992164e+00 -1.390758e+00 -8.298219e-20
178            3.500338e+01 3.494476e+02 -3.698586e-20 2.605669e+01 3.508297e+02 4.565642e-20 8.946696e+00 -1.382077e+00 -8.264228e-20
179            3.494805e+01 3.500283e+02 -3.770012e-20 2.604637e+01 3.514018e+02 4.459667e-20 8.901680e+00 -1.373473e+00 -8.229679e-20
180            3.489217e+01 3.506034e+02 -3.841720e-20 2.603506e+01 3.519684e+02 4.352892e-20 8.857110e+00 -1.364943e+00 -8.194612e-20
181            3.483574e+01 3.511736e+02 -3.914009e-20 2.602276e+01 3.525301e+02 4.245204e-20 8.812979e+00 -1.356487e+00 -8.159212e-20
182            3.477877e+01 3.517400e+02 -3.986979e-20 2.600949e+01 3.530881e+02 4.136501e-20 8.769281e+00 -1.348104e+00 -8.123480e-20
183            3.472269e+01 3.523036e+02 -4.060556e-20 2.599668e+01 3.536434e+02 4.026705e-20 8.726012e+00 -1.339792e+00 -8.087261e-20
184            3.466601e+01 3.528630e+02 -4.134973e-20 2.598285e+01 3.541946e+02 3.915562e-20 8.683165e+00 -1.331550e+00 -8.050535e-20
185            3.461000e+01 3.534218e+02 -4.209819e-20 2.596927e+01 3.547452e+02 3.803547e-20 8.640734e+00 -1.323377e+00 -8.013366e-20
186            3.455335e+01 3.539760e+02 -4.285120e-20 2.595463e+01 3.552913e+02 3.690406e-20 8.598714e+00 -1.315270e+00 -7.975525e-20
187            3.449581e+01 3.545261e+02 -4.361039e-20 2.593871e+01 3.558334e+02 3.576088e-20 8.557099e+00 -1.307230e+00 -7.937126e-20
188            3.443900e+01 3.550771e+02 -4.437759e-20 2.592312e+01 3.563764e+02 3.460507e-20 8.515884e+00 -1.299255e+00 -7.898266e-20
189            3.438300e+01 3.556270e+02 -4.514713e-20 2.590794e+01 3.569184e+02 3.344417e-20 8.475064e+00 -1.291342e+00 -7.859130e-20
190            3.432647e+01 3.561738e+02 -4.592050e-20 2.589184e+01 3.574573e+02 3.227687e-20 8.434634e+00 -1.283493e+00 -7.819737e-20
191            3.427080e+01 3.567178e+02 -4.670045e-20 2.587621e+01 3.579935e+02 3.109894e-20 8.394589e+00 -1.275704e+00 -7.779939e-20
192            3.421497e+01 3.572582e+02 -4.749391e-20 2.586004e+01 3.585262e+02 2.990357e-20 8.354926e+00 -1.267975e+00 -7.739748e-20
193            3.415941e+01 3.577951e+02 -4.829066e-20 2.584377e+01 3.590555e+02 2.870476e-20 8.315639e+00 -1.260307e+00 -7.699542e-20
194            3.410402e+01 3.583292e+02 -4.909117e-20 2.582730e+01 3.595819e+02 2.749849e-20 8.276723e+00 -1.252697e+00 -7.658966e-20
195            3.404868e+01 3.588590e+02 -4.989662e-20 2.581051e+01 3.601042e+02 2.628317e-20 8.238176e+00 -1.245144e+00 -7.617978e-20
196            3.399367e+01 3.593872e+02 -5.070840e-20 2.579368e+01 3.606248e+02 2.505835e-20 8.199991e+00 -1.237649e+00 -7.576675e-20
197            3.393938e+01 3.599133e+02 -5.152547e-20 2.577721e+01 3.611435e+02 2.382669e-20 8.162164e+00 -1.230210e+00 -7.535216e-20
198            3.388487e+01 3.604361e+02 -5.234670e-20 2.576018e+01 3.616589e+02 2.258625e-20 8.124692e+00 -1.222826e+00 -7.493295e-20
199            3.383012e+01 3.609573e+02 -5.317645e-20 2.574255e+01 3.621728e+02 2.133221e-20 8.087571e+00 -1.215496e+00 -7.450866e-20
200            3.377554e+01 3.614784e+02 -5.401329e-20 2.572474e+01 3.626867e+02 2.006917e-20 8.050796e+00 -1.208221e+00 -7.408246e-20
201            3.372139e+01 3.619996e+02 -5.485425e-20 2.570702e+01 3.632006e+02 1.880022e-20 8.014362e+00 -1.200998e+00 -7.365447e-20
202            3.366706e+01 3.625209e+02 -5.570025e-20 2.568879e+01 3.637147e+02 1.752537e-20 7.978265e+00 -1.193826e+00 -7.322562e-20
203            3.361283e+01 3.630416e+02 -5.655100e-20 2.567033e+01 3.642283e+02 1.624324e-20 7.942500e+00 -1.186706e+00 -7.279424e-20
204            3.355875e+01 3.635623e+02 -5.741273e-20 2.565168e+01 3.647419e+02 1.494724e-20 7.907064e+00 -1.179636e+00 -7.235997e-20
205            3.350479e+01 3.640819e+02 -5.827046e-20 2.563284e+01 3.652545e+02 1.365545e-20 7.871952e+00 -1.172616e+00 -7.192591e-20
206            3.345110e+01 3.646001e+02 -5.912930e-20 2.561394e+01 3.657658e+02 1.236366e-20 7.837161e+00 -1.165645e+00 -7.149296e-20
207            3.339728e+01 3.651167e+02 -5.999193e-20 2.559459e+01 3.662754e+02 1.106739e-20 7.802687e+00 -1.158722e+00 -7.105932e-20
208            3.334334e+01 3.656318e+02 -6.086034e-20 2.557481e+01 3.667837e+02 9.763627e-21 7.768527e+00 -1.151847e+00 -7.062397e-20
209            3.328920e+01 3.661448e+02 -6.174252e-20 2.555453e+01 3.672898e+02 8.447606e-21 7.734676e+00 -1.145020e+00 -7.019012e-20
210            3.323508e+01 3.666558e+02 -6.263073e-20 2.553395e+01 3.677940e+02 7.126843e-21 7.701131e+00 -1.138240e+00 -6.975758e-20
211            3.318106e+01 3.671651e+02 -6.351752e-20 2.551317e+01 3.682966e+02 5.808681e-21 7.667888e+00 -1.131507e+00 -6.932620e-20
212            3.312714e+01 3.676731e+02 -6.441152e-20 2.549219e+01 3.687980e+02 4.483237e-21 7.634945e+00 -1.124821e+00 -6.889476e-20
213            3.307332e+01 3.681791e+02 -6.530130e-20 2.547102e+01 3.692973e+02 3.164776e-21 7.602298e+00 -1.118180e+00 -6.846607e-20
214            3.301990e+01 3.686859e+02 -6.619888e-20 2.544995e+01 3.697975e+02 1.837570e-21 7.569943e+00 -1.111585e+00 -6.803645e-20
215            3.296654e+01 3.691910e+02 -6.709643e-20 2.542866e+01 3.702960e+02 5.127153e-22 7.537878e+00 -1.105035e+00 -6.760915e-20
216            3.291358e+01 3.696958e+02 -6.799225e-20 2.540749e+01 3.707943e+02 -8.079834e-22 7.506098e+00 -1.098529e+00 -6.718427e-20
217            3.286065e+01 3.701984e+02 -6.887786e-20 2.538605e+01 3.712905e+02 -2.114120e-21 7.474601e+00 -1.092067e+00 -6.676375e-20
218            3.280817e+01 3.707006e+02 -6.976779e-20 2.536478e+01 3.717862e+02 -3.423920e-21 7.443385e+00 -1.085648e+00 -6.634387e-20
219            3.275581e+01 3.712013e+02 -7.066174e-20 2.534337e+01 3.722806e+02 -4.735829e-21 7.412446e+00 -1.079272e+00 -6.592591e-20
220            3.270409e+01 3.717034e+02 -7.156538e-20 2.532231e+01 3.727763e+02 -6.058877e-21 7.381781e+00 -1.072938e+00 -6.550650e-20
221            3.265232e+01 3.722038e+02 -7.246144e-20 2.530094e+01 3.732705e+02 -7.371387e-21 7.351387e+00 -1.066647e+00 -6.509006e-20