# Force       
# CofR        : (0.000000e+00 0.000000e+00 0.000000e+00)
#
# Time        	total_x total_y total_z	pressure_x pressure_y pressure_z	viscous_x viscous_y viscous_z
1              4.955912e+03 1.369442e+04 -1.096519e-16 4.724272e+03 1.370425e+04 -1.033135e-16 2.316402e+02 -9.834044e+00 -6.338376e-18
2              5.489903e+02 1.326098e+03 -1.190002e-18 4.700174e+02 1.376180e+03 -1.696635e-18 7.897287e+01 -5.008153e+01 5.066330e-19
3              8.369765e+01 1.834677e+02 2.095085e-18 2.979934e+01 2.036591e+02 1.861336e-18 5.389831e+01 -2.019139e+01 2.337489e-19
4              5.577547e+01 1.937576e+02 1.322632e-18 1.466963e+01 2.034145e+02 1.104599e-18 4.110584e+01 -9.656910e+00 2.180327e-19
5              5.585372e+01 2.507649e+02 1.109849e-18 2.261654e+01 2.573596e+02 8.372429e-19 3.323718e+01 -6.594747e+00 2.726059e-19
6              5.671003e+01 2.925874e+02 9.326454e-19 2.847741e+01 2.977109e+02 6.031071e-19 2.823262e+01 -5.123562e+00 3.295383e-19
7              5.738352e+01 3.275356e+02 7.385317e-19 3.260275e+01 3.318021e+02 3.888865e-19 2.478076e+01 -4.266514e+00 3.496451e-19
8              5.803398e+01 3.588022e+02 5.365208e-19 3.579930e+01 3.625120e+02 1.950240e-19 2.223468e+01 -3.709766e+00 3.414968e-19
9              5.867771e+01 3.872410e+02 3.408315e-19 3.841636e+01 3.905556e+02 1.460998e-20 2.026135e+01 -3.314620e+00 3.262216e-19
10             5.929427e+01 4.133263e+02 1.629876e-19 4.061740e+01 4.163407e+02 -1.523357e-19 1.867687e+01 -3.014439e+00 3.153233e-19
11             5.984521e+01 4.373181e+02 5.841595e-21 4.247374e+01 4.400928e+02 -3.032145e-19 1.737147e+01 -2.774778e+00 3.090561e-19
12             6.030919e+01 4.593996e+02 -1.339873e-19 4.403446e+01 4.619759e+02 -4.386099e-19 1.627473e+01 -2.576365e+00 3.046225e-19
13             6.067947e+01 4.797047e+02 -2.610757e-19 4.534088e+01 4.821125e+02 -5.611518e-19 1.533859e+01 -2.407773e+00 3.000761e-19
14             6.096620e+01 4.983805e+02 -3.787902e-19 4.643630e+01 5.006423e+02 -6.734289e-19 1.452990e+01 -2.261786e+00 2.946387e-19
15             6.117662e+01 5.155767e+02 -4.873589e-19 4.735271e+01 5.177103e+02 -7.769886e-19 1.382391e+01 -2.133576e+00 2.896297e-19
16             6.131491e+01 5.314443e+02 -5.850754e-19 4.811268e+01 5.334641e+02 -8.725845e-19 1.320223e+01 -2.019806e+00 2.875091e-19
17             6.139274e+01 5.461327e+02 -6.724153e-19 4.874207e+01 5.480506e+02 -9.606988e-19 1.265067e+01 -1.917949e+00 2.882835e-19
18             6.142347e+01 5.597625e+02 -7.512152e-19 4.926516e+01 5.615887e+02 -1.042072e-18 1.215831e+01 -1.826162e+00 2.908569e-19
19             6.152224e+01 5.721209e+02 -8.290538e-19 4.980584e+01 5.738610e+02 -1.125278e-18 1.171640e+01 -1.740078e+00 2.962237e-19
20             6.140702e+01 5.844587e+02 -8.913392e-19 5.008965e+01 5.861266e+02 -1.190310e-18 1.131737e+01 -1.667935e+00 2.989709e-19
21             6.143294e+01 5.953840e+02 -9.559937e-19 5.047542e+01 5.969791e+02 -1.260627e-18 1.095753e+01 -1.595106e+00 3.046336e-19
22             6.127197e+01 6.062764e+02 -1.008401e-18 5.064182e+01 6.078111e+02 -1.318301e-18 1.063015e+01 -1.534630e+00 3.098998e-19
23             6.125716e+01 6.160131e+02 -1.065899e-18 5.092268e+01 6.174854e+02 -1.379003e-18 1.033448e+01 -1.472275e+00 3.131045e-19
24             6.105185e+01 6.256997e+02 -1.112114e-18 5.098784e+01 6.271212e+02 -1.431067e-18 1.006400e+01 -1.421533e+00 3.189535e-19
25             6.088385e+01 6.345665e+02 -1.161035e-18 5.106289e+01 6.359359e+02 -1.481477e-18 9.820961e+00 -1.369397e+00 3.204423e-19
26             6.071070e+01 6.429239e+02 -1.205345e-18 5.111228e+01 6.442485e+02 -1.529650e-18 9.598427e+00 -1.324607e+00 3.243047e-19
27             6.052205e+01 6.508513e+02 -1.250051e-18 5.112134e+01 6.521308e+02 -1.575847e-18 9.400712e+00 -1.279436e+00 3.257956e-19
28             6.030700e+01 6.583539e+02 -1.291697e-18 5.108760e+01 6.595962e+02 -1.620243e-18 9.219399e+00 -1.242292e+00 3.285458e-19
29             6.007716e+01 6.654781e+02 -1.333254e-18 5.101571e+01 6.666808e+02 -1.663083e-18 9.061453e+00 -1.202759e+00 3.298292e-19
30             5.982024e+01 6.722158e+02 -1.372162e-18 5.090380e+01 6.733880e+02 -1.704582e-18 8.916441e+00 -1.172264e+00 3.324197e-19
31             5.954624e+01 6.786075e+02 -1.410899e-18 5.075284e+01 6.797454e+02 -1.745153e-18 8.793396e+00 -1.137849e+00 3.342543e-19
32             5.925146e+01 6.846663e+02 -1.447878e-18 5.057079e+01 6.857795e+02 -1.785145e-18 8.680672e+00 -1.113251e+00 3.372668e-19
33             5.894223e+01 6.904275e+02 -1.484974e-18 5.035486e+01 6.915107e+02 -1.824777e-18 8.587370e+00 -1.083238e+00 3.398036e-19
34             5.861468e+01 6.958834e+02 -1.520608e-18 5.011021e+01 6.969477e+02 -1.863928e-18 8.504468e+00 -1.064221e+00 3.433193e-19
35             5.827226e+01 7.010976e+02 -1.556616e-18 4.983970e+01 7.021350e+02 -1.902871e-18 8.432563e+00 -1.037459e+00 3.462553e-19
36             5.792424e+01 7.060662e+02 -1.591339e-18 4.954444e+01 7.070899e+02 -1.941419e-18 8.379798e+00 -1.023655e+00 3.500800e-19
37             5.755102e+01 7.108737e+02 -1.626657e-18 4.922726e+01 7.118726e+02 -1.979878e-18 8.323759e+00 -9.988657e-01 3.532208e-19
38             5.718044e+01 7.155223e+02 -1.660808e-18 4.889122e+01 7.165109e+02 -2.018076e-18 8.289226e+00 -9.885535e-01 3.572682e-19
39             5.678036e+01 7.200794e+02 -1.695420e-18 4.853666e+01 7.210448e+02 -2.056249e-18 8.243702e+00 -9.653704e-01 3.608290e-19
40             5.638475e+01 7.245264e+02 -1.729215e-18 4.816673e+01 7.254832e+02 -2.094180e-18 8.218026e+00 -9.568202e-01 3.649650e-19
41             5.597215e+01 7.289422e+02 -1.763242e-18 4.779155e+01 7.298765e+02 -2.132157e-18 8.180598e+00 -9.343357e-01 3.689151e-19
42             5.557203e+01 7.333084e+02 -1.796746e-18 4.741033e+01 7.342356e+02 -2.170047e-18 8.161696e+00 -9.271506e-01 3.733010e-19
43             5.515423e+01 7.376931e+02 -1.830444e-18 4.702498e+01 7.385980e+02 -2.208091e-18 8.129243e+00 -9.049443e-01 3.776468e-19
44             5.475332e+01 7.420693e+02 -1.864017e-18 4.663933e+01 7.429679e+02 -2.246167e-18 8.113996e+00 -8.986154e-01 3.821496e-19
45             5.433389e+01 7.464738e+02 -1.897550e-18 4.624961e+01 7.473501e+02 -2.284359e-18 8.084277e+00 -8.763161e-01 3.868091e-19
46             5.407725e+01 7.515857e+02 -1.939106e-18 4.600685e+01 7.524559e+02 -2.329242e-18 8.070400e+00 -8.702211e-01 3.901357e-19
47             5.352864e+01 7.555961e+02 -1.966891e-18 4.548760e+01 7.564449e+02 -2.363019e-18 8.041032e+00 -8.487577e-01 3.961273e-19
48             5.322512e+01 7.605750e+02 -2.007677e-18 4.519748e+01 7.614178e+02 -2.406635e-18 8.027638e+00 -8.428371e-01 3.989584e-19
49             5.281037e+01 7.652644e+02 -2.042489e-18 4.481073e+01 7.660849e+02 -2.446371e-18 7.999645e+00 -8.204611e-01 4.038821e-19
50             5.237763e+01 7.698154e+02 -2.077754e-18 4.439530e+01 7.706306e+02 -2.485147e-18 7.982338e+00 -8.152491e-01 4.073934e-19
51             5.192716e+01 7.743417e+02 -2.111634e-18 4.397177e+01 7.751345e+02 -2.523508e-18 7.955385e+00 -7.927917e-01 4.118742e-19
52             5.147654e+01 7.788029e+02 -2.146482e-18 4.353869e+01 7.795911e+02 -2.561350e-18 7.937845e+00 -7.881836e-01 4.148685e-19
53             5.100747e+01 7.832310e+02 -2.179681e-18 4.309524e+01 7.839970e+02 -2.598781e-18 7.912228e+00 -7.659969e-01 4.190994e-19
54             5.053630e+01 7.875800e+02 -2.214119e-18 4.264225e+01 7.883419e+02 -2.635694e-18 7.894053e+00 -7.619592e-01 4.215756e-19
55             5.004985e+01 7.918797e+02 -2.246518e-18 4.218042e+01 7.926198e+02 -2.672099e-18 7.869427e+00 -7.400864e-01 4.255817e-19
56             4.956386e+01 7.961007e+02 -2.280339e-18 4.171332e+01 7.968373e+02 -2.707947e-18 7.850532e+00 -7.366117e-01 4.276078e-19
57             4.906487e+01 8.002691e+02 -2.311834e-18 4.123800e+01 8.009840e+02 -2.743198e-18 7.826867e+00 -7.148791e-01 4.313640e-19
58             4.856893e+01 8.043645e+02 -2.344929e-18 4.076170e+01 8.050767e+02 -2.777865e-18 7.807235e+00 -7.121740e-01 4.329360e-19
59             4.806794e+01 8.084156e+02 -2.375463e-18 4.028336e+01 8.091060e+02 -2.811930e-18 7.784580e+00 -6.904259e-01 4.364672e-19
60             4.757110e+01 8.123885e+02 -2.407659e-18 3.980686e+01 8.130769e+02 -2.845355e-18 7.764247e+00 -6.884520e-01 4.376955e-19
61             4.707358e+01 8.163171e+02 -2.437096e-18 3.933099e+01 8.169838e+02 -2.878126e-18 7.742590e+00 -6.666234e-01 4.410298e-19
62             4.658173e+01 8.201709e+02 -2.468219e-18 3.886014e+01 8.208362e+02 -2.910223e-18 7.721591e+00 -6.653227e-01 4.420046e-19
63             4.609495e+01 8.239879e+02 -2.496560e-18 3.839404e+01 8.246312e+02 -2.941663e-18 7.700909e+00 -6.433610e-01 4.451035e-19
64             4.561478e+01 8.277319e+02 -2.526559e-18 3.793552e+01 8.283746e+02 -2.972398e-18 7.679259e+00 -6.426972e-01 4.458383e-19
65             4.514352e+01 8.314424e+02 -2.553766e-18 3.748400e+01 8.320630e+02 -3.002436e-18 7.659521e+00 -6.205816e-01 4.486701e-19
66             4.467950e+01 8.350795e+02 -2.582603e-18 3.704225e+01 8.357000e+02 -3.031739e-18 7.637246e+00 -6.205190e-01 4.491356e-19
67             4.422769e+01 8.386816e+02 -2.608596e-18 3.660926e+01 8.392798e+02 -3.060323e-18 7.618425e+00 -5.982423e-01 4.517264e-19
68             4.378308e+01 8.422064e+02 -2.636176e-18 3.618749e+01 8.428051e+02 -3.088161e-18 7.595592e+00 -5.987397e-01 4.519844e-19
69             4.335243e+01 8.456898e+02 -2.660917e-18 3.577472e+01 8.462661e+02 -3.115278e-18 7.577708e+00 -5.762911e-01 4.543609e-19
70             4.292742e+01 8.490879e+02 -2.687162e-18 3.537306e+01 8.496653e+02 -3.141652e-18 7.554367e+00 -5.773554e-01 4.544901e-19
71             4.251699e+01 8.524366e+02 -2.710637e-18 3.497961e+01 8.529914e+02 -3.167287e-18 7.537378e+00 -5.547583e-01 4.566503e-19
72             4.211261e+01 8.556878e+02 -2.735447e-18 3.459624e+01 8.562447e+02 -3.192168e-18 7.516369e+00 -5.568441e-01 4.567205e-19
73             4.172020e+01 8.588812e+02 -2.757646e-18 3.422016e+01 8.594153e+02 -3.216335e-18 7.500046e+00 -5.341052e-01 4.586883e-19
74             4.133019e+01 8.619659e+02 -2.781021e-18 3.385216e+01 8.625026e+02 -3.239734e-18 7.478029e+00 -5.366883e-01 4.587125e-19
75             4.095343e+01 8.649844e+02 -2.801831e-18 3.348960e+01 8.654970e+02 -3.262401e-18 7.463824e+00 -5.125809e-01 4.605695e-19
76             4.057470e+01 8.678874e+02 -2.823656e-18 3.313455e+01 8.684035e+02 -3.284306e-18 7.440148e+00 -5.161813e-01 4.606504e-19
77             4.020949e+01 8.707194e+02 -2.843200e-18 3.278359e+01 8.712115e+02 -3.305481e-18 7.425899e+00 -4.921375e-01 4.622806e-19
78             3.984026e+01 8.734308e+02 -2.863322e-18 3.243916e+01 8.739272e+02 -3.325885e-18 7.401098e+00 -4.963966e-01 4.625629e-19
79             3.948534e+01 8.760687e+02 -2.881560e-18 3.209795e+01 8.765409e+02 -3.345564e-18 7.387389e+00 -4.722128e-01 4.640042e-19
80             3.912404e+01 8.785813e+02 -2.900034e-18 3.176219e+01 8.790585e+02 -3.364464e-18 7.361853e+00 -4.771334e-01 4.644298e-19
81             3.877778e+01 8.810197e+02 -2.916970e-18 3.142891e+01 8.814725e+02 -3.382638e-18 7.348869e+00 -4.528299e-01 4.656684e-19
82             3.842370e+01 8.833343e+02 -2.933827e-18 3.110094e+01 8.837927e+02 -3.400049e-18 7.322758e+00 -4.583619e-01 4.662228e-19
83             3.808593e+01 8.855784e+02 -2.949495e-18 3.077534e+01 8.860123e+02 -3.416762e-18 7.310587e+00 -4.339147e-01 4.672670e-19
84             3.773931e+01 8.877039e+02 -2.964802e-18 3.045534e+01 8.881439e+02 -3.432740e-18 7.283969e+00 -4.400045e-01 4.679380e-19
85             3.741079e+01 8.897660e+02 -2.979245e-18 3.013814e+01 8.901814e+02 -3.448044e-18 7.272648e+00 -4.153850e-01 4.687996e-19
86             3.707290e+01 8.917169e+02 -2.993084e-18 2.982734e+01 8.921389e+02 -3.462648e-18 7.245556e+00 -4.219870e-01 4.695635e-19
87             3.673546e+01 8.934806e+02 -3.005230e-18 2.950035e+01 8.938783e+02 -3.475753e-18 7.235110e+00 -3.976576e-01 4.705231e-19
88             3.641063e+01 8.952282e+02 -3.017424e-18 2.920293e+01 8.956325e+02 -3.488738e-18 7.207691e+00 -4.043174e-01 4.713136e-19
89             3.611276e+01 8.969683e+02 -3.029519e-18 2.891470e+01 8.973481e+02 -3.501284e-18 7.198054e+00 -3.797413e-01 4.717654e-19
90             3.580708e+01 8.986244e+02 -3.040651e-18 2.863683e+01 8.990114e+02 -3.513294e-18 7.170247e+00 -3.870039e-01 4.726436e-19
91             3.552394e+01 9.002549e+02 -3.051955e-18 2.836240e+01 9.006172e+02 -3.524847e-18 7.161542e+00 -3.622491e-01 4.728925e-19
92             3.523157e+01 9.018031e+02 -3.062056e-18 2.809814e+01 9.021731e+02 -3.535893e-18 7.133432e+00 -3.699646e-01 4.738376e-19
93             3.496369e+01 9.033339e+02 -3.072672e-18 2.783801e+01 9.036789e+02 -3.546547e-18 7.125678e+00 -3.450385e-01 4.738753e-19
94             3.468610e+01 9.047895e+02 -3.081868e-18 2.758878e+01 9.051427e+02 -3.556759e-18 7.097317e+00 -3.532141e-01 4.748914e-19
95             3.443454e+01 9.062352e+02 -3.091948e-18 2.734405e+01 9.065634e+02 -3.566650e-18 7.090492e+00 -3.281641e-01 4.747021e-19
96             3.417235e+01 9.076120e+02 -3.100359e-18 2.711044e+01 9.079488e+02 -3.576156e-18 7.061910e+00 -3.368121e-01 4.757978e-19
97             3.393753e+01 9.089855e+02 -3.110035e-18 2.688157e+01 9.092972e+02 -3.585404e-18 7.055963e+00 -3.117005e-01 4.753692e-19
98             3.369102e+01 9.102931e+02 -3.117754e-18 2.666385e+01 9.106139e+02 -3.594313e-18 7.027163e+00 -3.208275e-01 4.765597e-19
99             3.347281e+01 9.116013e+02 -3.127132e-18 2.645077e+01 9.118970e+02 -3.603007e-18 7.022037e+00 -2.957156e-01 4.758747e-19
100            3.324191e+01 9.128466e+02 -3.134229e-18 2.624886e+01 9.131519e+02 -3.611397e-18 6.993048e+00 -3.053059e-01 4.771678e-19
