# Moment      
# CofR        : (0.000000e+00 0.000000e+00 0.000000e+00)
#
# Time        	total_x total_y total_z	pressure_x pressure_y pressure_z	viscous_x viscous_y viscous_z
1              -7.902315e+03 2.880004e+03 8.712491e+03 -7.912245e+03 2.690878e+03 8.686243e+03 9.929962e+00 1.891256e+02 2.624774e+01
2              -8.010734e+02 3.517414e+02 4.777796e+02 -8.347831e+02 2.759349e+02 4.909422e+02 3.370969e+01 7.580641e+01 -1.316261e+01
3              -8.890158e+01 6.928812e+01 -7.597577e+01 -1.035618e+02 1.881023e+01 -7.340928e+01 1.466019e+01 5.047788e+01 -2.566484e+00
4              -9.216733e+01 4.721227e+01 -3.291876e+01 -1.002482e+02 9.032988e+00 -3.286549e+01 8.080820e+00 3.817928e+01 -5.326944e-02
5              -1.188035e+02 4.200050e+01 -6.881430e+00 -1.245896e+02 1.112838e+01 -7.204071e+00 5.786083e+00 3.087212e+01 3.226411e-01
6              -1.390364e+02 3.973943e+01 9.236312e+00 -1.436607e+02 1.353662e+01 8.861143e+00 4.624288e+00 2.620281e+01 3.751686e-01
7              -1.558636e+02 3.836847e+01 2.298021e+01 -1.597914e+02 1.540605e+01 2.262757e+01 3.927828e+00 2.296242e+01 3.526369e-01
8              -1.708463e+02 3.744752e+01 3.559390e+01 -1.743056e+02 1.689270e+01 3.527969e+01 3.459276e+00 2.055482e+01 3.142024e-01
9              -1.843976e+02 3.678128e+01 4.721316e+01 -1.875135e+02 1.810461e+01 4.693701e+01 3.115961e+00 1.867667e+01 2.761508e-01
10             -1.967378e+02 3.627278e+01 5.790899e+01 -1.995865e+02 1.911366e+01 5.766616e+01 2.848670e+00 1.715912e+01 2.428275e-01
11             -2.080192e+02 3.585495e+01 6.774533e+01 -2.106507e+02 1.995452e+01 6.753045e+01 2.631465e+00 1.590043e+01 2.148778e-01
12             -2.183607e+02 3.548334e+01 7.678587e+01 -2.208102e+02 2.064813e+01 7.659409e+01 2.449430e+00 1.483521e+01 1.917828e-01
13             -2.278372e+02 3.513972e+01 8.509144e+01 -2.301306e+02 2.122057e+01 8.491872e+01 2.293396e+00 1.391915e+01 1.727200e-01
14             -2.365160e+02 3.481451e+01 9.271731e+01 -2.386734e+02 2.169346e+01 9.256039e+01 2.157380e+00 1.312105e+01 1.569233e-01
15             -2.444725e+02 3.450423e+01 9.972493e+01 -2.465098e+02 2.208598e+01 9.958120e+01 2.037256e+00 1.241824e+01 1.437333e-01
16             -2.517803e+02 3.420585e+01 1.061646e+02 -2.537103e+02 2.241217e+01 1.060320e+02 1.930048e+00 1.179368e+01 1.326331e-01
17             -2.585139e+02 3.391927e+01 1.120932e+02 -2.603474e+02 2.268495e+01 1.119699e+02 1.833543e+00 1.123432e+01 1.232060e-01
18             -2.647404e+02 3.364381e+01 1.175571e+02 -2.664865e+02 2.291385e+01 1.174420e+02 1.746037e+00 1.072996e+01 1.151269e-01
19             -2.705198e+02 3.337828e+01 1.225973e+02 -2.721860e+02 2.310578e+01 1.224892e+02 1.666188e+00 1.027250e+01 1.081518e-01
20             -2.759099e+02 3.312265e+01 1.272531e+02 -2.775028e+02 2.326720e+01 1.271510e+02 1.592914e+00 9.855444e+00 1.020987e-01
21             -2.809565e+02 3.287471e+01 1.315564e+02 -2.824819e+02 2.340120e+01 1.314596e+02 1.525354e+00 9.473511e+00 9.679278e-02
22             -2.857031e+02 3.263359e+01 1.355385e+02 -2.871659e+02 2.351127e+01 1.354464e+02 1.462790e+00 9.122322e+00 9.211208e-02
23             -2.901869e+02 3.239785e+01 1.392268e+02 -2.915915e+02 2.359961e+01 1.391388e+02 1.404615e+00 8.798236e+00 8.800197e-02
24             -2.942865e+02 3.221550e+01 1.423085e+02 -2.956349e+02 2.371735e+01 1.422224e+02 1.348350e+00 8.498144e+00 8.612305e-02
25             -2.985290e+02 3.194837e+01 1.458026e+02 -2.998292e+02 2.372944e+01 1.457224e+02 1.300247e+00 8.218929e+00 8.018732e-02
26             -3.022982e+02 3.176392e+01 1.485286e+02 -3.035483e+02 2.380407e+01 1.484489e+02 1.250114e+00 7.959850e+00 7.962817e-02
27             -3.061640e+02 3.149713e+01 1.515371e+02 -3.073714e+02 2.377961e+01 1.514621e+02 1.207400e+00 7.717526e+00 7.499112e-02
28             -3.096481e+02 3.131680e+01 1.538992e+02 -3.108109e+02 2.382522e+01 1.538243e+02 1.162866e+00 7.491582e+00 7.489526e-02
29             -3.131974e+02 3.104699e+01 1.564721e+02 -3.143221e+02 2.376752e+01 1.564009e+02 1.124763e+00 7.279472e+00 7.111069e-02
30             -3.164607e+02 3.087138e+01 1.585345e+02 -3.175457e+02 2.379046e+01 1.584631e+02 1.084964e+00 7.080913e+00 7.137614e-02
31             -3.197432e+02 3.060028e+01 1.607236e+02 -3.207939e+02 2.370622e+01 1.606552e+02 1.050715e+00 6.894061e+00 6.834493e-02
32             -3.228326e+02 3.043015e+01 1.625392e+02 -3.238475e+02 2.371156e+01 1.624703e+02 1.014956e+00 6.718597e+00 6.894470e-02
33             -3.258842e+02 3.015854e+01 1.643907e+02 -3.268682e+02 2.360526e+01 1.643241e+02 9.839893e-01 6.553278e+00 6.659631e-02
34             -3.288382e+02 2.999752e+01 1.660075e+02 -3.297900e+02 2.359982e+01 1.659400e+02 9.517142e-01 6.397708e+00 6.752301e-02
35             -3.316890e+02 2.972812e+01 1.675654e+02 -3.326126e+02 2.347709e+01 1.674996e+02 9.236670e-01 6.251030e+00 6.579908e-02
36             -3.345301e+02 2.957630e+01 1.690182e+02 -3.354246e+02 2.346342e+01 1.689512e+02 8.944600e-01 6.112878e+00 6.703295e-02
37             -3.372053e+02 2.930842e+01 1.703221e+02 -3.380743e+02 2.332573e+01 1.702562e+02 8.689860e-01 5.982688e+00 6.588595e-02
38             -3.399599e+02 2.916919e+01 1.716497e+02 -3.408024e+02 2.330912e+01 1.715822e+02 8.424979e-01 5.860067e+00 6.742809e-02
39             -3.424771e+02 2.890488e+01 1.727323e+02 -3.432964e+02 2.316018e+01 1.726655e+02 8.193070e-01 5.744697e+00 6.683618e-02
40             -3.451586e+02 2.877609e+01 1.739610e+02 -3.459539e+02 2.313996e+01 1.738923e+02 7.952576e-01 5.636131e+00 6.868650e-02
41             -3.475396e+02 2.851751e+01 1.748603e+02 -3.483137e+02 2.298326e+01 1.747916e+02 7.741169e-01 5.534251e+00 6.862212e-02
42             -3.501584e+02 2.839759e+01 1.760126e+02 -3.509107e+02 2.295906e+01 1.759418e+02 7.522729e-01 5.438531e+00 7.077718e-02
43             -3.524167e+02 2.814395e+01 1.767575e+02 -3.531498e+02 2.279497e+01 1.766863e+02 7.330112e-01 5.348971e+00 7.121544e-02
44             -3.549802e+02 2.803170e+01 1.778537e+02 -3.556934e+02 2.276671e+01 1.777801e+02 7.131628e-01 5.264986e+00 7.365806e-02
45             -3.571304e+02 2.778296e+01 1.784733e+02 -3.578260e+02 2.259628e+01 1.783988e+02 6.955541e-01 5.186682e+00 7.455017e-02
46             -3.596418e+02 2.767630e+01 1.795289e+02 -3.603193e+02 2.256298e+01 1.794517e+02 6.775078e-01 5.113318e+00 7.724612e-02
47             -3.616952e+02 2.743241e+01 1.800508e+02 -3.623566e+02 2.238726e+01 1.799723e+02 6.613802e-01 5.045145e+00 7.853534e-02
48             -3.641544e+02 2.732770e+01 1.810771e+02 -3.647994e+02 2.234642e+01 1.809956e+02 6.449601e-01 4.981287e+00 8.144111e-02
49             -3.664530e+02 2.716662e+01 1.818928e+02 -3.670826e+02 2.224449e+01 1.818093e+02 6.295562e-01 4.922125e+00 8.350743e-02
50             -3.686645e+02 2.699702e+01 1.826389e+02 -3.692799e+02 2.213048e+01 1.825530e+02 6.153533e-01 4.866542e+00 8.586472e-02
51             -3.708372e+02 2.682174e+01 1.833625e+02 -3.714382e+02 2.200636e+01 1.832742e+02 6.009943e-01 4.815385e+00 8.835263e-02
52             -3.729693e+02 2.664958e+01 1.840686e+02 -3.735572e+02 2.188236e+01 1.839777e+02 5.879671e-01 4.767219e+00 9.092149e-02
53             -3.750711e+02 2.647202e+01 1.847625e+02 -3.756459e+02 2.174911e+01 1.846689e+02 5.747984e-01 4.722914e+00 9.353881e-02
54             -3.771313e+02 2.629638e+01 1.854413e+02 -3.776942e+02 2.161527e+01 1.853451e+02 5.628567e-01 4.681111e+00 9.619197e-02
55             -3.791607e+02 2.611458e+01 1.861106e+02 -3.797114e+02 2.147186e+01 1.860118e+02 5.506813e-01 4.642724e+00 9.885382e-02
56             -3.811478e+02 2.593378e+01 1.867660e+02 -3.816875e+02 2.132744e+01 1.866644e+02 5.396954e-01 4.606338e+00 1.015140e-01
57             -3.831040e+02 2.574621e+01 1.874127e+02 -3.836324e+02 2.117326e+01 1.873085e+02 5.283879e-01 4.572955e+00 1.041470e-01
58             -3.850183e+02 2.555656e+01 1.880460e+02 -3.855366e+02 2.101544e+01 1.879392e+02 5.182551e-01 4.541119e+00 1.067459e-01
59             -3.868967e+02 2.536447e+01 1.886679e+02 -3.874044e+02 2.085253e+01 1.885587e+02 5.077110e-01 4.511945e+00 1.092859e-01
60             -3.887359e+02 2.516829e+01 1.892772e+02 -3.892342e+02 2.068436e+01 1.891654e+02 4.983408e-01 4.483922e+00 1.117632e-01
61             -3.905370e+02 2.496891e+01 1.898725e+02 -3.910255e+02 2.051063e+01 1.897584e+02 4.884737e-01 4.458280e+00 1.141548e-01
62             -3.922989e+02 2.476545e+01 1.904542e+02 -3.927787e+02 2.033200e+01 1.903378e+02 4.797882e-01 4.433448e+00 1.164604e-01
63             -3.940237e+02 2.455919e+01 1.910219e+02 -3.944942e+02 2.014842e+01 1.909032e+02 4.705250e-01 4.410768e+00 1.186590e-01
64             -3.957097e+02 2.434914e+01 1.915753e+02 -3.961721e+02 1.996054e+01 1.914545e+02 4.624570e-01 4.388602e+00 1.207543e-01
65             -3.973606e+02 2.413705e+01 1.921152e+02 -3.978143e+02 1.976865e+01 1.919925e+02 4.537335e-01 4.368402e+00 1.227270e-01
66             -3.989740e+02 2.392155e+01 1.926417e+02 -3.994202e+02 1.957310e+01 1.925171e+02 4.462247e-01 4.348456e+00 1.245845e-01
67             -4.005546e+02 2.370496e+01 1.931571e+02 -4.009926e+02 1.937463e+01 1.930308e+02 4.379823e-01 4.330327e+00 1.263112e-01
68             -4.021021e+02 2.348625e+01 1.936635e+02 -4.025331e+02 1.917403e+01 1.935356e+02 4.309783e-01 4.312222e+00 1.279199e-01
69             -4.036216e+02 2.326792e+01 1.941641e+02 -4.040447e+02 1.897211e+01 1.940347e+02 4.231631e-01 4.295816e+00 1.293945e-01
70             -4.051125e+02 2.304907e+01 1.946614e+02 -4.055291e+02 1.876984e+01 1.945306e+02 4.166159e-01 4.279226e+00 1.307512e-01
71             -4.065807e+02 2.283233e+01 1.951592e+02 -4.069899e+02 1.856809e+01 1.950272e+02 4.091790e-01 4.264245e+00 1.319772e-01
72             -4.080256e+02 2.261664e+01 1.956605e+02 -4.084287e+02 1.836774e+01 1.955274e+02 4.030418e-01 4.248892e+00 1.330933e-01
73             -4.094527e+02 2.240476e+01 1.961687e+02 -4.098486e+02 1.816968e+01 1.960346e+02 3.959349e-01 4.235079e+00 1.340883e-01
74             -4.108609e+02 2.219551e+01 1.966859e+02 -4.112511e+02 1.797479e+01 1.965509e+02 3.901622e-01 4.220721e+00 1.349861e-01
75             -4.122549e+02 2.199153e+01 1.972141e+02 -4.126382e+02 1.778368e+01 1.970783e+02 3.833403e-01 4.207853e+00 1.357753e-01
76             -4.136327e+02 2.179132e+01 1.977545e+02 -4.140106e+02 1.759704e+01 1.976180e+02 3.778904e-01 4.194284e+00 1.364820e-01
77             -4.149981e+02 2.159746e+01 1.983079e+02 -4.153694e+02 1.741529e+01 1.981708e+02 3.713125e-01 4.182172e+00 1.370954e-01
78             -4.163489e+02 2.140820e+01 1.988747e+02 -4.167151e+02 1.723898e+01 1.987371e+02 3.661469e-01 4.169217e+00 1.376430e-01
79             -4.176878e+02 2.122606e+01 1.994541e+02 -4.180476e+02 1.706836e+01 1.993160e+02 3.597767e-01 4.157701e+00 1.381124e-01
80             -4.190116e+02 2.104891e+01 2.000454e+02 -4.193664e+02 1.690369e+01 1.999069e+02 3.548616e-01 4.145213e+00 1.385318e-01
81             -4.203221e+02 2.087914e+01 2.006464e+02 -4.206706e+02 1.674485e+01 2.005075e+02 3.485504e-01 4.134286e+00 1.388858e-01
82             -4.216157e+02 2.071413e+01 2.012553e+02 -4.219596e+02 1.659199e+01 2.011161e+02 3.438936e-01 4.122134e+00 1.392053e-01
83             -4.228931e+02 2.055609e+01 2.018681e+02 -4.232308e+02 1.644453e+01 2.017286e+02 3.377456e-01 4.111557e+00 1.394720e-01
84             -4.241496e+02 2.040222e+01 2.024825e+02 -4.244829e+02 1.630257e+01 2.023428e+02 3.333075e-01 4.099651e+00 1.397170e-01
85             -4.253871e+02 2.025497e+01 2.030954e+02 -4.257145e+02 1.616562e+01 2.029555e+02 3.273047e-01 4.089343e+00 1.399198e-01
86             -4.265997e+02 2.011088e+01 2.037026e+02 -4.269227e+02 1.603326e+01 2.035625e+02 3.230603e-01 4.077622e+00 1.401112e-01
87             -4.277892e+02 1.997240e+01 2.043006e+02 -4.281063e+02 1.590486e+01 2.041603e+02 3.171823e-01 4.067540e+00 1.402684e-01
88             -4.289503e+02 1.983618e+01 2.048873e+02 -4.292634e+02 1.578021e+01 2.047469e+02 3.131132e-01 4.055970e+00 1.404224e-01
89             -4.300858e+02 1.970502e+01 2.054603e+02 -4.303932e+02 1.565893e+01 2.053197e+02 3.073444e-01 4.046085e+00 1.405481e-01
90             -4.311914e+02 1.957553e+01 2.060182e+02 -4.314948e+02 1.554089e+01 2.058775e+02 3.034365e-01 4.034642e+00 1.406768e-01
91             -4.322696e+02 1.945042e+01 2.065590e+02 -4.325674e+02 1.542549e+01 2.064182e+02 2.977647e-01 4.024934e+00 1.407814e-01
92             -4.333161e+02 1.932616e+01 2.070811e+02 -4.336101e+02 1.531256e+01 2.069402e+02 2.940067e-01 4.013597e+00 1.408938e-01
93             -4.343334e+02 1.920564e+01 2.075827e+02 -4.346219e+02 1.520159e+01 2.074417e+02 2.884226e-01 4.004046e+00 1.409850e-01
94             -4.353182e+02 1.908539e+01 2.080636e+02 -4.356030e+02 1.509260e+01 2.079226e+02 2.848062e-01 3.992798e+00 1.410875e-01
95             -4.362745e+02 1.896869e+01 2.085235e+02 -4.365538e+02 1.498530e+01 2.083823e+02 2.793035e-01 3.983389e+00 1.411704e-01
96             -4.371985e+02 1.885187e+01 2.089623e+02 -4.374743e+02 1.487965e+01 2.088210e+02 2.758216e-01 3.972218e+00 1.412673e-01
97             -4.380952e+02 1.873843e+01 2.093808e+02 -4.383656e+02 1.477549e+01 2.092394e+02 2.703954e-01 3.962943e+00 1.413454e-01
98             -4.389610e+02 1.862463e+01 2.097795e+02 -4.392280e+02 1.467279e+01 2.096381e+02 2.670424e-01 3.951843e+00 1.414393e-01
99             -4.398011e+02 1.851418e+01 2.101596e+02 -4.400628e+02 1.457148e+01 2.100181e+02 2.616890e-01 3.942697e+00 1.415146e-01
100            -4.405612e+02 1.839584e+01 2.104635e+02 -4.408198e+02 1.446417e+01 2.103220e+02 2.586012e-01 3.931669e+00 1.415015e-01
101            -4.413319e+02 1.828905e+01 2.108015e+02 -4.415852e+02 1.436636e+01 2.106599e+02 2.533507e-01 3.922691e+00 1.416384e-01
102            -4.420880e+02 1.818440e+01 2.111367e+02 -4.423383e+02 1.427266e+01 2.109949e+02 2.502077e-01 3.911740e+00 1.417438e-01
103            -4.428277e+02 1.808355e+01 2.114614e+02 -4.430728e+02 1.418067e+01 2.113196e+02 2.450856e-01 3.902880e+00 1.418166e-01
104            -4.435449e+02 1.798270e+01 2.117751e+02 -4.437870e+02 1.409070e+01 2.116332e+02 2.420696e-01 3.892006e+00 1.419082e-01
105            -4.442455e+02 1.788542e+01 2.120790e+02 -4.444825e+02 1.400214e+01 2.119370e+02 2.370115e-01 3.883281e+00 1.419784e-01
106            -4.449257e+02 1.778818e+01 2.123742e+02 -4.451598e+02 1.391569e+01 2.122322e+02 2.341059e-01 3.872490e+00 1.420699e-01
107            -4.455918e+02 1.769467e+01 2.126623e+02 -4.458209e+02 1.383077e+01 2.125201e+02 2.291083e-01 3.863907e+00 1.421393e-01
108            -4.462396e+02 1.760128e+01 2.129440e+02 -4.464660e+02 1.374808e+01 2.128017e+02 2.263109e-01 3.853208e+00 1.422304e-01
109            -4.468755e+02 1.751182e+01 2.132207e+02 -4.470969e+02 1.366704e+01 2.130784e+02 2.213732e-01 3.844774e+00 1.422982e-01
110            -4.474951e+02 1.742252e+01 2.134930e+02 -4.477138e+02 1.358834e+01 2.133506e+02 2.186830e-01 3.834176e+00 1.423877e-01
111            -4.481045e+02 1.733723e+01 2.137619e+02 -4.483183e+02 1.351133e+01 2.136194e+02 2.138052e-01 3.825901e+00 1.424527e-01
112            -4.486992e+02 1.725207e+01 2.140278e+02 -4.489104e+02 1.343665e+01 2.138853e+02 2.112219e-01 3.815413e+00 1.425391e-01
113            -4.492853e+02 1.717099e+01 2.142917e+02 -4.494917e+02 1.336369e+01 2.141491e+02 2.064051e-01 3.807302e+00 1.425997e-01
114            -4.498579e+02 1.709003e+01 2.145538e+02 -4.500618e+02 1.329310e+01 2.144111e+02 2.039289e-01 3.796933e+00 1.426816e-01
115            -4.504231e+02 1.701323e+01 2.148147e+02 -4.506223e+02 1.322424e+01 2.146719e+02 1.991745e-01 3.788992e+00 1.427363e-01
116            -4.509761e+02 1.693648e+01 2.150745e+02 -4.511729e+02 1.315773e+01 2.149317e+02 1.968059e-01 3.778748e+00 1.428118e-01
117            -4.515228e+02 1.686392e+01 2.153337e+02 -4.517149e+02 1.309294e+01 2.151909e+02 1.921152e-01 3.770984e+00 1.428588e-01
118            -4.520579e+02 1.679134e+01 2.155922e+02 -4.522477e+02 1.303047e+01 2.154493e+02 1.898549e-01 3.760873e+00 1.429263e-01
119            -4.525875e+02 1.672295e+01 2.158504e+02 -4.527727e+02 1.296966e+01 2.157075e+02 1.852289e-01 3.753292e+00 1.429639e-01
120            -4.531064e+02 1.665445e+01 2.161082e+02 -4.532895e+02 1.291113e+01 2.159652e+02 1.830775e-01 3.743319e+00 1.430217e-01
121            -4.536205e+02 1.659010e+01 2.163658e+02 -4.537990e+02 1.285417e+01 2.162227e+02 1.785167e-01 3.735927e+00 1.430482e-01
122            -4.541243e+02 1.652549e+01 2.166229e+02 -4.543008e+02 1.279939e+01 2.164798e+02 1.764749e-01 3.726101e+00 1.430950e-01
123            -4.546238e+02 1.646498e+01 2.168796e+02 -4.547958e+02 1.274607e+01 2.167365e+02 1.719794e-01 3.718904e+00 1.431091e-01
124            -4.551135e+02 1.640407e+01 2.171357e+02 -4.552836e+02 1.269484e+01 2.169926e+02 1.700480e-01 3.709232e+00 1.431435e-01
125            -4.555993e+02 1.634720e+01 2.173913e+02 -4.557650e+02 1.264496e+01 2.172481e+02 1.656172e-01 3.702236e+00 1.431443e-01
126            -4.560755e+02 1.628976e+01 2.176459e+02 -4.562393e+02 1.259704e+01 2.175027e+02 1.637968e-01 3.692723e+00 1.431654e-01
127            -4.565482e+02 1.623628e+01 2.178996e+02 -4.567077e+02 1.255035e+01 2.177565e+02 1.594287e-01 3.685932e+00 1.431521e-01
128            -4.570115e+02 1.618207e+01 2.181521e+02 -4.571692e+02 1.250548e+01 2.180089e+02 1.577201e-01 3.676585e+00 1.431594e-01
129            -4.574716e+02 1.613171e+01 2.184033e+02 -4.576250e+02 1.246170e+01 2.182602e+02 1.534119e-01 3.670005e+00 1.431316e-01
130            -4.579223e+02 1.608043e+01 2.186529e+02 -4.580742e+02 1.241960e+01 2.185097e+02 1.518164e-01 3.660828e+00 1.431249e-01
131            -4.583701e+02 1.603289e+01 2.189008e+02 -4.585177e+02 1.237843e+01 2.187577e+02 1.475642e-01 3.654463e+00 1.430826e-01
132            -4.588087e+02 1.598424e+01 2.191468e+02 -4.589548e+02 1.233878e+01 2.190037e+02 1.460840e-01 3.645459e+00 1.430619e-01
133            -4.592446e+02 1.593927e+01 2.193908e+02 -4.593864e+02 1.229996e+01 2.192478e+02 1.418831e-01 3.639311e+00 1.430054e-01
134            -4.596713e+02 1.589302e+01 2.196325e+02 -4.598119e+02 1.226254e+01 2.194895e+02 1.405208e-01 3.630484e+00 1.429711e-01
135            -4.600956e+02 1.585033e+01 2.198719e+02 -4.602319e+02 1.222577e+01 2.197290e+02 1.363664e-01 3.624556e+00 1.429008e-01
136            -4.605106e+02 1.580613e+01 2.201085e+02 -4.606457e+02 1.219022e+01 2.199657e+02 1.351239e-01 3.615906e+00 1.428534e-01
137            -4.609233e+02 1.576543e+01 2.203427e+02 -4.610543e+02 1.215523e+01 2.201999e+02 1.310126e-01 3.610199e+00 1.427700e-01
138            -4.613269e+02 1.572308e+01 2.205739e+02 -4.614568e+02 1.212135e+01 2.204312e+02 1.298888e-01 3.601728e+00 1.427102e-01
139            -4.617284e+02 1.568413e+01 2.208024e+02 -4.618542e+02 1.208789e+01 2.206598e+02 1.258213e-01 3.596240e+00 1.426146e-01
140            -4.621208e+02 1.564335e+01 2.210276e+02 -4.622456e+02 1.205540e+01 2.208851e+02 1.248085e-01 3.587950e+00 1.425433e-01
141            -4.625113e+02 1.560589e+01 2.212500e+02 -4.626321e+02 1.202321e+01 2.211075e+02 1.207909e-01 3.582679e+00 1.424363e-01
142            -4.628928e+02 1.556645e+01 2.214690e+02 -4.630126e+02 1.199188e+01 2.213267e+02 1.198764e-01 3.574571e+00 1.423544e-01
143            -4.632725e+02 1.553027e+01 2.216850e+02 -4.633884e+02 1.196075e+01 2.215428e+02 1.159146e-01 3.569514e+00 1.422368e-01
144            -4.636433e+02 1.549200e+01 2.218976e+02 -4.637584e+02 1.193041e+01 2.217555e+02 1.150878e-01 3.561589e+00 1.421452e-01
145            -4.640127e+02 1.545691e+01 2.221072e+02 -4.641238e+02 1.190017e+01 2.219652e+02 1.111835e-01 3.556743e+00 1.420180e-01
146            -4.643731e+02 1.541959e+01 2.223132e+02 -4.644836e+02 1.187060e+01 2.221713e+02 1.104394e-01 3.548999e+00 1.419174e-01
147            -4.647322e+02 1.538537e+01 2.225161e+02 -4.648388e+02 1.184101e+01 2.223743e+02 1.065916e-01 3.544361e+00 1.417813e-01
148            -4.650825e+02 1.534886e+01 2.227155e+02 -4.651884e+02 1.181206e+01 2.225738e+02 1.059284e-01 3.536797e+00 1.416724e-01
149            -4.654316e+02 1.531539e+01 2.229116e+02 -4.655337e+02 1.178303e+01 2.227701e+02 1.021355e-01 3.532362e+00 1.415281e-01
150            -4.657721e+02 1.527955e+01 2.231044e+02 -4.658736e+02 1.175458e+01 2.229630e+02 1.015515e-01 3.524975e+00 1.414115e-01
151            -4.661114e+02 1.524675e+01 2.232939e+02 -4.662092e+02 1.172601e+01 2.231527e+02 9.781176e-02 3.520740e+00 1.412595e-01
152            -4.664423e+02 1.521151e+01 2.234801e+02 -4.665396e+02 1.169799e+01 2.233389e+02 9.730502e-02 3.513527e+00 1.411357e-01
153            -4.667722e+02 1.517929e+01 2.236630e+02 -4.668658e+02 1.166980e+01 2.235221e+02 9.361673e-02 3.509487e+00 1.409765e-01
154            -4.670937e+02 1.514446e+01 2.238425e+02 -4.671868e+02 1.164202e+01 2.237016e+02 9.318472e-02 3.502444e+00 1.408457e-01
155            -4.674142e+02 1.511262e+01 2.240188e+02 -4.675038e+02 1.161402e+01 2.238781e+02 8.954623e-02 3.498595e+00 1.406795e-01
156            -4.677263e+02 1.507813e+01 2.241915e+02 -4.678155e+02 1.158641e+01 2.240510e+02 8.918637e-02 3.491719e+00 1.405421e-01
157            -4.680377e+02 1.504662e+01 2.243610e+02 -4.681233e+02 1.155857e+01 2.242207e+02 8.559595e-02 3.488057e+00 1.403690e-01
158            -4.683407e+02 1.501245e+01 2.245270e+02 -4.684260e+02 1.153111e+01 2.243868e+02 8.530573e-02 3.481345e+00 1.402252e-01
159            -4.686430e+02 1.498123e+01 2.246898e+02 -4.687247e+02 1.150336e+01 2.245497e+02 8.176164e-02 3.477864e+00 1.400456e-01
160            -4.689369e+02 1.494727e+01 2.248490e+02 -4.690184e+02 1.147596e+01 2.247091e+02 8.153862e-02 3.471311e+00 1.398955e-01
161            -4.692302e+02 1.491625e+01 2.250050e+02 -4.693082e+02 1.144825e+01 2.248653e+02 7.803908e-02 3.468007e+00 1.397098e-01
162            -4.695152e+02 1.488248e+01 2.251576e+02 -4.695931e+02 1.142087e+01 2.250180e+02 7.788085e-02 3.461610e+00 1.395537e-01
163            -4.697997e+02 1.485164e+01 2.253070e+02 -4.698741e+02 1.139316e+01 2.251676e+02 7.442406e-02 3.458477e+00 1.393622e-01
164            -4.700760e+02 1.481801e+01 2.254531e+02 -4.701503e+02 1.136578e+01 2.253139e+02 7.432820e-02 3.452231e+00 1.392006e-01
165            -4.703519e+02 1.478732e+01 2.255961e+02 -4.704228e+02 1.133805e+01 2.254571e+02 7.091235e-02 3.449264e+00 1.390036e-01
166            -4.706196e+02 1.475381e+01 2.257359e+02 -4.706905e+02 1.131064e+01 2.255970e+02 7.087652e-02 3.443165e+00 1.388369e-01
167            -4.708872e+02 1.472345e+01 2.258727e+02 -4.709545e+02 1.128291e+01 2.257340e+02 6.732992e-02 3.440546e+00 1.386327e-01
168            -4.711466e+02 1.469008e+01 2.260064e+02 -4.712140e+02 1.125552e+01 2.258680e+02 6.738838e-02 3.434566e+00 1.384614e-01
169            -4.714061e+02 1.465985e+01 2.261374e+02 -4.714700e+02 1.122778e+01 2.259992e+02 6.390605e-02 3.432068e+00 1.382531e-01
170            -4.716575e+02 1.462661e+01 2.262656e+02 -4.717216e+02 1.120040e+01 2.261275e+02 6.406606e-02 3.426215e+00 1.380768e-01
171            -4.719092e+02 1.459655e+01 2.263913e+02 -4.719699e+02 1.117269e+01 2.262534e+02 6.064270e-02 3.423857e+00 1.378643e-01
172            -4.721529e+02 1.456350e+01 2.265143e+02 -4.722138e+02 1.114537e+01 2.263766e+02 6.087189e-02 3.418121e+00 1.376844e-01
173            -4.723970e+02 1.453361e+01 2.266348e+02 -4.724545e+02 1.111773e+01 2.264974e+02 5.749562e-02 3.415888e+00 1.374691e-01
174            -4.726332e+02 1.450074e+01 2.267528e+02 -4.726909e+02 1.109047e+01 2.266155e+02 5.778315e-02 3.410268e+00 1.372868e-01
175            -4.728700e+02 1.447111e+01 2.268686e+02 -4.729244e+02 1.106295e+01 2.267315e+02 5.444356e-02 3.408167e+00 1.370691e-01
176            -4.730989e+02 1.443849e+01 2.269820e+02 -4.731537e+02 1.103582e+01 2.268451e+02 5.478342e-02 3.402666e+00 1.368849e-01
177            -4.733285e+02 1.440913e+01 2.270932e+02 -4.733800e+02 1.100843e+01 2.269566e+02 5.147669e-02 3.400698e+00 1.366655e-01
178            -4.735504e+02 1.437677e+01 2.272021e+02 -4.736023e+02 1.098145e+01 2.270656e+02 5.186583e-02 3.395316e+00 1.364797e-01
179            -4.737731e+02 1.434769e+01 2.273091e+02 -4.738217e+02 1.095422e+01 2.271728e+02 4.858967e-02 3.393478e+00 1.362588e-01
180            -4.739880e+02 1.431563e+01 2.274137e+02 -4.740371e+02 1.092742e+01 2.272776e+02 4.902569e-02 3.388212e+00 1.360718e-01
181            -4.742039e+02 1.428688e+01 2.275165e+02 -4.742497e+02 1.090038e+01 2.273806e+02 4.577838e-02 3.386500e+00 1.358498e-01
182            -4.744121e+02 1.425514e+01 2.276170e+02 -4.744584e+02 1.087379e+01 2.274814e+02 4.625926e-02 3.381348e+00 1.356615e-01
183            -4.746214e+02 1.422671e+01 2.277157e+02 -4.746644e+02 1.084695e+01 2.275803e+02 4.303927e-02 3.379757e+00 1.354385e-01
184            -4.748229e+02 1.419530e+01 2.278123e+02 -4.748665e+02 1.082058e+01 2.276770e+02 4.356320e-02 3.374713e+00 1.352491e-01
185            -4.750255e+02 1.416723e+01 2.279070e+02 -4.750659e+02 1.079399e+01 2.277720e+02 4.036920e-02 3.373239e+00 1.350249e-01
186            -4.752205e+02 1.413619e+01 2.279996e+02 -4.752615e+02 1.076789e+01 2.278648e+02 4.093456e-02 3.368299e+00 1.348343e-01
187            -4.754166e+02 1.410849e+01 2.280904e+02 -4.754544e+02 1.074156e+01 2.279558e+02 3.776534e-02 3.366934e+00 1.346087e-01
188            -4.756051e+02 1.407783e+01 2.281791e+02 -4.756435e+02 1.071573e+01 2.280447e+02 3.837058e-02 3.362092e+00 1.344167e-01
189            -4.757948e+02 1.405054e+01 2.282660e+02 -4.758300e+02 1.068970e+01 2.281318e+02 3.522504e-02 3.360833e+00 1.341898e-01
190            -4.759769e+02 1.402027e+01 2.283508e+02 -4.760128e+02 1.066419e+01 2.282168e+02 3.586873e-02 3.356083e+00 1.339963e-01
191            -4.761602e+02 1.399339e+01 2.284338e+02 -4.761929e+02 1.063847e+01 2.283001e+02 3.274594e-02 3.354922e+00 1.337679e-01
192            -4.763359e+02 1.396353e+01 2.285147e+02 -4.763693e+02 1.061327e+01 2.283811e+02 3.342678e-02 3.350260e+00 1.335727e-01
193            -4.765128e+02 1.393707e+01 2.285938e+02 -4.765431e+02 1.058788e+01 2.284604e+02 3.032591e-02 3.349193e+00 1.333426e-01
194            -4.766822e+02 1.390763e+01 2.286708e+02 -4.767132e+02 1.056302e+01 2.285376e+02 3.104278e-02 3.344615e+00 1.331457e-01
195            -4.768528e+02 1.388161e+01 2.287460e+02 -4.768808e+02 1.053797e+01 2.286130e+02 2.796311e-02 3.343637e+00 1.329139e-01
196            -4.770159e+02 1.385259e+01 2.288190e+02 -4.770446e+02 1.051345e+01 2.286863e+02 2.871497e-02 3.339139e+00 1.327151e-01
197            -4.771803e+02 1.382700e+01 2.288904e+02 -4.772059e+02 1.048875e+01 2.287579e+02 2.565585e-02 3.338246e+00 1.324815e-01
198            -4.773371e+02 1.379841e+01 2.289596e+02 -4.773636e+02 1.046459e+01 2.288273e+02 2.644169e-02 3.333825e+00 1.322809e-01
199            -4.774954e+02 1.377326e+01 2.290271e+02 -4.775188e+02 1.044025e+01 2.288950e+02 2.340249e-02 3.333012e+00 1.320456e-01
200            -4.776609e+02 1.374830e+01 2.291072e+02 -4.776851e+02 1.041963e+01 2.289753e+02 2.420344e-02 3.328665e+00 1.318769e-01
201            -4.778043e+02 1.372073e+01 2.291601e+02 -4.778255e+02 1.039281e+01 2.290285e+02 2.121892e-02 3.327918e+00 1.315873e-01
202            -4.779609e+02 1.369544e+01 2.292342e+02 -4.779830e+02 1.037179e+01 2.291028e+02 2.203085e-02 3.323645e+00 1.314307e-01
203            -4.780979e+02 1.366835e+01 2.292832e+02 -4.781169e+02 1.034537e+01 2.291520e+02 1.905849e-02 3.322975e+00 1.311449e-01
204            -4.782481e+02 1.364346e+01 2.293534e+02 -4.782680e+02 1.032465e+01 2.292224e+02 1.990786e-02 3.318810e+00 1.309847e-01
205            -4.783924e+02 1.361999e+01 2.294125e+02 -4.784093e+02 1.030177e+01 2.292818e+02 1.689091e-02 3.318217e+00 1.307290e-01
206            -4.785281e+02 1.359261e+01 2.294683e+02 -4.785459e+02 1.027849e+01 2.293378e+02 1.785202e-02 3.314120e+00 1.305168e-01
207            -4.786644e+02 1.356908e+01 2.295223e+02 -4.786793e+02 1.025549e+01 2.293920e+02 1.484786e-02 3.313586e+00 1.302755e-01
208            -4.787936e+02 1.354213e+01 2.295743e+02 -4.788094e+02 1.023258e+01 2.294443e+02 1.583614e-02 3.309544e+00 1.300657e-01
209            -4.789241e+02 1.351927e+01 2.296248e+02 -4.789368e+02 1.021006e+01 2.294950e+02 1.271372e-02 3.309215e+00 1.298227e-01
210            -4.790474e+02 1.349283e+01 2.296735e+02 -4.790611e+02 1.018761e+01 2.295439e+02 1.375800e-02 3.305212e+00 1.296123e-01
211            -4.791721e+02 1.347047e+01 2.297207e+02 -4.791828e+02 1.016556e+01 2.295913e+02 1.067556e-02 3.304915e+00 1.293693e-01
212            -4.792897e+02 1.344455e+01 2.297662e+02 -4.793014e+02 1.014361e+01 2.296370e+02 1.177099e-02 3.300940e+00 1.291586e-01
213            -4.794088e+02 1.342273e+01 2.298103e+02 -4.794175e+02 1.012204e+01 2.296813e+02 8.716672e-03 3.300685e+00 1.289156e-01
214            -4.795209e+02 1.339734e+01 2.298527e+02 -4.795307e+02 1.010060e+01 2.297240e+02 9.850463e-03 3.296750e+00 1.287048e-01
215            -4.796346e+02 1.337609e+01 2.298939e+02 -4.796415e+02 1.007954e+01 2.297654e+02 6.819351e-03 3.296544e+00 1.284620e-01
216            -4.797415e+02 1.335127e+01 2.299335e+02 -4.797494e+02 1.005861e+01 2.298052e+02 7.985748e-03 3.292654e+00 1.282512e-01
217            -4.798501e+02 1.333059e+01 2.299719e+02 -4.798551e+02 1.003809e+01 2.298439e+02 4.974243e-03 3.292500e+00 1.280088e-01
218            -4.799518e+02 1.330635e+01 2.300089e+02 -4.799580e+02 1.001769e+01 2.298811e+02 6.169993e-03 3.288658e+00 1.277980e-01
219            -4.800555e+02 1.328625e+01 2.300447e+02 -4.800587e+02 9.997696e+00 2.299172e+02 3.176386e-03 3.288558e+00 1.275559e-01
220            -4.801525e+02 1.326259e+01 2.300792e+02 -4.801569e+02 9.977825e+00 2.299518e+02 4.399688e-03 3.284766e+00 1.273451e-01
221            -4.802515e+02 1.324309e+01 2.301126e+02 -4.802529e+02 9.958369e+00 2.299855e+02 1.423131e-03 3.284721e+00 1.271032e-01
222            -4.803438e+02 1.322002e+01 2.301447e+02 -4.803465e+02 9.939040e+00 2.300178e+02 2.672833e-03 3.280980e+00 1.268924e-01