# Moment      
# CofR        : (0.000000e+00 0.000000e+00 0.000000e+00)
#
# Time        	total_x total_y total_z	pressure_x pressure_y pressure_z	viscous_x viscous_y viscous_z
1              -2.649560e+04 8.895888e+03 2.930952e+04 -2.650393e+04 8.726105e+03 2.928744e+04 8.328434e+00 1.697836e+02 2.208279e+01
2              -6.712649e+02 3.439975e+02 5.739381e+02 -6.915429e+02 2.135621e+02 5.700621e+02 2.027797e+01 1.304355e+02 3.875937e+00
3              1.539666e+02 6.442524e+01 -2.477849e+02 1.354967e+02 -4.248997e+01 -2.490652e+02 1.846990e+01 1.069152e+02 1.280331e+00
4              7.781563e+00 8.592224e+01 -6.533762e+01 -7.880908e+00 -3.946215e+00 -6.615567e+01 1.566247e+01 8.986846e+01 8.180510e-01
5              -1.933043e+01 7.919015e+01 -3.599679e+01 -3.267019e+01 2.230475e+00 -3.665919e+01 1.333977e+01 7.695968e+01 6.623942e-01
6              -2.135555e+01 6.900878e+01 -3.674912e+01 -3.289030e+01 2.008732e+00 -3.732571e+01 1.153475e+01 6.700004e+01 5.765932e-01
7              -2.403401e+01 6.130822e+01 -3.595885e+01 -3.416921e+01 2.108663e+00 -3.646724e+01 1.013520e+01 5.919956e+01 5.083878e-01
8              -2.715289e+01 5.539911e+01 -3.420222e+01 -3.619024e+01 2.399635e+00 -3.465007e+01 9.037351e+00 5.299948e+01 4.478502e-01
9              -3.006039e+01 5.069067e+01 -3.241457e+01 -3.822347e+01 2.690149e+00 -3.280824e+01 8.163084e+00 4.800052e+01 3.936733e-01
10             -3.277413e+01 4.687964e+01 -3.065663e+01 -4.022937e+01 2.967867e+00 -3.100277e+01 7.455240e+00 4.391177e+01 3.461344e-01
11             -3.534459e+01 4.375802e+01 -2.891426e+01 -4.221740e+01 3.236441e+00 -2.921950e+01 6.872805e+00 4.052158e+01 3.052402e-01
12             -3.780263e+01 4.117159e+01 -2.718542e+01 -4.418889e+01 3.497500e+00 -2.745593e+01 6.386257e+00 3.767409e+01 2.705174e-01
13             -4.017087e+01 3.900599e+01 -2.546756e+01 -4.614503e+01 3.752550e+00 -2.570878e+01 5.974159e+00 3.525344e+01 2.412237e-01
14             -4.246612e+01 3.717488e+01 -2.376183e+01 -4.808686e+01 4.002360e+00 -2.397838e+01 5.620740e+00 3.317252e+01 2.165461e-01
15             -4.470009e+01 3.561313e+01 -2.206740e+01 -5.001432e+01 4.247986e+00 -2.226312e+01 5.314232e+00 3.136514e+01 1.957156e-01
16             -4.688206e+01 3.427056e+01 -2.038473e+01 -5.192778e+01 4.490071e+00 -2.056278e+01 5.045724e+00 2.978049e+01 1.780567e-01
17             -4.901741e+01 3.310667e+01 -1.871630e+01 -5.382579e+01 4.727553e+00 -1.887930e+01 4.808375e+00 2.837912e+01 1.630011e-01
18             -5.111119e+01 3.208998e+01 -1.706245e+01 -5.570805e+01 4.959868e+00 -1.721253e+01 4.596866e+00 2.713011e+01 1.500814e-01
19             -5.316658e+01 3.119609e+01 -1.542431e+01 -5.757359e+01 5.187112e+00 -1.556323e+01 4.407007e+00 2.600898e+01 1.389190e-01
20             -5.518576e+01 3.040516e+01 -1.380331e+01 -5.942123e+01 5.409030e+00 -1.393252e+01 4.235464e+00 2.499613e+01 1.292078e-01
21             -5.717128e+01 2.970121e+01 -1.219890e+01 -6.125083e+01 5.625456e+00 -1.231960e+01 4.079552e+00 2.407576e+01 1.207027e-01
22             -5.912373e+01 2.907102e+01 -1.061304e+01 -6.306081e+01 5.836048e+00 -1.072625e+01 3.937086e+00 2.323498e+01 1.132066e-01
23             -6.104497e+01 2.850416e+01 -9.045607e+00 -6.485125e+01 6.040953e+00 -9.152165e+00 3.806277e+00 2.246321e+01 1.065588e-01
24             -6.293619e+01 2.799215e+01 -7.496424e+00 -6.662183e+01 6.240478e+00 -7.597053e+00 3.685641e+00 2.175168e+01 1.006292e-01
25             -6.479836e+01 2.752777e+01 -5.965748e+00 -6.837230e+01 6.434700e+00 -6.061061e+00 3.573942e+00 2.109307e+01 9.531257e-02
26             -6.663225e+01 2.710498e+01 -4.453623e+00 -7.010239e+01 6.623762e+00 -4.544145e+00 3.470140e+00 2.048122e+01 9.052204e-02
27             -6.843878e+01 2.671870e+01 -2.959612e+00 -7.181213e+01 6.807788e+00 -3.045798e+00 3.373353e+00 1.991091e+01 8.618579e-02
28             -7.021749e+01 2.636415e+01 -1.485306e+00 -7.350032e+01 6.986450e+00 -1.567550e+00 3.282831e+00 1.937770e+01 8.224409e-02
29             -7.196886e+01 2.603768e+01 -3.016903e-02 -7.516679e+01 7.159913e+00 -1.088160e-01 3.197929e+00 1.887777e+01 7.864700e-02
30             -7.369312e+01 2.573603e+01 1.405413e+00 -7.681121e+01 7.328204e+00 1.330061e+00 3.118092e+00 1.840783e+01 7.535248e-02
31             -7.539043e+01 2.545638e+01 2.821166e+00 -7.843327e+01 7.491366e+00 2.748842e+00 3.042836e+00 1.796501e+01 7.232458e-02
32             -7.706054e+01 2.519635e+01 4.217018e+00 -8.003228e+01 7.649519e+00 4.147486e+00 2.971743e+00 1.754683e+01 6.953205e-02
33             -7.870432e+01 2.495398e+01 5.593344e+00 -8.160876e+01 7.802882e+00 5.526393e+00 2.904441e+00 1.715110e+01 6.695088e-02
34             -8.032176e+01 2.472727e+01 6.949900e+00 -8.316237e+01 7.951372e+00 6.885340e+00 2.840606e+00 1.677590e+01 6.455972e-02
35             -8.191325e+01 2.451467e+01 8.287022e+00 -8.469320e+01 8.095156e+00 8.224684e+00 2.779950e+00 1.641952e+01 6.233871e-02
36             -8.347856e+01 2.431467e+01 9.604110e+00 -8.620078e+01 8.234218e+00 9.543841e+00 2.722220e+00 1.608045e+01 6.026864e-02
37             -8.501819e+01 2.412608e+01 1.090164e+01 -8.768538e+01 8.368719e+00 1.084331e+01 2.667188e+00 1.575736e+01 5.833544e-02
38             -8.653234e+01 2.394784e+01 1.217977e+01 -8.914699e+01 8.498812e+00 1.212325e+01 2.614649e+00 1.544903e+01 5.652740e-02
39             -8.802132e+01 2.377902e+01 1.343866e+01 -9.058575e+01 8.624641e+00 1.338383e+01 2.564424e+00 1.515438e+01 5.483129e-02
40             -8.948445e+01 2.361863e+01 1.467758e+01 -9.200080e+01 8.746193e+00 1.462435e+01 2.516346e+00 1.487244e+01 5.323711e-02
41             -9.092285e+01 2.346615e+01 1.589777e+01 -9.339311e+01 8.863816e+00 1.584603e+01 2.470268e+00 1.460233e+01 5.173721e-02
42             -9.233626e+01 2.332078e+01 1.709870e+01 -9.476232e+01 8.977518e+00 1.704838e+01 2.426054e+00 1.434326e+01 5.032359e-02
43             -9.372470e+01 2.318175e+01 1.828047e+01 -9.610828e+01 9.087252e+00 1.823148e+01 2.383583e+00 1.409450e+01 4.898865e-02
44             -9.508916e+01 2.304860e+01 1.944371e+01 -9.743190e+01 9.193217e+00 1.939598e+01 2.342743e+00 1.385539e+01 4.772758e-02
45             -9.642949e+01 2.292099e+01 2.058830e+01 -9.873292e+01 9.295657e+00 2.054176e+01 2.303428e+00 1.362533e+01 4.654091e-02
46             -9.774617e+01 2.279852e+01 2.171463e+01 -1.000117e+02 9.394748e+00 2.166921e+01 2.265550e+00 1.340377e+01 4.541703e-02
47             -9.903939e+01 2.268083e+01 2.282289e+01 -1.012684e+02 9.490611e+00 2.277853e+01 2.229023e+00 1.319021e+01 4.435169e-02
48             -1.003090e+02 2.256752e+01 2.391309e+01 -1.025027e+02 9.583328e+00 2.386975e+01 2.193768e+00 1.298419e+01 4.334081e-02
49             -1.015556e+02 2.245843e+01 2.498577e+01 -1.037153e+02 9.673153e+00 2.494339e+01 2.159715e+00 1.278528e+01 4.237974e-02
50             -1.027794e+02 2.235319e+01 2.604079e+01 -1.049062e+02 9.760113e+00 2.599933e+01 2.126796e+00 1.259308e+01 4.146492e-02
51             -1.039804e+02 2.225146e+01 2.707826e+01 -1.060753e+02 9.844231e+00 2.703766e+01 2.094951e+00 1.240723e+01 4.059328e-02
52             -1.051596e+02 2.215312e+01 2.809896e+01 -1.072237e+02 9.925731e+00 2.805919e+01 2.064120e+00 1.222739e+01 3.976405e-02
53             -1.063165e+02 2.205783e+01 2.910256e+01 -1.083508e+02 1.000458e+01 2.906359e+01 2.034253e+00 1.205325e+01 3.897165e-02
54             -1.074517e+02 2.196545e+01 3.008949e+01 -1.094570e+02 1.008093e+01 3.005128e+01 2.005299e+00 1.188452e+01 3.821611e-02
55             -1.085653e+02 2.187576e+01 3.105971e+01 -1.105425e+02 1.015483e+01 3.102222e+01 1.977213e+00 1.172093e+01 3.749427e-02
56             -1.096581e+02 2.178861e+01 3.201425e+01 -1.116080e+02 1.022638e+01 3.197745e+01 1.949954e+00 1.156223e+01 3.680427e-02
57             -1.107300e+02 2.170386e+01 3.295292e+01 -1.126535e+02 1.029568e+01 3.291678e+01 1.923480e+00 1.140819e+01 3.614424e-02
58             -1.117812e+02 2.162123e+01 3.387549e+01 -1.136790e+02 1.036265e+01 3.383997e+01 1.897757e+00 1.125858e+01 3.551155e-02
59             -1.128126e+02 2.154073e+01 3.478279e+01 -1.146854e+02 1.042753e+01 3.474788e+01 1.872749e+00 1.111321e+01 3.490482e-02
60             -1.138241e+02 2.146211e+01 3.567477e+01 -1.156725e+02 1.049024e+01 3.564045e+01 1.848423e+00 1.097187e+01 3.432351e-02
61             -1.148167e+02 2.138540e+01 3.655270e+01 -1.166415e+02 1.055100e+01 3.651894e+01 1.824748e+00 1.083440e+01 3.376605e-02
62             -1.157896e+02 2.131031e+01 3.741517e+01 -1.175913e+02 1.060969e+01 3.738194e+01 1.801697e+00 1.070062e+01 3.323079e-02
63             -1.167447e+02 2.123710e+01 3.826403e+01 -1.185239e+02 1.066673e+01 3.823131e+01 1.779243e+00 1.057037e+01 3.271640e-02
64             -1.176815e+02 2.116542e+01 3.909877e+01 -1.194388e+02 1.072192e+01 3.906655e+01 1.757360e+00 1.044351e+01 3.222177e-02
65             -1.186003e+02 2.109522e+01 3.991959e+01 -1.203364e+02 1.077534e+01 3.988784e+01 1.736024e+00 1.031989e+01 3.174671e-02
66             -1.195025e+02 2.102662e+01 4.072765e+01 -1.212177e+02 1.082725e+01 4.069636e+01 1.715214e+00 1.019937e+01 3.129011e-02
67             -1.203876e+02 2.095941e+01 4.152229e+01 -1.220825e+02 1.087756e+01 4.149144e+01 1.694906e+00 1.008185e+01 3.085144e-02
68             -1.212562e+02 2.089357e+01 4.230375e+01 -1.229313e+02 1.092638e+01 4.227332e+01 1.675083e+00 9.967186e+00 3.042943e-02
69             -1.221090e+02 2.082911e+01 4.307288e+01 -1.237647e+02 1.097383e+01 4.304286e+01 1.655725e+00 9.855281e+00 3.002314e-02
70             -1.229461e+02 2.076591e+01 4.382982e+01 -1.245829e+02 1.101989e+01 4.380018e+01 1.636813e+00 9.746025e+00 2.963224e-02
71             -1.237687e+02 2.070417e+01 4.457551e+01 -1.253870e+02 1.106485e+01 4.454625e+01 1.618331e+00 9.639318e+00 2.925706e-02
72             -1.245763e+02 2.064369e+01 4.530911e+01 -1.261765e+02 1.110863e+01 4.528022e+01 1.600263e+00 9.535065e+00 2.889631e-02
73             -1.253692e+02 2.058445e+01 4.603112e+01 -1.269518e+02 1.115128e+01 4.600257e+01 1.582593e+00 9.433176e+00 2.854873e-02
74             -1.261489e+02 2.052655e+01 4.674261e+01 -1.277142e+02 1.119299e+01 4.671440e+01 1.565308e+00 9.333566e+00 2.821238e-02
75             -1.269148e+02 2.046973e+01 4.744313e+01 -1.284631e+02 1.123358e+01 4.741524e+01 1.548393e+00 9.236152e+00 2.788897e-02
76             -1.276682e+02 2.041419e+01 4.813396e+01 -1.292000e+02 1.127333e+01 4.810638e+01 1.531834e+00 9.140858e+00 2.758104e-02
77             -1.284089e+02 2.035980e+01 4.881459e+01 -1.299246e+02 1.131219e+01 4.878730e+01 1.515620e+00 9.047612e+00 2.728406e-02
78             -1.291370e+02 2.030652e+01 4.948490e+01 -1.306368e+02 1.135018e+01 4.945790e+01 1.499739e+00 8.956341e+00 2.699780e-02
79             -1.298539e+02 2.025454e+01 5.014600e+01 -1.313380e+02 1.138756e+01 5.011928e+01 1.484180e+00 8.866981e+00 2.672202e-02
80             -1.305586e+02 2.020367e+01 5.079743e+01 -1.320276e+02 1.142421e+01 5.077097e+01 1.468932e+00 8.779467e+00 2.645653e-02
81             -1.312533e+02 2.015409e+01 5.144100e+01 -1.327073e+02 1.146035e+01 5.141480e+01 1.453984e+00 8.693739e+00 2.620118e-02
82             -1.319365e+02 2.010537e+01 5.207524e+01 -1.333758e+02 1.149564e+01 5.204928e+01 1.439327e+00 8.609738e+00 2.595580e-02
83             -1.326099e+02 2.005783e+01 5.270136e+01 -1.340348e+02 1.153042e+01 5.267564e+01 1.424952e+00 8.527410e+00 2.571989e-02
84             -1.332731e+02 2.001120e+01 5.331902e+01 -1.346839e+02 1.156450e+01 5.329352e+01 1.410849e+00 8.446701e+00 2.549315e-02
85             -1.339266e+02 1.996549e+01 5.392852e+01 -1.353236e+02 1.159793e+01 5.390325e+01 1.397010e+00 8.367562e+00 2.527547e-02
86             -1.345705e+02 1.992076e+01 5.453014e+01 -1.359539e+02 1.163082e+01 5.450507e+01 1.383426e+00 8.289942e+00 2.506675e-02
87             -1.352059e+02 1.987720e+01 5.512460e+01 -1.365760e+02 1.166340e+01 5.509974e+01 1.370090e+00 8.213797e+00 2.486676e-02
88             -1.358326e+02 1.983463e+01 5.571208e+01 -1.371896e+02 1.169554e+01 5.568740e+01 1.356994e+00 8.139082e+00 2.467540e-02
89             -1.364509e+02 1.979303e+01 5.629252e+01 -1.377950e+02 1.172727e+01 5.626802e+01 1.344130e+00 8.065754e+00 2.449243e-02
90             -1.370605e+02 1.975216e+01 5.686542e+01 -1.383920e+02 1.175839e+01 5.684110e+01 1.331493e+00 7.993772e+00 2.431845e-02
91             -1.376628e+02 1.971217e+01 5.743207e+01 -1.389819e+02 1.178908e+01 5.740792e+01 1.319074e+00 7.923097e+00 2.415207e-02
92             -1.382575e+02 1.967296e+01 5.799220e+01 -1.395643e+02 1.181927e+01 5.796821e+01 1.306869e+00 7.853691e+00 2.399313e-02
93             -1.388450e+02 1.963464e+01 5.854626e+01 -1.401398e+02 1.184912e+01 5.852241e+01 1.294871e+00 7.785518e+00 2.384158e-02
94             -1.394258e+02 1.959713e+01 5.909484e+01 -1.407089e+02 1.187858e+01 5.907114e+01 1.283074e+00 7.718542e+00 2.369699e-02
95             -1.399999e+02 1.956039e+01 5.963769e+01 -1.412714e+02 1.190765e+01 5.961413e+01 1.271472e+00 7.652733e+00 2.356038e-02
96             -1.405667e+02 1.952439e+01 6.017382e+01 -1.418267e+02 1.193634e+01 6.015039e+01 1.260059e+00 7.588057e+00 2.343177e-02
97             -1.411280e+02 1.948926e+01 6.070510e+01 -1.423768e+02 1.196477e+01 6.068179e+01 1.248830e+00 7.524484e+00 2.331141e-02
98             -1.416830e+02 1.945470e+01 6.123093e+01 -1.429207e+02 1.199272e+01 6.120773e+01 1.237780e+00 7.461983e+00 2.319913e-02
99             -1.422321e+02 1.942079e+01 6.175162e+01 -1.434590e+02 1.202026e+01 6.172853e+01 1.226905e+00 7.400528e+00 2.309265e-02
100            -1.427754e+02 1.938749e+01 6.226711e+01 -1.439916e+02 1.204740e+01 6.224411e+01 1.216201e+00 7.340089e+00 2.299234e-02
101            -1.433141e+02 1.935496e+01 6.277890e+01 -1.445198e+02 1.207432e+01 6.275600e+01 1.205661e+00 7.280641e+00 2.289889e-02
102            -1.438476e+02 1.932298e+01 6.328598e+01 -1.450429e+02 1.210082e+01 6.326317e+01 1.195283e+00 7.222158e+00 2.281243e-02
103            -1.443762e+02 1.929157e+01 6.378886e+01 -1.455613e+02 1.212696e+01 6.376613e+01 1.185061e+00 7.164615e+00 2.273210e-02
104            -1.448997e+02 1.926078e+01 6.428697e+01 -1.460747e+02 1.215279e+01 6.426431e+01 1.174993e+00 7.107989e+00 2.265780e-02
105            -1.454178e+02 1.923067e+01 6.477970e+01 -1.465828e+02 1.217841e+01 6.475711e+01 1.165073e+00 7.052256e+00 2.258922e-02
106            -1.459316e+02 1.920107e+01 6.526830e+01 -1.470869e+02 1.220368e+01 6.524578e+01 1.155299e+00 6.997395e+00 2.252605e-02
107            -1.464408e+02 1.917187e+01 6.575258e+01 -1.475865e+02 1.222849e+01 6.573011e+01 1.145668e+00 6.943383e+00 2.246770e-02
108            -1.469459e+02 1.914308e+01 6.623314e+01 -1.480821e+02 1.225288e+01 6.621073e+01 1.136174e+00 6.890201e+00 2.241462e-02
109            -1.474473e+02 1.911477e+01 6.671051e+01 -1.485741e+02 1.227695e+01 6.668815e+01 1.126816e+00 6.837827e+00 2.236699e-02
110            -1.479452e+02 1.908695e+01 6.718479e+01 -1.490628e+02 1.230070e+01 6.716246e+01 1.117588e+00 6.786243e+00 2.232504e-02
111            -1.484393e+02 1.905963e+01 6.765557e+01 -1.495478e+02 1.232420e+01 6.763328e+01 1.108489e+00 6.735430e+00 2.228873e-02
112            -1.489299e+02 1.903286e+01 6.812289e+01 -1.500294e+02 1.234749e+01 6.810063e+01 1.099515e+00 6.685370e+00 2.225776e-02
113            -1.494160e+02 1.900655e+01 6.858540e+01 -1.505066e+02 1.237050e+01 6.856317e+01 1.090664e+00 6.636046e+00 2.223159e-02
114            -1.498988e+02 1.898079e+01 6.904463e+01 -1.509808e+02 1.239335e+01 6.902242e+01 1.081932e+00 6.587441e+00 2.221039e-02
115            -1.503782e+02 1.895527e+01 6.950040e+01 -1.514515e+02 1.241573e+01 6.947821e+01 1.073317e+00 6.539538e+00 2.219410e-02
116            -1.508545e+02 1.893005e+01 6.995329e+01 -1.519193e+02 1.243773e+01 6.993110e+01 1.064817e+00 6.492321e+00 2.218260e-02
117            -1.513279e+02 1.890519e+01 7.040343e+01 -1.523844e+02 1.245941e+01 7.038125e+01 1.056429e+00 6.445775e+00 2.217565e-02
118            -1.517985e+02 1.888071e+01 7.085073e+01 -1.528467e+02 1.248083e+01 7.082856e+01 1.048150e+00 6.399885e+00 2.217318e-02
119            -1.522661e+02 1.885653e+01 7.129490e+01 -1.533061e+02 1.250189e+01 7.127272e+01 1.039978e+00 6.354637e+00 2.217505e-02
120            -1.527310e+02 1.883274e+01 7.173636e+01 -1.537629e+02 1.252272e+01 7.171418e+01 1.031910e+00 6.310017e+00 2.218133e-02
121            -1.531931e+02 1.880943e+01 7.217488e+01 -1.542171e+02 1.254342e+01 7.215269e+01 1.023944e+00 6.266011e+00 2.219158e-02
122            -1.536516e+02 1.878636e+01 7.260931e+01 -1.546677e+02 1.256375e+01 7.258711e+01 1.016079e+00 6.222608e+00 2.220536e-02
123            -1.541079e+02 1.876365e+01 7.304089e+01 -1.551162e+02 1.258385e+01 7.301867e+01 1.008311e+00 6.179793e+00 2.222235e-02
124            -1.545614e+02 1.874114e+01 7.346942e+01 -1.555620e+02 1.260359e+01 7.344718e+01 1.000640e+00 6.137555e+00 2.224250e-02
125            -1.550124e+02 1.871893e+01 7.389542e+01 -1.560055e+02 1.262305e+01 7.387315e+01 9.930627e-01 6.095882e+00 2.226615e-02
126            -1.554612e+02 1.869700e+01 7.431888e+01 -1.564468e+02 1.264224e+01 7.429658e+01 9.855775e-01 6.054761e+00 2.229284e-02
127            -1.559075e+02 1.867530e+01 7.473947e+01 -1.568857e+02 1.266112e+01 7.471714e+01 9.781826e-01 6.014182e+00 2.232215e-02
128            -1.563516e+02 1.865392e+01 7.515751e+01 -1.573225e+02 1.267978e+01 7.513515e+01 9.708763e-01 5.974132e+00 2.235372e-02
129            -1.567929e+02 1.863293e+01 7.557198e+01 -1.577566e+02 1.269833e+01 7.554959e+01 9.636571e-01 5.934603e+00 2.238710e-02
130            -1.572319e+02 1.861218e+01 7.598341e+01 -1.581884e+02 1.271660e+01 7.596099e+01 9.565231e-01 5.895582e+00 2.242226e-02
131            -1.576682e+02 1.859164e+01 7.639138e+01 -1.586176e+02 1.273458e+01 7.636892e+01 9.494729e-01 5.857061e+00 2.245902e-02
132            -1.581012e+02 1.857123e+01 7.679493e+01 -1.590437e+02 1.275220e+01 7.677243e+01 9.425048e-01 5.819029e+00 2.249713e-02
133            -1.585323e+02 1.855105e+01 7.719598e+01 -1.594679e+02 1.276957e+01 7.717344e+01 9.356170e-01 5.781478e+00 2.253675e-02
134            -1.589603e+02 1.853097e+01 7.759255e+01 -1.598891e+02 1.278658e+01 7.756998e+01 9.288080e-01 5.744399e+00 2.257752e-02
135            -1.593851e+02 1.851074e+01 7.798454e+01 -1.603072e+02 1.280296e+01 7.796192e+01 9.220766e-01 5.707782e+00 2.261883e-02
136            -1.598072e+02 1.849061e+01 7.837268e+01 -1.607227e+02 1.281899e+01 7.835002e+01 9.154215e-01 5.671619e+00 2.266040e-02
137            -1.602269e+02 1.847048e+01 7.875708e+01 -1.611357e+02 1.283458e+01 7.873438e+01 9.088413e-01 5.635901e+00 2.270195e-02
138            -1.606437e+02 1.845036e+01 7.913730e+01 -1.615460e+02 1.284974e+01 7.911456e+01 9.023350e-01 5.600619e+00 2.274312e-02
139            -1.610572e+02 1.843039e+01 7.951249e+01 -1.619531e+02 1.286463e+01 7.948971e+01 8.959014e-01 5.565766e+00 2.278344e-02
140            -1.614681e+02 1.841039e+01 7.988373e+01 -1.623576e+02 1.287906e+01 7.986091e+01 8.895391e-01 5.531333e+00 2.282277e-02
141            -1.618763e+02 1.839043e+01 8.025077e+01 -1.627595e+02 1.289312e+01 8.022790e+01 8.832470e-01 5.497313e+00 2.286090e-02
142            -1.622810e+02 1.837070e+01 8.061249e+01 -1.631580e+02 1.290700e+01 8.058959e+01 8.770241e-01 5.463699e+00 2.289741e-02
143            -1.626825e+02 1.835092e+01 8.096885e+01 -1.635533e+02 1.292044e+01 8.094592e+01 8.708693e-01 5.430482e+00 2.293191e-02
144            -1.630810e+02 1.833067e+01 8.132061e+01 -1.639458e+02 1.293302e+01 8.129765e+01 8.647816e-01 5.397657e+00 2.296423e-02
145            -1.634766e+02 1.831008e+01 8.166763e+01 -1.643354e+02 1.294487e+01 8.164463e+01 8.587596e-01 5.365215e+00 2.299418e-02
146            -1.638690e+02 1.828932e+01 8.200937e+01 -1.647218e+02 1.295617e+01 8.198635e+01 8.528026e-01 5.333151e+00 2.302146e-02
147            -1.642574e+02 1.826832e+01 8.234454e+01 -1.651043e+02 1.296686e+01 8.232149e+01 8.469094e-01 5.301457e+00 2.304568e-02
148            -1.646420e+02 1.824699e+01 8.267337e+01 -1.654831e+02 1.297686e+01 8.265030e+01 8.410792e-01 5.270127e+00 2.306647e-02
149            -1.650237e+02 1.822544e+01 8.299733e+01 -1.658590e+02 1.298629e+01 8.297425e+01 8.353110e-01 5.239155e+00 2.308360e-02
150            -1.654026e+02 1.820377e+01 8.331667e+01 -1.662322e+02 1.299523e+01 8.329357e+01 8.296038e-01 5.208534e+00 2.309709e-02
151            -1.657781e+02 1.818185e+01 8.363089e+01 -1.666020e+02 1.300359e+01 8.360778e+01 8.239562e-01 5.178260e+00 2.310749e-02
152            -1.661506e+02 1.815986e+01 8.393927e+01 -1.669689e+02 1.301153e+01 8.391616e+01 8.183679e-01 5.148326e+00 2.311377e-02
153            -1.665195e+02 1.813739e+01 8.424220e+01 -1.673324e+02 1.301867e+01 8.421908e+01 8.128376e-01 5.118726e+00 2.311623e-02
154            -1.668848e+02 1.811455e+01 8.453896e+01 -1.676922e+02 1.302510e+01 8.451584e+01 8.073646e-01 5.089455e+00 2.311461e-02
155            -1.672472e+02 1.809158e+01 8.483053e+01 -1.680492e+02 1.303108e+01 8.480742e+01 8.019480e-01 5.060508e+00 2.310884e-02
156            -1.676057e+02 1.806825e+01 8.511572e+01 -1.684022e+02 1.303637e+01 8.509262e+01 7.965868e-01 5.031879e+00 2.309880e-02
157            -1.679607e+02 1.804472e+01 8.539482e+01 -1.687520e+02 1.304116e+01 8.537174e+01 7.912804e-01 5.003564e+00 2.308440e-02
158            -1.683128e+02 1.802090e+01 8.566883e+01 -1.690989e+02 1.304535e+01 8.564576e+01 7.860277e-01 4.975556e+00 2.306569e-02
159            -1.686617e+02 1.799685e+01 8.593732e+01 -1.694425e+02 1.304899e+01 8.591428e+01 7.808280e-01 4.947851e+00 2.304272e-02
160            -1.690067e+02 1.797245e+01 8.619934e+01 -1.697824e+02 1.305201e+01 8.617633e+01 7.756805e-01 4.920445e+00 2.301536e-02
161            -1.693481e+02 1.794763e+01 8.645503e+01 -1.701187e+02 1.305429e+01 8.643205e+01 7.705844e-01 4.893333e+00 2.298352e-02
162            -1.696865e+02 1.792249e+01 8.670585e+01 -1.704521e+02 1.305598e+01 8.668290e+01 7.655386e-01 4.866509e+00 2.294787e-02
163            -1.700228e+02 1.789727e+01 8.695277e+01 -1.707834e+02 1.305730e+01 8.692986e+01 7.605424e-01 4.839970e+00 2.290838e-02
164            -1.703559e+02 1.787167e+01 8.719427e+01 -1.711115e+02 1.305796e+01 8.717141e+01 7.555950e-01 4.813712e+00 2.286504e-02
165            -1.706865e+02 1.784582e+01 8.743156e+01 -1.714372e+02 1.305809e+01 8.740874e+01 7.506956e-01 4.787730e+00 2.281805e-02
166            -1.710146e+02 1.782011e+01 8.766473e+01 -1.717604e+02 1.305809e+01 8.764196e+01 7.458434e-01 4.762020e+00 2.276771e-02
167            -1.713402e+02 1.779418e+01 8.789366e+01 -1.720813e+02 1.305760e+01 8.787095e+01 7.410375e-01 4.736578e+00 2.271446e-02
168            -1.716623e+02 1.776800e+01 8.811661e+01 -1.723986e+02 1.305660e+01 8.809395e+01 7.362773e-01 4.711400e+00 2.265824e-02
169            -1.719813e+02 1.774165e+01 8.833413e+01 -1.727129e+02 1.305517e+01 8.831153e+01 7.315620e-01 4.686482e+00 2.259902e-02
170            -1.722969e+02 1.771519e+01 8.854588e+01 -1.730238e+02 1.305336e+01 8.852334e+01 7.268910e-01 4.661821e+00 2.253681e-02
171            -1.726099e+02 1.768879e+01 8.875326e+01 -1.733322e+02 1.305137e+01 8.873079e+01 7.222638e-01 4.637413e+00 2.247167e-02
172            -1.729207e+02 1.766278e+01 8.895703e+01 -1.736384e+02 1.304952e+01 8.893462e+01 7.176797e-01 4.613254e+00 2.240396e-02
173            -1.732287e+02 1.763655e+01 8.915619e+01 -1.739419e+02 1.304721e+01 8.913385e+01 7.131378e-01 4.589342e+00 2.233393e-02
174            -1.735336e+02 1.760995e+01 8.934990e+01 -1.742422e+02 1.304428e+01 8.932764e+01 7.086374e-01 4.565671e+00 2.226177e-02
175            -1.738356e+02 1.758306e+01 8.953863e+01 -1.745398e+02 1.304082e+01 8.951644e+01 7.041779e-01 4.542240e+00 2.218761e-02
176            -1.741344e+02 1.755601e+01 8.972180e+01 -1.748341e+02 1.303696e+01 8.969969e+01 6.997587e-01 4.519045e+00 2.211158e-02
177            -1.744303e+02 1.752897e+01 8.990020e+01 -1.751256e+02 1.303289e+01 8.987816e+01 6.953792e-01 4.496082e+00 2.203381e-02
178            -1.747238e+02 1.750169e+01 9.007466e+01 -1.754148e+02 1.302834e+01 9.005270e+01 6.910387e-01 4.473348e+00 2.195450e-02
179            -1.750142e+02 1.747402e+01 9.024366e+01 -1.757009e+02 1.302318e+01 9.022179e+01 6.867364e-01 4.450840e+00 2.187399e-02
180            -1.753017e+02 1.744609e+01 9.040788e+01 -1.759842e+02 1.301753e+01 9.038609e+01 6.824714e-01 4.428555e+00 2.179304e-02
181            -1.755868e+02 1.741787e+01 9.056793e+01 -1.762650e+02 1.301138e+01 9.054622e+01 6.782436e-01 4.406489e+00 2.171116e-02
182            -1.758700e+02 1.738938e+01 9.072481e+01 -1.765440e+02 1.300474e+01 9.070318e+01 6.740521e-01 4.384641e+00 2.162879e-02
183            -1.761518e+02 1.736135e+01 9.087962e+01 -1.768217e+02 1.299834e+01 9.085807e+01 6.698962e-01 4.363006e+00 2.154661e-02
184            -1.764315e+02 1.733301e+01 9.103081e+01 -1.770973e+02 1.299142e+01 9.100934e+01 6.657752e-01 4.341582e+00 2.146504e-02
185            -1.767109e+02 1.730500e+01 9.118176e+01 -1.773726e+02 1.298463e+01 9.116038e+01 6.616884e-01 4.320367e+00 2.138443e-02
186            -1.769880e+02 1.727667e+01 9.132915e+01 -1.776456e+02 1.297732e+01 9.130785e+01 6.576352e-01 4.299357e+00 2.130493e-02
187            -1.772631e+02 1.724791e+01 9.147310e+01 -1.779167e+02 1.296936e+01 9.145187e+01 6.536151e-01 4.278549e+00 2.122687e-02
188            -1.775386e+02 1.721950e+01 9.161782e+01 -1.781882e+02 1.296156e+01 9.159667e+01 6.496273e-01 4.257942e+00 2.115071e-02
189            -1.778135e+02 1.719150e+01 9.176197e+01 -1.784592e+02 1.295397e+01 9.174090e+01 6.456712e-01 4.237532e+00 2.107702e-02
190            -1.780869e+02 1.716324e+01 9.190362e+01 -1.787286e+02 1.294592e+01 9.188261e+01 6.417463e-01 4.217317e+00 2.100596e-02
191            -1.783589e+02 1.713540e+01 9.204341e+01 -1.789968e+02 1.293811e+01 9.202247e+01 6.378519e-01 4.197295e+00 2.093792e-02
192            -1.786291e+02 1.710748e+01 9.218004e+01 -1.792631e+02 1.293002e+01 9.215917e+01 6.339877e-01 4.177463e+00 2.087298e-02
193            -1.788976e+02 1.707970e+01 9.231416e+01 -1.795277e+02 1.292188e+01 9.229335e+01 6.301533e-01 4.157819e+00 2.081126e-02
194            -1.791646e+02 1.705201e+01 9.244609e+01 -1.797910e+02 1.291365e+01 9.242534e+01 6.263483e-01 4.138362e+00 2.075271e-02
195            -1.794295e+02 1.702434e+01 9.257463e+01 -1.800521e+02 1.290525e+01 9.255393e+01 6.225722e-01 4.119088e+00 2.069755e-02
196            -1.796936e+02 1.699684e+01 9.270201e+01 -1.803124e+02 1.289684e+01 9.268136e+01 6.188246e-01 4.099995e+00 2.064590e-02
197            -1.799566e+02 1.696969e+01 9.282801e+01 -1.805718e+02 1.288861e+01 9.280741e+01 6.151050e-01 4.081082e+00 2.059808e-02
198            -1.802180e+02 1.694244e+01 9.295131e+01 -1.808294e+02 1.288009e+01 9.293075e+01 6.114130e-01 4.062346e+00 2.055410e-02
199            -1.804786e+02 1.691506e+01 9.307359e+01 -1.810864e+02 1.287127e+01 9.305308e+01 6.077482e-01 4.043786e+00 2.051406e-02
200            -1.807392e+02 1.688777e+01 9.319617e+01 -1.813433e+02 1.286237e+01 9.317569e+01 6.041103e-01 4.025398e+00 2.047810e-02
201            -1.809998e+02 1.686069e+01 9.331909e+01 -1.816003e+02 1.285351e+01 9.329865e+01 6.004988e-01 4.007181e+00 2.044642e-02
202            -1.812604e+02 1.683353e+01 9.344233e+01 -1.818573e+02 1.284440e+01 9.342191e+01 5.969131e-01 3.989132e+00 2.041915e-02
203            -1.815208e+02 1.680642e+01 9.356553e+01 -1.821142e+02 1.283517e+01 9.354513e+01 5.933529e-01 3.971250e+00 2.039641e-02
204            -1.817812e+02 1.677937e+01 9.368875e+01 -1.823710e+02 1.282584e+01 9.366837e+01 5.898180e-01 3.953532e+00 2.037811e-02
205            -1.820410e+02 1.675240e+01 9.381151e+01 -1.826273e+02 1.281642e+01 9.379114e+01 5.863080e-01 3.935976e+00 2.036425e-02
206            -1.823001e+02 1.672555e+01 9.393333e+01 -1.828829e+02 1.280697e+01 9.391298e+01 5.828224e-01 3.918581e+00 2.035515e-02
207            -1.825584e+02 1.669864e+01 9.405413e+01 -1.831377e+02 1.279730e+01 9.403378e+01 5.793609e-01 3.901344e+00 2.035068e-02
208            -1.828159e+02 1.667167e+01 9.417393e+01 -1.833918e+02 1.278741e+01 9.415358e+01 5.759234e-01 3.884263e+00 2.035063e-02
209            -1.830724e+02 1.664460e+01 9.429220e+01 -1.836449e+02 1.277726e+01 9.427184e+01 5.725098e-01 3.867338e+00 2.035474e-02
210            -1.833279e+02 1.661754e+01 9.440905e+01 -1.838970e+02 1.276698e+01 9.438869e+01 5.691199e-01 3.850565e+00 2.036274e-02
211            -1.835825e+02 1.659053e+01 9.452475e+01 -1.841483e+02 1.275658e+01 9.450437e+01 5.657535e-01 3.833944e+00 2.037434e-02
212            -1.838366e+02 1.656357e+01 9.463971e+01 -1.843990e+02 1.274610e+01 9.461932e+01 5.624104e-01 3.817472e+00 2.038946e-02
213            -1.840896e+02 1.653666e+01 9.475358e+01 -1.846486e+02 1.273551e+01 9.473317e+01 5.590901e-01 3.801149e+00 2.040868e-02
214            -1.843430e+02 1.650995e+01 9.486761e+01 -1.848988e+02 1.272498e+01 9.484717e+01 5.557925e-01 3.784972e+00 2.043174e-02
215            -1.845955e+02 1.648327e+01 9.498084e+01 -1.851480e+02 1.271433e+01 9.496039e+01 5.525173e-01 3.768939e+00 2.045852e-02
216            -1.848479e+02 1.645679e+01 9.509387e+01 -1.853972e+02 1.270374e+01 9.507339e+01 5.492643e-01 3.753049e+00 2.048884e-02
217            -1.850992e+02 1.643033e+01 9.520596e+01 -1.856452e+02 1.269303e+01 9.518544e+01 5.460333e-01 3.737301e+00 2.052282e-02
218            -1.853503e+02 1.640408e+01 9.531776e+01 -1.858931e+02 1.268239e+01 9.529720e+01 5.428238e-01 3.721692e+00 2.056074e-02
219            -1.856007e+02 1.637791e+01 9.542908e+01 -1.861403e+02 1.267168e+01 9.540848e+01 5.396358e-01 3.706223e+00 2.060254e-02
220            -1.858517e+02 1.635204e+01 9.554095e+01 -1.863882e+02 1.266115e+01 9.552030e+01 5.364690e-01 3.690890e+00 2.064813e-02
221            -1.861019e+02 1.632616e+01 9.565213e+01 -1.866352e+02 1.265047e+01 9.563143e+01 5.333233e-01 3.675694e+00 2.069743e-02
222            -1.863518e+02 1.630034e+01 9.576306e+01 -1.868820e+02 1.263971e+01 9.574231e+01 5.301984e-01 3.660631e+00 2.075034e-02