/*--------------------------------*- C++ -*----------------------------------*\
| =========                 |                                                 |
| \\      /  F ield         | OpenFOAM: The Open Source CFD Toolbox           |
|  \\    /   O peration     | Version:  2412                                  |
|   \\  /    A nd           | Website:  www.openfoam.com                      |
|    \\/     M anipulation  |                                                 |
\*---------------------------------------------------------------------------*/
FoamFile
{
    version     2.0;
    format      ascii;
    arch        "LSB;label=32;scalar=64";
    class       volVectorField;
    location    "380";
    object      U;
}
// * * * * * * * * * * * * * * * * * * * * * * * * * * * * * * * * * * * * * //

dimensions      [0 1 -1 0 0 0 0];

internalField   nonuniform List<vector> 
7387
(
(0.203904 -0.0586042 1.09709e-18)
(0.198488 -0.0573129 2.1332e-25)
(0.193096 -0.0559998 -9.93239e-19)
(0.187729 -0.0546809 0)
(0.182403 -0.0533533 -8.8675e-19)
(0.17713 -0.0520222 -4.14912e-25)
(0.171908 -0.0506893 0)
(0.166733 -0.0493557 0)
(0.161609 -0.0480194 -1.32376e-18)
(0.156538 -0.0466844 -6.02437e-19)
(0.151528 -0.0453498 2.3958e-25)
(0.146587 -0.0440236 -2.4684e-25)
(0.141715 -0.0427103 -2.07021e-19)
(0.136926 -0.0414001 0)
(0.132225 -0.040107 1.39262e-19)
(0.127613 -0.0388287 -1.03656e-19)
(0.123091 -0.037567 0)
(0.118667 -0.0363238 2.85024e-20)
(0.114347 -0.0351014 3.82637e-26)
(0.110141 -0.033902 -3.10232e-26)
(0.106049 -0.0327311 0)
(0.102075 -0.0315854 0)
(0.0982244 -0.0304695 0)
(0.0944976 -0.0293852 -1.1841e-19)
(0.0908988 -0.0283305 1.44173e-19)
(0.0874301 -0.0273099 1.71219e-19)
(0.0840887 -0.026324 -1.99653e-19)
(0.0808765 -0.0253707 3.85145e-26)
(0.077795 -0.024452 -2.61183e-19)
(0.0748424 -0.0235691 5.81016e-25)
(0.0720183 -0.022721 -1.64942e-19)
(0.0693197 -0.021908 1.83663e-19)
(0.0667472 -0.0211291 4.07087e-19)
(0.0642966 -0.0203867 -8.76142e-25)
(0.0619667 -0.0196765 9.24019e-25)
(0.0597541 -0.0190022 -5.42488e-19)
(0.0576574 -0.0183598 -2.96916e-19)
(0.0556739 -0.0177516 0)
(0.0538014 -0.0171749 -1.63967e-26)
(0.0520353 -0.0166314 -1.48871e-24)
(0.0503763 -0.0161183 1.58058e-24)
(0.0488281 -0.0156385 0)
(0.0473903 -0.0151929 0)
(0.0460532 -0.0147781 1.34218e-19)
(0.0448038 -0.0143915 -2.2391e-24)
(0.0436498 -0.0140324 1.57741e-19)
(0.042627 -0.0137122 1.70861e-19)
(0.0417696 -0.0134411 -2.84018e-24)
(0.0410735 -0.0132238 -1.00057e-19)
(0.0404404 -0.0130343 -1.08196e-19)
(0.039827 -0.0128573 0)
(0.0392046 -0.0126766 3.87005e-24)
(0.0387978 -0.0125445 -4.14049e-24)
(0.0388622 -0.0125431 7.34218e-20)
(0.0394641 -0.0126976 -1.85986e-26)
(0.0407035 -0.0130661 8.49832e-20)
(0.0420577 -0.0135321 9.11881e-20)
(0.0430368 -0.0139383 0)
(0.0438301 -0.0143373 0)
(0.044102 -0.0145959 -5.58457e-20)
(0.0445139 -0.0147937 7.27938e-24)
(0.0468445 -0.0154564 6.3345e-20)
(0.051991 -0.0168675 0)
(0.0609019 -0.0192712 3.55202e-20)
(0.0753847 -0.0230941 0)
(0.102865 -0.0320258 -9.85361e-24)
(0.121573 -0.0460934 4.07264e-20)
(0.0974543 -0.0505959 -4.65746e-26)
(0.0436503 -0.0322555 -4.4632e-20)
(-0.00252781 0.00286249 0)
(-0.00856995 0.0132643 -1.2393e-23)
(-0.00701198 0.0189823 2.61576e-23)
(0.640633 -0.184125 -1.82429e-18)
(0.623669 -0.180069 3.47664e-18)
(0.606775 -0.175968 1.65152e-18)
(0.589964 -0.171834 -7.75451e-25)
(0.573286 -0.167676 0)
(0.556769 -0.163515 -6.29552e-25)
(0.54041 -0.159342 6.0553e-26)
(0.524204 -0.155163 6.08173e-26)
(0.508157 -0.150982 2.20064e-18)
(0.492279 -0.146803 1.00144e-18)
(0.476585 -0.14263 0)
(0.461103 -0.138479 0)
(0.44585 -0.134355 0)
(0.430854 -0.130263 0)
(0.41613 -0.126215 0)
(0.401685 -0.122213 1.32552e-25)
(0.387523 -0.118263 -2.11117e-25)
(0.373668 -0.114368 -4.70992e-20)
(0.360139 -0.110544 0)
(0.346965 -0.106789 1.15663e-25)
(0.334146 -0.103123 6.39008e-26)
(0.321696 -0.0995348 -1.91408e-25)
(0.309634 -0.0960411 -3.29931e-25)
(0.297959 -0.0926433 -1.97049e-19)
(0.286684 -0.0893427 -2.39883e-19)
(0.275812 -0.0861467 2.84843e-19)
(0.265341 -0.0830559 3.32111e-19)
(0.255277 -0.0800692 6.96373e-25)
(0.24562 -0.0771935 4.34393e-19)
(0.236367 -0.0744256 -2.44933e-19)
(0.227516 -0.0717695 2.74287e-19)
(0.219059 -0.0692217 -3.05403e-19)
(0.210995 -0.0667832 -3.38444e-19)
(0.203314 -0.0644541 0)
(0.196009 -0.0622315 0)
(0.189073 -0.0601155 -1.86231e-25)
(0.1825 -0.0581041 2.46798e-19)
(0.176282 -0.0561969 -2.08823e-24)
(0.170409 -0.054391 2.94058e-19)
(0.164871 -0.0526851 0)
(0.159669 -0.0510778 3.48405e-19)
(0.154811 -0.0495736 3.78636e-19)
(0.150299 -0.0481745 0)
(0.146101 -0.0468738 2.23052e-19)
(0.14218 -0.0456599 2.41865e-19)
(0.138556 -0.0445345 2.62116e-19)
(0.135339 -0.0435269 -2.83907e-19)
(0.132632 -0.0426726 1.53673e-19)
(0.130423 -0.0419832 -5.04412e-24)
(0.128416 -0.0413829 5.51428e-24)
(0.126477 -0.0408233 -1.94244e-19)
(0.124518 -0.040256 6.37223e-24)
(0.123216 -0.0398373 -1.13157e-19)
(0.123347 -0.039816 0)
(0.125119 -0.040271 1.31299e-19)
(0.128831 -0.0413768 -1.41133e-19)
(0.132916 -0.0427862 0)
(0.135888 -0.0440269 8.1146e-20)
(0.138289 -0.0452469 -1.06159e-23)
(0.139127 -0.0460532 2.26406e-23)
(0.140381 -0.0466848 -1.20521e-23)
(0.147381 -0.0487177 0)
(0.162879 -0.0530179 0)
(0.189725 -0.0603148 -5.89816e-20)
(0.233206 -0.0719754 6.7946e-26)
(0.314913 -0.0986688 -6.49677e-20)
(0.371503 -0.140885 -6.74319e-20)
(0.302249 -0.155943 1.71732e-23)
(0.141182 -0.102482 -3.62225e-23)
(-0.00181435 0.0037784 3.81914e-23)
(-0.0244541 0.0387126 -8.39059e-20)
(-0.0213185 0.0602223 4.31809e-23)
(1.1375 -0.326922 4.13017e-18)
(1.10745 -0.319734 -1.96778e-18)
(1.07752 -0.312478 0)
(1.04775 -0.305156 1.77004e-18)
(1.01821 -0.297797 -1.66902e-18)
(0.988956 -0.290427 -1.56629e-18)
(0.959985 -0.283044 7.31171e-25)
(0.931284 -0.275646 1.35484e-18)
(0.902868 -0.268244 -1.2456e-18)
(0.874752 -0.260845 5.05745e-25)
(0.846958 -0.253463 -9.71391e-25)
(0.819537 -0.246114 4.64432e-25)
(0.79253 -0.238808 3.89441e-19)
(0.765976 -0.23157 -2.76076e-25)
(0.739899 -0.224402 -2.61855e-19)
(0.714317 -0.217318 1.5005e-25)
(0.689238 -0.210325 -1.25363e-19)
(0.664704 -0.203431 5.33167e-20)
(0.640751 -0.196659 2.15317e-20)
(0.617413 -0.190018 -9.93989e-20)
(0.594708 -0.183519 0)
(0.57266 -0.17717 -2.89115e-25)
(0.551292 -0.170983 -7.25189e-26)
(0.530614 -0.164965 6.02243e-25)
(0.51064 -0.159122 -2.71535e-19)
(0.491376 -0.153462 -2.47664e-25)
(0.472828 -0.147985 7.53267e-25)
(0.454998 -0.142698 -7.88231e-25)
(0.437887 -0.137604 4.91687e-19)
(0.421492 -0.132701 -1.58475e-25)
(0.405809 -0.127995 -3.10453e-19)
(0.390825 -0.123482 1.35456e-24)
(0.376534 -0.119164 -3.83058e-19)
(0.362923 -0.115036 0)
(0.349977 -0.111101 0)
(0.337686 -0.10735 -2.18521e-24)
(0.326037 -0.103787 2.79311e-19)
(0.315017 -0.100408 0)
(0.304608 -0.0972088 2.57412e-24)
(0.294792 -0.0941848 7.03142e-26)
(0.28557 -0.0913374 -3.94273e-19)
(0.276955 -0.0886708 -4.28465e-19)
(0.268952 -0.0861896 0)
(0.261505 -0.0838836 -2.5239e-19)
(0.25455 -0.0817305 -8.2602e-24)
(0.248119 -0.0797351 -2.96575e-19)
(0.2424 -0.0779453 -3.21218e-19)
(0.237572 -0.0764234 -3.47726e-19)
(0.233613 -0.0751893 1.32275e-25)
(0.230022 -0.0741144 -1.23464e-23)
(0.226561 -0.073116 4.39467e-19)
(0.223079 -0.0721095 -1.45458e-23)
(0.220731 -0.0713605 1.55501e-23)
(0.220845 -0.0712952 0)
(0.223799 -0.0720533 -1.48524e-19)
(0.230091 -0.0739317 9.71526e-24)
(0.237064 -0.0763445 -2.09551e-23)
(0.242174 -0.0784896 -9.17454e-20)
(0.246288 -0.0806015 0)
(0.247752 -0.0820231 2.56424e-23)
(0.249913 -0.0831597 7.91075e-26)
(0.261816 -0.0866847 -2.89991e-23)
(0.288236 -0.0940999 0)
(0.333998 -0.106681 0)
(0.407899 -0.12684 0)
(0.545538 -0.172107 0)
(0.642621 -0.243803 3.68722e-23)
(0.530401 -0.271743 -3.86688e-23)
(0.257524 -0.183542 8.30128e-20)
(0.00714534 -0.00136103 0)
(-0.0393735 0.0639873 0)
(-0.0361567 0.107948 -4.96745e-20)
(1.70285 -0.489382 -2.33638e-18)
(1.65796 -0.478662 -2.22637e-18)
(1.61327 -0.467823 2.09351e-24)
(1.56882 -0.456897 -2.00275e-18)
(1.5247 -0.445916 1.88851e-18)
(1.48103 -0.43491 3.54461e-18)
(1.43777 -0.423891 0)
(1.39493 -0.412856 5.96787e-25)
(1.3525 -0.401808 -1.42232e-24)
(1.31052 -0.390769 1.14463e-24)
(1.26903 -0.379749 5.76433e-19)
(1.22809 -0.368778 -5.09583e-19)
(1.18777 -0.357883 -8.81449e-19)
(1.14812 -0.347075 -6.2487e-25)
(1.10919 -0.33638 5.82155e-25)
(1.07099 -0.325805 -2.20468e-19)
(1.03355 -0.315364 1.41876e-19)
(0.996919 -0.305082 -6.03405e-20)
(0.961155 -0.294969 3.63442e-25)
(0.926303 -0.285061 1.12494e-19)
(0.8924 -0.275354 0)
(0.859476 -0.265879 0)
(0.827563 -0.256642 0)
(0.796681 -0.247657 2.52438e-19)
(0.766849 -0.238934 6.14612e-19)
(0.738077 -0.230481 -3.64897e-19)
(0.710374 -0.222303 -4.25444e-19)
(0.683741 -0.21441 -4.89203e-19)
(0.658183 -0.206801 -1.1129e-18)
(0.633691 -0.199482 3.13746e-19)
(0.610261 -0.192453 3.51336e-19)
(0.587876 -0.185714 -3.06584e-24)
(0.566526 -0.179263 2.97676e-24)
(0.546192 -0.1731 0)
(0.526851 -0.167219 0)
(0.508487 -0.16162 5.77513e-19)
(0.491081 -0.156297 -6.32117e-19)
(0.474615 -0.151249 -3.45266e-19)
(0.459063 -0.14647 -3.76549e-19)
(0.444396 -0.141954 0)
(0.430614 -0.137701 0)
(0.417737 -0.133715 0)
(0.40577 -0.130008 2.63189e-19)
(0.394634 -0.126559 2.85555e-19)
(0.384232 -0.123342 1.23935e-25)
(0.374612 -0.120358 -1.03165e-23)
(0.366042 -0.117679 2.20517e-23)
(0.35878 -0.115393 1.96668e-19)
(0.352797 -0.113529 0)
(0.347377 -0.111906 0)
(0.342167 -0.110404 7.19983e-26)
(0.336953 -0.1089 1.6452e-23)
(0.33338 -0.107771 1.44757e-19)
(0.333362 -0.107629 0)
(0.337468 -0.108685 1.67949e-19)
(0.346402 -0.111359 0)
(0.356388 -0.114825 0)
(0.363761 -0.117942 2.53782e-23)
(0.369683 -0.121015 9.40288e-26)
(0.371845 -0.123128 -1.18591e-19)
(0.374981 -0.124858 -1.26347e-19)
(0.391954 -0.130003 0)
(0.429726 -0.140753 0)
(0.495148 -0.158964 7.52708e-20)
(0.600449 -0.188245 0)
(0.7946 -0.252631 0)
(0.934417 -0.354766 4.15189e-23)
(0.783566 -0.398394 8.83994e-20)
(0.39642 -0.277162 -9.32923e-20)
(0.0276386 -0.0152474 9.66394e-23)
(-0.052613 0.0881803 0)
(-0.0511891 0.162948 5.57118e-20)
(2.34595 -0.674178 -2.43147e-24)
(2.2843 -0.659454 2.51563e-18)
(2.22291 -0.64458 2.36573e-24)
(2.16185 -0.629576 2.07174e-24)
(2.10126 -0.614502 -2.13444e-18)
(2.04126 -0.599395 -2.00326e-18)
(1.98184 -0.584263 1.87049e-24)
(1.92299 -0.56911 -1.73316e-18)
(1.86471 -0.553947 0)
(1.80705 -0.538787 1.29414e-24)
(1.75005 -0.523658 -6.51778e-19)
(1.69382 -0.508594 5.76218e-19)
(1.63843 -0.493632 4.9708e-25)
(1.58397 -0.478795 4.18088e-19)
(1.53048 -0.464107 3.35146e-19)
(1.478 -0.449584 2.49348e-19)
(1.42657 -0.435247 0)
(1.37624 -0.421122 0)
(1.32711 -0.40724 -2.75636e-20)
(1.27922 -0.393622 -3.35234e-25)
(1.23264 -0.380297 3.48279e-25)
(1.18739 -0.36728 0)
(1.14353 -0.354589 2.26341e-19)
(1.10109 -0.342244 2.85576e-19)
(1.06009 -0.330259 -3.47652e-19)
(1.02054 -0.318643 1.66763e-24)
(0.982464 -0.30741 4.81308e-19)
(0.945855 -0.296561 1.10688e-18)
(0.910722 -0.286106 1.25904e-18)
(0.877052 -0.276047 2.80046e-24)
(0.844841 -0.266388 -7.94953e-19)
(0.814067 -0.257125 0)
(0.784716 -0.24826 4.90418e-19)
(0.756757 -0.239789 -8.25946e-24)
(0.730165 -0.231706 5.9551e-19)
(0.704915 -0.22401 4.89319e-24)
(0.680983 -0.216693 -1.92487e-25)
(0.658343 -0.209755 3.90581e-19)
(0.636958 -0.203187 4.25961e-19)
(0.616791 -0.196979 -4.63899e-19)
(0.597837 -0.191131 -7.78941e-24)
(0.580125 -0.185652 -5.48361e-19)
(0.563657 -0.180551 -2.97696e-19)
(0.54833 -0.175808 -3.22984e-19)
(0.534016 -0.171382 -7.00388e-19)
(0.520773 -0.167277 0)
(0.508955 -0.163586 8.21964e-19)
(0.498899 -0.160425 1.34896e-23)
(0.490571 -0.157833 0)
(0.483035 -0.155578 -2.60101e-19)
(0.475817 -0.153495 -2.81053e-19)
(0.468631 -0.151427 -3.0343e-19)
(0.46362 -0.14986 0)
(0.463312 -0.149597 -2.161e-23)
(0.468489 -0.15093 -1.89831e-19)
(0.48006 -0.154403 -2.49675e-23)
(0.493128 -0.15896 2.66559e-23)
(0.502866 -0.16311 -1.17268e-19)
(0.510665 -0.167211 3.05618e-23)
(0.5136 -0.1701 1.33919e-19)
(0.517781 -0.172525 1.42762e-19)
(0.539906 -0.17941 0)
(0.589268 -0.193679 1.6088e-19)
(0.67476 -0.217809 4.06232e-23)
(0.811866 -0.256745 8.90595e-20)
(1.06168 -0.340435 0)
(1.24578 -0.473518 0)
(1.06294 -0.536157 -9.90985e-20)
(0.561912 -0.385303 1.04312e-19)
(0.0639482 -0.0411619 1.09571e-22)
(-0.0631357 0.11025 -2.32182e-22)
(-0.0665678 0.225936 -6.22555e-20)
(3.07661 -0.884111 0)
(2.99608 -0.86489 -2.6056e-24)
(2.9159 -0.845482 -2.69337e-18)
(2.83614 -0.825898 -2.5509e-18)
(2.75699 -0.806219 2.4061e-18)
(2.67859 -0.786492 2.05541e-24)
(2.60095 -0.766734 -2.10941e-24)
(2.52405 -0.746947 0)
(2.44791 -0.727146 0)
(2.37256 -0.707345 1.46025e-24)
(2.29808 -0.687586 -1.50355e-24)
(2.22458 -0.667914 0)
(2.15219 -0.648363 5.62619e-19)
(2.081 -0.62898 -4.72041e-19)
(2.01107 -0.609785 3.78447e-19)
(1.94246 -0.590807 0)
(1.87522 -0.572074 1.81244e-19)
(1.80942 -0.553614 7.70939e-20)
(1.74516 -0.535468 0)
(1.68254 -0.517667 0)
(1.62161 -0.500245 0)
(1.56244 -0.483226 0)
(1.50507 -0.466633 -5.11589e-19)
(1.44954 -0.450491 -6.45522e-19)
(1.3959 -0.434815 -2.78789e-24)
(1.34415 -0.419622 0)
(1.29432 -0.404928 0)
(1.24642 -0.390735 6.12792e-25)
(1.20044 -0.377061 -7.11672e-19)
(1.15637 -0.363899 0)
(1.11422 -0.351261 4.49373e-19)
(1.07394 -0.339142 0)
(1.03552 -0.327543 0)
(0.998922 -0.316458 0)
(0.964112 -0.305883 -6.733e-19)
(0.931059 -0.29581 -1.1065e-23)
(0.899731 -0.286237 4.0425e-19)
(0.870092 -0.277157 -4.4161e-19)
(0.842095 -0.268561 -4.08444e-25)
(0.815692 -0.260437 5.24509e-19)
(0.790876 -0.252783 0)
(0.767678 -0.245611 -3.50544e-25)
(0.746101 -0.23893 0)
(0.726015 -0.232717 3.65115e-19)
(0.70726 -0.22692 2.37635e-23)
(0.689904 -0.221544 -2.638e-23)
(0.674381 -0.216702 -4.64521e-19)
(0.661115 -0.212536 3.88168e-25)
(0.650068 -0.209102 3.82507e-25)
(0.640081 -0.206114 5.879e-19)
(0.630551 -0.203363 3.85824e-23)
(0.621119 -0.200657 3.42891e-19)
(0.614423 -0.198583 -1.85008e-19)
(0.613611 -0.198141 -3.52722e-25)
(0.619711 -0.199711 4.29014e-19)
(0.633822 -0.203963 0)
(0.649958 -0.20962 0)
(0.662114 -0.214855 1.3238e-19)
(0.671827 -0.220045 0)
(0.675606 -0.223803 0)
(0.680898 -0.227038 0)
(0.708145 -0.235769 8.36831e-23)
(0.769084 -0.253697 -1.81372e-19)
(0.874609 -0.283947 -9.58159e-20)
(1.04319 -0.332938 -1.00133e-19)
(1.3461 -0.435689 2.02792e-22)
(1.57493 -0.59962 1.07612e-19)
(1.36903 -0.684961 1.10832e-19)
(0.758251 -0.509923 -2.32449e-19)
(0.121386 -0.0831458 -1.22451e-22)
(-0.0686933 0.128915 -1.33568e-19)
(-0.0814721 0.29742 6.96151e-20)
(3.90384 -1.12176 3.32599e-18)
(3.80231 -1.09757 -4.33992e-25)
(3.70123 -1.07312 3.01639e-18)
(3.60063 -1.04846 2.85829e-18)
(3.50077 -1.02366 -2.69737e-18)
(3.40184 -0.998785 -4.61067e-24)
(3.30386 -0.973873 2.36586e-18)
(3.20679 -0.948918 -2.19457e-18)
(3.11065 -0.923938 0)
(3.01551 -0.898961 0)
(2.92144 -0.874022 -2.92656e-24)
(2.82861 -0.849192 -7.31289e-19)
(2.73714 -0.824509 -2.18447e-24)
(2.64717 -0.800026 4.05124e-24)
(2.55878 -0.77578 -2.8753e-24)
(2.47205 -0.751808 0)
(2.38704 -0.728132 -1.02812e-24)
(2.30384 -0.704807 -8.68483e-20)
(2.22257 -0.681865 -1.00568e-25)
(2.14335 -0.659362 0)
(2.06626 -0.637328 -1.35916e-24)
(1.99138 -0.6158 3.30043e-24)
(1.91877 -0.594813 2.88484e-19)
(1.84849 -0.574388 3.64077e-19)
(1.78057 -0.554552 -4.43323e-19)
(1.71506 -0.535326 -5.26523e-19)
(1.65196 -0.516723 -4.92133e-24)
(1.59129 -0.49876 -1.41229e-18)
(1.53305 -0.481444 0)
(1.47723 -0.464781 7.14848e-24)
(1.42382 -0.448776 -7.50578e-24)
(1.37279 -0.433429 0)
(1.32411 -0.418738 0)
(1.27775 -0.404698 -1.07799e-23)
(1.23364 -0.391303 1.1369e-23)
(1.19175 -0.378545 8.34276e-19)
(1.15205 -0.366418 0)
(1.11449 -0.354916 4.98786e-19)
(1.079 -0.344024 5.43991e-19)
(1.04554 -0.333732 -3.61577e-23)
(1.01408 -0.324034 1.94366e-23)
(0.984663 -0.314944 7.00283e-19)
(0.957289 -0.306474 -2.29746e-23)
(0.931804 -0.298592 -8.24826e-19)
(0.90801 -0.291243 4.4713e-19)
(0.885983 -0.284426 0)
(0.866238 -0.278272 -5.24671e-19)
(0.849281 -0.272957 0)
(0.835073 -0.268545 -3.77023e-23)
(0.822243 -0.264707 4.04586e-23)
(0.810049 -0.261187 -3.58546e-19)
(0.798059 -0.257758 -4.70443e-23)
(0.789385 -0.255096 4.17592e-19)
(0.787787 -0.254398 -2.25028e-19)
(0.794568 -0.25614 -2.41919e-19)
(0.811002 -0.261112 -6.32925e-23)
(0.830076 -0.26785 -6.82174e-23)
(0.84463 -0.274201 -2.88815e-25)
(0.856233 -0.28053 1.59627e-19)
(0.860918 -0.285256 8.30768e-23)
(0.867382 -0.289431 0)
(0.899579 -0.300099 0)
(0.971757 -0.321758 0)
(1.09672 -0.358208 0)
(1.29556 -0.417474 1.12123e-19)
(1.64706 -0.53855 0)
(1.91941 -0.732468 -2.40798e-19)
(1.70135 -0.84429 -2.21716e-22)
(0.98961 -0.65282 1.28724e-19)
(0.206096 -0.146009 -1.38581e-19)
(-0.0665598 0.141832 2.98853e-19)
(-0.0952947 0.376737 1.51151e-22)
(4.83293 -1.38865 -3.67213e-18)
(4.70862 -1.35909 0)
(4.58481 -1.32921 0)
(4.46154 -1.29905 3.16603e-18)
(4.33909 -1.26869 2.99087e-18)
(4.21771 -1.23823 2.81178e-18)
(4.09744 -1.2077 -2.62841e-18)
(3.97824 -1.1771 4.88076e-18)
(3.86014 -1.14645 0)
(3.74321 -1.11579 -2.04837e-18)
(3.62756 -1.08517 7.03096e-24)
(3.51336 -1.05466 8.15956e-19)
(3.4008 -1.02432 -7.06638e-19)
(3.29003 -0.994203 -5.93509e-19)
(3.18118 -0.964369 -4.76314e-19)
(3.07432 -0.934859 3.54767e-19)
(2.96954 -0.905707 -2.28547e-19)
(2.86697 -0.876967 0)
(2.76674 -0.848696 -3.93388e-20)
(2.669 -0.82095 1.81749e-19)
(2.57386 -0.793775 0)
(2.48141 -0.767216 0)
(2.39174 -0.741311 -2.73798e-24)
(2.30492 -0.716095 2.85496e-24)
(2.22101 -0.6916 -1.01541e-24)
(2.14003 -0.667852 5.92043e-19)
(2.06203 -0.644867 5.00267e-24)
(1.987 -0.622666 7.94528e-19)
(1.91498 -0.60126 0)
(1.84593 -0.58066 5.09984e-19)
(1.77986 -0.560869 5.71306e-19)
(1.71671 -0.541887 9.97364e-24)
(1.65647 -0.523715 7.05285e-19)
(1.59907 -0.506347 1.21452e-23)
(1.54448 -0.489773 -1.28108e-23)
(1.49262 -0.473987 -9.40199e-19)
(1.44347 -0.458979 -5.14603e-19)
(1.39696 -0.444743 -1.68968e-23)
(1.35301 -0.431264 -1.22642e-18)
(1.31157 -0.418523 -2.01225e-23)
(1.2726 -0.406517 0)
(1.23615 -0.395258 7.89526e-19)
(1.20221 -0.384761 0)
(1.17061 -0.374994 9.29997e-19)
(1.1411 -0.365888 -5.04106e-19)
(1.11378 -0.357439 5.46212e-19)
(1.08922 -0.349795 1.1831e-18)
(1.06803 -0.343159 -3.88255e-23)
(1.05014 -0.337613 0)
(1.03401 -0.33279 -3.74225e-19)
(1.01874 -0.328383 4.04264e-19)
(1.00384 -0.324134 -5.30178e-23)
(0.992842 -0.320793 -2.35228e-19)
(0.990093 -0.319737 2.53415e-19)
(0.997198 -0.321552 0)
(1.01558 -0.327139 0)
(1.0373 -0.334892 -3.13825e-19)
(1.05412 -0.342364 -1.67978e-19)
(1.0675 -0.349862 7.08033e-26)
(1.07312 -0.355656 0)
(1.0808 -0.360916 0)
(1.11762 -0.373585 2.16646e-19)
(1.20031 -0.39896 -1.11617e-22)
(1.34346 -0.441534 1.17173e-22)
(1.57033 -0.511053 -1.25019e-19)
(1.96383 -0.649207 0)
(2.27633 -0.871356 1.337e-19)
(2.05808 -1.0131 -1.35241e-19)
(1.25967 -0.815151 -1.40738e-19)
(0.325091 -0.234359 1.53042e-19)
(-0.0531659 0.145929 -3.32716e-19)
(-0.10639 0.461454 0)
(5.85961 -1.68353 3.95792e-18)
(5.71179 -1.64852 1.49634e-23)
(5.56444 -1.6131 0)
(5.41757 -1.57728 -3.43329e-18)
(5.27152 -1.54119 -1.18657e-23)
(5.1266 -1.50493 -3.06077e-18)
(4.98285 -1.46854 0)
(4.84025 -1.43202 -2.66609e-18)
(4.69886 -1.39541 -8.83375e-24)
(4.55874 -1.35875 2.24541e-18)
(4.42004 -1.3221 1.01201e-18)
(4.28296 -1.28553 0)
(4.14772 -1.24914 7.78223e-19)
(4.01453 -1.21299 6.54574e-19)
(3.88353 -1.17714 -3.44116e-24)
(3.75486 -1.14164 1.33659e-24)
(3.62859 -1.10656 -2.53054e-19)
(3.50489 -1.07194 1.07859e-19)
(3.38394 -1.03786 8.73209e-20)
(3.26591 -1.00439 2.54279e-24)
(3.15095 -0.971589 0)
(3.03918 -0.939507 4.71559e-24)
(2.9307 -0.908195 -4.91674e-24)
(2.82561 -0.877699 0)
(2.72399 -0.848059 5.56153e-19)
(2.62589 -0.819306 -6.61249e-19)
(2.53133 -0.791468 0)
(2.44036 -0.764562 0)
(2.35298 -0.738614 0)
(2.26919 -0.713629 -5.70993e-19)
(2.18897 -0.68962 -1.27988e-18)
(2.11229 -0.666583 -2.1167e-23)
(2.03911 -0.644522 -7.90744e-19)
(1.96938 -0.623433 0)
(1.90303 -0.603303 -9.61308e-19)
(1.84 -0.584125 -6.44021e-23)
(1.78023 -0.56589 1.15547e-18)
(1.72367 -0.548587 -6.31325e-19)
(1.67023 -0.532203 6.88764e-19)
(1.61981 -0.516713 -4.52082e-23)
(1.5724 -0.502113 0)
(1.52802 -0.488416 -8.87147e-19)
(1.48668 -0.475637 0)
(1.44816 -0.463744 -1.04516e-18)
(1.41221 -0.452655 1.13319e-18)
(1.3789 -0.442365 4.79661e-25)
(1.34889 -0.433033 -6.64839e-19)
(1.32282 -0.424887 -8.83827e-23)
(1.30068 -0.418028 -1.09445e-24)
(1.28071 -0.412061 4.20477e-19)
(1.2619 -0.406635 -4.53898e-19)
(1.24368 -0.401458 -2.39314e-22)
(1.22995 -0.397328 -1.04582e-24)
(1.22559 -0.395784 2.84966e-19)
(1.23252 -0.39753 3.05757e-19)
(1.25226 -0.403567 -8.60293e-25)
(1.27613 -0.412207 3.52332e-19)
(1.29493 -0.420762 1.88142e-19)
(1.30987 -0.429435 -2.01236e-19)
(1.31639 -0.436397 2.14675e-19)
(1.3253 -0.442892 0)
(1.36623 -0.457592 -2.42272e-19)
(1.45826 -0.486558 -2.54651e-19)
(1.61755 -0.534988 -3.49893e-25)
(1.8691 -0.61444 -2.70016e-22)
(2.29613 -0.767928 0)
(2.64263 -1.01559 -1.47343e-19)
(2.43584 -1.18979 1.47274e-19)
(1.57058 -0.998011 1.52681e-19)
(0.485677 -0.352762 -1.66665e-19)
(-0.0234211 0.1369 3.67353e-19)
(-0.112076 0.547118 -5.5059e-22)
(6.96125 -1.99987 -4.09965e-18)
(6.79129 -1.95992 3.93597e-18)
(6.62159 -1.91939 3.76703e-18)
(6.45215 -1.87832 0)
(6.28335 -1.83684 -3.41125e-18)
(6.11553 -1.79506 0)
(5.94881 -1.75304 -3.02807e-18)
(5.78315 -1.7108 0)
(5.61863 -1.66837 2.61365e-18)
(5.45535 -1.6258 2.39332e-18)
(5.29346 -1.58316 -2.16347e-18)
(5.13321 -1.54054 0)
(4.97488 -1.49805 -5.77387e-24)
(4.81871 -1.45577 5.99074e-24)
(4.66491 -1.41377 -5.68178e-19)
(4.51361 -1.37214 -4.24761e-19)
(4.36497 -1.33091 5.49201e-19)
(4.21918 -1.29019 -1.17299e-19)
(4.07643 -1.25004 -4.75844e-20)
(3.93698 -1.21055 -4.41017e-19)
(3.80098 -1.17181 2.42309e-24)
(3.66862 -1.13387 0)
(3.54002 -1.09679 -6.69884e-24)
(3.41532 -1.06065 -5.0166e-19)
(3.29462 -1.02549 0)
(3.17799 -0.991343 1.45855e-18)
(3.06549 -0.958256 -1.23492e-23)
(2.95717 -0.926251 9.82499e-19)
(2.85306 -0.895362 -1.77486e-23)
(2.75314 -0.865596 3.86195e-23)
(2.65743 -0.836974 7.09859e-19)
(2.56589 -0.809495 2.48202e-23)
(2.47848 -0.783166 -2.6156e-23)
(2.39514 -0.757981 0)
(2.31581 -0.733933 1.0698e-18)
(2.24041 -0.71101 3.52023e-23)
(2.1689 -0.689205 4.07904e-23)
(2.10119 -0.668508 7.03755e-19)
(2.03719 -0.648901 7.68139e-19)
(1.97679 -0.63036 -8.37154e-19)
(1.91997 -0.612875 -1.29503e-24)
(1.86675 -0.596463 9.90637e-19)
(1.81713 -0.581139 -1.31323e-22)
(1.77089 -0.566868 1.1675e-18)
(1.72772 -0.553565 -6.32944e-19)
(1.68769 -0.541215 6.55766e-25)
(1.65152 -0.529983 0)
(1.61991 -0.52012 0)
(1.59284 -0.511748 -1.06758e-22)
(1.56844 -0.504463 -9.3972e-19)
(1.54556 -0.497868 1.22832e-22)
(1.52358 -0.491647 -1.34268e-22)
(1.50667 -0.486605 1.43562e-22)
(1.50013 -0.484412 -6.36062e-19)
(1.50621 -0.485895 -3.41624e-19)
(1.52648 -0.492143 -9.59698e-25)
(1.55173 -0.501465 1.91161e-22)
(1.572 -0.511008 2.09634e-19)
(1.5881 -0.520821 2.18457e-22)
(1.5954 -0.529036 -2.33204e-22)
(1.60549 -0.536921 2.47594e-22)
(1.64983 -0.553637 2.68804e-19)
(1.74953 -0.585934 5.64264e-19)
(1.9221 -0.639724 2.86986e-22)
(2.19383 -0.72844 -1.33115e-24)
(2.64428 -0.895096 -1.54167e-19)
(3.01566 -1.16462 1.60913e-19)
(2.8299 -1.37226 -2.4701e-22)
(1.92241 -1.20008 3.23928e-19)
(0.694953 -0.505549 -7.2031e-22)
(0.0297168 0.108466 -4.00675e-19)
(-0.108682 0.625597 0)
(8.08887 -2.32361 1.58164e-23)
(7.9011 -2.27999 -2.38311e-23)
(7.71317 -2.23559 -3.71945e-18)
(7.52506 -2.19044 -1.41392e-23)
(7.33716 -2.14467 3.40013e-18)
(7.14989 -2.09844 0)
(6.96337 -2.05178 3.0464e-18)
(6.7776 -2.00474 0)
(6.59266 -1.95735 -1.97553e-23)
(6.40868 -1.90966 -2.4405e-18)
(6.22582 -1.86175 1.10788e-18)
(6.0444 -1.81374 0)
(5.86471 -1.76574 -8.63821e-19)
(5.68708 -1.71784 -1.268e-24)
(5.51174 -1.67015 5.91609e-19)
(5.33889 -1.62274 -4.43978e-19)
(5.16872 -1.5757 -2.8811e-19)
(5.00145 -1.52912 0)
(4.83736 -1.48309 -1.05717e-24)
(4.67673 -1.43773 2.33794e-19)
(4.51979 -1.39312 3.9479e-24)
(4.36676 -1.34935 -4.13274e-24)
(4.21783 -1.3065 0)
(4.07316 -1.26465 5.38314e-19)
(3.93291 -1.22386 0)
(3.79719 -1.1842 3.48799e-24)
(3.66609 -1.14569 0)
(3.53968 -1.1084 -1.06456e-18)
(3.41803 -1.07236 0)
(3.30115 -1.03759 0)
(3.18905 -1.0041 -7.7368e-19)
(3.08173 -0.971927 0)
(2.97914 -0.941063 9.60781e-19)
(2.88125 -0.911512 -1.06354e-18)
(2.78799 -0.883271 7.15942e-23)
(2.69928 -0.85633 1.44034e-24)
(2.61508 -0.830681 -4.12347e-23)
(2.5353 -0.806319 4.79753e-23)
(2.45984 -0.783222 -1.69171e-18)
(2.38858 -0.761369 9.22528e-19)
(2.3215 -0.740748 1.00486e-18)
(2.25862 -0.721373 -1.09311e-18)
(2.19992 -0.703263 -1.45008e-22)
(2.14517 -0.686386 7.88571e-23)
(2.09405 -0.670652 0)
(2.04662 -0.656034 -7.58494e-19)
(2.0036 -0.642699 -1.38848e-24)
(1.96577 -0.630914 1.07874e-22)
(1.93309 -0.620824 0)
(1.90364 -0.612038 1.03954e-18)
(1.87613 -0.604121 5.6125e-19)
(1.84993 -0.596737 -1.48504e-22)
(1.82935 -0.590653 1.58768e-22)
(1.81997 -0.587623 3.51605e-19)
(1.82435 -0.58859 0)
(1.84406 -0.594724 -4.04629e-19)
(1.8696 -0.604432 2.11913e-22)
(1.89055 -0.614794 1.4079e-24)
(1.90721 -0.625668 -2.4074e-22)
(1.91502 -0.635201 -2.63079e-19)
(1.92615 -0.644613 2.79161e-19)
(1.97299 -0.663271 -2.94179e-19)
(2.07818 -0.698481 -6.03529e-22)
(2.26028 -0.756888 3.12282e-22)
(2.54654 -0.853807 -1.63027e-19)
(3.00926 -1.03115 1.64832e-19)
(3.39365 -1.31818 -6.70081e-22)
(3.23416 -1.55811 -1.6782e-19)
(2.3126 -1.41896 -6.72629e-19)
(0.959712 -0.696474 1.85949e-19)
(0.115665 0.051716 2.14221e-19)
(-0.0910316 0.681612 8.60139e-22)
(9.17145 -2.63432 0)
(8.97253 -2.58888 -3.55207e-18)
(8.77292 -2.54246 0)
(8.57258 -2.49507 3.3082e-18)
(8.3719 -2.44683 -3.1736e-18)
(8.17132 -2.39791 -2.4168e-23)
(7.97097 -2.34837 -2.08553e-23)
(7.77086 -2.29822 2.7099e-18)
(7.57106 -2.24752 -2.5326e-18)
(7.37171 -2.1963 -1.67204e-23)
(7.173 -2.14466 -1.06935e-18)
(6.97524 -2.09272 -9.60198e-19)
(6.77879 -2.0406 8.08852e-24)
(6.584 -1.98842 9.70732e-24)
(6.39114 -1.93627 -5.83878e-19)
(6.20048 -1.88426 4.40546e-19)
(6.01221 -1.83248 3.06984e-24)
(5.82662 -1.78104 -2.66954e-24)
(5.64404 -1.73004 -5.06926e-20)
(5.46481 -1.67962 0)
(5.28921 -1.62989 0)
(5.11752 -1.58095 1.12762e-23)
(4.95 -1.53291 -2.65889e-23)
(4.78687 -1.48585 1.55003e-23)
(4.62833 -1.43987 -6.82539e-19)
(4.47455 -1.39504 -8.17899e-19)
(4.32568 -1.35143 -2.78712e-23)
(4.18183 -1.30908 0)
(4.0431 -1.26807 1.27819e-18)
(3.90956 -1.22841 -4.58156e-23)
(3.78125 -1.19016 8.18378e-19)
(3.65819 -1.15333 -5.44256e-23)
(3.54037 -1.11794 -1.02169e-18)
(3.42777 -1.08401 -1.41719e-22)
(3.32034 -1.05152 1.53003e-22)
(3.21802 -1.02049 -1.68612e-22)
(3.12077 -0.990914 1.87145e-22)
(3.02852 -0.96278 -1.00045e-22)
(2.94116 -0.936077 9.10769e-19)
(2.85858 -0.910786 9.94604e-19)
(2.78076 -0.886893 -2.16981e-18)
(2.70771 -0.864414 -1.18169e-18)
(2.63942 -0.843373 0)
(2.57565 -0.823742 -6.98745e-19)
(2.51608 -0.805431 -3.04766e-24)
(2.46074 -0.788405 1.99356e-22)
(2.41036 -0.772816 -2.19242e-22)
(2.36574 -0.758944 2.34325e-22)
(2.32687 -0.746962 0)
(2.29179 -0.736517 -5.64874e-19)
(2.25917 -0.727151 -2.99283e-22)
(2.22833 -0.718509 -6.58188e-19)
(2.20363 -0.711263 -3.54166e-19)
(2.19071 -0.707192 -3.71862e-22)
(2.1924 -0.707339 4.09731e-19)
(2.2102 -0.712957 4.39696e-19)
(2.23462 -0.722668 0)
(2.25516 -0.733599 -2.50876e-19)
(2.27156 -0.7454 -5.23387e-22)
(2.27944 -0.756287 -2.84689e-19)
(2.29134 -0.767332 -6.02379e-19)
(2.33954 -0.787777 0)
(2.44751 -0.825305 -3.31224e-19)
(2.63458 -0.887337 1.71018e-19)
(2.92864 -0.991 3.4344e-19)
(3.39203 -1.17633 0)
(3.77576 -1.47613 1.81834e-19)
(3.64215 -1.74483 0)
(2.73482 -1.65093 6.83062e-19)
(1.28448 -0.926944 -3.76419e-19)
(0.246288 -0.0459031 -1.75464e-21)
(-0.053516 0.701861 9.12624e-22)
(10.1416 -2.91263 0)
(9.93793 -2.86708 -2.25451e-23)
(9.73315 -2.82039 2.35645e-23)
(9.5272 -2.77254 -2.88008e-18)
(9.32046 -2.72369 4.03883e-23)
(9.11334 -2.67397 0)
(8.90598 -2.62345 0)
(8.69836 -2.57213 -2.40631e-18)
(8.49054 -2.52006 2.26087e-18)
(8.28264 -2.46728 1.50086e-23)
(8.07484 -2.41388 -5.07495e-24)
(7.86745 -2.35997 8.7169e-19)
(7.66082 -2.30568 1.53987e-18)
(7.45532 -2.25112 1.1203e-23)
(7.25124 -2.19639 5.39528e-19)
(7.04885 -2.14161 -2.39969e-24)
(6.84837 -2.08687 -5.32707e-24)
(6.65013 -2.03228 0)
(6.45446 -1.97797 4.79884e-20)
(6.26175 -1.92407 4.75296e-24)
(6.07234 -1.87072 -5.02611e-24)
(5.88655 -1.81803 0)
(5.70468 -1.76611 0)
(5.52702 -1.71509 0)
(5.35382 -1.66506 6.69038e-19)
(5.18531 -1.61612 -2.3147e-23)
(5.02169 -1.56836 0)
(4.86313 -1.52184 0)
(4.70979 -1.47664 -1.27868e-18)
(4.56178 -1.43282 0)
(4.4192 -1.39043 -8.26066e-19)
(4.28211 -1.34951 1.13437e-22)
(4.15055 -1.31009 -6.19066e-23)
(4.02453 -1.2722 2.31642e-18)
(3.90404 -1.23585 -8.00039e-23)
(3.78905 -1.20105 8.51256e-23)
(3.67953 -1.16781 -7.83109e-19)
(3.57545 -1.13613 0)
(3.47672 -1.10601 9.44861e-19)
(3.38324 -1.07743 -1.03473e-18)
(3.29499 -1.05039 1.13094e-18)
(3.21201 -1.0249 1.23421e-18)
(3.13428 -1.00099 0)
(3.06158 -0.978649 1.80356e-22)
(2.99358 -0.957792 -1.92764e-22)
(2.93031 -0.938368 -2.12715e-22)
(2.8725 -0.920515 2.27518e-22)
(2.82091 -0.904512 0)
(2.77557 -0.890569 0)
(2.73457 -0.878398 0)
(2.69659 -0.867536 6.43727e-19)
(2.66093 -0.857609 3.39162e-22)
(2.63181 -0.849135 3.74653e-19)
(2.61476 -0.843849 -3.92777e-22)
(2.61274 -0.842867 9.55829e-26)
(2.62718 -0.847534 0)
(2.64891 -0.856817 -4.95957e-19)
(2.66776 -0.868015 -5.17987e-22)
(2.68291 -0.880578 -2.81513e-19)
(2.69028 -0.892825 3.00384e-19)
(2.70248 -0.905552 3.15512e-19)
(2.75065 -0.927529 -1.33174e-24)
(2.85822 -0.966612 6.72745e-22)
(3.04509 -1.03107 -1.09706e-24)
(3.33935 -1.13967 -1.76222e-19)
(3.79175 -1.33013 -6.78903e-22)
(4.16098 -1.63797 8.30421e-22)
(4.04739 -1.93003 1.396e-21)
(3.17971 -1.89022 -6.76854e-19)
(1.66995 -1.19544 3.6914e-19)
(0.434973 -0.200773 0)
(0.00911396 0.675975 -9.48648e-22)
(11.1705 -3.1928 -1.96942e-23)
(10.9666 -3.14916 -2.60937e-18)
(10.7619 -3.10436 1.87269e-23)
(10.5558 -3.05833 -1.9615e-23)
(10.3484 -3.01107 1.75953e-23)
(10.14 -2.96271 2.32177e-18)
(9.93092 -2.91339 -2.23327e-18)
(9.72138 -2.86316 0)
(9.51131 -2.81203 0)
(9.30072 -2.76003 -1.91424e-18)
(9.08973 -2.70719 1.78665e-18)
(8.87849 -2.6536 8.23348e-19)
(8.66728 -2.59936 0)
(8.45645 -2.54459 -1.32439e-18)
(8.24633 -2.4894 0)
(8.03723 -2.43389 0)
(7.82937 -2.37817 -4.40186e-24)
(7.623 -2.32232 7.18646e-24)
(7.4184 -2.26646 -1.02657e-19)