/*--------------------------------*- C++ -*----------------------------------*\
| =========                 |                                                 |
| \\      /  F ield         | OpenFOAM: The Open Source CFD Toolbox           |
|  \\    /   O peration     | Version:  2412                                  |
|   \\  /    A nd           | Website:  www.openfoam.com                      |
|    \\/     M anipulation  |                                                 |
\*---------------------------------------------------------------------------*/
FoamFile
{
    version     2.0;
    format      ascii;
    arch        "LSB;label=32;scalar=64";
    class       volScalarField;
    location    "40";
    object      nut;
}
// * * * * * * * * * * * * * * * * * * * * * * * * * * * * * * * * * * * * * //

dimensions      [0 2 -1 0 0 0 0];

internalField   nonuniform List<scalar> 
32591
(
5.43813e-10
7.07735e-10
4.69859e-11
5.37403e-11
7.76365e-11
3.22283e-11
9.45389e-11
5.79537e-10
9.53688e-10
9.12513e-10
7.6317e-10
6.73261e-10
6.27738e-10
6.09206e-10
6.15643e-10
6.30762e-10
6.36676e-10
6.34242e-10
6.25847e-10
6.15036e-10
6.0872e-10
6.09485e-10
5.92047e-10
9.27709e-11
9.29446e-11
9.29216e-11
9.2814e-11
9.28326e-11
9.29862e-11
9.31859e-11
9.33643e-11
9.35278e-11
9.37008e-11
9.38841e-11
9.4074e-11
9.42652e-11
9.44499e-11
9.4634e-11
9.48182e-11
9.49897e-11
9.5153e-11
9.53128e-11
9.54723e-11
9.56293e-11
9.57802e-11
9.59267e-11
9.60702e-11
9.62135e-11
9.63511e-11
9.64819e-11
9.66106e-11
9.67367e-11
9.68566e-11
9.69759e-11
9.70951e-11
9.72042e-11
9.73144e-11
9.74199e-11
9.75229e-11
9.76221e-11
9.77208e-11
9.78199e-11
9.79147e-11
9.80037e-11
9.80889e-11
9.81714e-11
9.82486e-11
9.83217e-11
9.83927e-11
9.84633e-11
9.85208e-11
9.85808e-11
9.90227e-11
8.00225e-10
9.9259e-11
8.15901e-10
8.20641e-10
8.25367e-10
8.30249e-10
8.35278e-10
8.40392e-10
8.45638e-10
8.50999e-10
8.56533e-10
8.62291e-10
8.68289e-10
8.74596e-10
8.81229e-10
8.8819e-10
8.95771e-10
9.0391e-10
9.12939e-10
9.22735e-10
9.3351e-10
9.45181e-10
9.58211e-10
9.72461e-10
9.88222e-10
1.00536e-09
1.02438e-09
1.04506e-09
1.06766e-09
1.09187e-09
1.1181e-09
1.14616e-09
1.1761e-09
1.20751e-09
1.24055e-09
1.27488e-09
1.31065e-09
1.34763e-09
1.38585e-09
1.42474e-09
1.46427e-09
1.50391e-09
1.54367e-09
1.58315e-09
1.62209e-09
1.65986e-09
1.69623e-09
1.73063e-09
1.75367e-09
1.00111e-10
1.00207e-10
1.00333e-10
1.00448e-10
1.00544e-10
1.00621e-10
1.00672e-10
1.00701e-10
1.00716e-10
1.01264e-10
1.76827e-09
1.72047e-09
1.64802e-09
1.01601e-10
1.01924e-10
1.02349e-10
1.02901e-10
1.04377e-10
1.07233e-10
1.11732e-10
1.25462e-10
1.56973e-09
6.89166e-10
6.64237e-10
5.35622e-10
2.61404e-10
3.82885e-11
7.30534e-14
4.53335e-11
2.81587e-10
5.59085e-10
6.84971e-10
6.8743e-10
3.29693e-10
1.80112e-09
1.94229e-09
1.05953e-10
1.02593e-10
1.02224e-10
1.01773e-10
1.00824e-10
9.99554e-11
1.40511e-09
1.50658e-09
1.5715e-09
1.00062e-10
9.8896e-11
9.89782e-11
9.91149e-11
9.92401e-11
9.93316e-11
9.93919e-11
9.94183e-11
9.94141e-11
9.94253e-11
1.72779e-09
1.72143e-09
1.70004e-09
1.67608e-09
1.64993e-09
1.62224e-09
1.59303e-09
1.56285e-09
1.5317e-09
1.49994e-09
1.4678e-09
1.43572e-09
1.40376e-09
1.37237e-09
1.34134e-09
1.31113e-09
1.28164e-09
1.25332e-09
1.22592e-09
1.19981e-09
1.17473e-09
1.15105e-09
1.12855e-09
1.10763e-09
1.08804e-09
1.07017e-09
1.05362e-09
1.03857e-09
1.02458e-09
1.01182e-09
9.99845e-10
9.88805e-10
9.78229e-10
9.68257e-10
9.58634e-10
9.49392e-10
9.40368e-10
9.315e-10
9.22715e-10
9.14013e-10
9.05316e-10
8.96547e-10
8.87778e-10
8.78983e-10
8.70113e-10
9.96503e-11
9.85175e-11
9.84594e-11
9.834e-11
9.82686e-11
9.81794e-11
9.80926e-11
9.8002e-11
9.79037e-11
9.78012e-11
9.7694e-11
9.75922e-11
9.74865e-11
9.73776e-11
9.7264e-11
9.71433e-11
9.70165e-11
9.68882e-11
9.67576e-11
9.66236e-11
9.64847e-11
9.63425e-11
9.62017e-11
9.60544e-11
9.59065e-11
9.57588e-11
9.56055e-11
9.54508e-11
9.52949e-11
9.51332e-11
9.49688e-11
9.48033e-11
9.46349e-11
9.44631e-11
9.42856e-11
9.41062e-11
9.39272e-11
9.3745e-11
9.35605e-11
9.33732e-11
9.31869e-11
9.29903e-11
9.27875e-11
9.25864e-11
9.23874e-11
9.2201e-11
9.2025e-11
9.18356e-11
9.16264e-11
9.14635e-11
9.14286e-11
9.15134e-11
9.15279e-11
9.12853e-11
9.08114e-11
9.06378e-11
9.12535e-11
9.3047e-11
9.5137e-11
9.64352e-11
9.62824e-11
9.3789e-11
8.98106e-11
8.79858e-11
9.08128e-11
9.85155e-11
1.10917e-10
1.42944e-10
3.39521e-10
3.4966e-10
4.19779e-11
4.87533e-11
1.14761e-10
6.96578e-11
2.46114e-11
6.33323e-10
4.90433e-10
3.84752e-08
2.71476e-08
6.51452e-09
3.15453e-09
3.4539e-09
1.94612e-09
1.14473e-08
5.96436e-08
7.59142e-08
7.86046e-08
7.17259e-08
6.60459e-08
6.32165e-08
6.21091e-08
6.23842e-08
6.30696e-08
6.33172e-08
6.30863e-08
6.25379e-08
6.19025e-08
6.15419e-08
6.1624e-08
5.88349e-08
5.55411e-09
5.55535e-09
5.55897e-09
5.56397e-09
5.57282e-09
5.58468e-09
5.59779e-09
5.61117e-09
5.6251e-09
5.63993e-09
5.6553e-09
5.67108e-09
5.68724e-09
5.70345e-09
5.71974e-09
5.73617e-09
5.75248e-09
5.76864e-09
5.78468e-09
5.80072e-09
5.81665e-09
5.83235e-09
5.84784e-09
5.86319e-09
5.87854e-09
5.89368e-09
5.90868e-09
5.92378e-09
5.93896e-09
5.95405e-09
5.9694e-09
5.98503e-09
6.00076e-09
6.01698e-09
6.03358e-09
6.05055e-09
6.06823e-09
6.08672e-09
6.10602e-09
6.12586e-09
6.14616e-09
6.16709e-09
6.18851e-09
6.21017e-09
6.23184e-09
6.25364e-09
6.27495e-09
6.29595e-09
6.31643e-09
6.36975e-09
8.11995e-08
6.4061e-09
8.13154e-08
8.17474e-08
8.21877e-08
8.2639e-08
8.31006e-08
8.35712e-08
8.40535e-08
8.45471e-08
8.50568e-08
8.55876e-08
8.61442e-08
8.67325e-08
8.73562e-08
8.80191e-08
8.87443e-08
8.95325e-08
9.04088e-08
9.13649e-08
9.24188e-08
9.35676e-08
9.48464e-08
9.62446e-08
9.77819e-08
9.94456e-08
1.01268e-07
1.03232e-07
1.05353e-07
1.07607e-07
1.1002e-07
1.12571e-07
1.15256e-07
1.18041e-07
1.20936e-07
1.23912e-07
1.26976e-07
1.30109e-07
1.33311e-07
1.36543e-07
1.39794e-07
1.43029e-07
1.46245e-07
1.49411e-07
1.52506e-07
1.55485e-07
1.58325e-07
1.60984e-07
1.62256e-07
9.78414e-09
9.84582e-09
9.89453e-09
9.92856e-09
9.94622e-09
9.94604e-09
9.92571e-09
9.88338e-09
9.81643e-09
9.76953e-09
1.62046e-07
1.58113e-07
1.51963e-07
9.171e-09
9.13462e-09
9.30062e-09
9.64104e-09
9.98023e-09
1.01559e-08
9.90625e-09
9.31023e-09
1.32301e-07
5.50936e-08
4.90753e-08
3.52555e-08
1.51778e-08
2.16965e-09
6.58523e-12
2.54724e-09
1.63639e-08
3.69505e-08
5.07522e-08
5.5036e-08
2.31072e-08
1.55187e-07
1.71895e-07
1.00808e-08
9.44232e-09
8.60552e-09
8.05102e-09
8.02254e-09
8.29166e-09
1.32714e-07
1.41406e-07
1.47039e-07
9.32884e-09
9.42791e-09
9.54505e-09
9.63562e-09
9.70238e-09
9.74657e-09
9.76992e-09
9.77368e-09
9.76035e-09
9.73288e-09
1.60841e-07
1.60833e-07
1.59171e-07
1.57288e-07
1.55217e-07
1.53003e-07
1.50657e-07
1.48213e-07
1.45678e-07
1.43078e-07
1.4043e-07
1.37766e-07
1.35095e-07
1.32447e-07
1.29811e-07
1.2722e-07
1.24672e-07
1.222e-07
1.1979e-07
1.17471e-07
1.1523e-07
1.13097e-07
1.1106e-07
1.09148e-07
1.0735e-07
1.05695e-07
1.04158e-07
1.02751e-07
1.01445e-07
1.00245e-07
9.91221e-08
9.80807e-08
9.70884e-08
9.61518e-08
9.52498e-08
9.43837e-08
9.35404e-08
9.2714e-08
9.18989e-08
9.10915e-08
9.02858e-08
8.94755e-08
8.86627e-08
8.78447e-08
8.70227e-08
6.64801e-09
6.5696e-09
6.53272e-09
6.49608e-09
6.45906e-09
6.4221e-09
6.38502e-09
6.34835e-09
6.31162e-09
6.27542e-09
6.23981e-09
6.20603e-09
6.17326e-09
6.1413e-09
6.11023e-09
6.08e-09
6.05057e-09
6.02219e-09
5.99489e-09
5.96852e-09
5.943e-09
5.91822e-09
5.89447e-09
5.87134e-09
5.84902e-09
5.82745e-09
5.80629e-09
5.78571e-09
5.76571e-09
5.74602e-09
5.72668e-09
5.70775e-09
5.68915e-09
5.6708e-09
5.65265e-09
5.63484e-09
5.61745e-09
5.60035e-09
5.58353e-09
5.56704e-09
5.55105e-09
5.53544e-09
5.52023e-09
5.5057e-09
5.49179e-09
5.47871e-09
5.46672e-09
5.45549e-09
5.4447e-09
5.43531e-09
5.42901e-09
5.42663e-09
5.42574e-09
5.42298e-09
5.41727e-09
5.41543e-09
5.42853e-09
5.46444e-09
5.51336e-09
5.55894e-09
5.58629e-09
5.57889e-09
5.5439e-09
5.52959e-09
5.59769e-09
5.76109e-09
6.08223e-09
6.74409e-09
2.29936e-08
3.6434e-08
4.6656e-09
2.61789e-09
4.97592e-09
3.70369e-09
3.16529e-09
2.71137e-08
3.74402e-08
6.0371e-07
1.24835e-07
6.91789e-08
3.71075e-08
1.65764e-08
1.10684e-08
1.22315e-07
4.11381e-07
4.83755e-07
5.46939e-07
5.27374e-07
5.013e-07
4.88587e-07
4.83017e-07
4.829e-07
4.84681e-07
4.85348e-07
4.84227e-07
4.82032e-07
4.79812e-07
4.78793e-07
4.79393e-07
4.53312e-07
6.52844e-08
6.52638e-08
6.53008e-08
6.53742e-08
6.54851e-08
6.56179e-08
6.57612e-08
6.59126e-08
6.60749e-08
6.62484e-08
6.64295e-08
6.6616e-08
6.68073e-08
6.70008e-08
6.71961e-08
6.73934e-08
6.7591e-08
6.77879e-08
6.79842e-08
6.81809e-08
6.83771e-08
6.8572e-08
6.87655e-08
6.89585e-08
6.91514e-08
6.93431e-08
6.95353e-08
6.97297e-08
6.9926e-08
7.01234e-08
7.03246e-08
7.05301e-08
7.07408e-08
7.0958e-08
7.11822e-08
7.14129e-08
7.16549e-08
7.19086e-08
7.21724e-08
7.24442e-08
7.27238e-08
7.30117e-08
7.3305e-08
7.36016e-08
7.38974e-08
7.41924e-08
7.44798e-08
7.47637e-08
7.5042e-08
7.59585e-08
6.2906e-07
7.64302e-08
6.27713e-07
6.30915e-07
6.34183e-07
6.37495e-07
6.40865e-07
6.44304e-07
6.47828e-07
6.51436e-07
6.5516e-07
6.59045e-07
6.63137e-07
6.67484e-07
6.72123e-07
6.77103e-07
6.82572e-07
6.88576e-07
6.95254e-07
7.02596e-07
7.10698e-07
7.19596e-07
7.29475e-07
7.40299e-07
7.52157e-07
7.6496e-07
7.78774e-07
7.93611e-07
8.09494e-07
8.2631e-07
8.4415e-07
8.62865e-07
8.82357e-07
9.02438e-07
9.23079e-07
9.44119e-07
9.65538e-07
9.87231e-07
1.00915e-06
1.03109e-06
1.05294e-06
1.07454e-06
1.09579e-06
1.11654e-06
1.13662e-06
1.15578e-06
1.17384e-06
1.19051e-06
1.19563e-06
1.28755e-07
1.29724e-07
1.30458e-07
1.30941e-07
1.31145e-07
1.31041e-07
1.30597e-07
1.29781e-07
1.28562e-07
1.27816e-07
1.18517e-06
1.15921e-06
1.11724e-06
1.17604e-07
1.17164e-07
1.20029e-07
1.25489e-07
1.30427e-07
1.32541e-07
1.26773e-07
1.1391e-07
8.74078e-07
4.04136e-07
3.2223e-07
2.03027e-07
7.85071e-08
1.13986e-08
5.88065e-11
1.32524e-08
8.45559e-08
2.13586e-07
3.34376e-07
4.10105e-07
2.70239e-07
1.06708e-06
1.20675e-06
1.32239e-07
1.2302e-07
1.09801e-07
1.00485e-07
9.959e-08
1.0369e-07
9.93483e-07
1.05419e-06
1.09327e-06
1.20848e-07
1.22637e-07
1.24671e-07
1.26247e-07
1.27418e-07
1.28213e-07
1.28656e-07
1.28769e-07
1.28595e-07
1.28166e-07
1.19168e-06
1.19431e-06
1.18384e-06
1.17179e-06
1.15844e-06
1.14401e-06
1.12864e-06
1.11249e-06
1.09565e-06
1.07828e-06
1.06047e-06
1.0424e-06
1.02417e-06
1.00591e-06
9.87618e-07
9.69454e-07
9.51491e-07
9.33888e-07
9.16656e-07
8.99937e-07
8.83737e-07
8.68199e-07
8.53334e-07
8.39288e-07
8.2606e-07
8.13788e-07
8.02392e-07
7.91913e-07
7.822e-07
7.73238e-07
7.64877e-07
7.57086e-07
7.4971e-07
7.42722e-07
7.36023e-07
7.29541e-07
7.2324e-07
7.17084e-07
7.11027e-07
7.05035e-07
6.99056e-07
6.93053e-07
6.87024e-07
6.80941e-07
6.74811e-07
7.99371e-08
7.87074e-08
7.81926e-08
7.76962e-08
7.7185e-08
7.66756e-08
7.61633e-08
7.56557e-08
7.51484e-08
7.46475e-08
7.41535e-08
7.36898e-08
7.32423e-08
7.28043e-08
7.2378e-08
7.19639e-08
7.15609e-08
7.11707e-08
7.07955e-08
7.04336e-08
7.00843e-08
6.97462e-08
6.94216e-08
6.91084e-08
6.88067e-08
6.85158e-08
6.82327e-08
6.79584e-08
6.76928e-08
6.74339e-08
6.71809e-08
6.69337e-08
6.66926e-08
6.64563e-08
6.62245e-08
6.59982e-08
6.57782e-08
6.55633e-08
6.53533e-08
6.51493e-08
6.49525e-08
6.47622e-08
6.45791e-08
6.44051e-08
6.42401e-08
6.40864e-08
6.39469e-08
6.38209e-08
6.37054e-08
6.36027e-08
6.35244e-08
6.3485e-08
6.34799e-08
6.34891e-08
6.34923e-08
6.35033e-08
6.36027e-08
6.38457e-08
6.42089e-08
6.46766e-08
6.51507e-08
6.54757e-08
6.56119e-08
6.57065e-08
6.62497e-08
6.73143e-08
6.97172e-08
7.33957e-08
1.95557e-07
2.77678e-07
5.82513e-08
1.34761e-08
2.47722e-08
4.81965e-08
4.53831e-08
1.34907e-07
5.96823e-07
3.86169e-06
6.84211e-07
3.03824e-07
2.65914e-07
8.76909e-08
3.55029e-08
5.62431e-07
1.28841e-06
1.4795e-06
1.76514e-06
1.77843e-06
1.7363e-06
1.716e-06
1.70283e-06
1.69486e-06
1.69208e-06
1.69269e-06
1.69304e-06
1.69317e-06
1.69408e-06
1.69616e-06
1.69822e-06
1.60316e-06
4.09124e-07
4.08991e-07
4.09138e-07
4.09599e-07
4.10284e-07
4.11074e-07
4.1192e-07
4.12832e-07
4.1383e-07
4.14905e-07
4.16035e-07
4.17203e-07
4.18402e-07
4.19623e-07
4.20866e-07
4.22125e-07
4.23391e-07
4.24658e-07
4.25928e-07
4.27203e-07
4.28481e-07
4.29758e-07
4.31032e-07
4.32312e-07
4.33594e-07
4.3488e-07
4.36174e-07
4.37484e-07
4.38816e-07
4.40166e-07
4.41547e-07
4.42962e-07
4.4442e-07
4.45926e-07
4.47489e-07
4.49108e-07
4.50805e-07
4.52577e-07
4.54419e-07
4.56316e-07
4.58261e-07
4.60254e-07
4.62279e-07
4.64315e-07
4.66336e-07
4.68338e-07
4.70278e-07
4.72188e-07
4.7408e-07
4.80954e-07
2.21049e-06
4.8417e-07
2.21607e-06
2.2272e-06
2.23842e-06
2.24968e-06
2.2611e-06
2.27274e-06
2.28463e-06
2.29681e-06
2.3094e-06
2.32257e-06
2.33648e-06
2.35135e-06
2.36733e-06
2.38465e-06
2.40376e-06
2.42496e-06
2.44853e-06
2.47465e-06
2.50353e-06
2.53551e-06
2.57094e-06
2.60983e-06
2.65232e-06
2.69834e-06
2.74772e-06
2.80064e-06
2.85692e-06
2.91641e-06
2.97901e-06
3.04431e-06
3.11169e-06
3.18071e-06
3.25089e-06
3.32186e-06
3.39321e-06
3.46477e-06
3.53611e-06
3.60695e-06
3.67675e-06
3.74526e-06
3.81192e-06
3.87642e-06
3.93808e-06
3.99644e-06
4.05074e-06
4.09999e-06
4.10928e-06
8.29694e-07
8.35746e-07
8.40159e-07
8.42839e-07
8.43606e-07
8.42264e-07
8.38616e-07
8.32462e-07
8.23705e-07
8.20228e-07
4.04767e-06
3.96775e-06
3.83812e-06
7.48957e-07
7.46488e-07
7.66403e-07
8.02853e-07
8.36307e-07
8.58394e-07
8.24519e-07
7.36693e-07
2.58068e-06
1.36636e-06
9.74191e-07
5.45088e-07
1.92581e-07
2.88438e-08
2.62344e-10
3.32018e-08
2.06981e-07
5.75166e-07
1.01368e-06
1.40191e-06
1.36281e-06
3.37731e-06
3.92076e-06
8.53235e-07
7.89195e-07
7.02074e-07
6.36558e-07
6.275e-07
6.53235e-07
3.46963e-06
3.66656e-06
3.79362e-06
7.7078e-07
7.82131e-07
7.96588e-07
8.0797e-07
8.16585e-07
8.22629e-07
8.26243e-07
8.27583e-07
8.26934e-07
8.24502e-07
4.12158e-06
4.13428e-06
4.10294e-06
4.06623e-06
4.02531e-06
3.98058e-06
3.9327e-06
3.88195e-06
3.8288e-06
3.77358e-06
3.71665e-06
3.65833e-06
3.59907e-06
3.539e-06
3.47844e-06
3.41764e-06
3.35715e-06
3.29731e-06
3.23857e-06
3.18114e-06
3.12543e-06
3.07162e-06
3.02014e-06
2.97122e-06
2.92517e-06
2.88215e-06
2.84228e-06
2.80544e-06
2.7714e-06
2.73986e-06
2.7106e-06
2.68319e-06
2.65742e-06
2.63291e-06
2.60955e-06
2.58694e-06
2.56502e-06
2.54368e-06
2.52273e-06
2.50202e-06
2.48139e-06
2.46071e-06
2.43989e-06
2.41881e-06
2.39747e-06
5.08785e-07
4.99775e-07
4.96202e-07
4.92819e-07
4.89312e-07
4.85831e-07
4.82323e-07
4.78837e-07
4.75351e-07
4.71894e-07
4.68477e-07
4.65312e-07
4.62263e-07
4.59273e-07
4.5635e-07
4.53499e-07
4.50719e-07
4.48021e-07
4.45414e-07
4.42894e-07
4.40463e-07
4.38113e-07
4.35854e-07
4.33677e-07
4.31583e-07
4.29566e-07
4.27611e-07
4.25725e-07
4.23899e-07
4.22126e-07
4.20401e-07
4.18721e-07
4.1709e-07
4.15497e-07
4.13942e-07
4.1243e-07
4.10963e-07
4.09537e-07
4.08151e-07
4.0681e-07
4.05522e-07
4.04288e-07
4.0311e-07
4.01994e-07
4.00943e-07
3.9997e-07
3.99096e-07
3.98326e-07
3.97638e-07
3.97023e-07
3.96534e-07
3.96279e-07
3.9631e-07
3.96554e-07
3.96835e-07
3.97009e-07
3.97429e-07
3.98413e-07
4.00206e-07
4.03367e-07
4.07353e-07
4.11005e-07
4.1352e-07
4.14626e-07
4.16571e-07
4.19731e-07
4.29205e-07
4.50215e-07
8.1846e-07
9.8287e-07
3.60214e-07
4.16161e-08
1.35559e-07
3.36471e-07
2.78472e-07
6.76225e-07
3.87447e-06
1.40144e-05
3.09072e-06
8.84567e-07
1.19853e-06
3.54315e-07
1.37414e-07
1.64953e-06
2.84995e-06
3.25539e-06
3.89003e-06
4.02505e-06
4.00261e-06
3.98943e-06
3.96438e-06
3.93369e-06
3.91629e-06
3.91897e-06
3.93162e-06
3.94954e-06
3.96906e-06
3.98473e-06
3.98994e-06
3.79787e-06
1.8821e-06
1.8816e-06
1.8819e-06
1.88388e-06
1.88686e-06
1.89022e-06
1.89378e-06
1.89767e-06
1.90199e-06
1.9067e-06
1.91167e-06
1.91682e-06
1.92215e-06
1.9276e-06
1.93316e-06
1.93882e-06
1.94453e-06
1.95028e-06
1.95608e-06
1.96191e-06
1.96779e-06
1.9737e-06
1.97963e-06
1.98561e-06
1.99162e-06
1.9977e-06
2.00383e-06
2.01007e-06
2.01643e-06
2.02291e-06
2.02956e-06
2.03637e-06
2.04342e-06
2.0507e-06
2.05826e-06
2.06611e-06
2.07431e-06
2.08283e-06
2.09164e-06
2.10069e-06
2.10989e-06
2.11924e-06
2.12866e-06
2.13803e-06
2.14727e-06
2.15633e-06
2.16507e-06
2.17359e-06
2.18214e-06
2.21558e-06
5.15561e-06
2.23059e-06
5.22491e-06
5.25148e-06
5.27792e-06
5.3043e-06
5.33095e-06
5.35801e-06
5.38562e-06
5.41386e-06
5.44307e-06
5.47366e-06
5.50611e-06
5.54095e-06
5.57866e-06
5.61999e-06
5.66576e-06
5.71705e-06
5.77411e-06
5.83795e-06
5.90871e-06
5.98778e-06
6.0753e-06
6.17174e-06
6.27698e-06
6.39187e-06
6.5154e-06
6.64781e-06
6.78802e-06
6.93641e-06
7.09156e-06
7.25291e-06
7.41825e-06
7.58694e-06
7.75688e-06
7.92756e-06
8.09701e-06
8.26531e-06
8.43072e-06
8.59378e-06
8.75279e-06
8.90797e-06
9.05728e-06
9.20058e-06
9.33585e-06
9.46306e-06
9.58002e-06
9.68438e-06
9.70372e-06
3.69345e-06
3.71744e-06
3.73405e-06
3.74279e-06
3.74298e-06
3.7338e-06
3.71442e-06
3.68402e-06
3.64282e-06
3.63255e-06
9.51705e-06
9.34629e-06
9.08199e-06
3.30206e-06
3.28702e-06
3.37239e-06
3.53335e-06
3.70276e-06
3.89489e-06
3.83217e-06
3.40224e-06
5.19309e-06
3.05021e-06
1.96024e-06
9.81989e-07
3.20242e-07
5.04175e-08
8.41635e-10
5.74238e-08
3.43042e-07
1.03911e-06
2.04406e-06
3.14857e-06
3.84601e-06
7.16417e-06
8.65237e-06
3.80333e-06
3.47181e-06
3.09071e-06
2.79187e-06
2.74345e-06
2.85211e-06
8.34176e-06
8.77793e-06
9.0663e-06
3.38062e-06
3.43051e-06
3.4988e-06
3.55388e-06
3.59661e-06
3.62776e-06
3.64788e-06
3.65769e-06
3.65834e-06
3.65085e-06
9.8109e-06
9.83409e-06
9.76543e-06
9.68422e-06
9.59364e-06
9.49373e-06
9.38646e-06
9.27197e-06
9.15172e-06
9.02607e-06
8.89606e-06
8.76156e-06
8.62382e-06
8.48249e-06
8.33906e-06
8.19353e-06
8.0481e-06
7.90297e-06
7.76037e-06
7.62015e-06
7.48427e-06
7.35238e-06
7.22639e-06
7.1062e-06
6.99336e-06
6.88744e-06
6.78963e-06
6.69888e-06
6.6155e-06
6.53794e-06
6.46644e-06
6.3992e-06
6.33649e-06
6.27661e-06
6.21981e-06
6.16512e-06
6.11234e-06
6.0611e-06
6.01088e-06
5.96131e-06
5.91196e-06
5.8625e-06
5.81258e-06
5.76188e-06
5.71025e-06
2.33059e-06
2.28568e-06
2.27055e-06
2.25658e-06
2.2421e-06
2.2278e-06
2.21336e-06
2.19893e-06
2.18443e-06
2.16994e-06
2.15555e-06
2.14156e-06
2.12779e-06
2.11418e-06
2.10077e-06
2.08758e-06
2.07465e-06
2.06201e-06
2.0497e-06
2.03774e-06
2.02614e-06
2.01492e-06
2.00408e-06
1.99362e-06
1.98353e-06
1.97381e-06
1.9644e-06
1.95532e-06
1.94653e-06
1.93801e-06
1.92974e-06
1.9217e-06
1.9139e-06
1.9063e-06
1.8989e-06
1.89172e-06
1.88475e-06
1.87801e-06
1.87147e-06
1.86517e-06
1.85914e-06
1.85338e-06
1.84791e-06
1.84275e-06
1.83791e-06
1.83344e-06
1.82948e-06
1.82604e-06
1.82302e-06
1.82029e-06
1.81806e-06
1.81689e-06
1.8173e-06
1.81904e-06
1.82112e-06
1.82203e-06
1.8227e-06
1.82459e-06
1.82982e-06
1.84217e-06
1.85959e-06
1.87941e-06
1.89953e-06
1.91077e-06
1.91327e-06
1.91028e-06
1.92057e-06
1.91006e-06
2.29253e-06
2.37916e-06
1.33004e-06
1.56895e-07
5.462e-07
1.45491e-06
1.00864e-06
2.99051e-06
1.433e-05
3.41171e-05
1.04254e-05
2.07476e-06
2.77687e-06
1.10045e-06
5.27947e-07
3.62217e-06
5.16358e-06
5.9822e-06
7.02095e-06
7.34132e-06
7.37539e-06
7.38019e-06
7.33503e-06
7.26863e-06
7.23249e-06
7.2457e-06
7.28851e-06
7.34671e-06
7.40537e-06
7.44781e-06
7.46196e-06
7.2181e-06
5.26942e-06
5.28119e-06
5.2959e-06
5.31322e-06
5.33091e-06
5.34829e-06
5.36593e-06
5.38444e-06
5.40377e-06
5.42363e-06
5.44376e-06
5.46404e-06
5.4845e-06
5.50507e-06
5.52566e-06
5.54623e-06
5.56679e-06
5.58728e-06
5.60772e-06
5.62814e-06
5.64856e-06
5.66901e-06
5.68952e-06
5.7101e-06
5.73084e-06
5.75188e-06
5.77326e-06
5.7951e-06
5.81751e-06
5.84057e-06
5.86441e-06
5.88914e-06
5.91512e-06
5.94229e-06
5.97088e-06
6.00087e-06
6.0326e-06
6.06587e-06
6.1006e-06
6.13663e-06
6.17369e-06
6.21171e-06
6.25026e-06
6.28881e-06
6.32693e-06
6.3643e-06
6.4001e-06
6.43495e-06
6.46872e-06
6.54224e-06
9.66902e-06
6.59775e-06
9.82833e-06
9.87891e-06
9.92916e-06
9.97929e-06
1.00299e-05
1.00811e-05
1.01335e-05
1.01871e-05
1.02427e-05
1.0301e-05
1.03632e-05
1.04303e-05
1.05034e-05
1.05843e-05
1.06742e-05
1.07755e-05
1.08883e-05
1.10152e-05
1.1156e-05
1.13141e-05
1.14888e-05
1.16813e-05
1.18911e-05
1.21208e-05
1.23677e-05
1.26319e-05
1.29105e-05
1.3205e-05
1.35115e-05
1.38291e-05
1.41528e-05
1.4482e-05
1.48115e-05
1.51409e-05
1.54654e-05
1.57855e-05
1.60974e-05
1.64035e-05
1.67003e-05
1.6989e-05
1.72649e-05
1.75285e-05
1.77754e-05
1.80069e-05
1.82181e-05
1.84056e-05
1.84752e-05
1.22375e-05
1.23168e-05
1.23713e-05
1.24003e-05
1.2401e-05
1.23707e-05
1.23076e-05
1.22087e-05
1.20732e-05
1.19765e-05
1.80471e-05
1.77467e-05
1.73422e-05
1.11067e-05
1.11667e-05
1.15188e-05
1.19882e-05
1.21469e-05
1.17305e-05
1.05025e-05
8.60527e-06
8.56995e-06
5.2147e-06
3.03205e-06
1.36092e-06
4.13528e-07
7.03269e-08
2.28566e-09
7.91848e-08
4.40754e-07
1.44479e-06
3.1678e-06
5.4003e-06
7.61845e-06
1.23171e-05
1.55532e-05
1.21381e-05
1.19428e-05
1.07776e-05
9.72663e-06
9.45534e-06
9.74426e-06
1.61003e-05
1.68605e-05
1.73976e-05
1.14401e-05
1.16456e-05
1.18668e-05
1.20403e-05
1.21715e-05
1.22648e-05
1.23223e-05
1.2346e-05
1.23404e-05
1.23077e-05
1.87964e-05
1.87941e-05
1.86657e-05
1.85146e-05
1.83464e-05
1.81602e-05
1.79602e-05
1.77461e-05
1.75211e-05
1.72854e-05
1.70412e-05
1.67873e-05
1.65261e-05
1.62562e-05
1.59812e-05
1.57006e-05
1.54194e-05
1.51374e-05
1.48601e-05
1.45865e-05
1.43214e-05
1.40632e-05
1.38166e-05
1.35807e-05
1.33592e-05
1.31505e-05
1.2958e-05
1.27788e-05
1.26145e-05
1.24613e-05
1.23204e-05
1.21876e-05
1.20643e-05
1.19463e-05
1.18347e-05
1.17277e-05
1.16248e-05
1.15252e-05
1.14279e-05
1.1332e-05
1.12367e-05
1.11412e-05
1.10449e-05
1.0947e-05
1.08471e-05
7.13508e-06
7.02696e-06
6.96542e-06
6.90593e-06
6.84375e-06
6.78155e-06
6.71863e-06
6.65568e-06
6.59263e-06
6.52973e-06
6.46744e-06
6.40626e-06
6.34616e-06
6.28721e-06
6.22962e-06
6.17359e-06
6.11924e-06
6.06671e-06
6.0161e-06
5.96744e-06
5.92081e-06
5.87616e-06
5.83343e-06
5.79264e-06
5.75371e-06
5.71652e-06
5.68093e-06
5.64688e-06
5.61421e-06
5.58276e-06
5.55248e-06
5.52324e-06
5.49501e-06
5.46769e-06
5.44121e-06
5.41556e-06
5.39073e-06
5.36666e-06
5.34332e-06
5.32077e-06
5.29897e-06
5.27794e-06
5.25773e-06
5.23837e-06
5.21978e-06
5.20198e-06
5.18521e-06
5.16971e-06
5.15544e-06
5.14184e-06
5.12838e-06
5.11561e-06
5.1055e-06
5.09965e-06
5.09789e-06
5.09544e-06
5.08895e-06
5.07569e-06
5.05713e-06
5.04734e-06
5.05256e-06
5.0773e-06
5.12645e-06
5.17797e-06
5.20655e-06
5.19822e-06
5.18098e-06
5.00014e-06
4.91929e-06
4.54843e-06
3.26768e-06
5.74181e-07
1.67039e-06
3.65431e-06
2.70464e-06
1.00131e-05
3.53738e-05
6.24929e-05
2.67253e-05
4.98474e-06
4.81162e-06
2.83824e-06
1.86724e-06
6.51407e-06
8.1501e-06
9.72871e-06
1.12487e-05
1.17746e-05
1.18791e-05
1.19002e-05
1.18285e-05
1.17269e-05
1.1686e-05
1.17328e-05
1.18322e-05
1.19561e-05
1.20732e-05
1.21551e-05
1.21903e-05
1.19727e-05
1.04689e-05
1.05103e-05
1.05574e-05
1.06064e-05
1.06533e-05
1.06982e-05
1.07432e-05
1.07896e-05
1.08369e-05
1.08844e-05
1.09318e-05
1.09789e-05
1.1026e-05
1.10728e-05
1.11193e-05
1.11654e-05
1.12113e-05
1.12567e-05
1.13019e-05
1.13469e-05
1.13918e-05
1.14367e-05
1.14817e-05
1.15269e-05
1.15725e-05
1.16189e-05
1.16662e-05
1.17148e-05
1.17647e-05
1.18165e-05
1.18702e-05
1.19264e-05
1.19858e-05
1.20482e-05
1.21143e-05
1.21839e-05
1.22577e-05
1.23354e-05
1.24166e-05
1.2501e-05
1.25879e-05
1.26771e-05
1.27676e-05
1.28579e-05
1.2947e-05
1.30342e-05
1.31173e-05
1.31978e-05
1.32747e-05
1.33932e-05
1.59629e-05
1.35169e-05
1.61826e-05
1.62661e-05
1.63497e-05
1.64333e-05
1.65177e-05
1.66034e-05
1.6691e-05
1.6781e-05
1.68746e-05
1.69733e-05
1.70791e-05
1.71938e-05
1.73194e-05
1.74591e-05
1.76147e-05
1.77905e-05
1.79861e-05
1.82065e-05
1.84509e-05
1.87253e-05
1.90274e-05
1.93596e-05
1.97204e-05
2.01154e-05
2.05386e-05
2.09898e-05
2.14637e-05
2.19635e-05
2.24811e-05
2.30158e-05
2.35586e-05
2.41089e-05
2.46576e-05
2.52042e-05
2.57399e-05
2.62663e-05
2.67765e-05
2.72762e-05
2.77592e-05
2.82288e-05
2.86763e-05
2.91031e-05
2.95018e-05
2.98758e-05
3.02167e-05
3.05211e-05
3.06994e-05
2.60607e-05
2.623e-05
2.6351e-05
2.64225e-05
2.6438e-05
2.6392e-05
2.62815e-05
2.61003e-05
2.58445e-05
2.55952e-05
3.00261e-05
2.95742e-05
2.90632e-05
2.42002e-05
2.4513e-05
2.53493e-05
2.61244e-05
2.57448e-05
2.36451e-05
2.00146e-05
1.55035e-05
1.23692e-05
7.37335e-06
3.86375e-06
1.54445e-06
4.44353e-07
8.48667e-08
5.75033e-09
9.4377e-08
4.71745e-07
1.64675e-06
4.04487e-06
7.65087e-06
1.20227e-05
1.86602e-05
2.45857e-05
2.52215e-05
2.63338e-05
2.44669e-05
2.21666e-05
2.13026e-05
2.17167e-05
2.72658e-05
2.84116e-05
2.9278e-05
2.50155e-05
2.54651e-05
2.58775e-05
2.61882e-05
2.64128e-05
2.65633e-05
2.66449e-05
2.66612e-05
2.66221e-05
2.65306e-05
3.14126e-05
3.1326e-05
3.11061e-05
3.08525e-05
3.05729e-05
3.02638e-05
2.99331e-05
2.95796e-05
2.92086e-05
2.88203e-05
2.84185e-05
2.8e-05
2.75685e-05
2.71208e-05
2.66642e-05
2.61969e-05
2.57282e-05
2.52569e-05
2.47935e-05
2.43354e-05
2.38914e-05
2.34578e-05
2.30433e-05
2.26456e-05
2.22719e-05
2.19184e-05
2.15919e-05
2.12871e-05
2.10075e-05
2.07459e-05
2.05054e-05
2.02783e-05
2.00676e-05
1.98659e-05
1.96753e-05
1.94929e-05
1.9318e-05
1.91491e-05
1.89844e-05
1.88226e-05
1.8662e-05
1.85017e-05
1.834e-05
1.81757e-05
1.80084e-05
1.48976e-05
1.47092e-05
1.45675e-05
1.44278e-05
1.42818e-05
1.41349e-05
1.39861e-05
1.38369e-05
1.36874e-05
1.35381e-05
1.339e-05
1.32441e-05
1.31005e-05
1.29598e-05
1.28224e-05
1.26888e-05
1.25595e-05
1.24348e-05
1.23148e-05
1.21997e-05
1.20897e-05
1.19846e-05
1.18843e-05
1.17888e-05
1.1698e-05
1.16115e-05
1.15292e-05
1.14508e-05
1.13757e-05
1.13038e-05
1.12348e-05
1.11684e-05
1.11045e-05
1.10428e-05
1.09831e-05
1.09254e-05
1.08696e-05
1.08155e-05
1.0763e-05
1.07121e-05
1.06628e-05
1.0615e-05
1.05688e-05
1.05241e-05
1.04808e-05
1.04386e-05
1.0398e-05
1.03593e-05
1.0323e-05
1.02879e-05
1.02517e-05
1.02142e-05
1.01792e-05
1.0152e-05
1.01354e-05
1.01211e-05
1.00971e-05
1.00508e-05
9.97885e-06
9.90781e-06
9.86113e-06
9.85883e-06
9.92333e-06
1.00255e-05
1.00965e-05
1.00879e-05
1.00207e-05
9.60345e-06
8.74516e-06
7.39467e-06
6.17944e-06
1.92865e-06
4.17024e-06
6.5361e-06
6.1449e-06
2.57725e-05
6.53097e-05
9.46833e-05
5.38962e-05
1.15542e-05
7.25018e-06
6.49728e-06
5.44491e-06
1.0116e-05
1.17501e-05
1.43404e-05
1.6328e-05
1.70307e-05
1.72031e-05
1.72375e-05
1.71474e-05
1.70337e-05
1.70229e-05
1.71384e-05
1.73235e-05
1.75356e-05
1.77262e-05
1.78588e-05
1.79301e-05
1.77931e-05
1.68522e-05
1.69394e-05
1.70342e-05
1.71283e-05
1.72165e-05
1.73005e-05
1.73841e-05
1.74693e-05
1.75549e-05
1.76399e-05
1.77238e-05
1.78067e-05
1.7889e-05
1.79704e-05
1.80508e-05
1.81303e-05
1.8209e-05
1.8287e-05
1.83643e-05
1.84412e-05
1.85179e-05
1.85947e-05
1.86717e-05
1.87491e-05
1.88274e-05
1.89073e-05
1.89891e-05
1.90732e-05
1.91601e-05
1.92504e-05
1.93446e-05
1.94434e-05
1.95483e-05
1.96589e-05
1.97762e-05
1.98999e-05
2.00311e-05
2.01691e-05
2.03132e-05
2.04627e-05
2.06164e-05
2.07738e-05
2.09328e-05
2.1091e-05
2.12467e-05
2.13981e-05
2.15422e-05
2.16809e-05
2.18122e-05
2.19769e-05
2.37966e-05
2.21873e-05
2.40697e-05
2.41943e-05
2.432e-05
2.44466e-05
2.45744e-05
2.47044e-05
2.48377e-05
2.49751e-05
2.51187e-05
2.52707e-05
2.54342e-05
2.56122e-05
2.5808e-05
2.60261e-05
2.62692e-05
2.65438e-05
2.68487e-05
2.71919e-05
2.75716e-05
2.79968e-05
2.84629e-05
2.89732e-05
2.95255e-05
3.01287e-05
3.07725e-05
3.14559e-05
3.21708e-05
3.29223e-05
3.36977e-05
3.44959e-05
3.53035e-05
3.612e-05
3.69312e-05
3.77369e-05
3.85233e-05
3.92928e-05
4.00355e-05
4.07618e-05
4.14626e-05
4.21436e-05
4.27915e-05
4.34091e-05
4.39857e-05
4.45277e-05
4.50226e-05
4.54684e-05
4.5792e-05
4.30419e-05
4.33196e-05
4.35272e-05
4.36617e-05
4.37127e-05
4.36719e-05
4.3535e-05
4.32926e-05
4.29375e-05
4.25352e-05
4.50689e-05
4.44868e-05
4.39266e-05
4.08473e-05
4.15413e-05
4.29172e-05
4.37991e-05
4.2338e-05
3.77489e-05
3.08205e-05
2.28422e-05
1.59879e-05
9.00108e-06
4.20142e-06
1.47763e-06
4.16549e-07
9.398e-08
1.33311e-08
1.03159e-07
4.39162e-07
1.58549e-06
4.40764e-06
9.35473e-06
1.62175e-05
2.55249e-05
3.50348e-05
4.08861e-05
4.43364e-05
4.23118e-05
3.87165e-05
3.70018e-05
3.7388e-05
4.17003e-05
4.32312e-05
4.44391e-05
4.22178e-05
4.29091e-05
4.34829e-05
4.3898e-05
4.41825e-05
4.43576e-05
4.44326e-05
4.44119e-05
4.43113e-05
4.41351e-05
4.70859e-05
4.68735e-05
4.65356e-05
4.61538e-05
4.57371e-05
4.5279e-05
4.47908e-05
4.42706e-05
4.37257e-05
4.31561e-05
4.25677e-05
4.19547e-05
4.13211e-05
4.06617e-05
3.99879e-05
3.92974e-05
3.86038e-05
3.79054e-05
3.72179e-05
3.65376e-05
3.58774e-05
3.52316e-05
3.46128e-05
3.40179e-05
3.34574e-05
3.29255e-05
3.24327e-05
3.19714e-05
3.15472e-05
3.11493e-05
3.07829e-05
3.04361e-05
3.01141e-05
2.98058e-05
2.95139e-05
2.9235e-05
2.89677e-05
2.87101e-05
2.84595e-05
2.82136e-05
2.79702e-05
2.77277e-05
2.74832e-05
2.72354e-05
2.69833e-05
2.47259e-05
2.44481e-05
2.42053e-05
2.39627e-05
2.37101e-05
2.34548e-05
2.31959e-05
2.29357e-05
2.26747e-05
2.24134e-05
2.21538e-05
2.18969e-05
2.16437e-05
2.1395e-05
2.11518e-05
2.09149e-05
2.06852e-05
2.04634e-05
2.02498e-05
2.00447e-05
1.98485e-05
1.96611e-05
1.94822e-05
1.93119e-05
1.91501e-05
1.89963e-05
1.88502e-05
1.87111e-05
1.85784e-05
1.84516e-05
1.83301e-05
1.82134e-05
1.81014e-05
1.79934e-05
1.78892e-05
1.77885e-05
1.76911e-05
1.75967e-05
1.7505e-05
1.74162e-05
1.73299e-05
1.72459e-05
1.71644e-05
1.70853e-05
1.70081e-05
1.69325e-05
1.68585e-05
1.67872e-05
1.67192e-05
1.66528e-05
1.65839e-05
1.65106e-05
1.6438e-05
1.63754e-05
1.63306e-05
1.62933e-05
1.62413e-05
1.61495e-05
1.60061e-05
1.58463e-05
1.57135e-05
1.5645e-05
1.56883e-05
1.58191e-05
1.59257e-05
1.59182e-05
1.57946e-05
1.51656e-05
1.35339e-05
1.09581e-05
9.83065e-06
5.89199e-06
9.0435e-06
9.70733e-06
1.273e-05
5.23697e-05
9.93822e-05
0.0001272
8.94061e-05
2.40741e-05
1.3009e-05
1.39415e-05
1.14727e-05
1.40869e-05
1.59196e-05
1.94349e-05
2.1742e-05
2.25776e-05
2.28194e-05
2.28786e-05
2.27999e-05
2.27161e-05
2.27785e-05
2.29956e-05
2.32865e-05
2.35994e-05
2.38709e-05
2.40631e-05
2.41843e-05
2.41525e-05
2.36858e-05
2.3831e-05
2.39839e-05
2.41322e-05
2.42703e-05
2.44017e-05
2.45323e-05
2.46638e-05
2.47948e-05
2.49236e-05
2.50502e-05
2.51747e-05
2.52977e-05
2.5419e-05
2.55384e-05
2.56561e-05
2.57726e-05
2.58878e-05
2.60022e-05
2.61159e-05
2.62295e-05
2.63433e-05
2.64577e-05
2.65729e-05
2.66896e-05
2.6809e-05
2.69318e-05
2.70583e-05
2.71895e-05
2.73262e-05
2.74692e-05