/*--------------------------------*- C++ -*----------------------------------*\
| =========                 |                                                 |
| \\      /  F ield         | OpenFOAM: The Open Source CFD Toolbox           |
|  \\    /   O peration     | Version:  2412                                  |
|   \\  /    A nd           | Website:  www.openfoam.com                      |
|    \\/     M anipulation  |                                                 |
\*---------------------------------------------------------------------------*/
FoamFile
{
    version     2.0;
    format      ascii;
    arch        "LSB;label=32;scalar=64";
    class       volScalarField;
    location    "40";
    object      nut;
}
// * * * * * * * * * * * * * * * * * * * * * * * * * * * * * * * * * * * * * //

dimensions      [0 2 -1 0 0 0 0];

internalField   nonuniform List<scalar> 
29601
(
1.90064e-11
3.6427e-11
2.46978e-12
8.70879e-13
3.13892e-12
2.32703e-12
2.87663e-11
6.01074e-11
5.66862e-11
4.20432e-11
3.38639e-11
2.98677e-11
2.79068e-11
2.74086e-11
2.77684e-11
2.80499e-11
2.78685e-11
2.73614e-11
2.65979e-11
2.58396e-11
2.53434e-11
2.5093e-11
2.50092e-11
2.49707e-11
2.48858e-11
2.47635e-11
2.4639e-11
2.45482e-11
2.44933e-11
2.44564e-11
2.44249e-11
2.43956e-11
2.43723e-11
2.43565e-11
2.43492e-11
2.43455e-11
2.43455e-11
2.43504e-11
2.43575e-11
2.43672e-11
2.43795e-11
2.43941e-11
2.4411e-11
2.44297e-11
2.44495e-11
2.44704e-11
2.44931e-11
2.45166e-11
2.45409e-11
2.45633e-11
2.45889e-11
2.46149e-11
2.46419e-11
2.46702e-11
2.46967e-11
2.47241e-11
2.47538e-11
2.4784e-11
2.48115e-11
2.48394e-11
2.48688e-11
2.48994e-11
2.49302e-11
2.49588e-11
2.49892e-11
2.50198e-11
2.50504e-11
2.5081e-11
2.51107e-11
2.51415e-11
2.51729e-11
2.52026e-11
2.52343e-11
2.5266e-11
2.52965e-11
2.53302e-11
2.5366e-11
2.54e-11
2.54365e-11
2.54722e-11
2.55142e-11
2.55544e-11
2.56001e-11
2.56453e-11
2.56978e-11
2.5746e-11
2.58063e-11
2.58688e-11
2.59348e-11
2.60072e-11
2.60855e-11
2.61689e-11
2.62593e-11
2.63588e-11
2.64667e-11
2.65869e-11
2.67152e-11
2.68555e-11
2.70048e-11
2.71644e-11
2.7335e-11
2.7518e-11
2.7711e-11
2.79151e-11
2.81293e-11
2.83517e-11
2.85836e-11
2.88206e-11
2.90651e-11
2.93129e-11
2.9563e-11
2.98181e-11
3.00818e-11
3.03538e-11
3.06247e-11
3.08896e-11
3.11477e-11
3.13953e-11
3.16334e-11
3.18596e-11
3.20701e-11
3.22603e-11
3.24278e-11
3.25696e-11
3.2691e-11
3.27832e-11
3.28365e-11
3.28512e-11
3.28261e-11
3.27483e-11
3.26094e-11
3.24118e-11
3.21333e-11
3.17777e-11
3.13276e-11
3.07669e-11
3.01046e-11
2.94788e-11
2.9272e-11
2.9942e-11
3.16255e-11
3.39622e-11
3.61012e-11
3.76934e-11
3.89214e-11
3.81149e-11
3.27387e-11
1.71576e-11
2.83362e-12
3.17396e-15
3.21781e-12
1.81603e-11
3.36091e-11
3.84564e-11
3.83032e-11
3.56761e-11
3.23267e-11
2.87796e-11
2.63199e-11
2.54987e-11
2.57932e-11
2.66408e-11
2.75327e-11
2.82734e-11
2.88771e-11
2.93836e-11
2.98127e-11
3.01831e-11
3.04886e-11
3.07388e-11
3.09339e-11
3.10756e-11
3.11748e-11
3.12326e-11
3.12551e-11
3.12423e-11
3.12036e-11
3.11362e-11
3.1046e-11
3.09339e-11
3.08027e-11
3.06546e-11
3.04913e-11
3.0314e-11
3.0128e-11
2.99318e-11
2.97308e-11
2.95341e-11
2.93418e-11
2.91493e-11
2.89532e-11
2.87536e-11
2.85566e-11
2.83598e-11
2.81674e-11
2.79798e-11
2.7799e-11
2.76237e-11
2.74533e-11
2.72896e-11
2.71325e-11
2.69828e-11
2.68413e-11
2.67083e-11
2.65815e-11
2.64618e-11
2.6349e-11
2.62426e-11
2.61419e-11
2.60469e-11
2.59594e-11
2.58766e-11
2.57976e-11
2.57226e-11
2.56555e-11
2.55865e-11
2.55256e-11
2.54627e-11
2.54095e-11
2.53523e-11
2.53012e-11
2.52476e-11
2.51996e-11
2.51477e-11
2.50986e-11
2.50501e-11
2.50047e-11
2.49575e-11
2.49123e-11
2.48661e-11
2.48208e-11
2.47775e-11
2.47334e-11
2.46897e-11
2.46463e-11
2.46038e-11
2.45639e-11
2.45212e-11
2.44803e-11
2.44385e-11
2.43999e-11
2.43589e-11
2.43181e-11
2.42771e-11
2.42375e-11
2.41988e-11
2.41582e-11
2.41193e-11
2.40806e-11
2.40423e-11
2.40063e-11
2.39695e-11
2.39314e-11
2.38955e-11
2.38596e-11
2.38252e-11
2.37913e-11
2.37588e-11
2.3728e-11
2.3699e-11
2.36722e-11
2.36468e-11
2.36237e-11
2.36042e-11
2.35879e-11
2.35747e-11
2.3569e-11
2.35697e-11
2.35757e-11
2.35828e-11
2.35935e-11
2.36211e-11
2.36807e-11
2.37712e-11
2.38578e-11
2.39065e-11
2.39087e-11
2.3952e-11
2.41481e-11
2.45745e-11
2.5242e-11
2.59077e-11
2.63252e-11
2.64307e-11
2.60969e-11
2.5678e-11
2.60451e-11
2.77438e-11
3.12845e-11
3.85253e-11
5.14524e-11
5.38779e-11
2.56401e-11
2.04464e-12
2.20154e-12
8.77707e-13
3.44857e-12
3.38922e-11
1.51975e-11
1.20597e-09
2.35253e-09
2.80496e-10
7.09262e-11
2.26331e-10
2.0978e-10
2.71253e-09
4.95561e-09
4.64025e-09
3.61962e-09
3.0055e-09
2.69363e-09
2.54047e-09
2.50177e-09
2.52773e-09
2.54523e-09
2.5259e-09
2.48036e-09
2.41572e-09
2.35299e-09
2.31195e-09
2.29109e-09
2.28361e-09
2.27961e-09
2.27184e-09
2.26115e-09
2.25051e-09
2.2428e-09
2.23818e-09
2.23503e-09
2.23235e-09
2.22994e-09
2.22806e-09
2.2269e-09
2.22643e-09
2.22632e-09
2.22655e-09
2.22716e-09
2.22801e-09
2.22912e-09
2.23048e-09
2.23201e-09
2.23375e-09
2.23567e-09
2.23768e-09
2.23979e-09
2.24207e-09
2.24439e-09
2.24686e-09
2.24924e-09
2.25181e-09
2.25443e-09
2.25711e-09
2.25991e-09
2.26263e-09
2.26539e-09
2.26828e-09
2.27128e-09
2.27417e-09
2.27703e-09
2.27997e-09
2.28298e-09
2.28607e-09
2.28909e-09
2.29217e-09
2.29522e-09
2.29828e-09
2.30138e-09
2.30441e-09
2.30745e-09
2.31052e-09
2.31352e-09
2.31667e-09
2.31986e-09
2.32297e-09
2.32625e-09
2.32978e-09
2.33318e-09
2.33685e-09
2.34048e-09
2.34462e-09
2.34868e-09
2.35327e-09
2.35778e-09
2.36296e-09
2.36794e-09
2.37401e-09
2.38027e-09
2.38695e-09
2.39436e-09
2.40234e-09
2.41084e-09
2.42013e-09
2.43042e-09
2.44161e-09
2.45397e-09
2.46726e-09
2.48178e-09
2.49728e-09
2.5139e-09
2.5317e-09
2.55077e-09
2.57087e-09
2.59213e-09
2.6144e-09
2.63753e-09
2.66153e-09
2.68604e-09
2.71128e-09
2.73682e-09
2.76254e-09
2.78868e-09
2.8155e-09
2.84292e-09
2.87014e-09
2.89677e-09
2.92263e-09
2.94745e-09
2.97123e-09
2.99371e-09
3.01454e-09
3.03336e-09
3.04987e-09
3.06377e-09
3.07542e-09
3.08404e-09
3.08884e-09
3.08978e-09
3.08667e-09
3.07828e-09
3.06391e-09
3.04361e-09
3.01524e-09
2.97912e-09
2.93373e-09
2.87744e-09
2.81154e-09
2.75181e-09
2.73869e-09
2.81653e-09
2.9919e-09
3.21598e-09
3.39785e-09
3.50777e-09
3.56049e-09
3.40334e-09
2.81232e-09
1.38283e-09
2.27306e-10
3.04035e-13
2.57558e-10
1.46528e-09
2.89181e-09
3.44243e-09
3.52053e-09
3.34517e-09
3.06413e-09
2.72333e-09
2.46336e-09
2.36407e-09
2.38345e-09
2.46501e-09
2.55388e-09
2.62803e-09
2.68817e-09
2.73852e-09
2.78129e-09
2.8182e-09
2.84879e-09
2.87402e-09
2.89394e-09
2.90861e-09
2.91907e-09
2.92544e-09
2.92832e-09
2.92765e-09
2.92426e-09
2.91797e-09
2.90937e-09
2.89863e-09
2.88591e-09
2.87144e-09
2.85541e-09
2.83798e-09
2.81958e-09
2.80021e-09
2.78026e-09
2.76053e-09
2.74107e-09
2.72151e-09
2.70156e-09
2.68126e-09
2.66119e-09
2.64115e-09
2.62149e-09
2.6023e-09
2.58372e-09
2.56573e-09
2.54822e-09
2.53139e-09
2.51529e-09
2.49995e-09
2.4854e-09
2.47171e-09
2.45871e-09
2.44638e-09
2.43473e-09
2.42379e-09
2.4135e-09
2.40374e-09
2.39466e-09
2.38616e-09
2.3781e-09
2.37036e-09
2.3634e-09
2.35641e-09
2.35018e-09
2.34375e-09
2.33821e-09
2.33239e-09
2.32709e-09
2.32159e-09
2.31661e-09
2.31132e-09
2.30635e-09
2.30137e-09
2.29663e-09
2.29181e-09
2.28714e-09
2.28249e-09
2.27789e-09
2.2734e-09
2.26888e-09
2.26443e-09
2.26002e-09
2.25568e-09
2.25146e-09
2.24713e-09
2.24303e-09
2.23883e-09
2.23485e-09
2.23063e-09
2.22652e-09
2.22245e-09
2.21846e-09
2.2145e-09
2.21045e-09
2.20653e-09
2.20263e-09
2.19877e-09
2.19503e-09
2.19128e-09
2.18752e-09
2.18392e-09
2.18033e-09
2.17689e-09
2.17349e-09
2.17023e-09
2.16714e-09
2.16419e-09
2.16144e-09
2.15888e-09
2.15655e-09
2.15451e-09
2.15276e-09
2.15134e-09
2.15051e-09
2.15033e-09
2.15061e-09
2.15108e-09
2.15186e-09
2.15402e-09
2.15894e-09
2.16654e-09
2.17402e-09
2.17854e-09
2.17928e-09
2.18314e-09
2.19924e-09
2.23422e-09
2.28912e-09
2.34527e-09
2.38284e-09
2.39529e-09
2.37275e-09
2.34125e-09
2.36888e-09
2.50094e-09
2.77706e-09
3.3221e-09
4.22686e-09
4.46646e-09
2.41987e-09
1.84797e-10
1.6228e-10
7.11291e-11
3.95203e-10
2.15211e-09
1.07037e-09
7.63649e-09
1.4423e-08
3.73315e-09
5.93398e-10
1.56638e-09
2.3458e-09
2.44743e-08
3.83088e-08
3.60161e-08
2.99382e-08
2.58659e-08
2.36952e-08
2.26314e-08
2.23573e-08
2.25011e-08
2.25623e-08
2.23647e-08
2.19787e-08
2.14727e-08
2.09982e-08
2.06874e-08
2.05275e-08
2.04642e-08
2.04239e-08
2.03563e-08
2.02694e-08
2.01862e-08
2.01268e-08
2.00915e-08
2.00675e-08
2.0048e-08
2.0031e-08
2.00189e-08
2.00132e-08
2.00129e-08
2.00158e-08
2.00219e-08
2.00308e-08
2.00422e-08
2.00559e-08
2.00718e-08
2.00892e-08
2.01085e-08
2.01291e-08
2.01508e-08
2.01734e-08
2.01973e-08
2.02216e-08
2.02473e-08
2.02729e-08
2.02996e-08
2.03269e-08
2.03547e-08
2.03833e-08
2.04122e-08
2.04412e-08
2.0471e-08
2.05018e-08
2.05323e-08
2.0563e-08
2.05941e-08
2.06254e-08
2.06576e-08
2.06898e-08
2.07221e-08
2.0754e-08
2.07861e-08
2.08185e-08
2.08501e-08
2.08816e-08
2.09134e-08
2.0945e-08
2.09774e-08
2.10102e-08
2.10428e-08
2.10763e-08
2.11121e-08
2.11471e-08
2.1185e-08
2.1223e-08
2.12653e-08
2.13075e-08
2.13546e-08
2.14018e-08
2.14551e-08
2.15081e-08
2.15706e-08
2.16359e-08
2.17067e-08
2.17847e-08
2.18688e-08
2.19597e-08
2.20594e-08
2.21698e-08
2.22907e-08
2.24239e-08
2.25686e-08
2.27262e-08
2.28957e-08
2.30783e-08
2.32746e-08
2.34841e-08
2.37059e-08
2.39404e-08
2.41859e-08
2.44408e-08
2.47036e-08
2.49729e-08
2.52485e-08
2.55268e-08
2.58073e-08
2.60903e-08
2.63775e-08
2.66676e-08
2.69551e-08
2.72353e-08
2.75064e-08
2.77664e-08
2.80143e-08
2.82477e-08
2.84635e-08
2.86572e-08
2.88264e-08
2.89676e-08
2.9083e-08
2.91665e-08
2.92096e-08
2.9213e-08
2.91722e-08
2.90779e-08
2.89237e-08
2.87048e-08
2.84037e-08
2.80228e-08
2.75471e-08
2.69603e-08
2.62833e-08
2.57098e-08
2.56937e-08
2.66731e-08
2.86025e-08
3.07674e-08
3.21467e-08
3.25278e-08
3.20457e-08
2.93676e-08
2.27743e-08
1.02826e-08
1.70769e-09
2.96302e-12
1.92875e-09
1.09067e-08
2.34726e-08
2.98251e-08
3.19359e-08
3.14234e-08
2.93622e-08
2.60569e-08
2.31437e-08
2.18479e-08
2.18939e-08
2.2689e-08
2.3603e-08
2.43693e-08
2.49868e-08
2.55022e-08
2.594e-08
2.6319e-08
2.66364e-08
2.68989e-08
2.71098e-08
2.72692e-08
2.73843e-08
2.74583e-08
2.74951e-08
2.74959e-08
2.74672e-08
2.74078e-08
2.73239e-08
2.7217e-08
2.70896e-08
2.69435e-08
2.67805e-08
2.6603e-08
2.64142e-08
2.62145e-08
2.60084e-08
2.58014e-08
2.55943e-08
2.53846e-08
2.51713e-08
2.49543e-08
2.47383e-08
2.45236e-08
2.43119e-08
2.41049e-08
2.39038e-08
2.37087e-08
2.35195e-08
2.33374e-08
2.31635e-08
2.29981e-08
2.2841e-08
2.26925e-08
2.25523e-08
2.24195e-08
2.2294e-08
2.21759e-08
2.20649e-08
2.19604e-08
2.18624e-08
2.17705e-08
2.16839e-08
2.16011e-08
2.1526e-08
2.14518e-08
2.13846e-08
2.13165e-08
2.12563e-08
2.11945e-08
2.11372e-08
2.10787e-08
2.1025e-08
2.09691e-08
2.09161e-08
2.08628e-08
2.08119e-08
2.07605e-08
2.071e-08
2.06603e-08
2.06115e-08
2.05634e-08
2.05152e-08
2.04678e-08
2.04212e-08
2.0375e-08
2.03297e-08
2.02842e-08
2.02407e-08
2.01964e-08
2.01536e-08
2.01095e-08
2.00665e-08
2.00242e-08
1.99822e-08
1.99402e-08
1.98983e-08
1.98574e-08
1.98167e-08
1.97764e-08
1.97368e-08
1.96977e-08
1.96589e-08
1.96213e-08
1.9584e-08
1.9548e-08
1.95126e-08
1.94785e-08
1.9446e-08
1.94149e-08
1.93856e-08
1.93583e-08
1.93332e-08
1.93106e-08
1.92907e-08
1.92739e-08
1.92618e-08
1.92556e-08
1.92537e-08
1.9254e-08
1.92574e-08
1.92714e-08
1.93069e-08
1.93643e-08
1.94238e-08
1.94634e-08
1.94755e-08
1.95078e-08
1.96282e-08
1.98892e-08
2.03006e-08
2.07372e-08
2.10561e-08
2.1194e-08
2.10853e-08
2.08903e-08
2.10763e-08
2.19853e-08
2.39036e-08
2.75293e-08
3.29445e-08
3.47724e-08
2.19471e-08
2.04938e-09
1.14816e-09
5.80061e-10
4.47809e-09
1.30441e-08
8.56322e-09
3.66778e-08
4.41591e-08
2.00627e-08
3.37695e-09
5.3624e-09
1.68206e-08
1.02088e-07
1.41171e-07
1.35072e-07
1.1971e-07
1.07731e-07
1.00998e-07
9.77094e-08
9.67858e-08
9.70006e-08
9.68847e-08
9.59798e-08
9.44795e-08
9.26787e-08
9.10558e-08
8.99906e-08
8.94353e-08
8.91887e-08
8.90083e-08
8.8742e-08
8.84243e-08
8.81343e-08
8.79346e-08
8.78206e-08
8.77487e-08
8.76945e-08
8.76529e-08
8.76327e-08
8.76379e-08
8.76643e-08
8.77028e-08
8.77556e-08
8.78198e-08
8.78954e-08
8.79802e-08
8.80734e-08
8.81736e-08
8.82808e-08
8.83942e-08
8.85118e-08
8.8634e-08
8.87609e-08
8.88906e-08
8.9025e-08
8.91604e-08
8.93007e-08
8.94439e-08
8.95903e-08
8.97396e-08
8.98916e-08
9.00458e-08
9.0203e-08
9.0364e-08
9.05255e-08
9.06897e-08
9.08555e-08
9.10226e-08
9.11922e-08
9.13623e-08
9.15337e-08
9.17036e-08
9.18735e-08
9.20432e-08
9.22095e-08
9.2376e-08
9.25431e-08
9.27089e-08
9.28772e-08
9.3047e-08
9.32176e-08
9.33916e-08
9.35745e-08
9.37581e-08
9.39534e-08
9.41532e-08
9.43707e-08
9.45927e-08
9.48368e-08
9.50875e-08
9.53656e-08
9.56518e-08
9.59765e-08
9.63234e-08
9.67025e-08
9.71188e-08
9.75713e-08
9.80653e-08
9.86088e-08
9.92113e-08
9.98768e-08
1.0061e-07
1.01411e-07
1.02283e-07
1.03231e-07
1.04258e-07
1.05361e-07
1.06539e-07
1.0779e-07
1.09112e-07
1.10499e-07
1.11936e-07
1.13415e-07
1.14929e-07
1.16471e-07
1.18029e-07
1.19594e-07
1.21164e-07
1.22739e-07
1.24312e-07
1.25861e-07
1.27368e-07
1.28823e-07
1.30214e-07
1.31537e-07
1.32774e-07
1.33913e-07
1.3493e-07
1.35812e-07
1.36545e-07
1.37133e-07
1.3754e-07
1.3774e-07
1.37724e-07
1.37469e-07
1.36938e-07
1.36092e-07
1.34898e-07
1.33283e-07
1.31248e-07
1.28727e-07
1.25642e-07
1.22159e-07
1.19496e-07
1.20224e-07
1.26473e-07
1.37206e-07
1.47357e-07
1.51273e-07
1.48703e-07
1.40635e-07
1.22015e-07
8.78682e-08
3.62541e-08
6.12925e-09
1.45355e-11
6.8993e-09
3.84822e-08
9.07894e-08
1.24535e-07
1.41604e-07
1.46254e-07
1.40932e-07
1.25349e-07
1.08807e-07
1.00355e-07
9.95932e-08
1.034e-07
1.08116e-07
1.12104e-07
1.15292e-07
1.17937e-07
1.20185e-07
1.22129e-07
1.23776e-07
1.25151e-07
1.26267e-07
1.27128e-07
1.27763e-07
1.2818e-07
1.28405e-07
1.28439e-07
1.28314e-07
1.2803e-07
1.27612e-07
1.2707e-07
1.26417e-07
1.25661e-07
1.24816e-07
1.2389e-07
1.22901e-07
1.21852e-07
1.20762e-07
1.1965e-07
1.18522e-07
1.17372e-07
1.16201e-07
1.15012e-07
1.13823e-07
1.12641e-07
1.11475e-07
1.10331e-07
1.09217e-07
1.08136e-07
1.0709e-07
1.06085e-07
1.05124e-07
1.04211e-07
1.03345e-07
1.02527e-07
1.01755e-07
1.01025e-07
1.00337e-07
9.96891e-08
9.90801e-08
9.85085e-08
9.79719e-08
9.74681e-08
9.69947e-08
9.65456e-08
9.61333e-08
9.57322e-08
9.53638e-08
9.49991e-08
9.46678e-08
9.43352e-08
9.40228e-08
9.37093e-08
9.34147e-08
9.3115e-08
9.28279e-08
9.25414e-08
9.22654e-08
9.19878e-08
9.17148e-08
9.14459e-08
9.11822e-08
9.09231e-08
9.06648e-08
9.04103e-08
9.01592e-08
8.9911e-08
8.96686e-08
8.94276e-08
8.91932e-08
8.8958e-08
8.87282e-08
8.8497e-08
8.82699e-08
8.80459e-08
8.78237e-08
8.76027e-08
8.73832e-08
8.71673e-08
8.69539e-08
8.67429e-08
8.65352e-08
8.63308e-08
8.61281e-08
8.59305e-08
8.57356e-08
8.55462e-08
8.53612e-08
8.51819e-08
8.50096e-08
8.48442e-08
8.46872e-08
8.45389e-08
8.44014e-08
8.42749e-08
8.41613e-08
8.40603e-08
8.39786e-08
8.39213e-08
8.38839e-08
8.38581e-08
8.38461e-08
8.38737e-08
8.39783e-08
8.41655e-08
8.43745e-08
8.45289e-08
8.45959e-08
8.47189e-08
8.5123e-08
8.6e-08
8.73899e-08
8.89312e-08
9.01713e-08
9.08369e-08
9.07473e-08
9.0311e-08
9.09073e-08
9.36824e-08
9.96237e-08
1.10343e-07
1.24127e-07
1.29175e-07
9.25245e-08
1.46545e-08
4.00948e-09
2.76903e-09
2.01843e-08
3.95829e-08
3.95966e-08
1.59687e-07
9.84846e-08
6.13694e-08
1.57663e-08
1.35579e-08
8.7449e-08
2.81121e-07
3.58207e-07
3.52601e-07
3.31374e-07
3.09657e-07
2.9665e-07
2.90261e-07
2.88029e-07
2.87562e-07
2.86382e-07
2.83795e-07
2.80088e-07
2.76048e-07
2.72571e-07
2.70285e-07
2.69074e-07
2.68467e-07
2.67978e-07
2.67335e-07
2.66629e-07
2.66031e-07
2.65655e-07
2.65476e-07
2.65396e-07
2.65367e-07
2.65379e-07
2.65451e-07
2.65589e-07
2.65782e-07
2.66009e-07
2.66276e-07
2.66572e-07
2.66905e-07
2.6726e-07
2.67638e-07
2.68036e-07
2.68452e-07
2.68886e-07
2.69332e-07
2.69794e-07
2.70267e-07
2.70752e-07
2.71248e-07
2.71752e-07
2.7227e-07
2.72798e-07
2.73338e-07
2.73889e-07
2.74449e-07
2.75021e-07
2.75604e-07
2.762e-07
2.76805e-07
2.77418e-07
2.78038e-07
2.78662e-07
2.79293e-07
2.79929e-07
2.80565e-07
2.81198e-07
2.81831e-07
2.82459e-07
2.83077e-07
2.83695e-07
2.84309e-07
2.84918e-07
2.85532e-07
2.86151e-07
2.86782e-07
2.87419e-07
2.88082e-07
2.88758e-07
2.8947e-07
2.90208e-07
2.90999e-07
2.91825e-07
2.9272e-07
2.93659e-07
2.94686e-07
2.95776e-07
2.96978e-07
2.98281e-07
2.99714e-07
3.0129e-07
3.0302e-07
3.0492e-07
3.07019e-07
3.09353e-07
3.11951e-07
3.14816e-07
3.17953e-07
3.21384e-07
3.25141e-07
3.29229e-07
3.33632e-07
3.38334e-07
3.43338e-07
3.48638e-07
3.542e-07
3.59971e-07
3.65902e-07
3.71963e-07
3.78123e-07
3.84336e-07
3.90566e-07
3.96787e-07
4.02967e-07
4.09067e-07
4.15048e-07
4.20859e-07
4.2645e-07
4.31786e-07
4.36829e-07
4.41534e-07
4.45837e-07
4.49662e-07
4.52961e-07
4.55699e-07
4.57833e-07
4.59278e-07
4.59939e-07
4.59768e-07
4.58689e-07
4.56573e-07
4.5329e-07
4.48682e-07
4.42524e-07
4.34811e-07
4.25339e-07
4.13859e-07
4.01314e-07
3.93057e-07
3.9936e-07
4.27208e-07
4.69007e-07
5.00273e-07
5.00184e-07
4.72964e-07
4.25056e-07
3.46247e-07
2.30833e-07
8.69669e-08
1.50799e-08
5.0983e-11
1.69165e-08
9.23445e-08
2.39078e-07
3.55281e-07
4.33075e-07
4.75709e-07
4.79317e-07
4.30932e-07
3.65022e-07
3.26839e-07
3.19839e-07
3.32364e-07
3.49498e-07
3.64174e-07
3.758e-07
3.85364e-07
3.93466e-07
4.00468e-07
4.06443e-07
4.1148e-07
4.15612e-07
4.18844e-07
4.21261e-07
4.22882e-07
4.23774e-07
4.23975e-07
4.23562e-07
4.22558e-07
4.21045e-07
4.19056e-07
4.16636e-07
4.13827e-07
4.10664e-07
4.07198e-07
4.0347e-07
3.99515e-07
3.9538e-07
3.91099e-07
3.86698e-07
3.8219e-07
3.77593e-07
3.72932e-07
3.68257e-07
3.63606e-07
3.59011e-07
3.54504e-07
3.5011e-07
3.45845e-07
3.41725e-07
3.37772e-07
3.34e-07
3.30419e-07
3.27031e-07
3.23831e-07
3.20815e-07
3.17972e-07
3.15296e-07
3.12781e-07
3.10417e-07
3.082e-07
3.06122e-07
3.04174e-07
3.02346e-07
3.00619e-07
2.99019e-07
2.97489e-07
2.96064e-07
2.94682e-07
2.93395e-07
2.92133e-07
2.90935e-07
2.89749e-07
2.88615e-07
2.8748e-07
2.86384e-07
2.85297e-07
2.84244e-07
2.83193e-07
2.82157e-07
2.81139e-07
2.80138e-07
2.79154e-07
2.78179e-07
2.77218e-07
2.76273e-07
2.75342e-07
2.74429e-07
2.7353e-07
2.72647e-07
2.71772e-07
2.70913e-07
2.70059e-07
2.69216e-07
2.68385e-07
2.67565e-07
2.66753e-07
2.65945e-07
2.6515e-07
2.64367e-07
2.63592e-07
2.62829e-07
2.62079e-07
2.61338e-07
2.60612e-07
2.59899e-07
2.59204e-07
2.58525e-07
2.57866e-07
2.57228e-07
2.56613e-07
2.56025e-07
2.55464e-07
2.54937e-07
2.54447e-07
2.53994e-07
2.53579e-07
2.53219e-07
2.52926e-07
2.52694e-07
2.52504e-07
2.52358e-07
2.52308e-07
2.52439e-07
2.52774e-07
2.53202e-07
2.53557e-07
2.53753e-07
2.54041e-07
2.5488e-07
2.56712e-07
2.59642e-07
2.63067e-07
2.66132e-07
2.68102e-07
2.68718e-07
2.68558e-07
2.69981e-07
2.75283e-07
2.8675e-07
3.06343e-07
3.25614e-07
3.30449e-07
2.58173e-07
7.62157e-08
1.03397e-08
1.21168e-08
5.71555e-08
8.83791e-08
1.70488e-07
5.76812e-07
1.87684e-07
1.38297e-07
6.11733e-08
3.34943e-08
3.02702e-07
5.9375e-07
7.25184e-07
7.39624e-07
7.30716e-07
7.05326e-07
6.88398e-07
6.79689e-07
6.7512e-07
6.72024e-07
6.68215e-07
6.6304e-07
6.56638e-07
6.50465e-07
6.45471e-07
6.42181e-07
6.40414e-07
6.39414e-07
6.38562e-07
6.37583e-07
6.36643e-07
6.35981e-07
6.35717e-07
6.35776e-07
6.36007e-07
6.36345e-07
6.36785e-07
6.37351e-07
6.38043e-07
6.38843e-07
6.39713e-07
6.40669e-07
6.41687e-07
6.4278e-07
6.43917e-07
6.45102e-07
6.4633e-07
6.47596e-07
6.48902e-07
6.50233e-07
6.51603e-07
6.52999e-07
6.54426e-07
6.55878e-07
6.57359e-07
6.58877e-07
6.60422e-07
6.61991e-07
6.63604e-07
6.65248e-07
6.66931e-07
6.68649e-07
6.70401e-07
6.72191e-07
6.74004e-07
6.75841e-07
6.77688e-07
6.79553e-07
6.81432e-07
6.83302e-07
6.85165e-07
6.87032e-07
6.88881e-07
6.90698e-07
6.92508e-07
6.94301e-07
6.96078e-07
6.97856e-07
6.99651e-07
7.01497e-07
7.03353e-07
7.05269e-07
7.07246e-07
7.09321e-07
7.11489e-07
7.13792e-07
7.16239e-07
7.18857e-07
7.21664e-07
7.247e-07
7.27996e-07
7.31556e-07
7.35469e-07
7.39794e-07
7.44565e-07
7.49846e-07
7.55677e-07
7.62147e-07
7.69368e-07
7.77445e-07
7.86359e-07
7.96162e-07
8.06921e-07
8.1877e-07
8.31716e-07
8.45694e-07
8.60637e-07
8.76578e-07
8.93495e-07
9.1128e-07
9.29756e-07
9.48735e-07
9.68131e-07
9.87814e-07
1.00767e-06
1.02755e-06
1.04733e-06
1.06682e-06
1.0859e-06
1.10453e-06
1.12261e-06
1.13997e-06
1.15649e-06
1.17205e-06
1.18651e-06
1.19967e-06
1.21133e-06
1.22135e-06
1.22963e-06
1.23596e-06
1.24016e-06
1.24197e-06
1.24123e-06
1.23769e-06
1.23104e-06
1.22089e-06
1.20666e-06
1.18787e-06
1.16448e-06
1.13599e-06
1.10191e-06
1.06622e-06
1.0476e-06
1.07861e-06
1.17641e-06
1.30402e-06
1.36986e-06
1.31976e-06
1.189e-06
1.00828e-06
7.68338e-07
4.74233e-07
1.62703e-07
2.92263e-08
1.46662e-10
3.26718e-08
1.72746e-07
4.92259e-07
7.92526e-07
1.03982e-06
1.22655e-06
1.31254e-06
1.2092e-06
1.00224e-06
8.66793e-07
8.32543e-07
8.64419e-07
9.14083e-07
9.57313e-07
9.91223e-07
1.01876e-06
1.04194e-06
1.06188e-06
1.07901e-06
1.09354e-06
1.10555e-06
1.11505e-06
1.12221e-06
1.12706e-06
1.12971e-06
1.13035e-06
1.12911e-06
1.12612e-06
1.12157e-06
1.11558e-06
1.10825e-06
1.09973e-06
1.09011e-06
1.07955e-06
1.06816e-06
1.05607e-06
1.04337e-06
1.03007e-06
1.01625e-06
1.00203e-06
9.87515e-07
9.72829e-07
9.5807e-07
9.43388e-07
9.28879e-07
9.14652e-07
9.00777e-07
8.8732e-07
8.74348e-07
8.61922e-07
8.50097e-07
8.3889e-07
8.28305e-07
8.18327e-07
8.08938e-07
8.00113e-07
7.91819e-07
7.84034e-07
7.76734e-07
7.69895e-07
7.63491e-07
7.57498e-07
7.51883e-07
7.46602e-07
7.41675e-07
7.37018e-07
7.32643e-07
7.28471e-07
7.24517e-07
7.20698e-07
7.17049e-07
7.13478e-07
7.10022e-07
7.06609e-07
7.03293e-07
7.00024e-07
6.96843e-07
6.93686e-07
6.90573e-07
6.87512e-07
6.84508e-07
6.81552e-07
6.78633e-07
6.75764e-07
6.72952e-07
6.70185e-07
6.6747e-07
6.64812e-07
6.62187e-07
6.59609e-07
6.57073e-07
6.54574e-07
6.521e-07
6.49666e-07
6.47272e-07
6.44902e-07
6.42555e-07
6.4025e-07
6.37977e-07
6.35728e-07
6.33516e-07
6.31342e-07
6.292e-07
6.27097e-07
6.25036e-07
6.23023e-07
6.21056e-07
6.1914e-07
6.1728e-07
6.1548e-07
6.13749e-07
6.12088e-07
6.10505e-07
6.09013e-07
6.07613e-07
6.06307e-07
6.0512e-07
6.04076e-07
6.03172e-07
6.02386e-07
6.0171e-07
6.01211e-07
6.0102e-07
6.01204e-07
6.01643e-07
6.02098e-07
6.02412e-07
6.02831e-07
6.0395e-07
6.06471e-07
6.10576e-07
6.15743e-07
6.21041e-07
6.25085e-07
6.27799e-07
6.29606e-07
6.32685e-07
6.39756e-07
6.54699e-07
6.78009e-07
6.86599e-07
6.74362e-07
5.53509e-07
2.69892e-07
2.65423e-08
4.60442e-08
1.23951e-07
1.7055e-07
6.06055e-07
1.71593e-06
3.61052e-07
2.60461e-07
1.57041e-07
9.47424e-08
7.51336e-07
1.03907e-06
1.26296e-06
1.33791e-06
1.37518e-06
1.3628e-06
1.35021e-06
1.34214e-06
1.33389e-06
1.32538e-06
1.31767e-06
1.31038e-06
1.30301e-06
1.29741e-06
1.29349e-06
1.29094e-06
1.28962e-06
1.28875e-06
1.28803e-06
1.28749e-06
1.28731e-06
1.28767e-06
1.28856e-06
1.28982e-06
1.29129e-06
1.29295e-06
1.29481e-06
1.29687e-06
1.29912e-06
1.30153e-06
1.30406e-06
1.30674e-06
1.30952e-06
1.31242e-06
1.31539e-06
1.31844e-06
1.32156e-06
1.32475e-06
1.32801e-06
1.33132e-06
1.33471e-06
1.33815e-06
1.34166e-06
1.34522e-06
1.34886e-06
1.35258e-06
1.35638e-06
1.36022e-06
1.36418e-06
1.36824e-06
1.3724e-06
1.37664e-06
1.38096e-06
1.38541e-06
1.38991e-06
1.39446e-06
1.39904e-06
1.40365e-06
1.4083e-06
1.41293e-06
1.41753e-06
1.42213e-06
1.42669e-06
1.43116e-06
1.43559e-06
1.43998e-06
1.44433e-06
1.44866e-06
1.45304e-06
1.45757e-06
1.46211e-06
1.46679e-06
1.47166e-06
1.47675e-06
1.48212e-06
1.48779e-06
1.49389e-06
1.50038e-06
1.50744e-06
1.51503e-06
1.5234e-06
1.53233e-06
1.54225e-06
1.55327e-06
1.56547e-06
1.57904e-06
1.59411e-06
1.6109e-06
1.62969e-06
1.65076e-06
1.67405e-06
1.69975e-06
1.72803e-06
1.75931e-06
1.79358e-06
1.83063e-06
1.8703e-06
1.91269e-06
1.95775e-06
2.0052e-06
2.05456e-06
2.10527e-06
2.1571e-06
2.2097e-06
2.26278e-06
2.31587e-06
2.36854e-06
2.42014e-06
2.47036e-06
2.51924e-06
2.56663e-06
2.61208e-06
2.65525e-06
2.69577e-06
2.73333e-06
2.7674e-06
2.79755e-06
2.8234e-06
2.84476e-06
2.86087e-06
2.87146e-06
2.87593e-06
2.87385e-06
2.86455e-06
2.84738e-06
2.82137e-06
2.78482e-06
2.73694e-06
2.67762e-06
2.60593e-06
2.52142e-06
2.43763e-06
2.40852e-06
2.52037e-06
2.80419e-06
3.12096e-06
3.19393e-06
2.93615e-06
2.506e-06
2.00051e-06
1.42501e-06
8.14473e-07
2.52723e-07
4.7729e-08
3.70956e-10
5.31631e-08
2.68117e-07
8.4717e-07
1.47732e-06
2.08672e-06
2.6516e-06
3.05051e-06
2.93035e-06
2.39747e-06
1.99956e-06
1.87743e-06
1.94269e-06
2.06358e-06
2.17087e-06
2.25404e-06
2.32038e-06
2.37555e-06
2.42266e-06
2.46317e-06
2.49771e-06
2.5264e-06
2.54922e-06
2.56645e-06
2.5781e-06
2.58419e-06
2.58537e-06
2.58184e-06
2.57394e-06
2.56204e-06
2.54648e-06
2.52749e-06
2.50542e-06
2.48054e-06
2.4532e-06
2.42366e-06
2.39233e-06
2.35931e-06
2.32446e-06
2.28794e-06
2.25026e-06
2.21175e-06
2.17285e-06
2.13375e-06
2.09487e-06
2.05644e-06
2.0188e-06
1.98209e-06
1.94653e-06
1.91231e-06
1.87959e-06
1.84851e-06
1.81912e-06
1.7914e-06
1.76532e-06
1.74084e-06
1.71788e-06
1.69633e-06
1.67612e-06
1.65722e-06
1.63953e-06
1.62299e-06
1.60752e-06
1.59305e-06
1.5795e-06
1.56679e-06
1.55488e-06
1.54362e-06
1.53302e-06
1.52286e-06
1.51314e-06
1.50382e-06
1.49478e-06
1.48597e-06
1.47735e-06
1.46893e-06
1.46069e-06
1.45263e-06
1.44468e-06
1.43684e-06
1.42913e-06
1.42158e-06
1.41415e-06
1.40682e-06
1.39964e-06
1.39262e-06
1.38572e-06
1.37896e-06
1.37236e-06
1.36583e-06
1.35947e-06
1.3532e-06
1.34706e-06
1.34098e-06
1.33502e-06
1.32916e-06
1.32336e-06
1.31764e-06
1.31204e-06
1.30651e-06
1.30105e-06
1.29568e-06
1.29041e-06
1.28522e-06
1.28012e-06
1.27513e-06
1.27025e-06
1.26548e-06
1.26083e-06
1.25629e-06
1.2519e-06
1.24765e-06
1.24355e-06
1.23961e-06
1.23586e-06
1.23229e-06
1.22892e-06
1.22576e-06
1.22286e-06
1.22023e-06
1.21786e-06
1.21572e-06
1.21384e-06
1.21236e-06
1.2114e-06
1.21096e-06
1.21086e-06
1.21091e-06
1.21106e-06
1.21162e-06
1.21332e-06
1.21632e-06
1.22087e-06
1.22698e-06
1.23281e-06
1.23904e-06
1.24559e-06
1.25177e-06
1.25818e-06
1.26947e-06
1.28193e-06
1.24929e-06
1.18369e-06
9.84795e-07
6.83528e-07
7.64339e-08
1.19573e-07
2.30309e-07
3.56849e-07
1.76907e-06
4.31008e-06
8.26392e-07
4.42939e-07
3.04583e-07
2.71267e-07
1.48114e-06
1.58166e-06
1.97725e-06
2.16915e-06
2.29503e-06
2.3208e-06
2.32589e-06
2.32323e-06
2.31042e-06
2.29457e-06
2.28392e-06
2.27808e-06
2.27531e-06
2.27676e-06
2.27959e-06
2.28166e-06
2.28322e-06
2.28413e-06
2.28526e-06
2.28729e-06
2.29031e-06
2.29413e-06
2.2984e-06
2.30286e-06
2.3075e-06
2.3124e-06
2.31759e-06
2.32305e-06
2.32873e-06
2.33459e-06
2.3406e-06
2.34682e-06
2.35315e-06
2.35968e-06
2.36627e-06
2.37296e-06
2.37976e-06
2.38667e-06
2.39369e-06
2.40077e-06
2.40801e-06
2.41534e-06
2.42284e-06
2.43041e-06
2.43817e-06
2.44608e-06
2.45415e-06
2.46236e-06
2.47084e-06
2.47952e-06
2.48844e-06
2.49751e-06
2.5068e-06
2.51637e-06
2.52603e-06
2.53582e-06
2.54565e-06
2.55555e-06
2.56552e-06
2.57542e-06
2.58526e-06
2.59509e-06
2.60479e-06
2.61431e-06
2.62372e-06
2.63302e-06
2.64223e-06
2.65141e-06
2.6607e-06
2.67033e-06
2.68001e-06
2.68997e-06
2.70039e-06
2.71128e-06
2.72284e-06
2.73504e-06
2.74825e-06
2.76231e-06
2.77776e-06
2.79435e-06
2.81278e-06
2.83237e-06
2.8543e-06
2.87873e-06
2.90588e-06
2.93624e-06
2.97005e-06
3.00781e-06
3.05014e-06
3.09771e-06
3.1503e-06
3.20844e-06
3.27253e-06
3.34353e-06
3.42139e-06
3.5056e-06
3.59574e-06
3.69214e-06
3.79463e-06
3.90256e-06
4.01482e-06
4.1301e-06
4.24788e-06
4.36732e-06
4.48778e-06
4.6081e-06
4.72709e-06
4.84311e-06
4.95547e-06
5.0646e-06
5.17025e-06
5.27141e-06
5.36732e-06
5.45714e-06
5.54022e-06
5.61542e-06
5.68195e-06
5.73905e-06
5.78626e-06
5.8217e-06
5.84508e-06
5.85531e-06
5.85127e-06
5.83157e-06
5.79505e-06
5.73949e-06
5.66086e-06
5.55832e-06
5.43163e-06
5.27929e-06
5.10255e-06
4.93892e-06
4.91941e-06
5.23657e-06
5.92017e-06
6.55295e-06
6.47232e-06
5.65774e-06
4.57688e-06
3.44323e-06
2.29202e-06
1.21191e-06
3.35823e-07
6.82138e-08
8.61529e-10
7.56908e-08
3.55628e-07
1.26302e-06
2.38792e-06
3.62853e-06
4.95397e-06
6.13968e-06
6.2397e-06
5.12279e-06
4.14346e-06
3.79635e-06
3.90264e-06
4.15439e-06
4.38276e-06
4.55735e-06
4.69331e-06
4.80427e-06
4.89783e-06
4.97803e-06
5.0465e-06
5.10339e-06
5.14872e-06
5.18272e-06
5.20532e-06
5.2161e-06
5.21669e-06
5.20725e-06
5.18863e-06
5.16139e-06
5.12631e-06
5.0838e-06
5.03453e-06
4.97915e-06
4.91837e-06
4.85263e-06
4.78298e-06
4.70943e-06
4.63139e-06
4.54913e-06
4.46395e-06
4.37683e-06
4.28887e-06
4.20046e-06
4.11252e-06
4.02561e-06
3.94046e-06
3.85741e-06
3.777e-06
3.6997e-06
3.62584e-06
3.55575e-06
3.48953e-06
3.42716e-06
3.36854e-06
3.31359e-06
3.26212e-06
3.21388e-06
3.16869e-06
3.12645e-06
3.08697e-06
3.05006e-06
3.0156e-06
2.98337e-06
2.95326e-06
2.92495e-06
2.89855e-06
2.87352e-06
2.85009e-06
2.82754e-06
2.80611e-06
2.78549e-06
2.76564e-06
2.7462e-06
2.72729e-06
2.70881e-06
2.69076e-06
2.6731e-06
2.65573e-06
2.63861e-06
2.6218e-06
2.60534e-06
2.58914e-06
2.57322e-06
2.55764e-06
2.54242e-06
2.52748e-06
2.51287e-06
2.49867e-06
2.48461e-06
2.47096e-06
2.45753e-06
2.44442e-06
2.43145e-06
2.41876e-06
2.40632e-06
2.39404e-06
2.38195e-06
2.37009e-06
2.35844e-06
2.34694e-06
2.33564e-06
2.32454e-06
2.31363e-06
2.3029e-06
2.29242e-06
2.28218e-06
2.27214e-06
2.26234e-06
2.25278e-06
2.24349e-06
2.23446e-06
2.22572e-06
2.21727e-06
2.20916e-06
2.20139e-06
2.19395e-06
2.18686e-06
2.18017e-06
2.17393e-06
2.16816e-06
2.16281e-06
2.15778e-06
2.15311e-06
2.14897e-06
2.14567e-06
2.14335e-06
2.14192e-06
2.14064e-06
2.13883e-06
2.13654e-06
2.13363e-06
2.13207e-06
2.1344e-06
2.13926e-06
2.14886e-06
2.16267e-06
2.17366e-06
2.17591e-06
2.17224e-06
2.15181e-06
2.03929e-06
1.86768e-06
1.51721e-06
1.37205e-06
2.22143e-07
2.39348e-07
3.92657e-07
8.53612e-07
4.35546e-06
9.3256e-06
1.92584e-06
7.05512e-07
4.96929e-07
7.40577e-07
2.45471e-06
2.20579e-06
2.85891e-06
3.22267e-06
3.47589e-06
3.56695e-06
3.60504e-06
3.61379e-06
3.5977e-06
3.5761e-06
3.56783e-06
3.57141e-06
3.58328e-06
3.60203e-06
3.62013e-06
3.6329e-06
3.64157e-06
3.64764e-06
3.65411e-06
3.66273e-06
3.67318e-06
3.68452e-06
3.69582e-06
3.7068e-06
3.71776e-06
3.72899e-06
3.74056e-06
3.75239e-06
3.76436e-06
3.77645e-06
3.78869e-06
3.80115e-06
3.81373e-06
3.82651e-06
3.83932e-06
3.85224e-06
3.8653e-06
3.8785e-06
3.89185e-06
3.90528e-06
3.91899e-06
3.93287e-06
3.94705e-06
3.96137e-06
3.97607e-06
3.99106e-06
4.00638e-06