/*--------------------------------*- C++ -*----------------------------------*\
| =========                 |                                                 |
| \\      /  F ield         | OpenFOAM: The Open Source CFD Toolbox           |
|  \\    /   O peration     | Version:  2412                                  |
|   \\  /    A nd           | Website:  www.openfoam.com                      |
|    \\/     M anipulation  |                                                 |
\*---------------------------------------------------------------------------*/
FoamFile
{
    version     2.0;
    format      ascii;
    arch        "LSB;label=32;scalar=64";
    class       volScalarField;
    location    "40";
    object      nuTilda;
}
// * * * * * * * * * * * * * * * * * * * * * * * * * * * * * * * * * * * * * //

dimensions      [0 2 -1 0 0 0 0];

internalField   nonuniform List<scalar> 
29601
(
2.16704e-06
2.54975e-06
1.30108e-06
1.0026e-06
1.38145e-06
1.28186e-06
2.4036e-06
2.88984e-06
2.84781e-06
2.64281e-06
2.50366e-06
2.42628e-06
2.38544e-06
2.37472e-06
2.38248e-06
2.38849e-06
2.38462e-06
2.3737e-06
2.35697e-06
2.33998e-06
2.32867e-06
2.32289e-06
2.32095e-06
2.32006e-06
2.31808e-06
2.31523e-06
2.31231e-06
2.31018e-06
2.30889e-06
2.30802e-06
2.30728e-06
2.30658e-06
2.30603e-06
2.30566e-06
2.30548e-06
2.3054e-06
2.3054e-06
2.30551e-06
2.30568e-06
2.30591e-06
2.3062e-06
2.30655e-06
2.30695e-06
2.30739e-06
2.30786e-06
2.30835e-06
2.30888e-06
2.30944e-06
2.31001e-06
2.31054e-06
2.31114e-06
2.31175e-06
2.31238e-06
2.31305e-06
2.31367e-06
2.31431e-06
2.315e-06
2.31571e-06
2.31635e-06
2.317e-06
2.31769e-06
2.3184e-06
2.31912e-06
2.31978e-06
2.32049e-06
2.3212e-06
2.32191e-06
2.32262e-06
2.3233e-06
2.32402e-06
2.32474e-06
2.32543e-06
2.32616e-06
2.32689e-06
2.32759e-06
2.32836e-06
2.32919e-06
2.32997e-06
2.3308e-06
2.33162e-06
2.33258e-06
2.3335e-06
2.33454e-06
2.33557e-06
2.33677e-06
2.33786e-06
2.33923e-06
2.34064e-06
2.34214e-06
2.34377e-06
2.34553e-06
2.3474e-06
2.34943e-06
2.35165e-06
2.35405e-06
2.35672e-06
2.35956e-06
2.36265e-06
2.36593e-06
2.36942e-06
2.37313e-06
2.37709e-06
2.38125e-06
2.38562e-06
2.39018e-06
2.39489e-06
2.39977e-06
2.40473e-06
2.40982e-06
2.41494e-06
2.42007e-06
2.42528e-06
2.43062e-06
2.4361e-06
2.44151e-06
2.44678e-06
2.45187e-06
2.45673e-06
2.46138e-06
2.46576e-06
2.46983e-06
2.47348e-06
2.47669e-06
2.47939e-06
2.48169e-06
2.48344e-06
2.48445e-06
2.48473e-06
2.48426e-06
2.48278e-06
2.48015e-06
2.47638e-06
2.47104e-06
2.46418e-06
2.45541e-06
2.44434e-06
2.43108e-06
2.41835e-06
2.41409e-06
2.42779e-06
2.46122e-06
2.50548e-06
2.54403e-06
2.57163e-06
2.59232e-06
2.57879e-06
2.4826e-06
2.1123e-06
1.34656e-06
2.46343e-07
1.39005e-06
2.1425e-06
2.49894e-06
2.58454e-06
2.58196e-06
2.53651e-06
2.47475e-06
2.40388e-06
2.35078e-06
2.33223e-06
2.33893e-06
2.35792e-06
2.37741e-06
2.39324e-06
2.40591e-06
2.41639e-06
2.42517e-06
2.43267e-06
2.4388e-06
2.44379e-06
2.44765e-06
2.45045e-06
2.45241e-06
2.45354e-06
2.45398e-06
2.45373e-06
2.45297e-06
2.45165e-06
2.44987e-06
2.44765e-06
2.44505e-06
2.44211e-06
2.43885e-06
2.4353e-06
2.43155e-06
2.42759e-06
2.4235e-06
2.41948e-06
2.41553e-06
2.41156e-06
2.40749e-06
2.40334e-06
2.39921e-06
2.39506e-06
2.39099e-06
2.387e-06
2.38313e-06
2.37937e-06
2.37569e-06
2.37214e-06
2.36872e-06
2.36545e-06
2.36234e-06
2.35941e-06
2.3566e-06
2.35394e-06
2.35143e-06
2.34905e-06
2.3468e-06
2.34466e-06
2.34269e-06
2.34082e-06
2.33903e-06
2.33733e-06
2.3358e-06
2.33423e-06
2.33284e-06
2.3314e-06
2.33018e-06
2.32887e-06
2.3277e-06
2.32646e-06
2.32536e-06
2.32416e-06
2.32302e-06
2.3219e-06
2.32085e-06
2.31975e-06
2.3187e-06
2.31763e-06
2.31657e-06
2.31556e-06
2.31453e-06
2.3135e-06
2.31249e-06
2.31149e-06
2.31055e-06
2.30955e-06
2.30858e-06
2.3076e-06
2.30668e-06
2.30571e-06
2.30475e-06
2.30378e-06
2.30284e-06
2.30192e-06
2.30095e-06
2.30002e-06
2.2991e-06
2.29819e-06
2.29732e-06
2.29644e-06
2.29553e-06
2.29467e-06
2.29381e-06
2.29298e-06
2.29216e-06
2.29138e-06
2.29064e-06
2.28994e-06
2.28929e-06
2.28868e-06
2.28812e-06
2.28765e-06
2.28725e-06
2.28693e-06
2.28679e-06
2.28681e-06
2.28695e-06
2.28712e-06
2.28739e-06
2.28805e-06
2.28949e-06
2.29168e-06
2.29376e-06
2.29493e-06
2.29499e-06
2.29602e-06
2.30071e-06
2.3108e-06
2.32633e-06
2.34152e-06
2.3509e-06
2.35325e-06
2.34579e-06
2.33631e-06
2.34462e-06
2.38195e-06
2.45456e-06
2.5857e-06
2.77967e-06
2.81187e-06
2.33545e-06
1.24107e-06
1.26422e-06
1.00456e-06
1.41433e-06
2.50419e-06
2.0492e-06
6.11639e-06
7.22868e-06
4.24746e-06
3.01193e-06
4.02562e-06
3.94991e-06
7.49071e-06
8.70916e-06
8.56711e-06
8.05109e-06
7.68532e-06
7.47762e-06
7.36895e-06
7.34073e-06
7.3597e-06
7.37241e-06
7.35836e-06
7.32497e-06
7.27675e-06
7.22904e-06
7.1973e-06
7.18101e-06
7.17514e-06
7.17199e-06
7.16587e-06
7.15742e-06
7.14899e-06
7.14285e-06
7.13917e-06
7.13666e-06
7.13452e-06
7.13259e-06
7.13108e-06
7.13016e-06
7.12978e-06
7.12969e-06
7.12988e-06
7.13036e-06
7.13105e-06
7.13194e-06
7.13302e-06
7.13425e-06
7.13563e-06
7.13717e-06
7.13877e-06
7.14045e-06
7.14227e-06
7.14412e-06
7.14608e-06
7.14798e-06
7.15002e-06
7.1521e-06
7.15423e-06
7.15644e-06
7.15859e-06
7.16078e-06
7.16306e-06
7.16543e-06
7.16771e-06
7.16996e-06
7.17228e-06
7.17464e-06
7.17707e-06
7.17944e-06
7.18185e-06
7.18424e-06
7.18664e-06
7.18906e-06
7.19142e-06
7.1938e-06
7.19618e-06
7.19852e-06
7.20097e-06
7.20345e-06
7.20586e-06
7.2084e-06
7.21114e-06
7.21377e-06
7.2166e-06
7.21941e-06
7.2226e-06
7.22572e-06
7.22925e-06
7.23272e-06
7.23668e-06
7.2405e-06
7.24513e-06
7.2499e-06
7.25499e-06
7.26062e-06
7.26666e-06
7.27308e-06
7.28007e-06
7.28781e-06
7.29618e-06
7.3054e-06
7.31527e-06
7.32601e-06
7.33743e-06
7.34961e-06
7.36259e-06
7.37641e-06
7.39091e-06
7.40615e-06
7.42201e-06
7.43837e-06
7.45524e-06
7.47235e-06
7.48985e-06
7.50743e-06
7.52501e-06
7.54275e-06
7.56083e-06
7.57918e-06
7.59726e-06
7.61483e-06
7.63177e-06
7.64792e-06
7.66331e-06
7.67777e-06
7.69109e-06
7.70307e-06
7.71353e-06
7.72231e-06
7.72964e-06
7.73505e-06
7.73806e-06
7.73865e-06
7.7367e-06
7.73144e-06
7.7224e-06
7.70957e-06
7.69154e-06
7.66839e-06
7.63901e-06
7.60209e-06
7.55817e-06
7.51769e-06
7.50871e-06
7.56152e-06
7.6766e-06
7.81651e-06
7.92479e-06
7.98814e-06
8.01799e-06
7.92799e-06
7.55869e-06
6.3293e-06
4.02994e-06
7.70674e-07
4.15782e-06
6.42162e-06
7.61156e-06
7.95066e-06
7.99539e-06
7.89388e-06
7.72254e-06
7.49816e-06
7.31238e-06
7.23753e-06
7.25232e-06
7.3136e-06
7.37867e-06
7.43166e-06
7.47383e-06
7.5086e-06
7.53775e-06
7.56264e-06
7.58309e-06
7.59983e-06
7.61296e-06
7.6226e-06
7.62944e-06
7.6336e-06
7.63548e-06
7.63504e-06
7.63283e-06
7.62872e-06
7.6231e-06
7.61605e-06
7.60768e-06
7.59812e-06
7.58749e-06
7.57588e-06
7.56357e-06
7.55054e-06
7.53705e-06
7.52364e-06
7.51034e-06
7.4969e-06
7.48313e-06
7.46902e-06
7.455e-06
7.44092e-06
7.42703e-06
7.4134e-06
7.40013e-06
7.38721e-06
7.37457e-06
7.36236e-06
7.35062e-06
7.33939e-06
7.32868e-06
7.31857e-06
7.30892e-06
7.29974e-06
7.29103e-06
7.28283e-06
7.27508e-06
7.26772e-06
7.26084e-06
7.25439e-06
7.24825e-06
7.24234e-06
7.23702e-06
7.23166e-06
7.22688e-06
7.22192e-06
7.21766e-06
7.21315e-06
7.20905e-06
7.20479e-06
7.20093e-06
7.19681e-06
7.19294e-06
7.18904e-06
7.18535e-06
7.18157e-06
7.17791e-06
7.17425e-06
7.17064e-06
7.1671e-06
7.16353e-06
7.16002e-06
7.15653e-06
7.15309e-06
7.14974e-06
7.1463e-06
7.14304e-06
7.13969e-06
7.13651e-06
7.13314e-06
7.12985e-06
7.1266e-06
7.12339e-06
7.12021e-06
7.11695e-06
7.1138e-06
7.11065e-06
7.10753e-06
7.1045e-06
7.10147e-06
7.09842e-06
7.09549e-06
7.09258e-06
7.08977e-06
7.087e-06
7.08435e-06
7.08183e-06
7.07941e-06
7.07716e-06
7.07506e-06
7.07316e-06
7.07148e-06
7.07004e-06
7.06887e-06
7.06819e-06
7.06804e-06
7.06828e-06
7.06866e-06
7.0693e-06
7.07108e-06
7.07511e-06
7.08133e-06
7.08744e-06
7.09112e-06
7.09172e-06
7.09486e-06
7.10791e-06
7.13601e-06
7.17946e-06
7.2231e-06
7.25186e-06
7.26132e-06
7.24417e-06
7.22e-06
7.24121e-06
7.34011e-06
7.53488e-06
7.88023e-06
8.3695e-06
8.48571e-06
7.27988e-06
3.82665e-06
3.70434e-06
3.01408e-06
4.62758e-06
7.06951e-06
5.93667e-06
9.70396e-06
1.13774e-05
8.11351e-06
5.12258e-06
6.52965e-06
7.2235e-06
1.29874e-05
1.45295e-05
1.43066e-05
1.36595e-05
1.31685e-05
1.28826e-05
1.27354e-05
1.26966e-05
1.2717e-05
1.27256e-05
1.26976e-05
1.26424e-05
1.25689e-05
1.24988e-05
1.24522e-05
1.24281e-05
1.24185e-05
1.24123e-05
1.2402e-05
1.23888e-05
1.2376e-05
1.23669e-05
1.23615e-05
1.23578e-05
1.23547e-05
1.23521e-05
1.23503e-05
1.23494e-05
1.23493e-05
1.23498e-05
1.23507e-05
1.23521e-05
1.23539e-05
1.2356e-05
1.23584e-05
1.23611e-05
1.23641e-05
1.23673e-05
1.23706e-05
1.23741e-05
1.23777e-05
1.23814e-05
1.23854e-05
1.23893e-05
1.23934e-05
1.23976e-05
1.24018e-05
1.24061e-05
1.24106e-05
1.2415e-05
1.24195e-05
1.24242e-05
1.24288e-05
1.24334e-05
1.24381e-05
1.24429e-05
1.24477e-05
1.24526e-05
1.24575e-05
1.24622e-05
1.24671e-05
1.24719e-05
1.24767e-05
1.24814e-05
1.24861e-05
1.24909e-05
1.24957e-05
1.25006e-05
1.25054e-05
1.25104e-05
1.25157e-05
1.25209e-05
1.25265e-05
1.25322e-05
1.25384e-05
1.25446e-05
1.25516e-05
1.25585e-05
1.25663e-05
1.25741e-05
1.25832e-05
1.25927e-05
1.26031e-05
1.26144e-05
1.26265e-05
1.26397e-05
1.2654e-05
1.26698e-05
1.26871e-05
1.2706e-05
1.27265e-05
1.27487e-05
1.27724e-05
1.27979e-05
1.2825e-05
1.28538e-05
1.28841e-05
1.29159e-05
1.29489e-05
1.29829e-05
1.30178e-05
1.30531e-05
1.30891e-05
1.3125e-05
1.3161e-05
1.3197e-05
1.32332e-05
1.32695e-05
1.33052e-05
1.33397e-05
1.33728e-05
1.34043e-05
1.34342e-05
1.34621e-05
1.34878e-05
1.35107e-05
1.35307e-05
1.35472e-05
1.35607e-05
1.35705e-05
1.35755e-05
1.35759e-05
1.35711e-05
1.35601e-05
1.35421e-05
1.35164e-05
1.34807e-05
1.34352e-05
1.33777e-05
1.33058e-05
1.32214e-05
1.31485e-05
1.31465e-05
1.32702e-05
1.35043e-05
1.37533e-05
1.39051e-05
1.39462e-05
1.38942e-05
1.35938e-05
1.27554e-05
1.04538e-05
6.67221e-06
1.36168e-06
6.87843e-06
1.0609e-05
1.28522e-05
1.36466e-05
1.38822e-05
1.38261e-05
1.35932e-05
1.31928e-05
1.28069e-05
1.26235e-05
1.26302e-05
1.27435e-05
1.28701e-05
1.29734e-05
1.3055e-05
1.31219e-05
1.31779e-05
1.32258e-05
1.32656e-05
1.32982e-05
1.33242e-05
1.33438e-05
1.33579e-05
1.33669e-05
1.33714e-05
1.33715e-05
1.3368e-05
1.33608e-05
1.33505e-05
1.33374e-05
1.33218e-05
1.33037e-05
1.32835e-05
1.32614e-05
1.32378e-05
1.32127e-05
1.31866e-05
1.31602e-05
1.31337e-05
1.31067e-05
1.3079e-05
1.30507e-05
1.30223e-05
1.2994e-05
1.29658e-05
1.29381e-05
1.29109e-05
1.28845e-05
1.28587e-05
1.28337e-05
1.28097e-05
1.27867e-05
1.27648e-05
1.27439e-05
1.27242e-05
1.27054e-05
1.26876e-05
1.26707e-05
1.26548e-05
1.26398e-05
1.26256e-05
1.26123e-05
1.25997e-05
1.25877e-05
1.25767e-05
1.25658e-05
1.2556e-05
1.2546e-05
1.25371e-05
1.25279e-05
1.25195e-05
1.25108e-05
1.25028e-05
1.24945e-05
1.24865e-05
1.24786e-05
1.24709e-05
1.24632e-05
1.24556e-05
1.24481e-05
1.24408e-05
1.24335e-05
1.24262e-05
1.2419e-05
1.24119e-05
1.24049e-05
1.2398e-05
1.2391e-05
1.23844e-05
1.23776e-05
1.2371e-05
1.23642e-05
1.23576e-05
1.23511e-05
1.23446e-05
1.23381e-05
1.23316e-05
1.23252e-05
1.23189e-05
1.23126e-05
1.23065e-05
1.23004e-05
1.22943e-05
1.22884e-05
1.22826e-05
1.22769e-05
1.22713e-05
1.2266e-05
1.22608e-05
1.22559e-05
1.22513e-05
1.2247e-05
1.2243e-05
1.22394e-05
1.22363e-05
1.22336e-05
1.22317e-05
1.22307e-05
1.22304e-05
1.22304e-05
1.2231e-05
1.22332e-05
1.22388e-05
1.22479e-05
1.22573e-05
1.22636e-05
1.22655e-05
1.22706e-05
1.22895e-05
1.23302e-05
1.23935e-05
1.24597e-05
1.25074e-05
1.25279e-05
1.25117e-05
1.24827e-05
1.25104e-05
1.26433e-05
1.29109e-05
1.33756e-05
1.39908e-05
1.41813e-05
1.26378e-05
6.98357e-06
6.04172e-06
5.09355e-06
8.49123e-06
1.10948e-05
9.98602e-06
1.4372e-05
1.50561e-05
1.2357e-05
7.91257e-06
8.88271e-06
1.18237e-05
1.85773e-05
2.0153e-05
1.99306e-05
1.93351e-05
1.88299e-05
1.85273e-05
1.8374e-05
1.83302e-05
1.83404e-05
1.83349e-05
1.82918e-05
1.82196e-05
1.81318e-05
1.80516e-05
1.79984e-05
1.79705e-05
1.7958e-05
1.79489e-05
1.79354e-05
1.79193e-05
1.79045e-05
1.78943e-05
1.78885e-05
1.78848e-05
1.7882e-05
1.78799e-05
1.78789e-05
1.78791e-05
1.78805e-05
1.78825e-05
1.78852e-05
1.78884e-05
1.78923e-05
1.78966e-05
1.79014e-05
1.79065e-05
1.7912e-05
1.79177e-05
1.79237e-05
1.79299e-05
1.79364e-05
1.79429e-05
1.79497e-05
1.79566e-05
1.79637e-05
1.79709e-05
1.79783e-05
1.79858e-05
1.79934e-05
1.80012e-05
1.8009e-05
1.80171e-05
1.80252e-05
1.80334e-05
1.80416e-05
1.805e-05
1.80584e-05
1.80668e-05
1.80753e-05
1.80838e-05
1.80922e-05
1.81005e-05
1.81087e-05
1.81169e-05
1.81252e-05
1.81333e-05
1.81416e-05
1.81499e-05
1.81582e-05
1.81667e-05
1.81756e-05
1.81846e-05
1.81941e-05
1.82038e-05
1.82143e-05
1.82251e-05
1.82369e-05
1.8249e-05
1.82623e-05
1.82761e-05
1.82916e-05
1.83082e-05
1.83263e-05
1.8346e-05
1.83675e-05
1.83907e-05
1.84163e-05
1.84445e-05
1.84754e-05
1.85094e-05
1.85463e-05
1.85862e-05
1.86293e-05
1.86756e-05
1.87251e-05
1.87774e-05
1.88325e-05
1.88902e-05
1.89502e-05
1.90118e-05
1.90746e-05
1.91382e-05
1.92024e-05
1.92666e-05
1.93304e-05
1.93938e-05
1.94569e-05
1.95192e-05
1.958e-05
1.96387e-05
1.96948e-05
1.9748e-05
1.97982e-05
1.98448e-05
1.98875e-05
1.99253e-05
1.99579e-05
1.9985e-05
2.00065e-05
2.00215e-05
2.00288e-05
2.00282e-05
2.00189e-05
1.99994e-05
1.99683e-05
1.99241e-05
1.98639e-05
1.97873e-05
1.96911e-05
1.95714e-05
1.94337e-05
1.93264e-05
1.93559e-05
1.96039e-05
2.00092e-05
2.03714e-05
2.05061e-05
2.0418e-05
2.01337e-05
1.9428e-05
1.78909e-05
1.43303e-05
9.18469e-06
2.02651e-06
9.46064e-06
1.4546e-05
1.80383e-05
1.9528e-05
2.01685e-05
2.0333e-05
2.01444e-05
1.956e-05
1.8877e-05
1.84976e-05
1.84623e-05
1.86369e-05
1.88468e-05
1.9019e-05
1.91534e-05
1.92628e-05
1.93544e-05
1.94325e-05
1.9498e-05
1.95522e-05
1.95959e-05
1.96294e-05
1.96539e-05
1.967e-05
1.96787e-05
1.968e-05
1.96752e-05
1.96642e-05
1.96481e-05
1.96271e-05
1.96017e-05
1.95722e-05
1.9539e-05
1.95025e-05
1.94633e-05
1.94215e-05
1.93777e-05
1.93327e-05
1.92867e-05
1.92396e-05
1.91912e-05
1.91417e-05
1.90918e-05
1.90418e-05
1.89921e-05
1.8943e-05
1.88948e-05
1.88477e-05
1.88017e-05
1.87572e-05
1.87144e-05
1.86735e-05
1.86344e-05
1.85973e-05
1.8562e-05
1.85285e-05
1.84968e-05
1.84667e-05
1.84383e-05
1.84116e-05
1.83864e-05
1.83626e-05
1.83401e-05
1.83188e-05
1.82991e-05
1.82799e-05
1.82623e-05
1.82447e-05
1.82287e-05
1.82126e-05
1.81975e-05
1.81822e-05
1.81679e-05
1.81532e-05
1.81391e-05
1.81251e-05
1.81115e-05
1.80978e-05
1.80843e-05
1.8071e-05
1.80579e-05
1.8045e-05
1.80321e-05
1.80194e-05
1.80068e-05
1.79944e-05
1.79822e-05
1.79701e-05
1.79582e-05
1.79463e-05
1.79347e-05
1.7923e-05
1.79114e-05
1.79e-05
1.78886e-05
1.78773e-05
1.78661e-05
1.7855e-05
1.7844e-05
1.78331e-05
1.78224e-05
1.78119e-05
1.78013e-05
1.77911e-05
1.7781e-05
1.77711e-05
1.77614e-05
1.77521e-05
1.77431e-05
1.77344e-05
1.77262e-05
1.77184e-05
1.77111e-05
1.77045e-05
1.76985e-05
1.76931e-05
1.76888e-05
1.76858e-05
1.76838e-05
1.76825e-05
1.76818e-05
1.76833e-05
1.76888e-05
1.76987e-05
1.77097e-05
1.77178e-05
1.77214e-05
1.77278e-05
1.7749e-05
1.77947e-05
1.78664e-05
1.7945e-05
1.80074e-05
1.80407e-05
1.80362e-05
1.80144e-05
1.80442e-05
1.81809e-05
1.84637e-05
1.89435e-05
1.95119e-05
1.97083e-05
1.81242e-05
1.14228e-05
8.25971e-06
7.52943e-06
1.23757e-05
1.46491e-05
1.46504e-05
2.07871e-05
1.84105e-05
1.63507e-05
1.16338e-05
1.12026e-05
1.78695e-05
2.39687e-05
2.54807e-05
2.53793e-05
2.49844e-05
2.45605e-05
2.4296e-05
2.41629e-05
2.41159e-05
2.4106e-05
2.4081e-05
2.4026e-05
2.39464e-05
2.38589e-05
2.37827e-05
2.37323e-05
2.37054e-05
2.36919e-05
2.3681e-05
2.36667e-05
2.36509e-05
2.36375e-05
2.36291e-05
2.36251e-05
2.36233e-05
2.36226e-05
2.36229e-05
2.36245e-05
2.36276e-05
2.3632e-05
2.3637e-05
2.3643e-05
2.36496e-05
2.36571e-05
2.3665e-05
2.36734e-05
2.36823e-05
2.36916e-05
2.37012e-05
2.37111e-05
2.37214e-05
2.37319e-05
2.37426e-05
2.37536e-05
2.37647e-05
2.37761e-05
2.37877e-05
2.37996e-05
2.38117e-05
2.38239e-05
2.38364e-05
2.38492e-05
2.38622e-05
2.38753e-05
2.38887e-05
2.39021e-05
2.39156e-05
2.39293e-05
2.3943e-05
2.39567e-05
2.39703e-05
2.39839e-05
2.39974e-05
2.40107e-05
2.40239e-05
2.4037e-05
2.40499e-05
2.4063e-05
2.40762e-05
2.40895e-05
2.4103e-05
2.4117e-05
2.41313e-05
2.41463e-05
2.41618e-05
2.41784e-05
2.41957e-05
2.42144e-05
2.4234e-05
2.42553e-05
2.42779e-05
2.43028e-05
2.43296e-05
2.43591e-05
2.43913e-05
2.44266e-05
2.44652e-05
2.45076e-05
2.45544e-05
2.46063e-05
2.46632e-05
2.4725e-05
2.47921e-05
2.48649e-05
2.49435e-05
2.50273e-05
2.51159e-05
2.52092e-05
2.53069e-05
2.54083e-05
2.55123e-05
2.56179e-05
2.57245e-05
2.58315e-05
2.59381e-05
2.60438e-05
2.61481e-05
2.62505e-05
2.63504e-05
2.64473e-05
2.65405e-05
2.66293e-05
2.67132e-05
2.67919e-05
2.68646e-05
2.69306e-05
2.69889e-05
2.70389e-05
2.70802e-05
2.71123e-05
2.71339e-05
2.71438e-05
2.71412e-05
2.71251e-05
2.70934e-05
2.70439e-05
2.6974e-05
2.68798e-05
2.67605e-05
2.66117e-05
2.64282e-05
2.62232e-05
2.60857e-05
2.61908e-05
2.66413e-05
2.72783e-05
2.7728e-05
2.77268e-05
2.73364e-05
2.66073e-05
2.5263e-05
2.2807e-05
1.78447e-05
1.15049e-05
2.77331e-06
1.18406e-05
1.81154e-05
2.30096e-05
2.54279e-05
2.67334e-05
2.73765e-05
2.7429e-05
2.66999e-05
2.56023e-05
2.48976e-05
2.47619e-05
2.50032e-05
2.53227e-05
2.55872e-05
2.57913e-05
2.59557e-05
2.60926e-05
2.62092e-05
2.63076e-05
2.63896e-05
2.64564e-05
2.65083e-05
2.65469e-05
2.65727e-05
2.65869e-05
2.65901e-05
2.65836e-05
2.65676e-05
2.65435e-05
2.65117e-05
2.64729e-05
2.64276e-05
2.63764e-05
2.63199e-05
2.62588e-05
2.61934e-05
2.61246e-05
2.60528e-05
2.59783e-05
2.59014e-05
2.58223e-05
2.57414e-05
2.56594e-05
2.55772e-05
2.54951e-05
2.54139e-05
2.53339e-05
2.52556e-05
2.51792e-05
2.51054e-05
2.50343e-05
2.49662e-05
2.49013e-05
2.48396e-05
2.4781e-05
2.47254e-05
2.46727e-05
2.46228e-05
2.45757e-05
2.45313e-05
2.44895e-05
2.445e-05
2.44129e-05
2.43776e-05
2.43448e-05
2.43133e-05
2.42839e-05
2.42552e-05
2.42285e-05
2.42021e-05
2.41771e-05
2.41522e-05
2.41283e-05
2.41043e-05
2.40811e-05
2.4058e-05
2.40356e-05
2.40131e-05
2.39909e-05
2.39691e-05
2.39475e-05
2.39263e-05
2.39052e-05
2.38843e-05
2.38638e-05
2.38435e-05
2.38235e-05
2.38038e-05
2.37844e-05
2.37651e-05
2.37462e-05
2.37273e-05
2.37086e-05
2.36901e-05
2.36718e-05
2.36537e-05
2.36356e-05
2.36178e-05
2.36002e-05
2.35827e-05
2.35655e-05
2.35485e-05
2.35317e-05
2.35152e-05
2.3499e-05
2.34831e-05
2.34676e-05
2.34525e-05
2.34379e-05
2.34237e-05
2.34102e-05
2.33972e-05
2.33851e-05
2.33737e-05
2.33632e-05
2.33536e-05
2.33452e-05
2.33384e-05
2.3333e-05
2.33286e-05
2.33252e-05
2.3324e-05
2.33271e-05
2.33349e-05
2.33448e-05
2.33531e-05
2.33576e-05
2.33643e-05
2.33837e-05
2.3426e-05
2.34931e-05
2.35708e-05
2.36398e-05
2.36838e-05
2.36975e-05
2.36939e-05
2.37255e-05
2.38422e-05
2.40889e-05
2.44939e-05
2.48741e-05
2.49668e-05
2.34595e-05
1.72636e-05
1.04683e-05
1.0892e-05
1.60617e-05
1.7917e-05
2.11321e-05
2.87474e-05
2.16492e-05
2.00491e-05
1.63376e-05
1.40489e-05
2.44201e-05
2.89594e-05
3.04696e-05
3.0623e-05
3.05286e-05
3.02551e-05
3.00687e-05
2.99715e-05
2.99201e-05
2.98852e-05
2.9842e-05
2.97831e-05
2.97097e-05
2.96384e-05
2.95804e-05
2.9542e-05
2.95214e-05
2.95096e-05
2.94996e-05
2.94881e-05
2.94771e-05
2.94693e-05
2.94662e-05
2.94669e-05
2.94696e-05
2.94736e-05
2.94788e-05
2.94854e-05
2.94936e-05
2.95029e-05
2.95131e-05
2.95244e-05
2.95363e-05
2.95491e-05
2.95623e-05
2.95761e-05
2.95904e-05
2.96052e-05
2.96203e-05
2.96358e-05
2.96516e-05
2.96677e-05
2.96842e-05
2.97009e-05
2.9718e-05
2.97354e-05
2.97531e-05
2.97711e-05
2.97895e-05
2.98083e-05
2.98274e-05
2.98469e-05
2.98668e-05
2.98871e-05
2.99075e-05
2.99282e-05
2.9949e-05
2.99699e-05
2.9991e-05
3.00119e-05
3.00327e-05
3.00535e-05
3.00741e-05
3.00942e-05
3.01143e-05
3.01341e-05
3.01537e-05
3.01732e-05
3.0193e-05
3.02132e-05
3.02335e-05
3.02545e-05
3.0276e-05
3.02986e-05
3.03222e-05
3.03471e-05
3.03735e-05
3.04018e-05
3.04319e-05
3.04645e-05
3.04997e-05
3.05376e-05
3.05791e-05
3.06248e-05
3.06749e-05
3.07302e-05
3.07909e-05
3.08578e-05
3.0932e-05
3.10144e-05
3.11047e-05
3.1203e-05
3.131e-05
3.14266e-05
3.15525e-05
3.1687e-05
3.18289e-05
3.19783e-05
3.21347e-05
3.22969e-05
3.24629e-05
3.2631e-05
3.28002e-05
3.29694e-05
3.31377e-05
3.33038e-05
3.34667e-05
3.36251e-05
3.37781e-05
3.39257e-05
3.40671e-05
3.42014e-05
3.43278e-05
3.44457e-05
3.45543e-05
3.46522e-05
3.47383e-05
3.48119e-05
3.48724e-05
3.49184e-05
3.49488e-05
3.49619e-05
3.49565e-05
3.49309e-05
3.48826e-05
3.48086e-05
3.47039e-05
3.45644e-05
3.43885e-05
3.41708e-05
3.3905e-05
3.36203e-05
3.34689e-05
3.37199e-05
3.44785e-05
3.54027e-05
3.58541e-05
3.55121e-05
3.45729e-05
3.31428e-05
3.09215e-05
2.7355e-05
2.08852e-05
1.35774e-05
3.6118e-06
1.39617e-05
2.12022e-05
2.76148e-05
3.11666e-05
3.34051e-05
3.48499e-05
3.5462e-05
3.47227e-05
3.3092e-05
3.18868e-05
3.15605e-05
3.18645e-05
3.23222e-05
3.27061e-05
3.29985e-05
3.32307e-05
3.34225e-05
3.35852e-05
3.3723e-05
3.38388e-05
3.39337e-05
3.40081e-05
3.4064e-05
3.41017e-05
3.41222e-05
3.41271e-05
3.41176e-05
3.40944e-05
3.4059e-05
3.40123e-05
3.39549e-05
3.38878e-05
3.38116e-05
3.37274e-05
3.36359e-05
3.3538e-05
3.34342e-05
3.33246e-05
3.32096e-05
3.30902e-05
3.29669e-05
3.28408e-05
3.27127e-05
3.25839e-05
3.24551e-05
3.23274e-05
3.22014e-05
3.20779e-05
3.19575e-05
3.1841e-05
3.1729e-05
3.16217e-05
3.15195e-05
3.14222e-05
3.13299e-05
3.12424e-05
3.11596e-05
3.10812e-05
3.10072e-05
3.09374e-05
3.08717e-05
3.08098e-05
3.07514e-05
3.06963e-05
3.06446e-05
3.05955e-05
3.05491e-05
3.05047e-05
3.04625e-05
3.04216e-05
3.03823e-05
3.03437e-05
3.03062e-05
3.02691e-05
3.02329e-05
3.01971e-05
3.01621e-05
3.01273e-05
3.00928e-05
3.00588e-05
3.00254e-05
2.99924e-05
2.99596e-05
2.99274e-05
2.98956e-05
2.98643e-05
2.98335e-05
2.98033e-05
2.97733e-05
2.97438e-05
2.97147e-05
2.96859e-05
2.96574e-05
2.96292e-05
2.96014e-05
2.95738e-05
2.95464e-05
2.95194e-05
2.94928e-05
2.94663e-05
2.94402e-05
2.94145e-05
2.93891e-05
2.93642e-05
2.93396e-05
2.93156e-05
2.9292e-05
2.92691e-05
2.92467e-05
2.9225e-05
2.92041e-05
2.9184e-05
2.91648e-05
2.91467e-05
2.91297e-05
2.91138e-05
2.90993e-05
2.90865e-05
2.90754e-05
2.90658e-05
2.90575e-05
2.90514e-05
2.90491e-05
2.90513e-05
2.90567e-05
2.90623e-05
2.90661e-05
2.90713e-05
2.9085e-05
2.91158e-05
2.91657e-05
2.92282e-05
2.92919e-05
2.93402e-05
2.93725e-05
2.9394e-05
2.94304e-05
2.95137e-05
2.96874e-05
2.99526e-05
3.00487e-05
2.99116e-05
2.84482e-05
2.37235e-05
1.32539e-05
1.52147e-05
1.95049e-05
2.1134e-05
2.91107e-05
3.79999e-05
2.55317e-05
2.35118e-05
2.07e-05
1.82323e-05
3.07457e-05
3.33989e-05
3.51128e-05
3.5637e-05
3.58899e-05
3.58065e-05
3.5721e-05
3.5666e-05
3.56095e-05
3.55509e-05
3.54976e-05
3.5447e-05
3.53956e-05
3.53564e-05
3.5329e-05
3.5311e-05
3.53017e-05
3.52956e-05
3.52906e-05
3.52867e-05
3.52855e-05
3.5288e-05
3.52943e-05
3.53031e-05
3.53135e-05
3.53252e-05
3.53382e-05
3.53526e-05
3.53684e-05
3.53853e-05
3.54029e-05
3.54216e-05
3.5441e-05
3.54612e-05
3.54818e-05
3.55029e-05
3.55245e-05
3.55465e-05
3.5569e-05
3.55918e-05
3.56151e-05
3.56386e-05
3.56627e-05
3.5687e-05
3.57119e-05
3.57372e-05
3.57629e-05
3.5789e-05
3.58158e-05
3.58432e-05
3.58712e-05
3.58997e-05
3.59287e-05
3.59584e-05
3.59884e-05
3.60187e-05
3.60491e-05
3.60797e-05
3.61105e-05
3.6141e-05
3.61713e-05
3.62015e-05
3.62313e-05
3.62605e-05
3.62894e-05
3.6318e-05
3.63462e-05
3.63743e-05
3.64026e-05
3.64318e-05
3.6461e-05
3.64911e-05
3.65222e-05
3.65548e-05
3.6589e-05
3.66251e-05
3.66637e-05
3.67047e-05
3.67492e-05
3.67968e-05
3.68491e-05
3.69048e-05
3.69663e-05
3.70343e-05
3.71091e-05
3.7192e-05
3.72833e-05
3.73843e-05
3.74965e-05
3.76212e-05
3.77577e-05
3.79068e-05
3.8069e-05
3.82462e-05
3.84378e-05
3.8642e-05
3.88574e-05
3.9084e-05
3.9321e-05
3.95664e-05
3.98173e-05
4.00707e-05
4.03252e-05
4.05791e-05
4.0831e-05
4.10789e-05
4.13209e-05
4.15542e-05
4.1778e-05
4.19928e-05
4.21982e-05
4.23927e-05
4.25753e-05
4.27448e-05
4.29004e-05
4.30402e-05
4.31628e-05
4.32673e-05
4.33531e-05
4.34175e-05
4.34598e-05
4.34776e-05
4.34693e-05
4.34322e-05
4.33636e-05
4.32591e-05
4.31111e-05
4.29152e-05
4.26691e-05
4.23666e-05
4.20023e-05
4.16325e-05
4.1502e-05
4.19977e-05
4.31897e-05
4.44243e-05
4.46962e-05
4.37153e-05
4.19349e-05
3.95423e-05
3.62203e-05
3.13844e-05
2.33337e-05
1.53523e-05
4.55491e-06
1.57728e-05
2.36841e-05
3.17011e-05
3.65584e-05
3.99785e-05
4.256e-05
4.41576e-05
4.36925e-05
4.14521e-05
3.95374e-05
3.88958e-05
3.92422e-05
3.98627e-05
4.03921e-05
4.07899e-05
4.10998e-05
4.13527e-05
4.15655e-05
4.17462e-05
4.18986e-05
4.2024e-05
4.21231e-05
4.21974e-05
4.22475e-05
4.22737e-05
4.22787e-05
4.22636e-05
4.22296e-05
4.21784e-05
4.21112e-05
4.20287e-05
4.19323e-05
4.1823e-05
4.17019e-05
4.157e-05
4.14289e-05
4.12787e-05
4.11186e-05
4.09491e-05
4.0772e-05
4.05889e-05
4.04017e-05
4.02111e-05
4.0019e-05
3.98268e-05
3.96359e-05
3.94474e-05
3.92623e-05
3.9082e-05
3.89074e-05
3.87395e-05
3.85789e-05
3.84257e-05
3.828e-05
3.81418e-05
3.8011e-05
3.7887e-05
3.77698e-05
3.76592e-05
3.75549e-05
3.74566e-05
3.73641e-05
3.72769e-05
3.71947e-05
3.71172e-05
3.70442e-05
3.69748e-05
3.6909e-05
3.68458e-05
3.6785e-05
3.67264e-05
3.66693e-05
3.66135e-05
3.65586e-05
3.65048e-05
3.64519e-05
3.63999e-05
3.63485e-05
3.62975e-05
3.62473e-05
3.61978e-05
3.6149e-05
3.61007e-05
3.60532e-05
3.60065e-05
3.59605e-05
3.59152e-05
3.58709e-05
3.58269e-05
3.57839e-05
3.57414e-05
3.56996e-05
3.5658e-05
3.56172e-05
3.55769e-05
3.5537e-05
3.54974e-05
3.54585e-05
3.542e-05
3.53819e-05
3.53443e-05
3.53073e-05
3.52707e-05
3.52347e-05
3.51994e-05
3.51647e-05
3.51307e-05
3.50975e-05
3.5065e-05
3.50335e-05
3.50029e-05
3.49733e-05
3.49448e-05
3.49176e-05
3.48917e-05
3.48672e-05
3.48441e-05
3.4823e-05
3.48037e-05
3.47863e-05
3.47706e-05
3.47568e-05
3.47459e-05
3.47389e-05
3.47356e-05
3.47349e-05
3.47352e-05
3.47363e-05
3.47405e-05
3.4753e-05
3.4775e-05
3.48084e-05
3.4853e-05
3.48955e-05
3.49407e-05
3.4988e-05
3.50326e-05
3.50786e-05
3.51592e-05
3.52475e-05
3.50147e-05
3.45332e-05
3.29436e-05
3.00144e-05
1.7276e-05
1.93296e-05
2.2794e-05
2.54562e-05
3.83011e-05
4.84046e-05
3.15009e-05
2.68862e-05
2.44583e-05
2.3754e-05
3.65827e-05
3.72079e-05
3.94223e-05
4.03838e-05
4.09821e-05
4.11017e-05
4.11252e-05
4.1113e-05
4.10536e-05
4.09799e-05
4.09303e-05
4.09029e-05
4.08899e-05
4.08967e-05
4.091e-05
4.09197e-05
4.0927e-05
4.09312e-05
4.09365e-05
4.0946e-05
4.09601e-05
4.09779e-05
4.09978e-05
4.10185e-05
4.10401e-05
4.10629e-05
4.10869e-05
4.11121e-05
4.11383e-05
4.11653e-05
4.1193e-05
4.12215e-05
4.12506e-05
4.12804e-05
4.13105e-05
4.1341e-05
4.13719e-05
4.14033e-05
4.1435e-05
4.1467e-05
4.14997e-05
4.15327e-05
4.15663e-05
4.16003e-05
4.16349e-05
4.16702e-05
4.17061e-05
4.17426e-05
4.17801e-05
4.18185e-05
4.18578e-05
4.18977e-05
4.19384e-05
4.19803e-05
4.20224e-05
4.20649e-05
4.21076e-05
4.21504e-05
4.21934e-05
4.2236e-05
4.22782e-05
4.23203e-05
4.23617e-05
4.24022e-05
4.24422e-05
4.24816e-05
4.25205e-05
4.25592e-05
4.25983e-05
4.26386e-05
4.26791e-05
4.27207e-05
4.2764e-05
4.28092e-05
4.28571e-05
4.29074e-05
4.29617e-05
4.30193e-05
4.30824e-05
4.31499e-05
4.32245e-05
4.33034e-05
4.33913e-05
4.34887e-05
4.35962e-05
4.37157e-05
4.38476e-05
4.39938e-05
4.41562e-05
4.43368e-05
4.45342e-05
4.47498e-05
4.49844e-05
4.52405e-05
4.55171e-05
4.58114e-05
4.61212e-05
4.64465e-05
4.6786e-05
4.71369e-05
4.74948e-05
4.78553e-05
4.82166e-05
4.85761e-05
4.89319e-05
4.9281e-05
4.96202e-05
4.99454e-05
5.02554e-05
5.0552e-05
5.08351e-05
5.11025e-05
5.13529e-05
5.15848e-05
5.17969e-05
5.19872e-05
5.21541e-05
5.22963e-05
5.24132e-05
5.25005e-05
5.25579e-05
5.2583e-05
5.25731e-05
5.25248e-05
5.24349e-05
5.22974e-05
5.21013e-05
5.18429e-05
5.15192e-05
5.11232e-05
5.06541e-05
5.021e-05
5.01564e-05
5.10108e-05
5.27413e-05
5.42291e-05
5.40449e-05
5.20935e-05
4.9191e-05
4.55939e-05
4.09681e-05
3.47426e-05
2.50687e-05
1.679e-05
5.62308e-06
1.72337e-05
2.54342e-05
3.51132e-05
4.14089e-05
4.62325e-05
5.02513e-05
5.32687e-05
5.35049e-05
5.07084e-05
4.78966e-05
4.67917e-05
4.71371e-05
4.79303e-05
4.8622e-05
4.91345e-05
4.95245e-05
4.98371e-05
5.00969e-05
5.03171e-05
5.05031e-05
5.06564e-05
5.07777e-05
5.08682e-05
5.09282e-05
5.09567e-05
5.09583e-05
5.09333e-05
5.08839e-05
5.08115e-05
5.07178e-05
5.06037e-05
5.04707e-05
5.03201e-05
5.01535e-05
4.99718e-05
4.97775e-05
4.95702e-05
4.93478e-05
4.91107e-05
4.88621e-05
4.86044e-05
4.83407e-05
4.80719e-05
4.78007e-05
4.75288e-05
4.72585e-05
4.69909e-05
4.67281e-05
4.64718e-05
4.62234e-05
4.59844e-05
4.57557e-05
4.55374e-05
4.53299e-05
4.5133e-05
4.49465e-05
4.47698e-05
4.46027e-05
4.44449e-05
4.42962e-05
4.41559e-05
4.40238e-05
4.38993e-05
4.37822e-05
4.36713e-05
4.35673e-05
4.34679e-05
4.33745e-05
4.3284e-05
4.31975e-05
4.31139e-05
4.3033e-05
4.29533e-05
4.28755e-05
4.2799e-05
4.2724e-05
4.26502e-05
4.25774e-05
4.25052e-05
4.2434e-05
4.2364e-05
4.22949e-05
4.22265e-05
4.21594e-05
4.20936e-05
4.20287e-05
4.19649e-05
4.19028e-05
4.18409e-05
4.17807e-05
4.17212e-05
4.16628e-05
4.16049e-05
4.1548e-05
4.14921e-05
4.14366e-05
4.13818e-05
4.13279e-05
4.12747e-05
4.12221e-05
4.11702e-05
4.1119e-05
4.10685e-05
4.10187e-05
4.09699e-05
4.09221e-05
4.08751e-05
4.0829e-05
4.07839e-05
4.074e-05
4.06972e-05
4.06556e-05
4.06153e-05
4.05765e-05
4.05393e-05
4.05035e-05
4.04694e-05
4.04371e-05
4.04069e-05
4.0379e-05
4.0353e-05
4.03285e-05
4.03058e-05
4.02856e-05
4.02694e-05
4.02581e-05
4.02511e-05
4.02449e-05
4.0236e-05
4.02248e-05
4.02105e-05
4.02028e-05
4.02143e-05
4.02381e-05
4.0285e-05
4.03523e-05
4.04056e-05
4.04165e-05
4.03987e-05
4.02994e-05
3.97402e-05
3.88433e-05
3.68105e-05
3.58688e-05
2.25877e-05
2.30161e-05
2.6079e-05
3.17624e-05
4.85407e-05
5.9835e-05
3.91535e-05
3.02571e-05
2.76809e-05
3.0633e-05
4.17086e-05
4.05604e-05
4.34097e-05
4.48022e-05
4.57082e-05
4.60228e-05
4.61528e-05
4.61825e-05
4.61278e-05
4.60541e-05
4.60258e-05
4.60381e-05
4.60787e-05
4.61425e-05
4.6204e-05
4.62473e-05
4.62765e-05
4.6297e-05
4.63188e-05
4.63478e-05
4.6383e-05
4.6421e-05
4.64588e-05
4.64954e-05
4.6532e-05
4.65693e-05
4.66077e-05
4.66468e-05
4.66864e-05
4.67262e-05
4.67665e-05
4.68074e-05
4.68486e-05
4.68903e-05
4.69321e-05
4.69741e-05
4.70165e-05
4.70592e-05
4.71023e-05
4.71456e-05
4.71897e-05
4.72342e-05
4.72795e-05
4.73252e-05
4.7372e-05
4.74196e-05
4.74681e-05
4.75174e-05
4.75681e-05
4.76201e-05
4.76733e-05
4.77274e-05
4.77827e-05