/*--------------------------------*- C++ -*----------------------------------*\
| =========                 |                                                 |
| \\      /  F ield         | OpenFOAM: The Open Source CFD Toolbox           |
|  \\    /   O peration     | Version:  2412                                  |
|   \\  /    A nd           | Website:  www.openfoam.com                      |
|    \\/     M anipulation  |                                                 |
\*---------------------------------------------------------------------------*/
FoamFile
{
    version     2.0;
    format      ascii;
    arch        "LSB;label=32;scalar=64";
    class       volScalarField;
    location    "40";
    object      nuTilda;
}
// * * * * * * * * * * * * * * * * * * * * * * * * * * * * * * * * * * * * * //

dimensions      [0 2 -1 0 0 0 0];

internalField   nonuniform List<scalar> 
32591
(
5.01204e-06
5.35331e-06
2.71728e-06
2.81007e-06
3.08077e-06
2.47287e-06
3.23628e-06
5.0924e-06
5.76779e-06
5.70449e-06
5.4552e-06
5.28688e-06
5.19515e-06
5.15637e-06
5.16994e-06
5.20139e-06
5.21354e-06
5.20855e-06
5.19123e-06
5.16866e-06
5.15534e-06
5.15696e-06
5.11967e-06
3.22104e-06
3.22255e-06
3.22235e-06
3.22141e-06
3.22158e-06
3.22291e-06
3.22464e-06
3.22618e-06
3.22759e-06
3.22908e-06
3.23066e-06
3.23229e-06
3.23393e-06
3.23552e-06
3.23709e-06
3.23867e-06
3.24013e-06
3.24152e-06
3.24288e-06
3.24424e-06
3.24557e-06
3.24685e-06
3.24809e-06
3.2493e-06
3.25052e-06
3.25168e-06
3.25278e-06
3.25386e-06
3.25493e-06
3.25593e-06
3.25694e-06
3.25794e-06
3.25885e-06
3.25977e-06
3.26066e-06
3.26152e-06
3.26235e-06
3.26317e-06
3.264e-06
3.26479e-06
3.26553e-06
3.26624e-06
3.26693e-06
3.26757e-06
3.26818e-06
3.26877e-06
3.26935e-06
3.26983e-06
3.27033e-06
3.27399e-06
5.52025e-06
3.27594e-06
5.54709e-06
5.55513e-06
5.56311e-06
5.57132e-06
5.57974e-06
5.58826e-06
5.59696e-06
5.60582e-06
5.61491e-06
5.62432e-06
5.63408e-06
5.64428e-06
5.65496e-06
5.66609e-06
5.67814e-06
5.691e-06
5.70516e-06
5.72041e-06
5.73703e-06
5.75489e-06
5.77462e-06
5.79597e-06
5.81932e-06
5.84439e-06
5.87184e-06
5.90126e-06
5.93291e-06
5.96627e-06
6.00179e-06
6.0391e-06
6.07816e-06
6.11835e-06
6.15978e-06
6.20197e-06
6.24503e-06
6.28863e-06
6.33276e-06
6.37673e-06
6.42052e-06
6.46354e-06
6.50586e-06
6.54707e-06
6.58697e-06
6.62499e-06
6.66099e-06
6.69452e-06
6.71669e-06
3.28295e-06
3.28373e-06
3.28477e-06
3.28571e-06
3.28649e-06
3.28712e-06
3.28754e-06
3.28778e-06
3.28789e-06
3.29236e-06
6.73063e-06
6.68467e-06
6.61314e-06
3.29509e-06
3.29771e-06
3.30114e-06
3.30559e-06
3.31737e-06
3.33984e-06
3.37433e-06
3.47354e-06
6.53314e-06
5.31784e-06
5.26908e-06
4.99305e-06
4.17325e-06
2.58172e-06
5.39573e-07
2.69306e-06
4.25158e-06
5.04686e-06
5.30973e-06
5.31449e-06
4.42258e-06
6.76168e-06
6.89048e-06
3.32983e-06
3.30311e-06
3.30013e-06
3.29649e-06
3.28878e-06
3.28167e-06
6.35465e-06
6.46641e-06
6.53499e-06
3.28255e-06
3.27294e-06
3.27362e-06
3.27475e-06
3.27578e-06
3.27654e-06
3.27704e-06
3.27725e-06
3.27722e-06
3.27731e-06
6.69176e-06
6.6856e-06
6.66473e-06
6.64112e-06
6.61505e-06
6.58712e-06
6.55727e-06
6.52598e-06
6.4932e-06
6.45928e-06
6.42439e-06
6.38899e-06
6.35312e-06
6.3173e-06
6.28128e-06
6.2456e-06
6.21017e-06
6.17558e-06
6.14154e-06
6.10857e-06
6.07638e-06
6.04553e-06
6.01577e-06
5.98768e-06
5.96103e-06
5.9364e-06
5.9133e-06
5.89207e-06
5.87213e-06
5.85376e-06
5.83636e-06
5.82018e-06
5.80455e-06
5.7897e-06
5.77526e-06
5.76129e-06
5.74754e-06
5.73394e-06
5.72037e-06
5.70684e-06
5.69321e-06
5.67937e-06
5.66543e-06
5.65135e-06
5.63703e-06
3.27916e-06
3.2698e-06
3.26932e-06
3.26833e-06
3.26774e-06
3.26699e-06
3.26627e-06
3.26552e-06
3.2647e-06
3.26384e-06
3.26295e-06
3.2621e-06
3.26122e-06
3.2603e-06
3.25935e-06
3.25834e-06
3.25728e-06
3.2562e-06
3.2551e-06
3.25397e-06
3.2528e-06
3.2516e-06
3.25042e-06
3.24917e-06
3.24792e-06
3.24667e-06
3.24537e-06
3.24405e-06
3.24273e-06
3.24135e-06
3.23995e-06
3.23854e-06
3.2371e-06
3.23563e-06
3.23411e-06
3.23257e-06
3.23103e-06
3.22946e-06
3.22787e-06
3.22626e-06
3.22465e-06
3.22294e-06
3.22118e-06
3.21944e-06
3.21771e-06
3.21608e-06
3.21455e-06
3.21289e-06
3.21106e-06
3.20963e-06
3.20932e-06
3.21007e-06
3.2102e-06
3.20807e-06
3.20389e-06
3.20236e-06
3.20779e-06
3.22343e-06
3.24138e-06
3.25239e-06
3.2511e-06
3.22984e-06
3.19503e-06
3.17868e-06
3.20391e-06
3.26979e-06
3.36817e-06
3.58869e-06
4.45518e-06
4.48807e-06
2.64178e-06
2.74248e-06
3.39697e-06
2.99837e-06
2.31167e-06
5.20666e-06
4.88423e-06
1.45453e-05
1.33289e-05
9.32581e-06
7.77889e-06
7.95728e-06
6.89387e-06
1.07382e-05
1.62342e-05
1.72465e-05
1.73978e-05
1.70027e-05
1.66545e-05
1.64727e-05
1.63999e-05
1.64181e-05
1.64631e-05
1.64793e-05
1.64642e-05
1.64282e-05
1.63862e-05
1.63622e-05
1.63677e-05
1.61787e-05
8.96109e-06
8.96159e-06
8.96305e-06
8.96507e-06
8.96864e-06
8.9734e-06
8.97867e-06
8.98403e-06
8.9896e-06
8.99552e-06
9.00165e-06
9.00793e-06
9.01434e-06
9.02076e-06
9.0272e-06
9.03368e-06
9.04009e-06
9.04644e-06
9.05272e-06
9.05899e-06
9.06521e-06
9.07133e-06
9.07735e-06
9.0833e-06
9.08924e-06
9.09509e-06
9.10087e-06
9.10669e-06
9.11252e-06
9.11831e-06
9.12418e-06
9.13015e-06
9.13615e-06
9.14231e-06
9.14862e-06
9.15505e-06
9.16173e-06
9.16871e-06
9.17597e-06
9.18342e-06
9.19102e-06
9.19884e-06
9.20682e-06
9.21487e-06
9.2229e-06
9.23096e-06
9.23882e-06
9.24654e-06
9.25405e-06
9.27353e-06
1.75401e-05
9.28674e-06
1.75464e-05
1.75697e-05
1.75934e-05
1.76176e-05
1.76422e-05
1.76673e-05
1.76928e-05
1.77188e-05
1.77455e-05
1.77732e-05
1.78022e-05
1.78326e-05
1.78647e-05
1.78986e-05
1.79355e-05
1.79753e-05
1.80193e-05
1.8067e-05
1.8119e-05
1.81753e-05
1.82373e-05
1.83044e-05
1.83774e-05
1.84554e-05
1.85397e-05
1.86293e-05
1.87247e-05
1.88245e-05
1.89296e-05
1.90388e-05
1.91519e-05
1.92671e-05
1.93847e-05
1.95034e-05
1.96235e-05
1.9744e-05
1.9865e-05
1.99849e-05
2.01034e-05
2.02193e-05
2.03326e-05
2.04424e-05
2.05481e-05
2.06482e-05
2.07424e-05
2.08295e-05
2.08707e-05
1.03246e-05
1.03409e-05
1.03536e-05
1.03625e-05
1.03671e-05
1.03671e-05
1.03618e-05
1.03507e-05
1.03331e-05
1.03208e-05
2.08639e-05
2.07354e-05
2.05296e-05
1.01588e-05
1.01487e-05
1.01945e-05
1.02866e-05
1.0376e-05
1.04214e-05
1.03567e-05
1.01972e-05
1.9827e-05
1.59145e-05
1.54597e-05
1.42304e-05
1.15235e-05
7.08388e-06
1.66258e-06
7.37386e-06
1.17426e-05
1.43987e-05
1.55904e-05
1.59103e-05
1.28019e-05
2.06383e-05
2.11758e-05
1.0402e-05
1.02332e-05
9.99834e-06
9.83313e-06
9.82441e-06
9.90584e-06
1.98426e-05
2.01614e-05
2.03604e-05
1.02023e-05
1.02293e-05
1.02609e-05
1.02852e-05
1.0303e-05
1.03147e-05
1.03209e-05
1.03218e-05
1.03183e-05
1.03111e-05
2.08248e-05
2.08245e-05
2.07702e-05
2.07082e-05
2.06393e-05
2.05649e-05
2.04851e-05
2.04011e-05
2.03128e-05
2.02211e-05
2.01263e-05
2.00297e-05
1.99314e-05
1.98325e-05
1.97326e-05
1.96329e-05
1.95334e-05
1.94353e-05
1.93384e-05
1.92436e-05
1.91508e-05
1.90611e-05
1.89744e-05
1.88918e-05
1.88132e-05
1.87399e-05
1.86711e-05
1.86075e-05
1.85478e-05
1.84925e-05
1.84403e-05
1.83915e-05
1.83446e-05
1.83e-05
1.82568e-05
1.8215e-05
1.8174e-05
1.81336e-05
1.80934e-05
1.80534e-05
1.80132e-05
1.79725e-05
1.79314e-05
1.78897e-05
1.78476e-05
9.37325e-06
9.34547e-06
9.33232e-06
9.3192e-06
9.30589e-06
9.29254e-06
9.27909e-06
9.26573e-06
9.25229e-06
9.23899e-06
9.22585e-06
9.21333e-06
9.20114e-06
9.1892e-06
9.17755e-06
9.16617e-06
9.15506e-06
9.14429e-06
9.13391e-06
9.12384e-06
9.11407e-06
9.10455e-06
9.0954e-06
9.08646e-06
9.0778e-06
9.06942e-06
9.06117e-06
9.05313e-06
9.04529e-06
9.03755e-06
9.02994e-06
9.02246e-06
9.0151e-06
9.00782e-06
9.0006e-06
8.99349e-06
8.98655e-06
8.97969e-06
8.97294e-06
8.96631e-06
8.95986e-06
8.95355e-06
8.94739e-06
8.94149e-06
8.93584e-06
8.93051e-06
8.92562e-06
8.92103e-06
8.91661e-06
8.91276e-06
8.91018e-06
8.9092e-06
8.90884e-06
8.9077e-06
8.90535e-06
8.9046e-06
8.90998e-06
8.92469e-06
8.9446e-06
8.96304e-06
8.97405e-06
8.97108e-06
8.95697e-06
8.95118e-06
8.97863e-06
9.04348e-06
9.16701e-06
9.40695e-06
1.27861e-05
1.4348e-05
8.57879e-06
7.42448e-06
8.71807e-06
8.09745e-06
7.78552e-06
1.33247e-05
1.44463e-05
2.9082e-05
1.95398e-05
1.68492e-05
1.4414e-05
1.17805e-05
1.06482e-05
1.944e-05
2.6388e-05
2.74931e-05
2.83621e-05
2.81013e-05
2.77424e-05
2.75624e-05
2.74825e-05
2.74808e-05
2.75064e-05
2.7516e-05
2.74999e-05
2.74683e-05
2.74362e-05
2.74214e-05
2.74301e-05
2.70442e-05
1.66062e-05
1.66049e-05
1.66072e-05
1.66119e-05
1.6619e-05
1.66274e-05
1.66365e-05
1.66461e-05
1.66564e-05
1.66673e-05
1.66788e-05
1.66905e-05
1.67025e-05
1.67146e-05
1.67268e-05
1.67391e-05
1.67514e-05
1.67636e-05
1.67758e-05
1.67879e-05
1.68e-05
1.6812e-05
1.68239e-05
1.68358e-05
1.68476e-05
1.68593e-05
1.6871e-05
1.68828e-05
1.68947e-05
1.69066e-05
1.69188e-05
1.69312e-05
1.69438e-05
1.69569e-05
1.69703e-05
1.69841e-05
1.69985e-05
1.70136e-05
1.70292e-05
1.70453e-05
1.70617e-05
1.70786e-05
1.70958e-05
1.71131e-05
1.71304e-05
1.71475e-05
1.71641e-05
1.71805e-05
1.71965e-05
1.7249e-05
2.93875e-05
1.72758e-05
2.93715e-05
2.94095e-05
2.94481e-05
2.94871e-05
2.95267e-05
2.95668e-05
2.96079e-05
2.96497e-05
2.96927e-05
2.97373e-05
2.97842e-05
2.98337e-05
2.98863e-05
2.99424e-05
3.00038e-05
3.00707e-05
3.01446e-05
3.02253e-05
3.03136e-05
3.04097e-05
3.05154e-05
3.06301e-05
3.07543e-05
3.08868e-05
3.10279e-05
3.11775e-05
3.13354e-05
3.15001e-05
3.16722e-05
3.18499e-05
3.2032e-05
3.22166e-05
3.24032e-05
3.25903e-05
3.27777e-05
3.29645e-05
3.31501e-05
3.33331e-05
3.35125e-05
3.36872e-05
3.38567e-05
3.40198e-05
3.41756e-05
3.43224e-05
3.44592e-05
3.45841e-05
3.46222e-05
1.96922e-05
1.97293e-05
1.97573e-05
1.97756e-05
1.97834e-05
1.97794e-05
1.97626e-05
1.97315e-05
1.96847e-05
1.9656e-05
3.45443e-05
3.43485e-05
3.40253e-05
1.92491e-05
1.9231e-05
1.93481e-05
1.95655e-05
1.97561e-05
1.98361e-05
1.96156e-05
1.90954e-05
3.1955e-05
2.62697e-05
2.48085e-05
2.20816e-05
1.73924e-05
1.07268e-05
2.87408e-06
1.11389e-05
1.77193e-05
2.23653e-05
2.50414e-05
2.63673e-05
2.37312e-05
3.36272e-05
3.47046e-05
1.98247e-05
1.9468e-05
1.89201e-05
1.85036e-05
1.84621e-05
1.865e-05
3.30177e-05
3.35227e-05
3.38367e-05
1.93811e-05
1.94528e-05
1.95333e-05
1.95951e-05
1.96406e-05
1.96713e-05
1.96883e-05
1.96927e-05
1.9686e-05
1.96695e-05
3.45928e-05
3.46124e-05
3.45343e-05
3.44438e-05
3.43427e-05
3.42324e-05
3.41139e-05
3.39881e-05
3.38556e-05
3.37172e-05
3.35737e-05
3.34263e-05
3.32757e-05
3.31229e-05
3.29678e-05
3.28117e-05
3.26552e-05
3.24997e-05
3.23454e-05
3.21937e-05
3.20448e-05
3.19e-05
3.17597e-05
3.16255e-05
3.14977e-05
3.13777e-05
3.12651e-05
3.11605e-05
3.10626e-05
3.09716e-05
3.08859e-05
3.08055e-05
3.07288e-05
3.06556e-05
3.05849e-05
3.05161e-05
3.04488e-05
3.03827e-05
3.03171e-05
3.02519e-05
3.01864e-05
3.01203e-05
3.00534e-05
2.99855e-05
2.99166e-05
1.74713e-05
1.74035e-05
1.73749e-05
1.73471e-05
1.73184e-05
1.72897e-05
1.72606e-05
1.72317e-05
1.72026e-05
1.71738e-05
1.71452e-05
1.71183e-05
1.70922e-05
1.70665e-05
1.70413e-05
1.70168e-05
1.69929e-05
1.69696e-05
1.69471e-05
1.69254e-05
1.69043e-05
1.68838e-05
1.6864e-05
1.68449e-05
1.68265e-05
1.68086e-05
1.67911e-05
1.67742e-05
1.67577e-05
1.67416e-05
1.67259e-05
1.67104e-05
1.66953e-05
1.66804e-05
1.66658e-05
1.66515e-05
1.66376e-05
1.6624e-05
1.66106e-05
1.65976e-05
1.6585e-05
1.65728e-05
1.6561e-05
1.65498e-05
1.65392e-05
1.65293e-05
1.65202e-05
1.65121e-05
1.65046e-05
1.64979e-05
1.64928e-05
1.64902e-05
1.64899e-05
1.64905e-05
1.64907e-05
1.64914e-05
1.64979e-05
1.65137e-05
1.65372e-05
1.65673e-05
1.65977e-05
1.66184e-05
1.6627e-05
1.6633e-05
1.66674e-05
1.67342e-05
1.6882e-05
1.71011e-05
2.18743e-05
2.38943e-05
1.61383e-05
1.11857e-05
1.30268e-05
1.53899e-05
1.51596e-05
1.99244e-05
2.89974e-05
4.70048e-05
3.00221e-05
2.44429e-05
2.36349e-05
1.78819e-05
1.42553e-05
2.85638e-05
3.52932e-05
3.65723e-05
3.8279e-05
3.83535e-05
3.81161e-05
3.80002e-05
3.79245e-05
3.78785e-05
3.78625e-05
3.7866e-05
3.78681e-05
3.78688e-05
3.78741e-05
3.78861e-05
3.7898e-05
3.73378e-05
2.63513e-05
2.63492e-05
2.63516e-05
2.63591e-05
2.63702e-05
2.63831e-05
2.63968e-05
2.64116e-05
2.64277e-05
2.6445e-05
2.64632e-05
2.6482e-05
2.65012e-05
2.65208e-05
2.65406e-05
2.65607e-05
2.65808e-05
2.66009e-05
2.66211e-05
2.66412e-05
2.66613e-05
2.66814e-05
2.67014e-05
2.67215e-05
2.67415e-05
2.67615e-05
2.67817e-05
2.6802e-05
2.68227e-05
2.68435e-05
2.68648e-05
2.68866e-05
2.69089e-05
2.6932e-05
2.69559e-05
2.69805e-05
2.70063e-05
2.70331e-05
2.70609e-05
2.70895e-05
2.71187e-05
2.71485e-05
2.71787e-05
2.7209e-05
2.72389e-05
2.72685e-05
2.7297e-05
2.73251e-05
2.73528e-05
2.74527e-05
4.05829e-05
2.74991e-05
4.06096e-05
4.06627e-05
4.0716e-05
4.07693e-05
4.08232e-05
4.08779e-05
4.09336e-05
4.09904e-05
4.10489e-05
4.11099e-05
4.11741e-05
4.12423e-05
4.13153e-05
4.13941e-05
4.14805e-05
4.15758e-05
4.16811e-05
4.1797e-05
4.19241e-05
4.20636e-05
4.22167e-05
4.23832e-05
4.2563e-05
4.27555e-05
4.29595e-05
4.31754e-05
4.34018e-05
4.36378e-05
4.38824e-05
4.41339e-05
4.43895e-05
4.46473e-05
4.49055e-05
4.51627e-05
4.54175e-05
4.56694e-05
4.59169e-05
4.61593e-05
4.63949e-05
4.66232e-05
4.68427e-05
4.70525e-05
4.72508e-05
4.74366e-05
4.76078e-05
4.77618e-05
4.77907e-05
3.15329e-05
3.15915e-05
3.16339e-05
3.16596e-05
3.1667e-05
3.16541e-05
3.16191e-05
3.15597e-05
3.14747e-05
3.14408e-05
4.75982e-05
4.73455e-05
4.69282e-05
3.07209e-05
3.06951e-05
3.09016e-05
3.12697e-05
3.15969e-05
3.18077e-05
3.14827e-05
3.0592e-05
4.22586e-05
3.58305e-05
3.28526e-05
2.83378e-05
2.179e-05
1.35327e-05
4.177e-06
1.40181e-05
2.21891e-05
2.87266e-05
3.31882e-05
3.60682e-05
3.58065e-05
4.53611e-05
4.71954e-05
3.17588e-05
3.11332e-05
3.02195e-05
2.94761e-05
2.9369e-05
2.96705e-05
4.56863e-05
4.63607e-05
4.67827e-05
3.09465e-05
3.1062e-05
3.12073e-05
3.13203e-05
3.14051e-05
3.14643e-05
3.14994e-05
3.15125e-05
3.15062e-05
3.14825e-05
4.78288e-05
4.78682e-05
4.77709e-05
4.76564e-05
4.75279e-05
4.73863e-05
4.72336e-05
4.70704e-05
4.68978e-05
4.67168e-05
4.65283e-05
4.6333e-05
4.61325e-05
4.59268e-05
4.57171e-05
4.55039e-05
4.52892e-05
4.50742e-05
4.48605e-05
4.46489e-05
4.44411e-05
4.4238e-05
4.40413e-05
4.38522e-05
4.36722e-05
4.35023e-05
4.33432e-05
4.31948e-05
4.30565e-05
4.29272e-05
4.28064e-05
4.26924e-05
4.25845e-05
4.24811e-05
4.2382e-05
4.22854e-05
4.21913e-05
4.20991e-05
4.2008e-05
4.19175e-05
4.18268e-05
4.17353e-05
4.16426e-05
4.15482e-05
4.14521e-05
2.78468e-05
2.7721e-05
2.76707e-05
2.76227e-05
2.75728e-05
2.75229e-05
2.74725e-05
2.7422e-05
2.73713e-05
2.73208e-05
2.72705e-05
2.72238e-05
2.71785e-05
2.71338e-05
2.709e-05
2.70471e-05
2.7005e-05
2.6964e-05
2.69242e-05
2.68855e-05
2.68481e-05
2.68118e-05
2.67767e-05
2.67428e-05
2.67101e-05
2.66784e-05
2.66476e-05
2.66178e-05
2.65889e-05
2.65607e-05
2.65332e-05
2.65064e-05
2.64802e-05
2.64546e-05
2.64295e-05
2.6405e-05
2.63813e-05
2.63581e-05
2.63355e-05
2.63136e-05
2.62925e-05
2.62722e-05
2.62528e-05
2.62344e-05
2.62171e-05
2.62009e-05
2.61865e-05
2.61737e-05
2.61622e-05
2.6152e-05
2.61438e-05
2.61396e-05
2.61401e-05
2.61442e-05
2.61489e-05
2.61518e-05
2.61588e-05
2.61751e-05
2.62049e-05
2.6257e-05
2.63224e-05
2.63819e-05
2.64227e-05
2.64405e-05
2.64719e-05
2.65225e-05
2.66727e-05
2.69973e-05
3.14235e-05
3.29272e-05
2.55167e-05
1.48341e-05
1.99486e-05
2.50809e-05
2.39115e-05
2.99326e-05
4.70462e-05
6.73175e-05
4.43103e-05
3.20525e-05
3.46437e-05
2.54104e-05
2.00168e-05
3.7614e-05
4.33739e-05
4.49219e-05
4.70965e-05
4.7527e-05
4.74562e-05
4.74144e-05
4.73348e-05
4.72368e-05
4.7181e-05
4.71896e-05
4.72302e-05
4.72875e-05
4.73497e-05
4.73995e-05
4.7416e-05
4.67966e-05
3.89208e-05
3.89182e-05
3.89198e-05
3.89304e-05
3.89463e-05
3.89643e-05
3.89833e-05
3.90041e-05
3.90271e-05
3.90522e-05
3.90786e-05
3.91059e-05
3.91341e-05
3.91628e-05
3.91921e-05
3.92219e-05
3.92519e-05
3.9282e-05
3.93123e-05
3.93427e-05
3.93732e-05
3.94039e-05
3.94347e-05
3.94655e-05
3.94966e-05
3.95278e-05
3.95594e-05
3.95913e-05
3.96239e-05
3.96569e-05
3.96907e-05
3.97253e-05
3.9761e-05
3.97978e-05
3.98359e-05
3.98754e-05
3.99165e-05
3.99591e-05
4.0003e-05
4.0048e-05
4.00935e-05
4.01397e-05
4.01861e-05
4.02321e-05
4.02773e-05
4.03215e-05
4.0364e-05
4.04053e-05
4.04466e-05
4.06072e-05
5.07961e-05
4.06788e-05
5.098e-05
5.10501e-05
5.11196e-05
5.11887e-05
5.12583e-05
5.13288e-05
5.14004e-05
5.14734e-05
5.15486e-05
5.16271e-05
5.17101e-05
5.17988e-05
5.18944e-05
5.19987e-05
5.21136e-05
5.22416e-05
5.23831e-05
5.25404e-05
5.27134e-05
5.29051e-05
5.31154e-05
5.33447e-05
5.35924e-05
5.38596e-05
5.41435e-05
5.44439e-05
5.47577e-05
5.50853e-05
5.54231e-05
5.57693e-05
5.61189e-05
5.64705e-05
5.68196e-05
5.71654e-05
5.75041e-05
5.7836e-05
5.8158e-05
5.84717e-05
5.87739e-05
5.90655e-05
5.93432e-05
5.96069e-05
5.98536e-05
6.00835e-05
6.02932e-05
6.0479e-05
6.05133e-05
4.64508e-05
4.65309e-05
4.65861e-05
4.66151e-05
4.66157e-05
4.65853e-05
4.65208e-05
4.64193e-05
4.62808e-05
4.62461e-05
6.01805e-05
5.98725e-05
5.93888e-05
4.50913e-05
4.50369e-05
4.53436e-05
4.59074e-05
4.6482e-05
4.71121e-05
4.69088e-05
4.54495e-05
5.08958e-05
4.41565e-05
3.93339e-05
3.29196e-05
2.47698e-05
1.55646e-05
5.59033e-06
1.60806e-05
2.52037e-05
3.33993e-05
3.97643e-05
4.45277e-05
4.69539e-05
5.55795e-05
5.85834e-05
4.68145e-05
4.5694e-05
4.43103e-05
4.31398e-05
4.2942e-05
4.33825e-05
5.79853e-05
5.88214e-05
5.93598e-05
4.53728e-05
4.55493e-05
4.57879e-05
4.5978e-05
4.61241e-05
4.62298e-05
4.62979e-05
4.63309e-05
4.63331e-05
4.63079e-05
6.07026e-05
6.07434e-05
6.06225e-05
6.04787e-05
6.03175e-05
6.01387e-05
5.99453e-05
5.97374e-05
5.95173e-05
5.92854e-05
5.90433e-05
5.87905e-05
5.8529e-05
5.8258e-05
5.79801e-05
5.7695e-05
5.74068e-05
5.71159e-05
5.68267e-05
5.65391e-05
5.62571e-05
5.59802e-05
5.57127e-05
5.54547e-05
5.52099e-05
5.49777e-05
5.47613e-05
5.45587e-05
5.43709e-05
5.41949e-05
5.40314e-05
5.38766e-05
5.37312e-05
5.35915e-05
5.34582e-05
5.33291e-05
5.32037e-05
5.30814e-05
5.29608e-05
5.28411e-05
5.27213e-05
5.26006e-05
5.24781e-05
5.23529e-05
5.22247e-05
4.11469e-05
4.09385e-05
4.08676e-05
4.08019e-05
4.07334e-05
4.06655e-05
4.05966e-05
4.05275e-05
4.04577e-05
4.03876e-05
4.03177e-05
4.02494e-05
4.01818e-05
4.01148e-05
4.00484e-05
3.99828e-05
3.99182e-05
3.98548e-05
3.97928e-05
3.97323e-05
3.96734e-05
3.96161e-05
3.95606e-05
3.95069e-05
3.94548e-05
3.94045e-05
3.93556e-05
3.93083e-05
3.92624e-05
3.92177e-05
3.91741e-05
3.91317e-05
3.90904e-05
3.90501e-05
3.90107e-05
3.89723e-05
3.89351e-05
3.88989e-05
3.88637e-05
3.88297e-05
3.87971e-05
3.87659e-05
3.87362e-05
3.87081e-05
3.86818e-05
3.86574e-05
3.86357e-05
3.86169e-05
3.86003e-05
3.85853e-05
3.85731e-05
3.85666e-05
3.85689e-05
3.85784e-05
3.85899e-05
3.85949e-05
3.85985e-05
3.86089e-05
3.86375e-05
3.8705e-05
3.87996e-05
3.89064e-05
3.9014e-05
3.90738e-05
3.90871e-05
3.90712e-05
3.91257e-05
3.907e-05
4.09704e-05
4.13692e-05
3.5583e-05
2.06952e-05
2.83524e-05
3.64146e-05
3.31459e-05
4.3927e-05
6.77636e-05
8.94414e-05
6.17641e-05
3.99188e-05
4.30788e-05
3.38935e-05
2.81091e-05
4.62109e-05
5.08173e-05
5.28916e-05
5.527e-05
5.59568e-05
5.60287e-05
5.60388e-05
5.59435e-05
5.58027e-05
5.57257e-05
5.57539e-05
5.5845e-05
5.59682e-05
5.60918e-05
5.61809e-05
5.62105e-05
5.5695e-05
5.10973e-05
5.11282e-05
5.11668e-05
5.1212e-05
5.12582e-05
5.13035e-05
5.13493e-05
5.13973e-05
5.14473e-05
5.14986e-05
5.15504e-05
5.16025e-05
5.16549e-05
5.17074e-05
5.17599e-05
5.18122e-05
5.18644e-05
5.19162e-05
5.19678e-05
5.20192e-05
5.20705e-05
5.21217e-05
5.2173e-05
5.22243e-05
5.22759e-05
5.23281e-05
5.23811e-05
5.2435e-05
5.24902e-05
5.25468e-05
5.26053e-05
5.26657e-05
5.2729e-05
5.2795e-05
5.28643e-05
5.29367e-05
5.3013e-05
5.30928e-05
5.31758e-05
5.32615e-05
5.33493e-05
5.34391e-05
5.35297e-05
5.362e-05
5.37089e-05
5.37958e-05
5.38786e-05
5.3959e-05
5.40366e-05
5.42047e-05
6.04518e-05
5.43308e-05
6.07333e-05
6.08221e-05
6.091e-05
6.09975e-05
6.10854e-05
6.11743e-05
6.12648e-05
6.13571e-05
6.14525e-05
6.15523e-05
6.16584e-05
6.17724e-05
6.18961e-05
6.20323e-05
6.21829e-05
6.23518e-05
6.25387e-05
6.27476e-05
6.29777e-05
6.32339e-05
6.35144e-05
6.38208e-05
6.4151e-05
6.45089e-05
6.4889e-05
6.52908e-05
6.57092e-05
6.61459e-05
6.65942e-05
6.70527e-05
6.75138e-05
6.79766e-05
6.84339e-05
6.88853e-05
6.93245e-05
6.97529e-05
7.01656e-05
7.05665e-05
7.09511e-05
7.13217e-05
7.16728e-05
7.20053e-05
7.23143e-05
7.2602e-05
7.28628e-05
7.30929e-05
7.31779e-05
6.46891e-05
6.4811e-05
6.48945e-05
6.49388e-05
6.49399e-05
6.48937e-05
6.47969e-05
6.46448e-05
6.4435e-05
6.42845e-05
7.26518e-05
7.22785e-05
7.17705e-05
6.28972e-05
6.29951e-05
6.35623e-05
6.43029e-05
6.45493e-05
6.38985e-05
6.18946e-05
5.84936e-05
5.84261e-05
5.0953e-05
4.4087e-05
3.57937e-05
2.64228e-05
1.69189e-05
7.17675e-06
1.74299e-05
2.68526e-05
3.63492e-05
4.45994e-05
5.14383e-05
5.65356e-05
6.48115e-05
6.94426e-05
6.45357e-05
6.4232e-05
6.23553e-05
6.05539e-05
6.00696e-05
6.05851e-05
7.01695e-05
7.11572e-05
7.18406e-05
6.34365e-05
6.37641e-05
6.4113e-05
6.4384e-05
6.45874e-05
6.47311e-05
6.48194e-05
6.48558e-05
6.48472e-05
6.4797e-05
7.35685e-05
7.35657e-05
7.341e-05
7.3226e-05
7.30204e-05
7.27914e-05
7.25441e-05
7.22778e-05
7.1996e-05
7.16987e-05
7.13885e-05
7.10632e-05
7.07259e-05
7.0374e-05
7.00124e-05
6.96398e-05
6.92626e-05
6.88804e-05
6.85008e-05
6.81223e-05
6.77517e-05
6.73868e-05
6.70349e-05
6.66946e-05
6.63722e-05
6.60655e-05
6.57801e-05
6.55121e-05
6.52646e-05
6.50319e-05
6.48166e-05
6.46121e-05
6.44212e-05
6.42375e-05
6.40626e-05
6.38941e-05
6.37312e-05
6.35727e-05
6.34169e-05
6.32627e-05
6.31086e-05
6.29536e-05
6.27962e-05
6.26354e-05
6.24705e-05
5.55169e-05
5.5283e-05
5.51489e-05
5.50184e-05
5.48813e-05
5.47433e-05
5.46029e-05
5.44616e-05
5.43192e-05
5.41762e-05
5.40337e-05
5.38929e-05
5.37537e-05
5.36163e-05
5.34813e-05
5.33491e-05
5.32202e-05
5.30948e-05
5.29734e-05
5.28559e-05
5.27429e-05
5.2634e-05
5.25293e-05
5.24289e-05
5.23327e-05
5.22403e-05
5.21515e-05
5.20663e-05
5.19841e-05
5.19048e-05
5.18281e-05
5.17537e-05
5.16817e-05
5.16118e-05
5.15438e-05
5.14777e-05
5.14136e-05
5.13512e-05
5.12906e-05
5.12318e-05
5.11748e-05
5.11197e-05
5.10666e-05
5.10155e-05
5.09664e-05
5.09193e-05
5.08748e-05
5.08336e-05
5.07956e-05
5.07593e-05
5.07233e-05
5.06891e-05
5.0662e-05
5.06463e-05
5.06416e-05
5.0635e-05
5.06176e-05
5.05819e-05
5.05318e-05
5.05053e-05
5.05195e-05
5.05862e-05
5.07182e-05
5.08556e-05
5.09314e-05
5.09094e-05
5.08636e-05
5.03773e-05
5.01561e-05
4.91087e-05
4.49667e-05
2.87141e-05
3.77364e-05
4.63195e-05
4.27817e-05
6.10562e-05
9.0587e-05
0.000112891
8.23171e-05
5.03354e-05
4.98577e-05
4.3327e-05
3.88409e-05
5.41404e-05
5.76092e-05
6.05576e-05
6.31281e-05
6.3968e-05
6.41323e-05
6.41653e-05
6.40529e-05
6.38928e-05
6.38282e-05
6.39022e-05
6.40587e-05
6.42527e-05
6.44352e-05
6.45619e-05
6.46164e-05
6.42786e-05
6.18377e-05
6.19078e-05
6.19871e-05
6.20695e-05
6.21481e-05
6.22231e-05
6.22981e-05
6.23753e-05
6.24537e-05
6.25323e-05
6.26104e-05
6.2688e-05
6.27652e-05
6.28419e-05
6.29178e-05
6.29929e-05
6.30674e-05
6.31411e-05
6.32141e-05
6.32867e-05
6.33589e-05
6.3431e-05
6.35031e-05
6.35753e-05
6.36479e-05
6.37217e-05
6.37968e-05
6.38737e-05
6.39526e-05
6.4034e-05
6.41184e-05
6.42063e-05
6.42991e-05
6.43963e-05
6.44988e-05
6.46065e-05
6.47203e-05
6.48395e-05
6.49637e-05
6.50923e-05
6.52243e-05
6.53591e-05
6.54953e-05
6.56307e-05
6.57637e-05
6.58933e-05
6.60164e-05
6.61353e-05
6.62483e-05
6.64219e-05
6.99882e-05
6.66021e-05
7.02776e-05
7.03871e-05
7.04963e-05
7.06053e-05
7.07149e-05
7.0826e-05
7.09392e-05
7.10551e-05
7.11753e-05
7.13017e-05
7.14367e-05
7.15826e-05
7.17418e-05
7.1918e-05
7.21134e-05
7.23331e-05
7.25762e-05
7.28485e-05
7.31483e-05
7.34824e-05
7.38472e-05
7.4245e-05
7.46729e-05
7.51367e-05
7.56286e-05
7.61473e-05
7.66861e-05
7.72479e-05
7.7823e-05
7.84103e-05
7.89997e-05
7.95907e-05
8.01735e-05
8.07481e-05
8.13056e-05
8.18481e-05
8.23692e-05
8.28753e-05
8.33605e-05
8.38287e-05
8.42716e-05
8.46913e-05
8.5081e-05
8.54444e-05
8.5774e-05
8.60669e-05
8.6238e-05
8.16368e-05
8.18108e-05
8.1935e-05
8.20081e-05
8.2024e-05
8.1977e-05
8.18637e-05
8.16776e-05
8.14138e-05
8.11555e-05
8.55899e-05
8.51514e-05
8.46522e-05
7.96881e-05
8.00206e-05
8.08996e-05
8.17024e-05
8.13106e-05
7.90931e-05
7.50189e-05
6.93758e-05
6.48913e-05
5.60244e-05
4.70115e-05
3.69799e-05
2.69079e-05
1.77356e-05
9.03925e-06
1.82146e-05
2.73186e-05
3.75976e-05
4.75894e-05
5.66024e-05
6.43566e-05
7.34033e-05
8.00975e-05
8.07662e-05
8.19174e-05
7.99716e-05
7.74744e-05
7.65036e-05
7.69713e-05
8.28648e-05
8.401e-05
8.48625e-05
8.05504e-05
8.10203e-05
8.14479e-05
8.17679e-05
8.19982e-05
8.2152e-05
8.22353e-05
8.22519e-05
8.2212e-05
8.21186e-05
8.6918e-05
8.68357e-05
8.66265e-05
8.63845e-05
8.61167e-05
8.58194e-05
8.54999e-05
8.51567e-05
8.47946e-05
8.44136e-05
8.40169e-05
8.36011e-05
8.31695e-05
8.27184e-05
8.22549e-05
8.17769e-05
8.12934e-05
8.08032e-05
8.0317e-05
7.98321e-05
7.93579e-05
7.88908e-05
7.84403e-05
7.80044e-05
7.75914e-05
7.71975e-05
7.68308e-05
7.6486e-05
7.61675e-05
7.58676e-05
7.55903e-05
7.53267e-05
7.50809e-05
7.48444e-05
7.46196e-05
7.44036e-05
7.41953e-05
7.39933e-05
7.37955e-05
7.36002e-05
7.34056e-05
7.32103e-05
7.30124e-05
7.28105e-05
7.26038e-05
6.85524e-05
6.82925e-05
6.80959e-05
6.79008e-05
6.76959e-05
6.74885e-05
6.72771e-05
6.70639e-05
6.68489e-05
6.66328e-05
6.64173e-05
6.62033e-05
6.59916e-05
6.57827e-05
6.55775e-05
6.53768e-05
6.51812e-05
6.49915e-05
6.48079e-05
6.46308e-05
6.44606e-05
6.42972e-05
6.41404e-05
6.39904e-05
6.38471e-05
6.37101e-05
6.3579e-05
6.34536e-05
6.33331e-05
6.32172e-05
6.31056e-05
6.29978e-05
6.28936e-05
6.27928e-05
6.26949e-05
6.26e-05
6.25078e-05
6.24182e-05
6.2331e-05
6.22463e-05
6.2164e-05
6.20839e-05
6.20062e-05
6.19309e-05
6.18578e-05
6.17865e-05
6.17175e-05
6.16518e-05
6.159e-05
6.15299e-05
6.1468e-05
6.14038e-05
6.13436e-05
6.12966e-05
6.1268e-05
6.12434e-05
6.12019e-05
6.11217e-05
6.09967e-05
6.08727e-05
6.07909e-05
6.07868e-05
6.08998e-05
6.10778e-05
6.12009e-05
6.1186e-05
6.10695e-05
6.03351e-05
5.87595e-05
5.60693e-05
5.33629e-05
3.91684e-05
4.79792e-05
5.41907e-05
5.32811e-05
8.13393e-05
0.000115058
0.000137211
0.000106162
6.36188e-05
5.57634e-05
5.4102e-05
5.15534e-05
6.12346e-05
6.39294e-05
6.77783e-05
7.0468e-05
7.1375e-05
7.15945e-05
7.1638e-05
7.15237e-05
7.13788e-05
7.13651e-05
7.15122e-05
7.17469e-05
7.20143e-05
7.2253e-05
7.24182e-05
7.25067e-05
7.23364e-05
7.11465e-05
7.12584e-05
7.13795e-05
7.14994e-05
7.16115e-05
7.17178e-05
7.18235e-05
7.19309e-05
7.20385e-05
7.2145e-05
7.22499e-05
7.23534e-05
7.24557e-05
7.25568e-05
7.26564e-05
7.27545e-05
7.28516e-05
7.29474e-05
7.30422e-05
7.31363e-05
7.32301e-05
7.33236e-05
7.34173e-05
7.35113e-05
7.3606e-05
7.37025e-05
7.38011e-05
7.39023e-05
7.40065e-05
7.41146e-05
7.4227e-05
7.43447e-05
7.44692e-05
7.46002e-05
7.47386e-05
7.48843e-05
7.50382e-05
7.51995e-05
7.53673e-05
7.55408e-05
7.57185e-05
7.58997e-05
7.6082e-05
7.62629e-05
7.64401e-05
7.66119e-05
7.67747e-05
7.6931e-05
7.70785e-05
7.72628e-05
7.92562e-05
7.74974e-05
7.95488e-05
7.96818e-05
7.98157e-05
7.99501e-05
8.00855e-05
8.02229e-05
8.03635e-05
8.0508e-05
8.06586e-05
8.08176e-05
8.09881e-05
8.11732e-05
8.1376e-05
8.16012e-05
8.18512e-05
8.21321e-05
8.24427e-05
8.27902e-05
8.31726e-05
8.35979e-05
8.40608e-05
8.45639e-05
8.5104e-05
8.5689e-05
8.6308e-05
8.69591e-05
8.7634e-05
8.83369e-05
8.90555e-05
8.97884e-05
9.05234e-05
9.126e-05
9.19857e-05
9.27008e-05
9.33934e-05
9.40663e-05
9.47116e-05
9.53385e-05
9.59401e-05
9.65214e-05
9.70716e-05
9.75937e-05
9.8079e-05
9.85334e-05
9.89469e-05
9.93181e-05
9.9587e-05
9.72836e-05
9.75182e-05
9.76932e-05
9.78065e-05
9.78495e-05
9.78152e-05
9.76998e-05
9.74954e-05
9.71953e-05
9.68543e-05
9.89855e-05
9.84992e-05
9.80293e-05
9.54121e-05
9.60074e-05
9.71781e-05
9.79222e-05
9.66867e-05
9.27113e-05
8.63539e-05
7.82204e-05
7.00212e-05
5.9239e-05
4.80749e-05
3.65604e-05
2.64715e-05
1.81954e-05
1.11554e-05
1.8626e-05
2.6828e-05
3.72311e-05
4.86959e-05
5.98878e-05
7.03234e-05
8.10825e-05
9.02796e-05
9.54455e-05
9.83733e-05
9.66645e-05
9.35628e-05
9.20486e-05
9.23918e-05
9.61433e-05
9.74435e-05
9.84592e-05
9.65845e-05
9.71712e-05
9.76559e-05
9.80053e-05
9.82442e-05
9.8391e-05
9.84538e-05
9.84365e-05
9.83522e-05
9.82044e-05
0.000100656
0.000100482
0.000100203
9.98869e-05
9.95414e-05
9.91606e-05
9.87534e-05
9.83181e-05
9.78604e-05
9.73801e-05
9.68819e-05
9.63605e-05
9.58189e-05
9.52523e-05
9.46703e-05
9.40703e-05
9.3464e-05
9.28496e-05
9.22408e-05
9.16343e-05
9.10418e-05
9.04582e-05
8.98953e-05
8.93503e-05
8.88335e-05
8.83399e-05
8.78796e-05
8.74463e-05
8.70456e-05
8.66677e-05
8.63179e-05
8.59852e-05
8.56749e-05
8.53765e-05
8.50927e-05
8.48204e-05
8.45585e-05
8.4305e-05
8.40574e-05
8.38136e-05
8.35714e-05
8.3329e-05
8.30838e-05
8.28341e-05
8.25793e-05
8.02456e-05
7.99518e-05
7.96935e-05
7.94344e-05
7.91631e-05
7.88875e-05
7.86066e-05
7.83228e-05
7.80364e-05
7.77481e-05
7.746e-05
7.71734e-05
7.68892e-05
7.66084e-05
7.63321e-05
7.60616e-05
7.57978e-05
7.55415e-05
7.52935e-05
7.50541e-05
7.48238e-05
7.46029e-05
7.43908e-05
7.4188e-05
7.39946e-05
7.38098e-05
7.36335e-05
7.34651e-05
7.33038e-05
7.31491e-05
7.30004e-05
7.2857e-05
7.27188e-05
7.25853e-05
7.24559e-05
7.23306e-05
7.2209e-05
7.20908e-05
7.19758e-05
7.18639e-05
7.1755e-05
7.16487e-05
7.15453e-05
7.14446e-05
7.13462e-05
7.12494e-05
7.11547e-05
7.1063e-05
7.09755e-05
7.08898e-05
7.08007e-05
7.07057e-05
7.06113e-05
7.05299e-05
7.04713e-05
7.04226e-05
7.03545e-05
7.02342e-05
7.00453e-05
6.98337e-05
6.96569e-05
6.95655e-05
6.96234e-05
6.97976e-05
6.9939e-05
6.99291e-05
6.9765e-05
6.89188e-05
6.66269e-05
6.26537e-05
6.07374e-05
5.26727e-05
5.93177e-05
6.05197e-05
6.54389e-05
0.000104944
0.000140743
0.000161948
0.000133251
7.95535e-05
6.5856e-05
6.72135e-05
6.34887e-05
6.74204e-05
6.99309e-05
7.43345e-05
7.69997e-05
7.79295e-05
7.81953e-05
7.82603e-05
7.8174e-05
7.8082e-05
7.81505e-05
7.83882e-05
7.87051e-05
7.90438e-05
7.9336e-05
7.95418e-05
7.96712e-05
7.96372e-05
7.91369e-05
7.92931e-05
7.94571e-05
7.96156e-05
7.97627e-05
7.99025e-05
8.0041e-05
8.01801e-05
8.03183e-05
8.04539e-05
8.05868e-05
8.07173e-05
8.08458e-05
8.09722e-05
8.10965e-05
8.12188e-05
8.13394e-05
8.14585e-05
8.15765e-05
8.16936e-05
8.18104e-05
8.19271e-05
8.20441e-05
8.21618e-05
8.22808e-05
8.24023e-05
8.2527e-05
8.26552e-05
8.27878e-05
8.29258e-05
8.30697e-05