/*--------------------------------*- C++ -*----------------------------------*\
| =========                 |                                                 |
| \\      /  F ield         | OpenFOAM: The Open Source CFD Toolbox           |
|  \\    /   O peration     | Version:  2412                                  |
|   \\  /    A nd           | Website:  www.openfoam.com                      |
|    \\/     M anipulation  |                                                 |
\*---------------------------------------------------------------------------*/
FoamFile
{
    version     2.0;
    format      ascii;
    arch        "LSB;label=32;scalar=64";
    class       volScalarField;
    location    "40";
    object      p;
}
// * * * * * * * * * * * * * * * * * * * * * * * * * * * * * * * * * * * * * //

dimensions      [0 2 -2 0 0 0 0];

internalField   nonuniform List<scalar> 
32591
(
274.375
131.365
126.637
199.69
150.554
142.094
173.598
137.409
142.636
164.961
172.577
175.483
174.615
171.395
166.869
163.714
162.113
161.305
160.927
159.869
157.608
154.664
151.313
148.126
145.069
142.027
138.76
135.271
131.641
127.96
124.223
120.407
116.497
112.511
108.464
104.361
100.206
96.0035
91.7605
87.485
83.1829
78.8599
74.5218
70.174
65.8213
61.4676
57.1167
52.769
48.4279
44.0933
39.7644
35.4416
31.1239
26.8105
22.4991
18.1894
13.88
9.5692
5.25452
0.933348
-3.39451
-7.72883
-12.0718
-16.4266
-20.7955
-25.1779
-29.5751
-33.9868
-38.4177
-42.8644
-47.3322
-51.8189
-56.3282
-60.8505
-65.4037
-69.9814
-74.5802
-79.2148
-83.8809
-88.582
-93.3237
-98.1081
-102.937
-107.815
-112.745
-117.73
-122.773
-127.876
-133.039
-138.269
-143.556
-148.91
-154.325
-159.81
-165.35
-170.95
-176.6
-182.311
-188.063
-193.86
-199.687
-205.545
-211.423
-217.314
-223.204
-229.089
-234.953
-240.788
-246.576
-252.306
-257.957
-263.52
-268.978
-274.321
-279.521
-284.563
-289.423
-294.084
-298.523
-302.711
-306.625
-310.232
-313.515
-316.439
-318.937
-320.966
-322.498
-323.456
-323.768
-323.39
-322.178
-320.017
-316.711
-312.096
-305.977
-297.984
-287.314
-272.858
-254.026
-229.986
-199.559
-160.705
-110.471
-41.8623
57.3421
184.607
363.878
577.769
755.26
816.898
747.917
564.158
347.294
168.14
40.229
-57.0404
-124.152
-173.263
-211.297
-241.433
-266.17
-285.88
-300.051
-309.965
-317.398
-323.148
-327.454
-330.423
-332.211
-333.06
-333.095
-332.418
-331.097
-329.233
-326.905
-324.138
-320.959
-317.442
-313.613
-309.48
-305.091
-300.463
-295.621
-290.586
-285.379
-280.02
-274.525
-268.92
-263.216
-257.426
-251.564
-245.644
-239.685
-233.694
-227.687
-221.668
-215.655
-209.65
-203.67
-197.711
-191.788
-185.901
-180.055
-174.253
-168.504
-162.8
-157.154
-151.562
-146.033
-140.559
-135.148
-129.797
-124.509
-119.281
-114.113
-109.004
-103.954
-98.9572
-94.0118
-89.1157
-84.2669
-79.4641
-74.6972
-69.9656
-65.2707
-60.6032
-55.9602
-51.3439
-46.7459
-42.1658
-37.5982
-33.0437
-28.4966
-23.9574
-19.4219
-14.8893
-10.3603
-5.83255
-1.30364
3.22733
7.75881
12.2896
16.8191
21.3495
25.8778
30.4046
34.9264
39.4417
43.9487
48.4451
52.9286
57.3976
61.8501
66.2841
70.6974
75.0878
79.4532
83.7912
88.0996
92.3759
96.6186
100.826
104.993
109.118
113.198
117.232
121.218
125.142
128.988
132.771
136.514
140.221
143.805
147.187
150.366
153.556
156.905
160.472
163.674
166.238
167.669
168.491
169.812
172.008
175.834
181.132
185.301
187.395
186.111
180.878
161.929
161.456
197.386
160.318
185.863
240.19
160.709
165.445
274.428
273.773
132.033
127.265
199.416
150.583
142.366
173.618
137.563
142.68
164.944
172.563
175.475
174.612
171.395
166.871
163.716
162.114
161.306
160.927
159.868
157.608
154.664
151.313
148.126
145.069
142.027
138.76
135.271
131.642
127.961
124.223
120.407
116.497
112.511
108.464
104.361
100.206
96.0037
91.7607
87.4852
83.1831
78.8601
74.522
70.1742
65.8214
61.4677
57.1168
52.7692
48.4281
44.0935
39.7646
35.4417
31.124
26.8106
22.4992
18.1896
13.8801
9.56931
5.25464
0.933448
-3.39441
-7.72873
-12.0717
-16.4265
-20.7954
-25.1778
-29.575
-33.9867
-38.4176
-42.8643
-47.3322
-51.8188
-56.328
-60.8503
-65.4037
-69.9812
-74.58
-79.2147
-83.8807
-88.5819
-93.3236
-98.108
-102.937
-107.814
-112.744
-117.73
-122.773
-127.876
-133.039
-138.269
-143.556
-148.91
-154.325
-159.809
-165.35
-170.95
-176.599
-182.311
-188.063
-193.86
-199.687
-205.545
-211.423
-217.314
-223.204
-229.089
-234.953
-240.788
-246.576
-252.306
-257.957
-263.52
-268.978
-274.321
-279.521
-284.563
-289.423
-294.084
-298.523
-302.711
-306.625
-310.232
-313.515
-316.438
-318.937
-320.966
-322.498
-323.456
-323.768
-323.39
-322.177
-320.017
-316.711
-312.096
-305.977
-297.983
-287.313
-272.857
-254.025
-229.984
-199.556
-160.702
-110.467
-41.8573
57.3489
184.618
363.888
577.765
755.233
816.869
747.891
564.155
347.305
168.151
40.2362
-57.0354
-124.149
-173.26
-211.293
-241.43
-266.168
-285.879
-300.05
-309.965
-317.398
-323.147
-327.454
-330.422
-332.21
-333.059
-333.095
-332.418
-331.096
-329.233
-326.905
-324.137
-320.958
-317.442
-313.612
-309.48
-305.09
-300.463
-295.621
-290.585
-285.378
-280.019
-274.525
-268.92
-263.216
-257.426
-251.564
-245.644
-239.685
-233.694
-227.687
-221.668
-215.655
-209.65
-203.67
-197.71
-191.788
-185.901
-180.055
-174.253
-168.504
-162.8
-157.154
-151.562
-146.033
-140.559
-135.148
-129.796
-124.509
-119.281
-114.113
-109.004
-103.954
-98.9571
-94.0117
-89.1156
-84.2668
-79.4639
-74.697
-69.9656
-65.2707
-60.6031
-55.9602
-51.3439
-46.7459
-42.1657
-37.5982
-33.0436
-28.4966
-23.9574
-19.4218
-14.8893
-10.3602
-5.83246
-1.30355
3.22742
7.75892
12.2897
16.8193
21.3497
25.8779
30.4047
34.9266
39.4418
43.9488
48.4453
52.9288
57.3977
61.8502
66.2842
70.6976
75.088
79.4534
83.7914
88.0997
92.3761
96.6188
100.826
104.993
109.118
113.198
117.233
121.219
125.142
128.989
132.772
136.514
140.221
143.805
147.188
150.366
153.556
156.905
160.472
163.673
166.237
167.668
168.491
169.813
172.01
175.836
181.132
185.298
187.388
186.096
180.861
161.973
161.605
197.4
160.633
185.878
239.864
161.288
166.023
273.921
272.828
132.759
128.296
199.116
150.638
142.651
173.7
137.84
142.793
164.933
172.541
175.463
174.606
171.394
166.874
163.72
162.116
161.307
160.927
159.868
157.608
154.664
151.312
148.126
145.07
142.028
138.76
135.271
131.642
127.961
124.224
120.407
116.498
112.512
108.464
104.362
100.206
96.004
91.761
87.4855
83.1834
78.8604
74.5223
70.1745
65.8217
61.468
57.1171
52.7695
48.4284
44.0938
39.7649
35.442
31.1243
26.8108
22.4995
18.1898
13.8804
9.56956
5.25488
0.933692
-3.39417
-7.7285
-12.0715
-16.4263
-20.7952
-25.1776
-29.5748
-33.9865
-38.4174
-42.8641
-47.332
-51.8186
-56.3277
-60.8501
-65.4035
-69.9808
-74.5798
-79.2145
-83.8805
-88.5817
-93.3234
-98.1078
-102.937
-107.814
-112.744
-117.73
-122.773
-127.876
-133.038
-138.269
-143.556
-148.91
-154.325
-159.809
-165.35
-170.95
-176.599
-182.31
-188.062
-193.859
-199.687
-205.545
-211.422
-217.314
-223.204
-229.089
-234.952
-240.788
-246.576
-252.306
-257.957
-263.519
-268.978
-274.321
-279.52
-284.563
-289.422
-294.084
-298.523
-302.71
-306.624
-310.232
-313.515
-316.437
-318.936
-320.965
-322.497
-323.455
-323.766
-323.389
-322.176
-320.015
-316.709
-312.094
-305.976
-297.981
-287.31
-272.853
-254.02
-229.978
-199.549
-160.693
-110.455
-41.8396
57.3739
184.658
363.936
577.791
755.213
816.832
747.873
564.183
347.355
168.192
40.2621
-57.0178
-124.136
-173.25
-211.285
-241.424
-266.164
-285.877
-300.048
-309.964
-317.397
-323.146
-327.452
-330.421
-332.209
-333.058
-333.094
-332.417
-331.095
-329.232
-326.904
-324.137
-320.958
-317.442
-313.612
-309.48
-305.09
-300.463
-295.621
-290.585
-285.378
-280.019
-274.525
-268.919
-263.216
-257.425
-251.564
-245.644
-239.685
-233.694
-227.687
-221.668
-215.655
-209.65
-203.67
-197.71
-191.788
-185.901
-180.054
-174.253
-168.504
-162.8
-157.154
-151.562
-146.033
-140.559
-135.148
-129.796
-124.509
-119.28
-114.112
-109.004
-103.954
-98.957
-94.0116
-89.1155
-84.2667
-79.4636
-74.6967
-69.9655
-65.2706
-60.603
-55.9601
-51.3437
-46.7457
-42.1656
-37.598
-33.0435
-28.4964
-23.9572
-19.4217
-14.8891
-10.36
-5.83225
-1.30333
3.22765
7.75915
12.29
16.8195
21.3499
25.8782
30.405
34.9268
39.4421
43.9491
48.4456
52.9291
57.398
61.8505
66.2845
70.6979
75.0883
79.4537
83.7917
88.1001
92.3764
96.6192
100.826
104.994
109.118
113.198
117.233
121.219
125.142
128.989
132.772
136.515
140.221
143.805
147.188
150.366
153.557
156.905
160.472
163.673
166.236
167.668
168.492
169.816
172.013
175.839
181.13
185.291
187.375
186.074
180.848
162.082
161.869
197.488
160.952
185.886
239.526
162.152
166.797
273.185
271.052
133.149
129.462
198.807
150.602
142.815
173.827
138.298
143.02
164.932
172.51
175.441
174.594
171.391
166.879
163.728
162.122
161.31
160.927
159.866
157.607
154.664
151.311
148.125
145.071
142.028
138.761
135.272
131.643
127.962
124.224
120.408
116.498
112.512
108.465
104.362
100.207
96.0046
91.7616
87.486
83.184
78.861
74.5229
70.175
65.8223
61.4686
57.1176
52.77
48.4289
44.0942
39.7653
35.4425
31.1248
26.8113
22.5
18.1903
13.8808
9.57001
5.25532
0.934126
-3.39375
-7.72808
-12.0711
-16.4259
-20.7948
-25.1772
-29.5744
-33.9862
-38.4171
-42.8638
-47.3316
-51.8182
-56.327
-60.8497
-65.4031
-69.9801
-74.5795
-79.2141
-83.8802
-88.5814
-93.3231
-98.1074
-102.936
-107.814
-112.744
-117.73
-122.773
-127.876
-133.038
-138.268
-143.555
-148.91
-154.325
-159.809
-165.35
-170.95
-176.599
-182.31
-188.062
-193.859
-199.687
-205.544
-211.422
-217.313
-223.204
-229.088
-234.952
-240.787
-246.575
-252.305
-257.956
-263.519
-268.977
-274.32
-279.519
-284.561
-289.421
-294.082
-298.521
-302.709
-306.623
-310.231
-313.513
-316.435
-318.934
-320.963
-322.494
-323.452
-323.763
-323.385
-322.172
-320.01
-316.704
-312.09
-305.972
-297.976
-287.304
-272.845
-254.009
-229.964
-199.531
-160.67
-110.424
-41.7971
57.4347
184.75
364.049
577.867
755.208
816.794
747.871
564.265
347.471
168.286
40.3245
-56.9755
-124.106
-173.227
-211.266
-241.411
-266.154
-285.87
-300.042
-309.959
-317.393
-323.142
-327.447
-330.416
-332.206
-333.055
-333.091
-332.414
-331.093
-329.23
-326.902
-324.135
-320.957
-317.441
-313.61
-309.478
-305.089
-300.462
-295.62
-290.584
-285.377
-280.018
-274.524
-268.919
-263.215
-257.425
-251.563
-245.643
-239.684
-233.693
-227.686
-221.668
-215.655
-209.649
-203.67
-197.71
-191.788
-185.901
-180.054
-174.253
-168.504
-162.8
-157.154
-151.562
-146.032
-140.558
-135.148
-129.796
-124.509
-119.28
-114.112
-109.004
-103.953
-98.9567
-94.0113
-89.1152
-84.2664
-79.463
-74.6961
-69.9652
-65.2703
-60.6027
-55.9598
-51.3434
-46.7454
-42.1653
-37.5977
-33.0432
-28.496
-23.9568
-19.4213
-14.8887
-10.3596
-5.83187
-1.30293
3.22806
7.75956
12.2904
16.8199
21.3504
25.8787
30.4055
34.9273
39.4426
43.9496
48.4461
52.9296
57.3985
61.851
66.285
70.6984
75.0888
79.4543
83.7923
88.1006
92.377
96.6197
100.827
104.994
109.119
113.199
117.234
121.22
125.143
128.99
132.773
136.515
140.222
143.806
147.188
150.367
153.558
156.906
160.472
163.672
166.235
167.668
168.495
169.821
172.021
175.844
181.127
185.28
187.353
186.042
180.842
162.297
162.286
197.619
161.145
185.742
239.142
162.961
167.307
271.763
267.734
133.071
130.621
198.574
150.282
142.9
173.97
138.982
143.398
164.939
172.46
175.405
174.574
171.386
166.889
163.742
162.133
161.315
160.927
159.864
157.605
154.663
151.31
148.124
145.072
142.029
138.762
135.273
131.644
127.963
124.225
120.409
116.499
112.513
108.466
104.363
100.208
96.0055
91.7625
87.4869
83.1848
78.8618
74.5237
70.1759
65.8231
61.4694
57.1184
52.7708
48.4297
44.0951
39.7661
35.4433
31.1256
26.8121
22.5007
18.191
13.8816
9.57075
5.25604
0.934844
-3.39304
-7.72738
-12.0704
-16.4252
-20.7941
-25.1766
-29.5738
-33.9855
-38.4164
-42.8631
-47.331
-51.8176
-56.3259
-60.8492
-65.4025
-69.9792
-74.5789
-79.2136
-83.8796
-88.5808
-93.3225
-98.1069
-102.936
-107.813
-112.743
-117.729
-122.772
-127.875
-133.037
-138.268
-143.555
-148.909
-154.324
-159.808
-165.349
-170.949
-176.598
-182.309
-188.061
-193.858
-199.686
-205.543
-211.421
-217.312
-223.203
-229.087
-234.951
-240.786
-246.574
-252.304
-257.955
-263.517
-268.975
-274.318
-279.517
-284.559
-289.419
-294.08
-298.519
-302.706
-306.62
-310.229
-313.511
-316.432
-318.93
-320.958
-322.49
-323.447
-323.758
-323.379
-322.166
-320.002
-316.695
-312.081
-305.963
-297.967
-287.291
-272.83
-253.989
-229.938
-199.497
-160.625
-110.364
-41.7162
57.5491
184.918
364.249
578.008
755.22
816.752
747.889
564.415
347.678
168.457
40.4419
-56.8944
-124.048
-173.181
-211.231
-241.386
-266.137
-285.857
-300.032
-309.951
-317.385
-323.133
-327.439
-330.408
-332.199
-333.05
-333.086
-332.409
-331.089
-329.226
-326.898
-324.131
-320.955
-317.439
-313.607
-309.476
-305.086
-300.459
-295.618
-290.582
-285.375
-280.016
-274.522
-268.917
-263.214
-257.423
-251.562
-245.642
-239.683
-233.692
-227.685
-221.667
-215.654
-209.649
-203.669
-197.709
-191.787
-185.9
-180.053
-174.252
-168.503
-162.799
-157.153
-151.561
-146.032
-140.558
-135.147
-129.796
-124.508
-119.28
-114.112
-109.003
-103.953
-98.9562
-94.0108
-89.1147
-84.2659
-79.4621
-74.6951
-69.9646
-65.2697
-60.6022
-55.9592
-51.3429
-46.7448
-42.1647
-37.5971
-33.0426
-28.4955
-23.9562
-19.4207
-14.8881
-10.359
-5.83121
-1.30228
3.22873
7.76025
12.2911
16.8206
21.3511
25.8794
30.4062
34.9281
39.4433
43.9504
48.4468
52.9304
57.3994
61.8519
66.2859
70.6993
75.0897
79.4551
83.7931
88.1015
92.3778
96.6206
100.828
104.995
109.12
113.2
117.235
121.22
125.144
128.991
132.774
136.516
140.223
143.807
147.189
150.368
153.56
156.908
160.472
163.67
166.232
167.668
168.5
169.831
172.034
175.853
181.122
185.259
187.316
185.99
180.841
162.651
162.882
197.742
161.266
185.247
238.709
163.69
167.379
268.957
262.508
132.406
131.754
198.783
149.701
142.828
174.079
139.905
143.944
164.948
172.386
175.348
174.542
171.378
166.905
163.766
162.15
161.325
160.927
159.86
157.602
154.662
151.309
148.124
145.074
142.03
138.763
135.274
131.645
127.964
124.227
120.41
116.501
112.514
108.467
104.364
100.209
96.0068
91.7638
87.4883
83.1862
78.8631
74.525
70.1772
65.8244
61.4707
57.1197
52.7721
48.4309
44.0963
39.7674
35.4445
31.1268
26.8133
22.5019
18.1922
13.8827
9.57188
5.25716
0.935946
-3.39195
-7.72631
-12.0693
-16.4242
-20.7931
-25.1755
-29.5727
-33.9845
-38.4154
-42.8621
-47.33
-51.8166
-56.3244
-60.8483
-65.4015
-69.9778
-74.578
-79.2127
-83.8787
-88.5799
-93.3216
-98.1059
-102.935
-107.812
-112.742
-117.728
-122.771
-127.874
-133.036
-138.267
-143.554
-148.908
-154.323
-159.807
-165.348
-170.948
-176.597
-182.308
-188.06
-193.857
-199.684
-205.542
-211.419
-217.311
-223.201
-229.086
-234.949
-240.784
-246.572
-252.302
-257.952
-263.514
-268.973
-274.315
-279.514
-284.556
-289.415
-294.076
-298.515
-302.702
-306.615
-310.224
-313.507
-316.426
-318.923
-320.951
-322.482
-323.439
-323.749
-323.37
-322.155
-319.988
-316.68
-312.066
-305.947
-297.95
-287.27
-272.804
-253.957
-229.895
-199.44
-160.552
-110.265
-41.5829
57.7363
185.185
364.558
578.227
755.252
816.707
747.93
564.647
347.998
168.73
40.6335
-56.7602
-123.95
-173.106
-211.173
-241.347
-266.109
-285.836
-300.014
-309.936
-317.371
-323.12
-327.425
-330.396
-332.189
-333.04
-333.077
-332.402
-331.081
-329.219
-326.892
-324.125
-320.95
-317.435
-313.603
-309.471
-305.082
-300.455
-295.614
-290.578
-285.372
-280.013
-274.52
-268.914
-263.211
-257.421
-251.56
-245.64
-239.681
-233.69
-227.683
-221.665
-215.652
-209.647
-203.668
-197.708
-191.786
-185.899
-180.052
-174.251
-168.502
-162.798
-157.152
-151.56
-146.031
-140.557
-135.146
-129.795
-124.507
-119.279
-114.111
-109.003
-103.952
-98.9554
-94.01
-89.1139
-84.2651
-79.4608
-74.6935
-69.9637
-65.2688
-60.6013
-55.9583
-51.342
-46.7439
-42.1638
-37.5962
-33.0416
-28.4945
-23.9553
-19.4197
-14.8871
-10.358
-5.83021
-1.30125
3.22976
7.7613
12.2922
16.8217
21.3522
25.8805
30.4073
34.9292
39.4445
43.9515
48.448
52.9315
57.4005
61.8531
66.2871
70.7005
75.0909
79.4563
83.7944
88.1027
92.3791
96.6219
100.829
104.996
109.121
113.201
117.236
121.222
125.145
128.992
132.775
136.518
140.224
143.807
147.19
150.37
153.562
156.91
160.471
163.667
166.228
167.668
168.508
169.848
172.057
175.868
181.112
185.225
187.258
185.913
180.839
163.155
163.652
197.779
161.22
184.451
238.594
164.523
166.955
264.331
255.505
130.694
133.119
199.778
149.167
142.454
174.173
141.045
144.649
164.961
172.289
175.27
174.496
171.366
166.929
163.8
162.176
161.339
160.928
159.853
157.597
154.659
151.308
148.125
145.077
142.032
138.764
135.276
131.647
127.966
124.228
120.412
116.503
112.516
108.469
104.366
100.211
96.0087
91.7657
87.4901
83.188
78.865
74.5268
70.179
65.8262
61.4724
57.1215
52.7738
48.4327
44.098
39.7691
35.4462
31.1285
26.8149
22.5035
18.1938
13.8843
9.57348
5.25874
0.93751
-3.3904
-7.72477
-12.0678
-16.4227
-20.7916
-25.174
-29.5713
-33.983
-38.414
-42.8607
-47.3286
-51.8151
-56.3224
-60.8469
-65.4
-69.976
-74.5767
-79.2114
-83.8774
-88.5786
-93.3203
-98.1046
-102.934
-107.811
-112.741
-117.727
-122.77
-127.873
-133.035
-138.265
-143.552
-148.906
-154.321
-159.805
-165.346
-170.946
-176.595
-182.306
-188.058
-193.855
-199.682
-205.54
-211.417
-217.308
-223.198
-229.083
-234.946
-240.781
-246.569
-252.298
-257.948
-263.511
-268.968
-274.311
-279.509
-284.551
-289.41
-294.07
-298.508
-302.695
-306.608
-310.218
-313.5
-316.417
-318.914
-320.941
-322.471
-323.427
-323.736
-323.355
-322.139
-319.969
-316.659
-312.044
-305.925
-297.925
-287.24
-272.767
-253.909
-229.831
-199.357
-160.442
-110.119
-41.3851
58.0136
185.572
364.992
578.53
755.304
816.656
747.995
564.97
348.446
169.125
40.9166
-56.5606
-123.805
-172.995
-211.09
-241.288
-266.068
-285.805
-299.987
-309.913
-317.35
-323.1
-327.406
-330.378
-332.174
-333.027
-333.065
-332.39
-331.071
-329.209
-326.883
-324.117
-320.944
-317.428
-313.596
-309.464
-305.076
-300.449
-295.608
-290.573
-285.367
-280.009
-274.515
-268.91
-263.208
-257.417
-251.556
-245.637
-239.678
-233.688
-227.681
-221.663
-215.65
-209.645
-203.665
-197.706
-191.784
-185.897
-180.05
-174.249
-168.5
-162.797
-157.151
-151.558
-146.029
-140.555
-135.145
-129.793
-124.506
-119.277
-114.109
-109.001
-103.951
-98.9541
-94.0087
-89.1126
-84.2639
-79.459
-74.6916
-69.9623
-65.2675
-60.5999
-55.957
-51.3406
-46.7426
-42.1624
-37.5948
-33.0403
-28.4931
-23.9539
-19.4183
-14.8857
-10.3566
-5.82876
-1.29979
3.23123
7.76279
12.2937
16.8232
21.3537
25.8821
30.4089
34.9308
39.4461
43.9531
48.4496
52.9332
57.4022
61.8547
66.2888
70.7022
75.0926
79.4581
83.7961
88.1045
92.3808
96.6236
100.831
104.998
109.123
113.203
117.238
121.223
125.147
128.994
132.777
136.519
140.225
143.809
147.192
150.373
153.566
156.912
160.47
163.663
166.221
167.668
168.522
169.873
172.09
175.89
181.099
185.178
187.177
185.812
180.837
163.8
164.577
197.713
160.865
183.694
239.278
165.722
165.629
257.974
247.055
127.637
134.907
201.773
148.91
141.832
174.278
142.357
145.504
164.986
172.173
175.172
174.438
171.352
166.963
163.847
162.212
161.358
160.929
159.844
157.591
154.657
151.31
148.129
145.081
142.034
138.766
135.278
131.65
127.969
124.231
120.414
116.505
112.519
108.471
104.369
100.214
96.0111
91.7682
87.4926
83.1904
78.8674
74.5293
70.1814
65.8286
61.4748
57.1238
52.7762
48.435
44.1003
39.7713
35.4484
31.1307
26.8172
22.5057
18.196
13.8865
9.57561
5.26084
0.939599
-3.38833
-7.72272
-12.0657
-16.4206
-20.7896
-25.1721
-29.5693
-33.9811
-38.412
-42.8587
-47.3266
-51.8131
-56.3201
-60.8451
-65.398
-69.9738
-74.5749
-79.2095
-83.8755
-88.5767
-93.3184
-98.1027
-102.932
-107.809
-112.739
-117.725
-122.768
-127.871
-133.033
-138.263
-143.55
-148.904
-154.319
-159.803
-165.344
-170.943
-176.593
-182.303
-188.055
-193.852
-199.679
-205.536
-211.414
-217.305
-223.195
-229.079
-234.942
-240.777
-246.564
-252.293
-257.943
-263.505
-268.963
-274.304
-279.503
-284.544
-289.402
-294.062
-298.5
-302.686
-306.598
-310.208
-313.49
-316.405
-318.901
-320.927
-322.456
-323.411
-323.718
-323.336
-322.118
-319.945
-316.632
-312.015
-305.894
-297.891
-287.198
-272.717
-253.844
-229.745
-199.244
-160.293
-109.919
-41.1122
58.3962
186.097
365.553
578.92
755.376
816.598
748.082
565.384
349.03
169.661
41.3067
-56.2849
-123.605
-172.845
-210.977
-241.208
-266.012
-285.762
-299.951
-309.882
-317.321
-323.073
-327.38
-330.355
-332.154
-333.009
-333.048
-332.375
-331.057
-329.196
-326.871
-324.105
-320.934
-317.419
-313.586
-309.456
-305.067
-300.442
-295.601
-290.566
-285.361
-280.003
-274.51
-268.905
-263.203
-257.413
-251.552
-245.633
-239.674
-233.684
-227.677
-221.659
-215.647
-209.642
-203.662
-197.703
-191.781
-185.894
-180.048
-174.247
-168.498
-162.794
-157.148
-151.556
-146.027
-140.553
-135.143
-129.791
-124.504
-119.275
-114.108
-108.999
-103.949
-98.9523
-94.0069
-89.1109
-84.2621
-79.4568
-74.6892
-69.9604
-65.2656
-60.5981
-55.9551
-51.3388
-46.7407
-42.1606
-37.593
-33.0384
-28.4913
-23.952
-19.4164
-14.8838
-10.3547
-5.82684
-1.29785
3.2332
7.76477
12.2957
16.8253
21.3557
25.8841
30.411
34.9329
39.4482
43.9553
48.4518
52.9354
57.4044
61.8569
66.291
70.7044
75.0949
79.4603
83.7984
88.1068
92.3831
96.6259
100.833
105.001
109.125
113.205
117.24
121.226
125.149
128.996
132.779
136.522
140.227
143.81
147.194
150.376
153.57
156.916
160.469
163.656
166.212
167.668
168.54
169.906
172.135
175.921
181.082
185.116
187.075
185.691
180.84
164.574
165.616
197.573
160.403
183.238
241.103
167.488
162.98
250.225
237.417
123.402
136.856
204.993
148.783
141.007
174.383
143.804
146.498
165.03
172.047
175.056
174.367
171.335
167.005
163.908
162.257
161.384
160.931
159.834
157.583
154.655
151.313
148.134
145.086
142.037
138.768
135.28
131.653
127.972
124.234
120.417
116.508
112.522
108.475
104.372
100.217
96.0142
91.7713
87.4956
83.1935
78.8704
74.5323
70.1844
65.8316
61.4778
57.1268
52.7791
48.4379
44.1032
39.7742
35.4513
31.1335
26.82
22.5085
18.1988
13.8892
9.57831
5.26351
0.942242
-3.38571
-7.72012
-12.0632
-16.4181
-20.7871
-25.1695
-29.5668
-33.9786
-38.4095
-42.8562
-47.3241
-51.8106
-56.3173
-60.8427
-65.3955
-69.9711
-74.5725
-79.2071
-83.8731
-88.5742
-93.3159
-98.1002
-102.929
-107.807
-112.736
-117.722
-122.765
-127.868
-133.03
-138.26
-143.547
-148.901
-154.316
-159.8
-165.34
-170.94
-176.589
-182.3
-188.051
-193.848
-199.675
-205.532
-211.409
-217.3
-223.19
-229.074
-234.937
-240.771
-246.558
-252.287
-257.937
-263.498
-268.955
-274.297
-279.495
-284.535
-289.393
-294.052
-298.489
-302.674
-306.586
-310.196
-313.476
-316.39
-318.885
-320.91
-322.437
-323.39
-323.696
-323.312
-322.091
-319.914
-316.598
-311.979
-305.854
-297.846
-287.146
-272.653
-253.761
-229.636
-199.099
-160.1
-109.658
-40.7541
58.8975
186.763
366.249
579.393
755.464
816.531
748.188
565.884
349.748
170.348
41.8177
-55.9231
-123.344
-172.651
-210.834
-241.105
-265.94
-285.708
-299.905
-309.841
-317.284
-323.039
-327.348
-330.326
-332.129
-332.986
-333.027
-332.355
-331.039
-329.179
-326.855
-324.091
-320.921
-317.407
-313.574
-309.444
-305.057
-300.432
-295.592
-290.558
-285.352
-279.995
-274.502
-268.898
-263.196
-257.406
-251.546
-245.627
-239.669
-233.679
-227.672
-221.655
-215.642
-209.637
-203.658
-197.699
-191.777
-185.89
-180.044
-174.244
-168.495
-162.791
-157.145
-151.553
-146.024
-140.551
-135.14
-129.789
-124.501
-119.273
-114.105
-108.997
-103.946
-98.9499
-94.0045
-89.1085
-84.2598
-79.4541
-74.6865
-69.958
-65.2633
-60.5957
-55.9528
-51.3364
-46.7384
-42.1582
-37.5906
-33.0361
-28.4889
-23.9496
-19.414
-14.8814
-10.3522
-5.82439
-1.29538
3.23569
7.76728
12.2982
16.8278
21.3583
25.8867
30.4136
34.9355
39.4509
43.958
48.4545
52.9381
57.4072
61.8597
66.2938
70.7073
75.0977
79.4632
83.8012
88.1096
92.386
96.6288
100.836
105.003
109.128
113.208
117.243
121.229
125.152
128.999
132.782
136.525
140.23
143.812
147.196
150.381
153.576
156.921
160.467
163.648
166.201
167.67
168.564
169.95
172.192
175.959
181.061
185.041
186.955
185.555
180.855
165.465
166.746
197.4
159.894
183.001
244.455
169.537
159.098
241.312
226.649
118.056
138.634
209.227
148.997
140.335
174.429
145.369
147.627
165.102
171.917
174.926
174.284
171.315
167.057
163.982
162.315
161.417
160.936
159.822
157.574
154.652
151.318
148.141
145.092
142.04
138.771
135.284
131.657
127.976
124.238
120.421
116.512
112.526
108.478
104.376
100.22
96.018
91.775
87.4994
83.1972
78.8741
74.536
70.188
65.8352
61.4814
57.1304
52.7827
48.4414
44.1067
39.7777
35.4548
31.137
26.8234
22.5119
18.2021
13.8925
9.5816
5.26677
0.945475
-3.3825
-7.71694
-12.06
-16.415
-20.784
-25.1664
-29.5637
-33.9755
-38.4064
-42.8532
-47.3211
-51.8075
-56.314
-60.8396
-65.3924
-69.9678
-74.5695
-79.2041
-83.87
-88.5712
-93.3128
-98.097
-102.926
-107.803
-112.733
-117.719
-122.761
-127.864
-133.026
-138.256
-143.543
-148.897
-154.312
-159.796
-165.336
-170.936
-176.585
-182.295
-188.047
-193.843
-199.67
-205.527
-211.404
-217.294
-223.184
-229.068
-234.93
-240.764
-246.551
-252.279
-257.928
-263.489
-268.946
-274.287
-279.484
-284.524
-289.381
-294.04
-298.476
-302.66
-306.571
-310.18
-313.46
-316.372
-318.865
-320.889
-322.414
-323.365
-323.669
-323.282
-322.058
-319.877
-316.557
-311.934
-305.805
-297.791
-287.081
-272.573
-253.658
-229.5
-198.919
-159.859
-109.33
-40.2992
59.5256
187.535
367.119
579.941
755.563
816.451
748.308
566.466
350.636
171.15
42.4582
-55.4638
-123.015
-172.411
-210.658
-240.978
-265.849
-285.639
-299.848
-309.79
-317.238
-322.996
-327.31
-330.291
-332.098
-332.958
-333.001
-332.332
-331.017
-329.159
-326.836
-324.073
-320.905
-317.392
-313.56
-309.431
-305.044
-300.419
-295.58
-290.547
-285.342
-279.985
-274.493
-268.889
-263.188
-257.399
-251.538
-245.62
-239.662
-233.672
-227.666
-221.649
-215.637
-209.632
-203.653
-197.694
-191.772
-185.886
-180.04
-174.239
-168.491
-162.787
-157.141
-151.549
-146.02
-140.547
-135.137
-129.785
-124.498
-119.27
-114.102
-108.994
-103.943
-98.9468
-94.0015
-89.1055
-84.2568
-79.451
-74.6832
-69.955
-65.2603
-60.5928
-55.9498
-51.3335
-46.7355
-42.1553
-37.5877
-33.0331
-28.486
-23.9467
-19.4111
-14.8784
-10.3492
-5.82138
-1.29235
3.23874
7.77035
12.3013
16.831
21.3615
25.8899
30.4168
34.9388
39.4541
43.9613
48.4578
52.9414
57.4105
61.8631
66.2972
70.7107
75.1011
79.4666
83.8047
88.1131
92.3895
96.6323
100.839
105.007
109.131
113.211
117.246
121.232
125.155
129.002
132.786
136.528
140.232
143.814
147.199
150.386
153.583
156.927
160.465
163.639
166.189
167.673
168.595
170.004
172.262
176.007
181.036
184.953
186.817
185.413
180.888
166.468
167.961
197.178
159.552
183.417
249.199
171.49
154.027
231.205
214.627
111.563
140.037
213.87
149.934
140.721
174.424
147.027
148.89
165.211
171.793
174.785
174.192
171.293
167.119
164.071
162.385
161.458
160.943
159.81
157.564
154.649
151.325
148.15
145.099
142.045
138.774
135.287
131.661
127.981
124.243
120.425
116.516
112.53
108.483
104.38
100.225
96.0224
91.7794
87.5038
83.2016
78.8785
74.5403
70.1924
65.8395
61.4857
57.1346
52.7869
48.4456
44.1109
39.7819
35.4589
31.141
26.8274
22.5159
18.2061
13.8965
9.58551
5.27064
0.949316
-3.37869
-7.71316
-12.0563
-16.4112
-20.7802
-25.1628
-29.56
-33.9719
-38.4028
-42.8495
-47.3174
-51.8038
-56.3102
-60.836
-65.3886
-69.964
-74.5658
-79.2004
-83.8663
-88.5674
-93.309
-98.0932
-102.922
-107.799
-112.729
-117.715
-122.757
-127.86
-133.022
-138.252
-143.539
-148.893
-154.307
-159.791
-165.331
-170.931
-176.579
-182.29
-188.041
-193.837
-199.664
-205.52
-211.397
-217.287
-223.176
-229.06
-234.922
-240.755
-246.542
-252.27
-257.918
-263.479
-268.935
-274.275
-279.471
-284.511
-289.367
-294.025
-298.46
-302.643
-306.552
-310.161
-313.439
-316.349
-318.841
-320.863
-322.386
-323.334
-323.635
-323.245
-322.018
-319.832
-316.507
-311.879
-305.744
-297.723
-287.001
-272.476
-253.533
-229.336
-198.701
-159.564
-108.924
-39.7357
60.286
188.392
368.185
580.558
755.671
816.357
748.439
567.121
351.733
172.031
43.2325
-54.8951
-122.61
-172.119
-210.445
-240.824
-265.738
-285.555
-299.778
-309.727
-317.182
-322.946
-327.263
-330.249
-332.061
-332.923
-332.97
-332.303
-330.99
-329.134
-326.813
-324.052
-320.885
-317.374
-313.542
-309.414
-305.028
-300.404
-295.566
-290.533
-285.329
-279.973
-274.482
-268.878
-263.177
-257.389
-251.529
-245.611
-239.654
-233.664
-227.659
-221.641
-215.63
-209.625
-203.647
-197.688
-191.767
-185.88
-180.035
-174.234
-168.485
-162.782
-157.137
-151.545
-146.016
-140.543
-135.132
-129.781
-124.494
-119.266
-114.098
-108.99
-103.939
-98.943
-93.9978
-89.1018
-84.2532
-79.4472
-74.6794
-69.9514
-65.2567
-60.5892
-55.9463
-51.33
-46.732
-42.1518
-37.5842
-33.0296
-28.4825
-23.9432
-19.4076
-14.8749
-10.3457
-5.8178
-1.28875
3.24236
7.774
12.305
16.8347
21.3652
25.8937
30.4206
34.9426
39.458
43.9651
48.4617
52.9454
57.4145
61.8671
66.3012
70.7147
75.1051
79.4707
83.8087
88.1172
92.3936
96.6364
100.843
105.011
109.136
113.215
117.25
121.236
125.159
129.006
132.79
136.532
140.236
143.817
147.203
150.393
153.592
156.934
160.462
163.628
166.175
167.678
168.633
170.07
172.346
176.063
181.007
184.853
186.665
185.269
180.946
167.581
169.242
196.936
160.445
184.986
254.722
173.05
147.722
219.973
201.452
103.828
141.041
218.347
151.421
142.709
174.244
148.767
150.285
165.365
171.679
174.636
174.092
171.27
167.194
164.176
162.469
161.509
160.953
159.796
157.553
154.647
151.333
148.161
145.108
142.05
138.778
135.292
131.667
127.987
124.248
120.431
116.521
112.535
108.488
104.385
100.23
96.0275
91.7846
87.5089
83.2067
78.8836
74.5454
70.1974
65.8445
61.4907
57.1396
52.7918
48.4505
44.1157
39.7867
35.4637
31.1458
26.8321
22.5206
18.2107
13.9011
9.59007
5.27515
0.953797
-3.37424
-7.70874
-12.0519
-16.4069
-20.7759
-25.1584
-29.5557
-33.9676
-38.3985
-42.8452
-47.3131
-51.7995
-56.3059
-60.8317
-65.3843
-69.9596
-74.5615
-79.196
-83.8619
-88.5629
-93.3045
-98.0886
-102.917
-107.795
-112.724
-117.71
-122.752
-127.855
-133.017
-138.247
-143.533
-148.887
-154.302
-159.785
-165.325
-170.924
-176.573
-182.283
-188.034
-193.83
-199.656
-205.513
-211.389
-217.279
-223.167
-229.05
-234.912
-240.745
-246.531
-252.258
-257.906
-263.466
-268.921
-274.26
-279.456
-284.494
-289.35
-294.006
-298.44
-302.622
-306.53
-310.138
-313.415
-316.322
-318.812
-320.832
-322.352
-323.298
-323.596
-323.202
-321.97
-319.778
-316.448
-311.814
-305.672
-297.641
-286.905
-272.358
-253.382
-229.139
-198.438
-159.207
-108.43
-39.0518
61.1871
189.376
369.386
581.24
755.783
816.244
748.577
567.845
352.986
173.03
44.149
-54.2036