/*--------------------------------*- C++ -*----------------------------------*\
| =========                 |                                                 |
| \\      /  F ield         | OpenFOAM: The Open Source CFD Toolbox           |
|  \\    /   O peration     | Version:  2412                                  |
|   \\  /    A nd           | Website:  www.openfoam.com                      |
|    \\/     M anipulation  |                                                 |
\*---------------------------------------------------------------------------*/
FoamFile
{
    version     2.0;
    format      ascii;
    arch        "LSB;label=32;scalar=64";
    class       volScalarField;
    location    "40";
    object      p;
}
// * * * * * * * * * * * * * * * * * * * * * * * * * * * * * * * * * * * * * //

dimensions      [0 2 -2 0 0 0 0];

internalField   nonuniform List<scalar> 
29601
(
275.044
116.561
176.851
259.043
220.195
171.684
115.494
107.113
144.246
164.992
172.676
174.762
173.041
169.017
164.979
162.95
161.956
161.629
161.442
160.173
157.829
154.833
151.501
148.387
145.418
142.462
139.319
135.951
132.432
128.846
125.216
121.521
117.736
113.868
109.93
105.935
101.884
97.7804
93.6299
89.4404
85.2188
80.9709
76.702
72.4191
68.1274
63.8324
59.5377
55.2479
50.9646
46.6906
42.4265
38.1721
33.928
29.694
25.4686
21.2506
17.0401
12.8346
8.63254
4.43113
0.227908
-3.97755
-8.18583
-12.3993
-16.6214
-20.8552
-25.1003
-29.3577
-33.6307
-37.921
-42.2304
-46.5605
-50.9131
-55.2914
-59.6999
-64.1373
-68.6071
-73.112
-77.6597
-82.2467
-86.8799
-91.5613
-96.2963
-101.082
-105.929
-110.835
-115.803
-120.837
-125.934
-131.098
-136.333
-141.632
-146.998
-152.43
-157.926
-163.485
-169.101
-174.771
-180.496
-186.264
-192.072
-197.916
-203.784
-209.673
-215.572
-221.472
-227.361
-233.231
-239.07
-244.867
-250.605
-256.27
-261.844
-267.315
-272.671
-277.885
-282.946
-287.833
-292.521
-296.982
-301.204
-305.164
-308.82
-312.139
-315.094
-317.626
-319.703
-321.29
-322.29
-322.634
-322.252
-321.017
-318.79
-315.38
-310.528
-304.009
-295.301
-283.403
-267.098
-246.012
-219.964
-186.972
-143.579
-84.8599
-1.44639
127.805
294.538
525.214
739.042
817.64
731.6
511.84
278.987
113.515
-15.4644
-97.1404
-154.289
-196.846
-230.401
-258.662
-281.073
-296.62
-307.171
-315.002
-320.948
-325.287
-328.254
-330.067
-330.875
-330.864
-330.157
-328.816
-326.944
-324.596
-321.799
-318.606
-315.049
-311.169
-307.02
-302.604
-297.938
-293.063
-288.008
-282.781
-277.401
-271.887
-266.263
-260.54
-254.731
-248.85
-242.916
-236.94
-230.937
-224.915
-218.883
-212.852
-206.831
-200.829
-194.849
-188.903
-182.994
-177.122
-171.301
-165.527
-159.803
-154.132
-148.519
-142.965
-137.468
-132.027
-126.649
-121.329
-116.067
-110.862
-105.716
-100.622
-95.5844
-90.5941
-85.6556
-80.761
-75.9134
-71.104
-66.3382
-61.6056
-56.9074
-52.2386
-47.6013
-42.9875
-38.3976
-33.8276
-29.2751
-24.7384
-20.2151
-15.7023
-11.1986
-6.70423
-2.2164
2.26736
6.74931
11.2289
15.7045
20.178
24.6501
29.122
33.5921
38.0599
42.5246
46.9853
51.4408
55.8891
60.3291
64.7597
69.1789
73.5838
77.9728
82.3426
86.6909
91.0145
95.3104
99.5761
103.809
108.003
112.155
116.261
120.318
124.324
128.266
132.131
135.911
139.624
143.29
146.883
150.319
153.524
156.533
159.538
162.664
165.977
168.945
171.262
172.531
172.744
173.08
174.037
175.969
179.796
183.561
185.081
182.976
175.48
155.944
120.84
128.253
175.153
215.925
248.123
166.16
115.657
290.964
274.753
116.977
176.952
258.899
220.155
171.766
115.602
107.156
144.231
164.978
172.669
174.759
173.04
169.018
164.98
162.951
161.957
161.629
161.442
160.173
157.829
154.834
151.501
148.388
145.419
142.462
139.319
135.951
132.432
128.847
125.217
121.521
117.737
113.868
109.931
105.935
101.884
97.781
93.6305
89.441
85.2194
80.9714
76.7026
72.4197
68.128
63.833
59.5383
55.2484
50.9652
46.6912
42.427
38.1727
33.9286
29.6946
25.4691
21.2512
17.0407
12.8351
8.63306
4.43166
0.228433
-3.97701
-8.18533
-12.3988
-16.6209
-20.8547
-25.0997
-29.3573
-33.6302
-37.9205
-42.2299
-46.5601
-50.9126
-55.291
-59.6994
-64.1368
-68.6067
-73.1116
-77.6593
-82.2462
-86.8795
-91.5609
-96.2959
-101.082
-105.929
-110.834
-115.803
-120.836
-125.934
-131.098
-136.332
-141.632
-146.998
-152.429
-157.926
-163.485
-169.101
-174.771
-180.496
-186.264
-192.072
-197.916
-203.783
-209.672
-215.572
-221.471
-227.361
-233.231
-239.07
-244.866
-250.605
-256.27
-261.844
-267.315
-272.671
-277.885
-282.946
-287.833
-292.521
-296.982
-301.204
-305.164
-308.82
-312.139
-315.094
-317.626
-319.703
-321.29
-322.29
-322.634
-322.252
-321.018
-318.791
-315.381
-310.528
-304.009
-295.302
-283.403
-267.099
-246.012
-219.964
-186.972
-143.579
-84.8595
-1.44581
127.805
294.535
525.201
739.019
817.623
731.577
511.828
278.984
113.515
-15.4635
-97.1395
-154.289
-196.846
-230.402
-258.664
-281.074
-296.621
-307.172
-315.002
-320.948
-325.287
-328.255
-330.068
-330.876
-330.864
-330.157
-328.817
-326.945
-324.596
-321.799
-318.607
-315.049
-311.169
-307.021
-302.604
-297.938
-293.063
-288.008
-282.781
-277.401
-271.887
-266.263
-260.54
-254.731
-248.85
-242.916
-236.94
-230.937
-224.915
-218.883
-212.852
-206.83
-200.828
-194.849
-188.902
-182.993
-177.122
-171.301
-165.527
-159.802
-154.132
-148.519
-142.964
-137.467
-132.027
-126.648
-121.329
-116.066
-110.862
-105.715
-100.622
-95.584
-90.5937
-85.6552
-80.7606
-75.913
-71.1035
-66.3377
-61.6052
-56.907
-52.2382
-47.6008
-42.9871
-38.3971
-33.8271
-29.2746
-24.738
-20.2146
-15.7018
-11.1981
-6.70373
-2.2159
2.2679
6.74984
11.2294
15.7051
20.1785
24.6506
29.1225
33.5927
38.0605
42.5252
46.9859
51.4413
55.8897
60.3297
64.7603
69.1795
73.5844
77.9734
82.3432
86.6915
91.0151
95.3111
99.5767
103.809
108.004
112.156
116.261
120.318
124.324
128.267
132.132
135.911
139.625
143.29
146.883
150.32
153.524
156.534
159.539
162.665
165.977
168.945
171.262
172.531
172.744
173.081
174.038
175.97
179.797
183.56
185.078
182.969
175.467
155.931
120.882
128.352
175.226
215.887
247.99
166.315
116.04
290.587
274.377
117.626
177.185
258.781
220.104
171.89
115.767
107.236
144.218
164.96
172.659
174.755
173.039
169.019
164.983
162.953
161.958
161.629
161.443
160.173
157.83
154.835
151.502
148.389
145.42
142.463
139.32
135.952
132.433
128.848
125.218
121.522
117.738
113.869
109.932
105.936
101.885
97.7819
93.6313
89.4419
85.2202
80.9723
76.7035
72.4205
68.1288
63.8339
59.5391
55.2493
50.966
46.692
42.4278
38.1735
33.9294
29.6954
25.4699
21.252
17.0415
12.8359
8.63383
4.43241
0.229184
-3.97629
-8.18458
-12.398
-16.6202
-20.8539
-25.0991
-29.3566
-33.6295
-37.9198
-42.2292
-46.5594
-50.9119
-55.2903
-59.6988
-64.1362
-68.6061
-73.1109
-77.6586
-82.2456
-86.8789
-91.5603
-96.2953
-101.081
-105.929
-110.834
-115.802
-120.836
-125.933
-131.097
-136.332
-141.632
-146.997
-152.429
-157.926
-163.484
-169.1
-174.77
-180.496
-186.263
-192.072
-197.915
-203.783
-209.672
-215.571
-221.471
-227.361
-233.231
-239.07
-244.866
-250.605
-256.27
-261.844
-267.315
-272.671
-277.885
-282.946
-287.833
-292.521
-296.983
-301.204
-305.164
-308.82
-312.139
-315.095
-317.626
-319.703
-321.29
-322.29
-322.635
-322.253
-321.018
-318.791
-315.381
-310.529
-304.01
-295.303
-283.404
-267.1
-246.013
-219.964
-186.971
-143.577
-84.8574
-1.44181
127.81
294.544
525.203
739.004
817.602
731.562
511.83
278.994
113.521
-15.459
-97.1369
-154.287
-196.845
-230.403
-258.665
-281.076
-296.622
-307.173
-315.003
-320.949
-325.288
-328.256
-330.068
-330.877
-330.865
-330.158
-328.817
-326.945
-324.597
-321.8
-318.607
-315.05
-311.17
-307.021
-302.604
-297.938
-293.063
-288.008
-282.781
-277.401
-271.887
-266.263
-260.54
-254.73
-248.85
-242.915
-236.94
-230.937
-224.914
-218.883
-212.852
-206.83
-200.828
-194.849
-188.902
-182.993
-177.122
-171.3
-165.526
-159.802
-154.132
-148.519
-142.964
-137.467
-132.027
-126.648
-121.328
-116.066
-110.862
-105.715
-100.622
-95.5835
-90.5931
-85.6546
-80.76
-75.9124
-71.1029
-66.3371
-61.6045
-56.9063
-52.2375
-47.6001
-42.9864
-38.3964
-33.8264
-29.2739
-24.7372
-20.2139
-15.701
-11.1974
-6.70299
-2.21514
2.26863
6.7506
11.2302
15.7058
20.1793
24.6514
29.1233
33.5935
38.0613
42.526
46.9867
51.4422
55.8905
60.3306
64.7612
69.1804
73.5852
77.9743
82.344
86.6924
91.016
95.3119
99.5776
103.81
108.005
112.157
116.262
120.319
124.325
128.268
132.133
135.912
139.625
143.291
146.884
150.321
153.525
156.535
159.54
162.666
165.978
168.946
171.263
172.531
172.745
173.082
174.04
175.973
179.798
183.559
185.074
182.96
175.45
155.919
120.957
128.501
175.334
215.833
247.856
166.589
116.626
290.066
273.849
118.555
177.563
258.678
220.062
172.044
116.002
107.383
144.219
164.94
172.647
174.748
173.037
169.02
164.986
162.955
161.959
161.63
161.443
160.173
157.83
154.836
151.504
148.39
145.421
142.464
139.321
135.953
132.434
128.849
125.219
121.523
117.739
113.87
109.933
105.937
101.886
97.7829
93.6324
89.4429
85.2213
80.9733
76.7045
72.4215
68.1298
63.8349
59.5401
55.2503
50.967
46.693
42.4288
38.1744
33.9303
29.6963
25.4709
21.2529
17.0424
12.8368
8.63474
4.43331
0.230076
-3.9754
-8.1837
-12.3972
-16.6193
-20.8531
-25.0982
-29.3557
-33.6287
-37.919
-42.2284
-46.5586
-50.9111
-55.2895
-59.698
-64.1354
-68.6053
-73.1102
-77.6579
-82.2449
-86.8782
-91.5596
-96.2947
-101.081
-105.928
-110.833
-115.802
-120.835
-125.933
-131.097
-136.331
-141.631
-146.997
-152.428
-157.925
-163.484
-169.1
-174.77
-180.495
-186.263
-192.071
-197.915
-203.783
-209.672
-215.571
-221.471
-227.361
-233.231
-239.07
-244.866
-250.605
-256.269
-261.844
-267.315
-272.671
-277.885
-282.946
-287.833
-292.521
-296.983
-301.204
-305.164
-308.82
-312.139
-315.095
-317.626
-319.703
-321.29
-322.29
-322.635
-322.253
-321.018
-318.792
-315.381
-310.529
-304.01
-295.303
-283.404
-267.1
-246.012
-219.962
-186.968
-143.573
-84.8517
-1.43236
127.825
294.569
525.221
738.993
817.578
731.552
511.849
279.019
113.536
-15.4492
-97.1306
-154.283
-196.842
-230.402
-258.665
-281.076
-296.622
-307.174
-315.004
-320.95
-325.288
-328.256
-330.069
-330.877
-330.865
-330.158
-328.817
-326.945
-324.597
-321.8
-318.607
-315.05
-311.17
-307.021
-302.604
-297.938
-293.063
-288.008
-282.781
-277.401
-271.887
-266.263
-260.54
-254.73
-248.85
-242.915
-236.94
-230.936
-224.914
-218.883
-212.852
-206.83
-200.828
-194.848
-188.902
-182.993
-177.121
-171.3
-165.526
-159.802
-154.131
-148.518
-142.963
-137.466
-132.026
-126.647
-121.328
-116.065
-110.861
-105.714
-100.621
-95.5828
-90.5924
-85.6539
-80.7593
-75.9117
-71.1022
-66.3364
-61.6038
-56.9056
-52.2367
-47.5994
-42.9856
-38.3956
-33.8256
-29.2731
-24.7364
-20.2131
-15.7002
-11.1965
-6.70212
-2.21427
2.26952
6.7515
11.2311
15.7068
20.1802
24.6523
29.1243
33.5945
38.0623
42.527
46.9876
51.4431
55.8915
60.3316
64.7622
69.1814
73.5862
77.9753
82.3451
86.6934
91.0171
95.313
99.5786
103.811
108.006
112.158
116.263
120.32
124.326
128.269
132.134
135.913
139.627
143.292
146.885
150.322
153.526
156.536
159.541
162.667
165.979
168.946
171.263
172.532
172.746
173.084
174.042
175.976
179.799
183.557
185.068
182.949
175.431
155.919
121.092
128.713
175.467
215.792
247.733
166.991
117.438
289.416
273.166
119.745
178.127
258.511
220.059
172.22
116.353
107.643
144.243
164.915
172.629
174.739
173.033
169.022
164.99
162.96
161.963
161.632
161.443
160.173
157.831
154.836
151.505
148.391
145.422
142.465
139.322
135.954
132.436
128.85
125.22
121.525
117.74
113.872
109.934
105.938
101.888
97.7841
93.6335
89.4441
85.2224
80.9745
76.7056
72.4227
68.1309
63.836
59.5412
55.2513
50.9681
46.6941
42.4299
38.1755
33.9314
29.6974
25.4719
21.2539
17.0434
12.8378
8.63574
4.43431
0.23106
-3.97442
-8.18275
-12.3962
-16.6184
-20.8522
-25.0973
-29.3548
-33.6278
-37.9181
-42.2275
-46.5577
-50.9103
-55.2887
-59.6972
-64.1346
-68.6045
-73.1094
-77.6571
-82.2441
-86.8774
-91.5588
-96.2939
-101.08
-105.927
-110.832
-115.801
-120.835
-125.932
-131.096
-136.331
-141.63
-146.996
-152.428
-157.925
-163.483
-169.099
-174.769
-180.495
-186.262
-192.071
-197.915
-203.782
-209.671
-215.571
-221.47
-227.36
-233.23
-239.07
-244.866
-250.605
-256.269
-261.844
-267.315
-272.671
-277.885
-282.945
-287.833
-292.521
-296.982
-301.204
-305.164
-308.82
-312.139
-315.094
-317.626
-319.703
-321.29
-322.29
-322.634
-322.252
-321.018
-318.791
-315.381
-310.528
-304.009
-295.302
-283.403
-267.098
-246.009
-219.957
-186.962
-143.565
-84.8399
-1.41351
127.855
294.614
525.256
738.986
817.551
731.547
511.887
279.065
113.565
-15.4302
-97.1186
-154.274
-196.837
-230.399
-258.663
-281.075
-296.622
-307.173
-315.003
-320.949
-325.288
-328.256
-330.068
-330.877
-330.865
-330.158
-328.817
-326.945
-324.596
-321.799
-318.607
-315.049
-311.169
-307.02
-302.604
-297.938
-293.063
-288.007
-282.78
-277.401
-271.886
-266.263
-260.54
-254.73
-248.85
-242.915
-236.94
-230.936
-224.914
-218.882
-212.851
-206.829
-200.827
-194.848
-188.901
-182.992
-177.121
-171.299
-165.525
-159.801
-154.131
-148.518
-142.963
-137.466
-132.025
-126.647
-121.327
-116.064
-110.86
-105.713
-100.62
-95.5821
-90.5917
-85.6531
-80.7585
-75.9109
-71.1014
-66.3356
-61.6029
-56.9047
-52.2359
-47.5985
-42.9847
-38.3947
-33.8247
-29.2722
-24.7355
-20.2122
-15.6993
-11.1956
-6.70117
-2.21331
2.2705
6.75248
11.2321
15.7078
20.1813
24.6534
29.1253
33.5955
38.0633
42.528
46.9887
51.4442
55.8926
60.3326
64.7633
69.1825
73.5873
77.9765
82.3462
86.6945
91.0182
95.3141
99.5798
103.812
108.007
112.159
116.265
120.321
124.327
128.27
132.135
135.914
139.628
143.294
146.887
150.323
153.527
156.537
159.542
162.668
165.98
168.947
171.263
172.532
172.748
173.087
174.047
175.98
179.801
183.554
185.059
182.932
175.408
155.94
121.329
129.029
175.617
215.796
247.563
167.61
118.382
288.624
272.295
120.968
178.997
258.315
220.056
172.409
116.858
108.064
144.303
164.882
172.603
174.724
173.027
169.023
164.998
162.967
161.968
161.635
161.443
160.173
157.831
154.837
151.507
148.393
145.424
142.467
139.323
135.956
132.437
128.851
125.221
121.526
117.741
113.873
109.935
105.94
101.889
97.7854
93.6348
89.4453
85.2237
80.9757
76.7069
72.4239
68.1322
63.8372
59.5424
55.2526
50.9693
46.6953
42.4311
38.1767
33.9325
29.6985
25.473
21.2551
17.0445
12.8389
8.63685
4.4354
0.232147
-3.97335
-8.18168
-12.3952
-16.6173
-20.8511
-25.0963
-29.3538
-33.6268
-37.9171
-42.2266
-46.5568
-50.9093
-55.2877
-59.6962
-64.1337
-68.6036
-73.1085
-77.6562
-82.2432
-86.8765
-91.5579
-96.293
-101.079
-105.926
-110.832
-115.8
-120.834
-125.931
-131.095
-136.33
-141.63
-146.995
-152.427
-157.924
-163.483
-169.098
-174.769
-180.494
-186.262
-192.07
-197.914
-203.782
-209.671
-215.57
-221.47
-227.36
-233.23
-239.069
-244.865
-250.604
-256.269
-261.843
-267.314
-272.67
-277.884
-282.945
-287.832
-292.52
-296.982
-301.203
-305.163
-308.819
-312.138
-315.093
-317.625
-319.702
-321.289
-322.289
-322.633
-322.251
-321.016
-318.789
-315.379
-310.526
-304.007
-295.299
-283.4
-267.093
-246.002
-219.948
-186.95
-143.549
-84.8179
-1.37972
127.906
294.69
525.319
738.986
817.521
731.548
511.952
279.143
113.617
-15.3965
-97.0969
-154.259
-196.826
-230.392
-258.659
-281.072
-296.619
-307.171
-315.001
-320.948
-325.286
-328.254
-330.067
-330.875
-330.864
-330.157
-328.816
-326.944
-324.596
-321.799
-318.606
-315.049
-311.169
-307.02
-302.603
-297.937
-293.062
-288.007
-282.78
-277.4
-271.886
-266.262
-260.539
-254.729
-248.849
-242.914
-236.939
-230.935
-224.913
-218.882
-212.851
-206.829
-200.827
-194.847
-188.901
-182.992
-177.12
-171.299
-165.525
-159.8
-154.13
-148.517
-142.962
-137.465
-132.025
-126.646
-121.326
-116.064
-110.859
-105.713
-100.619
-95.5812
-90.5908
-85.6523
-80.7577
-75.91
-71.1005
-66.3347
-61.602
-56.9038
-52.2349
-47.5976
-42.9838
-38.3938
-33.8237
-29.2712
-24.7345
-20.2111
-15.6982
-11.1945
-6.70012
-2.21225
2.27156
6.75356
11.2332
15.7089
20.1824
24.6545
29.1264
33.5966
38.0645
42.5292
46.9899
51.4454
55.8938
60.3338
64.7645
69.1837
73.5886
77.9777
82.3474
86.6958
91.0195
95.3154
99.5811
103.814
108.008
112.16
116.266
120.323
124.329
128.272
132.136
135.916
139.629
143.295
146.888
150.324
153.529
156.539
159.544
162.67
165.981
168.947
171.263
172.532
172.75
173.092
174.054
175.988
179.802
183.548
185.045
182.908
175.377
155.993
121.713
129.487
175.779
215.807
247.384
168.543
119.266
287.574
271.138
121.988
180.255
258.207
220
172.646
117.552
108.697
144.412
164.838
172.565
174.701
173.017
169.026
165.011
162.979
161.976
161.639
161.443
160.172
157.83
154.838
151.508
148.395
145.426
142.468
139.325
135.957
132.438
128.853
125.223
121.527
117.743
113.874
109.937
105.941
101.89
97.7869
93.6363
89.4468
85.2251
80.9772
76.7083
72.4253
68.1336
63.8386
59.5438
55.2539
50.9706
46.6966
42.4324
38.178
33.9338
29.6998
25.4743
21.2563
17.0458
12.8402
8.63808
4.43663
0.233358
-3.97215
-8.18049
-12.394
-16.6162
-20.85
-25.0951
-29.3527
-33.6257
-37.916
-42.2255
-46.5557
-50.9082
-55.2867
-59.6952
-64.1326
-68.6025
-73.1075
-77.6552
-82.2422
-86.8755
-91.557
-96.2921
-101.078
-105.925
-110.831
-115.799
-120.833
-125.93
-131.095
-136.329
-141.629
-146.994
-152.426
-157.923
-163.482
-169.098
-174.768
-180.493
-186.261
-192.069
-197.913
-203.781
-209.67
-215.569
-221.469
-227.359
-233.229
-239.068
-244.864
-250.603
-256.268
-261.842
-267.313
-272.669
-277.883
-282.944
-287.831
-292.519
-296.98
-301.202
-305.162
-308.817
-312.136
-315.091
-317.623
-319.7
-321.286
-322.286
-322.63
-322.248
-321.013
-318.785
-315.374
-310.522
-304.002
-295.294
-283.393
-267.085
-245.991
-219.933
-186.929
-143.522
-84.7801
-1.3234
127.991
294.811
525.416
738.995
817.488
731.561
512.054
279.266
113.702
-15.3404
-97.0598
-154.232
-196.807
-230.379
-258.65
-281.065
-296.614
-307.166
-314.997
-320.944
-325.283
-328.251
-330.064
-330.873
-330.861
-330.154
-328.814
-326.942
-324.594
-321.797
-318.604
-315.047
-311.167
-307.018
-302.602
-297.936
-293.061
-288.006
-282.779
-277.399
-271.885
-266.261
-260.538
-254.729
-248.848
-242.913
-236.938
-230.935
-224.912
-218.881
-212.85
-206.828
-200.826
-194.846
-188.9
-182.991
-177.119
-171.298
-165.524
-159.799
-154.129
-148.516
-142.961
-137.464
-132.024
-126.645
-121.325
-116.063
-110.859
-105.712
-100.618
-95.5803
-90.5899
-85.6514
-80.7567
-75.909
-71.0995
-66.3337
-61.601
-56.9028
-52.2339
-47.5965
-42.9827
-38.3927
-33.8226
-29.2701
-24.7334
-20.21
-15.6971
-11.1934
-6.69897
-2.21108
2.27275
6.75475
11.2344
15.7101
20.1836
24.6557
29.1277
33.5979
38.0657
42.5305
46.9912
51.4467
55.8951
60.3352
64.7658
69.1851
73.5899
77.9791
82.3488
86.6972
91.0209
95.3168
99.5825
103.815
108.01
112.162
116.267
120.324
124.33
128.273
132.138
135.917
139.631
143.296
146.889
150.326
153.53
156.541
159.546
162.671
165.982
168.947
171.261
172.532
172.754
173.099
174.065
175.999
179.805
183.538
185.023
182.872
175.336
156.091
122.288
130.114
175.975
215.77
247.305
169.747
119.982
286.122
269.471
122.746
181.79
258.27
219.971
173.047
118.474
109.593
144.573
164.782
172.512
174.667
173.002
169.03
165.03
162.997
161.988
161.645
161.443
160.17
157.829
154.839
151.511
148.398
145.428
142.47
139.326
135.959
132.44
128.855
125.225
121.529
117.744
113.876
109.938
105.943
101.892
97.7885
93.6379
89.4484
85.2268
80.9788
76.7099
72.4269
68.1352
63.8401
59.5454
55.2555
50.9722
46.6981
42.4339
38.1795
33.9353
29.7013
25.4758
21.2578
17.0472
12.8416
8.63949
4.43801
0.234735
-3.97079
-8.17914
-12.3927
-16.6148
-20.8487
-25.0938
-29.3514
-33.6244
-37.9147
-42.2242
-46.5544
-50.907
-55.2854
-59.694
-64.1314
-68.6013
-73.1063
-77.654
-82.2411
-86.8743
-91.5558
-96.2909
-101.077
-105.924
-110.829
-115.798
-120.832
-125.929
-131.093
-136.328
-141.628
-146.993
-152.425
-157.922
-163.481
-169.096
-174.767
-180.492
-186.26
-192.068
-197.912
-203.78
-209.669
-215.568
-221.468
-227.358
-233.228
-239.067
-244.863
-250.602
-256.266
-261.84
-267.312
-272.667
-277.881
-282.942
-287.829
-292.517
-296.978
-301.199
-305.159
-308.814
-312.133
-315.088
-317.619
-319.696
-321.282
-322.281
-322.625
-322.242
-321.007
-318.779
-315.367
-310.514
-303.993
-295.284
-283.382
-267.071
-245.973
-219.908
-186.897
-143.479
-84.7195
-1.23445
128.122
294.993
525.547
739.017
817.452
731.588
512.194
279.452
113.834
-15.252
-97.0007
-154.191
-196.777
-230.359
-258.636
-281.054
-296.604
-307.157
-314.989
-320.937
-325.276
-328.245
-330.059
-330.868
-330.857
-330.15
-328.81
-326.938
-324.59
-321.794
-318.601
-315.044
-311.165
-307.016
-302.6
-297.934
-293.059
-288.004
-282.777
-277.397
-271.883
-266.26
-260.537
-254.727
-248.847
-242.912
-236.937
-230.933
-224.911
-218.88
-212.849
-206.827
-200.825
-194.845
-188.899
-182.99
-177.118
-171.297
-165.523
-159.798
-154.128
-148.515
-142.96
-137.463
-132.023
-126.644
-121.324
-116.062
-110.857
-105.711
-100.617
-95.5792
-90.5888
-85.6503
-80.7556
-75.9079
-71.0984
-66.3325
-61.5999
-56.9016
-52.2327
-47.5953
-42.9815
-38.3915
-33.8214
-29.2689
-24.7321
-20.2088
-15.6958
-11.1921
-6.69767
-2.20976
2.27408
6.7561
11.2358
15.7115
20.185
24.6571
29.1291
33.5993
38.0672
42.5319
46.9926
51.4482
55.8966
60.3367
64.7673
69.1866
73.5915
77.9806
82.3503
86.6987
91.0224
95.3184
99.5841
103.817
108.011
112.163
116.269
120.326
124.332
128.275
132.139
135.919
139.632
143.298
146.891
150.327
153.532
156.543
159.549
162.674
165.982
168.945
171.259
172.532
172.76
173.111
174.081
176.017
179.808
183.523
184.992
182.823
175.283
156.239
123.1
130.944
176.309
215.743
247.385
171.062
120.466
284.052
267.065
123.274
183.445
258.593
220.127
173.742
119.652
110.802
144.78
164.715
172.443
174.621
172.981
169.037
165.057
163.022
162.006
161.654
161.442
160.166
157.827
154.839
151.514
148.402
145.431
142.472
139.328
135.96
132.442
128.857
125.227
121.531
117.746
113.878
109.94
105.945
101.894
97.7904
93.6398
89.4503
85.2286
80.9807
76.7118
72.4288
68.137
63.842
59.5472
55.2573
50.974
46.6999
42.4357
38.1812
33.9371
29.703
25.4775
21.2595
17.0489
12.8432
8.64112
4.43963
0.236338
-3.9692
-8.17757
-12.3911
-16.6133
-20.8471
-25.0923
-29.3499
-33.6229
-37.9132
-42.2227
-46.553
-50.9056
-55.284
-59.6925
-64.13
-68.5999
-73.1049
-77.6526
-82.2397
-86.8729
-91.5544
-96.2895
-101.076
-105.923
-110.828
-115.797
-120.83
-125.928
-131.092
-136.326
-141.626
-146.992
-152.424
-157.921
-163.479
-169.095
-174.765
-180.491
-186.258
-192.067
-197.91
-203.778
-209.667
-215.566
-221.466
-227.356
-233.226
-239.065
-244.861
-250.6
-256.264
-261.838
-267.309
-272.665
-277.879
-282.939
-287.825
-292.513
-296.974
-301.195
-305.155
-308.81
-312.129
-315.083
-317.614
-319.69
-321.276
-322.275
-322.618
-322.234
-320.998
-318.769
-315.357
-310.502
-303.98
-295.269
-283.364
-267.05
-245.945
-219.871
-186.847
-143.412
-84.6278
-1.10183
128.315
295.242
525.733
739.055
817.412
731.633
512.386
279.709
114.027
-15.12
-96.911
-154.128
-196.733
-230.328
-258.614
-281.036
-296.589
-307.144
-314.977
-320.926
-325.267
-328.237
-330.051
-330.86
-330.85
-330.144
-328.804
-326.933
-324.585
-321.789
-318.597
-315.04
-311.161
-307.012
-302.596
-297.93
-293.056
-288.001
-282.774
-277.395
-271.881
-266.258
-260.534
-254.725
-248.845
-242.91
-236.935
-230.932
-224.909
-218.878
-212.847
-206.825
-200.823
-194.844
-188.897
-182.988
-177.117
-171.295
-165.522
-159.797
-154.127
-148.514
-142.959
-137.462
-132.021
-126.643
-121.323
-116.06
-110.856
-105.709
-100.616
-95.5779
-90.5875
-85.6489
-80.7543
-75.9066
-71.097
-66.3312
-61.5985
-56.9003
-52.2314
-47.594
-42.9801
-38.3901
-33.82
-29.2674
-24.7307
-20.2073
-15.6943
-11.1906
-6.69615
-2.20824
2.27562
6.75765
11.2373
15.713
20.1866
24.6587
29.1307
33.601
38.0688
42.5336
46.9943
51.4499
55.8983
60.3384
64.769
69.1883
73.5932
77.9823
82.3521
86.7005
91.0242
95.3202
99.5859
103.818
108.013
112.165
116.271
120.328
124.334
128.276
132.141
135.921
139.634
143.3
146.892
150.328
153.534
156.545
159.552
162.676
165.982
168.943
171.255
172.531
172.768
173.127
174.105
176.042
179.814
183.503
184.948
182.757
175.22
156.431
124.199
132.006
176.919
215.861
247.691
172.451
120.653
281.168
263.736
123.481
185.231
259.233
220.601
174.78
121.105
112.351
145.044
164.64
172.356
174.561
172.953
169.046
165.095
163.058
162.03
161.666
161.442
160.161
157.824
154.84
151.518
148.406
145.434
142.474
139.33
135.962
132.445
128.859
125.229
121.533
117.749
113.88
109.943
105.947
101.896
97.7927
93.6421
89.4526
85.2309
80.9829
76.714
72.4309
68.1392
63.8441
59.5493
55.2594
50.9761
46.702
42.4377
38.1833
33.9391
29.705
25.4795
21.2614
17.0509
12.8452
8.64305
4.44154
0.238238
-3.96732
-8.17571
-12.3892
-16.6115
-20.8453
-25.0905
-29.3481
-33.6212
-37.9115
-42.221
-46.5512
-50.9038
-55.2823
-59.6908
-64.1283
-68.5982
-73.1032
-77.6509
-82.238
-86.8713
-91.5527
-96.2878
-101.074
-105.921
-110.826
-115.795
-120.829
-125.926
-131.09
-136.325
-141.624
-146.99
-152.422
-157.919
-163.477
-169.093
-174.763
-180.489
-186.256
-192.065
-197.908
-203.776
-209.665
-215.564
-221.464
-227.353
-233.223
-239.062
-244.858
-250.597
-256.261
-261.835
-267.306
-272.661
-277.875
-282.934
-287.821
-292.509
-296.969
-301.19
-305.149
-308.804
-312.122
-315.076
-317.606
-319.682
-321.267
-322.265
-322.607
-322.223
-320.985
-318.755
-315.341
-310.485
-303.961
-295.247
-283.34
-267.02
-245.906
-219.817
-186.775
-143.317
-84.4959
-0.911818
128.585
295.57
526.027
739.113
817.366
731.699
512.686
280.044
114.3
-14.9308
-96.7818
-154.036
-196.669
-230.284
-258.582
-281.011
-296.566
-307.124
-314.959
-320.91
-325.252
-328.224
-330.039
-330.85
-330.84
-330.135
-328.796
-326.925
-324.578
-321.782
-318.59
-315.034
-311.155
-307.007
-302.591
-297.926
-293.051
-287.997
-282.77
-277.391
-271.877
-266.254
-260.531
-254.722
-248.842
-242.907
-236.932
-230.929
-224.907
-218.876
-212.845
-206.823
-200.821
-194.842
-188.895
-182.986
-177.115
-171.294
-165.52
-159.795
-154.125
-148.512
-142.957
-137.46
-132.02
-126.641
-121.321
-116.059
-110.855
-105.708
-100.614
-95.5763
-90.5859
-85.6473
-80.7527
-75.905
-71.0954
-66.3296
-61.5969
-56.8986
-52.2297
-47.5923
-42.9784
-38.3884
-33.8183
-29.2657
-24.729
-20.2056
-15.6926
-11.1888
-6.69438
-2.20645
2.27743
6.75947
11.2392
15.7149
20.1884
24.6606
29.1326
33.6029
38.0707
42.5355
46.9963
51.4518
55.9003
60.3404
64.771
69.1903
73.5952
77.9844
82.3542
86.7026
91.0263
95.3223
99.5879
103.82
108.015
112.167
116.273
120.33
124.336
128.279
132.143
135.923
139.636
143.302
146.894
150.33
153.536
156.548
159.556
162.68
165.982
168.94
171.25
172.529
172.779
173.15
174.138
176.077
179.821
183.476
184.891
182.675
175.147
156.67
125.614
133.313
177.881
216.277
248.276
173.922
120.448
277.289
259.363
123.198
187.119
260.117
221.189
176.149
122.87
114.251
145.39
164.561
172.252
174.486
172.918
169.059
165.146
163.106
162.064
161.683
161.44
160.154
157.82
154.84
151.523
148.412
145.439
142.477
139.332
135.965
132.447
128.862
125.232
121.536
117.751
113.883
109.945
105.95
101.899
97.7954
93.6448
89.4552
85.2335
80.9855
76.7166
72.4335
68.1417
63.8467
59.5519
55.2619
50.9785
46.7044
42.4402
38.1857
33.9415
29.7074
25.4818
21.2638
17.0532
12.8475
8.64534
4.4438
0.240486
-3.96509
-8.17349
-12.387
-16.6093
-20.8431
-25.0883
-29.346
-33.619
-37.9094
-42.2189
-46.5491
-50.9017
-55.2802
-59.6888
-64.1262
-68.5962
-73.1011
-77.6489
-82.2359
-86.8692
-91.5507
-96.2858
-101.072
-105.919
-110.824
-115.793
-120.827
-125.924
-131.088
-136.322
-141.622
-146.988
-152.419
-157.916
-163.475
-169.091
-174.761
-180.486
-186.254
-192.062
-197.905
-203.773
-209.662
-215.561
-221.46
-227.35
-233.219
-239.058
-244.854
-250.592
-256.256
-261.83
-267.301
-272.656
-277.869
-282.928
-287.815
-292.502
-296.962
-301.182
-305.141
-308.795
-312.113
-315.066
-317.596
-319.67
-321.255
-322.252
-322.593
-322.207
-320.968
-318.736
-315.32
-310.461
-303.934
-295.218
-283.306
-266.978
-245.852
-219.744
-186.677
-143.185
-84.3138
-0.650696
128.954
296.005
526.439
739.191
817.313
731.788
513.117
280.483
114.671
-14.6707
-96.6031
-153.911
-196.58
-230.224
-258.538
-280.975
-296.536
-307.097
-314.935
-320.888
-325.233
-328.206
-330.023
-330.835
-330.826
-330.122
-328.784
-326.914
-324.568
-321.773
-318.582
-315.026
-311.147
-307
-302.584
-297.919
-293.045
-287.991
-282.765
-277.386
-271.872
-266.25
-260.527
-254.718
-248.838
-242.904
-236.929
-230.926
-224.904
-218.873
-212.842
-206.82
-200.818
-194.839
-188.893
-182.984
-177.113
-171.291
-165.517
-159.793
-154.123
-148.51
-142.955
-137.458
-132.018
-126.639
-121.319
-116.057
-110.853
-105.706
-100.612
-95.5743
-90.5839
-85.6454
-80.7507
-75.903
-71.0935
-66.3276
-61.5949
-56.8966
-52.2277
-47.5903
-42.9764
-38.3864
-33.8163
-29.2637
-24.7269
-20.2035
-15.6905
-11.1868
-6.69228
-2.20433
2.27956
6.76162
11.2413
15.7171
20.1906
24.6628
29.1349
33.6051
38.073
42.5378
46.9986
51.4541
55.9026
60.3427
64.7734
69.1927
73.5976
77.9868
82.3566
86.705
91.0287
95.3247
99.5904
103.823
108.018
112.17
116.275
120.332
124.338
128.281
132.146
135.925
139.639
143.304
146.896
150.332
153.538
156.552
159.561
162.684
165.982
168.935
171.243
172.528
172.794
173.181
174.182
176.124
179.832
183.442
184.819
182.576
175.069
156.977
127.356
134.893
179.161
216.855
249.081
175.34
119.712
272.282
253.903
122.329
188.837
261.085
221.736
178.021
124.936
116.513
145.84
164.486
172.134
174.397
172.876
169.076
165.212
163.168
162.107
161.706
161.44
160.145
157.815
154.84
151.529
148.419
145.445
142.481
139.335
135.968
132.451
128.866
125.236
121.54
117.755
113.886
109.949
105.953
101.902
97.7986
93.6479
89.4584
85.2366
80.9886
76.7196
72.4366
68.1448
63.8497
59.5548
55.2648
50.9815
46.7074
42.4431
38.1886
33.9443
29.7102
25.4846
21.2666
17.0559
12.8502
8.64805
4.44649
0.243149
-3.96244
-8.17086
-12.3844
-16.6067
-20.8406
-25.0858
-29.3434
-33.6165
-37.9069
-42.2164
-46.5466
-50.8993
-55.2777
-59.6863
-64.1238
-68.5937
-73.0986
-77.6464
-82.2334
-86.8667
-91.5482
-96.2832
-101.069
-105.916
-110.822
-115.79
-120.824
-125.921
-131.085
-136.32
-141.619
-146.985
-152.417
-157.913
-163.472
-169.088
-174.757
-180.483
-186.25
-192.058
-197.902
-203.769
-209.658
-215.557
-221.456
-227.345
-233.215
-239.053
-244.849
-250.587
-256.25
-261.824
-267.294
-272.649
-277.862
-282.921
-287.806
-292.493
-296.953
-301.173
-305.13
-308.784
-312.101
-315.053
-317.582
-319.655
-321.238
-322.234
-322.574
-322.186
-320.945
-318.711
-315.292
-310.43
-303.899
-295.179
-283.26
-266.923
-245.78
-219.647
-186.547
-143.01
-84.0703
-0.302395
129.444
296.577
526.93
739.29
817.25
731.902
513.64
281.061
115.164
-14.3238