/*--------------------------------*- C++ -*----------------------------------*\
| =========                 |                                                 |
| \\      /  F ield         | OpenFOAM: The Open Source CFD Toolbox           |
|  \\    /   O peration     | Version:  2412                                  |
|   \\  /    A nd           | Website:  www.openfoam.com                      |
|    \\/     M anipulation  |                                                 |
\*---------------------------------------------------------------------------*/
FoamFile
{
    version     2.0;
    format      ascii;
    arch        "LSB;label=32;scalar=64";
    class       surfaceScalarField;
    location    "40";
    object      phi;
}
// * * * * * * * * * * * * * * * * * * * * * * * * * * * * * * * * * * * * * //

dimensions      [0 3 -1 0 0 0 0];

oriented        oriented;

internalField   nonuniform List<scalar> 
58903
(
1.10298e-05
-1.25017e-06
-9.77961e-06
4.55621e-06
6.47354e-06
-1.94291e-06
6.4991e-06
1.42233e-06
-3.36525e-06
3.57378e-06
-2.15147e-06
-1.00768e-06
4.58145e-06
-6.54163e-06
5.53394e-06
-8.68985e-06
2.1482e-06
-7.75096e-06
-9.38908e-07
-6.40915e-06
-1.34183e-06
-5.65579e-06
-7.53377e-07
-5.25702e-06
-3.98839e-07
-5.0777e-06
-1.79312e-07
-5.07053e-06
-7.31552e-09
-5.13763e-06
6.71822e-08
-5.16988e-06
3.22342e-08
-5.149e-06
-2.09282e-08
-5.08532e-06
-6.36972e-08
-4.99293e-06
-9.24262e-08
-4.9122e-06
-8.07572e-08
-4.86394e-06
-4.85691e-08
-4.84382e-06
-1.99619e-08
-4.84038e-06
-3.48221e-09
-4.83731e-06
-3.11938e-09
-4.82785e-06
-9.5212e-09
-4.81431e-06
-1.36174e-08
-4.80171e-06
-1.29118e-08
-4.79342e-06
-8.14616e-09
-4.78845e-06
-5.36511e-09
-4.78503e-06
-3.2693e-09
-4.78167e-06
-3.47797e-09
-4.77864e-06
-3.15889e-09
-4.77614e-06
-2.6084e-09
-4.77448e-06
-1.75778e-09
-4.77357e-06
-1.47845e-09
-4.77278e-06
-4.44069e-10
-4.77255e-06
-6.27773e-10
-4.77254e-06
1.46301e-10
-4.77278e-06
1.04121e-10
-4.77319e-06
2.422e-10
-4.77395e-06
6.01404e-10
-4.77478e-06
6.84774e-10
-4.77591e-06
1.03729e-09
-4.77709e-06
1.07585e-09
-4.7784e-06
1.1493e-09
-4.77981e-06
1.80699e-09
-4.78132e-06
8.68996e-10
-4.78294e-06
2.40525e-09
-4.7844e-06
4.19456e-10
-4.78589e-06
1.29887e-09
-4.78769e-06
1.70016e-09
-4.78932e-06
1.46531e-09
-4.79123e-06
1.81304e-09
-4.79298e-06
1.6287e-09
-4.79457e-06
1.49687e-09
-4.79643e-06
1.59626e-09
-4.79828e-06
1.52376e-09
-4.80007e-06
1.50626e-09
-4.80156e-06
1.57603e-10
-4.80322e-06
2.39054e-09
-4.80495e-06
1.31157e-11
-4.80682e-06
3.14777e-09
-4.80847e-06
1.51942e-09
-4.81007e-06
1.37819e-09
-4.81191e-06
1.49954e-09
-4.81355e-06
1.42637e-09
-4.81537e-06
1.43597e-09
-4.81699e-06
1.44621e-09
-4.81872e-06
1.3248e-09
-4.82052e-06
1.68342e-09
-4.82232e-06
1.46813e-09
-4.82401e-06
1.6071e-09
-4.82607e-06
1.48376e-09
-4.82768e-06
1.29243e-09
-4.82966e-06
-2.73474e-09
-4.83172e-06
6.40398e-09
-4.83389e-06
-1.78452e-09
-4.83589e-06
5.03892e-09
-4.83801e-06
-3.33384e-09
-4.84022e-06
7.1103e-09
-4.84272e-06
-3.68706e-09
-4.8451e-06
7.30504e-09
-4.84773e-06
-6.5213e-09
-4.85051e-06
1.1376e-08
-4.8532e-06
-7.358e-09
-4.85616e-06
1.20509e-08
-4.85964e-06
3.34525e-09
-4.86319e-06
3.29948e-09
-4.86686e-06
3.50985e-09
-4.87088e-06
3.836e-09
-4.87505e-06
3.90826e-09
-4.87936e-06
4.05348e-09
-4.88406e-06
4.62155e-09
-4.88901e-06
4.74202e-09
-4.89443e-06
5.39577e-09
-4.90034e-06
5.80436e-09
-4.90656e-06
6.25619e-09
-4.91321e-06
6.63115e-09
-4.9199e-06
6.60157e-09
-4.92699e-06
6.92336e-09
-4.9345e-06
7.44619e-09
-4.94257e-06
7.99285e-09
-4.95096e-06
8.29445e-09
-4.95983e-06
8.82981e-09
-4.96901e-06
8.94687e-09
-4.97874e-06
9.55264e-09
-4.98892e-06
1.00139e-08
-4.99954e-06
1.052e-08
-5.01058e-06
1.0936e-08
-5.02178e-06
1.11514e-08
-5.03334e-06
1.14904e-08
-5.04584e-06
1.24635e-08
-5.05942e-06
1.34705e-08
-5.07384e-06
1.43702e-08
-5.08815e-06
1.42108e-08
-5.10223e-06
1.4032e-08
-5.11589e-06
1.35641e-08
-5.12911e-06
1.31587e-08
-5.14193e-06
1.27325e-08
-5.15411e-06
1.21278e-08
-5.16553e-06
1.13131e-08
-5.17573e-06
1.01542e-08
-5.18475e-06
7.06409e-09
-5.19255e-06
8.95916e-09
-5.19939e-06
1.03647e-08
-5.20435e-06
1.45694e-09
-5.20709e-06
2.89569e-09
-5.20781e-06
-1.03876e-10
-5.20593e-06
4.2819e-09
-5.20062e-06
-1.14346e-08
-5.19201e-06
-7.31532e-09
-5.17941e-06
-1.48123e-08
-5.16233e-06
-3.80917e-09
-5.1405e-06
-3.49094e-08
-5.11263e-06
-2.76776e-08
-5.07852e-06
-3.4076e-08
-5.03888e-06
-3.97119e-08
-5.00063e-06
-3.83421e-08
-4.98329e-06
-1.73726e-08
-5.0175e-06
3.41255e-08
-5.13098e-06
1.1347e-07
-5.31813e-06
1.87108e-07
-5.54349e-06
2.25368e-07
-5.79981e-06
2.56298e-07
-6.05028e-06
2.50514e-07
-6.17129e-06
1.21056e-07
-5.84151e-06
-3.29693e-07
-4.34532e-06
-1.48941e-06
-1.54017e-06
-2.8122e-06
1.67647e-06
-3.21874e-06
4.46396e-06
-2.78563e-06
5.91723e-06
-1.45331e-06
6.19502e-06
-2.77825e-07
6.00197e-06
1.93025e-07
5.6395e-06
3.6247e-07
5.25713e-06
3.82393e-07
4.95491e-06
3.02155e-07
4.7886e-06
1.66246e-07
4.75604e-06
3.24462e-08
4.79113e-06
-3.5345e-08
4.84399e-06
-5.31799e-08
4.89669e-06
-5.26955e-08
4.94307e-06
-4.64381e-08
4.982e-06
-3.9001e-08
5.01492e-06
-3.31479e-08
5.04254e-06
-4.80648e-08
5.06606e-06
-3.33088e-09
5.0855e-06
-1.97963e-08
5.10081e-06
-1.48981e-08
5.1126e-06
-1.48295e-08
5.12083e-06
-5.47842e-09
5.1261e-06
-6.22677e-09
5.12899e-06
-1.29508e-09
5.12972e-06
3.25215e-09
5.12843e-06
-3.42277e-09
5.12563e-06
4.99936e-09
5.12129e-06
2.14969e-09
5.11568e-06
5.50427e-09
5.10877e-06
6.92171e-09
5.10092e-06
7.7609e-09
5.0921e-06
8.71108e-09
5.08247e-06
9.684e-09
5.07205e-06
1.03693e-08
5.06107e-06
1.09453e-08
5.04969e-06
1.12074e-08
5.03793e-06
1.16606e-08
5.02678e-06
1.09191e-08
5.01647e-06
1.00596e-08
5.0068e-06
9.29532e-09
4.99714e-06
9.54247e-09
4.9872e-06
9.70953e-09
4.97734e-06
9.68917e-09
4.96765e-06
9.39981e-09
4.95812e-06
9.31602e-09
4.94895e-06
8.83347e-09
4.94013e-06
8.46267e-09
4.93174e-06
7.95499e-09
4.92352e-06
8.03703e-09
4.91562e-06
7.68727e-09
4.90794e-06
7.49311e-09
4.90066e-06
7.12756e-09
4.89367e-06
6.83105e-09
4.88721e-06
6.23077e-09
4.88104e-06
5.97512e-09
4.87519e-06
5.70352e-09
4.8697e-06
5.31449e-09
4.86448e-06
4.97945e-09
4.85958e-06
4.69082e-09
4.85489e-06
4.53237e-09
4.85054e-06
4.20074e-09
4.84658e-06
3.77253e-09
4.84265e-06
3.81888e-09
4.83896e-06
3.55283e-09
4.83558e-06
1.01875e-08
4.8323e-06
-4.1462e-09
4.82911e-06
1.06216e-08
4.82599e-06
-5.00987e-09
4.82328e-06
1.14227e-08
4.82055e-06
-6.51942e-09
4.81796e-06
8.5012e-09
4.81533e-06
-4.07981e-09
4.81292e-06
8.98496e-09
4.81042e-06
-4.60417e-09
4.80794e-06
7.01012e-09
4.80538e-06
-2.69731e-09
4.80327e-06
6.1005e-09
4.80085e-06
-2.12987e-09
4.79867e-06
1.99928e-09
4.79637e-06
2.20649e-09
4.79406e-06
2.15324e-09
4.79183e-06
2.047e-09
4.78973e-06
1.7847e-09
4.78741e-06
2.06442e-09
4.78525e-06
2.03704e-09
4.78292e-06
2.19613e-09
4.78087e-06
1.79829e-09
4.77874e-06
2.02838e-09
4.77644e-06
3.3624e-09
4.77423e-06
6.65224e-10
4.77205e-06
2.57815e-09
4.76996e-06
1.28355e-09
4.76759e-06
2.52848e-09
4.76531e-06
1.55529e-09
4.76292e-06
2.13327e-09
4.76075e-06
2.03394e-09
4.75843e-06
2.15819e-09
4.75598e-06
2.25329e-09
4.75378e-06
2.04405e-09
4.75136e-06
2.23483e-09
4.74919e-06
1.98394e-09
4.74706e-06
1.98588e-09
4.74469e-06
1.35266e-09
4.74238e-06
2.951e-09
4.74012e-06
1.67514e-09
4.73787e-06
2.55925e-09
4.73571e-06
2.0252e-09
4.73352e-06
2.09579e-09
4.73154e-06
1.90833e-09
4.72956e-06
1.89594e-09
4.72784e-06
1.66585e-09
4.72616e-06
1.62188e-09
4.72467e-06
1.44607e-09
4.7233e-06
8.94107e-10
4.72237e-06
1.26462e-09
4.72151e-06
8.07017e-10
4.72129e-06
1.80141e-10
4.72178e-06
-5.3172e-10
4.72271e-06
-9.64639e-10
4.72384e-06
-1.33671e-09
4.72487e-06
-9.55167e-10
4.72732e-06
-2.5e-09
4.73284e-06
-5.53348e-09
4.74239e-06
-9.57939e-09
4.7527e-06
-1.03208e-08
4.75879e-06
-6.12728e-09
4.75838e-06
3.82475e-10
4.75815e-06
3.06732e-10
4.77379e-06
-1.57679e-08
4.81655e-06
-4.26353e-08
4.89048e-06
-7.41018e-08
4.97506e-06
-8.46046e-08
5.03109e-06
-5.60273e-08
5.04482e-06
-1.37601e-08
5.00624e-06
3.85689e-08
4.93298e-06
7.33811e-08
4.93035e-06
2.47358e-09
5.09191e-06
-1.61461e-07
5.46155e-06
-3.69785e-07
6.1632e-06
-7.01666e-07
7.4122e-06
-1.24901e-06
8.24968e-06
-8.375e-07
6.16858e-06
2.08106e-06
9.82196e-07
5.18548e-06
-3.1667e-06
4.14977e-06
-1.04388e-06
-2.12281e-06
1.59056e-06
-2.63444e-06
-5.04146e-06
6.63201e-06
-1.01196e-05
5.07812e-06
-1.13698e-05
3.29115e-05
-3.57642e-06
-3.91148e-05
1.68244e-05
2.25607e-05
-3.8513e-06
2.71747e-05
4.30801e-06
-1.15246e-05
1.04716e-05
-8.31514e-06
-5.32768e-06
2.03807e-05
-2.31275e-05
2.33337e-05
-2.94043e-05
8.42498e-06
-2.63616e-05
-3.98163e-06
-2.21312e-05
-5.57227e-06
-1.97242e-05
-3.16046e-06
-1.84486e-05
-1.67454e-06
-1.78837e-05
-7.44147e-07
-1.78609e-05
-3.0434e-08
-1.80622e-05
2.68657e-07
-1.81497e-05
1.19737e-07
-1.80636e-05
-1.07114e-07
-1.784e-05
-2.87305e-07
-1.75318e-05
-4.00706e-07
-1.72647e-05
-3.47917e-07
-1.71051e-05
-2.08742e-07
-1.70368e-05
-8.79375e-08
-1.7022e-05
-1.83605e-08
-1.70079e-05
-1.72976e-08
-1.69733e-05
-4.42598e-08
-1.69258e-05
-6.12515e-08
-1.68824e-05
-5.68491e-08
-1.68532e-05
-3.71438e-08
-1.68361e-05
-2.31123e-08
-1.68227e-05
-1.63694e-08
-1.68109e-05
-1.55158e-08
-1.67996e-05
-1.4689e-08
-1.67907e-05
-1.17003e-08
-1.67851e-05
-7.56969e-09
-1.67809e-05
-6.56587e-09
-1.67787e-05
-2.09879e-09
-1.6777e-05
-2.94934e-09
-1.67768e-05
1.81797e-10
-1.67773e-05
2.90874e-10
-1.67791e-05
1.80107e-09
-1.67814e-05
2.56832e-09
-1.67843e-05
3.33662e-09
-1.67879e-05
4.51922e-09
-1.67921e-05
5.12065e-09
-1.67964e-05
5.12815e-09
-1.68014e-05
7.4573e-09
-1.68064e-05
4.80469e-09
-1.68118e-05
9.03795e-09
-1.68177e-05
4.66338e-09
-1.68234e-05
6.6431e-09
-1.68294e-05
7.53827e-09
-1.68356e-05
7.36309e-09
-1.68416e-05
7.68147e-09
-1.68482e-05
7.96954e-09
-1.6854e-05
7.14258e-09
-1.68602e-05
7.32886e-09
-1.68661e-05
6.8744e-09
-1.68729e-05
7.76661e-09
-1.68787e-05
3.88122e-09
-1.68844e-05
9.21316e-09
-1.68904e-05
3.20918e-09
-1.68961e-05
1.09061e-08
-1.69029e-05
8.02038e-09
-1.69092e-05
7.2995e-09
-1.69153e-05
6.99072e-09
-1.69213e-05
7.05063e-09
-1.69273e-05
6.81361e-09
-1.69337e-05
7.49977e-09
-1.69397e-05
6.67855e-09
-1.69457e-05
7.42064e-09
-1.69517e-05
6.92498e-09
-1.69583e-05
8.07759e-09
-1.6965e-05
7.07505e-09
-1.6972e-05
7.84896e-09
-1.69781e-05
-4.0238e-09
-1.69857e-05
2.07484e-08
-1.69931e-05
-7.03282e-10
-1.70006e-05
1.7256e-08
-1.70082e-05
-4.27649e-09
-1.70164e-05
2.2979e-08
-1.70247e-05
-5.13841e-09
-1.70338e-05
2.40336e-08
-1.7043e-05
-1.16805e-08
-1.70523e-05
3.40714e-08
-1.70617e-05
-1.36145e-08
-1.70726e-05
3.70276e-08
-1.70851e-05
1.55603e-08
-1.7097e-05
1.47292e-08
-1.71105e-05
1.67647e-08
-1.7125e-05
1.79807e-08
-1.71394e-05
1.78808e-08
-1.71544e-05
1.86588e-08
-1.71713e-05
2.1384e-08
-1.71893e-05
2.23673e-08
-1.72085e-05
2.45394e-08
-1.72292e-05
2.63517e-08
-1.72517e-05
2.8842e-08
-1.72751e-05
2.99702e-08
-1.7299e-05
3.04009e-08
-1.73241e-05
3.17038e-08
-1.73515e-05
3.47911e-08
-1.73803e-05
3.6652e-08
-1.74109e-05
3.86592e-08
-1.74429e-05
4.07712e-08
-1.74762e-05
4.18635e-08
-1.75114e-05
4.44953e-08
-1.75481e-05
4.64532e-08
-1.7587e-05
4.91606e-08
-1.76271e-05
5.09389e-08
-1.76679e-05
5.18257e-08
-1.771e-05
5.35285e-08
-1.77552e-05
5.75747e-08
-1.78045e-05
6.25636e-08
-1.78561e-05
6.58961e-08
-1.79079e-05
6.59016e-08
-1.79585e-05
6.44776e-08
-1.80076e-05
6.25123e-08
-1.80553e-05
6.0738e-08
-1.8101e-05
5.82829e-08
-1.81441e-05
5.52219e-08
-1.81846e-05
5.15935e-08
-1.8221e-05
4.64959e-08
-1.82526e-05
3.56042e-08
-1.82798e-05
3.7874e-08
-1.83024e-05
3.82937e-08
-1.83184e-05
1.21583e-08
-1.83267e-05
1.13627e-08
-1.83275e-05
-6.37002e-10
-1.83184e-05
4.60578e-09
-1.8297e-05
-4.21315e-08
-1.82637e-05
-3.8701e-08
-1.82155e-05
-6.64825e-08
-1.81504e-05
-4.85387e-08
-1.80674e-05
-1.37971e-07
-1.79626e-05
-1.32113e-07
-1.78334e-05
-1.63302e-07
-1.76827e-05
-1.90457e-07
-1.75389e-05
-1.82275e-07
-1.74786e-05
-7.78017e-08
-1.76115e-05
1.66895e-07
-1.80268e-05
5.28752e-07
-1.86799e-05
8.40129e-07
-1.94344e-05
9.79907e-07
-2.02601e-05
1.08195e-06
-2.1024e-05
1.01447e-06
-2.13126e-05
4.09735e-07
-1.99969e-05
-1.64515e-06
-1.47613e-05
-6.71442e-06
-5.21204e-06
-1.23725e-05
5.67216e-06
-1.41062e-05
1.51645e-05
-1.22751e-05
2.02595e-05
-6.54834e-06
2.14012e-05
-1.41959e-06
2.08662e-05
7.27923e-07
1.97179e-05
1.51082e-06
1.84439e-05
1.65644e-06
1.7389e-05
1.35692e-06
1.67746e-05
7.80529e-07
1.6635e-05
1.71895e-07
1.6759e-05
-1.59832e-07
1.69581e-05
-2.5283e-07
1.71577e-05
-2.52359e-07
1.73321e-05
-2.20922e-07
1.7478e-05
-1.84972e-07
1.76007e-05
-1.56252e-07
1.77045e-05
-1.82964e-07
1.77931e-05
-6.12065e-08
1.78665e-05
-9.37302e-08
1.79246e-05
-7.23591e-08
1.79699e-05
-6.48528e-08
1.80027e-05
-3.40743e-08
1.80242e-05
-2.92032e-08
1.80371e-05
-1.1598e-08
1.80422e-05
4.0283e-09
1.80405e-05
-8.85272e-09
1.8032e-05
1.67414e-08
1.80181e-05
1.27959e-08
1.7999e-05
2.441e-08
1.79756e-05
3.03781e-08
1.79487e-05
3.44461e-08
1.79182e-05
3.90595e-08
1.78842e-05
4.37561e-08
1.78475e-05
4.69495e-08
1.78089e-05
4.95426e-08
1.77682e-05
5.15539e-08
1.77269e-05
5.28442e-08
1.76869e-05
5.04284e-08
1.76502e-05
4.63549e-08
1.76154e-05
4.34469e-08
1.75807e-05
4.40606e-08
1.75449e-05
4.5042e-08
1.75093e-05
4.50681e-08
1.74747e-05
4.34971e-08
1.74404e-05
4.31538e-08
1.74075e-05
4.12361e-08
1.73758e-05
3.95159e-08
1.73453e-05
3.76244e-08
1.7316e-05
3.70148e-08
1.72872e-05
3.61435e-08
1.726e-05
3.43893e-08
1.72338e-05
3.29903e-08
1.72091e-05
3.12913e-08
1.71856e-05
2.93429e-08
1.71637e-05
2.74798e-08
1.71429e-05
2.63245e-08
1.71228e-05
2.50929e-08
1.71039e-05
2.34654e-08
1.70865e-05
2.16384e-08
1.70701e-05
2.06948e-08
1.70543e-05
1.97369e-08
1.70396e-05
1.8165e-08
1.70262e-05
1.69749e-08
1.70129e-05
1.66317e-08
1.70004e-05
3.31839e-08
1.69888e-05
-4.10295e-09
1.69779e-05
3.29407e-08
1.6967e-05
-6.71754e-09
1.69566e-05
3.52011e-08
1.69473e-05
-1.1556e-08
1.69376e-05
2.72678e-08
1.69282e-05
-5.08222e-09
1.69191e-05
2.81476e-08
1.69105e-05
-6.97665e-09
1.69013e-05
2.31299e-08
1.68931e-05
-2.70368e-09
1.68842e-05
2.11257e-08
1.68762e-05
-1.19755e-09
1.68678e-05
1.00946e-08
1.68598e-05
9.94345e-09
1.6852e-05
9.68134e-09
1.68441e-05
9.64012e-09
1.6836e-05
9.33376e-09
1.68281e-05
9.51222e-09
1.68202e-05
9.72497e-09
1.68123e-05
9.87013e-09
1.68043e-05
9.31996e-09
1.67958e-05
1.03456e-08
1.67884e-05
1.23641e-08
1.67807e-05
5.90902e-09
1.67731e-05
1.08122e-08
1.6765e-05
8.04928e-09
1.67562e-05
1.1606e-08
1.67486e-05
7.90323e-09
1.67404e-05
9.87458e-09
1.67325e-05
9.71464e-09
1.67239e-05
1.05149e-08
1.67159e-05
9.94863e-09
1.67076e-05
1.00597e-08
1.66993e-05
1.01997e-08
1.66911e-05
9.81758e-09
1.66827e-05
1.01019e-08
1.66746e-05
7.79688e-09
1.66668e-05
1.18181e-08
1.66587e-05
8.77326e-09
1.66511e-05
1.06879e-08
1.66434e-05
9.45957e-09
1.6636e-05
9.33495e-09
1.6629e-05
8.73391e-09
1.66225e-05
8.29614e-09
1.6616e-05
8.02424e-09
1.66106e-05
6.98692e-09
1.66055e-05
6.41727e-09
1.66016e-05
4.02226e-09
1.65978e-05
5.59452e-09
1.65958e-05
2.74438e-09
1.65949e-05
1.04105e-09
1.65968e-05
-2.49752e-09
1.66007e-05
-4.96487e-09
1.66047e-05
-5.71699e-09
1.66098e-05
-5.86049e-09
1.66179e-05
-1.0753e-08
1.66375e-05
-2.51033e-08
1.66702e-05
-4.23825e-08
1.67064e-05
-4.65216e-08
1.67292e-05
-2.89896e-08
1.6731e-05
-1.49945e-09
1.67329e-05
-1.41905e-09
1.67856e-05
-6.86856e-08
1.69263e-05
-1.83146e-07
1.71703e-05
-3.1842e-07
1.74521e-05
-3.6638e-07
1.76492e-05
-2.53211e-07
1.77104e-05
-7.49164e-08
1.76002e-05
1.48664e-07
1.73766e-05
2.97247e-07
1.7366e-05
1.27721e-08
1.78729e-05
-6.68149e-07
1.9055e-05
-1.5522e-06
2.12989e-05
-2.94553e-06
2.52447e-05
-5.19485e-06
2.7966e-05
-3.55879e-06
2.18506e-05
8.19631e-06
5.04645e-06
2.19882e-05
-9.33387e-06
1.85315e-05
-3.28722e-06
-8.16943e-06
2.77541e-06
-8.69709e-06
-1.79844e-05
2.73918e-05
-2.98276e-05
1.69213e-05
-4.47738e-05
5.67457e-05
-6.24232e-06
-8.96182e-05
3.32894e-05
4.6017e-05
-3.75536e-06
6.42194e-05
7.8835e-06
-2.31635e-05
1.74276e-05
-1.78593e-05
-1.32377e-05
5.10461e-05
-4.59091e-05
5.60051e-05
-5.63344e-05
1.88502e-05
-5.06194e-05
-9.69671e-06
-4.30715e-05
-1.31202e-05
-3.87373e-05
-7.49461e-06
-3.64362e-05
-3.97581e-06
-3.5429e-05
-1.75135e-06
-3.53935e-05
-6.60871e-08
-3.57353e-05
6.10529e-07
-3.58648e-05
2.49179e-07
-3.56743e-05
-2.97701e-07
-3.52342e-05
-7.27361e-07
-3.46519e-05
-9.8309e-07
-3.4153e-05
-8.46883e-07
-3.38539e-05
-5.08295e-07
-3.37251e-05
-2.16544e-07
-3.36912e-05
-5.2337e-08
-3.36584e-05
-5.02082e-08
-3.35875e-05
-1.15286e-07
-3.34956e-05
-1.5325e-07
-3.34122e-05
-1.4074e-07
-3.33562e-05
-9.29459e-08
-3.33205e-05
-5.94666e-08
-3.32951e-05
-4.15527e-08
-3.3271e-05
-3.98584e-08
-3.32489e-05
-3.69848e-08
-3.32317e-05
-2.914e-08
-3.32201e-05
-1.9317e-08
-3.32128e-05
-1.47838e-08
-3.32074e-05
-6.95925e-09
-3.32051e-05
-5.92071e-09
-3.32044e-05
-3.07971e-10
-3.32057e-05
1.35815e-09
-3.32091e-05
4.94065e-09
-3.32141e-05
7.30172e-09
-3.32205e-05
9.45537e-09
-3.32282e-05
1.20473e-08
-3.32366e-05
1.32597e-08
-3.32463e-05
1.46204e-08
-3.32562e-05
1.79592e-08
-3.32668e-05
1.43196e-08
-3.32778e-05
2.12509e-08
-3.32892e-05
1.44431e-08
-3.3301e-05
1.80348e-08
-3.33131e-05
1.95093e-08
-3.33257e-05
1.96118e-08
-3.33385e-05
2.03349e-08
-3.33507e-05
1.99496e-08
-3.33644e-05
2.06508e-08
-3.33761e-05
1.85699e-08
-3.33898e-05
2.00087e-08
-3.34014e-05
1.88065e-08
-3.34136e-05
1.39357e-08
-3.34262e-05
2.2901e-08
-3.34384e-05
1.26862e-08
-3.34515e-05
2.59448e-08
-3.34638e-05
2.01025e-08
-3.34765e-05
1.95699e-08
-3.34892e-05
1.90375e-08
-3.35013e-05
1.87588e-08
-3.35144e-05
1.92527e-08
-3.35266e-05
1.93612e-08
-3.35383e-05
1.7661e-08
-3.35513e-05
2.02482e-08
-3.35646e-05
1.96168e-08
-3.3578e-05
2.12835e-08
-3.3592e-05
2.02292e-08
-3.36052e-05
2.03002e-08
-3.36186e-05
2.14969e-09
-3.36332e-05
4.19131e-08
-3.36476e-05
7.5516e-09
-3.36627e-05
3.69626e-08
-3.36783e-05
2.87554e-09
-3.3695e-05
4.70918e-08
-3.37119e-05
2.17286e-09
-3.37295e-05
4.89991e-08
-3.3748e-05
-7.26069e-09
-3.37675e-05
6.67036e-08
-3.37867e-05
-9.97498e-09
-3.38071e-05
7.13526e-08
-3.38324e-05
4.05582e-08
-3.38578e-05
3.96673e-08
-3.38844e-05
4.31299e-08
-3.39126e-05
4.57773e-08
-3.39417e-05
4.6533e-08
-3.39733e-05
4.98513e-08
-3.40063e-05
5.41803e-08
-3.40422e-05
5.78929e-08
-3.40808e-05
6.30756e-08
-3.41237e-05
6.90459e-08
-3.41694e-05
7.45976e-08
-3.42168e-05
7.73594e-08
-3.42657e-05
7.91564e-08
-3.43178e-05
8.34655e-08
-3.43735e-05
9.04177e-08
-3.44336e-05
9.6632e-08
-3.44968e-05
1.01653e-07
-3.45631e-05
1.07023e-07
-3.46327e-05
1.10992e-07
-3.47052e-05
1.16695e-07
-3.47824e-05
1.23385e-07
-3.48633e-05
1.29844e-07
-3.49466e-05
1.34035e-07
-3.50327e-05
1.37827e-07
-3.51212e-05
1.41872e-07
-3.52146e-05
1.50993e-07
-3.53167e-05
1.6439e-07
-3.54239e-05
1.72987e-07
-3.55305e-05
1.72331e-07
-3.56339e-05
1.67877e-07
-3.57345e-05
1.62848e-07
-3.58317e-05
1.57825e-07
-3.59257e-05
1.52205e-07
-3.60142e-05
1.43647e-07
-3.60963e-05
1.33474e-07
-3.61701e-05
1.20179e-07
-3.6233e-05
9.53679e-08
-3.62862e-05
9.27801e-08
-3.63308e-05
8.84712e-08
-3.63596e-05
3.54289e-08
-3.63732e-05
2.51852e-08
-3.63698e-05
-5.44996e-09
-3.63466e-05
-8.82796e-09
-3.62998e-05
-9.85983e-08
-3.62256e-05
-1.10994e-07
-3.61204e-05
-1.75244e-07
-3.59813e-05
-1.66659e-07
-3.58031e-05
-3.36718e-07
-3.55792e-05
-3.55679e-07
-3.53037e-05
-4.38812e-07
-3.49824e-05
-5.11871e-07
-3.46828e-05
-4.82004e-07
-3.4576e-05
-1.84686e-07
-3.48903e-05
4.81069e-07
-3.57688e-05
1.40721e-06
-3.70694e-05
2.14065e-06
-3.84934e-05
2.40397e-06
-3.99843e-05
2.57276e-06
-4.12887e-05
2.319e-06
-4.16013e-05
7.22363e-07
-3.87305e-05
-4.51578e-06
-2.83993e-05
-1.70354e-05
-9.99231e-06
-3.07901e-05
1.08734e-05
-3.49751e-05
2.91761e-05
-3.0575e-05
3.92463e-05
-1.66186e-05
4.17885e-05
-3.96189e-06
4.10074e-05
1.50903e-06
3.89658e-05
3.55242e-06
3.65768e-05
4.04548e-06
3.44803e-05
3.45327e-06
3.31637e-05
2.09707e-06
3.28036e-05
5.31706e-07
3.30284e-05
-3.85042e-07
3.34437e-05
-6.68729e-07
3.38695e-05
-6.78124e-07
3.42402e-05
-5.917e-07
3.4548e-05
-4.92928e-07
3.48078e-05
-4.16429e-07
3.50286e-05
-4.36079e-07
3.52162e-05
-2.16914e-07
3.5374e-05
-2.52089e-07
3.55008e-05
-1.98483e-07
3.55988e-05
-1.6767e-07
3.56724e-05
-1.03347e-07
3.57237e-05
-8.19405e-08
3.57554e-05
-4.07617e-08
3.57721e-05
-6.41278e-09
3.5772e-05
-1.63403e-08
3.57596e-05
3.26442e-08
3.57349e-05
3.4007e-08
3.56987e-05
6.04382e-08
3.56537e-05
7.5453e-08
3.56007e-05
8.72597e-08
3.55398e-05
9.97734e-08
3.54728e-05
1.10859e-07
3.53999e-05
1.19766e-07
3.53227e-05
1.26636e-07
3.5241e-05
1.32971e-07
3.51566e-05
1.3702e-07
3.50755e-05
1.31143e-07
3.50009e-05
1.2051e-07
3.4929e-05
1.14677e-07
3.48567e-05
1.16181e-07
3.47838e-05
1.17477e-07
3.47106e-05
1.17967e-07
3.46388e-05
1.14771e-07
3.45693e-05
1.12226e-07
3.45013e-05
1.08712e-07
3.44361e-05
1.04048e-07
3.43734e-05
9.95504e-08
3.43124e-05
9.76986e-08
3.42539e-05
9.42669e-08
3.41974e-05
9.05028e-08
3.41439e-05
8.62282e-08
3.40933e-05
8.16214e-08
3.4045e-05
7.71782e-08
3.39994e-05
7.2781e-08
3.39569e-05
6.85717e-08
3.39163e-05
6.53767e-08
3.38787e-05
6.06042e-08
3.3842e-05
5.79757e-08
3.38083e-05
5.4079e-08
3.3777e-05
5.07951e-08
3.37474e-05
4.74108e-08
3.37187e-05
4.54838e-08
3.36912e-05
4.38833e-08
3.36672e-05
6.76211e-08
3.36434e-05
8.1569e-09
3.36205e-05
6.72877e-08
3.35981e-05
3.06492e-09
3.35777e-05
6.91091e-08
3.35585e-05
-6.82294e-09
3.35387e-05
5.6157e-08
3.35191e-05
4.03799e-09
3.35006e-05
5.68367e-08
3.34833e-05
-7.44382e-10
3.34653e-05
4.80567e-08
3.34473e-05
7.0509e-09
3.34302e-05
4.42939e-08
3.34131e-05
8.84382e-09
3.33959e-05
2.70219e-08
3.33786e-05
2.70102e-08
3.33616e-05
2.64112e-08
3.3346e-05
2.49257e-08
3.33301e-05
2.47163e-08
3.3313e-05
2.60953e-08
3.32969e-05
2.56307e-08
3.32804e-05
2.61312e-08
3.32642e-05
2.50565e-08
3.32481e-05
2.62629e-08
3.32315e-05
3.05054e-08
3.32156e-05
1.9399e-08
3.31989e-05
2.80516e-08
3.31822e-05
2.35015e-08
3.31662e-05
2.77737e-08
3.3149e-05
2.39011e-08
3.31331e-05
2.53085e-08
3.3115e-05
2.75734e-08
3.30984e-05
2.68175e-08
3.30813e-05
2.66658e-08
3.30644e-05
2.67259e-08
3.30475e-05
2.67732e-08
3.30306e-05
2.63453e-08
3.30141e-05
2.63023e-08
3.29975e-05
2.28345e-08
3.2981e-05
2.91784e-08
3.29649e-05
2.40116e-08
3.29483e-05
2.77233e-08
3.29329e-05
2.45948e-08
3.29176e-05
2.44819e-08
3.29031e-05
2.30971e-08
3.28894e-05
2.17968e-08
3.28768e-05
2.05573e-08
3.28654e-05
1.82332e-08
3.28556e-05
1.61297e-08
3.28469e-05
1.20623e-08
3.28403e-05
1.26231e-08
3.28353e-05
7.652e-09
3.28338e-05
2.46448e-09
3.28372e-05
-5.90764e-09
3.28446e-05
-1.24738e-08
3.28533e-05
-1.47385e-08
3.28621e-05
-1.45449e-08
3.28801e-05
-2.89001e-08
3.29169e-05
-6.18654e-08
3.29792e-05
-1.04713e-07
3.30485e-05
-1.15906e-07
3.30958e-05
-7.63324e-08
3.3104e-05
-9.7856e-09
3.31119e-05
-9.21321e-09
3.321e-05
-1.6693e-07
3.34719e-05
-4.44928e-07
3.3926e-05
-7.72763e-07
3.44569e-05
-8.97304e-07
3.48448e-05
-6.4111e-07
3.49852e-05
-2.15348e-07
3.48096e-05
3.24261e-07
3.44215e-05
6.85503e-07
3.43911e-05
4.28859e-08
3.52891e-05
-1.56599e-06
3.74181e-05
-3.68135e-06
4.14576e-05
-6.98509e-06
4.85036e-05
-1.22409e-05
5.36276e-05
-8.6828e-06
4.33681e-05
1.84557e-05
1.23972e-05
5.29578e-05
-1.56039e-05
4.65339e-05
-6.14578e-06
-1.76275e-05
1.83263e-06
-1.66755e-05
-3.51049e-05
6.43293e-05
-5.09709e-05
3.27873e-05
-0.000101987
8.08612e-05
-8.51395e-06
-0.000161965
5.41194e-05
7.27587e-05
-2.81374e-07
0.00011862
1.2496e-05
-3.59409e-05
2.31515e-05
-2.85149e-05
-2.63684e-05
0.000100566
-7.59918e-05
0.000105628
-9.01189e-05
3.29773e-05
-8.11713e-05
-1.86443e-05
-7.00903e-05
-2.42013e-05
-6.36656e-05
-1.39193e-05
-6.02413e-05
-7.40024e-06
-5.877e-05
-3.22266e-06
-5.87258e-05
-1.10598e-07
-5.92035e-05
1.08839e-06
-5.93436e-05
3.89289e-07
-5.89959e-05
-6.45554e-07
-5.82766e-05
-1.44665e-06
-5.73595e-05
-1.90032e-06
-5.65845e-05
-1.62194e-06
-5.61219e-05
-9.71408e-07
-5.59191e-05
-4.1914e-07
-5.58587e-05
-1.12806e-07
-5.57971e-05
-1.11939e-07
-5.56778e-05
-2.34615e-07
-5.55281e-05
-3.03212e-07
-5.53945e-05
-2.74821e-07
-5.53027e-05
-1.84594e-07
-5.52474e-05
-1.15434e-07
-5.52047e-05
-8.41068e-08
-5.51644e-05
-8.03515e-08
-5.51289e-05
-7.27987e-08
-5.51016e-05
-5.66392e-08
-5.50836e-05
-3.75376e-08
-5.50715e-05
-2.78663e-08
-5.50638e-05
-1.41272e-08
-5.50601e-05
-1.02937e-08
-5.50601e-05
-7.02788e-11
-5.50648e-05
5.68279e-09
-5.5071e-05
1.07744e-08
-5.50807e-05
1.66606e-08
-5.50918e-05
2.02469e-08
-5.51052e-05
2.52105e-08
-5.51205e-05
2.8399e-08
-5.51372e-05
3.10237e-08
-5.51543e-05
3.56867e-08
-5.51734e-05
3.22515e-08
-5.51927e-05
4.17608e-08
-5.52125e-05
3.24966e-08
-5.52334e-05
3.8504e-08
-5.52543e-05
4.02173e-08
-5.52768e-05
4.17797e-08
-5.52998e-05
4.3096e-08
-5.53218e-05
4.17055e-08
-5.5343e-05
4.16635e-08
-5.53658e-05
4.07967e-08
-5.53878e-05
4.13367e-08
-5.54097e-05
4.01003e-08
-5.54303e-05
3.23051e-08
-5.54523e-05
4.59114e-08
-5.54739e-05
3.15236e-08
-5.5496e-05
4.99029e-08
-5.55176e-05
4.14999e-08
-5.55401e-05
4.14813e-08
-5.55632e-05
4.14793e-08
-5.55854e-05
4.05078e-08
-5.56062e-05
3.91872e-08
-5.56271e-05
3.98464e-08
-5.56495e-05
3.92129e-08
-5.56711e-05
4.16151e-08
-5.56932e-05
4.10184e-08
-5.57161e-05
4.40593e-08
-5.57409e-05
4.37441e-08
-5.57635e-05
4.23387e-08
-5.5786e-05
1.7199e-08
-5.58109e-05
7.34917e-08
-5.58371e-05
2.73782e-08
-5.58632e-05
6.76134e-08
-5.58887e-05
1.97865e-08
-5.59173e-05
8.32117e-08
-5.59458e-05
2.08364e-08
-5.59768e-05
8.73447e-08
-5.60082e-05
9.95509e-09
-5.60405e-05
1.12086e-07
-5.6074e-05
7.94292e-09
-5.61103e-05
1.21359e-07
-5.61524e-05
8.24617e-08
-5.61944e-05
8.11041e-08
-5.62415e-05
8.98364e-08
-5.62903e-05
9.4207e-08
-5.63405e-05
9.61876e-08
-5.63933e-05
1.02087e-07
-5.64509e-05
1.11682e-07
-5.65128e-05
1.19264e-07
-5.65806e-05
1.3093e-07
-5.66535e-05
1.41686e-07
-5.67322e-05
1.53443e-07
-5.6815e-05
1.60078e-07
-5.69019e-05
1.65862e-07
-5.69932e-05
1.74461e-07
-5.70916e-05
1.88635e-07
-5.71976e-05
2.02553e-07
-5.73106e-05
2.14448e-07
-5.74296e-05
2.25941e-07
-5.75545e-05
2.35419e-07
-5.76861e-05
2.47851e-07
-5.78249e-05
2.61919e-07
-5.79708e-05
2.75539e-07
-5.81224e-05
2.8542e-07
-5.82768e-05
2.9211e-07
-5.84366e-05
3.01507e-07
-5.86055e-05
3.19823e-07
-5.87865e-05
3.45178e-07
-5.89749e-05
3.6127e-07
-5.91624e-05
3.59616e-07
-5.93461e-05
3.51536e-07
-5.9523e-05
3.39533e-07
-5.96945e-05
3.29191e-07
-5.98572e-05
3.14752e-07
-6.0012e-05
2.98355e-07
-6.01538e-05
2.74999e-07
-6.028e-05
2.46267e-07
-6.03879e-05
2.0019e-07
-6.04799e-05
1.86308e-07
-6.05511e-05
1.65126e-07
-6.05989e-05
7.78451e-08
-6.06172e-05
4.3565e-08
-6.06052e-05
-1.88405e-08
-6.05577e-05
-4.68842e-08
-6.04657e-05
-1.99969e-07
-6.03277e-05
-2.47159e-07
-6.0136e-05
-3.70507e-07
-5.98812e-05
-4.00995e-07
-5.95594e-05
-6.78543e-07
-5.91544e-05
-7.60266e-07
-5.86535e-05
-9.39685e-07
-5.80767e-05
-1.08883e-06
-5.75605e-05
-9.98357e-07
-5.74356e-05
-3.09626e-07
-5.80936e-05
1.13887e-06
-5.96973e-05
3.01093e-06
-6.18824e-05
4.32563e-06
-6.41061e-05
4.62772e-06
-6.63088e-05
4.77539e-06
-6.80995e-05
4.1098e-06
-6.81508e-05
7.73752e-07
-6.29329e-05
-9.73347e-06
-4.58277e-05
-3.41304e-05
-1.60638e-05
-6.05648e-05
1.74804e-05
-6.85224e-05
4.70844e-05
-6.01764e-05
6.37859e-05
-3.33202e-05
6.84864e-05
-8.66251e-06
6.77019e-05
2.29352e-06
6.47457e-05
6.50856e-06
6.10408e-05
7.7505e-06
5.75319e-05
6.962e-06
5.50965e-05
4.53237e-06
5.42739e-05
1.35409e-06
5.45739e-05
-6.8563e-07
5.529e-05
-1.38557e-06
5.60544e-05
-1.44252e-06
5.67208e-05
-1.25818e-06
5.72745e-05
-1.04681e-06
5.77395e-05
-8.81961e-07
5.81349e-05
-8.62392e-07
5.84747e-05
-5.26062e-07
5.87599e-05
-5.37941e-07
5.89927e-05
-4.30532e-07
5.91778e-05
-3.57497e-07
5.93174e-05
-2.38797e-07
5.94172e-05
-1.83118e-07
5.94827e-05
-1.0359e-07
5.95185e-05
-3.64928e-08
5.95293e-05
-3.43995e-08
5.95131e-05
5.21425e-08
5.94766e-05
6.71828e-08
5.94206e-05
1.16272e-07
5.9348e-05
1.48084e-07
5.92598e-05
1.75229e-07
5.91596e-05
1.99697e-07
5.90457e-05
2.24967e-07
5.89218e-05
2.43562e-07
5.87885e-05
2.59761e-07
5.86489e-05
2.72278e-07
5.85046e-05
2.81073e-07
5.83642e-05
2.71102e-07
5.82321e-05
2.52038e-07
5.81049e-05
2.41064e-07
5.7978e-05
2.42826e-07
5.7848e-05
2.47022e-07
5.77184e-05
2.47117e-07
5.75918e-05
2.40833e-07
5.74681e-05
2.35439e-07
5.73479e-05
2.28204e-07
5.72323e-05
2.18804e-07
5.71211e-05
2.09895e-07
5.70139e-05
2.04433e-07
5.69112e-05
1.96594e-07
5.68123e-05
1.88891e-07
5.67173e-05
1.80955e-07
5.66282e-05
1.70347e-07
5.6544e-05
1.60891e-07
5.64652e-05
1.5115e-07
5.63895e-05
1.43966e-07
5.63185e-05
1.36017e-07
5.62517e-05
1.26895e-07
5.61891e-05
1.20115e-07
5.61299e-05
1.12884e-07
5.60744e-05
1.06031e-07
5.60212e-05
1.00205e-07
5.59725e-05
9.39499e-08
5.59253e-05
9.07373e-08
5.58822e-05
1.21013e-07
5.58402e-05
3.86164e-08
5.58013e-05
1.1741e-07
5.57627e-05
2.9111e-08
5.5726e-05
1.18993e-07
5.56929e-05
1.20257e-08
5.56581e-05
9.97799e-08
5.56253e-05
2.6336e-08
5.55928e-05
9.93821e-08
5.55608e-05
2.01331e-08
5.55293e-05
8.63876e-08
5.54987e-05
2.93489e-08
5.54688e-05
8.02854e-08
5.54381e-05
3.23338e-08
5.5408e-05
5.67827e-08
5.53786e-05
5.62087e-08
5.53497e-05
5.49287e-08
5.53202e-05
5.40923e-08
5.52924e-05
5.17797e-08
5.52645e-05
5.34489e-08
5.5235e-05
5.48774e-08
5.52048e-05
5.60305e-08
5.51759e-05
5.33861e-08
5.51473e-05
5.45963e-08
5.51189e-05
6.04278e-08
5.50905e-05
4.53343e-08
5.50612e-05
5.7882e-08
5.50324e-05
5.08722e-08
5.50026e-05
5.77016e-08
5.49742e-05
5.10812e-08
5.49438e-05
5.51062e-08
5.49147e-05
5.64235e-08
5.48848e-05
5.63799e-08
5.48541e-05
5.68691e-08
5.48237e-05
5.68191e-08
5.47943e-05
5.5746e-08
5.47644e-05
5.58738e-08
5.47357e-05
5.47182e-08
5.47066e-05
5.01968e-08
5.46773e-05
5.93988e-08
5.46494e-05
5.09165e-08
5.46209e-05
5.66591e-08
5.45934e-05
5.17635e-08
5.45672e-05
5.05446e-08
5.45423e-05
4.78258e-08
5.4518e-05
4.59192e-08
5.44963e-05
4.21522e-08
5.44748e-05
3.95466e-08
5.44572e-05
3.36798e-08
5.44423e-05
2.61692e-08
5.44301e-05
2.53374e-08
5.44216e-05
1.60239e-08
5.44178e-05
6.15429e-09
5.44219e-05
-1.00958e-08
5.44331e-05
-2.36989e-08
5.44476e-05
-2.95881e-08
5.44627e-05
-2.95755e-08
5.44885e-05
-5.48598e-08
5.45484e-05
-1.21775e-07
5.46469e-05
-2.03255e-07
5.47593e-05
-2.28346e-07
5.48391e-05
-1.56227e-07
5.48596e-05
-3.03699e-08
5.48766e-05
-2.6026e-08
5.50286e-05
-3.19219e-07
5.54306e-05
-8.46722e-07
5.61331e-05
-1.47553e-06
5.69671e-05
-1.73133e-06
5.76009e-05
-1.27491e-06
5.78653e-05
-4.79789e-07
5.7647e-05
5.42486e-07