/*--------------------------------*- C++ -*----------------------------------*\
| =========                 |                                                 |
| \\      /  F ield         | OpenFOAM: The Open Source CFD Toolbox           |
|  \\    /   O peration     | Version:  2412                                  |
|   \\  /    A nd           | Website:  www.openfoam.com                      |
|    \\/     M anipulation  |                                                 |
\*---------------------------------------------------------------------------*/
FoamFile
{
    version     2.0;
    format      ascii;
    arch        "LSB;label=32;scalar=64";
    class       surfaceScalarField;
    location    "40";
    object      phi;
}
// * * * * * * * * * * * * * * * * * * * * * * * * * * * * * * * * * * * * * //

dimensions      [0 3 -1 0 0 0 0];

oriented        oriented;

internalField   nonuniform List<scalar> 
64883
(
4.6095e-05
-3.49595e-07
-4.57454e-05
2.22893e-05
2.38057e-05
-1.13898e-05
3.36791e-05
7.53099e-06
-1.89208e-05
1.60372e-05
-8.50622e-06
6.80751e-07
1.53565e-05
-7.47958e-06
8.16032e-06
-1.98862e-05
1.24066e-05
-2.49022e-05
5.01597e-06
-2.12793e-05
-3.62282e-06
-1.80016e-05
-3.27771e-06
-1.6288e-05
-1.71365e-06
-1.54113e-05
-8.76667e-07
-1.52643e-05
-1.46987e-07
-1.56788e-05
4.14446e-07
-1.61201e-05
4.41325e-07
-1.62938e-05
1.73677e-07
-1.62255e-05
-6.82707e-08
-1.59637e-05
-2.618e-07
-1.56741e-05
-2.89616e-07
-1.55167e-05
-1.5747e-07
-1.54894e-05
-2.72727e-08
-1.55692e-05
7.97257e-08
-1.56499e-05
8.06995e-08
-1.56678e-05
1.79076e-08
-1.56651e-05
-2.30136e-09
-1.56679e-05
2.36309e-09
-1.56884e-05
2.0573e-08
-1.57218e-05
3.33597e-08
-1.57569e-05
3.50728e-08
-1.57897e-05
3.27963e-08
-1.58224e-05
3.35206e-08
-1.58569e-05
3.36139e-08
-1.58924e-05
3.54537e-08
-1.59286e-05
3.61939e-08
-1.59647e-05
3.60707e-08
-1.60005e-05
3.57439e-08
-1.60364e-05
3.70828e-08
-1.60719e-05
3.43057e-08
-1.61069e-05
3.4936e-08
-1.61411e-05
3.4218e-08
-1.61749e-05
3.37241e-08
-1.62083e-05
3.33689e-08
-1.62407e-05
3.24611e-08
-1.62722e-05
3.14149e-08
-1.63028e-05
3.06644e-08
-1.63328e-05
3.33112e-08
-1.63621e-05
2.59099e-08
-1.63901e-05
2.79388e-08
-1.6417e-05
2.68726e-08
-1.64435e-05
2.64692e-08
-1.64689e-05
2.53821e-08
-1.64933e-05
2.43925e-08
-1.65177e-05
2.54997e-08
-1.65408e-05
2.18347e-08
-1.65629e-05
2.20695e-08
-1.65848e-05
2.18333e-08
-1.66056e-05
1.85845e-08
-1.66262e-05
2.26053e-08
-1.66462e-05
2.00478e-08
-1.66666e-05
2.03499e-08
-1.66869e-05
2.02266e-08
-1.67068e-05
1.98601e-08
-1.67265e-05
1.9607e-08
-1.67464e-05
1.99675e-08
-1.67666e-05
2.01065e-08
-1.6787e-05
1.16534e-08
-1.68079e-05
2.88344e-08
-1.68296e-05
1.19127e-08
-1.68512e-05
3.1274e-08
-1.68729e-05
1.2461e-08
-1.68955e-05
3.15437e-08
-1.68842e-05
-1.80876e-08
-1.69105e-05
3.26766e-08
-1.69277e-05
1.7251e-08
-1.69024e-05
-2.53153e-08
-1.69217e-05
1.92538e-08
-1.69428e-05
2.10479e-08
-1.69661e-05
2.32957e-08
-1.69901e-05
2.39454e-08
-1.70148e-05
2.47374e-08
-1.70406e-05
2.56622e-08
-1.70669e-05
2.63412e-08
-1.70945e-05
2.75404e-08
-1.71229e-05
2.8296e-08
-1.71519e-05
2.8968e-08
-1.71818e-05
2.97834e-08
-1.72114e-05
1.46027e-08
-1.72418e-05
4.47911e-08
-1.72727e-05
1.11921e-08
-1.73047e-05
5.13645e-08
-1.7338e-05
1.19496e-08
-1.73721e-05
5.51018e-08
-1.74066e-05
1.28561e-08
-1.74419e-05
5.6628e-08
-1.74792e-05
1.53242e-08
-1.75185e-05
6.17621e-08
-1.75596e-05
2.03486e-08
-1.76028e-05
6.24695e-08
-1.76494e-05
2.62821e-08
-1.7701e-05
7.18445e-08
-1.77567e-05
3.91861e-08
-1.78171e-05
7.72395e-08
-1.7883e-05
5.20084e-08
-1.79551e-05
8.63888e-08
-1.8033e-05
6.52823e-08
-1.81167e-05
9.65188e-08
-1.82059e-05
7.89666e-08
-1.83011e-05
1.05709e-07
-1.8402e-05
9.24969e-08
-1.85088e-05
1.15329e-07
-1.86198e-05
1.04269e-07
-1.87338e-05
1.20882e-07
-1.88496e-05
1.10977e-07
-1.89663e-05
1.21698e-07
-1.90841e-05
1.14522e-07
-1.92024e-05
1.21648e-07
-1.93194e-05
1.15178e-07
-1.94347e-05
1.17163e-07
-1.9547e-05
1.12291e-07
-1.96545e-05
1.07527e-07
-1.9856e-05
2.01499e-07
-2.0048e-05
1.91994e-07
-2.01334e-05
8.54771e-08
-2.02103e-05
7.68625e-08
-2.02756e-05
6.52883e-08
-2.03291e-05
5.35247e-08
-2.03685e-05
3.94934e-08
-2.03909e-05
2.23414e-08
-2.03942e-05
3.37057e-09
-2.03698e-05
-2.43786e-08
-2.0221e-05
-1.31691e-07
-2.00441e-05
-1.92578e-07
-1.99173e-05
-1.11982e-07
-1.98352e-05
-9.6864e-08
-1.97386e-05
-8.57265e-08
-1.96586e-05
-9.11211e-08
-1.98666e-05
1.73371e-07
-2.04873e-05
6.55488e-07
-2.14256e-05
9.38391e-07
-2.24157e-05
9.90135e-07
-2.32712e-05
8.55587e-07
-2.40294e-05
7.58158e-07
-2.49467e-05
9.17343e-07
-2.59738e-05
1.02717e-06
-2.6496e-05
5.22195e-07
-2.43648e-05
-2.13124e-06
-1.74746e-05
-6.89015e-06
-6.00533e-06
-1.14693e-05
6.75755e-06
-1.27629e-05
1.8136e-05
-1.13785e-05
2.48637e-05
-6.72776e-06
2.68497e-05
-1.98601e-06
2.62656e-05
5.8404e-07
2.51927e-05
1.0728e-06
2.4067e-05
1.12564e-06
2.29018e-05
1.16502e-06
2.16327e-05
1.26905e-06
2.01302e-05
1.50224e-06
1.88147e-05
1.31528e-06
1.82247e-05
6.26906e-07
1.82785e-05
-9.06136e-08
1.86074e-05
-3.5585e-07
1.8859e-05
-2.23139e-07
1.90198e-05
-1.79225e-07
1.91857e-05
-1.46845e-07
1.93955e-05
-2.10835e-07
1.95866e-05
-1.90333e-07
1.96716e-05
-8.49358e-08
1.97345e-05
-6.29018e-08
1.97811e-05
-4.66265e-08
1.98091e-05
-2.80013e-08
1.98189e-05
-9.8406e-09
1.98122e-05
6.64647e-09
1.97898e-05
2.23768e-08
1.97556e-05
3.41147e-08
1.96142e-05
1.41421e-07
1.94619e-05
1.52229e-07
1.94008e-05
6.10404e-08
1.93326e-05
6.81512e-08
1.92577e-05
7.4834e-08
1.91792e-05
8.5146e-08
1.9097e-05
7.58283e-08
1.90119e-05
9.31846e-08
1.89247e-05
7.90483e-08
1.8835e-05
8.95786e-08
1.87443e-05
9.05082e-08
1.86542e-05
9.99195e-08
1.85651e-05
7.8672e-08
1.84785e-05
9.71144e-08
1.83944e-05
7.43736e-08
1.83132e-05
9.34332e-08
1.82349e-05
6.61592e-08
1.81601e-05
8.75751e-08
1.80883e-05
5.91773e-08
1.80194e-05
8.43789e-08
1.7953e-05
5.09834e-08
1.78892e-05
8.0076e-08
1.7828e-05
4.44713e-08
1.77696e-05
7.50119e-08
1.77141e-05
3.84313e-08
1.76622e-05
6.9254e-08
1.76137e-05
3.07236e-08
1.75679e-05
6.37806e-08
1.75245e-05
2.50038e-08
1.74835e-05
5.92273e-08
1.74445e-05
2.02779e-08
1.74074e-05
5.59147e-08
1.73716e-05
1.65244e-08
1.73364e-05
5.49908e-08
1.73024e-05
1.35329e-08
1.72684e-05
3.38233e-08
1.72345e-05
3.38023e-08
1.72005e-05
3.38955e-08
1.71662e-05
3.41974e-08
1.71317e-05
3.44011e-08
1.70974e-05
3.41983e-08
1.70624e-05
3.4809e-08
1.70273e-05
3.50695e-08
1.69926e-05
3.44821e-08
1.6959e-05
3.35178e-08
1.69764e-05
-1.7538e-08
1.69865e-05
-1.02911e-08
1.69459e-05
4.05907e-08
1.69071e-05
4.77714e-08
1.68696e-05
2.80512e-08
1.68349e-05
4.1993e-08
1.6801e-05
2.61633e-08
1.67686e-05
3.77681e-08
1.67369e-05
2.55268e-08
1.67059e-05
3.63012e-08
1.66761e-05
2.4364e-08
1.66472e-05
2.87551e-08
1.6619e-05
2.80796e-08
1.65915e-05
2.74509e-08
1.65648e-05
2.65878e-08
1.65384e-05
2.62639e-08
1.65122e-05
2.61685e-08
1.64862e-05
2.59672e-08
1.64607e-05
2.53464e-08
1.64352e-05
2.54441e-08
1.64099e-05
2.82738e-08
1.63839e-05
2.28032e-08
1.63583e-05
2.82403e-08
1.63325e-05
2.29106e-08
1.63059e-05
2.64259e-08
1.62796e-05
2.62107e-08
1.62527e-05
2.68425e-08
1.6225e-05
2.75797e-08
1.61973e-05
2.76048e-08
1.61689e-05
2.83536e-08
1.61398e-05
2.93428e-08
1.61102e-05
2.91952e-08
1.60802e-05
2.97229e-08
1.60497e-05
3.06951e-08
1.60184e-05
3.12794e-08
1.59864e-05
3.19822e-08
1.59542e-05
3.21538e-08
1.59217e-05
3.24899e-08
1.58885e-05
3.30971e-08
1.58551e-05
3.29108e-08
1.58213e-05
3.43182e-08
1.57877e-05
3.35479e-08
1.57539e-05
3.3753e-08
1.57201e-05
3.3763e-08
1.56871e-05
3.29555e-08
1.56554e-05
3.14772e-08
1.56256e-05
2.9982e-08
1.55959e-05
2.96616e-08
1.55642e-05
3.17348e-08
1.55342e-05
3.00185e-08
1.55165e-05
1.7671e-08
1.55162e-05
3.34254e-10
1.55204e-05
-4.24943e-09
1.55023e-05
1.80908e-08
1.54505e-05
5.17197e-08
1.53994e-05
5.11479e-08
1.54304e-05
-3.10166e-08
1.5591e-05
-1.60585e-07
1.5879e-05
-2.8807e-07
1.61357e-05
-2.5667e-07
1.61966e-05
-6.08754e-08
1.60139e-05
1.82669e-07
1.55621e-05
4.51822e-07
1.51278e-05
4.34268e-07
1.52333e-05
-1.05496e-07
1.60393e-05
-8.06045e-07
1.76362e-05
-1.5969e-06
2.07145e-05
-3.0783e-06
2.3977e-05
-3.26253e-06
1.85942e-05
5.38286e-06
6.13394e-06
1.24602e-05
-2.64354e-06
8.77748e-06
-2.0167e-05
1.75234e-05
-7.99798e-06
-1.2169e-05
1.56744e-05
-2.36724e-05
-1.81096e-05
3.3784e-05
-4.05875e-05
2.24779e-05
-4.09371e-05
0.000105141
-1.00499e-06
-0.000149882
6.78498e-05
6.10973e-05
-1.54651e-05
0.000116994
1.47899e-05
-4.91758e-05
4.21268e-05
-3.58432e-05
5.9858e-06
5.14975e-05
-3.04954e-05
4.46415e-05
-6.70481e-05
4.89594e-05
-7.8953e-05
1.69208e-05
-6.92057e-05
-1.33702e-05
-6.01393e-05
-1.23441e-05
-5.53886e-05
-6.46441e-06
-5.30203e-05
-3.24498e-06
-5.27268e-05
-4.40507e-07
-5.38896e-05
1.57724e-06
-5.5071e-05
1.62277e-06
-5.54812e-05
5.83904e-07
-5.519e-05
-3.59571e-07
-5.43882e-05
-1.0636e-06
-5.35488e-05
-1.12891e-06
-5.31009e-05
-6.05472e-07
-5.30387e-05
-8.9491e-08
-5.33366e-05
3.77646e-07
-5.36346e-05
3.78624e-07
-5.36829e-05
6.6264e-08
-5.36754e-05
-9.32178e-09
-5.36902e-05
1.66293e-08
-5.37576e-05
8.796e-08
-5.38618e-05
1.37528e-07
-5.39712e-05
1.44434e-07
-5.4077e-05
1.38525e-07
-5.41826e-05
1.40439e-07
-5.4294e-05
1.43677e-07
-5.44103e-05
1.51661e-07
-5.45285e-05
1.54372e-07
-5.46468e-05
1.54384e-07
-5.47643e-05
1.53139e-07
-5.48813e-05
1.5591e-07
-5.49984e-05
1.49525e-07
-5.51134e-05
1.49877e-07
-5.52268e-05
1.47611e-07
-5.53387e-05
1.45582e-07
-5.54483e-05
1.42916e-07
-5.55557e-05
1.39765e-07
-5.56611e-05
1.36832e-07
-5.57629e-05
1.32467e-07
-5.58631e-05
1.38535e-07
-5.59594e-05
1.17144e-07
-5.60523e-05
1.2074e-07
-5.61437e-05
1.182e-07
-5.62321e-05
1.14855e-07
-5.63179e-05
1.11096e-07
-5.64011e-05
1.0751e-07
-5.64819e-05
1.08068e-07
-5.65601e-05
9.81577e-08
-5.66367e-05
9.85806e-08
-5.671e-05
9.49601e-08
-5.67823e-05
8.76139e-08
-5.68522e-05
9.55643e-08
-5.69229e-05
9.06791e-08
-5.69933e-05
9.06397e-08
-5.70631e-05
8.99323e-08
-5.71324e-05
8.91852e-08
-5.72025e-05
8.96374e-08
-5.72729e-05
9.03295e-08
-5.73438e-05
9.08296e-08
-5.74167e-05
7.15844e-08
-5.74896e-05
1.13611e-07
-5.75658e-05
7.34004e-08
-5.76431e-05
1.2289e-07
-5.77202e-05
7.58744e-08
-5.77986e-05
1.2327e-07
-5.7676e-05
-1.50721e-07
-5.77642e-05
1.30524e-07
-5.7821e-05
7.40346e-08
-5.76467e-05
-1.99566e-07
-5.77133e-05
8.58143e-08
-5.77886e-05
9.62466e-08
-5.78682e-05
1.02829e-07
-5.79508e-05
1.0654e-07
-5.80362e-05
1.10033e-07
-5.81242e-05
1.13636e-07
-5.82154e-05
1.17401e-07
-5.83091e-05
1.21209e-07
-5.84054e-05
1.24552e-07
-5.85052e-05
1.28571e-07
-5.86063e-05
1.308e-07
-5.87084e-05
9.44112e-08
-5.88125e-05
1.70236e-07
-5.89184e-05
8.78086e-08
-5.90296e-05
1.91371e-07
-5.91449e-05
9.55794e-08
-5.92633e-05
2.04554e-07
-5.93833e-05
1.00986e-07
-5.95076e-05
2.12325e-07
-5.96392e-05
1.1461e-07
-5.97789e-05
2.34611e-07
-5.9925e-05
1.35866e-07
-6.00798e-05
2.45739e-07
-6.02474e-05
1.63751e-07
-6.04309e-05
2.85358e-07
-6.06299e-05
2.13751e-07
-6.08453e-05
3.17606e-07
-6.10807e-05
2.66827e-07
-6.13361e-05
3.62761e-07
-6.16106e-05
3.2122e-07
-6.19032e-05
4.08151e-07
-6.22164e-05
3.76954e-07
-6.25478e-05
4.52681e-07
-6.28991e-05
4.3138e-07
-6.32671e-05
4.95946e-07
-6.36507e-05
4.77946e-07
-6.40423e-05
5.2262e-07
-6.44393e-05
5.00793e-07
-6.48382e-05
5.27979e-07
-6.52392e-05
5.10679e-07
-6.56403e-05
5.27641e-07
-6.60372e-05
5.09468e-07
-6.64246e-05
5.07366e-07
-6.68029e-05
4.90589e-07
-6.71663e-05
4.70927e-07
-6.80341e-05
1.06932e-06
-6.8864e-05
1.02189e-06
-6.9149e-05
3.70466e-07
-6.93981e-05
3.26049e-07
-6.96071e-05
2.74274e-07
-6.97728e-05
2.19199e-07
-6.98859e-05
1.52641e-07
-6.9939e-05
7.54571e-08
-6.99194e-05
-1.61875e-08
-6.97998e-05
-1.4389e-07
-6.90681e-05
-8.38648e-07
-6.82486e-05
-1.03516e-06
-6.77831e-05
-5.55554e-07
-6.76381e-05
-2.63807e-07
-6.74338e-05
-2.74113e-07
-6.71277e-05
-4.13491e-07
-6.78025e-05
7.97218e-07
-6.98428e-05
2.74685e-06
-7.28664e-05
3.9622e-06
-7.5949e-05
4.07277e-06
-7.84469e-05
3.35355e-06
-8.03152e-05
2.62657e-06
-8.25577e-05
3.15987e-06
-8.50746e-05
3.54408e-06
-8.5391e-05
8.38532e-07
-7.71343e-05
-1.03879e-05
-5.45421e-05
-2.94823e-05
-1.86197e-05
-4.73917e-05
2.09489e-05
-5.23316e-05
5.66096e-05
-4.70392e-05
7.87389e-05
-2.88571e-05
8.65736e-05
-9.82081e-06
8.60641e-05
1.09349e-06
8.35075e-05
3.62926e-06
8.0445e-05
4.18802e-06
7.69794e-05
4.6304e-06
7.32507e-05
4.99747e-06
6.85757e-05
6.17689e-06
6.41699e-05
5.72084e-06
6.21396e-05
2.7114e-06
6.2338e-05
-3.43313e-07
6.35221e-05
-1.57935e-06
6.43044e-05
-9.63716e-07
6.47545e-05
-6.56612e-07
6.53627e-05
-7.2677e-07
6.62878e-05
-1.13753e-06
6.71551e-05
-1.05651e-06
6.74818e-05
-4.11577e-07
6.77269e-05
-3.0797e-07
6.79084e-05
-2.28062e-07
6.80247e-05
-1.44409e-07
6.80747e-05
-5.98875e-08
6.80652e-05
1.61e-08
6.80014e-05
8.60908e-08
6.78915e-05
1.4395e-07
6.72336e-05
7.99276e-07
6.65329e-05
8.52865e-07
6.63272e-05
2.66709e-07
6.60985e-05
2.96709e-07
6.58487e-05
3.24574e-07
6.55831e-05
3.60423e-07
6.53056e-05
3.43873e-07
6.50174e-05
3.93393e-07
6.47202e-05
3.6408e-07
6.44142e-05
3.95483e-07
6.41038e-05
4.00517e-07
6.37934e-05
4.24653e-07
6.34881e-05
3.68654e-07
6.31882e-05
4.1256e-07
6.2897e-05
3.51219e-07
6.2614e-05
3.94346e-07
6.23425e-05
3.19823e-07
6.20812e-05
3.67667e-07
6.18298e-05
2.92001e-07
6.15871e-05
3.49896e-07
6.13535e-05
2.61809e-07
6.11294e-05
3.28162e-07
6.09148e-05
2.34319e-07
6.07093e-05
3.05126e-07
6.05138e-05
2.08654e-07
6.03316e-05
2.77122e-07
6.01612e-05
1.74858e-07
6.00006e-05
2.50953e-07
5.9849e-05
1.49464e-07
5.97062e-05
2.2899e-07
5.95704e-05
1.28373e-07
5.94411e-05
2.12949e-07
5.93156e-05
1.13474e-07
5.91942e-05
2.05717e-07
5.90762e-05
1.01209e-07
5.89578e-05
1.5198e-07
5.88412e-05
1.50134e-07
5.87232e-05
1.51813e-07
5.86051e-05
1.52145e-07
5.84863e-05
1.53056e-07
5.83666e-05
1.53728e-07
5.82455e-05
1.55648e-07
5.81232e-05
1.57196e-07
5.80024e-05
1.54977e-07
5.78856e-05
1.50152e-07
5.80369e-05
-1.69047e-07
5.81661e-05
-1.39829e-07
5.80249e-05
1.81692e-07
5.7889e-05
1.96851e-07
5.77564e-05
1.46787e-07
5.76328e-05
1.76293e-07
5.75117e-05
1.35887e-07
5.73949e-05
1.62476e-07
5.72805e-05
1.3071e-07
5.71701e-05
1.54615e-07
5.70641e-05
1.22233e-07
5.69598e-05
1.32957e-07
5.68593e-05
1.28321e-07
5.67608e-05
1.25752e-07
5.66645e-05
1.22714e-07
5.6571e-05
1.19678e-07
5.64787e-05
1.18297e-07
5.63871e-05
1.17498e-07
5.62962e-05
1.16117e-07
5.62075e-05
1.14074e-07
5.61178e-05
1.22312e-07
5.60288e-05
1.0704e-07
5.59385e-05
1.22464e-07
5.5849e-05
1.07987e-07
5.57589e-05
1.16391e-07
5.56675e-05
1.17358e-07
5.55749e-05
1.19313e-07
5.54809e-05
1.21449e-07
5.53854e-05
1.23034e-07
5.52896e-05
1.24039e-07
5.51922e-05
1.27016e-07
5.50923e-05
1.28598e-07
5.49915e-05
1.30073e-07
5.48881e-05
1.34395e-07
5.47837e-05
1.3558e-07
5.46779e-05
1.37678e-07
5.45707e-05
1.3937e-07
5.44625e-05
1.40565e-07
5.43534e-05
1.42182e-07
5.42429e-05
1.42528e-07
5.41329e-05
1.45103e-07
5.40229e-05
1.43504e-07
5.39125e-05
1.44126e-07
5.38027e-05
1.43541e-07
5.36952e-05
1.40422e-07
5.35933e-05
1.32943e-07
5.34978e-05
1.25764e-07
5.34029e-05
1.24557e-07
5.3305e-05
1.29611e-07
5.32124e-05
1.22585e-07
5.31555e-05
7.46367e-08
5.31497e-05
6.14892e-09
5.31634e-05
-1.81003e-08
5.31181e-05
6.34528e-08
5.29768e-05
1.92933e-07
5.28345e-05
1.93485e-07
5.2919e-05
-1.15505e-07
5.33822e-05
-6.23741e-07
5.42215e-05
-1.12753e-06
5.50127e-05
-1.04787e-06
5.5287e-05
-3.35157e-07
5.48553e-05
6.14382e-07
5.36483e-05
1.65877e-06
5.24368e-05
1.64577e-06
5.26252e-05
-2.93889e-07
5.48094e-05
-2.99025e-06
5.92533e-05
-6.04081e-06
6.77954e-05
-1.16205e-05
7.65399e-05
-1.2007e-05
6.35473e-05
1.83754e-05
2.60757e-05
4.99319e-05
-1.18252e-05
4.66784e-05
-5.22124e-05
5.79106e-05
-1.55835e-05
-4.87978e-05
2.75183e-05
-6.67742e-05
-5.73953e-05
0.000118698
-9.54868e-05
6.05694e-05
-0.000137429
0.000142517
1.10425e-06
-0.000293503
0.000112673
9.09419e-05
-7.41565e-06
0.000237082
2.46009e-05
-8.11923e-05
6.84622e-05
-7.97045e-05
8.55413e-06
0.000111406
-6.57116e-05
0.000118907
-0.000126211
0.000109459
-0.000142306
3.30159e-05
-0.000126948
-2.87278e-05
-0.000112989
-2.63032e-05
-0.000105564
-1.38894e-05
-0.000101981
-6.82844e-06
-0.000101687
-7.3387e-07
-0.000103533
3.42285e-06
-0.000105303
3.39258e-06
-0.000105812
1.09274e-06
-0.000105194
-9.76991e-07
-0.000103817
-2.44024e-06
-0.000102447
-2.4992e-06
-0.000101736
-1.3167e-06
-0.000101674
-1.51439e-07
-0.000102274
9.77257e-07
-0.000102853
9.58219e-07
-0.000102928
1.40715e-07
-0.000102924
-1.26411e-08
-0.00010296
5.2437e-08
-0.000103089
2.16376e-07
-0.000103277
3.2618e-07
-0.000103477
3.43637e-07
-0.00010367
3.31609e-07
-0.000103865
3.37264e-07
-0.000104072
3.48941e-07
-0.000104287
3.66857e-07
-0.000104505
3.72443e-07
-0.000104723
3.71811e-07
-0.000104941
3.71618e-07
-0.00010516
3.7647e-07
-0.000105377
3.64938e-07
-0.000105592
3.64349e-07
-0.000105803
3.58765e-07
-0.000106011
3.53846e-07
-0.000106216
3.47918e-07
-0.000106417
3.40908e-07
-0.000106613
3.31844e-07
-0.000106804
3.24069e-07
-0.000106992
3.31213e-07
-0.000107174
2.93998e-07
-0.000107351
2.98044e-07
-0.000107522
2.88545e-07
-0.000107688
2.81719e-07
-0.000107851
2.7346e-07
-0.000108008
2.64505e-07
-0.000108163
2.64466e-07
-0.000108312
2.45831e-07
-0.000108458
2.44039e-07
-0.0001086
2.37014e-07
-0.000108739
2.23279e-07
-0.000108877
2.36668e-07
-0.000109014
2.27422e-07
-0.000109151
2.28059e-07
-0.000109288
2.26778e-07
-0.000109425
2.26072e-07
-0.000109563
2.27603e-07
-0.000109702
2.29355e-07
-0.000109844
2.3294e-07
-0.000109988
2.03133e-07
-0.000110134
2.71059e-07
-0.000110285
2.09887e-07
-0.000110435
2.87081e-07
-0.000110587
2.14931e-07
-0.000110739
2.87529e-07
-0.000110419
-4.80708e-07
-0.000110584
3.04996e-07
-0.000110679
1.69449e-07
-0.000110242
-6.36123e-07
-0.000110376
2.19676e-07
-0.000110522
2.41931e-07
-0.000110675
2.55741e-07
-0.000110834
2.65071e-07
-0.000110997
2.73797e-07
-0.000111168
2.83791e-07
-0.000111341
2.91005e-07
-0.00011152
3.00228e-07
-0.000111705
3.09223e-07
-0.000111894
3.1761e-07
-0.00011209
3.25985e-07
-0.000112284
2.66707e-07
-0.000112485
3.92308e-07
-0.00011269
2.62868e-07
-0.000112904
4.3439e-07
-0.000113128
2.88118e-07
-0.000113359
4.66952e-07
-0.000113596
3.05388e-07
-0.000113842
4.90031e-07
-0.000114103
3.43478e-07
-0.000114383
5.4793e-07
-0.000114677
3.99275e-07
-0.000114988
5.84847e-07
-0.000115326
4.71365e-07
-0.000115696
6.85918e-07
-0.000116097
5.89658e-07
-0.000116527
7.73658e-07
-0.000116997
7.15131e-07
-0.000117504
8.91093e-07
-0.000118044
8.4296e-07
-0.000118621
1.00458e-06
-0.000119231
9.71162e-07
-0.000119876
1.11397e-06
-0.000120555
1.09733e-06
-0.000121265
1.21873e-06
-0.000122
1.20262e-06
-0.000122749
1.28174e-06
-0.000123504
1.2487e-06
-0.000124262
1.29345e-06
-0.00012502
1.26391e-06
-0.000125775
1.28749e-06
-0.00012652
1.25177e-06
-0.000127243
1.23378e-06
-0.000127945
1.1927e-06
-0.000128624
1.14989e-06
-0.000130432
2.87735e-06
-0.000132155
2.74496e-06
-0.000132667
8.82143e-07
-0.00013311
7.68748e-07
-0.000133473
6.3729e-07
-0.000133747
4.93652e-07
-0.000133919
3.24377e-07
-0.000133969
1.25267e-07
-0.000133879
-1.05655e-07
-0.000133594
-4.29292e-07
-0.000131967
-2.44245e-06
-0.000130183
-2.84259e-06
-0.000129253
-1.46417e-06
-0.000129103
-4.34935e-07
-0.000128838
-5.24723e-07
-0.000128239
-1.02746e-06
-0.000129485
1.99722e-06
-0.000133199
6.50682e-06
-0.000138577
9.34007e-06
-0.000143884
9.37994e-06
-0.000147959
7.42865e-06
-0.000150584
5.25202e-06
-0.000153565
6.14084e-06
-0.00015666
6.63824e-06
-0.00015505
-7.71155e-07
-0.000137954
-2.74837e-05
-9.63878e-05
-7.10486e-05
-3.27141e-05
-0.000111065
3.67968e-05
-0.000121843
0.000100041
-0.000110284
0.000140851
-6.96666e-05
0.000157244
-2.62143e-05
0.000158523
-1.85027e-07
0.000155419
6.73302e-06
0.000150898
8.70839e-06
0.000145246
1.02828e-05
0.000139022
1.12208e-05
0.000130832
1.4367e-05
0.000122679
1.38727e-05
0.000118767
6.67349e-06
0.000119093
-7.19252e-07
0.00012139
-3.91313e-06
0.000122805
-2.34057e-06
0.000123571
-1.44922e-06
0.000124796
-1.9237e-06
0.000126805
-3.14806e-06
0.000128704
-2.95477e-06
0.000129379
-1.08639e-06
0.00012989
-8.19092e-07
0.000130278
-6.15451e-07
0.000130533
-4.00086e-07
0.00013066
-1.86768e-07
0.000130668
7.95563e-09
0.00013057
1.83776e-07
0.000130385
3.29353e-07
0.000128974
2.21007e-06
0.00012747
2.35703e-06
0.000127087
6.49677e-07
0.000126666
7.17304e-07
0.000126203
7.87965e-07
0.000125707
8.662e-07
0.000125187
8.53921e-07
0.000124645
9.47936e-07
0.000124083
9.13946e-07
0.000123504
9.74286e-07
0.000122913
9.90617e-07
0.000122322
1.03036e-06
0.000121736
9.38739e-07
0.000121162
1.00333e-06
0.000120599
8.9943e-07
0.000120053
9.58007e-07
0.000119523
8.31784e-07
0.000119015
8.95197e-07
0.000118522
7.65519e-07
0.000118046
8.49028e-07
0.000117588
6.97035e-07
0.000117146
7.94658e-07
0.000116723
6.32653e-07
0.000116318
7.35107e-07
0.000115934
5.66139e-07
0.000115575
6.63078e-07
0.000115239
4.84075e-07
0.000114924
5.93019e-07
0.000114626
4.18956e-07
0.000114346
5.3651e-07
0.000114081
3.65359e-07
0.000113828
4.93932e-07
0.000113585
3.27555e-07
0.000113349
4.71992e-07
0.000113119
3.00528e-07
0.00011289
3.80425e-07
0.000112662
3.77866e-07
0.000112435
3.7897e-07
0.000112205
3.8144e-07
0.000111975
3.83043e-07
0.000111744
3.85028e-07
0.000111507
3.91826e-07
0.00011127
3.94424e-07
0.000111035
3.8974e-07
0.000110806
3.78769e-07
0.000111207
-5.69844e-07
0.000111564
-4.97394e-07
0.000111292
4.53462e-07
0.000111025
4.76134e-07
0.000110765
3.94149e-07
0.000110518
4.33478e-07
0.000110277
3.65898e-07
0.000110043
4.03814e-07
0.000109816
3.49445e-07
0.000109594
3.83425e-07
0.00010938
3.2924e-07
0.000109171
3.41466e-07
0.000108968
3.31598e-07
0.00010877
3.22964e-07
0.000108578
3.15244e-07
0.00010839
3.07212e-07
0.000108206
3.02455e-07
0.000108023
2.9983e-07
0.000107844
2.95596e-07
0.000107665
2.92307e-07
0.000107489
3.02229e-07
0.000107313
2.78656e-07
0.000107138
3.01689e-07
0.000106963
2.78603e-07
0.000106787
2.9253e-07
0.000106611
2.93305e-07
0.000106432
2.98045e-07
0.000106251
3.02098e-07
0.000106069
3.04435e-07
0.000105884
3.09816e-07
0.000105697
3.13778e-07
0.000105507
3.18481e-07
0.000105314
3.21923e-07
0.000105121
3.28325e-07
0.000104923
3.33266e-07
0.000104723
3.37373e-07
0.000104522
3.40589e-07
0.000104319
3.43133e-07
0.000104115
3.46726e-07
0.000103909
3.47306e-07
0.000103703
3.5203e-07
0.000103498
3.48188e-07
0.000103296
3.46588e-07
0.000103094
3.45492e-07
0.000102896
3.38545e-07
0.000102708
3.20345e-07
0.000102532
3.01611e-07
0.000102361
2.96187e-07
0.000102184
3.05979e-07
0.000102019
2.87962e-07
0.000101912
1.8134e-07
0.000101896
2.27384e-08
0.000101915
-3.72619e-08
0.000101848
1.29737e-07
0.000101629
4.1182e-07
0.000101402
4.20653e-07
0.000101526
-2.39403e-07
0.000102271
-1.36857e-06
0.000103645
-2.50199e-06
0.000105008
-2.41052e-06
0.000105602
-9.29471e-07
0.000105065
1.15146e-06
0.000103266
3.45766e-06
0.000101362
3.55035e-06
0.000101507
-4.39011e-07
0.000104819
-6.3023e-06
0.000111786
-1.30083e-05
0.000124973
-2.48067e-05
0.000138784
-2.58187e-05
0.000120799
3.63607e-05
5.72814e-05
0.00011345
-1.93178e-05
0.000123278
-8.18486e-05
0.000120441
-2.4088e-05
-0.000106558
2.64346e-05
-0.000117297
-9.71163e-05
0.000242249
-0.000134345
9.77983e-05
-0.00027067
0.000166921
3.71689e-06
-0.000464142
0.000154271
0.000103593
1.49831e-05
0.00037637
3.85475e-05
-0.000104757
8.70765e-05
-0.000128234
4.21901e-06
0.000194263
-0.000113839
0.000236965
-0.000197136
0.000192755
-0.000214623
5.05028e-05
-0.000194846
-4.85045e-05
-0.00017746
-4.36893e-05
-0.000168031
-2.3319e-05
-0.000163661
-1.11982e-05
-0.000163476
-9.19094e-07
-0.000165846
5.79301e-06
-0.000167956
5.50261e-06
-0.000168387
1.52399e-06
-0.000167364
-2.0002e-06
-0.000165436
-4.36777e-06
-0.000163608
-4.32724e-06
-0.000162698
-2.22714e-06
-0.000162676
-1.73663e-07
-0.000163427
1.72907e-06
-0.000164102
1.6327e-06
-0.000164198
2.36358e-07
-0.000164206
-3.43655e-09
-0.000164282
1.27108e-07
-0.000164481
4.15814e-07
-0.000164763
6.08211e-07
-0.00016506
6.40895e-07
-0.000165352
6.23448e-07
-0.00016565
6.36476e-07
-0.000165963
6.60579e-07
-0.000166289
6.92701e-07
-0.000166621
7.04074e-07
-0.000166952
7.0337e-07
-0.000167285
7.03848e-07
-0.000167618
7.11059e-07
-0.00016795
6.95443e-07
-0.000168277
6.91563e-07
-0.000168601
6.82411e-07
-0.00016892
6.73472e-07
-0.000169232
6.59971e-07
-0.00016954
6.48814e-07
-0.000169842
6.33421e-07
-0.000170136
6.18056e-07
-0.000170422
6.21987e-07
-0.000170704
5.71346e-07
-0.000170974
5.67533e-07
-0.00017124
5.54318e-07
-0.000171497
5.3901e-07
-0.000171749
5.25703e-07
-0.000171995
5.10733e-07
-0.000172236
5.0635e-07
-0.000172469
4.77795e-07
-0.000172697
4.71875e-07
-0.00017292
4.59718e-07
-0.000173141
4.41472e-07
-0.000173361
4.59338e-07
-0.000173579
4.44918e-07
-0.000173797
4.45904e-07
-0.000174018
4.48229e-07
-0.00017424
4.47767e-07
-0.00017446
4.47749e-07
-0.000174687
4.55834e-07
-0.000174917
4.63244e-07
-0.000175148
4.22707e-07
-0.000175384
5.16886e-07
-0.000175626
4.39807e-07
-0.00017587
5.43365e-07
-0.000176112
4.45218e-07
-0.000176356
5.43196e-07
-0.000176086
-7.59759e-07
-0.000176346
5.73933e-07
-0.000176452
2.75257e-07
-0.000175974
-1.1133e-06
-0.00017619
4.35224e-07
-0.000176424
4.75353e-07
-0.00017667
5.02577e-07
-0.000176925
5.19118e-07
-0.000177184
5.3352e-07
-0.00017745
5.49863e-07
-0.000177726
5.66657e-07
-0.00017801
5.84408e-07
-0.000178301
6.00149e-07
-0.0001786
6.15964e-07
-0.000178909
6.34567e-07
-0.000179218
5.55851e-07
-0.000179536
7.2969e-07
-0.000179867
5.66781e-07
-0.000180214
8.0747e-07
-0.000180576
6.21484e-07
-0.000180951
8.70432e-07
-0.000181341
6.66001e-07
-0.000181749
9.26928e-07
-0.000182184
7.49085e-07
-0.000182649
1.04357e-06
-0.000183141
8.63091e-07
-0.000183663
1.13308e-06
-0.00018423
1.01095e-06
-0.000184846
1.32923e-06
-0.000185512
1.23291e-06
-0.000186226
1.51058e-06
-0.000186998
1.46878e-06
-0.000187826
1.73748e-06
-0.000188706
1.70673e-06
-0.000189634
1.94967e-06
-0.000190614
1.93726e-06
-0.000191641
2.15522e-06
-0.000192715
2.16033e-06
-0.000193835
2.34987e-06
-0.000194986
2.34478e-06
-0.000196153
2.45791e-06
-0.000197326
2.41503e-06
-0.000198497
2.4709e-06
-0.000199664
2.42644e-06
-0.00020082
2.4479e-06
-0.000201953
2.3825e-06
-0.00020305
2.33299e-06
-0.000204107
2.24954e-06
-0.000205134
2.17695e-06
-0.000207367
5.111e-06
-0.000209457
4.83461e-06
-0.000210185
1.60984e-06
-0.000210799
1.38327e-06
-0.000211287
1.12568e-06
-0.000211641
8.47446e-07
-0.000211835
5.18444e-07
-0.000211844
1.3406e-07
-0.000211632
-3.17415e-07
-0.00021114
-9.21434e-07
-0.000209061
-4.5031e-06
-0.000206697
-5.22667e-06
-0.000205192
-2.94968e-06
-0.000204468
-1.17843e-06
-0.000203612
-1.36878e-06
-0.00020269
-1.9623e-06
-0.000204543
3.81263e-06
-0.000209998
1.19999e-05
-0.000217759
1.7101e-05
-0.000225285
1.6906e-05
-0.000230926
1.3069e-05
-0.000234552
8.8786e-06
-0.000237836
9.42497e-06
-0.000240147
8.94941e-06
-0.00023466
-6.25835e-06
-0.000205852
-5.62917e-05
-0.000142187
-0.000134714
-4.798e-05
-0.000205272
5.39486e-05
-0.000223771
0.000147569
-0.000203904
0.00021019
-0.000132288
0.000238005
-5.40297e-05
0.000243015
-5.19498e-06
0.000240427
9.32156e-06
0.00023544
1.36951e-05
0.000228293
1.74293e-05
0.000219011
2.05031e-05
0.000206557
2.68203e-05
0.000194374
2.60551e-05
0.000188309
1.27802e-05
0.000188703
-1.1559e-06
0.000192245
-7.48579e-06
0.000194826
-4.88925e-06
0.000196446
-3.09301e-06
0.000198455
-3.90718e-06
0.000201286
-5.98149e-06
0.000203889
-5.55605e-06
0.000204969
-2.16684e-06
0.000205813
-1.66243e-06
0.000206455
-1.2583e-06
0.000206897
-8.41318e-07
0.000207138
-4.28403e-07
0.0002072
-5.35702e-08
0.000207096
2.87453e-07
0.000206852
5.73431e-07
0.000205203
3.85876e-06
0.000203403
4.15669e-06
0.000202828
1.22525e-06
0.000202202
1.34318e-06
0.000201506
1.48383e-06
0.000200758
1.62273e-06
0.000199967
1.63588e-06
0.000199138
1.78775e-06
0.000198276
1.76542e-06
0.000197383
1.86663e-06
0.00019647
1.90324e-06
0.000195552
1.96195e-06
0.000194636
1.84098e-06
0.000193735
1.91819e-06
0.000192849
1.77187e-06
0.000191984
1.83982e-06
0.000191144
1.65572e-06
0.000190328
1.72733e-06
0.000189539
1.53786e-06
0.000188772
1.63646e-06
0.00018803
1.41853e-06
0.000187315
1.53188e-06
0.000186629
1.29616e-06
0.000185971
1.4157e-06
0.000185345
1.16836e-06
0.00018476
1.27146e-06
0.000184214
1.00647e-06
0.000183701
1.12993e-06
0.000183217
8.7849e-07
0.000182761
1.01671e-06
0.000182333
7.68527e-07
0.000181925
9.27004e-07
0.000181531
6.96069e-07
0.000181147
8.82418e-07
0.000180778
6.41816e-07
0.000180411
7.47427e-07
0.000180045
7.43035e-07
0.000179682
7.42582e-07
0.000179315
7.47945e-07
0.000178945
7.52919e-07
0.000178573
7.57061e-07
0.000178197
7.67115e-07
0.000177816
7.74994e-07
0.000177436
7.70158e-07
0.000177061
7.53456e-07
0.000177472
-9.81166e-07
0.000177828
-8.54103e-07
0.000177395
8.86812e-07
0.000176971
9.11229e-07
0.000176554
7.9947e-07
0.000176159
8.3693e-07
0.00017577
7.45291e-07
0.000175392
7.88395e-07
0.00017502
7.1369e-07
0.000174659
7.5156e-07
0.000174309
6.72505e-07
0.000173969
6.80591e-07
0.000173636
6.64577e-07
0.000173312
6.47445e-07
0.000172999
6.27826e-07
0.000172691
6.15224e-07
0.000172388
6.04909e-07
0.000172093
5.94846e-07
0.000171802
5.86734e-07
0.000171512
5.81781e-07
0.000171227
5.91517e-07
0.000170944
5.57034e-07
0.000170663
5.86382e-07
0.000170383
5.54597e-07
0.000170102
5.7289e-07
0.00016982
5.75305e-07
0.000169536
5.81829e-07
0.000169252
5.86698e-07
0.000168963
5.93025e-07
0.000168675
5.97942e-07
0.00016838
6.0877e-07
0.000168085
6.13193e-07
0.000167785
6.21218e-07
0.000167481
6.3237e-07
0.000167175
6.39904e-07
0.000166867
6.44968e-07
0.000166555
6.52662e-07
0.000166241
6.56458e-07
0.000165927
6.61147e-07
0.00016561
6.63066e-07
0.000165295
6.67858e-07
0.000164983
6.60473e-07
0.000164673
6.56012e-07
0.000164366
6.52869e-07
0.000164066
6.38319e-07
0.000163782
6.04065e-07
0.000163515
5.68869e-07
0.000163257
5.54733e-07
0.000162995
5.6775e-07
0.000162749
5.33535e-07
0.000162585
3.45832e-07
0.000162542
6.51301e-08
0.000162561
-5.56737e-08
0.000162481
2.09086e-07
0.000162204
6.88701e-07
0.000161905
7.19765e-07
0.00016205
-3.84083e-07
0.000163013
-2.33193e-06
0.000164845
-4.33331e-06
0.000166748
-4.31407e-06
0.000167737
-1.9188e-06
0.00016727
1.61929e-06
0.000165131
5.59625e-06
0.000162704
5.97756e-06
0.000162714
-4.48776e-07
0.000166743
-1.03313e-05
0.000175585
-2.18512e-05
0.000192004
-4.12252e-05
0.00020992
-4.37344e-05