/*--------------------------------*- C++ -*----------------------------------*\
| =========                 |                                                 |
| \\      /  F ield         | OpenFOAM: The Open Source CFD Toolbox           |
|  \\    /   O peration     | Version:  2412                                  |
|   \\  /    A nd           | Website:  www.openfoam.com                      |
|    \\/     M anipulation  |                                                 |
\*---------------------------------------------------------------------------*/
FoamFile
{
    version     2.0;
    format      ascii;
    arch        "LSB;label=32;scalar=64";
    class       volVectorField;
    location    "40";
    object      U;
}
// * * * * * * * * * * * * * * * * * * * * * * * * * * * * * * * * * * * * * //

dimensions      [0 1 -1 0 0 0 0];

internalField   nonuniform List<vector> 
32591
(
(-0.177805 -2.5947 -1.16071e-23)
(-0.882462 -4.03 1.52532e-22)
(0.0772878 0.0414174 -1.44131e-22)
(0.651355 0.954485 0)
(-1.41039 -1.28443 -1.54849e-19)
(-0.73244 -0.479706 1.41297e-19)
(0.418104 0.201806 0)
(1.16818 0.294718 -5.90797e-23)
(2.12301 0.342643 -5.77453e-20)
(2.0202 0.247122 5.67459e-23)
(1.62291 0.205294 0)
(1.44018 0.194795 0)
(1.33085 0.188984 0)
(1.28972 0.188631 0)
(1.3092 0.192716 9.0628e-20)
(1.35602 0.195894 8.27088e-20)
(1.38323 0.194838 7.62616e-20)
(1.38681 0.19176 0)
(1.37083 0.187815 3.17855e-23)
(1.34321 0.184425 2.42439e-19)
(1.32294 0.183025 -2.69254e-23)
(1.31617 0.183 5.38217e-25)
(1.31862 0.183603 3.70828e-19)
(1.32941 0.18445 3.53786e-25)
(1.3322 0.184023 1.86648e-23)
(1.33245 0.183618 -1.41195e-19)
(1.33205 0.183376 0)
(1.33309 0.18335 2.35055e-19)
(1.33565 0.183423 0)
(1.33877 0.183468 -1.17428e-23)
(1.3417 0.183464 1.10175e-23)
(1.34448 0.183448 0)
(1.34738 0.18344 5.89163e-19)
(1.35044 0.183419 1.63577e-23)
(1.35357 0.183374 -1.48669e-23)
(1.35672 0.1833 -2.21118e-19)
(1.35984 0.183197 -5.99893e-24)
(1.36296 0.183065 1.81895e-19)
(1.36608 0.182901 -3.29387e-19)
(1.36916 0.182698 -2.97857e-19)
(1.37219 0.182458 2.05464e-25)
(1.37518 0.182178 -2.42403e-19)
(1.37812 0.18186 2.18045e-19)
(1.38101 0.1815 -2.89579e-24)
(1.38383 0.181094 1.75118e-19)
(1.38658 0.180646 -2.30155e-24)
(1.38927 0.180152 2.77623e-19)
(1.39191 0.17962 -2.45564e-19)
(1.39445 0.179036 4.3202e-19)
(1.39691 0.178407 1.88727e-19)
(1.39931 0.177736 1.63507e-19)
(1.40164 0.177019 1.00599e-24)
(1.4039 0.176255 1.18527e-19)
(1.4061 0.175451 0)
(1.40827 0.174603 5.51936e-25)
(1.41032 0.173705 -5.32468e-25)
(1.41234 0.17277 9.22835e-20)
(1.41429 0.171787 6.19488e-20)
(1.41622 0.170769 -3.35399e-20)
(1.4181 0.169707 7.58452e-26)
(1.41998 0.168611 9.05961e-26)
(1.42186 0.167477 3.17622e-25)
(1.42373 0.166304 -4.87724e-25)
(1.42557 0.165094 8.51674e-20)
(1.42743 0.163849 -4.43367e-25)
(1.42931 0.162568 4.31535e-25)
(1.43121 0.16125 0)
(1.43314 0.159896 0)
(1.43511 0.158508 7.10549e-25)
(1.43718 0.157086 -3.84028e-19)
(1.43918 0.155615 0)
(1.44127 0.154108 0)
(1.44342 0.152535 -4.72633e-19)
(1.43964 0.150309 5.00605e-19)
(1.44842 0.149388 5.27135e-19)
(1.44282 0.14683 5.53838e-19)
(1.44454 0.145069 0)
(1.44649 0.143242 0)
(1.44862 0.141374 -6.29689e-19)
(1.45085 0.139446 6.54327e-19)
(1.45314 0.137453 6.78796e-19)
(1.45551 0.135392 0)
(1.45796 0.133256 0)
(1.46048 0.131043 -7.51956e-19)
(1.46309 0.128744 0)
(1.46577 0.126352 8.01328e-19)
(1.46852 0.123863 -8.2641e-19)
(1.47133 0.121264 -8.51845e-19)
(1.47409 0.118542 8.77681e-19)
(1.477 0.11571 9.04033e-19)
(1.47986 0.112732 5.17428e-25)
(1.48299 0.109637 9.5833e-19)
(1.48606 0.106383 -1.97284e-18)
(1.48932 0.102984 -3.3447e-26)
(1.49247 0.0994027 1.0448e-18)
(1.4959 0.0956606 -1.07516e-18)
(1.49936 0.0917279 -2.21265e-18)
(1.50316 0.0876172 1.13845e-18)
(1.50692 0.0832835 1.17148e-18)
(1.51107 0.0787495 1.20552e-18)
(1.51544 0.0739851 -1.24055e-18)
(1.52038 0.0689926 6.38334e-19)
(1.52549 0.0637384 6.56947e-19)
(1.5312 0.0582227 -6.76143e-19)
(1.53727 0.0524173 -6.95928e-19)
(1.54399 0.0463123 -7.16345e-19)
(1.55101 0.0398743 7.37396e-19)
(1.55867 0.0330903 -8.74151e-27)
(1.56665 0.0259291 -3.90754e-19)
(1.57525 0.01837 -1.93988e-25)
(1.58417 0.0103839 9.55273e-26)
(1.59366 0.00194066 -2.66542e-20)
(1.60326 -0.00698631 -2.11478e-25)
(1.61315 -0.0164244 -4.14423e-27)
(1.62294 -0.0264071 2.19969e-25)
(1.63286 -0.0369609 0)
(1.64266 -0.0481175 0)
(1.65247 -0.0599146 2.10839e-25)
(1.66192 -0.0723736 1.04715e-18)
(1.67112 -0.0855428 1.07826e-18)
(1.67986 -0.0994457 2.10421e-24)
(1.68794 -0.114073 -2.28608e-18)
(1.71223 -0.130905 -4.69944e-18)
(1.71859 -0.147451 -2.41865e-18)
(1.72408 -0.164851 2.4889e-18)
(1.72838 -0.183204 4.89524e-24)
(1.73138 -0.202565 -5.00998e-24)
(1.73298 -0.223006 0)
(1.73281 -0.244578 7.50232e-24)
(1.73066 -0.267348 -2.85209e-18)
(1.72611 -0.291388 0)
(1.71816 -0.316698 4.42217e-24)
(1.69144 -0.340082 0)
(1.67665 -0.367877 -3.11677e-18)
(1.65675 -0.397053 6.32607e-18)
(1.64664 -0.431912 -3.18951e-18)
(1.62168 -0.466526 1.18732e-23)
(1.60963 -0.509464 3.15688e-18)
(1.62605 -0.568715 -3.06425e-18)
(1.67233 -0.650137 2.89792e-18)
(1.72701 -0.752117 -5.26447e-18)
(1.76245 -0.868908 2.22428e-18)
(1.76861 -1.00133 -2.84006e-23)
(1.74814 -1.15932 -1.0695e-24)
(1.70905 -1.3661 1.63529e-23)
(1.6092 -1.61992 3.17737e-18)
(1.34861 -1.8336 2.2822e-23)
(0.830403 -1.72865 -5.63476e-18)
(0.252525 -1.07119 8.47142e-23)
(0.00656361 0.0335974 -6.72123e-23)
(0.266451 1.13168 8.37434e-23)
(0.852488 1.77491 5.50184e-18)
(1.36899 1.86136 -1.59177e-22)
(1.62843 1.6392 -2.89399e-18)
(1.72625 1.37991 1.22706e-23)
(1.76558 1.17084 8.26195e-25)
(1.7553 0.993505 2.21083e-23)
(1.71866 0.847167 -2.40196e-18)
(1.64767 0.717697 2.78761e-18)
(1.54455 0.600519 -3.04295e-18)
(1.48391 0.51904 3.21122e-18)
(1.48456 0.469889 -3.30813e-18)
(1.52062 0.437443 1.24209e-23)
(1.56087 0.409411 3.31801e-18)
(1.58014 0.378681 -6.56147e-18)
(1.6031 0.351735 3.22678e-18)
(1.62081 0.32588 0)
(1.64964 0.304075 -4.3338e-24)
(1.66229 0.280617 3.01447e-18)
(1.67208 0.2583 -2.93734e-18)
(1.67998 0.237123 3.28467e-24)
(1.68594 0.216954 0)
(1.68989 0.197711 -5.14106e-24)
(1.69202 0.179351 5.02324e-24)
(1.6925 0.161832 2.42252e-24)
(1.69147 0.145124 2.47726e-18)
(1.68937 0.129157 2.40523e-18)
(1.66943 0.112819 -2.24298e-24)
(1.6654 0.0985899 2.15139e-24)
(1.66055 0.0850019 -3.16018e-24)
(1.65501 0.0720725 -1.07001e-18)
(1.64882 0.0597821 -2.0644e-25)
(1.64235 0.0481076 0)
(1.6354 0.0370181 0)
(1.62825 0.0264925 2.24515e-25)
(1.62074 0.0165013 -4.26667e-27)
(1.61306 0.00702846 -2.15812e-25)
(1.60524 -0.00195477 2.71949e-20)
(1.59756 -0.0104728 9.7439e-26)
(1.58986 -0.0185402 -1.97891e-25)
(1.58249 -0.0261924 3.75644e-25)
(1.57517 -0.03344 -8.93333e-27)
(1.56824 -0.0403182 -7.52074e-19)
(1.56141 -0.046834 7.30572e-19)
(1.55502 -0.0530235 7.09736e-19)
(1.54867 -0.0588861 6.89526e-19)
(1.54273 -0.0644598 -6.69939e-19)
(1.5368 -0.0697367 -6.50924e-19)
(1.53131 -0.0747607 1.26499e-18)
(1.52582 -0.0795172 -1.22916e-18)
(1.52077 -0.0840509 -1.1944e-18)
(1.5158 -0.0883533 -1.16059e-18)
(1.51135 -0.0924636 2.25541e-18)
(1.50697 -0.0963679 1.09568e-18)
(1.50299 -0.100105 -1.06448e-18)
(1.49902 -0.103654 -3.44209e-26)
(1.49545 -0.107058 2.00855e-18)
(1.49184 -0.110291 -9.75176e-19)
(1.48859 -0.113399 1.12932e-24)
(1.4852 -0.116352 -9.18802e-19)
(1.48209 -0.119189 -8.91397e-19)
(1.4789 -0.121889 8.64433e-19)
(1.47578 -0.124476 8.37886e-19)
(1.47264 -0.126946 -8.11665e-19)
(1.4695 -0.129309 0)
(1.46634 -0.13157 7.60011e-19)
(1.46318 -0.133735 0)
(1.46001 -0.135811 0)
(1.45678 -0.137799 -6.83491e-19)
(1.45357 -0.139708 -6.57933e-19)
(1.45044 -0.141552 6.32225e-19)
(1.44745 -0.143309 0)
(1.45287 -0.145923 0)
(1.44888 -0.147525 5.09299e-25)
(1.44554 -0.149102 -5.25608e-19)
(1.44189 -0.15059 -4.9773e-19)
(1.43874 -0.152072 4.69079e-19)
(1.43559 -0.153506 0)
(1.43259 -0.154905 0)
(1.42967 -0.156269 3.77375e-19)
(1.4268 -0.157592 6.96529e-25)
(1.42405 -0.158886 0)
(1.42137 -0.160143 0)
(1.41878 -0.161372 4.06641e-25)
(1.41623 -0.162566 -4.17792e-25)
(1.41375 -0.163726 -7.70602e-20)
(1.41133 -0.164858 -4.16918e-25)
(1.40894 -0.165956 -3.12569e-20)
(1.40657 -0.167019 -2.47266e-25)
(1.40422 -0.168047 1.29904e-25)
(1.4019 -0.169043 4.88062e-20)
(1.39958 -0.17 -7.91011e-20)
(1.39726 -0.170925 -1.11474e-19)
(1.39491 -0.171807 1.46135e-19)
(1.39259 -0.172659 -1.8328e-19)
(1.39022 -0.173469 0)
(1.38785 -0.174239 -1.32986e-19)
(1.38545 -0.174972 1.12383e-24)
(1.383 -0.175663 1.80796e-19)
(1.38052 -0.176312 0)
(1.37802 -0.176924 -2.36314e-19)
(1.37546 -0.177494 1.9628e-24)
(1.37285 -0.178021 -3.01024e-19)
(1.37021 -0.17851 -2.49027e-24)
(1.36753 -0.178957 -1.88384e-19)
(1.3648 -0.179365 -3.1092e-24)
(1.36202 -0.179731 -2.32883e-19)
(1.3592 -0.180057 2.58027e-19)
(1.35635 -0.180348 -2.37353e-25)
(1.35347 -0.180601 3.15095e-19)
(1.35056 -0.180818 3.47475e-19)
(1.34762 -0.181 -1.91377e-19)
(1.34468 -0.18115 -6.30428e-24)
(1.34175 -0.181273 2.31641e-19)
(1.33881 -0.181369 -1.55447e-23)
(1.33588 -0.181437 1.7076e-23)
(1.33305 -0.181483 -6.14202e-19)
(1.33039 -0.18152 0)
(1.32786 -0.181566 1.14577e-23)
(1.32521 -0.181603 -1.2212e-23)
(1.32239 -0.181595 0)
(1.3201 -0.181556 -2.44152e-19)
(1.31928 -0.18161 0)
(1.31987 -0.181877 1.46606e-19)
(1.31973 -0.182291 1.60475e-19)
(1.31676 -0.18255 1.541e-25)
(1.31092 -0.182368 -3.85158e-19)
(1.30859 -0.181932 5.71537e-25)
(1.3158 -0.182082 -2.80047e-23)
(1.33615 -0.183522 -2.52705e-19)
(1.36345 -0.186858 3.35014e-23)
(1.37889 -0.190712 0)
(1.37458 -0.193644 -8.0096e-20)
(1.3466 -0.194535 -8.72299e-20)
(1.29873 -0.191172 -9.56878e-20)
(1.27684 -0.186752 0)
(1.31328 -0.186517 0)
(1.41522 -0.191481 0)
(1.5848 -0.20063 0)
(1.9616 -0.240163 6.36262e-23)
(2.02423 -0.326334 1.31959e-19)
(1.06978 -0.27032 -6.8775e-23)
(0.30328 -0.156275 0)
(-0.990795 0.659467 -1.58823e-19)
(-1.62112 1.46111 3.82603e-19)
(0.758747 -1.10977 0)
(0.296544 -0.453462 -1.84174e-22)
(-0.810216 3.5846 1.95916e-22)
(-0.154373 2.39375 -9.90121e-24)
(-0.588421 -5.05195 -3.65908e-23)
(-2.08471 -9.54763 -1.87638e-22)
(-0.231255 -1.14648 1.79035e-22)
(1.53046 2.23719 0)
(-3.24833 -2.88203 -1.35344e-22)
(-2.08905 -1.44187 -4.57103e-19)
(1.30147 0.511881 -2.1596e-22)
(3.93952 0.948378 2.33317e-23)
(6.20264 0.980038 1.62757e-22)
(5.84034 0.726719 -9.26481e-23)
(4.87284 0.629809 8.81087e-23)
(4.40952 0.602989 0)
(4.13655 0.590982 -1.66965e-19)
(4.04164 0.591772 0)
(4.09775 0.60194 -2.79951e-19)
(4.21493 0.607608 -1.28131e-19)
(4.27893 0.602371 -5.81327e-23)
(4.28066 0.59224 0)
(4.2326 0.580626 1.03474e-25)
(4.15817 0.571697 -1.90068e-19)
(4.10512 0.568369 1.74996e-19)
(4.08833 0.568354 3.99842e-23)
(4.09597 0.569339 -2.93225e-19)
(4.13439 0.572765 5.31808e-19)
(4.14095 0.571919 6.00776e-25)
(4.1413 0.570628 2.749e-23)
(4.14036 0.569915 -2.03827e-19)
(4.14353 0.5698 3.72412e-19)
(4.15078 0.569919 0)
(4.1595 0.569924 3.10203e-19)
(4.16779 0.569809 2.83061e-19)
(4.17582 0.569674 -4.90456e-25)
(4.18422 0.56957 -4.70369e-19)
(4.1931 0.569422 -1.33038e-23)
(4.20225 0.569203 -3.89811e-19)
(4.21144 0.568899 3.5449e-19)
(4.22061 0.568507 0)
(4.22977 0.568028 0)
(4.23896 0.567455 5.3023e-19)
(4.24803 0.566765 0)
(4.257 0.565961 -4.34297e-19)
(4.26585 0.56504 3.92157e-19)
(4.27458 0.564001 -1.07934e-23)
(4.28316 0.562833 3.17885e-19)
(4.29155 0.561533 -2.85175e-19)
(4.29975 0.560098 -4.02716e-24)
(4.30776 0.558527 -4.54746e-19)
(4.31564 0.556837 3.20263e-24)
(4.32323 0.554991 -3.56409e-19)
(4.33061 0.553012 1.04721e-25)
(4.33783 0.550902 8.90374e-26)
(4.34486 0.548655 2.34869e-19)
(4.35168 0.546268 2.00042e-19)
(4.35833 0.54375 0)
(4.36489 0.541106 -9.57708e-25)
(4.37115 0.538312 1.66941e-24)
(4.37734 0.5354 -1.65672e-19)
(4.38333 0.532351 -3.6079e-25)
(4.38926 0.529187 6.98438e-20)
(4.39509 0.5259 0)
(4.40094 0.522502 -2.21072e-25)
(4.40681 0.51899 5.36874e-20)
(4.41265 0.515364 4.16763e-25)
(4.41848 0.511626 -1.2507e-19)
(4.42436 0.507782 6.71616e-25)
(4.43032 0.503824 -6.53699e-25)
(4.43637 0.499758 -9.02021e-25)
(4.4425 0.495575 8.79385e-25)
(4.44879 0.491292 -5.50013e-19)
(4.45534 0.4869 1.20449e-18)
(4.46174 0.482364 -1.22145e-25)
(4.46835 0.477707 -7.00803e-19)
(4.47497 0.472965 -1.36661e-24)
(4.45018 0.464685 0)
(4.49046 0.463096 -1.67292e-18)
(4.45948 0.454044 -1.77755e-18)
(4.46498 0.448472 1.8308e-24)
(4.47112 0.442841 9.72171e-19)
(4.47779 0.437069 -1.87713e-24)
(4.48474 0.431115 -1.05328e-18)
(4.49189 0.424962 1.09331e-18)
(4.49927 0.418593 -2.10767e-24)
(4.5069 0.411996 1.17304e-18)
(4.51475 0.405154 0)
(4.52285 0.398049 0)
(4.53116 0.390659 -1.29386e-18)
(4.53971 0.382961 1.33496e-18)
(4.54843 0.374933 0)
(4.55704 0.366523 -1.41899e-18)
(4.56613 0.35777 0)
(4.57513 0.348575 -1.50616e-18)
(4.58495 0.339015 -2.45467e-24)
(4.59466 0.328967 1.59715e-18)
(4.60497 0.318473 1.64436e-18)
(4.61502 0.307416 -1.69269e-18)
(4.62599 0.295868 1.74234e-18)
(4.63716 0.28373 1.79325e-18)
(4.64943 0.271045 -1.84573e-18)
(4.66164 0.25767 1.78366e-24)
(4.67515 0.243675 -1.9551e-18)
(4.68942 0.228963 2.01217e-18)
(4.70543 0.213548 -1.03549e-18)
(4.72206 0.197317 1.03064e-24)
(4.74056 0.180274 1.097e-18)
(4.76021 0.162323 0)
(4.7818 0.143441 1.00322e-24)
(4.80432 0.123513 -1.19647e-18)
(4.82875 0.102516 0)
(4.85416 0.0803341 5.10395e-25)
(4.8814 0.0569187 3.14745e-25)
(4.90957 0.0321635 -3.16927e-25)
(4.93941 0.00599737 8.64823e-20)
(4.96955 -0.0216762 1.78083e-19)
(5.00048 -0.0509446 -3.598e-25)
(5.03104 -0.0819002 7.13547e-25)
(5.06193 -0.114626 0)
(5.09235 -0.149222 0)
(5.12271 -0.185797 1.64885e-18)
(5.15185 -0.224426 -1.69773e-18)
(5.18014 -0.265244 -1.74796e-18)
(5.20696 -0.308339 3.41068e-24)
(5.232 -0.353937 0)
(5.33543 -0.408114 3.73333e-18)
(5.35494 -0.459347 3.84206e-18)
(5.37143 -0.513498 -7.90478e-18)
(5.38402 -0.570578 0)
(5.39242 -0.630761 0)
(5.39619 -0.694257 0)
(5.39424 -0.76121 8.81956e-18)
(5.38583 -0.831811 -4.52534e-18)
(5.36961 -0.906249 0)
(5.34218 -0.984163 4.71113e-23)
(5.22908 -1.05127 -1.87527e-23)
(5.18098 -1.13702 3.84189e-23)
(5.11745 -1.22694 -1.02312e-17)
(5.10899 -1.34008 5.0672e-18)
(5.02919 -1.4464 1.88627e-23)
(4.99024 -1.57905 -5.0122e-18)
(5.03855 -1.76189 9.72177e-18)
(5.17402 -2.01119 0)
(5.32692 -2.31973 4.16366e-18)
(5.41293 -2.6685 -7.04043e-18)
(5.40022 -3.05704 -2.5545e-18)
(5.2787 -3.50055 0)
(5.11888 -4.09173 0)
(4.75701 -4.7869 -1.01918e-17)
(3.91897 -5.32403 -1.06934e-17)
(2.37423 -4.93854 -1.13638e-22)
(0.713249 -3.03057 -1.27257e-17)
(0.0161864 0.0945836 1.08578e-22)
(0.752553 3.20124 1.25987e-17)
(2.43784 5.07163 -1.1001e-22)
(3.97988 5.40695 1.02042e-17)
(4.81579 4.84596 9.28246e-18)
(5.17323 4.13513 0)
(5.34562 3.54515 0)
(5.34411 3.02566 2.92142e-18)
(5.26285 2.59456 7.74853e-18)
(5.09234 2.21764 -8.83133e-18)
(4.78527 1.86025 0)
(4.59592 1.60713 -1.02127e-17)
(4.59599 1.45423 5.26649e-18)
(4.7107 1.35473 1.97723e-23)
(4.84083 1.2697 -5.27912e-18)
(4.88228 1.17054 1.06041e-17)
(4.95624 1.0877 3.9748e-23)
(5.01383 1.00799 -1.93848e-23)
(5.13208 0.945443 -4.56053e-23)
(5.17413 0.873243 -4.78482e-18)
(5.2066 0.804115 4.66178e-18)
(5.23276 0.738409 -9.07526e-18)
(5.25259 0.675768 0)
(5.26596 0.615955 0)
(5.27343 0.558847 4.1678e-18)
(5.2756 0.504326 0)
(5.2729 0.4523 -3.93274e-18)
(5.26664 0.402844 -3.81847e-18)
(5.17657 0.35018 0)
(5.16405 0.305789 3.48339e-24)
(5.14918 0.26365 -4.69613e-26)
(5.13218 0.223561 1.73276e-18)
(5.11312 0.185443 -1.68228e-18)
(5.09311 0.149236 0)
(5.07156 0.11484 0)
(5.04934 0.0821907 7.27294e-25)
(5.02595 0.0511999 -3.66799e-25)
(5.002 0.0218122 -1.81456e-19)
(4.97752 -0.00604505 -8.8104e-20)
(4.95342 -0.032457 -3.22801e-25)
(4.92925 -0.0574768 3.20576e-25)
(4.90599 -0.0811972 6.45641e-19)
(4.88283 -0.103663 0)
(4.86085 -0.124972 1.21823e-18)
(4.83916 -0.145159 -9.78895e-25)
(4.81878 -0.164325 0)
(4.7985 -0.182474 -1.11675e-18)
(4.77947 -0.19972 1.04919e-24)
(4.76052 -0.216043 1.05404e-18)
(4.74292 -0.23158 -4.09635e-18)
(4.7254 -0.246288 1.9265e-24)
(4.70922 -0.260303 1.81524e-24)
(4.69335 -0.273598 1.8783e-18)
(4.67911 -0.286301 -1.82474e-18)
(4.66513 -0.298365 -1.77253e-18)
(4.65245 -0.309913 1.72168e-18)
(4.63985 -0.320878 -1.67195e-18)
(4.62853 -0.331397 -1.62342e-18)
(4.61712 -0.341387 2.27105e-24)
(4.6068 -0.350993 1.52936e-18)
(4.5961 -0.360111 0)
(4.58629 -0.368879 1.4388e-18)
(4.57624 -0.377222 0)
(4.56641 -0.385212 -1.35107e-18)
(4.55657 -0.392849 1.30803e-18)
(4.5467 -0.400146 0)
(4.53679 -0.40713 0)
(4.52686 -0.413819 -1.18116e-18)
(4.51687 -0.420229 -2.11718e-24)
(4.50674 -0.426365 -1.0973e-18)
(4.49662 -0.432255 1.05523e-18)
(4.48674 -0.43794 -1.87539e-24)
(4.47721 -0.443502 -9.70396e-19)
(4.50863 -0.45291 1.80512e-24)
(4.49633 -0.457731 0)
(4.48558 -0.462581 1.65734e-18)
(4.47408 -0.467178 7.83301e-19)
(4.46389 -0.471736 -1.34462e-24)
(4.45379 -0.47615 6.88629e-19)
(4.44407 -0.480448 -1.24247e-25)
(4.43465 -0.484639 -1.17462e-18)
(4.42538 -0.488701 5.33567e-19)
(4.41652 -0.492676 8.43726e-25)
(4.40786 -0.49654 -8.65479e-25)
(4.39948 -0.500314 -6.10368e-25)
(4.39128 -0.503982 6.27121e-25)
(4.3833 -0.50755 1.11613e-19)
(4.37553 -0.511026 3.61656e-25)
(4.3679 -0.514405 -3.68351e-20)
(4.36035 -0.517681 3.96199e-25)
(4.3529 -0.520849 0)
(4.34555 -0.523916 -9.39245e-20)
(4.33824 -0.526872 -4.6016e-25)
(4.33097 -0.529728 1.96278e-19)
(4.32365 -0.532459 1.93258e-24)
(4.31641 -0.535095 3.13507e-19)
(4.30909 -0.537606 0)
(4.30176 -0.540001 -1.81786e-24)
(4.29437 -0.542277 -2.61741e-19)
(4.28685 -0.544428 -3.02125e-19)
(4.27927 -0.546455 0)
(4.27162 -0.548365 0)
(4.26386 -0.550154 -4.43017e-19)
(4.25598 -0.551816 4.97588e-19)
(4.24802 -0.55336 -4.38632e-24)
(4.23993 -0.554779 3.10175e-19)
(4.23174 -0.556076 -3.44688e-19)
(4.22342 -0.557252 -1.16673e-23)
(4.21502 -0.558309 -4.22674e-19)
(4.20656 -0.559257 4.66728e-19)
(4.19802 -0.560095 0)
(4.18943 -0.560826 -5.66641e-19)
(4.18077 -0.56145 0)
(4.17217 -0.561985 0)
(4.1636 -0.562438 -3.76166e-19)
(4.15503 -0.56281 4.12873e-19)
(4.14655 -0.563104 -1.40586e-23)
(4.13836 -0.56333 4.96736e-19)
(4.13073 -0.563528 -5.02687e-25)
(4.1235 -0.563758 -2.98319e-19)
(4.11608 -0.563979 -3.26888e-19)
(4.10826 -0.564087 0)
(4.10189 -0.56408 -3.92364e-19)
(4.09945 -0.56429 2.59121e-23)
(4.10106 -0.565088 2.89954e-23)
(4.10119 -0.566429 6.51654e-25)
(4.09419 -0.56749 -5.61395e-19)
(4.07953 -0.567415 3.07194e-19)
(4.07335 -0.566359 4.06265e-23)
(4.09189 -0.566552 -1.84053e-19)
(4.14554 -0.569932 2.00375e-19)
(4.21948 -0.578785 9.70512e-25)
(4.26645 -0.590227 0)
(4.26314 -0.600102 -6.21085e-23)
(4.19743 -0.605047 1.37313e-19)
(4.07799 -0.598974 3.00932e-19)
(4.01648 -0.587936 0)
(4.10045 -0.585529 0)
(4.35586 -0.59513 0)
(4.78805 -0.617923 9.86829e-23)
(5.70711 -0.707961 -1.03824e-22)
(5.96768 -0.938696 -1.01294e-19)
(3.68134 -0.88053 2.59255e-23)
(0.942689 -0.36325 -2.59102e-22)
(-2.71184 1.86278 5.06446e-19)
(-3.71086 3.27061 1.12074e-22)
(1.79513 -2.64133 0)
(0.329533 0.0571458 2.45141e-22)
(-1.92658 8.75551 -2.60473e-22)
(-0.533068 4.76532 -2.82905e-20)
(-1.15424 -5.45809 -1.14263e-20)
(-2.79725 -12.9411 2.89998e-22)
(-0.725047 -3.01487 3.84458e-22)
(1.74461 2.6965 -4.52867e-22)
(-4.54542 -3.9127 2.06267e-19)
(-3.28115 -2.34073 4.53106e-19)
(2.53819 0.860315 -2.45681e-19)
(7.24352 1.67515 -1.66862e-19)
(10.1988 1.58822 1.7718e-22)
(9.57202 1.20957 -2.62613e-22)
(8.24338 1.08179 8.94394e-23)
(7.58102 1.04467 -9.15063e-20)
(7.19817 1.03178 1.73228e-19)
(7.07575 1.03625 -7.91492e-23)
(7.16409 1.05088 1.46449e-19)
(7.32788 1.055 -6.62415e-23)
(7.41104 1.04289 -1.24653e-19)
(7.40224 1.02452 5.66424e-23)
(7.32272 1.00539 -2.16734e-19)
(7.21036 0.992128 -2.01508e-19)
(7.13253 0.987924 -1.86024e-19)
(7.10942 0.988485 3.4178e-19)
(7.12379 0.990349 0)
(7.19357 0.996651 -2.77402e-19)
(7.20255 0.994755 0)
(7.20284 0.992497 2.81523e-23)
(7.202 0.991353 4.26867e-19)
(7.20765 0.991141 1.43964e-24)
(7.21944 0.991216 3.56648e-19)
(7.23343 0.99106 -3.25693e-19)
(7.24688 0.990734 -2.974e-19)
(7.26007 0.990398 0)
(7.27394 0.990115 4.94873e-19)
(7.28861 0.989757 -4.509e-19)
(7.30372 0.989269 4.10543e-19)
(7.31893 0.988638 -1.16227e-23)
(7.33413 0.987863 -3.39493e-19)
(7.34935 0.986936 -3.08293e-19)
(7.36463 0.985852 -5.59289e-19)
(7.37974 0.984567 5.06663e-19)
(7.3947 0.983091 0)
(7.40947 0.981415 -4.1396e-19)
(7.42406 0.979533 -5.53808e-24)
(7.4384 0.977434 -3.35686e-19)
(7.45247 0.975111 0)
(7.46623 0.972559 -3.97567e-24)
(7.4797 0.969778 4.80448e-19)
(7.49295 0.966784 3.12901e-24)
(7.50573 0.963533 -5.7522e-24)
(7.51822 0.960057 -6.61097e-19)
(7.53042 0.956352 -9.5178e-26)
(7.54235 0.952417 -4.96507e-19)
(7.55395 0.948247 6.18407e-26)
(7.56529 0.943848 0)
(7.57648 0.939237 -2.90554e-19)
(7.58725 0.934377 1.88828e-25)
(7.5979 0.929308 -1.75138e-19)
(7.60825 0.924014 -3.814e-25)
(7.61855 0.918522 3.6899e-25)
(7.62874 0.912828 2.31328e-26)
(7.63899 0.906939 2.2131e-24)
(7.6493 0.900856 -5.67419e-20)
(7.65959 0.894581 0)
(7.66994 0.888122 1.3216e-19)
(7.6804 0.881475 5.6258e-25)
(7.69103 0.874636 8.34173e-25)
(7.70184 0.867615 -2.31585e-19)
(7.71279 0.860385 1.06596e-24)
(7.724 0.852982 5.80782e-19)
(7.7356 0.845381 -6.35838e-19)
(7.74703 0.837543 6.8874e-19)
(7.75867 0.829472 7.39656e-19)
(7.77023 0.82121 0)
(7.71478 0.805562 0)
(7.79681 0.804068 4.3778e-24)
(7.7287 0.786846 9.69569e-19)
(7.73854 0.777262 -1.01537e-18)
(7.74943 0.767531 -1.06061e-18)
(7.76113 0.757532 2.04789e-24)
(7.77325 0.747221 -2.25067e-24)
(7.78573 0.736566 -1.58995e-24)
(7.7986 0.725535 -2.41631e-24)
(7.81188 0.714105 1.22903e-24)
(7.82553 0.702248 -2.46592e-24)
(7.83958 0.689934 0)
(7.85402 0.677128 1.41148e-18)
(7.86887 0.663787 0)
(7.88405 0.649878 -1.50171e-18)
(7.89911 0.63531 2.89404e-24)
(7.915 0.620146 0)
(7.93085 0.60423 0)
(7.94815 0.587679 -1.69177e-18)
(7.96539 0.570288 -1.74179e-18)
(7.98373 0.552126 -1.44927e-24)
(8.00182 0.533 4.81913e-24)
(8.02158 0.513026 6.01697e-26)
(8.04189 0.492035 1.95492e-18)
(8.06418 0.470094 2.01189e-18)
(8.08657 0.44696 -1.94396e-24)
(8.11129 0.422753 4.26097e-18)
(8.13748 0.397295 2.1923e-18)
(8.16667 0.370609 0)
(8.19708 0.3425 0)
(8.23067 0.312972 1.1945e-18)
(8.26628 0.281852 -1.22923e-18)
(8.30512 0.249098 2.16032e-24)
(8.34552 0.214521 1.30189e-18)
(8.38906 0.178069 0)
(8.4342 0.139546 6.89513e-19)
(8.4823 0.09887 -6.69118e-25)
(8.53189 0.0558511 0)
(8.58412 0.0103825 -4.69872e-20)
(8.63675 -0.0377182 -1.93453e-19)
(8.69051 -0.0885831 1.14298e-24)
(8.74353 -0.142381 -7.74656e-25)
(8.7969 -0.19925 0)
(8.84928 -0.25936 1.67036e-24)
(8.90134 -0.322891 -5.12914e-24)
(8.95117 -0.389982 3.48523e-24)
(8.99924 -0.460844 0)
(9.04471 -0.535643 -1.95011e-18)
(9.0879 -0.614762 -3.8475e-24)
(9.28908 -0.710531 3.60402e-24)
(9.32138 -0.799651 -3.90636e-18)
(9.3481 -0.893724 4.01589e-18)
(9.3679 -0.992837 4.1279e-18)
(9.38025 -1.09728 -3.10182e-26)
(9.38427 -1.20741 -1.57812e-26)
(9.37821 -1.32346 -4.47618e-18)
(9.36068 -1.44575 4.59472e-18)
(9.32933 -1.57459 4.71277e-18)
(9.27837 -1.70942 9.66727e-18)
(9.05573 -1.82066 -5.3591e-18)
(8.96943 -1.96841 0)
(8.85802 -2.12365 5.53467e-18)
(8.86313 -2.32471 0)
(8.72418 -2.50915 1.9286e-23)
(8.65681 -2.73947 -5.76944e-23)
(8.7359 -3.05524 -4.94308e-18)
(8.95325 -3.48084 0)
(9.1863 -4.00105 4.21772e-18)
(9.29667 -4.58369 3.58132e-18)
(9.23119 -5.22627 2.6231e-18)
(8.96054 -5.94246 -1.12129e-18)
(8.61663 -6.88752 1.58491e-18)
(7.91328 -7.961 5.45378e-18)
(6.42182 -8.71669 1.15247e-17)
(3.83865 -7.96769 -1.23146e-22)
(1.1487 -4.84504 1.38393e-17)
(0.0328428 0.150605 1.18217e-22)
(1.21147 5.1174 -1.36977e-17)
(3.94178 8.18351 -9.59365e-18)
(6.52339 8.85505 -1.09899e-17)
(8.01308 8.06137 -4.96317e-18)
(8.711 6.96298 -1.11076e-18)
(9.08103 6.02273 1.4746e-18)
(9.13679 5.17347 -3.14974e-18)
(9.04471 4.45985 -8.34599e-18)
(8.80908 3.83735 3.74537e-22)
(8.3076 3.23039 0)
(7.98071 2.7912 5.25094e-18)
(7.97358 2.52302 -6.13544e-23)
(8.17143 2.34991 2.04327e-23)
(8.40168 2.20351 0)
(8.4563 2.02725 -5.74473e-18)
(8.58794 1.88464 0)
(8.69171 1.74744 5.54132e-18)
(8.92553 1.64437 -1.00263e-17)
(9.00159 1.51922 -1.86302e-23)
(9.06062 1.39936 -4.74727e-18)
(9.10822 1.28531 4.61762e-18)
(9.14454 1.17652 -2.54951e-26)
(9.16946 1.07258 -3.99441e-26)
(9.18393 0.973298 -8.476e-18)
(9.18906 0.878481 -6.1112e-26)
(9.18562 0.787971 4.00071e-18)
(9.17575 0.701832 3.68589e-24)
(8.99596 0.608513 -3.93362e-24)
(8.97408 0.531432 1.99219e-18)
(8.94896 0.458243 0)
(8.92018 0.388607 3.55617e-24)
(8.88772 0.322376 -5.23255e-24)
(8.85343 0.259457 1.70354e-24)
(8.81645 0.199677 0)
(8.77811 0.142923 -7.89301e-25)
(8.73771 0.0890497 1.16443e-24)
(8.6962 0.0379618 1.97027e-19)
(8.65366 -0.010475 4.78443e-20)
(8.61161 -0.0563889 0)
(8.56936 -0.0998889 -6.81046e-25)
(8.5285 -0.141119 -7.01748e-19)
(8.48775 -0.180164 0)
(8.44886 -0.217188 -1.32472e-18)
(8.41042 -0.252253 -2.1273e-24)
(8.37411 -0.285537 1.2506e-18)
(8.33799 -0.317045 -1.21515e-18)
(8.30391 -0.34697 0)
(8.27005 -0.375289 1.14737e-18)
(8.23844 -0.40223 5.39884e-24)
(8.20712 -0.427733 -2.16686e-18)
(8.17808 -0.452022 -1.97698e-24)
(8.14972 -0.475066 -2.04595e-18)
(8.12414 -0.497074 -1.98788e-18)
(8.0992 -0.517976 6.15684e-26)
(8.0765 -0.537981 -9.3732e-25)
(8.05412 -0.556981 4.3547e-24)
(8.03392 -0.575203 1.76931e-18)
(8.01372 -0.592515 1.71763e-18)
(7.99535 -0.609153 0)
(7.97648 -0.624952 1.61734e-18)
(7.95909 -0.640143 2.93145e-24)
(7.94138 -0.654598 1.52044e-18)
(7.92405 -0.668441 0)
(7.90674 -0.681672 -1.42619e-18)
(7.88938 -0.694315 0)
(7.87197 -0.706411 -2.48361e-24)
(7.85451 -0.717998 7.88784e-24)
(7.83691 -0.729094 -2.43009e-24)
(7.81907 -0.739714 5.29781e-24)
(7.80123 -0.749904 -2.25602e-24)
(7.78373 -0.759732 2.04522e-24)
(7.76674 -0.769302 1.05829e-18)
(7.83702 -0.787216 9.64945e-19)
(7.81578 -0.795647 -1.81305e-24)
(7.7966 -0.804028 -1.16587e-24)
(7.77635 -0.811995 -8.25058e-19)
(7.75802 -0.819851 -7.76206e-19)
(7.73991 -0.827463 -7.25841e-19)
(7.72236 -0.834862 -6.73661e-19)
(7.70535 -0.842073 6.19466e-19)
(7.68859 -0.849058 -5.62962e-19)
(7.67256 -0.855894 1.03016e-24)
(7.65687 -0.862538 2.20992e-19)
(7.6417 -0.869019 -1.88454e-19)
(7.62687 -0.875324 5.11662e-25)
(7.61245 -0.881458 -1.17926e-19)
(7.59842 -0.887428 0)
(7.58471 -0.893242 3.89352e-20)
(7.57119 -0.898883 -1.99631e-24)
(7.55787 -0.904341 1.05697e-25)
(7.54476 -0.90962 4.70809e-25)
(7.53178 -0.914718 1.51679e-19)
(7.51894 -0.919645 8.90395e-25)
(7.50604 -0.924369 2.00251e-25)
(7.49332 -0.928924 -1.16339e-24)
(7.48055 -0.933271 0)
(7.46779 -0.937426 -2.37224e-19)
(7.45494 -0.941376 5.53884e-19)
(7.44196 -0.945114 -4.33197e-24)
(7.42888 -0.948645 3.65669e-19)
(7.41572 -0.951975 -6.34082e-24)
(7.40244 -0.9551 4.68681e-19)
(7.38898 -0.958017 -5.26361e-19)
(7.37541 -0.960727 -4.34887e-24)
(7.36166 -0.963228 0)
(7.34777 -0.965523 3.64492e-19)
(7.33373 -0.967615 -6.00368e-24)
(7.31957 -0.969508 4.46784e-19)
(7.30535 -0.971213 0)
(7.29104 -0.972735 -5.43655e-19)
(7.27667 -0.974079 5.98461e-19)
(7.26225 -0.975243 3.29054e-19)
(7.24795 -0.976258 3.61519e-19)
(7.23375 -0.977136 -1.23375e-23)
(7.21963 -0.977883 -4.35366e-19)
(7.20568 -0.978501 4.77386e-19)
(7.19224 -0.978999 -5.23233e-19)
(7.17975 -0.979449 0)
(7.16799 -0.979958 3.1384e-19)
(7.15609 -0.980475 3.43608e-19)
(7.14374 -0.980834 -3.7608e-19)
(7.13356 -0.980964 -4.06197e-25)
(7.12934 -0.981361 -2.25215e-19)
(7.13151 -0.982677 2.97026e-23)
(7.13223 -0.985042 2.68474e-19)
(7.12293 -0.987214 2.93081e-19)
(7.10222 -0.987742 0)
(7.0929 -0.986271 -3.5054e-19)
(7.11946 -0.986172 1.91187e-19)
(7.19854 -0.990526 2.07617e-19)
(7.31041 -1.00369 2.23936e-19)
(7.3886 -1.02258 5.86797e-23)
(7.39543 -1.0406 1.29939e-19)
(7.31035 -1.05235 1.40658e-19)
(7.1443 -1.04776 -1.53839e-19)
(7.04962 -1.03202 -8.37891e-23)
(7.15769 -1.02531 -1.56107e-24)
(7.51686 -1.03473 9.81534e-20)
(8.13755 -1.0661 9.80792e-23)
(9.40063 -1.18367 -2.94775e-22)
(9.88552 -1.53068 2.03938e-22)
(6.85493 -1.56818 2.06718e-19)
(1.84807 -0.563718 2.86117e-19)
(-4.12443 2.92023 -4.97754e-19)
(-5.06239 4.28521 -2.55044e-19)
(2.09304 -3.2943 3.36327e-19)
(0.115737 1.38708 4.98599e-22)
(-2.62859 12.1552 3.30995e-22)
(-1.06994 5.50421 2.33474e-20)
(-1.85167 -5.07154 -1.67755e-20)
(-3.1692 -14.6383 4.43114e-20)
(-1.25405 -5.18613 0)
(1.1084 2.10125 0)
(-5.06974 -4.14043 0)
(-3.97707 -3.03858 -2.18312e-19)
(4.23731 1.25767 2.24242e-19)
(10.8414 2.40776 1.50427e-19)
(13.9679 2.15178 -8.03296e-20)
(13.144 1.68736 1.54453e-23)
(11.6631 1.55097 -1.73854e-22)
(10.892 1.51106 1.80535e-19)
(10.4573 1.50313 1.72313e-19)
(10.3307 1.513 1.61107e-19)
(10.4407 1.52955 -1.47156e-19)
(10.6241 1.52795 -1.31716e-22)
(10.7083 1.50663 1.26344e-19)
(10.6826 1.47933 0)
(10.576 1.45336 -1.07529e-22)
(10.4377 1.43734 2.06127e-19)
(10.3447 1.43339 0)
(10.3191 1.43482 -3.5156e-19)
(10.3409 1.43738 3.21583e-19)
(10.4134 1.44257 2.75518e-19)
(10.4233 1.43954 2.52879e-19)
(10.4236 1.43629 0)
(10.4234 1.43475 -2.12925e-19)
(10.4316 1.4344 -7.79316e-19)
(10.4473 1.43431 -7.12631e-19)
(10.4658 1.43383 3.25696e-19)
(10.4837 1.43316 -3.58014e-23)
(10.5015 1.4325 2.71749e-19)
(10.5203 1.43192 -9.91585e-19)
(10.5402 1.43122 4.5197e-19)
(10.5606 1.43032 0)
(10.5812 1.42923 0)
(10.6019 1.42794 3.40679e-19)
(10.6227 1.42643 3.09445e-19)
(10.6435 1.4247 5.61495e-19)
(10.6641 1.42269 -5.0877e-19)
(10.6846 1.4204 0)
(10.7048 1.41783 4.15802e-19)
(10.7247 1.41497 6.42801e-25)
(10.7444 1.4118 6.13566e-25)
(10.7637 1.40832 9.53559e-24)
(10.7826 1.40451 5.41523e-19)
(10.8012 1.40037 -4.82764e-19)
(10.8194 1.39594 0)
(10.8371 1.39114 0)
(10.8543 1.38603 3.32134e-19)
(10.8712 1.38059 -2.8922e-19)
(10.8878 1.37483 2.49415e-19)
(10.904 1.36874 -2.12429e-19)
(10.9198 1.36232 -4.05685e-25)
(10.9354 1.35561 -1.21156e-23)
(10.9506 1.34854 1.96197e-24)
(10.9656 1.34118 1.75854e-19)
(10.9802 1.33351 1.12194e-24)
(10.9949 1.32556 0)
(11.0095 1.31733 0)
(11.0242 1.30882 1.58048e-20)
(11.039 1.30003 0)
(11.0539 1.29098 -9.57157e-20)
(11.0689 1.28166 4.28877e-25)
(11.0841 1.27208 0)
(11.0996 1.26223 0)
(11.1153 1.25211 3.40872e-24)
(11.1312 1.2417 1.99594e-24)
(11.1476 1.23103 5.80893e-19)
(11.1643 1.22006 0)
(11.1809 1.20876 -6.88296e-19)
(11.1976 1.1971 0)
(11.2146 1.18522 -1.56513e-24)
(11.1654 1.16587 -9.19725e-19)
(11.2518 1.16035 9.68415e-24)
(11.1801 1.13824 -2.01719e-24)
(11.1948 1.12441 6.93448e-24)
(11.2108 1.11035 1.11975e-18)
(11.2277 1.09589 1.16664e-18)
(11.2453 1.08098 1.21295e-18)