/*--------------------------------*- C++ -*----------------------------------*\
| =========                 |                                                 |
| \\      /  F ield         | OpenFOAM: The Open Source CFD Toolbox           |
|  \\    /   O peration     | Version:  2412                                  |
|   \\  /    A nd           | Website:  www.openfoam.com                      |
|    \\/     M anipulation  |                                                 |
\*---------------------------------------------------------------------------*/
FoamFile
{
    version     2.0;
    format      ascii;
    arch        "LSB;label=32;scalar=64";
    class       volVectorField;
    location    "40";
    object      U;
}
// * * * * * * * * * * * * * * * * * * * * * * * * * * * * * * * * * * * * * //

dimensions      [0 1 -1 0 0 0 0];

internalField   nonuniform List<vector> 
29601
(
(-0.0941919 -1.73527 -1.97024e-20)
(-0.530243 -1.88928 3.18809e-20)
(0.0879245 0.148901 -9.02472e-20)
(0.278351 0.330394 1.23821e-19)
(-0.711317 -0.534601 -2.1841e-23)
(-0.352249 -0.177859 -7.43393e-20)
(0.793091 0.245386 1.45338e-23)
(1.53094 0.288847 0)
(1.54033 0.19686 2.67232e-20)
(1.24272 0.153068 2.89175e-20)
(1.06195 0.140759 -2.86686e-20)
(0.968187 0.135571 0)
(0.917856 0.133204 -5.13189e-20)
(0.904076 0.133191 -4.72283e-20)
(0.915511 0.133719 -8.67677e-20)
(0.927492 0.132188 4.89781e-24)
(0.927889 0.12948 3.75112e-20)
(0.920343 0.126634 -7.01735e-20)
(0.904914 0.123893 6.5634e-20)
(0.887596 0.122133 0)
(0.875988 0.121357 3.39655e-24)
(0.87023 0.121019 5.15149e-20)
(0.868857 0.120842 -6.11152e-26)
(0.868939 0.120442 -2.66137e-24)
(0.867827 0.11987 0)
(0.865587 0.119278 0)
(0.863042 0.1188 1.99845e-24)
(0.861154 0.118447 -4.66434e-26)
(0.860091 0.118148 -2.20936e-19)
(0.859457 0.117842 1.00756e-19)
(0.858902 0.117518 0)
(0.858338 0.117197 -1.99135e-25)
(0.857862 0.11689 -9.60038e-25)
(0.857533 0.116589 -2.77606e-19)
(0.857353 0.116289 0)
(0.857251 0.115978 1.14703e-19)
(0.857194 0.115661 -1.04141e-19)
(0.857218 0.115336 0)
(0.857275 0.115001 0)
(0.85739 0.114654 -5.77258e-25)
(0.857549 0.114297 1.39939e-19)
(0.857744 0.113924 0)
(0.857975 0.113538 1.13671e-19)
(0.858235 0.113136 0)
(0.858527 0.112719 1.83082e-19)
(0.858824 0.112282 0)
(0.859158 0.111831 -7.28696e-20)
(0.85949 0.111358 -1.29295e-19)
(0.859851 0.110868 1.14158e-19)
(0.860189 0.110356 -1.00215e-19)
(0.860565 0.109829 -8.73603e-20)
(0.860945 0.10928 -7.54926e-20)
(0.861346 0.108716 -1.15604e-25)
(0.861749 0.108128 1.11167e-25)
(0.862137 0.107518 4.49602e-20)
(0.862524 0.106889 0)
(0.86294 0.106241 -4.72043e-26)
(0.863358 0.105572 8.21519e-20)
(0.863726 0.104877 0)
(0.864109 0.104164 1.37591e-20)
(0.864506 0.103433 2.13925e-27)
(0.864916 0.102681 -2.04435e-20)
(0.865335 0.101908 -6.00565e-25)
(0.865731 0.101113 3.14326e-20)
(0.866141 0.1003 2.21323e-26)
(0.866554 0.0994652 -2.15186e-26)
(0.866962 0.0986086 3.05838e-26)
(0.867373 0.0977288 -2.97856e-26)
(0.867778 0.0968281 3.82481e-26)
(0.868196 0.0959054 -3.32144e-19)
(0.868629 0.0949606 1.8069e-19)
(0.86905 0.0939892 -4.42373e-26)
(0.869505 0.0929989 2.08343e-19)
(0.869967 0.0919798 5.06868e-26)
(0.870387 0.0909343 2.34301e-19)
(0.870855 0.0898599 2.46778e-19)
(0.871369 0.0887626 0)
(0.871844 0.0876276 0)
(0.872363 0.0864661 -2.82771e-19)
(0.872849 0.0852628 0)
(0.873432 0.0840339 -7.49177e-26)
(0.873959 0.0827562 1.51413e-25)
(0.874589 0.0814482 -7.65084e-26)
(0.875147 0.0800852 -7.11103e-25)
(0.875835 0.0786867 -3.8753e-27)
(0.876382 0.0772219 7.27776e-19)
(0.87717 0.0757246 3.75695e-19)
(0.877928 0.0741652 -3.87655e-19)
(0.878714 0.072542 3.99788e-19)
(0.879568 0.0708592 1.00215e-25)
(0.880449 0.069107 -5.91408e-25)
(0.881353 0.067278 0)
(0.882304 0.0653721 -4.50663e-19)
(0.883338 0.0633863 -9.28175e-19)
(0.884404 0.0613121 4.77841e-19)
(0.885603 0.0591486 4.91946e-19)
(0.886845 0.0568832 -5.06415e-19)
(0.88818 0.0545172 5.21279e-19)
(0.889529 0.0520359 -5.36571e-19)
(0.890917 0.0494346 0)
(0.892378 0.0467085 5.68452e-19)
(0.89395 0.0438551 -5.85096e-19)
(0.895587 0.0408599 -2.0724e-27)
(0.897295 0.0377202 7.28564e-26)
(0.899067 0.0344241 0)
(0.900885 0.0309646 -3.28395e-19)
(0.902813 0.0273347 7.95537e-26)
(0.904801 0.0235234 3.4799e-19)
(0.906873 0.0195237 -1.79121e-19)
(0.908966 0.0153221 4.34462e-26)
(0.911088 0.0109097 -9.49237e-20)
(0.913274 0.00627673 -2.30437e-26)
(0.915648 0.00141021 1.25772e-20)
(0.918225 -0.00370157 -5.17967e-20)
(0.920824 -0.00907588 1.0666e-19)
(0.923323 -0.0147234 2.19633e-19)
(0.925729 -0.0206576 -4.52272e-19)
(0.928004 -0.0268928 0)
(0.930159 -0.0334431 6.03311e-26)
(0.932156 -0.0403261 4.93578e-19)
(0.933975 -0.0475597 -5.08123e-19)
(0.93553 -0.0551592 5.23063e-19)
(0.936796 -0.0631439 2.58106e-25)
(0.93769 -0.0715362 -2.62791e-25)
(0.938337 -0.0803708 3.21953e-25)
(0.93858 -0.0896696 -2.80508e-25)
(0.9383 -0.0994602 7.23705e-25)
(0.937469 -0.109778 1.23923e-18)
(0.936056 -0.120674 6.06007e-25)
(0.933892 -0.132182 1.30626e-18)
(0.93081 -0.144345 1.33926e-18)
(0.926842 -0.15725 0)
(0.921681 -0.170942 -2.9138e-25)
(0.915324 -0.185539 1.42898e-18)
(0.907471 -0.201128 -1.45224e-18)
(0.897871 -0.217832 -6.90563e-25)
(0.886327 -0.235837 7.14968e-25)
(0.87297 -0.255478 1.47082e-18)
(0.859531 -0.277778 1.31814e-24)
(0.85019 -0.305064 -1.37163e-24)
(0.849719 -0.340983 -1.28693e-18)
(0.860066 -0.389803 1.18369e-24)
(0.872972 -0.452877 0)
(0.878228 -0.531449 0)
(0.872137 -0.632817 1.03945e-20)
(0.827751 -0.75101 9.48076e-19)
(0.715411 -0.870463 -3.18814e-24)
(0.475103 -0.880035 8.69542e-18)
(0.150607 -0.571314 -3.26408e-24)
(0.00179819 0.0124213 6.92396e-24)
(0.156862 0.595349 -3.249e-24)
(0.483705 0.896038 -8.474e-18)
(0.721243 0.877576 0)
(0.827304 0.750597 -1.6841e-18)
(0.857973 0.622558 -1.09251e-19)
(0.842982 0.510139 0)
(0.816888 0.423801 0)
(0.797548 0.361475 1.2428e-24)
(0.798497 0.320417 -1.18989e-24)
(0.813155 0.291764 -1.44195e-24)
(0.830828 0.268494 1.38571e-24)
(0.847546 0.248032 -1.53906e-18)
(0.86218 0.229407 7.4218e-25)
(0.874451 0.212146 -7.16847e-25)
(0.884777 0.196095 0)
(0.893508 0.181113 -1.47368e-18)
(0.90089 0.167084 -1.44294e-18)
(0.907199 0.153915 0)
(0.912367 0.141482 -1.37492e-18)
(0.916568 0.129728 -1.33941e-18)
(0.919872 0.118586 6.20417e-25)
(0.922376 0.108009 -1.26808e-18)
(0.924226 0.097967 -2.47016e-25)
(0.925489 0.0884181 -2.86722e-25)
(0.926289 0.0793371 -3.96954e-25)
(0.926583 0.0706879 -2.68122e-25)
(0.926537 0.0624515 2.63342e-25)
(0.9261 0.0546025 -5.33263e-19)
(0.925368 0.0471209 5.17841e-19)
(0.924354 0.0399881 -5.02833e-19)
(0.923114 0.0331894 -6.90258e-26)
(0.921646 0.0267083 0)
(0.91998 0.0205291 4.60272e-19)
(0.91814 0.0146406 -2.23457e-19)
(0.916196 0.00903016 -1.08487e-19)
(0.9141 0.00368484 5.2671e-20)
(0.911987 -0.00140463 -1.27866e-20)
(0.91003 -0.0062545 -2.34199e-26)
(0.908217 -0.0108754 2.32619e-26)
(0.906409 -0.015279 4.41381e-26)
(0.904559 -0.0194739 3.63912e-19)
(0.902645 -0.0234674 -3.53433e-19)
(0.900773 -0.027273 8.07762e-26)
(0.898908 -0.0308967 3.3341e-19)
(0.897098 -0.0343488 0)
(0.895326 -0.0376376 7.3933e-26)
(0.893632 -0.0407709 -2.11905e-27)
(0.891983 -0.0437588 5.93539e-19)
(0.890371 -0.0466036 -5.76506e-19)
(0.888812 -0.049318 0)
(0.887305 -0.051906 5.43842e-19)
(0.885862 -0.0543752 -5.28147e-19)
(0.884497 -0.0567329 5.12866e-19)
(0.883203 -0.0589886 -4.9796e-19)
(0.881962 -0.0611431 -4.83397e-19)
(0.880783 -0.0632032 9.38319e-19)
(0.879668 -0.0651771 4.55226e-19)
(0.878611 -0.067069 4.4157e-19)
(0.8776 -0.0688836 -4.28164e-19)
(0.876639 -0.0706235 -4.14973e-19)
(0.875749 -0.0722974 -4.0199e-19)
(0.874891 -0.0739089 3.89176e-19)
(0.874073 -0.0754574 8.77358e-26)
(0.87327 -0.076948 -7.27866e-19)
(0.872587 -0.0783949 -4.06771e-27)
(0.871822 -0.0797812 5.38271e-25)
(0.871193 -0.0811321 -7.58145e-26)
(0.870461 -0.0824249 1.49793e-25)
(0.869916 -0.0836959 -7.3987e-26)
(0.869269 -0.0849132 0)
(0.868709 -0.0861041 0)
(0.868084 -0.0872496 0)
(0.867568 -0.0883756 0)
(0.866977 -0.0894598 -2.36975e-19)
(0.866436 -0.0905216 -2.23274e-19)
(0.865881 -0.0915476 4.76286e-26)
(0.865373 -0.0925572 -1.94711e-19)
(0.864836 -0.0935335 1.79727e-19)
(0.864322 -0.0944897 9.98052e-25)
(0.863802 -0.09542 2.96079e-19)
(0.863289 -0.0963271 3.36993e-26)
(0.8628 -0.0972134 -2.45416e-26)
(0.862301 -0.0980785 -4.75347e-20)
(0.861801 -0.0989196 -3.78112e-20)
(0.861295 -0.099739 1.58049e-26)
(0.860802 -0.100537 -1.67327e-20)
(0.860332 -0.101318 6.22691e-25)
(0.859814 -0.102075 -1.38012e-20)
(0.859348 -0.102815 -6.47718e-27)
(0.858836 -0.103529 -3.36355e-20)
(0.85838 -0.104227 0)
(0.857871 -0.104901 -1.28134e-19)
(0.857386 -0.105557 -7.03417e-26)
(0.856884 -0.10619 0)
(0.856391 -0.106802 -5.9157e-20)
(0.855904 -0.107394 1.40572e-25)
(0.855399 -0.107965 -1.46182e-25)
(0.854906 -0.108513 0)
(0.854415 -0.109044 1.05867e-19)
(0.853927 -0.109552 1.19926e-19)
(0.853458 -0.110043 -2.70247e-19)
(0.852987 -0.110515 1.51566e-19)
(0.852496 -0.110963 8.46849e-20)
(0.852036 -0.111394 0)
(0.851562 -0.111804 -2.09605e-19)
(0.851107 -0.112196 0)
(0.850662 -0.11257 -1.28516e-19)
(0.850233 -0.112926 0)
(0.849828 -0.113267 -1.56551e-19)
(0.849442 -0.113591 -6.44222e-25)
(0.849085 -0.113902 0)
(0.848753 -0.114197 0)
(0.848465 -0.114482 -8.90998e-25)
(0.848216 -0.114755 -1.25869e-19)
(0.848009 -0.115021 0)
(0.847862 -0.115274 3.03017e-19)
(0.847842 -0.115524 -1.43908e-24)
(0.847949 -0.115778 2.05294e-25)
(0.848128 -0.116043 0)
(0.848272 -0.116308 1.09123e-19)
(0.848463 -0.11655 1.19446e-19)
(0.849061 -0.116783 -4.74324e-26)
(0.850421 -0.117062 2.15603e-24)
(0.852404 -0.117461 0)
(0.854048 -0.117965 0)
(0.854547 -0.118446 -2.85632e-24)
(0.853834 -0.118752 -6.06762e-26)
(0.854515 -0.118833 -5.5157e-20)
(0.859366 -0.119053 3.63376e-24)
(0.8699 -0.119697 0)
(0.88586 -0.121283 -7.00335e-20)
(0.899867 -0.123815 7.48799e-20)
(0.906087 -0.126436 -4.00309e-20)
(0.904458 -0.128904 5.22205e-24)
(0.891474 -0.130206 4.61578e-20)
(0.878801 -0.129466 5.01381e-20)
(0.890301 -0.129203 5.42758e-20)
(0.93654 -0.131137 0)
(1.02398 -0.135722 0)
(1.19209 -0.146821 -3.0632e-20)
(1.46971 -0.187817 -5.74349e-20)
(1.44696 -0.273038 0)
(0.747938 -0.231879 1.51892e-23)
(-0.32612 0.164809 4.51455e-24)
(-0.618213 0.464782 -2.16296e-23)
(0.293948 -0.342924 -1.18264e-19)
(0.0134442 -0.0221146 8.42904e-20)
(-0.538181 1.92275 -3.11776e-20)
(-0.0793349 1.32694 -2.0762e-20)
(-0.291377 -4.5192 3.09845e-20)
(-1.51402 -5.35654 0)
(0.0319839 -0.0349388 1.53438e-19)
(0.722913 0.852689 -1.97357e-19)
(-1.96286 -1.46178 1.6113e-19)
(-0.773966 -0.420965 -1.07249e-22)
(2.63468 0.793796 -5.02997e-24)
(4.63725 0.868007 -3.68385e-20)
(4.59621 0.590907 -9.00714e-20)
(3.76707 0.46973 -4.81419e-20)
(3.26099 0.435344 -9.23977e-24)
(2.99536 0.421001 9.09719e-20)
(2.85397 0.414877 1.70036e-19)
(2.81639 0.415002 9.44445e-24)
(2.84797 0.415835 7.1886e-20)
(2.87943 0.410344 -6.66869e-20)
(2.87779 0.401684 2.69607e-25)
(2.85315 0.39279 7.08791e-24)
(2.8067 0.384534 -2.1737e-19)
(2.75592 0.379437 -1.23022e-23)
(2.72195 0.377234 1.13506e-23)
(2.70499 0.37625 -8.53922e-20)
(2.70054 0.375643 -4.8232e-24)
(2.70009 0.374298 0)
(2.69619 0.372468 1.31243e-19)
(2.68911 0.370618 -1.20301e-19)
(2.68129 0.369142 1.10139e-19)
(2.67546 0.368043 -6.14561e-24)
(2.67209 0.3671 -8.53568e-25)
(2.66996 0.366122 -3.35599e-19)
(2.66808 0.365096 -1.53099e-19)
(2.66622 0.364083 1.39829e-24)
(2.66464 0.363114 -1.19588e-24)
(2.66354 0.362168 2.31725e-19)
(2.66287 0.361219 0)
(2.66246 0.360241 1.18668e-24)
(2.66221 0.359241 1.74195e-19)
(2.66218 0.358223 -2.4138e-24)
(2.66228 0.35717 1.11826e-24)
(2.66257 0.356086 0)
(2.66301 0.354964 -4.69878e-19)
(2.66354 0.353798 0)
(2.6642 0.352591 1.9137e-19)
(2.66495 0.351336 6.38726e-25)
(2.6658 0.350032 -3.09371e-19)
(2.66667 0.34867 -3.41082e-26)
(2.66766 0.34726 -4.8871e-25)
(2.66863 0.345785 2.20241e-19)
(2.66972 0.344263 -3.57722e-25)
(2.67076 0.34267 3.42593e-25)
(2.6719 0.341028 -1.50673e-19)
(2.67305 0.339322 2.61878e-19)
(2.67426 0.337561 1.12676e-19)
(2.67547 0.335735 1.70818e-25)
(2.67667 0.33384 -1.64429e-25)
(2.67785 0.331882 -1.13753e-25)
(2.6791 0.329864 1.97839e-25)
(2.68037 0.327787 -1.56182e-19)
(2.68153 0.32563 -6.20474e-26)
(2.68272 0.323416 -3.20088e-20)
(2.68393 0.321142 0)
(2.68517 0.318803 8.61078e-21)
(2.68647 0.316405 -2.40864e-24)
(2.68773 0.31394 -2.31089e-24)
(2.68901 0.311415 0)
(2.69028 0.308823 -7.6956e-20)
(2.69154 0.306162 -9.18961e-20)
(2.69283 0.303433 1.09062e-25)
(2.69411 0.300637 -1.06304e-25)
(2.6954 0.297771 2.65408e-19)
(2.69673 0.294836 -2.90352e-19)
(2.69805 0.291824 0)
(2.69947 0.288747 -3.34943e-24)
(2.70093 0.28559 -3.59891e-19)
(2.70226 0.282341 3.81653e-19)
(2.70371 0.279007 4.02841e-19)
(2.70531 0.2756 -2.08728e-25)
(2.7068 0.272079 -4.4385e-19)
(2.70844 0.268474 4.63868e-19)
(2.70998 0.264741 -2.37212e-25)
(2.7118 0.260925 2.33358e-25)
(2.71346 0.256963 0)
(2.71545 0.252902 -5.42216e-19)
(2.71719 0.24867 -5.61714e-19)
(2.71934 0.244329 -1.35343e-25)
(2.72108 0.239786 -6.01068e-19)
(2.72357 0.235139 -6.21017e-19)
(2.72594 0.230295 6.41218e-19)
(2.72841 0.225261 0)
(2.73112 0.220039 0)
(2.73389 0.214599 -1.40745e-18)
(2.73673 0.208922 6.60475e-27)
(2.73973 0.203009 6.63224e-27)
(2.74301 0.196847 1.40545e-24)
(2.74639 0.190408 1.92443e-25)
(2.75017 0.183692 -1.63352e-18)
(2.75411 0.176663 1.68204e-18)
(2.75833 0.169318 -8.65917e-19)
(2.76261 0.161617 0)
(2.76703 0.153542 0)
(2.7717 0.145085 0)
(2.77673 0.136226 -2.35332e-25)
(2.78198 0.12693 3.56317e-25)
(2.78747 0.117183 -1.21122e-25)
(2.79318 0.106951 0)
(2.79906 0.0962105 0)
(2.80528 0.0849371 5.62098e-19)
(2.81171 0.073102 1.36224e-25)
(2.81843 0.0606773 5.95702e-19)
(2.82522 0.0476228 3.06637e-19)
(2.83211 0.0339117 -7.44061e-26)
(2.8392 0.0195111 -1.62507e-19)
(2.84688 0.00438244 -2.60076e-27)
(2.85516 -0.0115143 0)
(2.86351 -0.0282263 0)
(2.87155 -0.0457943 0)
(2.87928 -0.0642554 7.51979e-19)
(2.8866 -0.0836557 0)
(2.89354 -0.10404 -7.97091e-19)
(2.89994 -0.125461 3.94089e-25)
(2.90577 -0.147973 1.6895e-18)
(2.91076 -0.171624 8.29106e-25)
(2.91481 -0.196476 -1.78989e-18)
(2.91767 -0.222594 -1.84192e-18)
(2.91969 -0.250085 -1.89504e-18)
(2.9204 -0.279014 9.32406e-25)
(2.91944 -0.309469 -2.00381e-18)
(2.91673 -0.341558 1.93468e-24)
(2.91214 -0.375433 0)
(2.90514 -0.411197 0)
(2.89523 -0.448981 -2.22491e-18)
(2.88248 -0.489054 0)
(2.86588 -0.531537 2.32741e-18)
(2.84542 -0.576781 2.37233e-18)
(2.82016 -0.625058 2.41069e-18)
(2.78926 -0.676707 0)
(2.75196 -0.732256 -2.28995e-24)
(2.70883 -0.792754 6.51174e-24)
(2.66622 -0.861656 2.18831e-24)
(2.63841 -0.946685 2.29284e-18)
(2.64003 -1.0594 4.16162e-24)
(2.67414 -1.21196 1.96879e-24)
(2.71152 -1.40666 1.52766e-18)
(2.72047 -1.6462 9.47598e-19)
(2.68958 -1.95123 -9.44866e-25)
(2.53906 -2.30301 0)
(2.17888 -2.64866 3.82411e-18)
(1.43574 -2.65548 -7.21351e-18)
(0.452392 -1.71484 5.41738e-24)
(0.00422002 0.0371321 -1.14978e-23)
(0.471164 1.78673 5.39219e-24)
(1.46191 2.70405 7.02976e-18)
(2.19713 2.67089 -3.62227e-18)
(2.53858 2.30259 1.39491e-18)
(2.64777 1.92097 -1.24118e-24)
(2.61424 1.582 3.84611e-24)
(2.53805 1.31671 -2.54161e-24)
(2.47442 1.12143 2.06681e-24)
(2.47162 0.991788 2.23785e-18)
(2.51534 0.902504 -2.39865e-18)
(2.57158 0.831064 2.29095e-24)
(2.62579 0.768448 -4.13163e-24)
(2.67306 0.711258 -2.3861e-24)
(2.7125 0.658079 0)
(2.74562 0.608533 0)
(2.77366 0.562231 0)
(2.79741 0.518835 0)
(2.81771 0.478062 0)
(2.83438 0.439542 2.28204e-18)
(2.84797 0.403103 0)
(2.85872 0.368543 0)
(2.8669 0.335721 -5.04757e-25)
(2.87299 0.304543 2.04685e-18)
(2.87719 0.274886 9.52104e-25)
(2.87992 0.246677 1.93292e-18)
(2.88102 0.219797 -4.49934e-25)
(2.881 0.194195 1.82362e-18)
(2.8797 0.169792 8.44279e-25)
(2.87746 0.14653 -8.59815e-19)
(2.87432 0.124351 4.01051e-25)
(2.87044 0.103209 8.1067e-19)
(2.86582 0.0830528 0)
(2.86056 0.063837 -7.6421e-19)
(2.85475 0.0455258 0)
(2.84859 0.0280787 0)
(2.84195 0.0114605 0)
(2.83524 -0.00436499 2.45754e-27)
(2.82899 -0.0194414 1.64907e-19)
(2.82317 -0.0338051 -7.54763e-26)
(2.81735 -0.0474906 7.50322e-26)
(2.81141 -0.0605265 -6.04051e-19)
(2.80527 -0.0729348 1.38086e-25)
(2.79927 -0.0847553 -5.69716e-19)
(2.7933 -0.0960127 0)
(2.7875 -0.106733 0)
(2.78183 -0.116946 -1.22666e-25)
(2.7764 -0.126675 3.60803e-25)
(2.77112 -0.13595 -2.38276e-25)
(2.76596 -0.144784 0)
(2.76098 -0.153206 0)
(2.75618 -0.161241 0)
(2.75159 -0.168904 1.75119e-18)
(2.74724 -0.176223 -1.70019e-18)
(2.74311 -0.18322 1.6504e-18)
(2.73916 -0.189907 8.00875e-19)
(2.7354 -0.1963 -1.68291e-24)
(2.73184 -0.202424 6.82468e-27)
(2.72848 -0.208291 6.80879e-27)
(2.72528 -0.213923 1.41691e-18)
(2.72222 -0.219323 0)
(2.71938 -0.224515 0)
(2.71666 -0.229511 -6.43044e-19)
(2.71408 -0.234319 6.21734e-19)
(2.71152 -0.238944 6.00597e-19)
(2.70934 -0.24343 -1.34771e-25)
(2.70694 -0.247731 5.58629e-19)
(2.70496 -0.251925 -1.31619e-25)
(2.70264 -0.255937 0)
(2.7009 -0.259877 2.2935e-25)
(2.69886 -0.263655 -2.33137e-25)
(2.69708 -0.267349 0)
(2.6951 -0.270902 4.30968e-19)
(2.69347 -0.274394 -2.02074e-25)
(2.6916 -0.277758 -3.86105e-19)
(2.68991 -0.28105 -3.6289e-19)
(2.68815 -0.284238 3.39034e-19)
(2.68653 -0.287364 3.32478e-24)
(2.68485 -0.290395 -2.89066e-19)
(2.68322 -0.293358 2.62729e-19)
(2.6816 -0.296246 -2.35336e-19)
(2.68 -0.299063 -9.02969e-26)
(2.67845 -0.301813 9.264e-26)
(2.67688 -0.304494 7.27738e-20)
(2.67532 -0.307105 5.63008e-20)
(2.67374 -0.309647 0)
(2.67219 -0.312125 2.06134e-20)
(2.67068 -0.314546 2.42527e-24)
(2.66907 -0.316891 1.93673e-20)
(2.66764 -0.319192 0)
(2.66605 -0.321407 6.45428e-20)
(2.66462 -0.323577 -9.62024e-26)
(2.66302 -0.325665 2.31786e-19)
(2.66152 -0.327699 2.75538e-25)
(2.65999 -0.329668 -1.54808e-25)
(2.65847 -0.331569 -2.10211e-25)
(2.65695 -0.33341 2.18379e-25)
(2.6554 -0.33518 -1.39903e-19)
(2.65389 -0.336889 -1.60142e-19)
(2.65237 -0.338536 1.81949e-19)
(2.65088 -0.340118 4.07121e-25)
(2.64942 -0.341643 2.30855e-19)
(2.64797 -0.343108 -2.58297e-19)
(2.64649 -0.344504 -5.6648e-25)
(2.6451 -0.345849 -3.51118e-26)
(2.64367 -0.347126 3.54955e-19)
(2.64231 -0.34835 7.30378e-25)
(2.64098 -0.349517 -2.16858e-19)
(2.63971 -0.350631 0)
(2.63851 -0.351698 2.63312e-19)
(2.63737 -0.352715 0)
(2.63633 -0.353688 1.23837e-24)
(2.63539 -0.354617 -2.66735e-24)
(2.63459 -0.355513 1.43741e-24)
(2.6339 -0.356376 -1.21657e-24)
(2.63336 -0.357213 0)
(2.63301 -0.358016 -2.52444e-19)
(2.63304 -0.358806 -2.81623e-24)
(2.63348 -0.359609 3.13082e-24)
(2.63415 -0.36045 1.65502e-19)
(2.63476 -0.361291 9.73308e-25)
(2.63551 -0.362071 1.97901e-19)
(2.63744 -0.362809 -6.60153e-24)
(2.64164 -0.363678 -1.18089e-19)
(2.64772 -0.364908 3.89156e-24)
(2.65296 -0.366489 -1.40216e-19)
(2.65495 -0.368033 0)
(2.65343 -0.369081 -5.12636e-24)
(2.65573 -0.369388 9.06578e-20)
(2.66993 -0.370011 1.2023e-23)
(2.70065 -0.371813 -1.30047e-23)
(2.74737 -0.376387 1.14694e-19)
(2.78953 -0.38401 -1.22491e-19)
(2.81009 -0.39221 -2.89356e-25)
(2.8079 -0.400122 7.00085e-20)
(2.77321 -0.404886 7.52383e-20)
(2.73775 -0.403372 9.86289e-24)
(2.76864 -0.402416 -1.7637e-19)
(2.89835 -0.40729 -9.39661e-20)
(3.14617 -0.419891 4.89869e-20)
(3.61758 -0.450886 4.94892e-20)
(4.39247 -0.564375 9.29434e-20)
(4.39278 -0.822042 3.84169e-20)
(2.48134 -0.748076 -3.91006e-24)
(-0.728352 0.395311 1.18642e-19)
(-1.72042 1.28003 -1.49861e-19)
(0.753389 -0.879875 1.846e-19)
(-0.159206 0.371089 -1.37533e-19)
(-1.5292 5.37701 5.06802e-20)
(-0.265691 3.43354 1.58418e-20)
(-0.540482 -6.64946 1.64894e-20)
(-2.39961 -8.58153 0)
(-0.238022 -0.699699 0)
(1.04776 1.25392 2.199e-19)
(-3.08473 -2.2734 5.44291e-23)
(-0.891344 -0.553901 1.37299e-19)
(4.84134 1.4188 -5.42943e-23)
(7.91871 1.4693 4.05094e-20)
(7.75014 1.00332 4.97814e-20)
(6.44438 0.812587 5.3362e-20)
(5.64283 0.758174 5.29584e-20)
(5.21759 0.735754 9.51712e-24)
(4.9933 0.726861 -1.90082e-19)
(4.93555 0.7273 -8.76067e-20)
(4.9849 0.72756 0)
(5.0313 0.716901 7.46995e-20)
(5.02416 0.701427 -7.94945e-24)
(4.97941 0.68583 -1.30336e-19)
(4.90054 0.6718 1.2196e-19)
(4.81644 0.663448 -1.38113e-23)
(4.7603 0.659909 6.42823e-24)
(4.73213 0.658288 9.59689e-20)
(4.72416 0.657148 -1.75729e-19)
(4.72239 0.654658 9.89839e-26)
(4.71496 0.651389 -1.47635e-19)
(4.70249 0.648149 1.35376e-19)
(4.68904 0.645593 -1.23977e-19)
(4.67901 0.643681 0)
(4.67307 0.642018 2.07061e-19)
(4.66918 0.640279 1.89023e-19)
(4.66575 0.638467 1.72501e-19)
(4.66241 0.636679 1.57342e-19)
(4.65957 0.634976 1.05482e-24)
(4.65759 0.633313 1.96012e-24)
(4.65635 0.631638 -6.43663e-26)
(4.65555 0.62992 -2.16205e-19)
(4.65504 0.62816 0)
(4.65492 0.62637 0)
(4.65504 0.62452 0)
(4.65551 0.62262 0)
(4.65622 0.620651 2.65084e-19)
(4.65713 0.618609 0)
(4.65824 0.616494 2.30341e-24)
(4.65952 0.614294 0)
(4.66099 0.612012 1.74593e-19)
(4.6625 0.609628 6.16367e-25)
(4.6642 0.607159 1.39697e-19)
(4.66588 0.604577 -4.92171e-25)
(4.66778 0.601917 0)
(4.66962 0.599135 -3.54785e-25)
(4.6716 0.596262 -2.68471e-24)
(4.67362 0.593281 -2.95707e-19)
(4.67573 0.590199 2.72594e-24)
(4.67784 0.587006 0)
(4.67996 0.583699 -9.03726e-20)
(4.68204 0.580273 0)
(4.68422 0.576746 -9.95367e-26)
(4.68645 0.573114 8.81998e-20)
(4.68849 0.569347 6.13371e-20)
(4.69062 0.56548 -2.2128e-26)
(4.69277 0.561508 -1.25165e-20)
(4.69496 0.55742 -9.71988e-21)
(4.69724 0.553232 -6.13416e-20)
(4.6995 0.548927 -5.04514e-20)
(4.70176 0.544514 -5.62145e-26)
(4.70401 0.539986 3.1428e-24)
(4.70626 0.535337 1.03812e-19)
(4.70855 0.530572 0)
(4.71082 0.525684 0)
(4.7131 0.520676 0)
(4.71547 0.515549 3.28011e-19)
(4.71785 0.510291 1.60984e-25)
(4.72038 0.504911 -7.6256e-19)
(4.72296 0.4994 4.06594e-19)
(4.72535 0.49372 -4.31183e-19)
(4.72791 0.487896 -4.55123e-19)
(4.73075 0.481938 4.78512e-19)
(4.73339 0.475787 1.00291e-18)
(4.73632 0.46949 -2.57403e-25)
(4.73908 0.46297 -5.46394e-19)
(4.74231 0.456298 -5.68542e-19)
(4.74528 0.449376 2.88997e-25)
(4.74881 0.44228 6.12591e-19)
(4.75192 0.434883 -6.34611e-19)
(4.75573 0.427297 -6.56763e-19)
(4.75887 0.41936 3.31157e-25)
(4.76327 0.411238 1.4032e-18)
(4.76751 0.402774 0)
(4.77193 0.393979 -7.47549e-19)
(4.77676 0.384853 0)
(4.7817 0.375343 7.95014e-19)
(4.78678 0.365425 -3.83286e-25)
(4.79217 0.35509 -8.44346e-19)
(4.79804 0.344323 1.73965e-18)
(4.80413 0.333071 -8.95907e-19)
(4.81091 0.321335 9.22625e-19)
(4.81802 0.309056 -2.04714e-24)
(4.82564 0.296216 0)
(4.83337 0.28276 0)
(4.84141 0.268649 0)
(4.84994 0.253871 -2.58304e-25)
(4.85914 0.238386 2.57999e-25)
(4.86876 0.222141 0)
(4.87887 0.205102 0)
(4.8894 0.187214 0)
(4.90028 0.168431 -6.166e-19)
(4.9118 0.148715 -6.34709e-19)
(4.92374 0.128011 1.57732e-25)
(4.9362 0.106266 -3.36293e-19)
(4.94883 0.0834167 -9.46055e-26)
(4.96169 0.0594078 1.78198e-19)
(4.97491 0.0341815 1.83451e-19)
(4.98911 0.007676 -4.7215e-20)
(5.00434 -0.0201877 -4.68229e-26)
(5.01967 -0.049485 -4.91087e-26)
(5.03444 -0.0802954 2.95679e-25)
(5.04865 -0.112675 -4.79587e-25)
(5.06211 -0.146711 -8.73694e-19)
(5.07486 -0.18248 0)
(5.08663 -0.220073 9.25868e-19)
(5.09732 -0.259584 -9.53093e-19)
(5.10647 -0.301097 0)
(5.1139 -0.344718 2.0192e-18)
(5.11914 -0.390559 4.15552e-18)
(5.1228 -0.438803 0)
(5.12401 -0.489558 -1.05166e-24)
(5.12221 -0.542978 1.07418e-24)
(5.11721 -0.599251 -2.32248e-18)
(5.10876 -0.658632 2.38511e-18)
(5.09597 -0.7213 0)
(5.07795 -0.787478 -2.38786e-24)
(5.05471 -0.85761 2.56838e-18)
(5.02451 -0.931905 -2.6241e-18)
(4.98723 -1.01094 3.3959e-24)
(4.94126 -1.09518 2.56414e-24)
(4.88497 -1.18515 -2.65039e-24)
(4.81681 -1.28167 0)
(4.73842 -1.38672 1.03185e-24)
(4.66331 -1.50708 -4.9334e-24)
(4.61932 -1.65749 -2.58402e-18)
(4.63124 -1.85853 4.82273e-18)
(4.69731 -2.12897 2.14091e-18)
(4.75873 -2.46878 -1.72008e-18)
(4.76127 -2.88109 -4.67821e-23)
(4.68694 -3.39991 -2.199e-20)
(4.40224 -3.99173 -1.76871e-18)
(3.75234 -4.55708 -4.30704e-18)
(2.45563 -4.53225 -1.22003e-23)
(0.771998 -2.91163 6.07384e-18)
(0.0086654 0.0630017 0)
(0.803906 3.03339 -6.01225e-18)
(2.50076 4.61586 -1.17737e-23)
(3.78464 4.59644 4.07952e-18)
(4.40334 3.99284 1.57056e-18)
(4.61876 3.35067 2.078e-19)
(4.5831 2.77349 -1.22235e-18)
(4.45761 2.31271 1.85154e-18)
(4.33563 1.96506 -2.25881e-18)
(4.31489 1.73149 -5.04543e-18)
(4.38463 1.5732 2.7046e-18)
(4.4839 1.44905 -5.16676e-24)
(4.58263 1.34111 -4.95384e-24)
(4.66896 1.24232 0)
(4.7407 1.15014 -2.74068e-24)
(4.80082 1.06404 2.65148e-24)
(4.85177 0.983471 -2.75665e-18)
(4.89501 0.907882 2.70022e-18)
(4.93203 0.836789 -2.6387e-18)
(4.96256 0.769576 -2.4515e-24)
(4.98751 0.705942 0)
(5.00736 0.645552 -2.44114e-18)
(5.02261 0.588166 2.37463e-18)
(5.03402 0.533625 1.09708e-24)
(5.04201 0.481721 -1.07407e-24)
(5.04729 0.432328 0)
(5.04958 0.385248 -2.11838e-18)
(5.04979 0.340393 -2.05754e-18)
(5.04766 0.297625 0)
(5.04377 0.256854 9.70201e-19)
(5.03824 0.217976 -9.42167e-19)
(5.03134 0.180912 0)
(5.02308 0.145578 8.88267e-19)
(5.01365 0.111892 4.31252e-19)
(5.00322 0.0797953 3.0043e-25)
(4.99212 0.0492114 2.0331e-19)
(4.98015 0.0200884 -4.75495e-26)
(4.96803 -0.00764519 4.79268e-20)
(4.95663 -0.0340574 -1.86165e-19)
(4.94595 -0.0592206 -1.80787e-19)
(4.93525 -0.0831887 -3.51134e-19)
(4.92434 -0.106012 3.41007e-19)
(4.91311 -0.127735 1.59924e-25)
(4.90211 -0.148422 4.70378e-25)
(4.89119 -0.168119 6.24809e-19)
(4.88058 -0.186876 0)
(4.87021 -0.204738 0)
(4.86026 -0.221753 0)
(4.85061 -0.237968 2.61154e-25)
(4.8412 -0.253413 -2.61462e-25)
(4.83212 -0.268132 0)
(4.82339 -0.282175 0)
(4.81505 -0.295566 -9.89016e-19)
(4.80713 -0.308358 1.9112e-24)
(4.79961 -0.320581 -9.32139e-19)
(4.79246 -0.332262 -9.04679e-19)
(4.78564 -0.343433 -1.75563e-18)
(4.77919 -0.354128 8.51504e-19)
(4.77309 -0.364379 -3.8604e-25)
(4.76729 -0.374212 -8.00344e-19)
(4.76179 -0.383646 0)
(4.75663 -0.392715 7.50776e-19)
(4.75171 -0.401439 0)
(4.74705 -0.409837 -1.40481e-18)
(4.74244 -0.417913 3.31222e-25)
(4.73851 -0.425749 6.54795e-19)
(4.73421 -0.433262 6.31126e-19)
(4.73064 -0.440586 -5.79294e-25)
(4.72648 -0.447594 2.86129e-25)
(4.72333 -0.454472 5.59917e-19)
(4.71967 -0.461072 5.35875e-19)
(4.71644 -0.46752 -2.51869e-25)
(4.71287 -0.473723 -9.7381e-19)
(4.70992 -0.479817 -4.61829e-19)
(4.70659 -0.485695 4.3622e-19)
(4.70356 -0.491442 4.09991e-19)
(4.70039 -0.497011 -3.83037e-19)
(4.69747 -0.502462 7.10557e-19)
(4.69443 -0.507757 1.46902e-25)
(4.69148 -0.512925 -1.50351e-25)
(4.68858 -0.517966 0)
(4.68571 -0.522882 0)
(4.68293 -0.527684 0)
(4.68011 -0.532361 -8.22129e-20)
(4.6773 -0.536918 -3.14554e-24)
(4.67448 -0.541354 -3.16124e-26)
(4.67171 -0.545681 3.25405e-26)
(4.66899 -0.549904 2.73231e-21)
(4.66611 -0.553994 -2.18838e-20)
(4.66355 -0.558011 4.6599e-20)
(4.66072 -0.561876 -2.36134e-26)
(4.65814 -0.56566 -1.00957e-19)
(4.65529 -0.569302 -1.30899e-19)
(4.65262 -0.572854 -1.42576e-25)
(4.64991 -0.57629 0)
(4.6472 -0.579611 0)
(4.64447 -0.582818 0)
(4.64174 -0.585908 -2.76073e-24)
(4.63907 -0.588894 3.61674e-19)
(4.63639 -0.591766 3.47779e-24)
(4.63374 -0.594529 -4.25968e-25)
(4.63113 -0.597189 0)
(4.62858 -0.599744 -5.74849e-25)
(4.62599 -0.602182 -1.62558e-19)
(4.62354 -0.604534 7.09498e-25)
(4.62104 -0.606764 -2.00331e-19)
(4.61865 -0.608903 0)
(4.61633 -0.610944 -2.34934e-24)
(4.61412 -0.612893 0)
(4.61205 -0.614759 0)
(4.61008 -0.61654 0)
(4.60828 -0.618243 0)
(4.60668 -0.619875 0)
(4.60535 -0.621449 2.16247e-19)
(4.6042 -0.622967 2.37097e-19)
(4.60332 -0.624438 -6.38909e-26)
(4.60279 -0.625854 2.13879e-24)
(4.60289 -0.627243 -1.08181e-24)
(4.60372 -0.628656 -1.70505e-19)
(4.60497 -0.63014 -1.86489e-19)
(4.60617 -0.631627 -2.03909e-19)
(4.60764 -0.633015 -2.22908e-19)
(4.61105 -0.634318 0)
(4.61822 -0.635824 1.32942e-19)
(4.62861 -0.637947 -4.46475e-24)
(4.63784 -0.640712 1.57771e-19)
(4.6419 -0.643474 9.51624e-26)
(4.64016 -0.645435 1.87014e-19)
(4.64433 -0.646042 -1.01893e-19)
(4.66769 -0.647029 6.803e-24)
(4.71823 -0.649873 -1.46032e-23)
(4.79539 -0.657327 1.56901e-23)
(4.86683 -0.670257 2.74804e-19)
(4.9044 -0.68463 -9.50283e-24)
(4.9047 -0.698775 -7.84432e-20)
(4.85234 -0.708108 -8.42685e-20)
(4.79598 -0.706601 9.13336e-20)
(4.84235 -0.704715 1.97253e-19)
(5.04745 -0.711531 1.04947e-19)
(5.44376 -0.731057 -5.45987e-20)
(6.19077 -0.78002 -5.49069e-20)
(7.41213 -0.958565 -5.13964e-20)
(7.50878 -1.39242 3.28537e-23)
(4.55071 -1.33378 -9.37072e-20)
(-0.858805 0.528166 1.41918e-22)
(-2.71575 1.99643 1.2422e-22)
(1.09268 -1.28596 -9.37474e-23)
(-0.541757 1.21217 0)
(-2.41463 8.55072 0)
(-0.513565 4.95203 3.35659e-20)
(-0.842468 -7.8011 1.69523e-20)
(-3.13535 -11.4106 4.96407e-23)
(-0.742529 -1.85741 0)
(1.16127 1.4496 -4.88724e-19)
(-3.98935 -2.91305 -3.98674e-19)
(-0.579482 -0.526801 0)
(7.40246 2.10793 9.88205e-20)
(11.2684 2.07256 -4.39093e-20)
(10.9059 1.42393 -5.41556e-20)
(9.21578 1.1757 -2.68619e-23)
(8.16937 1.10499 -5.8262e-20)
(7.60784 1.07647 -1.1214e-19)
(7.31498 1.06629 1.05239e-19)
(7.24254 1.06731 -7.07909e-25)
(7.306 1.06594 0)
(7.36122 1.0488 8.29864e-20)
(7.34469 1.02569 -7.74547e-20)
(7.27715 1.00285 1.45006e-19)
(7.16577 0.982975 -1.35789e-19)
(7.05003 0.971626 1.53081e-23)
(6.97301 0.966939 -2.37814e-25)
(6.93419 0.964742 -1.07137e-19)
(6.92236 0.962969 1.96285e-19)
(6.91842 0.959131 0)
(6.90676 0.954258 0)
(6.88849 0.949522 0)
(6.86928 0.945834 -1.38764e-19)
(6.85495 0.943064 7.652e-24)
(6.84628 0.940616 -7.17338e-24)
(6.84046 0.938047 6.37721e-24)
(6.83532 0.935372 1.93343e-19)
(6.83035 0.932743 0)
(6.8262 0.930245 -3.21671e-19)
(6.82328 0.927803 2.93034e-19)
(6.82142 0.925343 4.14409e-24)
(6.8202 0.922816 0)
(6.81944 0.920238 0)
(6.81924 0.917609 0)
(6.81943 0.914902 0)
(6.82013 0.912117 -2.4543e-24)
(6.82119 0.909235 4.54582e-24)
(6.82253 0.906246 2.69005e-19)
(6.82419 0.903149 3.00634e-24)
(6.82609 0.899929 0)
(6.82827 0.896592 -1.96198e-19)
(6.83052 0.893103 0)
(6.83304 0.889492 -1.57008e-19)
(6.83555 0.885714 -2.79484e-19)
(6.83836 0.881819 2.47673e-19)
(6.84112 0.877752 0)
(6.84407 0.873548 1.91271e-19)
(6.84708 0.869189 1.6624e-19)
(6.85024 0.864683 -1.43069e-19)
(6.85338 0.860008 0)
(6.85655 0.855174 1.01627e-19)
(6.85968 0.850163 -8.30607e-20)
(6.86294 0.845006 1.31513e-19)
(6.86625 0.839687 -9.92067e-20)
(6.86931 0.834179 -6.89871e-20)
(6.87253 0.828528 -1.02844e-25)
(6.87579 0.822717 -4.96092e-24)
(6.87909 0.816741 1.09333e-20)
(6.88251 0.81061 3.44984e-20)
(6.8859 0.804314 -8.57193e-26)
(6.88932 0.797861 -7.78054e-20)
(6.89274 0.791238 1.95579e-19)