/*--------------------------------*- C++ -*----------------------------------*\
| =========                 |                                                 |
| \\      /  F ield         | OpenFOAM: The Open Source CFD Toolbox           |
|  \\    /   O peration     | Version:  2412                                  |
|   \\  /    A nd           | Website:  www.openfoam.com                      |
|    \\/     M anipulation  |                                                 |
\*---------------------------------------------------------------------------*/
FoamFile
{
    version     2.0;
    format      ascii;
    arch        "LSB;label=32;scalar=64";
    class       volScalarField;
    location    "200";
    object      nut;
}
// * * * * * * * * * * * * * * * * * * * * * * * * * * * * * * * * * * * * * //

dimensions      [0 2 -1 0 0 0 0];

internalField   nonuniform List<scalar> 
8702
(
1.00199e-11
1.00119e-11
1.00054e-11
1.00023e-11
1.00008e-11
9.99967e-12
9.99881e-12
9.99611e-12
9.99216e-12
9.98837e-12
9.98447e-12
9.98003e-12
9.97524e-12
9.9709e-12
9.96644e-12
9.96265e-12
9.95847e-12
9.95444e-12
9.95144e-12
9.94741e-12
9.94311e-12
9.9393e-12
9.93508e-12
9.93079e-12
9.92719e-12
9.92337e-12
9.9192e-12
9.91551e-12
9.91189e-12
9.90776e-12
9.90413e-12
9.90086e-12
9.89694e-12
9.89355e-12
9.89021e-12
9.88578e-12
9.88218e-12
9.87883e-12
9.87537e-12
9.87243e-12
9.86932e-12
9.86632e-12
9.86316e-12
9.85994e-12
9.85774e-12
9.85578e-12
9.85396e-12
9.85202e-12
9.85034e-12
9.8486e-12
9.84689e-12
9.84633e-12
9.8461e-12
9.84637e-12
9.84722e-12
9.8492e-12
9.85153e-12
9.85429e-12
9.85812e-12
9.86395e-12
9.87078e-12
9.87824e-12
9.88787e-12
9.90007e-12
9.91546e-12
9.9328e-12
9.95292e-12
9.97436e-12
9.99738e-12
1.00282e-11
1.00728e-11
1.01311e-11
1.01912e-11
1.02426e-11
1.0278e-11
1.03158e-11
1.03975e-11
1.05506e-11
1.08114e-11
1.1149e-11
1.14601e-11
1.1689e-11
8.89231e-10
8.88572e-10
8.87967e-10
8.87689e-10
8.87597e-10
8.87535e-10
8.87463e-10
8.87281e-10
8.8698e-10
8.86651e-10
8.86295e-10
8.85902e-10
8.85491e-10
8.85098e-10
8.84706e-10
8.8437e-10
8.84021e-10
8.83667e-10
8.83352e-10
8.83003e-10
8.8265e-10
8.82295e-10
8.81929e-10
8.8155e-10
8.81213e-10
8.80864e-10
8.80485e-10
8.80141e-10
8.79785e-10
8.7941e-10
8.79054e-10
8.78715e-10
8.7835e-10
8.77986e-10
8.77645e-10
8.77267e-10
8.76905e-10
8.76565e-10
8.76228e-10
8.75922e-10
8.75607e-10
8.75289e-10
8.74964e-10
8.74655e-10
8.74405e-10
8.74151e-10
8.73914e-10
8.73678e-10
8.73474e-10
8.73298e-10
8.73135e-10
8.73013e-10
8.72923e-10
8.72893e-10
8.72916e-10
8.72998e-10
8.73125e-10
8.73339e-10
8.73644e-10
8.74078e-10
8.74621e-10
8.75245e-10
8.76036e-10
8.77048e-10
8.7832e-10
8.79808e-10
8.81524e-10
8.83346e-10
8.85353e-10
8.88e-10
8.91761e-10
8.96636e-10
9.01766e-10
9.0633e-10
9.09666e-10
9.13122e-10
9.19969e-10
9.3252e-10
9.53647e-10
9.81127e-10
1.0072e-09
1.02729e-09
7.60755e-09
7.60263e-09
7.59741e-09
7.59479e-09
7.59425e-09
7.59415e-09
7.59393e-09
7.59292e-09
7.59085e-09
7.58822e-09
7.58522e-09
7.58193e-09
7.57848e-09
7.57512e-09
7.57172e-09
7.56868e-09
7.56579e-09
7.56276e-09
7.55981e-09
7.55687e-09
7.55384e-09
7.55064e-09
7.54743e-09
7.54413e-09
7.54096e-09
7.53771e-09
7.53431e-09
7.53098e-09
7.52754e-09
7.52413e-09
7.52063e-09
7.51716e-09
7.51369e-09
7.51011e-09
7.5066e-09
7.50301e-09
7.4994e-09
7.49581e-09
7.49235e-09
7.48909e-09
7.48573e-09
7.48232e-09
7.47888e-09
7.47564e-09
7.47264e-09
7.46964e-09
7.46678e-09
7.46392e-09
7.46128e-09
7.45893e-09
7.45677e-09
7.45482e-09
7.45312e-09
7.45197e-09
7.45125e-09
7.45088e-09
7.45097e-09
7.45183e-09
7.45351e-09
7.45609e-09
7.4596e-09
7.46395e-09
7.46957e-09
7.47697e-09
7.48646e-09
7.49796e-09
7.51123e-09
7.52562e-09
7.5418e-09
7.56272e-09
7.59182e-09
7.62948e-09
7.67025e-09
7.70816e-09
7.73791e-09
7.76823e-09
7.82148e-09
7.91541e-09
8.07039e-09
8.27341e-09
8.47474e-09
8.64011e-09
3.12481e-08
3.12324e-08
3.12112e-08
3.1199e-08
3.11977e-08
3.11996e-08
3.12012e-08
3.11993e-08
3.11931e-08
3.11836e-08
3.11721e-08
3.11591e-08
3.11451e-08
3.11311e-08
3.11172e-08
3.11044e-08
3.10922e-08
3.10798e-08
3.10676e-08
3.10552e-08
3.1042e-08
3.10282e-08
3.10143e-08
3.1e-08
3.09856e-08
3.09708e-08
3.09555e-08
3.09399e-08
3.09241e-08
3.09082e-08
3.08916e-08
3.0875e-08
3.08583e-08
3.0841e-08
3.08236e-08
3.08061e-08
3.07883e-08
3.07704e-08
3.07529e-08
3.07358e-08
3.07182e-08
3.07003e-08
3.06825e-08
3.06651e-08
3.06482e-08
3.06315e-08
3.0615e-08
3.05985e-08
3.05827e-08
3.05677e-08
3.05536e-08
3.05403e-08
3.0528e-08
3.05174e-08
3.05083e-08
3.05008e-08
3.04952e-08
3.04923e-08
3.04925e-08
3.04962e-08
3.05034e-08
3.05144e-08
3.05302e-08
3.05523e-08
3.05822e-08
3.06204e-08
3.06659e-08
3.07166e-08
3.07745e-08
3.08487e-08
3.09508e-08
3.10836e-08
3.1232e-08
3.13758e-08
3.14974e-08
3.16204e-08
3.18118e-08
3.21339e-08
3.26516e-08
3.33344e-08
3.40463e-08
3.46735e-08
8.80645e-08
8.8037e-08
8.79797e-08
8.79424e-08
8.79409e-08
8.79532e-08
8.79658e-08
8.79684e-08
8.79571e-08
8.79353e-08
8.79061e-08
8.78708e-08
8.78316e-08
8.77925e-08
8.77543e-08
8.77179e-08
8.76826e-08
8.76475e-08
8.76127e-08
8.7576e-08
8.75369e-08
8.7496e-08
8.74542e-08
8.74106e-08
8.7366e-08
8.73195e-08
8.72715e-08
8.72221e-08
8.71715e-08
8.71197e-08
8.7066e-08
8.70115e-08
8.69556e-08
8.68981e-08
8.68398e-08
8.678e-08
8.67192e-08
8.66584e-08
8.65972e-08
8.65361e-08
8.64734e-08
8.641e-08
8.63461e-08
8.62821e-08
8.62188e-08
8.61551e-08
8.60912e-08
8.60277e-08
8.59657e-08
8.59049e-08
8.58455e-08
8.57883e-08
8.57331e-08
8.56819e-08
8.56342e-08
8.55905e-08
8.55515e-08
8.55191e-08
8.54942e-08
8.54779e-08
8.54712e-08
8.54746e-08
8.54902e-08
8.55214e-08
8.55722e-08
8.56447e-08
8.5737e-08
8.58449e-08
8.59719e-08
8.61361e-08
8.63634e-08
8.6664e-08
8.70116e-08
8.73649e-08
8.76861e-08
8.80112e-08
8.84628e-08
8.91825e-08
9.0303e-08
9.17889e-08
9.34256e-08
9.49799e-08
1.96129e-07
1.96114e-07
1.95998e-07
1.9591e-07
1.95911e-07
1.95954e-07
1.96001e-07
1.96026e-07
1.96017e-07
1.95981e-07
1.95924e-07
1.9585e-07
1.95767e-07
1.95682e-07
1.95598e-07
1.95516e-07
1.95437e-07
1.95359e-07
1.95279e-07
1.95194e-07
1.95103e-07
1.95006e-07
1.94906e-07
1.948e-07
1.94691e-07
1.94576e-07
1.94456e-07
1.94333e-07
1.94204e-07
1.94071e-07
1.93934e-07
1.93792e-07
1.93646e-07
1.93496e-07
1.93341e-07
1.93181e-07
1.93018e-07
1.92853e-07
1.92685e-07
1.92516e-07
1.92342e-07
1.92165e-07
1.91986e-07
1.91804e-07
1.91621e-07
1.91435e-07
1.91248e-07
1.9106e-07
1.90873e-07
1.90687e-07
1.90502e-07
1.9032e-07
1.90141e-07
1.89967e-07
1.89801e-07
1.89641e-07
1.89488e-07
1.89348e-07
1.89222e-07
1.89112e-07
1.89021e-07
1.8895e-07
1.88902e-07
1.88884e-07
1.88904e-07
1.88966e-07
1.89069e-07
1.89208e-07
1.89385e-07
1.89627e-07
1.89975e-07
1.90454e-07
1.9104e-07
1.91672e-07
1.92291e-07
1.92925e-07
1.93717e-07
1.94896e-07
1.9666e-07
1.9901e-07
2.01773e-07
2.04633e-07
3.70531e-07
3.70604e-07
3.70424e-07
3.70255e-07
3.70265e-07
3.70371e-07
3.70497e-07
3.70581e-07
3.70601e-07
3.7056e-07
3.70472e-07
3.70347e-07
3.702e-07
3.70045e-07
3.69887e-07
3.69733e-07
3.69585e-07
3.69434e-07
3.6928e-07
3.69113e-07
3.68933e-07
3.68738e-07
3.68534e-07
3.68316e-07
3.68088e-07
3.67845e-07
3.67593e-07
3.67329e-07
3.67053e-07
3.66765e-07
3.66464e-07
3.66153e-07
3.6583e-07
3.65495e-07
3.65147e-07
3.6479e-07
3.6442e-07
3.64044e-07
3.63656e-07
3.63261e-07
3.62857e-07
3.62445e-07
3.62023e-07
3.61591e-07
3.61152e-07
3.60705e-07
3.60251e-07
3.5979e-07
3.59326e-07
3.58861e-07
3.58393e-07
3.57925e-07
3.57458e-07
3.56997e-07
3.56543e-07
3.56096e-07
3.55659e-07
3.55237e-07
3.54836e-07
3.54459e-07
3.5411e-07
3.53793e-07
3.53512e-07
3.53278e-07
3.53098e-07
3.52986e-07
3.52946e-07
3.52969e-07
3.53057e-07
3.53233e-07
3.53548e-07
3.54048e-07
3.54738e-07
3.55564e-07
3.56459e-07
3.57402e-07
3.58454e-07
3.59881e-07
3.6189e-07
3.6458e-07
3.68072e-07
3.72141e-07
6.18303e-07
6.18629e-07
6.18425e-07
6.18154e-07
6.18179e-07
6.18396e-07
6.18668e-07
6.18877e-07
6.18971e-07
6.18955e-07
6.18849e-07
6.18669e-07
6.18443e-07
6.18194e-07
6.17938e-07
6.17684e-07
6.17434e-07
6.17181e-07
6.16914e-07
6.16624e-07
6.16306e-07
6.1596e-07
6.15591e-07
6.15192e-07
6.14771e-07
6.14318e-07
6.13845e-07
6.13346e-07
6.1282e-07
6.12268e-07
6.11689e-07
6.11084e-07
6.10452e-07
6.09794e-07
6.09109e-07
6.08399e-07
6.07663e-07
6.06908e-07
6.06127e-07
6.05325e-07
6.04502e-07
6.03657e-07
6.02787e-07
6.01894e-07
6.00979e-07
6.00043e-07
5.99085e-07
5.98108e-07
5.97116e-07
5.96113e-07
5.95096e-07
5.94069e-07
5.93034e-07
5.91997e-07
5.90961e-07
5.89927e-07
5.88899e-07
5.87884e-07
5.86888e-07
5.85918e-07
5.8498e-07
5.84083e-07
5.83231e-07
5.82434e-07
5.81705e-07
5.81061e-07
5.8052e-07
5.80077e-07
5.79724e-07
5.79462e-07
5.79337e-07
5.79413e-07
5.79767e-07
5.80401e-07
5.81277e-07
5.8227e-07
5.83203e-07
5.84243e-07
5.85488e-07
5.872e-07
5.90113e-07
5.94415e-07
9.34436e-07
9.35288e-07
9.35178e-07
9.34812e-07
9.34866e-07
9.35248e-07
9.35747e-07
9.36166e-07
9.36409e-07
9.3647e-07
9.36375e-07
9.36154e-07
9.35846e-07
9.3549e-07
9.35115e-07
9.34733e-07
9.34354e-07
9.33962e-07
9.33543e-07
9.33081e-07
9.3257e-07
9.32009e-07
9.31399e-07
9.30733e-07
9.30022e-07
9.29255e-07
9.28449e-07
9.2759e-07
9.26679e-07
9.25717e-07
9.24701e-07
9.23634e-07
9.22516e-07
9.21346e-07
9.20123e-07
9.18849e-07
9.17521e-07
9.16153e-07
9.14732e-07
9.13268e-07
9.11755e-07
9.10197e-07
9.08588e-07
9.06927e-07
9.05218e-07
9.03461e-07
9.01656e-07
8.99808e-07
8.97918e-07
8.95993e-07
8.9403e-07
8.92035e-07
8.90011e-07
8.87964e-07
8.85897e-07
8.83814e-07
8.81721e-07
8.79624e-07
8.77531e-07
8.75452e-07
8.73397e-07
8.71376e-07
8.69396e-07
8.67464e-07
8.65593e-07
8.63807e-07
8.62139e-07
8.60599e-07
8.59161e-07
8.57786e-07
8.56477e-07
8.55314e-07
8.54489e-07
8.54126e-07
8.54262e-07
8.5463e-07
8.54648e-07
8.54172e-07
8.53037e-07
8.51699e-07
8.51783e-07
8.54271e-07
1.30024e-06
1.302e-06
1.3022e-06
1.3018e-06
1.30191e-06
1.3025e-06
1.30331e-06
1.30403e-06
1.30451e-06
1.30471e-06
1.30468e-06
1.30445e-06
1.30407e-06
1.30361e-06
1.3031e-06
1.30257e-06
1.30203e-06
1.30147e-06
1.30085e-06
1.30017e-06
1.2994e-06
1.29854e-06
1.29761e-06
1.29658e-06
1.29546e-06
1.29426e-06
1.29298e-06
1.29161e-06
1.29015e-06
1.2886e-06
1.28695e-06
1.28521e-06
1.28338e-06
1.28146e-06
1.27945e-06
1.27734e-06
1.27513e-06
1.27285e-06
1.27048e-06
1.26802e-06
1.26547e-06
1.26283e-06
1.2601e-06
1.25728e-06
1.25436e-06
1.25135e-06
1.24825e-06
1.24506e-06
1.24178e-06
1.23843e-06
1.23499e-06
1.23149e-06
1.22791e-06
1.22426e-06
1.22056e-06
1.2168e-06
1.213e-06
1.20915e-06
1.20527e-06
1.20136e-06
1.19745e-06
1.19355e-06
1.18965e-06
1.18577e-06
1.18191e-06
1.1781e-06
1.1744e-06
1.17083e-06
1.16736e-06
1.16386e-06
1.16029e-06
1.15671e-06
1.15345e-06
1.15083e-06
1.14902e-06
1.14759e-06
1.14543e-06
1.14187e-06
1.13634e-06
1.12947e-06
1.12391e-06
1.1217e-06
1.12218e-06
1.68479e-06
1.68791e-06
1.68874e-06
1.68844e-06
1.68863e-06
1.68946e-06
1.69063e-06
1.69173e-06
1.69253e-06
1.69296e-06
1.69305e-06
1.69285e-06
1.69243e-06
1.69186e-06
1.69121e-06
1.69051e-06
1.68979e-06
1.68901e-06
1.68816e-06
1.68719e-06
1.68609e-06
1.68487e-06
1.6835e-06
1.68199e-06
1.68035e-06
1.67856e-06
1.67665e-06
1.6746e-06
1.67239e-06
1.67004e-06
1.66754e-06
1.66489e-06
1.66209e-06
1.65914e-06
1.65604e-06
1.65279e-06
1.64937e-06
1.64583e-06
1.64213e-06
1.63828e-06
1.63429e-06
1.63015e-06
1.62585e-06
1.6214e-06
1.61678e-06
1.61201e-06
1.60707e-06
1.60198e-06
1.59674e-06
1.59135e-06
1.58582e-06
1.58015e-06
1.57433e-06
1.56839e-06
1.56233e-06
1.55614e-06
1.54984e-06
1.54343e-06
1.53692e-06
1.53033e-06
1.52366e-06
1.51694e-06
1.51017e-06
1.50334e-06
1.49645e-06
1.48953e-06
1.48267e-06
1.47591e-06
1.46919e-06
1.46233e-06
1.45516e-06
1.44774e-06
1.44054e-06
1.4341e-06
1.42874e-06
1.42389e-06
1.41791e-06
1.40948e-06
1.3975e-06
1.38281e-06
1.36893e-06
1.35902e-06
1.35362e-06
2.04938e-06
2.0543e-06
2.05615e-06
2.05616e-06
2.05648e-06
2.05754e-06
2.05907e-06
2.06059e-06
2.06176e-06
2.06246e-06
2.06273e-06
2.0626e-06
2.06216e-06
2.0615e-06
2.0607e-06
2.05981e-06
2.05887e-06
2.05784e-06
2.05668e-06
2.05537e-06
2.05386e-06
2.05216e-06
2.05027e-06
2.04815e-06
2.04583e-06
2.0433e-06
2.04058e-06
2.03765e-06
2.0345e-06
2.03112e-06
2.02752e-06
2.02369e-06
2.01964e-06
2.01537e-06
2.01086e-06
2.00612e-06
2.00115e-06
1.99596e-06
1.99054e-06
1.9849e-06
1.97902e-06
1.97292e-06
1.96659e-06
1.96001e-06
1.95317e-06
1.94609e-06
1.93876e-06
1.93119e-06
1.92337e-06
1.91531e-06
1.90702e-06
1.8985e-06
1.88974e-06
1.88076e-06
1.87157e-06
1.86215e-06
1.85254e-06
1.84271e-06
1.8327e-06
1.82249e-06
1.81212e-06
1.8016e-06
1.79093e-06
1.7801e-06
1.7691e-06
1.75795e-06
1.74675e-06
1.73558e-06
1.72436e-06
1.71284e-06
1.70073e-06
1.68807e-06
1.67544e-06
1.66358e-06
1.65299e-06
1.64296e-06
1.63142e-06
1.61644e-06
1.59644e-06
1.57242e-06
1.54852e-06
1.52875e-06
1.51498e-06
2.35397e-06
2.36105e-06
2.3643e-06
2.36487e-06
2.36539e-06
2.36666e-06
2.3685e-06
2.3704e-06
2.37194e-06
2.37295e-06
2.37342e-06
2.37339e-06
2.37295e-06
2.3722e-06
2.37124e-06
2.37012e-06
2.3689e-06
2.36755e-06
2.36601e-06
2.36424e-06
2.36221e-06
2.35991e-06
2.35734e-06
2.35447e-06
2.35131e-06
2.34786e-06
2.34414e-06
2.34012e-06
2.3358e-06
2.33116e-06
2.3262e-06
2.32093e-06
2.31534e-06
2.30944e-06
2.30321e-06
2.29667e-06
2.28979e-06
2.2826e-06
2.27509e-06
2.26726e-06
2.2591e-06
2.25062e-06
2.2418e-06
2.23263e-06
2.22311e-06
2.21323e-06
2.20299e-06
2.1924e-06
2.18146e-06
2.17016e-06
2.15853e-06
2.14654e-06
2.13421e-06
2.12155e-06
2.10854e-06
2.09521e-06
2.08155e-06
2.06757e-06
2.05328e-06
2.03867e-06
2.02378e-06
2.00861e-06
1.99319e-06
1.97747e-06
1.96144e-06
1.94512e-06
1.92863e-06
1.91206e-06
1.89532e-06
1.8781e-06
1.86003e-06
1.84112e-06
1.822e-06
1.80358e-06
1.78646e-06
1.76982e-06
1.75137e-06
1.72873e-06
1.70004e-06
1.66652e-06
1.63255e-06
1.60246e-06
1.57925e-06
2.56454e-06
2.57396e-06
2.5789e-06
2.5803e-06
2.58112e-06
2.58257e-06
2.58465e-06
2.58687e-06
2.58875e-06
2.59004e-06
2.59071e-06
2.59078e-06
2.59033e-06
2.58946e-06
2.58828e-06
2.58687e-06
2.58527e-06
2.58346e-06
2.58138e-06
2.579e-06
2.57628e-06
2.5732e-06
2.56977e-06
2.56594e-06
2.56174e-06
2.55714e-06
2.55219e-06
2.54686e-06
2.54111e-06
2.53496e-06
2.52839e-06
2.52141e-06
2.51402e-06
2.50622e-06
2.498e-06
2.48935e-06
2.48028e-06
2.4708e-06
2.4609e-06
2.45057e-06
2.4398e-06
2.42861e-06
2.41698e-06
2.4049e-06
2.39235e-06
2.37933e-06
2.36583e-06
2.35187e-06
2.33744e-06
2.32253e-06
2.30717e-06
2.29134e-06
2.27504e-06
2.25828e-06
2.24106e-06
2.22339e-06
2.20526e-06
2.18669e-06
2.16767e-06
2.14821e-06
2.12833e-06
2.10806e-06
2.08741e-06
2.06633e-06
2.04481e-06
2.02287e-06
2.00064e-06
1.97823e-06
1.95553e-06
1.93221e-06
1.90787e-06
1.88248e-06
1.8567e-06
1.83147e-06
1.80745e-06
1.78371e-06
1.75796e-06
1.72767e-06
1.69098e-06
1.64937e-06
1.60712e-06
1.56834e-06
1.53656e-06
2.6598e-06
2.67155e-06
2.67838e-06
2.6809e-06
2.68222e-06
2.68392e-06
2.68622e-06
2.68872e-06
2.69089e-06
2.69242e-06
2.69326e-06
2.69338e-06
2.69285e-06
2.69176e-06
2.69023e-06
2.68835e-06
2.68616e-06
2.68365e-06
2.68079e-06
2.67752e-06
2.67382e-06
2.66966e-06
2.66506e-06
2.65998e-06
2.65443e-06
2.64841e-06
2.64194e-06
2.635e-06
2.62756e-06
2.61962e-06
2.61118e-06
2.60224e-06
2.5928e-06
2.58286e-06
2.57242e-06
2.56148e-06
2.55001e-06
2.53804e-06
2.52556e-06
2.51257e-06
2.49905e-06
2.485e-06
2.47043e-06
2.4553e-06
2.43962e-06
2.42337e-06
2.40654e-06
2.38914e-06
2.37116e-06
2.35262e-06
2.3335e-06
2.31381e-06
2.29356e-06
2.27273e-06
2.25133e-06
2.22937e-06
2.20684e-06
2.18376e-06
2.16011e-06
2.13592e-06
2.11119e-06
2.08596e-06
2.06025e-06
2.03401e-06
2.00724e-06
1.97996e-06
1.95232e-06
1.92442e-06
1.8962e-06
1.86732e-06
1.83739e-06
1.8064e-06
1.77496e-06
1.74398e-06
1.71403e-06
1.68413e-06
1.65215e-06
1.61572e-06
1.57326e-06
1.52657e-06
1.47948e-06
1.4354e-06
1.39779e-06
2.63661e-06
2.65066e-06
2.65958e-06
2.66366e-06
2.66589e-06
2.66812e-06
2.67078e-06
2.67359e-06
2.67602e-06
2.67774e-06
2.67863e-06
2.67866e-06
2.67786e-06
2.6763e-06
2.67412e-06
2.67141e-06
2.66824e-06
2.66459e-06
2.66048e-06
2.65584e-06
2.65067e-06
2.64495e-06
2.63871e-06
2.63191e-06
2.62457e-06
2.6167e-06
2.60832e-06
2.59939e-06
2.58991e-06
2.57986e-06
2.56925e-06
2.55808e-06
2.54637e-06
2.5341e-06
2.52128e-06
2.50789e-06
2.49394e-06
2.47943e-06
2.46434e-06
2.44869e-06
2.43246e-06
2.41565e-06
2.39825e-06
2.38024e-06
2.36162e-06
2.34238e-06
2.3225e-06
2.30199e-06
2.28084e-06
2.25906e-06
2.23665e-06
2.21361e-06
2.18994e-06
2.16563e-06
2.14069e-06
2.11512e-06
2.08892e-06
2.06209e-06
2.03464e-06
2.00657e-06
1.9779e-06
1.94867e-06
1.91888e-06
1.88852e-06
1.85758e-06
1.82612e-06
1.79427e-06
1.76217e-06
1.72979e-06
1.69684e-06
1.66304e-06
1.62842e-06
1.59355e-06
1.55917e-06
1.52568e-06
1.49211e-06
1.45657e-06
1.4171e-06
1.37256e-06
1.32496e-06
1.27747e-06
1.23241e-06
1.19274e-06
2.51276e-06
2.53e-06
2.54162e-06
2.54799e-06
2.55188e-06
2.55522e-06
2.55857e-06
2.56182e-06
2.5645e-06
2.56622e-06
2.56689e-06
2.56645e-06
2.56493e-06
2.56238e-06
2.55894e-06
2.55475e-06
2.54986e-06
2.54433e-06
2.53816e-06
2.53137e-06
2.52394e-06
2.51588e-06
2.50724e-06
2.49801e-06
2.48819e-06
2.47782e-06
2.46693e-06
2.45549e-06
2.44347e-06
2.43089e-06
2.41773e-06
2.40402e-06
2.38975e-06
2.37495e-06
2.3596e-06
2.3437e-06
2.32724e-06
2.31023e-06
2.29265e-06
2.27452e-06
2.25581e-06
2.23654e-06
2.21668e-06
2.19624e-06
2.1752e-06
2.15354e-06
2.13127e-06
2.10838e-06
2.08487e-06
2.06074e-06
2.03599e-06
2.01062e-06
1.98464e-06
1.95804e-06
1.93083e-06
1.90299e-06
1.87454e-06
1.84547e-06
1.81578e-06
1.78548e-06
1.75459e-06
1.72312e-06
1.6911e-06
1.65851e-06
1.62534e-06
1.59166e-06
1.5576e-06
1.52332e-06
1.48882e-06
1.45395e-06
1.41857e-06
1.38287e-06
1.34744e-06
1.31284e-06
1.2792e-06
1.24552e-06
1.21026e-06
1.17193e-06
1.12985e-06
1.08597e-06
1.04261e-06
1.00073e-06
9.62561e-07
9.25948e-07
2.35263e-06
2.36784e-06
2.37763e-06
2.38415e-06
2.38931e-06
2.39371e-06
2.39744e-06
2.40012e-06
2.40139e-06
2.40119e-06
2.39951e-06
2.39636e-06
2.39182e-06
2.38606e-06
2.37923e-06
2.37145e-06
2.36278e-06
2.35332e-06
2.34311e-06
2.33219e-06
2.32058e-06
2.30838e-06
2.2956e-06
2.28226e-06
2.2684e-06
2.25409e-06
2.2393e-06
2.22401e-06
2.20822e-06
2.19194e-06
2.17518e-06
2.15797e-06
2.14031e-06
2.1222e-06
2.10364e-06
2.08463e-06
2.06515e-06
2.04522e-06
2.02482e-06
2.00395e-06
1.98263e-06
1.96083e-06
1.93855e-06
1.91578e-06
1.89251e-06
1.86875e-06
1.84447e-06
1.8197e-06
1.79441e-06
1.76863e-06
1.74235e-06
1.71557e-06
1.6883e-06
1.66052e-06
1.63224e-06
1.60346e-06
1.57418e-06
1.54438e-06
1.51406e-06
1.48325e-06
1.45195e-06
1.42017e-06
1.38787e-06
1.35503e-06
1.32169e-06
1.28795e-06
1.25392e-06
1.21962e-06
1.18501e-06
1.15011e-06
1.11534e-06
1.08157e-06
1.04956e-06
1.01911e-06
9.8902e-07
9.58052e-07
9.25142e-07
8.8986e-07
8.5385e-07
8.18451e-07
7.83021e-07
7.48781e-07
7.16143e-07
6.80916e-07
6.46184e-07
2.1877e-06
2.20696e-06
2.22112e-06
2.2309e-06
2.23816e-06
2.24353e-06
2.24725e-06
2.24912e-06
2.24887e-06
2.24653e-06
2.24214e-06
2.23577e-06
2.22755e-06
2.21766e-06
2.20634e-06
2.19374e-06
2.18e-06
2.16528e-06
2.14972e-06
2.13338e-06
2.11636e-06
2.09877e-06
2.08069e-06
2.06217e-06
2.04326e-06
2.02405e-06
2.00455e-06
1.98474e-06
1.96461e-06
1.94418e-06
1.92347e-06
1.9025e-06
1.8813e-06
1.85986e-06
1.83819e-06
1.81627e-06
1.79411e-06
1.77171e-06
1.74905e-06
1.72614e-06
1.70299e-06
1.67959e-06
1.65593e-06
1.63201e-06
1.60782e-06
1.58336e-06
1.55863e-06
1.53363e-06
1.50835e-06
1.4828e-06
1.45699e-06
1.43092e-06
1.40458e-06
1.37798e-06
1.35111e-06
1.32396e-06
1.29652e-06
1.26879e-06
1.24076e-06
1.21242e-06
1.18377e-06
1.1548e-06
1.12547e-06
1.09572e-06
1.06551e-06
1.03485e-06
1.00372e-06
9.72036e-07
9.39655e-07
9.06544e-07
8.7316e-07
8.40796e-07
8.11481e-07
7.86006e-07
7.62144e-07
7.38477e-07
7.14268e-07
6.89116e-07
6.64027e-07
6.39371e-07
6.12986e-07
5.83923e-07
5.55796e-07
5.21047e-07
5.02147e-07
2.13553e-06
2.15871e-06
2.17694e-06
2.18923e-06
2.19768e-06
2.20284e-06
2.20504e-06
2.20424e-06
2.20036e-06
2.19351e-06
2.18383e-06
2.17146e-06
2.15659e-06
2.1395e-06
2.12048e-06
2.0998e-06
2.07771e-06
2.05441e-06
2.03015e-06
2.00511e-06
1.97945e-06
1.95336e-06
1.92699e-06
1.9004e-06
1.87368e-06
1.84693e-06
1.8202e-06
1.79349e-06
1.76679e-06
1.74013e-06
1.71356e-06
1.68709e-06
1.66073e-06
1.63449e-06
1.60837e-06
1.58238e-06
1.5565e-06
1.53073e-06
1.50507e-06
1.47952e-06
1.45407e-06
1.42873e-06
1.40349e-06
1.37834e-06
1.35328e-06
1.3283e-06
1.3034e-06
1.27858e-06
1.25383e-06
1.22916e-06
1.20456e-06
1.18006e-06
1.15566e-06
1.13133e-06
1.10709e-06
1.08291e-06
1.05877e-06
1.03466e-06
1.01057e-06
9.86493e-07
9.62418e-07
9.38307e-07
9.14111e-07
8.89759e-07
8.65203e-07
8.40354e-07
8.15031e-07
7.88903e-07
7.61388e-07
7.31548e-07
6.98652e-07
6.63325e-07
6.29762e-07
6.08683e-07
5.92386e-07
5.77646e-07
5.64189e-07
5.52122e-07
5.40668e-07
5.29956e-07
5.19026e-07
5.07504e-07
4.95047e-07
4.82566e-07
4.75481e-07
2.45809e-06
2.46992e-06
2.47821e-06
2.48059e-06
2.47997e-06
2.47587e-06
2.46785e-06
2.45581e-06
2.43982e-06
2.42007e-06
2.3967e-06
2.36989e-06
2.33987e-06
2.30699e-06
2.27165e-06
2.23441e-06
2.19566e-06
2.1556e-06
2.11456e-06
2.0729e-06
2.03097e-06
1.98908e-06
1.94742e-06
1.90606e-06
1.86508e-06
1.82458e-06
1.78465e-06
1.74534e-06
1.70665e-06
1.66862e-06
1.63137e-06
1.5949e-06
1.55917e-06
1.52417e-06
1.4899e-06
1.45637e-06
1.42358e-06
1.3915e-06
1.36013e-06
1.32945e-06
1.29946e-06
1.27014e-06
1.24147e-06
1.21345e-06
1.18604e-06
1.15924e-06
1.13302e-06
1.10739e-06
1.08231e-06
1.05778e-06
1.03381e-06
1.01041e-06
9.87578e-07
9.65337e-07
9.43705e-07
9.22658e-07
9.0211e-07
8.82044e-07
8.62458e-07
8.43362e-07
8.24751e-07
8.06614e-07
7.88948e-07
7.71734e-07
7.54962e-07
7.38678e-07
7.22901e-07
7.07515e-07
6.92159e-07
6.76022e-07
6.58541e-07
6.41126e-07
6.25772e-07
6.13276e-07
6.02643e-07
5.93452e-07
5.8585e-07
5.80609e-07
5.76723e-07
5.75027e-07
5.76275e-07
5.80151e-07
5.84008e-07
5.85724e-07
5.89947e-07
3.71254e-06
3.7156e-06
3.71701e-06
3.71137e-06
3.70354e-06
3.691e-06
3.67247e-06
3.64741e-06
3.61582e-06
3.57792e-06
3.53384e-06
3.48373e-06
3.4279e-06
3.36686e-06
3.30137e-06
3.23248e-06
3.16092e-06
3.08712e-06
3.01159e-06
2.93498e-06
2.8579e-06
2.78084e-06
2.70421e-06
2.6284e-06
2.55358e-06
2.47988e-06
2.40748e-06
2.33662e-06
2.26738e-06
2.19988e-06
2.13441e-06
2.07102e-06
2.00955e-06
1.94994e-06
1.89221e-06
1.83637e-06
1.78239e-06
1.73026e-06
1.67995e-06
1.63139e-06
1.58453e-06
1.53936e-06
1.49581e-06
1.45385e-06
1.41344e-06
1.37451e-06
1.33704e-06
1.30095e-06
1.2662e-06
1.23276e-06
1.20063e-06
1.16979e-06
1.14023e-06
1.11191e-06
1.08482e-06
1.05893e-06
1.03421e-06
1.01065e-06
9.88209e-07
9.66896e-07
9.46723e-07
9.27724e-07
9.09959e-07
8.93544e-07
8.78678e-07
8.65682e-07
8.55087e-07
8.47867e-07
8.45545e-07
8.47919e-07
8.42716e-07
8.34253e-07
8.24741e-07
8.15204e-07
8.0634e-07
7.98933e-07
7.9389e-07
7.91356e-07
7.90259e-07
7.89695e-07
7.89459e-07
7.8831e-07
7.85608e-07
7.84243e-07
7.87855e-07
7.99286e-07
8.22459e-07
8.54491e-07
6.57649e-06
6.57205e-06
6.57194e-06
6.56429e-06
6.558e-06
6.54487e-06
6.52181e-06
6.48724e-06
6.44064e-06
6.38195e-06
6.31102e-06
6.22766e-06
6.13203e-06
6.0248e-06
5.90723e-06
5.78118e-06
5.64841e-06
5.50988e-06
5.36648e-06
5.21954e-06
5.0704e-06
4.92026e-06
4.77013e-06
4.62089e-06
4.47299e-06
4.32674e-06
4.18265e-06
4.04134e-06
3.90321e-06
3.76866e-06
3.63812e-06
3.51174e-06
3.38938e-06
3.271e-06
3.15666e-06
3.04644e-06
2.94036e-06
2.83842e-06
2.74056e-06
2.64667e-06
2.55664e-06
2.47038e-06
2.38777e-06
2.30873e-06
2.23313e-06
2.16087e-06
2.09183e-06
2.02591e-06
1.963e-06
1.90296e-06
1.84575e-06
1.79128e-06
1.73949e-06
1.69029e-06
1.64361e-06
1.59939e-06
1.55755e-06
1.51806e-06
1.48083e-06
1.44583e-06
1.41303e-06
1.38242e-06
1.35403e-06
1.32786e-06
1.30393e-06
1.28217e-06
1.26251e-06
1.24481e-06
1.22875e-06
1.21321e-06
1.19666e-06
1.17978e-06
1.16304e-06
1.14667e-06
1.1311e-06
1.11748e-06
1.10655e-06
1.09853e-06
1.09202e-06
1.08549e-06
1.07797e-06
1.06845e-06
1.05748e-06
1.04882e-06
1.04629e-06
1.05236e-06
1.06945e-06
1.09344e-06
1.0737e-05
1.07587e-05
1.07706e-05
1.07685e-05
1.07492e-05
1.0711e-05
1.06526e-05
1.05727e-05
1.04701e-05
1.03439e-05
1.01947e-05
1.00244e-05
9.83563e-06
9.63131e-06
9.41337e-06
9.18366e-06
8.94448e-06
8.69826e-06
8.44724e-06
8.19337e-06
7.93823e-06
7.6829e-06
7.42828e-06
7.17551e-06
6.92584e-06
6.6803e-06
6.43969e-06
6.20483e-06
5.97627e-06
5.75413e-06
5.53856e-06
5.32976e-06
5.12795e-06
4.93327e-06
4.7458e-06
4.56553e-06
4.39237e-06
4.22619e-06
4.06687e-06
3.91425e-06
3.7682e-06
3.62853e-06
3.49507e-06
3.36764e-06
3.24604e-06
3.13009e-06
3.0196e-06
2.9144e-06
2.81433e-06
2.71921e-06
2.62888e-06
2.54317e-06
2.46195e-06
2.38506e-06
2.31237e-06
2.24373e-06
2.179e-06
2.11804e-06
2.06075e-06
2.00701e-06
1.95666e-06
1.90949e-06
1.86518e-06
1.82342e-06
1.78398e-06
1.74669e-06
1.71128e-06
1.67734e-06
1.64453e-06
1.61267e-06
1.58174e-06
1.5525e-06
1.52538e-06
1.50143e-06
1.48073e-06
1.46173e-06
1.44269e-06
1.42258e-06
1.40065e-06
1.37775e-06
1.35765e-06
1.34384e-06
1.33825e-06
1.34214e-06
1.35103e-06
1.59518e-05
1.60195e-05
1.60829e-05
1.61334e-05
1.6165e-05
1.61733e-05
1.61545e-05
1.61046e-05
1.60196e-05
1.58961e-05
1.57336e-05
1.55337e-05
1.52998e-05
1.50362e-05
1.47459e-05
1.44318e-05
1.40973e-05
1.37462e-05
1.33821e-05
1.30081e-05
1.2627e-05
1.22407e-05
1.1851e-05
1.14599e-05
1.10696e-05
1.06822e-05
1.02993e-05
9.92258e-06
9.55318e-06
9.19198e-06
8.83951e-06
8.49636e-06
8.16305e-06
7.84007e-06
7.52776e-06
7.22631e-06
6.93581e-06
6.65619e-06
6.38739e-06
6.12927e-06
5.88171e-06
5.64451e-06
5.41745e-06
5.2003e-06
4.99278e-06
4.79463e-06
4.60558e-06
4.42534e-06
4.25362e-06
4.09013e-06
3.93458e-06
3.7867e-06
3.64621e-06
3.51287e-06
3.38641e-06
3.26659e-06
3.15316e-06
3.04586e-06
2.94448e-06
2.84879e-06
2.75856e-06
2.67344e-06
2.59303e-06
2.51695e-06
2.44505e-06
2.37726e-06
2.31345e-06
2.25317e-06
2.19567e-06
2.14042e-06
2.08718e-06
2.0368e-06
1.98948e-06
1.94586e-06
1.90591e-06
1.86814e-06
1.83097e-06
1.79349e-06
1.75518e-06
1.71676e-06
1.68164e-06
1.65239e-06
1.6303e-06
1.61572e-06
1.60469e-06
1.5595e-06
1.39154e-06
1.07339e-06
8.2253e-07
1.23025e-06
2.17325e-05
2.18443e-05
2.19711e-05
2.20971e-05
2.22124e-05
2.23081e-05
2.23766e-05
2.24095e-05
2.23969e-05
2.23303e-05
2.22058e-05
2.20236e-05
2.17875e-05
2.15026e-05
2.11731e-05
2.08028e-05
2.03959e-05
1.99573e-05
1.94921e-05
1.90048e-05
1.84996e-05
1.79796e-05
1.74475e-05
1.69062e-05
1.63591e-05
1.58097e-05
1.52611e-05
1.47161e-05
1.41771e-05
1.36457e-05
1.31234e-05
1.26117e-05
1.21115e-05
1.16241e-05
1.11504e-05
1.06909e-05
1.02462e-05
9.81649e-06
9.40192e-06
9.00254e-06
8.61835e-06
8.24926e-06
7.89509e-06
7.55562e-06
7.23058e-06
6.91964e-06
6.62248e-06
6.33871e-06
6.06794e-06
5.80974e-06
5.5637e-06
5.3294e-06
5.10644e-06
4.89441e-06
4.69295e-06
4.50167e-06
4.32019e-06
4.14818e-06
3.9853e-06
3.83128e-06
3.68579e-06
3.54842e-06
3.41871e-06
3.29623e-06
3.1808e-06
3.07227e-06
2.97042e-06
2.87463e-06
2.78392e-06
2.69753e-06
2.61504e-06
2.53714e-06
2.46428e-06
2.39568e-06
2.33151e-06
2.27046e-06
2.21122e-06
2.15313e-06
2.09582e-06
2.03965e-06
1.98743e-06
1.94041e-06
1.89924e-06
1.8637e-06
1.83116e-06
1.7731e-06
1.60552e-06
1.27945e-06
9.44739e-07
1.1208e-06
2.75038e-05
2.76205e-05
2.77886e-05
2.79843e-05
2.81929e-05
2.8401e-05
2.8596e-05
2.87625e-05
2.88815e-05
2.89349e-05
2.8912e-05
2.88102e-05
2.86326e-05
2.83847e-05
2.80714e-05
2.76967e-05
2.72652e-05
2.67822e-05
2.62539e-05
2.56861e-05
2.50846e-05
2.44537e-05
2.37967e-05
2.31176e-05
2.24209e-05
2.17117e-05
2.09946e-05
2.02743e-05
1.95547e-05
1.88389e-05
1.81293e-05
1.74287e-05
1.67393e-05
1.6063e-05
1.54018e-05
1.47572e-05
1.41302e-05
1.35219e-05
1.29326e-05
1.23629e-05
1.18132e-05
1.12836e-05
1.07741e-05
1.02847e-05
9.81524e-06
9.36539e-06
8.93485e-06
8.52323e-06
8.13006e-06
7.75484e-06
7.39702e-06
7.05607e-06
6.73141e-06
6.42251e-06
6.12881e-06
5.8498e-06
5.58493e-06
5.33373e-06
5.09574e-06
4.87059e-06
4.65787e-06
4.45707e-06
4.26767e-06
4.08917e-06
3.92128e-06
3.76377e-06
3.61626e-06
3.47798e-06
3.34779e-06
3.22479e-06
3.10838e-06
2.999e-06
2.897e-06
2.80095e-06
2.71029e-06
2.62405e-06
2.54138e-06
2.46183e-06
2.38517e-06
2.3112e-06
2.24199e-06
2.17734e-06
2.11736e-06
2.06169e-06
2.00954e-06
1.94116e-06
1.78397e-06
1.47623e-06
1.09498e-06
1.08396e-06
3.27202e-05
3.27553e-05
3.28952e-05
3.3109e-05
3.33788e-05
3.3688e-05
3.40199e-05
3.43511e-05
3.46484e-05
3.48774e-05
3.50161e-05
3.50571e-05
3.50027e-05
3.48581e-05
3.46277e-05
3.43154e-05
3.39245e-05
3.34597e-05
3.2927e-05
3.23335e-05
3.16863e-05
3.09909e-05
3.02513e-05
2.94716e-05
2.86575e-05
2.78151e-05
2.6951e-05
2.60717e-05
2.51832e-05
2.42902e-05
2.33969e-05
2.25071e-05
2.16247e-05
2.07531e-05
1.98954e-05
1.90544e-05
1.82325e-05
1.74313e-05
1.66523e-05
1.58966e-05
1.51651e-05
1.44585e-05
1.37772e-05
1.31216e-05
1.24916e-05
1.18872e-05
1.13083e-05
1.07545e-05
1.02254e-05
9.72041e-06
9.23895e-06
8.78036e-06
8.34395e-06
7.92899e-06
7.53474e-06
7.16048e-06
6.80545e-06
6.46896e-06
6.15036e-06
5.84907e-06
5.56454e-06
5.29612e-06
5.04317e-06
4.8051e-06
4.58153e-06
4.37208e-06
4.17624e-06
3.99315e-06
3.82161e-06
3.66065e-06
3.5095e-06
3.36827e-06
3.23696e-06
3.11403e-06
2.99783e-06
2.88774e-06
2.78332e-06
2.68433e-06
2.59058e-06
2.50127e-06
2.41764e-06
2.33821e-06
2.26269e-06
2.19096e-06
2.12433e-06
2.05017e-06
1.91194e-06
1.64336e-06
1.25803e-06
1.09959e-06
3.69606e-05
3.67867e-05
3.67811e-05
3.69083e-05
3.71519e-05
3.74979e-05
3.79309e-05
3.84193e-05
3.89103e-05
3.93442e-05
3.96813e-05
3.99073e-05
4.00253e-05
4.004e-05
3.99548e-05
3.97725e-05
3.9493e-05
3.91171e-05
3.86494e-05
3.80974e-05
3.74697e-05
3.67729e-05
3.60113e-05
3.51888e-05
3.4311e-05
3.33848e-05
3.24183e-05
3.14197e-05
3.03971e-05
2.93572e-05
2.83064e-05
2.72501e-05
2.61934e-05
2.51415e-05
2.40994e-05
2.30714e-05
2.20615e-05
2.10728e-05
2.01077e-05
1.91685e-05
1.8257e-05
1.73745e-05
1.65222e-05
1.57008e-05
1.49108e-05
1.41525e-05
1.3426e-05
1.27312e-05
1.20675e-05
1.14347e-05
1.08321e-05
1.02589e-05
9.7144e-06
9.19759e-06
8.70758e-06
8.24337e-06
7.80395e-06
7.38832e-06
6.99553e-06
6.62469e-06
6.27494e-06
5.94542e-06
5.63528e-06
5.34377e-06
5.07032e-06
4.8144e-06
4.57537e-06
4.35233e-06
4.14411e-06
3.94971e-06
3.7683e-06
3.59961e-06
3.44328e-06
3.29782e-06
3.16063e-06
3.03141e-06
2.91007e-06
2.79648e-06
2.69042e-06
2.59059e-06
2.49737e-06
2.40837e-06
2.32315e-06
2.24208e-06