/*--------------------------------*- C++ -*----------------------------------*\
| =========                 |                                                 |
| \\      /  F ield         | OpenFOAM: The Open Source CFD Toolbox           |
|  \\    /   O peration     | Version:  2412                                  |
|   \\  /    A nd           | Website:  www.openfoam.com                      |
|    \\/     M anipulation  |                                                 |
\*---------------------------------------------------------------------------*/
FoamFile
{
    version     2.0;
    format      ascii;
    arch        "LSB;label=32;scalar=64";
    class       surfaceScalarField;
    location    "200";
    object      phi;
}
// * * * * * * * * * * * * * * * * * * * * * * * * * * * * * * * * * * * * * //

dimensions      [0 3 -1 0 0 0 0];

oriented        oriented;

internalField   nonuniform List<scalar> 
17210
(
3.32991e-06
1.12966e-09
3.32892e-06
1.12483e-09
3.32846e-06
5.5478e-10
3.32822e-06
1.10691e-11
3.32777e-06
6.27219e-10
3.32741e-06
3.5537e-10
3.32696e-06
4.44461e-10
3.32626e-06
6.87151e-10
3.32563e-06
6.22152e-10
3.32509e-06
5.33191e-10
3.32454e-06
5.3665e-10
3.32392e-06
6.16507e-10
3.32331e-06
5.93674e-10
3.32278e-06
5.27784e-10
3.32216e-06
6.1121e-10
3.32172e-06
4.16946e-10
3.32101e-06
7.04453e-10
3.32061e-06
4.18598e-10
3.32011e-06
4.33915e-10
3.3195e-06
6.14041e-10
3.31893e-06
5.17647e-10
3.31843e-06
4.92103e-10
3.3178e-06
5.93015e-10
3.31731e-06
4.72157e-10
3.31686e-06
4.29138e-10
3.31634e-06
4.96875e-10
3.31583e-06
4.94543e-10
3.31545e-06
3.70506e-10
3.31498e-06
4.67259e-10
3.31452e-06
4.51894e-10
3.31418e-06
3.32629e-10
3.31381e-06
3.56637e-10
3.31335e-06
4.50822e-10
3.3131e-06
2.34528e-10
3.31265e-06
4.43882e-10
3.31218e-06
4.62389e-10
3.3119e-06
2.78303e-10
3.31152e-06
3.6585e-10
3.31124e-06
2.77836e-10
3.31097e-06
2.57765e-10
3.31066e-06
3.03018e-10
3.31039e-06
2.58258e-10
3.31003e-06
3.52488e-10
3.30977e-06
2.59016e-10
3.30966e-06
1.0649e-10
3.30948e-06
1.6886e-10
3.30938e-06
1.00927e-10
3.30916e-06
2.15986e-10
3.30906e-06
8.95354e-11
3.30878e-06
2.7218e-10
3.30869e-06
8.6341e-11
3.30865e-06
3.46145e-11
3.30864e-06
3.20228e-12
3.30869e-06
-5.20767e-11
3.30881e-06
-1.28707e-10
3.30909e-06
-2.76645e-10
3.30926e-06
-1.82007e-10
3.3096e-06
-3.39334e-10
3.31004e-06
-4.44855e-10
3.31083e-06
-7.95018e-10
3.31149e-06
-6.55062e-10
3.31241e-06
-9.29092e-10
3.31362e-06
-1.21181e-09
3.31534e-06
-1.72183e-09
3.31742e-06
-2.08807e-09
3.31963e-06
-2.21089e-09
3.32213e-06
-2.50136e-09
3.32453e-06
-2.39816e-09
3.32794e-06
-3.41233e-09
3.33362e-06
-5.68558e-09
3.34218e-06
-8.56294e-09
3.35148e-06
-9.29684e-09
3.35878e-06
-7.30757e-09
3.36196e-06
-3.18285e-09
3.36325e-06
-1.28841e-09
3.37123e-06
-7.98493e-09
3.39373e-06
-2.25028e-08
3.43719e-06
-4.34637e-08
3.49994e-06
-6.27468e-08
3.56005e-06
-6.01205e-08
3.59822e-06
-3.81673e-08
-1.04719e-08
1.16824e-05
4.69389e-09
1.16784e-05
5.30173e-09
1.16769e-05
2.12218e-09
1.16763e-05
3.97114e-10
1.16753e-05
1.85453e-09
1.16735e-05
2.09397e-09
1.16719e-05
2.08725e-09
1.167e-05
2.51474e-09
1.16678e-05
2.83195e-09
1.16657e-05
2.57857e-09
1.16635e-05
2.74859e-09
1.16615e-05
2.58419e-09
1.16594e-05
2.67512e-09
1.16574e-05
2.56579e-09
1.16555e-05
2.53373e-09
1.16538e-05
2.06742e-09
1.16519e-05
2.58914e-09
1.16499e-05
2.37608e-09
1.16477e-05
2.53123e-09
1.16463e-05
2.06056e-09
1.16444e-05
2.37441e-09
1.16425e-05
2.38501e-09
1.16408e-05
2.19391e-09
1.16388e-05
2.42403e-09
1.16375e-05
1.73278e-09
1.16356e-05
2.38925e-09
1.16341e-05
1.96666e-09
1.16325e-05
1.92545e-09
1.16308e-05
2.14436e-09
1.16295e-05
1.7703e-09
1.16278e-05
2.02438e-09
1.16266e-05
1.53959e-09
1.1625e-05
1.99332e-09
1.16235e-05
1.80349e-09
1.16224e-05
1.4831e-09
1.16212e-05
1.62935e-09
1.16197e-05
1.77511e-09
1.16188e-05
1.22347e-09
1.16176e-05
1.49123e-09
1.16169e-05
9.43398e-10
1.16157e-05
1.49252e-09
1.16148e-05
1.12987e-09
1.16136e-05
1.53907e-09
1.16133e-05
6.05145e-10
1.16124e-05
1.00819e-09
1.16118e-05
7.51091e-10
1.16111e-05
8.26978e-10
1.16106e-05
6.52642e-10
1.16103e-05
4.35707e-10
1.16104e-05
9.78189e-11
1.16103e-05
2.08271e-10
1.16101e-05
2.16579e-10
1.16103e-05
-2.3916e-10
1.16109e-05
-5.94961e-10
1.16116e-05
-8.67303e-10
1.16122e-05
-8.84994e-10
1.16135e-05
-1.49553e-09
1.16155e-05
-2.31629e-09
1.16177e-05
-2.68008e-09
1.16204e-05
-3.51431e-09
1.16239e-05
-4.11179e-09
1.16277e-05
-4.72064e-09
1.16327e-05
-6.22598e-09
1.16393e-05
-8.29731e-09
1.16471e-05
-9.98403e-09
1.16564e-05
-1.15098e-08
1.16656e-05
-1.16125e-08
1.16752e-05
-1.20647e-08
1.16885e-05
-1.66952e-08
1.17093e-05
-2.65297e-08
1.17394e-05
-3.85813e-08
1.17723e-05
-4.22367e-08
1.17996e-05
-3.46371e-08
1.18142e-05
-1.77822e-08
1.18218e-05
-8.88868e-09
1.18506e-05
-3.68308e-08
1.19273e-05
-9.92031e-08
1.20736e-05
-1.89746e-07
1.22851e-05
-2.74245e-07
1.2492e-05
-2.66977e-07
1.26304e-05
-1.76604e-07
-5.87208e-08
2.30621e-05
1.20879e-08
2.30552e-05
1.24634e-08
2.30522e-05
5.2271e-09
2.30508e-05
1.49645e-09
2.30484e-05
4.43041e-09
2.30455e-05
4.98872e-09
2.30425e-05
5.08593e-09
2.30389e-05
6.10334e-09
2.30351e-05
6.68314e-09
2.30309e-05
6.74464e-09
2.30272e-05
6.39047e-09
2.30232e-05
6.63863e-09
2.30193e-05
6.51451e-09
2.30155e-05
6.31511e-09
2.30111e-05
6.92009e-09
2.30075e-05
5.63232e-09
2.30041e-05
5.9687e-09
2.3e-05
6.5681e-09
2.29969e-05
5.55469e-09
2.29932e-05
5.74465e-09
2.29894e-05
6.04915e-09
2.29858e-05
5.97364e-09
2.29823e-05
5.64099e-09
2.29792e-05
5.56249e-09
2.29754e-05
5.46335e-09
2.29725e-05
5.29201e-09
2.2969e-05
5.41693e-09
2.29656e-05
5.33438e-09
2.29627e-05
5.03715e-09
2.296e-05
4.44417e-09
2.29565e-05
5.44266e-09
2.29537e-05
4.33547e-09
2.29512e-05
4.49184e-09
2.29487e-05
4.25427e-09
2.29456e-05
4.57092e-09
2.29434e-05
3.81061e-09
2.29407e-05
4.48234e-09
2.2938e-05
3.96682e-09
2.29363e-05
3.16717e-09
2.29341e-05
3.08288e-09
2.29323e-05
3.35345e-09
2.293e-05
3.41666e-09
2.29285e-05
3.03657e-09
2.29267e-05
2.34238e-09
2.29254e-05
2.32629e-09
2.29246e-05
1.54556e-09
2.29235e-05
1.91503e-09
2.29226e-05
1.54869e-09
2.29217e-05
1.29921e-09
2.29211e-05
6.54315e-10
2.29211e-05
2.36744e-10
2.29215e-05
-1.74267e-10
2.2922e-05
-7.16374e-10
2.29235e-05
-2.19562e-09
2.29251e-05
-2.38821e-09
2.29274e-05
-3.25633e-09
2.29302e-05
-4.30911e-09
2.29339e-05
-5.99136e-09
2.29392e-05
-7.95897e-09
2.29451e-05
-9.4503e-09
2.29522e-05
-1.12423e-08
2.29604e-05
-1.29092e-08
2.29709e-05
-1.67518e-08
2.29844e-05
-2.17773e-08
2.30015e-05
-2.70535e-08
2.30203e-05
-3.03427e-08
2.30394e-05
-3.07072e-08
2.30608e-05
-3.34169e-08
2.30881e-05
-4.40923e-08
2.31299e-05
-6.8312e-08
2.31888e-05
-9.74862e-08
2.32549e-05
-1.08306e-07
2.33112e-05
-9.09976e-08
2.3344e-05
-5.05374e-08
2.33628e-05
-2.76946e-08
2.34214e-05
-9.54799e-08
2.35675e-05
-2.45256e-07
2.38435e-05
-4.6574e-07
2.42434e-05
-6.74181e-07
2.46437e-05
-6.67285e-07
2.49237e-05
-4.56567e-07
-1.73278e-07
3.81092e-05
2.25771e-08
3.80977e-05
2.40934e-08
3.80923e-05
1.0786e-08
3.80904e-05
3.14165e-09
3.80874e-05
7.64227e-09
3.80833e-05
9.00521e-09
3.8078e-05
1.03766e-08
3.80728e-05
1.13005e-08
3.80668e-05
1.2694e-08
3.80608e-05
1.27181e-08
3.80544e-05
1.27621e-08
3.80481e-05
1.28962e-08
3.80415e-05
1.31083e-08
3.80347e-05
1.30898e-08
3.80295e-05
1.21001e-08
3.8023e-05
1.20928e-08
3.80168e-05
1.21832e-08
3.80115e-05
1.19084e-08
3.80055e-05
1.14829e-08
3.79996e-05
1.15875e-08
3.79933e-05
1.22339e-08
3.79875e-05
1.17799e-08
3.79819e-05
1.11814e-08
3.79766e-05
1.08473e-08
3.79708e-05
1.11842e-08
3.79651e-05
1.09707e-08
3.79598e-05
1.07215e-08
3.7954e-05
1.11642e-08
3.79494e-05
9.56373e-09
3.79435e-05
1.03406e-08
3.79388e-05
1.01503e-08
3.79341e-05
8.99722e-09
3.79288e-05
9.76929e-09
3.79237e-05
9.32789e-09
3.79196e-05
8.6543e-09
3.79151e-05
8.3352e-09
3.7911e-05
8.52885e-09
3.79075e-05
7.41515e-09
3.79036e-05
7.06142e-09
3.79e-05
6.74327e-09
3.78964e-05
6.88943e-09
3.7893e-05
6.83453e-09
3.78902e-05
5.82767e-09
3.78871e-05
5.36488e-09
3.78854e-05
4.04801e-09
3.7883e-05
3.97556e-09
3.78808e-05
4.06381e-09
3.78795e-05
2.86643e-09
3.78787e-05
2.05502e-09
3.7878e-05
1.38939e-09
3.78784e-05
-1.76092e-10
3.78784e-05
-2.21893e-10
3.78805e-05
-2.76883e-09
3.78817e-05
-3.46275e-09
3.78846e-05
-5.3223e-09
3.78887e-05
-7.32777e-09
3.78941e-05
-9.74467e-09
3.79012e-05
-1.30432e-08
3.79095e-05
-1.63002e-08
3.79203e-05
-2.02493e-08
3.79327e-05
-2.36656e-08
3.79483e-05
-2.85227e-08
3.79663e-05
-3.47526e-08
3.79892e-05
-4.46629e-08
3.80172e-05
-5.50812e-08
3.80501e-05
-6.3184e-08
3.80841e-05
-6.47272e-08
3.812e-05
-6.93641e-08
3.81667e-05
-9.07175e-08
3.8236e-05
-1.3767e-07
3.83322e-05
-1.93715e-07
3.84419e-05
-2.1795e-07
3.85366e-05
-1.85753e-07
3.85963e-05
-1.10237e-07
3.86361e-05
-6.75113e-08
3.87312e-05
-1.90527e-07
3.89629e-05
-4.76972e-07
3.93956e-05
-8.98469e-07
4.00253e-05
-1.30386e-06
4.06674e-05
-1.30944e-06
4.11368e-05
-9.25973e-07
-3.8977e-07
5.75164e-05
3.74358e-08
5.74994e-05
4.12021e-08
5.74929e-05
1.73825e-08
5.74901e-05
5.69233e-09
5.74863e-05
1.16347e-08
5.74801e-05
1.51669e-08
5.74748e-05
1.56667e-08
5.74667e-05
1.94277e-08
5.74582e-05
2.11067e-08
5.74499e-05
2.10617e-08
5.74415e-05
2.11269e-08
5.74314e-05
2.30071e-08
5.74216e-05
2.28053e-08
5.74137e-05
2.10309e-08
5.74046e-05
2.11508e-08
5.73956e-05
2.1048e-08
5.73864e-05
2.14285e-08
5.73782e-05
2.01165e-08
5.73697e-05
1.98304e-08
5.73603e-05
2.09785e-08
5.73518e-05
2.06831e-08
5.73435e-05
2.00425e-08
5.73349e-05
1.9713e-08
5.73261e-05
1.96472e-08
5.73179e-05
1.93736e-08
5.73097e-05
1.9075e-08
5.73003e-05
2.0091e-08
5.72934e-05
1.80217e-08
5.72843e-05
1.86938e-08
5.72772e-05
1.73963e-08
5.72699e-05
1.74384e-08
5.72615e-05
1.74356e-08
5.72545e-05
1.67598e-08
5.7248e-05
1.57889e-08
5.72404e-05
1.61944e-08
5.72329e-05
1.58302e-08
5.72267e-05
1.47065e-08
5.72203e-05
1.37729e-08
5.72143e-05
1.30574e-08
5.72094e-05
1.16634e-08
5.72032e-05
1.30955e-08
5.71986e-05
1.14427e-08
5.71929e-05
1.14676e-08
5.71888e-05
9.46232e-09
5.71841e-05
8.71173e-09
5.71805e-05
7.63725e-09
5.71773e-05
7.19037e-09
5.71753e-05
4.90567e-09
5.71736e-05
3.70112e-09
5.71723e-05
2.72719e-09
5.71716e-05
4.37714e-10
5.71729e-05
-1.52846e-09
5.7174e-05
-3.87928e-09
5.71779e-05
-7.28637e-09
5.71833e-05
-1.07587e-08
5.7189e-05
-1.3036e-08
5.71973e-05
-1.80336e-08
5.72075e-05
-2.33105e-08
5.72214e-05
-3.01881e-08
5.72372e-05
-3.60502e-08
5.72578e-05
-4.42745e-08
5.72797e-05
-5.04548e-08
5.73086e-05
-6.35961e-08
5.73442e-05
-8.03342e-08
5.73888e-05
-9.9666e-08
5.74389e-05
-1.13271e-07
5.74907e-05
-1.16582e-07
5.75471e-05
-1.25733e-07
5.76189e-05
-1.62475e-07
5.77213e-05
-2.4008e-07
5.78661e-05
-3.38501e-07
5.80294e-05
-3.81298e-07
5.81756e-05
-3.31984e-07
5.82753e-05
-2.09965e-07
5.83421e-05
-1.34239e-07
5.84861e-05
-3.34527e-07
5.88162e-05
-8.07071e-07
5.94299e-05
-1.51219e-06
6.03254e-05
-2.1994e-06
6.12612e-05
-2.24524e-06
6.19722e-05
-1.63697e-06
-7.57721e-07
8.20151e-05
5.49993e-08
8.19934e-05
6.31673e-08
8.19822e-05
2.8809e-08
8.198e-05
7.61432e-09
8.19755e-05
1.63281e-08
8.19701e-05
2.05008e-08
8.19612e-05
2.4555e-08
8.19526e-05
2.80103e-08
8.19423e-05
3.13969e-08
8.19314e-05
3.19595e-08
8.19183e-05
3.41996e-08
8.19068e-05
3.44375e-08
8.18953e-05
3.43628e-08
8.18833e-05
3.29428e-08
8.18707e-05
3.37435e-08
8.1859e-05
3.27348e-08
8.18477e-05
3.27002e-08
8.1835e-05
3.27871e-08
8.18243e-05
3.04647e-08
8.18113e-05
3.39667e-08
8.17997e-05
3.21988e-08
8.17863e-05
3.3346e-08
8.17749e-05
3.11124e-08
8.17627e-05
3.18159e-08
8.17515e-05
3.05162e-08
8.17391e-05
3.14262e-08
8.17277e-05
3.14654e-08
8.17159e-05
2.97429e-08
8.17044e-05
3.02057e-08
8.16927e-05
2.91155e-08
8.1681e-05
2.90888e-08
8.16706e-05
2.77706e-08
8.16602e-05
2.72268e-08
8.16488e-05
2.70783e-08
8.16389e-05
2.60965e-08
8.16295e-05
2.52626e-08
8.16189e-05
2.52392e-08
8.16095e-05
2.3211e-08
8.16001e-05
2.24554e-08
8.15904e-05
2.12951e-08
8.1583e-05
2.05107e-08
8.15749e-05
1.94473e-08
8.15673e-05
1.90858e-08
8.156e-05
1.6743e-08
8.15544e-05
1.43744e-08
8.15478e-05
1.41346e-08
8.15441e-05
1.09225e-08
8.15393e-05
9.71393e-09
8.15361e-05
6.90424e-09
8.15346e-05
4.18688e-09
8.15337e-05
1.2744e-09
8.15343e-05
-2.09289e-09
8.15361e-05
-5.7148e-09
8.15407e-05
-1.19111e-08
8.15466e-05
-1.66186e-08
8.1556e-05
-2.24202e-08
8.15668e-05
-2.88712e-08
8.15829e-05
-3.93879e-08
8.16014e-05
-4.87885e-08
8.16264e-05
-6.10431e-08
8.16545e-05
-7.23618e-08
8.16883e-05
-8.42915e-08
8.17288e-05
-1.04071e-07
8.17803e-05
-1.31796e-07
8.18431e-05
-1.62474e-07
8.19149e-05
-1.8515e-07
8.19921e-05
-1.93733e-07
8.20725e-05
-2.06109e-07
8.21748e-05
-2.64777e-07
8.2321e-05
-3.86359e-07
8.25192e-05
-5.36626e-07
8.2749e-05
-6.11152e-07
8.29606e-05
-5.43584e-07
8.31112e-05
-3.60526e-07
8.32203e-05
-2.43391e-07
8.34203e-05
-5.34531e-07
8.38624e-05
-1.24917e-06
8.46742e-05
-2.32403e-06
8.58671e-05
-3.39231e-06
8.71402e-05
-3.51828e-06
8.81478e-05
-2.64461e-06
-1.33027e-06
0.000112351
7.57281e-08
0.000112324
9.05947e-08
0.000112312
4.12128e-08
0.000112308
1.0708e-08
0.000112303
2.11683e-08
0.000112297
2.68101e-08
0.00011229
3.20864e-08
0.00011228
3.76033e-08
0.000112268
4.33106e-08
0.000112255
4.45568e-08
0.000112242
4.80416e-08
0.000112228
4.83534e-08
0.000112213
4.92224e-08
0.000112195
5.03038e-08
0.00011218
4.87075e-08
0.000112166
4.73888e-08
0.000112149
4.88914e-08
0.000112135
4.67587e-08
0.000112119
4.68214e-08
0.000112105
4.77447e-08
0.000112088
4.94573e-08
0.000112073
4.84882e-08
0.000112056
4.75811e-08
0.000112042
4.61736e-08
0.000112024
4.80623e-08
0.000112008
4.75447e-08
0.000111992
4.79272e-08
0.000111976
4.56578e-08
0.00011196
4.53565e-08
0.000111944
4.50157e-08
0.000111931
4.2706e-08
0.000111914
4.47868e-08
0.000111899
4.18539e-08
0.000111883
4.30442e-08
0.000111869
4.05597e-08
0.000111854
3.97804e-08
0.000111841
3.85276e-08
0.000111827
3.7466e-08
0.000111813
3.63883e-08
0.0001118
3.39783e-08
0.000111789
3.1911e-08
0.000111776
3.20015e-08
0.000111765
2.9898e-08
0.000111755
2.71959e-08
0.000111744
2.48696e-08
0.000111737
2.12189e-08
0.000111728
2.00727e-08
0.000111721
1.6106e-08
0.000111717
1.18085e-08
0.000111713
7.46269e-09
0.000111711
3.40434e-09
0.000111711
-1.84281e-09
0.000111715
-9.37106e-09
0.000111719
-1.60721e-08
0.000111727
-2.53545e-08
0.000111737
-3.25135e-08
0.000111754
-4.50695e-08
0.000111772
-5.788e-08
0.0001118
-7.63394e-08
0.000111831
-9.26074e-08
0.00011187
-1.11009e-07
0.000111917
-1.31197e-07
0.000111972
-1.58993e-07
0.000112042
-2.02525e-07
0.000112126
-2.46369e-07
0.000112225
-2.83957e-07
0.000112329
-2.97544e-07
0.000112444
-3.20854e-07
0.000112583
-4.04129e-07
0.000112775
-5.78772e-07
0.000113041
-8.01841e-07
0.000113348
-9.19002e-07
0.000113636
-8.3124e-07
0.000113854
-5.78871e-07
0.000114018
-4.06833e-07
0.000114287
-8.03635e-07
0.000114849
-1.81106e-06
0.00011587
-3.34502e-06
0.000117378
-4.90003e-06
0.00011902
-5.16071e-06
0.000120378
-4.00286e-06
-2.1635e-06
0.000149271
9.52063e-08
0.00014924
1.22335e-07
0.000149226
5.49358e-08
0.000149224
1.26988e-08
0.000149221
2.39751e-08
0.000149217
3.111e-08
0.000149212
3.73532e-08
0.000149202
4.74303e-08
0.000149188
5.68486e-08
0.000149175
5.78016e-08
0.00014916
6.29382e-08
0.000149142
6.6202e-08
0.000149125
6.68801e-08
0.000149108
6.72661e-08
0.000149092
6.45187e-08
0.000149072
6.76234e-08
0.000149053
6.72876e-08
0.000149035
6.53177e-08
0.000149016
6.53383e-08
0.000148995
6.87049e-08
0.000148975
6.89123e-08
0.000148956
6.78837e-08
0.000148936
6.74888e-08
0.000148916
6.65672e-08
0.000148896
6.75248e-08
0.000148875
6.8708e-08
0.000148854
6.87264e-08
0.000148832
6.72813e-08
0.000148811
6.63591e-08
0.000148791
6.53978e-08
0.000148769
6.45814e-08
0.00014875
6.40619e-08
0.000148727
6.41915e-08
0.000148708
6.24222e-08
0.000148687
6.10888e-08
0.000148668
5.87942e-08
0.000148649
5.78625e-08
0.000148631
5.56771e-08
0.000148611
5.57009e-08
0.000148595
5.08461e-08
0.000148577
4.95204e-08
0.000148559
4.99545e-08
0.000148543
4.57079e-08
0.000148526
4.40914e-08
0.000148515
3.65026e-08
0.0001485
3.62825e-08
0.000148489
3.08312e-08
0.000148479
2.62145e-08
0.000148469
2.11298e-08
0.000148464
1.29467e-08
0.00014846
7.3895e-09
0.000148457
4.92821e-10
0.000148458
-1.01033e-08
0.000148463
-2.10894e-08
0.000148471
-3.36429e-08
0.000148487
-4.80082e-08
0.000148506
-6.36577e-08
0.000148532
-8.45318e-08
0.000148564
-1.08205e-07
0.000148605
-1.33812e-07
0.000148653
-1.59171e-07
0.000148713
-1.90983e-07
0.000148787
-2.33028e-07
0.000148876
-2.91231e-07
0.000148989
-3.59442e-07
0.000149116
-4.11383e-07
0.000149256
-4.37076e-07
0.000149404
-4.69219e-07
0.000149587
-5.86536e-07
0.000149836
-8.27675e-07
0.000150172
-1.13803e-06
0.000150563
-1.31074e-06
0.000150944
-1.21207e-06
0.000151246
-8.8027e-07
0.000151479
-6.4028e-07
0.000151829
-1.15394e-06
0.000152516
-2.49738e-06
0.000153747
-4.57636e-06
0.000155568
-6.72091e-06
0.000157598
-7.19084e-06
0.000159342
-5.74666e-06
-3.31675e-06
0.000193519
1.11683e-07
0.000193486
1.55038e-07
0.000193471
7.04178e-08
0.000193472
1.19981e-08
0.000193472
2.3155e-08
0.000193474
3.00208e-08
0.000193469
4.17359e-08
0.000193463
5.33784e-08
0.000193454
6.61326e-08
0.00019344
7.15462e-08
0.000193424
7.90338e-08
0.00019341
8.01908e-08
0.00019339
8.63456e-08
0.000193371
8.67848e-08
0.000193349
8.62134e-08
0.000193331
8.57968e-08
0.00019331
8.86203e-08
0.000193286
8.9001e-08
0.000193265
8.60188e-08
0.000193242
9.21746e-08
0.00019322
9.0165e-08
0.000193196
9.21323e-08
0.000193171
9.25168e-08
0.000193144
9.30059e-08
0.000193118
9.34355e-08
0.000193094
9.319e-08
0.000193067
9.57239e-08
0.000193041
9.32838e-08
0.000193014
9.28777e-08
0.000192988
9.13485e-08
0.00019296
9.29531e-08
0.000192934
9.03914e-08
0.000192908
9.01856e-08
0.000192882
8.83965e-08
0.000192856
8.632e-08
0.000192827
8.82515e-08
0.000192802
8.29423e-08
0.000192775
8.1997e-08
0.000192752
7.86718e-08
0.000192727
7.60333e-08
0.000192703
7.38012e-08
0.000192681
7.21566e-08
0.000192656
7.0109e-08
0.000192635
6.55557e-08
0.000192613
5.8675e-08
0.000192595
5.38772e-08
0.000192577
4.93055e-08
0.000192563
3.95966e-08
0.000192549
3.50624e-08
0.000192538
2.43867e-08
0.000192527
1.7968e-08
0.000192524
3.13769e-09
0.000192524
-9.19481e-09
0.000192528
-2.52456e-08
0.000192536
-4.20062e-08
0.00019255
-6.23325e-08
0.000192572
-8.48683e-08
0.000192602
-1.14847e-07
0.000192639
-1.45107e-07
0.000192691
-1.85908e-07
0.000192755
-2.22962e-07
0.000192827
-2.63723e-07
0.000192915
-3.20987e-07
0.00019303
-4.0591e-07
0.000193169
-4.98022e-07
0.00019333
-5.72515e-07
0.000193504
-6.1184e-07
0.000193695
-6.60163e-07
0.000193924
-8.15438e-07
0.000194232
-1.13558e-06
0.000194643
-1.5489e-06
0.000195129
-1.79697e-06
0.00019561
-1.69296e-06
0.000196007
-1.27676e-06
0.000196326
-9.60051e-07
0.000196767
-1.59432e-06
0.000197583
-3.31316e-06
0.000199016
-6.00965e-06
0.000201143
-8.84817e-06
0.000203556
-9.60344e-06
0.000205699
-7.89e-06
-4.8302e-06
0.000245834
1.14482e-07
0.000245806
1.83437e-07
0.000245795
8.13842e-08
0.000245798
9.1145e-09
0.000245807
1.38271e-08
0.000245812
2.49426e-08
0.000245819
3.44318e-08
0.000245818
5.49192e-08
0.000245813
7.13841e-08
0.000245805
7.96257e-08
0.000245795
8.82926e-08
0.000245778
9.7851e-08
0.00024576
1.04307e-07
0.00024574
1.05981e-07
0.000245719
1.07062e-07
0.000245699
1.0575e-07
0.000245679
1.0922e-07
0.000245656
1.11985e-07
0.000245631
1.10342e-07
0.000245605
1.18488e-07
0.000245576
1.19359e-07
0.000245547
1.21109e-07
0.000245519
1.20096e-07
0.000245492
1.20084e-07
0.000245462
1.23286e-07
0.000245429
1.25692e-07
0.000245399
1.26496e-07
0.000245367
1.2523e-07
0.000245336
1.23713e-07
0.000245302
1.24804e-07
0.00024527
1.25641e-07
0.000245235
1.24587e-07
0.000245201
1.24549e-07
0.000245166
1.23308e-07
0.000245131
1.21739e-07
0.0002451
1.18935e-07
0.000245064
1.18947e-07
0.00024503
1.15265e-07
0.000244996
1.12715e-07
0.000244964
1.08702e-07
0.000244932
1.05676e-07
0.000244899
1.05263e-07
0.000244868
1.00361e-07
0.000244839
9.52459e-08
0.000244811
8.65394e-08
0.000244783
8.19485e-08
0.000244757
7.47683e-08
0.000244732
6.50459e-08
0.000244713
5.34116e-08
0.000244694
4.39219e-08
0.000244681
3.09552e-08
0.00024467
1.41304e-08
0.000244663
-2.27608e-09
0.000244662
-2.46519e-08
0.000244671
-5.10925e-08
0.000244683
-7.37289e-08
0.000244706
-1.08015e-07
0.000244736
-1.45227e-07
0.000244783
-1.91663e-07
0.000244839
-2.42292e-07
0.000244909
-2.92688e-07
0.000244997
-3.52243e-07
0.000245106
-4.29318e-07
0.00024524
-5.40089e-07
0.000245406
-6.63995e-07
0.000245601
-7.67266e-07
0.000245814
-8.25127e-07
0.000246048
-8.94039e-07
0.000246328
-1.09518e-06
0.000246695
-1.50273e-06
0.000247185
-2.03876e-06
0.000247767
-2.3795e-06
0.000248354
-2.27987e-06
0.000248855
-1.7781e-06
0.000249273
-1.37806e-06
0.000249812
-2.13327e-06
0.000250758
-4.25915e-06
0.000252378
-7.62951e-06
0.000254781
-1.12514e-05
0.000257549
-1.23708e-05
0.000260091
-1.04318e-05
0.000261974
-6.71331e-06
-1.24464e-06
0.000306976
9.94414e-08
0.000306959
2.00558e-07
0.000306956
8.48063e-08
0.000306969
-3.76647e-09
0.000306987
-4.89885e-09
0.000307005
7.25176e-09
0.000307023
1.61127e-08
0.000307036
4.20501e-08
0.00030704
6.71175e-08
0.000307039
8.06127e-08
0.000307034
9.32085e-08
0.000307027
1.052e-07
0.000307015
1.16612e-07
0.000307001
1.19621e-07
0.000306986
1.22378e-07
0.000306964
1.26832e-07
0.000306941
1.32215e-07
0.000306919
1.34392e-07
0.000306892
1.36986e-07
0.000306868
1.42802e-07
0.000306839
1.48595e-07
0.000306811
1.48752e-07
0.000306778
1.53167e-07
0.000306744
1.54221e-07
0.000306711
1.56147e-07
0.000306675
1.61185e-07
0.00030664
1.61652e-07
0.0003066
1.64649e-07
0.00030656
1.64477e-07
0.000306521
1.63068e-07
0.000306483
1.6374e-07
0.000306441
1.67179e-07
0.000306398
1.66955e-07
0.000306356
1.65831e-07
0.000306313
1.63826e-07
0.000306269
1.63361e-07
0.000306226
1.61941e-07
0.000306183
1.58635e-07
0.000306142
1.53706e-07
0.000306095
1.54805e-07
0.000306051
1.49811e-07
0.00030601
1.46595e-07
0.000305968
1.41878e-07
0.000305927
1.36428e-07
0.000305885
1.28576e-07
0.000305846
1.21337e-07
0.000305812
1.08919e-07
0.000305775
1.01286e-07
0.000305744
8.51994e-08
0.000305716
7.17972e-08
0.000305691
5.51499e-08
0.000305671
3.43721e-08
0.000305659
9.87922e-09
0.000305653
-1.82486e-08
0.000305647
-4.54693e-08
0.000305658
-8.44133e-08
0.000305677
-1.2749e-07
0.00030571
-1.77649e-07
0.000305753
-2.34834e-07
0.000305812
-3.01975e-07
0.000305893
-3.73736e-07
0.000305989
-4.48324e-07
0.000306112
-5.51406e-07
0.000306263
-6.91462e-07
0.000306455
-8.55717e-07
0.00030668
-9.92607e-07
0.00030693
-1.07554e-06
0.000307204
-1.16761e-06
0.00030753
-1.4216e-06
0.000307958
-1.93031e-06
0.000308522
-2.60269e-06
0.000309193
-3.05109e-06
0.000309886
-2.97195e-06
0.000310498
-2.39012e-06
0.000311019
-1.89964e-06
0.000311666
-2.78042e-06
0.000312733
-5.32609e-06
0.000314522
-9.41872e-06
0.000317166
-1.38948e-05
0.000320243
-1.54478e-05
0.000323141
-1.33305e-05
0.000325389
-8.96057e-06
-2.41849e-06
0.00037774
5.54315e-08
0.000377744
1.95054e-07
0.000377755
7.45393e-08
0.000377788
-3.66752e-08
0.000377819
-3.65763e-08
0.000377857
-3.0039e-08
0.000377892
-1.93192e-08
0.000377923
1.12029e-08
0.000377945
4.49616e-08
0.000377959
6.64545e-08
0.000377968
8.40435e-08
0.00037797
1.03437e-07
0.000377973
1.13768e-07
0.000377965
1.27211e-07
0.000377953
1.34835e-07
0.000377939
1.40273e-07
0.000377924
1.47597e-07
0.000377906
1.52374e-07
0.000377886
1.56476e-07
0.00037786
1.68269e-07
0.000377831
1.77925e-07
0.0003778
1.80063e-07
0.000377769
1.83425e-07
0.000377733
1.90796e-07
0.000377693
1.95595e-07
0.000377655
1.99682e-07
0.000377611
2.05044e-07
0.00037757
2.05766e-07
0.000377527
2.07429e-07
0.00037748
2.10284e-07
0.000377432
2.1158e-07
0.000377382
2.17099e-07
0.000377335
2.13984e-07
0.000377281
2.19984e-07
0.000377229
2.14964e-07
0.000377174
2.18639e-07
0.000377121
2.15121e-07
0.000377067
2.12633e-07
0.000377007
2.13424e-07
0.000376954
2.07628e-07
0.000376898
2.05967e-07
0.000376841
2.0412e-07
0.000376783
1.99706e-07
0.000376727
1.9227e-07
0.000376672
1.83656e-07
0.000376619
1.73833e-07
0.000376567
1.61533e-07
0.000376518
1.50258e-07
0.000376466
1.37016e-07
0.000376424
1.13077e-07
0.000376386
9.32504e-08
0.000376352
6.91419e-08
0.000376321
4.0811e-08
0.000376298
4.07521e-09
0.000376287
-3.44106e-08
0.000376286
-8.31469e-08
0.000376292
-1.33771e-07
0.000376313
-1.98401e-07
0.000376353
-2.75356e-07
0.00037641
-3.5902e-07
0.000376487
-4.50019e-07
0.00037659
-5.51572e-07
0.000376716
-6.77376e-07
0.00037688
-8.55152e-07
0.000377086
-1.06204e-06
0.000377335
-1.24199e-06
0.000377615
-1.35507e-06
0.000377925
-1.47761e-06
0.000378292
-1.78848e-06
0.000378768
-2.40634e-06
0.000379394
-3.22861e-06
0.00038015
-3.80695e-06
0.000380931
-3.75331e-06
0.000381644
-3.10332e-06
0.000382267
-2.52211e-06
0.000383012
-3.52594e-06
0.000384195
-6.50886e-06
0.000386125
-1.13488e-05
0.000388962
-1.67321e-05
0.00039229
-1.87761e-05
0.000395484
-1.6524e-05
0.000398047
-1.15235e-05
-3.88864e-06
0.000458957
-3.76313e-08
0.000459001
1.52547e-07
0.000459041
3.45262e-08
0.000459095
-9.10729e-08
0.000459155
-9.61355e-08
0.00045922
-9.49582e-08
0.000459286
-8.55809e-08
0.000459342
-4.47775e-08
0.000459392
-4.73532e-09
0.000459432
2.57948e-08
0.000459463
5.3731e-08
0.000459487
7.91677e-08
0.0004595
1.00462e-07
0.000459511
1.16562e-07
0.000459516
1.29132e-07
0.000459515
1.41469e-07
0.000459507
1.557e-07
0.000459498
1.61082e-07
0.000459481
1.73414e-07
0.000459461
1.88127e-07
0.000459438
2.01495e-07
0.000459411
2.06825e-07
0.00045938
2.14449e-07
0.000459345
2.25039e-07
0.000459307
2.34334e-07
0.000459267
2.39607e-07
0.000459221
2.50573e-07
0.000459175
2.51685e-07
0.000459125
2.57159e-07
0.000459075
2.60045e-07
0.000459019
2.67765e-07
0.00045896
2.76153e-07
0.000458897
2.77011e-07
0.000458839
2.77744e-07
0.000458773
2.80874e-07
0.00045871
2.82086e-07
0.000458641
2.84353e-07
0.00045857
2.83322e-07
0.000458501
2.82685e-07
0.000458428
2.80461e-07
0.000458352
2.81258e-07
0.000458278
2.78906e-07
0.000458202
2.75057e-07
0.000458126
2.68037e-07
0.00045805
2.60607e-07
0.000457973
2.50291e-07
0.000457899
2.35767e-07
0.000457825
2.23687e-07
0.000457758
2.04589e-07
0.000457689
1.81393e-07
0.000457625
1.57142e-07
0.000457566
1.28387e-07
0.000457515
9.24087e-08
0.000457471
4.77593e-08
0.000457436
5.86884e-10
0.000457407
-5.4257e-08
0.000457397
-1.23619e-07
0.000457402
-2.03379e-07
0.00045742
-2.93123e-07
0.000457466
-4.05352e-07
0.000457529
-5.12798e-07
0.000457613
-6.35891e-07
0.000457736
-8.00569e-07
0.000457896
-1.01452e-06
0.000458106
-1.2729e-06
0.000458361
-1.49635e-06
0.000458654
-1.64844e-06
0.000458978
-1.80109e-06
0.000459368
-2.17875e-06
0.000459876
-2.91479e-06
0.000460546
-3.89881e-06
0.000461356
-4.61604e-06
0.000462211
-4.60859e-06
0.000463003
-3.8958e-06
0.000463702
-3.22132e-06
0.000464537
-4.36077e-06
0.000465805
-7.7769e-06
0.000467836
-1.33798e-05
0.000470815
-1.97108e-05
0.000474325
-2.22861e-05
0.000477736
-1.99345e-05
0.000480536
-1.43241e-05
-5.59889e-06
0.000551503
-1.86905e-07
0.000551602
4.1058e-08
0.000551692
-5.45575e-08
0.000551785
-1.8428e-07
0.000551885
-1.95976e-07
0.000551986
-1.95834e-07
0.000552094
-1.93791e-07
0.000552196
-1.47141e-07
0.000552284
-9.1856e-08
0.000552357
-4.75072e-08
0.000552422
-1.19345e-08
0.000552478
2.36541e-08
0.000552525
5.30159e-08
0.000552561
8.11373e-08
0.00055259
1.00167e-07
0.000552607
1.23561e-07
0.000552622
1.40985e-07
0.000552624
1.5907e-07
0.000552623
1.74291e-07
0.000552617
1.94419e-07
0.000552601
2.17245e-07
0.000552579
2.2833e-07
0.000552553
2.40793e-07
0.000552524
2.5318e-07
0.00055249
2.68874e-07
0.000552445
2.84597e-07
0.000552403
2.92488e-07
0.000552351
3.03073e-07
0.000552301
3.07062e-07
0.000552244
3.17239e-07
0.000552181
3.30781e-07
0.000552117
3.40182e-07
0.000552044
3.5005e-07
0.000551972
3.50088e-07
0.000551894
3.58656e-07
0.000551814
3.61726e-07
0.00055173
3.68683e-07
0.000551642
3.70723e-07
0.000551549
3.7571e-07
0.000551457
3.73112e-07
0.000551363
3.74494e-07
0.00055126
3.81928e-07
0.000551159
3.75828e-07
0.000551058
3.69405e-07
0.000550955
3.6393e-07
0.000550848
3.56975e-07
0.000550741
3.42701e-07
0.000550635
3.29697e-07
0.000550529
3.10979e-07
0.000550426
2.837e-07
0.000550327
2.56845e-07
0.000550232
2.22867e-07
0.000550142
1.8234e-07
0.000550057
1.3247e-07
0.000549986
7.24415e-08
0.000549922
8.99862e-09
0.000549869
-7.08664e-08
0.000549832
-1.65919e-07
0.000549818
-2.79355e-07
0.000549819
-4.06426e-07
0.000549849
-5.4213e-07
0.000549907
-6.94228e-07
0.000549993
-8.8666e-07
0.000550126
-1.14777e-06
0.000550312
-1.45878e-06
0.000550545
-1.72957e-06
0.000550819
-1.92254e-06
0.000551139
-2.1207e-06
0.000551523
-2.56243e-06
0.000552028
-3.42004e-06
0.000552706
-4.57734e-06
0.000553535
-5.44497e-06
0.000554418
-5.49101e-06
0.000555252
-4.73022e-06
0.000555995
-3.9639e-06
0.000556869
-5.23511e-06
0.000558185
-9.09255e-06
0.000560263
-1.54576e-05
0.000563315
-2.27637e-05
0.000566912
-2.58823e-05
0.00057044
-2.34631e-05
0.000573378
-1.72623e-05
-7.47107e-06
0.000656257
-4.3541e-07
0.000656442
-1.51376e-07
0.000656598
-2.08967e-07
0.000656756
-3.43454e-07
0.000656913
-3.52464e-07
0.000657075
-3.58305e-07
0.000657245
-3.63145e-07
0.000657407
-3.09232e-07
0.000657549
-2.33922e-07
0.00065768
-1.78685e-07
0.000657795
-1.27317e-07
0.0006579
-8.14876e-08
0.000657988
-3.47114e-08
0.000658066
3.56697e-09
0.000658129
3.66634e-08
0.000658182
7.08958e-08
0.000658222
1.0009e-07
0.000658256
1.25453e-07
0.000658277
1.53095e-07
0.000658283
1.88013e-07
0.000658289
2.11031e-07
0.000658282
2.35533e-07
0.00065827
2.53124e-07
0.000658248
2.75137e-07
0.000658217
2.99851e-07
0.00065818
3.20858e-07
0.000658139
3.3382e-07
0.000658095
3.46912e-07
0.000658036
3.66168e-07
0.000657975
3.78529e-07
0.000657907
3.97883e-07
0.000657833
4.15004e-07
0.000657753
4.29809e-07
0.000657662
4.41058e-07
0.000657573
4.47349e-07
0.000657471
4.63877e-07
0.000657367
4.72643e-07
0.000657258
4.79643e-07
0.000657146
4.87754e-07
0.000657022
4.96846e-07
0.000656893
5.03218e-07
0.000656767
5.083e-07
0.000656628
5.14371e-07
0.000656484
5.137e-07
0.000656338
5.09961e-07
0.000656191
5.04148e-07
0.000656038
4.95386e-07
0.000655886
4.81639e-07
0.000655732
4.65232e-07
0.000655575
4.40243e-07
0.000655421
4.10896e-07
0.000655269
3.75011e-07
0.000655121
3.30807e-07
0.000654978
2.75269e-07
0.000654838
2.11811e-07
0.000654709
1.38613e-07
0.000654593