/*--------------------------------*- C++ -*----------------------------------*\
| =========                 |                                                 |
| \\      /  F ield         | OpenFOAM: The Open Source CFD Toolbox           |
|  \\    /   O peration     | Version:  2412                                  |
|   \\  /    A nd           | Website:  www.openfoam.com                      |
|    \\/     M anipulation  |                                                 |
\*---------------------------------------------------------------------------*/
FoamFile
{
    version     2.0;
    format      ascii;
    arch        "LSB;label=32;scalar=64";
    class       volScalarField;
    location    "160";
    object      nuTilda;
}
// * * * * * * * * * * * * * * * * * * * * * * * * * * * * * * * * * * * * * //

dimensions      [0 2 -1 0 0 0 0];

internalField   nonuniform List<scalar> 
8553
(
1.37478e-06
1.43074e-06
1.43746e-06
1.09672e-06
1.18357e-06
1.27993e-06
2.38006e-06
2.69185e-06
2.55526e-06
2.37945e-06
2.29729e-06
2.24861e-06
2.2296e-06
2.23065e-06
2.2355e-06
2.23157e-06
2.22141e-06
2.20642e-06
2.18925e-06
2.17533e-06
2.16634e-06
2.16072e-06
2.15721e-06
2.15373e-06
2.14934e-06
2.14446e-06
2.13964e-06
2.13549e-06
2.13204e-06
2.12898e-06
2.12602e-06
2.12314e-06
2.12041e-06
2.1178e-06
2.11538e-06
2.11317e-06
2.1111e-06
2.10907e-06
2.10717e-06
2.10543e-06
2.10375e-06
2.10216e-06
2.10063e-06
2.09919e-06
2.09785e-06
2.09655e-06
2.09532e-06
2.09418e-06
2.09309e-06
2.09202e-06
2.091e-06
2.09004e-06
2.08913e-06
2.08825e-06
2.08743e-06
2.08663e-06
2.08588e-06
2.08514e-06
2.08439e-06
2.08371e-06
2.08308e-06
2.08245e-06
2.08187e-06
2.08129e-06
2.08075e-06
2.08023e-06
2.07968e-06
2.07917e-06
2.07871e-06
2.07826e-06
2.0778e-06
2.07737e-06
2.07693e-06
2.07653e-06
2.07615e-06
2.0758e-06
2.07555e-06
2.0754e-06
2.09044e-06
2.09039e-06
2.09601e-06
2.1223e-06
2.17958e-06
2.28029e-06
2.47789e-06
2.66937e-06
2.56776e-06
1.79904e-06
1.06091e-06
9.47846e-07
7.64711e-07
1.67386e-06
2.05602e-06
4.11899e-06
4.06904e-06
4.27506e-06
3.45102e-06
3.43453e-06
4.02836e-06
7.21913e-06
7.95101e-06
7.6156e-06
7.19032e-06
6.97489e-06
6.84949e-06
6.79991e-06
6.79992e-06
6.80724e-06
6.792e-06
6.76042e-06
6.71686e-06
6.66902e-06
6.63045e-06
6.60508e-06
6.5888e-06
6.57788e-06
6.5669e-06
6.55355e-06
6.53907e-06
6.52496e-06
6.51273e-06
6.50237e-06
6.49312e-06
6.4842e-06
6.47551e-06
6.46729e-06
6.45953e-06
6.4523e-06
6.44562e-06
6.43932e-06
6.43325e-06
6.42755e-06
6.42223e-06
6.41715e-06
6.41238e-06
6.4078e-06
6.40346e-06
6.39938e-06
6.39549e-06
6.3918e-06
6.3883e-06
6.38494e-06
6.38173e-06
6.37867e-06
6.37577e-06
6.37304e-06
6.37039e-06
6.36784e-06
6.36544e-06
6.36315e-06
6.36092e-06
6.35871e-06
6.35665e-06
6.35471e-06
6.35282e-06
6.35103e-06
6.34926e-06
6.34763e-06
6.346e-06
6.34437e-06
6.34284e-06
6.34141e-06
6.34001e-06
6.33861e-06
6.3373e-06
6.33597e-06
6.33472e-06
6.33355e-06
6.33247e-06
6.33166e-06
6.33121e-06
6.35408e-06
6.35868e-06
6.37653e-06
6.44605e-06
6.59539e-06
6.85712e-06
7.33939e-06
7.80816e-06
7.64403e-06
5.70552e-06
3.12485e-06
2.83591e-06
2.2863e-06
4.91349e-06
5.66781e-06
6.91702e-06
6.34496e-06
6.99835e-06
6.05367e-06
5.51481e-06
7.79027e-06
1.20177e-05
1.29222e-05
1.25216e-05
1.20155e-05
1.17276e-05
1.15652e-05
1.14984e-05
1.14906e-05
1.14876e-05
1.14558e-05
1.14025e-05
1.13351e-05
1.12651e-05
1.12091e-05
1.11713e-05
1.11459e-05
1.11272e-05
1.11081e-05
1.1086e-05
1.10627e-05
1.10405e-05
1.1021e-05
1.10042e-05
1.0989e-05
1.09743e-05
1.09602e-05
1.09467e-05
1.09341e-05
1.09224e-05
1.09114e-05
1.0901e-05
1.08911e-05
1.08818e-05
1.0873e-05
1.08646e-05
1.08568e-05
1.08493e-05
1.08422e-05
1.08354e-05
1.0829e-05
1.08229e-05
1.08171e-05
1.08116e-05
1.08063e-05
1.08013e-05
1.07965e-05
1.07919e-05
1.07876e-05
1.07833e-05
1.07793e-05
1.07755e-05
1.07718e-05
1.07682e-05
1.07648e-05
1.07615e-05
1.07584e-05
1.07554e-05
1.07525e-05
1.07497e-05
1.0747e-05
1.07443e-05
1.07417e-05
1.07393e-05
1.07369e-05
1.07346e-05
1.07323e-05
1.07301e-05
1.0728e-05
1.0726e-05
1.07241e-05
1.07227e-05
1.0722e-05
1.06976e-05
1.07148e-05
1.07469e-05
1.08429e-05
1.10428e-05
1.13935e-05
1.19905e-05
1.25747e-05
1.24841e-05
1.01113e-05
5.15862e-06
4.71787e-06
4.02045e-06
7.90271e-06
8.73254e-06
9.7922e-06
8.24502e-06
9.46337e-06
8.72342e-06
7.34892e-06
1.25095e-05
1.64079e-05
1.74155e-05
1.70833e-05
1.66436e-05
1.63485e-05
1.61888e-05
1.61175e-05
1.60961e-05
1.60738e-05
1.60237e-05
1.59523e-05
1.58695e-05
1.57885e-05
1.5724e-05
1.56791e-05
1.56471e-05
1.56214e-05
1.5595e-05
1.55656e-05
1.55356e-05
1.55073e-05
1.54823e-05
1.54605e-05
1.54404e-05
1.54211e-05
1.54024e-05
1.53848e-05
1.53683e-05
1.53528e-05
1.53383e-05
1.53246e-05
1.53115e-05
1.52991e-05
1.52874e-05
1.52764e-05
1.5266e-05
1.5256e-05
1.52465e-05
1.52375e-05
1.5229e-05
1.52208e-05
1.52131e-05
1.52057e-05
1.51987e-05
1.5192e-05
1.51856e-05
1.51794e-05
1.51735e-05
1.51679e-05
1.51625e-05
1.51573e-05
1.51523e-05
1.51475e-05
1.51429e-05
1.51385e-05
1.51342e-05
1.51301e-05
1.51261e-05
1.51223e-05
1.51185e-05
1.51149e-05
1.51114e-05
1.5108e-05
1.51047e-05
1.51015e-05
1.50984e-05
1.50954e-05
1.50924e-05
1.50896e-05
1.5087e-05
1.50851e-05
1.50841e-05
1.49402e-05
1.4976e-05
1.50245e-05
1.5132e-05
1.5343e-05
1.57121e-05
1.6279e-05
1.68306e-05
1.68486e-05
1.46069e-05
7.41607e-06
6.60988e-06
6.26896e-06
1.05332e-05
1.13159e-05
1.27648e-05
1.01308e-05
1.15975e-05
1.12729e-05
8.92412e-06
1.74282e-05
2.01459e-05
2.13515e-05
2.11983e-05
2.09315e-05
2.06871e-05
2.05614e-05
2.04952e-05
2.04574e-05
2.04124e-05
2.03466e-05
2.02641e-05
2.01766e-05
2.00962e-05
2.00326e-05
1.99864e-05
1.99512e-05
1.99204e-05
1.98886e-05
1.98546e-05
1.98208e-05
1.97893e-05
1.97615e-05
1.97367e-05
1.97136e-05
1.96913e-05
1.967e-05
1.96497e-05
1.96307e-05
1.9613e-05
1.95962e-05
1.95803e-05
1.95652e-05
1.95509e-05
1.95374e-05
1.95245e-05
1.95124e-05
1.95008e-05
1.94897e-05
1.94792e-05
1.94692e-05
1.94597e-05
1.94507e-05
1.9442e-05
1.94337e-05
1.94258e-05
1.94183e-05
1.9411e-05
1.94041e-05
1.93974e-05
1.9391e-05
1.93848e-05
1.93789e-05
1.93731e-05
1.93676e-05
1.93623e-05
1.93572e-05
1.93522e-05
1.93474e-05
1.93428e-05
1.93382e-05
1.93338e-05
1.93295e-05
1.93254e-05
1.93213e-05
1.93174e-05
1.93136e-05
1.93098e-05
1.93061e-05
1.93026e-05
1.92994e-05
1.92971e-05
1.92958e-05
1.89496e-05
1.90064e-05
1.90724e-05
1.91803e-05
1.93706e-05
1.96978e-05
2.01257e-05
2.05228e-05
2.06092e-05
1.88238e-05
1.05679e-05
8.54244e-06
9.08951e-06
1.27896e-05
1.35421e-05
1.60011e-05
1.30891e-05
1.34388e-05
1.35716e-05
1.11791e-05
2.19679e-05
2.31487e-05
2.46988e-05
2.48002e-05
2.47732e-05
2.4627e-05
2.45576e-05
2.45038e-05
2.44498e-05
2.43842e-05
2.43087e-05
2.4225e-05
2.41448e-05
2.40766e-05
2.40227e-05
2.39813e-05
2.3947e-05
2.39142e-05
2.38801e-05
2.38451e-05
2.38114e-05
2.37805e-05
2.3753e-05
2.3728e-05
2.37043e-05
2.36815e-05
2.36597e-05
2.3639e-05
2.36197e-05
2.36015e-05
2.35843e-05
2.35679e-05
2.35523e-05
2.35376e-05
2.35236e-05
2.35103e-05
2.34977e-05
2.34856e-05
2.34741e-05
2.34632e-05
2.34528e-05
2.34428e-05
2.34333e-05
2.34242e-05
2.34155e-05
2.34072e-05
2.33992e-05
2.33915e-05
2.33841e-05
2.3377e-05
2.33701e-05
2.33635e-05
2.33571e-05
2.33509e-05
2.3345e-05
2.33392e-05
2.33336e-05
2.33282e-05
2.33229e-05
2.33178e-05
2.33128e-05
2.33079e-05
2.33031e-05
2.32984e-05
2.32938e-05
2.32894e-05
2.32851e-05
2.32808e-05
2.32766e-05
2.32726e-05
2.3269e-05
2.32665e-05
2.32647e-05
2.26207e-05
2.26976e-05
2.27801e-05
2.28798e-05
2.3025e-05
2.32602e-05
2.34745e-05
2.36308e-05
2.36839e-05
2.25479e-05
1.46201e-05
1.05875e-05
1.20309e-05
1.47453e-05
1.55451e-05
1.99087e-05
1.73268e-05
1.51717e-05
1.55466e-05
1.41215e-05
2.59097e-05
2.55273e-05
2.74525e-05
2.78382e-05
2.80819e-05
2.80693e-05
2.80701e-05
2.80345e-05
2.79679e-05
2.78884e-05
2.78124e-05
2.77394e-05
2.76792e-05
2.76344e-05
2.75989e-05
2.75685e-05
2.75396e-05
2.75089e-05
2.74769e-05
2.74456e-05
2.74165e-05
2.73905e-05
2.73671e-05
2.73453e-05
2.73244e-05
2.73041e-05
2.72847e-05
2.72664e-05
2.72493e-05
2.72331e-05
2.72177e-05
2.72031e-05
2.71891e-05
2.71759e-05
2.71633e-05
2.71512e-05
2.71398e-05
2.71289e-05
2.71184e-05
2.71084e-05
2.70989e-05
2.70897e-05
2.7081e-05
2.70726e-05
2.70645e-05
2.70567e-05
2.70492e-05
2.7042e-05
2.70351e-05
2.70283e-05
2.70218e-05
2.70154e-05
2.70093e-05
2.70033e-05
2.69975e-05
2.69919e-05
2.69864e-05
2.6981e-05
2.69758e-05
2.69707e-05
2.69656e-05
2.69606e-05
2.69557e-05
2.6951e-05
2.69462e-05
2.69416e-05
2.69371e-05
2.69326e-05
2.69282e-05
2.6924e-05
2.69203e-05
2.69177e-05
2.69154e-05
2.58615e-05
2.59536e-05
2.6049e-05
2.61334e-05
2.62156e-05
2.63201e-05
2.62782e-05
2.61523e-05
2.60203e-05
2.56229e-05
1.96451e-05
1.25901e-05
1.4857e-05
1.65551e-05
1.81722e-05
2.4125e-05
2.30818e-05
1.69061e-05
1.71998e-05
1.77886e-05
2.91232e-05
2.73842e-05
2.96201e-05
3.02711e-05
3.07838e-05
3.09258e-05
3.10033e-05
3.09914e-05
3.092e-05
3.08375e-05
3.07726e-05
3.07236e-05
3.06958e-05
3.06844e-05
3.06753e-05
3.06624e-05
3.06442e-05
3.06208e-05
3.05963e-05
3.0574e-05
3.05549e-05
3.05387e-05
3.05239e-05
3.05094e-05
3.0495e-05
3.04809e-05
3.04675e-05
3.04551e-05
3.04433e-05
3.04322e-05
3.04215e-05
3.04112e-05
3.04014e-05
3.03921e-05
3.03832e-05
3.03746e-05
3.03665e-05
3.03586e-05
3.03511e-05
3.03438e-05
3.03368e-05
3.03301e-05
3.03236e-05
3.03173e-05
3.03112e-05
3.03053e-05
3.02996e-05
3.0294e-05
3.02886e-05
3.02833e-05
3.02781e-05
3.0273e-05
3.0268e-05
3.02631e-05
3.02583e-05
3.02535e-05
3.02489e-05
3.02443e-05
3.02397e-05
3.02352e-05
3.02307e-05
3.02263e-05
3.02218e-05
3.02174e-05
3.0213e-05
3.02087e-05
3.02044e-05
3.02001e-05
3.01958e-05
3.01918e-05
3.01884e-05
3.01859e-05
3.01829e-05
2.85896e-05
2.86878e-05
2.87889e-05
2.88509e-05
2.88583e-05
2.88061e-05
2.84944e-05
2.80929e-05
2.7586e-05
2.79932e-05
2.48633e-05
1.44795e-05
1.75196e-05
1.83691e-05
2.19237e-05
2.84292e-05
2.89201e-05
1.86168e-05
1.8549e-05
2.2252e-05
3.15647e-05
2.88102e-05
3.12071e-05
3.2062e-05
3.28177e-05
3.31202e-05
3.32758e-05
3.32942e-05
3.323e-05
3.31588e-05
3.31182e-05
3.31061e-05
3.31217e-05
3.31521e-05
3.31765e-05
3.31871e-05
3.31857e-05
3.31757e-05
3.3165e-05
3.3158e-05
3.31547e-05
3.31536e-05
3.31523e-05
3.31498e-05
3.31464e-05
3.31428e-05
3.31396e-05
3.31369e-05
3.31343e-05
3.31317e-05
3.3129e-05
3.31264e-05
3.31239e-05
3.31214e-05
3.31189e-05
3.31165e-05
3.31141e-05
3.31117e-05
3.31093e-05
3.3107e-05
3.31046e-05
3.31023e-05
3.30999e-05
3.30975e-05
3.30952e-05
3.30928e-05
3.30904e-05
3.30879e-05
3.30854e-05
3.30828e-05
3.30802e-05
3.30776e-05
3.30749e-05
3.30722e-05
3.30694e-05
3.30665e-05
3.30637e-05
3.30607e-05
3.30577e-05
3.30546e-05
3.30515e-05
3.30482e-05
3.30449e-05
3.30416e-05
3.30382e-05
3.30347e-05
3.30312e-05
3.30277e-05
3.30241e-05
3.30208e-05
3.30181e-05
3.30159e-05
3.3012e-05
3.07337e-05
3.08251e-05
3.09211e-05
3.09524e-05
3.08779e-05
3.0657e-05
3.00854e-05
2.94531e-05
2.85338e-05
2.967e-05
2.93492e-05
1.71783e-05
2.00542e-05
2.02496e-05
2.62109e-05
3.26572e-05
3.37801e-05
2.13136e-05
1.96139e-05
2.70966e-05
3.32339e-05
2.9831e-05
3.22113e-05
3.31811e-05
3.41389e-05
3.45942e-05
3.48265e-05
3.48838e-05
3.48422e-05
3.4798e-05
3.47945e-05
3.48307e-05
3.48979e-05
3.49762e-05
3.50398e-05
3.50801e-05
3.51017e-05
3.51122e-05
3.5122e-05
3.51367e-05
3.51552e-05
3.51748e-05
3.51923e-05
3.5207e-05
3.52196e-05
3.52313e-05
3.52429e-05
3.52542e-05
3.52649e-05
3.52749e-05
3.52842e-05
3.52928e-05
3.53011e-05
3.53088e-05
3.5316e-05
3.53228e-05
3.53291e-05
3.5335e-05
3.53405e-05
3.53456e-05
3.53504e-05
3.53547e-05
3.53588e-05
3.53625e-05
3.53658e-05
3.53689e-05
3.53716e-05
3.5374e-05
3.53762e-05
3.5378e-05
3.53795e-05
3.53808e-05
3.53818e-05
3.53826e-05
3.53832e-05
3.53834e-05
3.53835e-05
3.53833e-05
3.5383e-05
3.53823e-05
3.53815e-05
3.53804e-05
3.53791e-05
3.53776e-05
3.5376e-05
3.53742e-05
3.53723e-05
3.53702e-05
3.5368e-05
3.5366e-05
3.53645e-05
3.5363e-05
3.53579e-05
3.23086e-05
3.23847e-05
3.23751e-05
3.2215e-05
3.18268e-05
3.10235e-05
3.02249e-05
2.89768e-05
3.06782e-05
3.2859e-05
2.06564e-05
2.26673e-05
2.30218e-05
3.07479e-05
3.67329e-05
3.78762e-05
2.47717e-05
2.11374e-05
3.14706e-05
3.41678e-05
3.04643e-05
3.26231e-05
3.36154e-05
3.47253e-05
3.53154e-05
3.56218e-05
3.57283e-05
3.57257e-05
3.57231e-05
3.57676e-05
3.58597e-05
3.5983e-05
3.61126e-05
3.62198e-05
3.62952e-05
3.63464e-05
3.63844e-05
3.64218e-05
3.64644e-05
3.65105e-05
3.65562e-05
3.65979e-05
3.6635e-05
3.66688e-05
3.67009e-05
3.67321e-05
3.67622e-05
3.67907e-05
3.68175e-05
3.68428e-05
3.68669e-05
3.68897e-05
3.69113e-05
3.69318e-05
3.69512e-05
3.69696e-05
3.6987e-05
3.70034e-05
3.70189e-05
3.70335e-05
3.70473e-05
3.70602e-05
3.70725e-05
3.7084e-05
3.70947e-05
3.71048e-05
3.71142e-05
3.7123e-05
3.71311e-05
3.71386e-05
3.71456e-05
3.7152e-05
3.71579e-05
3.71633e-05
3.71682e-05
3.71726e-05
3.71765e-05
3.718e-05
3.71831e-05
3.71857e-05
3.71879e-05
3.71897e-05
3.71911e-05
3.71923e-05
3.71931e-05
3.71936e-05
3.71938e-05
3.71939e-05
3.7194e-05
3.71943e-05
3.71939e-05
3.71875e-05
3.71397e-05
3.71368e-05
3.71385e-05
3.3107e-05
3.3145e-05
3.30827e-05
3.28357e-05
3.22936e-05
3.13011e-05
3.04013e-05
2.89657e-05
3.1061e-05
3.52597e-05
2.4949e-05
2.51554e-05
2.64781e-05
3.54407e-05
4.06546e-05
4.24898e-05
2.88406e-05
2.35415e-05
3.51584e-05
3.44141e-05
3.07167e-05
3.24399e-05
3.33801e-05
3.45871e-05
3.52867e-05
3.56638e-05
3.58286e-05
3.58792e-05
3.59286e-05
3.60278e-05
3.61785e-05
3.63584e-05
3.65398e-05
3.66931e-05
3.68082e-05
3.6895e-05
3.6967e-05
3.70378e-05
3.71139e-05
3.71927e-05
3.72694e-05
3.73402e-05
3.74048e-05
3.74648e-05
3.75222e-05
3.75777e-05
3.7631e-05
3.76818e-05
3.77299e-05
3.77755e-05
3.7819e-05
3.78604e-05
3.78999e-05
3.79374e-05
3.79731e-05
3.8007e-05
3.80392e-05
3.80698e-05
3.80988e-05
3.81264e-05
3.81525e-05
3.81773e-05
3.82008e-05
3.8223e-05
3.8244e-05
3.82639e-05
3.82826e-05
3.83003e-05
3.83168e-05
3.83324e-05
3.83471e-05
3.83608e-05
3.83737e-05
3.83857e-05
3.83969e-05
3.84073e-05
3.84169e-05
3.84258e-05
3.8434e-05
3.84415e-05
3.84483e-05
3.84544e-05
3.84601e-05
3.84651e-05
3.84697e-05
3.84737e-05
3.84773e-05
3.84806e-05
3.84837e-05
3.84866e-05
3.84876e-05
3.84806e-05
3.8439e-05
3.84395e-05
3.84463e-05
3.32162e-05
3.32006e-05
3.30749e-05
3.27431e-05
3.20724e-05
3.09437e-05
2.99974e-05
2.87774e-05
3.08781e-05
3.65661e-05
2.92508e-05
2.74296e-05
3.04892e-05
4.03631e-05
4.44446e-05
4.73371e-05
3.33528e-05
2.68957e-05
3.78898e-05
3.39476e-05
3.05529e-05
3.16878e-05
3.25286e-05
3.37767e-05
3.45542e-05
3.49954e-05
3.52231e-05
3.53346e-05
3.54402e-05
3.55947e-05
3.58009e-05
3.60335e-05
3.62643e-05
3.64639e-05
3.66215e-05
3.67481e-05
3.68588e-05
3.69675e-05
3.70808e-05
3.71958e-05
3.73072e-05
3.74112e-05
3.75074e-05
3.75979e-05
3.76847e-05
3.77686e-05
3.78493e-05
3.79264e-05
3.79998e-05
3.80697e-05
3.81365e-05
3.82004e-05
3.82614e-05
3.83196e-05
3.8375e-05
3.8428e-05
3.84784e-05
3.85265e-05
3.85723e-05
3.86159e-05
3.86575e-05
3.8697e-05
3.87346e-05
3.87703e-05
3.88043e-05
3.88365e-05
3.8867e-05
3.8896e-05
3.89234e-05
3.89493e-05
3.89738e-05
3.8997e-05
3.90189e-05
3.90395e-05
3.90588e-05
3.90771e-05
3.90941e-05
3.91101e-05
3.9125e-05
3.91389e-05
3.91519e-05
3.91639e-05
3.91751e-05
3.91854e-05
3.9195e-05
3.92038e-05
3.9212e-05
3.92196e-05
3.92268e-05
3.9233e-05
3.92362e-05
3.92296e-05
3.91951e-05
3.92005e-05
3.92135e-05
3.26691e-05
3.25908e-05
3.2397e-05
3.19893e-05
3.12274e-05
3.00326e-05
2.90855e-05
2.82842e-05
3.02078e-05
3.68491e-05
3.29403e-05
2.96107e-05
3.51023e-05
4.57549e-05
4.81175e-05
5.22931e-05
3.82971e-05
3.15621e-05
3.94131e-05
3.29345e-05
2.99257e-05
3.04367e-05
3.11594e-05
3.23934e-05
3.32108e-05
3.37028e-05
3.39894e-05
3.41605e-05
3.43189e-05
3.45226e-05
3.4776e-05
3.5053e-05
3.53274e-05
3.55703e-05
3.577e-05
3.59378e-05
3.60888e-05
3.62369e-05
3.63887e-05
3.65412e-05
3.6689e-05
3.68282e-05
3.69585e-05
3.70822e-05
3.72011e-05
3.73163e-05
3.74273e-05
3.75337e-05
3.76354e-05
3.77327e-05
3.7826e-05
3.79154e-05
3.80011e-05
3.80831e-05
3.81615e-05
3.82366e-05
3.83083e-05
3.83769e-05
3.84424e-05
3.85051e-05
3.85648e-05
3.86219e-05
3.86764e-05
3.87283e-05
3.87779e-05
3.8825e-05
3.88699e-05
3.89126e-05
3.89532e-05
3.89918e-05
3.90284e-05
3.90632e-05
3.90962e-05
3.91274e-05
3.91569e-05
3.91849e-05
3.92113e-05
3.92361e-05
3.92596e-05
3.92816e-05
3.93023e-05
3.93217e-05
3.934e-05
3.93571e-05
3.93732e-05
3.93882e-05
3.94023e-05
3.94155e-05
3.94278e-05
3.94384e-05
3.94446e-05
3.94403e-05
3.94152e-05
3.9427e-05
3.94471e-05
3.15426e-05
3.14022e-05
3.1146e-05
3.06831e-05
2.98821e-05
2.87068e-05
2.77957e-05
2.74429e-05
2.92321e-05
3.6219e-05
3.61099e-05
3.29369e-05
4.05582e-05
5.20342e-05
5.16247e-05
5.73959e-05
4.38334e-05
3.62653e-05
3.97253e-05
3.15972e-05
2.88471e-05
2.8803e-05
2.94153e-05
3.05814e-05
3.13945e-05
3.19145e-05
3.22453e-05
3.24648e-05
3.26654e-05
3.29063e-05
3.31935e-05
3.35027e-05
3.38105e-05
3.40893e-05
3.43264e-05
3.45323e-05
3.47213e-05
3.49063e-05
3.50944e-05
3.52825e-05
3.54654e-05
3.56391e-05
3.58034e-05
3.59603e-05
3.61119e-05
3.6259e-05
3.64013e-05
3.65382e-05
3.66696e-05
3.67959e-05
3.69174e-05
3.70343e-05
3.71465e-05
3.72543e-05
3.73578e-05
3.74571e-05
3.75524e-05
3.76437e-05
3.77313e-05
3.78152e-05
3.78956e-05
3.79725e-05
3.80462e-05
3.81166e-05
3.8184e-05
3.82483e-05
3.83098e-05
3.83684e-05
3.84244e-05
3.84777e-05
3.85285e-05
3.8577e-05
3.86231e-05
3.8667e-05
3.87086e-05
3.87482e-05
3.87857e-05
3.88212e-05
3.88549e-05
3.88868e-05
3.89169e-05
3.89454e-05
3.89724e-05
3.89978e-05
3.90219e-05
3.90445e-05
3.90659e-05
3.90861e-05
3.91047e-05
3.91208e-05
3.91314e-05
3.91318e-05
3.91186e-05
3.91382e-05
3.91662e-05
2.99664e-05
2.97743e-05
2.94755e-05
2.89941e-05
2.82229e-05
2.71662e-05
2.63038e-05
2.62925e-05
2.80529e-05
3.48841e-05
3.85475e-05
3.75575e-05
4.67549e-05
5.8271e-05
5.48972e-05
6.27454e-05
5.04129e-05
4.04932e-05
3.90389e-05
3.00799e-05
2.73994e-05
2.69272e-05
2.74714e-05
2.85153e-05
2.92786e-05
2.97941e-05
3.01448e-05
3.03937e-05
3.06208e-05
3.08827e-05
3.11866e-05
3.15114e-05
3.18376e-05
3.21397e-05
3.24042e-05
3.26399e-05
3.28596e-05
3.30748e-05
3.32927e-05
3.35104e-05
3.3723e-05
3.39267e-05
3.41211e-05
3.4308e-05
3.44896e-05
3.46664e-05
3.48381e-05
3.5004e-05
3.51641e-05
3.53187e-05
3.54678e-05
3.56118e-05
3.57507e-05
3.58845e-05
3.60135e-05
3.61377e-05
3.62573e-05
3.63723e-05
3.6483e-05
3.65893e-05
3.66915e-05
3.67896e-05
3.68838e-05
3.69743e-05
3.7061e-05
3.71441e-05
3.72237e-05
3.72999e-05
3.73728e-05
3.74425e-05
3.75092e-05
3.7573e-05
3.76338e-05
3.76919e-05
3.77473e-05
3.78e-05
3.78503e-05
3.78981e-05
3.79436e-05
3.79868e-05
3.8028e-05
3.8067e-05
3.81042e-05
3.81395e-05
3.81729e-05
3.82047e-05
3.82348e-05
3.82631e-05
3.82894e-05
3.83122e-05
3.83293e-05
3.83374e-05
3.83381e-05
3.83672e-05
3.84038e-05
2.8132e-05
2.79021e-05
2.75947e-05
2.71493e-05
2.64961e-05
2.56548e-05
2.49632e-05
2.50639e-05
2.6779e-05
3.31813e-05
3.97043e-05
4.21858e-05
5.28509e-05
6.38294e-05
5.71815e-05
6.72338e-05
5.70802e-05
4.35034e-05
3.76434e-05
2.84648e-05
2.57317e-05
2.48689e-05
2.5517e-05
2.63945e-05
2.70541e-05
2.75273e-05
2.78688e-05
2.81251e-05
2.83611e-05
2.86259e-05
2.89258e-05
2.92454e-05
2.95709e-05
2.98787e-05
3.01559e-05
3.04084e-05
3.06466e-05
3.08806e-05
3.1117e-05
3.13534e-05
3.15857e-05
3.18104e-05
3.20269e-05
3.22369e-05
3.24419e-05
3.26426e-05
3.28385e-05
3.30287e-05
3.32131e-05
3.33919e-05
3.35652e-05
3.37333e-05
3.38961e-05
3.40537e-05
3.42063e-05
3.43538e-05
3.44964e-05
3.46341e-05
3.4767e-05
3.48951e-05
3.50186e-05
3.51377e-05
3.52524e-05
3.53628e-05
3.54691e-05
3.55713e-05
3.56695e-05
3.57638e-05
3.58543e-05
3.59412e-05
3.60245e-05
3.61043e-05
3.61809e-05
3.62541e-05
3.63242e-05
3.63912e-05
3.64552e-05
3.65164e-05
3.65748e-05
3.66306e-05
3.66839e-05
3.67347e-05
3.67833e-05
3.68296e-05
3.68738e-05
3.69158e-05
3.69559e-05
3.69937e-05
3.70289e-05
3.70603e-05
3.70861e-05
3.71051e-05
3.71219e-05
3.7162e-05
3.72082e-05
2.60502e-05
2.57694e-05
2.54265e-05
2.50005e-05
2.44351e-05
2.40691e-05
2.40286e-05
2.5572e-05
3.13661e-05
3.96264e-05
4.62988e-05
5.88941e-05
6.88843e-05
5.86023e-05
7.04362e-05
6.288e-05
4.49134e-05
3.58018e-05
2.68718e-05
2.41868e-05
2.33812e-05
2.37246e-05
2.44143e-05
2.49125e-05
2.53083e-05
2.5613e-05
2.58563e-05
2.60836e-05
2.63325e-05
2.66041e-05
2.68946e-05
2.71975e-05
2.74919e-05
2.77649e-05
2.80177e-05
2.82581e-05
2.84946e-05
2.87333e-05
2.89729e-05
2.92106e-05
2.94435e-05
2.96706e-05
2.9893e-05
3.01116e-05
3.03267e-05
3.05375e-05
3.07433e-05
3.09437e-05
3.1139e-05
3.13294e-05
3.15152e-05
3.16962e-05
3.18725e-05
3.20439e-05
3.22104e-05
3.2372e-05
3.25287e-05
3.26804e-05
3.28273e-05
3.29695e-05
3.3107e-05
3.324e-05
3.33687e-05
3.34929e-05
3.36129e-05
3.37285e-05
3.38399e-05
3.39472e-05
3.40505e-05
3.41499e-05
3.42455e-05
3.43374e-05
3.44257e-05
3.45104e-05
3.45917e-05
3.46698e-05
3.47446e-05
3.48163e-05
3.48851e-05
3.49511e-05
3.50143e-05
3.5075e-05
3.51331e-05
3.51888e-05
3.52422e-05
3.52932e-05
3.53418e-05
3.53875e-05
3.54294e-05
3.54667e-05
3.54999e-05
3.55345e-05
3.55873e-05
3.56448e-05
2.41823e-05
2.4147e-05
2.42668e-05
2.42987e-05
2.40238e-05
2.47141e-05
2.96265e-05
3.86543e-05
4.94762e-05
6.50841e-05
7.3913e-05
5.9506e-05
7.26735e-05
6.73855e-05
4.48697e-05
3.36425e-05
2.54878e-05
2.30989e-05
2.25312e-05
2.26074e-05
2.27921e-05
2.30517e-05
2.33544e-05
2.35949e-05
2.37983e-05
2.39876e-05
2.4198e-05
2.44121e-05
2.46522e-05
2.49146e-05
2.51804e-05
2.54326e-05
2.56661e-05
2.58874e-05
2.61048e-05
2.6325e-05
2.65489e-05
2.67763e-05
2.70037e-05
2.72286e-05
2.74505e-05
2.76696e-05
2.78857e-05
2.80983e-05
2.83067e-05
2.85107e-05
2.87113e-05
2.89088e-05
2.91032e-05
2.9294e-05
2.94808e-05
2.96633e-05
2.98414e-05
3.00148e-05
3.01837e-05
3.0348e-05
3.05078e-05
3.06632e-05
3.08143e-05
3.09612e-05
3.11039e-05
3.12425e-05
3.13767e-05
3.15065e-05
3.16321e-05
3.17534e-05
3.18705e-05
3.19837e-05
3.2093e-05
3.21984e-05
3.23001e-05
3.23982e-05
3.24926e-05
3.25836e-05
3.26713e-05
3.27557e-05
3.2837e-05
3.29153e-05
3.29908e-05
3.30635e-05
3.31336e-05
3.32013e-05
3.32665e-05
3.33294e-05
3.33899e-05
3.34478e-05
3.35027e-05
3.35548e-05
3.36053e-05
3.36595e-05
3.37275e-05
3.37992e-05
2.45052e-05
2.47746e-05
2.52937e-05
2.56251e-05
2.51079e-05
2.48348e-05
2.82687e-05
3.70966e-05
5.13708e-05
7.1222e-05
7.91901e-05
6.00551e-05
7.41073e-05
7.01087e-05
4.38204e-05
3.13817e-05
2.45121e-05
2.27907e-05
2.24239e-05
2.23476e-05
2.21855e-05
2.21283e-05
2.21448e-05
2.21912e-05
2.2251e-05
2.23119e-05
2.23989e-05
2.2524e-05
2.27137e-05
2.29304e-05
2.31587e-05
2.33669e-05
2.35505e-05
2.37206e-05
2.38891e-05
2.40663e-05
2.42606e-05
2.447e-05
2.46826e-05
2.48926e-05
2.50988e-05
2.53015e-05
2.55011e-05
2.56977e-05
2.58916e-05
2.60841e-05
2.62777e-05
2.64716e-05
2.66643e-05
2.68544e-05
2.7041e-05
2.72239e-05
2.74027e-05
2.75777e-05
2.77491e-05
2.7917e-05
2.80813e-05
2.82421e-05
2.83994e-05
2.85535e-05
2.8704e-05
2.88508e-05
2.89934e-05
2.91318e-05
2.92661e-05
2.93964e-05
2.95228e-05
2.96455e-05
2.97645e-05
2.988e-05
2.9992e-05
3.01004e-05
3.02054e-05
3.0307e-05
3.04054e-05
3.05006e-05
3.05927e-05
3.0682e-05
3.07686e-05
3.08526e-05
3.09343e-05
3.10137e-05
3.10912e-05
3.11668e-05
3.12407e-05
3.1313e-05
3.1384e-05
3.14544e-05
3.15259e-05
3.16024e-05
3.16896e-05
3.17805e-05
2.6195e-05
2.65663e-05
2.7107e-05
2.73843e-05
2.67531e-05
2.57055e-05
2.74465e-05
3.53058e-05
5.15978e-05
7.68557e-05
8.48255e-05
6.03318e-05
7.48703e-05
7.05577e-05
4.20075e-05
2.94142e-05
2.40194e-05
2.31552e-05
2.29562e-05
2.27987e-05
2.24293e-05
2.21662e-05
2.20006e-05
2.1894e-05
2.18218e-05
2.17604e-05
2.17155e-05
2.16834e-05
2.16768e-05
2.16977e-05
2.17416e-05
2.17997e-05
2.18588e-05
2.19186e-05
2.19925e-05
2.21007e-05
2.22855e-05
2.24951e-05
2.26847e-05
2.28596e-05
2.30255e-05
2.31859e-05
2.33437e-05
2.35029e-05
2.36626e-05
2.38336e-05
2.4014e-05
2.41964e-05
2.43766e-05
2.4553e-05
2.47254e-05
2.48938e-05
2.50592e-05
2.52231e-05
2.53858e-05
2.55469e-05
2.57061e-05
2.58631e-05
2.6018e-05
2.61706e-05
2.63205e-05
2.6467e-05
2.66097e-05
2.67486e-05
2.6884e-05
2.70162e-05
2.71453e-05
2.72715e-05
2.73949e-05
2.75155e-05
2.76332e-05
2.77478e-05
2.78593e-05
2.79678e-05
2.80733e-05
2.81761e-05
2.82764e-05
2.83743e-05
2.84702e-05
2.85642e-05
2.86567e-05
2.87479e-05
2.88381e-05
2.89278e-05
2.90174e-05
2.91075e-05
2.91989e-05
2.92924e-05
2.93899e-05
2.94939e-05
2.96071e-05
2.97249e-05
2.81266e-05
2.84618e-05
2.89255e-05
2.91405e-05
2.85062e-05
2.70105e-05
2.71353e-05
3.36131e-05
5.0307e-05
8.09189e-05
9.07716e-05
6.0444e-05
7.53557e-05
6.8755e-05
3.9851e-05
2.79529e-05
2.4167e-05
2.39704e-05
2.39596e-05
2.37568e-05
2.32746e-05
2.28901e-05
2.2611e-05
2.24019e-05
2.22345e-05
2.20815e-05
2.19371e-05
2.17927e-05
2.16594e-05
2.15429e-05
2.14473e-05
2.13719e-05
2.13108e-05
2.12615e-05
2.12259e-05
2.12089e-05
2.12175e-05
2.12498e-05
2.12956e-05
2.13499e-05
2.14098e-05
2.1475e-05
2.15522e-05
2.16565e-05
2.17606e-05
2.19354e-05
2.2109e-05
2.22687e-05
2.24175e-05
2.25586e-05
2.26944e-05
2.28279e-05
2.29648e-05
2.31075e-05
2.32534e-05
2.33996e-05
2.35448e-05
2.36886e-05
2.38309e-05
2.39713e-05
2.41092e-05
2.42438e-05
2.43752e-05
2.45043e-05
2.46319e-05
2.47582e-05
2.48831e-05
2.50064e-05
2.51284e-05
2.52487e-05
2.53667e-05
2.5482e-05
2.55947e-05
2.5705e-05
2.5813e-05
2.59194e-05
2.60244e-05
2.61285e-05
2.62319e-05
2.6335e-05
2.64382e-05
2.65419e-05
2.66466e-05
2.67533e-05
2.6863e-05
2.69767e-05
2.70954e-05
2.72202e-05
2.73521e-05
2.74925e-05
2.76423e-05
2.77987e-05
3.07588e-05
3.01713e-05
2.85165e-05
2.75217e-05
3.21895e-05
4.82765e-05
8.20606e-05
9.67769e-05
6.03778e-05
7.49663e-05
6.55535e-05
3.76815e-05
2.70712e-05
2.48076e-05
2.51301e-05
2.52883e-05
2.50603e-05
2.45208e-05
2.40674e-05
2.3719e-05
2.34457e-05
2.32168e-05
2.30025e-05
2.27915e-05
2.25752e-05
2.23611e-05
2.21563e-05
2.19684e-05
2.18016e-05
2.16519e-05
2.15157e-05
2.13907e-05
2.12767e-05
2.11763e-05
2.10913e-05
2.10204e-05
2.09618e-05
2.09133e-05
2.08737e-05
2.08443e-05
2.08272e-05
2.08238e-05
2.08415e-05
2.08767e-05
2.09218e-05
2.09718e-05
2.10245e-05
2.10809e-05
2.11509e-05
2.12574e-05
2.13871e-05
2.15179e-05
2.16423e-05
2.17632e-05
2.188e-05
2.19934e-05
2.21043e-05
2.22125e-05
2.23185e-05
2.24254e-05
2.25363e-05
2.26505e-05
2.27658e-05
2.28814e-05
2.29968e-05
2.31118e-05
2.32255e-05
2.33371e-05
2.34461e-05
2.3553e-05
2.36584e-05
2.37636e-05
2.38697e-05
2.39772e-05
2.40865e-05
2.41976e-05
2.43108e-05
2.44265e-05
2.45455e-05
2.46694e-05
2.47999e-05
2.49385e-05
2.50866e-05
2.52452e-05
2.54145e-05
2.55946e-05
2.57857e-05
2.59873e-05
2.61974e-05
3.21899e-05
3.16647e-05
3.00536e-05
2.83512e-05
3.11584e-05
4.57407e-05
7.99321e-05
0.000102041
6.01739e-05
7.32927e-05
6.16375e-05
3.55094e-05
2.68087e-05
2.58383e-05
2.65406e-05
2.6854e-05
2.66133e-05
2.60477e-05
2.55539e-05
2.51613e-05
2.48451e-05
2.45736e-05
2.43171e-05
2.40602e-05
2.37956e-05
2.35292e-05
2.32686e-05
2.30232e-05
2.2799e-05
2.25924e-05
2.23984e-05
2.22129e-05
2.20359e-05
2.18676e-05
2.17094e-05
2.15624e-05
2.14255e-05
2.12977e-05
2.11784e-05
2.10678e-05
2.09662e-05
2.08751e-05
2.07961e-05
2.07293e-05
2.0673e-05
2.06255e-05
2.05853e-05
2.05523e-05
2.05289e-05
2.05189e-05
2.05231e-05
2.05379e-05
2.056e-05
2.05884e-05
2.06223e-05
2.06603e-05
2.07017e-05
2.0746e-05
2.0798e-05
2.08743e-05
2.09752e-05
2.10827e-05
2.1187e-05
2.12908e-05
2.13914e-05
2.14899e-05
2.1586e-05
2.16795e-05
2.17707e-05
2.18613e-05
2.19544e-05
2.20541e-05
2.21612e-05
2.22743e-05
2.23924e-05
2.25148e-05
2.26417e-05
2.27743e-05
2.29153e-05
2.30685e-05
2.32365e-05
2.34213e-05
2.36235e-05
2.38424e-05
2.40765e-05
2.43243e-05
2.45843e-05
2.48553e-05
2.51358e-05
3.34134e-05
3.2955e-05
3.1502e-05
2.94722e-05
3.05603e-05
4.29487e-05
7.5246e-05
0.000104068
5.99147e-05
7.06896e-05
5.74371e-05
3.36664e-05
2.70994e-05
2.7209e-05
2.82129e-05
2.86046e-05
2.83611e-05
2.77904e-05
2.72745e-05
2.68527e-05
2.65052e-05
2.62012e-05
2.5912e-05
2.56204e-05
2.53206e-05
2.50176e-05
2.47195e-05
2.4436e-05
2.41742e-05
2.39303e-05
2.3697e-05
2.34718e-05
2.3253e-05
2.3042e-05
2.28389e-05
2.26439e-05
2.2457e-05
2.22782e-05
2.21068e-05
2.19427e-05
2.17861e-05
2.16372e-05
2.14965e-05
2.13641e-05
2.124e-05
2.11237e-05
2.10148e-05
2.09133e-05
2.08194e-05
2.07342e-05
2.06582e-05
2.0591e-05
2.05317e-05
2.048e-05
2.04355e-05
2.03978e-05
2.03663e-05
2.03409e-05
2.03223e-05
2.03129e-05
2.03145e-05
2.03258e-05
2.03444e-05
2.03698e-05
2.04013e-05
2.04381e-05
2.04788e-05
2.05228e-05
2.057e-05
2.06246e-05
2.07017e-05
2.08095e-05
2.09333e-05
2.10635e-05
2.1197e-05
2.13342e-05
2.14773e-05
2.16321e-05
2.18089e-05
2.20127e-05
2.22446e-05
2.25053e-05
2.27917e-05
2.30988e-05
2.34217e-05
2.37572e-05
2.41031e-05
2.4458e-05
2.48214e-05
4.03582e-05
6.91197e-05
9.96906e-05
5.93309e-05
6.77368e-05
5.3308e-05
3.23554e-05
2.78831e-05
2.88604e-05
3.00737e-05
3.05092e-05
3.02707e-05
2.971e-05
2.91848e-05
2.87441e-05
2.83743e-05
2.80458e-05
2.7732e-05
2.74149e-05
2.70895e-05
2.67599e-05
2.64345e-05
2.61238e-05
2.58345e-05
2.55632e-05
2.53017e-05
2.50478e-05
2.47995e-05
2.45572e-05
2.43215e-05
2.40935e-05
2.38733e-05
2.36604e-05
2.34543e-05
2.32547e-05
2.30618e-05
2.28755e-05
2.2696e-05
2.25233e-05
2.23574e-05
2.21982e-05
2.20456e-05
2.18996e-05
2.17603e-05
2.16277e-05
2.1502e-05
2.13832e-05
2.12712e-05
2.11661e-05
2.10677e-05
2.09762e-05
2.08916e-05
2.08137e-05
2.07422e-05
2.06775e-05
2.06202e-05
2.05704e-05
2.05283e-05
2.04937e-05
2.04668e-05
2.04478e-05
2.04368e-05
2.04336e-05
2.0438e-05
2.04513e-05
2.04768e-05
2.05184e-05
2.05777e-05
2.06539e-05
2.07461e-05
2.0855e-05
2.09852e-05
2.11554e-05
2.13949e-05
2.16874e-05
2.20246e-05
2.24025e-05
2.28068e-05
2.32255e-05
2.36521e-05
2.40839e-05
2.45202e-05
2.49613e-05
2.54081e-05
3.79018e-05
6.2176e-05
8.69128e-05
5.68365e-05
6.39998e-05
4.97663e-05
3.16745e-05
2.9108e-05
3.0728e-05
3.20822e-05
3.25522e-05
3.23283e-05
3.17913e-05
3.12677e-05
3.08163e-05
3.04304e-05
3.00827e-05
2.97493e-05
2.94123e-05
2.90676e-05
2.87183e-05
2.8373e-05
2.80427e-05
2.77345e-05
2.74413e-05
2.71584e-05
2.68828e-05
2.6612e-05
2.63465e-05
2.60872e-05
2.58351e-05
2.55904e-05
2.53527e-05
2.51215e-05
2.48965e-05
2.46778e-05
2.44654e-05
2.42594e-05
2.40598e-05
2.38664e-05
2.36792e-05
2.34984e-05
2.33237e-05
2.31554e-05
2.29934e-05
2.28376e-05
2.26882e-05
2.25451e-05
2.24084e-05
2.22782e-05
2.21545e-05
2.20374e-05
2.1927e-05
2.18233e-05