/*--------------------------------*- C++ -*----------------------------------*\
| =========                 |                                                 |
| \\      /  F ield         | OpenFOAM: The Open Source CFD Toolbox           |
|  \\    /   O peration     | Version:  2412                                  |
|   \\  /    A nd           | Website:  www.openfoam.com                      |
|    \\/     M anipulation  |                                                 |
\*---------------------------------------------------------------------------*/
FoamFile
{
    version     2.0;
    format      ascii;
    arch        "LSB;label=32;scalar=64";
    class       volScalarField;
    location    "160";
    object      p;
}
// * * * * * * * * * * * * * * * * * * * * * * * * * * * * * * * * * * * * * //

dimensions      [0 2 -2 0 0 0 0];

internalField   nonuniform List<scalar> 
7423
(
-2246.47
-3136.76
-3675.62
-3711.5
-3492.84
-3085.08
-2802.48
-2603.86
-2415.58
-2248.03
-2106.89
-1984.65
-1876.12
-1778.64
-1690.42
-1609.91
-1536.13
-1468.22
-1405.48
-1347.33
-1293.2
-1242.65
-1195.25
-1150.65
-1108.55
-1068.69
-1030.85
-994.83
-960.456
-927.593
-896.108
-865.888
-836.841
-808.881
-781.929
-755.926
-730.806
-706.523
-683.027
-660.275
-638.231
-616.86
-596.131
-576.014
-556.489
-537.514
-519.096
-501.174
-483.769
-466.814
-450.36
-434.329
-418.719
-403.514
-388.725
-374.312
-360.256
-346.55
-333.191
-320.164
-307.447
-295.024
-282.89
-271.045
-259.468
-248.149
-237.082
-226.237
-215.62
-205.229
-195.052
-185.08
-175.304
-165.72
-156.299
-147.035
-2246.43
-3136.76
-3675.58
-3711.47
-3492.82
-3085.08
-2802.48
-2603.85
-2415.58
-2248.03
-2106.88
-1984.65
-1876.12
-1778.63
-1690.42
-1609.91
-1536.13
-1468.22
-1405.48
-1347.33
-1293.2
-1242.65
-1195.25
-1150.65
-1108.55
-1068.69
-1030.85
-994.83
-960.456
-927.593
-896.107
-865.888
-836.84
-808.881
-781.929
-755.926
-730.806
-706.523
-683.027
-660.275
-638.231
-616.86
-596.131
-576.014
-556.489
-537.514
-519.096
-501.174
-483.769
-466.814
-450.36
-434.329
-418.719
-403.514
-388.725
-374.312
-360.256
-346.55
-333.191
-320.164
-307.447
-295.024
-282.89
-271.045
-259.468
-248.149
-237.082
-226.237
-215.62
-205.229
-195.052
-185.08
-175.304
-165.72
-156.299
-147.034
-2246.31
-3136.61
-3675.45
-3711.4
-3492.78
-3085.07
-2802.47
-2603.85
-2415.57
-2248.03
-2106.88
-1984.65
-1876.12
-1778.63
-1690.41
-1609.91
-1536.13
-1468.22
-1405.48
-1347.33
-1293.2
-1242.65
-1195.25
-1150.65
-1108.55
-1068.69
-1030.85
-994.83
-960.456
-927.592
-896.107
-865.888
-836.84
-808.88
-781.929
-755.926
-730.806
-706.523
-683.027
-660.275
-638.231
-616.859
-596.131
-576.014
-556.489
-537.514
-519.096
-501.174
-483.769
-466.814
-450.36
-434.329
-418.719
-403.514
-388.725
-374.312
-360.256
-346.55
-333.191
-320.164
-307.447
-295.024
-282.89
-271.045
-259.468
-248.148
-237.082
-226.237
-215.62
-205.229
-195.052
-185.08
-175.304
-165.72
-156.299
-147.034
-2246
-3136.22
-3675.11
-3711.21
-3492.69
-3085.03
-2802.45
-2603.84
-2415.57
-2248.03
-2106.88
-1984.65
-1876.12
-1778.63
-1690.41
-1609.91
-1536.13
-1468.22
-1405.48
-1347.33
-1293.2
-1242.65
-1195.25
-1150.65
-1108.55
-1068.69
-1030.85
-994.83
-960.456
-927.592
-896.107
-865.888
-836.84
-808.88
-781.929
-755.926
-730.806
-706.523
-683.027
-660.275
-638.231
-616.859
-596.131
-576.014
-556.489
-537.514
-519.096
-501.174
-483.769
-466.814
-450.36
-434.329
-418.719
-403.514
-388.725
-374.312
-360.256
-346.55
-333.191
-320.164
-307.447
-295.024
-282.89
-271.045
-259.468
-248.148
-237.082
-226.237
-215.62
-205.229
-195.052
-185.08
-175.304
-165.72
-156.299
-147.034
-2245.38
-3135.47
-3674.47
-3710.82
-3492.49
-3084.94
-2802.41
-2603.81
-2415.55
-2248.02
-2106.88
-1984.65
-1876.11
-1778.63
-1690.41
-1609.91
-1536.13
-1468.22
-1405.48
-1347.33
-1293.2
-1242.65
-1195.25
-1150.65
-1108.55
-1068.69
-1030.85
-994.83
-960.456
-927.592
-896.107
-865.888
-836.84
-808.88
-781.929
-755.926
-730.806
-706.523
-683.026
-660.275
-638.231
-616.859
-596.131
-576.014
-556.489
-537.514
-519.096
-501.174
-483.769
-466.814
-450.36
-434.328
-418.719
-403.514
-388.725
-374.312
-360.256
-346.55
-333.191
-320.164
-307.447
-295.024
-282.89
-271.045
-259.468
-248.148
-237.082
-226.237
-215.62
-205.229
-195.052
-185.08
-175.304
-165.72
-156.299
-147.034
-2244.32
-3134.21
-3673.4
-3710.16
-3492.14
-3084.78
-2802.32
-2603.76
-2415.53
-2248.01
-2106.87
-1984.64
-1876.11
-1778.63
-1690.41
-1609.91
-1536.13
-1468.22
-1405.48
-1347.33
-1293.2
-1242.65
-1195.25
-1150.65
-1108.55
-1068.69
-1030.85
-994.829
-960.455
-927.592
-896.107
-865.888
-836.84
-808.88
-781.929
-755.926
-730.805
-706.522
-683.026
-660.275
-638.231
-616.859
-596.131
-576.014
-556.489
-537.514
-519.096
-501.174
-483.768
-466.813
-450.36
-434.328
-418.719
-403.514
-388.724
-374.312
-360.256
-346.55
-333.191
-320.163
-307.447
-295.023
-282.89
-271.045
-259.468
-248.148
-237.082
-226.237
-215.62
-205.229
-195.052
-185.08
-175.304
-165.72
-156.299
-147.034
-2242.69
-3132.3
-3671.78
-3709.16
-3491.59
-3084.51
-2802.18
-2603.67
-2415.48
-2247.98
-2106.85
-1984.63
-1876.1
-1778.62
-1690.41
-1609.91
-1536.13
-1468.21
-1405.48
-1347.33
-1293.2
-1242.65
-1195.24
-1150.64
-1108.55
-1068.69
-1030.85
-994.829
-960.454
-927.591
-896.106
-865.887
-836.839
-808.88
-781.928
-755.926
-730.805
-706.522
-683.026
-660.275
-638.23
-616.859
-596.131
-576.013
-556.489
-537.513
-519.096
-501.174
-483.768
-466.813
-450.36
-434.328
-418.719
-403.514
-388.724
-374.312
-360.256
-346.55
-333.191
-320.163
-307.446
-295.023
-282.89
-271.045
-259.468
-248.148
-237.082
-226.237
-215.62
-205.229
-195.052
-185.08
-175.304
-165.72
-156.299
-147.034
-2240.36
-3129.62
-3669.53
-3707.76
-3490.82
-3084.11
-2801.96
-2603.54
-2415.4
-2247.93
-2106.82
-1984.61
-1876.09
-1778.61
-1690.4
-1609.9
-1536.12
-1468.21
-1405.48
-1347.32
-1293.19
-1242.65
-1195.24
-1150.64
-1108.55
-1068.69
-1030.85
-994.827
-960.453
-927.59
-896.105
-865.886
-836.838
-808.879
-781.928
-755.925
-730.804
-706.521
-683.025
-660.274
-638.23
-616.858
-596.13
-576.013
-556.488
-537.513
-519.096
-501.173
-483.768
-466.813
-450.359
-434.328
-418.719
-403.513
-388.724
-374.312
-360.255
-346.55
-333.191
-320.163
-307.446
-295.023
-282.89
-271.045
-259.468
-248.148
-237.081
-226.237
-215.62
-205.229
-195.052
-185.08
-175.304
-165.72
-156.299
-147.034
-2237.23
-3126.05
-3666.54
-3705.93
-3489.82
-3083.59
-2801.66
-2603.35
-2415.28
-2247.86
-2106.78
-1984.58
-1876.07
-1778.6
-1690.39
-1609.89
-1536.12
-1468.2
-1405.47
-1347.32
-1293.19
-1242.64
-1195.24
-1150.64
-1108.55
-1068.69
-1030.85
-994.825
-960.451
-927.588
-896.103
-865.885
-836.837
-808.877
-781.926
-755.924
-730.803
-706.52
-683.024
-660.273
-638.229
-616.858
-596.13
-576.012
-556.488
-537.512
-519.095
-501.173
-483.767
-466.813
-450.359
-434.328
-418.718
-403.513
-388.724
-374.311
-360.255
-346.55
-333.191
-320.163
-307.446
-295.023
-282.889
-271.045
-259.468
-248.148
-237.081
-226.237
-215.62
-205.229
-195.052
-185.08
-175.304
-165.72
-156.299
-147.034
-3121.43
-3662.71
-3703.58
-3488.54
-3082.92
-2801.27
-2603.11
-2415.13
-2247.76
-2106.71
-1984.53
-1876.04
-1778.58
-1690.37
-1609.88
-1536.1
-1468.2
-1405.46
-1347.31
-1293.18
-1242.64
-1195.23
-1150.63
-1108.54
-1068.68
-1030.84
-994.822
-960.448
-927.585
-896.101
-865.882
-836.835
-808.875
-781.925
-755.922
-730.802
-706.519
-683.023
-660.272
-638.228
-616.856
-596.129
-576.011
-556.487
-537.511
-519.094
-501.172
-483.767
-466.812
-450.358
-434.327
-418.718
-403.513
-388.723
-374.311
-360.255
-346.549
-333.19
-320.163
-307.446
-295.023
-282.889
-271.044
-259.468
-248.148
-237.081
-226.237
-215.619
-205.229
-195.052
-185.08
-175.303
-165.72
-156.298
-147.034
-3657.91
-3700.62
-3486.94
-3082.09
-2800.8
-2602.81
-2414.93
-2247.63
-2106.62
-1984.48
-1876
-1778.55
-1690.35
-1609.86
-1536.09
-1468.18
-1405.45
-1347.3
-1293.18
-1242.63
-1195.23
-1150.63
-1108.54
-1068.68
-1030.84
-994.817
-960.444
-927.581
-896.097
-865.879
-836.832
-808.872
-781.922
-755.919
-730.799
-706.517
-683.021
-660.27
-638.226
-616.855
-596.127
-576.01
-556.485
-537.51
-519.093
-501.171
-483.766
-466.811
-450.357
-434.326
-418.717
-403.512
-388.723
-374.31
-360.254
-346.549
-333.189
-320.162
-307.445
-295.022
-282.889
-271.044
-259.467
-248.147
-237.081
-226.236
-215.619
-205.228
-195.051
-185.079
-175.303
-165.719
-156.298
-147.034
-3696.95
-3484.97
-3081.06
-2800.22
-2602.44
-2414.7
-2247.47
-2106.52
-1984.4
-1875.94
-1778.51
-1690.32
-1609.84
-1536.07
-1468.17
-1405.44
-1347.29
-1293.16
-1242.62
-1195.22
-1150.62
-1108.53
-1068.67
-1030.83
-994.811
-960.438
-927.576
-896.092
-865.874
-836.827
-808.868
-781.918
-755.916
-730.796
-706.514
-683.018
-660.267
-638.224
-616.852
-596.125
-576.008
-556.484
-537.508
-519.091
-501.169
-483.764
-466.809
-450.356
-434.325
-418.716
-403.511
-388.721
-374.309
-360.253
-346.548
-333.189
-320.161
-307.444
-295.021
-282.888
-271.043
-259.466
-248.147
-237.08
-226.236
-215.618
-205.228
-195.051
-185.079
-175.303
-165.719
-156.298
-147.033
-3692.42
-3482.54
-3079.8
-2799.51
-2602
-2414.41
-2247.29
-2106.39
-1984.31
-1875.88
-1778.46
-1690.28
-1609.81
-1536.05
-1468.15
-1405.42
-1347.27
-1293.15
-1242.61
-1195.21
-1150.61
-1108.52
-1068.66
-1030.82
-994.803
-960.431
-927.57
-896.086
-865.868
-836.822
-808.863
-781.913
-755.911
-730.792
-706.51
-683.014
-660.264
-638.22
-616.849
-596.122
-576.005
-556.481
-537.506
-519.089
-501.167
-483.762
-466.808
-450.354
-434.323
-418.714
-403.509
-388.72
-374.308
-360.252
-346.546
-333.187
-320.16
-307.443
-295.02
-282.887
-271.042
-259.465
-248.146
-237.079
-226.235
-215.617
-205.227
-195.05
-185.078
-175.302
-165.718
-156.297
-147.032
-3686.83
-3479.56
-3078.26
-2798.65
-2601.47
-2414.07
-2247.06
-2106.23
-1984.2
-1875.8
-1778.4
-1690.23
-1609.77
-1536.02
-1468.12
-1405.4
-1347.25
-1293.13
-1242.59
-1195.19
-1150.6
-1108.51
-1068.65
-1030.81
-994.794
-960.422
-927.561
-896.078
-865.861
-836.815
-808.857
-781.907
-755.906
-730.787
-706.505
-683.01
-660.26
-638.216
-616.846
-596.118
-576.001
-556.478
-537.503
-519.086
-501.164
-483.76
-466.805
-450.352
-434.321
-418.712
-403.507
-388.718
-374.306
-360.25
-346.545
-333.186
-320.158
-307.442
-295.019
-282.885
-271.041
-259.464
-248.144
-237.078
-226.234
-215.616
-205.226
-195.049
-185.077
-175.301
-165.717
-156.296
-3679.95
-3475.91
-3076.38
-2797.6
-2600.83
-2413.66
-2246.79
-2106.05
-1984.06
-1875.7
-1778.32
-1690.17
-1609.72
-1535.98
-1468.09
-1405.37
-1347.23
-1293.11
-1242.57
-1195.17
-1150.58
-1108.49
-1068.64
-1030.8
-994.782
-960.411
-927.551
-896.069
-865.852
-836.807
-808.849
-781.9
-755.899
-730.78
-706.499
-683.004
-660.254
-638.211
-616.841
-596.114
-575.997
-556.474
-537.499
-519.083
-501.161
-483.756
-466.802
-450.349
-434.318
-418.709
-403.505
-388.716
-374.304
-360.248
-346.543
-333.184
-320.157
-307.44
-295.017
-282.884
-271.039
-259.463
-248.143
-237.076
-226.232
-215.615
-205.224
-195.048
-185.076
-175.3
-165.716
-156.295
-3671.55
-3471.42
-3074.07
-2796.31
-2600.05
-2413.17
-2246.46
-2105.82
-1983.9
-1875.58
-1778.24
-1690.11
-1609.67
-1535.93
-1468.05
-1405.34
-1347.2
-1293.09
-1242.55
-1195.15
-1150.56
-1108.47
-1068.62
-1030.78
-994.768
-960.398
-927.539
-896.058
-865.842
-836.797
-808.84
-781.892
-755.891
-730.773
-706.492
-682.997
-660.248
-638.205
-616.835
-596.109
-575.992
-556.469
-537.495
-519.078
-501.157
-483.752
-466.798
-450.346
-434.315
-418.706
-403.502
-388.713
-374.301
-360.245
-346.54
-333.181
-320.154
-307.438
-295.015
-282.882
-271.037
-259.461
-248.141
-237.075
-226.231
-215.613
-205.223
-195.046
-185.074
-175.298
-165.715
-156.294
-3661.76
-3465.72
-3071.24
-2794.74
-2599.11
-2412.57
-2246.07
-2105.55
-1983.71
-1875.44
-1778.13
-1690.02
-1609.6
-1535.88
-1468
-1405.3
-1347.17
-1293.05
-1242.52
-1195.13
-1150.54
-1108.45
-1068.6
-1030.77
-994.751
-960.383
-927.524
-896.044
-865.829
-836.785
-808.829
-781.881
-755.881
-730.763
-706.483
-682.989
-660.24
-638.198
-616.828
-596.102
-575.986
-556.463
-537.489
-519.073
-501.152
-483.748
-466.794
-450.341
-434.311
-418.702
-403.498
-388.709
-374.298
-360.242
-346.537
-333.179
-320.152
-307.435
-295.013
-282.879
-271.035
-259.458
-248.139
-237.073
-226.229
-215.611
-205.221
-195.044
-185.072
-175.296
-165.713
-156.292
-3650.99
-3458.36
-3067.77
-2792.8
-2597.95
-2411.84
-2245.59
-2105.22
-1983.47
-1875.27
-1778
-1689.92
-1609.52
-1535.81
-1467.95
-1405.25
-1347.12
-1293.02
-1242.48
-1195.1
-1150.51
-1108.43
-1068.58
-1030.74
-994.731
-960.364
-927.507
-896.028
-865.814
-836.771
-808.816
-781.869
-755.869
-730.752
-706.473
-682.98
-660.231
-638.189
-616.82
-596.094
-575.979
-556.456
-537.483
-519.067
-501.146
-483.742
-466.789
-450.337
-434.306
-418.698
-403.494
-388.705
-374.294
-360.238
-346.534
-333.175
-320.148
-307.432
-295.01
-282.876
-271.032
-259.456
-248.136
-237.07
-226.226
-215.609
-205.219
-195.042
-185.07
-175.294
-165.711
-156.29
-3639.12
-3449.16
-3063.5
-2790.42
-2596.53
-2410.95
-2245
-2104.82
-1983.19
-1875.05
-1777.84
-1689.8
-1609.42
-1535.73
-1467.88
-1405.19
-1347.07
-1292.97
-1242.44
-1195.06
-1150.48
-1108.4
-1068.55
-1030.72
-994.707
-960.342
-927.486
-896.009
-865.796
-836.754
-808.8
-781.854
-755.856
-730.739
-706.46
-682.968
-660.22
-638.179
-616.811
-596.085
-575.97
-556.448
-537.475
-519.06
-501.139
-483.736
-466.783
-450.331
-434.301
-418.693
-403.489
-388.701
-374.289
-360.234
-346.53
-333.171
-320.145
-307.428
-295.006
-282.873
-271.029
-259.453
-248.133
-237.067
-226.223
-215.606
-205.216
-195.039
-185.068
-175.292
-165.708
-156.287
-3625.14
-3438.61
-3058.25
-2787.47
-2594.78
-2409.86
-2244.28
-2104.33
-1982.84
-1874.8
-1777.64
-1689.65
-1609.3
-1535.63
-1467.8
-1405.12
-1347.01
-1292.92
-1242.39
-1195.01
-1150.44
-1108.36
-1068.52
-1030.69
-994.678
-960.315
-927.462
-895.986
-865.775
-836.734
-808.781
-781.836
-755.839
-730.724
-706.446
-682.954
-660.207
-638.167
-616.799
-596.075
-575.96
-556.439
-537.466
-519.051
-501.131
-483.728
-466.776
-450.324
-434.294
-418.687
-403.483
-388.695
-374.284
-360.229
-346.525
-333.167
-320.14
-307.424
-295.002
-282.869
-271.025
-259.449
-248.13
-237.064
-226.22
-215.603
-205.213
-195.036
-185.065
-175.289
-165.706
-156.285
-3608.28
-3427.16
-3051.83
-2783.82
-2592.62
-2408.52
-2243.4
-2103.72
-1982.41
-1874.48
-1777.41
-1689.46
-1609.16
-1535.51
-1467.7
-1405.03
-1346.94
-1292.85
-1242.34
-1194.96
-1150.39
-1108.31
-1068.48
-1030.65
-994.644
-960.283
-927.432
-895.958
-865.749
-836.711
-808.759
-781.816
-755.82
-730.706
-706.429
-682.938
-660.192
-638.153
-616.786
-596.062
-575.948
-556.428
-537.456
-519.041
-501.122
-483.719
-466.767
-450.316
-434.287
-418.679
-403.476
-388.688
-374.278
-360.223
-346.519
-333.161
-320.135
-307.419
-294.997
-282.864
-271.02
-259.444
-248.125
-237.06
-226.216
-215.599
-205.209
-195.033
-185.061
-175.285
-165.702
-156.281
-3588.74
-3414.95
-3043.81
-2779.35
-2589.94
-2406.86
-2242.32
-2102.98
-1981.89
-1874.1
-1777.12
-1689.24
-1608.98
-1535.37
-1467.57
-1404.93
-1346.84
-1292.77
-1242.26
-1194.9
-1150.33
-1108.26
-1068.43
-1030.61
-994.603
-960.246
-927.397
-895.926
-865.719
-836.682
-808.733
-781.791
-755.797
-730.684
-706.409
-682.919
-660.174
-638.136
-616.77
-596.047
-575.934
-556.414
-537.443
-519.03
-501.111
-483.709
-466.757
-450.306
-434.278
-418.671
-403.468
-388.681
-374.27
-360.216
-346.512
-333.155
-320.129
-307.413
-294.991
-282.859
-271.015
-259.439
-248.121
-237.055
-226.211
-215.595
-205.205
-195.028
-185.057
-175.281
-165.698
-156.278
-3566.77
-3401.92
-3033.77
-2773.91
-2586.63
-2404.79
-2240.97
-2102.07
-1981.24
-1873.62
-1776.76
-1688.96
-1608.76
-1535.19
-1467.42
-1404.8
-1346.73
-1292.67
-1242.18
-1194.82
-1150.26
-1108.2
-1068.37
-1030.55
-994.555
-960.201
-927.356
-895.887
-865.683
-836.649
-808.701
-781.762
-755.769
-730.659
-706.385
-682.897
-660.153
-638.116
-616.751
-596.03
-575.918
-556.399
-537.428
-519.016
-501.098
-483.696
-466.745
-450.295
-434.267
-418.661
-403.458
-388.672
-374.262
-360.208
-346.504
-333.147
-320.121
-307.406
-294.985
-282.852
-271.009
-259.433
-248.115
-237.049
-226.206
-215.589
-205.2
-195.023
-185.052
-175.277
-165.694
-156.273
-3542.12
-3387.48
-3021.96
-2767.31
-2582.52
-2402.22
-2239.29
-2100.93
-1980.44
-1873.03
-1776.31
-1688.62
-1608.48
-1534.96
-1467.24
-1404.64
-1346.6
-1292.55
-1242.07
-1194.73
-1150.18
-1108.12
-1068.3
-1030.49
-994.496
-960.147
-927.306
-895.841
-865.64
-836.609
-808.664
-781.727
-755.737
-730.628
-706.356
-682.87
-660.128
-638.093
-616.729
-596.009
-575.898
-556.38
-537.411
-518.999
-501.082
-483.682
-466.731
-450.282
-434.254
-418.649
-403.447
-388.661
-374.251
-360.198
-346.495
-333.138
-320.113
-307.398
-294.977
-282.845
-271.002
-259.426
-248.108
-237.042
-226.199
-215.583
-205.194
-195.018
-185.047
-175.271
-165.688
-156.268
-3514.61
-3370.71
-3009.15
-2759.4
-2577.49
-2399.01
-2237.2
-2099.51
-1979.44
-1872.31
-1775.76
-1688.19
-1608.15
-1534.69
-1467.01
-1404.45
-1346.44
-1292.41
-1241.95
-1194.61
-1150.08
-1108.03
-1068.22
-1030.41
-994.427
-960.083
-927.247
-895.787
-865.59
-836.562
-808.621
-781.686
-755.699
-730.593
-706.323
-682.839
-660.099
-638.065
-616.703
-595.984
-575.875
-556.359
-537.39
-518.98
-501.064
-483.664
-466.715
-450.266
-434.24
-418.635
-403.434
-388.648
-374.239
-360.186
-346.484
-333.128
-320.103
-307.388
-294.967
-282.836
-270.993
-259.418
-248.1
-237.035
-226.192
-215.576
-205.186
-195.011
-185.04
-175.265
-165.682
-156.262
-3483.88
-3351.25
-2995.54
-2749.98
-2571.49
-2395.03
-2234.57
-2097.73
-1978.19
-1871.4
-1775.08
-1687.66
-1607.73
-1534.36
-1466.74
-1404.22
-1346.24
-1292.24
-1241.8
-1194.48
-1149.95
-1107.92
-1068.12
-1030.32
-994.344
-960.007
-927.177
-895.722
-865.53
-836.506
-808.569
-781.638
-755.654
-730.55
-706.283
-682.802
-660.064
-638.032
-616.672
-595.955
-575.848
-556.333
-537.366
-518.957
-501.042
-483.644
-466.696
-450.248
-434.222
-418.618
-403.418
-388.633
-374.225
-360.173
-346.471
-333.115
-320.091
-307.377
-294.956
-282.825
-270.983
-259.408
-248.09
-237.026
-226.183
-215.567
-205.178
-195.003
-185.032
-175.257
-165.675
-156.254
-3449.31
-3329.38
-2980.52
-2738.97
-2564.45
-2390.17
-2231.29
-2095.51
-1976.63
-1870.26
-1774.23
-1687.01
-1607.22
-1533.94
-1466.39
-1403.93
-1345.99
-1292.03
-1241.61
-1194.32
-1149.81
-1107.79
-1068
-1030.21
-994.245
-959.916
-927.093
-895.644
-865.458
-836.44
-808.507
-781.58
-755.6
-730.5
-706.236
-682.758
-660.023
-637.994
-616.636
-595.921
-575.816
-556.303
-537.338
-518.93
-501.017
-483.62
-466.673
-450.227
-434.202
-418.599
-403.4
-388.616
-374.208
-360.157
-346.456
-333.101
-320.077
-307.363
-294.944
-282.813
-270.971
-259.397
-248.079
-237.015
-226.173
-215.557
-205.168
-194.993
-185.023
-175.248
-165.666
-3410.46
-3305.15
-2963.54
-2726.49
-2556.11
-2384.36
-2227.21
-2092.7
-1974.67
-1868.84
-1773.17
-1686.19
-1606.58
-1533.43
-1465.97
-1403.58
-1345.69
-1291.77
-1241.38
-1194.12
-1149.63
-1107.63
-1067.86
-1030.08
-994.126
-959.808
-926.993
-895.552
-865.373
-836.361
-808.433
-781.512
-755.536
-730.441
-706.181
-682.706
-659.974
-637.948
-616.593
-595.881
-575.778
-556.267
-537.304
-518.898
-500.987
-483.591
-466.646
-450.201
-434.178
-418.576
-403.378
-388.595
-374.189
-360.138
-346.438
-333.084
-320.06
-307.348
-294.928
-282.798
-270.957
-259.383
-248.066
-237.002
-226.16
-215.545
-205.157
-194.982
-185.012
-175.238
-165.656
-3367.04
-3278.55
-2944.29
-2712.62
-2546.37
-2377.52
-2222.22
-2089.19
-1972.2
-1867.05
-1771.83
-1685.17
-1605.78
-1532.78
-1465.45
-1403.14
-1345.32
-1291.45
-1241.11
-1193.87
-1149.42
-1107.44
-1067.68
-1029.93
-993.984
-959.677
-926.874
-895.442
-865.271
-836.267
-808.346
-781.431
-755.461
-730.37
-706.115
-682.644
-659.917
-637.894
-616.543
-595.833
-575.733
-556.225
-537.264
-518.861
-500.951
-483.558
-466.614
-450.171
-434.15
-418.549
-403.352
-388.571
-374.166
-360.116
-346.417
-333.063
-320.041
-307.329
-294.911
-282.781
-270.941
-259.367
-248.051
-236.987
-226.146
-215.531
-205.143
-194.969
-184.999
-175.225
-165.643
-3249.4
-2922.46
-2697.26
-2535.27
-2369.53
-2216.23
-2084.84
-1969.1
-1864.8
-1770.15
-1683.89
-1604.77
-1531.99
-1464.8
-1402.6
-1344.87
-1291.06
-1240.77
-1193.58
-1149.15
-1107.21
-1067.47
-1029.74
-993.813
-959.521
-926.731
-895.311
-865.15
-836.155
-808.243
-781.335
-755.371
-730.287
-706.037
-682.572
-659.848
-637.83
-616.483
-595.777
-575.68
-556.175
-537.217
-518.817
-500.91
-483.519
-466.577
-450.136
-434.116
-418.518
-403.322
-388.542
-374.138
-360.09
-346.392
-333.04
-320.019
-307.308
-294.89
-282.761
-270.921
-259.349
-248.033
-236.97
-226.129
-215.515
-205.127
-194.953
-184.984
-175.21
-165.629
-3216.65
-2897.86
-2680.18
-2522.77
-2360.34
-2209.21
-2079.55
-1965.21
-1861.95
-1768.03
-1682.27
-1603.52
-1530.98
-1463.99
-1401.93
-1344.3
-1290.58
-1240.36
-1193.22
-1148.84
-1106.92
-1067.22
-1029.51
-993.606
-959.333
-926.559
-895.154
-865.006
-836.022
-808.119
-781.22
-755.265
-730.188
-705.945
-682.485
-659.768
-637.755
-616.412
-595.711
-575.618
-556.117
-537.162
-518.765
-500.861
-483.472
-466.534
-450.095
-434.077
-418.48
-403.287
-388.509
-374.106
-360.06
-346.363
-333.012
-319.992
-307.282
-294.865
-282.738
-270.898
-259.327
-248.012
-236.949
-226.109
-215.496
-205.109
-194.935
-184.966
-175.193
-165.612
-3179.8
-2870.37
-2661.07
-2508.7
-2349.9
-2201.13
-2073.27
-1960.44
-1858.38
-1765.35
-1680.23
-1601.93
-1529.73
-1462.97
-1401.1
-1343.61
-1289.99
-1239.85
-1192.77
-1148.45
-1106.58
-1066.91
-1029.24
-993.357
-959.107
-926.353
-894.965
-864.832
-835.862
-807.972
-781.084
-755.138
-730.071
-705.835
-682.383
-659.673
-637.666
-616.329
-595.633
-575.545
-556.047
-537.097
-518.704
-500.803
-483.418
-466.482
-450.046
-434.031
-418.437
-403.245
-388.469
-374.069
-360.024
-346.329
-332.979
-319.961
-307.252
-294.836
-282.71
-270.872
-259.301
-247.987
-236.925
-226.086
-215.473
-205.086
-194.913
-184.945
-175.173
-165.592
-3138.4
-2839.83
-2639.64
-2492.83
-2338.08
-2191.94
-2065.99
-1954.73
-1853.97
-1761.99
-1677.65
-1599.93
-1528.15
-1461.7
-1400.05
-1342.73
-1289.25
-1239.22
-1192.23
-1147.97
-1106.16
-1066.54
-1028.9
-993.055
-958.834
-926.104
-894.738
-864.624
-835.671
-807.796
-780.921
-754.988
-729.931
-705.705
-682.262
-659.56
-637.56
-616.23
-595.54
-575.458
-555.966
-537.021
-518.631
-500.735
-483.354
-466.421
-449.989
-433.977
-418.385
-403.196
-388.423
-374.025
-359.982
-346.288
-332.941
-319.924
-307.217
-294.802
-282.677
-270.84
-259.271
-247.957
-236.897
-226.058
-215.446
-205.06
-194.888
-184.92
-175.148
-165.568
-3092.02
-2806
-2615.66
-2474.94
-2324.7
-2181.54
-2057.67
-1948.06
-1848.65
-1757.81
-1674.41
-1597.4
-1526.15
-1460.09
-1398.74
-1341.65
-1288.34
-1238.44
-1191.55
-1147.38
-1105.64
-1066.08
-1028.49
-992.687
-958.502
-925.804
-894.464
-864.374
-835.441
-807.585
-780.727
-754.808
-729.764
-705.55
-682.118
-659.425
-637.435
-616.113
-595.43
-575.355
-555.87
-536.93
-518.546
-500.655
-483.278
-466.35
-449.921
-433.913
-418.325
-403.139
-388.368
-373.973
-359.932
-346.241
-332.895
-319.88
-307.175
-294.762
-282.639
-270.803
-259.235
-247.923
-236.863
-226.025
-215.414
-205.03
-194.858
-184.891
-175.12
-165.54
-3040.14
-2768.59
-2588.79
-2454.81
-2309.6
-2169.79
-2048.24
-1940.42
-1842.42
-1752.77
-1670.39
-1594.23
-1523.63
-1458.07
-1397.09
-1340.28
-1287.19
-1237.46
-1190.72
-1146.65
-1105
-1065.52
-1027.99
-992.239
-958.099
-925.439
-894.132
-864.072
-835.165
-807.331
-780.493
-754.592
-729.564
-705.366
-681.947
-659.266
-637.286
-615.974
-595.301
-575.233
-555.756
-536.823
-518.446
-500.56
-483.189
-466.266
-449.842
-433.837
-418.253
-403.071
-388.304
-373.912
-359.874
-346.185
-332.842
-319.83
-307.126
-294.716
-282.594
-270.76
-259.193
-247.882
-236.824
-225.987
-215.377
-204.993
-194.823
-184.857
-175.087
-165.507
-2982.22
-2727.33
-2558.82
-2432.16
-2292.56
-2156.53
-2037.57
-1931.74
-1835.27
-1746.85
-1665.53
-1590.29
-1520.47
-1455.52
-1395.02
-1338.57
-1285.76
-1236.24
-1189.67
-1145.75
-1104.21
-1064.82
-1027.37
-991.69
-957.606
-924.994
-893.73
-863.705
-834.83
-807.024
-780.212
-754.333
-729.325
-705.144
-681.741
-659.075
-637.109
-615.809
-595.146
-575.089
-555.62
-536.696
-518.327
-500.449
-483.084
-466.166
-449.748
-433.749
-418.169
-402.992
-388.228
-373.84
-359.806
-346.12
-332.78
-319.77
-307.069
-294.661
-282.541
-270.709
-259.144
-247.835
-236.778
-225.943
-215.334
-204.951
-194.782
-184.817
-175.048
-165.469
-2917.72
-2681.91
-2525.5
-2406.72
-2273.33
-2141.57
-2025.52
-1921.91
-1827.14
-1740.05
-1659.83
-1585.56
-1516.57
-1452.33
-1392.41
-1336.41
-1283.96
-1234.72
-1188.37
-1144.63
-1103.24
-1063.96
-1026.62
-991.014
-957.002
-924.451
-893.239
-863.26
-834.425
-806.654
-779.872
-754.021
-729.038
-704.879
-681.496
-658.847
-636.897
-615.612
-594.963
-574.918
-555.46
-536.546
-518.186
-500.316
-482.959
-466.049
-449.638
-433.645
-418.071
-402.898
-388.14
-373.756
-359.725
-346.044
-332.707
-319.7
-307.003
-294.597
-282.479
-270.65
-259.087
-247.78
-236.725
-225.891
-215.283
-204.902
-194.734
-184.77
-175.002
-165.424
-2846.1
-2632.09
-2488.46
-2378.27
-2251.68
-2124.69
-2011.91
-1910.78
-1817.92
-1732.31
-1653.29
-1580.03
-1511.91
-1448.43
-1389.15
-1333.7
-1281.69
-1232.81
-1186.74
-1143.23
-1102.02
-1062.9
-1025.68
-990.181
-956.258
-923.784
-892.638
-862.716
-833.931
-806.203
-779.46
-753.643
-728.69
-704.559
-681.2
-658.573
-636.643
-615.376
-594.743
-574.713
-555.269
-536.367
-518.019
-500.159
-482.811
-465.91
-449.507
-433.521
-417.954
-402.788
-388.035
-373.657
-359.631
-345.954
-332.621
-319.619
-306.924
-294.521
-282.407
-270.58
-259.02
-247.715
-236.662
-225.83
-215.224
-204.845
-194.678
-184.716
-174.949
-165.371
-2766.89
-2577.56
-2447.41
-2346.49
-2227.39
-2105.71
-1996.57
-1898.21
-1807.48
-1723.54
-1645.85
-1573.68
-1506.48
-1443.79
-1385.21
-1330.36
-1278.87
-1230.42
-1184.7
-1141.47
-1100.5
-1061.57
-1024.51
-989.148
-955.339
-922.962
-891.899
-862.049
-833.326
-805.654
-778.959
-753.184
-728.269
-704.171
-680.843
-658.243
-636.338
-615.092
-594.48
-574.468
-555.04
-536.154
-517.819
-499.972
-482.636
-465.745
-449.352
-433.376
-417.816
-402.657
-387.912
-373.54
-359.52
-345.848
-332.521
-319.523
-306.833
-294.434
-282.322
-270.499
-258.942
-247.64
-236.59
-225.76
-215.156
-204.778
-194.613
-184.653
-174.888
-165.311
-2679.81
-2518.2
-2402.09
-2310.88
-2200.05
-2084.34
-1979.27
-1884
-1795.68
-1713.6
-1637.41
-1566.46
-1500.27
-1438.43
-1380.57
-1326.35
-1275.41
-1227.45
-1182.16
-1139.28
-1098.6
-1059.92
-1023.06
-987.865
-954.2
-921.945
-890.987
-861.228
-832.584
-804.98
-778.346
-752.624
-727.757
-703.701
-680.41
-657.844
-635.969
-614.751
-594.163
-574.173
-554.766
-535.898
-517.58
-499.749
-482.427
-465.549
-449.168
-433.202
-417.653
-402.503
-387.766
-373.402
-359.389
-345.724
-332.402
-319.41
-306.725
-294.33
-282.223
-270.404
-258.851
-247.552
-236.505
-225.677
-215.076
-204.701
-194.538
-184.58
-174.817
-165.241
-2584.24
-2454.19
-2352.73
-2271.39
-2169.49
-2060.35
-1959.8
-1867.98
-1782.34
-1702.37
-1627.84
-1558.27
-1493.2
-1432.29
-1375.23
-1321.68
-1271.33
-1223.87
-1179.03
-1136.56
-1096.24
-1057.85
-1021.25
-986.27
-952.786
-920.685
-889.859
-860.214
-831.67
-804.152
-777.594
-751.939
-727.131
-703.127
-679.883
-657.359
-635.521
-614.337
-593.78
-573.818
-554.436
-535.591
-517.294
-499.482
-482.176
-465.314
-448.948
-432.996
-417.458
-402.319
-387.593
-373.239
-359.234
-345.576
-332.262
-319.277
-306.599
-294.209
-282.107
-270.293
-258.744
-247.45
-236.406
-225.582
-214.983
-204.611
-194.451
-184.495
-174.735
-165.161
-2478.68
-2384.1
-2298.32
-2227.45
-2135.37
-2033.52
-1937.95
-1849.93
-1767.3
-1689.67
-1617.03
-1548.98
-1485.18
-1425.32
-1369.13
-1316.32
-1266.6
-1219.69
-1175.33
-1133.29
-1093.34
-1055.3
-1019
-984.285
-951.029
-919.121
-888.461
-858.96
-830.539
-803.131
-776.667
-751.096
-726.362
-702.424
-679.239
-656.767
-634.976
-613.835
-593.315
-573.388
-554.037
-535.219
-516.949
-499.16
-481.876
-465.032
-448.685
-432.749
-417.226
-402.1
-387.387
-373.044
-359.05
-345.402
-332.097
-319.12
-306.449
-294.066
-281.97
-270.162
-258.619
-247.33
-236.291
-225.47
-214.875
-204.507
-194.35
-184.397
-174.64
-165.068
-2366.99
-2309.66
-2239.01
-2178.59
-2097.16
-2003.42
-1913.42
-1829.63
-1750.34
-1675.35
-1604.81
-1538.49
-1476.11
-1417.42
-1362.2
-1310.22
-1261.19
-1214.88
-1171.04
-1129.45
-1089.91
-1052.23
-1016.25
-981.837
-948.848
-917.179
-886.727
-857.406
-829.141
-801.868
-775.524
-750.058
-725.417
-701.561
-678.449
-656.043
-634.31
-613.221
-592.749
-572.865
-553.552
-534.769
-516.531
-498.771
-481.513
-464.693
-448.368
-432.452
-416.948
-401.837
-387.14
-372.812
-358.831
-345.194
-331.9
-318.934
-306.272
-293.898
-281.809
-270.009
-258.472
-247.189
-236.156
-225.34
-214.749
-204.385
-194.233
-184.284
-174.531
-164.961
114.628
-308.528
-785.55
-1271.14
-1708.66
-2025.74
-2249.25
-2231.27
-2175.56
-2125.17
-2054.75
-1969.79
-1885.89
-1806.77
-1731.21
-1659.17
-1591
-1526.61
-1465.83
-1408.46
-1354.35
-1303.28
-1255.04
-1209.39
-1166.13
-1125.04
-1085.93
-1048.65
-1013.02
-978.916
-946.21
-914.798
-884.584
-855.48
-827.409
-800.306
-774.112
-748.777
-724.251
-700.498
-677.477
-655.153
-633.494
-612.47
-592.057
-572.226
-552.961
-534.222
-516.024
-498.299
-481.073
-464.282
-447.986
-432.095
-416.612
-401.522
-386.845
-372.535
-358.569
-344.946
-331.665
-318.712
-306.063
-293.697
-281.618
-269.827
-258.298
-247.023
-235.998
-225.187
-214.602
-204.243
-194.096
-184.152
-174.404
-164.838
133.404
-261.648
-706.914
-1164.11
-1584.68
-1901.26
-2123.56
-2143.68
-2106.05
-2066.56
-2007.73
-1932.31
-1855.12
-1781.1
-1709.66
-1640.9
-1575.37
-1513.16
-1454.17
-1398.3
-1345.43
-1295.41
-1248.05
-1203.15
-1160.53
-1119.99
-1081.38
-1044.51
-1009.27
-975.507
-943.111
-911.979
-882.016
-853.142
-825.283
-798.378
-772.364
-747.192
-722.813
-699.188
-676.281
-654.058
-632.49
-611.548
-591.208
-571.443
-552.238
-533.553
-515.405
-497.725
-480.539
-463.783
-447.523
-431.663
-416.207
-401.141
-386.489
-372.201
-358.254
-344.648
-331.385
-318.448
-305.812
-293.459
-281.391
-269.611
-258.093
-246.827
-235.812
-225.008
-214.429
-204.077
-193.936
-183.999
-174.258
-164.696
150.35
-217.565
-631.405
-1059.35
-1460.01
-1772.21
-1994.71
-2049.22
-2031.87
-2003.52
-1956.29
-1890.94
-1821.01
-1752.51
-1685.55
-1620.41