/*--------------------------------*- C++ -*----------------------------------*\
| =========                 |                                                 |
| \\      /  F ield         | OpenFOAM: The Open Source CFD Toolbox           |
|  \\    /   O peration     | Version:  2412                                  |
|   \\  /    A nd           | Website:  www.openfoam.com                      |
|    \\/     M anipulation  |                                                 |
\*---------------------------------------------------------------------------*/
FoamFile
{
    version     2.0;
    format      ascii;
    arch        "LSB;label=32;scalar=64";
    class       volScalarField;
    location    "160";
    object      p;
}
// * * * * * * * * * * * * * * * * * * * * * * * * * * * * * * * * * * * * * //

dimensions      [0 2 -2 0 0 0 0];

internalField   nonuniform List<scalar> 
8553
(
170.633
185.971
106.082
160.007
165.568
141.296
87.7742
98.8228
125.951
131.279
132.965
130.701
126.704
121.852
118.848
117.044
115.906
115.236
114.26
112.445
110.215
107.703
105.195
102.967
100.869
98.8513
96.7755
94.6289
92.4558
90.3001
88.1897
86.1089
84.0445
81.9881
79.9481
77.93
75.9356
73.965
72.0168
70.0918
68.191
66.3153
64.465
62.6401
60.8409
59.0678
57.3206
55.5996
53.9044
52.235
50.5913
48.9731
47.3802
45.8122
44.269
42.7501
41.255
39.7831
38.3339
36.9068
35.5014
34.1175
32.7544
31.4117
30.0892
28.7868
27.504
26.2407
24.9964
23.7701
22.562
21.3726
20.2025
19.0516
17.9193
16.8045
15.7096
14.6375
66.1022
66.0704
67.0418
66.7201
63.932
56.4974
42.1724
3.20384
-26.4512
9.60154
78.8113
117.515
110.827
37.793
52.7333
170.434
185.727
106.293
159.96
165.535
141.351
87.9119
98.8425
125.93
131.266
132.959
130.698
126.704
121.852
118.848
117.044
115.906
115.235
114.26
112.445
110.215
107.703
105.195
102.966
100.869
98.8511
96.7754
94.6288
92.4557
90.3
88.1896
86.1089
84.0444
81.988
79.9481
77.9299
75.9356
73.965
72.0168
70.0918
68.191
66.3153
64.465
62.6401
60.8409
59.0677
57.3206
55.5996
53.9044
52.2349
50.5913
48.9731
47.3802
45.8122
44.269
42.7501
41.255
39.7831
38.3339
36.9068
35.5014
34.1175
32.7544
31.4117
30.0892
28.7868
27.504
26.2407
24.9964
23.7701
22.562
21.3726
20.2025
19.0516
17.9193
16.8045
15.7096
14.6375
66.1024
66.0706
67.0406
66.7165
63.9249
56.4823
42.1444
3.20412
-26.3318
9.73488
78.8291
117.408
110.761
38.1084
52.7741
170.244
185.508
106.55
159.919
165.513
141.437
88.0933
98.8813
125.908
131.25
132.951
130.694
126.703
121.853
118.849
117.044
115.905
115.234
114.259
112.444
110.215
107.703
105.195
102.966
100.869
98.851
96.7753
94.6287
92.4556
90.2999
88.1895
86.1088
84.0444
81.988
79.9481
77.9299
75.9356
73.965
72.0168
70.0918
68.191
66.3153
64.465
62.6401
60.8409
59.0677
57.3206
55.5996
53.9044
52.2349
50.5913
48.9731
47.3802
45.8122
44.269
42.7501
41.255
39.7831
38.3339
36.9068
35.5014
34.1175
32.7544
31.4117
30.0893
28.7868
27.504
26.2407
24.9964
23.7701
22.562
21.3726
20.2025
19.0516
17.9193
16.8045
15.7096
14.6375
66.103
66.071
67.0392
66.7123
63.9164
56.4648
42.1157
3.22626
-26.1589
9.90602
78.8268
117.297
110.665
38.5044
52.8347
169.995
185.376
106.882
159.884
165.498
141.561
88.3583
98.9662
125.889
131.231
132.941
130.689
126.701
121.855
118.851
117.045
115.906
115.233
114.257
112.443
110.214
107.703
105.195
102.966
100.869
98.8509
96.7751
94.6286
92.4556
90.2999
88.1895
86.1088
84.0443
81.988
79.9481
77.9299
75.9356
73.965
72.0168
70.0918
68.191
66.3153
64.465
62.6401
60.8409
59.0678
57.3206
55.5996
53.9044
52.235
50.5913
48.9731
47.3802
45.8123
44.269
42.7502
41.2551
39.7832
38.3339
36.9068
35.5015
34.1175
32.7544
31.4117
30.0893
28.7868
27.504
26.2407
24.9964
23.7701
22.562
21.3726
20.2025
19.0516
17.9193
16.8045
15.7096
14.6375
66.1044
66.0721
67.0376
66.7069
63.9059
56.4446
42.0906
3.30372
-25.8683
10.1401
78.7655
117.246
110.621
39.0781
52.9444
169.603
185.28
107.242
159.879
165.46
141.761
88.7556
99.1269
125.876
131.206
132.925
130.68
126.699
121.858
118.855
117.048
115.907
115.233
114.256
112.442
110.213
107.702
105.195
102.966
100.869
98.8507
96.775
94.6285
92.4555
90.2999
88.1895
86.1088
84.0443
81.988
79.9481
77.9299
75.9356
73.965
72.0168
70.0918
68.191
66.3153
64.465
62.6401
60.841
59.0678
57.3207
55.5996
53.9044
52.235
50.5913
48.9732
47.3803
45.8123
44.2691
42.7502
41.2551
39.7832
38.334
36.9069
35.5015
34.1176
32.7544
31.4118
30.0893
28.7869
27.5041
26.2408
24.9964
23.7702
22.562
21.3727
20.2026
19.0516
17.9193
16.8046
15.7096
14.6376
66.1077
66.0747
67.0356
66.6994
63.8912
56.419
42.0717
3.47482
-25.3886
10.4731
78.7283
117.263
110.706
39.9209
53.1159
169.031
185.099
107.539
159.965
165.395
142.075
89.3192
99.3898
125.869
131.172
132.902
130.667
126.696
121.863
118.862
117.053
115.909
115.232
114.254
112.44
110.212
107.702
105.195
102.967
100.869
98.8507
96.7749
94.6284
92.4555
90.2999
88.1896
86.1089
84.0444
81.988
79.9481
77.93
75.9357
73.9651
72.0169
70.0919
68.1911
66.3154
64.4651
62.6402
60.8411
59.0679
57.3208
55.5997
53.9046
52.2351
50.5914
48.9733
47.3804
45.8124
44.2692
42.7503
41.2552
39.7833
38.3341
36.907
35.5016
34.1177
32.7546
31.4119
30.0894
28.787
27.5042
26.2409
24.9966
23.7703
22.5622
21.3728
20.2027
19.0517
17.9195
16.8047
15.7098
14.6377
66.1138
66.0796
67.033
66.6886
63.8708
56.3862
42.0624
3.77927
-24.643
10.9771
78.7806
117.282
110.939
41.0483
53.2612
168.178
184.802
107.749
160.192
165.366
142.526
90.0551
99.7931
125.862
131.126
132.868
130.649
126.691
121.872
118.874
117.062
115.913
115.232
114.251
112.437
110.211
107.702
105.196
102.967
100.87
98.8507
96.7748
94.6283
92.4556
90.3001
88.1897
86.109
84.0445
81.9882
79.9483
77.9302
75.9359
73.9652
72.0171
70.0921
68.1913
66.3156
64.4653
62.6404
60.8413
59.0681
57.321
55.5999
53.9048
52.2353
50.5916
48.9735
47.3806
45.8126
44.2694
42.7505
41.2554
39.7835
38.3343
36.9072
35.5018
34.1179
32.7547
31.4121
30.0896
28.7872
27.5044
26.2411
24.9967
23.7704
22.5623
21.373
20.2029
19.0519
17.9196
16.8049
15.7099
14.6378
66.1242
66.0881
67.0299
66.6736
63.8427
56.3446
42.0666
4.25631
-23.5719
11.6904
78.8862
117.297
111.366
42.3387
53.2491
167.015
184.299
107.985
160.583
165.385
143.274
90.9535
100.379
125.847
131.068
132.822
130.622
126.685
121.887
118.892
117.075
115.921
115.233
114.247
112.434
110.208
107.702
105.197
102.968
100.87
98.8508
96.7747
94.6284
92.4558
90.3004
88.19
86.1093
84.0448
81.9884
79.9486
77.9305
75.9362
73.9656
72.0174
70.0924
68.1916
66.316
64.4657
62.6408
60.8416
59.0684
57.3213
55.6003
53.9051
52.2357
50.592
48.9738
47.3809
45.8129
44.2697
42.7509
41.2557
39.7838
38.3346
36.9075
35.5021
34.1182
32.755
31.4124
30.0899
28.7875
27.5047
26.2414
24.997
23.7707
22.5626
21.3733
20.2031
19.0522
17.9199
16.8052
15.7102
14.6381
66.1406
66.1017
67.0265
66.6532
63.8056
56.2939
42.0887
4.93819
-22.141
12.6789
79.0298
117.352
112.071
43.6205
52.8805
165.539
183.364
108.351
161.164
165.423
144.322
92.1936
101.173
125.825
130.997
132.76
130.587
126.677
121.909
118.919
117.096
115.932
115.234
114.241
112.428
110.205
107.701
105.199
102.97
100.871
98.8512
96.7748
94.6286
92.4562
90.3009
88.1906
86.1098
84.0452
81.9889
79.9491
77.931
75.9367
73.966
72.0179
70.0929
68.1921
66.3164
64.4662
62.6412
60.8421
59.0689
57.3218
55.6008
53.9056
52.2361
50.5924
48.9743
47.3814
45.8134
44.2702
42.7513
41.2562
39.7843
38.3351
36.908
35.5026
34.1186
32.7555
31.4129
30.0904
28.7879
27.5051
26.2418
24.9975
23.7712
22.5631
21.3737
20.2036
19.0526
17.9203
16.8056
15.7106
14.6386
66.1649
66.1223
67.0231
66.627
63.7585
56.235
42.135
5.85122
-20.3119
14.1507
79.0285
117.52
113.166
44.7939
52.0888
163.68
182.077
108.725
161.791
165.428
145.544
93.9164
102.193
125.786
130.913
132.682
130.542
126.668
121.939
118.957
117.124
115.948
115.237
114.235
112.422
110.202
107.701
105.202
102.973
100.873
98.8518
96.7749
94.6289
92.4568
90.3018
88.1914
86.1105
84.0459
81.9896
79.9498
77.9317
75.9374
73.9668
72.0186
70.0936
68.1928
66.3172
64.4669
62.642
60.8428
59.0697
57.3225
55.6015
53.9063
52.2369
50.5932
48.975
47.3821
45.8141
44.2709
42.752
41.2569
39.785
38.3358
36.9086
35.5033
34.1193
32.7562
31.4135
30.091
28.7886
27.5058
26.2424
24.9981
23.7718
22.5637
21.3743
20.2042
19.0533
17.921
16.8062
15.7113
14.6392
66.1519
67.0205
66.5947
63.7014
56.171
42.2144
7.01616
-17.9918
16.2336
78.9081
117.719
114.723
45.7397
50.9445
161.19
180.546
108.937
162.326
165.293
147.065
95.9985
103.456
125.728
130.818
132.587
130.485
126.658
121.98
119.008
117.162
115.97
115.242
114.226
112.414
110.197
107.701
105.205
102.976
100.876
98.8528
96.7754
94.6295
92.4578
90.303
88.1926
86.1116
84.0469
81.9906
79.9508
77.9327
75.9384
73.9678
72.0197
70.0946
68.1938
66.3182
64.4679
62.643
60.8438
59.0707
57.3235
55.6025
53.9073
52.2378
50.5941
48.9759
47.3831
45.8151
44.2718
42.753
41.2578
39.7859
38.3367
36.9096
35.5042
34.1202
32.7571
31.4144
30.0919
28.7895
27.5067
26.2433
24.999
23.7727
22.5646
21.3752
20.2051
19.0541
17.9218
16.807
15.7121
14.64
13.5856
12.5468
11.5251
66.1926
67.0196
66.5566
63.6354
56.1064
42.3383
8.45592
-15.5524
19.1295
79.0345
117.88
116.644
46.2465
49.5438
158.088
178.595
108.952
162.758
164.936
148.85
98.4383
104.96
125.656
130.718
132.473
130.418
126.648
122.034
119.073
117.212
116
115.249
114.216
112.404
110.192
107.701
105.21
102.981
100.879
98.8543
96.7761
94.6304
92.4592
90.3047
88.1942
86.1131
84.0483
81.992
79.9522
77.9342
75.9399
73.9692
72.0211
70.096
68.1952
66.3196
64.4693
62.6444
60.8452
59.072
57.3249
55.6038
53.9086
52.2392
50.5955
48.9773
47.3844
45.8164
44.2731
42.7543
41.2591
39.7872
38.338
36.9108
35.5054
34.1214
32.7583
31.4156
30.0931
28.7907
27.5079
26.2445
25.0002
23.7738
22.5657
21.3763
20.2062
19.0553
17.9229
16.8082
15.7132
14.6411
13.5868
12.5479
11.5262
66.2467
67.0219
66.514
63.5627
56.0483
42.5063
10.1942
-12.7006
22.5933
79.4268
118.189
118.7
46.376
47.3685
154.729
176.19
108.711
162.974
164.702
150.823
101.247
106.686
125.598
130.615
132.344
130.339
126.637
122.101
119.154
117.275
116.038
115.258
114.205
112.392
110.185
107.702
105.217
102.988
100.884
98.8564
96.7772
94.6318
92.4612
90.307
88.1965
86.1151
84.0502
81.9939
79.9542
77.9361
75.9417
73.9711
72.0229
70.0979
68.1971
66.3214
64.4711
62.6461
60.847
59.0738
57.3266
55.6055
53.9103
52.2409
50.5972
48.979
47.3861
45.8181
44.2748
42.7559
41.2608
39.7888
38.3396
36.9124
35.507
34.1231
32.7599
31.4172
30.0947
28.7922
27.5094
26.246
25.0017
23.7754
22.5672
21.3778
20.2077
19.0567
17.9244
16.8096
15.7147
14.6426
13.5882
12.5494
11.5276
66.3162
67.029
66.4687
63.487
56.0064
42.7259
12.2303
-8.93957
26.1047
80.2539
118.751
120.61
46.5189
43.7086
150.905
173.309
108.155
162.84
165.21
152.652
104.404
108.615
125.575
130.513
132.2
130.251
126.628
122.184
119.253
117.353
116.085
115.271
114.192
112.378
110.178
107.704
105.226
102.996
100.889
98.8593
96.7787
94.6337
92.4637
90.3101
88.1994
86.1178
84.0527
81.9963
79.9566
77.9386
75.9442
73.9735
72.0253
70.1002
68.1994
66.3237
64.4734
62.6484
60.8492
59.076
57.3289
55.6078
53.9126
52.2431
50.5994
48.9812
47.3882
45.8202
44.2769
42.758
41.2629
39.7909
38.3417
36.9145
35.5091
34.1251
32.7619
31.4192
30.0967
28.7942
27.5114
26.248
25.0036
23.7773
22.5692
21.3798
20.2096
19.0586
17.9263
16.8115
15.7166
14.6444
13.5901
12.5512
11.5295
66.4033
67.0432
66.4238
63.4136
55.9918
43.0236
14.5679
-4.74697
29.6214
81.5402
119.329
122.192
46.4933
38.8515
146.307
169.813
107.201
162.363
166.394
153.651
107.845
110.726
125.586
130.447
132.045
130.155
126.622
122.283
119.37
117.445
116.142
115.288
114.178
112.363
110.169
107.706
105.236
103.006
100.897
98.8631
96.7809
94.6362
92.467
90.3139
88.2031
86.1212
84.0558
81.9994
79.9597
77.9417
75.9473
73.9765
72.0283
70.1032
68.2024
66.3266
64.4763
62.6513
60.8521
59.0789
57.3317
55.6106
53.9154
52.2459
50.6021
48.9839
47.391
45.8229
44.2796
42.7607
41.2655
39.7935
38.3443
36.9171
35.5117
34.1276
32.7645
31.4217
30.0992
28.7967
27.5139
26.2505
25.0061
23.7797
22.5716
21.3822
20.212
19.061
17.9286
16.8139
15.7189
14.6468
13.5924
12.5535
11.5318
66.5098
67.067
66.383
63.3492
56.019
43.4229
17.2043
-0.073157
33.0463
82.8527
118.983
123.181
45.8057
33.0698
141.002
165.336
105.725
161.347
167.547
154.159
111.477
113.011
125.651
130.406
131.885
130.053
126.619
122.397
119.506
117.554
116.209
115.309
114.163
112.346
110.161
107.708
105.249
103.018
100.906
98.868
96.7839
94.6394
92.4712
90.3187
88.2077
86.1254
84.0597
82.0032
79.9636
77.9455
75.9511
73.9802
72.032
70.1069
68.206
66.3302
64.4799
62.6549
60.8556
59.0824
57.3352
55.614
53.9188
52.2493
50.6055
48.9872
47.3943
45.8262
44.2829
42.764
41.2688
39.7968
38.3475
36.9203
35.5148
34.1308
32.7676
31.4248
30.1023
28.7998
27.5169
26.2535
25.0091
23.7827
22.5745
21.3851
20.2149
19.0639
17.9315
16.8167
15.7218
14.6496
13.5952
12.5563
11.5346
66.6372
67.1034
66.3515
63.3022
56.1022
43.9707
20.1446
4.99807
36.3808
84.6036
117.493
123.237
44.4977
26.3252
135.001
160.361
103.558
159.649
169.031
154.8
115.203
115.444
125.822
130.371
131.727
129.949
126.621
122.528
119.66
117.679
116.289
115.335
114.148
112.329
110.151
107.712
105.264
103.033
100.917
98.8739
96.7876
94.6434
92.4763
90.3245
88.2133
86.1304
84.0644
82.0079
79.9683
77.9502
75.9557
73.9848
72.0364
70.1113
68.2104
66.3346
64.4842
62.6591
60.8599
59.0866
57.3394
55.6182
53.9229
52.2534
50.6096
48.9913
47.3983
45.8302
44.2869
42.7679
41.2727
39.8007
38.3513
36.9241
35.5186
34.1346
32.7713
31.4286
30.106
28.8035
27.5206
26.2571
25.0127
23.7863
22.5781
21.3887
20.2184
19.0674
17.935
16.8202
15.7253
14.6531
13.5986
12.5598
11.5381
67.1561
66.3355
63.2828
56.2571
44.7072
23.2878
10.3868
39.6725
87.2965
115.797
121.824
43.0665
18.6091
128.391
155.503
100.593
157.747
171.23
155.421
118.95
117.949
126.142
130.388
131.576
129.848
126.631
122.675
119.833
117.821
116.385
115.361
114.133
112.31
110.141
107.717
105.281
103.05
100.93
98.8811
96.7922
94.6483
92.4823
90.3313
88.2199
86.1365
84.0701
82.0134
79.9739
77.9558
75.9611
73.9901
72.0417
70.1166
68.2156
66.3398
64.4893
62.6643
60.8649
59.0916
57.3444
55.6232
53.9278
52.2583
50.6145
48.9961
47.4031
45.835
44.2916
42.7727
41.2774
39.8053
38.356
36.9287
35.5232
34.1391
32.7758
31.4331
30.1105
28.8079
27.5249
26.2615
25.017
23.7906
22.5824
21.3929
20.2227
19.0716
17.9392
16.8244
15.7294
14.6572
13.6027
12.5639
11.5422
63.3028
56.5039
45.6107
26.6118
16.0463
43.0663
90.2828
113.719
118.543
40.6771
9.9271
121.325
150.4
96.8839
156.228
173.308
156.04
122.698
120.496
126.63
130.458
131.44
129.757
126.651
122.836
120.022
117.979
116.495
115.39
114.121
112.291
110.131
107.723
105.3
103.069
100.944
98.8896
96.7977
94.6542
92.4894
90.3393
88.2275
86.1436
84.0767
82.0199
79.9804
77.9623
75.9676
73.9964
72.048
70.1227
68.2217
66.3459
64.4954
62.6703
60.8709
59.0976
57.3503
55.629
53.9336
52.2641
50.6202
49.0019
47.4088
45.8407
44.2972
42.7782
41.2829
39.8108
38.3614
36.9341
35.5286
34.1445
32.7812
31.4383
30.1157
28.8131
27.5301
26.2666
25.0221
23.7957
22.5874
21.3979
20.2277
19.0766
17.9442
16.8293
15.7343
14.6621
13.6076
12.5687
11.547
63.3758
56.8598
46.705
30.1789
21.8766
46.5538
92.3938
111.284
113.148
36.4908
0.509499
114.141
145.305
92.8078
156.452
173.915
157.126
126.206
123.069
127.316
130.584
131.328
129.684
126.679
123.011
120.229
118.153
116.615
115.427
114.11
112.272
110.12
107.729
105.322
103.09
100.961
98.8993
96.8042
94.6609
92.4975
90.3484
88.2363
86.1517
84.0843
82.0274
79.9879
77.9698
75.975
74.0037
72.0552
70.1299
68.2289
66.3529
64.5024
62.6772
60.8778
59.1044
57.3571
55.6358
53.9404
52.2708
50.6269
49.0085
47.4154
45.8472
44.3038
42.7847
41.2894
39.8172
38.3678
36.9405
35.5349
34.1507
32.7874
31.4445
30.1219
28.8192
27.5362
26.2726
25.0281
23.8016
22.5934
21.4038
20.2335
19.0824
17.95
16.8351
15.7401
14.6678
13.6133
12.5744
11.5528
63.5176
57.3452
48.009
33.9289
27.7992
50.1449
92.7169
108.738
104.729
31.5258
-9.26379
107.087
141.676
89.2538
157.989
172.25
158.639
129.421
125.639
128.226
130.758
131.256
129.64
126.715
123.204
120.451
118.341
116.746
115.474
114.1
112.253
110.11
107.738
105.345
103.113
100.979
98.9104
96.8117
94.6686
92.5067
90.3585
88.2462
86.1609
84.0929
82.0359
79.9965
77.9783
75.9834
74.012
72.0634
70.1381
68.237
66.361
64.5104
62.6852
60.8858
59.1123
57.365
55.6436
53.9482
52.2785
50.6346
49.0162
47.4231
45.8548
44.3113
42.7922
41.2968
39.8246
38.3752
36.9478
35.5422
34.158
32.7946
31.4517
30.129
28.8263
27.5432
26.2796
25.035
23.8085
22.6002
21.4107
20.2404
19.0892
17.9567
16.8418
15.7468
14.6745
13.6199
12.581
11.5594
63.7489
57.9918
49.5743
37.865
33.7487
53.8528
91.164
106.89
94.9058
25.9237
-18.8651
100.818
140.807
87.7529
161.008
170.304
159.964
132.604
128.192
129.309
131.021
131.243
129.625
126.76
123.412
120.687
118.543
116.888
115.53
114.095
112.236
110.101
107.746
105.371
103.139
100.999
98.9226
96.82
94.6771
92.5168
90.3698
88.2572
86.1712
84.1025
82.0455
80.0061
77.9879
75.9929
74.0214
72.0727
70.1473
68.2462
66.3702
64.5195
62.6943
60.8948
59.1214
57.3739
55.6526
53.9571
52.2874
50.6434
49.025
47.4318
45.8635
44.32
42.8008
41.3054
39.8332
38.3836
36.9562
35.5505
34.1663
32.8029
31.4599
30.1372
28.8344
27.5513
26.2877
25.043
23.8165
22.6082
21.4186
20.2482
19.097
17.9645
16.8496
15.7545
14.6821
13.6275
12.5887
11.567
41.9768
39.667
57.6448
88.8307
106.255
86.5689
19.3131
-27.802
96.2114
143.514
90.0259
166.569
168.996
161.138
135.788
130.742
130.497
131.423
131.297
129.633
126.834
123.635
120.938
118.76
117.039
115.597
114.095
112.221
110.094
107.753
105.397
103.165
101.021
98.9361
96.8294
94.6866
92.5279
90.3821
88.2692
86.1824
84.1132
82.0561
80.0168
77.9986
76.0035
74.0319
72.0832
70.1578
68.2566
66.3806
64.5298
62.7046
60.9051
59.1316
57.3841
55.6627
53.9672
52.2974
50.6534
49.0349
47.4418
45.8734
44.3299
42.8106
41.3152
39.8429
38.3933
36.9658
35.5601
34.1758
32.8123
31.4693
30.1465
28.8437
27.5606
26.2969
25.0522
23.8256
22.6172
21.4276
20.2572
19.106
17.9734
16.8585
15.7634
14.6909
13.6363
12.5974
11.5758
46.1847
45.5144
61.4358
88.1151
104.999
81.5141
12.9934
-34.4856
94.7346
151.811
98.3808
173.747
169.113
162.042
139.009
133.273
131.8
131.957
131.417
129.677
126.957
123.872
121.202
118.991
117.202
115.675
114.098
112.208
110.087
107.764
105.425
103.194
101.044
98.9507
96.8396
94.6968
92.5398
90.3954
88.2823
86.1947
84.1249
82.0678
80.0285
78.0104
76.0153
74.0436
72.0948
70.1694
68.2682
66.3921
64.5414
62.7161
60.9166
59.1431
57.3956
55.6741
53.9786
52.3088
50.6648
49.0463
47.453
45.8847
44.341
42.8218
41.3262
39.8539
38.4043
36.9768
35.571
34.1866
32.8231
31.4801
30.1572
28.8543
27.5711
26.3074
25.0626
23.836
22.6276
21.4379
20.2675
19.1162
17.9835
16.8686
15.7735
14.701
13.6463
12.6074
11.5859
50.4952
51.2616
65.3525
88.8837
100.359
80.4403
10.0387
-34.7864
98.3057
167.935
115.552
181.066
171.027
162.711
142.207
135.767
133.223
132.608
131.632
129.776
127.108
124.128
121.481
119.236
117.379
115.765
114.106
112.199
110.08
107.777
105.454
103.224
101.069
98.9664
96.8507
94.7078
92.5525
90.4096
88.2962
86.2079
84.1376
82.0805
80.0413
78.0233
76.0282
74.0565
72.1077
70.1822
68.2811
66.405
64.5543
62.729
60.9295
59.1559
57.4084
55.687
53.9914
52.3216
50.6776
49.059
47.4657
45.8974
44.3537
42.8344
41.3388
39.8664
38.4167
36.9891
35.5833
34.1989
32.8353
31.4922
30.1693
28.8664
27.5831
26.3193
25.0745
23.8478
22.6393
21.4496
20.2791
19.1278
17.9951
16.8801
15.785
14.7124
13.6577
12.6188
11.5973
84.1046
14.0196
-24.8186
117.137
190.287
138.636
184.419
173.641
163.57
145.33
138.21
134.749
133.371
131.955
129.945
127.3
124.403
121.773
119.494
117.566
115.863
114.124
112.194
110.076
107.79
105.483
103.254
101.094
98.9829
96.8624
94.7193
92.5658
90.4244
88.3111
86.2221
84.1512
82.0942
80.0552
78.0374
76.0423
74.0706
72.1218
70.1965
68.2954
66.4194
64.5687
62.7434
60.9439
59.1703
57.4228
55.7014
54.0058
52.336
50.6919
49.0734
47.4801
45.9117
44.3679
42.8486
41.3529
39.8805
38.4308
37.0031
35.5973
34.2128
32.8491
31.506
30.183
28.88
27.5967
26.3328
25.0879
23.8612
22.6527
21.4629
20.2923
19.141
18.0082
16.8932
15.7981
14.7254
13.6706
12.6318
11.6103
89.169
29.724
-2.97418
153.835
212.618
164.85
186.825
176.847
164.807
148.308
140.594
136.358
134.249
132.379
130.187
127.539
124.699
122.079
119.765
117.764
115.97
114.152
112.195
110.076
107.803
105.512
103.285
101.12
99
96.8746
94.7311
92.5795
90.4398
88.3265
86.237
84.1657
82.1089
80.0702
78.0526
76.0577
74.086
72.1373
70.2121
68.3112
66.4352
64.5846
62.7594
60.9599
59.1864
57.4389
55.7175
54.0219
52.3522
50.7081
49.0895
47.4962
45.9277
44.384
42.8646
41.3689
39.8964
38.4466
37.0189
35.613
34.2285
32.8648
31.5215
30.1985
28.8955
27.6121
26.3481
25.1031
23.8763
22.6678
21.478
20.3073
19.1559
18.0231
16.9081
15.8129
14.7402
13.6853
12.6465
11.6251
93.1204
55.1598
35.4538
192.793
231.915
191.041
190.286
180.272
166.384
151.104
142.902
138.017
135.232
132.908
130.511
127.83
125.018
122.398
120.046
117.972
116.083
114.196
112.204
110.075
107.817
105.541
103.316
101.146
99.0171
96.8868
94.7429
92.5932
90.4554
88.3424
86.2525
84.1809
82.1244
80.0861
78.0689
76.0742
74.1027
72.1542
70.2292
68.3285
66.4527
64.6021
62.7771
60.9777
59.2043
57.4569
55.7355
54.04
52.3702
50.7262
49.1076
47.5143
45.9458
44.402
42.8826
41.3869
39.9143
38.4645
37.0367
35.6308
34.2461
32.8824
31.5391
30.216
28.9129
27.6294
26.3654
25.1203
23.8935
22.6848
21.495
20.3243
19.1728
18.04
16.9249
15.8298
14.7569
13.702
12.6632
11.6419
100.404
89.0775
86.5519
225.742
247.898
212.641
194.692
183.159
168.118
153.683
145.111
139.688
136.297
133.548
130.922
128.166
125.362
122.729
120.335
118.187
116.208
114.249
112.219
110.078
107.832
105.567
103.344
101.17
99.0336
96.8986
94.7543
92.6066
90.4708
88.3583
86.2682
84.1966
82.1405
80.1029
78.0861
76.0919
74.1207
72.1726
70.2478
68.3474
66.4718
64.6215
62.7966
60.9974
59.2241
57.4769
55.7556
54.0601
52.3904
50.7464
49.1279
47.5346
45.9661
44.4223
42.9029
41.4071
39.9345
38.4846
37.0568
35.6508
34.2661
32.9023
31.5589
30.2358
28.9326
27.649
26.3849
25.1398
23.9128
22.7042
21.5143
20.3435
19.192
18.0591
16.944
15.8488
14.7759
13.7209
12.6821
11.6609
111.023
122.671
135.433
250.021
261.201
229.629
199.71
185.375
169.874
156.007
147.195
141.335
137.421
134.272
131.41
128.556
125.73
123.071
120.63
118.409
116.341
114.311
112.24
110.084
107.845
105.592
103.371
101.193
99.0483
96.9089
94.7644
92.6189
90.4854
88.3737
86.2838
84.2124
82.157
80.1202
78.1042
76.1106
74.1399
72.1922
70.268
68.3679
66.4928
64.6428
62.8182
61.0192
59.2461
57.499
55.7779
54.0826
52.413
50.7691
49.1506
47.5573
45.9889
44.4451
42.9256
41.4298
39.9572
38.5073
37.0794
35.6734
34.2886
32.9247
31.5813
30.2581
28.9549
27.6712
26.407
25.1618
23.9348
22.7261
21.5361
20.3653
19.2137
18.0807
16.9657
15.8705
14.7974
13.7424
12.7037
11.6826
124.193
149.517
175.055
267.351
269.646
237.818
204.432
187.109
171.557
158.052
149.121
142.916
138.57
135.064
131.965
128.991
126.118
123.419
120.927
118.633
116.481
114.381
112.266
110.093
107.857
105.612
103.393
101.211
99.0601
96.9167
94.7721
92.6291
90.4982
88.3879
86.2986
84.2277
82.1734
80.1377
78.1229
76.1301
74.1602
72.2132
70.2896
68.3902
66.5155
64.666
62.8418
61.0432
59.2704
57.5236
55.8027
54.1076
52.4381
50.7944
49.176
47.5828
46.0145
44.4707
42.9512
41.4554
39.9828
38.5328
37.105
35.6988
34.3141
32.9501
31.6066
30.2834
28.98
27.6963
26.432
25.1867
23.9596
22.7509
21.5609
20.39
19.2383
18.1053
16.9902
15.895
14.8219
13.7668
12.7281
11.7072
138.595
169.426
203.533
275.683
272.933
238.472
208.081
188.177
173.006
159.784
150.85
144.39
139.702
135.888
132.563
129.459
126.519
123.769
121.219
118.854
116.622
114.456
112.296
110.101
107.866
105.626
103.408
101.224
99.0671
96.9204
94.776
92.6357
90.5079
88.3997
86.3116
84.2419
82.189
80.155
78.1415
76.15
74.1812
72.2352
70.3126
68.414
66.5401
64.6912
62.8676
61.0695
59.2972
57.5507
55.8301
54.1353
52.4662
50.8226
49.2044
47.6113
46.0431
44.4994
42.98
41.4842
40.0116
38.5616
37.1337
35.7275
34.3427
32.9787
31.6352
30.3119
29.0085
27.7247
26.4603
25.2149
23.9878
22.779
21.5889
20.418
19.2662
18.1332
17.0181
15.9229
14.8497
13.7946
12.756
11.7352
151.296
183.375
222.493
272.555
272.114
234.22
210.059
188.505
174.075
161.166
152.338
145.718
140.77
136.702
133.174
129.939
126.921
124.111
121.5
119.064
116.758
114.528
112.324
110.107
107.868
105.631
103.415
101.228
99.0668
96.9177
94.7742
92.6371
90.513
88.4075
86.3214
84.2537
82.203
80.1711
78.1597
76.1699
74.2026
72.258
70.3366
68.4392
66.5663
64.7184
62.8956
61.0982
59.3265
57.5806
55.8605
54.1661
52.4973
50.854
49.236
47.6432
46.0751
44.5316
43.0122
41.5165
40.0439
38.5939
37.1661
35.7599
34.3751
33.011
31.6675
30.3441
29.0406
27.7568
26.4923
25.2468
24.0196
22.8108
21.6207
20.4497
19.2979
18.1648
17.0497
15.9546
14.8812
13.8261
12.7876
11.767
161.033
192.439
234.583
261.678
266.507
227.44
209.875
188.083
174.634
162.155
153.533
146.853
141.727
137.459
133.76
130.403
127.305
124.43
121.757
119.254
116.881
114.593
112.345
110.104
107.859
105.623
103.408
101.22
99.0558
96.9056
94.764
92.6309
90.5112
88.4094
86.3264
84.2615
82.214
80.185
78.1763
76.1889
74.2236
72.281
70.3614
68.4656
66.5941
64.7474
62.9257
61.1293
59.3585
57.6133
55.8939
54.2
52.5317
50.8889
49.2713
47.6787
46.1109
44.5676
43.0484
41.5528
40.0802
38.6303
37.2025
35.7964
34.4115
33.0475
31.7039
30.3805
29.0769
27.793
26.5285
25.2829
24.0557
22.8468
21.6567
20.4857
19.3338
18.2006
17.0856
15.9905
14.9171
13.862
12.8236
11.8032
168.875
197.351
240.938
248.6
260.673
219.949
207.894
186.999
174.597
162.71
154.38
147.74
142.52
138.113
134.28
130.819
127.645
124.707
121.975
119.411
116.979
114.638
112.35
110.085
107.832
105.595
103.382
101.195
99.0298
96.8802
94.7417
92.6137
90.4997
88.4028
86.3242
84.2633
82.2199
80.195
78.19
76.2058
74.2435
72.3034
70.3862
68.4925
66.6229
64.7779
62.9577
61.1627
59.3931
57.6489
55.9304
54.2373
52.5697
50.9274
49.3104
47.7183
46.1508
44.6078
43.0888
41.5934
40.121
38.6712
37.2435
35.8374
34.4526
33.0885
31.7449
30.4215
29.1179
27.834
26.5694
25.3238
24.0965
22.8876
21.6974
20.5264
19.3745
18.2413
17.1263
16.0313
14.9578
13.9027
12.8645
11.8444
174.79
199.243
242.931
237.683
255.145
213.528
204.616
185.265
173.933
162.803
154.841
148.333
143.094
138.61
134.687
131.148
127.91
124.918
122.134
119.518
117.036
114.65
112.327
110.04
107.779
105.542
103.33
101.145
98.9826
96.8362
94.7026
92.5813
90.4744
88.3843
86.3117
84.2565
82.2186
80.1989
78.1988
76.2192
74.2608
72.3242
70.4102
68.5193
66.6523
64.8096
62.9914
61.1982
59.4301
57.6874
55.97
54.2781
52.6114
50.97
49.3536
47.7621
46.1952
44.6526
43.1339
41.6388
40.1666
38.717
37.2894
35.8835
34.4987
33.1347
31.7912
30.4678
29.1642
27.8802
26.6156
25.3699
24.1426
22.9337
21.7436
20.5725
19.4206
18.2874
17.1725
16.0775
15.004
13.9489
12.9109
11.8912
178.661
199.051
240.459
227.909
243.258
207.417
200.203
182.925
172.659
162.41
154.884
148.591
143.406
138.908
134.94
131.354
128.071
125.036
122.21
119.554
117.032
114.611
112.26
109.957
107.689
105.452
103.244
101.063
98.9056
96.766
94.6406
92.5282
90.4305
88.3492
86.2847
84.2372
82.2067
80.1941
78.2003
76.2266
74.2735
72.3417
70.432
68.5449
66.6813
64.8416
63.0261
61.2353
59.4694
57.7285
56.0128
54.3223
52.6569
51.0166
49.4012
47.8105
46.2443
44.7023
43.1842
41.6894
40.2176
38.7683
37.3409
35.9352
34.5506
33.1867
31.8432
30.5199
29.2163
27.9324
26.6677
25.422
24.1947
22.9858
21.7957
20.6247
19.4727
18.3396
17.2248
16.1299
15.0564
14.0013
12.9636
11.9442
180.629
197.373
234.143
217.541
227.256
200.96
194.919
180.032
170.813
161.521
154.485
148.48
143.416
138.963
134.997
131.396
128.091
125.032
122.179
119.495
116.946
114.501
112.132
109.818
107.548
105.314
103.112
100.939
98.7898
96.6602
94.5466
92.4469
90.3615
88.2916
86.2381
84.2008
82.1801
80.1766
78.1913
76.2252
74.2791
72.3537
70.4497
68.5678
66.7087
64.8729
63.0611
61.2734
59.5103
57.7719
56.0584
54.3699
52.7062
51.0674
49.4533
47.8637
46.2985
44.7573
43.2399
41.7457
40.2744
38.8255
37.3985
35.993
34.6087
33.245
31.9017
30.5784
29.275
27.9911
26.7264
25.4807
24.2535
23.0446
21.8546
20.6836
19.5317
18.3986
17.2839
16.1892
15.1157
14.0607
13.0233
12.0044
180.896
194.612
226.219
209.067
213.467
194.797
189.249
176.704
168.457
160.151
153.641
147.979
143.093
138.736
134.815
131.233
127.932
124.871
122.01
119.314
116.752
114.295
111.919
109.604
107.338
105.112
102.921
100.76
98.6237
96.5083
94.41
92.327
90.2584
88.2041
86.1649
84.1411
82.1331
80.1415
78.1673
76.2112
74.2743
72.3572
70.4607
68.5856
66.7325
64.9021
63.0949
61.3115
59.5521
57.817
56.1065
54.4205
52.7591
51.1222
49.5099
47.9219
46.358
44.8179
43.3015
41.8081
40.3375
38.8892
37.4627
36.0577
34.6737
33.3103
31.9672
30.6442
29.3409
28.0571
26.7925
25.5469
24.3197
23.1109
21.921
20.7501
19.5982
18.4652
17.3507
16.2562
15.1827
14.1279
13.0909
12.0726
11.0763
179.667
190.749
215.993
201.788
201.892
188.9
183.355
173.023
165.659
158.325
152.359
147.08
142.418
138.202
134.364
130.834
127.566
124.525
121.675
118.985
116.426
113.971
111.598
109.291
107.037
104.827
102.653
100.51
98.3932
96.2975
94.2195
92.1573
90.11
88.0765
86.0564
84.0502
82.0587
80.0825
78.1225
76.1796
74.2545
72.3482
70.4616
68.5953
66.7502
64.9268
63.1259
61.348
59.5935
57.8628
56.1561
54.4735
52.8151
51.1809
49.5709
47.9849
46.4228
44.8843
43.3692
41.877
40.4073
38.9599
37.5341
36.1296
34.7461
33.3832
32.0405
30.7178
29.4147
28.1311
26.8667
25.6211
24.3941
23.1855
21.9957
20.8249
19.6732
18.5404
17.4261
16.3318
15.2584
14.2038
13.1672
12.1496
11.1538
177.236
186.438
205.515
194.542
191.654
182.788
177.384
169.031
162.492
156.077
150.659
145.783
141.38
137.341
133.622
130.174
126.966
123.967
121.148
118.482
115.941
113.503
111.147
108.858
106.625
104.438
102.289
100.172
98.0811
96.0117
93.9604
91.9248
89.9036
87.896
85.901
83.9182
81.9479
79.9914
78.0497
76.1236
74.214
72.3217
70.4477
68.5929
66.7581
64.944
63.1514
61.3807
59.6327
57.9077
56.206
54.528
52.8736
51.2429
49.636
48.0527
46.4929
44.9565
43.4431
41.9525
40.4842
39.0378
37.6131
36.2095
34.8267
33.4644
32.1222
30.7999
29.4972
28.2139
26.9498
25.7044
24.4776
23.2693
22.0797
20.9091
19.7576
18.6249
17.5109
16.4169
15.3437
14.2894
13.2534
12.2364
11.2413
173.936
181.971
196.455
186.82
182.565
176.664
171.509
164.802
159.025
153.453
148.571
144.106
139.984
136.149
132.577
129.239
126.113
123.178
120.41
117.783
115.277
112.87
110.543
108.284
106.08
103.925
101.809