/*--------------------------------*- C++ -*----------------------------------*\
| =========                 |                                                 |
| \\      /  F ield         | OpenFOAM: The Open Source CFD Toolbox           |
|  \\    /   O peration     | Version:  2412                                  |
|   \\  /    A nd           | Website:  www.openfoam.com                      |
|    \\/     M anipulation  |                                                 |
\*---------------------------------------------------------------------------*/
FoamFile
{
    version     2.0;
    format      ascii;
    arch        "LSB;label=32;scalar=64";
    class       volVectorField;
    location    "160";
    object      U;
}
// * * * * * * * * * * * * * * * * * * * * * * * * * * * * * * * * * * * * * //

dimensions      [0 1 -1 0 0 0 0];

internalField   nonuniform List<vector> 
7423
(
(0.721826 4.09422 -5.23994e-18)
(1.81674 3.958 8.48169e-24)
(2.58429 3.26054 -2.68133e-23)
(2.83271 2.41899 5.80943e-17)
(2.61417 1.64384 -2.5505e-23)
(2.21772 1.07749 -4.34688e-17)
(1.90512 0.737257 0)
(1.61133 0.505256 -3.32883e-17)
(1.3254 0.339594 -1.46335e-23)
(1.10543 0.232131 0)
(0.947732 0.162553 5.91082e-18)
(0.833192 0.115718 5.3509e-18)
(0.751586 0.0830976 0)
(0.695764 0.0596073 -4.45194e-18)
(0.65873 0.0418384 4.0867e-18)
(0.634455 0.0276504 -9.22601e-25)
(0.618327 0.0157202 8.50099e-25)
(0.607312 0.00536075 4.03474e-19)
(0.599104 -0.00389128 -3.75269e-19)
(0.592693 -0.0122726 -1.39999e-18)
(0.587134 -0.0199343 0)
(0.582042 -0.0269937 0)
(0.577024 -0.0334922 -2.30522e-18)
(0.572089 -0.039502 2.16993e-18)
(0.567244 -0.0450779 -1.95305e-24)
(0.561976 -0.0502113 9.39337e-25)
(0.556491 -0.0549353 -8.5742e-25)
(0.55088 -0.0593051 1.65499e-24)
(0.545108 -0.0633203 -3.2927e-18)
(0.539206 -0.0670226 -3.12982e-18)
(0.533171 -0.0704152 5.9576e-18)
(0.527021 -0.0735171 5.67698e-18)
(0.520771 -0.0763472 0)
(0.51443 -0.0789209 5.17211e-18)
(0.508008 -0.0812508 -1.15934e-24)
(0.501526 -0.0833449 4.73139e-18)
(0.494993 -0.0852289 0)
(0.488427 -0.0869005 4.34418e-18)
(0.481834 -0.0883837 -3.36497e-26)
(0.475233 -0.0896783 4.00185e-18)
(0.468645 -0.0908067 -7.69082e-18)
(0.462075 -0.0917758 3.69771e-18)
(0.455533 -0.0925916 -8.63103e-25)
(0.449041 -0.0932755 0)
(0.442584 -0.0938234 6.60194e-18)
(0.436203 -0.094255 -1.51784e-24)
(0.429892 -0.0945776 9.14042e-25)
(0.423646 -0.0947921 5.92517e-18)
(0.417471 -0.0949168 1.14432e-17)
(0.411399 -0.0949512 6.70864e-25)
(0.405424 -0.0949155 -2.37187e-25)
(0.399508 -0.094795 5.16584e-18)
(0.39368 -0.0946087 0)
(0.387965 -0.0943616 -4.83522e-18)
(0.382352 -0.0940676 0)
(0.376807 -0.0937124 -4.53208e-18)
(0.371351 -0.0933089 8.7787e-18)
(0.365993 -0.0928681 -4.25198e-18)
(0.360734 -0.0923902 -4.11972e-18)
(0.355555 -0.0918771 3.99217e-18)
(0.350451 -0.0913268 -3.86882e-18)
(0.345438 -0.0907504 3.74933e-18)
(0.34052 -0.0901568 0)
(0.33569 -0.0895361 -8.21404e-25)
(0.330945 -0.0888988 6.8225e-18)
(0.326285 -0.0882477 8.05653e-25)
(0.321709 -0.0875835 0)
(0.317224 -0.0869074 -7.20915e-25)
(0.312864 -0.0862331 3.48007e-26)
(0.308606 -0.0855624 1.4483e-18)
(0.30445 -0.0848867 0)
(0.300382 -0.0842125 -1.35061e-18)
(0.296401 -0.0835371 6.38161e-25)
(0.29246 -0.0828517 0)
(0.288574 -0.0821574 1.20608e-18)
(0.284918 -0.0815115 1.15764e-18)
(2.17132 12.3034 4.26451e-23)
(5.52729 12.0206 -2.2781e-17)
(7.97437 10.0512 -5.03209e-17)
(8.85775 7.5641 -4.80543e-17)
(8.26439 5.19841 0)
(7.05315 3.42955 7.20469e-17)
(6.04714 2.34154 3.12631e-23)
(5.12958 1.6091 8.55552e-23)
(4.22449 1.0831 -2.4242e-23)
(3.52334 0.740269 0)
(3.01842 0.518077 -9.09009e-24)
(2.65161 0.368443 1.69869e-23)
(2.38976 0.264374 -7.94171e-24)
(2.20879 0.189361 7.39835e-18)
(2.0897 0.13281 -6.79103e-18)
(2.01022 0.0876438 -6.25748e-18)
(1.95681 0.0498027 -1.41297e-24)
(1.91951 0.01697 -6.70715e-19)
(1.89211 -0.0122682 5.44787e-25)
(1.87028 -0.0387179 1.16376e-18)
(1.85138 -0.0628377 2.17648e-18)
(1.83416 -0.0850438 -4.08028e-18)
(1.81736 -0.105477 7.66618e-18)
(1.80093 -0.124338 0)
(1.78494 -0.141832 1.59389e-24)
(1.76773 -0.157914 -1.56215e-24)
(1.74993 -0.172741 -6.0864e-18)
(1.73181 -0.186427 2.70387e-24)
(1.71323 -0.199006 5.47656e-18)
(1.69431 -0.21059 5.20583e-18)
(1.67503 -0.221204 9.9097e-18)
(1.65543 -0.230913 -9.4433e-18)
(1.63554 -0.23977 -7.31834e-26)
(1.61539 -0.247817 -8.60409e-18)
(1.59502 -0.255098 0)
(1.57449 -0.261649 -7.8715e-18)
(1.55381 -0.267525 0)
(1.53306 -0.272754 -7.22776e-18)
(1.51224 -0.277382 -6.93466e-18)
(1.4914 -0.281427 -6.6587e-18)
(1.47062 -0.284944 1.55196e-24)
(1.4499 -0.287968 -6.153e-18)
(1.42929 -0.290513 2.87249e-24)
(1.40884 -0.292635 0)
(1.38851 -0.294345 -1.09867e-17)
(1.36842 -0.295682 2.56993e-24)
(1.34857 -0.296681 1.02175e-17)
(1.32891 -0.297345 -9.8613e-18)
(1.30949 -0.297716 -2.70744e-24)
(1.29039 -0.297824 2.23315e-24)
(1.27161 -0.297691 -1.77844e-17)
(1.25301 -0.297308 -8.59843e-18)
(1.2347 -0.296713 -8.31753e-18)
(1.21674 -0.295935 8.04854e-18)
(1.1991 -0.294997 -7.7912e-18)
(1.18169 -0.293882 7.54434e-18)
(1.16455 -0.292612 -7.30688e-18)
(1.14771 -0.29122 -7.07833e-18)
(1.1312 -0.289712 -6.85827e-18)
(1.11494 -0.288098 -1.32922e-17)
(1.09892 -0.286372 6.44088e-18)
(1.08317 -0.284559 0)
(1.06774 -0.282685 0)
(1.05258 -0.280743 0)
(1.03768 -0.278744 -5.67945e-18)
(1.02306 -0.276692 -1.28219e-24)
(1.0087 -0.274605 1.29959e-24)
(0.994635 -0.272487 1.20033e-24)
(0.980945 -0.270373 -1.21838e-24)
(0.967582 -0.268259 -1.34282e-24)
(0.95454 -0.266142 2.32973e-18)
(0.941769 -0.264023 4.4976e-18)
(0.929276 -0.261902 -1.06256e-24)
(0.916915 -0.25975 9.67252e-25)
(0.904731 -0.257576 -5.72426e-26)
(0.893269 -0.255544 -9.47799e-25)
(3.68684 20.8809 0)
(9.48132 20.5857 0)
(13.8378 17.4322 3.26701e-21)
(15.5497 13.2819 1.00884e-22)
(14.6623 9.22726 0)
(12.6032 6.13183 -8.0298e-17)
(10.8053 4.18607 6.42068e-23)
(9.21015 2.89056 3.03181e-17)
(7.59993 1.94964 0)
(6.34153 1.33311 2.43734e-17)
(5.43029 0.932597 -1.10036e-17)
(4.76746 0.662782 -9.98777e-18)
(4.29311 0.475193 1.74012e-23)
(3.96021 0.339715 -4.16319e-25)
(3.74546 0.238168 -7.49538e-24)
(3.59854 0.15697 3.52891e-18)
(3.49879 0.0891377 7.61182e-25)
(3.4268 0.0303461 -8.27556e-25)
(3.3762 -0.0218428 8.58452e-26)
(3.33443 -0.0689901 1.22812e-24)
(3.29831 -0.111944 -2.45746e-18)
(3.26556 -0.151377 4.60753e-18)
(3.2339 -0.187659 -4.32887e-18)
(3.20312 -0.221127 4.07536e-18)
(3.17332 -0.252112 3.60073e-24)
(3.14152 -0.280613 -3.52944e-24)
(3.10894 -0.306867 4.04611e-25)
(3.07592 -0.331094 0)
(3.04221 -0.353371 0)
(3.00797 -0.373848 0)
(2.97318 -0.392616 -2.23976e-17)
(2.93789 -0.409791 2.5021e-24)
(2.90215 -0.425438 1.01823e-17)
(2.86601 -0.439659 5.37537e-24)
(2.82955 -0.452517 -4.51051e-24)
(2.7928 -0.464103 -8.89828e-18)
(2.75585 -0.474468 0)
(2.71879 -0.483703 -3.83192e-24)
(2.68165 -0.491859 7.84054e-18)
(2.64451 -0.499006 -7.52895e-18)
(2.60747 -0.50521 0)
(2.57058 -0.510529 6.95782e-18)
(2.53388 -0.51502 0)
(2.49749 -0.518747 0)
(2.46134 -0.521753 0)
(2.42562 -0.524105 0)
(2.39032 -0.52585 1.15567e-17)
(2.35538 -0.527011 1.11542e-17)
(2.32087 -0.527643 -1.07716e-17)
(2.28693 -0.527819 1.04065e-17)
(2.25356 -0.52756 -2.01476e-24)
(2.22054 -0.526865 0)
(2.18802 -0.525794 5.39373e-25)
(2.15612 -0.524407 -6.96823e-25)
(2.12479 -0.522722 5.00957e-25)
(2.09389 -0.52073 -1.70714e-17)
(2.06346 -0.518473 -1.93345e-24)
(2.03359 -0.51599 8.00891e-18)
(2.00427 -0.51331 1.55202e-17)
(1.97542 -0.510433 7.52017e-18)
(1.947 -0.507368 1.70237e-24)
(1.91906 -0.504148 -1.7193e-24)
(1.89167 -0.500813 0)
(1.86478 -0.497364 0)
(1.83834 -0.493809 1.4987e-24)
(1.8124 -0.490165 6.22568e-18)
(1.78693 -0.486457 2.875e-24)
(1.76198 -0.482698 -1.42439e-24)
(1.73768 -0.478942 1.31327e-24)
(1.71397 -0.475181 -5.45818e-18)
(1.69082 -0.471424 1.05839e-24)
(1.66815 -0.467658 -2.54508e-18)
(1.64598 -0.463888 0)
(1.62406 -0.460062 0)
(1.60246 -0.45621 -2.27285e-18)
(1.58213 -0.4526 -2.18161e-18)
(5.21586 29.5241 8.59563e-23)
(13.528 29.3509 -8.68761e-23)
(19.9701 25.1532 1.16322e-16)
(22.6851 19.383 2.03948e-22)
(21.6481 13.6306 5.01883e-17)
(18.7969 9.1505 4.29646e-17)
(16.1647 6.26535 0)
(13.8628 4.35296 -3.1715e-17)
(11.495 2.95051 0)
(9.61446 2.02236 -2.65176e-17)
(8.23804 1.41557 -2.67468e-23)
(7.23215 1.006 1.10632e-17)
(6.50891 0.720862 0)
(5.98953 0.514041 8.73082e-24)
(5.66554 0.360436 -8.56448e-18)
(5.43594 0.237247 3.68516e-24)
(5.27823 0.13456 -5.28291e-24)
(5.1585 0.0457347 1.664e-24)
(5.08134 -0.0328218 -7.9081e-19)
(5.01362 -0.103672 1.37988e-24)
(4.95512 -0.16815 -2.76221e-18)
(4.9023 -0.227211 5.1806e-18)
(4.85172 -0.281495 0)
(4.80283 -0.331542 -4.58451e-18)
(4.75546 -0.377776 8.25647e-24)
(4.70557 -0.420297 -3.97333e-24)
(4.65513 -0.459462 1.04578e-24)
(4.60429 -0.49558 -3.44038e-24)
(4.55262 -0.528791 9.91769e-24)
(4.50031 -0.5593 6.62682e-18)
(4.44733 -0.587264 2.52348e-17)
(4.39372 -0.612832 5.63891e-24)
(4.33954 -0.636129 -1.14754e-17)
(4.28488 -0.657291 1.42317e-24)
(4.22979 -0.676432 5.08467e-24)
(4.17435 -0.693664 1.00323e-17)
(4.11868 -0.709083 0)
(4.06288 -0.722812 4.32136e-24)
(4.00702 -0.734931 -8.43621e-24)
(3.95122 -0.745556 8.49262e-18)
(3.89558 -0.754769 7.78648e-24)
(3.8402 -0.762661 -7.85019e-18)
(3.78514 -0.769321 3.54197e-24)
(3.73055 -0.774848 -3.53022e-24)
(3.67636 -0.779289 -1.40236e-17)
(3.62284 -0.782772 0)
(3.56994 -0.785338 -1.21824e-24)
(3.51761 -0.78704 -2.95012e-24)
(3.46592 -0.787953 1.21615e-17)
(3.4151 -0.788175 -1.17504e-17)
(3.36514 -0.78777 1.13592e-17)
(3.31571 -0.786704 -2.57193e-24)
(3.26705 -0.785073 1.06274e-17)
(3.2193 -0.78298 -1.02849e-17)
(3.17243 -0.780438 9.95707e-18)
(3.12619 -0.777438 9.64248e-18)
(3.08068 -0.774046 4.54019e-24)
(3.03599 -0.770317 0)
(2.99214 -0.7663 -8.76816e-18)
(2.94899 -0.76198 0)
(2.90649 -0.757384 8.23588e-18)
(2.86471 -0.752562 0)
(2.82374 -0.747562 3.61122e-24)
(2.78351 -0.742389 -3.65256e-24)
(2.74398 -0.737057 0)
(2.70518 -0.731609 -1.40741e-17)
(2.66709 -0.726049 3.17476e-24)
(2.62977 -0.720417 6.5966e-18)
(2.59341 -0.714783 0)
(2.55793 -0.709147 3.08528e-18)
(2.52329 -0.703515 -5.96177e-18)
(2.48936 -0.697864 2.87748e-18)
(2.45618 -0.692215 2.57322e-24)
(2.42338 -0.68648 -2.67247e-18)
(2.39108 -0.680712 2.56994e-18)
(2.36066 -0.675305 2.46685e-18)
(6.67305 37.7473 0)
(17.374 37.6846 0)
(25.8209 32.5229 -5.38762e-17)
(29.5758 25.2795 4.94215e-17)
(28.6658 18.0592 -4.59464e-17)
(25.2472 12.2985 -4.07918e-17)
(21.8925 8.49007 0)
(18.8736 5.92978 3.03128e-17)
(15.8119 4.06109 -2.88785e-17)
(13.314 2.80228 -2.7222e-17)
(11.4481 1.96836 1.15539e-22)
(10.0682 1.40131 -2.32585e-23)
(9.06654 1.00468 0)
(8.32728 0.715031 -9.68973e-24)
(7.88138 0.501678 3.10475e-23)
(7.55293 0.329815 -4.34712e-18)
(7.32438 0.186843 1.88272e-24)
(7.14003 0.0634008 -2.07973e-24)
(7.03409 -0.0453718 8.75524e-19)
(6.93312 -0.143321 0)
(6.84593 -0.23224 1.22021e-24)
(6.76743 -0.313615 -5.75558e-18)
(6.69288 -0.388284 5.41363e-18)
(6.62136 -0.457031 -5.10079e-18)
(6.55139 -0.520429 0)
(6.47903 -0.578648 0)
(6.40719 -0.632371 -4.88148e-24)
(6.33519 -0.681855 7.96001e-24)
(6.26236 -0.727345 7.29907e-24)
(6.18892 -0.769124 -7.40528e-18)
(6.11475 -0.807417 -1.41045e-17)
(6.0399 -0.842402 1.34481e-17)
(5.96444 -0.874297 6.22796e-24)
(5.88845 -0.903245 1.22662e-17)
(5.81199 -0.929432 0)
(5.73517 -0.952997 -1.12333e-17)
(5.6581 -0.974088 0)
(5.58095 -0.992853 4.84167e-24)
(5.5038 -1.00943 -9.91075e-18)
(5.42677 -1.02395 -1.08271e-23)
(5.35002 -1.03654 8.88007e-24)
(5.27367 -1.04732 -8.8055e-18)
(5.19779 -1.05641 -1.61733e-23)
(5.1226 -1.06395 7.92388e-24)
(5.04798 -1.07001 1.57425e-17)
(4.9743 -1.07475 1.51829e-17)
(4.90151 -1.07824 -2.93035e-17)
(4.82951 -1.08054 -6.62827e-24)
(4.7584 -1.08176 -1.36653e-17)
(4.6885 -1.08204 -1.32062e-17)
(4.61978 -1.08145 6.19995e-24)
(4.55183 -1.07997 5.78361e-24)
(4.48491 -1.0777 -5.80497e-24)
(4.41927 -1.0748 -1.15686e-17)
(4.35483 -1.07129 -5.24229e-24)
(4.29126 -1.06716 5.27299e-24)
(4.22869 -1.06247 -1.05114e-17)
(4.16728 -1.05733 -1.89638e-25)
(4.10701 -1.0518 9.8713e-18)
(4.04769 -1.04585 -4.65488e-24)
(3.98927 -1.03952 -9.27495e-18)
(3.93184 -1.03288 -8.99067e-18)
(3.87552 -1.02599 4.24414e-24)
(3.82022 -1.01887 0)
(3.76587 -1.01153 0)
(3.71252 -1.00402 1.34338e-24)
(3.66016 -0.996363 -3.57825e-24)
(3.60882 -0.988603 -7.43588e-18)
(3.55879 -0.98084 -3.34741e-24)
(3.50995 -0.973059 3.40077e-24)
(3.46227 -0.965294 3.36127e-18)
(3.41559 -0.957496 -6.59543e-24)
(3.36991 -0.949708 5.96912e-24)
(3.32476 -0.9418 3.01438e-18)
(3.28034 -0.933854 2.89899e-18)
(3.23846 -0.926392 0)
(7.98561 45.1302 0)
(20.7494 44.9946 0)
(30.802 38.7971 1.74156e-22)
(35.3466 30.2203 -3.92516e-17)
(34.6616 21.8473 -1.21241e-23)
(31.0387 15.1293 3.24296e-17)
(27.3526 10.6143 0)
(23.7423 7.46423 0)
(20.208 5.19378 2.59243e-17)
(17.2283 3.62867 2.5525e-17)
(14.9362 2.56986 3.15736e-23)
(13.2056 1.8392 2.45744e-23)
(11.9281 1.3226 -1.11821e-17)
(10.9666 0.942241 -1.11735e-17)
(10.3842 0.661334 2.65114e-23)
(9.94667 0.434606 4.59213e-18)
(9.63794 0.246068 -8.38174e-24)
(9.3777 0.0834018 0)
(9.23838 -0.0594954 9.3873e-19)
(9.09753 -0.187965 0)
(8.9756 -0.304423 3.30677e-18)
(8.86589 -0.410809 -6.05682e-24)
(8.76238 -0.508289 -5.86588e-18)
(8.66372 -0.597942 5.5357e-18)
(8.56571 -0.680385 -1.05015e-17)
(8.46673 -0.75613 0)
(8.37009 -0.826039 1.8917e-17)
(8.27375 -0.890459 8.97982e-18)
(8.17675 -0.949648 0)
(8.07926 -1.004 -8.12678e-18)
(7.98112 -1.05381 0)
(7.88231 -1.09933 -1.47827e-17)
(7.78294 -1.14081 1.3244e-23)
(7.68303 -1.17848 -1.31029e-23)
(7.58269 -1.21255 0)
(7.482 -1.24322 5.25801e-24)
(7.38111 -1.27068 0)
(7.2802 -1.29511 1.06921e-23)
(7.17936 -1.3167 2.19014e-17)
(7.07876 -1.33562 -3.85594e-24)
(6.97857 -1.35202 9.49644e-24)
(6.87896 -1.36608 1.94974e-17)
(6.78001 -1.37795 0)
(6.68195 -1.38779 -8.48649e-24)
(6.58468 -1.39571 -1.74608e-17)
(6.48863 -1.4019 -1.685e-17)
(6.39377 -1.40647 1.62696e-17)
(6.29995 -1.4095 -1.57168e-17)
(6.20729 -1.41112 2.5721e-25)
(6.11619 -1.4115 1.46879e-17)
(6.02665 -1.41075 0)
(5.93812 -1.40884 -1.37508e-17)
(5.85093 -1.40592 -6.46574e-24)
(5.76538 -1.40215 2.95026e-24)
(5.68139 -1.3976 -5.84426e-24)
(5.59855 -1.39222 5.88106e-24)
(5.517 -1.38613 2.3457e-17)
(5.43694 -1.37944 5.52811e-24)
(5.35837 -1.37223 -1.1023e-17)
(5.28105 -1.3645 0)
(5.20487 -1.35625 1.03649e-17)
(5.12998 -1.34759 1.00508e-17)
(5.05652 -1.33861 -9.74571e-18)
(4.98438 -1.32932 0)
(4.91346 -1.31975 4.27191e-24)
(4.84385 -1.30994 8.87725e-18)
(4.77548 -1.29995 -8.20288e-24)
(4.70845 -1.2898 4.0659e-24)
(4.64307 -1.27965 -3.75039e-24)
(4.57924 -1.26947 3.81122e-24)
(4.51691 -1.2593 3.50075e-24)
(4.45587 -1.24909 -3.63854e-18)
(4.39613 -1.23889 0)
(4.33709 -1.22853 -3.38157e-18)
(4.27906 -1.21814 -6.50577e-18)
(4.22426 -1.20836 -3.12332e-18)
(9.12965 51.5333 1.8226e-22)
(23.6075 51.1793 3.81832e-23)
(34.8678 43.9188 -1.34213e-22)
(39.9041 34.1257 0)
(39.2896 24.7759 2.66538e-17)
(35.5478 17.3378 2.36193e-17)
(31.7552 12.3307 2.31623e-17)
(27.9125 8.78127 7.54346e-23)
(24.1815 6.21972 2.09915e-17)
(20.953 4.41662 0)
(18.3969 3.16772 1.59739e-22)
(16.4181 2.28831 -4.2368e-23)
(14.925 1.6561 2.09627e-17)
(13.8068 1.18708 4.29857e-23)
(13.0719 0.833063 9.58623e-18)
(12.5326 0.54799 -4.53444e-18)
(12.1466 0.310396 0)
(11.8251 0.105384 -5.04739e-25)
(11.6375 -0.0748019 -2.08826e-24)
(11.4553 -0.236536 0)
(11.2967 -0.383034 3.38596e-18)
(11.1537 -0.51671 1.22212e-23)
(11.0192 -0.639105 6.0603e-18)
(10.8913 -0.751605 0)
(10.7632 -0.854851 1.09673e-17)
(10.6367 -0.949849 -1.04778e-17)
(10.5136 -1.03751 -9.96078e-18)
(10.3914 -1.1183 -9.47578e-18)
(10.2687 -1.19253 0)
(10.1458 -1.26074 8.60764e-18)
(10.0223 -1.32326 0)
(9.89821 -1.38042 0)
(9.77365 -1.43254 0)
(9.64859 -1.47992 1.44003e-17)
(9.52312 -1.52278 0)
(9.39734 -1.56142 1.32485e-17)
(9.2714 -1.59603 0)
(9.1455 -1.62688 1.22304e-17)
(9.01976 -1.65417 -2.353e-17)
(8.89435 -1.67812 -3.39766e-17)
(8.76947 -1.69893 0)
(8.64532 -1.7168 9.86138e-24)
(8.52199 -1.73193 -1.93537e-23)
(8.39979 -1.74452 1.86787e-23)
(8.27855 -1.75469 1.89085e-17)
(8.1588 -1.76269 0)
(8.04051 -1.76866 1.76607e-17)
(7.92351 -1.77269 8.37154e-24)
(7.80793 -1.77494 -1.65269e-17)
(7.69424 -1.77563 1.59973e-17)
(7.58247 -1.7749 0)
(7.47196 -1.7727 1.50078e-17)
(7.36307 -1.76922 1.45435e-17)
(7.25618 -1.76467 6.19248e-24)
(7.15121 -1.75911 1.36697e-17)
(7.04767 -1.75253 2.52925e-23)
(6.94571 -1.74504 -1.78711e-23)
(6.84555 -1.73679 0)
(6.74722 -1.72786 -1.13206e-23)
(6.65044 -1.71827 -1.17504e-17)
(6.55506 -1.70803 -4.48286e-24)
(6.46125 -1.69726 0)
(6.36919 -1.68607 1.07386e-17)
(6.27875 -1.67449 9.72322e-24)
(6.18982 -1.66253 -9.85305e-24)
(6.10248 -1.65028 0)
(6.01667 -1.63777 8.85439e-24)
(5.93246 -1.62506 -1.75655e-23)
(5.85029 -1.61232 -4.45907e-18)
(5.77 -1.59953 8.02571e-24)
(5.69157 -1.58674 4.17361e-18)
(5.61473 -1.57391 -1.53834e-23)
(5.53951 -1.56106 7.62861e-24)
(5.46518 -1.54803 3.7518e-18)
(5.39214 -1.53496 7.22171e-18)
(5.32307 -1.52263 3.46871e-18)
(10.1184 57.0318 2.95285e-23)
(26.0393 56.4386 3.40341e-22)
(38.2611 48.1977 2.04907e-23)
(43.6286 37.3232 -1.94001e-22)
(42.9676 27.1097 -4.2089e-17)
(39.0274 19.0474 -1.78185e-17)
(35.0692 13.6268 -1.67412e-17)
(31.1633 9.81125 -1.5547e-17)
(27.3715 7.04593 -1.58819e-17)
(24.0804 5.08013 -6.12075e-23)
(21.4427 3.69526 1.72294e-17)
(19.3633 2.70104 3.47031e-23)
(17.7625 1.97256 -6.82491e-23)
(16.5898 1.42747 6.50494e-23)
(15.7234 1.00284 -8.50873e-18)
(15.1141 0.661415 8.1896e-18)
(14.6723 0.375338 4.00052e-24)
(14.3334 0.128033 3.51028e-24)
(14.08 -0.0902519 -8.89404e-19)
(13.8644 -0.286097 -1.69129e-18)
(13.6758 -0.463539 -3.21781e-18)
(13.5051 -0.625488 6.12574e-18)
(13.3444 -0.773827 -5.83539e-18)
(13.191 -0.910182 5.55434e-18)
(13.0391 -1.0355 0)
(12.8904 -1.15099 2.0609e-17)
(12.7438 -1.25749 9.8368e-18)
(12.5979 -1.35565 -1.82416e-23)
(12.4519 -1.44598 0)
(12.3056 -1.52904 -8.58976e-18)
(12.1589 -1.60527 -1.64554e-17)
(12.0116 -1.67507 -1.57777e-17)
(11.8638 -1.73881 0)
(11.7155 -1.79685 -1.45461e-17)
(11.5666 -1.84947 1.31168e-23)
(11.4175 -1.89699 -1.30558e-23)
(11.2681 -1.93967 0)
(11.1188 -1.97782 -1.24895e-17)
(10.9696 -2.01167 1.2045e-17)
(10.8207 -2.04149 2.32486e-17)
(10.6724 -2.06751 -1.12254e-17)
(10.5249 -2.08998 2.10478e-23)
(10.3783 -2.1091 -2.0974e-17)
(10.2329 -2.12515 2.02893e-17)
(10.0886 -2.13826 1.96371e-17)
(9.9459 -2.14872 0)
(9.80487 -2.15669 -3.68422e-17)
(9.6653 -2.16229 1.44078e-23)
(9.5273 -2.16572 3.46201e-17)
(9.39145 -2.16723 -1.67889e-17)
(9.25778 -2.16698 -1.62903e-17)
(9.12555 -2.16495 0)
(8.99513 -2.16131 -1.07916e-23)
(8.867 -2.15634 1.49065e-17)
(8.74108 -2.15013 -2.89589e-17)
(8.6168 -2.14265 -1.40675e-17)
(8.49432 -2.13405 -2.73381e-17)
(8.3739 -2.12448 -1.32835e-17)
(8.2556 -2.11407 1.29101e-17)
(8.13907 -2.10282 2.50958e-17)
(8.02416 -2.09076 -1.21958e-17)
(7.91105 -2.07802 1.18527e-17)
(7.79995 -2.06476 -1.15179e-17)
(7.69072 -2.05098 -1.04433e-23)
(7.58325 -2.03673 4.57418e-25)
(7.47761 -2.02209 -1.05565e-17)
(7.37373 -2.0071 0)
(7.27169 -1.99185 -9.94234e-18)
(7.172 -1.97651 1.21389e-23)
(7.07452 -1.9611 -4.67069e-18)
(6.9792 -1.94566 -4.52214e-18)
(6.88577 -1.93014 0)
(6.79423 -1.91459 0)
(6.70376 -1.8988 0)
(6.61488 -1.88298 -1.01358e-23)
(6.53068 -1.86801 3.77807e-18)
(10.9759 61.7637 0)
(28.1512 61.0019 2.04177e-17)
(41.2063 51.9182 0)
(46.8439 40.091 0)
(46.0917 29.0994 1.79035e-17)
(41.9011 20.4655 0)
(37.6991 14.66 0)
(33.6827 10.6133 2.41269e-17)
(29.8135 7.68146 4.41264e-23)
(26.493 5.59427 -1.2301e-17)
(23.8484 4.1136 -6.41219e-18)
(21.7631 3.03852 0)
(20.1493 2.23954 -6.82355e-18)
(18.977 1.63427 1.0489e-22)
(18.069 1.15342 6.85358e-18)
(17.437 0.763752 -2.35846e-23)
(16.9746 0.434733 -1.63486e-18)
(16.6456 0.149072 8.50819e-19)
(16.3468 -0.104477 7.61145e-19)
(16.115 -0.33228 1.46187e-18)
(15.9112 -0.539086 2.806e-18)
(15.7257 -0.728147 -5.38445e-18)
(15.5505 -0.901587 0)
(15.3821 -1.0612 -9.90173e-18)
(15.2183 -1.2084 0)
(15.0571 -1.34431 -2.65832e-23)
(14.8952 -1.46963 -2.50499e-23)
(14.7336 -1.58534 0)
(14.5717 -1.69201 0)
(14.4093 -1.79029 7.90753e-18)
(14.2462 -1.88072 3.04382e-17)
(14.0824 -1.96372 2.9316e-17)
(13.9178 -2.03973 0)
(13.7524 -2.10914 -2.55667e-23)
(13.5864 -2.17229 2.55333e-23)
(13.4197 -2.22954 1.27131e-17)
(13.2527 -2.28117 0)
(13.0854 -2.32753 1.18909e-17)
(12.9181 -2.3689 0)
(12.751 -2.40556 -1.11504e-17)
(12.5843 -2.43778 1.08071e-17)
(12.4183 -2.46585 -1.04799e-17)
(12.253 -2.48999 1.04708e-23)
(12.0889 -2.51051 -1.974e-17)
(11.9258 -2.52756 -1.91703e-17)
(11.7644 -2.54148 -1.86247e-17)
(11.6045 -2.55245 3.6204e-17)
(11.4462 -2.5606 1.76e-17)
(11.2893 -2.56616 -3.42369e-17)
(11.1347 -2.56942 0)
(10.9824 -2.57057 3.24169e-17)
(10.8315 -2.56957 1.57781e-17)
(10.6825 -2.56665 -3.15715e-24)
(10.5359 -2.56209 -1.45363e-23)
(10.3916 -2.55603 2.91813e-23)
(10.249 -2.54843 1.4808e-23)
(10.1083 -2.53944 1.40039e-23)
(9.96981 -2.52927 2.69535e-17)
(9.83355 -2.51805 -2.62629e-17)
(9.69918 -2.5058 -1.2795e-17)
(9.56651 -2.49254 1.16477e-23)
(9.43573 -2.47843 -1.2145e-17)
(9.30711 -2.46364 2.36596e-17)
(9.18051 -2.44819 1.07508e-23)
(9.0558 -2.43214 -1.09338e-23)
(8.93305 -2.41558 1.09159e-17)
(8.81217 -2.39856 -1.03622e-23)
(8.69328 -2.38117 2.06501e-17)
(8.57694 -2.36361 5.01615e-18)
(8.46303 -2.34592 5.09228e-24)
(8.35149 -2.32814 0)
(8.24205 -2.31024 0)
(8.13471 -2.29224 -8.2213e-24)
(8.02853 -2.27395 8.40763e-24)
(7.9242 -2.2556 -4.13579e-18)
(7.82516 -2.23819 -7.96746e-18)
(30.0235 65.0311 -2.14523e-17)
(43.8527 55.2664 3.03852e-17)
(49.7536 42.6037 0)
(48.9059 30.8995 2.33503e-22)
(44.4489 21.7292 1.26948e-17)
(39.9623 15.5541 -8.74568e-23)
(35.7634 11.2797 -9.90144e-18)
(31.7627 8.19214 0)
(28.3694 5.99675 9.41466e-18)
(25.6965 4.43688 0)
(23.6087 3.29944 -4.94068e-18)
(22.0043 2.44799 3.9796e-23)
(20.8354 1.79593 5.30968e-18)
(19.951 1.2747 -2.03108e-23)
(19.33 0.847447 -2.57888e-18)
(18.8757 0.483967 1.27047e-18)
(18.5542 0.166602 -6.47754e-19)
(18.2573 -0.11633 -6.04977e-19)
(18.0272 -0.371434 0)
(17.824 -0.60365 -4.54124e-18)
(17.6379 -0.816462 -8.21507e-24)
(17.4611 -1.01216 -4.24047e-18)
(17.29 -1.19264 4.09156e-18)
(17.124 -1.35954 0)
(16.9595 -1.51399 -7.71973e-18)
(16.7931 -1.65672 -3.03676e-23)
(16.6262 -1.78882 0)
(16.4584 -1.91093 -6.95162e-18)
(16.2897 -2.02377 0)
(16.1199 -2.12791 -2.59982e-17)
(15.9487 -2.22382 -2.5164e-17)
(15.7764 -2.31198 -2.28581e-23)
(15.603 -2.3928 4.50754e-23)
(15.4284 -2.46666 -4.37157e-23)
(15.2529 -2.53395 -1.11171e-17)
(15.0765 -2.59497 2.02502e-23)
(14.8997 -2.65009 -1.04895e-17)
(14.7225 -2.69963 -1.97871e-23)
(14.5451 -2.74388 2.97605e-17)
(14.3678 -2.78313 -1.81076e-23)
(14.1909 -2.81769 1.88024e-17)
(14.0146 -2.84782 1.83172e-17)
(13.8391 -2.87383 -1.7852e-17)
(13.6645 -2.89591 -1.7406e-17)
(13.4912 -2.9144 3.39549e-17)
(13.3194 -2.92951 -1.65654e-17)
(13.1489 -2.94139 0)
(12.9798 -2.95028 3.1572e-17)
(12.8127 -2.95649 2.88854e-23)
(12.6478 -2.96025 -1.50594e-17)
(12.4842 -2.96152 -1.47137e-17)
(12.3224 -2.96053 -1.43788e-17)
(12.1628 -2.95761 0)
(12.0055 -2.95291 1.37376e-17)
(11.8499 -2.94637 1.34301e-17)
(11.696 -2.93819 1.31301e-17)
(11.5443 -2.92859 -1.2837e-17)
(11.3948 -2.91771 2.5101e-17)
(11.2471 -2.90558 -2.2936e-23)
(11.101 -2.89223 1.19943e-17)
(10.9568 -2.87784 -2.28283e-23)
(10.8147 -2.86259 -1.14556e-17)
(10.6746 -2.84651 0)
(10.5363 -2.82966 1.09301e-17)
(10.4 -2.81216 0)
(10.2656 -2.79405 0)
(10.1331 -2.77544 -1.01544e-17)
(10.0033 -2.75656 -1.93364e-23)
(9.87587 -2.73744 4.81844e-18)
(9.75092 -2.71815 4.68799e-18)
(9.62813 -2.69864 0)
(9.50751 -2.67897 0)
(9.38806 -2.6589 0)
(9.27056 -2.63873 0)
(9.15892 -2.61956 7.26963e-24)
(46.2934 58.3511 -4.59453e-20)
(52.4811 44.9668 -2.08949e-17)
(51.5557 32.6022 -1.54403e-17)
(46.8369 22.9201 -1.17328e-17)
(42.05 16.3838 0)
(37.6224 11.8792 0)
(33.4482 8.63713 0)
(29.9374 6.33576 0)
(27.1954 4.70111 0)
(25.0732 3.50799 3.81955e-18)
(23.4566 2.61229 -3.86266e-18)
(22.2776 1.92213 0)
(21.4154 1.36958 0)
(20.808 0.91314 1.95552e-18)
(20.3678 0.522833 -3.9543e-24)
(20.0497 0.180498 -4.84808e-19)
(19.7742 -0.125611 3.48795e-24)
(19.5541 -0.402586 -3.54965e-24)
(19.3593 -0.655388 1.35714e-23)
(19.1802 -0.887622 0)
(19.0092 -1.10168 6.68731e-18)
(18.843 -1.29955 -3.24271e-18)
(18.6799 -1.48288 -1.22652e-23)
(18.518 -1.65292 0)
(18.3542 -1.81055 -5.94772e-18)
(18.1893 -1.9568 0)
(18.0229 -2.09239 5.59658e-18)
(17.855 -2.21806 5.43256e-18)
(17.6855 -2.3344 9.17528e-24)
(17.5142 -2.44193 1.02543e-17)
(17.3413 -2.54113 -1.87013e-23)
(17.1668 -2.63245 1.88231e-23)
(16.9908 -2.71628 -9.4426e-18)
(16.8135 -2.79304 9.19736e-18)
(16.635 -2.86303 0)
(16.4556 -2.92666 3.27909e-23)
(16.2755 -2.98423 -3.30932e-23)
(16.0949 -3.03608 -1.66495e-17)
(15.9142 -3.08251 0)
(15.7335 -3.12382 -7.94457e-18)
(15.5532 -3.1603 1.55329e-17)
(15.3734 -3.19227 3.03821e-17)
(15.1942 -3.21993 1.48631e-17)
(15.0161 -3.24365 -1.45475e-17)
(14.8393 -3.26363 9.50982e-25)
(14.6635 -3.28004 5.32301e-23)
(14.4889 -3.29314 -1.3668e-17)
(14.3161 -3.30325 0)
(14.1454 -3.3106 1.31299e-17)
(13.9757 -3.31517 -8.94229e-25)
(13.8076 -3.3172 -1.26238e-17)
(13.6416 -3.31705 1.23812e-17)
(13.4777 -3.31485 -2.27344e-23)
(13.3153 -3.31058 2.31611e-23)
(13.1545 -3.30442 -1.16887e-17)
(12.9956 -3.29661 -1.14676e-17)
(12.8388 -3.28732 -1.12506e-17)
(12.6837 -3.27657 1.1037e-17)
(12.53 -3.2644 -2.16531e-17)
(12.378 -3.251 1.98345e-23)
(12.2281 -3.23655 -2.02832e-23)
(12.08 -3.22112 -1.90508e-23)
(11.9336 -3.20476 -1.00032e-17)
(11.789 -3.18758 -3.73855e-23)
(11.6462 -3.16966 8.4565e-25)
(11.5052 -3.15109 1.83362e-23)
(11.3667 -3.13213 -4.59144e-18)
(11.2306 -3.11281 -4.48666e-18)
(11.0969 -3.09322 -4.38032e-18)
(10.9653 -3.0733 4.27188e-18)
(10.8359 -3.05311 0)
(10.7074 -3.03243 0)
(10.5809 -3.01156 -3.92982e-18)
(10.4608 -2.99176 3.80873e-18)
(55.0998 47.2437 2.13869e-17)
(54.1296 34.2642 3.05459e-17)
(49.1665 24.0882 -1.83913e-22)
(44.0771 17.1943 0)
(39.3949 12.4548 0)
(35.0185 9.05496 -5.21861e-23)
(31.3571 6.64531 -6.6069e-18)
(28.513 4.93539 5.03081e-23)
(26.3261 3.68794 3.13632e-18)
(24.6708 2.75077 3.11532e-18)
(23.465 2.02683 0)
(22.6016 1.44697 3.09453e-18)
(21.9947 0.966253 -2.58744e-23)
(21.5595 0.554136 0)
(21.2411 0.191748 3.75844e-19)
(20.9807 -0.132854 2.73796e-24)
(20.7685 -0.42726 -2.79171e-24)
(20.5812 -0.696462 1.39694e-18)
(20.4089 -0.944229 2.07765e-23)
(20.2442 -1.17301 -2.64689e-18)
(20.0838 -1.3849 2.57339e-18)
(19.9249 -1.58149 0)
(19.767 -1.7642 1.82565e-23)
(19.6075 -1.93397 -4.73495e-18)
(19.4466 -2.09186 1.78812e-23)
(19.2838 -2.23857 -4.47678e-18)
(19.1191 -2.37489 -8.7114e-18)
(18.9524 -2.50143 8.47976e-18)
(18.7837 -2.61872 -3.09786e-23)
(18.613 -2.72726 3.12342e-23)
(18.4404 -2.82754 0)
(18.266 -2.91993 7.65363e-18)
(18.09 -3.00488 -7.47032e-18)
(17.9126 -3.08272 0)
(17.734 -3.15383 -2.67428e-23)
(17.5546 -3.21857 9.00143e-25)
(17.3745 -3.27725 -6.8169e-18)
(17.1939 -3.33019 -8.65671e-25)
(17.0133 -3.37771 6.53227e-18)
(16.8328 -3.42011 -2.55964e-17)
(16.6527 -3.45772 -1.25428e-17)
(16.473 -3.49074 0)
(16.2943 -3.51954 1.20626e-17)
(16.1166 -3.54436 -2.21867e-23)
(15.9399 -3.56536 -1.16182e-17)
(15.7641 -3.5828 0)
(15.5901 -3.59702 0)
(15.418 -3.60825 -1.10099e-17)
(15.2468 -3.6165 -1.08198e-17)
(15.077 -3.62198 1.06358e-17)
(14.9092 -3.62509 -3.43386e-23)
(14.7434 -3.62595 0)
(14.5789 -3.62456 1.01127e-17)
(14.4159 -3.6211 3.13907e-23)
(14.2547 -3.61582 9.78366e-18)
(14.0954 -3.60888 -9.62372e-18)
(13.9377 -3.60034 -1.89324e-17)
(13.7813 -3.59021 2.7808e-23)
(13.6265 -3.57871 -1.78314e-23)
(13.4735 -3.56602 -9.00431e-18)
(13.3223 -3.55221 3.30434e-23)
(13.1727 -3.53734 -3.3925e-23)
(13.0247 -3.52153 -8.5479e-18)
(12.8784 -3.50485 0)
(12.7338 -3.48742 0)
(12.5916 -3.46949 4.04193e-18)
(12.4518 -3.45111 3.96231e-18)
(12.3142 -3.43235 -2.88452e-23)
(12.1787 -3.41319 1.69746e-23)
(12.0452 -3.39367 0)
(11.9126 -3.37355 0)
(11.7817 -3.35316 1.29129e-23)
(11.6579 -3.33396 0)
(57.6489 49.4684 2.26256e-17)
(56.6817 35.9203 -3.11545e-17)
(51.5016 25.2656 -1.63538e-22)
(46.1163 18.0144 2.73111e-22)
(41.1649 13.0332 -2.29363e-22)
(36.5649 9.46951 -6.57317e-18)
(32.7273 6.94653 5.986e-18)
(29.7554 5.15822 0)
(27.4801 3.85518 -2.72087e-18)
(25.7646 2.87665 0)
(24.5163 2.12032 0)
(23.6303 1.51465 -2.57905e-18)
(23.0091 1.01204 -2.54208e-18)
(22.5664 0.580861 -6.25112e-19)
(22.2416 0.201394 -4.79724e-24)
(21.9845 -0.138735 0)
(21.7736 -0.447559 5.86026e-19)
(21.5886 -0.73023 0)
(21.4191 -0.990672 2.22507e-18)
(21.2573 -1.23145 2.16486e-18)
(21.0999 -1.45472 -2.10553e-18)
(20.9434 -1.66209 1.59209e-23)
(20.788 -1.85508 0)
(20.6313 -2.03471 3.48506e-23)
(20.4731 -2.20204 0)
(20.3128 -2.35779 3.04176e-23)
(20.1505 -2.50277 3.57063e-18)
(19.986 -2.63762 0)
(19.8194 -2.76287 0)
(19.6506 -2.87907 -2.47959e-23)
(19.4797 -2.98668 2.50265e-23)
(19.307 -3.08612 2.36141e-23)
(19.1325 -3.17782 -7.93136e-25)
(18.9565 -3.26214 -2.33111e-23)
(18.7792 -3.33947 0)
(18.6009 -3.41017 0)
(18.4218 -3.47457 5.62345e-18)
(18.2422 -3.53299 0)
(18.0625 -3.58577 5.39532e-18)
(17.8827 -3.6332 2.11552e-17)
(17.7033 -3.67563 3.89022e-23)
(17.5242 -3.71327 -3.95085e-23)
(17.3461 -3.7465 -9.99074e-18)
(17.169 -3.77556 -7.487e-23)
(16.9926 -3.8006 8.35441e-23)
(16.8173 -3.82192 3.5499e-23)
(16.6436 -3.83985 -1.27099e-24)
(16.4718 -3.85464 -9.15749e-18)
(16.3008 -3.86628 1.80163e-17)
(16.1312 -3.87502 -3.31985e-23)
(15.9636 -3.88123 -8.72427e-18)
(15.7979 -3.88507 3.21548e-23)
(15.6334 -3.88651 -8.45676e-18)
(15.4704 -3.88576 -2.90198e-23)
(15.3091 -3.88308 3.19055e-23)
(15.1498 -3.87863 6.3349e-23)
(14.9919 -3.87245 -2.82519e-23)
(14.8354 -3.86459 1.56778e-17)
(14.6803 -3.85525 -3.00713e-23)
(14.527 -3.84463 2.55287e-24)
(14.3755 -3.8328 1.23421e-24)
(14.2254 -3.81982 -7.37305e-18)
(14.0771 -3.80583 7.25711e-18)
(13.9303 -3.79089 0)
(13.7852 -3.77513 -7.02355e-18)
(13.6425 -3.75881 2.69827e-23)
(13.5021 -3.74199 0)
(13.364 -3.72474 0)
(13.2279 -3.70703 -3.26586e-18)
(13.0938 -3.6889 -2.3738e-23)
(12.9606 -3.67013 2.4572e-23)
(12.829 -3.65101 3.05764e-18)
(12.7053 -3.63326 2.34759e-23)
(60.1391 51.649 -4.96572e-17)
(59.2414 37.5901 3.26337e-17)
(53.8837 26.4736 3.33057e-22)
(48.2162 18.8639 -8.84075e-18)
(42.987 13.6325 -7.33229e-18)
(38.1459 9.89634 6.3009e-18)
(34.11 7.25286 0)
(30.9878 5.38112 -2.59769e-18)