/*--------------------------------*- C++ -*----------------------------------*\
| =========                 |                                                 |
| \\      /  F ield         | OpenFOAM: The Open Source CFD Toolbox           |
|  \\    /   O peration     | Version:  2412                                  |
|   \\  /    A nd           | Website:  www.openfoam.com                      |
|    \\/     M anipulation  |                                                 |
\*---------------------------------------------------------------------------*/
FoamFile
{
    version     2.0;
    format      ascii;
    arch        "LSB;label=32;scalar=64";
    class       volScalarField;
    location    "160";
    object      nuTilda;
}
// * * * * * * * * * * * * * * * * * * * * * * * * * * * * * * * * * * * * * //

dimensions      [0 2 -1 0 0 0 0];

internalField   nonuniform List<scalar> 
8702
(
2.00258e-06
2.00193e-06
2.00158e-06
2.0015e-06
2.00144e-06
2.00129e-06
2.00109e-06
2.00079e-06
2.00043e-06
2.00011e-06
1.9998e-06
1.99947e-06
1.99915e-06
1.99886e-06
1.99857e-06
1.99833e-06
1.99807e-06
1.99782e-06
1.99762e-06
1.99737e-06
1.99712e-06
1.99689e-06
1.99665e-06
1.99641e-06
1.9962e-06
1.99599e-06
1.99577e-06
1.99557e-06
1.99538e-06
1.99517e-06
1.995e-06
1.99484e-06
1.99466e-06
1.99451e-06
1.99437e-06
1.99419e-06
1.99405e-06
1.99393e-06
1.99382e-06
1.99373e-06
1.99365e-06
1.99358e-06
1.99351e-06
1.99345e-06
1.99345e-06
1.99348e-06
1.99352e-06
1.99356e-06
1.99363e-06
1.99371e-06
1.9938e-06
1.99396e-06
1.99414e-06
1.99436e-06
1.99463e-06
1.99496e-06
1.99531e-06
1.9957e-06
1.99615e-06
1.99671e-06
1.99732e-06
1.99797e-06
1.99874e-06
1.99963e-06
2.00067e-06
2.0018e-06
2.00307e-06
2.00441e-06
2.00582e-06
2.00758e-06
2.00995e-06
2.01292e-06
2.01598e-06
2.01868e-06
2.02069e-06
2.02282e-06
2.02686e-06
2.03396e-06
2.0456e-06
2.06036e-06
2.07396e-06
2.0844e-06
6.10388e-06
6.10188e-06
6.10068e-06
6.10044e-06
6.10038e-06
6.10003e-06
6.09944e-06
6.09858e-06
6.09755e-06
6.09653e-06
6.09552e-06
6.0945e-06
6.0935e-06
6.09257e-06
6.09168e-06
6.09091e-06
6.09014e-06
6.08936e-06
6.08865e-06
6.0879e-06
6.08715e-06
6.08642e-06
6.08567e-06
6.08492e-06
6.08426e-06
6.08358e-06
6.08287e-06
6.08222e-06
6.08157e-06
6.0809e-06
6.08029e-06
6.07972e-06
6.07912e-06
6.07855e-06
6.07804e-06
6.07748e-06
6.07698e-06
6.07653e-06
6.07612e-06
6.07578e-06
6.07545e-06
6.07514e-06
6.07485e-06
6.07462e-06
6.07451e-06
6.07444e-06
6.07442e-06
6.07444e-06
6.07455e-06
6.07474e-06
6.07499e-06
6.07534e-06
6.07578e-06
6.07635e-06
6.07705e-06
6.07788e-06
6.07882e-06
6.07993e-06
6.08123e-06
6.08276e-06
6.0845e-06
6.0864e-06
6.08858e-06
6.09114e-06
6.09412e-06
6.09744e-06
6.10115e-06
6.10505e-06
6.10923e-06
6.11436e-06
6.12117e-06
6.12966e-06
6.13858e-06
6.14673e-06
6.1531e-06
6.15964e-06
6.17108e-06
6.19079e-06
6.22277e-06
6.26366e-06
6.30275e-06
6.3342e-06
1.03242e-05
1.03208e-05
1.03186e-05
1.03181e-05
1.03182e-05
1.03178e-05
1.0317e-05
1.03157e-05
1.0314e-05
1.03122e-05
1.03104e-05
1.03086e-05
1.03069e-05
1.03052e-05
1.03037e-05
1.03023e-05
1.03009e-05
1.02996e-05
1.02982e-05
1.02969e-05
1.02956e-05
1.02943e-05
1.0293e-05
1.02916e-05
1.02904e-05
1.02891e-05
1.02878e-05
1.02865e-05
1.02853e-05
1.0284e-05
1.02828e-05
1.02816e-05
1.02804e-05
1.02793e-05
1.02782e-05
1.02771e-05
1.0276e-05
1.0275e-05
1.02741e-05
1.02733e-05
1.02725e-05
1.02717e-05
1.0271e-05
1.02704e-05
1.02699e-05
1.02694e-05
1.02691e-05
1.02688e-05
1.02687e-05
1.02687e-05
1.02688e-05
1.02691e-05
1.02695e-05
1.02701e-05
1.0271e-05
1.0272e-05
1.02732e-05
1.02747e-05
1.02765e-05
1.02787e-05
1.02811e-05
1.02839e-05
1.02872e-05
1.0291e-05
1.02954e-05
1.03005e-05
1.03062e-05
1.03122e-05
1.03188e-05
1.03268e-05
1.03371e-05
1.035e-05
1.03639e-05
1.03771e-05
1.03881e-05
1.0399e-05
1.04163e-05
1.0445e-05
1.04909e-05
1.05504e-05
1.06102e-05
1.06617e-05
1.45034e-05
1.44988e-05
1.44953e-05
1.44943e-05
1.44948e-05
1.44947e-05
1.44938e-05
1.44921e-05
1.44899e-05
1.44874e-05
1.44848e-05
1.44821e-05
1.44795e-05
1.44771e-05
1.44748e-05
1.44727e-05
1.44707e-05
1.44688e-05
1.44668e-05
1.44649e-05
1.44629e-05
1.44608e-05
1.44588e-05
1.44568e-05
1.44548e-05
1.44528e-05
1.44508e-05
1.44487e-05
1.44467e-05
1.44447e-05
1.44427e-05
1.44407e-05
1.44387e-05
1.44368e-05
1.44348e-05
1.44329e-05
1.44311e-05
1.44293e-05
1.44276e-05
1.4426e-05
1.44244e-05
1.44228e-05
1.44214e-05
1.442e-05
1.44188e-05
1.44176e-05
1.44166e-05
1.44156e-05
1.44148e-05
1.44142e-05
1.44138e-05
1.44135e-05
1.44134e-05
1.44136e-05
1.4414e-05
1.44147e-05
1.44157e-05
1.4417e-05
1.44187e-05
1.44209e-05
1.44235e-05
1.44265e-05
1.44301e-05
1.44344e-05
1.44395e-05
1.44455e-05
1.44523e-05
1.44597e-05
1.44678e-05
1.44775e-05
1.449e-05
1.45056e-05
1.4523e-05
1.45401e-05
1.45552e-05
1.45702e-05
1.45913e-05
1.46248e-05
1.46772e-05
1.47462e-05
1.482e-05
1.48881e-05
1.85235e-05
1.85179e-05
1.85129e-05
1.85113e-05
1.85122e-05
1.85127e-05
1.8512e-05
1.85102e-05
1.85075e-05
1.85043e-05
1.85009e-05
1.84974e-05
1.84939e-05
1.84906e-05
1.84875e-05
1.84847e-05
1.84821e-05
1.84794e-05
1.84768e-05
1.84742e-05
1.84714e-05
1.84686e-05
1.84658e-05
1.8463e-05
1.84601e-05
1.84573e-05
1.84544e-05
1.84514e-05
1.84484e-05
1.84454e-05
1.84424e-05
1.84394e-05
1.84364e-05
1.84334e-05
1.84304e-05
1.84274e-05
1.84244e-05
1.84216e-05
1.84187e-05
1.8416e-05
1.84133e-05
1.84106e-05
1.84079e-05
1.84054e-05
1.8403e-05
1.84006e-05
1.83984e-05
1.83962e-05
1.83943e-05
1.83925e-05
1.83909e-05
1.83895e-05
1.83883e-05
1.83874e-05
1.83868e-05
1.83864e-05
1.83864e-05
1.83867e-05
1.83875e-05
1.83888e-05
1.83906e-05
1.8393e-05
1.8396e-05
1.83997e-05
1.84045e-05
1.84102e-05
1.8417e-05
1.84245e-05
1.84329e-05
1.84429e-05
1.84557e-05
1.8472e-05
1.84908e-05
1.85102e-05
1.85283e-05
1.85462e-05
1.85689e-05
1.8603e-05
1.86549e-05
1.87245e-05
1.8804e-05
1.88836e-05
2.22942e-05
2.2288e-05
2.22814e-05
2.22789e-05
2.22802e-05
2.22815e-05
2.22814e-05
2.22796e-05
2.22766e-05
2.22729e-05
2.22687e-05
2.22643e-05
2.22599e-05
2.22558e-05
2.22519e-05
2.22483e-05
2.2245e-05
2.22417e-05
2.22383e-05
2.22349e-05
2.22314e-05
2.22277e-05
2.2224e-05
2.22202e-05
2.22164e-05
2.22125e-05
2.22086e-05
2.22045e-05
2.22004e-05
2.21962e-05
2.2192e-05
2.21877e-05
2.21835e-05
2.21791e-05
2.21747e-05
2.21703e-05
2.21659e-05
2.21616e-05
2.21572e-05
2.21529e-05
2.21486e-05
2.21443e-05
2.21401e-05
2.21358e-05
2.21317e-05
2.21276e-05
2.21236e-05
2.21196e-05
2.21159e-05
2.21122e-05
2.21088e-05
2.21055e-05
2.21024e-05
2.20996e-05
2.2097e-05
2.20947e-05
2.20927e-05
2.20911e-05
2.209e-05
2.20893e-05
2.20893e-05
2.20897e-05
2.20909e-05
2.20928e-05
2.20957e-05
2.20997e-05
2.21049e-05
2.21109e-05
2.21179e-05
2.21264e-05
2.21374e-05
2.2152e-05
2.21696e-05
2.2189e-05
2.22083e-05
2.22273e-05
2.22491e-05
2.22796e-05
2.23242e-05
2.23855e-05
2.24617e-05
2.25454e-05
2.57406e-05
2.57345e-05
2.57263e-05
2.57226e-05
2.57242e-05
2.57264e-05
2.57272e-05
2.57259e-05
2.57228e-05
2.57186e-05
2.57138e-05
2.57085e-05
2.57032e-05
2.56982e-05
2.56934e-05
2.56891e-05
2.5685e-05
2.56809e-05
2.56769e-05
2.56726e-05
2.56682e-05
2.56636e-05
2.56589e-05
2.56541e-05
2.56491e-05
2.5644e-05
2.56388e-05
2.56335e-05
2.5628e-05
2.56224e-05
2.56167e-05
2.56109e-05
2.5605e-05
2.5599e-05
2.55929e-05
2.55867e-05
2.55804e-05
2.55741e-05
2.55678e-05
2.55614e-05
2.5555e-05
2.55486e-05
2.55421e-05
2.55356e-05
2.55291e-05
2.55225e-05
2.5516e-05
2.55095e-05
2.55031e-05
2.54968e-05
2.54906e-05
2.54845e-05
2.54785e-05
2.54728e-05
2.54672e-05
2.54619e-05
2.54568e-05
2.5452e-05
2.54476e-05
2.54437e-05
2.54403e-05
2.54374e-05
2.54351e-05
2.54335e-05
2.54328e-05
2.54332e-05
2.54348e-05
2.54374e-05
2.54409e-05
2.54456e-05
2.54524e-05
2.54622e-05
2.54756e-05
2.54919e-05
2.55097e-05
2.55274e-05
2.55453e-05
2.55676e-05
2.55984e-05
2.56428e-05
2.57057e-05
2.57844e-05
2.8798e-05
2.87928e-05
2.87832e-05
2.87778e-05
2.87795e-05
2.87828e-05
2.87847e-05
2.87842e-05
2.87814e-05
2.87769e-05
2.87715e-05
2.87654e-05
2.87592e-05
2.87532e-05
2.87476e-05
2.87424e-05
2.87376e-05
2.87327e-05
2.87278e-05
2.87227e-05
2.87173e-05
2.87117e-05
2.87058e-05
2.86997e-05
2.86935e-05
2.8687e-05
2.86804e-05
2.86735e-05
2.86664e-05
2.86591e-05
2.86515e-05
2.86438e-05
2.86359e-05
2.86278e-05
2.86195e-05
2.86111e-05
2.86024e-05
2.85937e-05
2.85848e-05
2.85758e-05
2.85667e-05
2.85574e-05
2.8548e-05
2.85385e-05
2.85288e-05
2.8519e-05
2.85091e-05
2.84991e-05
2.84891e-05
2.84791e-05
2.8469e-05
2.8459e-05
2.8449e-05
2.8439e-05
2.84292e-05
2.84194e-05
2.84098e-05
2.84003e-05
2.83911e-05
2.83822e-05
2.83736e-05
2.83655e-05
2.83578e-05
2.83507e-05
2.83443e-05
2.83388e-05
2.83344e-05
2.83311e-05
2.83285e-05
2.83267e-05
2.83261e-05
2.83279e-05
2.83333e-05
2.83428e-05
2.83554e-05
2.83683e-05
2.83787e-05
2.83883e-05
2.83991e-05
2.84184e-05
2.84578e-05
2.85206e-05
3.1411e-05
3.14076e-05
3.13969e-05
3.13897e-05
3.13911e-05
3.13953e-05
3.13986e-05
3.13991e-05
3.13968e-05
3.13924e-05
3.13865e-05
3.13797e-05
3.13726e-05
3.13656e-05
3.13591e-05
3.1353e-05
3.13473e-05
3.13417e-05
3.13358e-05
3.13297e-05
3.13233e-05
3.13164e-05
3.13093e-05
3.13017e-05
3.12939e-05
3.12857e-05
3.12774e-05
3.12687e-05
3.12596e-05
3.12502e-05
3.12405e-05
3.12304e-05
3.12201e-05
3.12094e-05
3.11984e-05
3.11871e-05
3.11755e-05
3.11637e-05
3.11516e-05
3.11392e-05
3.11266e-05
3.11137e-05
3.11005e-05
3.1087e-05
3.10732e-05
3.10592e-05
3.10448e-05
3.10303e-05
3.10155e-05
3.10005e-05
3.09853e-05
3.097e-05
3.09544e-05
3.09388e-05
3.09231e-05
3.09073e-05
3.08913e-05
3.08754e-05
3.08594e-05
3.08435e-05
3.08277e-05
3.08122e-05
3.07969e-05
3.07818e-05
3.07671e-05
3.0753e-05
3.07397e-05
3.07275e-05
3.07158e-05
3.07042e-05
3.06927e-05
3.06826e-05
3.06759e-05
3.0674e-05
3.06769e-05
3.06806e-05
3.06792e-05
3.06712e-05
3.06564e-05
3.06433e-05
3.06497e-05
3.06853e-05
3.35348e-05
3.35342e-05
3.3523e-05
3.35137e-05
3.35143e-05
3.35193e-05
3.3524e-05
3.35259e-05
3.35245e-05
3.35202e-05
3.35141e-05
3.35066e-05
3.34986e-05
3.34906e-05
3.3483e-05
3.34759e-05
3.34693e-05
3.34627e-05
3.34559e-05
3.34487e-05
3.34409e-05
3.34327e-05
3.3424e-05
3.34147e-05
3.34051e-05
3.33949e-05
3.33845e-05
3.33736e-05
3.33622e-05
3.33503e-05
3.33378e-05
3.33249e-05
3.33116e-05
3.32977e-05
3.32834e-05
3.32686e-05
3.32532e-05
3.32376e-05
3.32214e-05
3.32049e-05
3.31878e-05
3.31704e-05
3.31524e-05
3.3134e-05
3.3115e-05
3.30954e-05
3.30754e-05
3.30549e-05
3.3034e-05
3.30126e-05
3.29908e-05
3.29686e-05
3.29459e-05
3.29228e-05
3.28994e-05
3.28756e-05
3.28513e-05
3.28268e-05
3.28019e-05
3.27767e-05
3.27513e-05
3.27258e-05
3.27002e-05
3.26744e-05
3.26484e-05
3.26226e-05
3.25972e-05
3.25726e-05
3.25481e-05
3.25231e-05
3.24969e-05
3.24707e-05
3.24473e-05
3.24292e-05
3.24171e-05
3.24062e-05
3.2388e-05
3.23575e-05
3.23121e-05
3.2261e-05
3.22264e-05
3.22241e-05
3.22423e-05
3.51369e-05
3.51404e-05
3.51295e-05
3.51181e-05
3.51174e-05
3.51227e-05
3.51287e-05
3.51321e-05
3.51317e-05
3.5128e-05
3.51217e-05
3.51136e-05
3.51047e-05
3.50956e-05
3.50869e-05
3.50786e-05
3.50709e-05
3.50632e-05
3.50551e-05
3.50466e-05
3.50374e-05
3.50275e-05
3.5017e-05
3.50057e-05
3.49939e-05
3.49813e-05
3.49684e-05
3.49548e-05
3.49405e-05
3.49255e-05
3.49098e-05
3.48935e-05
3.48764e-05
3.48587e-05
3.48403e-05
3.48212e-05
3.48013e-05
3.47809e-05
3.47598e-05
3.47381e-05
3.47156e-05
3.46925e-05
3.46686e-05
3.46439e-05
3.46184e-05
3.45921e-05
3.4565e-05
3.45371e-05
3.45084e-05
3.4479e-05
3.44489e-05
3.44179e-05
3.43862e-05
3.43538e-05
3.43206e-05
3.42866e-05
3.42519e-05
3.42164e-05
3.41802e-05
3.41432e-05
3.41055e-05
3.40673e-05
3.40284e-05
3.39889e-05
3.39485e-05
3.39076e-05
3.38667e-05
3.3826e-05
3.3785e-05
3.37424e-05
3.36974e-05
3.36509e-05
3.36062e-05
3.35667e-05
3.3534e-05
3.35026e-05
3.34621e-05
3.34044e-05
3.33243e-05
3.32315e-05
3.31507e-05
3.31021e-05
3.30854e-05
3.61998e-05
3.62082e-05
3.61989e-05
3.61858e-05
3.61832e-05
3.61882e-05
3.61952e-05
3.61999e-05
3.62007e-05
3.61976e-05
3.61913e-05
3.61827e-05
3.61727e-05
3.61624e-05
3.61523e-05
3.61427e-05
3.61336e-05
3.61245e-05
3.6115e-05
3.61048e-05
3.60938e-05
3.60819e-05
3.60691e-05
3.60554e-05
3.60409e-05
3.60255e-05
3.60095e-05
3.59926e-05
3.59748e-05
3.59562e-05
3.59365e-05
3.5916e-05
3.58946e-05
3.58722e-05
3.58488e-05
3.58245e-05
3.57992e-05
3.5773e-05
3.57459e-05
3.57179e-05
3.56888e-05
3.56587e-05
3.56277e-05
3.55954e-05
3.55621e-05
3.55275e-05
3.54918e-05
3.54549e-05
3.54169e-05
3.53777e-05
3.53373e-05
3.52958e-05
3.5253e-05
3.52091e-05
3.5164e-05
3.51177e-05
3.50701e-05
3.50212e-05
3.49711e-05
3.49197e-05
3.48671e-05
3.48133e-05
3.47583e-05
3.4702e-05
3.46441e-05
3.45849e-05
3.4525e-05
3.44646e-05
3.44031e-05
3.43392e-05
3.42715e-05
3.42007e-05
3.41303e-05
3.40648e-05
3.4006e-05
3.39484e-05
3.38802e-05
3.37909e-05
3.36734e-05
3.35376e-05
3.34088e-05
3.33095e-05
3.32485e-05
3.67234e-05
3.67378e-05
3.67312e-05
3.67171e-05
3.67122e-05
3.6716e-05
3.67233e-05
3.6729e-05
3.67308e-05
3.67283e-05
3.67219e-05
3.67126e-05
3.67015e-05
3.66896e-05
3.66778e-05
3.66664e-05
3.66555e-05
3.66445e-05
3.6633e-05
3.66208e-05
3.66075e-05
3.65931e-05
3.65776e-05
3.65608e-05
3.65431e-05
3.65242e-05
3.65044e-05
3.64836e-05
3.64616e-05
3.64385e-05
3.64141e-05
3.63886e-05
3.63618e-05
3.63339e-05
3.63046e-05
3.62741e-05
3.62423e-05
3.62094e-05
3.61751e-05
3.61396e-05
3.61027e-05
3.60645e-05
3.60249e-05
3.59838e-05
3.59411e-05
3.58969e-05
3.5851e-05
3.58035e-05
3.57544e-05
3.57036e-05
3.56512e-05
3.55972e-05
3.55414e-05
3.54839e-05
3.54247e-05
3.53638e-05
3.53011e-05
3.52366e-05
3.51702e-05
3.51019e-05
3.50319e-05
3.496e-05
3.48862e-05
3.48104e-05
3.47323e-05
3.4652e-05
3.45702e-05
3.4487e-05
3.4402e-05
3.43136e-05
3.42199e-05
3.41217e-05
3.40226e-05
3.39272e-05
3.38382e-05
3.37495e-05
3.3649e-05
3.35253e-05
3.33699e-05
3.31925e-05
3.30178e-05
3.28684e-05
3.27593e-05
3.67302e-05
3.6751e-05
3.67485e-05
3.67342e-05
3.67267e-05
3.67285e-05
3.67348e-05
3.67405e-05
3.67426e-05
3.67402e-05
3.67334e-05
3.6723e-05
3.67102e-05
3.66962e-05
3.66821e-05
3.66681e-05
3.66546e-05
3.6641e-05
3.66268e-05
3.66117e-05
3.65953e-05
3.65776e-05
3.65586e-05
3.65381e-05
3.65162e-05
3.6493e-05
3.64686e-05
3.6443e-05
3.64159e-05
3.63874e-05
3.63574e-05
3.63259e-05
3.62929e-05
3.62584e-05
3.62223e-05
3.61846e-05
3.61452e-05
3.61044e-05
3.60619e-05
3.60179e-05
3.59721e-05
3.59245e-05
3.58752e-05
3.5824e-05
3.57707e-05
3.57154e-05
3.5658e-05
3.55985e-05
3.55368e-05
3.5473e-05
3.54069e-05
3.53387e-05
3.52681e-05
3.51953e-05
3.51203e-05
3.50428e-05
3.49631e-05
3.48809e-05
3.47962e-05
3.47091e-05
3.46196e-05
3.45276e-05
3.44331e-05
3.43359e-05
3.42358e-05
3.41328e-05
3.40274e-05
3.392e-05
3.38098e-05
3.36951e-05
3.35742e-05
3.34473e-05
3.33181e-05
3.31915e-05
3.30702e-05
3.29478e-05
3.28128e-05
3.26545e-05
3.24637e-05
3.22499e-05
3.20358e-05
3.18424e-05
3.16874e-05
3.62726e-05
3.62999e-05
3.63024e-05
3.62886e-05
3.62781e-05
3.62761e-05
3.62796e-05
3.62834e-05
3.62843e-05
3.62807e-05
3.62723e-05
3.62599e-05
3.62443e-05
3.62271e-05
3.62092e-05
3.61914e-05
3.61739e-05
3.61563e-05
3.6138e-05
3.61187e-05
3.6098e-05
3.60758e-05
3.60521e-05
3.60265e-05
3.59995e-05
3.59708e-05
3.59406e-05
3.5909e-05
3.58757e-05
3.58407e-05
3.5804e-05
3.57655e-05
3.57252e-05
3.56832e-05
3.56392e-05
3.55933e-05
3.55455e-05
3.54959e-05
3.54443e-05
3.53908e-05
3.53351e-05
3.52774e-05
3.52175e-05
3.51553e-05
3.50906e-05
3.50234e-05
3.49536e-05
3.48812e-05
3.48061e-05
3.47282e-05
3.46476e-05
3.45642e-05
3.44779e-05
3.43887e-05
3.42966e-05
3.42016e-05
3.41036e-05
3.40026e-05
3.38985e-05
3.37914e-05
3.36812e-05
3.35681e-05
3.3452e-05
3.33328e-05
3.32102e-05
3.30844e-05
3.29558e-05
3.28247e-05
3.26903e-05
3.25508e-05
3.24042e-05
3.22508e-05
3.20939e-05
3.19381e-05
3.17861e-05
3.16316e-05
3.14637e-05
3.12745e-05
3.1056e-05
3.08161e-05
3.0574e-05
3.03477e-05
3.01552e-05
3.54464e-05
3.54791e-05
3.54859e-05
3.5472e-05
3.54568e-05
3.54484e-05
3.54458e-05
3.54443e-05
3.54408e-05
3.54333e-05
3.54209e-05
3.5404e-05
3.53835e-05
3.53607e-05
3.53369e-05
3.53128e-05
3.52889e-05
3.52648e-05
3.524e-05
3.52143e-05
3.51871e-05
3.51584e-05
3.51279e-05
3.50955e-05
3.50614e-05
3.50255e-05
3.4988e-05
3.49487e-05
3.49077e-05
3.48648e-05
3.48201e-05
3.47734e-05
3.47247e-05
3.4674e-05
3.46213e-05
3.45664e-05
3.45094e-05
3.44503e-05
3.4389e-05
3.43256e-05
3.42598e-05
3.41916e-05
3.41209e-05
3.40476e-05
3.39714e-05
3.38924e-05
3.38104e-05
3.37253e-05
3.3637e-05
3.35455e-05
3.34507e-05
3.33525e-05
3.32509e-05
3.31458e-05
3.30372e-05
3.2925e-05
3.28093e-05
3.26898e-05
3.25667e-05
3.24399e-05
3.23094e-05
3.21755e-05
3.20381e-05
3.18974e-05
3.17532e-05
3.1606e-05
3.14563e-05
3.13047e-05
3.11504e-05
3.09915e-05
3.08259e-05
3.06532e-05
3.04763e-05
3.02993e-05
3.01242e-05
2.9945e-05
2.97522e-05
2.95428e-05
2.93108e-05
2.90619e-05
2.88094e-05
2.85662e-05
2.83487e-05
3.44045e-05
3.44423e-05
3.445e-05
3.44323e-05
3.44081e-05
3.43883e-05
3.43736e-05
3.4361e-05
3.43475e-05
3.43308e-05
3.43096e-05
3.42839e-05
3.42541e-05
3.42216e-05
3.41875e-05
3.41529e-05
3.41184e-05
3.40836e-05
3.40484e-05
3.40123e-05
3.39749e-05
3.39361e-05
3.38957e-05
3.38533e-05
3.38093e-05
3.37635e-05
3.3716e-05
3.36668e-05
3.36159e-05
3.35631e-05
3.35085e-05
3.34521e-05
3.33936e-05
3.33331e-05
3.32706e-05
3.32059e-05
3.31392e-05
3.30703e-05
3.29993e-05
3.29261e-05
3.28505e-05
3.27724e-05
3.26918e-05
3.26084e-05
3.25221e-05
3.24328e-05
3.23403e-05
3.22445e-05
3.21453e-05
3.20426e-05
3.19362e-05
3.18262e-05
3.17122e-05
3.15944e-05
3.14726e-05
3.13468e-05
3.12168e-05
3.10825e-05
3.09438e-05
3.08006e-05
3.06529e-05
3.05009e-05
3.03446e-05
3.01842e-05
3.00198e-05
2.98526e-05
2.96837e-05
2.95147e-05
2.9346e-05
2.9177e-05
2.90046e-05
2.88271e-05
2.86458e-05
2.84635e-05
2.82816e-05
2.80947e-05
2.78952e-05
2.76857e-05
2.74647e-05
2.72335e-05
2.69963e-05
2.67584e-05
2.65316e-05
2.63006e-05
3.34284e-05
3.34259e-05
3.33947e-05
3.33523e-05
3.33116e-05
3.32753e-05
3.32417e-05
3.32086e-05
3.31738e-05
3.31353e-05
3.30928e-05
3.30463e-05
3.29966e-05
3.29451e-05
3.28928e-05
3.28404e-05
3.27881e-05
3.27356e-05
3.26827e-05
3.2629e-05
3.25743e-05
3.25183e-05
3.24609e-05
3.24021e-05
3.2342e-05
3.22804e-05
3.22175e-05
3.21532e-05
3.20874e-05
3.20202e-05
3.19515e-05
3.18812e-05
3.18092e-05
3.17355e-05
3.166e-05
3.15829e-05
3.15039e-05
3.14233e-05
3.13408e-05
3.12565e-05
3.11701e-05
3.10815e-05
3.09905e-05
3.0897e-05
3.08008e-05
3.07018e-05
3.05997e-05
3.04945e-05
3.0386e-05
3.02741e-05
3.01585e-05
3.00392e-05
2.9916e-05
2.97889e-05
2.96576e-05
2.95221e-05
2.93821e-05
2.92373e-05
2.90873e-05
2.89318e-05
2.87707e-05
2.86036e-05
2.84299e-05
2.82495e-05
2.80633e-05
2.78733e-05
2.76831e-05
2.74961e-05
2.73175e-05
2.71521e-05
2.6991e-05
2.68296e-05
2.66679e-05
2.65066e-05
2.63424e-05
2.617e-05
2.59959e-05
2.5824e-05
2.56509e-05
2.54695e-05
2.52724e-05
2.50609e-05
2.4836e-05
2.45795e-05
2.43301e-05
3.27892e-05
3.27521e-05
3.26894e-05
3.26123e-05
3.25354e-05
3.24622e-05
3.23924e-05
3.23248e-05
3.22576e-05
3.21881e-05
3.21157e-05
3.20398e-05
3.19609e-05
3.188e-05
3.17981e-05
3.17163e-05
3.1635e-05
3.15542e-05
3.14738e-05
3.13935e-05
3.13132e-05
3.12326e-05
3.11515e-05
3.107e-05
3.09882e-05
3.09058e-05
3.08232e-05
3.07406e-05
3.06582e-05
3.05752e-05
3.04914e-05
3.04065e-05
3.03203e-05
3.0233e-05
3.01445e-05
3.00547e-05
2.99637e-05
2.98714e-05
2.97781e-05
2.96841e-05
2.95896e-05
2.94948e-05
2.93993e-05
2.93025e-05
2.92043e-05
2.91044e-05
2.90027e-05
2.88992e-05
2.87935e-05
2.86856e-05
2.85751e-05
2.8462e-05
2.83461e-05
2.82272e-05
2.81054e-05
2.79803e-05
2.78518e-05
2.77195e-05
2.75829e-05
2.74413e-05
2.72938e-05
2.71393e-05
2.69753e-05
2.67987e-05
2.66049e-05
2.6393e-05
2.61661e-05
2.59243e-05
2.56811e-05
2.55215e-05
2.5403e-05
2.5295e-05
2.51905e-05
2.509e-05
2.49973e-05
2.49111e-05
2.48305e-05
2.477e-05
2.47255e-05
2.46853e-05
2.46334e-05
2.45603e-05
2.44758e-05
2.44097e-05
2.44058e-05
3.30722e-05
3.29655e-05
3.28389e-05
3.26972e-05
3.25573e-05
3.24218e-05
3.22908e-05
3.21648e-05
3.20419e-05
3.19188e-05
3.17944e-05
3.16675e-05
3.15383e-05
3.14076e-05
3.12761e-05
3.1145e-05
3.10152e-05
3.08871e-05
3.07611e-05
3.06366e-05
3.05138e-05
3.03928e-05
3.02737e-05
3.01563e-05
3.00405e-05
2.9926e-05
2.98145e-05
2.97093e-05
2.96097e-05
2.95113e-05
2.94122e-05
2.93111e-05
2.9207e-05
2.9103e-05
2.89963e-05
2.88871e-05
2.87747e-05
2.86598e-05
2.8543e-05
2.84271e-05
2.83165e-05
2.82132e-05
2.81144e-05
2.80174e-05
2.79215e-05
2.78266e-05
2.77326e-05
2.76402e-05
2.75483e-05
2.74568e-05
2.73657e-05
2.7275e-05
2.71841e-05
2.70932e-05
2.70023e-05
2.69115e-05
2.6821e-05
2.67308e-05
2.66411e-05
2.65517e-05
2.6463e-05
2.63752e-05
2.62871e-05
2.61971e-05
2.61023e-05
2.59982e-05
2.58913e-05
2.57893e-05
2.57012e-05
2.56325e-05
2.55746e-05
2.55232e-05
2.54747e-05
2.5431e-05
2.53982e-05
2.53829e-05
2.53905e-05
2.54301e-05
2.55009e-05
2.56068e-05
2.57207e-05
2.57902e-05
2.58233e-05
2.58713e-05
2.59824e-05
3.61445e-05
3.59679e-05
3.57723e-05
3.55581e-05
3.5347e-05
3.51393e-05
3.49352e-05
3.47354e-05
3.45391e-05
3.43434e-05
3.41469e-05
3.39483e-05
3.37475e-05
3.35455e-05
3.33427e-05
3.31402e-05
3.29395e-05
3.27417e-05
3.25476e-05
3.23567e-05
3.21692e-05
3.19849e-05
3.18037e-05
3.16256e-05
3.14507e-05
3.12788e-05
3.11103e-05
3.0945e-05
3.07835e-05
3.06251e-05
3.04699e-05
3.03176e-05
3.01683e-05
3.00222e-05
2.98794e-05
2.97402e-05
2.96045e-05
2.94726e-05
2.93447e-05
2.92214e-05
2.91031e-05
2.899e-05
2.88817e-05
2.87775e-05
2.86774e-05
2.85809e-05
2.84877e-05
2.83978e-05
2.83108e-05
2.82265e-05
2.81447e-05
2.80654e-05
2.79887e-05
2.79147e-05
2.78437e-05
2.77761e-05
2.77124e-05
2.76531e-05
2.75992e-05
2.75521e-05
2.75148e-05
2.74918e-05
2.74865e-05
2.75038e-05
2.75516e-05
2.75643e-05
2.75547e-05
2.75346e-05
2.7512e-05
2.74918e-05
2.74773e-05
2.74643e-05
2.74504e-05
2.74365e-05
2.74296e-05
2.74355e-05
2.74621e-05
2.7514e-05
2.75826e-05
2.76544e-05
2.77152e-05
2.77526e-05
2.7774e-05
2.78193e-05
2.79265e-05
4.19243e-05
4.16964e-05
4.14459e-05
4.1169e-05
4.08958e-05
4.06192e-05
4.03408e-05
4.00629e-05
3.97862e-05
3.95087e-05
3.92293e-05
3.89469e-05
3.86619e-05
3.83751e-05
3.80868e-05
3.77982e-05
3.75109e-05
3.72263e-05
3.69454e-05
3.66687e-05
3.63967e-05
3.61295e-05
3.58669e-05
3.56089e-05
3.53557e-05
3.51074e-05
3.48641e-05
3.46258e-05
3.43926e-05
3.41646e-05
3.39422e-05
3.37255e-05
3.35146e-05
3.33098e-05
3.31113e-05
3.29196e-05
3.27346e-05
3.25567e-05
3.23861e-05
3.22229e-05
3.20673e-05
3.19192e-05
3.17785e-05
3.16449e-05
3.15183e-05
3.13983e-05
3.12844e-05
3.11762e-05
3.10735e-05
3.09757e-05
3.08826e-05
3.07939e-05
3.07095e-05
3.06293e-05
3.05533e-05
3.04817e-05
3.04145e-05
3.03522e-05
3.02948e-05
3.02425e-05
3.01954e-05
3.0154e-05
3.01173e-05
3.00837e-05
3.00504e-05
3.00107e-05
2.99666e-05
2.99214e-05
2.98783e-05
2.98394e-05
2.98052e-05
2.97734e-05
2.97422e-05
2.97112e-05
2.96852e-05
2.96697e-05
2.96697e-05
2.96879e-05
2.97158e-05
2.97421e-05
2.97593e-05
2.97618e-05
2.9756e-05
2.97742e-05
2.98467e-05
2.99978e-05
3.02566e-05
3.06142e-05
4.8183e-05
4.79419e-05
4.76748e-05
4.73737e-05
4.70762e-05
4.67633e-05
4.644e-05
4.61105e-05
4.5777e-05
4.5439e-05
4.5096e-05
4.47478e-05
4.4395e-05
4.40383e-05
4.36786e-05
4.33169e-05
4.29551e-05
4.25948e-05
4.22375e-05
4.18841e-05
4.15352e-05
4.11913e-05
4.08526e-05
4.05189e-05
4.01907e-05
3.98678e-05
3.95505e-05
3.92387e-05
3.89326e-05
3.86324e-05
3.83384e-05
3.80506e-05
3.77692e-05
3.74946e-05
3.7227e-05
3.69667e-05
3.67139e-05
3.64691e-05
3.62323e-05
3.6004e-05
3.57843e-05
3.55734e-05
3.53714e-05
3.51783e-05
3.49941e-05
3.48186e-05
3.46514e-05
3.44924e-05
3.4341e-05
3.41969e-05
3.40595e-05
3.39282e-05
3.38027e-05
3.36825e-05
3.35673e-05
3.34566e-05
3.33502e-05
3.32477e-05
3.31488e-05
3.30529e-05
3.29597e-05
3.2869e-05
3.27801e-05
3.26927e-05
3.2606e-05
3.25196e-05
3.24339e-05
3.235e-05
3.22684e-05
3.21916e-05
3.21192e-05
3.20495e-05
3.19811e-05
3.19132e-05
3.18498e-05
3.17952e-05
3.1753e-05
3.17252e-05
3.17052e-05
3.16846e-05
3.16585e-05
3.16233e-05
3.15842e-05
3.15667e-05
3.15941e-05
3.16854e-05
3.18601e-05
3.21101e-05
5.36714e-05
5.33787e-05
5.30544e-05
5.27086e-05
5.23475e-05
5.19745e-05
5.15907e-05
5.11968e-05
5.07933e-05
5.03815e-05
4.99627e-05
4.95381e-05
4.91088e-05
4.86768e-05
4.82441e-05
4.78126e-05
4.73837e-05
4.69583e-05
4.65373e-05
4.61209e-05
4.57095e-05
4.53035e-05
4.4903e-05
4.45081e-05
4.41189e-05
4.37357e-05
4.33584e-05
4.29875e-05
4.2623e-05
4.22651e-05
4.1914e-05
4.157e-05
4.12333e-05
4.09042e-05
4.05829e-05
4.02699e-05
3.99653e-05
3.96696e-05
3.9383e-05
3.91059e-05
3.88384e-05
3.85809e-05
3.83333e-05
3.80957e-05
3.7868e-05
3.76498e-05
3.74409e-05
3.72406e-05
3.70484e-05
3.68635e-05
3.66854e-05
3.65134e-05
3.63467e-05
3.61848e-05
3.6027e-05
3.58728e-05
3.57217e-05
3.55733e-05
3.54273e-05
3.52837e-05
3.51426e-05
3.50038e-05
3.48672e-05
3.47332e-05
3.46023e-05
3.44751e-05
3.43518e-05
3.42331e-05
3.41176e-05
3.40042e-05
3.38927e-05
3.37858e-05
3.3687e-05
3.35991e-05
3.35235e-05
3.34555e-05
3.3389e-05
3.33206e-05
3.32481e-05
3.31753e-05
3.31212e-05
3.31034e-05
3.31361e-05
3.32323e-05
3.33861e-05
5.97507e-05
5.94823e-05
5.91727e-05
5.88293e-05
5.84592e-05
5.80668e-05
5.76548e-05
5.72248e-05
5.67787e-05
5.63187e-05
5.5847e-05
5.53651e-05
5.48746e-05
5.43778e-05
5.38768e-05
5.33739e-05
5.28712e-05
5.237e-05
5.18715e-05
5.13767e-05
5.08858e-05
5.03996e-05
4.99185e-05
4.94428e-05
4.89728e-05
4.85086e-05
4.80504e-05
4.75984e-05
4.71529e-05
4.67139e-05
4.62817e-05
4.58565e-05
4.54383e-05
4.50276e-05
4.46243e-05
4.42289e-05
4.38417e-05
4.34628e-05
4.30927e-05
4.27319e-05
4.23806e-05
4.20394e-05
4.17087e-05
4.13887e-05
4.10798e-05
4.07819e-05
4.04951e-05
4.0219e-05
3.99532e-05
3.9697e-05
3.94499e-05
3.9211e-05
3.89794e-05
3.87543e-05
3.8535e-05
3.83208e-05
3.81108e-05
3.79048e-05
3.77024e-05
3.75036e-05
3.73083e-05
3.71166e-05
3.69283e-05
3.67436e-05
3.6563e-05
3.63874e-05
3.62164e-05
3.60503e-05
3.58884e-05
3.57299e-05
3.55748e-05
3.54253e-05
3.52837e-05
3.51521e-05
3.50318e-05
3.49194e-05
3.48109e-05
3.47042e-05
3.45978e-05
3.44946e-05
3.44079e-05
3.43502e-05
3.43318e-05
3.43617e-05
3.44364e-05
3.44258e-05
3.40341e-05
3.27913e-05
3.07169e-05
3.04956e-05
6.5299e-05
6.50874e-05
6.48245e-05
6.45144e-05
6.41638e-05
6.3778e-05
6.33606e-05
6.29146e-05
6.24433e-05
6.19501e-05
6.14385e-05
6.09108e-05
6.03693e-05
5.9816e-05
5.92538e-05
5.86853e-05
5.81129e-05
5.75389e-05
5.69649e-05
5.63922e-05
5.5822e-05
5.5255e-05
5.4692e-05
5.41336e-05
5.35805e-05
5.3033e-05
5.24913e-05
5.19557e-05
5.14264e-05
5.09038e-05
5.03879e-05
4.98789e-05
4.9377e-05
4.88824e-05
4.83951e-05
4.79154e-05
4.74434e-05
4.69793e-05
4.65234e-05
4.60761e-05
4.56378e-05
4.52091e-05
4.47905e-05
4.43826e-05
4.3986e-05
4.36013e-05
4.32289e-05
4.2869e-05
4.25216e-05
4.21865e-05
4.18633e-05
4.15512e-05
4.12495e-05
4.09574e-05
4.06738e-05
4.03979e-05
4.01287e-05
3.98655e-05
3.96078e-05
3.93553e-05
3.91079e-05
3.88653e-05
3.86274e-05
3.83943e-05
3.81665e-05
3.79447e-05
3.77295e-05
3.75196e-05
3.7315e-05
3.71157e-05
3.69215e-05
3.6734e-05
3.65548e-05
3.63853e-05
3.62263e-05
3.60761e-05
3.59322e-05
3.57936e-05
3.56595e-05
3.5532e-05
3.54195e-05
3.53304e-05
3.5272e-05
3.5251e-05
3.52666e-05
3.52316e-05
3.49083e-05
3.38903e-05
3.19708e-05
3.0858e-05
6.9991e-05
6.9876e-05
6.96978e-05
6.94581e-05
6.91626e-05
6.88166e-05
6.84243e-05
6.79894e-05
6.75167e-05
6.70114e-05
6.64787e-05
6.59224e-05
6.53452e-05
6.47495e-05
6.41382e-05
6.35146e-05
6.28815e-05
6.22419e-05
6.15981e-05
6.09521e-05
6.03058e-05
5.96604e-05
5.90174e-05
5.83777e-05
5.7742e-05
5.71111e-05
5.64857e-05
5.58663e-05
5.52531e-05
5.46466e-05
5.4047e-05
5.34545e-05
5.28694e-05
5.22917e-05
5.17217e-05
5.11593e-05
5.06048e-05
5.00581e-05
4.95194e-05
4.8989e-05
4.84669e-05
4.79537e-05
4.74499e-05
4.69561e-05
4.64732e-05
4.60019e-05
4.55432e-05
4.50978e-05
4.46665e-05
4.42495e-05
4.3847e-05
4.3459e-05
4.30849e-05
4.2724e-05
4.23754e-05
4.2038e-05
4.17109e-05
4.13929e-05
4.10833e-05
4.07812e-05
4.04864e-05
4.01983e-05
3.99166e-05
3.96413e-05
3.93727e-05
3.91115e-05
3.88582e-05
3.86119e-05
3.83724e-05
3.81397e-05
3.79142e-05
3.76965e-05
3.74877e-05
3.72885e-05
3.70996e-05
3.69204e-05
3.67501e-05
3.65884e-05
3.64351e-05
3.62914e-05
3.6162e-05
3.60522e-05
3.59672e-05
3.59125e-05
3.58902e-05
3.58443e-05
3.55898e-05
3.47918e-05
3.31395e-05
3.15909e-05
7.34743e-05
7.34965e-05
7.34442e-05
7.33164e-05
7.31174e-05
7.28518e-05
7.25228e-05
7.21341e-05
7.16914e-05
7.12022e-05
7.06741e-05
7.01131e-05
6.95228e-05
6.89058e-05
6.82651e-05
6.76038e-05
6.69255e-05
6.62339e-05
6.55321e-05
6.48232e-05
6.41095e-05
6.33933e-05
6.26766e-05
6.19611e-05
6.1248e-05
6.05384e-05
5.98333e-05
5.91336e-05
5.84401e-05
5.77532e-05
5.70735e-05
5.64013e-05
5.57369e-05
5.50806e-05
5.44327e-05
5.37932e-05
5.31622e-05
5.25398e-05
5.19261e-05
5.13209e-05
5.07244e-05
5.01366e-05
4.95578e-05
4.89884e-05
4.84289e-05
4.78804e-05
4.73436e-05
4.68199e-05
4.63103e-05
4.58159e-05
4.53376e-05
4.48761e-05
4.44315e-05
4.40037e-05
4.35922e-05
4.31962e-05
4.28145e-05
4.24461e-05
4.20898e-05
4.17446e-05
4.14096e-05
4.10841e-05
4.07674e-05
4.04591e-05
4.01595e-05
3.98688e-05
3.95874e-05
3.9315e-05
3.90508e-05
3.87952e-05
3.85484e-05
3.83107e-05
3.80827e-05
3.78646e-05
3.76569e-05
3.746e-05
3.72744e-05
3.71004e-05
3.69381e-05
3.67881e-05
3.66525e-05
3.65341e-05
3.64374e-05
3.63674e-05
3.63283e-05
3.62857e-05
3.60994e-05
3.55057e-05
3.41631e-05
3.24895e-05
7.53983e-05
7.55852e-05
7.56925e-05
7.57146e-05
7.56519e-05
7.55092e-05
7.5287e-05
7.49858e-05
7.46112e-05
7.41725e-05
7.36811e-05
7.31462e-05
7.25733e-05
7.1965e-05
7.13234e-05
7.06512e-05
6.99523e-05
6.92308e-05
6.8491e-05
6.7737e-05
6.69724e-05
6.62004e-05
6.54236e-05
6.46447e-05
6.38655e-05
6.3088e-05
6.23136e-05
6.15435e-05
6.07789e-05
6.00209e-05
5.92702e-05
5.85274e-05
5.77932e-05
5.70678e-05
5.63518e-05
5.56454e-05
5.49488e-05
5.42622e-05
5.35856e-05
5.29191e-05
5.22625e-05
5.16156e-05
5.09785e-05
5.03511e-05
4.97335e-05
4.91261e-05
4.85297e-05
4.79453e-05
4.73739e-05
4.68172e-05
4.62764e-05
4.57529e-05
4.52478e-05
4.47618e-05
4.42951e-05
4.38475e-05
4.34185e-05
4.3007e-05
4.26119e-05
4.2232e-05
4.18662e-05
4.15133e-05
4.11725e-05
4.08429e-05
4.05243e-05
4.02165e-05
3.99197e-05
3.96336e-05
3.93575e-05
3.90914e-05
3.88359e-05
3.85908e-05
3.8356e-05
3.81317e-05
3.79183e-05
3.7717e-05
3.7529e-05
3.7355e-05
3.71954e-05
3.70505e-05
3.69204e-05
3.68071e-05
3.67143e-05