/*--------------------------------*- C++ -*----------------------------------*\
| =========                 |                                                 |
| \\      /  F ield         | OpenFOAM: The Open Source CFD Toolbox           |
|  \\    /   O peration     | Version:  2412                                  |
|   \\  /    A nd           | Website:  www.openfoam.com                      |
|    \\/     M anipulation  |                                                 |
\*---------------------------------------------------------------------------*/
FoamFile
{
    version     2.0;
    format      ascii;
    arch        "LSB;label=32;scalar=64";
    class       volScalarField;
    location    "160";
    object      p;
}
// * * * * * * * * * * * * * * * * * * * * * * * * * * * * * * * * * * * * * //

dimensions      [0 2 -2 0 0 0 0];

internalField   nonuniform List<scalar> 
7387
(
-137.972
-129.09
-120.369
-111.814
-103.419
-95.1796
-87.0973
-79.1734
-71.4081
-63.8011
-56.3529
-49.0627
-41.9306
-34.9575
-28.1455
-21.4964
-15.0115
-8.69149
-2.53746
3.44984
9.26952
14.921
20.4038
25.7178
30.8631
35.8402
40.6501
45.2942
49.774
54.0917
58.2494
62.2497
66.0956
69.79
73.3363
76.7383
79.9994
83.1231
86.1133
88.9742
91.7104
94.3242
96.8176
99.1939
101.461
103.628
105.693
107.648
109.482
111.204
112.851
114.445
116.008
117.448
118.724
119.771
120.57
121.325
122.108
122.956
124.056
125.078
125.682
125.624
124.645
121.674
115.227
115.085
122.062
127.815
131.008
124.86
-137.972
-129.09
-120.369
-111.814
-103.419
-95.1796
-87.0973
-79.1734
-71.408
-63.8011
-56.3529
-49.0628
-41.9306
-34.9574
-28.1455
-21.4964
-15.0115
-8.69146
-2.53745
3.44984
9.26953
14.921
20.4038
25.7179
30.8631
35.8402
40.6501
45.2942
49.774
54.0917
58.2494
62.2497
66.0956
69.79
73.3363
76.7383
79.9994
83.1231
86.1132
88.9742
91.7104
94.3242
96.8176
99.1939
101.461
103.628
105.693
107.648
109.482
111.204
112.851
114.445
116.008
117.448
118.723
119.771
120.57
121.325
122.109
122.957
124.056
125.078
125.681
125.622
124.641
121.669
115.234
115.105
122.078
127.814
131.001
124.859
-137.972
-129.09
-120.369
-111.814
-103.419
-95.1796
-87.0973
-79.1734
-71.408
-63.8011
-56.3528
-49.0627
-41.9306
-34.9574
-28.1455
-21.4963
-15.0114
-8.69147
-2.53742
3.44982
9.26956
14.921
20.4038
25.7179
30.8631
35.8402
40.6501
45.2942
49.774
54.0917
58.2494
62.2497
66.0956
69.79
73.3363
76.7383
79.9994
83.1231
86.1132
88.9742
91.7104
94.3242
96.8176
99.1939
101.461
103.628
105.693
107.648
109.482
111.204
112.851
114.445
116.008
117.448
118.723
119.771
120.57
121.325
122.109
122.957
124.056
125.077
125.679
125.619
124.636
121.664
115.245
115.133
122.099
127.815
130.994
124.867
-137.972
-129.09
-120.369
-111.814
-103.419
-95.1796
-87.0973
-79.1734
-71.408
-63.8011
-56.3528
-49.0627
-41.9306
-34.9574
-28.1455
-21.4963
-15.0114
-8.69144
-2.53742
3.44987
9.26956
14.921
20.4038
25.7179
30.8631
35.8402
40.6501
45.2942
49.7741
54.0917
58.2494
62.2497
66.0956
69.7899
73.3363
76.7383
79.9994
83.1231
86.1132
88.9742
91.7104
94.3241
96.8176
99.1939
101.461
103.628
105.693
107.648
109.482
111.204
112.851
114.445
116.008
117.448
118.723
119.77
120.57
121.325
122.109
122.957
124.056
125.077
125.678
125.617
124.631
121.66
115.26
115.167
122.122
127.821
130.99
124.89
-137.972
-129.09
-120.369
-111.814
-103.419
-95.1795
-87.0973
-79.1733
-71.408
-63.801
-56.3528
-49.0627
-41.9305
-34.9574
-28.1455
-21.4963
-15.0114
-8.69141
-2.5374
3.44989
9.26958
14.921
20.4039
25.7179
30.8631
35.8402
40.6501
45.2942
49.7741
54.0917
58.2494
62.2497
66.0956
69.79
73.3363
76.7383
79.9994
83.1231
86.1132
88.9742
91.7104
94.3241
96.8176
99.1938
101.461
103.628
105.693
107.648
109.482
111.204
112.851
114.445
116.008
117.448
118.723
119.77
120.57
121.325
122.109
122.958
124.056
125.076
125.676
125.614
124.626
121.656
115.283
115.212
122.151
127.828
130.984
124.939
-137.972
-129.09
-120.369
-111.814
-103.419
-95.1795
-87.0972
-79.1733
-71.4079
-63.801
-56.3527
-49.0626
-41.9305
-34.9573
-28.1454
-21.4963
-15.0114
-8.6914
-2.53736
3.44991
9.26961
14.9211
20.4039
25.7179
30.8632
35.8402
40.6502
45.2942
49.7741
54.0917
58.2494
62.2498
66.0956
69.79
73.3363
76.7383
79.9994
83.1231
86.1132
88.9742
91.7103
94.3241
96.8176
99.1938
101.461
103.627
105.693
107.648
109.482
111.204
112.851
114.445
116.008
117.447
118.723
119.77
120.57
121.325
122.11
122.958
124.056
125.075
125.674
125.61
124.62
121.655
115.319
115.273
122.185
127.821
130.972
125.014
-137.972
-129.09
-120.369
-111.814
-103.419
-95.1794
-87.0972
-79.1732
-71.4079
-63.8009
-56.3527
-49.0626
-41.9305
-34.9573
-28.1454
-21.4962
-15.0113
-8.69133
-2.53732
3.44996
9.26965
14.9211
20.4039
25.718
30.8632
35.8403
40.6502
45.2943
49.7741
54.0917
58.2494
62.2498
66.0956
69.79
73.3364
76.7383
79.9994
83.1231
86.1132
88.9742
91.7104
94.3241
96.8176
99.1938
101.461
103.627
105.693
107.648
109.482
111.204
112.852
114.445
116.008
117.447
118.722
119.77
120.57
121.325
122.11
122.959
124.057
125.074
125.672
125.605
124.614
121.658
115.375
115.358
122.225
127.808
130.951
125.113
-137.972
-129.089
-120.369
-111.814
-103.419
-95.1794
-87.0971
-79.1732
-71.4078
-63.8008
-56.3526
-49.0625
-41.9304
-34.9572
-28.1453
-21.4961
-15.0113
-8.69128
-2.53725
3.45003
9.26972
14.9212
20.404
25.718
30.8633
35.8403
40.6503
45.2943
49.7742
54.0918
58.2495
62.2498
66.0957
69.79
73.3364
76.7383
79.9994
83.1231
86.1133
88.9742
91.7104
94.3242
96.8176
99.1939
101.461
103.627
105.693
107.648
109.482
111.204
112.852
114.445
116.008
117.447
118.722
119.769
120.57
121.326
122.112
122.961
124.057
125.073
125.669
125.6
124.606
121.666
115.457
115.474
122.274
127.806
130.934
125.236
-137.972
-129.089
-120.369
-111.814
-103.418
-95.1792
-87.0969
-79.173
-71.4077
-63.8007
-56.3525
-49.0624
-41.9303
-34.9571
-28.1452
-21.496
-15.0111
-8.69116
-2.53715
3.45013
9.26982
14.9213
20.4041
25.7181
30.8633
35.8404
40.6503
45.2944
49.7742
54.0919
58.2496
62.2499
66.0957
69.7901
73.3364
76.7384
79.9995
83.1232
86.1133
88.9743
91.7104
94.3242
96.8176
99.1939
101.461
103.628
105.693
107.648
109.482
111.204
112.852
114.445
116.008
117.447
118.721
119.769
120.571
121.327
122.114
122.963
124.057
125.071
125.664
125.593
124.598
121.681
115.574
115.631
122.337
127.813
130.94
125.393
-137.971
-129.089
-120.369
-111.814
-103.418
-95.179
-87.0967
-79.1728
-71.4075
-63.8005
-56.3523
-49.0622
-41.9301
-34.9569
-28.145
-21.4959
-15.011
-8.69101
-2.53698
3.45028
9.26997
14.9214
20.4042
25.7182
30.8635
35.8405
40.6505
45.2945
49.7744
54.092
58.2497
62.25
66.0958
69.7902
73.3365
76.7385
79.9996
83.1233
86.1134
88.9744
91.7105
94.3243
96.8177
99.194
101.461
103.628
105.693
107.648
109.482
111.204
112.852
114.445
116.008
117.446
118.721
119.769
120.571
121.329
122.117
122.966
124.058
125.068
125.658
125.584
124.589
121.706
115.734
115.835
122.424
127.838
130.985
125.574
-137.971
-129.089
-120.368
-111.813
-103.418
-95.1787
-87.0965
-79.1726
-71.4072
-63.8003
-56.3521
-49.0619
-41.9298
-34.9567
-28.1448
-21.4956
-15.0108
-8.69078
-2.53676
3.4505
9.27018
14.9216
20.4044
25.7184
30.8637
35.8407
40.6507
45.2947
49.7745
54.0921
58.2498
62.2502
66.096
69.7903
73.3367
76.7386
79.9997
83.1234
86.1135
88.9745
91.7106
94.3244
96.8178
99.1941
101.461
103.628
105.693
107.648
109.482
111.204
112.852
114.445
116.007
117.446
118.72
119.768
120.573
121.332
122.121
122.971
124.06
125.065
125.651
125.573
124.578
121.741
115.944
116.088
122.557
127.9
131.061
125.761
-137.971
-129.088
-120.368
-111.813
-103.418
-95.1783
-87.096
-79.1721
-71.4068
-63.7999
-56.3517
-49.0616
-41.9295
-34.9563
-28.1444
-21.4953
-15.0104
-8.69044
-2.53644
3.45082
9.27049
14.9219
20.4047
25.7187
30.864
35.841
40.6509
45.295
49.7748
54.0924
58.2501
62.2504
66.0962
69.7905
73.3369
76.7388
79.9999
83.1236
86.1137
88.9746
91.7108
94.3245
96.818
99.1942
101.462
103.628
105.693
107.648
109.482
111.204
112.853
114.446
116.007
117.445
118.718
119.768
120.574
121.337
122.128
122.979
124.063
125.062
125.642
125.56
124.568
121.791
116.212
116.396
122.764
127.991
131.142
125.943
-137.97
-129.088
-120.367
-111.812
-103.417
-95.1777
-87.0955
-79.1716
-71.4062
-63.7993
-56.3511
-49.061
-41.929
-34.9558
-28.1439
-21.4948
-15.01
-8.69
-2.536
3.45124
9.27091
14.9223
20.4051
25.7191
30.8643
35.8414
40.6513
45.2953
49.7751
54.0927
58.2504
62.2507
66.0965
69.7908
73.3372
76.7391
80.0001
83.1238
86.1139
88.9749
91.711
94.3247
96.8182
99.1944
101.462
103.628
105.693
107.648
109.482
111.205
112.853
114.446
116.007
117.444
118.717
119.767
120.577
121.342
122.137
122.988
124.066
125.058
125.631
125.545
124.559
121.859
116.542
116.763
123.055
128.103
131.217
126.097
-147.032
-137.969
-129.087
-120.366
-111.811
-103.416
-95.1769
-87.0947
-79.1708
-71.4055
-63.7986
-56.3504
-49.0603
-41.9283
-34.9552
-28.1433
-21.4942
-15.0093
-8.6894
-2.53542
3.45181
9.27146
14.9229
20.4056
25.7196
30.8648
35.8419
40.6517
45.2957
49.7756
54.0931
58.2508
62.2511
66.0969
69.7912
73.3375
76.7394
80.0004
83.1241
86.1142
88.9752
91.7112
94.325
96.8184
99.1947
101.462
103.628
105.694
107.648
109.482
111.205
112.854
114.447
116.006
117.442
118.715
119.766
120.581
121.35
122.148
123.001
124.072
125.054
125.619
125.53
124.553
121.948
116.939
117.193
123.415
128.25
131.274
126.206
-147.03
-137.968
-129.086
-120.365
-111.81
-103.415
-95.1759
-87.0937
-79.1698
-71.4046
-63.7977
-56.3495
-49.0595
-41.9274
-34.9543
-28.1425
-21.4934
-15.0086
-8.68864
-2.53468
3.45253
9.27216
14.9235
20.4063
25.7203
30.8655
35.8425
40.6523
45.2963
49.7761
54.0937
58.2513
62.2516
66.0973
69.7917
73.3379
76.7398
80.0008
83.1245
86.1146
88.9755
91.7116
94.3253
96.8187
99.1951
101.462
103.629
105.694
107.648
109.483
111.206
112.855
114.448
116.006
117.441
118.712
119.766
120.586
121.361
122.163
123.018
124.079
125.05
125.607
125.516
124.554
122.064
117.406
117.701
123.854
128.429
131.297
126.279
-147.029
-137.967
-129.084
-120.364
-111.809
-103.414
-95.1747
-87.0925
-79.1687
-71.4034
-63.7965
-56.3484
-49.0584
-41.9263
-34.9533
-28.1415
-21.4924
-15.0076
-8.68769
-2.53375
3.45343
9.27304
14.9244
20.4072
25.7211
30.8662
35.8432
40.6531
45.297
49.7768
54.0943
58.2519
62.2522
66.0979
69.7922
73.3385
76.7404
80.0014
83.125
86.1151
88.976
91.712
94.3257
96.8191
99.1955
101.463
103.629
105.694
107.648
109.483
111.207
112.857
114.449
116.006
117.439
118.71
119.766
120.593
121.374
122.182
123.04
124.09
125.047
125.595
125.504
124.564
122.211
117.945
118.296
124.416
128.62
131.282
126.333
-147.027
-137.965
-129.083
-120.363
-111.808
-103.412
-95.1732
-87.091
-79.1672
-71.402
-63.7951
-56.347
-49.057
-41.925
-34.952
-28.1402
-21.4912
-15.0064
-8.68654
-2.53263
3.45454
9.27412
14.9255
20.4082
25.7221
30.8672
35.8442
40.654
45.298
49.7777
54.0952
58.2528
62.253
66.0987
69.793
73.3392
76.741
80.002
83.1256
86.1157
88.9766
91.7126
94.3262
96.8197
99.1961
101.463
103.629
105.694
107.648
109.484
111.209
112.859
114.451
116.005
117.437
118.707
119.766
120.601
121.39
122.205
123.066
124.104
125.046
125.584
125.498
124.589
122.394
118.556
118.986
125.113
128.832
131.193
126.367
-147.026
-137.963
-129.081
-120.361
-111.806
-103.411
-95.1714
-87.0893
-79.1655
-71.4003
-63.7935
-56.3454
-49.0555
-41.9235
-34.9505
-28.1388
-21.4897
-15.005
-8.68516
-2.53127
3.45587
9.27543
14.9267
20.4094
25.7233
30.8684
35.8454
40.6552
45.2991
49.7788
54.0962
58.2538
62.254
66.0996
69.7939
73.3401
76.7419
80.0028
83.1264
86.1165
88.9773
91.7133
94.3269
96.8203
99.1968
101.464
103.63
105.695
107.649
109.484
111.21
112.861
114.453
116.005
117.435
118.704
119.767
120.612
121.41
122.233
123.098
124.121
125.047
125.577
125.5
124.634
122.62
119.24
119.77
125.87
129.124
130.928
126.339
-147.023
-137.961
-129.079
-120.359
-111.804
-103.408
-95.1693
-87.0872
-79.1635
-71.3983
-63.7916
-56.3435
-49.0536
-41.9217
-34.9487
-28.137
-21.488
-15.0033
-8.6835
-2.52964
3.45747
9.277
14.9283
20.411
25.7248
30.8699
35.8468
40.6565
45.3004
49.7801
54.0975
58.255
62.2552
66.1008
69.795
73.3412
76.743
80.0038
83.1274
86.1174
88.9782
91.7142
94.3277
96.8212
99.1977
101.465
103.631
105.695
107.649
109.485
111.212
112.864
114.456
116.005
117.432
118.701
119.768
120.626
121.435
122.267
123.136
124.145
125.053
125.575
125.513
124.705
122.893
119.995
120.651
126.58
129.511
130.533
126.153
-147.021
-137.958
-129.076
-120.356
-111.801
-103.406
-95.1669
-87.0849
-79.1612
-71.396
-63.7893
-56.3413
-49.0514
-41.9195
-34.9466
-28.1349
-21.486
-15.0013
-8.68153
-2.52771
3.45937
9.27887
14.9301
20.4128
25.7266
30.8716
35.8485
40.6582
45.3021
49.7817
54.0991
58.2566
62.2567
66.1023
69.7964
73.3426
76.7443
80.0051
83.1287
86.1186
88.9794
91.7153
94.3288
96.8223
99.1989
101.466
103.632
105.696
107.65
109.487
111.215
112.868
114.459
116.005
117.43
118.699
119.771
120.643
121.465
122.307
123.182
124.174
125.065
125.582
125.543
124.807
123.22
120.818
121.567
127.245
130.071
130.188
125.71
-147.017
-137.955
-129.073
-120.353
-111.798
-103.403
-95.1641
-87.082
-79.1584
-71.3933
-63.7866
-56.3387
-49.0488
-41.917
-34.9441
-28.1325
-21.4836
-14.999
-8.6792
-2.5254
3.46164
9.28111
14.9323
20.4149
25.7287
30.8737
35.8506
40.6603
45.3041
49.7837
54.101
58.2584
62.2585
66.1041
69.7982
73.3443
76.746
80.0067
83.1302
86.1202
88.9809
91.7167
94.3302
96.8236
99.2004
101.468
103.633
105.697
107.651
109.488
111.218
112.872
114.463
116.005
117.428
118.697
119.776
120.664
121.5
122.355
123.235
124.212
125.085
125.601
125.593
124.948
123.604
121.71
122.514
127.904
130.922
129.889
125.017
-147.014
-137.952
-129.069
-120.349
-111.795
-103.4
-95.1607
-87.0788
-79.1552
-71.3901
-63.7835
-56.3356
-49.0458
-41.914
-34.9412
-28.1296
-21.4808
-14.9962
-8.67644
-2.52268
3.46433
9.28376
14.9349
20.4175
25.7313
30.8762
35.8531
40.6627
45.3065
49.786
54.1033
58.2607
62.2607
66.1063
69.8003
73.3464
76.748
80.0087
83.1322
86.1221
88.9828
91.7185
94.332
96.8254
99.2023
101.47
103.635
105.699
107.652
109.491
111.222
112.877
114.468
116.006
117.427
118.696
119.782
120.688
121.541
122.409
123.298
124.259
125.115
125.635
125.67
125.133
124.051
122.658
123.572
128.58
131.974
129.712
124.17
-147.009
-137.947
-129.065
-120.345
-111.791
-103.396
-95.1568
-87.0749
-79.1514
-71.3864
-63.7799
-56.332
-49.0423
-41.9105
-34.9378
-28.1262
-21.4774
-14.9928
-8.67317
-2.51946
3.46751
9.28691
14.9381
20.4206
25.7343
30.8792
35.856
40.6656
45.3094
49.7889
54.1061
58.2635
62.2635
66.1089
69.8029
73.3489
76.7505
80.0112
83.1346
86.1245
88.9851
91.7208
94.3341
96.8276
99.2046
101.472
103.638
105.7
107.654
109.493
111.227
112.883
114.473
116.008
117.427
118.696
119.792
120.718
121.59
122.472
123.369
124.317
125.16
125.689
125.779
125.366
124.566
123.646
124.716
129.332
132.959
129.955
123.429
-147.004
-137.942
-129.06
-120.34
-111.786
-103.391
-95.1522
-87.0704
-79.147
-71.3821
-63.7756
-56.3278
-49.0381
-41.9064
-34.9337
-28.1222
-21.4735
-14.9889
-8.66932
-2.51565
3.47128
9.29064
14.9417
20.4242
25.7379
30.8828
35.8595
40.6691
45.3128
49.7923
54.1095
58.2668
62.2667
66.1121
69.8061
73.352
76.7536
80.0142
83.1375
86.1273
88.9879
91.7235
94.3368
96.8303
99.2075
101.475
103.64
105.703
107.656
109.497
111.233
112.89
114.48
116.011
117.427
118.698
119.804
120.752
121.645
122.544
123.451
124.388
125.221
125.768
125.925
125.654
125.161
124.662
125.913
130.196
133.651
130.724
123.115
-146.998
-137.936
-129.054
-120.335
-111.78
-103.386
-95.1468
-87.0651
-79.1417
-71.3769
-63.7705
-56.3228
-49.0332
-41.9015
-34.9289
-28.1175
-21.4688
-14.9843
-8.66477
-2.51115
3.47573
9.29504
14.9461
20.4286
25.7422
30.887
35.8637
40.6733
45.3169
49.7963
54.1135
58.2707
62.2706
66.116
69.8099
73.3558
76.7573
80.0178
83.1411
86.1309
88.9915
91.727
94.3402
96.8337
99.2111
101.479
103.644
105.706
107.66
109.501
111.239
112.898
114.489
116.016
117.43
118.703
119.821
120.792
121.708
122.625
123.544
124.475
125.304
125.878
126.115
126.013
125.81
125.714
127.164
131.151
134.152
132.279
123.466
-146.991
-137.93
-129.048
-120.328
-111.774
-103.379
-95.1405
-87.0589
-79.1356
-71.3709
-63.7645
-56.3169
-49.0274
-41.8958
-34.9233
-28.1119
-21.4633
-14.9789
-8.65939
-2.50583
3.48099
9.30025
14.9513
20.4337
25.7472
30.8921
35.8687
40.6782
45.3218
49.8012
54.1183
58.2755
62.2753
66.1206
69.8145
73.3604
76.7618
80.0223
83.1456
86.1353
88.9958
91.7312
94.3444
96.8379
99.2155
101.484
103.648
105.71
107.664
109.507
111.247
112.908
114.498
116.022
117.435
118.711
119.842
120.839
121.78
122.717
123.651
124.58
125.413
126.024
126.357
126.439
126.504
126.835
128.462
132.188
134.718
134.7
125.156
-156.246
-146.983
-137.921
-129.04
-120.32
-111.766
-103.371
-95.133
-87.0515
-79.1283
-71.3637
-63.7575
-56.31
-49.0205
-41.8891
-34.9166
-28.1053
-21.4568
-14.9725
-8.65303
-2.49953
3.48723
9.30643
14.9574
20.4398
25.7533
30.8981
35.8747
40.6841
45.3277
49.807
54.1241
58.2813
62.2811
66.1263
69.8202
73.366
76.7674
80.0278
83.151
86.1407
89.0011
91.7364
94.3495
96.8431
99.2208
101.489
103.654
105.715
107.669
109.513
111.256
112.919
114.51
116.03
117.442
118.724
119.869
120.893
121.862
122.822
123.773
124.708
125.553
126.214
126.656
126.933
127.273
127.994
129.798
133.321
135.67
137.219
128.728
-156.236
-146.973
-137.912
-129.03
-120.311
-111.757
-103.363
-95.1242
-87.0428
-79.1198
-71.3553
-63.7492
-56.3018
-49.0124
-41.8811
-34.9087
-28.0975
-21.4491
-14.9648
-8.64547
-2.49204
3.49465
9.3138
14.9647
20.4471
25.7606
30.9053
35.8819
40.6913
45.3349
49.8141
54.1312
58.2883
62.288
66.1332
69.827
73.3727
76.774
80.0344
83.1574
86.147
89.0074
91.7425
94.3555
96.8491
99.227
101.495
103.66
105.721
107.675
109.521
111.267
112.933
114.524
116.041
117.454
118.742
119.904
120.956
121.955
122.94
123.913
124.861
125.73
126.453
127.018
127.498
128.112
129.179
131.18
134.566
137.156
139.215
134.101
-156.224
-146.962
-137.901
-129.019
-120.3
-111.746
-103.352
-95.1138
-87.0326
-79.1097
-71.3453
-63.7394
-56.2921
-49.0028
-41.8716
-34.8993
-28.0883
-21.4399
-14.9557
-8.63645
-2.48309
3.50355
9.32265
14.9735
20.4558
25.7693
30.914
35.8906
40.7
45.3434
49.8227
54.1396
58.2966
62.2963
66.1414
69.835
73.3807
76.7818
80.042
83.165
86.1545
89.0146
91.7496
94.3624
96.856
99.2341
101.503
103.667
105.728
107.682
109.531
111.28
112.948
114.54
116.056
117.47
118.767
119.947
121.03
122.06
123.075
124.073
125.043
125.948
126.746
127.445
128.131
129.012
130.392
132.612
135.954
139.139
140.991
140.717
-156.21
-146.948
-137.887
-129.006
-120.287
-111.733
-103.339
-95.1015
-87.0204
-79.0977
-71.3335
-63.7277
-56.2805
-48.9914
-41.8603
-34.8882
-28.0772
-21.429
-14.9449
-8.62568
-2.47238
3.5142
9.33326
14.9841
20.4663
25.7798
30.9244
35.9009
40.7102
45.3536
49.8327
54.1496
58.3065
62.306
66.1509
69.8445
73.3899
76.7909
80.051
83.1737
86.163
89.0231
91.7578
94.3705
96.864
99.2423
101.511
103.675
105.736
107.691
109.542
111.295
112.965
114.559
116.074
117.492
118.799
120.001
121.115
122.18
123.226
124.256
125.258
126.211
127.097
127.937
128.831
129.968
131.633
134.089
137.495
141.285
143.399
147.932
-156.193
-146.932
-137.872
-128.99
-120.272
-111.718
-103.325
-95.0869
-87.006
-79.0835
-71.3195
-63.7139
-56.2669
-48.9779
-41.8469
-34.8749
-28.0641
-21.4159
-14.9319
-8.61282
-2.45961
3.5269
9.34589
14.9967
20.4788
25.7921
30.9367
35.9131
40.7223
45.3655
49.8445
54.1612
58.318
62.3173
66.1621
69.8554
73.4007
76.8014
80.0613
83.1838
86.1729
89.0327
91.7672
94.3796
96.8732
99.2516
101.521
103.685
105.745
107.702
109.555
111.311
112.985
114.581
116.098
117.52
118.841
120.065
121.213
122.315
123.397
124.464
125.508
126.522
127.505
128.494
129.592
130.973
132.901
135.603
139.169
143.469
146.611
154.608
-156.173
-146.913
-137.853
-128.972
-120.254
-111.7
-103.307
-95.0696
-86.989
-79.0666
-71.3029
-63.6975
-56.2507
-48.9618
-41.831
-34.8592
-28.0485
-21.4005
-14.9166
-8.59756
-2.44445
3.54195
9.36083
15.0115
20.4935
25.8067
30.9512
35.9274
40.7364
45.3795
49.8583
54.1748
58.3314
62.3305
66.175
69.8681
73.4131
76.8136
80.0731
83.1954
86.1842
89.0437
91.7779
94.39
96.8834
99.2621
101.531
103.695
105.756
107.713
109.569
111.33
113.008
114.607
116.127
117.557
118.892
120.142
121.324
122.465
123.588
124.698
125.795
126.88
127.97
129.111
130.406
132.018
134.191
137.14
140.944
145.728
150.442
160.008
-156.15
-146.89
-137.831
-128.95
-120.232
-111.679
-103.286
-95.0492
-86.9688
-79.0467
-71.2833
-63.6781
-56.2315
-48.9428
-41.8122
-34.8405
-28.03
-21.3821
-14.8984
-8.57952
-2.42655
3.55971
9.37844
15.0289
20.5108
25.8238
30.9681
35.9441
40.753
45.3958
49.8744
54.1907
58.3469
62.3457
66.19
69.8827
73.4274
76.8275
80.0867
83.2086
86.197
89.0561
91.7898
94.4016
96.8949
99.2736
101.543
103.707
105.768
107.726
109.585
111.35
113.033
114.636
116.162
117.601
118.954
120.231
121.45
122.633
123.8
124.961
126.118
127.285
128.487
129.78
131.264
133.092
135.495
138.688
142.772
148.014
154.099
164.286
-156.123
-146.864
-137.805
-128.924
-120.207
-111.655
-103.262
-95.0251
-86.945
-79.0233
-71.2601
-63.6552
-56.2088
-48.9204
-41.79
-34.8185
-28.0082
-21.3605
-14.877
-8.55828
-2.4055
3.58056
9.3991
15.0494
20.5311
25.8439
30.9879
35.9637
40.7723
45.4148
49.8931
54.209
58.3649
62.3634
66.2072
69.8996
73.4438
76.8434
80.102
83.2234
86.2113
89.0698
91.803
94.4143
96.9073
99.2859
101.555
103.719
105.78
107.74
109.602
111.372
113.06
114.669
116.202
117.653
119.026
120.332
121.589
122.817
124.033
125.25
126.476
127.731
129.05
130.491
132.153
134.183
136.803
140.224
144.58
150.192
157.099
167.517
-156.091
-146.833
-137.774
-128.894
-120.177
-111.625
-103.233
-94.9968
-86.9171
-78.9956
-71.2328
-63.6283
-56.1822
-48.8941
-41.7639
-34.7927
-27.9826
-21.3352
-14.8518
-8.53337
-2.38083
3.60498
9.42327
15.0733
20.5547
25.8672
31.011
35.9864
40.7946
45.4369
49.9147
54.2302
58.3857
62.3836
66.2269
69.9187
73.4623
76.8613
80.1192
83.2399
86.2271
89.0848
91.8173
94.4279
96.9202
99.2984
101.567
103.731
105.793
107.755
109.62
111.395
113.089
114.705
116.247
117.712
119.108
120.445
121.742
123.017
124.286
125.564
126.864
128.212
129.648
131.232
133.06
135.276
138.097
141.719
146.305
152.164
159.542
169.794
-156.053
-146.797
-137.739
-128.859
-120.143
-111.591
-103.2
-94.9636
-86.8843
-78.9633
-71.2008
-63.5967
-56.151
-48.8632
-41.7333
-34.7624
-27.9527
-21.3055
-14.8224
-8.50427
-2.35203
3.63347
9.45144
15.1012
20.5822
25.8944
31.0377
36.0128
40.8205
45.4623
49.9396
54.2545
58.4094
62.4067
66.2493
69.9403
73.4831
76.8812
80.1382
83.2579
86.244
89.1008
91.8321
94.4416
96.933
99.3104
101.579
103.742
105.804
107.768
109.637
111.418
113.117
114.741
116.294
117.777
119.197
120.568
121.906
123.229
124.554
125.896
127.275
128.719
130.269
131.988
133.969
136.356
139.351
143.139
147.891
153.879
161.479
171.283
-156.009
-146.754
-137.697
-128.818
-120.102
-111.551
-103.16
-94.9249
-86.8461
-78.9255
-71.1636
-63.5599
-56.1147
-48.8272
-41.6977
-34.7272
-27.9178
-21.271
-14.7883
-8.47046
-2.31859
3.66653
9.48411
15.1334
20.614
25.9257
31.0686
36.0431
40.8503
45.4914
49.968
54.2822
58.4362
62.4327
66.2743
69.9643
73.506
76.9029
80.1586
83.277
86.2617
89.117
91.8466
94.4545
96.9444
99.3207
101.588
103.751
105.813
107.779
109.651
111.437
113.144
114.775
116.341
117.844
119.291
120.696
122.076
123.448
124.83
126.24
127.699
129.237
130.899
132.744
134.865
137.401
140.54
144.448
149.293
155.294
162.858
172.173
-155.958
-146.705
-137.648
-128.77
-120.055
-111.505
-103.115
-94.8801
-86.8018
-78.8819
-71.1205
-63.5175
-56.0727
-48.7858
-41.6567
-34.6866
-27.8776
-21.2312
-14.7489
-8.43154
-2.28012
3.70454
9.52164
15.1705
20.6505
25.9616
31.1039
36.0777
40.8842
45.5245
50.0002
54.3134
58.4664
62.4616
66.302
69.9906
73.5308
76.9261
80.1801
83.2965
86.2793
89.1323
91.8596
94.4651
96.9529
99.3274
101.593
103.755
105.817
107.784
109.659
111.45
113.164
114.806
116.384
117.909
119.384
120.823
122.245
123.667
125.107
126.584
128.122
129.752
131.519
133.481
135.727
138.387
141.632
145.611
150.467
156.374
163.643
172.464
-155.899
-146.648
-137.592
-128.715
-120.001
-111.452
-103.063
-94.8286
-86.751
-78.8318
-71.0712
-63.4688
-56.0247
-48.7384
-41.6099
-34.6403
-27.8319
-21.186
-14.7042
-8.38736
-2.2365
3.74759
9.5641
15.2123
20.6917
26.0021
31.1436
36.1166
40.9222
45.5614
50.036
54.348
58.4995
62.4932
66.3319
70.0187
73.5568
76.9499
80.2015
83.3153
86.2952
89.145
91.8691
94.4714
96.9561
99.3278
101.591
103.751
105.812
107.779
109.656
111.451
113.172
114.826
116.419
117.962
119.466
120.94
122.403
123.874
125.371
126.914
128.528
130.246
132.109
134.177
136.53
139.288
142.597
146.591
151.381
157.081
163.863
172.065
-155.831
-146.582
-137.528
-128.651
-119.939
-111.391
-103.003
-94.7699
-86.6931
-78.7748
-71.0151
-63.4137
-55.9704
-48.6849
-41.5571
-34.5883
-27.7805
-21.1353
-14.6542
-8.33806
-2.18794
3.79539
9.61113
15.2585
20.7371
26.0466
31.1871
36.1591
40.9634
45.6014
50.0745
54.3848
58.5345
62.5262
66.3627
70.047
73.5824
76.9726
80.2209
83.331
86.3068
89.1524
91.872
94.4699
96.9502
99.3178
101.578
103.734
105.793
107.758
109.636
111.435
113.163
114.827
116.435
117.998
119.526
121.035
122.539
124.057
125.609
127.215
128.901
130.699
132.65
134.808
137.248
140.072
143.405
147.356
152.005
157.394
163.637
170.955
-155.753
-146.507
-137.454
-128.578
-119.868
-111.322
-102.935
-94.7031
-86.6275
-78.7103
-70.9519
-63.3517
-55.9096
-48.6251
-41.4983
-34.5304
-27.7236
-21.0794
-14.5992
-8.28405
-2.13496
3.84733
9.66201
15.3083
20.7858
26.0941
31.2332
36.2037
41.0065
45.6426
50.1138
54.4219
58.5692
62.5582
66.3916
70.0726
73.6045
76.9906
80.2343
83.3393
86.3097
89.1496
91.8632
94.4549
96.9292
99.291
101.545
103.696
105.75
107.712
109.59
111.392
113.125
114.798
116.42
118.001
119.555
121.095
122.637
124.2
125.804
127.469
129.222
131.093
133.12
135.353
137.855
140.714
144.027
147.882
152.324
157.344
163.008
169.308
-155.663
-146.42
-137.369
-128.495
-119.787
-111.243
-102.858
-94.6277
-86.5536
-78.6379
-70.8811
-63.2825
-55.8419
-48.5588
-41.4334
-34.4669
-27.6614
-21.0185
-14.5397
-8.22592
-2.07827
3.90254
9.71572
15.3605
20.8363
26.1428
31.2801
36.2486
41.0491
45.6827
50.1512
54.4562
58.6001
62.5854
66.4147
70.0912
73.6181
76.9984
80.2357
83.3339
86.2969
89.129
91.8344
94.4177
96.8837
99.2372
101.483
103.625
105.672
107.63
109.505
111.307
113.044
114.723
116.357
117.956
119.533
121.102
122.68
124.285
125.938
127.657
129.47
131.404
133.495
135.784
138.325
141.186
144.44
148.15
152.33
156.937
161.944
167.335
-155.559
-146.32
-137.272
-128.4
-119.694
-111.153
-102.771
-94.5427
-86.4705
-78.5569
-70.8022
-63.2057
-55.7672
-48.4862
-41.3626
-34.398
-27.5943
-20.9532
-14.4762
-8.16447
-2.01886
3.95987
9.77093
15.4135
20.887
26.1911
31.3257
36.2913
41.0886
45.7187
50.1833
54.4841
58.6233
62.6034
66.427
70.0972
73.6168
76.9891
80.2176
83.3064
86.2594
89.0808
91.7751
94.347
96.8016
99.1424
101.375
103.506
105.543
107.493
109.364
111.163
112.9
114.584
116.227
117.842
119.44
121.037
122.648
124.291
125.988
127.756
129.621
131.608
133.748
136.074
138.628
141.461
144.62
148.144
152.021
156.184
160.535
165.146
-155.44
-146.206
-137.161
-128.292
-119.589
-111.052
-102.673
-94.4473
-86.3777
-78.4667
-70.7148
-63.1212
-55.6855
-48.4072
-41.2862
-34.324
-27.5228
-20.8843
-14.41
-8.10092
-1.95814
4.01768
9.82576
15.4653
20.9355
26.2361
31.367
36.3285
41.1213
45.7466
50.2058
54.5007
58.6334
62.6063
66.4221
70.0833
73.5928
76.954
80.1707
83.2468
86.1862
88.9932
91.6726
94.2294
96.6668
98.9903
101.207
103.323
105.346
107.285
109.147
110.939
112.673
114.36
116.011
117.64
119.257
120.879
122.52
124.199
125.935
127.746
129.654
131.682
133.854
136.196
138.738
141.512
144.544
147.851
151.401
155.122
158.869
162.768
-155.303
-146.074
-137.033
-128.169
-119.47
-110.938
-102.563
-94.3407
-86.2744
-78.3668
-70.6188
-63.029
-55.5971
-48.3223
-41.2047
-34.246
-27.4482
-20.8132
-14.3425
-8.03719
-1.89833
4.07347
9.87742
15.5126
20.9783
26.2741
31.3998
36.3557
41.1424
45.7609
50.2127
54.4994
58.6231
62.5863
66.3909
70.0395
73.5353
76.8818
80.0827
83.1417
86.063
88.851
91.5109
94.0457
96.4605
98.7621
100.957
103.054
105.06
106.984
108.831
110.614
112.344
114.032
115.691
117.331
118.967
120.613
122.282
123.993
125.763
127.609
129.55
131.606
133.793
136.13
138.635
141.322
144.2
147.268
150.481
153.773
156.963
160.209
-155.145
-145.923
-136.888
-128.028
-119.336
-110.809
-102.44
-94.2222
-86.1602
-78.2573
-70.5142
-62.9295
-55.5026
-48.2327
-41.1198
-34.1656
-27.3725
-20.7423
-14.2764
-7.97629
-1.8428
4.12346
9.92175
15.5511
21.0105
26.2997
31.4182
36.3663
41.1446
45.7538
50.1954
54.4709
58.5825
62.5319
66.321
69.9527
73.4304
76.7573
79.937
82.9736
85.8711
88.6347
91.2673
93.7735
96.1603
98.4347
100.604
102.677
104.661
106.563
108.395
110.168
111.893
113.581
115.246
116.899
118.552
120.221
121.916
123.656
125.456
127.329
129.293
131.363
133.548
135.858
138.303
140.881
143.585
146.401
149.278
152.156
154.837
157.518
-154.964
-145.75
-136.721
-127.869
-119.184
-110.665
-102.303
-94.0915
-86.0352
-78.1383
-70.4018
-62.8239
-55.4037
-48.1403
-41.0337
-34.0857
-27.2989
-20.6751
-14.2159
-7.92283
-1.7967
4.162
9.95251
15.5737
21.0247
26.3047
31.4134
36.3509
41.1176
45.7141
50.1418
54.4023
58.497
62.4273
66.1957
69.805
73.2585
76.5595
79.7116
82.719
85.5864
88.3168
90.9139
93.3855
95.7386
97.9801
100.118
102.162
104.119
105.999
107.815
109.577
111.296
112.985
114.658
116.324
117.996
119.687
121.407
123.172
124.995
126.888
128.865
130.934
133.101
135.367
137.733
140.186
142.702
145.261
147.812
150.303
152.537
154.741
-154.755
-145.551
-136.532
-127.689
-119.013
-110.505
-102.152
-93.9489
-85.8999
-78.011
-70.2833
-62.7144
-55.3033
-48.0487
-40.9505
-34.0108
-27.2325
-20.6174
-14.1673
-7.88376
-1.76767
4.18069
9.96058
15.5707
21.01
26.2775
31.3729
36.2959
41.0468
45.6261
50.0352
54.2749
58.3462
62.251
65.992
69.5718
72.9936
76.2609
79.3775
82.348
85.1758
87.8628
90.4181
92.8488
95.1615
97.3648
99.4676
101.478
103.405
105.264
107.065
108.816
110.532
112.225
113.908
115.589
117.28
118.992
120.735
122.521
124.363
126.267
128.245
130.301
132.435
134.642
136.913
139.231
141.552
143.859
146.105
148.243
150.101
151.891
-154.516
-145.324
-136.318
-127.486
-118.823
-110.329
-101.989
-93.7955
-85.7561
-77.8779
-70.1618
-62.605
-55.2061
-47.9634
-40.8763
-33.9479
-27.181
-20.5777
-14.1398
-7.86936
-1.76701
4.16722
9.93264
15.5277
20.951
26.2016
31.2788
36.1821
40.9116
45.4677
49.8513
54.0624
58.1025
61.9737
65.6786
69.2199
72.6009
75.8252
78.8971
81.8211
84.596
87.233
89.7403
92.1227
94.3896
96.5502
98.6137
100.588
102.49
104.33