/*--------------------------------*- C++ -*----------------------------------*\
| =========                 |                                                 |
| \\      /  F ield         | OpenFOAM: The Open Source CFD Toolbox           |
|  \\    /   O peration     | Version:  2412                                  |
|   \\  /    A nd           | Website:  www.openfoam.com                      |
|    \\/     M anipulation  |                                                 |
\*---------------------------------------------------------------------------*/
FoamFile
{
    version     2.0;
    format      ascii;
    arch        "LSB;label=32;scalar=64";
    class       volScalarField;
    location    "160";
    object      p;
}
// * * * * * * * * * * * * * * * * * * * * * * * * * * * * * * * * * * * * * //

dimensions      [0 2 -2 0 0 0 0];

internalField   nonuniform List<scalar> 
8702
(
-105.75
-102.636
-99.5951
-96.6217
-93.7107
-90.8454
-88.0154
-85.2361
-82.4952
-79.7965
-77.13
-74.491
-71.8864
-69.3158
-66.7808
-64.2686
-61.7805
-59.319
-56.8827
-54.4692
-52.0783
-49.7099
-47.3602
-45.0286
-42.7124
-40.412
-38.1284
-35.857
-33.5975
-31.3497
-29.1117
-26.8824
-24.6606
-22.4452
-20.235
-18.0293
-15.8268
-13.6265
-11.4275
-9.22899
-7.03003
-4.82985
-2.62764
-0.422728
1.78538
3.99699
6.21238
8.43157
10.6546
12.8812
15.1109
17.3433
19.578
21.814
24.0504
26.2858
28.5186
30.747
32.9682
35.1791
37.3767
39.5586
41.7228
43.8641
45.9731
48.0397
50.066
52.057
54.0195
55.9259
57.7355
59.4047
60.9393
62.4367
63.9272
65.5184
66.9735
68.0538
68.6295
68.2912
67.4842
66.6899
-105.75
-102.636
-99.5951
-96.6217
-93.7106
-90.8454
-88.0154
-85.2361
-82.4952
-79.7965
-77.13
-74.4909
-71.8864
-69.3158
-66.7808
-64.2686
-61.7805
-59.319
-56.8827
-54.4692
-52.0783
-49.7099
-47.3602
-45.0286
-42.7124
-40.412
-38.1284
-35.857
-33.5975
-31.3497
-29.1117
-26.8824
-24.6606
-22.4452
-20.235
-18.0293
-15.8268
-13.6265
-11.4275
-9.22899
-7.03003
-4.82985
-2.62764
-0.422722
1.78538
3.99699
6.21238
8.43157
10.6546
12.8812
15.1109
17.3433
19.578
21.814
24.0504
26.2858
28.5186
30.747
32.9682
35.1791
37.3766
39.5586
41.7227
43.8641
45.9731
48.0397
50.066
52.057
54.0194
55.9258
57.7354
59.4046
60.9392
62.4366
63.9272
65.5183
66.9733
68.0533
68.6288
68.2905
67.4837
66.6896
-105.75
-102.636
-99.595
-96.6217
-93.7106
-90.8453
-88.0154
-85.2361
-82.4952
-79.7965
-77.13
-74.4909
-71.8864
-69.3158
-66.7808
-64.2686
-61.7805
-59.319
-56.8827
-54.4692
-52.0783
-49.7099
-47.3602
-45.0286
-42.7124
-40.412
-38.1284
-35.857
-33.5975
-31.3497
-29.1117
-26.8824
-24.6606
-22.4452
-20.235
-18.0293
-15.8268
-13.6265
-11.4275
-9.22898
-7.03002
-4.82984
-2.62763
-0.42272
1.78539
3.997
6.21239
8.43158
10.6546
12.8812
15.1109
17.3433
19.578
21.814
24.0504
26.2858
28.5186
30.747
32.9682
35.1791
37.3766
39.5586
41.7227
43.8641
45.9731
48.0397
50.066
52.0569
54.0194
55.9257
57.7353
59.4045
60.9391
62.4366
63.9272
65.5182
66.9729
68.0527
68.628
68.2898
67.4833
66.6897
-105.75
-102.636
-99.595
-96.6216
-93.7106
-90.8453
-88.0154
-85.2361
-82.4952
-79.7965
-77.13
-74.4909
-71.8864
-69.3157
-66.7808
-64.2685
-61.7805
-59.3189
-56.8827
-54.4692
-52.0783
-49.7098
-47.3601
-45.0286
-42.7124
-40.412
-38.1284
-35.857
-33.5975
-31.3496
-29.1117
-26.8824
-24.6606
-22.4451
-20.235
-18.0292
-15.8268
-13.6265
-11.4274
-9.22896
-7.03
-4.82981
-2.62761
-0.422694
1.78541
3.99702
6.21241
8.4316
10.6546
12.8813
15.1109
17.3433
19.578
21.8141
24.0504
26.2858
28.5186
30.747
32.9682
35.1791
37.3766
39.5586
41.7227
43.8641
45.9731
48.0397
50.066
52.0569
54.0194
55.9257
57.7352
59.4045
60.9391
62.4366
63.9272
65.5181
66.9725
68.052
68.6271
68.2892
67.4833
66.6904
-105.749
-102.636
-99.595
-96.6216
-93.7106
-90.8453
-88.0153
-85.236
-82.4951
-79.7964
-77.1299
-74.4909
-71.8864
-69.3157
-66.7807
-64.2685
-61.7804
-59.3189
-56.8826
-54.4691
-52.0783
-49.7098
-47.3601
-45.0285
-42.7123
-40.4119
-38.1283
-35.8569
-33.5974
-31.3496
-29.1116
-26.8823
-24.6606
-22.4451
-20.235
-18.0292
-15.8267
-13.6264
-11.4274
-9.2289
-7.02995
-4.82976
-2.62756
-0.422638
1.78546
3.99708
6.21246
8.43166
10.6547
12.8813
15.111
17.3434
19.5781
21.8141
24.0505
26.2858
28.5186
30.7471
32.9683
35.1791
37.3767
39.5587
41.7228
43.8641
45.9731
48.0397
50.066
52.0569
54.0194
55.9256
57.7352
59.4044
60.9391
62.4367
63.9273
65.5179
66.972
68.051
68.6258
68.2887
67.4842
66.6926
-105.749
-102.636
-99.5949
-96.6215
-93.7105
-90.8452
-88.0152
-85.2359
-82.495
-79.7963
-77.1298
-74.4908
-71.8863
-69.3156
-66.7806
-64.2684
-61.7803
-59.3188
-56.8825
-54.469
-52.0782
-49.7097
-47.36
-45.0284
-42.7122
-40.4118
-38.1282
-35.8568
-33.5973
-31.3495
-29.1115
-26.8822
-24.6605
-22.445
-20.2349
-18.0291
-15.8266
-13.6263
-11.4273
-9.2288
-7.02984
-4.82966
-2.62745
-0.422536
1.78557
3.99718
6.21257
8.43176
10.6548
12.8814
15.1111
17.3435
19.5782
21.8142
24.0506
26.2859
28.5187
30.7472
32.9684
35.1792
37.3768
39.5587
41.7229
43.8642
45.9732
48.0397
50.0661
52.057
54.0194
55.9256
57.7351
59.4044
60.9393
62.437
63.9276
65.5177
66.9711
68.0495
68.6241
68.2885
67.4862
66.6969
-105.749
-102.636
-99.5947
-96.6213
-93.7103
-90.845
-88.0151
-85.2358
-82.4948
-79.7962
-77.1297
-74.4906
-71.8861
-69.3154
-66.7805
-64.2682
-61.7802
-59.3186
-56.8824
-54.4688
-52.078
-49.7095
-47.3598
-45.0283
-42.7121
-40.4117
-38.1281
-35.8566
-33.5972
-31.3493
-29.1113
-26.8821
-24.6603
-22.4448
-20.2347
-18.0289
-15.8264
-13.6261
-11.4271
-9.22863
-7.02967
-4.82948
-2.62727
-0.422357
1.78574
3.99736
6.21274
8.43194
10.6549
12.8816
15.1112
17.3437
19.5784
21.8144
24.0508
26.2861
28.5189
30.7473
32.9686
35.1794
37.377
39.5589
41.723
43.8643
45.9733
48.0399
50.0662
52.0572
54.0195
55.9256
57.7351
59.4045
60.9397
62.4376
63.9283
65.5176
66.9699
68.0474
68.6218
68.2887
67.4902
66.7044
-105.749
-102.636
-99.5944
-96.6211
-93.71
-90.8447
-88.0148
-85.2355
-82.4946
-79.7959
-77.1294
-74.4904
-71.8859
-69.3152
-66.7802
-64.268
-61.7799
-59.3184
-56.8821
-54.4686
-52.0777
-49.7093
-47.3596
-45.028
-42.7118
-40.4114
-38.1278
-35.8564
-33.5969
-31.3491
-29.1111
-26.8818
-24.66
-22.4446
-20.2344
-18.0286
-15.8262
-13.6259
-11.4268
-9.22835
-7.02939
-4.8292
-2.62699
-0.422077
1.78603
3.99764
6.21303
8.43222
10.6552
12.8819
15.1115
17.3439
19.5786
21.8147
24.051
26.2864
28.5192
30.7476
32.9688
35.1797
37.3772
39.5592
41.7233
43.8646
45.9736
48.0402
50.0665
52.0575
54.0197
55.9257
57.7351
59.4047
60.9403
62.4386
63.9293
65.5175
66.9683
68.0445
68.6188
68.2896
67.4969
66.7165
-105.748
-102.635
-99.594
-96.6207
-93.7096
-90.8444
-88.0144
-85.2351
-82.4942
-79.7955
-77.129
-74.49
-71.8855
-69.3148
-66.7798
-64.2676
-61.7795
-59.318
-56.8817
-54.4682
-52.0774
-49.7089
-47.3592
-45.0276
-42.7114
-40.411
-38.1274
-35.856
-33.5965
-31.3487
-29.1107
-26.8814
-24.6596
-22.4442
-20.234
-18.0282
-15.8257
-13.6255
-11.4264
-9.22794
-7.02897
-4.82878
-2.62657
-0.421652
1.78645
3.99807
6.21346
8.43265
10.6557
12.8823
15.112
17.3444
19.5791
21.8151
24.0515
26.2868
28.5196
30.7481
32.9693
35.1801
37.3777
39.5596
41.7237
43.865
45.974
48.0406
50.067
52.058
54.0201
55.926
57.7352
59.4051
60.9414
62.4402
63.9309
65.5174
66.9662
68.0407
68.6147
68.2915
67.5072
66.7347
-105.748
-102.635
-99.5934
-96.6201
-93.7091
-90.8438
-88.0139
-85.2346
-82.4937
-79.795
-77.1285
-74.4895
-71.8849
-69.3143
-66.7793
-64.2671
-61.779
-59.3175
-56.8812
-54.4677
-52.0768
-49.7084
-47.3586
-45.0271
-42.7109
-40.4105
-38.1269
-35.8554
-33.5959
-31.3481
-29.1101
-26.8808
-24.659
-22.4436
-20.2334
-18.0277
-15.8252
-13.6249
-11.4258
-9.22734
-7.02837
-4.82818
-2.62597
-0.421045
1.78707
3.99868
6.21407
8.43327
10.6563
12.8829
15.1126
17.345
19.5797
21.8157
24.0521
26.2875
28.5202
30.7487
32.9699
35.1807
37.3783
39.5603
41.7244
43.8656
45.9746
48.0413
50.0678
52.0588
54.0207
55.9263
57.7355
59.4057
60.9429
62.4426
63.9334
65.5176
66.9634
68.0357
68.6097
68.2948
67.5222
66.7605
66.1993
-105.747
-102.634
-99.5927
-96.6193
-93.7083
-90.843
-88.0131
-85.2338
-82.4929
-79.7942
-77.1278
-74.4887
-71.8842
-69.3135
-66.7786
-64.2663
-61.7783
-59.3167
-56.8804
-54.4669
-52.0761
-49.7076
-47.3579
-45.0263
-42.7101
-40.4097
-38.1261
-35.8547
-33.5952
-31.3473
-29.1093
-26.88
-24.6583
-22.4428
-20.2326
-18.0269
-15.8244
-13.6241
-11.425
-9.22652
-7.02755
-4.82735
-2.62513
-0.420208
1.78791
3.99953
6.21492
8.43412
10.6571
12.8838
15.1135
17.3459
19.5806
21.8166
24.053
26.2883
28.5211
30.7496
32.9708
35.1816
37.3792
39.5612
41.7252
43.8665
45.9755
48.0422
50.0688
52.0599
54.0216
55.9269
57.7359
59.4067
60.9452
62.4459
63.9368
65.518
66.96
68.0295
68.6036
68.3
67.5429
66.7958
66.2458
-105.746
-102.633
-99.5916
-96.6183
-93.7073
-90.842
-88.0121
-85.2328
-82.4919
-79.7933
-77.1268
-74.4877
-71.8832
-69.3126
-66.7776
-64.2654
-61.7773
-59.3158
-56.8795
-54.466
-52.0751
-49.7066
-47.3569
-45.0253
-42.7091
-40.4087
-38.1251
-35.8536
-33.5941
-31.3463
-29.1083
-26.879
-24.6572
-22.4417
-20.2316
-18.0258
-15.8233
-13.623
-11.4239
-9.22543
-7.02645
-4.82625
-2.62402
-0.41909
1.78903
4.00065
6.21606
8.43526
10.6583
12.8849
15.1146
17.347
19.5817
21.8178
24.0542
26.2895
28.5223
30.7508
32.972
35.1828
37.3804
39.5624
41.7265
43.8677
45.9767
48.0435
50.0703
52.0614
54.0229
55.9278
57.7366
59.4082
60.9483
62.4503
63.9415
65.5188
66.956
68.022
68.5964
68.3076
67.5707
66.8422
66.3068
-105.745
-102.631
-99.5902
-96.6169
-93.7059
-90.8407
-88.0108
-85.2315
-82.4906
-79.792
-77.1255
-74.4864
-71.882
-69.3113
-66.7763
-64.2641
-61.776
-59.3145
-56.8782
-54.4647
-52.0738
-49.7053
-47.3556
-45.024
-42.7078
-40.4074
-38.1238
-35.8523
-33.5928
-31.3449
-29.107
-26.8776
-24.6558
-22.4404
-20.2302
-18.0244
-15.8219
-13.6216
-11.4225
-9.22401
-7.02502
-4.82481
-2.62258
-0.417637
1.79049
4.00212
6.21753
8.43674
10.6598
12.8864
15.1161
17.3485
19.5833
21.8193
24.0557
26.2911
28.5239
30.7523
32.9735
35.1844
37.382
39.564
41.7281
43.8693
45.9783
48.0453
50.0722
52.0634
54.0246
55.929
57.7377
59.4102
60.9525
62.4562
63.9477
65.5201
66.9515
68.0134
68.5885
68.3184
67.6068
66.9014
66.3842
-105.743
-102.63
-99.5885
-96.6152
-93.7043
-90.839
-88.0091
-85.2299
-82.489
-79.7903
-77.1239
-74.4848
-71.8803
-69.3097
-66.7747
-64.2625
-61.7744
-59.3129
-56.8766
-54.463
-52.0722
-49.7037
-47.354
-45.0224
-42.7061
-40.4057
-38.1221
-35.8506
-33.5911
-31.3432
-29.1052
-26.8759
-24.6541
-22.4386
-20.2284
-18.0226
-15.8201
-13.6198
-11.4207
-9.22221
-7.02321
-4.82299
-2.62074
-0.415793
1.79234
4.00398
6.2194
8.43862
10.6616
12.8883
15.118
17.3504
19.5852
21.8212
24.0576
26.293
28.5258
30.7543
32.9755
35.1864
37.3841
39.5661
41.7301
43.8713
45.9804
48.0476
50.0747
52.066
54.0269
55.9308
57.7393
59.4129
60.9579
62.4637
63.9556
65.5222
66.9466
68.0038
68.5801
68.333
67.6525
66.9752
66.4799
-105.741
-102.627
-99.5864
-96.6131
-93.7022
-90.8369
-88.0071
-85.2278
-82.4869
-79.7883
-77.1219
-74.4828
-71.8783
-69.3077
-66.7727
-64.2605
-61.7724
-59.3109
-56.8745
-54.461
-52.0702
-49.7017
-47.3519
-45.0203
-42.7041
-40.4036
-38.12
-35.8486
-33.589
-31.3411
-29.1031
-26.8738
-24.652
-22.4364
-20.2263
-18.0204
-15.8179
-13.6176
-11.4185
-9.21997
-7.02096
-4.82072
-2.61846
-0.413501
1.79465
4.0063
6.22173
8.44096
10.664
12.8907
15.1204
17.3528
19.5876
21.8236
24.0601
26.2955
28.5283
30.7568
32.978
35.1889
37.3866
39.5687
41.7328
43.8739
45.983
48.0504
50.0779
52.0693
54.0298
55.9331
57.7414
59.4166
60.9648
62.473
63.9655
65.5253
66.9414
67.9935
68.5717
68.3522
67.7088
67.0649
66.5954
-105.738
-102.625
-99.5837
-96.6105
-93.6996
-90.8344
-88.0046
-85.2253
-82.4845
-79.7858
-77.1194
-74.4804
-71.8759
-69.3052
-66.7702
-64.258
-61.7699
-59.3084
-56.8721
-54.4586
-52.0677
-49.6992
-47.3494
-45.0178
-42.7016
-40.4011
-38.1175
-35.846
-33.5865
-31.3386
-29.1005
-26.8712
-24.6493
-22.4338
-20.2236
-18.0178
-15.8152
-13.6149
-11.4158
-9.21723
-7.01821
-4.81795
-2.61568
-0.410702
1.79746
4.00913
6.22457
8.44381
10.6669
12.8936
15.1233
17.3557
19.5905
21.8266
24.063
26.2984
28.5313
30.7598
32.9811
35.192
37.3898
39.5719
41.736
43.8771
45.9863
48.054
50.0818
52.0735
54.0335
55.9361
57.7443
59.4212
60.9732
62.4844
63.9775
65.5295
66.9364
67.983
68.564
68.377
67.7769
67.1718
66.7319
-105.735
-102.622
-99.5806
-96.6074
-93.6965
-90.8314
-88.0015
-85.2223
-82.4815
-79.7829
-77.1164
-74.4774
-71.8729
-69.3023
-66.7673
-64.2551
-61.767
-59.3055
-56.8691
-54.4556
-52.0647
-49.6962
-47.3465
-45.0148
-42.6985
-40.3981
-38.1144
-35.8429
-33.5834
-31.3355
-29.0974
-26.868
-24.6462
-22.4306
-20.2204
-18.0146
-15.812
-13.6116
-11.4125
-9.21396
-7.01491
-4.81464
-2.61234
-0.407348
1.80083
4.01252
6.22798
8.44724
10.6703
12.897
15.1268
17.3592
19.594
21.8301
24.0666
26.302
28.5349
30.7634
32.9847
35.1957
37.3936
39.5757
41.7398
43.881
45.9902
48.0583
50.0865
52.0784
54.038
55.9398
57.7479
59.4271
60.9837
62.4983
63.9922
65.5353
66.9317
67.9727
68.5577
68.4082
67.8578
67.2969
66.8904
66.7869
-102.618
-99.5768
-96.6037
-93.6928
-90.8277
-87.9979
-85.2187
-82.4779
-79.7793
-77.1129
-74.4738
-71.8694
-69.2987
-66.7637
-64.2515
-61.7634
-59.3019
-56.8656
-54.452
-52.0611
-49.6926
-47.3429
-45.0112
-42.6949
-40.3944
-38.1108
-35.8393
-33.5797
-31.3317
-29.0937
-26.8643
-24.6424
-22.4268
-20.2166
-18.0107
-15.8082
-13.6078
-11.4087
-9.21007
-7.011
-4.8107
-2.60839
-0.403373
1.80483
4.01653
6.23201
8.45129
10.6744
12.9011
15.1308
17.3633
19.5981
21.8343
24.0707
26.3062
28.5391
30.7677
32.989
35.2001
37.398
39.5803
41.7444
43.8856
45.995
48.0634
50.0923
52.0845
54.0434
55.9445
57.7526
59.4337
60.9952
62.5138
64.0088
65.5428
66.928
67.9633
68.554
68.4469
67.9525
67.4412
67.0716
66.9602
67.229
66.3417
-102.614
-99.5729
-96.5998
-93.6891
-90.824
-87.9943
-85.2151
-82.4743
-79.7757
-77.1093
-74.4703
-71.8658
-69.2951
-66.7601
-64.2479
-61.7598
-59.2982
-56.8619
-54.4483
-52.0574
-49.6888
-47.339
-45.0073
-42.691
-40.3905
-38.1068
-35.8353
-33.5756
-31.3277
-29.0895
-26.8601
-24.6381
-22.4225
-20.2122
-18.0063
-15.8037
-13.6033
-11.4041
-9.20552
-7.00643
-4.80611
-2.60377
-0.398729
1.80949
4.02122
6.23671
8.456
10.6791
12.9059
15.1357
17.3682
19.6031
21.8393
24.0758
26.3113
28.5443
30.7728
32.9942
35.2054
37.4034
39.5857
41.7499
43.891
46.0005
48.0693
50.0987
52.0913
54.0497
55.9499
57.758
59.4424
61.0098
62.5321
64.0281
65.5512
66.9257
67.956
68.554
68.494
68.0619
67.6056
67.2763
67.1587
67.3273
66.3799
-102.609
-99.5682
-96.5952
-93.6845
-90.8195
-87.9898
-85.2107
-82.47
-79.7714
-77.105
-74.466
-71.8615
-69.2908
-66.7558
-64.2435
-61.7554
-59.2938
-56.8574
-54.4439
-52.0529
-49.6844
-47.3345
-45.0028
-42.6865
-40.3859
-38.1022
-35.8307
-33.571
-31.323
-29.0849
-26.8553
-24.6333
-22.4176
-20.2073
-18.0013
-15.7986
-13.5981
-11.399
-9.20032
-7.0012
-4.80086
-2.59849
-0.393432
1.81481
4.02655
6.24207
8.46139
10.6845
12.9113
15.1412
17.3738
19.6088
21.845
24.0816
26.3172
28.5502
30.7789
33.0004
35.2116
37.4098
39.5921
41.7562
43.8973
46.0068
48.0761
50.106
52.099
54.0569
55.9564
57.7645
59.4539
61.0284
62.5547
64.0518
65.562
66.9247
67.9515
68.5592
68.5511
68.1872
67.7912
67.5056
67.3846
67.4568
66.4598
-102.603
-99.5618
-96.5887
-93.678
-90.813
-87.9833
-85.2042
-82.4635
-79.765
-77.0986
-74.4597
-71.8552
-69.2846
-66.7496
-64.2374
-61.7493
-59.2877
-56.8514
-54.4378
-52.0469
-49.6784
-47.3286
-44.9969
-42.6805
-40.38
-38.0963
-35.8247
-33.5651
-31.3171
-29.0789
-26.8495
-24.6275
-22.4118
-20.2014
-17.9954
-15.7927
-13.5922
-11.393
-9.19436
-6.99522
-4.79484
-2.59246
-0.38738
1.82088
4.03264
6.24816
8.46749
10.6906
12.9173
15.1471
17.3798
19.6147
21.8509
24.0875
26.323
28.5562
30.7849
33.0064
35.2178
37.4161
39.5986
41.763
43.9043
46.0141
48.0841
50.1146
52.1081
54.0655
55.9642
57.7726
59.4659
61.0471
62.5786
64.0772
65.5762
66.9259
67.9508
68.5712
68.6196
68.3298
67.9996
67.7613
67.6409
67.6249
66.5937
-102.596
-99.5553
-96.5823
-93.6716
-90.8067
-87.977
-85.198
-82.4572
-79.7588
-77.0924
-74.4535
-71.8491
-69.2784
-66.7435
-64.2312
-61.7431
-59.2816
-56.8452
-54.4316
-52.0407
-49.6721
-47.3223
-44.9905
-42.6741
-40.3735
-38.0898
-35.8182
-33.5585
-31.3105
-29.0723
-26.8428
-24.6208
-22.4052
-20.1948
-17.9888
-15.7861
-13.5856
-11.3863
-9.18764
-6.98847
-4.78807
-2.58565
-0.380541
1.82774
4.03953
6.25508
8.47442
10.6975
12.9242
15.154
17.3868
19.6218
21.8581
24.0947
26.3303
28.5634
30.792
33.0134
35.2248
37.4232
39.6059
41.7706
43.912
46.022
48.0927
50.1241
52.1181
54.075
55.973
57.782
59.4791
61.0677
62.6049
64.1052
65.5933
66.932
67.9559
68.592
68.7014
68.4916
68.2327
68.0458
67.9318
67.8405
66.7956
64.0777
58.7856
51.3302
-102.589
-99.5487
-96.5758
-93.6652
-90.8003
-87.9708
-85.1917
-82.451
-79.7526
-77.0862
-74.4473
-71.8428
-69.2722
-66.7372
-64.225
-61.7368
-59.2752
-56.8388
-54.4252
-52.0342
-49.6656
-47.3157
-44.9839
-42.6674
-40.3667
-38.0829
-35.8113
-33.5515
-31.3034
-29.0652
-26.8357
-24.6137
-22.3979
-20.1875
-17.9815
-15.7787
-13.5781
-11.3789
-9.18014
-6.98093
-4.78048
-2.57804
-0.372898
1.83541
4.04722
6.26279
8.48217
10.7053
12.932
15.162
17.3948
19.6298
21.8662
24.1029
26.3386
28.5718
30.8004
33.0218
35.2332
37.4316
39.6144
41.7791
43.9205
46.0308
48.1022
50.1346
52.1293
54.0858
55.9832
57.7931
59.4948
61.0917
62.6353
64.1377
65.615
66.9427
67.9679
68.6239
68.7991
68.675
68.4933
68.3627
68.263
68.1144
67.0832
64.5464
59.8022
53.4
-93.6574
-90.7926
-87.9631
-85.1841
-82.4434
-79.7449
-77.0786
-74.4397
-71.8352
-69.2646
-66.7296
-64.2174
-61.7292
-59.2676
-56.8312
-54.4175
-52.0265
-49.6579
-47.3079
-44.9761
-42.6596
-40.3589
-38.075
-35.8034
-33.5436
-31.2954
-29.0572
-26.8276
-24.6055
-22.3898
-20.1793
-17.9732
-15.7704
-13.5698
-11.3705
-9.17174
-6.9725
-4.77202
-2.56954
-0.364377
1.84395
4.05578
6.27136
8.49074
10.7139
12.9406
15.1705
17.4033
19.6383
21.8747
24.1114
26.3471
28.5803
30.8089
33.0304
35.2419
37.4405
39.6235
41.7884
43.9298
46.0404
48.1127
50.1462
52.1416
54.0978
55.9948
57.806
59.5126
61.1182
62.6686
64.1735
65.6412
66.9596
67.9892
68.6699
68.9156
68.883
68.7847
68.7165
68.6418
68.4595
67.475
65.1657
61.026
55.7085
-93.649
-90.7842
-87.9548
-85.1758
-82.4351
-79.7367
-77.0705
-74.4315
-71.8271
-69.2564
-66.7214
-64.2092
-61.721
-59.2594
-56.8229
-54.4092
-52.0181
-49.6495
-47.2995
-44.9676
-42.651
-40.3503
-38.0664
-35.7947
-33.5349
-31.2866
-29.0484
-26.8187
-24.5966
-22.3808
-20.1703
-17.9642
-15.7613
-13.5607
-11.3613
-9.16249
-6.96321
-4.7627
-2.56019
-0.354994
1.85336
4.0652
6.2808
8.50019
10.7234
12.9501
15.18
17.4128
19.6479
21.8842
24.1209
26.3566
28.5898
30.8185
33.04
35.2515
37.4503
39.6334
41.7984
43.94
46.0509
48.1241
50.1588
52.1551
54.1111
56.008
57.821
59.5332
61.1483
62.7062
64.2143
65.6737
66.9849
68.0225
68.7333
69.0545
69.1193
69.1114
69.1133
69.0773
68.8906
67.9914
65.9634
62.4879
58.3028
54.8731
56.9732
69.5285
89.7237
94.4886
-93.6397
-90.775
-87.9456
-85.1667
-82.4261
-79.7277
-77.0615
-74.4225
-71.8181
-69.2474
-66.7124
-64.2001
-61.7119
-59.2503
-56.8138
-54.4
-52.0089
-49.6402
-47.2902
-44.9583
-42.6416
-40.3408
-38.0569
-35.7851
-33.5252
-31.277
-29.0386
-26.8089
-24.5867
-22.3708
-20.1603
-17.9541
-15.7512
-13.5505
-11.3511
-9.15228
-6.95296
-4.75241
-2.54987
-0.344648
1.86372
4.07557
6.29118
8.51057
10.7337
12.9604
15.1904
17.4232
19.6582
21.8945
24.1312
26.3669
28.6001
30.8287
33.0503
35.2619
37.4608
39.6441
41.8092
43.951
46.0623
48.1365
50.1725
52.1699
54.126
56.0232
57.8384
59.5568
61.1821
62.7483
64.2605
65.7137
67.0207
68.0709
68.8182
69.2201
69.3886
69.479
69.5607
69.5808
69.4243
68.6546
66.9625
64.1966
61.1404
59.3441
62.475
73.7936
90.8892
93.2693
-93.6296
-90.765
-87.9357
-85.1568
-82.4162
-79.7178
-77.0516
-74.4127
-71.8082
-69.2376
-66.7026
-64.1902
-61.702
-59.2403
-56.8038
-54.39
-51.9988
-49.6301
-47.28
-44.948
-42.6313
-40.3304
-38.0464
-35.7746
-33.5147
-31.2663
-29.0279
-26.7981
-24.5759
-22.36
-20.1494
-17.9431
-15.7401
-13.5394
-11.34
-9.14108
-6.94172
-4.74113
-2.53855
-0.333308
1.87508
4.08694
6.30254
8.52193
10.7451
12.9718
15.2017
17.4345
19.6694
21.9057
24.1424
26.378
28.6112
30.8398
33.0613
35.2731
37.4721
39.6556
41.8209
43.9628
46.0747
48.15
50.1875
52.1861
54.1425
56.0404
57.8586
59.5842
61.2204
62.796
64.3136
65.7635
67.0701
68.1384
68.9294
69.4178
69.6964
69.8941
70.068
70.1655
70.0789
69.4866
68.1839
66.1613
64.2231
63.8728
67.8941
78.4135
93.2456
98.8185
-93.6186
-90.7541
-87.9248
-85.146
-82.4054
-79.7071
-77.0409
-74.402
-71.7975
-69.2268
-66.6918
-64.1795
-61.6912
-59.2295
-56.7929
-54.379
-51.9878
-49.619
-47.2689
-44.9368
-42.62
-40.3191
-38.035
-35.7631
-33.5031
-31.2547
-29.0162
-26.7863
-24.564
-22.348
-20.1374
-17.931
-15.728
-13.5272
-11.3278
-9.1288
-6.92939
-4.72876
-2.52615
-0.320889
1.88751
4.09937
6.31497
8.53434
10.7575
12.9841
15.214
17.4467
19.6816
21.9178
24.1544
26.3901
28.6231
30.8517
33.0732
35.285
37.4842
39.6679
41.8334
43.9755
46.088
48.1646
50.2038
52.204
54.1612
56.0604
57.8825
59.616
61.2642
62.8503
64.3751
65.8252
67.1367
68.2296
69.0724
69.6537
70.0497
70.3649
70.6461
70.8461
70.8729
70.5081
69.6436
68.3847
67.5241
68.4556
73.2431
83.2879
96.6984
104.245
-93.6066
-90.7422
-87.913
-85.1342
-82.3937
-79.6954
-77.0293
-74.3903
-71.7858
-69.2151
-66.6801
-64.1677
-61.6794
-59.2176
-56.781
-54.3671
-51.9758
-49.6069
-47.2568
-44.9246
-42.6077
-40.3066
-38.0225
-35.7506
-33.4905
-31.2419
-29.0034
-26.7734
-24.551
-22.3349
-20.1242
-17.9178
-15.7147
-13.5139
-11.3144
-9.11536
-6.91591
-4.71524
-2.5126
-0.307315
1.90109
4.11295
6.32853
8.54788
10.771
12.9976
15.2274
17.46
19.6948
21.931
24.1675
26.403
28.636
30.8645
33.086
35.2978
37.4971
39.6811
41.8467
43.9892
46.1024
48.1806
50.2216
52.2236
54.1822
56.0835
57.9104
59.6531
61.3144
62.9128
64.4473
65.9023
67.2249
68.35
69.2536
69.9351
70.4564
70.901
71.3076
71.6385
71.8245
71.7365
71.352
70.8608
71.0216
73.0759
78.5398
88.3786
101.056
110.407
-93.5935
-90.7292
-87.9
-85.1213
-82.3809
-79.6826
-77.0165
-74.3776
-71.7731
-69.2024
-66.6673
-64.1549
-61.6666
-59.2047
-56.768
-54.354
-51.9627
-49.5938
-47.2435
-44.9112
-42.5942
-40.2931
-38.0089
-35.7368
-33.4767
-31.228
-28.9893
-26.7593
-24.5368
-22.3207
-20.1099
-17.9034
-15.7002
-13.4993
-11.2997
-9.10066
-6.90117
-4.70045
-2.49778
-0.292477
1.91593
4.12778
6.34333
8.56264
10.7857
13.0122
15.242
17.4745
19.7092
21.9452
24.1815
26.4169
28.6498
30.8782
33.0996
35.3114
37.5109
39.6951
41.861
44.0039
46.1181
48.1979
50.2412
52.2456
54.2061
56.1105
57.9435
59.6967
61.3727
62.9857
64.5331
65.9988
67.34
68.5062
69.4805
70.2702
70.9258
71.5133
72.0658
72.5589
72.9494
73.1836
73.3093
73.5748
74.6853
77.7206
83.8062
93.6771
106.216
117.831
-93.5788
-90.7151
-87.8861
-85.1073
-82.3669
-79.6688
-77.0027
-74.3637
-71.7592
-69.1885
-66.6534
-64.141
-61.6526
-59.1907
-56.7539
-54.3399
-51.9484
-49.5794
-47.2291
-44.8967
-42.5796
-40.2783
-37.994
-35.7219
-33.4616
-31.2128
-28.974
-26.7439
-24.5213
-22.305
-20.0941
-17.8876
-15.6843
-13.4834
-11.2837
-9.08458
-6.88502
-4.68426
-2.48156
-0.276243
1.93216
4.14399
6.35951
8.57876
10.8017
13.0282
15.2578
17.4902
19.7248
21.9606
24.1968
26.432
28.6647
30.8929
33.1142
35.326
37.5256
39.7101
41.8763
44.0199
46.1352
48.2171
50.263
52.2702
54.2337
56.1423
57.9829
59.7484
61.4411
63.0715
64.6361
66.1193
67.4882
68.7055
69.7612
70.6682
71.4681
72.2134
72.9344
73.6217
74.26
74.8555
75.5094
76.5027
78.4774
82.3711
89.0467
99.1236
111.977
125.591
-93.5639
-90.6984
-87.8701
-85.0919
-82.3514
-79.6533
-76.9876
-74.3487
-71.7442
-69.1735
-66.6383
-64.1258
-61.6373
-59.1754
-56.7386
-54.3244
-51.9329
-49.5639
-47.2134
-44.8808
-42.5636
-40.2622
-37.9778
-35.7056
-33.4451
-31.1962
-28.9573
-26.727
-24.5043
-22.2879
-20.0769
-17.8703
-15.6669
-13.4659
-11.2661
-9.06692
-6.86731
-4.6665
-2.46376
-0.258431
1.94997
4.16177
6.37723
8.59641
10.8193
13.0456
15.2751
17.5074
19.7417
21.9774
24.2133
26.4483
28.6808
30.9088
33.13
35.3418
37.5415
39.7263
41.893
44.0373
46.1541
48.2384
50.2874
52.2981
54.2656
56.1801
58.0304
59.8103
61.5223
63.1737
64.7607
66.2697
67.6765
68.9559
70.1043
71.1384
72.0936
73.0126
73.9255
74.8383
75.7617
76.7476
77.9341
79.6157
82.3616
86.995
94.2405
104.627
118.009
133.242
-93.5466
-90.6793
-87.8523
-85.0745
-82.3348
-79.6373
-76.9702
-74.3315
-71.7272
-69.1566
-66.6217
-64.1093
-61.6207
-59.1587
-56.7217
-54.3074
-51.9158
-49.5467
-47.1961
-44.8635
-42.5461
-40.2445
-37.96
-35.6876
-33.4271
-31.178
-28.9389
-26.7085
-24.4856
-22.2691
-20.058
-17.8512
-15.6478
-13.4466
-11.2468
-9.04747
-6.84778
-4.6469
-2.44413
-0.23879
1.96959
4.18136
6.39677
8.61587
10.8386
13.0648
15.2942
17.5263
19.7604
21.9958
24.2315
26.4662
28.6984
30.9262
33.1472
35.359
37.5588
39.744
41.9113
44.0566
46.1751
48.2622
50.315
52.3304
54.3034
56.2257
58.0878
59.8849
61.6193
63.2964
64.9123
66.4562
67.9121
69.2653
70.5183
71.6904
72.8124
73.9212
75.0482
76.2138
77.4516
78.8452
80.5546
82.8722
86.2966
91.5621
99.3442
110.073
123.994
140.339
-93.5253
-90.6594
-87.833
-85.0552
-82.3167
-79.6186
-76.9504
-74.3123
-71.7082
-69.1383
-66.603
-64.0902
-61.6017
-59.1398
-56.703
-54.2888
-51.8972
-49.528
-47.1772
-44.8443
-42.5267
-40.2251
-37.9405
-35.6679
-33.4071
-31.1579
-28.9186
-26.688
-24.465
-22.2483
-20.037
-17.8301
-15.6265
-13.4252
-11.2253
-9.02587
-6.82609
-4.62515
-2.42233
-0.216963
1.99141
4.20313
6.41847
8.63746
10.8601
13.0862
15.3153
17.5471
19.781
22.0161
24.2515
26.486
28.7179
30.9454
33.1662
35.378
37.578
39.7636
41.9318
44.0783
46.1989
48.2894
50.3468
52.368
54.3484
56.2809
58.1576
59.9752
61.7362
63.4443
65.0965
66.6853
68.2022
69.6418
71.0116
72.3324
73.6326
74.9458
76.3059
77.7455
79.3161
81.1214
83.3305
86.2243
90.2404
96.0392
104.297
115.333
129.685
146.577
-93.502
-90.6363
-87.8102
-85.0333
-82.295
-79.596
-76.929
-74.2914
-71.6874
-69.1187
-66.5825
-64.0692
-61.5806
-59.1188
-56.682
-54.2677
-51.8765
-49.5071
-47.156
-44.823
-42.5053
-40.2033
-37.9185
-35.6458
-33.3849
-31.1354
-28.8959
-26.6652
-24.4419
-22.2251
-20.0136
-17.8065
-15.6027
-13.4013
-11.2012
-9.00169
-6.80181
-4.60078
-2.3979
-0.192511
2.01585
4.22753
6.44278
8.66165
10.8841
13.11
15.3389
17.5705
19.804
22.0388
24.2738
26.508
28.7396
30.9668
33.1875
35.3993
37.5996
39.7858
41.9548
44.1029
46.2262
48.321
50.3842
52.4128
54.4027
56.3481
58.2427
60.0847
61.8769
63.622
65.3185
66.9632
68.554
70.0925
71.5905
73.0699
74.558
76.0871
77.694
79.4205
81.3302
83.5374
86.212
89.6153
94.1368
100.376
109.022
120.275
134.876
151.772
-93.4747
-90.6095
-87.7842
-85.0076
-82.2699
-79.5714
-76.9044
-74.267
-71.6633
-69.0955
-66.559
-64.0456
-61.557
-59.095
-56.658
-54.2436
-51.8528
-49.4831
-47.1319
-44.7987
-42.4804
-40.1789
-37.894
-35.621
-33.3598
-31.1101
-28.8703
-26.6393
-24.4159
-22.1988
-19.9871
-17.7798
-15.5759
-13.3743
-11.174
-8.97438
-6.77438
-4.57326
-2.37032
-0.164902
2.04345
4.25508
6.47024
8.68896
10.9112
13.1369
15.3655
17.5967
19.8299
22.0643
24.2989
26.5327
28.7639
30.9909
33.2115
35.4233
37.624
39.8108
41.9811
44.1314
46.2582
48.358
50.4282
52.4659
54.4679
56.4296
58.3462
60.2169
62.0452
63.834
65.5842
67.2962
68.9729
70.6216
72.2575
73.9036
75.5865
77.3384
79.1983
81.2141
83.4569
86.0434
89.1388
92.9781
97.9238
104.524
113.446
124.781
139.39
155.836
-93.4434
-90.5788
-87.7542
-84.9781
-82.2409
-79.5425
-76.8759
-74.2391
-71.6358
-69.0676
-66.5309
-64.0179
-61.5296
-59.0679
-56.631
-54.2167
-51.8257
-49.4558
-47.1044
-44.7707
-42.4523
-40.1515
-37.8661
-35.5926
-33.3311
-31.0812
-28.8412
-26.6099
-24.3862
-22.1689
-19.957
-17.7495
-15.5453
-13.3435
-11.1431
-8.94329
-6.74316
-4.54195
-2.33895
-0.133517
2.0748
4.28636
6.50138
8.71994
10.942
13.1673
15.3956
17.6265
19.8592
22.093
24.3272
26.5605
28.7914
31.0181
33.2386
35.4505
37.6515
39.8393
42.0113
44.1645
46.2956
48.4017
50.4806
52.5298
54.5468
56.5282
58.4705
60.3743
62.2445
64.0849
65.8981
67.6877
69.4609
71.2291
73.0102
74.8277
76.708
78.6836
80.7953
83.0939
85.6521
88.5838
92.044
96.2489
101.543
108.421
117.486
128.745
143.103
158.753
-93.4071
-90.5433
-87.7195
-84.944
-82.2074
-79.5094
-76.8431
-74.2068
-71.604
-69.0362
-66.4996
-63.9867
-61.4985
-59.0367
-56.5997
-54.1855
-51.7944
-49.4243
-47.0728
-44.7391
-42.4206
-40.1192
-37.8335
-35.5599
-33.2982
-31.048
-28.8078
-26.5762
-24.3522
-22.1346
-19.9225
-17.7147
-15.5103
-13.3083
-11.1077
-8.90772
-6.70746
-4.50616
-2.3031
-0.0976806
2.11058
4.32202
6.53687
8.75519
10.977
13.202
15.4299
17.6602
19.8923
22.1256
24.3591
26.592
28.8225
31.0488
33.269
35.481
37.6827
39.8719
42.0462
44.2029
46.3393
48.4532
50.5424
52.6056
54.6404
56.6449
58.6172
60.5597
62.4781
64.3772
66.2615
68.1374
70.0153
71.9095
73.8393
75.8287
77.9044
80.0988
82.4522
85.0156
87.8609
91.0949
94.8615
99.3698
104.937
111.99
121.058
132.084
145.939
160.551
-93.3653
-90.5023
-87.6794
-84.9046
-82.1687
-79.471
-76.8051
-74.1696
-71.5673
-68.9996
-66.4629
-63.9501
-61.4622
-59.0007
-56.5638
-54.1496
-51.7584
-49.3882
-47.0365
-44.7024
-42.3839
-40.0824
-37.7964
-35.5224
-33.2605
-31.0099
-28.7693
-26.5374
-24.3131
-22.0952
-19.8828
-17.6748
-15.4701
-13.2678
-11.0671
-8.8669
-6.66652
-4.46513
-2.26205
-0.0566598
2.1515
4.36276
6.57736
8.79537
11.0167
13.2413
15.4687
17.6984
19.9299
22.1623
24.3952
26.6273
28.8572
31.083
33.303
35.5152
37.7178
39.9087
42.0857
44.2468
46.3898
48.5129
50.6148
52.6941
54.7495
56.7807
58.7881
60.7745
62.7463
64.71
66.6718
68.6403
70.6277
72.65
74.7277
76.8851
79.148
81.5477
84.1233
86.9235
90.0177
93.509
97.5349
102.286
108.039
115.158
124.095
134.739
147.87
161.293
-93.317
-90.4549
-87.6331
-84.8589
-82.1238
-79.4266
-76.7613
-74.1265
-71.5247
-68.9574
-66.4208
-63.9083
-61.4207
-58.9592
-56.5222
-54.1081
-51.7168
-49.3464
-46.9945
-44.6603
-42.3416
-40.0398
-37.7533
-35.4791
-33.2169
-30.966
-28.725
-26.4928
-24.2681
-22.0499
-19.8371
-17.6287
-15.4238
-13.2213
-11.0203
-8.81999
-6.61949
-4.41804
-2.21497
-0.00967145
2.19831
4.40931
6.62356
8.84112
11.062
13.2859
15.5125
17.7415
19.9722
22.2037
24.4355
26.6667
28.8957
31.1208
33.3405
35.5531
37.7567
39.9496
42.1301
44.2965
46.4472
48.5811
50.6969
52.7941
54.8731
56.9352
58.9818
61.0163
63.0455
65.0779
67.1209
69.1844
71.2818
73.4305
75.6515
77.9675
80.4032
82.9885
85.7597
88.7626
92.0684
95.7775
100.012
104.934
110.785
117.864
126.545
136.679
148.907
161.091
-93.2614
-90.4001
-87.5794
-84.806
-82.0718
-79.375
-76.7103
-74.0764
-71.4754
-68.9084
-66.3718
-63.8596
-61.3722
-58.9109
-56.4741
-54.06
-51.6686
-49.298
-46.9459
-44.6114
-42.2926
-39.9906
-37.7036
-35.4291
-33.1665
-30.9152