/*--------------------------------*- C++ -*----------------------------------*\
| =========                 |                                                 |
| \\      /  F ield         | OpenFOAM: The Open Source CFD Toolbox           |
|  \\    /   O peration     | Version:  2412                                  |
|   \\  /    A nd           | Website:  www.openfoam.com                      |
|    \\/     M anipulation  |                                                 |
\*---------------------------------------------------------------------------*/
FoamFile
{
    version     2.0;
    format      ascii;
    arch        "LSB;label=32;scalar=64";
    class       surfaceScalarField;
    location    "160";
    object      phi;
}
// * * * * * * * * * * * * * * * * * * * * * * * * * * * * * * * * * * * * * //

dimensions      [0 3 -1 0 0 0 0];

oriented        oriented;

internalField   nonuniform List<scalar> 
14599
(
1.60371e-06
2.08857e-08
1.58287e-06
2.08704e-08
1.56247e-06
2.04174e-08
1.54232e-06
2.01761e-08
1.52251e-06
1.98289e-08
1.50308e-06
1.94573e-08
1.48408e-06
1.90077e-08
1.46555e-06
1.85481e-08
1.44761e-06
1.79551e-08
1.43027e-06
1.73516e-08
1.41368e-06
1.66045e-08
1.3978e-06
1.60489e-08
1.38255e-06
1.51135e-08
1.36819e-06
1.44867e-08
1.35467e-06
1.34206e-08
1.342e-06
1.27739e-08
1.33009e-06
1.18359e-08
1.31907e-06
1.11025e-08
1.30891e-06
1.01114e-08
1.29973e-06
9.18855e-09
1.29134e-06
8.40085e-09
1.28388e-06
7.46623e-09
1.27733e-06
6.56129e-09
1.27161e-06
5.73377e-09
1.26682e-06
4.7972e-09
1.26288e-06
3.94876e-09
1.25969e-06
3.21926e-09
1.25729e-06
2.38647e-09
1.25563e-06
1.68209e-09
1.25467e-06
9.57426e-10
1.25432e-06
3.55166e-10
1.25453e-06
-2.01539e-10
1.2553e-06
-7.68016e-10
1.25647e-06
-1.16905e-09
1.25808e-06
-1.6028e-09
1.25996e-06
-1.86763e-09
1.26213e-06
-2.17638e-09
1.26448e-06
-2.3372e-09
1.26702e-06
-2.54397e-09
1.2696e-06
-2.57526e-09
1.27229e-06
-2.68456e-09
1.27511e-06
-2.81717e-09
1.27791e-06
-2.79367e-09
1.2805e-06
-2.59772e-09
1.28279e-06
-2.28236e-09
1.28516e-06
-2.36755e-09
1.28815e-06
-2.99171e-09
1.29207e-06
-3.92044e-09
1.29587e-06
-3.7957e-09
1.29799e-06
-2.12369e-09
1.29766e-06
3.30292e-10
1.2967e-06
9.55616e-10
1.29997e-06
-3.25898e-09
1.31095e-06
-1.09827e-08
1.33131e-06
-2.03594e-08
1.35558e-06
-2.42755e-08
1.37208e-06
-1.64972e-08
1.37647e-06
-4.38869e-09
1.36541e-06
1.10586e-08
1.34291e-06
2.25021e-08
1.33796e-06
4.95058e-09
1.37808e-06
-4.0125e-08
1.47589e-06
-9.78058e-08
1.66116e-06
-1.85274e-07
2.00389e-06
-3.4273e-07
2.26225e-06
-2.58362e-07
1.7972e-06
4.65048e-07
6.05771e-07
1.19143e-06
-4.20832e-07
1.0266e-06
-3.86785e-07
-3.4047e-08
-2.04713e-08
-3.66314e-07
1.02065e-06
5.69292e-06
9.53822e-08
5.61919e-06
9.46384e-08
5.54653e-06
9.31152e-08
5.47503e-06
9.17266e-08
5.40479e-06
9.01081e-08
5.33561e-06
8.86764e-08
5.26789e-06
8.67436e-08
5.202e-06
8.44757e-08
5.13805e-06
8.1931e-08
5.07625e-06
7.91703e-08
5.01665e-06
7.6222e-08
4.95944e-06
7.35025e-08
4.90529e-06
6.90767e-08
4.85374e-06
6.622e-08
4.80513e-06
6.19046e-08
4.75943e-06
5.86191e-08
4.71652e-06
5.46565e-08
4.67686e-06
5.08786e-08
4.64017e-06
4.67351e-08
4.60676e-06
4.26146e-08
4.57625e-06
3.89238e-08
4.549e-06
3.4734e-08
4.52488e-06
3.07012e-08
4.50392e-06
2.67154e-08
4.48601e-06
2.27314e-08
4.47097e-06
1.89934e-08
4.45889e-06
1.53466e-08
4.44967e-06
1.15965e-08
4.44291e-06
8.46548e-09
4.43881e-06
5.06414e-09
4.43688e-06
2.28906e-09
4.43702e-06
-3.35245e-10
4.43896e-06
-2.696e-09
4.4427e-06
-4.90021e-09
4.44764e-06
-6.54268e-09
4.45403e-06
-8.23132e-09
4.46132e-06
-9.47569e-09
4.46944e-06
-1.04358e-08
4.47795e-06
-1.10564e-08
4.48708e-06
-1.16973e-08
4.49646e-06
-1.20601e-08
4.50624e-06
-1.25917e-08
4.51621e-06
-1.27634e-08
4.52542e-06
-1.18061e-08
4.53384e-06
-1.07031e-08
4.54223e-06
-1.07454e-08
4.55303e-06
-1.37945e-08
4.56683e-06
-1.77231e-08
4.58042e-06
-1.73844e-08
4.58849e-06
-1.01856e-08
4.58816e-06
6.55493e-10
4.58566e-06
3.4544e-09
4.59706e-06
-1.46507e-08
4.63446e-06
-4.83881e-08
4.7037e-06
-8.95985e-08
4.78646e-06
-1.0703e-07
4.84451e-06
-7.45493e-08
4.86207e-06
-2.19547e-08
4.82723e-06
4.58985e-08
4.75384e-06
9.58952e-08
4.73663e-06
2.21629e-08
4.86772e-06
-1.71219e-07
5.19255e-06
-4.22639e-07
5.80896e-06
-8.01683e-07
6.93842e-06
-1.47219e-06
7.7905e-06
-1.11044e-06
6.33254e-06
1.92301e-06
2.36063e-06
5.16335e-06
-1.24407e-06
4.6313e-06
-1.27712e-06
-1.00413e-09
-2.776e-07
-1.36583e-06
4.47297e-06
1.14172e-05
2.44608e-07
1.12686e-05
2.4331e-07
1.11228e-05
2.39005e-07
1.0979e-05
2.35558e-07
1.08371e-05
2.31985e-07
1.06983e-05
2.2754e-07
1.05621e-05
2.22997e-07
1.04288e-05
2.17782e-07
1.02996e-05
2.1119e-07
1.01744e-05
2.04409e-07
1.00537e-05
1.9689e-07
9.93804e-06
1.89439e-07
9.82724e-06
1.79667e-07
9.72224e-06
1.71418e-07
9.62293e-06
1.61082e-07
9.52932e-06
1.52376e-07
9.44174e-06
1.42135e-07
9.35988e-06
1.32862e-07
9.28459e-06
1.21953e-07
9.21472e-06
1.12507e-07
9.15177e-06
1.0188e-07
9.09481e-06
9.17179e-08
9.04418e-06
8.1355e-08
8.99968e-06
7.12345e-08
8.96132e-06
6.11135e-08
8.92895e-06
5.13722e-08
8.90254e-06
4.18044e-08
8.8814e-06
3.27229e-08
8.86577e-06
2.41231e-08
8.85497e-06
1.58639e-08
8.84899e-06
8.27966e-09
8.84716e-06
1.49934e-09
8.84934e-06
-4.86873e-09
8.85481e-06
-1.03565e-08
8.86343e-06
-1.51618e-08
8.87452e-06
-1.92983e-08
8.88785e-06
-2.28127e-08
8.90288e-06
-2.54372e-08
8.91937e-06
-2.75505e-08
8.93663e-06
-2.89593e-08
8.95477e-06
-3.01857e-08
8.97414e-06
-3.19627e-08
8.99369e-06
-3.23158e-08
9.01219e-06
-3.03021e-08
9.02889e-06
-2.73967e-08
9.04629e-06
-2.81348e-08
9.0677e-06
-3.52148e-08
9.09523e-06
-4.52539e-08
9.12224e-06
-4.43904e-08
9.13956e-06
-2.75028e-08
9.14058e-06
-3.61435e-10
9.13756e-06
6.46981e-09
9.16018e-06
-3.72632e-08
9.23232e-06
-1.20536e-07
9.36558e-06
-2.2285e-07
9.52535e-06
-2.66802e-07
9.64086e-06
-1.90061e-07
9.67951e-06
-6.06088e-08
9.61821e-06
1.07206e-07
9.48328e-06
2.30825e-07
9.44843e-06
5.70054e-08
9.6919e-06
-4.14684e-07
1.03017e-05
-1.03243e-06
1.14595e-05
-1.95952e-06
1.35646e-05
-3.57724e-06
1.5186e-05
-2.73186e-06
1.25861e-05
4.52295e-06
5.07667e-06
1.26727e-05
-2.04768e-06
1.17557e-05
-2.4057e-06
3.57013e-07
-8.80961e-07
-2.89057e-06
1.09956e-05
1.92882e-05
4.97743e-07
1.90366e-05
4.9499e-07
1.87891e-05
4.86544e-07
1.85454e-05
4.79244e-07
1.8305e-05
4.72478e-07
1.80682e-05
4.64342e-07
1.78365e-05
4.5472e-07
1.76099e-05
4.44497e-07
1.73889e-05
4.32164e-07
1.71742e-05
4.19149e-07
1.6967e-05
4.04093e-07
1.67681e-05
3.88648e-07
1.65775e-05
3.70028e-07
1.6396e-05
3.53123e-07
1.62236e-05
3.33331e-07
1.6061e-05
3.15212e-07
1.59083e-05
2.94729e-07
1.57653e-05
2.75908e-07
1.56325e-05
2.54771e-07
1.55102e-05
2.34805e-07
1.53979e-05
2.14166e-07
1.52961e-05
1.93543e-07
1.52047e-05
1.72803e-07
1.51241e-05
1.51852e-07
1.50534e-05
1.31829e-07
1.49933e-05
1.11544e-07
1.49425e-05
9.25721e-08
1.49015e-05
7.37237e-08
1.48696e-05
5.6042e-08
1.48462e-05
3.93188e-08
1.48308e-05
2.36917e-08
1.48228e-05
9.51184e-09
1.48217e-05
-3.74966e-09
1.48265e-05
-1.51635e-08
1.48371e-05
-2.57825e-08
1.48519e-05
-3.408e-08
1.48712e-05
-4.21179e-08
1.48937e-05
-4.79255e-08
1.49189e-05
-5.2718e-08
1.49462e-05
-5.62623e-08
1.49753e-05
-5.92487e-08
1.50064e-05
-6.30684e-08
1.50384e-05
-6.42701e-08
1.50693e-05
-6.12376e-08
1.50975e-05
-5.55943e-08
1.51265e-05
-5.71405e-08
1.51631e-05
-7.18109e-08
1.5209e-05
-9.11967e-08
1.52555e-05
-9.08128e-08
1.5286e-05
-5.79929e-08
1.52913e-05
-5.7289e-09
1.52892e-05
8.59625e-09
1.53273e-05
-7.53289e-08
1.54441e-05
-2.37382e-07
1.56587e-05
-4.37419e-07
1.59184e-05
-5.26483e-07
1.6111e-05
-3.82699e-07
1.6183e-05
-1.326e-07
1.60961e-05
1.94145e-07
1.58908e-05
4.36069e-07
1.58344e-05
1.13413e-07
1.62094e-05
-7.8963e-07
1.7164e-05
-1.98712e-06
1.89747e-05
-3.77019e-06
2.2237e-05
-6.83955e-06
2.48367e-05
-5.33156e-06
2.10075e-05
8.35213e-06
9.15318e-06
2.45271e-05
-2.64577e-06
2.35546e-05
-3.79701e-06
1.50825e-06
-2.00373e-06
-4.68385e-06
2.11897e-05
2.99588e-05
8.92753e-07
2.95677e-05
8.86143e-07
2.91815e-05
8.7287e-07
2.88011e-05
8.59647e-07
2.84255e-05
8.48145e-07
2.80555e-05
8.34342e-07
2.76916e-05
8.18655e-07
2.73354e-05
8.00762e-07
2.6987e-05
7.80618e-07
2.66491e-05
7.57077e-07
2.63212e-05
7.31997e-07
2.60048e-05
7.05338e-07
2.57013e-05
6.73278e-07
2.54109e-05
6.43694e-07
2.5135e-05
6.09128e-07
2.48736e-05
5.7678e-07
2.46265e-05
5.41761e-07
2.43952e-05
5.07273e-07
2.41788e-05
4.71142e-07
2.39787e-05
4.34945e-07
2.37939e-05
3.9894e-07
2.3625e-05
3.62465e-07
2.34723e-05
3.25562e-07
2.33354e-05
2.88783e-07
2.32144e-05
2.52834e-07
2.31094e-05
2.16579e-07
2.30192e-05
1.8283e-07
2.29444e-05
1.48536e-07
2.28831e-05
1.17375e-07
2.28358e-05
8.66053e-08
2.28013e-05
5.82158e-08
2.27791e-05
3.17158e-08
2.27678e-05
7.54016e-09
2.27663e-05
-1.36427e-08
2.27736e-05
-3.30647e-08
2.27896e-05
-5.00669e-08
2.28124e-05
-6.49951e-08
2.28416e-05
-7.70272e-08
2.28752e-05
-8.63773e-08
2.29126e-05
-9.36459e-08
2.29541e-05
-1.00742e-07
2.29991e-05
-1.08096e-07
2.30467e-05
-1.11846e-07
2.30927e-05
-1.07166e-07
2.31361e-05
-9.90371e-08
2.31817e-05
-1.02716e-07
2.32378e-05
-1.27926e-07
2.33087e-05
-1.62102e-07
2.33809e-05
-1.63047e-07
2.34312e-05
-1.08216e-07
2.34453e-05
-1.98185e-08
2.34476e-05
6.23413e-09
2.3507e-05
-1.34744e-07
2.368e-05
-4.10382e-07
2.39953e-05
-7.52676e-07
2.43808e-05
-9.11962e-07
2.46759e-05
-6.77786e-07
2.47988e-05
-2.55569e-07
2.46936e-05
2.99416e-07
2.44122e-05
7.1742e-07
2.43302e-05
1.95381e-07
2.48563e-05
-1.31567e-06
2.62108e-05
-3.3416e-06
2.87799e-05
-6.33936e-06
3.33602e-05
-1.14198e-05
3.71573e-05
-9.12873e-06
3.21064e-05
1.34031e-05
1.51195e-05
4.15139e-05
-2.74688e-06
4.1421e-05
-5.45654e-06
4.21791e-06
-3.87003e-06
-6.27037e-06
3.56284e-05
4.42469e-05
1.47702e-06
4.36662e-05
1.46695e-06
4.30951e-05
1.44405e-06
4.25305e-05
1.42433e-06
4.19718e-05
1.40685e-06
4.14211e-05
1.38509e-06
4.08795e-05
1.36033e-06
4.03468e-05
1.33345e-06
3.98258e-05
1.30168e-06
3.93164e-05
1.26648e-06
3.88228e-05
1.22564e-06
3.8344e-05
1.1844e-06
3.78827e-05
1.13437e-06
3.74404e-05
1.0862e-06
3.70183e-05
1.03111e-06
3.66168e-05
9.78492e-07
3.62371e-05
9.21397e-07
3.58774e-05
8.67055e-07
3.55411e-05
8.07379e-07
3.52266e-05
7.4946e-07
3.49354e-05
6.9015e-07
3.46678e-05
6.3008e-07
3.44228e-05
5.70623e-07
3.42009e-05
5.10737e-07
3.40022e-05
4.51545e-07
3.38263e-05
3.92488e-07
3.36736e-05
3.356e-07
3.35424e-05
2.79699e-07
3.34329e-05
2.26994e-07
3.33435e-05
1.75979e-07
3.32738e-05
1.27903e-07
3.32224e-05
8.31404e-08
3.31877e-05
4.22836e-08
3.31699e-05
4.17391e-09
3.31656e-05
-2.87633e-08
3.3175e-05
-5.95045e-08
3.31953e-05
-8.53055e-08
3.32259e-05
-1.07538e-07
3.32652e-05
-1.25721e-07
3.33119e-05
-1.40265e-07
3.33654e-05
-1.5428e-07
3.34258e-05
-1.68538e-07
3.349e-05
-1.7598e-07
3.35551e-05
-1.72244e-07
3.36178e-05
-1.61725e-07
3.36834e-05
-1.68304e-07
3.37651e-05
-2.09714e-07
3.3868e-05
-2.64977e-07
3.39743e-05
-2.69301e-07
3.40528e-05
-1.86746e-07
3.40819e-05
-4.8885e-08
3.4095e-05
-6.88225e-09
3.41834e-05
-2.23176e-07
3.44261e-05
-6.53099e-07
3.48643e-05
-1.19085e-06
3.5403e-05
-1.45068e-06
3.58306e-05
-1.10538e-06
3.6029e-05
-4.53967e-07
3.59205e-05
4.07945e-07
3.55661e-05
1.07185e-06
3.5459e-05
3.02435e-07
3.615e-05
-2.00662e-06
3.79534e-05
-5.14508e-06
4.1368e-05
-9.7539e-06
4.73833e-05
-1.74351e-05
5.25871e-05
-1.43325e-05
4.64482e-05
1.9542e-05
2.3644e-05
6.43181e-05
-1.91535e-06
6.69804e-05
-7.37686e-06
9.67942e-06
-6.74269e-06
-6.90454e-06
5.47491e-05
6.31334e-05
2.31094e-06
6.23059e-05
2.29452e-06
6.14893e-05
2.26069e-06
6.06815e-05
2.23227e-06
5.98829e-05
2.20547e-06
5.90937e-05
2.17439e-06
5.83137e-05
2.14028e-06
5.75464e-05
2.10083e-06
5.67927e-05
2.05545e-06
5.60551e-05
2.0041e-06
5.53347e-05
1.94607e-06
5.46361e-05
1.88319e-06
5.3959e-05
1.81128e-06
5.3308e-05
1.73746e-06
5.26843e-05
1.65468e-06
5.20872e-05
1.57568e-06
5.15196e-05
1.48898e-06
5.09827e-05
1.40403e-06
5.04753e-05
1.3148e-06
4.99993e-05
1.22546e-06
4.95544e-05
1.13503e-06
4.91418e-05
1.04269e-06
4.87616e-05
9.50879e-07
4.8414e-05
8.58341e-07
4.80993e-05
7.66259e-07
4.78161e-05
6.75753e-07
4.75651e-05
5.86654e-07
4.73451e-05
4.99734e-07
4.71563e-05
4.15798e-07
4.69971e-05
3.35198e-07
4.68663e-05
2.5873e-07
4.67623e-05
1.87129e-07
4.66848e-05
1.19803e-07
4.66304e-05
5.85927e-08
4.65989e-05
2.73257e-09
4.6587e-05
-4.75723e-08
4.65945e-05
-9.28203e-08
4.66182e-05
-1.31199e-07
4.66558e-05
-1.63318e-07
4.67059e-05
-1.90409e-07
4.67675e-05
-2.15852e-07
4.68413e-05
-2.4232e-07
4.69241e-05
-2.58786e-07
4.70095e-05
-2.57627e-07
4.70933e-05
-2.4555e-07
4.71839e-05
-2.58889e-07
4.72973e-05
-3.23114e-07
4.74398e-05
-4.07507e-07
4.75899e-05
-4.19394e-07
4.77058e-05
-3.0265e-07
4.77608e-05
-1.03867e-07
4.77931e-05
-3.9196e-08
4.79208e-05
-3.50818e-07
4.82468e-05
-9.79166e-07
4.88286e-05
-1.77257e-06
4.95528e-05
-2.17497e-06
5.01466e-05
-1.69916e-06
5.04524e-05
-7.59728e-07
5.03641e-05
4.96245e-07
4.99537e-05
1.48219e-06
4.98268e-05
4.29373e-07
5.06921e-05
-2.87189e-06
5.29777e-05
-7.43069e-06
5.73005e-05
-1.40768e-05
6.48055e-05
-2.49401e-05
7.1583e-05
-2.111e-05
6.46206e-05
2.65044e-05
3.55355e-05
9.34032e-05
4.80078e-07
0.000102036
-9.48883e-06
1.96483e-05
-1.08721e-05
-5.5213e-06
7.86886e-05
8.77144e-05
3.46344e-06
8.65716e-05
3.43743e-06
8.5444e-05
3.3883e-06
8.43273e-05
3.34911e-06
8.32206e-05
3.31223e-06
8.21229e-05
3.27212e-06
8.10384e-05
3.2248e-06
7.99672e-05
3.17215e-06
7.8912e-05
3.11063e-06
7.78754e-05
3.0408e-06
7.68595e-05
2.96202e-06
7.58691e-05
2.87382e-06
7.49068e-05
2.77339e-06
7.39761e-05
2.6684e-06
7.30791e-05
2.55153e-06
7.22209e-05
2.43405e-06
7.13989e-05
2.31091e-06
7.06157e-05
2.18734e-06
6.98734e-05
2.0571e-06
6.91725e-05
1.92639e-06
6.85141e-05
1.79342e-06
6.78972e-05
1.65961e-06
6.73246e-05
1.52358e-06
6.6796e-05
1.38694e-06
6.63116e-05
1.2507e-06
6.5871e-05
1.11639e-06
6.54733e-05
9.84381e-07
6.51197e-05
8.53405e-07
6.48089e-05
7.26641e-07
6.45392e-05
6.04919e-07
6.43092e-05
4.8869e-07
6.41186e-05
3.7776e-07
6.39651e-05
2.73307e-07
6.38466e-05
1.77137e-07
6.37606e-05
8.87351e-08
6.37054e-05
7.6499e-09
6.36785e-05
-6.59583e-08
6.36788e-05
-1.3141e-07
6.37003e-05
-1.84865e-07
6.37429e-05
-2.32986e-07
6.38055e-05
-2.78429e-07
6.38862e-05
-3.23041e-07
6.39839e-05
-3.56494e-07
6.40875e-05
-3.61161e-07
6.41942e-05
-3.52308e-07
6.43127e-05
-3.77337e-07
6.44616e-05
-4.72072e-07
6.46525e-05
-5.98393e-07
6.48563e-05
-6.23134e-07
6.5022e-05
-4.68423e-07
6.51139e-05
-1.95757e-07
6.5177e-05
-1.02264e-07
6.53543e-05
-5.28115e-07
6.57809e-05
-1.40573e-06
6.65278e-05
-2.51948e-06
6.74646e-05
-3.11179e-06
6.82615e-05
-2.49609e-06
6.87137e-05
-1.21187e-06
6.86837e-05
5.26164e-07
6.82434e-05
1.92257e-06
6.81129e-05
5.59797e-07
6.91627e-05
-3.92165e-06
7.1946e-05
-1.0214e-05
7.71982e-05
-1.9329e-05
8.61736e-05
-3.39155e-05
9.46135e-05
-2.95498e-05
8.72046e-05
3.39133e-05
5.16884e-05
0.000128919
5.29105e-06
0.000148433
-1.1589e-05
3.65284e-05
-1.64032e-05
-7.07128e-07
0.000107101
0.00011905
4.99798e-06
0.000117526
4.96181e-06
0.00011602
4.89415e-06
0.000114526
4.84276e-06
0.000113043
4.79533e-06
0.000111572
4.74334e-06
0.000110112
4.6846e-06
0.000108666
4.61829e-06
0.000107237
4.54011e-06
0.000105827
4.45043e-06
0.000104442
4.3471e-06
0.000103084
4.2318e-06
0.000101759
4.0986e-06
0.000100471
3.95654e-06
9.92262e-05
3.79618e-06
9.80245e-05
3.63593e-06
9.68718e-05
3.4635e-06
9.57685e-05
3.2908e-06
9.47154e-05
3.1101e-06
9.37163e-05
2.9255e-06
9.27698e-05
2.74e-06
9.18798e-05
2.54966e-06
9.10452e-05
2.35816e-06
9.02674e-05
2.16474e-06
8.95467e-05
1.97143e-06
8.88849e-05
1.77829e-06
8.828e-05
1.58932e-06
8.77336e-05
1.39977e-06
8.72423e-05
1.21799e-06
8.68093e-05
1.03792e-06
8.64304e-05
8.67596e-07
8.61048e-05
7.03388e-07
8.58312e-05
5.46917e-07
8.56065e-05
4.01839e-07
8.54289e-05
2.6637e-07
8.52968e-05
1.3974e-07
8.52064e-05
2.44852e-08
8.51545e-05
-7.95282e-08
8.51384e-05
-1.68792e-07
8.51529e-05
-2.47396e-07
8.51991e-05
-3.24698e-07
8.52759e-05
-3.99821e-07
8.53772e-05
-4.57769e-07
8.54949e-05
-4.78845e-07
8.56221e-05
-4.79464e-07
8.57673e-05
-5.22624e-07
8.59556e-05
-6.60322e-07
8.61975e-05
-8.40335e-07
8.64642e-05
-8.89757e-07
8.66917e-05
-6.95968e-07
8.68334e-05
-3.37463e-07
8.69408e-05
-2.09609e-07
8.71833e-05
-7.70604e-07
8.77209e-05
-1.94333e-06
8.86525e-05
-3.45116e-06
8.98271e-05
-4.28631e-06
9.08645e-05
-3.53353e-06
9.15051e-05
-1.85247e-06
9.15795e-05
4.51789e-07
9.11551e-05
2.34695e-06
9.10514e-05
6.63442e-07
9.22914e-05
-5.16158e-06
9.55676e-05
-1.34902e-05
0.000101729
-2.549e-05
0.000112085
-4.42716e-05
0.000122165
-3.96305e-05
0.00011475
4.13282e-05
7.3083e-05
0.000170587
1.3588e-05
0.000207928
-1.33235e-05
6.34399e-05
-2.32749e-05
9.24426e-06
0.000139259
0.000157881
6.96319e-06
0.000155933
6.91068e-06
0.000154002
6.82498e-06
0.000152083
6.76176e-06
0.000150174
6.70478e-06
0.000148273
6.64379e-06
0.000146385
6.57302e-06
0.00014451
6.49354e-06
0.00014265
6.40003e-06
0.000140807
6.29271e-06
0.000138989
6.16576e-06
0.000137198
6.02317e-06
0.000135442
5.85437e-06
0.000133729
5.66928e-06
0.000132061
5.46443e-06
0.000130447
5.24986e-06
0.000128889
5.02185e-06
0.000127389
4.79025e-06
0.000125953
4.54613e-06
0.000124579
4.30004e-06
0.000123273
4.0463e-06
0.000122032
3.78993e-06
0.000120863
3.52755e-06
0.000119763
3.26448e-06
0.000118737
2.99819e-06
0.000117781
2.73434e-06
0.0001169
2.47006e-06
0.000116091
2.20862e-06
0.000115358
1.95131e-06
0.000114695
1.70052e-06
0.000114107
1.45595e-06
0.000113588
1.22176e-06
0.000113139
9.96527e-07
0.000112758
7.83037e-07
0.000112439
5.84632e-07
0.000112184
3.95544e-07
0.000111988
2.20173e-07
0.000111848
6.05771e-08
0.000111759
-7.96398e-08
0.000111718
-2.06292e-07
0.000111724
-3.30946e-07
0.000111774
-4.49736e-07
0.000111864
-5.47973e-07
0.000111983
-5.97457e-07
0.00011212
-6.16548e-07
0.000112287
-6.90011e-07
0.000112511
-8.84411e-07
0.000112808
-1.13757e-06
0.000113142
-1.22336e-06
0.000113438
-9.92278e-07
0.000113644
-5.4353e-07
0.000113811
-3.75817e-07
0.000114131
-1.09141e-06
0.000114797
-2.60844e-06
0.000115921
-4.57601e-06
0.000117354
-5.71934e-06
0.00011866
-4.83893e-06
0.000119533
-2.72526e-06
0.000119765
2.19404e-07
0.000119414
2.69843e-06
0.000119379
6.98366e-07
0.000120821
-6.60401e-06
0.000124568
-1.72369e-05
0.000131572
-3.24944e-05
0.000143159
-5.5858e-05
0.000154752
-5.12236e-05
0.000147757
4.83226e-05
0.000100707
0.000217638
2.66534e-05
0.000281981
-1.41031e-05
0.000104196
-3.11606e-05
2.63018e-05
0.000174172
0.00020439
9.36539e-06
0.000202003
9.29741e-06
0.000199633
9.19546e-06
0.000197275
9.12012e-06
0.000194925
9.05449e-06
0.000192581
8.98744e-06
0.000190245
8.90948e-06
0.000187918
8.8208e-06
0.000185599
8.71855e-06
0.0001833
8.59227e-06
0.000181018
8.44738e-06
0.000178763
8.27873e-06
0.00017654
8.07654e-06
0.000174361
7.84875e-06
0.000172231
7.59432e-06
0.000170158
7.32275e-06
0.000168146
7.03449e-06
0.0001662
6.73587e-06
0.000164325
6.42125e-06
0.000162523
6.102e-06
0.000160796
5.77287e-06
0.00015915
5.43671e-06
0.000157582
5.09493e-06
0.000156101
4.74581e-06
0.000154704
4.3957e-06
0.000153393
4.04493e-06
0.000152173
3.69061e-06
0.00015104
3.34115e-06
0.000149997
2.99464e-06
0.000149045
2.65175e-06
0.000148184
2.31697e-06
0.000147413
1.99321e-06
0.00014673
1.67949e-06
0.000146133
1.38042e-06
0.000145621
1.09607e-06
0.000145192
8.24494e-07
0.000144842
5.70266e-07
0.000144567
3.35558e-07
0.000144366
1.21614e-07
0.000144232
-7.20721e-08
0.000144162
-2.60594e-07
0.000144158
-4.46435e-07
0.000144212
-6.01851e-07
0.00014431
-6.95363e-07
0.000144442
-7.4865e-07
0.00014462
-8.67481e-07
0.000144873
-1.13804e-06
0.000145219
-1.48329e-06
0.00014562
-1.62465e-06
0.000145992
-1.36429e-06
0.000146272
-8.23691e-07
0.00014651
-6.13054e-07
0.000146921
-1.50325e-06
0.00014772
-3.40687e-06
0.000149046
-5.90232e-06
0.000150744
-7.41707e-06
0.00015234
-6.43465e-06
0.000153481
-3.86669e-06
0.000153928
-2.27582e-07
0.000153712
2.91474e-06
0.0001538
6.10227e-07
0.000155459
-8.26357e-06
0.00015964
-2.14175e-05
0.000167392
-4.02463e-05
0.000180018
-6.84843e-05
0.000192912
-6.41174e-05
0.000186625
5.46095e-05
0.000135502
0.00026876
4.59185e-05
0.000371565
-1.32453e-05
0.00016336
-3.97114e-05
5.2768e-05
0.000210621
0.000258236
1.21876e-05
0.000255435
1.20979e-05
0.000252653
1.19783e-05
0.000249875
1.1898e-05
0.000247101
1.18283e-05
0.000244332
1.17569e-05
0.000241566
1.16753e-05
0.000238803
1.1584e-05
0.000236048
1.14727e-05
0.000233302
1.13388e-05
0.000230572
1.11771e-05
0.000227862
1.09891e-05
0.000225185
1.07533e-05
0.000222542
1.04918e-05
0.000219954
1.0183e-05
0.000217419
9.85751e-06
0.000214948
9.5054e-06
0.000212547
9.13724e-06
0.000210218
8.75001e-06
0.000207971
8.34932e-06
0.000205803
7.94061e-06
0.000203725
7.51481e-06
0.000201734
7.08616e-06
0.000199836
6.64339e-06
0.000198035
6.1965e-06
0.000196335
5.74572e-06
0.00019473
5.29492e-06
0.000193232
4.83968e-06
0.000191839
4.38724e-06
0.000190552
3.93932e-06
0.000189372
3.49663e-06
0.000188298
3.06697e-06
0.000187333
2.6445e-06
0.000186473
2.24097e-06
0.000185718
1.85101e-06
0.000185066
1.47603e-06
0.000184517
1.12005e-06
0.000184066
7.86193e-07
0.000183707
4.80124e-07
0.000183438
1.97027e-07
0.000183259
-8.16087e-08
0.000183167
-3.53529e-07
0.000183155
-5.90228e-07
0.000183207
-7.47862e-07
0.000183313
-8.5472e-07
0.000183483
-1.03681e-06
0.000183751
-1.40603e-06
0.000184137
-1.86976e-06
0.000184598
-2.0853e-06
0.000185047
-1.81293e-06
0.000185405
-1.18183e-06
0.000185724
-9.32457e-07
0.000186234
-2.01339e-06
0.000187171
-4.34375e-06
0.000188697
-7.42824e-06
0.000190658
-9.37838e-06
0.000192549
-8.3256e-06
0.000193985
-5.30213e-06
0.00019469
-9.33151e-07
0.000194674
2.93089e-06
0.000194943
3.41766e-07
0.000196838
-1.01589e-05
0.000201414
-2.5993e-05
0.000209792
-4.86248e-05
0.000223257
-8.19491e-05
0.000237209
-7.80696e-05
0.00023164
6.01785e-05
0.000178031
0.00032237
7.31179e-05
0.000476478
-9.27805e-06
0.000245756
-4.83351e-05
9.1825e-05
0.000247671
0.000319079
1.53994e-05
0.000315888
1.52883e-05
0.000312714
1.51523e-05
0.000309553
1.50595e-05
0.00030639
1.49907e-05
0.000303227
1.49204e-05
0.000300064
1.48381e-05
0.000296906
1.47419e-05
0.000293749
1.46299e-05
0.0002906
1.44885e-05
0.000287459
1.43175e-05
0.000284338
1.41108e-05
0.00028124
1.38507e-05
0.000278182
1.355e-05
0.000275167
1.3198e-05
0.000272207
1.2818e-05
0.000269309
1.24032e-05
0.00026648
1.19665e-05
0.000263727
1.15024e-05
0.000261052
1.10241e-05
0.000258466
1.0527e-05
0.000255967
1.00138e-05
0.000253565
9.48819e-06
0.000251259
8.94933e-06
0.000249055
8.40019e-06
0.000246957
7.84399e-06
0.000244973
7.27901e-06
0.0002431
6.71302e-06
0.000241341
6.14639e-06
0.000239701
5.57878e-06
0.000238181
5.0167e-06
0.000236786
4.46186e-06
0.000235511
3.92007e-06
0.000234361
3.39028e-06
0.000233333
2.87905e-06
0.000232427
2.38232e-06
0.000231643
1.90422e-06
0.00023098
1.44932e-06
0.000230432
1.02811e-06
0.000229997
6.32046e-07
0.000229672
2.42822e-07
0.000229461
-1.41983e-07
0.000229355
-4.84236e-07
0.000229336
-7.28577e-07
0.000229391
-9.10534e-07
0.000229535
-1.1802e-06
0.000229798
-1.66912e-06
0.000230207
-2.27873e-06
0.000230719
-2.59764e-06
0.000231235
-2.3282e-06
0.000231674
-1.62085e-06
0.000232077
-1.33613e-06
0.000232692
-2.62823e-06
0.000233764
-5.41605e-06
0.000235481
-9.14523e-06
0.000237696
-1.15934e-05
0.000239877
-1.05058e-05
0.000241622
-7.04724e-06
0.000242624
-1.93552e-06
0.000242857
2.69759e-06
0.000243358
-1.59266e-07
0.000245511
-1.23114e-05
0.000250446
-3.09281e-05
0.000259328
-5.7507e-05
0.000273424
-9.6045e-05
0.000288191
-9.28364e-05
0.000283251
6.51179e-05
0.000228816
0.000376805
0.0001103
0.000594994
1.76743e-07
0.000355879
-5.58296e-05
0.000147831
0.000285356
0.000390659
1.86065e-05
0.000387067
1.89911e-05
0.000383498
1.88576e-05
0.000379951
1.86994e-05
0.000376411
1.85992e-05
0.00037287
1.85321e-05
0.000369336
1.84548e-05
0.000365801
1.8373e-05
0.000362267
1.82755e-05
0.000358737
1.81596e-05
0.000355214
1.80121e-05
0.000351702
1.78291e-05
0.000348205
1.76077e-05
0.000344732
1.73237e-05
0.000341295
1.69878e-05
0.0003379
1.65923e-05
0.000334561
1.61575e-05
0.00033128
1.56845e-05
0.000328066
1.51799e-05
0.000324928
1.46406e-05
0.00032187
1.40828e-05
0.000318897
1.34992e-05
0.000316016
1.28954e-05
0.000313231
1.22731e-05
0.000310549
1.16312e-05
0.000307972
1.09771e-05
0.00030551
1.03064e-05
0.000303158
9.63099e-06
0.000300927
8.94351e-06
0.000298822
8.25159e-06
0.000296842
7.55891e-06
0.000294992
6.86638e-06
0.000293276
6.17849e-06
0.000291695
5.50055e-06
0.000290249
4.83661e-06
0.000288942
4.18622e-06
0.000287771
3.55297e-06
0.000286741
2.93432e-06
0.000285849
2.34124e-06
0.000285092
1.78486e-06
0.000284469
1.25538e-06
0.000283982
7.30264e-07
0.000283627
2.12682e-07
0.000283402
-2.59333e-07
0.000283288
-6.14501e-07
0.000283275
-8.97193e-07
0.000283369
-1.27483e-06
0.000283612
-1.91167e-06
0.000284026
-2.69294e-06
0.000284574
-3.14516e-06
0.000285149
-2.90306e-06
0.000285662
-2.13396e-06
0.000286152
-1.82663e-06
0.000286869
-3.34531e-06
0.000288076
-6.62299e-06
0.000289969
-1.10381e-05
0.000292418
-1.40419e-05
0.000294879
-1.29671e-05
0.000296931
-9.09958e-06
0.000298251
-3.25565e-06
0.000298773
2.1755e-06
0.000299551
-9.36515e-07
0.000301981
-1.47417e-05
0.000307242
-3.61888e-05
0.000316519
-6.67845e-05
0.000331063
-0.000110589
0.000346422
-0.000108195
0.000341987
6.9553e-05
0.000288359
0.000430432
0.000159354
0.000724
1.79812e-05
0.000497252
-6.05855e-05
0.000226398
0.00032536
0.000466997
2.24959e-05
0.000463
2.29879e-05
0.000459028
2.28299e-05
0.000455078
2.26487e-05
0.000451145
2.25332e-05
0.00044722
2.24562e-05
0.000443299
2.23761e-05
0.000439385
2.22874e-05
0.000435479
2.21813e-05
0.00043158
2.20589e-05
0.000427689
2.19031e-05
0.000423812
2.17056e-05
0.000419954
2.14658e-05
0.000416123
2.11547e-05
0.000412328
2.07828e-05
0.000408576
2.03442e-05
0.000404877
1.98569e-05
0.00040124
1.93214e-05
0.00039767
1.875e-05
0.000394175
1.8136e-05
0.000390761
1.74959e-05
0.000387435
1.68261e-05
0.000384201
1.61291e-05
0.000381067
1.54065e-05
0.000378038
1.46608e-05
0.000375118
1.38974e-05
0.000372314
1.31103e-05
0.000369629
1.23154e-05
0.00036707
1.15029e-05
0.000364638
1.06841e-05
0.000362341
9.85528e-06
0.000360182
9.02569e-06
0.000358164
8.19617e-06
0.000356291
7.37373e-06
0.000354567
6.56062e-06
0.000352987
5.76616e-06
0.000351561
4.9787e-06
0.000350286
4.21007e-06
0.000349163
3.46384e-06
0.000348194
2.75422e-06
0.000347377
2.07179e-06
0.000346712
1.39579e-06
0.000346203
7.2129e-07
0.000345846
9.74291e-08
0.000345625
-3.93522e-07
0.000345524
-7.95868e-07
0.000345556
-1.30666e-06
0.000345761
-2.11634e-06
0.000346167
-3.09962e-06
0.000346737
-3.71476e-06
0.00034736
-3.52592e-06
0.000347941
-2.71546e-06
0.000348512
-2.39708e-06
0.000349331
-4.16505e-06
0.000350661
-7.9521e-06
0.000352717
-1.30944e-05
0.000355383
-1.67076e-05
0.000358104
-1.56883e-05
0.000360457
-1.14532e-05
0.0003621
-4.89868e-06
0.000362942
1.33425e-06
0.000364029
-2.02407e-06
0.000366757
-1.74697e-05
0.000372324
-4.17559e-05
0.000381916
-7.63761e-05
0.000396742
-0.000125415
0.00041247
-0.000123923
0.000408457
7.35662e-05
0.000356829
0.00048206
0.000220988
0.00085984
4.69695e-05
0.000671271
-6.03064e-05
0.000333674
0.000371297
0.000552617
2.68331e-05
0.000548167
2.74377e-05
0.000543742
2.72554e-05
0.000539347
2.70438e-05
0.000534974
2.69065e-05
0.000530615
2.68145e-05
0.000526272
2.672e-05
0.000521945
2.66137e-05
0.00051763
2.64969e-05
0.000513328
2.63609e-05
0.000509046
2.6185e-05
0.000504781
2.59702e-05
0.000500546
2.57011e-05
0.000496339
2.53617e-05
0.000492169
2.49533e-05
0.000488053
2.44603e-05
0.00048399
2.39197e-05
0.000479992
2.33189e-05
0.000476063
2.2679e-05
0.000472213
2.19868e-05
0.000468445
2.12638e-05
0.000464769
2.0502e-05
0.000461188
1.97103e-05
0.000457712
1.88827e-05
0.000454344
1.80285e-05
0.000451093
1.71487e-05
0.000447959
1.62439e-05
0.000444955
1.53196e-05
0.00044208
1.4378e-05
0.000439343
1.34212e-05
0.000436746
1.24522e-05
0.000434292
1.14792e-05
0.00043199
1.04981e-05
0.000429841
9.5231e-06
0.000427845
8.55658e-06
0.000426011
7.6006e-06
0.000424333
6.65626e-06
0.000422823
5.72054e-06
0.000421478
4.80867e-06
0.000420299
3.93289e-06
0.000419284
3.08721e-06
0.000418441
2.23834e-06
0.000417772
1.39005e-06
0.000417277
5.92524e-07
0.000416937
-5.348e-08
0.000416741
-5.99202e-07
0.000416696
-1.26222e-06
0.000416851
-2.2711e-06
0.000417238
-3.48632e-06
0.000417812
-4.28897e-06
0.000418469
-4.18278e-06
0.000419114
-3.36044e-06
0.00041976
-3.04293e-06
0.000420675
-5.08012e-06
0.000422123
-9.40015e-06
0.00042433
-1.53021e-05
0.000427196
-1.95729e-05
0.000430158
-1.8651e-05
0.000432799
-1.40936e-05
0.000434768
-6.86819e-06
0.000435937
1.65738e-07
0.000437357
-3.44455e-06
0.000440402
-2.05141e-05
0.000446269
-4.76233e-05
0.000456118
-8.62254e-05
0.000471089
-0.000140386
0.000486983
-0.000139817
0.000483312
7.7237e-05
0.000434499
0.000530874
0.000295797
0.000998542
8.9778e-05
0.00087729
-5.25928e-05
0.000476045
0.00042856
0.000649183
3.17018e-05
0.000644205
3.24149e-05
0.000639248
3.2213e-05
0.00063433
3.19612e-05
0.000629446
3.17912e-05
0.000624589
3.1671e-05
0.000619756
3.15528e-05
0.000614948
3.14221e-05
0.000610165
3.12805e-05
0.000605408
3.11175e-05
0.000600675
3.0918e-05
0.000595975
3.067e-05
0.000591304
3.03725e-05
0.000586672
2.99933e-05
0.000582089
2.95362e-05
0.00057756
2.89892e-05
0.000573095
2.83851e-05
0.000568696
2.77174e-05
0.000564376
2.69997e-05
0.000560135
2.62272e-05
0.000555987
2.5412e-05
0.000551934
2.45548e-05
0.000547984
2.36604e-05
0.000544143
2.27237e-05
0.000540419
2.17529e-05
0.000536819
2.07485e-05
0.000533349
1.97144e-05
0.000530009
1.86591e-05
0.000526811
1.75763e-05
0.000523757
1.64757e-05
0.00052085
1.53587e-05
0.000518102
1.42269e-05
0.00051551
1.3091e-05
0.000513082
1.19508e-05
0.000510818
1.08207e-05
0.000508724
9.694e-06
0.000506803
8.57733e-06
0.000505055
7.46887e-06
0.000503484
6.37954e-06
0.000502092
5.3245e-06
0.000500883
4.29675e-06
0.000499854
3.2671e-06
0.000499021
2.22299e-06
0.000498377
1.23676e-06
0.000497911
4.12648e-07
0.000497605
-2.93088e-07
0.000497477
-1.1347e-06
0.00049757
-2.36372e-06
0.000497919
-3.83498e-06
0.00049849
-4.8609e-06
0.000499172
-4.8647e-06
0.000499863
-4.05117e-06
0.00050058
-3.75967e-06
0.000501587
-6.08735e-06
0.000503146
-1.09592e-05
0.000505495
-1.76511e-05
0.000508546
-2.26233e-05