/*--------------------------------*- C++ -*----------------------------------*\
| =========                 |                                                 |
| \\      /  F ield         | OpenFOAM: The Open Source CFD Toolbox           |
|  \\    /   O peration     | Version:  2412                                  |
|   \\  /    A nd           | Website:  www.openfoam.com                      |
|    \\/     M anipulation  |                                                 |
\*---------------------------------------------------------------------------*/
FoamFile
{
    version     2.0;
    format      ascii;
    arch        "LSB;label=32;scalar=64";
    class       volVectorField;
    location    "160";
    object      U;
}
// * * * * * * * * * * * * * * * * * * * * * * * * * * * * * * * * * * * * * //

dimensions      [0 1 -1 0 0 0 0];

internalField   nonuniform List<vector> 
7387
(
(0.281182 -0.0808163 1.10922e-18)
(0.277432 -0.0801069 1.86147e-25)
(0.273747 -0.0793907 -1.01134e-18)
(0.270129 -0.078682 0)
(0.266565 -0.0779706 -9.10951e-19)
(0.263065 -0.0772612 -4.27333e-25)
(0.25964 -0.0765588 0)
(0.256297 -0.075868 0)
(0.253049 -0.0751895 -1.39608e-18)
(0.249907 -0.0745298 -6.41463e-19)
(0.246884 -0.0738899 2.59849e-25)
(0.243989 -0.0732777 -2.67724e-25)
(0.241217 -0.0726966 -2.30527e-19)
(0.238582 -0.0721372 0)
(0.236099 -0.0716156 1.64976e-19)
(0.233763 -0.0711281 -1.3028e-19)
(0.231572 -0.0706756 0)
(0.229529 -0.0702586 5.64626e-20)
(0.227638 -0.0698788 3.90043e-26)
(0.225907 -0.0695373 -3.42546e-27)
(0.224331 -0.0692383 0)
(0.222907 -0.0689764 0)
(0.221645 -0.0687567 0)
(0.220535 -0.0685784 -1.05378e-19)
(0.21958 -0.0684388 1.31909e-19)
(0.21878 -0.0683414 1.59953e-19)
(0.218119 -0.0682833 -1.89637e-19)
(0.217597 -0.0682606 4.24653e-26)
(0.217208 -0.0682737 -2.54538e-19)
(0.216945 -0.0683211 5.7509e-25)
(0.216797 -0.068399 -1.63989e-19)
(0.216753 -0.0685043 1.84196e-19)
(0.216807 -0.0686343 4.11586e-19)
(0.216944 -0.0687881 -8.9598e-25)
(0.217156 -0.0689579 9.44938e-25)
(0.21743 -0.0691453 -5.60532e-19)
(0.217755 -0.0693426 -3.08834e-19)
(0.218123 -0.0695501 0)
(0.218523 -0.0697627 1.95866e-26)
(0.218942 -0.0699792 -1.58251e-24)
(0.219373 -0.0701932 1.68015e-24)
(0.219828 -0.0704095 0)
(0.2203 -0.0706284 0)
(0.220756 -0.0708423 1.45505e-19)
(0.221155 -0.0710398 -2.44722e-24)
(0.221515 -0.071216 1.72841e-19)
(0.221936 -0.0713944 1.88194e-19)
(0.222529 -0.071611 -3.1519e-24)
(0.223253 -0.07188 -1.11292e-19)
(0.223804 -0.0721363 -1.20896e-19)
(0.223952 -0.0723006 0)
(0.223633 -0.0723125 4.3762e-24)
(0.223611 -0.0723017 -4.68196e-24)
(0.224751 -0.0725414 8.36056e-20)
(0.227461 -0.0731853 -5.81069e-27)
(0.23184 -0.0744213 9.74289e-20)
(0.235764 -0.0758553 1.04726e-19)
(0.237443 -0.0768969 0)
(0.236987 -0.0775151 0)
(0.233178 -0.0771648 -6.46739e-20)
(0.229096 -0.0761286 8.50232e-24)
(0.231412 -0.0763461 7.4183e-20)
(0.243189 -0.0788871 0)
(0.265888 -0.0840984 4.17113e-20)
(0.308672 -0.094507 0)
(0.384412 -0.119578 -1.14117e-23)
(0.384697 -0.145469 4.50187e-20)
(0.217056 -0.112144 3.49855e-25)
(-0.00923099 0.00725104 -5.27512e-20)
(-0.0934217 0.0998271 0)
(-0.00169707 0.000763239 -1.66279e-23)
(-0.00459501 0.0104518 3.08401e-23)
(0.881543 -0.253371 -1.84694e-18)
(0.869784 -0.251135 3.53173e-18)
(0.85823 -0.248898 1.68394e-18)
(0.846878 -0.246669 -7.9228e-25)
(0.8357 -0.244436 0)
(0.824714 -0.242213 -6.53004e-25)
(0.81395 -0.240004 5.88792e-26)
(0.803443 -0.237825 5.92611e-26)
(0.793225 -0.235689 2.32436e-18)
(0.783332 -0.233607 1.06796e-18)
(0.773796 -0.231589 0)
(0.764642 -0.229649 0)
(0.755887 -0.227793 0)
(0.747561 -0.226028 0)
(0.739692 -0.224366 0)
(0.732279 -0.22281 1.74993e-25)
(0.725318 -0.221364 -2.98431e-25)
(0.718819 -0.220025 -9.38593e-20)
(0.712797 -0.218807 0)
(0.707268 -0.217704 7.13796e-26)
(0.702219 -0.216733 6.61361e-26)
(0.697649 -0.215877 -1.4589e-25)
(0.693577 -0.215153 -2.88714e-25)
(0.689986 -0.214557 -1.75471e-19)
(0.686877 -0.214085 -2.19618e-19)
(0.684243 -0.213742 2.66269e-19)
(0.682054 -0.213519 3.15646e-19)
(0.680307 -0.213412 6.66762e-25)
(0.678977 -0.213419 4.23581e-19)
(0.678044 -0.213531 -2.41347e-19)
(0.67748 -0.213744 2.72833e-19)
(0.677247 -0.214043 -3.06422e-19)
(0.677323 -0.214422 -3.42312e-19)
(0.677674 -0.214875 0)
(0.678262 -0.215386 0)
(0.679055 -0.215948 9.24401e-27)
(0.680025 -0.216552 2.5673e-19)
(0.681137 -0.217187 -2.19309e-24)
(0.682356 -0.217843 3.09725e-19)
(0.683644 -0.218511 0)
(0.684989 -0.21918 3.71311e-19)
(0.686407 -0.219856 4.05821e-19)
(0.687889 -0.220541 0)
(0.689337 -0.221217 2.41683e-19)
(0.690623 -0.221845 2.63453e-19)
(0.691792 -0.222412 2.87e-19)
(0.693146 -0.222982 -3.12451e-19)
(0.695022 -0.223668 1.69957e-19)
(0.697302 -0.224513 -5.59202e-24)
(0.699083 -0.225332 6.16893e-24)
(0.699668 -0.22588 -2.17765e-19)
(0.698851 -0.225975 7.16073e-24)
(0.698879 -0.22598 -1.28057e-19)
(0.702336 -0.226713 0)
(0.710496 -0.22865 1.49809e-19)
(0.723663 -0.23236 -1.61472e-19)
(0.735649 -0.236735 0)
(0.741084 -0.240016 9.31799e-20)
(0.740102 -0.242041 -1.22443e-23)
(0.729172 -0.241229 2.61711e-23)
(0.717152 -0.238289 -1.39625e-23)
(0.723589 -0.23887 0)
(0.757958 -0.246258 0)
(0.824759 -0.261644 -6.90229e-20)
(0.949906 -0.292346 2.67896e-25)
(1.16966 -0.364879 -7.43607e-20)
(1.17905 -0.44398 -7.44919e-20)
(0.697219 -0.354602 1.90887e-23)
(0.00953042 0.00110516 -4.34781e-23)
(-0.26892 0.287649 4.5907e-23)
(-0.0117395 0.0110914 -1.03749e-19)
(-0.0228029 0.0805285 5.20928e-23)
(1.56131 -0.448745 4.18074e-18)
(1.54046 -0.444769 -1.99861e-18)
(1.51996 -0.440802 0)
(1.49981 -0.43684 1.81201e-18)
(1.47996 -0.43287 -1.71669e-18)
(1.46045 -0.428912 -1.61961e-18)
(1.44131 -0.424981 7.58265e-25)
(1.4226 -0.421093 1.41922e-18)
(1.40439 -0.417274 -1.31538e-18)
(1.38673 -0.413544 5.42226e-25)
(1.36968 -0.409925 -1.04776e-24)
(1.35328 -0.406433 5.04428e-25)
(1.33758 -0.40308 4.34306e-19)
(1.32263 -0.399894 -3.21052e-25)
(1.30846 -0.396881 -3.10744e-19)
(1.29509 -0.394051 1.98052e-25)
(1.28252 -0.391411 -1.77251e-19)
(1.27075 -0.388961 1.06226e-19)
(1.25983 -0.38672 -3.20192e-20)
(1.24976 -0.384687 -4.56449e-20)
(1.24053 -0.382869 0)
(1.23215 -0.381266 -2.40643e-25)
(1.22464 -0.379889 -7.62383e-26)
(1.21798 -0.378736 6.73437e-25)
(1.21217 -0.377805 -2.48527e-19)
(1.20719 -0.377098 -3.96729e-25)
(1.20301 -0.376602 7.21029e-25)
(1.19962 -0.376318 -7.54481e-25)
(1.19696 -0.376234 4.79293e-19)
(1.19502 -0.376339 -1.09265e-26)
(1.19375 -0.376624 -3.087e-19)
(1.19307 -0.377068 1.36435e-24)
(1.19296 -0.377662 -3.87286e-19)
(1.19335 -0.378385 0)
(1.19419 -0.379224 0)
(1.1954 -0.380155 -1.99655e-24)
(1.19696 -0.38117 2.90413e-19)
(1.19879 -0.382247 0)
(1.20082 -0.383371 2.71831e-24)
(1.20301 -0.38452 9.17581e-26)
(1.20533 -0.385681 -4.19946e-19)
(1.20779 -0.38686 -4.58937e-19)
(1.21038 -0.388061 0)
(1.21294 -0.389256 -2.73277e-19)
(1.21525 -0.390374 -9.13091e-24)
(1.21738 -0.391396 -3.24469e-19)
(1.21982 -0.392419 -3.53207e-19)
(1.22316 -0.393642 -3.84217e-19)
(1.2272 -0.395139 2.055e-25)
(1.23044 -0.396609 -1.37354e-23)
(1.23168 -0.397637 4.92131e-19)
(1.23055 -0.3979 -1.64042e-23)
(1.23078 -0.397981 1.75864e-23)
(1.23673 -0.399259 0)
(1.25064 -0.402563 -1.6921e-19)
(1.27304 -0.408871 1.10824e-23)
(1.29374 -0.416418 -2.4e-23)
(1.30365 -0.422247 -1.05161e-19)
(1.30267 -0.425971 0)
(1.28501 -0.424997 2.96477e-23)
(1.26506 -0.420311 2.61513e-25)
(1.27519 -0.421213 -3.36968e-23)
(1.33194 -0.433402 0)
(1.44312 -0.459137 0)
(1.65026 -0.510448 0)
(2.01121 -0.629459 0)
(2.04112 -0.76523 4.07736e-23)
(1.25888 -0.629879 -4.27561e-23)
(0.0789765 -0.0318546 9.76456e-20)
(-0.437384 0.468706 0)
(-0.0307189 0.0326588 0)
(-0.0546901 0.21328 -5.83304e-20)
(2.32951 -0.66952 -2.36374e-18)
(2.29831 -0.663573 -2.26005e-18)
(2.26764 -0.657621 2.12902e-24)
(2.23747 -0.65168 -2.04913e-18)
(2.20774 -0.645724 1.94138e-18)
(2.17847 -0.639768 3.66325e-18)
(2.14974 -0.63385 0)
(2.12161 -0.627989 8.19842e-25)
(2.09418 -0.62221 -1.49485e-24)
(2.06752 -0.616554 1.22649e-24)
(2.04172 -0.611043 6.2145e-19)
(2.01687 -0.605711 -5.57418e-19)
(1.99302 -0.600587 -9.82422e-19)
(1.97025 -0.595686 -7.26241e-25)
(1.94862 -0.59104 4.36208e-25)
(1.92815 -0.586656 -2.77492e-19)
(1.90885 -0.582547 2.00478e-19)
(1.89075 -0.578725 -1.20147e-19)
(1.87388 -0.575196 1.41813e-25)
(1.85825 -0.57198 5.16262e-20)
(1.84387 -0.569068 0)
(1.83075 -0.566482 0)
(1.8189 -0.564223 0)
(1.80831 -0.562293 2.24585e-19)
(1.79898 -0.560694 5.62153e-19)
(1.79089 -0.559425 -3.40769e-19)
(1.784 -0.558474 -4.03947e-19)
(1.77829 -0.557842 -4.70919e-19)
(1.77369 -0.557506 -1.08404e-18)
(1.77016 -0.557462 3.08814e-19)
(1.76765 -0.557687 3.49077e-19)
(1.76607 -0.558163 -3.0855e-24)
(1.76536 -0.558867 3.21646e-24)
(1.76543 -0.559779 0)
(1.7662 -0.560872 0)
(1.76759 -0.562124 5.95998e-19)
(1.76952 -0.563507 -6.56601e-19)
(1.77191 -0.565001 -3.60891e-19)
(1.77467 -0.566579 -3.9598e-19)
(1.7777 -0.568214 0)
(1.78096 -0.569882 0)
(1.78448 -0.571588 0)
(1.78825 -0.573343 2.83088e-19)
(1.79202 -0.575103 3.08766e-19)
(1.79547 -0.57677 -2.77687e-26)
(1.7987 -0.578307 -1.12999e-23)
(1.80241 -0.579855 2.44117e-23)
(1.8074 -0.581686 2.16938e-19)
(1.81343 -0.583918 0)
(1.81841 -0.586144 0)
(1.82061 -0.58777 9.45087e-27)
(1.81947 -0.588325 1.85144e-23)
(1.82013 -0.588573 1.63237e-19)
(1.82875 -0.590457 0)
(1.84862 -0.59519 1.90839e-19)
(1.88054 -0.604171 0)
(1.91055 -0.615099 0)
(1.9258 -0.623817 2.90379e-23)
(1.92562 -0.629603 2.05067e-25)
(1.90217 -0.628925 -1.36246e-19)
(1.87475 -0.622824 -1.45935e-19)
(1.88799 -0.62401 0)
(1.96602 -0.640763 0)
(2.12024 -0.676666 8.73691e-20)
(2.40579 -0.748177 0)
(2.89878 -0.910734 0)
(2.96288 -1.10571 4.55392e-23)
(1.91068 -0.939637 9.73236e-20)
(0.21834 -0.101939 -1.09012e-19)
(-0.587843 0.634334 1.16239e-22)
(-0.0607308 0.0691777 0)
(-0.101682 0.419687 6.48174e-20)
(3.19556 -0.918412 -2.46053e-24)
(3.15263 -0.91021 2.55006e-18)
(3.11041 -0.902011 2.40241e-24)
(3.06887 -0.893806 2.12153e-24)
(3.02787 -0.885575 -2.19101e-18)
(2.98746 -0.877335 -2.06729e-18)
(2.94775 -0.869121 1.93587e-24)
(2.9088 -0.860969 -1.81181e-18)
(2.87071 -0.852912 0)
(2.83362 -0.84499 1.38465e-24)
(2.79763 -0.83725 -7.01633e-19)
(2.76286 -0.829727 6.29368e-19)
(2.7294 -0.82247 3.88627e-25)
(2.69736 -0.815502 4.77228e-19)
(2.66683 -0.808864 3.96887e-19)
(2.63785 -0.802569 3.1337e-19)
(2.61044 -0.79664 0)
(2.58464 -0.791088 0)
(2.56049 -0.785936 4.09011e-20)
(2.538 -0.781187 -2.06391e-25)
(2.5172 -0.776861 2.14416e-25)
(2.4981 -0.772963 0)
(2.48071 -0.769503 1.93184e-19)
(2.46505 -0.766488 2.53669e-19)
(2.45109 -0.763924 -3.17477e-19)
(2.43882 -0.761805 1.56889e-24)
(2.4282 -0.760129 4.56252e-19)
(2.41919 -0.758881 1.06378e-18)
(2.41174 -0.758053 1.22437e-18)
(2.40579 -0.757626 2.7656e-24)
(2.40125 -0.75758 -7.88491e-19)
(2.39803 -0.757889 0)
(2.39606 -0.75853 4.94534e-19)
(2.39522 -0.759474 -8.39258e-24)
(2.3954 -0.760683 6.09283e-19)
(2.3965 -0.762134 5.02371e-24)
(2.39843 -0.763789 -6.25497e-27)
(2.40106 -0.765623 4.07424e-19)
(2.40429 -0.7676 4.46997e-19)
(2.40797 -0.76968 -4.8964e-19)
(2.41205 -0.771833 -8.29268e-24)
(2.41657 -0.774064 -5.85256e-19)
(2.42149 -0.776384 -3.19418e-19)
(2.4265 -0.77874 -3.48342e-19)
(2.43119 -0.781001 -7.59192e-19)
(2.43565 -0.783114 0)
(2.44079 -0.785251 8.99719e-19)
(2.44762 -0.787763 1.47985e-23)
(2.45587 -0.790816 0)
(2.46289 -0.793914 -2.88449e-19)
(2.46642 -0.796276 -3.12973e-19)
(2.46568 -0.797284 -3.39319e-19)
(2.46709 -0.797819 0)
(2.47857 -0.800377 -2.44145e-23)
(2.50452 -0.806574 -2.14721e-19)
(2.54603 -0.818249 -2.83277e-23)
(2.58581 -0.832726 3.02239e-23)
(2.60736 -0.8447 -1.33276e-19)
(2.60906 -0.852986 3.47576e-23)
(2.58129 -0.853226 1.52934e-19)
(2.54742 -0.846221 1.63895e-19)
(2.56311 -0.847674 0)
(2.66043 -0.868539 1.85737e-19)
(2.85465 -0.913999 4.50395e-23)
(3.21176 -1.00447 1.01542e-19)
(3.82112 -1.20576 0)
(3.93305 -1.4612 0)
(2.65785 -1.28448 -1.07215e-19)
(0.44851 -0.220464 1.20488e-19)
(-0.710333 0.772668 1.34867e-22)
(-0.103988 0.12581 -2.81188e-22)
(-0.163933 0.706131 -7.13661e-20)
(4.1681 -1.19789 0)
(4.11198 -1.18715 -2.63728e-24)
(4.05676 -1.17642 -2.73119e-18)
(4.00237 -1.16566 -2.59744e-18)
(3.94865 -1.15485 2.4615e-18)
(3.89562 -1.144 2.12005e-24)
(3.8434 -1.13317 -2.17568e-24)
(3.79209 -1.12238 0)
(3.7418 -1.11168 0)
(3.69267 -1.10112 1.55699e-24)
(3.64487 -1.09076 -1.60313e-24)
(3.59852 -1.08066 0)
(3.55378 -1.07085 6.23979e-19)
(3.51078 -1.06139 -5.36963e-19)
(3.46967 -1.05233 4.46631e-19)
(3.43049 -1.0437 0)
(3.39332 -1.03552 2.54851e-19)
(3.35817 -1.02781 1.52755e-19)
(3.32512 -1.02061 0)
(3.29418 -1.01391 0)
(3.2654 -1.00774 0)
(3.23879 -1.00212 0)
(3.21437 -0.997053 -4.35165e-19)
(3.19216 -0.992555 -5.71454e-19)
(3.17214 -0.988629 -2.50597e-24)
(3.15431 -0.985279 0)
(3.13863 -0.982502 0)
(3.12505 -0.980285 3.21851e-25)
(3.11352 -0.97862 -6.89682e-19)
(3.10397 -0.977482 0)
(3.09631 -0.976857 4.44157e-19)
(3.09044 -0.976712 0)
(3.08626 -0.977023 0)
(3.08363 -0.977751 0)
(3.08244 -0.97886 -6.86329e-19)
(3.08255 -0.98031 -1.13174e-23)
(3.08385 -0.982069 4.1747e-19)
(3.08619 -0.984096 -4.58847e-19)
(3.08942 -0.98635 -5.20062e-25)
(3.09339 -0.98878 5.51333e-19)
(3.098 -0.991346 0)
(3.1033 -0.994056 -1.98318e-26)
(3.10924 -0.996914 0)
(3.11543 -0.999863 3.91942e-19)
(3.12138 -1.00274 2.57895e-23)
(3.12716 -1.00547 -2.86688e-23)
(3.13383 -1.00826 -5.058e-19)
(3.14266 -1.01151 5.86623e-25)
(3.15332 -1.01546 5.87882e-25)
(3.16269 -1.01954 6.48082e-19)
(3.16797 -1.02279 4.26043e-23)
(3.16813 -1.02444 3.80953e-19)
(3.17072 -1.02542 -2.06366e-19)
(3.18522 -1.02872 -6.21115e-25)
(3.21722 -1.03639 4.81523e-19)
(3.26813 -1.0507 0)
(3.31793 -1.06883 0)
(3.34677 -1.08443 1.49107e-19)
(3.3517 -1.09571 0)
(3.32163 -1.09765 0)
(3.28292 -1.09045 0)
(3.30048 -1.09221 9.56066e-23)
(3.41424 -1.11654 -2.06928e-19)
(3.64359 -1.17049 -1.08787e-19)
(4.06217 -1.27784 -1.12338e-19)
(4.76598 -1.51134 2.22561e-22)
(4.93656 -1.82631 1.13589e-19)
(3.50077 -1.66259 1.16751e-19)
(0.791875 -0.398982 -2.63301e-19)
(-0.790859 0.872999 -1.50824e-22)
(-0.163042 0.209084 -1.63648e-19)
(-0.240494 1.07124 7.79529e-20)
(5.25226 -1.50943 3.32635e-18)
(5.18156 -1.49591 -4.1397e-25)
(5.11198 -1.48237 3.03751e-18)
(5.04336 -1.46879 2.89006e-18)
(4.97549 -1.45512 -2.74e-18)
(4.90841 -1.44137 -4.7219e-24)
(4.84223 -1.42761 2.43033e-18)
(4.77705 -1.41386 -2.26991e-18)
(4.71299 -1.40017 0)
(4.65021 -1.38661 0)
(4.58892 -1.37323 -3.13843e-24)
(4.52928 -1.36012 -7.90288e-19)
(4.47149 -1.34733 -2.43358e-24)
(4.41574 -1.33493 4.57476e-24)
(4.36222 -1.32299 -3.18176e-24)
(4.31103 -1.31155 0)
(4.26224 -1.30064 -1.02495e-24)
(4.21592 -1.29029 -1.70883e-19)
(4.17214 -1.28054 -4.3203e-25)
(4.13094 -1.27141 0)
(4.09237 -1.26291 -1.02289e-24)
(4.05647 -1.25507 2.61492e-24)
(4.02326 -1.24792 2.43721e-19)
(3.99277 -1.24145 3.20121e-19)
(3.96499 -1.23569 -4.00748e-19)
(3.93993 -1.23064 -4.85964e-19)
(3.91755 -1.2263 -4.65233e-24)
(3.89782 -1.22266 -1.34357e-18)
(3.88068 -1.21972 0)
(3.86606 -1.21745 6.98787e-24)
(3.85387 -1.21584 -7.33627e-24)
(3.84401 -1.21486 0)
(3.83635 -1.21447 0)
(3.83078 -1.21464 -1.08787e-23)
(3.82712 -1.21533 1.14706e-23)
(3.82525 -1.2165 8.50181e-19)
(3.82502 -1.2181 0)
(3.82628 -1.22009 5.1458e-19)
(3.82882 -1.22243 5.64464e-19)
(3.83247 -1.22504 -3.77327e-23)
(3.83712 -1.22788 2.03328e-23)
(3.8428 -1.23096 7.38426e-19)
(3.84944 -1.23427 -2.42821e-23)
(3.85661 -1.23777 -8.78271e-19)
(3.86369 -1.24125 4.78309e-19)
(3.87076 -1.24461 0)
(3.87902 -1.24805 -5.66209e-19)
(3.88989 -1.25208 0)
(3.90308 -1.25697 -4.11002e-23)
(3.91503 -1.26213 4.39696e-23)
(3.92248 -1.26643 -3.92678e-19)
(3.92413 -1.26893 -5.15884e-23)
(3.92835 -1.27052 4.60541e-19)
(3.94603 -1.27465 -2.48883e-19)
(3.98387 -1.28375 -2.68124e-19)
(4.04366 -1.30056 -7.01226e-23)
(4.10342 -1.32234 -7.57727e-23)
(4.14043 -1.34187 -5.12146e-25)
(4.15008 -1.35668 1.77394e-19)
(4.12019 -1.36121 9.22958e-23)
(4.07893 -1.35473 0)
(4.09799 -1.35696 0)
(4.22465 -1.38397 0)
(4.48256 -1.44492 0)
(4.94964 -1.56625 1.22796e-19)
(5.721 -1.82417 0)
(5.95503 -2.19476 -2.47198e-19)
(4.43271 -2.06902 -1.47594e-22)
(1.26912 -0.647612 1.41383e-19)
(-0.806827 0.924795 -1.69537e-19)
(-0.237945 0.325002 3.65938e-19)
(-0.325717 1.50182 1.58838e-22)
(6.44428 -1.85194 -3.62655e-18)
(6.35812 -1.83551 0)
(6.27325 -1.81905 0)
(6.18945 -1.80251 3.1596e-18)
(6.10646 -1.78581 2.99823e-18)
(6.0243 -1.76899 2.83317e-18)
(5.94307 -1.75209 -2.66398e-18)
(5.86287 -1.73516 4.98053e-18)
(5.78382 -1.71823 0)
(5.70611 -1.70138 -2.12728e-18)
(5.62994 -1.68469 7.38676e-24)
(5.55553 -1.66822 8.69893e-19)
(5.48314 -1.65209 -7.67645e-19)
(5.41301 -1.63634 -6.61362e-19)
(5.34539 -1.6211 -5.50723e-19)
(5.28044 -1.6064 4.35371e-19)
(5.21827 -1.5923 -3.14924e-19)
(5.15897 -1.57884 0)
(5.10265 -1.56607 5.70132e-20)
(5.04935 -1.554 8.13725e-20)
(4.99916 -1.54268 0)
(4.95211 -1.53212 0)
(4.90825 -1.52235 -2.33614e-24)
(4.86762 -1.5134 2.43616e-24)
(4.83025 -1.50528 -1.03825e-24)
(4.79612 -1.49801 5.39753e-19)
(4.76523 -1.49159 4.6021e-24)
(4.73756 -1.48602 7.46751e-19)
(4.71305 -1.48129 0)
(4.69165 -1.47739 4.90123e-19)
(4.67328 -1.47431 5.54229e-19)
(4.65782 -1.47202 9.80011e-24)
(4.64516 -1.47048 6.9556e-19)
(4.63517 -1.46967 1.21119e-23)
(4.62768 -1.46954 -1.27726e-23)
(4.62255 -1.47004 -9.46771e-19)
(4.61961 -1.47114 -5.2143e-19)
(4.61871 -1.47278 -1.71704e-23)
(4.6196 -1.4749 -1.25716e-18)
(4.62207 -1.47744 -2.06795e-23)
(4.62601 -1.48035 0)
(4.63143 -1.4836 8.21996e-19)
(4.63825 -1.48723 0)
(4.64598 -1.49115 9.77205e-19)
(4.6539 -1.49515 -5.31979e-19)
(4.66208 -1.4991 5.7879e-19)
(4.67179 -1.50319 1.25854e-18)
(4.68463 -1.50798 -4.13498e-23)
(4.70031 -1.51382 0)
(4.71498 -1.52012 -4.01986e-19)
(4.72494 -1.52558 4.35536e-19)
(4.72864 -1.52913 -5.71568e-23)
(4.73498 -1.53152 -2.54842e-19)
(4.75591 -1.53653 2.75089e-19)
(4.79919 -1.54698 0)
(4.86696 -1.56605 0)
(4.93616 -1.59136 -3.40869e-19)
(4.98194 -1.61504 -1.8243e-19)
(4.99778 -1.63387 2.46106e-24)
(4.97084 -1.64194 0)
(4.92984 -1.63725 0)
(4.95045 -1.64023 2.36765e-19)
(5.08612 -1.66908 -1.2139e-22)
(5.36466 -1.73519 1.26044e-22)
(5.86511 -1.86701 -1.32348e-19)
(6.67455 -2.14104 0)
(6.96818 -2.55995 1.32255e-19)
(5.4385 -2.49527 -1.29591e-19)
(1.89412 -0.970189 -1.47232e-19)
(-0.73613 0.90654 1.85957e-19)
(-0.324365 0.477245 -4.09385e-19)
(-0.40831 1.96694 0)
(7.72338 -2.21943 3.83061e-18)
(7.62196 -2.20028 1.44959e-23)
(7.52196 -2.18105 0)
(7.42307 -2.16167 -3.35386e-18)
(7.32499 -2.14207 -1.16694e-23)
(7.22771 -2.12227 -3.01686e-18)
(7.13131 -2.10231 0)
(7.03588 -2.08222 -2.66001e-18)
(6.94154 -2.06207 -8.92374e-24)
(6.84847 -2.0419 2.27929e-18)
(6.7569 -2.02181 1.03925e-18)
(6.66708 -2.0019 0)
(6.5793 -1.98226 8.26283e-19)
(6.49388 -1.96299 7.1296e-19)
(6.41114 -1.9442 -3.99112e-24)
(6.3313 -1.92598 1.275e-24)
(6.25453 -1.9084 -3.40975e-19)
(6.18095 -1.8915 2.04864e-19)
(6.11071 -1.87535 -1.23791e-19)
(6.04388 -1.85998 3.16346e-24)
(5.98057 -1.84542 0)
(5.92083 -1.83173 3.74651e-24)
(5.86473 -1.81892 -3.90754e-24)
(5.81233 -1.80703 0)
(5.76368 -1.79608 4.86343e-19)
(5.7188 -1.78611 -5.90586e-19)
(5.67767 -1.77711 0)
(5.64032 -1.7691 0)
(5.60671 -1.76208 0)
(5.5768 -1.75605 -5.3803e-19)
(5.55051 -1.75099 -1.21757e-18)
(5.52776 -1.74688 -2.02298e-23)
(5.50845 -1.74371 -7.64957e-19)
(5.49244 -1.74143 0)
(5.47956 -1.74002 -9.43554e-19)
(5.46969 -1.73941 -6.36418e-23)
(5.46266 -1.73958 1.14878e-18)
(5.45828 -1.74048 -6.31376e-19)
(5.45632 -1.74204 6.92674e-19)
(5.45653 -1.74418 -4.55754e-23)
(5.45877 -1.74685 0)
(5.46305 -1.75003 -9.05693e-19)
(5.46928 -1.75373 0)
(5.47691 -1.75789 -1.07623e-18)
(5.48517 -1.76227 1.17144e-18)
(5.49406 -1.76669 2.45675e-25)
(5.50491 -1.77135 -6.92096e-19)
(5.51943 -1.77683 -9.25031e-23)
(5.53736 -1.78356 -1.60345e-24)
(5.55468 -1.79098 4.41126e-19)
(5.56736 -1.79769 -4.77247e-19)
(5.57358 -1.80246 -2.52184e-22)
(5.58244 -1.80581 -1.73908e-24)
(5.60659 -1.81173 3.00961e-19)
(5.65466 -1.82339 3.22919e-19)
(5.72915 -1.84437 -1.29756e-24)
(5.80675 -1.8729 3.71061e-19)
(5.86139 -1.90078 1.97929e-19)
(5.88464 -1.92401 -2.11562e-19)
(5.86337 -1.93653 2.25347e-19)
(5.82574 -1.93475 0)
(5.84846 -1.93893 -2.55221e-19)
(5.98928 -1.96885 -2.66708e-19)
(6.27977 -2.03812 -1.0932e-24)
(6.79744 -2.17655 -2.73841e-22)
(7.61602 -2.45879 0)
(7.95617 -2.91573 -1.39344e-19)
(6.4944 -2.92941 1.31956e-19)
(2.67496 -1.36755 1.49278e-19)
(-0.556043 0.80309 -1.99234e-19)
(-0.414188 0.660514 4.52771e-19)
(-0.470957 2.42234 -5.44013e-22)
(9.04371 -2.59873 -3.86355e-18)
(8.92905 -2.57749 3.71602e-18)
(8.81582 -2.5561 3.56437e-18)
(8.70365 -2.53447 0)
(8.59219 -2.51252 -3.24753e-18)
(8.48142 -2.49027 0)
(8.37139 -2.46775 -2.90886e-18)
(8.26219 -2.44501 0)
(8.15389 -2.42207 2.54436e-18)
(8.04667 -2.39901 2.35097e-18)
(7.94077 -2.37591 -2.14924e-18)
(7.83645 -2.35288 0)
(7.73404 -2.33002 -5.99788e-24)
(7.63391 -2.30745 6.22392e-24)
(7.53645 -2.28531 -6.21035e-19)
(7.44195 -2.26369 -4.92904e-19)
(7.35065 -2.2427 7.15816e-19)
(7.26272 -2.2224 -2.15549e-19)
(7.17833 -2.20285 6.52734e-20)
(7.09761 -2.18411 -1.87002e-19)
(7.02068 -2.16622 1.3812e-24)
(6.94763 -2.14924 0)
(6.87856 -2.13321 -5.42092e-24)
(6.81355 -2.11816 -4.13372e-19)
(6.75266 -2.10413 0)
(6.69596 -2.09116 1.26323e-18)
(6.64347 -2.07927 -1.07983e-23)
(6.59521 -2.06848 8.78226e-19)
(6.5512 -2.05879 -1.61527e-23)
(6.51142 -2.05023 3.53458e-23)
(6.47583 -2.04278 6.55994e-19)
(6.44436 -2.03644 2.32433e-23)
(6.41693 -2.03119 -2.45015e-23)
(6.39343 -2.02702 0)
(6.37372 -2.02388 1.02119e-18)
(6.35766 -2.02173 3.37227e-23)
(6.34513 -2.02055 3.96386e-23)
(6.33593 -2.02029 6.84806e-19)
(6.32983 -2.02089 7.51653e-19)
(6.32656 -2.02227 -8.23492e-19)
(6.32598 -2.02436 -1.59678e-24)
(6.32808 -2.02714 9.83692e-19)
(6.33276 -2.03064 -1.30961e-22)
(6.33945 -2.03478 1.16858e-18)
(6.34733 -2.03932 -6.35729e-19)
(6.35633 -2.04405 4.65559e-25)
(6.3678 -2.04912 0)
(6.38349 -2.05514 0)
(6.4032 -2.06262 -1.08523e-22)
(6.42285 -2.07108 -9.5437e-19)
(6.43819 -2.07904 1.23939e-22)
(6.44719 -2.08513 -1.3702e-22)
(6.45884 -2.08955 1.45836e-22)
(6.48602 -2.09638 -6.47089e-19)
(6.538 -2.10903 -3.47043e-19)
(6.61759 -2.13149 -1.39136e-24)
(6.70202 -2.1628 1.92957e-22)
(6.76497 -2.1947 2.11326e-19)
(6.79634 -2.22253 2.19601e-22)
(6.78302 -2.24018 -2.27422e-22)
(6.75172 -2.24235 2.48365e-22)
(6.77749 -2.24831 2.69719e-19)
(6.92006 -2.27869 5.61454e-19)
(7.21387 -2.34919 2.80372e-22)
(7.7329 -2.4904 -4.19635e-24)
(8.53532 -2.77411 -1.45947e-19)
(8.90219 -3.25709 1.44086e-19)
(7.56875 -3.35879 -1.27268e-23)
(3.60883 -1.83502 2.91239e-19)
(-0.240353 0.608103 -8.56642e-22)
(-0.489083 0.860135 -4.89122e-19)
(-0.507313 2.81553 0)
(10.336 -2.96994 1.45111e-23)
(10.212 -2.94768 -2.35977e-23)
(10.0893 -2.9252 -3.42114e-18)
(9.96757 -2.90236 -1.29938e-23)
(9.84637 -2.87911 3.13743e-18)
(9.72566 -2.85544 0)
(9.60549 -2.83138 2.82876e-18)
(9.48591 -2.80697 0)
(9.36698 -2.78224 -2.07444e-23)
(9.24887 -2.75725 -2.30941e-18)
(9.13177 -2.73208 1.0593e-18)
(9.01595 -2.70683 0)
(8.90175 -2.68163 -8.52525e-19)
(8.78958 -2.65658 -1.11406e-24)
(8.67989 -2.63184 6.21074e-19)
(8.57299 -2.60754 -4.94723e-19)
(8.46921 -2.58378 -3.60544e-19)
(8.36874 -2.56064 0)
(8.27183 -2.53822 -1.05667e-25)
(8.17863 -2.51656 9.51812e-20)
(8.08928 -2.49574 2.66871e-24)
(8.00393 -2.47581 -2.79572e-24)
(7.92268 -2.45681 0)
(7.84566 -2.43882 4.26158e-19)
(7.77298 -2.42187 0)
(7.7047 -2.406 4.27872e-24)
(7.6409 -2.39126 0)
(7.58165 -2.37767 -9.15416e-19)
(7.52698 -2.36526 0)
(7.47692 -2.35406 0)
(7.43148 -2.34407 -6.88665e-19)
(7.39063 -2.33531 0)
(7.35431 -2.32776 8.70941e-19)
(7.32245 -2.32142 -9.71996e-19)
(7.29495 -2.31627 6.59452e-23)
(7.2717 -2.31228 1.58092e-24)
(7.2526 -2.30943 -3.81908e-23)
(7.23748 -2.30768 4.52252e-23)
(7.22615 -2.30699 -1.5988e-18)
(7.21831 -2.30727 8.76481e-19)
(7.21385 -2.30846 9.59338e-19)
(7.21275 -2.31054 -1.04816e-18)
(7.2149 -2.31353 -1.39605e-22)
(7.21973 -2.31737 7.59668e-23)
(7.22639 -2.32182 0)
(7.23477 -2.32662 -7.36701e-19)
(7.24617 -2.3319 -1.84416e-24)
(7.26235 -2.33827 1.04858e-22)
(7.28315 -2.34631 0)
(7.30455 -2.35564 1.01402e-18)
(7.32224 -2.36474 5.47589e-19)
(7.33401 -2.37216 -1.45214e-22)
(7.34848 -2.37768 1.54288e-22)
(7.37832 -2.38536 3.415e-19)
(7.43312 -2.39875 0)
(7.51596 -2.42219 -3.90129e-19)
(7.60521 -2.45571 2.03638e-22)
(7.67523 -2.49122 7.3808e-24)
(7.71472 -2.52358 -2.29486e-22)
(7.71081 -2.54675 -2.49608e-19)
(7.68823 -2.55367 2.65361e-19)
(7.71808 -2.56197 -2.78333e-19)
(7.85968 -2.59245 -5.80397e-22)
(8.1491 -2.66255 2.87029e-22)
(8.6552 -2.80312 -1.46172e-19)
(9.42175 -3.08323 1.47007e-19)
(9.79394 -3.58106 -5.70091e-22)
(8.62324 -3.76599 -1.27471e-19)
(4.689 -2.35891 -5.49453e-19)
(0.226402 0.321141 2.04383e-19)
(-0.541448 1.06174 2.57282e-19)
(-0.502601 3.12155 7.59201e-22)
(11.5283 -3.31232 0)
(11.3995 -3.29026 -3.22492e-18)
(11.272 -3.26789 0)
(11.1453 -3.24508 2.99786e-18)
(11.0189 -3.22176 -2.87575e-18)
(10.8929 -3.19792 -2.18555e-23)
(10.7672 -3.1736 -1.90064e-23)
(10.6419 -3.14882 2.46845e-18)
(10.517 -3.1236 -2.31704e-18)
(10.3926 -3.09799 -1.54791e-23)
(10.269 -3.07208 -9.93165e-19)
(10.1463 -3.04595 -9.02664e-19)
(10.0248 -3.01971 8.48474e-24)
(9.9051 -2.99349 9.6631e-24)
(9.7875 -2.96743 -5.92481e-19)
(9.67239 -2.94167 4.74084e-19)
(9.56009 -2.91633 4.15985e-24)
(9.45087 -2.89149 -2.31138e-24)
(9.34498 -2.86725 6.42917e-20)
(9.24261 -2.84369 0)
(9.14394 -2.82086 0)
(9.04914 -2.79885 8.01814e-24)
(8.95834 -2.77771 -1.94497e-23)
(8.87171 -2.7575 1.15964e-23)
(8.78937 -2.73829 -5.34612e-19)
(8.71145 -2.72012 -6.54651e-19)
(8.63803 -2.70305 -2.25297e-23)
(8.56923 -2.68713 0)
(8.50513 -2.67238 1.07039e-18)
(8.44579 -2.65886 -3.9008e-23)
(8.39128 -2.64658 7.00647e-19)
(8.34161 -2.63557 -4.68593e-23)
(8.29677 -2.62585 -8.91282e-19)
(8.25674 -2.61741 -1.25346e-22)
(8.22144 -2.61026 1.35708e-22)
(8.19083 -2.60438 -1.50671e-22)
(8.16485 -2.59976 1.68629e-22)
(8.14339 -2.59639 -9.03223e-23)
(8.12626 -2.59424 8.29678e-19)
(8.11324 -2.59323 9.10937e-19)
(8.1042 -2.59331 -1.99679e-18)
(8.09915 -2.59445 -1.09205e-18)
(8.098 -2.59669 0)
(8.10018 -2.6 -6.50053e-19)
(8.10485 -2.60412 -3.75303e-24)
(8.11187 -2.60878 1.85787e-22)
(8.12247 -2.61405 -2.05576e-22)
(8.13837 -2.62054 2.1868e-22)
(8.15946 -2.62889 0)
(8.18188 -2.63887 -5.27771e-19)
(8.20137 -2.64895 -2.80014e-22)
(8.21562 -2.6576 -6.13263e-19)
(8.23267 -2.66419 -3.28918e-19)
(8.26463 -2.6726 -3.42787e-22)
(8.32106 -2.68646 3.76561e-19)
(8.40522 -2.71039 4.01664e-19)
(8.49707 -2.74545 0)
(8.57234 -2.78399 -2.26709e-19)
(8.61922 -2.82055 -4.72362e-22)
(8.62519 -2.84922 -2.54509e-19)
(8.61272 -2.86132 -5.38971e-19)
(8.64743 -2.87243 0)
(8.78607 -2.90288 -2.90358e-19)
(9.06489 -2.97142 1.46949e-19)
(9.54647 -3.10878 2.88216e-19)
(10.2634 -3.3819 0)
(10.6234 -3.88481 1.45305e-19)
(9.61523 -4.135 0)
(5.87458 -2.9153 5.05889e-19)
(0.872898 -0.0843282 -3.84698e-19)
(-0.543365 1.24003 -2.03759e-21)
(-0.461236 3.32281 7.47981e-22)
(12.5744 -3.61267 0)
(12.4447 -3.59171 -2.0774e-23)
(12.3162 -3.57037 2.15755e-23)
(12.1883 -3.54856 -2.6362e-18)
(12.0609 -3.52617 3.7123e-23)
(11.9336 -3.50321 0)
(11.8066 -3.4797 0)
(11.6798 -3.45568 -2.19894e-18)
(11.5534 -3.43115 2.07138e-18)
(11.4273 -3.40616 1.38895e-23)
(11.3017 -3.38077 -4.63047e-24)
(11.1769 -3.35506 8.1639e-19)
(11.0531 -3.32914 1.46427e-18)
(10.9306 -3.30311 1.07453e-23)
(10.8099 -3.27711 5.42928e-19)
(10.6914 -3.25127 -2.03622e-24)
(10.5753 -3.22571 -5.93911e-24)
(10.462 -3.20051 0)
(10.3516 -3.17578 -6.0037e-20)
(10.2444 -3.15158 2.46697e-24)
(10.1406 -3.128 -2.60592e-24)
(10.0403 -3.10509 0)
(9.94384 -3.08295 0)
(9.85124 -3.06162 0)
(9.7627 -3.04119 5.13275e-19)
(9.67836 -3.02171 -1.79587e-23)
(9.59835 -3.00323 0)
(9.52281 -2.98582 0)
(9.45185 -2.96953 -1.0455e-18)
(9.38558 -2.95439 0)
(9.32409 -2.94047 -6.89858e-19)
(9.26744 -2.92779 9.56433e-23)
(9.21569 -2.91638 -5.24457e-23)
(9.16884 -2.90627 1.98626e-18)
(9.12688 -2.89746 -6.93872e-23)
(9.08981 -2.88997 7.38672e-23)
(9.05761 -2.8838 -6.86474e-19)
(9.03025 -2.87895 0)
(9.00759 -2.87542 8.38468e-19)
(8.98945 -2.87315 -9.23062e-19)
(8.97576 -2.87208 1.0135e-18)
(8.96654 -2.87222 1.11028e-18)
(8.96174 -2.87362 0)
(8.96083 -2.87625 1.63605e-22)
(8.96301 -2.87988 -1.74238e-22)
(8.96812 -2.88423 -1.93457e-22)
(8.97733 -2.88932 2.05849e-22)
(8.99226 -2.89573 0)
(9.01287 -2.90417 0)
(9.03552 -2.91456 0)
(9.05614 -2.9254 5.79473e-19)
(9.07235 -2.93512 3.03205e-22)
(9.09155 -2.94266 3.34339e-19)
(9.12496 -2.95167 -3.46949e-22)
(9.18184 -2.96572 -5.31613e-24)
(9.26554 -2.9897 0)
(9.3578 -3.02567 -4.28544e-19)
(9.43624 -3.06653 -4.45376e-22)
(9.48918 -3.10674 -2.40658e-19)
(9.50452 -3.14056 2.54608e-19)
(9.50247 -3.15789 2.67462e-19)
(9.54228 -3.17208 -3.27805e-24)
(9.67662 -3.20257 5.55222e-22)
(9.94047 -3.26896 -1.54925e-23)
(10.3893 -3.40154 -1.39539e-19)
(11.0481 -3.66574 -5.34267e-22)
(11.3845 -4.16621 9.80577e-22)
(10.5262 -4.46203 9.28725e-22)
(7.11661 -3.47257 -4.57965e-19)
(1.74369 -0.625483 3.46747e-19)
(-0.451292 1.35323 0)
(-0.379754 3.40198 -6.81468e-22)
(13.5955 -3.88759 -1.89396e-23)
(13.4661 -3.86858 -2.49757e-18)
(13.3376 -3.84912 1.79014e-23)
(13.2102 -3.82926 -1.8629e-23)
(13.0836 -3.80891 1.67411e-23)
(12.9573 -3.78798 2.1997e-18)
(12.8314 -3.76647 -2.113e-18)
(12.7057 -3.74441 0)
(12.5804 -3.72181 0)
(12.4553 -3.6987 -1.81476e-18)
(12.3306 -3.6751 1.70035e-18)
(12.2064 -3.65107 7.88559e-19)
(12.0829 -3.62668 0)
(11.9602 -3.60202 -1.29939e-18)
(11.8387 -3.57718 0)
(11.7188 -3.55228 0)
(11.6007 -3.52743 -5.05989e-24)
(11.4848 -3.50274 8.82109e-24)
(11.3712 -3.4783 -1.77215e-19)
(11.2603 -3.45418 0)
(11.1522 -3.43048 2.25241e-24)
(11.0472 -3.40725 -2.38958e-24)
(10.9453 -3.38458 0)
(10.8469 -3.36253 0)
(10.7521 -3.34118 -3.75326e-19)
(10.6609 -3.32059 -4.78871e-19)
(10.5737 -3.30083 5.91575e-19)
(10.4905 -3.28197 -7.14158e-19)
(10.4115 -3.26405 -2.45686e-23)
(10.3368 -3.24714 3.16272e-23)
(10.2665 -3.2313 5.74782e-19)
(10.2008 -3.21656 3.35364e-23)
(10.1398 -3.203 4.74037e-23)
(10.0835 -3.19063 -5.06032e-23)
(10.032 -3.1795 -9.61951e-19)
(9.98532 -3.16964 1.07963e-18)
(9.9435 -3.16106 -7.52654e-23)
(9.90657 -3.15378 6.72226e-19)
(9.87454 -3.14784 0)
(9.84735 -3.14323 -8.26036e-19)
(9.82488 -3.13994 0)
(9.80709 -3.13791 0)
(9.79407 -3.13717 0)