/*--------------------------------*- C++ -*----------------------------------*\
| =========                 |                                                 |
| \\      /  F ield         | OpenFOAM: The Open Source CFD Toolbox           |
|  \\    /   O peration     | Version:  2412                                  |
|   \\  /    A nd           | Website:  www.openfoam.com                      |
|    \\/     M anipulation  |                                                 |
\*---------------------------------------------------------------------------*/
FoamFile
{
    version     2.0;
    format      ascii;
    arch        "LSB;label=32;scalar=64";
    class       volScalarField;
    location    "220";
    object      nut;
}
// * * * * * * * * * * * * * * * * * * * * * * * * * * * * * * * * * * * * * //

dimensions      [0 2 -1 0 0 0 0];

internalField   nonuniform List<scalar> 
8659
(
5.96314e-12
4.46805e-12
2.79541e-12
1.24484e-12
2.67686e-13
6.38502e-13
8.09617e-12
3.13208e-11
6.30306e-11
8.22487e-11
7.50057e-11
5.27435e-11
3.36875e-11
2.33074e-11
1.76833e-11
1.44105e-11
1.23743e-11
1.09752e-11
9.98221e-12
9.26188e-12
8.71401e-12
8.29966e-12
7.99697e-12
7.78997e-12
7.6636e-12
7.60458e-12
7.5981e-12
7.63104e-12
7.69328e-12
7.7762e-12
7.8772e-12
7.98617e-12
8.08758e-12
8.18613e-12
8.27165e-12
8.34594e-12
8.40819e-12
8.46724e-12
8.52466e-12
8.56467e-12
8.58817e-12
8.60667e-12
8.62224e-12
8.63665e-12
8.65619e-12
8.67622e-12
8.68718e-12
8.69072e-12
8.69211e-12
8.69265e-12
8.69262e-12
8.69215e-12
8.6909e-12
8.69144e-12
8.69413e-12
8.69451e-12
8.69323e-12
8.691e-12
8.68816e-12
8.68528e-12
8.68238e-12
8.67934e-12
8.67691e-12
8.67457e-12
8.67199e-12
8.66948e-12
8.66755e-12
8.6655e-12
8.66344e-12
8.66124e-12
8.6588e-12
8.65699e-12
8.65485e-12
8.65243e-12
8.65072e-12
8.64853e-12
8.64651e-12
8.64474e-12
8.6427e-12
8.64081e-12
8.63913e-12
8.63721e-12
8.63536e-12
8.63363e-12
8.6316e-12
8.62983e-12
5.1308e-10
3.79625e-10
2.34428e-10
1.03855e-10
2.2848e-11
6.40435e-11
7.22954e-10
2.68817e-09
5.44597e-09
7.36892e-09
7.04825e-09
5.1508e-09
3.37388e-09
2.34564e-09
1.77152e-09
1.43052e-09
1.21474e-09
1.06494e-09
9.57229e-10
8.77866e-10
8.16913e-10
7.69849e-10
7.34408e-10
7.09018e-10
6.92204e-10
6.82591e-10
6.78685e-10
6.7914e-10
6.82929e-10
6.89175e-10
6.97483e-10
7.06901e-10
7.15949e-10
7.24979e-10
7.33009e-10
7.40092e-10
7.46117e-10
7.51952e-10
7.57626e-10
7.61648e-10
7.64095e-10
7.66062e-10
7.67746e-10
7.69314e-10
7.71421e-10
7.73576e-10
7.74825e-10
7.7532e-10
7.75583e-10
7.75772e-10
7.75894e-10
7.75962e-10
7.75991e-10
7.76209e-10
7.76634e-10
7.76839e-10
7.76841e-10
7.76736e-10
7.76587e-10
7.7643e-10
7.76277e-10
7.76105e-10
7.75962e-10
7.75831e-10
7.75704e-10
7.75574e-10
7.75474e-10
7.75402e-10
7.75296e-10
7.75172e-10
7.75053e-10
7.74942e-10
7.74831e-10
7.74699e-10
7.74598e-10
7.74472e-10
7.74351e-10
7.7424e-10
7.74119e-10
7.74007e-10
7.73906e-10
7.73805e-10
7.73696e-10
7.73582e-10
7.73458e-10
7.73339e-10
4.195e-09
3.05148e-09
1.85438e-09
8.19529e-10
1.89092e-10
6.54469e-10
6.2403e-09
2.20838e-08
4.51462e-08
6.44815e-08
6.57977e-08
5.11652e-08
3.48746e-08
2.4504e-08
1.84259e-08
1.47008e-08
1.22845e-08
1.05816e-08
9.33544e-09
8.39975e-09
7.67104e-09
7.09968e-09
6.66079e-09
6.33603e-09
6.10864e-09
5.96263e-09
5.88156e-09
5.8506e-09
5.85837e-09
5.89556e-09
5.95734e-09
6.0342e-09
6.11187e-09
6.19265e-09
6.26665e-09
6.33369e-09
6.39178e-09
6.44932e-09
6.50572e-09
6.54629e-09
6.57188e-09
6.59274e-09
6.61108e-09
6.62845e-09
6.65157e-09
6.675e-09
6.68916e-09
6.69576e-09
6.69999e-09
6.70336e-09
6.70607e-09
6.70826e-09
6.71015e-09
6.7144e-09
6.72074e-09
6.72467e-09
6.72624e-09
6.72663e-09
6.72665e-09
6.72661e-09
6.72651e-09
6.72635e-09
6.7263e-09
6.72631e-09
6.72637e-09
6.72653e-09
6.7269e-09
6.72741e-09
6.72772e-09
6.72779e-09
6.72789e-09
6.72788e-09
6.72781e-09
6.7277e-09
6.72762e-09
6.72748e-09
6.72728e-09
6.72706e-09
6.72684e-09
6.72667e-09
6.72648e-09
6.72628e-09
6.72601e-09
6.72569e-09
6.7252e-09
6.72472e-09
1.63244e-08
1.16439e-08
6.94465e-09
3.05898e-09
7.53181e-10
3.39206e-09
2.63319e-08
8.77006e-08
1.80271e-07
2.74087e-07
3.03612e-07
2.55662e-07
1.83563e-07
1.31137e-07
9.83403e-08
7.74234e-08
6.34616e-08
5.34648e-08
4.60387e-08
4.03892e-08
3.59659e-08
3.24848e-08
2.97918e-08
2.77692e-08
2.63092e-08
2.53116e-08
2.46817e-08
2.43363e-08
2.42113e-08
2.42561e-08
2.44422e-08
2.4724e-08
2.50329e-08
2.53749e-08
2.57013e-08
2.6007e-08
2.62791e-08
2.65551e-08
2.68285e-08
2.70288e-08
2.7159e-08
2.72675e-08
2.73649e-08
2.74588e-08
2.75825e-08
2.77066e-08
2.77841e-08
2.7824e-08
2.78521e-08
2.78759e-08
2.78962e-08
2.79143e-08
2.79312e-08
2.79618e-08
2.80035e-08
2.80318e-08
2.80469e-08
2.80559e-08
2.80629e-08
2.80697e-08
2.80763e-08
2.80825e-08
2.80888e-08
2.80953e-08
2.81018e-08
2.81095e-08
2.81185e-08
2.81272e-08
2.8135e-08
2.81418e-08
2.81482e-08
2.81539e-08
2.8159e-08
2.81639e-08
2.81685e-08
2.81729e-08
2.81767e-08
2.81802e-08
2.81837e-08
2.81873e-08
2.81906e-08
2.81935e-08
2.81958e-08
2.81979e-08
2.81993e-08
2.82002e-08
4.3295e-08
3.02392e-08
1.76671e-08
7.75874e-09
2.10932e-09
1.24669e-08
7.72073e-08
2.39956e-07
4.92529e-07
7.98764e-07
9.7091e-07
8.99475e-07
6.8967e-07
5.0539e-07
3.79738e-07
2.9561e-07
2.37631e-07
1.95431e-07
1.63706e-07
1.3942e-07
1.20467e-07
1.05649e-07
9.42333e-08
8.56401e-08
7.93525e-08
7.49146e-08
7.19267e-08
7.00556e-08
6.90458e-08
6.87041e-08
6.89148e-08
6.95208e-08
7.0298e-08
7.12491e-08
7.22113e-08
7.31534e-08
7.40191e-08
7.4922e-08
7.58272e-08
7.65053e-08
7.6961e-08
7.73487e-08
7.77026e-08
7.80489e-08
7.8498e-08
7.89452e-08
7.92314e-08
7.93895e-08
7.95063e-08
7.96082e-08
7.96974e-08
7.97797e-08
7.98605e-08
7.99959e-08
8.01696e-08
8.02922e-08
8.03651e-08
8.04161e-08
8.04602e-08
8.05034e-08
8.05455e-08
8.05866e-08
8.06272e-08
8.06684e-08
8.07091e-08
8.07555e-08
8.08079e-08
8.08579e-08
8.09032e-08
8.09449e-08
8.0984e-08
8.10206e-08
8.10547e-08
8.1088e-08
8.11194e-08
8.11493e-08
8.11771e-08
8.12038e-08
8.12292e-08
8.12539e-08
8.12773e-08
8.12998e-08
8.13191e-08
8.13374e-08
8.13535e-08
8.13664e-08
9.00972e-08
6.15609e-08
3.51875e-08
1.54582e-08
5.08647e-09
3.65703e-08
1.79705e-07
5.18166e-07
1.05383e-06
1.81836e-06
2.42636e-06
2.4976e-06
2.07853e-06
1.58302e-06
1.20166e-06
9.29902e-07
7.35417e-07
5.91149e-07
4.81517e-07
3.9742e-07
3.32362e-07
2.82145e-07
2.43873e-07
2.15209e-07
1.94153e-07
1.79038e-07
1.68494e-07
1.61433e-07
1.57039e-07
1.54708e-07
1.54068e-07
1.54683e-07
1.55971e-07
1.57892e-07
1.6002e-07
1.62239e-07
1.64366e-07
1.66658e-07
1.68994e-07
1.70789e-07
1.7204e-07
1.73128e-07
1.74136e-07
1.75133e-07
1.76402e-07
1.77653e-07
1.78472e-07
1.78948e-07
1.7931e-07
1.7963e-07
1.79913e-07
1.8018e-07
1.80451e-07
1.80891e-07
1.81433e-07
1.81823e-07
1.82065e-07
1.82245e-07
1.82406e-07
1.82565e-07
1.8272e-07
1.82872e-07
1.83023e-07
1.83175e-07
1.83325e-07
1.83497e-07
1.83689e-07
1.83871e-07
1.84036e-07
1.8419e-07
1.84335e-07
1.84473e-07
1.84602e-07
1.84729e-07
1.8485e-07
1.84965e-07
1.85074e-07
1.8518e-07
1.85279e-07
1.85377e-07
1.85468e-07
1.85556e-07
1.85636e-07
1.85711e-07
1.85779e-07
1.85837e-07
1.57665e-07
1.0533e-07
5.88914e-08
2.61052e-08
1.29538e-08
9.01737e-08
3.53639e-07
9.42673e-07
1.88486e-06
3.44842e-06
5.0075e-06
5.69605e-06
5.20366e-06
4.19756e-06
3.26322e-06
2.53373e-06
1.98494e-06
1.56752e-06
1.24624e-06
9.99262e-07
8.09857e-07
6.65556e-07
5.56846e-07
4.7598e-07
4.16596e-07
3.73589e-07
3.42956e-07
3.21637e-07
3.07375e-07
2.98539e-07
2.94091e-07
2.92967e-07
2.93882e-07
2.96624e-07
3.00254e-07
3.04439e-07
3.08708e-07
3.13518e-07
3.1853e-07
3.22502e-07
3.25385e-07
3.27945e-07
3.30357e-07
3.32762e-07
3.35757e-07
3.38678e-07
3.4063e-07
3.41811e-07
3.42726e-07
3.43535e-07
3.44259e-07
3.44951e-07
3.45676e-07
3.46834e-07
3.48215e-07
3.49212e-07
3.49845e-07
3.50328e-07
3.50768e-07
3.51199e-07
3.51624e-07
3.52044e-07
3.52457e-07
3.52874e-07
3.53289e-07
3.53773e-07
3.54311e-07
3.54819e-07
3.55278e-07
3.55709e-07
3.56114e-07
3.56502e-07
3.5687e-07
3.5723e-07
3.57573e-07
3.57905e-07
3.58218e-07
3.58523e-07
3.58811e-07
3.59092e-07
3.59356e-07
3.59612e-07
3.59846e-07
3.60068e-07
3.60273e-07
3.6045e-07
2.41136e-07
1.57545e-07
8.63474e-08
3.93231e-08
3.39057e-08
1.92127e-07
6.08434e-07
1.49682e-06
2.91906e-06
5.65669e-06
8.83955e-06
1.09161e-05
1.08536e-05
9.38118e-06
7.60492e-06
6.01724e-06
4.72887e-06
3.70874e-06
2.90607e-06
2.2828e-06
1.80496e-06
1.44277e-06
1.17141e-06
9.70226e-07
8.22437e-07
7.14796e-07
6.3712e-07
5.81774e-07
5.43178e-07
5.1734e-07
5.01648e-07
4.93723e-07
4.90974e-07
4.9273e-07
4.97147e-07
5.03433e-07
5.10545e-07
5.19126e-07
5.2838e-07
5.35993e-07
5.41773e-07
5.47035e-07
5.52073e-07
5.57134e-07
5.63294e-07
5.69236e-07
5.73285e-07
5.7582e-07
5.77804e-07
5.79558e-07
5.81135e-07
5.82667e-07
5.84321e-07
5.86931e-07
5.89951e-07
5.92128e-07
5.93523e-07
5.946e-07
5.95581e-07
5.96544e-07
5.97494e-07
5.98438e-07
5.99368e-07
6.00301e-07
6.0124e-07
6.02378e-07
6.03644e-07
6.04825e-07
6.05884e-07
6.06877e-07
6.07815e-07
6.08715e-07
6.09573e-07
6.10414e-07
6.1122e-07
6.12001e-07
6.12741e-07
6.13464e-07
6.14149e-07
6.14814e-07
6.15441e-07
6.16048e-07
6.16609e-07
6.17142e-07
6.17638e-07
6.18072e-07
3.29995e-07
2.11233e-07
1.14258e-07
5.55899e-08
8.77087e-08
3.5999e-07
9.32664e-07
2.11752e-06
3.99018e-06
8.22522e-06
1.37221e-05
1.80859e-05
1.92262e-05
1.7691e-05
1.50574e-05
1.23137e-05
9.86713e-06
7.81048e-06
6.12612e-06
4.78197e-06
3.73383e-06
2.9312e-06
2.32572e-06
1.87446e-06
1.54122e-06
1.29685e-06
1.11873e-06
9.89833e-07
8.97618e-07
8.33095e-07
7.9022e-07
7.63937e-07
7.49305e-07
7.44568e-07
7.46385e-07
7.53089e-07
7.62633e-07
7.75676e-07
7.90579e-07
8.03443e-07
8.13727e-07
8.23376e-07
8.32791e-07
8.42319e-07
8.53651e-07
8.64472e-07
8.71988e-07
8.76841e-07
8.80663e-07
8.84029e-07
8.87071e-07
8.90088e-07
8.93444e-07
8.98655e-07
9.04507e-07
9.08708e-07
9.11402e-07
9.1348e-07
9.15368e-07
9.17216e-07
9.19038e-07
9.20858e-07
9.22652e-07
9.24448e-07
9.26287e-07
9.28636e-07
9.31243e-07
9.33635e-07
9.35761e-07
9.37746e-07
9.39625e-07
9.41435e-07
9.43168e-07
9.4487e-07
9.46505e-07
9.48096e-07
9.49613e-07
9.51092e-07
9.525e-07
9.53862e-07
9.5515e-07
9.56399e-07
9.57562e-07
9.58664e-07
9.597e-07
9.60615e-07
4.10558e-07
2.58701e-07
1.40342e-07
8.74187e-08
2.01182e-07
6.00423e-07
1.2876e-06
2.7017e-06
4.85249e-06
1.07795e-05
1.91587e-05
2.66591e-05
2.98646e-05
2.89389e-05
2.57816e-05
2.18938e-05
1.80733e-05
1.46353e-05
1.16662e-05
9.19095e-06
7.1918e-06
5.61781e-06
4.40404e-06
3.48353e-06
2.79421e-06
2.28262e-06
1.90543e-06
1.62895e-06
1.42769e-06
1.28301e-06
1.18194e-06
1.11415e-06
1.07048e-06
1.04681e-06
1.03732e-06
1.03878e-06
1.04752e-06
1.0638e-06
1.08458e-06
1.10378e-06
1.12015e-06
1.13611e-06
1.15206e-06
1.16836e-06
1.18733e-06
1.2053e-06
1.21802e-06
1.22647e-06
1.23316e-06
1.23902e-06
1.24436e-06
1.2498e-06
1.25601e-06
1.26542e-06
1.27568e-06
1.283e-06
1.28767e-06
1.29124e-06
1.29447e-06
1.29759e-06
1.30067e-06
1.30376e-06
1.3068e-06
1.30985e-06
1.31306e-06
1.31744e-06
1.32227e-06
1.32662e-06
1.33043e-06
1.33397e-06
1.33733e-06
1.34056e-06
1.34368e-06
1.34675e-06
1.34971e-06
1.3526e-06
1.35537e-06
1.35807e-06
1.36065e-06
1.36314e-06
1.3655e-06
1.36779e-06
1.36994e-06
1.37198e-06
1.37391e-06
1.37563e-06
4.70282e-07
2.94693e-07
1.66058e-07
1.56957e-07
3.88284e-07
8.98799e-07
1.61024e-06
3.13014e-06
5.23051e-06
1.28687e-05
2.45476e-05
3.58074e-05
4.18932e-05
4.23679e-05
3.9288e-05
3.46081e-05
2.95274e-05
2.46275e-05
2.01461e-05
1.62106e-05
1.28797e-05
1.01463e-05
7.9615e-06
6.2536e-06
4.94223e-06
3.94879e-06
3.20374e-06
2.64934e-06
2.23965e-06
1.93952e-06
1.72337e-06
1.57113e-06
1.46601e-06
1.39907e-06
1.36027e-06
1.34353e-06
1.34266e-06
1.35679e-06
1.38075e-06
1.40561e-06
1.42874e-06
1.4526e-06
1.47726e-06
1.50282e-06
1.53206e-06
1.5596e-06
1.57951e-06
1.5931e-06
1.60389e-06
1.61331e-06
1.62204e-06
1.6312e-06
1.64185e-06
1.65746e-06
1.67396e-06
1.68563e-06
1.69302e-06
1.69859e-06
1.70353e-06
1.70827e-06
1.7129e-06
1.71756e-06
1.72215e-06
1.72676e-06
1.73187e-06
1.7394e-06
1.74762e-06
1.75481e-06
1.76102e-06
1.76675e-06
1.77218e-06
1.77743e-06
1.78251e-06
1.78752e-06
1.79238e-06
1.79715e-06
1.80174e-06
1.80621e-06
1.81049e-06
1.81462e-06
1.81855e-06
1.82238e-06
1.82601e-06
1.82946e-06
1.83274e-06
1.83569e-06
5.02537e-07
3.19656e-07
2.20344e-07
3.00497e-07
6.42431e-07
1.214e-06
1.82903e-06
3.30302e-06
4.94613e-06
1.40736e-05
2.91029e-05
4.46158e-05
5.43037e-05
5.69728e-05
5.46956e-05
4.98096e-05
4.38816e-05
3.77533e-05
3.18199e-05
2.63237e-05
2.1427e-05
1.72088e-05
1.36814e-05
1.08089e-05
8.52253e-06
6.73645e-06
5.36202e-06
4.3172e-06
3.53081e-06
2.94451e-06
2.51301e-06
2.19987e-06
1.97522e-06
1.82088e-06
1.71933e-06
1.6593e-06
1.63045e-06
1.62953e-06
1.64829e-06
1.67429e-06
1.70249e-06
1.73438e-06
1.76907e-06
1.80592e-06
1.84768e-06
1.88699e-06
1.91609e-06
1.93651e-06
1.9528e-06
1.96706e-06
1.98058e-06
1.99522e-06
2.01233e-06
2.03631e-06
2.06086e-06
2.0781e-06
2.08888e-06
2.0968e-06
2.10364e-06
2.11008e-06
2.11631e-06
2.12256e-06
2.12873e-06
2.13495e-06
2.14251e-06
2.15461e-06
2.16754e-06
2.17852e-06
2.18779e-06
2.19627e-06
2.2043e-06
2.21209e-06
2.21965e-06
2.22713e-06
2.23445e-06
2.24164e-06
2.24861e-06
2.2554e-06
2.26191e-06
2.26818e-06
2.27421e-06
2.28014e-06
2.28583e-06
2.29127e-06
2.29644e-06
2.30115e-06
5.1032e-07
3.47679e-07
3.4063e-07
5.39469e-07
9.27352e-07
1.48441e-06
1.89764e-06
3.17554e-06
4.28805e-06
1.40952e-05
3.21173e-05
5.21968e-05
6.61343e-05
7.17561e-05
7.10248e-05
6.66144e-05
6.04281e-05
5.3544e-05
4.64979e-05
3.96269e-05
3.31883e-05
2.73577e-05
2.22374e-05
1.7867e-05
1.42323e-05
1.12771e-05
8.92133e-06
7.07534e-06
5.64984e-06
4.56333e-06
3.74654e-06
3.14022e-06
2.69443e-06
2.37514e-06
2.15176e-06
2.00345e-06
1.91262e-06
1.87133e-06
1.86688e-06
1.88246e-06
1.90931e-06
1.94609e-06
1.98985e-06
2.03848e-06
2.09384e-06
2.14638e-06
2.18644e-06
2.21543e-06
2.2388e-06
2.25947e-06
2.27968e-06
2.30207e-06
2.32798e-06
2.36232e-06
2.39635e-06
2.42007e-06
2.43463e-06
2.44493e-06
2.45346e-06
2.46122e-06
2.46859e-06
2.47595e-06
2.48318e-06
2.49064e-06
2.50126e-06
2.51955e-06
2.53851e-06
2.55404e-06
2.5668e-06
2.57833e-06
2.58921e-06
2.59977e-06
2.61008e-06
2.62031e-06
2.63039e-06
2.64037e-06
2.65009e-06
2.65957e-06
2.66865e-06
2.67743e-06
2.686e-06
2.69462e-06
2.703e-06
2.71107e-06
2.71876e-06
2.72584e-06
5.13228e-07
4.50445e-07
5.69411e-07
8.2881e-07
1.18102e-06
1.64687e-06
1.81031e-06
2.77929e-06
3.53661e-06
1.27983e-05
3.29617e-05
5.77152e-05
7.65195e-05
8.58379e-05
8.73782e-05
8.41316e-05
7.83303e-05
7.12778e-05
6.36366e-05
5.58126e-05
4.81257e-05
4.08255e-05
3.40986e-05
2.80729e-05
2.28174e-05
1.83446e-05
1.46224e-05
1.15891e-05
9.16363e-06
7.25803e-06
5.78622e-06
4.66674e-06
3.82564e-06
3.20626e-06
2.75761e-06
2.44221e-06
2.22953e-06
2.10238e-06
2.04092e-06
2.02272e-06
2.03344e-06
2.0661e-06
2.11362e-06
2.1713e-06
2.23901e-06
2.30483e-06
2.35707e-06
2.39647e-06
2.42894e-06
2.45829e-06
2.48779e-06
2.52071e-06
2.55775e-06
2.60378e-06
2.64791e-06
2.67841e-06
2.69665e-06
2.70881e-06
2.7182e-06
2.72625e-06
2.73356e-06
2.74073e-06
2.74773e-06
2.75552e-06
2.77001e-06
2.7961e-06
2.82208e-06
2.8425e-06
2.85869e-06
2.87301e-06
2.88643e-06
2.89944e-06
2.91219e-06
2.92492e-06
2.93756e-06
2.95019e-06
2.96255e-06
2.97461e-06
2.98617e-06
2.99741e-06
3.00886e-06
3.02074e-06
3.03251e-06
3.04391e-06
3.0548e-06
3.06491e-06
6.15897e-07
6.56444e-07
8.79537e-07
1.10338e-06
1.33607e-06
1.66276e-06
1.59995e-06
2.21854e-06
2.67422e-06
1.03362e-05
3.11807e-05
6.03761e-05
8.46612e-05
9.84487e-05
0.000102985
0.000101574
9.67908e-05
9.01733e-05
8.25172e-05
7.42857e-05
6.58333e-05
5.74489e-05
4.93717e-05
4.17972e-05
3.48741e-05
2.86975e-05
2.33117e-05
1.87196e-05
1.48873e-05
1.17551e-05
9.24747e-06
7.27785e-06
5.75715e-06
4.60703e-06
3.75165e-06
3.12946e-06
2.68881e-06
2.3955e-06
2.21677e-06
2.1214e-06
2.08711e-06
2.09717e-06
2.13607e-06
2.19458e-06
2.26938e-06
2.34613e-06
2.41093e-06
2.46295e-06
2.50768e-06
2.54923e-06
2.59159e-06
2.63805e-06
2.68812e-06
2.74605e-06
2.79974e-06
2.83642e-06
2.85751e-06
2.8703e-06
2.87895e-06
2.88538e-06
2.89052e-06
2.89524e-06
2.89971e-06
2.90659e-06
2.9262e-06
2.96138e-06
2.9947e-06
3.01958e-06
3.03832e-06
3.05431e-06
3.06903e-06
3.08322e-06
3.09717e-06
3.11119e-06
3.12527e-06
3.13948e-06
3.15347e-06
3.16712e-06
3.18019e-06
3.19324e-06
3.20777e-06
3.22358e-06
3.23951e-06
3.25496e-06
3.26971e-06
3.28354e-06
8.41943e-07
1.00189e-06
1.17729e-06
1.28893e-06
1.35004e-06
1.53827e-06
1.32855e-06
1.63575e-06
1.82029e-06
7.30358e-06
2.66998e-05
5.94197e-05
8.9775e-05
0.000108869
0.000117162
0.000118265
0.000115114
0.00010951
0.000102407
9.4334e-05
8.56733e-05
7.67302e-05
6.7764e-05
5.90025e-05
5.06434e-05
4.28451e-05
3.57251e-05
2.93631e-05
2.37992e-05
1.9038e-05
1.50536e-05
1.17912e-05
9.1762e-06
7.12887e-06
5.55901e-06
4.38217e-06
3.52058e-06
2.91438e-06
2.50863e-06
2.25618e-06
2.12245e-06
2.07572e-06
2.08341e-06
2.12639e-06
2.19684e-06
2.2782e-06
2.35449e-06
2.42216e-06
2.48439e-06
2.54369e-06
2.60342e-06
2.66628e-06
2.73039e-06
2.79908e-06
2.86049e-06
2.90176e-06
2.92402e-06
2.93541e-06
2.94091e-06
2.94295e-06
2.94285e-06
2.94178e-06
2.94042e-06
2.94549e-06
2.97219e-06
3.01703e-06
3.05691e-06
3.08478e-06
3.10409e-06
3.11941e-06
3.13284e-06
3.14556e-06
3.15803e-06
3.17066e-06
3.18358e-06
3.19683e-06
3.20994e-06
3.22267e-06
3.23493e-06
3.2484e-06
3.26643e-06
3.28703e-06
3.3079e-06
3.32809e-06
3.34723e-06
3.36528e-06
1.22353e-06
1.32576e-06
1.37673e-06
1.33478e-06
1.22907e-06
1.32477e-06
1.06897e-06
1.15995e-06
1.27e-06
4.5197e-06
2.01281e-05
5.4176e-05
9.10582e-05
0.000116357
0.000129237
0.000133578
0.000132686
0.000128658
0.000122642
0.000115264
0.00010694
9.79928e-05
8.86864e-05
7.92559e-05
6.99148e-05
6.08504e-05
5.22222e-05
4.41659e-05
3.67885e-05
3.0168e-05
2.43523e-05
1.93539e-05
1.51549e-05
1.1715e-05
8.96448e-06
6.82113e-06
5.19406e-06
4.00006e-06
3.15656e-06
2.59142e-06
2.25036e-06
2.08137e-06
2.02024e-06
2.02077e-06
2.067e-06
2.14062e-06
2.2245e-06
2.31137e-06
2.39882e-06
2.48369e-06
2.56609e-06
2.64779e-06
2.72601e-06
2.80324e-06
2.86953e-06
2.91285e-06
2.93379e-06
2.94104e-06
2.94022e-06
2.93425e-06
2.92487e-06
2.91357e-06
2.90239e-06
2.90646e-06
2.94326e-06
2.99725e-06
3.04159e-06
3.06963e-06
3.08611e-06
3.09679e-06
3.10457e-06
3.11118e-06
3.11741e-06
3.12383e-06
3.13079e-06
3.13825e-06
3.14563e-06
3.15274e-06
3.15993e-06
3.17221e-06
3.1949e-06
3.22142e-06
3.2479e-06
3.27314e-06
3.29682e-06
3.31916e-06
1.55627e-06
1.52704e-06
1.42218e-06
1.24e-06
1.02809e-06
1.09718e-06
9.08526e-07
9.45968e-07
1.00184e-06
2.48299e-06
1.29828e-05
4.42228e-05
8.77509e-05
0.000120096
0.000138478
0.000146867
0.000148909
0.000147038
0.000142635
0.000136453
0.000128972
0.000120538
0.000111429
0.000101881
9.21072e-05
8.23007e-05
7.2631e-05
6.32538e-05
5.43088e-05
4.59207e-05
3.81976e-05
3.12225e-05
2.50546e-05
1.97286e-05
1.52412e-05
1.15594e-05
8.62308e-06
6.3582e-06
4.67343e-06
3.47769e-06
2.69645e-06
2.26083e-06
2.05954e-06
1.97606e-06
1.96753e-06
2.01285e-06
2.09518e-06
2.20323e-06
2.32512e-06
2.44605e-06
2.55827e-06
2.66197e-06
2.75452e-06
2.838e-06
2.90594e-06
2.94816e-06
2.96442e-06
2.96381e-06
2.95242e-06
2.93355e-06
2.9094e-06
2.8819e-06
2.85662e-06
2.86484e-06
2.91583e-06
2.97726e-06
3.02234e-06
3.04602e-06
3.05429e-06
3.05401e-06
3.0491e-06
3.04207e-06
3.03416e-06
3.0263e-06
3.01912e-06
3.01247e-06
3.00593e-06
2.99974e-06
2.99524e-06
3.00612e-06
3.03593e-06
3.06951e-06
3.10167e-06
3.13143e-06
3.15881e-06
3.18452e-06
3.18777e-06
1.72825e-06
1.54967e-06
1.31619e-06
1.05548e-06
8.31156e-07
9.33627e-07
8.83146e-07
9.07261e-07
9.23324e-07
1.59546e-06
7.17243e-06
3.14388e-05
7.92872e-05
0.000119148
0.00014403
0.000157394
0.000163132
0.000164053
0.000161815
0.000157333
0.000151174
0.000143733
0.000135308
0.000126148
0.000116473
0.000106476
9.63248e-05
8.61739e-05
7.61637e-05
6.64275e-05
5.70937e-05
4.82801e-05
4.00991e-05
3.26534e-05
2.60197e-05
2.02484e-05
1.5357e-05
1.13366e-05
8.14364e-06
5.71321e-06
3.98503e-06
2.92036e-06
2.42454e-06
2.2137e-06
2.13551e-06
2.15113e-06
2.23155e-06
2.35753e-06
2.51137e-06
2.66787e-06
2.80713e-06
2.926e-06
3.02305e-06
3.10107e-06
3.15822e-06
3.18651e-06
3.18526e-06
3.16407e-06
3.12986e-06
3.086e-06
3.03486e-06
2.9791e-06
2.93355e-06
2.9584e-06
3.02874e-06
3.09431e-06
3.13378e-06
3.14513e-06
3.13551e-06
3.11305e-06
3.08313e-06
3.04923e-06
3.01323e-06
2.97709e-06
2.94163e-06
2.90694e-06
2.87332e-06
2.84201e-06
2.81675e-06
2.83054e-06
2.87099e-06
2.91202e-06
2.94835e-06
2.98024e-06
3.00859e-06
3.03478e-06
3.04244e-06
1.69369e-06
1.40873e-06
1.11805e-06
8.6283e-07
7.5827e-07
9.19026e-07
9.6308e-07
9.90176e-07
9.78559e-07
1.31108e-06
3.60094e-06
1.9071e-05
6.54013e-05
0.000112425
0.000144879
0.000164274
0.000174583
0.00017902
0.000179561
0.000177322
0.000172982
0.000166999
0.000159713
0.000151397
0.000142288
0.000132591
0.000122482
0.000112112
0.000101616
9.11172e-05
8.07336e-05
7.05776e-05
6.07679e-05
5.14287e-05
4.26783e-05
3.46276e-05
2.73711e-05
2.0987e-05
1.5521e-05
1.09957e-05
7.42827e-06
4.96545e-06
3.86724e-06
3.2782e-06
2.97463e-06
2.87155e-06
2.91239e-06
3.06044e-06
3.28759e-06
3.55077e-06
3.79566e-06
3.99528e-06
4.15005e-06
4.26559e-06
4.34568e-06
4.38497e-06
4.37878e-06
4.34152e-06
4.28385e-06
4.20898e-06
4.12096e-06
4.02341e-06
3.92476e-06
3.86165e-06
3.84044e-06
3.82247e-06
3.78371e-06
3.72143e-06
3.64117e-06
3.55152e-06
3.45637e-06
3.35795e-06
3.25808e-06
3.16101e-06
3.06678e-06
2.97641e-06
2.89153e-06
2.81441e-06
2.75473e-06
2.78303e-06
2.83737e-06
2.88359e-06
2.91899e-06
2.94658e-06
2.96903e-06
2.98869e-06
2.99387e-06
1.49181e-06
1.18079e-06
9.17837e-07
7.86024e-07
7.82989e-07
1.02189e-06
1.13027e-06
1.16389e-06
1.13327e-06
1.37725e-06
2.1722e-06
9.67289e-06
4.68831e-05
9.88746e-05
0.000139857
0.00016643
0.00018231
0.000191102
0.000195131
0.000195749
0.000193776
0.000189753
0.000184072
0.000177041
0.000168926
0.000159957
0.000150329
0.000140208
0.000129736
0.00011903
0.000108196
9.73298e-05
8.65283e-05
7.58974e-05
6.5546e-05
5.55886e-05
4.61409e-05
3.7322e-05
2.92399e-05
2.19954e-05
1.5696e-05
1.05945e-05
7.68656e-06
6.04614e-06
5.08698e-06
4.59793e-06
4.44723e-06
4.54803e-06
4.85991e-06
5.32669e-06
5.83674e-06
6.26289e-06
6.59546e-06
6.84977e-06
7.03501e-06
7.1506e-06
7.18507e-06
7.15961e-06
7.09318e-06
6.98913e-06
6.85489e-06
6.69729e-06
6.52487e-06
6.36151e-06
6.22654e-06
6.09386e-06
5.93916e-06
5.76032e-06
5.56399e-06
5.35749e-06
5.14246e-06
4.92019e-06
4.69461e-06
4.4728e-06
4.2602e-06
4.06068e-06
3.877e-06
3.71198e-06
3.57226e-06
3.49197e-06
3.45138e-06
3.42001e-06
3.39147e-06
3.36558e-06
3.34179e-06
3.32132e-06
3.29839e-06
1.22304e-06
9.71913e-07
8.40252e-07
8.05788e-07
8.88437e-07
1.22242e-06
1.36763e-06
1.40258e-06
1.35919e-06
1.57577e-06
1.73005e-06
4.67636e-06
2.66039e-05
7.83328e-05
0.000127777
0.000162577
0.000185141
0.000199259
0.000207598
0.000211785
0.00021281
0.000211317
0.000207762
0.000202495
0.000195815
0.000187985
0.000179232
0.000169752
0.000159707
0.000149229
0.000138428
0.000127394
0.000116211
0.00010496
9.37238e-05
8.2588e-05
7.16417e-05
6.09843e-05
5.07181e-05
4.09575e-05
3.18453e-05
2.36093e-05
1.68625e-05
1.26524e-05
9.99516e-06
8.39562e-06
7.57399e-06
7.33366e-06
7.58712e-06
8.27965e-06
9.29178e-06
1.02385e-05
1.09756e-05
1.15843e-05
1.20714e-05
1.24235e-05
1.26183e-05
1.26886e-05
1.26768e-05
1.25843e-05
1.24236e-05
1.22108e-05
1.19581e-05
1.16785e-05
1.13986e-05
1.11033e-05
1.07711e-05
1.04016e-05
1.00024e-05
9.58036e-06
9.13348e-06
8.66662e-06
8.19867e-06
7.75033e-06
7.33087e-06
6.94238e-06
6.58418e-06
6.25768e-06
5.96695e-06
5.72932e-06
5.54096e-06
5.37898e-06
5.23599e-06
5.10975e-06
4.99989e-06
4.90408e-06
4.81793e-06
1.01642e-06
8.97404e-07
8.64231e-07
9.05924e-07
1.06117e-06
1.50435e-06
1.65231e-06
1.67788e-06
1.62601e-06
1.84262e-06
1.7161e-06
2.7411e-06
1.24168e-05
5.3144e-05
0.000107672
0.000151244
0.000181663
0.000202204
0.000215801
0.000224379
0.000229135
0.000230837
0.000230014
0.000227066
0.000222327
0.000216095
0.000208631
0.00020017
0.000190907
0.000181004
0.000170594
0.00015978
0.000148652
0.000137288
0.000125759
0.000114129
0.000102459
9.0813e-05
7.92558e-05
6.78643e-05
5.67454e-05
4.60636e-05
3.60868e-05
2.7068e-05
2.08486e-05
1.66361e-05
1.39712e-05
1.2573e-05
1.222e-05
1.28146e-05
1.44408e-05
1.64725e-05
1.78355e-05
1.88183e-05
1.95652e-05
2.01499e-05
2.05372e-05
2.07495e-05
2.08601e-05
2.08529e-05
2.0736e-05
2.05377e-05
2.02706e-05
1.99422e-05
1.95835e-05
1.91799e-05
1.87134e-05
1.81967e-05
1.76464e-05
1.70706e-05
1.64603e-05
1.58147e-05
1.51458e-05
1.44691e-05
1.37971e-05
1.31397e-05
1.25061e-05
1.19058e-05
1.13478e-05
1.08444e-05
1.03999e-05
1.00005e-05
9.63895e-06
9.31219e-06
9.01826e-06
8.75507e-06
8.51524e-06
9.53734e-07
9.30283e-07
9.71606e-07
1.07328e-06
1.28464e-06
1.84852e-06
1.95511e-06
1.9598e-06
1.90253e-06
2.12683e-06
1.89104e-06
2.1236e-06
5.71787e-06
2.91009e-05
7.96218e-05
0.000130982
0.000170249
0.000198382
0.000218304
0.000232218
0.000241549
0.000247213
0.000249834
0.000249863
0.00024767
0.000243584
0.000237902
0.000230896
0.000222802
0.000213819
0.000204114
0.000193819
0.000183046
0.000171893
0.000160438
0.00014875
0.000136884
0.000124891
0.000112812
0.00010069
8.85823e-05
7.65685e-05
6.47557e-05
5.33058e-05
4.23393e-05
3.3367e-05
2.69027e-05
2.27071e-05
2.04303e-05
1.98409e-05
2.10387e-05
2.37566e-05
2.57575e-05
2.71691e-05
2.82529e-05
2.91521e-05
2.98256e-05
3.02615e-05
3.05876e-05
3.07658e-05
3.07833e-05
3.0695e-05
3.05076e-05
3.02205e-05
2.9874e-05
2.94437e-05
2.89109e-05
2.83044e-05
2.76544e-05
2.69695e-05
2.62286e-05
2.54288e-05
2.45855e-05
2.37144e-05
2.28249e-05
2.19254e-05
2.10289e-05
2.01515e-05
1.93086e-05
1.85129e-05
1.77721e-05
1.70835e-05
1.64456e-05
1.58594e-05
1.53256e-05
1.48446e-05
1.44113e-05
1.40049e-05
1.36794e-05
1.34049e-05
1.00278e-06
1.04959e-06
1.14678e-06
1.29167e-06
1.53761e-06
2.23144e-06
2.24431e-06
2.22179e-06
2.16232e-06
2.39329e-06
2.13633e-06
2.03929e-06
3.21595e-06
1.22987e-05
4.78612e-05
0.00010132
0.000149231
0.000185986
0.000213381
0.000233687
0.000248545
0.00025905
0.000265933
0.000269709
0.000270784
0.000269513
0.000266223
0.000261218
0.000254775
0.000247132
0.000238496
0.000229034
0.000218892
0.000208196
0.000197052
0.000185549
0.000173759
0.000161745
0.000149552
0.000137216
0.000124773
0.000112259
9.97097e-05
8.71827e-05
7.47015e-05
6.26151e-05
5.05743e-05
4.17804e-05
3.54664e-05
3.17392e-05
3.05667e-05
3.18824e-05
3.44034e-05
3.6234e-05
3.76518e-05
3.88586e-05
3.98388e-05
4.05244e-05
4.11069e-05
4.15436e-05
4.17575e-05
4.18608e-05
4.18423e-05
4.16855e-05
4.14525e-05
4.11001e-05
4.05977e-05
3.99906e-05
3.93298e-05
3.86238e-05
3.78318e-05
3.69477e-05
3.59951e-05
3.49943e-05
3.39528e-05
3.28734e-05
3.17689e-05
3.06596e-05
2.95652e-05
2.84982e-05
2.74664e-05
2.64742e-05
2.55282e-05
2.46371e-05
2.38076e-05
2.30453e-05
2.23493e-05
2.17131e-05
2.11685e-05
2.07074e-05
1.13932e-06
1.23639e-06
1.3711e-06
1.54024e-06
1.7972e-06
2.56021e-06
2.49091e-06
2.44607e-06
2.38867e-06
2.61994e-06
2.38431e-06
2.16963e-06
2.45818e-06
5.76717e-06
2.25307e-05
6.47037e-05
0.000117417
0.000163096
0.00019904
0.00022686
0.000248294
0.000264615
0.000276682
0.000285088
0.000290273
0.000292614
0.000292459
0.00029014
0.000285965
0.000280212
0.000273125
0.000264909
0.000255748
0.000245801
0.000235207
0.000224088
0.000212545
0.000200666
0.000188519
0.000176158
0.000163628
0.000150963
0.000138186
0.000125319
0.000112373
9.9384e-05
8.63641e-05
7.35119e-05
6.13904e-05
5.25774e-05
4.68854e-05
4.40416e-05
4.42715e-05
4.60973e-05
4.76817e-05
4.90277e-05
5.01799e-05
5.10494e-05
5.18152e-05
5.25204e-05
5.29225e-05
5.32444e-05
5.34446e-05
5.34692e-05
5.34211e-05
5.32354e-05
5.28519e-05
5.23284e-05
5.17477e-05
5.11175e-05
5.03675e-05
4.94879e-05
4.85133e-05
4.74719e-05
4.63682e-05
4.51959e-05
4.39667e-05
4.2705e-05
4.14339e-05
4.01631e-05
3.88955e-05
3.76365e-05
3.6399e-05
3.51998e-05
3.40542e-05
3.29744e-05
3.19661e-05
3.10337e-05
3.01987e-05
2.94694e-05
1.34067e-06
1.46883e-06
1.62202e-06
1.79645e-06
2.0438e-06
2.76752e-06
2.68253e-06
2.62668e-06
2.57596e-06
2.79997e-06
2.60021e-06
2.3712e-06
2.36222e-06
3.34728e-06
9.0616e-06
3.05858e-05
7.64223e-05
0.00012827
0.000173186
0.000209549
0.000238645
0.000261828
0.000280087
0.000294097
0.000304343
0.000311217
0.00031508
0.000316278
0.000315145
0.000311987
0.000307084
0.000300678
0.000292987
0.000284206
0.00027451
0.000264052
0.00025297
0.000241385
0.000229395
0.000217087
0.000204531
0.000191784
0.000178889
0.000165878
0.00015277
0.000139563
0.00012628
0.000112849
9.95765e-05
8.5951e-05
7.43523e-05
6.56445e-05
6.05901e-05
5.81058e-05
5.91427e-05
6.00344e-05
6.0961e-05
6.18175e-05
6.24851e-05
6.33642e-05
6.38325e-05
6.42967e-05
6.46955e-05
6.48823e-05
6.50269e-05
6.5048e-05
6.4831e-05
6.44388e-05
6.40022e-05
6.35227e-05
6.28888e-05
6.20891e-05
6.11724e-05
6.01782e-05
5.91054e-05
5.79315e-05
5.66681e-05
5.53459e-05
5.39924e-05
5.26129e-05
5.11999e-05
4.97525e-05
4.82853e-05
4.68219e-05
4.53853e-05
4.39948e-05
4.26625e-05
4.14e-05
4.02274e-05
3.91644e-05
1.58175e-06
1.72247e-06
1.87667e-06
2.0408e-06
2.26453e-06
2.88064e-06
2.82827e-06
2.76736e-06
2.72706e-06
2.93639e-06
2.77449e-06
2.57495e-06
2.42508e-06
2.65621e-06
4.35327e-06
1.17313e-05
3.68167e-05
8.31451e-05
0.000134317
0.000179517
0.000217207
0.000248292
0.000273786
0.000294438
0.000310777
0.000323209
0.000332095
0.000337785
0.000340622
0.000340934
0.000339025
0.000335168
0.000329614
0.000322589
0.000314301
0.000304938
0.000294671
0.000283656
0.000272028
0.000259906
0.000247398
0.000234595
0.000221572
0.000208394
0.000195105
0.000181731
0.000168292
0.000154764
0.000141231
0.000127493
0.000114215
0.000100126
8.89693e-05
8.02716e-05
7.51208e-05
7.33592e-05
7.32075e-05
7.35783e-05
7.35214e-05
7.43033e-05
7.4549e-05
7.48896e-05
7.53654e-05
7.55868e-05
7.58265e-05
7.60154e-05
7.59421e-05
7.56636e-05
7.53855e-05
7.50857e-05
7.45961e-05
7.3911e-05
7.30976e-05
7.22127e-05
7.12437e-05
7.01384e-05
6.89141e-05
6.76122e-05
6.62667e-05
6.48773e-05
6.34215e-05
6.18852e-05
6.02793e-05
5.86313e-05
5.69702e-05
5.53202e-05
5.3698e-05
5.21183e-05
5.06019e-05
4.91759e-05
1.83681e-06
1.97447e-06
2.11649e-06
2.26025e-06
2.4538e-06
2.94201e-06
2.94388e-06
2.87511e-06
2.84894e-06
3.03682e-06
2.91278e-06
2.75386e-06