/*--------------------------------*- C++ -*----------------------------------*\
| =========                 |                                                 |
| \\      /  F ield         | OpenFOAM: The Open Source CFD Toolbox           |
|  \\    /   O peration     | Version:  2412                                  |
|   \\  /    A nd           | Website:  www.openfoam.com                      |
|    \\/     M anipulation  |                                                 |
\*---------------------------------------------------------------------------*/
FoamFile
{
    version     2.0;
    format      ascii;
    arch        "LSB;label=32;scalar=64";
    class       volScalarField;
    location    "220";
    object      p;
}
// * * * * * * * * * * * * * * * * * * * * * * * * * * * * * * * * * * * * * //

dimensions      [0 2 -2 0 0 0 0];

internalField   nonuniform List<scalar> 
8659
(
377.268
403.957
427.983
443.826
436.845
382.127
246.846
-60.5801
-452.399
-844.784
-1110.2
-1205.7
-1182.74
-1126.64
-1064.52
-1003.81
-948.022
-897.172
-851.265
-810.104
-772.981
-739.339
-708.708
-680.677
-654.881
-631.002
-608.829
-588.108
-568.685
-550.419
-533.15
-516.818
-501.277
-486.479
-472.343
-458.802
-445.816
-433.316
-421.278
-409.653
-398.414
-387.539
-376.99
-366.751
-356.801
-347.121
-337.7
-328.522
-319.576
-310.852
-302.337
-294.027
-285.913
-277.984
-270.245
-262.669
-255.298
-248.078
-241.035
-234.164
-227.463
-220.938
-214.585
-208.397
-202.386
-196.543
-190.864
-185.347
-179.988
-174.78
-169.721
-164.803
-160.02
-155.371
-150.847
-146.446
-142.162
-137.985
-133.913
-129.942
-126.067
-122.276
-118.57
-114.949
-111.404
-107.936
377.267
403.957
427.983
443.824
436.842
382.121
246.834
-60.5938
-452.399
-844.779
-1110.19
-1205.69
-1182.73
-1126.64
-1064.52
-1003.81
-948.021
-897.172
-851.265
-810.104
-772.981
-739.339
-708.708
-680.677
-654.881
-631.002
-608.829
-588.108
-568.685
-550.419
-533.15
-516.818
-501.277
-486.479
-472.343
-458.802
-445.816
-433.316
-421.278
-409.653
-398.414
-387.539
-376.99
-366.751
-356.801
-347.121
-337.7
-328.522
-319.576
-310.852
-302.337
-294.027
-285.912
-277.984
-270.245
-262.669
-255.298
-248.078
-241.035
-234.164
-227.463
-220.938
-214.585
-208.397
-202.386
-196.543
-190.864
-185.347
-179.988
-174.78
-169.721
-164.803
-160.02
-155.371
-150.847
-146.446
-142.162
-137.985
-133.913
-129.942
-126.067
-122.276
-118.57
-114.949
-111.404
-107.936
377.268
403.957
427.982
443.822
436.838
382.111
246.814
-60.608
-452.386
-844.747
-1110.16
-1205.67
-1182.73
-1126.64
-1064.52
-1003.81
-948.021
-897.171
-851.264
-810.104
-772.981
-739.339
-708.708
-680.677
-654.881
-631.002
-608.829
-588.108
-568.685
-550.419
-533.15
-516.818
-501.277
-486.479
-472.343
-458.802
-445.816
-433.316
-421.278
-409.653
-398.414
-387.539
-376.99
-366.751
-356.801
-347.121
-337.7
-328.522
-319.576
-310.852
-302.337
-294.027
-285.912
-277.984
-270.245
-262.669
-255.298
-248.078
-241.035
-234.164
-227.463
-220.938
-214.585
-208.397
-202.386
-196.543
-190.864
-185.347
-179.988
-174.78
-169.721
-164.803
-160.02
-155.371
-150.847
-146.446
-142.162
-137.985
-133.913
-129.942
-126.067
-122.276
-118.57
-114.949
-111.404
-107.936
377.268
403.957
427.982
443.821
436.833
382.1
246.791
-60.6077
-452.348
-844.679
-1110.1
-1205.64
-1182.72
-1126.64
-1064.52
-1003.81
-948.021
-897.171
-851.264
-810.104
-772.981
-739.339
-708.708
-680.677
-654.881
-631.002
-608.829
-588.108
-568.685
-550.419
-533.15
-516.818
-501.277
-486.479
-472.343
-458.802
-445.816
-433.316
-421.278
-409.653
-398.414
-387.539
-376.99
-366.751
-356.801
-347.121
-337.7
-328.522
-319.576
-310.852
-302.337
-294.027
-285.912
-277.984
-270.245
-262.669
-255.298
-248.077
-241.035
-234.164
-227.463
-220.938
-214.585
-208.397
-202.386
-196.543
-190.864
-185.347
-179.988
-174.78
-169.721
-164.803
-160.02
-155.37
-150.847
-146.446
-142.162
-137.985
-133.913
-129.942
-126.067
-122.276
-118.57
-114.949
-111.404
-107.936
377.27
403.959
427.984
443.82
436.827
382.087
246.769
-60.5912
-452.263
-844.552
-1109.99
-1205.59
-1182.7
-1126.63
-1064.52
-1003.81
-948.019
-897.17
-851.263
-810.103
-772.98
-739.338
-708.707
-680.677
-654.88
-631.001
-608.829
-588.108
-568.684
-550.419
-533.149
-516.818
-501.277
-486.478
-472.343
-458.802
-445.815
-433.315
-421.278
-409.652
-398.413
-387.538
-376.99
-366.751
-356.801
-347.12
-337.699
-328.522
-319.576
-310.852
-302.336
-294.027
-285.912
-277.984
-270.245
-262.669
-255.298
-248.077
-241.035
-234.164
-227.463
-220.938
-214.585
-208.397
-202.386
-196.542
-190.864
-185.347
-179.988
-174.78
-169.721
-164.803
-160.02
-155.37
-150.847
-146.446
-142.161
-137.985
-133.913
-129.942
-126.067
-122.276
-118.57
-114.949
-111.404
-107.936
377.273
403.962
427.986
443.82
436.82
382.073
246.751
-60.546
-452.104
-844.332
-1109.81
-1205.49
-1182.66
-1126.61
-1064.51
-1003.81
-948.015
-897.167
-851.261
-810.101
-772.979
-739.337
-708.706
-680.676
-654.88
-631.001
-608.828
-588.107
-568.684
-550.418
-533.149
-516.817
-501.276
-486.478
-472.342
-458.801
-445.815
-433.315
-421.278
-409.652
-398.413
-387.538
-376.989
-366.75
-356.8
-347.12
-337.699
-328.521
-319.576
-310.851
-302.336
-294.027
-285.912
-277.984
-270.245
-262.669
-255.298
-248.077
-241.035
-234.164
-227.463
-220.938
-214.584
-208.397
-202.386
-196.542
-190.864
-185.347
-179.988
-174.78
-169.72
-164.803
-160.02
-155.37
-150.847
-146.446
-142.161
-137.985
-133.913
-129.942
-126.067
-122.276
-118.57
-114.949
-111.404
-107.936
377.278
403.967
427.991
443.821
436.812
382.058
246.741
-60.4554
-451.837
-843.973
-1109.5
-1205.33
-1182.59
-1126.58
-1064.49
-1003.79
-948.008
-897.162
-851.257
-810.098
-772.976
-739.335
-708.704
-680.674
-654.878
-630.999
-608.827
-588.106
-568.683
-550.417
-533.148
-516.816
-501.275
-486.477
-472.342
-458.801
-445.814
-433.315
-421.277
-409.652
-398.413
-387.538
-376.989
-366.75
-356.8
-347.12
-337.699
-328.521
-319.576
-310.851
-302.336
-294.026
-285.912
-277.984
-270.245
-262.669
-255.297
-248.077
-241.034
-234.164
-227.462
-220.937
-214.584
-208.396
-202.385
-196.542
-190.863
-185.347
-179.988
-174.78
-169.72
-164.802
-160.02
-155.37
-150.847
-146.446
-142.161
-137.985
-133.913
-129.942
-126.067
-122.275
-118.57
-114.949
-111.404
-107.936
377.287
403.976
427.998
443.823
436.803
382.043
246.746
-60.2989
-451.422
-843.425
-1109.04
-1205.06
-1182.46
-1126.52
-1064.46
-1003.77
-947.994
-897.152
-851.25
-810.093
-772.972
-739.331
-708.701
-680.671
-654.876
-630.997
-608.825
-588.104
-568.681
-550.416
-533.146
-516.815
-501.274
-486.476
-472.34
-458.8
-445.813
-433.314
-421.276
-409.651
-398.412
-387.537
-376.988
-366.749
-356.799
-347.119
-337.698
-328.52
-319.575
-310.85
-302.335
-294.026
-285.911
-277.983
-270.244
-262.668
-255.297
-248.077
-241.034
-234.163
-227.462
-220.937
-214.584
-208.396
-202.385
-196.542
-190.863
-185.347
-179.988
-174.779
-169.72
-164.802
-160.019
-155.37
-150.846
-146.446
-142.161
-137.984
-133.913
-129.942
-126.067
-122.275
-118.57
-114.948
-111.404
-107.936
377.299
403.988
428.008
443.826
436.792
382.028
246.772
-60.0521
-450.818
-842.632
-1108.35
-1204.66
-1182.27
-1126.42
-1064.4
-1003.74
-947.97
-897.135
-851.238
-810.083
-772.964
-739.325
-708.696
-680.667
-654.872
-630.994
-608.822
-588.102
-568.678
-550.414
-533.144
-516.813
-501.272
-486.474
-472.339
-458.798
-445.812
-433.312
-421.275
-409.649
-398.41
-387.536
-376.987
-366.748
-356.798
-347.118
-337.697
-328.519
-319.574
-310.85
-302.335
-294.025
-285.911
-277.982
-270.243
-262.667
-255.296
-248.076
-241.033
-234.163
-227.462
-220.936
-214.583
-208.396
-202.385
-196.541
-190.863
-185.346
-179.987
-174.779
-169.72
-164.802
-160.019
-155.37
-150.846
-146.446
-142.161
-137.984
-133.912
-129.941
-126.066
-122.275
-118.57
-114.948
-111.403
-107.935
377.316
404.005
428.022
443.83
436.78
382.016
246.828
-59.6875
-449.983
-841.534
-1107.39
-1204.09
-1181.99
-1126.28
-1064.32
-1003.68
-947.933
-897.109
-851.218
-810.069
-772.953
-739.316
-708.688
-680.66
-654.866
-630.989
-608.817
-588.097
-568.675
-550.41
-533.141
-516.81
-501.269
-486.472
-472.336
-458.796
-445.81
-433.31
-421.273
-409.647
-398.409
-387.534
-376.985
-366.747
-356.797
-347.117
-337.696
-328.518
-319.573
-310.848
-302.333
-294.024
-285.91
-277.981
-270.242
-262.667
-255.296
-248.075
-241.033
-234.162
-227.461
-220.936
-214.583
-208.395
-202.384
-196.541
-190.862
-185.346
-179.987
-174.779
-169.719
-164.801
-160.019
-155.369
-150.846
-146.445
-142.16
-137.984
-133.912
-129.941
-126.066
-122.275
-118.569
-114.948
-111.403
-107.935
377.339
404.028
428.04
443.834
436.765
382.008
246.922
-59.1791
-448.878
-840.066
-1106.15
-1203.32
-1181.59
-1126.07
-1064.19
-1003.6
-947.878
-897.07
-851.189
-810.047
-772.935
-739.302
-708.677
-680.651
-654.858
-630.981
-608.811
-588.092
-568.669
-550.405
-533.136
-516.806
-501.265
-486.468
-472.333
-458.792
-445.806
-433.307
-421.27
-409.645
-398.406
-387.531
-376.983
-366.744
-356.794
-347.115
-337.694
-328.516
-319.571
-310.847
-302.332
-294.022
-285.908
-277.98
-270.241
-262.665
-255.294
-248.074
-241.031
-234.161
-227.46
-220.935
-214.582
-208.394
-202.383
-196.54
-190.861
-185.345
-179.986
-174.778
-169.718
-164.8
-160.018
-155.368
-150.845
-146.444
-142.16
-137.983
-133.911
-129.94
-126.065
-122.274
-118.569
-114.947
-111.402
-107.934
377.369
404.056
428.061
443.838
436.749
382.006
247.056
-58.502
-447.439
-838.191
-1104.53
-1202.32
-1181.06
-1125.78
-1064.02
-1003.49
-947.8
-897.014
-851.148
-810.015
-772.91
-739.282
-708.66
-680.637
-654.846
-630.971
-608.802
-588.084
-568.662
-550.399
-533.13
-516.8
-501.26
-486.463
-472.328
-458.788
-445.802
-433.303
-421.266
-409.641
-398.403
-387.528
-376.98
-366.741
-356.792
-347.112
-337.691
-328.514
-319.569
-310.844
-302.33
-294.02
-285.906
-277.978
-270.239
-262.663
-255.292
-248.072
-241.03
-234.159
-227.458
-220.933
-214.58
-208.393
-202.382
-196.539
-190.86
-185.344
-179.985
-174.777
-169.717
-164.799
-160.017
-155.367
-150.844
-146.444
-142.159
-137.982
-133.91
-129.939
-126.064
-122.273
-118.568
-114.946
-111.402
-107.934
377.405
404.09
428.085
443.84
436.73
382.014
247.231
-57.6242
-445.594
-835.878
-1102.45
-1201.02
-1180.37
-1125.4
-1063.79
-1003.34
-947.695
-896.937
-851.09
-809.971
-772.876
-739.254
-708.637
-680.618
-654.83
-630.957
-608.789
-588.073
-568.652
-550.39
-533.122
-516.792
-501.253
-486.456
-472.322
-458.782
-445.797
-433.298
-421.261
-409.636
-398.398
-387.524
-376.976
-366.737
-356.788
-347.108
-337.688
-328.51
-319.566
-310.841
-302.327
-294.017
-285.903
-277.975
-270.237
-262.661
-255.29
-248.07
-241.028
-234.157
-227.456
-220.931
-214.578
-208.391
-202.38
-196.537
-190.858
-185.342
-179.983
-174.775
-169.716
-164.798
-160.016
-155.366
-150.843
-146.442
-142.158
-137.981
-133.909
-129.938
-126.063
-122.272
-118.567
-114.945
-111.401
-107.933
377.449
404.128
428.11
443.841
436.71
382.033
247.45
-56.5207
-443.334
-833.026
-1099.84
-1199.36
-1179.48
-1124.91
-1063.49
-1003.14
-947.556
-896.835
-851.013
-809.912
-772.829
-739.216
-708.607
-680.592
-654.808
-630.939
-608.773
-588.058
-568.64
-550.378
-533.112
-516.783
-501.244
-486.448
-472.314
-458.775
-445.79
-433.291
-421.255
-409.63
-398.392
-387.518
-376.97
-366.732
-356.783
-347.104
-337.683
-328.506
-319.561
-310.837
-302.323
-294.014
-285.9
-277.972
-270.233
-262.658
-255.287
-248.067
-241.025
-234.155
-227.454
-220.929
-214.576
-208.389
-202.378
-196.535
-190.856
-185.34
-179.981
-174.773
-169.714
-164.796
-160.014
-155.365
-150.841
-146.441
-142.156
-137.979
-133.908
-129.937
-126.062
-122.271
-118.566
-114.944
-111.399
-107.931
377.499
404.171
428.136
443.838
436.688
382.065
247.707
-55.1833
-440.688
-829.522
-1096.6
-1197.26
-1178.33
-1124.28
-1063.1
-1002.89
-947.376
-896.703
-850.913
-809.834
-772.768
-739.167
-708.566
-680.558
-654.78
-630.914
-608.752
-588.04
-568.623
-550.363
-533.098
-516.77
-501.233
-486.437
-472.304
-458.765
-445.781
-433.283
-421.247
-409.623
-398.385
-387.512
-376.964
-366.726
-356.777
-347.098
-337.678
-328.501
-319.556
-310.833
-302.318
-294.009
-285.896
-277.968
-270.229
-262.654
-255.284
-248.064
-241.021
-234.151
-227.45
-220.926
-214.573
-208.386
-202.375
-196.532
-190.854
-185.338
-179.979
-174.771
-169.712
-164.794
-160.012
-155.362
-150.839
-146.439
-142.154
-137.978
-133.906
-129.935
-126.06
-122.269
-118.564
-114.942
-111.398
-107.93
377.555
404.217
428.163
443.832
436.666
382.11
247.993
-53.6093
-437.63
-825.356
-1092.65
-1194.65
-1176.88
-1123.46
-1062.61
-1002.56
-947.145
-896.533
-850.785
-809.734
-772.688
-739.103
-708.513
-680.514
-654.742
-630.882
-608.724
-588.016
-568.602
-550.344
-533.081
-516.755
-501.218
-486.424
-472.292
-458.754
-445.77
-433.273
-421.237
-409.614
-398.376
-387.503
-376.956
-366.718
-356.77
-347.091
-337.671
-328.494
-319.55
-310.827
-302.312
-294.004
-285.89
-277.963
-270.224
-262.649
-255.279
-248.059
-241.017
-234.147
-227.446
-220.922
-214.569
-208.382
-202.371
-196.529
-190.851
-185.334
-179.976
-174.768
-169.709
-164.791
-160.009
-155.36
-150.837
-146.436
-142.152
-137.975
-133.904
-129.933
-126.058
-122.267
-118.562
-114.94
-111.396
-107.928
377.616
404.266
428.189
443.822
436.642
382.167
248.315
-51.8003
-434.127
-820.548
-1087.92
-1191.36
-1175.06
-1122.43
-1061.98
-1002.14
-946.852
-896.319
-850.622
-809.607
-772.587
-739.021
-708.446
-680.458
-654.695
-630.842
-608.689
-587.985
-568.575
-550.32
-533.06
-516.736
-501.201
-486.408
-472.277
-458.74
-445.757
-433.261
-421.226
-409.603
-398.366
-387.493
-376.946
-366.709
-356.761
-347.082
-337.663
-328.487
-319.543
-310.819
-302.305
-293.997
-285.884
-277.956
-270.218
-262.643
-255.273
-248.054
-241.012
-234.142
-227.442
-220.917
-214.565
-208.378
-202.367
-196.525
-190.847
-185.331
-179.972
-174.764
-169.705
-164.788
-160.006
-155.357
-150.833
-146.433
-142.149
-137.972
-133.901
-129.93
-126.055
-122.264
-118.559
-114.938
-111.393
-107.925
377.681
404.317
428.215
443.81
436.614
382.238
248.676
-49.7588
-430.161
-815.01
-1082.45
-1187.41
-1172.7
-1121.13
-1061.18
-1001.61
-946.483
-896.048
-850.417
-809.448
-772.461
-738.919
-708.362
-680.388
-654.636
-630.791
-608.646
-587.947
-568.541
-550.291
-533.033
-516.712
-501.179
-486.388
-472.259
-458.723
-445.742
-433.246
-421.212
-409.59
-398.354
-387.482
-376.935
-366.699
-356.751
-347.073
-337.653
-328.477
-319.534
-310.811
-302.297
-293.989
-285.876
-277.949
-270.212
-262.637
-255.267
-248.048
-241.006
-234.136
-227.436
-220.912
-214.56
-208.373
-202.362
-196.52
-190.842
-185.326
-179.968
-174.76
-169.701
-164.784
-160.002
-155.353
-150.83
-146.43
-142.145
-137.969
-133.897
-129.927
-126.052
-122.261
-118.556
-114.935
-111.39
-107.922
-104.527
377.751
404.371
428.24
443.793
436.581
382.324
249.076
-47.473
-425.704
-808.672
-1076.23
-1183.07
-1169.56
-1119.49
-1060.18
-1000.95
-946.02
-895.71
-850.161
-809.249
-772.304
-738.791
-708.257
-680.301
-654.562
-630.728
-608.591
-587.9
-568.5
-550.254
-533.001
-516.682
-501.153
-486.364
-472.237
-458.703
-445.723
-433.229
-421.196
-409.575
-398.339
-387.468
-376.922
-366.686
-356.739
-347.061
-337.642
-328.467
-319.524
-310.801
-302.288
-293.98
-285.867
-277.941
-270.203
-262.629
-255.259
-248.04
-240.999
-234.129
-227.429
-220.905
-214.553
-208.367
-202.356
-196.514
-190.836
-185.321
-179.963
-174.755
-169.697
-164.779
-159.997
-155.349
-150.826
-146.426
-142.141
-137.965
-133.894
-129.923
-126.048
-122.257
-118.552
-114.931
-111.387
-107.919
-104.524
377.826
404.428
428.265
443.771
436.54
382.422
249.513
-44.9194
-420.717
-801.567
-1069.15
-1177.96
-1165.77
-1117.43
-1058.91
-1000.12
-945.44
-895.287
-849.842
-809.003
-772.108
-738.634
-708.128
-680.194
-654.472
-630.651
-608.525
-587.842
-568.449
-550.209
-532.961
-516.647
-501.121
-486.335
-472.211
-458.679
-445.701
-433.208
-421.177
-409.557
-398.323
-387.452
-376.907
-366.672
-356.725
-347.048
-337.63
-328.455
-319.512
-310.79
-302.277
-293.969
-285.857
-277.931
-270.194
-262.62
-255.25
-248.032
-240.99
-234.121
-227.422
-220.898
-214.546
-208.359
-202.35
-196.508
-190.83
-185.314
-179.957
-174.75
-169.691
-164.774
-159.993
-155.344
-150.821
-146.421
-142.136
-137.96
-133.889
-129.918
-126.044
-122.253
-118.548
-114.927
-111.383
-107.915
-104.52
377.908
404.488
428.289
443.742
436.489
382.532
249.987
-42.0737
-415.157
-793.654
-1061.16
-1171.73
-1161.4
-1114.87
-1057.32
-999.075
-944.716
-894.761
-849.447
-808.697
-771.867
-738.44
-707.969
-680.062
-654.361
-630.557
-608.444
-587.772
-568.388
-550.155
-532.913
-516.604
-501.082
-486.301
-472.179
-458.65
-445.674
-433.184
-421.154
-409.536
-398.303
-387.434
-376.89
-366.656
-356.709
-347.033
-337.616
-328.441
-319.499
-310.777
-302.265
-293.958
-285.846
-277.92
-270.183
-262.609
-255.24
-248.022
-240.981
-234.112
-227.413
-220.889
-214.538
-208.351
-202.342
-196.5
-190.823
-185.307
-179.95
-174.743
-169.684
-164.768
-159.986
-155.337
-150.815
-146.415
-142.131
-137.955
-133.883
-129.913
-126.039
-122.248
-118.543
-114.922
-111.378
-107.91
-104.515
377.996
404.553
428.313
443.705
436.425
382.653
250.496
-38.9104
-408.969
-784.832
-1052.23
-1164.53
-1156.66
-1111.51
-1055.33
-997.769
-943.812
-894.107
-848.956
-808.319
-771.569
-738.201
-707.774
-679.9
-654.226
-630.442
-608.346
-587.687
-568.314
-550.09
-532.855
-516.552
-501.036
-486.259
-472.141
-458.616
-445.643
-433.155
-421.128
-409.512
-398.281
-387.413
-376.87
-366.637
-356.692
-347.016
-337.6
-328.426
-319.484
-310.763
-302.251
-293.944
-285.833
-277.907
-270.171
-262.598
-255.229
-248.011
-240.971
-234.102
-227.403
-220.88
-214.529
-208.343
-202.333
-196.492
-190.815
-185.299
-179.942
-174.735
-169.677
-164.76
-159.979
-155.33
-150.808
-146.408
-142.124
-137.948
-133.877
-129.907
-126.033
-122.242
-118.537
-114.916
-111.372
-107.904
-104.51
378.092
404.622
428.334
443.658
436.346
382.785
251.039
-35.4026
-402.098
-775.026
-1042.26
-1156.43
-1151.41
-1107.34
-1052.85
-996.138
-942.685
-893.294
-848.348
-807.852
-771.202
-737.907
-707.535
-679.703
-654.061
-630.303
-608.226
-587.584
-568.224
-550.011
-532.785
-516.49
-500.981
-486.209
-472.096
-458.575
-445.606
-433.121
-421.097
-409.483
-398.254
-387.388
-376.847
-366.615
-356.672
-346.997
-337.582
-328.408
-319.468
-310.747
-302.236
-293.93
-285.819
-277.894
-270.158
-262.585
-255.217
-247.999
-240.959
-234.091
-227.392
-220.869
-214.518
-208.333
-202.324
-196.482
-190.806
-185.291
-179.934
-174.727
-169.669
-164.752
-159.971
-155.323
-150.8
-146.401
-142.117
-137.942
-133.871
-129.901
-126.026
-122.235
-118.531
-114.91
-111.366
-107.898
-104.504
378.196
404.695
428.353
443.598
436.246
382.926
251.615
-31.5234
-394.489
-764.145
-1031.16
-1147.37
-1145.1
-1102.63
-1049.85
-994.122
-941.284
-892.285
-847.595
-807.275
-770.75
-737.545
-707.242
-679.461
-653.859
-630.133
-608.081
-587.459
-568.116
-549.916
-532.702
-516.416
-500.915
-486.15
-472.043
-458.527
-445.562
-433.081
-421.06
-409.449
-398.223
-387.359
-376.82
-366.59
-356.648
-346.975
-337.561
-328.389
-319.449
-310.729
-302.219
-293.913
-285.803
-277.879
-270.143
-262.571
-255.203
-247.986
-240.947
-234.079
-227.38
-220.858
-214.507
-208.322
-202.313
-196.472
-190.796
-185.281
-179.924
-174.718
-169.66
-164.744
-159.963
-155.315
-150.792
-146.393
-142.109
-137.934
-133.863
-129.893
-126.019
-122.229
-118.524
-114.903
-111.359
-107.892
-104.497
-101.17
-97.9082
-94.7146
378.31
404.772
428.367
443.521
436.122
383.074
252.219
-27.2455
-386.083
-752.107
-1018.81
-1137.27
-1137.78
-1097.73
-1046.04
-991.624
-939.548
-891.036
-846.665
-806.562
-770.193
-737.101
-706.881
-679.165
-653.612
-629.926
-607.905
-587.308
-567.985
-549.802
-532.602
-516.327
-500.836
-486.079
-471.979
-458.469
-445.51
-433.034
-421.017
-409.409
-398.186
-387.325
-376.789
-366.561
-356.621
-346.95
-337.537
-328.367
-319.428
-310.709
-302.2
-293.895
-285.786
-277.862
-270.127
-262.556
-255.189
-247.972
-240.933
-234.066
-227.367
-220.845
-214.495
-208.31
-202.302
-196.461
-190.785
-185.271
-179.914
-174.708
-169.65
-164.734
-159.953
-155.306
-150.784
-146.385
-142.101
-137.926
-133.855
-129.885
-126.011
-122.221
-118.516
-114.896
-111.352
-107.884
-104.49
-101.162
-97.9009
-94.7074
378.434
404.853
428.375
443.424
435.966
383.222
252.844
-22.5426
-376.825
-738.823
-1005.1
-1125.99
-1129.61
-1092.17
-1041.61
-988.624
-937.418
-889.491
-845.515
-805.683
-769.506
-736.554
-706.439
-678.802
-653.311
-629.672
-607.69
-587.124
-567.826
-549.664
-532.481
-516.221
-500.741
-485.995
-471.904
-458.401
-445.448
-432.978
-420.966
-409.363
-398.144
-387.286
-376.753
-366.528
-356.59
-346.921
-337.51
-328.341
-319.404
-310.687
-302.178
-293.875
-285.766
-277.843
-270.11
-262.539
-255.172
-247.956
-240.917
-234.051
-227.353
-220.831
-214.482
-208.297
-202.289
-196.449
-190.773
-185.259
-179.903
-174.697
-169.64
-164.724
-159.943
-155.296
-150.774
-146.375
-142.092
-137.917
-133.846
-129.876
-126.002
-122.212
-118.508
-114.887
-111.344
-107.876
-104.482
-101.154
-97.893
-94.6996
378.567
404.936
428.374
443.301
435.772
383.383
253.481
-17.391
-366.658
-724.205
-989.928
-1113.44
-1120.49
-1085.54
-1036.91
-985.023
-934.862
-887.595
-844.098
-804.6
-768.66
-735.88
-705.894
-678.355
-652.941
-629.362
-607.428
-586.9
-567.633
-549.496
-532.335
-516.092
-500.627
-485.894
-471.813
-458.32
-445.375
-432.912
-420.906
-409.308
-398.094
-387.24
-376.71
-366.488
-356.553
-346.887
-337.478
-328.312
-319.376
-310.66
-302.154
-293.851
-285.744
-277.822
-270.09
-262.519
-255.154
-247.938
-240.9
-234.034
-227.337
-220.816
-214.467
-208.283
-202.275
-196.436
-190.76
-185.246
-179.891
-174.685
-169.628
-164.713
-159.932
-155.285
-150.763
-146.365
-142.082
-137.907
-133.836
-129.867
-125.993
-122.203
-118.499
-114.878
-111.335
-107.867
-104.473
-101.146
-97.8844
-94.691
378.71
405.021
428.359
443.145
435.531
383.546
254.14
-11.7655
-355.533
-708.173
-973.177
-1099.48
-1110.29
-1078.17
-1031.71
-980.788
-931.852
-885.314
-842.364
-803.269
-767.619
-735.052
-705.225
-677.807
-652.487
-628.982
-607.106
-586.626
-567.398
-549.292
-532.157
-515.936
-500.49
-485.772
-471.705
-458.223
-445.288
-432.833
-420.834
-409.243
-398.034
-387.186
-376.66
-366.442
-356.511
-346.848
-337.442
-328.277
-319.344
-310.63
-302.125
-293.825
-285.719
-277.799
-270.067
-262.498
-255.133
-247.919
-240.882
-234.016
-227.32
-220.8
-214.451
-208.267
-202.26
-196.421
-190.746
-185.233
-179.877
-174.672
-169.615
-164.7
-159.92
-155.273
-150.752
-146.354
-142.071
-137.896
-133.826
-129.857
-125.983
-122.193
-118.489
-114.869
-111.325
-107.858
-104.463
-101.136
-97.875
-94.6816
378.862
405.103
428.326
442.948
435.23
383.656
254.846
-5.64595
-343.407
-690.658
-954.758
-1083.99
-1098.91
-1069.93
-1025.73
-976.104
-928.364
-882.632
-840.277
-801.646
-766.345
-734.036
-704.403
-677.134
-651.928
-628.515
-606.712
-586.29
-567.109
-549.043
-531.94
-515.746
-500.323
-485.624
-471.573
-458.106
-445.183
-432.738
-420.749
-409.166
-397.964
-387.122
-376.602
-366.389
-356.461
-346.802
-337.399
-328.238
-319.307
-310.595
-302.092
-293.794
-285.69
-277.771
-270.041
-262.474
-255.11
-247.897
-240.861
-233.996
-227.301
-220.781
-214.433
-208.25
-202.244
-196.405
-190.73
-185.218
-179.863
-174.658
-169.602
-164.687
-159.907
-155.261
-150.74
-146.342
-142.059
-137.884
-133.815
-129.845
-125.972
-122.182
-118.478
-114.858
-111.314
-107.847
-104.453
-101.126
-97.8649
-94.6714
379.022
405.18
428.268
442.7
434.857
383.697
255.6
0.975434
-330.248
-671.597
-934.582
-1066.82
-1086.2
-1060.7
-1018.95
-970.938
-924.39
-879.551
-837.833
-799.701
-764.796
-732.794
-703.396
-676.307
-651.243
-627.942
-606.227
-585.878
-566.756
-548.738
-531.675
-515.514
-500.119
-485.444
-471.414
-457.964
-445.055
-432.624
-420.646
-409.073
-397.88
-387.045
-376.532
-366.325
-356.403
-346.748
-337.349
-328.191
-319.264
-310.555
-302.054
-293.758
-285.656
-277.74
-270.012
-262.446
-255.084
-247.872
-240.837
-233.974
-227.279
-220.761
-214.413
-208.231
-202.225
-196.387
-190.713
-185.201
-179.847
-174.643
-169.587
-164.673
-159.893
-155.247
-150.726
-146.329
-142.046
-137.872
-133.802
-129.833
-125.96
-122.17
-118.467
-114.847
-111.303
-107.836
-104.442
-101.115
-97.8539
-94.6603
379.187
405.247
428.178
442.388
434.394
383.665
256.399
8.10437
-316.034
-650.948
-912.562
-1047.85
-1072.07
-1050.39
-1011.33
-965.151
-919.9
-876.054
-835.029
-797.434
-762.955
-731.294
-702.169
-675.296
-650.403
-627.237
-605.631
-585.371
-566.321
-548.363
-531.35
-515.23
-499.87
-485.224
-471.219
-457.791
-444.901
-432.486
-420.521
-408.961
-397.779
-386.953
-376.448
-366.248
-356.333
-346.684
-337.29
-328.137
-319.213
-310.508
-302.01
-293.717
-285.618
-277.703
-269.977
-262.414
-255.054
-247.843
-240.81
-233.948
-227.255
-220.737
-214.391
-208.21
-202.205
-196.368
-190.695
-185.183
-179.83
-174.626
-169.571
-164.657
-159.878
-155.232
-150.712
-146.314
-142.032
-137.858
-133.789
-129.82
-125.947
-122.158
-118.454
-114.834
-111.291
-107.824
-104.43
-101.103
-97.842
-94.6484
379.354
405.298
428.043
441.996
433.821
383.564
257.247
15.7383
-300.762
-628.683
-888.624
-1026.95
-1056.37
-1038.89
-1002.75
-958.664
-914.84
-872.107
-831.849
-794.839
-760.818
-729.523
-700.697
-674.07
-649.378
-626.376
-604.901
-584.748
-565.787
-547.901
-530.949
-514.88
-499.564
-484.955
-470.98
-457.579
-444.712
-432.317
-420.37
-408.824
-397.655
-386.841
-376.347
-366.156
-356.248
-346.607
-337.219
-328.072
-319.153
-310.452
-301.958
-293.668
-285.573
-277.661
-269.938
-262.376
-255.019
-247.81
-240.779
-233.919
-227.227
-220.711
-214.366
-208.186
-202.182
-196.346
-190.674
-185.163
-179.81
-174.607
-169.553
-164.639
-159.861
-155.216
-150.696
-146.299
-142.017
-137.844
-133.775
-129.806
-125.933
-122.144
-118.441
-114.821
-111.278
-107.811
-104.417
-101.09
-97.8293
-94.6356
379.519
405.323
427.852
441.505
433.115
383.239
258.141
23.8599
-284.446
-604.814
-862.719
-1004
-1038.99
-1026.07
-993.145
-951.367
-909.142
-867.652
-828.26
-791.899
-758.38
-727.481
-698.975
-672.613
-648.142
-625.327
-604.008
-583.985
-565.131
-547.334
-530.457
-514.45
-499.186
-484.622
-470.687
-457.318
-444.48
-432.109
-420.184
-408.658
-397.505
-386.706
-376.224
-366.044
-356.147
-346.514
-337.135
-327.994
-319.081
-310.385
-301.897
-293.611
-285.519
-277.612
-269.892
-262.333
-254.978
-247.772
-240.743
-233.885
-227.195
-220.681
-214.338
-208.159
-202.156
-196.321
-190.65
-185.141
-179.789
-174.586
-169.533
-164.62
-159.843
-155.198
-150.678
-146.282
-142.001
-137.828
-133.759
-129.791
-125.918
-122.13
-118.427
-114.807
-111.264
-107.797
-104.403
-101.076
-97.8156
-94.6219
379.674
405.313
427.587
440.891
432.244
382.648
259.025
32.4408
-267.127
-579.368
-834.814
-978.886
-1019.81
-1011.82
-982.406
-943.2
-902.74
-862.609
-824.198
-788.573
-755.619
-725.157
-697
-670.923
-646.689
-624.076
-602.93
-583.056
-564.328
-546.638
-529.851
-513.92
-498.721
-484.212
-470.324
-456.997
-444.193
-431.854
-419.955
-408.452
-397.321
-386.539
-376.073
-365.908
-356.023
-346.401
-337.031
-327.899
-318.994
-310.306
-301.823
-293.543
-285.456
-277.553
-269.837
-262.283
-254.931
-247.728
-240.701
-233.846
-227.158
-220.646
-214.304
-208.128
-202.127
-196.293
-190.623
-185.115
-179.764
-174.563
-169.51
-164.598
-159.822
-155.178
-150.659
-146.263
-141.982
-137.81
-133.742
-129.774
-125.902
-122.113
-118.41
-114.791
-111.248
-107.782
-104.388
-101.061
-97.8008
-94.6071
379.812
405.254
427.228
440.126
431.174
381.905
259.897
41.4481
-248.859
-552.425
-804.923
-951.535
-998.712
-996.024
-970.432
-934.003
-895.558
-856.953
-819.623
-784.815
-752.493
-722.524
-694.756
-668.992
-645.016
-622.621
-601.659
-581.945
-563.357
-545.789
-529.11
-513.269
-498.149
-483.707
-469.877
-456.6
-443.84
-431.538
-419.672
-408.199
-397.093
-386.333
-375.888
-365.74
-355.87
-346.263
-336.906
-327.784
-318.889
-310.209
-301.734
-293.461
-285.381
-277.483
-269.773
-262.222
-254.875
-247.676
-240.652
-233.8
-227.115
-220.605
-214.266
-208.091
-202.092
-196.261
-190.592
-185.086
-179.736
-174.536
-169.485
-164.574
-159.798
-155.155
-150.637
-146.242
-141.962
-137.79
-133.722
-129.755
-125.883
-122.094
-118.392
-114.774
-111.231
-107.765
-104.372
-101.045
-97.7847
-94.591
379.92
405.126
426.749
439.177
429.866
380.903
260.823
50.7376
-229.753
-524.075
-773.108
-921.851
-975.572
-978.529
-957.078
-923.83
-887.383
-850.557
-814.468
-780.576
-748.962
-719.546
-692.215
-666.802
-643.112
-620.954
-600.191
-580.65
-562.212
-544.775
-528.213
-512.476
-497.448
-483.087
-469.326
-456.109
-443.402
-431.147
-419.322
-407.885
-396.81
-386.079
-375.658
-365.532
-355.682
-346.092
-336.75
-327.643
-318.76
-310.091
-301.626
-293.362
-285.289
-277.399
-269.695
-262.15
-254.808
-247.614
-240.594
-233.746
-227.065
-220.558
-214.221
-208.049
-202.052
-196.223
-190.556
-185.052
-179.704
-174.505
-169.455
-164.546
-159.771
-155.129
-150.612
-146.218
-141.939
-137.768
-133.701
-129.735
-125.862
-122.075
-118.373
-114.755
-111.212
-107.747
-104.354
-101.027
-97.767
-94.5732
379.983
404.909
426.12
438.003
428.271
379.622
261.783
60.1332
-209.921
-494.367
-739.451
-889.786
-950.27
-959.204
-942.179
-912.49
-878.24
-843.326
-808.637
-775.782
-744.968
-716.176
-689.338
-664.32
-640.952
-619.06
-598.517
-579.164
-560.888
-543.592
-527.155
-511.528
-496.601
-482.329
-468.65
-455.506
-442.863
-430.664
-418.889
-407.495
-396.459
-385.763
-375.372
-365.274
-355.449
-345.88
-336.558
-327.469
-318.601
-309.946
-301.493
-293.24
-285.178
-277.297
-269.6
-262.063
-254.728
-247.539
-240.525
-233.681
-227.004
-220.501
-214.169
-207.999
-202.005
-196.179
-190.515
-185.012
-179.666
-174.47
-169.421
-164.513
-159.74
-155.099
-150.584
-146.191
-141.912
-137.742
-133.676
-129.711
-125.839
-122.053
-118.352
-114.733
-111.191
-107.726
-104.333
-101.007
-97.747
-94.5535
379.982
404.574
425.303
436.558
426.337
377.994
262.763
69.5478
-189.506
-463.524
-703.802
-855.424
-922.695
-937.848
-925.64
-899.619
-868.064
-835.206
-802.055
-770.354
-740.438
-712.35
-686.07
-661.501
-638.498
-616.907
-596.615
-577.472
-559.375
-542.233
-525.932
-510.424
-495.604
-481.427
-467.835
-454.771
-442.2
-430.069
-418.353
-407.013
-396.024
-385.37
-375.017
-364.953
-355.158
-345.617
-336.319
-327.251
-318.403
-309.765
-301.329
-293.09
-285.04
-277.171
-269.485
-261.957
-254.63
-247.449
-240.441
-233.604
-226.932
-220.434