/*--------------------------------*- C++ -*----------------------------------*\
| =========                 |                                                 |
| \\      /  F ield         | OpenFOAM: The Open Source CFD Toolbox           |
|  \\    /   O peration     | Version:  2412                                  |
|   \\  /    A nd           | Website:  www.openfoam.com                      |
|    \\/     M anipulation  |                                                 |
\*---------------------------------------------------------------------------*/
FoamFile
{
    version     2.0;
    format      ascii;
    arch        "LSB;label=32;scalar=64";
    class       surfaceScalarField;
    location    "220";
    object      phi;
}
// * * * * * * * * * * * * * * * * * * * * * * * * * * * * * * * * * * * * * //

dimensions      [0 3 -1 0 0 0 0];

oriented        oriented;

internalField   nonuniform List<scalar> 
14654
(
1.30026e-06
5.08484e-07
-1.80874e-06
1.54498e-06
-2.44726e-07
1.07629e-06
4.68699e-07
1.22414e-06
-1.47859e-07
1.25285e-06
-2.87072e-08
-4.47281e-07
1.70013e-06
-3.15138e-06
2.7041e-06
-4.53173e-06
1.38035e-06
-4.13374e-06
-3.97991e-07
-3.48604e-06
-6.47698e-07
-3.1528e-06
-3.33244e-07
-2.98133e-06
-1.71472e-07
-2.92443e-06
-5.68938e-08
-2.96649e-06
4.2054e-08
-3.05158e-06
8.50952e-08
-3.10655e-06
5.49681e-08
-3.1224e-06
1.58483e-08
-3.1059e-06
-1.65039e-08
-3.06441e-06
-4.14815e-08
-3.02729e-06
-3.71263e-08
-3.00947e-06
-1.78225e-08
-3.00892e-06
-5.48183e-10
-3.01917e-06
1.02554e-08
-3.02885e-06
9.67905e-09
-3.03335e-06
4.49291e-09
-3.03407e-06
7.27572e-10
-3.0348e-06
7.31025e-10
-3.03813e-06
3.32256e-09
-3.04346e-06
5.33629e-09
-3.04965e-06
6.18148e-09
-3.0555e-06
5.85734e-09
-3.06141e-06
5.90661e-09
-3.06746e-06
6.05233e-09
-3.07401e-06
6.54629e-09
-3.08092e-06
6.91705e-09
-3.08793e-06
6.9936e-09
-3.09519e-06
7.28179e-09
-3.1025e-06
7.28564e-09
-3.10994e-06
7.44632e-09
-3.11731e-06
7.36096e-09
-3.12488e-06
7.56795e-09
-3.1324e-06
7.52152e-09
-3.14002e-06
7.61446e-09
-3.14752e-06
7.53923e-09
-3.15505e-06
7.48468e-09
-3.16247e-06
7.45939e-09
-3.16997e-06
7.4515e-09
-3.17729e-06
7.36139e-09
-3.18435e-06
7.01457e-09
-3.1913e-06
6.9473e-09
-3.1983e-06
6.99164e-09
-3.20496e-06
6.6611e-09
-3.21167e-06
6.69384e-09
-3.21803e-06
6.35855e-09
-3.22425e-06
6.21066e-09
-3.23041e-06
6.1586e-09
-3.23633e-06
5.98602e-09
-3.24209e-06
5.67885e-09
-3.24751e-06
5.47716e-09
-3.25265e-06
5.05674e-09
-3.25774e-06
5.16946e-09
-3.26262e-06
4.78437e-09
-3.26711e-06
4.47743e-09
-3.27141e-06
4.29369e-09
-3.27561e-06
4.18742e-09
-3.27953e-06
3.90962e-09
-3.28333e-06
3.78242e-09
-3.28675e-06
3.40883e-09
-3.29007e-06
3.29979e-09
-3.29334e-06
3.2641e-09
-3.29645e-06
3.08742e-09
-3.29935e-06
2.88853e-09
-3.30216e-06
2.78519e-09
-3.3041e-06
1.93282e-09
-3.30585e-06
1.73549e-09
-3.30733e-06
1.47317e-09
-3.30848e-06
1.12432e-09
-3.30927e-06
7.87238e-10
-3.3097e-06
3.99693e-10
-3.30966e-06
-4.37691e-11
-9.04005e-12
-1.34096e-06
8.47311e-07
-8.32476e-07
4.1799e-06
1.61339e-06
-7.60203e-06
5.23187e-06
-1.2967e-06
3.76181e-06
1.93876e-06
4.13633e-06
-5.22382e-07
3.86107e-06
2.46561e-07
-2.25314e-06
7.81433e-06
-1.12303e-05
1.16813e-05
-1.55245e-05
5.6745e-06
-1.42715e-05
-1.65091e-06
-1.21968e-05
-2.72241e-06
-1.11205e-05
-1.40955e-06
-1.05714e-05
-7.20628e-07
-1.03983e-05
-2.29955e-07
-1.05413e-05
1.85054e-07
-1.08161e-05
3.59857e-07
-1.09927e-05
2.3158e-07
-1.10395e-05
6.27088e-08
-1.09806e-05
-7.54273e-08
-1.08445e-05
-1.77597e-07
-1.07237e-05
-1.57875e-07
-1.06672e-05
-7.43949e-08
-1.0667e-05
-7.09324e-10
-1.07016e-05
4.48342e-08
-1.0734e-05
4.20515e-08
-1.07492e-05
1.97388e-08
-1.07528e-05
4.28971e-09
-1.07564e-05
4.35629e-09
-1.07686e-05
1.54847e-08
-1.07881e-05
2.48402e-08
-1.08092e-05
2.73024e-08
-1.08305e-05
2.72102e-08
-1.0851e-05
2.63602e-08
-1.08727e-05
2.7748e-08
-1.08964e-05
3.02346e-08
-1.09204e-05
3.09576e-08
-1.09456e-05
3.21351e-08
-1.09708e-05
3.2566e-08
-1.0997e-05
3.3433e-08
-1.10229e-05
3.33198e-08
-1.10497e-05
3.41353e-08
-1.10763e-05
3.42537e-08
-1.11028e-05
3.39242e-08
-1.11298e-05
3.46284e-08
-1.11564e-05
3.41712e-08
-1.11827e-05
3.37614e-08
-1.12094e-05
3.41751e-08
-1.12354e-05
3.33933e-08
-1.12612e-05
3.32393e-08
-1.12868e-05
3.25787e-08
-1.13117e-05
3.18557e-08
-1.1336e-05
3.12854e-08
-1.13602e-05
3.07983e-08
-1.13832e-05
2.96686e-08
-1.14064e-05
2.95502e-08
-1.14283e-05
2.81354e-08
-1.14498e-05
2.76534e-08
-1.14704e-05
2.6662e-08
-1.14909e-05
2.60155e-08
-1.15102e-05
2.48869e-08
-1.15286e-05
2.33691e-08
-1.15463e-05
2.29279e-08
-1.15631e-05
2.14379e-08
-1.15797e-05
2.11352e-08
-1.15951e-05
1.96918e-08
-1.16098e-05
1.88339e-08
-1.16235e-05
1.75784e-08
-1.16365e-05
1.68049e-08
-1.16493e-05
1.60902e-08
-1.16611e-05
1.50897e-08
-1.1672e-05
1.41522e-08
-1.1683e-05
1.41008e-08
-1.16936e-05
1.34906e-08
-1.17028e-05
1.18865e-08
-1.17105e-05
9.62478e-09
-1.17161e-05
7.33586e-09
-1.17214e-05
6.72866e-09
-1.17253e-05
4.9942e-09
-1.17281e-05
3.54491e-09
-1.17295e-05
1.79556e-09
-1.17299e-05
3.78035e-10
-6.29402e-10
-4.41077e-06
3.46798e-06
-3.62985e-06
7.71044e-06
2.96201e-06
-1.82745e-05
1.00073e-05
-3.59359e-06
7.41142e-06
4.53467e-06
7.9056e-06
-1.01656e-06
6.70206e-06
1.4501e-06
-5.64587e-06
2.01623e-05
-2.25753e-05
2.86107e-05
-3.01958e-05
1.32949e-05
-2.78788e-05
-3.96783e-06
-2.41298e-05
-6.47143e-06
-2.21687e-05
-3.37066e-06
-2.11761e-05
-1.71328e-06
-2.08798e-05
-5.26194e-07
-2.11576e-05
4.62838e-07
-2.166e-05
8.62199e-07
-2.198e-05
5.51663e-07
-2.20575e-05
1.40182e-07
-2.194e-05
-1.92985e-07
-2.16865e-05
-4.31077e-07
-2.14642e-05
-3.80182e-07
-2.13626e-05
-1.75944e-07
-2.13661e-05
2.76989e-09
-2.14322e-05
1.10929e-07
-2.1494e-05
1.039e-07
-2.15232e-05
4.88816e-08
-2.15318e-05
1.28761e-08
-2.15419e-05
1.44575e-08
-2.15677e-05
4.12702e-08
-2.16054e-05
6.25586e-08
-2.16487e-05
7.06613e-08
-2.16908e-05
6.92332e-08
-2.17324e-05
6.80126e-08
-2.17763e-05
7.16115e-08
-2.18232e-05
7.71011e-08
-2.18724e-05
8.01728e-08
-2.19222e-05
8.19615e-08
-2.19732e-05
8.3558e-08
-2.20248e-05
8.50673e-08
-2.20772e-05
8.56932e-08
-2.21302e-05
8.7147e-08
-2.21836e-05
8.76007e-08
-2.22374e-05
8.77629e-08
-2.22911e-05
8.82807e-08
-2.23448e-05
8.79061e-08
-2.23983e-05
8.7271e-08
-2.24508e-05
8.66869e-08
-2.25031e-05
8.5633e-08
-2.25551e-05
8.53042e-08
-2.26058e-05
8.31773e-08
-2.26557e-05
8.1769e-08
-2.27046e-05
8.01422e-08
-2.27524e-05
7.86724e-08
-2.27995e-05
7.67572e-08
-2.28447e-05
7.46876e-08
-2.28896e-05
7.30022e-08
-2.29322e-05
7.02416e-08
-2.29743e-05
6.88987e-08
-2.30141e-05
6.5652e-08
-2.30531e-05
6.4043e-08
-2.30904e-05
6.04888e-08
-2.31256e-05
5.82476e-08
-2.31601e-05
5.58412e-08
-2.3192e-05
5.29652e-08
-2.32229e-05
5.05861e-08
-2.32519e-05
4.78406e-08
-2.32795e-05
4.51135e-08
-2.33068e-05
4.40454e-08
-2.33315e-05
4.08001e-08
-2.33545e-05
3.80606e-08
-2.3377e-05
3.66338e-08
-2.33992e-05
3.6299e-08
-2.34203e-05
3.45252e-08
-2.34391e-05
3.06766e-08
-2.34535e-05
2.40229e-08
-2.34653e-05
1.90631e-08
-2.34755e-05
1.69098e-08
-2.34826e-05
1.21239e-08
-2.34878e-05
8.70082e-09
-2.3491e-05
4.96422e-09
-2.34914e-05
7.19299e-10
-1.58656e-09
-8.25439e-06
8.13451e-06
-8.92224e-06
1.19604e-05
4.58099e-06
-3.48158e-05
1.59924e-05
-7.62563e-06
1.22397e-05
8.2874e-06
1.26352e-05
-1.4121e-06
9.47111e-06
4.6142e-06
-1.14582e-05
4.10916e-05
-3.81675e-05
5.532e-05
-4.94104e-05
2.45378e-05
-4.57783e-05
-7.59992e-06
-4.01797e-05
-1.20701e-05
-3.72208e-05
-6.32949e-06
-3.5736e-05
-3.19808e-06
-3.53238e-05
-9.38447e-07
-3.57715e-05
9.10606e-07
-3.65366e-05
1.62726e-06
-3.70142e-05
1.02928e-06
-3.71168e-05
2.42764e-07
-3.69211e-05
-3.88701e-07
-3.65258e-05
-8.26394e-07
-3.61876e-05
-7.18377e-07
-3.60374e-05
-3.26087e-07
-3.60506e-05
1.59393e-08
-3.61571e-05
2.1744e-07
-3.62546e-05
2.01375e-07
-3.63025e-05
9.6761e-08
-3.63195e-05
2.9886e-08
-3.6339e-05
3.39702e-08
-3.63837e-05
8.60224e-08
-3.64504e-05
1.29245e-07
-3.65223e-05
1.42545e-07
-3.65923e-05
1.39245e-07
-3.66633e-05
1.3902e-07
-3.67381e-05
1.46359e-07
-3.68172e-05
1.56201e-07
-3.68993e-05
1.62338e-07
-3.69829e-05
1.65482e-07
-3.70689e-05
1.69608e-07
-3.71556e-05
1.7169e-07
-3.72452e-05
1.75308e-07
-3.73343e-05
1.76283e-07
-3.74243e-05
1.77604e-07
-3.75144e-05
1.77813e-07
-3.76041e-05
1.78047e-07
-3.76943e-05
1.78077e-07
-3.7784e-05
1.76941e-07
-3.78734e-05
1.76086e-07
-3.79617e-05
1.739e-07
-3.80482e-05
1.71897e-07
-3.81334e-05
1.68266e-07
-3.82176e-05
1.65973e-07
-3.83e-05
1.62564e-07
-3.83811e-05
1.59751e-07
-3.84604e-05
1.56048e-07
-3.85375e-05
1.51795e-07
-3.86121e-05
1.47504e-07
-3.86849e-05
1.43062e-07
-3.87543e-05
1.38363e-07
-3.88225e-05
1.33795e-07
-3.88871e-05
1.2868e-07
-3.895e-05
1.23293e-07
-3.901e-05
1.18374e-07
-3.90674e-05
1.13019e-07
-3.91215e-05
1.07049e-07
-3.91731e-05
1.02229e-07
-3.92238e-05
9.84754e-08
-3.92703e-05
9.16468e-08
-3.93139e-05
8.75854e-08
-3.9355e-05
8.18951e-08
-3.93951e-05
7.80735e-08
-3.94329e-05
7.44779e-08
-3.94694e-05
7.2678e-08
-3.95042e-05
6.93475e-08
-3.95366e-05
6.30492e-08
-3.95606e-05
4.79365e-08
-3.958e-05
3.8423e-08
-3.95962e-05
3.31083e-08
-3.96094e-05
2.53051e-08
-3.96179e-05
1.72468e-08
-3.96217e-05
8.6196e-09
-3.96225e-05
1.5159e-09
-4.08792e-09
-1.29375e-05
1.51095e-05
-1.72788e-05
1.68756e-05
6.45803e-06
-5.81495e-05
2.32555e-05
-1.40055e-05
1.84501e-05
1.30928e-05
1.83956e-05
-1.35764e-06
1.16159e-05
1.1394e-05
-2.08562e-05
7.35637e-05
-5.91387e-05
9.36025e-05
-7.40869e-05
3.9486e-05
-6.89301e-05
-1.27567e-05
-6.14277e-05
-1.95725e-05
-5.74101e-05
-1.03471e-05
-5.54223e-05
-5.18579e-06
-5.4916e-05
-1.4448e-06
-5.55683e-05
1.56289e-06
-5.66183e-05
2.67733e-06
-5.7255e-05
1.66596e-06
-5.73687e-05
3.56396e-07
-5.70711e-05
-6.86248e-07
-5.65154e-05
-1.38214e-06
-5.60524e-05
-1.18131e-06
-5.58553e-05
-5.23222e-07
-5.5885e-05
4.56008e-08
-5.60411e-05
3.73528e-07
-5.61816e-05
3.41897e-07
-5.62538e-05
1.68972e-07
-5.62835e-05
5.95967e-08
-5.63202e-05
7.06308e-08
-5.63923e-05
1.58162e-07
-5.64925e-05
2.29499e-07
-5.66039e-05
2.53884e-07
-5.67139e-05
2.49255e-07
-5.68236e-05
2.48695e-07
-5.6938e-05
2.60762e-07
-5.70602e-05
2.78391e-07
-5.71876e-05
2.89789e-07
-5.73175e-05
2.95368e-07
-5.74488e-05
3.00925e-07
-5.75836e-05
3.0645e-07
-5.77195e-05
3.11186e-07
-5.78579e-05
3.14656e-07
-5.79961e-05
3.15867e-07
-5.81356e-05
3.1724e-07
-5.82742e-05
3.16705e-07
-5.84138e-05
3.17699e-07
-5.85519e-05
3.14957e-07
-5.86894e-05
3.13658e-07
-5.88242e-05
3.08672e-07
-5.89592e-05
3.06878e-07
-5.90911e-05
3.00114e-07
-5.92212e-05
2.96041e-07
-5.9348e-05
2.89398e-07
-5.9473e-05
2.84754e-07
-5.95943e-05
2.77331e-07
-5.97129e-05
2.70351e-07
-5.9827e-05
2.61562e-07
-5.99394e-05
2.55476e-07
-6.00477e-05
2.46791e-07
-6.01525e-05
2.38448e-07
-6.0253e-05
2.29303e-07
-6.03491e-05
2.19245e-07
-6.04413e-05
2.10707e-07
-6.05291e-05
2.00609e-07
-6.0614e-05
1.9194e-07
-6.06939e-05
1.82144e-07
-6.07677e-05
1.7226e-07
-6.08408e-05
1.64708e-07
-6.09089e-05
1.55629e-07
-6.09732e-05
1.46214e-07
-6.10341e-05
1.3891e-07
-6.10925e-05
1.32899e-07
-6.11484e-05
1.28532e-07
-6.12024e-05
1.23328e-07
-6.12501e-05
1.10662e-07
-6.12886e-05
8.64644e-08
-6.13179e-05
6.76731e-08
-6.13428e-05
5.79739e-08
-6.13612e-05
4.36852e-08
-6.13751e-05
3.11151e-08
-6.13812e-05
1.46717e-08
-6.13803e-05
6.18632e-10
-8.63248e-09
-1.83909e-05
2.45111e-05
-2.92117e-05
2.23099e-05
8.44389e-06
-8.89033e-05
3.17794e-05
-2.3475e-05
2.61913e-05
1.86809e-05
2.51691e-05
-3.35391e-07
1.22532e-05
2.43098e-05
-3.53525e-05
0.000121169
-8.67187e-05
0.000144969
-0.000105165
5.79325e-05
-9.83839e-05
-1.95381e-05
-8.9093e-05
-2.88634e-05
-8.40474e-05
-1.53927e-05
-8.15907e-05
-7.64255e-06
-8.10343e-05
-2.00119e-06
-8.19134e-05
2.44201e-06
-8.32465e-05
4.01043e-06
-8.40225e-05
2.44198e-06
-8.41253e-05
4.59122e-07
-8.37068e-05
-1.10472e-06
-8.29822e-05
-2.10673e-06
-8.23932e-05
-1.77036e-06
-8.21576e-05
-7.58814e-07
-8.22139e-05
1.01961e-07
-8.24286e-05
5.88232e-07
-8.26178e-05
5.31044e-07
-8.27182e-05
2.69375e-07
-8.2769e-05
1.10394e-07
-8.283e-05
1.31651e-07
-8.29396e-05
2.67745e-07
-8.30885e-05
3.78414e-07
-8.32481e-05
4.13485e-07
-8.34056e-05
4.06776e-07
-8.35666e-05
4.09705e-07
-8.37346e-05
4.28694e-07
-8.39124e-05
4.56201e-07
-8.40967e-05
4.74079e-07
-8.42856e-05
4.84272e-07
-8.4478e-05
4.93403e-07
-8.46749e-05
5.03246e-07
-8.48712e-05
5.07524e-07
-8.50719e-05
5.15359e-07
-8.52727e-05
5.16672e-07
-8.54756e-05
5.20158e-07
-8.56776e-05
5.18687e-07
-8.58786e-05
5.18758e-07
-8.60798e-05
5.16016e-07
-8.62792e-05
5.13099e-07
-8.64767e-05
5.06164e-07
-8.66703e-05
5.00476e-07
-8.6862e-05
4.9174e-07
-8.7051e-05
4.85075e-07
-8.72372e-05
4.75566e-07
-8.74176e-05
4.65152e-07
-8.75927e-05
4.52402e-07
-8.77656e-05
4.4326e-07
-8.79336e-05
4.29557e-07
-8.80956e-05
4.17477e-07
-8.8254e-05
4.05226e-07
-8.84035e-05
3.87877e-07
-8.85493e-05
3.75111e-07
-8.86891e-05
3.5897e-07
-8.88244e-05
3.46145e-07
-8.89533e-05
3.2928e-07
-8.90748e-05
3.13483e-07
-8.91896e-05
2.9693e-07
-8.93015e-05
2.84108e-07
-8.94046e-05
2.67768e-07
-8.95028e-05
2.53846e-07
-8.95959e-05
2.39253e-07
-8.96834e-05
2.26333e-07
-8.97681e-05
2.17604e-07
-8.98493e-05
2.09691e-07
-8.99281e-05
2.02124e-07
-8.99966e-05
1.79104e-07
-9.00509e-05
1.40731e-07
-9.00929e-05
1.09663e-07
-9.01282e-05
9.32339e-08
-9.01561e-05
7.14726e-08
-9.01733e-05
4.83423e-08
-9.01826e-05
2.39189e-08
-9.01803e-05
-1.69151e-09
-1.37281e-08
-2.43876e-05
3.61733e-05
-4.51554e-05
2.82273e-05
1.03344e-05
-0.000127465
4.14083e-05
-3.6656e-05
3.55047e-05
2.45845e-05
3.2799e-05
2.37024e-06
1.00657e-05
4.70432e-05
-5.68299e-05
0.000188065
-0.000122077
0.000210216
-0.000143494
7.93497e-05
-0.000135145
-2.78873e-05
-0.000124367
-3.96417e-05
-0.000118427
-2.13323e-05
-0.000115597
-1.04725e-05
-0.000115047
-2.55085e-06
-0.000116158
3.5531e-06
-0.000117736
5.58813e-06
-0.000118616
3.32186e-06
-0.000118679
5.21907e-07
-0.000118126
-1.65768e-06
-0.000117231
-3.00157e-06
-0.000116538
-2.46348e-06
-0.000116279
-1.01785e-06
-0.000116374
1.96899e-07
-0.000116653
8.67599e-07
-0.000116896
7.73455e-07
-0.000117031
4.05253e-07
-0.000117107
1.86481e-07
-0.000117205
2.29501e-07
-0.000117364
4.26827e-07
-0.000117568
5.81957e-07
-0.00011779
6.3518e-07
-0.00011801
6.27201e-07
-0.000118232
6.32048e-07
-0.000118466
6.62399e-07
-0.000118713
7.02978e-07
-0.000118969
7.3014e-07
-0.00011923
7.45423e-07
-0.000119496
7.59561e-07
-0.000119765
7.71499e-07
-0.000120039
7.82455e-07
-0.000120315
7.9071e-07
-0.000120594
7.96154e-07
-0.000120871
7.97045e-07
-0.000121151
7.98841e-07
-0.00012143
7.97101e-07
-0.000121707
7.9342e-07
-0.000121983
7.88803e-07
-0.000122255
7.78324e-07
-0.000122526
7.71111e-07
-0.00012279
7.56511e-07
-0.00012305
7.44646e-07
-0.000123305
7.30084e-07
-0.000123554
7.14556e-07
-0.000123799
6.97529e-07
-0.000124037
6.8098e-07
-0.000124269
6.6158e-07
-0.000124493
6.41405e-07
-0.000124708
6.20697e-07
-0.000124918
5.97531e-07
-0.000125121
5.78548e-07
-0.000125312
5.49303e-07
-0.000125497
5.31441e-07
-0.000125674
5.06132e-07
-0.000125842
4.81619e-07
-0.000126003
4.58104e-07
-0.000126154
4.3451e-07
-0.000126298
4.12458e-07
-0.000126434
3.89043e-07
-0.000126563
3.68316e-07
-0.000126683
3.4631e-07
-0.000126799
3.33858e-07
-0.00012691
3.20331e-07
-0.000127016
3.08345e-07
-0.000127112
2.75182e-07
-0.000127187
2.15305e-07
-0.000127244
1.66851e-07
-0.000127292
1.41585e-07
-0.000127327
1.05991e-07
-0.000127351
7.25976e-08
-0.000127361
3.39918e-08
-0.00012736
-2.80375e-09
-2.46293e-08
-3.06791e-05
4.9634e-05
-6.55e-05
3.44684e-05
1.17005e-05
-0.000173634
5.19393e-05
-5.41269e-05
4.62758e-05
3.02481e-05
4.08311e-05
7.81487e-06
3.21806e-06
8.46563e-05
-8.73457e-05
0.000278629
-0.00016613
0.000289
-0.000189649
0.000102869
-0.000179906
-3.76309e-05
-0.000168049
-5.14988e-05
-0.000161446
-2.7935e-05
-0.000158381
-1.35371e-05
-0.000157897
-3.03499e-06
-0.000159221
4.87722e-06
-0.000160993
7.35927e-06
-0.000161925
4.25397e-06
-0.000161916
5.13451e-07
-0.000161223
-2.35097e-06
-0.000160187
-4.03754e-06
-0.000159409
-3.24117e-06
-0.000159147
-1.28063e-06
-0.000159294
3.4463e-07
-0.00015964
1.21316e-06
-0.000159938
1.07131e-06
-0.000160112
5.79819e-07
-0.000160227
3.01401e-07
-0.000160368
3.70108e-07
-0.000160584
6.4329e-07
-0.000160857
8.552e-07
-0.000161147
9.24919e-07
-0.000161439
9.18488e-07
-0.000161732
9.25115e-07
-0.000162043
9.73731e-07
-0.000162367
1.02737e-06
-0.000162705
1.06761e-06
-0.000163049
1.08915e-06
-0.000163397
1.10769e-06
-0.000163752
1.12717e-06
-0.000164115
1.14557e-06
-0.000164479
1.15376e-06
-0.000164844
1.16125e-06
-0.000165211
1.16424e-06
-0.000165578
1.16559e-06
-0.000165945
1.16505e-06
-0.00016631
1.158e-06
-0.000166669
1.14799e-06
-0.000167028
1.1375e-06
-0.000167383
1.12525e-06
-0.000167731
1.10497e-06
-0.000168072
1.08561e-06
-0.000168406
1.06396e-06
-0.000168735
1.04331e-06
-0.000169057
1.01988e-06
-0.000169368
9.91915e-07
-0.000169671
9.64395e-07
-0.000169967
9.36996e-07
-0.000170252
9.06094e-07
-0.000170526
8.71272e-07
-0.000170787
8.39433e-07
-0.000171042
8.0482e-07
-0.000171286
7.74975e-07
-0.000171517
7.37339e-07
-0.000171737
7.0173e-07
-0.000171947
6.68261e-07
-0.000172146
6.32847e-07
-0.000172333
5.99427e-07
-0.000172511
5.66957e-07
-0.000172679
5.36403e-07
-0.000172838
5.06059e-07
-0.000172987
4.82643e-07
-0.000173135
4.67604e-07
-0.000173272
4.45908e-07
-0.000173397
4.00024e-07
-0.000173493
3.11448e-07
-0.000173569
2.42909e-07
-0.00017363
2.01768e-07
-0.000173679
1.5588e-07
-0.000173708
1.01422e-07
-0.000173721
4.6169e-08
-0.000173715
-8.19417e-09
-3.81606e-08
-3.68171e-05
6.38658e-05
-9.06166e-05
4.09732e-05
1.21534e-05
-0.00022676
6.30215e-05
-7.61752e-05
5.81265e-05
3.5143e-05
4.79978e-05
1.79436e-05
-1.07607e-05
0.000143415
-0.000128618
0.000396485
-0.000219312
0.000379695
-0.000243729
0.000127286
-0.000232762
-4.85979e-05
-0.00022018
-6.40806e-05
-0.000213149
-3.49662e-05
-0.00020998
-1.67056e-05
-0.000209624
-3.39079e-06
-0.000211149
6.40184e-06
-0.000213058
9.26776e-06
-0.000214
5.19684e-06
-0.000213903
4.16109e-07
-0.000213069
-3.18515e-06
-0.000211909
-5.19771e-06
-0.000211075
-4.07448e-06
-0.000210832
-1.52433e-06
-0.000211036
5.49422e-07
-0.000211454
1.63052e-06
-0.000211806
1.42336e-06
-0.000212024
7.97911e-07
-0.000212176
4.53387e-07
-0.000212373
5.67115e-07
-0.000212654
9.24355e-07
-0.000212999
1.20012e-06
-0.000213361
1.2869e-06
-0.000213728
1.28573e-06
-0.000214101
1.29769e-06
-0.000214493
1.36567e-06
-0.000214901
1.43588e-06
-0.000215323
1.48962e-06
-0.000215755
1.52115e-06
-0.000216195
1.54764e-06
-0.000216641
1.5735e-06
-0.00021709
1.59394e-06
-0.000217548
1.61172e-06
-0.000218008
1.62152e-06
-0.000218467
1.62267e-06
-0.000218927
1.6265e-06
-0.000219387
1.62428e-06
-0.000219842
1.6133e-06
-0.000220297
1.60282e-06
-0.000220743
1.58386e-06
-0.000221185
1.5668e-06
-0.000221619
1.5389e-06
-0.000222047
1.51423e-06
-0.000222466
1.48306e-06
-0.000222876
1.45288e-06
-0.000223276
1.42012e-06
-0.000223666
1.3819e-06
-0.000224044
1.34222e-06
-0.000224412
1.30506e-06
-0.000224767
1.26143e-06
-0.000225109
1.21322e-06
-0.000225441
1.17085e-06
-0.000225755
1.119e-06
-0.000226057
1.07717e-06
-0.000226348
1.02788e-06
-0.000226622
9.75964e-07
-0.000226881
9.27435e-07
-0.000227129
8.804e-07
-0.000227366
8.3611e-07
-0.000227589
7.90391e-07
-0.000227796
7.43033e-07
-0.000227992
7.0233e-07
-0.00022818
6.70422e-07
-0.000228362
6.49761e-07
-0.000228534
6.17855e-07
-0.000228691
5.56868e-07
-0.00022881
4.3079e-07
-0.0002289
3.32393e-07
-0.000228981
2.82606e-07
-0.000229034
2.09319e-07
-0.000229072
1.39666e-07
-0.000229089
6.27111e-08
-0.000229081
-1.55845e-08
-5.72818e-08
-4.25068e-05
7.7502e-05
-0.00012097
4.76483e-05
1.15346e-05
-0.000285943
7.42663e-05
-0.000102793
7.04402e-05
3.89692e-05
5.21196e-05
3.62641e-05
-3.47691e-05
0.000230303
-0.000181633
0.000543349
-0.000281445
0.000479507
-0.000305334
0.000151175
-0.000293177
-6.07551e-05
-0.000280035
-7.72228e-05
-0.000272735
-4.2266e-05
-0.00026957
-1.9871e-05
-0.000269391
-3.56961e-06
-0.000271129
8.13963e-06
-0.000273156
1.12956e-05
-0.000274077
6.11756e-06
-0.000273873
2.11676e-07
-0.000272898
-4.1593e-06
-0.000271621
-6.47564e-06
-0.000270751
-4.94364e-06
-0.000270538
-1.73774e-06
-0.000270809
8.20613e-07
-0.000271299
2.12005e-06
-0.000271708
1.83259e-06
-0.000271968
1.05776e-06
-0.000272168
6.5329e-07
-0.000272417
8.16226e-07
-0.000272767
1.27498e-06
-0.000273186
1.61838e-06
-0.00027363
1.73146e-06
-0.000274069
1.72432e-06
-0.000274524
1.75318e-06
-0.000274997
1.83819e-06
-0.000275492
1.93131e-06
-0.000276004
2.00158e-06
-0.000276527
2.04417e-06
-0.000277056
2.07602e-06
-0.000277595
2.11276e-06
-0.00027814
2.13939e-06
-0.000278692
2.16302e-06
-0.000279242
2.17138e-06
-0.000279796
2.17744e-06
-0.00028035
2.17985e-06
-0.0002809
2.17475e-06
-0.000281449
2.16266e-06
-0.000281993
2.14641e-06
-0.000282534
2.12445e-06
-0.000283062
2.09558e-06
-0.000283587
2.06388e-06
-0.000284099
2.02538e-06
-0.000284603
1.98794e-06
-0.000285096
1.94506e-06
-0.000285576
1.90024e-06
-0.000286045
1.85075e-06
-0.000286502
1.79921e-06
-0.00028694
1.74289e-06
-0.000287365
1.68681e-06
-0.000287778
1.6262e-06
-0.00028817
1.5631e-06
-0.000288552
1.50106e-06
-0.000288914
1.43852e-06
-0.000289261
1.37496e-06
-0.000289592
1.30747e-06
-0.000289904
1.23953e-06
-0.000290201
1.17736e-06
-0.000290481
1.1156e-06
-0.000290744
1.0538e-06
-0.000290998
9.96369e-07
-0.000291234
9.38478e-07
-0.000291462
8.99007e-07
-0.000291679
8.66148e-07
-0.000291886
8.2494e-07
-0.000292069
7.40171e-07
-0.000292213
5.74748e-07
-0.000292325
4.4423e-07
-0.000292417
3.74108e-07
-0.000292485
2.77379e-07
-0.000292528
1.83154e-07
-0.000292546
8.03808e-08
-0.000292542
-1.94652e-08
-8.29423e-08
-4.75732e-05
8.92224e-05
-0.000157009
5.45008e-05
1.00743e-05
-0.000350518
8.5319e-05
-0.000133611
8.23841e-05
4.1904e-05
5.03665e-05
6.82817e-05
-7.19772e-05
0.000352647
-0.000246788
0.00071816
-0.000351793
0.000584512
-0.000373901
0.000173282
-0.000360524
-7.4132e-05
-0.000346858
-9.08886e-05
-0.000339406
-4.97177e-05
-0.00033633
-2.29472e-05
-0.000336388
-3.51124e-06
-0.00033835
1.01017e-05
-0.000340474
1.34195e-05
-0.00034135
6.99332e-06
-0.000341016
-1.21815e-07
-0.00033989
-5.28588e-06
-0.000338506
-7.85958e-06
-0.000337608
-5.84133e-06
-0.000337437
-1.90919e-06
-0.000337784
1.16824e-06
-0.00033835
2.68578e-06
-0.000338819
2.30122e-06
-0.000339127
1.36604e-06
-0.000339375
9.00746e-07
-0.000339684
1.12558e-06
-0.000340108
1.6987e-06
-0.000340607
2.11748e-06
-0.00034113
2.25443e-06
-0.000341656
2.25072e-06
-0.000342192
2.28929e-06
-0.000342752
2.39849e-06
-0.000343344
2.5226e-06
-0.000343946
2.60412e-06
-0.000344559
2.65665e-06
-0.000345188
2.70542e-06
-0.000345821
2.74532e-06
-0.000346464
2.78282e-06
-0.000347112
2.81038e-06
-0.000347761
2.82124e-06
-0.000348414
2.83009e-06
-0.000349063
2.82905e-06
-0.000349714
2.82542e-06
-0.000350358
2.80641e-06
-0.000350998
2.78634e-06
-0.00035163
2.75724e-06
-0.000352253
2.71765e-06
-0.000352868
2.67892e-06
-0.000353472
2.63012e-06
-0.000354061
2.57614e-06
-0.000354641
2.5252e-06
-0.000355202
2.46185e-06
-0.000355754
2.40236e-06
-0.000356285
2.33067e-06
-0.000356803
2.2606e-06
-0.000357305
2.1886e-06
-0.000357786
2.10712e-06
-0.000358248
2.02571e-06
-0.000358695
1.94749e-06
-0.00035912
1.86404e-06
-0.000359526
1.78055e-06
-0.000359915
1.69601e-06
-0.000360282
1.60695e-06
-0.000360629
1.5243e-06
-0.000360961
1.44757e-06
-0.000361274
1.36653e-06
-0.000361567
1.29016e-06
-0.000361847
1.21783e-06
-0.00036211
1.162e-06
-0.000362368
1.12389e-06
-0.000362615
1.07183e-06
-0.000362833
9.58325e-07
-0.000363004
7.46459e-07
-0.000363133
5.73016e-07
-0.000363243
4.83654e-07
-0.000363325
3.59829e-07
-0.00036338
2.37608e-07
-0.0003634
1.00917e-07
-0.000363395
-2.51126e-08
-1.08664e-07
-5.20502e-05
9.83636e-05
-0.000198984
6.17401e-05
8.02097e-06
-0.000420279
9.62033e-05
-0.000168075
9.28459e-05
4.52614e-05
3.94637e-05
0.000121664
-0.000124975
0.000517086
-0.000323468
0.000916652
-0.000429471
0.000690515
-0.000449287
0.000193098
-0.000434828
-8.85902e-05
-0.000420724
-0.000104993
-0.000413225
-5.72174e-05
-0.000410306
-2.58662e-05
-0.000410625
-3.19229e-06
-0.000412794
1.22706e-05
-0.000414987
1.56126e-05
-0.00041579
7.79676e-06
-0.000415316
-5.96387e-07
-0.000414041
-6.5603e-06
-0.000412558
-9.34325e-06
-0.000411646
-6.75284e-06
-0.00041153
-2.02524e-06
-0.000411966
1.60361e-06
-0.000412618
3.33851e-06
-0.00041315
2.83266e-06
-0.000413508
1.72435e-06
-0.000413811
1.20423e-06
-0.000414189
1.50313e-06
-0.000414693
2.20291e-06
-0.000415283
2.70768e-06
-0.000415897
2.86819e-06
-0.000416514
2.86784e-06
-0.000417145
2.92015e-06
-0.000417806
3.0594e-06
-0.000418492
3.20836e-06
-0.000419201
3.31307e-06
-0.000419923
3.3784e-06
-0.000420651
3.43376e-06
-0.000421395
3.48917e-06
-0.000422144
3.53217e-06
-0.000422898
3.56418e-06
-0.00042366
3.58342e-06
-0.000424417
3.58714e-06
-0.000425179
3.59079e-06
-0.000425932
3.57855e-06
-0.000426685
3.559e-06
-0.000427428
3.52971e-06
-0.000428163
3.49239e-06
-0.000428896
3.45025e-06
-0.000429606
3.38897e-06
-0.000430305
3.32884e-06
-0.000430995
3.26635e-06
-0.000431669
3.19905e-06
-0.000432325
3.11805e-06
-0.000432963
3.04094e-06
-0.000433585
2.95261e-06
-0.000434187
2.86215e-06
-0.000434767
2.76868e-06
-0.00043533
2.66986e-06
-0.000435869
2.56489e-06
-0.000436384
2.46225e-06
-0.000436886
2.36618e-06
-0.000437361
2.2553e-06
-0.00043781
2.14555e-06
-0.000438238
2.03517e-06
-0.000438647
1.93286e-06
-0.000439031
1.83141e-06
-0.000439397
1.73277e-06
-0.000439741
1.63408e-06
-0.000440068
1.54436e-06
-0.000440382
1.47621e-06
-0.000440686
1.42798e-06
-0.000440974
1.35961e-06
-0.00044123
1.21428e-06
-0.000441429
9.46074e-07
-0.000441584
7.27923e-07
-0.000441714
6.13776e-07
-0.000441814
4.59765e-07
-0.000441878
3.01317e-07
-0.000441912
1.35096e-07
-0.000441904
-3.36107e-08
-1.31029e-07
-5.59859e-05
0.000104754
-0.000246949
6.97042e-05
5.38767e-06
-0.000495371
0.000107133
-0.000205503
0.000100092
5.23023e-05
1.60554e-05
0.0002057
-0.000194805
0.000727947
-0.000411239
0.00113309
-0.000514647
0.000793923
-0.000532244
0.000210695
-0.00051707
-0.000103764
-0.000502702
-0.00011936
-0.000495228
-6.46917e-05
-0.000492488
-2.8606e-05
-0.000493046
-2.63476e-06
-0.000495396
1.46206e-05
-0.000497619
1.78361e-05
-0.000498328
8.50529e-06
-0.000497705
-1.21961e-06
-0.000496293
-7.97214e-06
-0.000494722
-1.09136e-05
-0.00049382
-7.65509e-06
-0.000493778
-2.06692e-06
-0.000494309
2.13461e-06
-0.000495054
4.08287e-06
-0.000495654
3.43307e-06
-0.000496074
2.14436e-06
-0.000496445
1.57524e-06
-0.000496908
1.96585e-06
-0.000497508
2.80266e-06
-0.000498199
3.39944e-06
-0.00049892
3.58864e-06
-0.000499641
3.58897e-06
-0.00050038
3.65916e-06
-0.000501152
3.8311e-06
-0.000501955
4.01186e-06
-0.000502782
4.13952e-06
-0.000503623
4.21955e-06
-0.000504473
4.28449e-06
-0.000505341
4.35622e-06
-0.000506214
4.40591e-06
-0.000507095
4.44467e-06
-0.000507973
4.46115e-06
-0.000508859
4.47409e-06
-0.000509739
4.47079e-06
-0.000510623
4.46162e-06
-0.000511495
4.43181e-06
-0.000512365
4.3998e-06
-0.00051322
4.34693e-06
-0.000514058
4.28863e-06
-0.000514892
4.22224e-06
-0.000515712
4.14915e-06
-0.000516511
4.06536e-06
-0.000517289
3.97747e-06
-0.000518052
3.88103e-06
-0.000518796
3.78405e-06
-0.000519517
3.674e-06
-0.000520218
3.56369e-06
-0.000520894
3.44412e-06
-0.000521548
3.32349e-06
-0.000522176
3.19316e-06
-0.00052278
3.06643e-06
-0.000523356
2.94202e-06
-0.000523907
2.8069e-06
-0.000524435
2.67304e-06
-0.000524936
2.53588e-06
-0.00052541
2.40706e-06
-0.000525861
2.28239e-06
-0.000526287
2.1588e-06
-0.00052669
2.03764e-06
-0.000527077
1.93083e-06
-0.000527442
1.84092e-06
-0.000527797
1.78284e-06
-0.000528139
1.7023e-06
-0.000528445
1.52021e-06
-0.000528682
1.18321e-06
-0.000528868
9.13443e-07
-0.000529023
7.68566e-07
-0.000529141
5.77908e-07
-0.000529222
3.82374e-07
-0.000529259
1.72118e-07
-0.000529259
-3.39135e-08
-1.54341e-07
-5.89636e-05
0.000108514
-0.000300525
7.8619e-05
2.02584e-06
-0.000576016
0.000118063
-0.000244947
0.000101538
6.88272e-05
-2.27284e-05
0.000329967
-0.000281276
0.000986495
-0.000509912
0.00136172
-0.000608323
0.000892333
-0.000624385
0.000226758
-0.000608982
-0.000119167
-0.000594496
-0.000133846
-0.000587052
-7.21355e-05
-0.000584478
-3.11805e-05
-0.000585229
-1.88286e-06
-0.000587701
1.70921e-05
-0.000589934
2.00692e-05
-0.000590543
9.11456e-06
-0.000589786
-1.97719e-06
-0.000588253
-9.50538e-06
-0.000586625
-1.25414e-05
-0.000585748
-8.53164e-06
-0.000585786
-2.02895e-06
-0.00058642
2.76885e-06
-0.000587262
4.92427e-06
-0.000587949
4.1201e-06
-0.000588445
2.64056e-06
-0.000588897
2.02723e-06
-0.000589458
2.5269e-06
-0.000590176
3.52026e-06
-0.000590984
4.20737e-06
-0.000591818
4.42286e-06
-0.00059267
4.44083e-06
-0.000593534
4.5231e-06
-0.00059444
4.73719e-06
-0.000595375
4.94709e-06
-0.000596339
5.10349e-06
-0.000597319
5.19958e-06
-0.000598313
5.27811e-06
-0.000599315
5.35865e-06
-0.000600337
5.42791e-06
-0.00060136
5.46792e-06
-0.00060239
5.49118e-06
-0.000603417
5.50096e-06
-0.000604446
5.49993e-06
-0.000605467
5.48252e-06
-0.000606484
5.4486e-06
-0.000607488
5.40338e-06
-0.000608486
5.34509e-06
-0.00060947
5.27248e-06
-0.000610433
5.18534e-06
-0.00061138
5.09654e-06
-0.00061231
4.99491e-06
-0.00061322
4.88774e-06
-0.000614109
4.77054e-06
-0.000614971
4.64585e-06
-0.000615813
4.51564e-06
-0.000616627
4.37765e-06
-0.000617417
4.23452e-06
-0.000618173
4.07897e-06
-0.000618903
3.92378e-06
-0.000619607
3.7701e-06
-0.00062028
3.61529e-06
-0.000620926
3.45271e-06
-0.000621539
3.28618e-06
-0.000622123
3.11917e-06
-0.000622677
2.96105e-06
-0.000623205
2.81023e-06
-0.000623707
2.661e-06
-0.000624182
2.5128e-06
-0.00062463
2.3788e-06
-0.00062507
2.28109e-06
-0.000625487
2.20001e-06
-0.000625887
2.10176e-06
-0.00062625
1.88297e-06
-0.000626531
1.46438e-06
-0.000626749
1.13207e-06
-0.000626937
9.56331e-07
-0.000627081
7.21759e-07
-0.000627181
4.82676e-07
-0.000627234
2.24453e-07
-0.000627237
-3.02218e-08
-1.71945e-07
-6.05031e-05
0.000109955
-0.000359003
8.8624e-05
-2.23845e-06
-0.000662402
0.000128484
-0.000284807
9.48645e-05
0.000102447
-7.87373e-05
0.000503568
-0.000384155
0.00129191
-0.000619781
0.00159735
-0.000712272
0.000984825
-0.000727842
0.000242327
-0.000712677
-0.000134332
-0.000698143
-0.00014838
-0.000690688
-7.95898e-05
-0.000688216
-3.36525e-05
-0.000689098
-1.00101e-06
-0.000691656