/*--------------------------------*- C++ -*----------------------------------*\
| =========                 |                                                 |
| \\      /  F ield         | OpenFOAM: The Open Source CFD Toolbox           |
|  \\    /   O peration     | Version:  2412                                  |
|   \\  /    A nd           | Website:  www.openfoam.com                      |
|    \\/     M anipulation  |                                                 |
\*---------------------------------------------------------------------------*/
FoamFile
{
    version     2.0;
    format      ascii;
    arch        "LSB;label=32;scalar=64";
    class       surfaceScalarField;
    location    "220";
    object      phi;
}
// * * * * * * * * * * * * * * * * * * * * * * * * * * * * * * * * * * * * * //

dimensions      [0 3 -1 0 0 0 0];

oriented        oriented;

internalField   nonuniform List<scalar> 
17125
(
-2.78676e-06
-1.8405e-07
-2.49204e-06
-2.94782e-07
-2.00141e-06
-4.9055e-07
-1.18264e-06
-8.189e-07
1.10795e-07
-1.29325e-06
2.17022e-06
-2.05973e-06
4.90763e-06
-2.74041e-06
7.37233e-06
-2.46166e-06
8.63264e-06
-1.26237e-06
8.4128e-06
2.21959e-07
7.08584e-06
1.32808e-06
5.50125e-06
1.58355e-06
4.31845e-06
1.18481e-06
3.62332e-06
6.93094e-07
3.22285e-06
4.02214e-07
2.99239e-06
2.28794e-07
2.85897e-06
1.35378e-07
2.78396e-06
7.31016e-08
2.75059e-06
3.50188e-08
2.74427e-06
4.70964e-09
2.75364e-06
-9.38252e-09
2.77216e-06
-1.85285e-08
2.7957e-06
-2.35414e-08
2.82143e-06
-2.57144e-08
2.84768e-06
-2.62257e-08
2.87342e-06
-2.57333e-08
2.89784e-06
-2.44165e-08
2.92078e-06
-2.29167e-08
2.94204e-06
-2.12396e-08
2.96175e-06
-1.96885e-08
2.97994e-06
-1.81713e-08
2.99566e-06
-1.57009e-08
3.00913e-06
-1.3437e-08
3.02037e-06
-1.12082e-08
3.02958e-06
-9.19e-09
3.03715e-06
-7.27298e-09
3.04331e-06
-6.37555e-09
3.04858e-06
-5.06529e-09
3.05303e-06
-4.57523e-09
3.05614e-06
-2.8442e-09
3.05842e-06
-2.47964e-09
3.06008e-06
-1.72634e-09
3.06143e-06
-1.23412e-09
3.0625e-06
-9.46677e-10
3.06346e-06
-9.67194e-10
3.06412e-06
-5.74286e-10
3.06435e-06
-2.144e-10
3.06425e-06
3.13284e-10
3.064e-06
1.22687e-10
3.0636e-06
5.92729e-10
3.06316e-06
3.17154e-10
3.06258e-06
7.83999e-10
3.0619e-06
5.34252e-10
3.06131e-06
6.88883e-10
3.06063e-06
6.51152e-10
3.05989e-06
8.7937e-10
3.05918e-06
6.43923e-10
3.05835e-06
9.22183e-10
3.0575e-06
8.64913e-10
3.05665e-06
1.07528e-09
3.05577e-06
8.105e-10
3.05495e-06
1.11059e-09
3.05422e-06
5.26511e-10
3.05344e-06
1.24966e-09
3.05263e-06
3.10044e-10
3.05189e-06
7.65281e-10
3.05116e-06
6.99833e-10
3.0504e-06
1.08293e-09
3.04973e-06
3.75949e-10
3.04896e-06
1.06383e-09
3.04828e-06
4.1454e-10
3.04767e-06
7.64528e-10
3.04692e-06
5.55937e-10
3.04633e-06
8.09065e-10
3.04573e-06
4.16372e-10
3.04508e-06
8.27341e-10
3.04453e-06
3.53082e-10
3.04397e-06
7.60485e-10
3.04336e-06
4.14275e-10
3.04287e-06
6.09469e-10
3.04232e-06
4.01528e-10
3.04179e-06
6.85007e-10
3.04129e-06
3.56139e-10
3.04079e-06
5.9355e-10
3.04027e-06
4.06867e-10
4.58223e-10
-9.67985e-06
-8.40948e-07
-8.6384e-06
-1.33631e-06
-6.92301e-06
-2.20585e-06
-4.09048e-06
-3.6516e-06
3.41959e-07
-5.72548e-06
7.34275e-06
-9.06091e-06
1.66023e-05
-1.20038e-05
2.50272e-05
-1.08827e-05
2.95118e-05
-5.74966e-06
2.90972e-05
6.39309e-07
2.48757e-05
5.55112e-06
1.95938e-05
6.86402e-06
1.55142e-05
5.26715e-06
1.30444e-05
3.16016e-06
1.15863e-05
1.86259e-06
1.07241e-05
1.08885e-06
1.02081e-05
6.53938e-07
9.90406e-06
3.74656e-07
9.75303e-06
1.88163e-07
9.70344e-06
5.22318e-08
9.71456e-06
-2.05079e-08
9.76307e-06
-6.70548e-08
9.83273e-06
-9.32045e-08
9.91364e-06
-1.06593e-07
9.9988e-06
-1.11359e-07
1.00841e-05
-1.11028e-07
1.01661e-05
-1.06426e-07
1.02438e-05
-1.00549e-07
1.0317e-05
-9.44516e-08
1.03855e-05
-8.81608e-08
1.04482e-05
-8.08119e-08
1.05033e-05
-7.07977e-08
1.05504e-05
-6.04468e-08
1.05903e-05
-5.10982e-08
1.06233e-05
-4.216e-08
1.06501e-05
-3.36081e-08
1.06724e-05
-2.90145e-08
1.06919e-05
-2.42179e-08
1.07077e-05
-2.05756e-08
1.07196e-05
-1.43592e-08
1.0728e-05
-1.11235e-08
1.07346e-05
-8.47192e-09
1.07396e-05
-6.02781e-09
1.07438e-05
-4.98392e-09
1.07476e-05
-4.79944e-09
1.07506e-05
-3.46324e-09
1.0752e-05
-1.56786e-09
1.0752e-05
6.3972e-10
1.07513e-05
6.7056e-10
1.07504e-05
1.75689e-09
1.07489e-05
1.67633e-09
1.0747e-05
2.86281e-09
1.07453e-05
2.08665e-09
1.07432e-05
2.90693e-09
1.07412e-05
2.64317e-09
1.07391e-05
3.19742e-09
1.07366e-05
3.01671e-09
1.0734e-05
3.70677e-09
1.07313e-05
3.55299e-09
1.07285e-05
4.1509e-09
1.07259e-05
3.35543e-09
1.07231e-05
4.30737e-09
1.07205e-05
2.88404e-09
1.07179e-05
4.42297e-09
1.07156e-05
1.96286e-09
1.07129e-05
3.50884e-09
1.07104e-05
3.1949e-09
1.07084e-05
3.51912e-09
1.07055e-05
2.82434e-09
1.07034e-05
3.574e-09
1.07012e-05
2.32681e-09
1.06987e-05
3.43995e-09
1.06968e-05
2.15574e-09
1.06946e-05
3.3458e-09
1.06926e-05
2.14144e-09
1.06905e-05
3.15379e-09
1.06886e-05
2.03132e-09
1.06866e-05
3.03552e-09
1.06848e-05
1.93007e-09
1.0683e-05
2.58518e-09
1.06813e-05
1.86127e-09
1.06799e-05
2.36992e-09
1.06782e-05
1.8756e-09
1.06765e-05
2.40062e-09
1.0675e-05
1.68915e-09
2.10285e-09
-1.89213e-05
-2.16737e-06
-1.68384e-05
-3.41936e-06
-1.34419e-05
-5.60219e-06
-7.89204e-06
-9.20167e-06
7.10297e-07
-1.43276e-05
1.41885e-05
-2.25395e-05
3.19495e-05
-2.97688e-05
4.8251e-05
-2.71802e-05
5.72542e-05
-1.47556e-05
5.70693e-05
8.26967e-07
4.94879e-05
1.31341e-05
3.95197e-05
1.68308e-05
3.15471e-05
1.32425e-05
2.65655e-05
8.139e-06
2.35456e-05
4.88484e-06
2.17067e-05
2.92545e-06
2.05679e-05
1.79543e-06
1.98664e-05
1.07355e-06
1.94833e-05
5.7356e-07
1.93173e-05
2.16024e-07
1.92868e-05
1.00006e-08
1.93415e-05
-1.2174e-07
1.94494e-05
-2.01096e-07
1.95862e-05
-2.43399e-07
1.97379e-05
-2.63027e-07
1.98949e-05
-2.68001e-07
2.00491e-05
-2.60654e-07
2.01976e-05
-2.49035e-07
2.03388e-05
-2.35594e-07
2.04719e-05
-2.2123e-07
2.05961e-05
-2.04989e-07
2.07056e-05
-1.80271e-07
2.08007e-05
-1.5552e-07
2.08815e-05
-1.31781e-07
2.09484e-05
-1.09109e-07
2.10043e-05
-8.90327e-08
2.10508e-05
-7.58271e-08
2.10912e-05
-6.4293e-08
2.11249e-05
-5.45256e-08
2.11503e-05
-3.93369e-08
2.11693e-05
-3.04338e-08
2.11837e-05
-2.29177e-08
2.11955e-05
-1.76599e-08
2.12058e-05
-1.50679e-08
2.1215e-05
-1.4041e-08
2.12222e-05
-1.05038e-08
2.12258e-05
-5.12703e-09
2.12273e-05
-6.76588e-10
2.12276e-05
3.03244e-10
2.12262e-05
3.37058e-09
2.12245e-05
3.22508e-09
2.12221e-05
5.49461e-09
2.12191e-05
4.90067e-09
2.12166e-05
5.58996e-09
2.12136e-05
5.64197e-09
2.121e-05
6.93989e-09
2.12059e-05
7.09023e-09
2.12013e-05
8.35952e-09
2.11968e-05
8.15376e-09
2.11921e-05
9.17708e-09
2.1187e-05
8.32058e-09
2.11827e-05
9.05253e-09
2.11782e-05
7.13682e-09
2.11737e-05
9.48286e-09
2.11692e-05
5.78869e-09
2.11649e-05
7.89756e-09
2.11606e-05
7.42352e-09
2.11562e-05
8.3739e-09
2.11524e-05
6.25342e-09
2.11481e-05
8.19552e-09
2.11441e-05
6.01501e-09
2.11402e-05
7.49144e-09
2.1136e-05
6.11376e-09
2.11324e-05
7.25871e-09
2.11285e-05
5.78984e-09
2.11254e-05
6.48994e-09
2.11217e-05
5.49863e-09
2.11183e-05
6.64853e-09
2.11153e-05
4.6714e-09
2.11123e-05
5.77039e-09
2.11093e-05
4.68996e-09
2.11059e-05
5.94556e-09
2.11034e-05
4.19291e-09
2.11005e-05
5.45988e-09
2.10974e-05
4.57805e-09
4.34832e-09
-3.0925e-05
-4.4295e-06
-2.741e-05
-6.93447e-06
-2.17433e-05
-1.12687e-05
-1.25921e-05
-1.83531e-05
1.43732e-06
-2.83568e-05
2.32142e-05
-4.43167e-05
5.17965e-05
-5.8355e-05
7.82414e-05
-5.36212e-05
9.34057e-05
-2.99225e-05
9.42003e-05
3.51279e-08
8.29946e-05
2.43413e-05
6.73271e-05
3.24969e-05
5.42566e-05
2.63157e-05
4.5766e-05
1.66268e-05
4.04506e-05
1.02026e-05
3.71016e-05
6.27222e-06
3.49472e-05
3.95251e-06
3.35551e-05
2.4631e-06
3.2727e-05
1.40376e-06
3.22954e-05
6.45597e-07
3.21216e-05
1.83806e-07
3.21177e-05
-1.1786e-07
3.22235e-05
-3.06964e-07
3.23978e-05
-4.17654e-07
3.26109e-05
-4.76124e-07
3.28426e-05
-4.99653e-07
3.30799e-05
-4.97943e-07
3.33134e-05
-4.82487e-07
3.35405e-05
-4.62697e-07
3.37581e-05
-4.38737e-07
3.39621e-05
-4.08978e-07
3.41461e-05
-3.64217e-07
3.43066e-05
-3.15914e-07
3.44455e-05
-2.7061e-07
3.45622e-05
-2.25851e-07
3.466e-05
-1.86349e-07
3.47435e-05
-1.59601e-07
3.48167e-05
-1.37203e-07
3.48785e-05
-1.1647e-07
3.49256e-05
-8.60633e-08
3.49608e-05
-6.59364e-08
3.49895e-05
-5.16435e-08
3.50131e-05
-4.11225e-08
3.50335e-05
-3.52422e-08
3.50533e-05
-3.38242e-08
3.50688e-05
-2.58746e-08
3.50787e-05
-1.50292e-08
3.50836e-05
-5.22262e-09
3.5086e-05
-2.23561e-09
3.50868e-05
2.79992e-09
3.50861e-05
3.76379e-09
3.50842e-05
7.67711e-09
3.50816e-05
7.36409e-09
3.50789e-05
8.3987e-09
3.50762e-05
8.30474e-09
3.50723e-05
1.10732e-08
3.50677e-05
1.16016e-08
3.50619e-05
1.43613e-08
3.50555e-05
1.45512e-08
3.50494e-05
1.56458e-08
3.50437e-05
1.40045e-08
3.50369e-05
1.621e-08
3.50307e-05
1.30813e-08
3.50243e-05
1.64653e-08
3.50183e-05
1.12262e-08
3.50128e-05
1.34089e-08
3.50068e-05
1.33703e-08
3.50007e-05
1.49071e-08
3.49951e-05
1.14904e-08
3.49894e-05
1.42789e-08
3.4984e-05
1.10567e-08
3.49785e-05
1.32448e-08
3.49733e-05
1.10354e-08
3.49682e-05
1.26756e-08
3.4963e-05
1.06795e-08
3.49582e-05
1.15668e-08
3.49526e-05
1.08178e-08
3.4948e-05
1.15185e-08
3.49434e-05
9.02871e-09
3.49392e-05
1.01002e-08
3.49352e-05
8.46497e-09
3.49312e-05
1.01653e-08
3.49263e-05
8.90709e-09
3.49224e-05
9.48413e-09
3.49188e-05
8.06849e-09
8.25923e-09
-4.60964e-05
-7.98125e-06
-4.06397e-05
-1.23912e-05
-3.19507e-05
-1.99577e-05
-1.81044e-05
-3.21996e-05
2.85414e-06
-4.93152e-05
3.50318e-05
-7.64948e-05
7.70445e-05
-0.000100371
0.000116175
-9.27482e-05
0.000139434
-5.31836e-05
0.000142305
-2.83416e-06
0.000127568
3.90796e-05
0.000105377
5.46872e-05
8.59249e-05
4.57701e-05
7.26975e-05
2.98517e-05
6.40976e-05
1.88047e-05
5.8467e-05
1.19007e-05
5.46961e-05
7.72593e-06
5.21432e-05
5.01357e-06
5.05095e-05
3.03951e-06
4.95423e-05
1.61078e-06
4.90281e-05
6.98022e-07
4.88263e-05
8.3953e-08
4.88386e-05
-3.19229e-07
4.899e-05
-5.6903e-07
4.92296e-05
-7.1577e-07
4.95228e-05
-7.92826e-07
4.98403e-05
-8.15396e-07
5.01671e-05
-8.09277e-07
5.04933e-05
-7.88874e-07
5.08141e-05
-7.59513e-07
5.11221e-05
-7.16849e-07
5.1403e-05
-6.45078e-07
5.1651e-05
-5.63874e-07
5.18698e-05
-4.89403e-07
5.20582e-05
-4.14194e-07
5.22178e-05
-3.45619e-07
5.23552e-05
-2.97169e-07
5.24777e-05
-2.59478e-07
5.25819e-05
-2.20769e-07
5.26633e-05
-1.67163e-07
5.27275e-05
-1.3034e-07
5.2779e-05
-1.03163e-07
5.28221e-05
-8.41121e-08
5.2862e-05
-7.49163e-08
5.2899e-05
-7.08858e-08
5.29303e-05
-5.69768e-08
5.29505e-05
-3.52471e-08
5.29639e-05
-1.83736e-08
5.29731e-05
-1.1511e-08
5.29788e-05
-2.69033e-09
5.29824e-05
6.94596e-11
5.29833e-05
7.00844e-09
5.29842e-05
6.33571e-09
5.29852e-05
7.50521e-09
5.29851e-05
8.39918e-09
5.2983e-05
1.34088e-08
5.29785e-05
1.6007e-08
5.29734e-05
1.96371e-08
5.29674e-05
2.056e-08
5.29608e-05
2.25747e-08
5.29532e-05
2.16119e-08
5.29469e-05
2.28511e-08
5.294e-05
1.97223e-08
5.29336e-05
2.33845e-08
5.29268e-05
1.74733e-08
5.29206e-05
1.95879e-08
5.29141e-05
1.9906e-08
5.29078e-05
2.15396e-08
5.29011e-05
1.78464e-08
5.28945e-05
2.12633e-08
5.28881e-05
1.71309e-08
5.28818e-05
1.97663e-08
5.28753e-05
1.72585e-08
5.28696e-05
1.86806e-08
5.28637e-05
1.64151e-08
5.28573e-05
1.80794e-08
5.2853e-05
1.49254e-08
5.28473e-05
1.74799e-08
5.28419e-05
1.41772e-08
5.28362e-05
1.59351e-08
5.28314e-05
1.30735e-08
5.28259e-05
1.58113e-08
5.28219e-05
1.27557e-08
5.28168e-05
1.4696e-08
5.28119e-05
1.28689e-08
1.18378e-08
-6.48008e-05
-1.3286e-05
-5.67454e-05
-2.04467e-05
-4.40916e-05
-3.26114e-05
-2.42227e-05
-5.20686e-05
5.41731e-06
-7.89551e-05
5.03368e-05
-0.000121415
0.000108573
-0.000158611
0.00016307
-0.000147242
0.000196473
-8.65894e-05
0.000202677
-9.03552e-06
0.000184823
5.69354e-05
0.00015569
8.38187e-05
0.000128832
7.26303e-05
0.000109645
4.9036e-05
9.66291e-05
3.1823e-05
8.77468e-05
2.07808e-05
8.15433e-05
1.39319e-05
7.71524e-05
9.40205e-06
7.41592e-05
6.03477e-06
7.22182e-05
3.54976e-06
7.10273e-05
1.88889e-06
7.03755e-05
7.35802e-07
7.01088e-05
-5.25202e-08
7.01086e-05
-5.68824e-07
7.02912e-05
-8.98293e-07
7.05916e-05
-1.0932e-06
7.09622e-05
-1.18601e-06
7.13709e-05
-1.21793e-06
7.18003e-05
-1.21821e-06
7.22359e-05
-1.19512e-06
7.26656e-05
-1.14644e-06
7.30676e-05
-1.04707e-06
7.34327e-05
-9.28861e-07
7.3759e-05
-8.15679e-07
7.40443e-05
-6.99374e-07
7.4292e-05
-5.92951e-07
7.45087e-05
-5.14039e-07
7.47036e-05
-4.54174e-07
7.48728e-05
-3.90012e-07
7.50074e-05
-3.01456e-07
7.51147e-05
-2.37839e-07
7.52053e-05
-1.93846e-07
7.52823e-05
-1.60907e-07
7.53536e-05
-1.46059e-07
7.54206e-05
-1.37771e-07
7.54773e-05
-1.13537e-07
7.5519e-05
-7.68758e-08
7.55482e-05
-4.73155e-08
7.55691e-05
-3.2484e-08
7.55865e-05
-1.97983e-08
7.55982e-05
-1.17284e-08
7.56085e-05
-3.04111e-09
7.56165e-05
-1.86674e-09
7.56253e-05
-1.10281e-09
7.56335e-05
2.03938e-10
7.56372e-05
9.87122e-09
7.5637e-05
1.62358e-08
7.56348e-05
2.19186e-08
7.56312e-05
2.42816e-08
7.56269e-05
2.71664e-08
7.56227e-05
2.58523e-08
7.56163e-05
2.96161e-08
7.56112e-05
2.46441e-08
7.56062e-05
2.89714e-08
7.56014e-05
2.17097e-08
7.55962e-05
2.4811e-08
7.55916e-05
2.44286e-08
7.55865e-05
2.70739e-08
7.55813e-05
2.27162e-08
7.55753e-05
2.7545e-08
7.55701e-05
2.20228e-08
7.55642e-05
2.58992e-08
7.55592e-05
2.19523e-08
7.55533e-05
2.49205e-08
7.55483e-05
2.12431e-08
7.5543e-05
2.35353e-08
7.55374e-05
2.02538e-08
7.55321e-05
2.31056e-08
7.55279e-05
1.81335e-08
7.5524e-05
1.9925e-08
7.55188e-05
1.81249e-08
7.55147e-05
2.00892e-08
7.55103e-05
1.70163e-08
7.55047e-05
2.03466e-08
7.55001e-05
1.73984e-08
1.48026e-08
-8.73213e-05
-2.09421e-05
-7.58373e-05
-3.19308e-05
-5.80589e-05
-5.03898e-05
-3.05919e-05
-7.95356e-05
9.71396e-06
-0.000119261
6.98683e-05
-0.000181569
0.000147151
-0.000235897
0.000219689
-0.000219777
0.000265208
-0.000132109
0.000275808
-1.9634e-05
0.000255175
7.75693e-05
0.000218945
0.000120048
0.000184168
0.000107409
0.000158265
7.49366e-05
0.000139954
5.01356e-05
0.000126916
3.38176e-05
0.00011741
2.34402e-05
0.000110372
1.64382e-05
0.000105299
1.11095e-05
0.000101768
7.07814e-06
9.93915e-05
4.2658e-06
9.78846e-05
2.24268e-06
9.7026e-05
8.06131e-07
9.66414e-05
-1.84151e-07
9.6594e-05
-8.50849e-07
9.67858e-05
-1.28499e-06
9.7131e-05
-1.53124e-06
9.75777e-05
-1.66458e-06
9.80873e-05
-1.72772e-06
9.86347e-05
-1.74254e-06
9.91964e-05
-1.70812e-06
9.97376e-05
-1.5882e-06
0.000100245
-1.43594e-06
0.000100708
-1.27888e-06
0.000101124
-1.11482e-06
0.00010149
-9.58984e-07
0.000101817
-8.41492e-07
0.000102116
-7.53114e-07
0.00010238
-6.53899e-07
0.000102595
-5.16266e-07
0.000102772
-4.14632e-07
0.000102922
-3.4376e-07
0.000103053
-2.91864e-07
0.000103173
-2.65753e-07
0.000103288
-2.53175e-07
0.000103388
-2.13312e-07
0.000103463
-1.51371e-07
0.000103519
-1.02931e-07
0.000103564
-7.81969e-08
0.000103601
-5.65222e-08
0.000103632
-4.2327e-08
0.000103656
-2.7667e-08
0.000103681
-2.6246e-08
0.000103707
-2.71969e-08
0.000103729
-2.21791e-08
0.000103745
-5.58059e-09
0.000103755
5.88437e-09
0.000103761
1.623e-08
0.000103765
2.02729e-08
0.000103767
2.55201e-08
0.000103768
2.49099e-08
0.000103769
2.92318e-08
0.000103769
2.44411e-08
0.000103768
2.99231e-08
0.000103769
2.04983e-08
0.000103769
2.5088e-08
0.000103769
2.38222e-08
0.000103768
2.85466e-08
0.000103767
2.34136e-08
0.000103767
2.8447e-08
0.000103764
2.4157e-08
0.000103763
2.73543e-08
0.000103761
2.41861e-08
0.000103759
2.62774e-08
0.000103757
2.3089e-08
0.000103756
2.52747e-08
0.000103752
2.35408e-08
0.000103751
2.44661e-08
0.000103748
2.13759e-08
0.000103747
2.12449e-08
0.000103744
2.01344e-08
0.000103741
2.3214e-08
0.000103739
1.89824e-08
0.000103738
2.18677e-08
0.000103733
2.1725e-08
1.3373e-08
-0.000113818
-3.17069e-05
-9.78733e-05
-4.78754e-05
-7.35711e-05
-7.4692e-05
-3.66897e-05
-0.000116417
1.64452e-05
-0.000172396
9.43481e-05
-0.000259473
0.000193377
-0.000334928
0.000286563
-0.00031296
0.000346049
-0.000191597
0.000361751
-3.53347e-05
0.000338232
0.000101089
0.000294465
0.000163815
0.000251417
0.000150459
0.000218575
0.000107776
0.000194731
7.39817e-05
0.000177152
5.13947e-05
0.000163809
3.67857e-05
0.000153482
2.67627e-05
0.000145635
1.89583e-05
0.00013983
1.28819e-05
0.000135635
8.46079e-06
0.000132715
5.16199e-06
0.0001308
2.7212e-06
0.000129653
9.62626e-07
0.000129089
-2.86369e-07
0.000128951
-1.14676e-06
0.000129116
-1.69593e-06
0.00012949
-2.03899e-06
0.000130011
-2.24861e-06
0.000130632
-2.3636e-06
0.000131311
-2.38747e-06
0.000131998
-2.27488e-06
0.000132661
-2.09855e-06
0.00013329
-1.90741e-06
0.000133866
-1.69133e-06
0.00013439
-1.48219e-06
0.000134868
-1.31966e-06
0.00013531
-1.19545e-06
0.000135705
-1.04841e-06
0.000136036
-8.47643e-07
0.000136314
-6.92792e-07
0.000136555
-5.84485e-07
0.000136768
-5.04958e-07
0.000136967
-4.63945e-07
0.000137156
-4.42104e-07
0.00013732
-3.7775e-07
0.000137451
-2.81442e-07
0.000137553
-2.04881e-07
0.000137635
-1.60821e-07
0.000137706
-1.26583e-07
0.000137768
-1.04653e-07
0.000137821
-8.05093e-08
0.000137874
-7.93446e-08
0.000137929
-8.17485e-08
0.000137979
-7.25483e-08
0.000138018
-4.44574e-08
0.000138046
-2.17925e-08
0.000138068
-5.77526e-09
0.000138085
3.15383e-09
0.000138102
9.2614e-09
0.000138116
1.13327e-08
0.000138128
1.69079e-08
0.000138139
1.36147e-08
0.00013815
1.95527e-08
0.00013816
1.01046e-08
0.000138172
1.24724e-08
0.000138183
1.31384e-08
0.000138193
1.8646e-08
0.000138201
1.55235e-08
0.000138209
2.08992e-08
0.000138216
1.70399e-08
0.000138222
2.12364e-08
0.000138227
1.88386e-08
0.000138232
2.20168e-08
0.000138238
1.68102e-08
0.000138242
2.15186e-08
0.000138247
1.77759e-08
0.00013825
2.15696e-08
0.000138257
1.46838e-08
0.000138259
1.88197e-08
0.000138264
1.52347e-08
0.000138267
2.04326e-08
0.000138271
1.50592e-08
0.000138272
2.0303e-08
0.000138275
1.91711e-08
8.94529e-09
-0.000144279
-4.65278e-05
-0.000122616
-6.95385e-05
-9.01531e-05
-0.000107155
-4.1833e-05
-0.000164737
2.638e-05
-0.000240609
0.00012441
-0.000357503
0.000247644
-0.000458164
0.000364113
-0.000429427
0.000439499
-0.000266984
0.000460868
-5.67028e-05
0.000434057
0.0001279
0.000381842
0.000216029
0.000329753
0.000202548
0.000289654
0.000147875
0.000260317
0.000103319
0.000238339
7.33718e-05
0.000221203
5.39234e-05
0.000207442
4.05222e-05
0.000196484
2.9918e-05
0.00018791
2.14539e-05
0.000181317
1.50537e-05
0.000176386
1.00932e-05
0.000172842
6.26494e-06
0.000170429
3.37586e-06
0.000168914
1.22883e-06
0.000168101
-3.33424e-07
0.000167811
-1.40639e-06
0.000167911
-2.13887e-06
0.000168299
-2.63616e-06
0.000168891
-2.95553e-06
0.000169627
-3.12341e-06
0.000170428
-3.07618e-06
0.000171245
-2.91518e-06
0.000172048
-2.711e-06
0.000172815
-2.45798e-06
0.000173532
-2.19909e-06
0.0001742
-1.98769e-06
0.000174831
-1.82562e-06
0.000175405
-1.62278e-06
0.000175899
-1.34168e-06
0.000176322
-1.11531e-06
0.000176694
-9.57441e-07
0.000177029
-8.394e-07
0.000177342
-7.76218e-07
0.000177639
-7.39542e-07
0.000177902
-6.40522e-07
0.000178116
-4.95088e-07
0.000178286
-3.7538e-07
0.000178432
-3.06773e-07
0.000178559
-2.53193e-07
0.000178668
-2.13829e-07
0.000178769
-1.81235e-07
0.000178867
-1.77651e-07
0.000178971
-1.84772e-07
0.000179065
-1.66595e-07
0.000179141
-1.20961e-07
0.000179201
-8.17735e-08
0.00017925
-5.44273e-08
0.000179294
-4.02312e-08
0.000179333
-2.9965e-08
0.000179368
-2.3876e-08
0.000179402
-1.60833e-08
0.000179433
-1.76686e-08
0.000179462
-9.29647e-09
0.000179494
-2.21148e-08
0.000179526
-1.99795e-08
0.000179556
-1.70214e-08
0.000179584
-8.36868e-09
0.00017961
-1.04786e-08
0.000179632
-1.13625e-09
0.000179654
-5.53795e-09
0.000179675
6.68232e-10
0.000179696
-2.06847e-09
0.000179715
2.60236e-09
0.000179733
-5.22613e-10
0.000179751
2.91801e-09
0.000179767
1.94965e-09
0.000179784
5.02826e-09
0.000179799
-1.03777e-09
0.000179815
3.50779e-09
0.00017983
-2.67292e-10
0.000179844
6.04115e-09
0.000179856
3.34881e-09
0.000179869
7.43864e-09
0.00017988
8.43169e-09
-8.07394e-09
-0.000178481
-6.65666e-05
-0.000149604
-9.84149e-05
-0.00010713
-0.00014963
-4.52211e-05
-0.000226646
4.02722e-05
-0.000326102
0.000160534
-0.000477765
0.00031016
-0.000607794
0.000452786
-0.000572051
0.00054639
-0.00036059
0.000574225
-8.45361e-05
0.000543891
0.000158235
0.000482112
0.000277807
0.000419716
0.000264945
0.000371482
0.000196108
0.00033631
0.000138493
0.000309988
9.96922e-05
0.000289292
7.46206e-05
0.000272342
5.74716e-05
0.000258384
4.38766e-05
0.000246967
3.28696e-05
0.000237705
2.43163e-05
0.000230334
1.74642e-05
0.00022464
1.19583e-05
0.000220406
7.61082e-06
0.000217412
4.2222e-06
0.000215445
1.63397e-06
0.000214295
-2.56652e-07
0.000213789
-1.63276e-06
0.000213782
-2.62911e-06
0.000214157
-3.32994e-06
0.000214811
-3.77814e-06
0.000215637
-3.90203e-06
0.000216559
-3.83711e-06
0.000217521
-3.67221e-06
0.000218481
-3.41818e-06
0.000219416
-3.13335e-06
0.000220313
-2.88541e-06
0.000221177
-2.6891e-06
0.00022198
-2.4263e-06
0.000222693
-2.0541e-06
0.000223318
-1.74007e-06
0.000223877
-1.51659e-06
0.000224384
-1.3461e-06
0.00022486
-1.25184e-06
0.000225311
-1.19074e-06
0.000225715
-1.04401e-06
0.00022605
-8.29766e-07
0.000226328
-6.5378e-07
0.000226568
-5.46586e-07
0.000226779
-4.63421e-07
0.000226967
-4.02527e-07
0.00022714
-3.53637e-07
0.000227312
-3.50282e-07
0.000227487
-3.59556e-07
0.000227649
-3.28254e-07
0.000227783
-2.55114e-07
0.000227895
-1.92934e-07
0.000227989
-1.48987e-07
0.000228073
-1.23698e-07
0.00022815
-1.06713e-07
0.000228222
-9.57104e-08
0.000228288
-8.21526e-08
0.000228352
-8.12634e-08
0.000228414
-7.11316e-08
0.000228475
-8.34971e-08
0.00022854
-8.51913e-08
0.000228603
-7.9616e-08
0.000228661
-6.58896e-08
0.000228714
-6.34332e-08
0.000228763
-5.04469e-08
0.000228809
-5.18009e-08
0.000228854
-4.39753e-08
0.000228896
-4.43877e-08
0.000228937
-3.84041e-08
0.000228979
-4.19578e-08
0.000229017
-3.57845e-08
0.000229054
-3.45072e-08
0.000229089
-2.95875e-08
0.000229123
-3.59206e-08
0.00022916
-3.26762e-08
0.00022919
-3.07126e-08
0.000229221
-2.50562e-08
0.000229252
-2.78423e-08
0.00022928
-1.98295e-08
0.000229305
-1.69954e-08
-4.02769e-08
-0.000215948
-9.32218e-05
-0.000178149
-0.000136214
-0.000123668
-0.000204111
-4.60359e-05
-0.000304278
5.87485e-05
-0.000430886
0.000202984
-0.000622001
0.00038096
-0.000785772
0.000553084
-0.000744173
0.000667826
-0.000475333
0.000703457
-0.000120166
0.000669987
0.000191706
0.000597643
0.00035015
0.000523334
0.000339255
0.000465545
0.000253896
0.000423608
0.000180431
0.000392481
0.000130818
0.000368125
9.89771e-05
0.000348107
7.74892e-05
0.000331377
6.06074e-05
0.000317325
4.69208e-05
0.000305482
3.61596e-05
0.000295588
2.73579e-05
0.000287478
2.0068e-05
0.000281012
1.40766e-05
0.000276038
9.19649e-06
0.000272387
5.2856e-06
0.000269867
2.26276e-06
0.000268292
-5.75738e-08
0.000267495
-1.83215e-06
0.000267328
-3.16252e-06
0.000267653
-4.10301e-06
0.00026832
-4.56951e-06
0.000269214
-4.73085e-06
0.000270261
-4.719e-06
0.000271378
-4.53563e-06
0.000272525
-4.27992e-06
0.000273673
-4.03343e-06
0.000274811
-3.82646e-06
0.000275897
-3.5127e-06
0.000276888
-3.04503e-06
0.000277778
-2.63017e-06
0.00027859
-2.32837e-06
0.000279335
-2.09111e-06
0.000280034
-1.9503e-06
0.000280699
-1.8557e-06
0.000281299
-1.64391e-06
0.000281812
-1.34201e-06
0.000282243
-1.08543e-06
0.000282622
-9.25269e-07
0.000282959
-7.99847e-07
0.000283264
-7.07422e-07
0.000283547
-6.36845e-07
0.000283825
-6.28632e-07
0.000284107
-6.41615e-07
0.000284372
-5.92455e-07
0.000284595
-4.77882e-07
0.000284783
-3.80781e-07
0.000284945
-3.11579e-07
0.000285094
-2.72487e-07
0.000285229
-2.41106e-07
0.000285356
-2.22815e-07
0.000285476
-2.0183e-07
0.000285589
-1.9437e-07
0.000285697
-1.78785e-07
0.00028581
-1.96527e-07
0.000285926
-2.01566e-07
0.000286039
-1.92939e-07
0.00028614
-1.66341e-07
0.000286235
-1.58409e-07
0.000286325
-1.4006e-07
0.000286409
-1.36071e-07
0.000286489
-1.23651e-07
0.000286568
-1.23676e-07
0.000286644
-1.14136e-07
0.000286717
-1.15398e-07
0.000286787
-1.0518e-07
0.000286855
-1.02665e-07
0.000286919
-9.42201e-08
0.000286985
-1.01674e-07
0.000287046
-9.31855e-08
0.000287107
-9.22919e-08
0.000287164
-8.22709e-08
0.00028722
-8.3214e-08
0.000287274
-7.37335e-08
0.000287321
-6.49335e-08
-9.90634e-08
-0.000255964
-0.000128106
-0.000207384
-0.000184794
-0.0001389
-0.000272595
-4.35956e-05
-0.000399582
8.21941e-05
-0.000556676
0.000251751
-0.000791557
0.000459896
-0.00099392
0.00066518
-0.000949455
0.000804564
-0.000614718
0.0008505
-0.000166101
0.000815302
0.000226904
0.000731614
0.000433839
0.000643604
0.000427266
0.000574439
0.000323059
0.000524299
0.000230572
0.000487371
0.000167746
0.000458741
0.000127608
0.000435347
0.000100882
0.000415781
8.01744e-05
0.000399194
6.35068e-05
0.000384949
5.04045e-05
0.000372677
3.96297e-05
0.000362195
3.05508e-05
0.000353378
2.28934e-05
0.000346139
1.64355e-05
0.000340386
1.10386e-05
0.00033599
6.6588e-06
0.000332816
3.11605e-06
0.000330719
2.65006e-07
0.000329544
-1.98756e-06
0.000329139
-3.69768e-06
0.000329329
-4.75904e-06
0.000329958
-5.35985e-06
0.000330906
-5.66678e-06
0.000332071
-5.70048e-06
0.000333368
-5.57673e-06
0.000334746
-5.41141e-06
0.000336168
-5.2488e-06
0.000337578
-4.92236e-06
0.000338904
-4.37028e-06
0.000340133
-3.85971e-06
0.000341272
-3.46704e-06
0.000342334
-3.15293e-06
0.000343334
-2.95041e-06
0.000344282
-2.80366e-06
0.00034515
-2.51169e-06
0.000345907
-2.0982e-06
0.000346561
-1.73958e-06
0.000347137
-1.50144e-06
0.000347657
-1.31924e-06
0.000348134
-1.18425e-06
0.000348579
-1.08198e-06
0.000349015
-1.06454e-06
0.000349451
-1.07754e-06
0.000349858
-9.98976e-07
0.00035021
-8.30148e-07
0.000350512
-6.82287e-07
0.000350781
-5.80701e-07
0.000351021
-5.12568e-07
0.000351247
-4.6591e-07
0.000351458
-4.34382e-07
0.000351654
-3.9756e-07
0.000351841
-3.81262e-07
0.000352023
-3.60643e-07
0.00035221
-3.8359e-07
0.0003524
-3.91283e-07
0.000352584
-3.76799e-07
0.000352755
-3.3774e-07
0.00035291
-3.1368e-07
0.000353058
-2.86935e-07
0.000353198
-2.76282e-07
0.000353332
-2.58005e-07
0.000353462
-2.53814e-07
0.000353588
-2.39846e-07
0.000353709
-2.36393e-07
0.000353827
-2.23402e-07
0.00035394
-2.15625e-07
0.00035405
-2.04469e-07
0.000354155
-2.06715e-07
0.00035426
-1.97931e-07
0.000354359
-1.91757e-07
0.000354455
-1.77622e-07
0.000354549
-1.77507e-07
0.000354639
-1.63107e-07
0.000354724
-1.50249e-07
-1.96881e-07
-0.000297627
-0.000172972
-0.000236398
-0.000246023
-0.000152114
-0.000356879
-3.75394e-05
-0.000514157
0.000110661
-0.000704877
0.000306585
-0.000987482
0.000546712
-0.00123405
0.000787828
-0.00119057
0.000956391
-0.000783282
0.00101783
-0.000227537
0.000983234
0.000261498
0.000887794
0.000529279
0.000784186
0.000530874
0.000701468
0.000405777
0.000641268
0.000290772
0.000597107
0.000211907
0.000563135
0.000161581
0.000535605
0.000128411
0.000512702
0.000103078
0.000493311
8.28972e-05
0.000476594
6.71211e-05
0.000462025
5.41989e-05
0.000449296
4.32798e-05
0.000438228
3.39613e-05
0.000428715
2.59489e-05
0.000420698
1.90557e-05
0.000414107
1.32492e-05
0.000408887
8.33654e-06
0.000404959
4.19282e-06
0.000402224
7.47137e-07
0.000400555
-2.0287e-06
0.000399784
-3.98712e-06
0.000399741
-5.31725e-06
0.000400272
-6.19707e-06
0.000401238
-6.66687e-06
0.000402522
-6.8608e-06
0.000404029
-6.91788e-06
0.000405696
-6.91576e-06
0.000407427
-6.65368e-06
0.000409134
-6.07685e-06
0.000410765
-5.49049e-06
0.00041231
-5.01226e-06
0.000413773
-4.61578e-06
0.000415163
-4.34006e-06
0.000416486
-4.12688e-06
0.000417709
-3.73452e-06
0.000418798
-3.18728e-06
0.000419758
-2.69906e-06
0.000420618
-2.36104e-06
0.000421397
-2.09782e-06
0.000422116
-1.90332e-06
0.000422792
-1.75825e-06
0.00042345
-1.72257e-06
0.000424099
-1.72601e-06
0.000424707
-1.60676e-06
0.000425246
-1.36944e-06
0.000425717
-1.15313e-06
0.000426134
-9.98074e-07
0.000426518
-8.96213e-07
0.000426872
-8.18973e-07
0.000427204
-7.66357e-07
0.000427516
-7.10017e-07
0.000427813
-6.77906e-07
0.0004281
-6.47586e-07
0.000428394
-6.77847e-07
0.000428697
-6.94514e-07
0.000428988
-6.67289e-07
0.000429251
-6.00146e-07
0.000429498
-5.61218e-07
0.000429731
-5.1938e-07
0.000429951
-4.97161e-07
0.000430163
-4.70005e-07
0.000430364
-4.54518e-07
0.000430561
-4.36757e-07
0.000430754
-4.29276e-07
0.000430937
-4.06621e-07
0.000431114
-3.92525e-07
0.000431285
-3.74984e-07
0.000431451
-3.73301e-07
0.000431612
-3.58272e-07
0.00043177
-3.49898e-07
0.000431925
-3.33214e-07
0.000432074
-3.26601e-07
0.000432218
-3.06675e-07
0.000432352
-2.84863e-07
-3.4657e-07
-0.000340016
-0.00022956
-0.000264486
-0.000321553
-0.000163003
-0.000458363
-2.79711e-05
-0.000649189
0.000143818
-0.000876666
0.000367102
-0.00121077
0.000641184
-0.00150813
0.000918762
-0.00146815
0.00112214
-0.000986659
0.00120792
-0.00031332
0.00117735
0.000292068
0.00107038
0.000636247
0.000949272
0.000651986
0.000850529
0.000504519
0.00077803
0.000363272
0.000724812
0.000265124
0.000684052
0.000202341
0.000651241
0.000161222
0.000624095
0.000130225
0.000601228
0.000105764
0.000581584
8.67643e-05
0.000564458
7.13252e-05
0.000549414
5.83238e-05
0.000536144
4.72316e-05
0.000524452
3.76408e-05
0.000514225
2.92832e-05
0.000505386
2.2088e-05
0.000497907
1.58152e-05
0.000491781
1.03192e-05
0.000486985
5.5432e-06
0.000483473
1.48287e-06
0.000481141
-1.6546e-06
0.00047985
-4.02589e-06
0.000479456
-5.80281e-06
0.0004798
-7.01105e-06
0.000480737
-7.79699e-06
0.000482136
-8.31725e-06
0.000483886
-8.6655e-06
0.000485868
-8.63541e-06
0.000487935
-8.14389e-06
0.000490004
-7.55925e-06
0.000492025
-7.03325e-06
0.000493974
-6.56438e-06
0.000495852
-6.21774e-06
0.000497651
-5.92596e-06
0.000499338
-5.42142e-06
0.000500868
-4.71725e-06
0.000502243
-4.07333e-06
0.000503485
-3.60282e-06
0.000504624
-3.23701e-06
0.000505685
-2.9645e-06
0.000506683
-2.75566e-06
0.000507648
-2.68788e-06
0.000508589
-2.66648e-06
0.000509476
-2.49361e-06
0.000510273
-2.16604e-06
0.000510981
-1.86099e-06
0.00051162
-1.63723e-06
0.000512203
-1.4793e-06
0.000512747
-1.36256e-06
0.000513254
-1.27327e-06
0.000513735
-1.19055e-06
0.000514191
-1.13394e-06
0.000514635
-1.0906e-06
0.000515086
-1.12922e-06
0.000515545
-1.15334e-06
0.000515982
-1.10524e-06
0.00051639
-1.00754e-06
0.000516764
-9.35515e-07
0.000517118
-8.72876e-07
0.000517454
-8.32701e-07
0.000517773
-7.89343e-07
0.000518081
-7.62384e-07
0.000518376
-7.32272e-07
0.000518664
-7.17078e-07
0.000518943
-6.85292e-07
0.000519209
-6.58655e-07
0.000519469
-6.34673e-07
0.000519718
-6.22974e-07
0.000519964