/*--------------------------------*- C++ -*----------------------------------*\
| =========                 |                                                 |
| \\      /  F ield         | OpenFOAM: The Open Source CFD Toolbox           |
|  \\    /   O peration     | Version:  2412                                  |
|   \\  /    A nd           | Website:  www.openfoam.com                      |
|    \\/     M anipulation  |                                                 |
\*---------------------------------------------------------------------------*/
FoamFile
{
    version     2.0;
    format      ascii;
    arch        "LSB;label=32;scalar=64";
    class       volScalarField;
    location    "420";
    object      nuTilda;
}
// * * * * * * * * * * * * * * * * * * * * * * * * * * * * * * * * * * * * * //

dimensions      [0 2 -1 0 0 0 0];

internalField   nonuniform List<scalar> 
8659
(
1.04754e-06
8.65147e-07
6.1477e-07
3.55924e-07
9.29348e-07
1.57769e-06
2.31779e-06
2.99582e-06
3.42289e-06
3.6012e-06
3.53139e-06
3.30619e-06
3.02952e-06
2.76838e-06
2.55776e-06
2.40118e-06
2.28225e-06
2.19169e-06
2.12051e-06
2.06092e-06
2.00923e-06
1.96341e-06
1.922e-06
1.88408e-06
1.84893e-06
1.81617e-06
1.78539e-06
1.7563e-06
1.7287e-06
1.70233e-06
1.67712e-06
1.65292e-06
1.62953e-06
1.60694e-06
1.58501e-06
1.56376e-06
1.54314e-06
1.5231e-06
1.50372e-06
1.48492e-06
1.46669e-06
1.44905e-06
1.43202e-06
1.41563e-06
1.39988e-06
1.38478e-06
1.37027e-06
1.35633e-06
1.34299e-06
1.33027e-06
1.31827e-06
1.30702e-06
1.2966e-06
1.2871e-06
1.27862e-06
1.27114e-06
1.26471e-06
1.25936e-06
1.25508e-06
1.25186e-06
1.24966e-06
1.2484e-06
1.248e-06
1.24835e-06
1.24934e-06
1.25088e-06
1.25281e-06
1.25497e-06
1.25727e-06
1.25962e-06
1.26194e-06
1.26424e-06
1.26646e-06
1.26861e-06
1.27069e-06
1.27267e-06
1.27458e-06
1.27644e-06
1.27826e-06
1.28008e-06
1.28187e-06
1.28361e-06
1.28527e-06
1.28685e-06
1.28834e-06
1.28973e-06
3.2074e-06
2.64104e-06
1.87516e-06
1.12856e-06
2.87648e-06
4.81514e-06
6.98908e-06
9.02432e-06
1.03777e-05
1.10407e-05
1.09759e-05
1.03787e-05
9.56085e-06
8.75053e-06
8.08299e-06
7.58242e-06
7.20201e-06
6.91161e-06
6.68325e-06
6.4926e-06
6.32757e-06
6.18163e-06
6.05004e-06
5.92976e-06
5.8185e-06
5.71489e-06
5.61769e-06
5.52583e-06
5.43877e-06
5.35563e-06
5.2761e-06
5.19968e-06
5.12579e-06
5.05437e-06
4.98501e-06
4.91763e-06
4.85211e-06
4.78837e-06
4.72653e-06
4.66637e-06
4.60789e-06
4.55113e-06
4.49612e-06
4.44297e-06
4.39171e-06
4.34235e-06
4.29477e-06
4.24884e-06
4.2047e-06
4.16247e-06
4.12231e-06
4.08439e-06
4.04894e-06
4.01629e-06
3.98671e-06
3.9603e-06
3.93723e-06
3.9176e-06
3.90153e-06
3.88899e-06
3.8799e-06
3.87404e-06
3.87115e-06
3.87092e-06
3.87306e-06
3.87714e-06
3.88267e-06
3.8892e-06
3.8963e-06
3.90369e-06
3.91114e-06
3.91852e-06
3.92576e-06
3.93278e-06
3.93956e-06
3.94605e-06
3.9523e-06
3.95838e-06
3.96432e-06
3.97022e-06
3.97605e-06
3.98171e-06
3.98711e-06
3.99222e-06
3.99708e-06
4.00163e-06
5.47121e-06
4.48863e-06
3.18854e-06
2.03979e-06
4.97546e-06
8.16488e-06
1.16536e-05
1.5045e-05
1.74585e-05
1.88844e-05
1.91295e-05
1.83731e-05
1.70671e-05
1.56676e-05
1.44768e-05
1.35714e-05
1.28816e-05
1.23529e-05
1.19364e-05
1.15898e-05
1.12906e-05
1.10267e-05
1.07895e-05
1.05731e-05
1.03733e-05
1.01876e-05
1.00137e-05
9.84939e-06
9.69376e-06
9.5452e-06
9.40305e-06
9.26631e-06
9.13404e-06
9.00594e-06
8.88132e-06
8.75999e-06
8.64164e-06
8.52614e-06
8.41361e-06
8.30369e-06
8.19643e-06
8.09177e-06
7.98984e-06
7.89075e-06
7.79461e-06
7.70143e-06
7.61104e-06
7.52329e-06
7.43837e-06
7.35647e-06
7.27792e-06
7.20304e-06
7.13229e-06
7.0663e-06
7.00562e-06
6.9506e-06
6.90168e-06
6.8592e-06
6.82351e-06
6.79469e-06
6.77269e-06
6.7572e-06
6.74775e-06
6.74383e-06
6.74489e-06
6.75014e-06
6.7586e-06
6.76938e-06
6.78169e-06
6.79487e-06
6.80845e-06
6.82206e-06
6.83554e-06
6.84871e-06
6.86145e-06
6.87371e-06
6.8855e-06
6.89693e-06
6.90811e-06
6.91918e-06
6.93006e-06
6.94062e-06
6.9507e-06
6.96026e-06
6.96933e-06
6.97785e-06
7.76912e-06
6.34497e-06
4.5086e-06
3.13837e-06
7.20145e-06
1.15514e-05
1.61747e-05
2.08495e-05
2.44105e-05
2.69104e-05
2.79262e-05
2.73743e-05
2.57047e-05
2.36946e-05
2.19093e-05
2.05269e-05
1.94691e-05
1.8654e-05
1.80108e-05
1.74771e-05
1.70182e-05
1.66145e-05
1.62528e-05
1.59239e-05
1.5621e-05
1.534e-05
1.50771e-05
1.48292e-05
1.45944e-05
1.43705e-05
1.4156e-05
1.39497e-05
1.37498e-05
1.3556e-05
1.33669e-05
1.31823e-05
1.30016e-05
1.28246e-05
1.26511e-05
1.24809e-05
1.23138e-05
1.21498e-05
1.1989e-05
1.18316e-05
1.16777e-05
1.15273e-05
1.13803e-05
1.12365e-05
1.10963e-05
1.09598e-05
1.08275e-05
1.07002e-05
1.05784e-05
1.04632e-05
1.03557e-05
1.02567e-05
1.0167e-05
1.00876e-05
1.00192e-05
9.96217e-06
9.91668e-06
9.88243e-06
9.85883e-06
9.84512e-06
9.84045e-06
9.84359e-06
9.85295e-06
9.86697e-06
9.88435e-06
9.90391e-06
9.92468e-06
9.94595e-06
9.96728e-06
9.98835e-06
1.00088e-05
1.00286e-05
1.00477e-05
1.00661e-05
1.00841e-05
1.01019e-05
1.01193e-05
1.01361e-05
1.01521e-05
1.01674e-05
1.01819e-05
1.01955e-05
1.00402e-05
8.15677e-06
5.79654e-06
4.46826e-06
9.52899e-06
1.49121e-05
2.04473e-05
2.62761e-05
3.10007e-05
3.48483e-05
3.71831e-05
3.74007e-05
3.56212e-05
3.30179e-05
3.05667e-05
2.86236e-05
2.7127e-05
2.59671e-05
2.50496e-05
2.42908e-05
2.36408e-05
2.30711e-05
2.25625e-05
2.21014e-05
2.16782e-05
2.12863e-05
2.09205e-05
2.05761e-05
2.02502e-05
1.99396e-05
1.96422e-05
1.93559e-05
1.90783e-05
1.88086e-05
1.85451e-05
1.82869e-05
1.80333e-05
1.77837e-05
1.75379e-05
1.72952e-05
1.70556e-05
1.68188e-05
1.65849e-05
1.6354e-05
1.61264e-05
1.5902e-05
1.56808e-05
1.54626e-05
1.52478e-05
1.50369e-05
1.48306e-05
1.46296e-05
1.44352e-05
1.4249e-05
1.40725e-05
1.39075e-05
1.37556e-05
1.36186e-05
1.34978e-05
1.33943e-05
1.33088e-05
1.32411e-05
1.31907e-05
1.31567e-05
1.31379e-05
1.31326e-05
1.31384e-05
1.31528e-05
1.31739e-05
1.31997e-05
1.32284e-05
1.32587e-05
1.32898e-05
1.33209e-05
1.33514e-05
1.3381e-05
1.34096e-05
1.34373e-05
1.34642e-05
1.34906e-05
1.35164e-05
1.35413e-05
1.35651e-05
1.35876e-05
1.36091e-05
1.36294e-05
1.2228e-05
9.8763e-06
7.02088e-06
6.05096e-06
1.1926e-05
1.81803e-05
2.43672e-05
3.11748e-05
3.70116e-05
4.24092e-05
4.65689e-05
4.82942e-05
4.69319e-05
4.38695e-05
4.06914e-05
3.80861e-05
3.606e-05
3.44797e-05
3.32265e-05
3.2194e-05
3.13132e-05
3.05443e-05
2.98607e-05
2.92434e-05
2.86788e-05
2.81574e-05
2.76718e-05
2.72157e-05
2.67847e-05
2.63746e-05
2.5982e-05
2.56042e-05
2.52379e-05
2.48814e-05
2.45326e-05
2.41899e-05
2.38522e-05
2.35184e-05
2.31879e-05
2.28598e-05
2.25337e-05
2.22093e-05
2.18864e-05
2.1565e-05
2.12452e-05
2.09272e-05
2.06107e-05
2.0296e-05
1.99833e-05
1.96733e-05
1.9367e-05
1.90657e-05
1.87709e-05
1.84851e-05
1.82108e-05
1.79506e-05
1.77074e-05
1.74843e-05
1.72837e-05
1.71078e-05
1.6958e-05
1.68349e-05
1.67381e-05
1.6667e-05
1.66201e-05
1.6595e-05
1.65887e-05
1.65976e-05
1.66187e-05
1.66489e-05
1.66853e-05
1.67257e-05
1.67682e-05
1.68116e-05
1.68547e-05
1.6897e-05
1.69379e-05
1.69776e-05
1.70161e-05
1.70537e-05
1.70902e-05
1.71255e-05
1.71591e-05
1.71911e-05
1.72215e-05
1.72502e-05
1.4277e-05
1.14595e-05
8.15872e-06
7.87738e-06
1.43507e-05
2.12775e-05
2.78221e-05
3.5396e-05
4.22273e-05
4.93081e-05
5.56819e-05
5.95726e-05
5.94581e-05
5.64577e-05
5.26233e-05
4.92507e-05
4.65723e-05
4.44645e-05
4.27887e-05
4.14131e-05
4.02458e-05
3.92317e-05
3.83344e-05
3.75281e-05
3.67936e-05
3.61178e-05
3.54904e-05
3.49028e-05
3.43489e-05
3.38228e-05
3.33201e-05
3.28368e-05
3.23685e-05
3.19126e-05
3.14662e-05
3.1027e-05
3.05929e-05
3.01623e-05
2.9734e-05
2.93066e-05
2.88793e-05
2.84514e-05
2.80222e-05
2.75915e-05
2.71591e-05
2.67251e-05
2.62895e-05
2.58523e-05
2.54141e-05
2.49758e-05
2.45386e-05
2.41043e-05
2.36754e-05
2.32549e-05
2.28467e-05
2.24546e-05
2.20834e-05
2.17375e-05
2.14211e-05
2.11378e-05
2.08904e-05
2.06806e-05
2.05091e-05
2.03755e-05
2.02784e-05
2.02153e-05
2.01821e-05
2.01743e-05
2.01876e-05
2.02173e-05
2.0259e-05
2.03089e-05
2.03639e-05
2.04216e-05
2.04801e-05
2.05381e-05
2.05947e-05
2.06497e-05
2.0703e-05
2.07548e-05
2.08051e-05
2.08534e-05
2.08995e-05
2.09433e-05
2.0985e-05
2.10245e-05
1.61319e-05
1.28664e-05
9.19901e-06
9.91239e-06
1.67503e-05
2.4111e-05
3.06943e-05
3.87941e-05
4.64295e-05
5.5269e-05
6.41596e-05
7.06823e-05
7.25212e-05
7.04723e-05
6.65383e-05
6.2502e-05
5.90871e-05
5.6328e-05
5.41128e-05
5.2296e-05
5.07605e-05
4.9433e-05
4.82647e-05
4.72202e-05
4.62734e-05
4.54061e-05
4.46041e-05
4.38557e-05
4.31525e-05
4.24866e-05
4.1852e-05
4.1243e-05
4.06542e-05
4.00815e-05
3.95209e-05
3.8969e-05
3.84228e-05
3.78796e-05
3.73374e-05
3.6794e-05
3.62481e-05
3.56982e-05
3.51427e-05
3.45811e-05
3.40127e-05
3.34371e-05
3.28546e-05
3.22652e-05
3.16696e-05
3.10688e-05
3.04648e-05
2.98599e-05
2.92573e-05
2.86613e-05
2.80769e-05
2.75099e-05
2.69666e-05
2.64535e-05
2.59768e-05
2.55421e-05
2.5154e-05
2.48162e-05
2.45307e-05
2.42986e-05
2.41189e-05
2.39894e-05
2.39057e-05
2.38622e-05
2.38531e-05
2.38722e-05
2.3913e-05
2.39692e-05
2.40358e-05
2.41088e-05
2.41849e-05
2.42617e-05
2.43376e-05
2.44116e-05
2.44835e-05
2.45533e-05
2.46207e-05
2.46853e-05
2.47468e-05
2.48053e-05
2.48609e-05
2.49138e-05
1.7738e-05
1.40633e-05
1.01495e-05
1.21032e-05
1.90611e-05
2.6573e-05
3.28827e-05
4.12395e-05
4.93957e-05
6.00225e-05
7.1697e-05
8.12509e-05
8.5565e-05
8.51676e-05
8.19063e-05
7.77291e-05
7.37837e-05
7.03973e-05
6.75896e-05
6.52546e-05
6.32712e-05
6.15544e-05
6.00454e-05
5.86996e-05
5.74836e-05
5.63728e-05
5.5349e-05
5.43968e-05
5.35046e-05
5.26624e-05
5.18618e-05
5.10958e-05
5.03569e-05
4.96395e-05
4.89382e-05
4.82482e-05
4.7565e-05
4.68848e-05
4.62042e-05
4.55202e-05
4.48303e-05
4.41321e-05
4.34231e-05
4.27019e-05
4.1967e-05
4.12177e-05
4.04542e-05
3.96767e-05
3.88861e-05
3.80837e-05
3.72719e-05
3.64541e-05
3.56345e-05
3.48183e-05
3.40118e-05
3.32225e-05
3.24588e-05
3.17289e-05
3.10411e-05
3.04034e-05
2.98228e-05
2.93053e-05
2.88555e-05
2.84766e-05
2.81694e-05
2.79326e-05
2.77624e-05
2.7653e-05
2.75973e-05
2.75874e-05
2.76143e-05
2.76687e-05
2.77426e-05
2.78295e-05
2.79239e-05
2.80219e-05
2.81205e-05
2.82176e-05
2.83123e-05
2.84042e-05
2.84927e-05
2.85773e-05
2.86578e-05
2.87342e-05
2.88068e-05
2.88759e-05
1.90447e-05
1.50282e-05
1.10567e-05
1.43841e-05
2.12113e-05
2.856e-05
3.43429e-05
4.26343e-05
5.08915e-05
6.32962e-05
7.80144e-05
9.10053e-05
9.82928e-05
0.000100107
9.81115e-05
9.43277e-05
9.02346e-05
8.64537e-05
8.31757e-05
8.03755e-05
7.79571e-05
7.58404e-05
7.39661e-05
7.22864e-05
7.07636e-05
6.9369e-05
6.80813e-05
6.68825e-05
6.57586e-05
6.46977e-05
6.36894e-05
6.2725e-05
6.17958e-05
6.08939e-05
6.00127e-05
5.91457e-05
5.82871e-05
5.74312e-05
5.65732e-05
5.57092e-05
5.48355e-05
5.39487e-05
5.3045e-05
5.21223e-05
5.11783e-05
5.02119e-05
4.92236e-05
4.8214e-05
4.71841e-05
4.6136e-05
4.50726e-05
4.39979e-05
4.29171e-05
4.18361e-05
4.07621e-05
3.97041e-05
3.86716e-05
3.76746e-05
3.67232e-05
3.58275e-05
3.49968e-05
3.42404e-05
3.35662e-05
3.29805e-05
3.24872e-05
3.20875e-05
3.17799e-05
3.15594e-05
3.1419e-05
3.13495e-05
3.13396e-05
3.13759e-05
3.14464e-05
3.15412e-05
3.16518e-05
3.17714e-05
3.18951e-05
3.20191e-05
3.2141e-05
3.22596e-05
3.23737e-05
3.24826e-05
3.25859e-05
3.26839e-05
3.27771e-05
3.28657e-05
2.001e-05
1.5757e-05
1.21771e-05
1.66778e-05
2.31252e-05
3.00058e-05
3.50541e-05
4.29345e-05
5.06501e-05
6.48097e-05
8.28237e-05
9.96727e-05
0.000110466
0.000115053
0.000114846
0.000111906
0.00010801
0.000104081
0.000100506
9.7359e-05
9.45879e-05
9.21281e-05
8.99261e-05
8.79352e-05
8.61164e-05
8.44388e-05
8.28795e-05
8.14194e-05
8.00429e-05
7.87375e-05
7.74914e-05
7.62949e-05
7.51383e-05
7.40125e-05
7.29096e-05
7.1822e-05
7.07422e-05
6.96636e-05
6.85796e-05
6.74859e-05
6.63779e-05
6.52516e-05
6.41024e-05
6.29276e-05
6.17244e-05
6.04919e-05
5.92312e-05
5.79436e-05
5.66307e-05
5.52949e-05
5.39395e-05
5.2569e-05
5.11888e-05
4.9805e-05
4.84251e-05
4.70583e-05
4.57151e-05
4.44061e-05
4.31426e-05
4.19361e-05
4.07983e-05
3.97413e-05
3.87769e-05
3.79156e-05
3.71657e-05
3.6533e-05
3.60201e-05
3.56255e-05
3.53444e-05
3.51679e-05
3.50831e-05
3.50725e-05
3.5119e-05
3.52079e-05
3.53265e-05
3.54645e-05
3.56133e-05
3.57665e-05
3.59198e-05
3.60699e-05
3.62146e-05
3.63526e-05
3.64834e-05
3.66071e-05
3.67246e-05
3.68364e-05
2.06098e-05
1.62747e-05
1.3851e-05
1.88962e-05
2.47313e-05
3.08783e-05
3.50348e-05
4.2177e-05
4.83288e-05
6.42994e-05
8.58141e-05
0.000106931
0.000121801
0.000129773
0.000131898
0.000130244
0.00012688
0.000123045
0.00011934
0.000115965
0.000112926
0.000110186
0.000107703
0.000105435
0.000103343
0.000101396
9.95712e-05
9.78478e-05
9.62099e-05
9.46447e-05
9.31398e-05
9.16849e-05
9.02703e-05
8.88859e-05
8.75235e-05
8.61745e-05
8.48309e-05
8.34851e-05
8.21298e-05
8.07604e-05
7.93726e-05
7.79619e-05
7.65238e-05
7.50551e-05
7.35532e-05
7.20174e-05
7.04493e-05
6.88513e-05
6.72252e-05
6.55735e-05
6.38995e-05
6.22074e-05
6.05025e-05
5.87903e-05
5.70777e-05
5.53737e-05
5.36888e-05
5.20334e-05
5.04189e-05
4.88576e-05
4.73625e-05
4.5948e-05
4.46291e-05
4.34211e-05
4.23375e-05
4.13903e-05
4.05889e-05
3.99385e-05
3.94396e-05
3.90872e-05
3.88692e-05
3.87645e-05
3.87507e-05
3.88073e-05
3.89163e-05
3.90619e-05
3.9231e-05
3.9413e-05
3.96001e-05
3.97861e-05
3.99668e-05
4.01393e-05
4.03026e-05
4.04569e-05
4.06029e-05
4.07418e-05
2.08483e-05
1.66509e-05
1.60984e-05
2.0945e-05
2.59723e-05
3.11867e-05
3.43591e-05
4.05037e-05
4.38872e-05
6.16036e-05
8.66601e-05
0.000112393
0.000131936
0.000143976
0.000149034
0.000149144
0.000146673
0.000143189
0.000139538
0.000136063
0.000132847
0.000129892
0.000127176
0.000124664
0.000122322
0.00012012
0.000118034
0.000116044
0.000114135
0.000112293
0.000110507
0.000108767
0.000107064
0.000105386
0.000103727
0.000102078
0.00010043
9.87774e-05
9.71108e-05
9.5427e-05
9.3722e-05
9.19919e-05
9.02322e-05
8.84399e-05
8.66123e-05
8.47487e-05
8.28515e-05
8.09235e-05
7.89666e-05
7.6983e-05
7.49755e-05
7.29477e-05
7.09039e-05
6.88487e-05
6.67878e-05
6.47296e-05
6.26834e-05
6.06592e-05
5.86674e-05
5.67197e-05
5.48292e-05
5.30112e-05
5.12832e-05
4.96636e-05
4.81713e-05
4.68248e-05
4.56423e-05
4.46387e-05
4.38243e-05
4.32029e-05
4.27679e-05
4.24974e-05
4.23646e-05
4.23434e-05
4.24092e-05
4.25395e-05
4.2715e-05
4.29193e-05
4.3139e-05
4.33636e-05
4.3585e-05
4.37979e-05
4.39996e-05
4.41899e-05
4.43694e-05
4.45399e-05
2.07744e-05
1.70848e-05
1.83479e-05
2.27316e-05
2.68172e-05
3.09846e-05
3.31677e-05
3.8161e-05
3.81283e-05
5.67509e-05
8.50453e-05
0.000115602
0.000140417
0.000157277
0.000165955
0.00016837
0.000167195
0.000164356
0.000160967
0.000157541
0.000154257
0.000151167
0.000148275
0.000145564
0.000143004
0.000140568
0.000138232
0.00013598
0.000133795
0.000131667
0.000129584
0.000127537
0.000125519
0.000123519
0.000121532
0.00011955
0.000117565
0.00011557
0.000113559
0.000111528
0.000109475
0.000107396
0.000105287
0.000103145
0.000100968
9.87556e-05
9.65096e-05
9.42337e-05
9.19298e-05
8.95994e-05
8.72445e-05
8.48681e-05
8.24732e-05
8.00632e-05
7.76424e-05
7.52177e-05
7.27974e-05
7.039e-05
6.80041e-05
6.56501e-05
6.33394e-05
6.10866e-05
5.89092e-05
5.68274e-05
5.4863e-05
5.304e-05
5.13851e-05
4.99246e-05
4.86823e-05
4.76767e-05
4.69135e-05
4.63753e-05
4.60352e-05
4.58629e-05
4.58282e-05
4.59009e-05
4.60536e-05
4.62622e-05
4.6506e-05
4.67675e-05
4.70326e-05
4.72911e-05
4.75377e-05
4.77703e-05
4.79893e-05
4.81966e-05
2.05028e-05
1.82563e-05
2.04266e-05
2.41822e-05
2.72739e-05
3.03911e-05
3.16664e-05
3.54684e-05
3.38662e-05
5.03461e-05
8.0722e-05
0.000116051
0.000146693
0.000169192
0.000182267
0.00018762
0.000188212
0.000186359
0.000183475
0.000180274
0.00017705
0.000173924
0.000170935
0.000168084
0.000165354
0.00016272
0.000160163
0.000157667
0.000155218
0.000152808
0.000150426
0.000148066
0.000145721
0.000143384
0.00014105
0.000138714
0.000136368
0.000134009
0.000131628
0.000129225
0.000126798
0.000124345
0.000121863
0.000119348
0.000116799
0.000114215
0.000111598
0.000108953
0.000106282
0.000103584
0.000100863
9.81197e-05
9.53563e-05
9.2575e-05
8.97785e-05
8.69726e-05
8.41642e-05
8.136e-05
7.85666e-05
7.57918e-05
7.30448e-05
7.03376e-05
6.76858e-05
6.51081e-05
6.26265e-05
6.02672e-05
5.80625e-05
5.60487e-05
5.42644e-05
5.27467e-05
5.15209e-05
5.05823e-05
4.99111e-05
4.94789e-05
4.92526e-05
4.91959e-05
4.92724e-05
4.94484e-05
4.96938e-05
4.99814e-05
5.02877e-05
5.05952e-05
5.08929e-05
5.11752e-05
5.14408e-05
5.16915e-05
2.02943e-05
2.01356e-05
2.22218e-05
2.52564e-05
2.73978e-05
2.9585e-05
3.01068e-05
3.27975e-05
3.09323e-05
4.32722e-05
7.36666e-05
0.000113221
0.000150127
0.000179123
0.000197469
0.0002065
0.000209423
0.000208961
0.000206873
0.000204106
0.000201101
0.00019806
0.000195071
0.000192162
0.000189329
0.000186555
0.000183824
0.000181124
0.000178444
0.000175777
0.000173115
0.000170454
0.00016779
0.000165119
0.000162438
0.000159742
0.000157029
0.000154294
0.000151531
0.000148742
0.000145925
0.00014308
0.000140205
0.000137297
0.000134354
0.000131376
0.000128366
0.000125328
0.000122264
0.000119176
0.000116064
0.000112929
0.000109773
0.000106597
0.000103402
0.000100193
9.69768e-05
9.37571e-05
9.05389e-05
8.73278e-05
8.41296e-05
8.09531e-05
7.78103e-05
7.47165e-05
7.16905e-05
6.87565e-05
6.59475e-05
6.33054e-05
6.08798e-05
5.87266e-05
5.68945e-05
5.53995e-05
5.42391e-05
5.33969e-05
5.28454e-05
5.25465e-05
5.24572e-05
5.25335e-05
5.27341e-05
5.30196e-05
5.33538e-05
5.37074e-05
5.40601e-05
5.43999e-05
5.47209e-05
5.50235e-05
2.09808e-05
2.19516e-05
2.36604e-05
2.59638e-05
2.72944e-05
2.87862e-05
2.87812e-05
3.0579e-05
2.93067e-05
3.67671e-05
6.43294e-05
0.000106648
0.00015003
0.000186365
0.000210927
0.000224502
0.000230437
0.000231861
0.000230923
0.000228847
0.000226254
0.000223449
0.000220583
0.000217718
0.000214871
0.000212036
0.000209202
0.000206361
0.000203505
0.00020063
0.000197731
0.000194805
0.000191853
0.000188873
0.000185864
0.000182824
0.000179754
0.000176649
0.000173508
0.00017033
0.000167119
0.000163874
0.000160595
0.00015728
0.000153927
0.000150536
0.000147112
0.000143658
0.000140177
0.000136671
0.000133141
0.000129586
0.000126009
0.000122409
0.000118788
0.000115149
0.000111497
0.000107837
0.00010417
0.000100501
9.68319e-05
9.31689e-05
8.95197e-05
8.5895e-05
8.23081e-05
7.87781e-05
7.53339e-05
7.2016e-05
6.88786e-05
6.59902e-05
6.34202e-05
6.12088e-05
5.93793e-05
5.79402e-05
5.68829e-05
5.61786e-05
5.57845e-05
5.56496e-05
5.57215e-05
5.59471e-05
5.62741e-05
5.66572e-05
5.70619e-05
5.74646e-05
5.78511e-05
5.82171e-05
2.24798e-05
2.34897e-05
2.47243e-05
2.63736e-05
2.71135e-05
2.82393e-05
2.83986e-05
2.94633e-05
2.88855e-05
3.28194e-05
5.38441e-05
9.5912e-05
0.000145775
0.000190111
0.000221865
0.000240974
0.00025074
0.000254662
0.000255315
0.000254251
0.000252308
0.000249927
0.000247336
0.000244646
0.000241899
0.000239106
0.000236263
0.000233369
0.000230417
0.000227408
0.000224339
0.000221211
0.000218026
0.000214785
0.000211492
0.000208146
0.00020475
0.000201303
0.000197803
0.000194254
0.000190658
0.000187019
0.000183337
0.000179611
0.000175841
0.000172026
0.000168171
0.000164282
0.000160363
0.000156416
0.00015244
0.000148437
0.000144409
0.000140355
0.000136275
0.000132174
0.000128055
0.000123922
0.000119777
0.000115621
0.000111456
0.000107284
0.000103108
9.89357e-05
9.4774e-05
9.06349e-05
8.65401e-05
8.25237e-05
7.8636e-05
7.49486e-05
7.15423e-05
6.84766e-05
6.58021e-05
6.3561e-05
6.17788e-05
6.04538e-05
5.95576e-05
5.90413e-05
5.88463e-05
5.89071e-05
5.91544e-05
5.95236e-05
5.99602e-05
6.0423e-05
6.08838e-05
6.13277e-05
6.16728e-05
2.39109e-05
2.46859e-05
2.5463e-05
2.66151e-05
2.70632e-05
2.8338e-05
2.90711e-05
2.9853e-05
2.95651e-05
3.12762e-05
4.37858e-05
8.16782e-05
0.000137035
0.000189502
0.000229346
0.0002551
0.000269668
0.00027684
0.000279637
0.00027999
0.000279001
0.000277278
0.000275154
0.000272799
0.000270296
0.000267673
0.000264941
0.000262105
0.000259164
0.000256121
0.000252976
0.000249732
0.000246396
0.000242971
0.000239463
0.000235874
0.000232208
0.000228468
0.000224653
0.000220768
0.000216819
0.000212809
0.000208742
0.000204617
0.000200434
0.000196196
0.000191906
0.000187573
0.000183201
0.000178793
0.00017435
0.000169874
0.000165366
0.000160827
0.000156257
0.00015166
0.000147039
0.0001424
0.000137742
0.000133067
0.000128374
0.000123662
0.000118935
0.000114193
0.000109439
0.000104678
9.99227e-05
9.51987e-05
9.05468e-05
8.60319e-05
8.17338e-05
7.77194e-05
7.40586e-05
7.08254e-05
6.80879e-05
6.58893e-05
6.42375e-05
6.31037e-05
6.24348e-05
6.21602e-05
6.21971e-05
6.2462e-05
6.28769e-05
6.3376e-05
6.391e-05
6.44461e-05
6.48924e-05
2.50843e-05
2.55702e-05
2.59969e-05
2.68994e-05
2.78341e-05
2.93688e-05
3.04781e-05
3.11902e-05
3.10108e-05
3.10867e-05
3.7282e-05
6.66549e-05
0.000123883
0.000183659
0.000232291
0.000265871
0.00028637
0.000297706
0.000303339
0.000305623
0.000305973
0.000305208
0.000303791
0.000301974
0.000299889
0.000297597
0.000295123
0.000292484
0.000289686
0.000286734
0.000283634
0.00028039
0.000277013
0.000273507
0.00026988
0.000266137
0.000262286
0.000258329
0.000254269
0.00025011
0.000245861
0.000241528
0.000237114
0.000232622
0.000228053
0.000223409
0.000218696
0.000213922
0.000209095
0.000204219
0.000199296
0.000194329
0.00018932
0.00018427
0.00017918
0.000174055
0.000168899
0.000163717
0.00015851
0.000153278
0.000148021
0.000142737
0.000137425
0.000132085
0.000126715
0.000121314
0.000115888
0.000110451
0.000105033
9.96854e-05
9.44773e-05
8.94692e-05
8.47354e-05
8.03689e-05
7.64746e-05
7.31476e-05
7.04537e-05
6.84094e-05
6.69884e-05
6.61288e-05
6.57454e-05
6.5744e-05
6.60265e-05
6.64961e-05
6.70746e-05
6.77059e-05
6.82774e-05
2.59975e-05
2.62581e-05
2.65487e-05
2.79346e-05
2.92989e-05
3.09941e-05
3.22848e-05
3.29848e-05
3.28568e-05
3.22575e-05
3.44201e-05
5.29853e-05
0.000106889
0.000171829
0.000229526
0.000272084
0.000299777
0.000316371
0.000325698
0.00033056
0.000332742
0.000333316
0.000332911
0.000331885
0.000330436
0.000328668
0.000326632
0.000324358
0.000321862
0.000319156
0.000316249
0.000313148
0.000309866
0.00030641
0.000302791
0.000299015
0.000295091
0.000291023
0.000286816
0.000282475
0.000278011
0.000273429
0.000268736
0.000263936
0.00025903
0.000254023
0.00024892
0.000243732
0.000238468
0.000233134
0.000227734
0.000222271
0.00021675
0.000211173
0.000205543
0.000199863
0.000194142
0.000188383
0.00018259
0.000176764
0.000170904
0.000165007
0.000159073
0.000153099
0.000147083
0.000141016
0.000134899
0.000128739
0.000122553
0.000116378
0.000110263
0.000104255
9.84167e-05
9.28415e-05
8.76526e-05
8.29864e-05
7.89735e-05
7.57014e-05
7.31978e-05
7.14313e-05
7.03307e-05
6.98085e-05
6.97627e-05
7.00715e-05
7.06125e-05
7.13049e-05
7.20139e-05
2.67602e-05
2.6991e-05
2.77992e-05
2.95556e-05
3.11645e-05
3.28989e-05
3.42178e-05
3.48949e-05
3.48067e-05
3.40246e-05
3.44307e-05
4.44834e-05
8.80314e-05
0.000153845
0.000219954
0.00027236
0.000308575
0.000331698
0.000345764
0.000354017
0.000358657
0.000361057
0.000362051
0.000362134
0.000361592
0.000360587
0.000359204
0.000357497
0.000355495
0.000353218
0.000350681
0.000347895
0.000344874
0.000341631
0.000338175
0.000334515
0.000330662
0.000326622
0.000322399
0.000318
0.000313436
0.000308714
0.000303842
0.000298824
0.000293665
0.000288367
0.00028294
0.000277393
0.000271737
0.000265981
0.00026013
0.00025419
0.000248167
0.000242064
0.000235887
0.00022964
0.000223333
0.000216972
0.000210561
0.000204104
0.000197602
0.000191051
0.000184451
0.000177803
0.000171098
0.00016433
0.000157493
0.000150588
0.000143623
0.000136619
0.000129607
0.000122611
0.000115674
0.000108873
0.000102326
9.61869e-05
9.06352e-05
8.58402e-05
8.19131e-05
7.8879e-05
7.66983e-05
7.53109e-05
7.46364e-05
7.45674e-05
7.49229e-05
7.55736e-05
7.63823e-05
2.76665e-05
2.83776e-05
2.9558e-05
3.14968e-05
3.31769e-05
3.48396e-05
3.60855e-05
3.6713e-05
3.66618e-05
3.59175e-05
3.53742e-05
3.93515e-05
6.87885e-05
0.000130875
0.000202921
0.000265236
0.000311196
0.000342267
0.00036232
0.00037497
0.000382854
0.000387699
0.000390585
0.00039218
0.000392883
0.000392933
0.000392467
0.000391568
0.000390286
0.000388654
0.000386695
0.000384426
0.000381864
0.000379024
0.000375917
0.000372557
0.000368951
0.000365108
0.000361034
0.000356736
0.000352224
0.000347507
0.000342592
0.000337486
0.000332193
0.000326716
0.000321065
0.000315251
0.000309285
0.000303178
0.000296937
0.000290571
0.000284085
0.000277487
0.000270782
0.000263978
0.000257086
0.000250114
0.000243068
0.000235956
0.000228779
0.000221536
0.000214229
0.000206858
0.000199419
0.000191903
0.000184302
0.000176615
0.000168842
0.000160993
0.000153079
0.000145105
0.000137089
0.000129079
0.00012117
0.000113504
0.000106279
9.97284e-05
9.40706e-05
8.94193e-05
8.57832e-05
8.31403e-05
8.14613e-05
8.06919e-05
8.06964e-05
8.11692e-05
8.19751e-05
2.91848e-05
3.02097e-05
3.15807e-05
3.35307e-05
3.51473e-05
3.66553e-05
3.77721e-05
3.83299e-05
3.83118e-05
3.76879e-05
3.67128e-05
3.76786e-05
5.41449e-05
0.000105691
0.000178523
0.000249377
0.000305878
0.000346349
0.000373824
0.000392091
0.000404203
0.000412274
0.000417679
0.000421293
0.000423665
0.000425134
0.000425903
0.000426102
0.000425808
0.000425076
0.000423939
0.000422421
0.000420547
0.000418334
0.000415796
0.000412947
0.000409798
0.000406358
0.000402632
0.000398629
0.000394357
0.000389827
0.000385045
0.000380018
0.000374752
0.00036925
0.000363519
0.000357572
0.000351422
0.000345078
0.000338552
0.000331852
0.000324986
0.000317962
0.000310788
0.000303475
0.000296032
0.000288472
0.000280804
0.000273037
0.000265174
0.000257219
0.000249173
0.000241042
0.000232823
0.000224509
0.000216091
0.000207568
0.00019894
0.000190205
0.000181363
0.000172401
0.000163312
0.000154115
0.000144869
0.000135678
0.000126724
0.000118269
0.000110629
0.000104055
9.86345e-05
9.43865e-05
9.13728e-05
8.95673e-05
8.92788e-05
8.99388e-05
9.11487e-05
9.27885e-05
9.45911e-05
9.63735e-05
3.10847e-05
3.22498e-05
3.36588e-05
3.54881e-05
3.69521e-05
3.82564e-05
3.92227e-05
3.97023e-05
3.97123e-05
3.92274e-05
3.82656e-05
3.83921e-05
4.65644e-05
8.21209e-05
0.000148138
0.000224033
0.000290851
0.000341931
0.000378375
0.000403693
0.000421239
0.000433515
0.00044223
0.000448508
0.000453081
0.000456419
0.000458816
0.000460463
0.000461479
0.000461944
0.000461913
0.00046142
0.000460498
0.000459169
0.000457452
0.000455362
0.000452912
0.000450113
0.00044697
0.000443491
0.000439685
0.000435561
0.000431127
0.000426389
0.000421352
0.00041602
0.000410399
0.0004045
0.000398337
0.000391921
0.000385262
0.00037837
0.000371256
0.000363928
0.000356395
0.000348668
0.000340761
0.000332686
0.000324453
0.000316075
0.000307559
0.000298908
0.000290127
0.000281225
0.000272204
0.000263056
0.000253777
0.000244367
0.000234826
0.000225149
0.000215327
0.000205337
0.000195154
0.00018477
0.000174206
0.000163517
0.000152836
0.000142403
0.000132592
0.000123829
0.000116367
0.000110313
0.000105878
0.000103669
0.000102953
0.00010333
0.000104568
0.000106477
0.000108814
0.000111319
3.31313e-05
3.43025e-05
3.56365e-05
3.72596e-05
3.85249e-05
3.96083e-05
4.04262e-05
4.08293e-05
4.08624e-05
4.05124e-05
3.97232e-05
3.94363e-05
4.24376e-05
6.29696e-05
0.000115426
0.000189969
0.000264765
0.000326861
0.000373713
0.00040768
0.000432098
0.000449787
0.000462801
0.000472555
0.000480002
0.000485774
0.000490284
0.000493805
0.000496515
0.000498533
0.000499939
0.000500787
0.000501121
0.000500972
0.000500364
0.000499317
0.000497844
0.000495959
0.000493669
0.00049098
0.000487902
0.000484442
0.000480609
0.000476408
0.000471844
0.00046692
0.000461641
0.000456017
0.00045006
0.000443782
0.000437195
0.000430307
0.000423131
0.000415675
0.00040795
0.000399966
0.000391738
0.00038328
0.000374603
0.000365721
0.000356643
0.000347375
0.000337922
0.000328296
0.000318501
0.000308535
0.000298391
0.000288076
0.000277589
0.000266925
0.000256074
0.000245006
0.000233687
0.00022209
0.000210203
0.000198038
0.00018566
0.000173242
0.000161151
0.000149971
0.00014029
0.0001325
0.000127265
0.000123906
0.000122007
0.000121519
0.000122276
0.00012409
0.000126753
0.000129988
3.51413e-05
3.62271e-05
3.74127e-05
3.87886e-05
3.9844e-05
4.07154e-05
4.14002e-05
4.1734e-05
4.17873e-05
4.15681e-05
4.09984e-05
4.02925e-05
4.11895e-05
5.15441e-05
8.57352e-05
0.000150058
0.00022747
0.000299254
0.000357354
0.000401542
0.000434458
0.000459006
0.000477543
0.000491788
0.000502953
0.000511869
0.000519096
0.000525017
0.000529888
0.000533881
0.000537117
0.000539676
0.000541618
0.000542988
0.000543819
0.000544136
0.000543957
0.000543297
0.000542165
0.000540569
0.000538518
0.000536018
0.000533077
0.0005297
0.000525892
0.000521654
0.000516991
0.000511911
0.000506425
0.000500544
0.00049428
0.000487642
0.000480641
0.000473287
0.000465592
0.000457566
0.000449224
0.000440579
0.000431644
0.000422434
0.000412959
0.000403226
0.00039324
0.000383015
0.000372557
0.000361865
0.000350934
0.000339771
0.000328378
0.000316749
0.000304873
0.000292721
0.000280255
0.000267434
0.000254229
0.000240613
0.000226594
0.000212259
0.000197902
0.0001842
0.000172264
0.000163161
0.000156369
0.000151102
0.000147355
0.000145299
0.000144916
0.000146068
0.000148582
0.000152273
3.69893e-05
3.79364e-05
3.89365e-05
4.00609e-05
4.09192e-05
4.1606e-05
4.21762e-05
4.24497e-05
4.25241e-05
4.24447e-05
4.21356e-05
4.14135e-05
4.15453e-05
4.57376e-05
6.44321e-05
0.00011024
0.000181424
0.000258383
0.000327001
0.000382491
0.000425539
0.000458588
0.00048411
0.000504099
0.000520036
0.000532984
0.000543684
0.000552656
0.00056026
0.000566741
0.000572275
0.000576977
0.000580938
0.000584218
0.000586865
0.000588913
0.000590386
0.000591304
0.000591677
0.000591517
0.00059083
0.000589624
0.000587906
0.00058568
0.000582951
0.000579719
0.000575986
0.000571761
0.000567051
0.000561867
0.00055622
0.000550121
0.000543579
0.000536607
0.000529213
0.000521411
0.000513214
0.000504636
0.00049569
0.000486391
0.000476751
0.000466777
0.000456474
0.000445857
0.000434934
0.000423704
0.00041216
0.000400311
0.000388158
0.000375696
0.000362912
0.000349779
0.000336257
0.0003223
0.000307865
0.000292906
0.000277391
0.000261333
0.000244925
0.00022884
0.000214669
0.000203551
0.000194402
0.000186692
0.000180509
0.000176131
0.000173802
0.00017347
0.000174999
0.000178362
3.86046e-05
3.93906e-05
4.01973e-05
4.10909e-05
4.17786e-05
4.23224e-05
4.2789e-05
4.30113e-05
4.31119e-05
4.32085e-05
4.3166e-05
4.25954e-05