/*--------------------------------*- C++ -*----------------------------------*\
| =========                 |                                                 |
| \\      /  F ield         | OpenFOAM: The Open Source CFD Toolbox           |
|  \\    /   O peration     | Version:  2412                                  |
|   \\  /    A nd           | Website:  www.openfoam.com                      |
|    \\/     M anipulation  |                                                 |
\*---------------------------------------------------------------------------*/
FoamFile
{
    version     2.0;
    format      ascii;
    arch        "LSB;label=32;scalar=64";
    class       volScalarField;
    location    "420";
    object      p;
}
// * * * * * * * * * * * * * * * * * * * * * * * * * * * * * * * * * * * * * //

dimensions      [0 2 -2 0 0 0 0];

internalField   nonuniform List<scalar> 
7418
(
108.917
104.597
99.9874
98.6355
97.1147
85.5034
68.6018
67.8043
84.213
91.6746
94.8985
95.9375
95.503
94.1869
92.9799
92.8953
93.2873
94.0431
94.9146
95.2422
95.0787
94.6238
94.0006
93.5274
93.1211
92.7381
92.2583
91.6673
91.0034
90.3123
89.6051
88.8698
88.0934
87.28
86.4372
85.5718
84.6845
83.7768
82.8513
81.9119
80.962
80.0046
79.0426
78.0792
77.118
76.1622
75.2154
74.2806
73.3609
72.4593
71.5777
70.7185
69.885
69.0802
68.3064
67.5663
66.8626
66.1978
65.5737
64.9907
64.4505
63.9554
63.5086
63.1111
62.7633
62.4653
62.2195
62.0274
61.8896
61.8069
61.7793
61.808
61.9016
62.0475
62.2539
62.5218
62.8554
63.2513
63.7054
64.2232
64.8117
104.584
105.713
108.895
104.589
99.9927
98.6359
97.1113
85.5232
68.642
67.8225
84.2065
91.6685
94.8956
95.9361
95.5026
94.1872
92.9805
92.8957
93.2874
94.043
94.9144
95.242
95.0786
94.6238
94.0006
93.5274
93.1211
92.7381
92.2583
91.6674
91.0034
90.3124
89.6051
88.8699
88.0934
87.28
86.4372
85.5718
84.6846
83.7768
82.8513
81.9119
80.962
80.0046
79.0426
78.0792
77.118
76.1622
75.2154
74.2806
73.361
72.4593
71.5777
70.7185
69.885
69.0802
68.3064
67.5663
66.8626
66.1978
65.5737
64.9907
64.4505
63.9554
63.5086
63.1111
62.7633
62.4653
62.2195
62.0274
61.8896
61.8069
61.7793
61.808
61.9016
62.0475
62.2539
62.5218
62.8554
63.2513
63.7054
64.2232
64.8117
104.591
105.708
108.867
104.579
100.003
98.6388
97.11
85.5501
68.6956
67.8477
84.1991
91.6612
94.8919
95.9343
95.502
94.1876
92.9813
92.8962
93.2875
94.0429
94.9141
95.2418
95.0785
94.6238
94.0007
93.5274
93.1211
92.7381
92.2583
91.6674
91.0035
90.3124
89.6051
88.8699
88.0934
87.2801
86.4373
85.5718
84.6846
83.7768
82.8514
81.9119
80.962
80.0046
79.0426
78.0792
77.118
76.1622
75.2154
74.2806
73.361
72.4593
71.5777
70.7186
69.885
69.0802
68.3064
67.5663
66.8626
66.1978
65.5737
64.9907
64.4505
63.9554
63.5086
63.1112
62.7633
62.4653
62.2196
62.0274
61.8896
61.807
61.7793
61.808
61.9016
62.0475
62.2539
62.5218
62.8554
63.2513
63.7054
64.2232
64.8117
104.599
105.7
108.839
104.571
100.02
98.6471
97.1109
85.5843
68.7629
67.8838
84.1923
91.6536
94.8878
95.9322
95.5013
94.1879
92.9822
92.8968
93.2878
94.0429
94.9138
95.2415
95.0784
94.6238
94.0007
93.5275
93.1211
92.7382
92.2583
91.6674
91.0035
90.3124
89.6051
88.8699
88.0935
87.2801
86.4373
85.5718
84.6846
83.7769
82.8514
81.912
80.9621
80.0047
79.0426
78.0792
77.118
76.1623
75.2154
74.2807
73.361
72.4593
71.5777
70.7186
69.8851
69.0802
68.3064
67.5663
66.8627
66.1978
65.5737
64.9907
64.4505
63.9554
63.5086
63.1112
62.7633
62.4653
62.2196
62.0274
61.8896
61.807
61.7793
61.808
61.9017
62.0476
62.2539
62.5219
62.8554
63.2514
63.7054
64.2232
64.8117
104.606
105.694
108.808
104.562
100.048
98.6635
97.1198
85.6269
68.854
67.9413
84.1862
91.6451
94.8825
95.9293
95.5002
94.1883
92.9835
92.8979
93.2884
94.043
94.9135
95.2411
95.0782
94.6237
94.0008
93.5276
93.1212
92.7382
92.2583
91.6674
91.0035
90.3125
89.6052
88.87
88.0935
87.2801
86.4373
85.5719
84.6847
83.7769
82.8514
81.912
80.9621
80.0047
79.0427
78.0793
77.1181
76.1623
75.2155
74.2807
73.361
72.4593
71.5778
70.7186
69.8851
69.0803
68.3064
67.5664
66.8627
66.1978
65.5737
64.9907
64.4505
63.9554
63.5086
63.1112
62.7634
62.4653
62.2196
62.0274
61.8896
61.807
61.7793
61.808
61.9017
62.0476
62.2539
62.5219
62.8555
63.2514
63.7055
64.2232
64.8117
104.614
105.695
108.773
104.559
100.089
98.6914
97.1365
85.6786
68.9833
68.0359
84.1833
91.6347
94.8749
95.9249
95.4983
94.1888
92.9856
92.8998
93.2895
94.0433
94.9131
95.2406
95.0779
94.6237
94.001
93.5278
93.1213
92.7383
92.2584
91.6675
91.0036
90.3126
89.6053
88.87
88.0936
87.2802
86.4374
85.572
84.6847
83.777
82.8515
81.9121
80.9622
80.0048
79.0427
78.0794
77.1181
76.1624
75.2155
74.2808
73.3611
72.4594
71.5778
70.7187
69.8852
69.0803
68.3065
67.5664
66.8627
66.1979
65.5738
64.9908
64.4506
63.9555
63.5087
63.1113
62.7634
62.4654
62.2197
62.0275
61.8897
61.8071
61.7794
61.8081
61.9017
62.0476
62.254
62.5219
62.8555
63.2514
63.7055
64.2233
64.8118
104.624
105.701
108.732
104.574
100.144
98.7371
97.1439
85.7444
69.1713
68.1874
84.1863
91.6211
94.8635
95.9179
95.4953
94.1896
92.9891
92.903
93.2915
94.0441
94.9126
95.2398
95.0774
94.6236
94.0013
93.5281
93.1216
92.7384
92.2585
91.6676
91.0037
90.3127
89.6054
88.8702
88.0937
87.2804
86.4376
85.5721
84.6849
83.7771
82.8516
81.9122
80.9623
80.0049
79.0429
78.0795
77.1182
76.1625
75.2157
74.2809
73.3612
72.4595
71.5779
70.7188
69.8853
69.0804
68.3066
67.5665
66.8629
66.198
65.5739
64.9909
64.4507
63.9556
63.5088
63.1114
62.7635
62.4655
62.2198
62.0276
61.8898
61.8072
61.7795
61.8082
61.9018
62.0477
62.2541
62.522
62.8556
63.2515
63.7056
64.2234
64.8119
104.637
105.705
108.686
104.607
100.209
98.808
97.1419
85.8444
69.4466
68.4196
84.1959
91.6019
94.846
95.9068
95.4904
94.191
92.9949
92.9083
93.295
94.0455
94.9119
95.2385
95.0766
94.6234
94.0017
93.5287
93.1219
92.7386
92.2586
91.6677
91.004
90.3129
89.6056
88.8704
88.0939
87.2806
86.4378
85.5723
84.6851
83.7773
82.8518
81.9124
80.9625
80.0051
79.0431
78.0797
77.1185
76.1627
75.2159
74.2811
73.3614
72.4597
71.5781
70.719
69.8855
69.0806
68.3068
67.5667
66.863
66.1982
65.5741
64.9911
64.4509
63.9558
63.509
63.1115
62.7637
62.4657
62.2199
62.0278
61.8899
61.8073
61.7797
61.8084
61.902
62.0479
62.2543
62.5222
62.8558
63.2517
63.7058
64.2236
64.8121
104.648
105.702
108.632
104.642
100.29
98.9099
97.1491
86.0099
69.8245
68.7594
84.2097
91.5738
94.819
95.8892
95.4828
94.1934
93.0044
92.9169
93.3006
94.0477
94.9108
95.2365
95.0753
94.6232
94.0025
93.5295
93.1226
92.7389
92.2588
91.668
91.0043
90.3133
89.606
88.8707
88.0943
87.2809
86.4381
85.5726
84.6854
83.7777
82.8522
81.9127
80.9629
80.0055
79.0434
78.08
77.1188
76.163
75.2162
74.2814
73.3617
72.46
71.5784
70.7193
69.8858
69.0809
68.3071
67.567
66.8633
66.1985
65.5744
64.9914
64.4512
63.9561
63.5093
63.1118
62.764
62.466
62.2202
62.028
61.8902
61.8076
61.7799
61.8087
61.9023
62.0482
62.2545
62.5225
62.8561
63.252
63.7061
64.2238
64.8124
104.653
105.689
108.566
104.663
100.395
99.0364
97.1718
86.2901
70.3001
69.2339
84.223
91.5326
94.779
95.8631
95.4718
94.1976
93.019
92.9299
93.309
94.051
94.9089
95.2334
95.0734
94.6228
94.0036
93.5309
93.1235
92.7393
92.2591
91.6684
91.0048
90.3139
89.6066
88.8713
88.0948
87.2814
86.4387
85.5732
84.686
83.7782
82.8527
81.9133
80.9634
80.006
79.0439
78.0805
77.1193
76.1635
75.2167
74.2819
73.3622
72.4605
71.5789
70.7198
69.8862
69.0814
68.3076
67.5675
66.8638
66.1989
65.5748
64.9918
64.4516
63.9565
63.5097
63.1123
62.7644
62.4664
62.2206
62.0285
61.8906
61.808
61.7804
61.8091
61.9027
62.0486
62.255
62.5229
62.8565
63.2525
63.7065
64.2243
64.8128
104.652
105.665
108.482
104.661
100.526
99.1776
97.2141
86.7762
70.8833
69.8623
84.2294
91.4746
94.7231
95.8268
95.4571
94.2045
93.0401
92.9484
93.3206
94.0554
94.9061
95.2288
95.0707
94.6224
94.0053
93.5328
93.1249
92.74
92.2595
91.6689
91.0056
90.3148
89.6074
88.872
88.0956
87.2822
86.4394
85.574
84.6867
83.779
82.8535
81.914
80.9641
80.0067
79.0446
78.0813
77.12
76.1642
75.2174
74.2826
73.3629
72.4612
71.5796
70.7205
69.8869
69.0821
68.3082
67.5682
66.8645
66.1996
65.5755
64.9925
64.4523
63.9571
63.5103
63.1129
62.765
62.467
62.2213
62.0291
61.8913
61.8086
61.781
61.8097
61.9033
62.0492
62.2556
62.5236
62.8571
63.2531
63.7072
64.2249
64.8135
104.648
105.628
108.373
104.632
100.656
99.335
97.3079
87.4845
71.6523
70.6429
84.23
91.399
94.6512
95.7803
95.439
94.2145
93.0684
92.9729
93.3359
94.061
94.9022
95.2228
95.0671
94.6219
94.0076
93.5355
93.1268
92.741
92.2601
91.6698
91.0067
90.316
89.6086
88.8731
88.0966
87.2833
86.4405
85.575
84.6878
83.78
82.8545
81.9151
80.9652
80.0078
79.0457
78.0823
77.121
76.1653
75.2184
74.2836
73.3639
72.4622
71.5806
70.7214
69.8879
69.083
68.3092
67.5691
66.8654
66.2005
65.5764
64.9934
64.4531
63.958
63.5112
63.1137
62.7659
62.4679
62.2221
62.0299
61.8921
61.8095
61.7818
61.8105
61.9042
62.0501
62.2564
62.5244
62.858
63.2539
63.708
64.2258
64.8143
104.642
105.57
108.233
104.577
100.767
99.496
97.5305
88.3643
72.6631
71.5538
84.2376
91.3112
94.5661
95.7249
95.4179
94.2277
93.1041
93.0035
93.3551
94.068
94.8974
95.2152
95.0628
94.6214
94.0107
93.5389
93.1292
92.7422
92.261
91.6709
91.0082
90.3176
89.6101
88.8746
88.0981
87.2847
86.442
85.5765
84.6892
83.7814
82.8559
81.9165
80.9666
80.0091
79.047
78.0836
77.1224
76.1666
75.2197
74.2849
73.3652
72.4635
71.5818
70.7227
69.8891
69.0842
68.3104
67.5703
66.8666
66.2017
65.5775
64.9945
64.4543
63.9592
63.5123
63.1149
62.767
62.469
62.2232
62.031
61.8932
61.8106
61.7829
61.8116
61.9053
62.0512
62.2575
62.5255
62.8591
63.255
63.7092
64.2269
64.8155
104.635
105.494
108.063
104.498
100.872
99.6738
97.9564
89.4472
73.8575
72.5721
84.2691
91.2207
94.4722
95.6622
95.3941
94.2439
93.1469
93.0403
93.3784
94.0767
94.8919
95.2065
95.0577
94.6209
94.0145
93.5431
93.1322
92.7438
92.2621
91.6723
91.0101
90.3196
89.612
88.8764
88.0999
87.2866
86.4438
85.5783
84.6911
83.7833
82.8577
81.9183
80.9683
80.0109
79.0488
78.0854
77.1241
76.1683
75.2214
74.2866
73.3668
72.4651
71.5834
70.7242
69.8907
69.0858
68.3119
67.5718
66.8681
66.2031
65.579
64.996
64.4557
63.9606
63.5137
63.1163
62.7684
62.4704
62.2246
62.0324
61.8946
61.8119
61.7843
61.813
61.9066
62.0525
62.2589
62.5269
62.8605
63.2564
63.7106
64.2284
64.8169
104.627
105.413
107.871
104.406
100.961
99.964
98.6207
90.713
75.1948
73.683
84.3454
91.1356
94.3735
95.5933
95.3675
94.2629
93.1967
93.0836
93.4063
94.0879
94.8862
95.1968
95.0521
94.6204
94.0191
93.5482
93.1359
92.7459
92.2636
91.6741
91.0124
90.3221
89.6145
88.8787
88.1021
87.2888
86.4461
85.5806
84.6933
83.7855
82.86
81.9205
80.9705
80.013
79.0509
78.0875
77.1262
76.1703
75.2234
74.2886
73.3688
72.467
71.5854
70.7262
69.8926
69.0877
68.3138
67.5737
66.8699
66.205
65.5808
64.9978
64.4575
63.9624
63.5155
63.118
62.7701
62.4721
62.2263
62.0341
61.8962
61.8136
61.786
61.8147
61.9083
62.0542
62.2606
62.5286
62.8622
63.2582
63.7123
64.2301
64.8187
104.621
105.333
107.675
104.313
101.05
100.364
99.4818
92.0173
76.6594
74.8804
84.4918
91.0607
94.2736
95.5193
95.3383
94.2843
93.2538
93.1339
93.4397
94.1022
94.8809
95.1864
95.046
94.62
94.0245
93.5542
93.1404
92.7485
92.2654
91.6764
91.0152
90.3251
89.6174
88.8814
88.1048
87.2916
86.4489
85.5833
84.696
83.7881
82.8626
81.9231
80.9731
80.0156
79.0535
78.09
77.1287
76.1728
75.2259
74.291
73.3713
72.4694
71.5878
70.7285
69.8949
69.09
68.3161
67.5759
66.8721
66.2072
65.583
64.9999
64.4597
63.9645
63.5176
63.1201
62.7722
62.4741
62.2284
62.0362
61.8983
61.8157
61.788
61.8167
61.9104
62.0563
62.2626
62.5306
62.8643
63.2603
63.7144
64.2323
64.8209
104.631
105.267
107.497
104.221
101.214
100.771
100.545
93.2041
78.2292
76.1637
84.727
91.0006
94.1753
95.441
95.3067
94.3085
93.3185
93.1919
93.4794
94.1203
94.8763
95.1754
95.0393
94.6197
94.0309
93.5613
93.1458
92.7516
92.2677
91.6791
91.0185
90.3287
89.6208
88.8846
88.108
87.2948
86.4521
85.5866
84.6992
83.7913
82.8658
81.9262
80.9762
80.0187
79.0565
78.093
77.1317
76.1758
75.2288
74.2939
73.3741
72.4723
71.5906
70.7313
69.8977
69.0927
68.3188
67.5786
66.8748
66.2098
65.5856
65.0025
64.4622
63.9671
63.5202
63.1226
62.7747
62.4766
62.2309
62.0386
61.9008
61.8181
61.7905
61.8192
61.9128
62.0587
62.2651
62.5331
62.8668
63.2628
63.717
64.2348
64.8235
104.683
105.237
107.364
104.178
101.524
101.274
101.951
94.2419
79.8731
77.5335
85.0633
90.9598
94.0823
95.36
95.2734
94.3361
93.3917
93.2586
93.5263
94.1429
94.8728
95.1639
95.0322
94.6195
94.0382
93.5696
93.1522
92.7554
92.2705
91.6822
91.0225
90.3329
89.6248
88.8885
88.1118
87.2986
86.4559
85.5904
84.7029
83.795
82.8695
81.9299
80.9799
80.0223
79.0601
78.0966
77.1352
76.1793
75.2323
74.2974
73.3776
72.4757
71.594
70.7347
69.901
69.096
68.322
67.5818
66.878
66.213
65.5888
65.0056
64.4653
63.9701
63.5232
63.1256
62.7777
62.4796
62.2338
62.0416
61.9037
61.8211
61.7934
61.8221
61.9158
62.0617
62.268
62.5361
62.8697
63.2658
63.72
64.2379
64.8266
104.812
105.289
107.307
104.27
101.996
101.988
103.613
95.1982
81.5617
78.9887
85.5127
90.9379
94.005
95.2783
95.2397
94.368
93.4742
93.3349
93.5814
94.1708
94.8709
95.1523
95.0248
94.6194
94.0467
93.5791
93.1598
92.7601
92.2739
91.686
91.0271
90.3378
89.6296
88.8929
88.1162
87.303
86.4604
85.5948
84.7073
83.7994
82.8738
81.9342
80.9842
80.0266
79.0643
78.1008
77.1394
76.1834
75.2364
74.3015
73.3816
72.4797
71.5979
70.7386
69.9049
69.0999
68.3259
67.5856
66.8818
66.2167
65.5925
65.0093
64.469
63.9737
63.5268
63.1292
62.7813
62.4832
62.2373
62.0451
61.9072
61.8246
61.7969
61.8256
61.9193
62.0652
62.2716
62.5396
62.8733
63.2694
63.7236
64.2416
64.8303
105.053
105.476
107.361
104.516
102.564
103.017
105.188
96.1726
83.2791
80.52
86.0836
90.9485
93.9474
95.1991
95.2075
94.4055
93.567
93.422
93.6458
94.2047
94.871
95.1409
95.0172
94.6197
94.0565
93.5902
93.1687
92.7656
92.278
91.6905
91.0324
90.3435
89.6351
88.8982
88.1213
87.3082
86.4656
85.6
84.7125
83.8045
82.8789
81.9393
80.9892
80.0316
79.0693
78.1057
77.1443
76.1883
75.2412
74.3062
73.3863
72.4844
71.6026
70.7432
69.9095
69.1044
68.3304
67.5901
66.8862
66.2211
65.5968
65.0136
64.4733
63.978
63.5311
63.1334
62.7855
62.4873
62.2415
62.0493
61.9114
61.8287
61.801
61.8298
61.9234
62.0693
62.2757
62.5438
62.8775
63.2736
63.7279
64.2459
64.8347
105.438
105.838
107.597
104.908
103.166
104.227
106.362
97.165
85.0325
82.1163
86.7678
91.0276
93.9032
95.1273
95.1795
94.4502
93.6711
93.5208
93.7204
94.2456
94.874
95.1299
95.0096
94.6205
94.0678
93.6031
93.1792
92.7723
92.2829
91.6959
91.0387
90.3502
89.6416
88.9043
88.1273
87.3143
86.4717
85.606
84.7185
83.8105
82.8848
81.9452
80.995
80.0374
79.0751
78.1115
77.15
76.194
75.2469
74.3118
73.3919
72.4899
71.608
70.7486
69.9148
69.1097
68.3357
67.5954
66.8914
66.2263
65.602
65.0187
64.4784
63.9831
63.5361
63.1384
62.7904
62.4923
62.2464
62.0542
61.9163
61.8336
61.8059
61.8347
61.9283
105.997
106.41
108.081
105.472
103.824
105.591
107.253
98.1295
86.8326
83.7774
87.541
91.2056
93.874
95.0692
95.159
94.5043
93.7877
93.6325
93.8065
94.2943
94.8805
95.1201
95.0025
94.6221
94.0809
93.6179
93.1914
92.7802
92.2889
91.7022
91.0461
90.358
89.6491
88.9114
88.1344
87.3213
86.4788
85.6131
84.7255
83.8174
82.8917
81.952
81.0019
80.0442
79.0818
78.1182
77.1566
76.2006
75.2535
74.3184
73.3984
72.4963
71.6144
70.755
69.9212
69.116
68.3419
67.6016
66.8976
66.2324
65.608
65.0248
64.4843
63.989
63.542
63.1443
62.7963
62.4981
62.2523
62.06
61.922
61.8394
61.8117
61.8405
61.9341
106.756
107.225
108.883
106.286
104.713
107.395
108.045
99.0647
88.6749
85.5004
88.3895
91.493
93.8733
95.032
95.1508
94.5705
93.9182
93.7584
93.9054
94.3522
94.8917
95.1123
94.9964
94.6248
94.096
93.6349
93.2057
92.7898
92.2961
91.7097
91.0547
90.367
89.6579
88.9198
88.1425
87.3295
86.487
85.6213
84.7336
83.8255
82.8998
81.9601
81.0099
80.0521
79.0897
78.126
77.1645
76.2084
75.2612
74.326
73.406
72.5039
71.622
70.7625
69.9286
69.1234
68.3492
67.6088
66.9048
66.2396
65.6152
65.0318
64.4914
63.996
63.549
63.1512
62.8032
62.505
62.2591
62.0668
61.9289
61.8462
61.8186
61.8473
61.941
107.732
108.307
110.026
107.33
106.006
109.564
108.732
100.011
90.5431
87.2689
89.3182
91.8762
93.9308
95.024
95.1607
94.6521
94.0639
93.8997
94.0183
94.4204
94.9088
95.1075
94.9918
94.6292
94.1136
93.6545
93.2224
92.8011
92.3048
91.7185
91.0647
90.3776
89.6681
88.9295
88.1521
87.3391
86.4966
85.6308
84.7431
83.8349
82.9092
81.9694
81.0192
80.0614
79.0989
78.1352
77.1736
76.2174
75.2702
74.335
73.4149
72.5128
71.6308
70.7712
69.9373
69.132
68.3578
67.6174
66.9133
66.248
65.6235
65.0402
64.4997
64.0043
63.5572
63.1594
62.8113
62.5131
62.2672
62.0749
61.9369
61.8543
61.8266
61.8554
61.949
108.925
109.668
111.493
108.482
107.658
111.596
109.339
100.99
92.418
89.0662
90.3362
92.3393
94.0719
95.0548
95.1959
94.753
94.2268
94.0579
94.1467
94.5003
94.9335
95.1069
94.9898
94.6358
94.134
93.677
93.2418
92.8146
92.3152
91.7291
91.0765
90.3898
89.68
88.9408
88.1632
87.3502
86.5078
85.6419
84.7541
83.8459
82.9201
81.9803
81.03
80.0722
79.1097
78.1459
77.1842
76.228
75.2808
74.3455
73.4253
72.5231
71.6411
70.7815
69.9475
69.1422
68.3679
67.6274
66.9232
66.2579
65.6333
65.0499
64.5094
64.0139
63.5668
63.169
62.8208
62.5226
62.2767
62.0843
61.9464
61.8637
61.8361
61.8649
61.9585
110.311
111.292
113.183
109.787
109.538
113.23
109.977
102.012
94.2801
90.876
91.4453
92.8913
94.2987
95.1361
95.2646
94.8782
94.409
94.2347
94.2923
94.5937
94.9676
95.1123
94.9915
94.6454
94.1576
93.7028
93.2643
92.8306
92.3278
91.7415
91.0901
90.404
89.6938
88.9539
88.176
87.3631
86.5207
85.6548
84.7669
83.8586
82.9327
81.9929
81.0426
80.0847
79.1222
78.1583
77.1966
76.2404
75.2931
74.3577
73.4375
72.5352
71.6531
70.7934
69.9594
69.154
68.3797
67.6391
66.9349
66.2695
65.6449
65.0614
64.5208
64.0253
63.5781
63.1802
62.832
62.5338
62.2878
62.0955
61.9575
61.8749
61.8472
61.876
61.9697
111.859
113.116
114.93
111.461
111.819
114.728
110.586
103.097
96.1118
92.6824
92.6384
93.5465
94.61
95.2801
95.3762
95.0335
94.6135
94.4321
94.4566
94.7024
95.0133
95.1257
94.9982
94.6591
94.1852
93.7325
93.2903
92.8496
92.3429
91.7563
91.1061
90.4205
89.7097
88.9692
88.191
87.378
86.5357
85.6697
84.7817
83.8733
82.9475
82.0076
81.0572
80.0993
79.1367
78.1728
77.2111
76.2548
75.3074
74.372
73.4517
72.5494
71.6672
70.8074
69.9733
69.1679
68.3935
67.6528
66.9485
66.2831
65.6584
65.0748
64.5342
64.0386
63.5914
63.1934
62.8452
62.5469
62.3009
62.1085
61.9706
61.8879
61.8603
61.8891
61.9828
113.55
114.966
116.731
113.669
114.555
116.156
111.112
104.261
97.8999
94.4716
93.9023
94.3061
95.0155
95.4977
95.5405
95.2254
94.8437
94.6523
94.6416
94.8284
95.0732
95.1492
95.0119
94.678
94.2174
93.7666
93.3205
92.8722
92.3611
91.7739
91.1247
90.4395
89.7283
88.9868
88.2083
87.3953
86.5531
85.687
84.7988
83.8904
82.9645
82.0246
81.0742
80.1162
79.1536
78.1897
77.2279
76.2715
75.3241
74.3886
73.4683
72.5659
71.6836
70.8238
69.9896
69.1841
68.4096
67.6689
66.9645
66.299
65.6742
65.0906
64.5498
64.0543
63.6069
63.2089
62.8606
62.5623
62.3163
62.1239
61.9859
61.9033
61.8757
61.9046
61.9983
115.331
116.823
118.684
116.324
117.42
117.407
111.693
105.492
99.6367
96.2316
95.2227
95.1649
95.5215
95.7993
95.7675
95.4609
95.1038
94.8982
94.8494
94.974
95.15
95.1857
95.0345
94.7038
94.2552
93.8058
93.3555
92.8989
92.3828
91.7946
91.1464
90.4616
89.7497
89.0073
88.2284
87.4154
86.5731
85.707
84.8187
83.9102
82.9843
82.0444
81.0939
80.1358
79.1732
78.2092
77.2474
76.291
75.3435
74.408
73.4876
72.5851
71.7027
70.8429
70.0086
69.203
68.4284
67.6876
66.9832
66.3176
65.6927
65.109
64.5682
64.0726
63.6251
63.2271
62.8787
62.5804
62.3344
62.1419
62.004
61.9214
61.8938
61.9227
62.0164
117.093
118.793
120.701
119.055
120.073
118.435
112.437
106.761
101.319
97.9526
96.584
96.1145
96.1305
96.193
96.0664
95.7475
95.3988
95.1729
95.0824
95.1418
95.2468
95.2381
95.0688
94.7384
94.2997
93.851
93.3959
92.9305
92.4089
91.8192
91.1716
90.4871
89.7744
89.0311
88.2516
87.4385
86.5963
85.73
84.8416
83.9331
83.0071
82.0672
81.1167
80.1586
79.1959
78.2319
77.2701
76.3136
75.3661
74.4305
73.51
72.6075
71.7251
70.8651
70.0308
69.2251
68.4504
67.7096
67.005
66.3393
65.7143
65.1305
64.5897
64.094
63.6465
63.2484
62.8999
62.6016
62.3556
62.1631
62.0251
61.9426
61.915
61.944
62.0377
118.804
120.786
122.463
121.682
122.392
119.364
113.34
108.042
102.946
99.6266
97.9703
97.1438
96.8403
96.6835
96.4447
96.0918
95.7338
95.4798
95.3429
95.3344
95.3668
95.3097
95.1176
94.7839
94.3524
93.9032
93.4426
92.9678
92.44
91.8483
91.201
90.5165
89.803
89.0585
88.2785
87.4652
86.623
85.7566
84.8681
83.9595
83.0335
82.0935
81.143
80.1849
79.2222
78.2583
77.2963
76.3399
75.3923
74.4567
73.5362
72.6336
71.7511
70.891
70.0566
69.2508
68.4761
67.7352
67.0306
66.3647
65.7396
65.1558
64.6148
64.1191
63.6715
63.2733
62.9248
62.6264
62.3804
62.1879
62.05
61.9674
61.9399
61.969
62.0627
120.462
122.675
123.715
124.124
124.263
120.221
114.343
109.315
104.516
101.247
99.3663
98.2385
97.6441
97.2712
96.907
96.4996
96.114
95.8226
95.634
95.5549
95.5134
95.404
95.1841
94.8429
94.415
93.9637
93.4966
93.0118
92.4769
91.8826
91.2352
90.5504
89.8358
89.0901
88.3094
87.4959
86.6537
85.7872
84.8986
83.9899
83.0639
82.124
81.1735
80.2154
79.2527
78.2887
77.3268
76.3704
75.4228
74.4871
73.5666
72.6639
71.7813
70.9212
70.0867
69.2809
68.5061
67.765
67.0603
66.3944
65.7692
65.1853
64.6443
64.1484
63.7008
63.3025
62.9539
62.6556
62.4095
62.217
62.0791
61.9966
61.9692
61.9983
62.0922
122.043
124.412
124.742
126.222
125.673
120.907
115.395
110.563
106.026
102.808
100.757
99.3815
98.5304
97.9517
97.4541
96.9743
96.5436
96.2046
95.9581
95.8061
95.6897
95.5244
95.2717
94.9183
94.4896
94.034
93.5591
93.0634
92.5208
91.9229
91.2748
90.5895
89.8737
89.1265
88.3451
87.5313
86.689
85.8224
84.9337
84.0249
83.0989
82.1591
81.2086
80.2506
79.2879
78.324
77.3621
76.4057
75.4581
74.5224
73.6018
72.6991
71.8165
70.9564
70.1218
69.3159
68.541
67.7999
67.0951
66.4291
65.8038
65.2198
64.6787
64.1828
63.7351
63.3367
62.9881
62.6897
62.4436
62.2512
62.1133
62.0309
62.0035
62.0327
123.504
126.03
126.008
127.964
126.694
121.514
116.454
111.774
107.474
104.304
102.13
100.555
99.484
98.7155
98.0822
97.5163
97.0252
96.6284
96.3177
96.0906
95.8986
95.6743
95.3838
95.0128
94.5784
94.1157
93.6315
93.124
92.5727
91.9704
91.3208
90.6345
89.9171
89.1684
88.386
87.5719
86.7295
85.8628
84.9739
84.0652
83.1393
82.1995
81.2491
80.2911
79.3286
78.3648
77.403
76.4466
75.499
74.5634
73.6428
72.7401
71.8575
70.9973
70.1627
69.3567
68.5818
67.8406
67.1357
66.4696
65.8442
65.2601
64.7189
64.223
63.7752
63.3768
63.0281
62.7297
62.4837
62.2912
62.1534
62.0711
62.0438
62.0731
124.811
127.519
127.419
129.375
127.474
122.179
117.491
112.942
108.852
105.731
103.471
101.741
100.487
99.5488
98.7829
98.1223
97.5588
97.095
96.7144
96.4102
96.1424
95.8565
95.5237
95.1294
94.6837
94.2109
93.7151
93.1948
92.6339
92.026
91.374
90.686
89.9669
89.2164
88.433
87.6184
86.7759
85.9091
85.0201
84.1114
83.1856
82.246
81.2957
80.3379
79.3755
78.4118
77.4502
76.4939
75.5465
74.6109
73.6904
72.7877
71.9051
71.0449
70.2103
69.4042
68.6293
67.888
67.1831
66.5169
65.8914
65.3072
64.766
64.27
63.8222
63.4236
63.0749
62.7765
62.5306
62.3381
62.2004
62.1182
62.0911
62.1206
125.978
128.782
128.772
130.574
128.139
122.923
118.487
114.063
110.156
107.086
104.769
102.923
101.52
100.434
99.5435
98.7849
98.141
97.6032
97.1483
96.7659
96.4222
96.0728
95.6936
95.2706
94.8079
94.3211
93.8118
93.2773
92.7054
92.0909
91.4354
90.7451
90.0237
89.2712
88.4867
87.6716
86.8289
85.962
85.073
84.1643
83.2387
82.2993
81.3493
80.3917
79.4296
78.4662
77.5047
76.5486
75.6014
74.666
73.7456
72.8429
71.9604
71.1002
70.2656
69.4596
68.6846
67.9434
67.2384
66.5722
65.9466
65.3623
64.821
64.325
63.8771
63.4785
63.1298
62.8314
62.5855
62.3932
62.2555
62.1735
62.1466
62.1762
127.022
129.835
130.041
131.637
128.759
123.665
119.413
115.126
111.38
108.363
106.013
104.085
102.563
101.352
100.348
99.4928
98.765
98.1489
97.617
97.1564
96.7377
96.3238
95.8951
95.4384
94.9532
94.4483
93.9226
93.3727
92.7887
92.1661
91.506
90.8125
90.0885
89.3338
88.5479
87.7322
86.8893
86.0223
85.1333
84.2249
83.2995
82.3605
81.4108
80.4536
79.4919
78.5288
77.5676
76.6119
75.6649
74.7297
73.8095
72.9071
72.0247
71.1646
70.33
69.524
68.7491
68.0079
67.3029
66.6366
66.011
65.4267
64.8854
64.3894
63.9415
63.5428
63.1941
62.8958
62.65
62.4577
62.3202
62.2384
62.2117
62.2416
127.929
130.781
131.448
132.663
129.204
124.316
120.251
116.117
112.517
109.557
107.194
105.209
103.596
102.282
101.177
100.231
99.4199
98.7249
98.1158
97.5782
97.0861
96.6082
96.128
95.6333
95.1207
94.5938
94.0488
93.482
92.8846
92.2527
91.5867
90.8892
90.1619
89.4047
88.6173
87.8009
86.9579
86.0909
85.2021
84.2939
83.369
82.4304
81.4813
80.5246
79.5634
78.6008
77.6402
76.6849
75.7383
74.8035
73.8836
72.9814
72.0992
71.2394
70.4049
69.5991
68.8242
68.083
67.3781
66.7119
66.0862
65.5019
64.9606
64.4647
64.0167
63.6181
63.2693
62.9712
62.7255
62.5334
62.3961
62.3146
62.2882
62.3184
128.668
131.674
132.898
133.409
129.423
124.912
120.992
117.024
113.56
110.662
108.303
106.28
104.598
103.201
102.01
100.982
100.092
99.3202
98.6364
98.0252
97.4625
96.9219
96.3898
95.8543
95.3103
94.758
94.1914
93.6056
92.9936
92.3514
91.6782
90.9757
90.2447
89.4847
88.6956
87.8785
87.0353
86.1685
85.28
84.3723
83.448
82.5102
81.5619
80.6059
79.6455
78.6836
77.7237
76.769
75.823
74.8887
73.9693
73.0676
72.1858
71.3262
70.492
69.6863
68.9117
68.1706
67.4658
66.7997
66.174
65.5898
65.0486
64.5527
64.1048
63.7062
63.3575
63.0595
62.8141
62.6222
62.4851
62.404
62.3779
62.4085
129.264
132.415
134.005
133.766
129.571
125.445
121.63
117.838
114.501
111.671
109.327
107.283
105.552
104.09
102.827
101.726
100.765
99.9216
99.1676
98.4876
97.8592
97.2585
96.675
96.0981
95.5201
94.9398
94.3495
93.7438
93.1157
92.4618
91.7809
91.0726
90.3373
89.5744
88.7835
87.9657
87.1224
86.2559
85.368
84.4611
83.5378
82.601
81.6537
80.6988
79.7394
78.7786
77.8196
76.8658
75.9206
74.9872
74.0685
73.1674
72.2861
71.427
70.5932
69.7878
69.0134
68.2727
67.5681
66.9021
66.2765
65.6924
65.1514
64.6556
64.2078
63.8093
63.4608
63.163
62.9178
62.7262
62.5895
62.5089
62.4832
62.5142
129.767
132.896
134.653
133.815
129.67
125.877
122.162
118.547
115.333
112.575
110.255
108.203
106.44
104.928
103.608
102.445
101.42
100.513
99.6955
98.9526
98.2644
97.6089
96.9759
96.3573
95.7458
95.1361
94.5211
93.8947
93.2501
92.5836
91.8938
91.1796
90.4397
89.6737
88.8812
88.0627
87.2196
86.3537
85.4667
84.5611
83.6391
82.7038
81.758
80.8046
79.8467
78.8873
77.9295
76.977
76.033
75.1006
74.1829
73.2827
72.4023
71.5438
70.7105
69.9057
69.1317
68.3914
67.6871
67.0214
66.3961
65.8123
65.2714
64.7759
64.3283
63.9299
63.5816
63.2841
63.0393
62.848
62.7118
62.6318
62.6067
62.6382
130.166
133.192
134.908
133.712
129.72
126.194
122.58
119.139
116.045
113.364
111.075
109.028
107.246
105.697
104.332
103.119
102.041
101.078
100.205
99.4063
98.6645
97.96
97.2831
96.6245
95.9792
95.3419
94.7022
94.0552
93.3941
92.7152
92.0159
91.2953
90.5515
89.7826
88.9886
88.1698
87.3272
86.4623
85.5768
84.6729
83.753
82.8197
81.8759
80.9246
79.9687
79.0112
78.0552
77.1044
76.162
75.2311
74.3148
73.4159
72.5366
71.679
70.8465
70.0424
69.2691
68.5293
67.8256
67.1603
66.5354
65.9519
65.4114
64.9162
64.4689
64.0708
63.7227
63.4258
63.1814
62.9906
62.855
62.7756
62.7512
62.7833
130.531
133.311
134.841
133.484
129.692
126.367
122.873
119.6
116.628
114.028
111.775
109.744
107.954
106.38
104.981
103.729
102.607
101.598
100.677
99.8311
99.0432
98.2957
97.5803
96.8876
96.2103
95.546
94.8851
94.2187
93.5424
92.8519
92.1441
91.417
90.6693
89.8991
89.1041
88.2857
87.4443
86.5812
85.698
84.7967
83.8795
82.9492
82.0084
81.0599
80.1068
79.1518
78.1983
77.2498
76.3096
75.3808
74.4663
73.5692
72.6915
71.8353
71.0038
70.2007
69.4284
68.6894
67.9864
67.3218
66.6975
66.1146
65.5745
65.0797
64.6328
64.2351
63.8874
63.591
63.3472
63.157
63.022
62.9435
62.9198
62.9525
130.951
133.242
134.565
133.136
129.542
126.385
123.028
119.918
117.068
114.551
112.339
110.332
108.544
106.958
105.536
104.255
103.1
102.054
101.095
100.21
99.3842
98.6011
97.8532
97.1322
96.43
95.7414
95.0606
94.3797
93.6901
92.9897
92.2749
91.5431
90.792
90.0211
89.2276
88.4104
87.5711
86.7108
85.8308
84.9331
84.0198
83.0934
82.1565
81.212
80.2625
79.311
78.3607
77.4152
76.4779
75.5518
74.6398
73.745
72.8695
72.0149
71.1848
70.3831
69.6121
68.8742
68.1722
67.5085
66.885
66.3028
65.7634
65.2692
64.8228
64.4256
64.0786
63.7829
63.54
63.3504
63.2163
63.1389
63.1163
63.1499
131.339
133.094
134.264
132.737
129.265
126.251
123.035
120.081
117.356
114.926
112.76
110.785
109.01
107.42
105.985
104.685
103.504
102.43
101.44
100.525
99.6685
98.8574
98.0837
97.3398
96.6182
95.9122
95.2143
94.5208
93.8232
93.1156
92.3964
91.6624
90.9109
90.1404
89.35
88.5371
87.7014
86.8454
85.9703
85.0779
84.1701
83.2492
82.3179
81.3788
80.4346
79.4879
78.542
77.6006
76.6673
75.745
74.8365
73.9451
73.0728
72.2207
71.3926
70.593
69.8238
69.0876
68.3871
67.7247
67.1024
66.5213
65.9828
65.4894
65.0437
64.6471
64.3008
64.0058
63.7635
63.5745
63.4411
63.3645
63.3427
63.3768
131.575
132.963
133.973
132.24
128.829
125.958
122.885
120.079
117.478
115.133
113.01
111.065
109.306
107.722
106.285
104.977
103.786
102.696
101.688
100.751
99.8739
99.0436
98.2527
97.4937
96.7595
96.0437
95.3377
94.6365
93.9354
93.2271
92.5071
91.7738
91.0247
90.2581
89.4728
88.6668
87.838
86.9883
86.1201
85.235
84.3346
83.4212
82.4972
81.5652
80.6279
79.6875
78.7469
77.8103
76.8822
75.965
75.0609
74.1736
73.3048
72.4552
71.6292
70.8318
70.0645
69.33
68.6309
67.9699
67.3489
66.7689
66.2312
65.7384
65.2934
64.8974
64.5517
64.2574
64.0157
63.8277
63.6959
63.6206
63.5997
63.6339
131.612
132.754
133.469
131.485
128.224
125.499
122.567
119.905
117.426
115.172
113.104
111.199
109.471
107.903
106.472
105.165
103.967
102.863
101.838
100.883
99.9916
99.1509
98.3521
97.5867
96.8472
96.1266
95.4175
94.7137
94.0099
93.3013
92.5826
91.8517
91.1083
90.3508
89.5759
88.7797
87.9604
87.12
86.2614
85.3864
84.4962
83.5929
82.6789
81.7566
80.8283
79.8963
78.9632
78.0341
77.1137
76.2034
75.305
74.4227
73.5585
72.7139
71.8925
71.0986
70.3345
69.6027
68.9061
68.2472
67.628
67.0495
66.5128
66.021
65.577
65.1818
64.8369
64.5433
64.3017
64.1145
63.984
63.9096
63.8888
63.9225
131.502
132.452
132.72
130.583
127.477
124.872
122.087
119.569
117.212
115.05
113.03
111.104
109.355
107.798
106.377
105.08
103.893
102.802
101.794
100.855
99.9763
99.1453