/*--------------------------------*- C++ -*----------------------------------*\
| =========                 |                                                 |
| \\      /  F ield         | OpenFOAM: The Open Source CFD Toolbox           |
|  \\    /   O peration     | Version:  2412                                  |
|   \\  /    A nd           | Website:  www.openfoam.com                      |
|    \\/     M anipulation  |                                                 |
\*---------------------------------------------------------------------------*/
FoamFile
{
    version     2.0;
    format      ascii;
    arch        "LSB;label=32;scalar=64";
    class       volScalarField;
    location    "80";
    object      nut;
}
// * * * * * * * * * * * * * * * * * * * * * * * * * * * * * * * * * * * * * //

dimensions      [0 2 -1 0 0 0 0];

internalField   nonuniform List<scalar> 
7387
(
8.48007e-12
8.65501e-12
8.80899e-12
8.94672e-12
9.06952e-12
9.17949e-12
9.27791e-12
9.36564e-12
9.44383e-12
9.51328e-12
9.57497e-12
9.62976e-12
9.67611e-12
9.71499e-12
9.74877e-12
9.77659e-12
9.79838e-12
9.81436e-12
9.82583e-12
9.83376e-12
9.83735e-12
9.83599e-12
9.83123e-12
9.8217e-12
9.80798e-12
9.7908e-12
9.76858e-12
9.74181e-12
9.71098e-12
9.67603e-12
9.63675e-12
9.59277e-12
9.54504e-12
9.4932e-12
9.43745e-12
9.37798e-12
9.31485e-12
9.24852e-12
9.17962e-12
9.10808e-12
9.0341e-12
8.9598e-12
8.88549e-12
8.81043e-12
8.73302e-12
8.65523e-12
8.58293e-12
8.52314e-12
8.47529e-12
8.42392e-12
8.35706e-12
8.27086e-12
8.20217e-12
8.19665e-12
8.27882e-12
8.45184e-12
8.62032e-12
8.68906e-12
8.64555e-12
8.42803e-12
8.17423e-12
8.19883e-12
8.66775e-12
9.70814e-12
1.18462e-11
1.58655e-11
1.63588e-11
7.75672e-12
6.44408e-13
7.39175e-13
1.33513e-13
2.52317e-13
8.0116e-10
8.18524e-10
8.33811e-10
8.47421e-10
8.59571e-10
8.70433e-10
8.80132e-10
8.88805e-10
8.96561e-10
9.03468e-10
9.09589e-10
9.14978e-10
9.19634e-10
9.23604e-10
9.27006e-10
9.29825e-10
9.32061e-10
9.33763e-10
9.35039e-10
9.35944e-10
9.36428e-10
9.36454e-10
9.36139e-10
9.3539e-10
9.34238e-10
9.32707e-10
9.30715e-10
9.28326e-10
9.25529e-10
9.22334e-10
9.18738e-10
9.14696e-10
9.10268e-10
9.05456e-10
9.00262e-10
8.9471e-10
8.88835e-10
8.82646e-10
8.76181e-10
8.69473e-10
8.62556e-10
8.5556e-10
8.48569e-10
8.41514e-10
8.34272e-10
8.26976e-10
8.20152e-10
8.14453e-10
8.09833e-10
8.04979e-10
7.9879e-10
7.90895e-10
7.84451e-10
7.83496e-10
7.90339e-10
8.05412e-10
8.20448e-10
8.27054e-10
8.23718e-10
8.05306e-10
7.83207e-10
7.84239e-10
8.24055e-10
9.13967e-10
1.09509e-09
1.41785e-09
1.47501e-09
7.59854e-10
6.3659e-11
6.312e-11
1.32307e-11
2.54035e-11
7.6295e-09
7.80813e-09
7.96532e-09
8.1046e-09
8.2286e-09
8.33945e-09
8.43859e-09
8.52731e-09
8.60684e-09
8.67796e-09
8.74109e-09
8.79673e-09
8.84538e-09
8.8873e-09
8.92323e-09
8.95326e-09
8.97764e-09
8.99689e-09
9.01194e-09
9.02299e-09
9.02995e-09
9.03287e-09
9.03219e-09
9.02744e-09
9.01874e-09
9.0061e-09
8.98927e-09
8.96863e-09
8.94388e-09
8.91522e-09
8.88266e-09
8.8459e-09
8.80525e-09
8.76088e-09
8.71277e-09
8.6612e-09
8.6065e-09
8.54873e-09
8.48824e-09
8.42539e-09
8.36049e-09
8.29462e-09
8.22872e-09
8.16218e-09
8.09404e-09
8.02537e-09
7.96059e-09
7.90544e-09
7.85988e-09
7.8134e-09
7.7562e-09
7.68456e-09
7.62406e-09
7.60914e-09
7.6616e-09
7.78521e-09
7.91411e-09
7.97778e-09
7.95741e-09
7.81175e-09
7.6279e-09
7.62319e-09
7.9392e-09
8.67194e-09
1.01105e-08
1.24752e-08
1.30808e-08
7.61242e-09
7.63156e-10
5.26351e-10
1.42779e-10
3.00428e-10
3.61757e-08
3.71118e-08
3.79345e-08
3.86601e-08
3.93035e-08
3.9878e-08
4.03931e-08
4.08552e-08
4.12703e-08
4.16426e-08
4.19747e-08
4.22698e-08
4.25295e-08
4.2755e-08
4.29495e-08
4.3114e-08
4.32511e-08
4.33626e-08
4.34527e-08
4.35224e-08
4.35727e-08
4.36039e-08
4.36169e-08
4.36108e-08
4.35853e-08
4.35407e-08
4.34763e-08
4.33927e-08
4.32893e-08
4.31665e-08
4.30242e-08
4.28618e-08
4.26803e-08
4.24804e-08
4.22625e-08
4.20275e-08
4.17766e-08
4.15111e-08
4.12323e-08
4.09421e-08
4.06413e-08
4.0335e-08
4.00274e-08
3.97168e-08
3.93994e-08
3.9079e-08
3.87739e-08
3.85079e-08
3.82831e-08
3.80606e-08
3.77991e-08
3.74807e-08
3.72002e-08
3.70965e-08
3.72702e-08
3.77374e-08
3.82585e-08
3.85551e-08
3.85192e-08
3.79982e-08
3.72907e-08
3.72037e-08
3.83536e-08
4.11442e-08
4.64713e-08
5.42995e-08
5.69856e-08
3.77204e-08
5.31909e-09
2.17714e-09
8.53977e-10
1.96984e-09
1.2106e-07
1.2458e-07
1.27671e-07
1.30382e-07
1.32779e-07
1.34914e-07
1.3683e-07
1.38555e-07
1.4011e-07
1.4151e-07
1.42766e-07
1.4389e-07
1.44886e-07
1.45759e-07
1.46518e-07
1.47169e-07
1.47721e-07
1.48184e-07
1.48568e-07
1.48882e-07
1.4913e-07
1.49312e-07
1.4943e-07
1.49484e-07
1.49472e-07
1.49394e-07
1.49248e-07
1.49036e-07
1.48755e-07
1.48405e-07
1.47988e-07
1.47501e-07
1.46948e-07
1.4633e-07
1.45648e-07
1.44907e-07
1.44111e-07
1.43264e-07
1.4237e-07
1.41435e-07
1.40464e-07
1.39469e-07
1.38465e-07
1.3745e-07
1.36415e-07
1.35369e-07
1.34362e-07
1.33459e-07
1.32677e-07
1.31924e-07
1.31086e-07
1.30104e-07
1.29196e-07
1.28733e-07
1.29029e-07
1.30134e-07
1.31506e-07
1.32432e-07
1.32511e-07
1.31383e-07
1.29671e-07
1.29247e-07
1.31888e-07
1.38806e-07
1.51627e-07
1.67442e-07
1.74202e-07
1.29332e-07
2.6945e-08
6.51133e-09
3.84618e-09
9.45051e-09
3.26774e-07
3.37562e-07
3.47037e-07
3.55302e-07
3.62577e-07
3.69051e-07
3.74867e-07
3.80116e-07
3.84865e-07
3.89163e-07
3.93046e-07
3.9654e-07
3.99659e-07
4.02417e-07
4.04836e-07
4.06942e-07
4.08759e-07
4.10313e-07
4.1164e-07
4.12767e-07
4.1371e-07
4.14474e-07
4.15065e-07
4.15477e-07
4.15704e-07
4.15748e-07
4.15605e-07
4.15276e-07
4.14754e-07
4.14035e-07
4.13125e-07
4.12021e-07
4.10728e-07
4.0925e-07
4.07593e-07
4.05768e-07
4.03785e-07
4.01655e-07
3.99393e-07
3.97013e-07
3.94527e-07
3.91965e-07
3.89359e-07
3.86719e-07
3.84034e-07
3.81318e-07
3.78665e-07
3.76213e-07
3.7403e-07
3.71977e-07
3.69824e-07
3.67429e-07
3.65112e-07
3.63563e-07
3.63548e-07
3.65178e-07
3.67685e-07
3.69816e-07
3.70478e-07
3.69099e-07
3.66473e-07
3.65344e-07
3.69422e-07
3.81612e-07
4.03349e-07
4.21586e-07
4.30463e-07
3.48727e-07
1.10159e-07
1.68904e-08
1.43039e-08
3.73776e-08
7.58174e-07
7.86722e-07
8.11808e-07
8.33588e-07
8.52686e-07
8.69664e-07
8.84929e-07
8.98744e-07
9.11295e-07
9.22708e-07
9.33079e-07
9.4248e-07
9.50928e-07
9.58461e-07
9.65136e-07
9.71013e-07
9.76158e-07
9.80649e-07
9.84564e-07
9.8799e-07
9.90972e-07
9.93539e-07
9.95704e-07
9.97445e-07
9.98753e-07
9.99621e-07
1.00004e-06
1.00001e-06
9.99514e-07
9.98542e-07
9.97098e-07
9.95181e-07
9.92802e-07
9.89977e-07
9.86715e-07
9.83039e-07
9.78971e-07
9.74537e-07
9.69775e-07
9.64722e-07
9.594e-07
9.53866e-07
9.48188e-07
9.42412e-07
9.36545e-07
9.30599e-07
9.24698e-07
9.19066e-07
9.13884e-07
9.09094e-07
9.04384e-07
8.99495e-07
8.94568e-07
8.9041e-07
8.88505e-07
8.89025e-07
8.91668e-07
8.9519e-07
8.97327e-07
8.97662e-07
8.9645e-07
8.94992e-07
8.98636e-07
9.13005e-07
9.36196e-07
9.30526e-07
9.2426e-07
7.93182e-07
3.65477e-07
4.90241e-08
4.37932e-08
1.16768e-07
1.56381e-06
1.63079e-06
1.68974e-06
1.74074e-06
1.78532e-06
1.8249e-06
1.86051e-06
1.89282e-06
1.9223e-06
1.94924e-06
1.97385e-06
1.9963e-06
2.01663e-06
2.0349e-06
2.05122e-06
2.06575e-06
2.07863e-06
2.09005e-06
2.10019e-06
2.10926e-06
2.11739e-06
2.12465e-06
2.13109e-06
2.13666e-06
2.14134e-06
2.14509e-06
2.14788e-06
2.14971e-06
2.15054e-06
2.15035e-06
2.14912e-06
2.14687e-06
2.14362e-06
2.13941e-06
2.13425e-06
2.12818e-06
2.12124e-06
2.11351e-06
2.10506e-06
2.09595e-06
2.08624e-06
2.07601e-06
2.06539e-06
2.05451e-06
2.04344e-06
2.03221e-06
2.02086e-06
2.00965e-06
1.99894e-06
1.98912e-06
1.98005e-06
1.97144e-06
1.96251e-06
1.95327e-06
1.94594e-06
1.94052e-06
1.93889e-06
1.94188e-06
1.94604e-06
1.95236e-06
1.95942e-06
1.96127e-06
1.96122e-06
1.9673e-06
1.96719e-06
1.87405e-06
1.79932e-06
1.5862e-06
9.62991e-07
1.45609e-07
1.11309e-07
2.84794e-07
2.92252e-06
3.06355e-06
3.18792e-06
3.29527e-06
3.38883e-06
3.47179e-06
3.54647e-06
3.61439e-06
3.67655e-06
3.73362e-06
3.78603e-06
3.83415e-06
3.87797e-06
3.91764e-06
3.95333e-06
3.98539e-06
4.0141e-06
4.03991e-06
4.06313e-06
4.08425e-06
4.10358e-06
4.12129e-06
4.13749e-06
4.15212e-06
4.16507e-06
4.17629e-06
4.18569e-06
4.19325e-06
4.19888e-06
4.20249e-06
4.2041e-06
4.20371e-06
4.20138e-06
4.19718e-06
4.19112e-06
4.18328e-06
4.17374e-06
4.16262e-06
4.15005e-06
4.13619e-06
4.12112e-06
4.10491e-06
4.0878e-06
4.07005e-06
4.05193e-06
4.03348e-06
4.0145e-06
3.995e-06
3.9756e-06
3.95771e-06
3.94203e-06
3.92865e-06
3.9148e-06
3.89764e-06
3.87951e-06
3.85919e-06
3.8431e-06
3.83842e-06
3.84208e-06
3.85916e-06
3.88641e-06
3.90238e-06
3.89939e-06
3.88318e-06
3.81775e-06
3.52532e-06
3.26248e-06
2.86794e-06
2.09447e-06
4.22336e-07
2.32503e-07
5.81552e-07
5.00782e-06
5.27587e-06
5.51288e-06
5.71708e-06
5.89456e-06
6.05165e-06
6.19304e-06
6.32183e-06
6.44002e-06
6.54889e-06
6.64931e-06
6.74194e-06
6.82674e-06
6.90397e-06
6.97386e-06
7.03708e-06
7.09416e-06
7.14597e-06
7.19311e-06
7.2365e-06
7.27675e-06
7.31429e-06
7.34934e-06
7.38177e-06
7.41141e-06
7.43808e-06
7.46166e-06
7.48206e-06
7.49909e-06
7.51253e-06
7.52246e-06
7.52886e-06
7.53187e-06
7.53159e-06
7.52803e-06
7.52133e-06
7.51159e-06
7.49902e-06
7.48387e-06
7.46638e-06
7.44671e-06
7.4249e-06
7.40121e-06
7.37618e-06
7.35043e-06
7.32403e-06
7.29635e-06
7.26673e-06
7.23587e-06
7.20676e-06
7.18206e-06
7.16315e-06
7.1446e-06
7.11806e-06
7.08421e-06
7.03821e-06
6.99207e-06
6.96491e-06
6.95788e-06
6.98498e-06
7.04445e-06
7.09362e-06
7.1024e-06
7.06437e-06
6.90192e-06
6.27147e-06
5.60276e-06
4.78116e-06
3.94781e-06
1.16964e-06
4.40783e-07
1.08545e-06
7.93915e-06
8.40225e-06
8.81293e-06
9.16629e-06
9.47256e-06
9.74296e-06
9.98608e-06
1.02077e-05
1.04113e-05
1.05993e-05
1.07733e-05
1.09343e-05
1.10823e-05
1.12177e-05
1.13408e-05
1.14527e-05
1.15544e-05
1.16473e-05
1.17326e-05
1.18117e-05
1.18857e-05
1.19556e-05
1.20217e-05
1.20838e-05
1.21416e-05
1.21949e-05
1.22433e-05
1.22867e-05
1.23247e-05
1.23569e-05
1.23835e-05
1.24045e-05
1.242e-05
1.24303e-05
1.24354e-05
1.24354e-05
1.24305e-05
1.2421e-05
1.24072e-05
1.23897e-05
1.23686e-05
1.2344e-05
1.2316e-05
1.22854e-05
1.22534e-05
1.22203e-05
1.21849e-05
1.21454e-05
1.2102e-05
1.20595e-05
1.20235e-05
1.19983e-05
1.19763e-05
1.19417e-05
1.18912e-05
1.18126e-05
1.17208e-05
1.16507e-05
1.16132e-05
1.16372e-05
1.17314e-05
1.18343e-05
1.18865e-05
1.18605e-05
1.16295e-05
1.05826e-05
9.19361e-06
7.45275e-06
6.65747e-06
3.07992e-06
9.13448e-07
2.24159e-06
1.17428e-05
1.24771e-05
1.31309e-05
1.36931e-05
1.41789e-05
1.46066e-05
1.49904e-05
1.534e-05
1.56614e-05
1.59586e-05
1.6234e-05
1.64895e-05
1.67251e-05
1.69413e-05
1.71386e-05
1.73187e-05
1.74829e-05
1.76338e-05
1.7773e-05
1.79029e-05
1.80252e-05
1.81414e-05
1.82522e-05
1.83575e-05
1.84566e-05
1.85492e-05
1.86348e-05
1.87131e-05
1.87834e-05
1.88451e-05
1.88984e-05
1.89435e-05
1.89806e-05
1.90099e-05
1.90316e-05
1.90458e-05
1.90528e-05
1.90528e-05
1.90465e-05
1.90346e-05
1.90174e-05
1.89947e-05
1.89667e-05
1.89345e-05
1.88996e-05
1.8863e-05
1.88228e-05
1.87758e-05
1.87212e-05
1.86649e-05
1.86159e-05
1.8583e-05
1.85589e-05
1.85201e-05
1.84574e-05
1.83475e-05
1.82019e-05
1.80701e-05
1.79766e-05
1.79714e-05
1.8086e-05
1.82528e-05
1.83853e-05
1.84333e-05
1.82353e-05
1.68559e-05
1.44393e-05
1.11257e-05
1.02815e-05
7.01831e-06
1.93157e-06
4.75813e-06
1.6341e-05
1.74221e-05
1.83903e-05
1.92234e-05
1.99413e-05
2.0571e-05
2.11346e-05
2.16474e-05
2.21187e-05
2.25546e-05
2.29589e-05
2.33346e-05
2.36817e-05
2.4001e-05
2.42931e-05
2.45605e-05
2.48052e-05
2.50306e-05
2.52395e-05
2.5435e-05
2.562e-05
2.57964e-05
2.59654e-05
2.6127e-05
2.62805e-05
2.64249e-05
2.656e-05
2.66851e-05
2.6799e-05
2.6901e-05
2.69914e-05
2.70703e-05
2.71383e-05
2.71956e-05
2.72425e-05
2.7279e-05
2.73055e-05
2.73224e-05
2.73304e-05
2.73307e-05
2.73235e-05
2.73087e-05
2.72864e-05
2.72576e-05
2.72245e-05
2.71884e-05
2.71476e-05
2.70974e-05
2.70349e-05
2.69663e-05
2.69037e-05
2.68612e-05
2.6835e-05
2.67967e-05
2.67298e-05
2.65984e-05
2.6402e-05
2.61989e-05
2.60269e-05
2.596e-05
2.60648e-05
2.62867e-05
2.65238e-05
2.67089e-05
2.66731e-05
2.51893e-05
2.16365e-05
1.61348e-05
1.48292e-05
1.27758e-05
4.04629e-06
9.88825e-06
2.02332e-05
2.1571e-05
2.30653e-05
2.44158e-05
2.55805e-05
2.65817e-05
2.74567e-05
2.82375e-05
2.89464e-05
2.95974e-05
3.01992e-05
3.07578e-05
3.12771e-05
3.17574e-05
3.22e-05
3.26059e-05
3.29782e-05
3.33196e-05
3.3635e-05
3.3928e-05
3.42027e-05
3.44631e-05
3.47121e-05
3.49515e-05
3.51812e-05
3.54005e-05
3.56082e-05
3.58036e-05
3.59862e-05
3.6154e-05
3.6306e-05
3.64426e-05
3.65642e-05
3.66714e-05
3.67648e-05
3.68447e-05
3.6911e-05
3.69642e-05
3.70047e-05
3.70337e-05
3.70524e-05
3.70614e-05
3.70605e-05
3.70496e-05
3.70295e-05
3.70029e-05
3.69719e-05
3.69349e-05
3.68862e-05
3.68203e-05
3.67425e-05
3.66667e-05
3.66125e-05
3.65826e-05
3.65482e-05
3.64855e-05
3.63469e-05
3.61131e-05
3.58415e-05
3.55795e-05
3.54221e-05
3.54792e-05
3.57283e-05
3.607e-05
3.64299e-05
3.66558e-05
3.53202e-05
3.0816e-05
2.28504e-05
2.03005e-05
1.98819e-05
8.34058e-06
1.95262e-05
2.54551e-05
2.7222e-05
2.91793e-05
3.0973e-05
3.25268e-05
3.38607e-05
3.50222e-05
3.60551e-05
3.69905e-05
3.78483e-05
3.86407e-05
3.93759e-05
4.00596e-05
4.06926e-05
4.12764e-05
4.18128e-05
4.23057e-05
4.27584e-05
4.31773e-05
4.35672e-05
4.39332e-05
4.42802e-05
4.46125e-05
4.49323e-05
4.52402e-05
4.55349e-05
4.58153e-05
4.60803e-05
4.6329e-05
4.65591e-05
4.6769e-05
4.69593e-05
4.71308e-05
4.72842e-05
4.74202e-05
4.75393e-05
4.76416e-05
4.77273e-05
4.77971e-05
4.78524e-05
4.78947e-05
4.7925e-05
4.79432e-05
4.79487e-05
4.79422e-05
4.79265e-05
4.79045e-05
4.78753e-05
4.78323e-05
4.7768e-05
4.7685e-05
4.75974e-05
4.75299e-05
4.74935e-05
4.74637e-05
4.74109e-05
4.72791e-05
4.70266e-05
4.67005e-05
4.63506e-05
4.60867e-05
4.60613e-05
4.62985e-05
4.67194e-05
4.72553e-05
4.77823e-05
4.67725e-05
4.17004e-05
3.15275e-05
2.68057e-05
2.76876e-05
1.65261e-05
3.56805e-05
3.09062e-05
3.30757e-05
3.55233e-05
3.78123e-05
3.98097e-05
4.15243e-05
4.30126e-05
4.43311e-05
4.55219e-05
4.66118e-05
4.76175e-05
4.85501e-05
4.94173e-05
5.02205e-05
5.09618e-05
5.16437e-05
5.22713e-05
5.28489e-05
5.33838e-05
5.3882e-05
5.43499e-05
5.47936e-05
5.52182e-05
5.56272e-05
5.60215e-05
5.63998e-05
5.67605e-05
5.71025e-05
5.74246e-05
5.77236e-05
5.79977e-05
5.82475e-05
5.84742e-05
5.86789e-05
5.88625e-05
5.90254e-05
5.9168e-05
5.92905e-05
5.93936e-05
5.94791e-05
5.95489e-05
5.96043e-05
5.96453e-05
5.96712e-05
5.96822e-05
5.9681e-05
5.96712e-05
5.96527e-05
5.96191e-05
5.95606e-05
5.94764e-05
5.93796e-05
5.9298e-05
5.92517e-05
5.9224e-05
5.91832e-05
5.90682e-05
5.88154e-05
5.84545e-05
5.80308e-05
5.76595e-05
5.7529e-05
5.77151e-05
5.81742e-05
5.88545e-05
5.96644e-05
5.90516e-05
5.38206e-05
4.21362e-05
3.44877e-05
3.57609e-05
2.78382e-05
5.95596e-05
3.64478e-05
3.89427e-05
4.18818e-05
4.47078e-05
4.72016e-05
4.93457e-05
5.12017e-05
5.28403e-05
5.43155e-05
5.56629e-05
5.69046e-05
5.80549e-05
5.91241e-05
6.01148e-05
6.10292e-05
6.18714e-05
6.26477e-05
6.33631e-05
6.40263e-05
6.46443e-05
6.52243e-05
6.57739e-05
6.62994e-05
6.68054e-05
6.72934e-05
6.77623e-05
6.82101e-05
6.86353e-05
6.90368e-05
6.94102e-05
6.97534e-05
7.00671e-05
7.0353e-05
7.06126e-05
7.08469e-05
7.10567e-05
7.12423e-05
7.14041e-05
7.15431e-05
7.16611e-05
7.17608e-05
7.18436e-05
7.19099e-05
7.19588e-05
7.199e-05
7.20059e-05
7.20105e-05
7.20048e-05
7.1983e-05
7.19333e-05
7.18515e-05
7.17484e-05
7.16529e-05
7.15939e-05
7.15639e-05
7.15333e-05
7.14392e-05
7.11994e-05
7.08235e-05
7.03463e-05
6.98797e-05
6.96368e-05
6.97421e-05
7.01954e-05
7.09712e-05
7.20085e-05
7.17759e-05
6.66933e-05
5.43264e-05
4.34176e-05
4.39236e-05
4.07311e-05
8.88667e-05
4.19991e-05
4.46975e-05
4.80977e-05
5.14904e-05
5.45321e-05
5.71573e-05
5.9426e-05
6.14221e-05
6.32135e-05
6.4846e-05
6.63479e-05
6.7738e-05
6.90292e-05
7.02256e-05
7.133e-05
7.2348e-05
7.32874e-05
7.41548e-05
7.49595e-05
7.57091e-05
7.64121e-05
7.70772e-05
7.77124e-05
7.83231e-05
7.89121e-05
7.94784e-05
8.00195e-05
8.05338e-05
8.10199e-05
8.14723e-05
8.18885e-05
8.22695e-05
8.26174e-05
8.29342e-05
8.32212e-05
8.34794e-05
8.37093e-05
8.39114e-05
8.40869e-05
8.42383e-05
8.43686e-05
8.44798e-05
8.45725e-05
8.46457e-05
8.46985e-05
8.4733e-05
8.47532e-05
8.47615e-05
8.47524e-05
8.47133e-05
8.46366e-05
8.45296e-05
8.44214e-05
8.43474e-05
8.43102e-05
8.42847e-05
8.42102e-05
8.39899e-05
8.36135e-05
8.3103e-05
8.25603e-05
8.22111e-05
8.22205e-05
8.2633e-05
8.34549e-05
8.46525e-05
8.47312e-05
7.99566e-05
6.75366e-05
5.34639e-05
5.21494e-05
5.36531e-05
0.000115424
4.75813e-05
5.03113e-05
5.41049e-05
5.80782e-05
6.1718e-05
6.48806e-05
6.76127e-05
7.00096e-05
7.2154e-05
7.41034e-05
7.58939e-05
7.75491e-05
7.90853e-05
8.05087e-05
8.18222e-05
8.30334e-05
8.41525e-05
8.51881e-05
8.61495e-05
8.70445e-05
8.78827e-05
8.8674e-05
8.94284e-05
9.01525e-05
9.08503e-05
9.15211e-05
9.21621e-05
9.27712e-05
9.33471e-05
9.38827e-05
9.43752e-05
9.48259e-05
9.52375e-05
9.56126e-05
9.59527e-05
9.62592e-05
9.65329e-05
9.67745e-05
9.69857e-05
9.71695e-05
9.73294e-05
9.74682e-05
9.75866e-05
9.76837e-05
9.77582e-05
9.78114e-05
9.78475e-05
9.78695e-05
9.78731e-05
9.78449e-05
9.77743e-05
9.76652e-05
9.75455e-05
9.74553e-05
9.74062e-05
9.73792e-05
9.73183e-05
9.71167e-05
9.67465e-05
9.62171e-05
9.56175e-05
9.51768e-05
9.50896e-05
9.54423e-05
9.62745e-05
9.75748e-05
9.78765e-05
9.34243e-05
8.11903e-05
6.46416e-05
6.05464e-05
6.55612e-05
0.000136738
5.3353e-05
5.5891e-05
5.99657e-05
6.45125e-05
6.87978e-05
7.25595e-05
7.58133e-05
7.86618e-05
8.12029e-05
8.35075e-05
8.56207e-05
8.75717e-05
8.93807e-05
9.10569e-05
9.26024e-05
9.40277e-05
9.5346e-05
9.65691e-05
9.77055e-05
9.87621e-05
9.97499e-05
0.00010068
0.000101565
0.000102413
0.000103228
0.000104011
0.000104759
0.000105469
0.00010614
0.000106762
0.000107334
0.000107856
0.000108331
0.000108764
0.000109156
0.000109508
0.000109823
0.0001101
0.000110344
0.000110557
0.000110743
0.000110906
0.000111047
0.000111165
0.000111259
0.000111329
0.00011138
0.000111414
0.000111429
0.00011141
0.000111344
0.000111233
0.000111102
0.000110995
0.00011093
0.000110894
0.000110837
0.000110647
0.000110281
0.000109738
0.000109095
0.000108579
0.000108406
0.000108699
0.000109528
0.000110898
0.000111336
0.000107097
9.5121e-05
7.69152e-05
6.94261e-05
7.62819e-05
0.000152215
5.96519e-05
6.17297e-05
6.5925e-05
7.10114e-05
7.59835e-05
8.04103e-05
8.42524e-05
8.76125e-05
9.06032e-05
9.33098e-05
9.57877e-05
9.80723e-05
0.000100189
0.000102149
0.000103955
0.00010562
0.000107161
0.000108595
0.000109929
0.000111167
0.000112322
0.000113407
0.000114436
0.000115419
0.000116362
0.000117267
0.000118129
0.000118945
0.000119715
0.000120427
0.000121078
0.00012167
0.000122208
0.000122694
0.000123133
0.000123526
0.000123874
0.000124181
0.000124449
0.000124683
0.000124888
0.000125068
0.000125225
0.000125358
0.000125466
0.000125548
0.000125608
0.00012565
0.000125671
0.000125656
0.000125592
0.000125475
0.000125331
0.000125204
0.000125119
0.000125065
0.000125003
0.00012481
0.000124437
0.000123875
0.000123194
0.000122618
0.000122376
0.000122626
0.00012347
0.000124914
0.000125417
0.00012116
0.000109331
9.02365e-05
7.9077e-05
8.58764e-05
0.000162072
6.70604e-05
6.8394e-05
7.25039e-05
7.80652e-05
8.37557e-05
8.89172e-05
9.34234e-05
9.73665e-05
0.000100872
0.000104038
0.000106934
0.000109601
0.000112068
0.000114354
0.000116456
0.000118392
0.000120186
0.00012186
0.00012342
0.000124864
0.000126207
0.000127465
0.000128654
0.000129786
0.000130869
0.000131904
0.000132887
0.000133815
0.000134686
0.000135487
0.000136213
0.00013687
0.000137461
0.000137992
0.000138465
0.000138884
0.000139251
0.000139571
0.000139848
0.000140088
0.000140297
0.00014048
0.000140638
0.000140773
0.000140881
0.000140964
0.000141024
0.000141065
0.000141082
0.000141062
0.000140988
0.000140857
0.000140693
0.000140543
0.000140431
0.000140349
0.000140267
0.000140054
0.000139654
0.000139059
0.000138338
0.00013771
0.000137423
0.000137671
0.000138585
0.00014017
0.000140697
0.00013601
0.000123973
0.000104665
8.96964e-05
9.47258e-05
0.00016687
7.65757e-05
7.69494e-05
8.07424e-05
8.66808e-05
9.3109e-05
9.90794e-05
0.00010434
0.000108957
0.000113064
0.000116771
0.00012016
0.000123278
0.000126161
0.00012883
0.000131278
0.000133532
0.000135621
0.000137576
0.000139399
0.000141082
0.000142641
0.000144096
0.000145464
0.000146759
0.000147992
0.000149164
0.00015027
0.000151305
0.000152269
0.000153145
0.00015393
0.000154628
0.000155246
0.000155792
0.000156268
0.000156679
0.000157028
0.000157324
0.000157574
0.000157783
0.000157961
0.000158113
0.00015824
0.000158346
0.000158428
0.000158486
0.000158523
0.00015854
0.000158533
0.000158488
0.000158385
0.000158223
0.000158025
0.000157837
0.000157688
0.000157565
0.000157448
0.000157198
0.000156752
0.000156109
0.000155342
0.000154674
0.000154377
0.0001547
0.000155824
0.000157773
0.000158424
0.000152763
0.000140157
0.000120704
0.000101693
0.000103372
0.000169522
9.04362e-05
9.01162e-05
9.34399e-05
9.95917e-05
0.000106739
0.000113611
0.000119775
0.00012524
0.000130128
0.000134554
0.000138605
0.000142337
0.000145785
0.000148971
0.000151879
0.000154558
0.000157036
0.000159359
0.00016152
0.000163501
0.000165323
0.000167009
0.000168577
0.00017004
0.000171412
0.000172694
0.000173878
0.00017496
0.00017594
0.000176802
0.000177543
0.000178169
0.000178692
0.000179122
0.000179466
0.000179729
0.00017992
0.000180054
0.000180143
0.000180194
0.00018022
0.000180225
0.000180214
0.000180195
0.000180164
0.000180118
0.000180058
0.000179986
0.000179898
0.000179775
0.000179598
0.000179362
0.000179092
0.000178837
0.00017863
0.000178454
0.000178314
0.000178044
0.000177576
0.000176909
0.000176116
0.000175438
0.000175212
0.000175824
0.000177645
0.000180953
0.000183227
0.000178182
0.000162892
0.000140356
0.000116248
0.00011254
0.000171333
0.000114288
0.000113408
0.00011625
0.00012273
0.000130786
0.000138741
0.000145962
0.000152399
0.000158176
0.000163415
0.000168214
0.000172635
0.000176721
0.000180491
0.000183921
0.000187084
0.00019001
0.000192762
0.000195321
0.000197655
0.000199795
0.000201766
0.000203589
0.000205278
0.000206849
0.000208303
0.000209629
0.000210822
0.000211882
0.000212792
0.00021355
0.000214161
0.000214643
0.000215009
0.000215264
0.000215414
0.000215468
0.000215449
0.000215363
0.000215216
0.000215017
0.000214766
0.000214474
0.000214155
0.000213809
0.000213437
0.000213047
0.000212657
0.000212274
0.00021189
0.000211475
0.000211015
0.000210527
0.000210095
0.000209789
0.000209635
0.000209659
0.000209623
0.000209385
0.000208899
0.000208189
0.000207589
0.000207572
0.000208712
0.000211323
0.000215613
0.000218753
0.000213251
0.000194738
0.000165317
0.00013487
0.000123609
0.000172931
0.000147296
0.000145994
0.000148335
0.000155189
0.000164264
0.000173404
0.000181765
0.000189249
0.000195991
0.000202115
0.000207735
0.000212921
0.000217716
0.000222158
0.000226249
0.00023003
0.000233528
0.00023679
0.000239814
0.000242566
0.000245085
0.000247404
0.000249544
0.000251518
0.000253348
0.000255035
0.00025656
0.000257919
0.000259114
0.000260122
0.000260943
0.000261591
0.00026208
0.00026242
0.000262621
0.000262691
0.000262641
0.000262504
0.000262279
0.000261969
0.000261586
0.000261133
0.000260623
0.000260076
0.000259488
0.000258863
0.000258216
0.000257571
0.000256949
0.000256342
0.000255718
0.000255054
0.000254369
0.000253772
0.000253357
0.000253175
0.000253215
0.000253251
0.000253112
0.000252702
0.000252011
0.000251447
0.000251575
0.000253011
0.000256093
0.000260962
0.000264352
0.00025797
0.000236053
0.000199161
0.000159641
0.000138086
0.000175526
0.000191379
0.000188289
0.000186685
0.000188477
0.000195755
0.000206038
0.000216549
0.000226211
0.000234885
0.000242716
0.000249846
0.000256405
0.000262476
0.000268099
0.000273322
0.000278165
0.000282653
0.000286813
0.000290684
0.000294279
0.00029758
0.000300609
0.000303398
0.000305971
0.000308343
0.00031052
0.000312505
0.000314289
0.000315871
0.000317254
0.000318427
0.00031939
0.000320151
0.00032072
0.00032111
0.00032133
0.000321391
0.000321304
0.00032109
0.000320758
0.000320316
0.000319779
0.000319149
0.000318448
0.000317707
0.000316905
0.000316057
0.00031518
0.000314307
0.000313465
0.000312648
0.000311821
0.000310957
0.000310078
0.000309312
0.000308774
0.000308513
0.000308524
0.000308574
0.000308439
0.000308037
0.000307312
0.000306736
0.000306933
0.000308554
0.000311914
0.000316993
0.000320208
0.000312699
0.00028734
0.000243121
0.000191649
0.000157485
0.00018065
0.000239936
0.000236735
0.000234571
0.000235547
0.000243272
0.00025503
0.000267209
0.000278434
0.000288533
0.000297675
0.000306023
0.000313722
0.000320871
0.000327508
0.000333685
0.000339438
0.000344783
0.000349746
0.000354367
0.000358665
0.000362633
0.000366285
0.00036965
0.000372759
0.000375627
0.000378258
0.000380648
0.000382794
0.000384697
0.000386361
0.000387781
0.000388956
0.000389892
0.000390601
0.000391093
0.00039138
0.000391475
0.00039139
0.000391144
0.000390748
0.000390216
0.000389563
0.000388802
0.000387951
0.00038703
0.000386041
0.000384993
0.000383909
0.000382826
0.000381777
0.000380756
0.000379726
0.000378658
0.000377578
0.000376633
0.000375951
0.000375621
0.000375563
0.00037554
0.000375329
0.00037485
0.000374032
0.000373393
0.00037358
0.000375265
0.000378711
0.000383741
0.000386466
0.000377675
0.000348955
0.000297963
0.000233979
0.000184304
0.000189651
0.000296705
0.000292889
0.000289887
0.000289732
0.000298022
0.000311664
0.000325888
0.000339023
0.000350872
0.000361624
0.000371469
0.000380564
0.000389037
0.000396922
0.000404272
0.000411138
0.000417533
0.000423479
0.000429022
0.00043419
0.000438978
0.000443393
0.000447468
0.000451239
0.000454724
0.000457924
0.000460833
0.000463448
0.000465769
0.000467806
0.000469553
0.000471008
0.00047218
0.000473079
0.000473718
0.00047411
0.00047427
0.000474214
0.000473957
0.000473515
0.000472906
0.000472149
0.000471259
0.000470257
0.000469161
0.000467979
0.000466724
0.000465422
0.000464116
0.000462841
0.000461596
0.000460339
0.000459045
0.000457742
0.000456592
0.000455736
0.000455274
0.000455095
0.000454962
0.000454675
0.000454079
0.00045314
0.000452411
0.000452543
0.000454202
0.000457573
0.000462325
0.000464347
0.000454252
0.000422444
0.000365444
0.000288014
0.000220545
0.000205095
0.000363096
0.000358182
0.00035401
0.000352256
0.000360986
0.000376379
0.000392451
0.000407418
0.000421039
0.00043347
0.000444911
0.000455511
0.000465438
0.000474725
0.000483411
0.00049157
0.000499216
0.000506362
0.000513059
0.000519344
0.000525207
0.000530644
0.000535686
0.000540377
0.000544735
0.000548763
0.00055245
0.000555792
0.000558791
0.000561455
0.000563782
0.000565768
0.000567418
0.000568738
0.00056974
0.000570436
0.000570843
0.000570977
0.000570854
0.000570493
0.000569914
0.000569138
0.000568187
0.000567084
0.00056585
0.000564499
0.000563048
0.000561529
0.00055999
0.000558475
0.000556983
0.000555475
0.000553927
0.000552372
0.000550986
0.000549917
0.000549269
0.000548932
0.000548641
0.000548227
0.00054748
0.000546401
0.000545561
0.000545579
0.000547048
0.000550062
0.000554152
0.000555204
0.000543585
0.00050841
0.000444993
0.000354546
0.000266492
0.000228201
0.000441327
0.000434787
0.000429031
0.000424899
0.000431452
0.000446733
0.000463577
0.000479736
0.000494755
0.000508632
0.000521537
0.000533566
0.000544924
0.000555618
0.000565658
0.000575145
0.000584098
0.000592512
0.000600444
0.000607945
0.000614999
0.000621581
0.000627718
0.000633461
0.000638836
0.000643842
0.000648464
0.000652696
0.000656544
0.000660016
0.000663115
0.000665835
0.000668177
0.000670144
0.000671743
0.00067299
0.0006739
0.00067449
0.000674777
0.000674779
0.000674517
0.000674011
0.000673284
0.000672359
0.000671259
0.000669998
0.000668596
0.000667087
0.000665523
0.000663951
0.000662372
0.000660746
0.000659053
0.000657331
0.000655763
0.000654505
0.000653666
0.000653164
0.00065266
0.000651987
0.000650977
0.000649632
0.00064852
0.000648227
0.000649206
0.000651474
0.000654415
0.000654098
0.000640576
0.000602271
0.00053329
0.000433774
0.00032474
0.000260991
0.0005342
0.000525448
0.000517591
0.000510657
0.000511296
0.000523611
0.000539662
0.000556029
0.000571805
0.000586656
0.000600712
0.000613942
0.000626568
0.000638578
0.000649901
0.00066067
0.000670909
0.000680577
0.000689739
0.000698469
0.000706741
0.000714504
0.000721774
0.000728614
0.000735058
0.000741103
0.000746727
0.000751919
0.000756688
0.000761045
0.000764996
0.000768537
0.00077166
0.000774364
0.000776657
0.000778553
0.000780068
0.000781221
0.000782028
0.000782507
0.000782677
0.000782559
0.000782173
0.000781542
0.00078069
0.000779631
0.000778386
0.000776989
0.000775498
0.000773957
0.000772372
0.000770707
0.00076894
0.000767114
0.000765414
0.000763997
0.000762974
0.000762272
0.000761572
0.000760661
0.000759407
0.000757812
0.000756417
0.000755822
0.00075616
0.000757508
0.00075914
0.000757954
0.000742251
0.000701308
0.000628068
0.000521448
0.000394251
0.000303959
0.000645142
0.000633498
0.000622881
0.000613023
0.000606723
0.000610811
0.000623233
0.000638182
0.000653673
0.000668697
0.000683342
0.000697333
0.000710875
0.000723969
0.000736384
0.000748277
0.0007597
0.000770542
0.000780867
0.000790788
0.000800262
0.000809192
0.000817584
0.000825511
0.000833032
0.000840137
0.000846789
0.00085297
0.00085869
0.000863971
0.000868817
0.000873223
0.000877177
0.00088067
0.000883709
0.000886307
0.000888483
0.000890258
0.000891647
0.000892667
0.000893335
0.00089367
0.000893691
0.00089342
0.000892879
0.000892085
0.000891056
0.000889832
0.000888467
0.000887011
0.00088547
0.00088381
0.000882017
0.000880133
0.000878339
0.000876788
0.000875595
0.000874696
0.000873791
0.000872668
0.000871201
0.000869388
0.000867725
0.000866755
0.000866448
0.000866824
0.000867092
0.000864242
0.000846727
0.000803797
0.000727521
0.000615533
0.000475448
0.000357265
0.00077799
0.000762983
0.000748812
0.000735497
0.000723925
0.000717503
0.000719757
0.000729928
0.000743212
0.000757023
0.000771317
0.000785315
0.000799145
0.000812903
0.000826025
0.000838703
0.000851076
0.000862907
0.000874221
0.000885203
0.000895799
0.00090583
0.00091527
0.000924232
0.0009328
0.000940952
0.000948623
0.000955784
0.000962455
0.000968665
0.000974424
0.000979719
0.000984529
0.00098884
0.000992653
0.000995986
0.00099886
0.0010013
0.00100331
0.00100492
0.00100614
0.00100698
0.00100746
0.0010076
0.00100741