/*--------------------------------*- C++ -*----------------------------------*\
| =========                 |                                                 |
| \\      /  F ield         | OpenFOAM: The Open Source CFD Toolbox           |
|  \\    /   O peration     | Version:  2412                                  |
|   \\  /    A nd           | Website:  www.openfoam.com                      |
|    \\/     M anipulation  |                                                 |
\*---------------------------------------------------------------------------*/
FoamFile
{
    version     2.0;
    format      ascii;
    arch        "LSB;label=32;scalar=64";
    class       volScalarField;
    location    "80";
    object      nuTilda;
}
// * * * * * * * * * * * * * * * * * * * * * * * * * * * * * * * * * * * * * //

dimensions      [0 2 -1 0 0 0 0];

internalField   nonuniform List<scalar> 
7400
(
2.1393e-06
2.1431e-06
2.14687e-06
2.15056e-06
2.15421e-06
2.15781e-06
2.16133e-06
2.16481e-06
2.16822e-06
2.17154e-06
2.17472e-06
2.17778e-06
2.18072e-06
2.18348e-06
2.18608e-06
2.18851e-06
2.19071e-06
2.19272e-06
2.19449e-06
2.19607e-06
2.19742e-06
2.19856e-06
2.19938e-06
2.19998e-06
2.20039e-06
2.20057e-06
2.20053e-06
2.20052e-06
2.20063e-06
2.20098e-06
2.20183e-06
2.20421e-06
2.2102e-06
2.22227e-06
2.24158e-06
2.26598e-06
2.28802e-06
2.55448e-06
2.56235e-06
2.56007e-06
2.56645e-06
2.55087e-06
2.46467e-06
2.11477e-06
1.36997e-06
2.28836e-07
1.38771e-06
2.13257e-06
2.47665e-06
2.56014e-06
2.57498e-06
2.56736e-06
2.56619e-06
2.34866e-06
2.26802e-06
2.22835e-06
2.19542e-06
2.17412e-06
2.16448e-06
2.1622e-06
2.16307e-06
2.16491e-06
2.167e-06
2.1692e-06
2.17142e-06
2.17341e-06
2.17517e-06
2.1765e-06
2.17754e-06
2.17819e-06
2.17848e-06
2.1784e-06
6.39648e-06
6.40409e-06
6.4116e-06
6.41885e-06
6.42602e-06
6.433e-06
6.43975e-06
6.44642e-06
6.45291e-06
6.45918e-06
6.4651e-06
6.4708e-06
6.47618e-06
6.48117e-06
6.4858e-06
6.49006e-06
6.49378e-06
6.4971e-06
6.49993e-06
6.50232e-06
6.5042e-06
6.50563e-06
6.50631e-06
6.50653e-06
6.50635e-06
6.50555e-06
6.50419e-06
6.50286e-06
6.50172e-06
6.501e-06
6.50107e-06
6.50416e-06
6.51545e-06
6.5427e-06
6.59284e-06
6.66612e-06
6.73919e-06
7.95526e-06
7.98771e-06
7.96448e-06
7.95368e-06
7.85995e-06
7.52277e-06
6.35291e-06
4.10718e-06
7.1576e-07
4.15657e-06
6.4053e-06
7.55908e-06
7.88869e-06
7.98039e-06
7.98789e-06
7.99933e-06
7.02021e-06
6.68027e-06
6.55892e-06
6.47359e-06
6.42583e-06
6.40884e-06
6.4088e-06
6.41486e-06
6.42221e-06
6.42965e-06
6.43702e-06
6.44412e-06
6.45037e-06
6.45597e-06
6.46033e-06
6.46399e-06
6.46669e-06
6.46854e-06
6.4695e-06
1.09499e-05
1.09604e-05
1.09707e-05
1.09808e-05
1.09907e-05
1.10004e-05
1.10098e-05
1.10191e-05
1.10282e-05
1.1037e-05
1.10454e-05
1.10535e-05
1.10611e-05
1.10681e-05
1.10747e-05
1.10807e-05
1.10859e-05
1.10905e-05
1.10944e-05
1.10976e-05
1.10999e-05
1.11017e-05
1.11022e-05
1.11021e-05
1.11012e-05
1.10995e-05
1.10972e-05
1.10947e-05
1.10927e-05
1.10918e-05
1.10925e-05
1.1099e-05
1.11205e-05
1.117e-05
1.12587e-05
1.13891e-05
1.15291e-05
1.39969e-05
1.40323e-05
1.3941e-05
1.38294e-05
1.35282e-05
1.27436e-05
1.05271e-05
6.81333e-06
1.26509e-06
6.88735e-06
1.0611e-05
1.2804e-05
1.35781e-05
1.38766e-05
1.39839e-05
1.40558e-05
1.21386e-05
1.14226e-05
1.12051e-05
1.10571e-05
1.09723e-05
1.09409e-05
1.09395e-05
1.09492e-05
1.09616e-05
1.09743e-05
1.09871e-05
1.09995e-05
1.10104e-05
1.10204e-05
1.10284e-05
1.10352e-05
1.10406e-05
1.10445e-05
1.10471e-05
1.60725e-05
1.60917e-05
1.61108e-05
1.61298e-05
1.61489e-05
1.61679e-05
1.61867e-05
1.62056e-05
1.62244e-05
1.62429e-05
1.62609e-05
1.62785e-05
1.62954e-05
1.63116e-05
1.6327e-05
1.63414e-05
1.63548e-05
1.6367e-05
1.6378e-05
1.63876e-05
1.6396e-05
1.64029e-05
1.64082e-05
1.64123e-05
1.64152e-05
1.6417e-05
1.64182e-05
1.64199e-05
1.64232e-05
1.64293e-05
1.64413e-05
1.64681e-05
1.65246e-05
1.66251e-05
1.67693e-05
1.69511e-05
1.7156e-05
2.0745e-05
2.07207e-05
2.04805e-05
2.01307e-05
1.94282e-05
1.79542e-05
1.44793e-05
9.3973e-06
1.88458e-06
9.48718e-06
1.45898e-05
1.80367e-05
1.95e-05
2.02006e-05
2.05467e-05
2.07636e-05
1.8134e-05
1.69991e-05
1.66969e-05
1.64621e-05
1.62915e-05
1.62008e-05
1.6169e-05
1.61659e-05
1.61735e-05
1.61849e-05
1.61983e-05
1.62127e-05
1.62261e-05
1.62386e-05
1.62489e-05
1.62572e-05
1.62633e-05
1.62673e-05
1.62688e-05
2.22521e-05
2.22912e-05
2.23305e-05
2.23699e-05
2.24094e-05
2.24489e-05
2.24883e-05
2.25277e-05
2.25668e-05
2.26054e-05
2.26431e-05
2.26798e-05
2.27152e-05
2.27493e-05
2.27817e-05
2.28123e-05
2.28408e-05
2.28673e-05
2.28914e-05
2.29133e-05
2.29326e-05
2.29493e-05
2.29634e-05
2.29755e-05
2.29857e-05
2.29943e-05
2.30025e-05
2.30122e-05
2.3025e-05
2.30434e-05
2.30742e-05
2.31326e-05
2.32408e-05
2.34131e-05
2.36336e-05
2.38816e-05
2.4165e-05
2.82455e-05
2.80502e-05
2.75333e-05
2.67464e-05
2.54001e-05
2.29937e-05
1.80902e-05
1.17938e-05
2.58435e-06
1.18898e-05
1.82203e-05
2.30944e-05
2.54932e-05
2.68405e-05
2.76269e-05
2.81233e-05
2.54756e-05
2.39474e-05
2.35399e-05
2.31881e-05
2.28993e-05
2.27206e-05
2.2637e-05
2.26072e-05
2.26009e-05
2.26043e-05
2.26132e-05
2.26255e-05
2.26387e-05
2.26513e-05
2.26616e-05
2.26691e-05
2.26733e-05
2.26743e-05
2.26714e-05
2.9913e-05
2.99784e-05
3.00439e-05
3.01094e-05
3.01749e-05
3.02401e-05
3.03049e-05
3.03695e-05
3.04334e-05
3.04961e-05
3.05573e-05
3.06165e-05
3.06735e-05
3.07281e-05
3.07801e-05
3.08288e-05
3.08742e-05
3.09162e-05
3.09545e-05
3.0989e-05
3.10195e-05
3.10459e-05
3.10683e-05
3.10877e-05
3.11043e-05
3.11188e-05
3.1133e-05
3.11499e-05
3.11722e-05
3.1204e-05
3.12566e-05
3.13544e-05
3.15315e-05
3.18085e-05
3.21558e-05
3.25321e-05
3.29373e-05
3.64868e-05
3.59637e-05
3.49838e-05
3.35095e-05
3.1262e-05
2.77064e-05
2.12407e-05
1.39439e-05
3.37914e-06
1.40354e-05
2.13827e-05
2.78195e-05
3.1374e-05
3.36278e-05
3.5108e-05
3.60781e-05
3.42789e-05
3.2636e-05
3.2033e-05
3.14865e-05
3.10333e-05
3.07457e-05
3.06028e-05
3.05453e-05
3.05265e-05
3.05245e-05
3.0532e-05
3.0546e-05
3.05623e-05
3.05784e-05
3.05918e-05
3.06012e-05
3.0606e-05
3.06056e-05
3.05996e-05
3.94216e-05
3.95209e-05
3.96203e-05
3.97194e-05
3.98181e-05
3.99163e-05
4.00138e-05
4.01106e-05
4.0206e-05
4.02994e-05
4.03903e-05
4.04781e-05
4.05624e-05
4.0643e-05
4.07192e-05
4.07907e-05
4.0857e-05
4.09181e-05
4.09735e-05
4.10231e-05
4.10668e-05
4.11042e-05
4.11359e-05
4.11629e-05
4.1186e-05
4.12062e-05
4.12261e-05
4.12507e-05
4.12839e-05
4.13323e-05
4.14136e-05
4.15658e-05
4.1841e-05
4.22669e-05
4.27649e-05
4.3156e-05
4.33262e-05
4.53591e-05
4.43154e-05
4.26401e-05
4.02131e-05
3.68215e-05
3.19333e-05
2.38032e-05
1.57928e-05
4.29365e-06
1.58688e-05
2.39478e-05
3.20515e-05
3.69486e-05
4.03541e-05
4.27968e-05
4.4481e-05
4.39937e-05
4.31628e-05
4.26085e-05
4.18071e-05
4.11097e-05
4.06709e-05
4.04523e-05
4.03633e-05
4.03336e-05
4.03297e-05
4.03406e-05
4.0361e-05
4.03857e-05
4.04099e-05
4.04304e-05
4.04449e-05
4.04526e-05
4.04526e-05
4.0444e-05
5.06703e-05
5.08089e-05
5.09476e-05
5.10859e-05
5.12238e-05
5.1361e-05
5.14972e-05
5.16322e-05
5.17652e-05
5.18956e-05
5.20226e-05
5.21459e-05
5.2265e-05
5.23793e-05
5.24884e-05
5.25917e-05
5.26891e-05
5.27801e-05
5.28645e-05
5.29419e-05
5.30123e-05
5.30754e-05
5.31319e-05
5.31827e-05
5.32288e-05
5.32713e-05
5.33138e-05
5.33613e-05
5.34178e-05
5.34905e-05
5.35991e-05
5.37797e-05
5.40647e-05
5.44224e-05
5.46875e-05
5.46397e-05
5.41966e-05
5.46326e-05
5.28659e-05
5.02588e-05
4.66322e-05
4.18764e-05
3.55108e-05
2.56425e-05
1.72951e-05
5.3718e-06
1.73452e-05
2.57796e-05
3.56252e-05
4.20132e-05
4.67927e-05
5.04476e-05
5.30889e-05
5.39915e-05
5.43475e-05
5.44904e-05
5.40364e-05
5.33643e-05
5.28321e-05
5.253e-05
5.23868e-05
5.23194e-05
5.22849e-05
5.22689e-05
5.22649e-05
5.22673e-05
5.22699e-05
5.22698e-05
5.22631e-05
5.22491e-05
5.22265e-05
5.21946e-05
6.28394e-05
6.3014e-05
6.31887e-05
6.33631e-05
6.35372e-05
6.37107e-05
6.38831e-05
6.4054e-05
6.42225e-05
6.4388e-05
6.45501e-05
6.47082e-05
6.4862e-05
6.5011e-05
6.51547e-05
6.52926e-05
6.54246e-05
6.55504e-05
6.56697e-05
6.5782e-05
6.58874e-05
6.59855e-05
6.60772e-05
6.61629e-05
6.62433e-05
6.63193e-05
6.63941e-05
6.64716e-05
6.65529e-05
6.6642e-05
6.67531e-05
6.69022e-05
6.70739e-05
6.71628e-05
6.6949e-05
6.62363e-05
6.50117e-05
6.40186e-05
6.13412e-05
5.75853e-05
5.2533e-05
4.62146e-05
3.82797e-05
2.66241e-05
1.84246e-05
6.65798e-06
1.84395e-05
2.6743e-05
3.83803e-05
4.63547e-05
5.27085e-05
5.78036e-05
6.16238e-05
6.39117e-05
6.55314e-05
6.66688e-05
6.69591e-05
6.66659e-05
6.62367e-05
6.59173e-05
6.57225e-05
6.55957e-05
6.54992e-05
6.54207e-05
6.53554e-05
6.53002e-05
6.52479e-05
6.51969e-05
6.51417e-05
6.5082e-05
6.50155e-05
6.49419e-05
7.56046e-05
7.5814e-05
7.60237e-05
7.62335e-05
7.64432e-05
7.66525e-05
7.68607e-05
7.70673e-05
7.72714e-05
7.74723e-05
7.76701e-05
7.78643e-05
7.80546e-05
7.82405e-05
7.84216e-05
7.85975e-05
7.87684e-05
7.89339e-05
7.90935e-05
7.92469e-05
7.9394e-05
7.95343e-05
7.96688e-05
7.9797e-05
7.99186e-05
8.00337e-05
8.01444e-05
8.02511e-05
8.03502e-05
8.04389e-05
8.05177e-05
8.05687e-05
8.0512e-05
8.01653e-05
7.92821e-05
7.77309e-05
7.55859e-05
7.32621e-05
6.94895e-05
6.43729e-05
5.76767e-05
4.96174e-05
4.00981e-05
2.68588e-05
1.91855e-05
8.17028e-06
1.91586e-05
2.69268e-05
4.01748e-05
4.97537e-05
5.78619e-05
6.46171e-05
6.98319e-05
7.35457e-05
7.65044e-05
7.88534e-05
8.01718e-05
8.0531e-05
8.0387e-05
8.01377e-05
7.99215e-05
7.9738e-05
7.9569e-05
7.94108e-05
7.92634e-05
7.91282e-05
7.89991e-05
7.88762e-05
7.87532e-05
7.86301e-05
7.85038e-05
7.8374e-05
8.89459e-05
8.91924e-05
8.94396e-05
8.96872e-05
8.99351e-05
9.01829e-05
9.04299e-05
9.06752e-05
9.09177e-05
9.11575e-05
9.13945e-05
9.16288e-05
9.186e-05
9.20877e-05
9.23113e-05
9.25309e-05
9.2747e-05
9.29589e-05
9.3166e-05
9.33679e-05
9.35644e-05
9.37548e-05
9.39397e-05
9.41169e-05
9.4285e-05
9.44423e-05
9.4588e-05
9.47176e-05
9.48195e-05
9.48794e-05
9.48765e-05
9.47455e-05
9.43285e-05
9.33695e-05
9.1622e-05
8.90505e-05
8.58254e-05
8.21558e-05
7.70847e-05
7.03805e-05
6.18191e-05
5.18637e-05
4.08421e-05
2.67022e-05
1.96238e-05
9.91939e-06
1.95524e-05
2.66947e-05
4.08877e-05
5.19888e-05
6.2008e-05
7.06467e-05
7.7486e-05
8.27405e-05
8.71707e-05
9.09552e-05
9.35752e-05
9.48589e-05
9.52034e-05
9.51409e-05
9.49591e-05
9.474e-05
9.45009e-05
9.42546e-05
9.40108e-05
9.37776e-05
9.35523e-05
9.33383e-05
9.31287e-05
9.29242e-05
9.27215e-05
9.25203e-05
0.000102954
0.000103243
0.000103533
0.000103824
0.000104115
0.000104407
0.000104698
0.000104987
0.000105274
0.000105558
0.000105841
0.000106121
0.0001064
0.000106676
0.00010695
0.000107221
0.00010749
0.000107756
0.000108019
0.000108278
0.000108532
0.000108781
0.000109023
0.000109254
0.000109472
0.00010967
0.000109844
0.000109982
0.00011006
0.000110047
0.000109892
0.000109469
0.000108532
0.000106758
0.00010393
0.000100132
9.56341e-05
9.05059e-05
8.39021e-05
7.53599e-05
6.4709e-05
5.27397e-05
4.04202e-05
2.60781e-05
1.98328e-05
1.1907e-05
1.97188e-05
2.60127e-05
4.04305e-05
5.28461e-05
6.4895e-05
7.56434e-05
8.43604e-05
9.13397e-05
9.74338e-05
0.000102906
0.00010712
0.000109625
0.000110699
0.000110981
0.000110923
0.000110712
0.000110422
0.00011009
0.000109741
0.000109396
0.000109057
0.000108733
0.000108417
0.000108112
0.000107815
0.000107525
0.000117748
0.000118086
0.000118426
0.000118767
0.000119109
0.000119452
0.000119794
0.000120135
0.000120473
0.000120808
0.000121143
0.000121478
0.000121812
0.000122145
0.000122477
0.000122807
0.000123138
0.000123468
0.000123796
0.00012412
0.000124439
0.000124752
0.000125056
0.000125343
0.000125608
0.000125839
0.000126025
0.000126143
0.000126154
0.000126004
0.0001256
0.000124742
0.000123093
0.000120274
0.000116123
0.000110866
0.000104873
9.80985e-05
8.96941e-05
7.90412e-05
6.60902e-05
5.2063e-05
3.88209e-05
2.50327e-05
1.99497e-05
1.41243e-05
1.98e-05
2.4928e-05
3.87933e-05
5.21434e-05
6.62659e-05
7.93362e-05
9.02058e-05
9.91501e-05
0.000107149
0.000114587
0.000120712
0.000124765
0.000126853
0.000127686
0.000127881
0.000127757
0.000127456
0.000127057
0.000126608
0.000126144
0.000125678
0.000125227
0.000124787
0.000124362
0.00012395
0.000123552
0.000133436
0.000133832
0.00013423
0.00013463
0.000135031
0.000135434
0.000135836
0.000136235
0.000136632
0.000137028
0.000137424
0.000137821
0.000138219
0.000138617
0.000139015
0.000139414
0.000139816
0.000140217
0.000140616
0.000141012
0.000141401
0.000141781
0.000142146
0.000142485
0.000142785
0.00014303
0.000143198
0.000143252
0.000143132
0.000142752
0.00014197
0.000140501
0.000137914
0.000133792
0.000128053
0.000121084
0.000113341
0.000104677
9.41724e-05
8.11262e-05
6.57201e-05
4.97378e-05
3.61501e-05
2.3759e-05
2.01513e-05
1.65528e-05
1.99783e-05
2.36361e-05
3.60867e-05
4.97857e-05
6.58774e-05
8.14258e-05
9.47308e-05
0.000105924
0.000116105
0.000125811
0.000134184
0.000140138
0.000143563
0.000145203
0.000145833
0.000145912
0.000145675
0.000145252
0.000144724
0.000144147
0.000143551
0.000142962
0.000142382
0.00014182
0.000141276
0.000140752
0.000150112
0.000150576
0.000151042
0.00015151
0.00015198
0.000152451
0.000152921
0.000153389
0.000153854
0.000154317
0.000154783
0.000155251
0.00015572
0.000156192
0.000156665
0.00015714
0.000157618
0.000158097
0.000158572
0.000159042
0.000159501
0.000159944
0.000160362
0.000160738
0.00016105
0.000161275
0.000161376
0.000161298
0.000160956
0.000160226
0.000158901
0.00015661
0.000152825
0.000147114
0.0001395
0.000130542
0.000120771
0.000109928
9.69991e-05
8.1297e-05
6.34154e-05
4.58473e-05
3.28391e-05
2.26496e-05
2.08596e-05
1.91573e-05
2.07487e-05
2.25505e-05
3.27345e-05
4.58605e-05
6.35457e-05
8.15925e-05
9.7594e-05
0.000111347
0.000124019
0.000136311
0.000147288
0.000155523
0.000160649
0.000163401
0.000164696
0.000165143
0.000165083
0.000164711
0.000164151
0.000163488
0.000162773
0.000162046
0.000161321
0.00016061
0.000159918
0.000159251
0.000167858
0.000168401
0.000168945
0.000169491
0.00017004
0.000170589
0.000171137
0.000171681
0.000172222
0.000172762
0.000173305
0.000173851
0.000174401
0.000174953
0.000175506
0.000176062
0.000176621
0.000177179
0.00017773
0.000178271
0.000178792
0.000179286
0.000179737
0.00018012
0.000180405
0.000180556
0.000180519
0.000180215
0.000179528
0.00017829
0.000176223
0.000172857
0.00016758
0.000159964
0.000150169
0.000138926
0.000126821
0.000113474
9.77894e-05
7.92503e-05
5.91468e-05
4.09542e-05
2.96694e-05
2.27592e-05
2.23809e-05
2.18808e-05
2.23175e-05
2.26931e-05
2.95341e-05
4.09524e-05
5.92446e-05
7.95317e-05
9.84052e-05
0.000115039
0.000130528
0.00014574
0.000159694
0.000170619
0.000177846
0.000182063
0.000184307
0.000185338
0.000185613
0.000185407
0.000184896
0.0001842
0.000183398
0.000182552
0.000181686
0.000180824
0.000179977
0.000179156
0.000186749
0.000187381
0.000188014
0.000188649
0.000189286
0.000189922
0.000190556
0.000191185
0.000191811
0.000192435
0.000193063
0.000193694
0.000194328
0.000194964
0.000195601
0.00019624
0.000196879
0.000197511
0.000198131
0.00019873
0.000199296
0.000199815
0.000200264
0.000200608
0.000200804
0.000200802
0.000200526
0.000199871
0.000198684
0.000196742
0.000193689
0.000188954
0.000181852
0.000171988
0.000159681
0.000145839
0.00013107
0.000114874
9.6133e-05
7.47778e-05
5.31646e-05
3.57712e-05
2.73969e-05
2.39074e-05
2.44624e-05
2.46546e-05
2.44297e-05
2.38695e-05
2.73028e-05
3.57475e-05
5.32282e-05
7.5034e-05
9.67464e-05
0.000116547
0.000135194
0.000153666
0.000170982
0.000185034
0.000194806
0.000200892
0.000204423
0.000206308
0.000207126
0.000207246
0.000206904
0.000206263
0.000205435
0.000204509
0.000203529
0.000202529
0.00020153
0.000200552
0.000206855
0.000207588
0.00020832
0.000209054
0.000209788
0.000210521
0.000211249
0.00021197
0.000212686
0.0002134
0.000214117
0.000214836
0.000215557
0.000216278
0.000216996
0.000217712
0.000218422
0.000219118
0.000219788
0.00022042
0.000220998
0.000221499
0.000221892
0.000222127
0.000222148
0.000221885
0.000221239
0.00022007
0.000218185
0.0002153
0.000210973
0.000204529
0.000195228
0.000182739
0.000167574
0.000150802
0.000133023
0.000113632
9.16515e-05
6.79082e-05
4.60902e-05
3.16378e-05
2.6807e-05
2.57677e-05
2.68528e-05
2.74003e-05
2.68386e-05
2.57459e-05
2.67524e-05
3.16168e-05
4.61248e-05
6.81273e-05
9.22247e-05
0.000115368
0.000137493
0.000159566
0.000180638
0.00019828
0.000211087
0.000219501
0.000224716
0.000227779
0.000229404
0.00023006
0.000230053
0.000229595
0.000228838
0.000227903
0.000226857
0.000225752
0.000224623
0.000223499
0.000228248
0.000229091
0.000229933
0.000230774
0.000231613
0.000232449
0.000233276
0.000234094
0.000234904
0.00023571
0.000236517
0.000237323
0.000238127
0.000238926
0.000239716
0.000240496
0.000241259
0.000241992
0.000242679
0.000243305
0.000243843
0.000244263
0.000244519
0.000244548
0.000244276
0.00024361
0.000242423
0.000240538
0.000237713
0.000233597
0.000227652
0.000219109
0.000207193
0.000191677
0.00017329
0.000153249
0.000132113
0.000109249
8.41204e-05
5.91079e-05
3.88436e-05
2.95259e-05
2.75803e-05
2.80211e-05
2.93411e-05
3.0036e-05
2.93362e-05
2.80058e-05
2.75581e-05
2.95161e-05
3.88702e-05
5.92781e-05
8.45817e-05
0.000110985
0.000136837
0.000162828
0.000188044
0.000209759
0.000226136
0.000237398
0.000244756
0.000249387
0.000252141
0.000253597
0.000254142
0.000254042
0.000253495
0.000252659
0.00025163
0.000250482
0.000249265
0.000248026
0.000250996
0.000251958
0.000252917
0.000253872
0.000254822
0.000255763
0.000256693
0.000257608
0.000258511
0.000259406
0.000260297
0.000261182
0.000262057
0.000262918
0.00026376
0.000264577
0.000265359
0.000266088
0.000266743
0.000267299
0.000267722
0.000267969
0.00026798
0.000267673
0.000266954
0.000265704
0.000263761
0.000260909
0.000256851
0.000251158
0.000243198
0.000232111
0.000217122
0.000198153
0.000176176
0.000152534
0.000127738
0.000101331
7.36677e-05
4.95113e-05
3.40452e-05
2.92366e-05
2.92372e-05
3.0408e-05
3.17644e-05
3.24839e-05
3.17637e-05
3.03964e-05
2.92389e-05
2.92441e-05
3.40727e-05
4.96122e-05
7.38491e-05
0.000102991
0.000132595
0.000162755
0.000192478
0.000218751
0.000239271
0.000253964
0.000263998
0.000270655
0.000274926
0.000277508
0.000278877
0.000279363
0.000279214
0.000278629
0.000277739
0.000276643
0.000275414
0.000274116
0.000275169
0.000276256
0.000277335
0.000278406
0.000279466
0.000280513
0.00028154
0.000282546
0.000283534
0.000284507
0.000285467
0.000286412
0.000287335
0.000288229
0.000289087
0.000289898
0.000290648
0.000291311
0.000291858
0.000292256
0.000292459
0.00029241
0.00029203
0.000291219
0.000289857
0.000287794
0.000284833
0.00028071
0.000275065
0.000267389
0.00025695
0.000242822
0.000224267
0.00020141
0.000175487
0.000147963
0.000119353
8.97825e-05
6.15947e-05
4.10182e-05
3.18151e-05
3.02543e-05
3.13219e-05
3.27349e-05
3.40064e-05
3.46805e-05
3.40072e-05
3.27265e-05
3.13423e-05
3.02811e-05
3.18541e-05
4.11037e-05
6.1765e-05
9.12428e-05
0.00012417
0.000158594
0.000193118
0.00022441
0.00024967
0.000268438
0.000281755
0.000290974
0.000297223
0.000301326
0.000303854
0.000305212
0.000305704
0.000305573
0.000304991
0.000304087
0.000302958
0.00030169
0.000300829
0.00030204
0.000303238
0.00030442
0.000305584
0.000306726
0.000307839
0.000308921
0.000309975
0.000311003
0.000312005
0.000312976
0.000313908
0.000314788
0.000315607
0.000316347
0.000316987
0.000317494
0.00031783
0.000317949
0.000317792
0.000317285
0.000316328
0.000314798
0.000312548
0.000309394
0.000305094
0.000299333
0.000291682
0.000281545
0.0002681
0.000250383
0.000227751
0.000200582
0.00017041
0.000138871
0.000106719
7.50409e-05
4.93659e-05
3.58429e-05
3.16751e-05
3.19993e-05
3.3506e-05
3.48724e-05
3.59925e-05
3.65849e-05
3.59935e-05
3.48668e-05
3.35433e-05
3.20457e-05
3.17274e-05
3.59214e-05
4.95472e-05
7.59849e-05
0.000111218
0.000149607
0.000189067
0.000225759
0.000256349
0.000279885
0.000297173
0.000309576
0.000318346
0.00032444
0.000328537
0.000331119
0.000332555
0.00033314
0.000333088
0.000332563
0.000331692
0.000330588
0.000328023
0.00032935
0.000330656
0.000331936
0.000333186
0.000334402
0.000335576
0.000336706
0.000337792
0.000338837
0.000339836
0.000340782
0.000341661
0.000342458
0.000343156
0.000343733
0.000344157
0.000344385
0.00034437
0.000344051
0.000343352
0.000342179
0.000340411
0.000337897
0.000334459
0.000329873
0.00032385
0.000316014
0.000305864
0.000292715
0.000275674
0.000253786
0.000226574
0.000194731
0.000160136
0.000124793
9.03414e-05
5.99175e-05
4.08327e-05
3.38123e-05
3.28228e-05
3.40125e-05
3.55901e-05
3.67456e-05
3.76864e-05
3.81837e-05
3.7687e-05
3.67416e-05
3.56444e-05
3.40816e-05
3.28897e-05
3.38888e-05
4.1e-05
6.05108e-05
9.39285e-05
0.000135233
0.000179437
0.000221722
0.000258169
0.00028719
0.000309203
0.000325501
0.000337427
0.00034607
0.000352224
0.000356458
0.000359212
0.000360838
0.000361599
0.0003617
0.000361299
0.000360537
0.000356772
0.000358196
0.000359585
0.000360936
0.000362241
0.000363495
0.000364689
0.000365819
0.000366886
0.000367887
0.000368816
0.000369658
0.000370397
0.000371012
0.000371478
0.000371764
0.000371828
0.000371617
0.000371068
0.000370105
0.000368634
0.000366537
0.000363668
0.000359846
0.000354855
0.000348429
0.000340224
0.0003298
0.000316578
0.000299794
0.000278515
0.000251871
0.000219643
0.000182927
0.000144052
0.00010584
7.19773e-05
4.72996e-05
3.64589e-05
3.39678e-05
3.45408e-05
3.59955e-05
3.74727e-05
3.83253e-05
3.90858e-05
3.94892e-05
3.90859e-05
3.83215e-05
3.75509e-05
3.60911e-05
3.46262e-05
3.40479e-05
3.65849e-05
4.78387e-05
7.25563e-05
0.000115618
0.000163547
0.000211186
0.000253847
0.00028904
0.000316583
0.000337569
0.000353382
0.000365228
0.000374017
0.000380417
0.000384942
0.000388008
0.000389935
0.000390972
0.000391313
0.000391133
0.000387051
0.000388536
0.000389969
0.000391344
0.000392653
0.000393888
0.000395039
0.000396101
0.000397071
0.000397942
0.000398703
0.000399335
0.000399813
0.000400111
0.000400194
0.000400022
0.00039954
0.00039868
0.000397366
0.000395502
0.000392971
0.000389633
0.000385308
0.000379786
0.000372808
0.000364057
0.000353131
0.00033952
0.000322573
0.000301467
0.000275294
0.000243367
0.000205874
0.000164481
0.000122248
8.30691e-05
5.48233e-05
3.98483e-05
3.53368e-05
3.52185e-05
3.63605e-05
3.77816e-05
3.91222e-05
3.96173e-05
4.02138e-05
4.05333e-05
4.02133e-05
3.96131e-05
3.9239e-05
3.79034e-05
3.64619e-05
3.53058e-05
3.54351e-05
4.0224e-05
5.55808e-05
9.27142e-05
0.000141236
0.000193168
0.000242038
0.00028395
0.00031782
0.000344355
0.00036488
0.000380682
0.000392785
0.000401957
0.000408795
0.000413787
0.000417313
0.000419669
0.000421095
0.000421799
0.000418766
0.000420255
0.000421669
0.000423
0.000424238
0.000425371
0.000426389
0.000427284
0.000428048
0.000428669
0.000429131
0.000429406
0.000429464
0.000429267
0.000428773
0.000427927
0.00042666
0.000424891
0.000422522
0.000419438
0.000415498
0.000410531
0.000404327
0.000396635
0.000387154
0.000375509
0.000361236
0.000343758
0.000322364
0.000296222
0.000264542
0.000226999
0.00018442
0.000139411
9.65386e-05
6.18163e-05
4.37971e-05
3.69696e-05
3.59957e-05
3.67946e-05
3.80169e-05
3.92981e-05
4.05521e-05
4.06503e-05
4.11078e-05
4.13568e-05
4.11066e-05
4.06455e-05
4.07228e-05
3.94284e-05
3.81237e-05
3.68845e-05
3.60783e-05
3.7173e-05
4.4496e-05
6.97285e-05
0.000113478
0.000167199
0.000221524
0.000270342
0.000311215
0.000344171
0.000370308
0.000390922
0.000407121
0.000419774
0.000429568
0.000437064
0.000442708
0.000446854
0.000449784
0.00045175
0.000451722
0.000453132
0.000454437
0.000455626
0.000456687
0.000457604
0.000458365
0.000458958
0.00045937
0.000459583
0.000459571
0.0004593
0.000458729
0.000457812
0.000456492
0.000454701
0.000452353
0.00044935
0.000445573
0.000440882
0.00043511
0.000428051
0.000419462
0.000409048
0.00039646
0.000381264
0.000362934
0.000340837
0.000314242
0.000282394
0.000244793
0.000201761
0.000155226
0.000109449
7.12619e-05
4.7501e-05
3.88314e-05
3.68664e-05
3.72932e-05
3.82882e-05
3.93781e-05
4.04514e-05
4.15272e-05
4.14635e-05
4.18095e-05
4.20017e-05
4.18077e-05
4.14584e-05
4.16858e-05
4.05722e-05
3.94754e-05
3.83697e-05
3.73617e-05
3.69621e-05
3.92372e-05
5.20458e-05
8.22836e-05
0.000134138
0.000191691
0.000246763
0.00029495
0.000335091
0.000367764
0.000394123
0.000415303
0.000432256
0.000445754
0.000456437
0.00046482
0.000471317
0.000476264
0.000479953
0.000485585
0.000486801
0.000487873
0.000488788
0.000489529
0.000490078
0.000490419
0.000490533
0.000490403
0.000490001
0.000489292
0.000488233
0.000486772
0.00048485
0.000482396
0.000479325
0.000475534
0.000470902
0.000465289
0.000458527
0.000450416
0.000440719
0.000429149
0.000415372
0.000398983
0.000379496
0.000356334
0.000328842
0.00029635
0.000258344
0.000214914
0.000167549
0.000120124
7.9107e-05
5.21182e-05
4.05803e-05
3.77993e-05
3.7851e-05
3.86332e-05
3.95402e-05
4.04279e-05
4.12711e-05
4.21156e-05
4.20982e-05
4.23582e-05
4.25055e-05
4.23559e-05
4.20929e-05
4.22502e-05
4.13678e-05
4.05037e-05
3.96038e-05
3.86855e-05
3.79e-05
3.79609e-05
4.25977e-05
5.90854e-05
9.80705e-05
0.000153472
0.000212404
0.000267344
0.000315062
0.000355083
0.00038814
0.000415263
0.000437435
0.000455496
0.000470159
0.000482011
0.000491528
0.000499103
0.000505073
0.000519841
0.00052071
0.000521387
0.000521855
0.000522091
0.000522075
0.000521784
0.000521195
0.00052028
0.000519003
0.000517318
0.000515169
0.000512494
0.000509217
0.000505251
0.000500493
0.000494819
0.000488086
0.000480125
0.00047074
0.000459698
0.000446722
0.000431487
0.000413614
0.000392652
0.000368078
0.000339303
0.00030573
0.00026692
0.000222914
0.000174938
0.00012641
8.34723e-05
5.57322e-05
4.25345e-05
3.87063e-05
3.8442e-05
3.9041e-05
3.9795e-05
4.05371e-05
4.1227e-05
4.18593e-05
4.24605e-05
4.25919e-05
4.27872e-05
4.28991e-05
4.27842e-05
4.25865e-05
4.25733e-05
4.19234e-05
4.1274e-05
4.05765e-05
3.98277e-05
3.90648e-05
3.8473e-05
3.93646e-05
4.58172e-05
6.72866e-05
0.00011115
0.000168285
0.000227486
0.000282214
0.000329982
0.000370556
0.000404587
0.000432964
0.000456546
0.000476095
0.00049226
0.000505579
0.000516503
0.00052542
0.000553749
0.000554075
0.000554147
0.000553946
0.000553443
0.000552613
0.000551427
0.000549852
0.000547851
0.000545376
0.00054237
0.000538763
0.000534477
0.000529421
0.000523488
0.000516555
0.000508474
0.000499077
0.000488168
0.000475516
0.000460855
0.00044387
0.0004242
0.00040143
0.000375086
0.000344655
0.000309634
0.000269668
0.000224894
0.000176542
0.000127836
8.42981e-05
5.7093e-05
4.39708e-05
3.96343e-05
3.90341e-05
3.94913e-05
4.01206e-05
4.07472e-05
4.13311e-05
4.18604e-05
4.23295e-05
4.27273e-05
4.29758e-05
4.31227e-05
4.32072e-05
4.31196e-05
4.29702e-05
4.27571e-05
4.23487e-05
4.18759e-05
4.13446e-05
4.07579e-05
4.01242e-05
3.94789e-05
3.91711e-05
4.07285e-05
4.91492e-05
7.44555e-05
0.000119499
0.000176706
0.000235668
0.000290473
0.000338879
0.000380594
0.000416138
0.000446249
0.000471679
0.000493109
0.000511127
0.000526239
0.000538883
0.000586284
0.000585818
0.000585026
0.00058388
0.000582349
0.000580397
0.000577989
0.000575082
0.000571626
0.000567561
0.000562815
0.000557303
0.000550931
0.000543587
0.000535146
0.000525459
0.000514356
0.000501641
0.000487086
0.000470432
0.000451379
0.000429583
0.000404658
0.000376187
0.000343731
0.00030691
0.000265535
0.000219909
0.000171484
0.000123795
8.30928e-05
5.63713e-05
4.44236e-05
4.03903e-05
3.96519e-05
3.99688e-05
4.05033e-05
4.10327e-05
4.15281e-05
4.19812e-05
4.23885e-05
4.27497e-05
4.30554e-05
4.32752e-05
4.33853e-05
4.34489e-05
4.33825e-05
4.32692e-05
4.30539e-05
4.27467e-05
4.2384e-05
4.19737e-05
4.15176e-05
4.10162e-05
4.04713e-05
3.99418e-05
3.98738e-05
4.19974e-05
5.15851e-05
7.72706e-05
0.000121162
0.000177381
0.000235919
0.000291112
0.000340633
0.000384026
0.000421594
0.000453921
0.000481638
0.00050535
0.0005256
0.000542868
0.000616077
0.000614516
0.00061254
0.000610114
0.000607198
0.000603751
0.000599725
0.000595066
0.00058971
0.000583582
0.000576595
0.000568648
0.000559624
0.000549395
0.000537809
0.000524697
0.000509862
0.000493081
0.0004741
0.000452634
0.000428366
0.000400947
0.000370008
0.000335213
0.000296306
0.000253319
0.000206921
0.000158986
0.000113531
7.75933e-05
5.43621e-05
4.411e-05
4.08531e-05
4.02269e-05
4.04587e-05
4.0906e-05
4.13545e-05
4.1774e-05
4.21605e-05
4.25125e-05
4.2827e-05
4.31007e-05
4.33339e-05
4.35099e-05
4.35912e-05
4.36391e-05
4.35887e-05
4.35032e-05
4.33259e-05
4.30885e-05
4.28129e-05
4.24972e-05
4.21434e-05
4.17522e-05
4.13208e-05
4.08449e-05
4.04329e-05
4.05411e-05
4.28337e-05
5.18852e-05
7.52585e-05
0.000115626
0.000169534
0.000227227
0.000282911
0.000333943
0.000379467
0.000419525
0.000454511
0.000484948
0.000511366
0.000534256
0.000641352
0.000638328
0.000634781
0.000630669
0.000625943
0.00062055
0.000614431
0.000607519
0.000599734
0.000590984
0.000581165
0.000570158
0.000557826
0.000544018
0.000528561
0.00051126
0.000491901
0.00047024
0.000446008
0.000418914
0.000388669
0.000354983
0.000317621
0.000276548
0.000232076
0.000185303
0.000138889
9.68807e-05
6.85121e-05
5.10012e-05
4.34559e-05
4.11172e-05
4.07194e-05
4.09258e-05
4.12933e-05
4.16778e-05
4.2031e-05
4.23574e-05
4.26574e-05
4.29305e-05
4.31749e-05
4.33879e-05
4.35618e-05
4.36952e-05
4.3753e-05
4.37892e-05
4.37508e-05
4.36876e-05
4.35505e-05
4.3373e-05
4.3159e-05
4.29135e-05
4.26386e-05
4.2335e-05
4.2e-05
4.16262e-05
4.12286e-05
4.09124e-05
4.10692e-05
4.29928e-05
5.02364e-05
6.909e-05
0.000102304
0.000152745
0.00020874
0.000264765
0.000317403
0.000365328
0.000408217
0.000446265
0.00047985
0.000509402
0.000659847
0.00065492
0.000649342
0.000643061
0.000636017
0.000628146
0.000619375
0.000609619
0.000598784
0.000586762
0.000573428
0.000558645
0.000542259
0.000524096
0.000503966
0.000481659
0.000456952
0.000429608
0.000399379
0.000366028
0.000329399
0.000289469
0.000246432
0.000201176
0.000155653
0.00011312
7.97227e-05
5.79833e-05
4.7273e-05
4.27039e-05
4.13295e-05
4.11586e-05
4.13653e-05
4.16716e-05
4.19902e-05
4.22876e-05
4.25615e-05
4.28146e-05
4.30473e-05
4.3259e-05
4.3448e-05
4.36113e-05
4.3745e-05
4.38428e-05
4.38806e-05
4.39079e-05
4.38786e-05
4.38341e-05
4.37324e-05
4.35961e-05
4.34302e-05
4.324e-05
4.30269e-05
4.27915e-05
4.25326e-05
4.22477e-05
4.19295e-05
4.1605e-05
4.13524e-05
4.14359e-05
4.27149e-05
4.75688e-05
6.00796e-05
8.62347e-05
0.000128225
0.000180615
0.000235772
0.000289586
0.000339832
0.000385748
0.000427178
0.000464283
0.000668738
0.000661389