/*--------------------------------*- C++ -*----------------------------------*\
| =========                 |                                                 |
| \\      /  F ield         | OpenFOAM: The Open Source CFD Toolbox           |
|  \\    /   O peration     | Version:  2412                                  |
|   \\  /    A nd           | Website:  www.openfoam.com                      |
|    \\/     M anipulation  |                                                 |
\*---------------------------------------------------------------------------*/
FoamFile
{
    version     2.0;
    format      ascii;
    arch        "LSB;label=32;scalar=64";
    class       volScalarField;
    location    "80";
    object      p;
}
// * * * * * * * * * * * * * * * * * * * * * * * * * * * * * * * * * * * * * //

dimensions      [0 2 -2 0 0 0 0];

internalField   nonuniform List<scalar> 
7387
(
-132.962
-124.813
-116.787
-108.909
-101.199
-93.6592
-86.2849
-79.0703
-72.0106
-65.1021
-58.3413
-51.725
-45.252
-38.9202
-32.7301
-26.6809
-20.7725
-15.0034
-9.37376
-3.88391
1.46509
6.67409
11.7438
16.6742
21.4654
26.118
30.6331
35.0126
39.2584
43.3723
47.3582
51.2189
54.959
58.5835
62.0975
65.5067
68.8162
72.0306
75.1559
78.1998
81.1683
84.0609
86.8753
89.6126
92.2894
94.9203
97.495
99.9682
102.298
104.502
106.692
108.92
111.248
113.356
115.106
116.292
116.868
117.481
118.364
119.646
121.922
124.152
125.299
124.733
121.701
113.355
96.2248
98.5908
117.09
130.253
137.593
125.183
-132.961
-124.812
-116.786
-108.908
-101.198
-93.659
-86.2846
-79.07
-72.0104
-65.1019
-58.3411
-51.7248
-45.2517
-38.9199
-32.7299
-26.6806
-20.7723
-15.0032
-9.37353
-3.88368
1.46532
6.67432
11.744
16.6744
21.4656
26.1182
30.6333
35.0128
39.2586
43.3725
47.3584
51.2192
54.9592
58.5837
62.0977
65.507
68.8165
72.0308
75.1561
78.2001
81.1685
84.0611
86.8755
89.6129
92.2896
94.9205
97.4953
99.9684
102.299
104.503
106.693
108.92
111.248
113.356
115.106
116.292
116.868
117.481
118.365
119.646
121.922
124.152
125.297
124.729
121.694
113.348
96.2447
98.6348
117.118
130.246
137.569
125.178
-132.961
-124.812
-116.786
-108.908
-101.198
-93.6585
-86.2842
-79.0696
-72.01
-65.1015
-58.3407
-51.7244
-45.2514
-38.9196
-32.7295
-26.6803
-20.7719
-15.0028
-9.37318
-3.88338
1.46566
6.67464
11.7443
16.6748
21.4659
26.1185
30.6337
35.0131
39.2589
43.3728
47.3587
51.2195
54.9595
58.584
62.098
65.5073
68.8168
72.0312
75.1564
78.2004
81.1688
84.0614
86.8759
89.6132
92.29
94.9209
97.4956
99.9688
102.299
104.503
106.693
108.92
111.248
113.356
115.106
116.292
116.869
117.482
118.366
119.647
121.923
124.151
125.295
124.725
121.685
113.34
96.2737
98.6951
117.155
130.241
137.543
125.169
-132.96
-124.812
-116.785
-108.908
-101.198
-93.6581
-86.2838
-79.0692
-72.0096
-65.1011
-58.3402
-51.724
-45.251
-38.9191
-32.7291
-26.6799
-20.7715
-15.0024
-9.37277
-3.88293
1.46606
6.67505
11.7447
16.6752
21.4663
26.1189
30.6341
35.0135
39.2593
43.3732
47.3591
51.2199
54.9599
58.5844
62.0984
65.5077
68.8172
72.0315
75.1568
78.2008
81.1692
84.0618
86.8763
89.6136
92.2904
94.9213
97.496
99.9692
102.299
104.503
106.693
108.921
111.248
113.357
115.106
116.292
116.869
117.482
118.367
119.649
121.924
124.15
125.293
124.72
121.676
113.334
96.3178
98.7734
117.201
130.242
137.521
125.183
-132.96
-124.811
-116.785
-108.907
-101.197
-93.6575
-86.2832
-79.0686
-72.009
-65.1005
-58.3397
-51.7235
-45.2505
-38.9186
-32.7286
-26.6794
-20.771
-15.0019
-9.37228
-3.88244
1.46656
6.67554
11.7452
16.6756
21.4668
26.1194
30.6345
35.014
39.2598
43.3737
47.3596
51.2203
54.9604
58.5848
62.0989
65.5081
68.8176
72.032
75.1572
78.2012
81.1696
84.0622
86.8767
89.614
92.2908
94.9217
97.4964
99.9696
102.3
104.504
106.694
108.921
111.249
113.357
115.106
116.292
116.869
117.483
118.368
119.65
121.924
124.149
125.29
124.714
121.666
113.332
96.3892
98.8864
117.257
130.254
137.508
125.25
-132.959
-124.81
-116.784
-108.906
-101.196
-93.6569
-86.2825
-79.068
-72.0084
-65.0999
-58.3391
-51.7228
-45.2499
-38.918
-32.728
-26.6788
-20.7704
-15.0013
-9.37169
-3.88188
1.46713
6.67612
11.7458
16.6762
21.4674
26.12
30.6351
35.0145
39.2603
43.3742
47.3601
51.2208
54.9609
58.5854
62.0994
65.5086
68.8181
72.0325
75.1577
78.2017
81.1702
84.0628
86.8772
89.6146
92.2914
94.9222
97.4969
99.9701
102.3
104.504
106.695
108.922
111.249
113.357
115.106
116.292
116.87
117.485
118.371
119.653
121.925
124.148
125.285
124.705
121.654
113.339
96.5039
99.0522
117.323
130.261
137.5
125.419
-132.958
-124.809
-116.783
-108.905
-101.196
-93.6561
-86.2818
-79.0672
-72.0076
-65.0992
-58.3384
-51.7221
-45.2492
-38.9173
-32.7273
-26.6781
-20.7698
-15.0006
-9.37102
-3.8812
1.4678
6.67678
11.7465
16.6769
21.468
26.1206
30.6357
35.0152
39.2609
43.3748
47.3608
51.2215
54.9615
58.586
62.1
65.5092
68.8187
72.0331
75.1583
78.2023
81.1708
84.0634
86.8778
89.6152
92.292
94.9229
97.4975
99.9706
102.301
104.505
106.695
108.923
111.25
113.357
115.106
116.292
116.871
117.487
118.374
119.657
121.927
124.145
125.278
124.693
121.637
113.357
96.6814
99.2876
117.4
130.243
137.485
125.711
-132.957
-124.808
-116.782
-108.905
-101.195
-93.6552
-86.2809
-79.0664
-72.0068
-65.0983
-58.3375
-51.7213
-45.2483
-38.9165
-32.7265
-26.6773
-20.7689
-14.9998
-9.37021
-3.8804
1.4686
6.67757
11.7473
16.6776
21.4688
26.1214
30.6365
35.0159
39.2617
43.3756
47.3615
51.2222
54.9622
58.5867
62.1007
65.51
68.8195
72.0339
75.1591
78.2031
81.1715
84.0641
86.8786
89.6159
92.2927
94.9236
97.4982
99.9713
102.302
104.506
106.697
108.924
111.25
113.357
115.105
116.292
116.873
117.491
118.38
119.664
121.928
124.141
125.267
124.675
121.615
113.39
96.9437
99.6172
117.497
130.216
137.478
126.107
-132.956
-124.807
-116.781
-108.903
-101.194
-93.6542
-86.2799
-79.0654
-72.0058
-65.0973
-58.3365
-51.7203
-45.2473
-38.9155
-32.7255
-26.6763
-20.768
-14.9988
-9.36923
-3.87941
1.46957
6.67855
11.7482
16.6786
21.4698
26.1224
30.6375
35.0169
39.2627
43.3765
47.3625
51.2232
54.9632
58.5877
62.1017
65.5109
68.8204
72.0348
75.16
78.204
81.1724
84.065
86.8795
89.6169
92.2937
94.9245
97.499
99.9721
102.303
104.507
106.698
108.925
111.25
113.356
115.104
116.291
116.876
117.497
118.389
119.674
121.932
124.134
125.251
124.648
121.585
113.442
97.3134
100.074
117.635
130.195
137.519
126.601
-132.955
-124.806
-116.78
-108.902
-101.192
-93.6529
-86.2787
-79.0641
-72.0045
-65.0961
-58.3353
-51.7191
-45.2461
-38.9143
-32.7243
-26.6751
-20.7667
-14.9976
-9.36801
-3.8782
1.4708
6.67976
11.7494
16.6798
21.471
26.1236
30.6387
35.0181
39.2639
43.3778
47.3637
51.2244
54.9644
58.5889
62.1029
65.5121
68.8216
72.036
75.1613
78.2053
81.1737
84.0662
86.8807
89.6182
92.295
94.9258
97.5001
99.9731
102.304
104.509
106.7
108.927
111.251
113.355
115.102
116.29
116.88
117.506
118.403
119.688
121.937
124.125
125.227
124.611
121.544
113.515
97.8103
100.68
117.852
130.22
137.647
127.194
-132.953
-124.804
-116.778
-108.901
-101.191
-93.6514
-86.2772
-79.0626
-72.003
-65.0946
-58.3338
-51.7176
-45.2446
-38.9128
-32.7228
-26.6735
-20.7652
-14.9961
-9.36647
-3.87665
1.47234
6.68132
11.751
16.6814
21.4726
26.1251
30.6402
35.0197
39.2654
43.3793
47.3653
51.226
54.966
58.5905
62.1045
65.5137
68.8232
72.0376
75.1629
78.2069
81.1753
84.0679
86.8824
89.6198
92.2968
94.9274
97.5016
99.9744
102.305
104.511
106.703
108.929
111.251
113.353
115.098
116.289
116.885
117.518
118.421
119.709
121.944
124.113
125.197
124.563
121.492
113.614
98.4471
101.436
118.218
130.37
137.878
127.874
-132.951
-124.803
-116.777
-108.899
-101.189
-93.6496
-86.2753
-79.0607
-72.0012
-65.0927
-58.3319
-51.7157
-45.2427
-38.9109
-32.7209
-26.6716
-20.7633
-14.9942
-9.36455
-3.87472
1.47428
6.68327
11.753
16.6834
21.4745
26.1271
30.6422
35.0217
39.2675
43.3813
47.3673
51.228
54.968
58.5925
62.1066
65.5158
68.8253
72.0397
75.165
78.209
81.1774
84.0699
86.8845
89.622
92.299
94.9296
97.5035
99.9761
102.307
104.514
106.707
108.933
111.252
113.351
115.094
116.287
116.893
117.535
118.446
119.737
121.954
124.098
125.158
124.505
121.432
113.742
99.2299
102.331
118.818
130.612
138.179
128.61
-132.949
-124.8
-116.774
-108.897
-101.187
-93.6473
-86.2731
-79.0585
-71.9989
-65.0904
-58.3296
-51.7134
-45.2404
-38.9086
-32.7185
-26.6693
-20.7609
-14.9918
-9.36218
-3.87234
1.47668
6.68567
11.7554
16.6858
21.477
26.1296
30.6447
35.0242
39.2699
43.3838
47.3698
51.2305
54.9706
58.5951
62.1091
65.5184
68.8279
72.0423
75.1676
78.2116
81.18
84.0726
86.8871
89.6248
92.3018
94.9323
97.5059
99.9783
102.31
104.518
106.711
108.937
111.253
113.349
115.089
116.285
116.903
117.556
118.477
119.773
121.968
124.081
125.113
124.439
121.37
113.908
100.16
103.347
119.661
130.942
138.501
129.341
-141.286
-132.946
-124.798
-116.772
-108.894
-101.184
-93.6447
-86.2704
-79.0558
-71.9962
-65.0877
-58.3269
-51.7106
-45.2376
-38.9058
-32.7157
-26.6665
-20.7581
-14.989
-9.35931
-3.86946
1.47957
6.68859
11.7583
16.6888
21.48
26.1326
30.6477
35.0272
39.273
43.3869
47.3729
51.2336
54.9737
58.5982
62.1123
65.5215
68.8311
72.0455
75.1708
78.2149
81.1832
84.0758
86.8904
89.6282
92.3053
94.9356
97.5087
99.9809
102.313
104.523
106.717
108.942
111.254
113.346
115.083
116.283
116.916
117.583
118.517
119.818
121.986
124.062
125.061
124.367
121.314
114.122
101.237
104.486
120.678
131.465
138.813
130.006
-141.283
-132.943
-124.794
-116.769
-108.891
-101.181
-93.6415
-86.2672
-79.0526
-71.993
-65.0845
-58.3237
-51.7074
-45.2344
-38.9025
-32.7124
-26.6632
-20.7548
-14.9856
-9.35592
-3.86604
1.48301
6.69206
11.7618
16.6923
21.4835
26.1361
30.6513
35.0308
39.2766
43.3906
47.3765
51.2373
54.9774
58.6019
62.116
65.5253
68.8348
72.0493
75.1746
78.2187
81.1871
84.0796
86.8942
89.6322
92.3094
94.9395
97.5121
99.984
102.317
104.528
106.724
108.949
111.255
113.342
115.076
116.282
116.933
117.617
118.565
119.872
122.008
124.041
125.005
124.294
121.271
114.396
102.461
105.78
121.885
132.095
139.098
130.56
-141.279
-132.939
-124.791
-116.765
-108.887
-101.177
-93.6379
-86.2636
-79.049
-71.9893
-65.0808
-58.3199
-51.7036
-45.2306
-38.8987
-32.7086
-26.6593
-20.7509
-14.9817
-9.35196
-3.86206
1.48703
6.6961
11.7659
16.6964
21.4876
26.1403
30.6555
35.035
39.2809
43.3948
47.3808
51.2416
54.9817
58.6062
62.1204
65.5297
68.8392
72.0537
75.1791
78.2232
81.1915
84.084
86.8987
89.6368
92.3142
94.944
97.516
99.9876
102.322
104.535
106.732
108.956
111.256
113.338
115.069
116.281
116.954
117.659
118.624
119.937
122.036
124.019
124.946
124.223
121.25
114.741
103.835
107.252
123.392
132.735
139.411
131.026
-141.275
-132.936
-124.787
-116.761
-108.883
-101.173
-93.6338
-86.2594
-79.0448
-71.9851
-65.0766
-58.3156
-51.6993
-45.2262
-38.8943
-32.7042
-26.6548
-20.7464
-14.9771
-9.34741
-3.85747
1.49165
6.70076
11.7706
16.7011
21.4924
26.1451
30.6603
35.0399
39.2857
43.3997
47.3857
51.2465
54.9867
58.6112
62.1254
65.5347
68.8442
72.0587
75.1841
78.2282
81.1965
84.089
86.9037
89.6421
92.3195
94.9491
97.5204
99.9916
102.327
104.543
106.741
108.964
111.257
113.333
115.06
116.282
116.981
117.709
118.693
120.013
122.069
123.998
124.885
124.159
121.26
115.167
105.363
108.916
125.142
133.387
139.715
131.438
-141.27
-132.931
-124.782
-116.756
-108.878
-101.169
-93.6291
-86.2547
-79.04
-71.9803
-65.0717
-58.3108
-51.6944
-45.2212
-38.8893
-32.6991
-26.6498
-20.7413
-14.972
-9.34222
-3.85225
1.49691
6.70606
11.7759
16.7065
21.4978
26.1505
30.6658
35.0454
39.2913
43.4053
47.3913
51.2521
54.9923
58.6169
62.131
65.5404
68.8499
72.0644
75.1898
78.2339
81.2022
84.0946
86.9094
89.648
92.3256
94.9548
97.5253
99.9961
102.332
104.551
106.752
108.974
111.258
113.328
115.052
116.284
117.014
117.77
118.775
120.103
122.11
123.979
124.828
124.108
121.313
115.686
107.046
110.772
126.894
134.141
139.612
131.677
-141.265
-132.926
-124.777
-116.751
-108.873
-101.163
-93.6238
-86.2494
-79.0347
-71.9749
-65.0663
-58.3053
-51.6888
-45.2156
-38.8836
-32.6935
-26.644
-20.7355
-14.9662
-9.33636
-3.84635
1.50286
6.71205
11.7819
16.7125
21.5039
26.1567
30.672
35.0516
39.2975
43.4116
47.3976
51.2585
54.9986
58.6232
62.1374
65.5467
68.8563
72.0708
75.1962
78.2403
81.2085
84.1008
86.9157
89.6545
92.3323
94.9611
97.5306
100.001
102.339
104.561
106.764
108.985
111.26
113.322
115.043
116.289
117.055
117.841
118.871
120.207
122.161
123.965
124.776
124.077
121.419
116.307
108.88
112.795
128.429
135.081
139.067
131.453
-141.26
-132.921
-124.771
-116.745
-108.867
-101.157
-93.6178
-86.2434
-79.0286
-71.9688
-65.0601
-58.2991
-51.6826
-45.2094
-38.8773
-32.6871
-26.6376
-20.729
-14.9597
-9.32978
-3.83972
1.50954
6.71878
11.7887
16.7194
21.5108
26.1636
30.6789
35.0586
39.3045
43.4186
47.4047
51.2655
55.0057
58.6303
62.1445
65.5538
68.8634
72.0779
75.2033
78.2474
81.2155
84.1077
86.9226
89.6618
92.3397
94.968
97.5365
100.007
102.346
104.573
106.778
108.997
111.261
113.316
115.035
116.296
117.103
117.926
118.983
120.327
122.224
123.96
124.738
124.075
121.593
117.041
110.853
114.907
129.761
136.378
138.529
130.471
-141.254
-132.914
-124.765
-116.738
-108.861
-101.151
-93.6112
-86.2367
-79.0219
-71.962
-65.0533
-58.2922
-51.6756
-45.2023
-38.8702
-32.6799
-26.6304
-20.7217
-14.9523
-9.32237
-3.83225
1.51706
6.72635
11.7963
16.727
21.5185
26.1714
30.6868
35.0664
39.3124
43.4265
47.4126
51.2735
55.0136
58.6383
62.1524
65.5617
68.8713
72.0858
75.2112
78.2552
81.2232
84.1153
86.9302
89.6698
92.3478
94.9756
97.5429
100.013
102.355
104.585
106.794
109.011
111.263
113.31
115.027
116.307
117.161
118.024
119.11
120.464
122.302
123.967
124.718
124.113
121.847
117.897
112.95
117.023
131.043
138.102
137.923
128.759
-141.247
-132.908
-124.758
-116.731
-108.853
-101.143
-93.6038
-86.2293
-79.0144
-71.9545
-65.0457
-58.2845
-51.6678
-45.1944
-38.8622
-32.6718
-26.6222
-20.7135
-14.944
-9.31398
-3.8238
1.52557
6.73492
11.805
16.7357
21.5273
26.1802
30.6956
35.0753
39.3213
43.4354
47.4215
51.2823
55.0225
58.6471
62.1612
65.5705
68.88
72.0945
75.2199
78.2638
81.2316
84.1236
86.9386
89.6785
92.3567
94.9839
97.5499
100.019
102.364
104.6
106.811
109.026
111.266
113.304
115.021
116.323
117.228
118.137
119.256
120.621
122.397
123.994
124.727
124.202
122.196
118.882
115.147
119.114
132.409
140.011
137.164
126.503
-141.24
-132.9
-124.75
-116.723
-108.845
-101.135
-93.5956
-86.2209
-79.006
-71.946
-65.0371
-58.2758
-51.6591
-45.1856
-38.8534
-32.6629
-26.6132
-20.7044
-14.9348
-9.30474
-3.81451
1.53492
6.74433
11.8145
16.7453
21.5369
26.1899
30.7054
35.0851
39.3312
43.4452
47.4313
51.2921
55.0322
58.6568
62.171
65.5802
68.8896
72.104
75.2294
78.2733
81.2409
84.1327
86.9477
89.688
92.3664
94.9928
97.5574
100.026
102.374
104.615
106.83
109.043
111.27
113.299
115.017
116.344
117.307
118.267
119.422
120.798
122.515
124.045
124.774
124.356
122.652
120.002
117.393
121.281
133.842
141.759
136.678
124.175
-141.232
-132.892
-124.741
-116.714
-108.836
-101.126
-93.5864
-86.2117
-78.9967
-71.9366
-65.0276
-58.2662
-51.6494
-45.176
-38.844
-32.6538
-26.6044
-20.6956
-14.926
-9.29589
-3.80558
1.54392
6.75344
11.8237
16.7546
21.5463
26.1994
30.715
35.0948
39.3409
43.4552
47.4419
51.3032
55.0433
58.6679
62.1821
65.5913
68.9007
72.1151
75.2404
78.2842
81.2517
84.1432
86.9583
89.6989
92.3775
95.0031
97.5662
100.035
102.385
104.633
106.852
109.063
111.275
113.296
115.018
116.373
117.399
118.414
119.607
120.997
122.657
124.129
124.869
124.587
123.224
121.243
119.686
123.638
135.273
142.983
136.946
122.416
-141.223
-132.884
-124.732
-116.705
-108.826
-101.116
-93.5763
-86.2015
-78.9863
-71.9262
-65.0171
-58.2556
-51.6386
-45.1653
-38.8336
-32.6437
-26.5945
-20.6858
-14.916
-9.28554
-3.79495
1.55482
6.76457
11.8349
16.7658
21.5574
26.2104
30.7259
35.1057
39.3519
43.4663
47.4536
51.3156
55.0561
58.6807
62.1948
65.604
68.9133
72.1276
75.2531
78.2968
81.264
84.1552
86.9702
89.7112
92.39
95.0148
97.5762
100.045
102.399
104.654
106.876
109.085
111.283
113.296
115.023
116.411
117.502
118.579
119.812
121.219
122.829
124.255
125.026
124.909
123.924
122.599
122.057
126.126
136.693
143.718
138.527
121.683
-141.213
-132.874
-124.722
-116.694
-108.816
-101.105
-93.5651
-86.1902
-78.9748
-71.9145
-65.0053
-58.2437
-51.6266
-45.153
-38.8208
-32.6305
-26.5808
-20.6717
-14.9014
-9.27047
-3.77956
1.5705
6.78044
11.8508
16.7816
21.573
26.2259
30.7412
35.1208
39.3669
43.4812
47.4676
51.3294
55.07
58.6946
62.2086
65.6176
68.9267
72.141
75.2666
78.3101
81.2769
84.1678
86.9827
89.7242
92.4032
95.0271
97.5869
100.055
102.414
104.676
106.903
109.11
111.293
113.299
115.034
116.459
117.621
118.763
120.042
121.469
123.04
124.434
125.254
125.331
124.756
124.077
124.478
128.691
138.147
144.334
141.936
122.967
-149.711
-141.203
-132.864
-124.711
-116.683
-108.804
-101.093
-93.5527
-86.1775
-78.9621
-71.9016
-64.9922
-58.2304
-51.6132
-45.1392
-38.8065
-32.6156
-26.5654
-20.6558
-14.8854
-9.25454
-3.76371
1.58628
6.79618
11.8666
16.7975
21.5892
26.2423
30.7579
35.1378
39.384
43.498
47.4837
51.3448
55.0854
58.7099
62.2239
65.6328
68.9418
72.1559
75.2812
78.3244
81.2909
84.1814
86.9964
89.7385
92.4177
95.0407
97.5989
100.067
102.43
104.7
106.932
109.137
111.307
113.308
115.054
116.52
117.756
118.968
120.296
121.747
123.292
124.669
125.563
125.866
125.717
125.675
126.905
131.269
139.756
145.307
146.17
127.617
-149.698
-141.191
-132.852
-124.698
-116.67
-108.79
-101.079
-93.5388
-86.1635
-78.9478
-71.8872
-64.9777
-58.2157
-51.5983
-45.1241
-38.7912
-32.6002
-26.5499
-20.6403
-14.87
-9.23924
-3.74853
1.60138
6.81126
11.8818
16.813
21.605
26.2585
30.7745
35.1548
39.401
43.5151
47.5008
51.362
55.1026
58.7271
62.2411
65.6499
68.9588
72.1728
75.2978
78.3407
81.3067
84.1969
87.0119
89.7544
92.4338
95.0558
97.6124
100.081
102.448
104.727
106.963
109.167
111.324
113.323
115.083
116.593
117.905
119.192
120.572
122.053
123.589
124.972
125.967
126.519
126.807
127.38
129.314
133.858
141.585
146.995
149.603
135.689
-149.683
-141.177
-132.839
-124.684
-116.655
-108.775
-101.064
-93.5235
-86.1479
-78.9321
-71.8713
-64.9616
-58.1994
-51.5818
-45.1075
-38.7745
-32.5833
-26.5328
-20.623
-14.8525
-9.22154
-3.73068
1.61939
6.8294
11.9
16.8313
21.6235
26.2771
30.7931
35.1735
39.4198
43.5339
47.5197
51.3809
55.1215
58.7459
62.2597
65.6684
68.977
72.1908
75.3156
78.3583
81.3238
84.2135
87.0284
89.7713
92.4507
95.0717
97.6266
100.096
102.468
104.755
106.996
109.199
111.346
113.343
115.123
116.681
118.072
119.436
120.873
122.391
123.936
125.35
126.472
127.293
128.018
129.169
131.707
136.465
143.633
149.621
152.567
146.794
-149.667
-141.162
-132.824
-124.668
-116.639
-108.759
-101.047
-93.5064
-86.1306
-78.9146
-71.8536
-64.9437
-58.1813
-51.5635
-45.089
-38.7559
-32.5645
-26.5138
-20.6038
-14.833
-9.2019
-3.71085
1.6394
6.84958
11.9203
16.8517
21.644
26.2977
30.8138
35.1942
39.4405
43.5547
47.5405
51.4016
55.1421
58.7664
62.28
65.6884
68.9968
72.2102
75.3348
78.377
81.3419
84.231
87.0457
89.7888
92.4681
95.0879
97.6412
100.111
102.488
104.784
107.03
109.233
111.372
113.371
115.175
116.785
118.256
119.7
121.2
122.763
124.337
125.81
127.082
128.186
129.339
131.024
134.083
139.091
145.962
152.948
156.114
160.257
-149.648
-141.145
-132.807
-124.65
-116.62
-108.74
-101.029
-93.4874
-86.1114
-78.8952
-71.834
-64.924
-58.1614
-51.5434
-45.0687
-38.7354
-32.5439
-26.493
-20.5828
-14.8118
-9.18042
-3.6892
1.66123
6.87157
11.9425
16.874
21.6664
26.3202
30.8364
35.2168
39.4631
43.5773
47.563
51.424
55.1643
58.7884
62.3018
65.7099
69.0179
72.2309
75.355
78.3966
81.3606
84.2489
87.0631
89.8062
92.4852
95.1037
97.6554
100.126
102.508
104.812
107.065
109.268
111.402
113.407
115.238
116.904
118.456
119.982
121.55
123.17
124.795
126.351
127.794
129.188
130.751
132.923
136.438
141.725
148.556
156.441
160.876
173.828
-149.627
-141.125
-132.787
-124.63
-116.6
-108.719
-101.008
-93.4662
-86.0901
-78.8737
-71.8124
-64.9022
-58.1394
-51.5212
-45.0463
-38.7128
-32.5212
-26.4701
-20.5597
-14.7885
-9.15696
-3.66556
1.68504
6.89555
11.9666
16.8982
21.6908
26.3446
30.8609
35.2413
39.4876
43.6017
47.5873
51.4481
55.1882
58.812
62.325
65.7326
69.04
72.2524
75.3757
78.4164
81.3794
84.2666
87.08
89.8228
92.5011
95.118
97.6679
100.139
102.527
104.839
107.097
109.302
111.435
113.45
115.314
117.038
118.671
120.281
121.924
123.611
125.307
126.971
128.601
130.282
132.229
134.841
138.763
144.343
151.352
160.018
166.9
185.086
-149.602
-141.102
-132.765
-124.607
-116.576
-108.696
-100.984
-93.4426
-86.0664
-78.8498
-71.7884
-64.878
-58.1151
-51.4967
-45.0217
-38.6881
-32.4963
-26.445
-20.5344
-14.763
-9.13133
-3.63978
1.71099
6.92164
11.9928
16.9246
21.7172
26.3711
30.8874
35.2677
39.5139
43.6279
47.6133
51.4738
55.2135
58.8369
62.3493
65.7563
69.0628
72.2742
75.3965
78.436
81.3975
84.2833
87.0954
89.8374
92.5145
95.1294
97.6774
100.149
102.542
104.862
107.127
109.335
111.471
113.499
115.399
117.184
118.898
120.595
122.318
124.083
125.868
127.66
129.485
131.447
133.745
136.75
141.039
146.916
154.256
163.692
173.546
193.822
-149.572
-141.075
-132.739
-124.58
-116.549
-108.669
-100.957
-93.4161
-86.0398
-78.8232
-71.7617
-64.8513
-58.0883
-51.4697
-44.9945
-38.6609
-32.4689
-26.4175
-20.5067
-14.7352
-9.10336
-3.61167
1.73924
6.95002
12.0213
16.9531
21.7458
26.3997
30.916
35.2962
39.5421
43.6559
47.641
51.5011
55.2403
58.863
62.3746
65.7806
69.086
72.2961
75.4169
78.4548
81.4143
84.298
87.1084
89.8488
92.524
95.1363
97.6822
100.155
102.551
104.88
107.151
109.365
111.506
113.553
115.492
117.339
119.133
120.917
122.726
124.58
126.468
128.4
130.425
132.651
135.268
138.618
143.236
149.397
157.128
167.253
179.352
200.468
-149.539
-141.044
-132.708
-124.548
-116.518
-108.638
-100.927
-93.3859
-86.0098
-78.7933
-71.7318
-64.8215
-58.0584
-51.4397
-44.9645
-38.6308
-32.4388
-26.3873
-20.4764
-14.7048
-9.0728
-3.581
1.77001
6.98088
12.0522
16.984
21.7767
26.4306
30.9467
35.3267
39.5724
43.6858
47.6704
51.5299
55.2683
58.8901
62.4006
65.8053
69.1091
72.3175
75.4363
78.4718
81.4288
84.3098
87.1175
89.8554
92.5278
95.137
97.6802
100.153
102.553
104.889
107.167
109.387
111.538
113.607
115.588
117.498
119.371
121.242
123.14
125.089
127.091
129.17
131.389
133.859
136.761
140.411
145.311
151.721
159.807
170.423
183.862
204.879
-149.499
-141.007
-132.673
-124.512
-116.481
-108.603
-100.893
-93.3513
-85.9754
-78.7593
-71.6981
-64.7879
-58.0249
-51.4063
-44.9311
-38.5975
-32.4055
-26.354
-20.443
-14.6713
-9.03929
-3.54743
1.80363
7.01451
12.0858
17.0176
21.8102
26.4639
30.9798
35.3595
39.6047
43.7176
47.7015
51.5602
55.2975
58.9181
62.4271
65.83
69.1317
72.3376
75.4537
78.4863
81.4398
84.3171
87.121
89.8552
92.5239
95.1289
97.6688
100.14
102.544
104.886
107.17
109.399
111.562
113.656
115.681
117.652
119.602
121.559
123.548
125.596
127.716
129.942
132.345
135.035
138.184
142.089
147.215
153.818
162.157
173.024
187.17
207.228
-149.453
-140.964
-132.631
-124.469
-116.439
-108.563
-100.853
-93.3113
-85.9361
-78.7205
-71.6593
-64.7495
-57.9869
-51.3685
-44.8935
-38.5601
-32.3683
-26.3169
-20.406
-14.6343
-9.00233
-3.5105
1.8405
7.05129
12.1224
17.0541
21.8465
26.5
31.0155
35.3947
39.6392
43.7514
47.7343
51.5918
55.3278
58.9467
62.4537
65.8542
69.1532
72.3559
75.4684
78.4969
81.4459
84.3182
87.117
89.8461
92.5095
95.1093
97.6447
100.115
102.52
104.866
107.156
109.393
111.573
113.694
115.762
117.793
119.816
121.854
123.933
126.081
128.318
130.685
133.257
136.142
139.498
143.606
148.894
155.612
164.065
174.95
189.216
208.13
-149.398
-140.914
-132.582
-124.42
-116.391
-108.515
-100.806
-93.265
-85.8906
-78.6755
-71.6147
-64.7053
-57.9432
-51.325
-44.8506
-38.5177
-32.3262
-26.2751
-20.3645
-14.5931
-8.96123
-3.46957
1.88122
7.09176
12.1626
17.094
21.8861
26.5391
31.0541
35.4325
39.6761
43.7872
47.7689
51.6249
55.359
58.9756
62.48
65.8773
69.1727
72.3713
75.4789
78.5021
81.445
84.3108
87.1029
89.8252
92.4816
95.0743
97.6039
100.07
102.475
104.823
107.119
109.365
111.561
113.71
115.82
117.908
119.997
122.112
124.277
126.522
128.87
131.367
134.089
137.139
140.661
144.919
150.299
157.04
165.449
176.137
189.984
208.065
-149.335
-140.855
-132.525
-124.363
-116.334
-108.458
-100.75
-93.2107
-85.8367
-78.6226
-71.5627
-64.6538
-57.8922
-51.2747
-44.8008
-38.4686
-32.2779
-26.2274
-20.3173
-14.5464
-8.91494
-3.4237
1.92661
7.13667
12.2071
17.138
21.9295
26.5818
31.0959
35.4733
39.7157
43.8254
47.8054
51.6593
55.3909
59.0046
62.5055
65.8987
69.1894
72.3825
75.4838
78.4998
81.4351
84.2926
87.0759
89.789
92.4361
95.0197
97.5412
100.001
102.403
104.751
107.05
109.306
111.518
113.694
115.842
117.98
120.131
122.316
124.56
126.893
129.342
131.955
134.804
137.987
141.636
145.986
151.383
158.048
166.258
176.552
189.565
206.643
-149.261
-140.785
-132.458
-124.296
-116.269
-108.394
-100.687
-93.1482
-85.7745
-78.5612
-71.5024
-64.5938
-57.8328
-51.2162
-44.7428
-38.4114
-32.2214
-26.1719
-20.2625
-14.4924
-8.86172
-3.37132
1.97808
7.18728
12.2569
17.187
21.9776
26.6288
31.1417
35.5176
39.7584
43.8662
47.8438
51.695
55.4233
59.0331
62.5295
65.9175
69.202
72.3879
75.4808
78.4878
81.4134
84.2603
87.0321
89.7333
92.3682
94.9399
97.4502
99.9009
102.296
104.641
106.943
109.205
111.432
113.631
115.813
117.995
120.199
122.446
124.761
127.172
129.709
132.418
135.37
138.654
142.386
146.77
152.11
158.601
166.469
176.182
188.068
203.582
-149.176
-140.705
-132.38
-124.218
-116.193
-108.32
-100.614
-93.0768
-85.704
-78.4912
-71.433
-64.5249
-57.7643
-51.1485
-44.6759
-38.3452
-32.1559
-26.1073
-20.1987
-14.4294
-8.79972
-3.31052
2.03771
7.24567
12.314
17.2428
22.0319
26.6815
31.1925
35.5663
39.8048
43.91
47.8845
51.732
55.4559
59.0606
62.5511
65.9323
69.2089
72.3853
75.4674
78.463
81.3764
84.2097
86.9668
89.6526
92.2719
94.8278
97.3228
99.7602
102.146
104.486
106.785
109.051
111.289
113.507
115.716
117.936
120.186
122.486
124.86
127.336
129.946
132.733
135.762
139.112
142.883
147.245
152.456
158.679
166.085
175.06
185.656
199.294
-149.078
-140.612
-132.29
-124.129
-116.106
-108.236
-100.532
-92.9954
-85.6237
-78.4117
-71.3541
-64.4466
-57.6866
-51.0715
-44.5996
-38.2697
-32.0809
-26.0331
-20.1253
-14.3569
-8.7283
-3.24041
2.10661
7.31325
12.3801
17.3072
22.0944
26.7418
31.2502
35.6212
39.8564
43.9578
47.928
51.7705
55.4885
59.0865
62.5693
65.9415
69.2078
72.3722
75.4404
78.4211
81.3192
84.1354
86.8739
89.5401
92.1389
94.6741
97.1495
99.5705
101.943
104.272
106.566
108.832
111.075
113.306
115.539
117.788
120.075
122.417
124.839
127.368
130.034
132.878
135.956
139.337
143.104
147.392
152.409
158.281
165.134
173.268
182.529
194.256
-148.965
-140.504
-132.186
-124.027
-116.007
-108.139
-100.438
-92.9032
-85.5329
-78.322
-71.2653
-64.3587
-57.5995
-50.9853
-44.5141
-38.1848
-31.9968
-25.9497
-20.0428
-14.2755
-8.64804
-3.16131
2.18456
7.3899
12.4552
17.3803
22.1652
26.81
31.3154
35.6828
39.9138
44.0105
47.9751
51.8109
55.5216
59.1111
62.5839
65.9444
69.1978
72.3457
75.3939
78.3562
81.236
84.0312
86.7463
89.387
91.9594
94.4682
96.9196
99.3192
101.673
103.987
106.269
108.529
110.773
113.014
115.263
117.537
119.852
122.227
124.685
127.253
129.957
132.835
135.936
139.314
143.035
147.2
151.969
157.433
163.679
170.918
178.861
188.76
-148.833
-140.38
-132.066
-123.909
-115.894
-108.03
-100.331
-92.7989
-85.4306
-78.2215
-71.1663
-64.2609
-57.5029
-50.8898
-44.4197
-38.0915
-31.9045
-25.8586
-19.9528
-14.1866
-8.56037
-3.0748
2.2698
7.47362
12.537
17.4598
22.242
26.8838
31.3857
35.7489
39.9752
44.0661
48.0239
51.8514
55.5527
59.1312
62.5907
65.9359
69.1723
72.3013
75.3289
78.2668
81.1194
83.887
86.5716
89.1798
91.7191
94.1975
96.6209
98.9951
101.326
103.618
105.881
108.127
110.366
112.608
114.865
117.151
119.485
121.886
124.376
126.974
129.701
132.592
135.687
139.031
142.669
146.666
151.124
156.112
161.738
168.1
174.814
183.107
-148.681
-140.235
-131.927
-123.774
-115.763
-107.904
-100.209
-92.6809
-85.3155
-78.1088
-71.0558
-64.1525
-57.3963
-50.785
-44.3167
-37.9902
-31.805
-25.7606
-19.8565
-14.092
-8.46745
-2.98368
2.35899
7.56065
12.6215
17.5415
22.3203
26.9583
31.456
35.8143
40.0345
44.1182
48.0675
51.885
55.574
59.1377
62.5802
65.9062
69.1204
72.226
75.2286
78.1368
80.9559
83.6863
86.331
88.8991
91.4014
93.8448
96.2346
98.5774
100.88
103.149
105.396
107.631
109.865
112.105
114.364
116.658
119.002
121.414
123.913
126.517
129.248
132.13
135.193
138.466
141.974
145.762
149.889
154.45
159.446
164.916
170.531
177.412
-148.504
-140.066
-131.765
-123.618
-115.614
-107.761
-100.072
-92.5474
-85.1858
-77.9826
-70.9328
-64.0324
-57.2789
-50.6703
-44.2047
-37.8809
-31.6983
-25.6566
-19.755
-13.9931
-8.37133
-2.89041
2.44925
7.64769
12.705
17.621
22.3954
27.0282
31.52
35.8715
40.0836
44.1577
48.0958
51.8999
55.5728
59.1178
62.5389
65.8407
69.0275
72.1031
75.0733
77.945
80.7223
83.4092
86.0116
88.5389
90.9994
93.4003
95.7488
98.0516
100.318
102.558
104.78
106.996
109.216
111.45
113.709
116.006
118.355
120.771
123.271
125.87
128.586
131.437
134.442
137.618
140.978
144.551
148.361
152.477
156.801
161.413
166.053
171.613
-148.298
-139.871
-131.579
-123.439
-115.443
-107.598
-99.9151
-92.3967
-85.0403
-77.8419
-70.7965
-63.9001
-57.1506
-50.5458
-44.084
-37.7641
-31.5854
-25.5475
-19.6497
-13.8918
-8.27408
-2.79742
2.53772
7.73132
12.7834
17.6936
22.4615
27.0871
31.5707
35.9125
40.1136
44.175
48.0979
51.884
55.5358
59.0569
62.4508
65.7218
68.8742
71.9123
74.8421
77.6687
80.3967
83.0327
85.5839
88.0594
90.4679
92.8176
95.1161
97.373
99.5987
101.803
103.996
106.19
108.393
110.616
112.868
115.16
117.505
119.915
122.403
124.982
127.666
130.465
133.39
136.447
139.637
142.968
146.435
150.055
153.769
157.637
161.394
165.774
-148.06
-139.644
-131.363
-123.233
-115.248
-107.413
-99.7382
-92.2274
-84.878
-77.6861
-70.6467
-63.756
-57.0119
-50.4126
-43.9563
-37.6418
-31.4686
-25.4362
-19.544
-13.7917
-8.17981
-2.70928
2.61931
7.80593
12.8505
17.7525
22.5114
27.1269
31.599
35.9278
40.1139
44.1578
48.06
51.822
55.4465
58.9366
62.2956
65.5275
68.6366
71.628
74.5063
77.2757
79.9444
82.5199
85.0105
87.4257
89.7746
92.066
94.3095
96.5174
98.6995
100.865
103.026
105.192
107.374
109.579
111.816
114.094
116.423
118.812
121.274
123.815
126.447
129.173
131.996
134.914
137.917
140.994
144.113
147.272
150.435
153.651
156.627
160.028
-147.783
-139.38
-131.114
-122.997
-115.025
-107.203
-99.539
-92.0383
-84.6983
-77.5153
-70.4841
-63.6013
-56.8649
-50.2731
-43.8244
-37.5177
-31.3523
-25.3278
-19.4435
-13.6993
-8.09562
-2.63384
2.68538
7.86205
12.896
17.7865
22.5329
27.1344
31.5908
35.9019
40.0677
44.0876
47.9621
51.6929
55.2821
58.7326
62.0474
65.2304
68.2863
71.2199
74.0329
76.7352
79.3352