/*--------------------------------*- C++ -*----------------------------------*\
| =========                 |                                                 |
| \\      /  F ield         | OpenFOAM: The Open Source CFD Toolbox           |
|  \\    /   O peration     | Version:  2412                                  |
|   \\  /    A nd           | Website:  www.openfoam.com                      |
|    \\/     M anipulation  |                                                 |
\*---------------------------------------------------------------------------*/
FoamFile
{
    version     2.0;
    format      ascii;
    arch        "LSB;label=32;scalar=64";
    class       volScalarField;
    location    "80";
    object      nut;
}
// * * * * * * * * * * * * * * * * * * * * * * * * * * * * * * * * * * * * * //

dimensions      [0 2 -1 0 0 0 0];

internalField   nonuniform List<scalar> 
7448
(
1.94064e-11
1.93756e-11
1.93404e-11
1.92969e-11
1.92453e-11
1.91874e-11
1.91231e-11
1.90519e-11
1.89752e-11
1.88937e-11
1.88069e-11
1.87165e-11
1.86229e-11
1.8528e-11
1.84299e-11
1.83294e-11
1.82274e-11
1.81225e-11
1.80163e-11
1.79098e-11
1.7803e-11
1.76962e-11
1.75886e-11
1.74805e-11
1.73712e-11
1.72597e-11
1.7144e-11
1.7021e-11
1.68839e-11
1.67283e-11
1.65563e-11
1.63982e-11
1.63511e-11
1.65959e-11
1.72682e-11
1.82357e-11
1.91755e-11
1.98798e-11
2.03025e-11
2.05033e-11
2.05409e-11
2.04755e-11
2.03387e-11
2.01584e-11
1.99516e-11
1.97305e-11
1.95016e-11
1.92709e-11
1.90415e-11
1.8818e-11
1.85997e-11
1.83866e-11
1.81799e-11
1.79771e-11
1.77793e-11
1.75866e-11
1.7397e-11
1.72106e-11
1.70273e-11
1.68466e-11
1.66692e-11
1.64922e-11
1.63162e-11
1.61426e-11
1.59708e-11
1.57999e-11
1.56291e-11
1.54598e-11
1.52922e-11
1.51266e-11
1.49608e-11
1.47971e-11
1.46349e-11
1.44742e-11
1.43164e-11
1.41592e-11
1.40039e-11
1.38508e-11
1.37003e-11
1.35535e-11
1.34057e-11
1.51077e-09
1.50958e-09
1.50853e-09
1.50705e-09
1.50508e-09
1.50274e-09
1.50002e-09
1.49686e-09
1.49335e-09
1.48958e-09
1.48547e-09
1.48112e-09
1.47657e-09
1.47192e-09
1.46704e-09
1.46195e-09
1.45676e-09
1.45133e-09
1.44577e-09
1.44017e-09
1.4345e-09
1.4288e-09
1.42295e-09
1.41699e-09
1.41082e-09
1.40429e-09
1.39709e-09
1.38887e-09
1.37892e-09
1.36671e-09
1.35281e-09
1.34137e-09
1.34458e-09
1.38479e-09
1.4797e-09
1.61539e-09
1.75186e-09
1.86015e-09
1.93136e-09
1.97181e-09
1.98853e-09
1.98959e-09
1.97963e-09
1.96289e-09
1.94177e-09
1.91835e-09
1.89366e-09
1.8687e-09
1.84395e-09
1.81993e-09
1.79663e-09
1.77417e-09
1.7526e-09
1.73175e-09
1.7116e-09
1.69209e-09
1.67308e-09
1.65456e-09
1.63647e-09
1.61872e-09
1.60129e-09
1.58407e-09
1.56705e-09
1.55026e-09
1.53365e-09
1.51712e-09
1.50068e-09
1.48445e-09
1.46834e-09
1.45239e-09
1.43648e-09
1.42076e-09
1.40518e-09
1.38975e-09
1.37453e-09
1.35942e-09
1.34453e-09
1.32983e-09
1.3154e-09
1.3013e-09
1.28713e-09
1.28371e-08
1.28309e-08
1.28272e-08
1.282e-08
1.28096e-08
1.27963e-08
1.27801e-08
1.27608e-08
1.27387e-08
1.27144e-08
1.26881e-08
1.26602e-08
1.26307e-08
1.26005e-08
1.2569e-08
1.25357e-08
1.25015e-08
1.24662e-08
1.24293e-08
1.23924e-08
1.23548e-08
1.23167e-08
1.22776e-08
1.2237e-08
1.21944e-08
1.21478e-08
1.2094e-08
1.20292e-08
1.19477e-08
1.18449e-08
1.17301e-08
1.16511e-08
1.17411e-08
1.22426e-08
1.33595e-08
1.49539e-08
1.65769e-08
1.78856e-08
1.87669e-08
1.92885e-08
1.95299e-08
1.95848e-08
1.95077e-08
1.93491e-08
1.91369e-08
1.88965e-08
1.86405e-08
1.83813e-08
1.8124e-08
1.78747e-08
1.76336e-08
1.74026e-08
1.71815e-08
1.69693e-08
1.67656e-08
1.65692e-08
1.63788e-08
1.61941e-08
1.60144e-08
1.58385e-08
1.5666e-08
1.54964e-08
1.5329e-08
1.51641e-08
1.50007e-08
1.48387e-08
1.46778e-08
1.4519e-08
1.43612e-08
1.42047e-08
1.40493e-08
1.38955e-08
1.3743e-08
1.35919e-08
1.34427e-08
1.32947e-08
1.31492e-08
1.30054e-08
1.2864e-08
1.27259e-08
1.25874e-08
6.01907e-08
6.01292e-08
6.00678e-08
5.9986e-08
5.98885e-08
5.97739e-08
5.96463e-08
5.95035e-08
5.93485e-08
5.91824e-08
5.90076e-08
5.88259e-08
5.86403e-08
5.84525e-08
5.826e-08
5.80635e-08
5.78646e-08
5.76627e-08
5.74575e-08
5.72525e-08
5.70469e-08
5.68411e-08
5.6633e-08
5.64197e-08
5.61972e-08
5.59582e-08
5.5688e-08
5.53691e-08
5.498e-08
5.45127e-08
5.40291e-08
5.37866e-08
5.44479e-08
5.72247e-08
6.31954e-08
7.16836e-08
8.03072e-08
8.72508e-08
9.19378e-08
9.47394e-08
9.60768e-08
9.64397e-08
9.61112e-08
9.53543e-08
9.43136e-08
9.31233e-08
9.18469e-08
9.05534e-08
8.92676e-08
8.80215e-08
8.68169e-08
8.56636e-08
8.45615e-08
8.3506e-08
8.24943e-08
8.15214e-08
8.05801e-08
7.96677e-08
7.87801e-08
7.79125e-08
7.70636e-08
7.62291e-08
7.54057e-08
7.45942e-08
7.37902e-08
7.29948e-08
7.22049e-08
7.14245e-08
7.06484e-08
6.9879e-08
6.91153e-08
6.83584e-08
6.76085e-08
6.6866e-08
6.61319e-08
6.54049e-08
6.46887e-08
6.39815e-08
6.32859e-08
6.26056e-08
6.19253e-08
2.25332e-07
2.24893e-07
2.24395e-07
2.23793e-07
2.2311e-07
2.2235e-07
2.21523e-07
2.20632e-07
2.19681e-07
2.18679e-07
2.17639e-07
2.16567e-07
2.15478e-07
2.1438e-07
2.13271e-07
2.12149e-07
2.11024e-07
2.09894e-07
2.08761e-07
2.07634e-07
2.06513e-07
2.05398e-07
2.04285e-07
2.03166e-07
2.02027e-07
2.00845e-07
1.99585e-07
1.982e-07
1.96651e-07
1.94965e-07
1.93423e-07
1.92951e-07
1.95745e-07
2.05763e-07
2.26506e-07
2.55344e-07
2.84012e-07
3.06697e-07
3.21836e-07
3.3081e-07
3.35033e-07
3.36093e-07
3.34901e-07
3.32315e-07
3.28796e-07
3.24782e-07
3.20476e-07
3.16112e-07
3.11765e-07
3.07544e-07
3.03453e-07
2.99528e-07
2.95768e-07
2.9216e-07
2.8869e-07
2.85347e-07
2.82109e-07
2.78963e-07
2.75896e-07
2.72895e-07
2.69953e-07
2.67059e-07
2.642e-07
2.61378e-07
2.58581e-07
2.55812e-07
2.53061e-07
2.50339e-07
2.47633e-07
2.4495e-07
2.42284e-07
2.39639e-07
2.3702e-07
2.34425e-07
2.31859e-07
2.2932e-07
2.26815e-07
2.24343e-07
2.2191e-07
2.19529e-07
2.17155e-07
7.36823e-07
7.35114e-07
7.33094e-07
7.30671e-07
7.27919e-07
7.24869e-07
7.2155e-07
7.17979e-07
7.14172e-07
7.10157e-07
7.05973e-07
7.01664e-07
6.97265e-07
6.92817e-07
6.8832e-07
6.83772e-07
6.7919e-07
6.74588e-07
6.6997e-07
6.65363e-07
6.60774e-07
6.562e-07
6.51636e-07
6.47065e-07
6.42455e-07
6.37749e-07
6.32876e-07
6.27761e-07
6.22385e-07
6.16989e-07
6.12587e-07
6.11961e-07
6.21015e-07
6.49072e-07
7.02154e-07
7.70971e-07
8.36202e-07
8.86331e-07
9.19041e-07
9.3787e-07
9.46021e-07
9.47053e-07
9.42967e-07
9.3571e-07
9.26307e-07
9.15762e-07
9.04538e-07
8.93177e-07
8.81842e-07
8.70784e-07
8.6002e-07
8.49631e-07
8.39613e-07
8.29934e-07
8.20567e-07
8.11488e-07
8.02645e-07
7.94008e-07
7.85552e-07
7.77247e-07
7.69069e-07
7.60997e-07
7.53002e-07
7.4509e-07
7.37239e-07
7.29452e-07
7.21709e-07
7.14025e-07
7.06388e-07
6.98807e-07
6.91272e-07
6.83796e-07
6.76382e-07
6.69033e-07
6.61764e-07
6.54571e-07
6.47473e-07
6.40473e-07
6.33576e-07
6.26822e-07
6.20102e-07
2.17965e-06
2.17428e-06
2.16775e-06
2.15983e-06
2.1508e-06
2.14078e-06
2.12982e-06
2.11801e-06
2.10539e-06
2.09207e-06
2.07815e-06
2.06377e-06
2.04906e-06
2.03412e-06
2.019e-06
2.00369e-06
1.98824e-06
1.97269e-06
1.95707e-06
1.94145e-06
1.92587e-06
1.91032e-06
1.89479e-06
1.87928e-06
1.86371e-06
1.84799e-06
1.83201e-06
1.81572e-06
1.79929e-06
1.78365e-06
1.77158e-06
1.76965e-06
1.78942e-06
1.84458e-06
1.93832e-06
2.05079e-06
2.15234e-06
2.22768e-06
2.27466e-06
2.29934e-06
2.30676e-06
2.30262e-06
2.29006e-06
2.27228e-06
2.25092e-06
2.22767e-06
2.20328e-06
2.17867e-06
2.15408e-06
2.12996e-06
2.10631e-06
2.08328e-06
2.06085e-06
2.03898e-06
2.01761e-06
1.9967e-06
1.97618e-06
1.95599e-06
1.93607e-06
1.91641e-06
1.89694e-06
1.87764e-06
1.85846e-06
1.83941e-06
1.82046e-06
1.80162e-06
1.78286e-06
1.76421e-06
1.74564e-06
1.72719e-06
1.70884e-06
1.69063e-06
1.67255e-06
1.65462e-06
1.63688e-06
1.61933e-06
1.60199e-06
1.5849e-06
1.56805e-06
1.55155e-06
1.53515e-06
5.68442e-06
5.66414e-06
5.64095e-06
5.61457e-06
5.58562e-06
5.5544e-06
5.52111e-06
5.48587e-06
5.44889e-06
5.41032e-06
5.37039e-06
5.32938e-06
5.28758e-06
5.24525e-06
5.20251e-06
5.15946e-06
5.11619e-06
5.07275e-06
5.02925e-06
4.9858e-06
4.94251e-06
4.89943e-06
4.85655e-06
4.81388e-06
4.77135e-06
4.72885e-06
4.68629e-06
4.64368e-06
4.60142e-06
4.56102e-06
4.5267e-06
4.50774e-06
4.51917e-06
4.57629e-06
4.67891e-06
4.80024e-06
4.90548e-06
4.97836e-06
5.01718e-06
5.02946e-06
5.021e-06
4.99868e-06
4.96614e-06
4.92732e-06
4.88412e-06
4.83868e-06
4.79181e-06
4.74473e-06
4.69764e-06
4.65116e-06
4.60522e-06
4.56005e-06
4.51561e-06
4.4718e-06
4.42859e-06
4.3859e-06
4.34364e-06
4.30175e-06
4.26017e-06
4.21882e-06
4.17771e-06
4.13677e-06
4.09593e-06
4.05524e-06
4.01466e-06
3.97419e-06
3.93388e-06
3.89368e-06
3.85365e-06
3.81381e-06
3.77416e-06
3.73477e-06
3.69566e-06
3.65688e-06
3.61848e-06
3.58047e-06
3.54288e-06
3.50587e-06
3.46935e-06
3.43357e-06
3.39807e-06
1.23519e-05
1.22937e-05
1.2231e-05
1.21635e-05
1.20919e-05
1.20169e-05
1.19386e-05
1.18575e-05
1.17738e-05
1.16876e-05
1.15994e-05
1.15095e-05
1.14182e-05
1.13261e-05
1.12334e-05
1.11405e-05
1.10475e-05
1.09545e-05
1.08616e-05
1.0769e-05
1.06769e-05
1.05853e-05
1.04944e-05
1.04042e-05
1.03146e-05
1.02256e-05
1.01371e-05
1.00492e-05
9.96228e-06
9.87806e-06
9.80095e-06
9.74042e-06
9.71143e-06
9.72831e-06
9.78922e-06
9.8668e-06
9.92768e-06
9.95729e-06
9.95444e-06
9.92678e-06
9.8796e-06
9.81968e-06
9.75014e-06
9.67491e-06
9.59559e-06
9.51434e-06
9.43171e-06
9.34903e-06
9.26627e-06
9.18418e-06
9.10251e-06
9.02155e-06
8.94124e-06
8.86145e-06
8.78211e-06
8.70316e-06
8.6245e-06
8.54606e-06
8.46779e-06
8.38962e-06
8.3116e-06
8.23364e-06
8.15564e-06
8.07771e-06
7.99987e-06
7.92207e-06
7.84446e-06
7.76695e-06
7.68972e-06
7.61277e-06
7.53614e-06
7.45995e-06
7.38428e-06
7.3092e-06
7.23483e-06
7.16123e-06
7.08838e-06
7.01669e-06
6.94589e-06
6.87647e-06
6.80769e-06
2.28606e-05
2.27333e-05
2.26021e-05
2.24655e-05
2.23243e-05
2.21792e-05
2.20305e-05
2.18789e-05
2.17246e-05
2.15677e-05
2.14085e-05
2.12473e-05
2.10843e-05
2.09203e-05
2.07561e-05
2.05919e-05
2.04282e-05
2.0265e-05
2.01024e-05
1.99406e-05
1.97799e-05
1.96203e-05
1.9462e-05
1.93051e-05
1.91496e-05
1.89955e-05
1.88428e-05
1.86916e-05
1.85422e-05
1.83963e-05
1.82575e-05
1.81336e-05
1.8037e-05
1.79788e-05
1.79569e-05
1.79483e-05
1.79255e-05
1.78776e-05
1.78037e-05
1.77106e-05
1.76024e-05
1.74847e-05
1.73596e-05
1.72306e-05
1.70983e-05
1.6965e-05
1.68305e-05
1.66963e-05
1.65618e-05
1.64279e-05
1.62942e-05
1.61609e-05
1.60281e-05
1.58954e-05
1.57628e-05
1.56303e-05
1.54977e-05
1.5365e-05
1.52321e-05
1.50991e-05
1.4966e-05
1.48327e-05
1.4699e-05
1.45653e-05
1.44315e-05
1.42976e-05
1.41639e-05
1.40303e-05
1.3897e-05
1.37641e-05
1.36317e-05
1.35e-05
1.33691e-05
1.32392e-05
1.31105e-05
1.29831e-05
1.28569e-05
1.27327e-05
1.261e-05
1.24896e-05
1.23704e-05
3.73016e-05
3.70727e-05
3.68435e-05
3.66104e-05
3.6374e-05
3.61345e-05
3.58924e-05
3.56485e-05
3.54032e-05
3.51562e-05
3.49075e-05
3.46571e-05
3.4405e-05
3.41521e-05
3.38995e-05
3.36479e-05
3.33977e-05
3.31489e-05
3.29016e-05
3.2656e-05
3.24122e-05
3.21704e-05
3.19307e-05
3.16932e-05
3.1458e-05
3.12251e-05
3.09945e-05
3.07665e-05
3.05413e-05
3.032e-05
3.01054e-05
2.99031e-05
2.97217e-05
2.95686e-05
2.94419e-05
2.93244e-05
2.91967e-05
2.90514e-05
2.88878e-05
2.87118e-05
2.85255e-05
2.83337e-05
2.81369e-05
2.79381e-05
2.77371e-05
2.7536e-05
2.73339e-05
2.71323e-05
2.69302e-05
2.67287e-05
2.65269e-05
2.63252e-05
2.61235e-05
2.59214e-05
2.5719e-05
2.55162e-05
2.53128e-05
2.51088e-05
2.49043e-05
2.46991e-05
2.44933e-05
2.42872e-05
2.40803e-05
2.3873e-05
2.36654e-05
2.34576e-05
2.32499e-05
2.30421e-05
2.28349e-05
2.26281e-05
2.2422e-05
2.2217e-05
2.20131e-05
2.18107e-05
2.16101e-05
2.14115e-05
2.12147e-05
2.10209e-05
2.08295e-05
2.06414e-05
2.04555e-05
5.52435e-05
5.48857e-05
5.45344e-05
5.41832e-05
5.38314e-05
5.34791e-05
5.31264e-05
5.27745e-05
5.24238e-05
5.20735e-05
5.17232e-05
5.13723e-05
5.10203e-05
5.0668e-05
5.03168e-05
4.9968e-05
4.96221e-05
4.92789e-05
4.89385e-05
4.86008e-05
4.8266e-05
4.79339e-05
4.76049e-05
4.7279e-05
4.69563e-05
4.66367e-05
4.63203e-05
4.60073e-05
4.56978e-05
4.53926e-05
4.50936e-05
4.48043e-05
4.45299e-05
4.42745e-05
4.40363e-05
4.3804e-05
4.35648e-05
4.33147e-05
4.30529e-05
4.27844e-05
4.25095e-05
4.22323e-05
4.1952e-05
4.16713e-05
4.13893e-05
4.11078e-05
4.08252e-05
4.05434e-05
4.02608e-05
3.99787e-05
3.96957e-05
3.94124e-05
3.91286e-05
3.88439e-05
3.85584e-05
3.82719e-05
3.79843e-05
3.76955e-05
3.74056e-05
3.71146e-05
3.68226e-05
3.65298e-05
3.62358e-05
3.59411e-05
3.56458e-05
3.53501e-05
3.50544e-05
3.47586e-05
3.44635e-05
3.41689e-05
3.38753e-05
3.35831e-05
3.32925e-05
3.30039e-05
3.27178e-05
3.24345e-05
3.21539e-05
3.18773e-05
3.16041e-05
3.13352e-05
3.10701e-05
7.59582e-05
7.54533e-05
7.4964e-05
7.44805e-05
7.40006e-05
7.35238e-05
7.30501e-05
7.25809e-05
7.21163e-05
7.16554e-05
7.11971e-05
7.074e-05
7.02829e-05
6.98263e-05
6.9372e-05
6.89217e-05
6.84761e-05
6.80348e-05
6.75978e-05
6.71648e-05
6.67357e-05
6.63103e-05
6.58888e-05
6.54713e-05
6.50578e-05
6.46481e-05
6.42421e-05
6.38402e-05
6.34421e-05
6.30485e-05
6.26604e-05
6.22799e-05
6.19095e-05
6.15512e-05
6.12032e-05
6.08586e-05
6.05094e-05
6.01543e-05
5.97919e-05
5.94267e-05
5.90578e-05
5.86888e-05
5.83175e-05
5.79471e-05
5.75755e-05
5.7205e-05
5.68332e-05
5.64624e-05
5.60902e-05
5.57185e-05
5.53454e-05
5.49714e-05
5.45966e-05
5.42204e-05
5.38428e-05
5.34636e-05
5.30828e-05
5.27003e-05
5.23162e-05
5.19303e-05
5.15431e-05
5.11547e-05
5.07648e-05
5.03737e-05
4.99819e-05
4.95894e-05
4.91969e-05
4.88043e-05
4.84124e-05
4.80214e-05
4.76316e-05
4.72436e-05
4.68577e-05
4.64744e-05
4.60943e-05
4.5718e-05
4.53452e-05
4.49775e-05
4.46143e-05
4.42566e-05
4.39042e-05
9.86852e-05
9.80235e-05
9.73873e-05
9.67637e-05
9.61487e-05
9.5541e-05
9.49403e-05
9.43484e-05
9.37655e-05
9.31899e-05
9.26204e-05
9.20544e-05
9.14898e-05
9.09267e-05
9.03674e-05
8.98137e-05
8.92668e-05
8.8726e-05
8.8191e-05
8.76614e-05
8.7137e-05
8.66172e-05
8.6102e-05
8.55916e-05
8.5086e-05
8.45846e-05
8.40873e-05
8.35943e-05
8.31053e-05
8.26205e-05
8.21405e-05
8.16664e-05
8.11991e-05
8.07391e-05
8.0285e-05
7.98325e-05
7.9377e-05
7.89186e-05
7.84556e-05
7.79922e-05
7.75264e-05
7.70617e-05
7.65952e-05
7.61299e-05
7.56636e-05
7.51985e-05
7.47319e-05
7.42663e-05
7.3799e-05
7.33321e-05
7.28631e-05
7.2393e-05
7.19216e-05
7.14485e-05
7.09734e-05
7.04962e-05
7.00169e-05
6.95356e-05
6.90521e-05
6.85666e-05
6.80791e-05
6.75903e-05
6.70996e-05
6.66077e-05
6.61146e-05
6.56208e-05
6.5127e-05
6.46332e-05
6.41402e-05
6.36484e-05
6.31581e-05
6.26702e-05
6.21848e-05
6.17028e-05
6.12247e-05
6.07514e-05
6.02824e-05
5.98196e-05
5.93627e-05
5.8912e-05
5.84689e-05
0.000122826
0.000122004
0.000121216
0.000120447
0.000119693
0.00011895
0.000118217
0.000117499
0.000116793
0.000116099
0.000115415
0.000114737
0.000114062
0.000113391
0.000112724
0.000112064
0.000111413
0.000110771
0.000110136
0.000109508
0.000108886
0.000108269
0.000107658
0.000107053
0.000106453
0.000105857
0.000105266
0.00010468
0.000104097
0.000103518
0.000102943
0.000102372
0.000101806
0.000101244
0.000100686
0.000100128
9.95682e-05
9.9007e-05
9.84428e-05
9.78792e-05
9.73139e-05
9.67502e-05
9.61847e-05
9.56206e-05
9.50553e-05
9.44914e-05
9.39256e-05
9.33608e-05
9.27941e-05
9.22276e-05
9.16588e-05
9.10884e-05
9.05166e-05
8.99427e-05
8.93666e-05
8.87879e-05
8.82069e-05
8.76235e-05
8.70377e-05
8.64494e-05
8.5859e-05
8.52672e-05
8.46731e-05
8.40778e-05
8.34812e-05
8.2884e-05
8.22867e-05
8.16898e-05
8.10939e-05
8.04995e-05
7.99071e-05
7.93175e-05
7.87312e-05
7.81488e-05
7.75713e-05
7.69994e-05
7.64329e-05
7.58737e-05
7.53216e-05
7.47766e-05
7.42414e-05
0.000148018
0.000147033
0.000146091
0.000145174
0.000144274
0.000143391
0.000142522
0.000141671
0.000140837
0.000140019
0.000139214
0.000138419
0.000137629
0.000136843
0.000136063
0.000135293
0.000134533
0.000133783
0.000133043
0.000132311
0.000131586
0.000130868
0.000130157
0.000129451
0.000128752
0.000128057
0.000127367
0.000126681
0.000125999
0.00012532
0.000124645
0.000123973
0.000123304
0.000122638
0.000121973
0.000121308
0.000120642
0.000119976
0.000119307
0.000118639
0.00011797
0.000117302
0.000116633
0.000115965
0.000115296
0.000114628
0.000113958
0.000113289
0.000112618
0.000111947
0.000111274
0.000110599
0.000109922
0.000109243
0.000108562
0.000107879
0.000107192
0.000106503
0.000105812
0.000105118
0.000104422
0.000103725
0.000103025
0.000102324
0.000101622
0.000100919
0.000100217
9.95149e-05
9.88145e-05
9.81161e-05
9.74202e-05
9.67278e-05
9.60394e-05
9.53558e-05
9.46778e-05
9.40065e-05
9.33417e-05
9.26851e-05
9.20371e-05
9.1397e-05
9.07692e-05
0.000174106
0.00017296
0.000171862
0.000170792
0.000169744
0.000168714
0.000167701
0.000166709
0.000165739
0.000164788
0.000163854
0.000162933
0.000162018
0.000161109
0.000160208
0.000159318
0.00015844
0.000157574
0.000156719
0.000155874
0.000155039
0.00015421
0.000153389
0.000152575
0.000151767
0.000150965
0.000150167
0.000149373
0.000148583
0.000147796
0.000147012
0.00014623
0.000145451
0.000144673
0.000143896
0.000143119
0.00014234
0.000141562
0.000140781
0.000140002
0.000139222
0.000138443
0.000137662
0.000136882
0.000136102
0.000135322
0.000134541
0.000133761
0.000132978
0.000132197
0.000131412
0.000130627
0.000129839
0.00012905
0.000128258
0.000127464
0.000126667
0.000125868
0.000125066
0.000124262
0.000123456
0.000122649
0.00012184
0.000121029
0.000120218
0.000119407
0.000118596
0.000117786
0.000116979
0.000116174
0.000115372
0.000114574
0.000113782
0.000112995
0.000112214
0.000111442
0.000110677
0.000109921
0.000109175
0.000108438
0.000107717
0.000201078
0.000199778
0.000198525
0.000197302
0.000196101
0.000194918
0.000193754
0.000192612
0.000191495
0.0001904
0.000189326
0.000188266
0.000187216
0.000186173
0.000185138
0.000184115
0.000183106
0.000182111
0.000181129
0.000180159
0.000179199
0.000178248
0.000177305
0.000176369
0.000175441
0.000174518
0.0001736
0.000172686
0.000171776
0.000170869
0.000169964
0.000169061
0.000168159
0.000167259
0.000166359
0.000165459
0.000164558
0.000163657
0.000162754
0.000161853
0.00016095
0.000160049
0.000159146
0.000158245
0.000157342
0.000156441
0.000155539
0.000154637
0.000153734
0.000152832
0.000151928
0.000151022
0.000150115
0.000149207
0.000148296
0.000147383
0.000146469
0.000145552
0.000144633
0.000143711
0.000142788
0.000141865
0.00014094
0.000140014
0.000139088
0.000138163
0.000137238
0.000136316
0.000135396
0.000134479
0.000133567
0.00013266
0.000131758
0.000130864
0.000129977
0.000129099
0.00012823
0.000127372
0.000126525
0.000125688
0.000124869
0.000228991
0.000227554
0.000226156
0.000224783
0.000223428
0.00022209
0.000220769
0.000219469
0.000218195
0.000216945
0.000215718
0.000214508
0.000213308
0.000212116
0.000210933
0.000209763
0.000208608
0.000207469
0.000206344
0.000205233
0.000204133
0.000203043
0.000201962
0.000200889
0.000199824
0.000198765
0.000197711
0.000196662
0.000195616
0.000194573
0.000193532
0.000192492
0.000191455
0.000190417
0.00018938
0.000188343
0.000187305
0.000186268
0.000185229
0.000184191
0.000183152
0.000182115
0.000181077
0.00018004
0.000179002
0.000177966
0.000176929
0.000175893
0.000174857
0.000173822
0.000172786
0.000171748
0.00017071
0.000169671
0.000168631
0.000167589
0.000166545
0.0001655
0.000164454
0.000163406
0.000162357
0.000161308
0.000160258
0.000159209
0.000158159
0.000157112
0.000156065
0.000155022
0.000153982
0.000152947
0.000151917
0.000150893
0.000149877
0.000148868
0.000147868
0.000146879
0.0001459
0.000144933
0.000143979
0.000143037
0.000142115
0.00025791
0.00025637
0.00025485
0.000253342
0.000251843
0.000250353
0.000248875
0.000247414
0.000245976
0.000244563
0.000243172
0.000241799
0.000240436
0.000239082
0.000237735
0.000236402
0.000235085
0.000233785
0.0002325
0.000231229
0.000229971
0.000228725
0.000227487
0.000226259
0.000225039
0.000223826
0.000222618
0.000221415
0.000220215
0.000219018
0.000217823
0.000216629
0.000215437
0.000214246
0.000213054
0.000211862
0.00021067
0.000209479
0.000208287
0.000207095
0.000205904
0.000204714
0.000203523
0.000202333
0.000201144
0.000199957
0.00019877
0.000197585
0.0001964
0.000195216
0.000194033
0.000192849
0.000191666
0.000190482
0.000189298
0.000188114
0.000186928
0.000185742
0.000184556
0.000183369
0.000182181
0.000180995
0.000179809
0.000178624
0.000177441
0.00017626
0.000175081
0.000173907
0.000172737
0.000171574
0.000170416
0.000169266
0.000168125
0.000166993
0.000165872
0.000164762
0.000163665
0.000162581
0.000161513
0.000160456
0.000159425
0.000287867
0.00028628
0.00028468
0.000283071
0.000281452
0.000279827
0.000278202
0.000276585
0.000274985
0.000273404
0.000271844
0.000270299
0.000268764
0.000267235
0.000265713
0.000264203
0.000262707
0.000261229
0.000259766
0.000258319
0.000256885
0.000255462
0.000254049
0.000252646
0.000251252
0.000249864
0.000248482
0.000247105
0.000245732
0.000244361
0.000242991
0.000241624
0.000240257
0.000238891
0.000237525
0.000236159
0.000234794
0.000233429
0.000232063
0.000230699
0.000229334
0.000227972
0.000226609
0.000225249
0.000223889
0.000222532
0.000221176
0.000219823
0.000218471
0.000217122
0.000215774
0.000214426
0.000213081
0.000211736
0.000210392
0.000209048
0.000207705
0.000206363
0.000205021
0.00020368
0.00020234
0.000201002
0.000199666
0.000198332
0.000197001
0.000195673
0.00019435
0.000193032
0.00019172
0.000190415
0.000189118
0.000187831
0.000186553
0.000185287
0.000184033
0.000182792
0.000181566
0.000180355
0.000179161
0.000177981
0.00017683
0.000318814
0.000317271
0.000315664
0.00031401
0.000312316
0.000310593
0.000308849
0.000307096
0.000305346
0.000303607
0.00030188
0.000300164
0.000298454
0.000296745
0.000295038
0.00029334
0.000291655
0.000289984
0.000288329
0.000286688
0.00028506
0.000283444
0.000281837
0.00028024
0.000278651
0.000277069
0.000275493
0.000273922
0.000272353
0.000270787
0.000269223
0.00026766
0.000266097
0.000264536
0.000262974
0.000261413
0.000259851
0.000258291
0.00025673
0.000255171
0.000253613
0.000252057
0.000250501
0.000248948
0.000247397
0.000245849
0.000244304
0.000242762
0.000241223
0.000239688
0.000238156
0.000236626
0.000235098
0.000233573
0.000232051
0.00023053
0.000229011
0.000227495
0.00022598
0.000224468
0.000222958
0.000221452
0.000219949
0.00021845
0.000216955
0.000215466
0.000213982
0.000212505
0.000211036
0.000209576
0.000208126
0.000206686
0.000205259
0.000203844
0.000202444
0.00020106
0.000199691
0.000198341
0.000197009
0.000195694
0.000194411
0.000350602
0.000349232
0.000347727
0.00034612
0.000344427
0.000342667
0.000340856
0.000339008
0.000337142
0.000335269
0.000333394
0.00033152
0.000329642
0.000327757
0.000325868
0.00032398
0.000322099
0.000320229
0.000318371
0.000316525
0.00031469
0.000312865
0.000311049
0.00030924
0.000307439
0.000305645
0.000303855
0.000302069
0.000300286
0.000298505
0.000296724
0.000294944
0.000293165
0.000291386
0.000289606
0.000287827
0.000286048
0.00028427
0.000282492
0.000280716
0.00027894
0.000277168
0.000275397
0.000273629
0.000271863
0.000270103
0.000268346
0.000266593
0.000264845
0.000263103
0.000261364
0.00025963
0.000257899
0.000256174
0.000254452
0.000252734
0.000251019
0.000249309
0.000247602
0.0002459
0.000244201
0.000242508
0.00024082
0.000239138
0.000237462
0.000235793
0.000234132
0.000232479
0.000230836
0.000229204
0.000227584
0.000225977
0.000224383
0.000222805
0.000221244
0.0002197
0.000218175
0.00021667
0.000215186
0.000213722
0.000212292
0.000382941
0.000381923
0.000380675
0.000379246
0.000377669
0.000375971
0.000374175
0.000372304
0.00037038
0.000368422
0.00036644
0.000364439
0.000362419
0.000360379
0.000358322
0.000356255
0.000354186
0.000352119
0.000350057
0.000348003
0.000345955
0.000343913
0.000341877
0.000339846
0.00033782
0.000335798
0.000333779
0.000331763
0.000329747
0.000327732
0.000325717
0.000323701
0.000321684
0.000319667
0.000317649
0.000315631
0.000313612
0.000311595
0.000309577
0.00030756
0.000305545
0.000303534
0.000301524
0.000299518
0.000297516
0.000295519
0.000293527
0.000291541
0.000289561
0.000287587
0.00028562
0.000283659
0.000281703
0.000279754
0.000277811
0.000275874
0.000273942
0.000272016
0.000270096
0.000268183
0.000266275
0.000264375
0.000262482
0.000260597
0.00025872
0.000256852
0.000254994
0.000253147
0.000251312
0.000249489
0.000247681
0.000245888
0.000244111
0.000242352
0.000240612
0.000238892
0.000237193
0.000235517
0.000233865
0.000232235
0.000230643
0.000415367
0.00041494
0.000414157
0.00041309
0.000411789
0.000410294
0.000408638
0.000406851
0.000404964
0.000403001
0.00040098
0.000398912
0.000396801
0.000394648
0.00039246
0.000390244
0.00038801
0.000385765
0.000383514
0.000381261
0.000379006
0.000376751
0.000374495
0.000372239
0.000369983
0.000367727
0.00036547
0.000363213
0.000360954
0.000358692
0.000356428
0.000354161
0.000351891
0.000349619
0.000347345
0.000345069
0.000342791
0.000340514
0.000338236
0.000335959
0.000333683
0.00033141
0.00032914
0.000326874
0.000324612
0.000322356
0.000320106
0.000317864
0.000315628
0.000313402
0.000311182
0.000308971
0.000306767
0.000304572
0.000302385
0.000300205
0.000298034
0.000295871
0.000293716
0.000291569
0.000289431
0.000287302
0.000285182
0.000283073
0.000280975
0.000278887
0.000276812
0.00027475
0.000272702
0.000270669
0.000268653
0.000266655
0.000264675
0.000262716
0.000260777
0.000258862
0.000256971
0.000255105
0.000253267
0.000251452
0.000249681
0.00044721
0.000447678
0.000447633
0.000447172
0.000446363
0.000445263
0.000443919
0.000442371
0.000440658
0.000438812
0.000436859
0.000434817
0.000432698
0.000430506
0.00042825
0.00042594
0.00042359
0.000421208
0.000418804
0.000416381
0.000413944
0.000411494
0.000409034
0.000406564
0.000404087
0.000401602
0.000399111
0.000396613
0.000394108
0.000391596
0.000389077
0.000386551
0.00038402
0.000381483
0.000378941
0.000376394
0.000373844
0.000371292
0.000368738
0.000366183
0.000363629
0.000361077
0.000358527
0.000355981
0.00035344
0.000350905
0.000348376
0.000345856
0.000343344
0.000340841
0.000338348
0.000335864
0.00033339
0.000330926
0.000328472
0.000326029
0.000323595
0.000321172
0.000318759
0.000316357
0.000313965
0.000311585
0.000309218
0.000306863
0.00030452
0.000302192
0.000299878
0.00029758
0.000295298
0.000293034
0.000290788
0.000288563
0.00028636
0.000284179
0.000282023
0.000279892
0.000277788
0.000275712
0.000273666
0.000271648
0.000269676
0.000477552
0.000479296
0.000480333
0.000480787
0.000480752
0.000480302
0.0004795
0.000478399
0.000477046
0.000475487
0.000473755
0.000471878
0.000469873
0.000467752
0.000465529
0.000463216
0.00046083
0.000458384
0.000455888
0.000453351
0.000450781
0.00044818
0.000445553
0.000442902
0.000440231
0.000437541
0.000434835
0.000432112
0.000429374
0.000426622
0.000423856
0.000421077
0.000418286
0.000415484
0.000412673
0.000409853
0.000407025
0.000404192
0.000401354
0.000398513
0.000395669
0.000392827
0.000389984
0.000387145
0.000384309
0.000381479
0.000378655
0.00037584
0.000373033
0.000370236
0.00036745
0.000364675
0.00036191
0.000359157
0.000356416
0.000353687
0.00035097
0.000348266
0.000345574
0.000342895
0.000340229
0.000337577
0.000334939
0.000332316
0.000329709
0.000327118
0.000324543
0.000321986
0.000319449
0.000316931
0.000314435
0.000311962
0.000309513
0.000307089
0.000304692
0.000302323
0.000299984
0.000297677
0.000295402
0.000293158
0.000290963
0.000505173
0.000508662
0.000511208
0.000512967
0.000514059
0.000514583
0.000514619
0.000514235
0.000513492
0.000512446
0.000511142
0.000509617
0.000507899
0.000506008
0.000503961
0.000501777
0.000499476
0.000497074
0.000494587
0.000492027
0.000489404
0.000486726
0.000483998
0.000481226
0.000478415
0.000475569
0.00047269
0.000469781
0.000466844
0.000463882
0.000460895
0.000457885
0.000454855
0.000451806
0.000448739
0.000445657
0.000442561
0.000439454
0.000436337
0.000433212
0.00043008
0.000426946
0.000423808
0.000420671
0.000417535
0.000414403
0.000411276
0.000408155
0.000405043
0.00040194
0.000398848
0.000395767
0.000392698
0.000389641
0.000386597
0.000383566
0.000380548
0.000377545
0.000374556
0.000371582
0.000368622
0.000365678
0.000362751
0.000359841
0.000356948
0.000354073
0.000351218
0.000348382
0.000345568
0.000342776
0.000340008
0.000337264
0.000334547
0.000331858
0.000329199
0.00032657
0.000323973
0.000321411
0.000318885
0.000316391
0.000313951
0.000528501
0.000534303
0.000538878
0.00054242
0.000545079
0.00054698
0.000548225
0.000548902
0.000549085
0.000548844
0.000548238
0.000547315
0.000546113
0.000544662
0.000542988
0.000541114
0.000539065
0.000536862
0.000534527
0.000532076
0.000529523
0.00052688
0.000524155
0.000521357
0.000518493
0.00051557
0.000512593
0.000509565
0.000506492
0.000503377
0.000500221
0.000497029
0.000493803
0.000490546
0.00048726
0.000483948
0.000480614
0.000477258
0.000473885
0.000470496
0.000467094
0.000463683
0.000460264
0.000456839
0.000453411
0.000449983
0.000446557
0.000443134
0.000439717
0.000436308
0.000432907
0.000429517
0.000426137
0.00042277
0.000419415
0.000416073
0.000412745
0.000409432
0.000406135
0.000402853
0.000399586
0.000396337
0.000393105
0.000389892
0.000386698
0.000383524
0.00038037
0.000377239
0.000374129
0.000371044
0.000367984
0.000364951
0.000361947
0.000358972
0.000356028
0.000353117
0.000350242
0.000347401
0.0003446
0.000341835
0.000339124
0.000545544
0.000554337
0.000561569
0.000567473
0.000572234
0.000576007
0.000578921
0.000581083
0.000582587
0.000583519
0.000583951
0.000583946
0.000583555
0.000582819
0.000581772
0.000580447
0.000578873
0.000577079
0.00057509
0.000572929
0.000570615
0.000568164
0.000565589
0.000562902
0.000560114
0.000557234
0.00055427
0.000551228
0.000548116
0.000544938
0.000541699
0.000538403
0.000535056
0.00053166
0.000528219
0.000524738
0.00052122
0.000517669
0.000514088
0.00051048
0.000506849
0.000503199
0.000499532
0.000495852
0.000492161
0.000488464
0.000484762
0.000481058
0.000477355
0.000473655
0.00046996
0.000466271
0.000462591
0.000458921
0.000455261
0.000451613
0.000447978
0.000444356
0.000440749
0.000437158
0.000433582
0.000430023
0.000426482
0.00042296
0.000419457
0.000415974
0.000412513
0.000409074
0.000405658
0.000402267
0.000398903
0.000395566
0.000392258
0.000388981
0.000385736
0.000382526
0.000379351
0.000376214
0.000373118
0.000370058
0.000367055
0.000553821
0.000566407
0.000577043
0.000586002
0.000593509
0.000599752
0.000604891
0.000609057
0.000612367
0.000614923
0.000616816
0.000618124
0.000618913
0.000619237
0.000619142
0.000618669