/*--------------------------------*- C++ -*----------------------------------*\
| =========                 |                                                 |
| \\      /  F ield         | OpenFOAM: The Open Source CFD Toolbox           |
|  \\    /   O peration     | Version:  2412                                  |
|   \\  /    A nd           | Website:  www.openfoam.com                      |
|    \\/     M anipulation  |                                                 |
\*---------------------------------------------------------------------------*/
FoamFile
{
    version     2.0;
    format      ascii;
    arch        "LSB;label=32;scalar=64";
    class       volScalarField;
    location    "80";
    object      nut;
}
// * * * * * * * * * * * * * * * * * * * * * * * * * * * * * * * * * * * * * //

dimensions      [0 2 -1 0 0 0 0];

internalField   nonuniform List<scalar> 
7423
(
3.60332e-10
7.0265e-10
7.59162e-10
6.48051e-10
3.85756e-10
1.83716e-10
9.96673e-11
3.55665e-11
2.71567e-11
2.1573e-11
1.85141e-11
1.70091e-11
1.55879e-11
1.40796e-11
1.4273e-11
1.45941e-11
1.49393e-11
1.52635e-11
1.55191e-11
1.5721e-11
1.58521e-11
1.59346e-11
1.59556e-11
1.59376e-11
1.58721e-11
1.57752e-11
1.56404e-11
1.54823e-11
1.52944e-11
1.5084e-11
1.48519e-11
1.46006e-11
1.43329e-11
1.40511e-11
1.37573e-11
1.34544e-11
1.31447e-11
1.28297e-11
1.25115e-11
1.21922e-11
1.18745e-11
1.15587e-11
1.12467e-11
1.09403e-11
1.06395e-11
1.03461e-11
1.00611e-11
9.78522e-12
9.51863e-12
9.26145e-12
9.01498e-12
8.77865e-12
8.55249e-12
8.33701e-12
8.13265e-12
7.93832e-12
7.75442e-12
7.58103e-12
7.41883e-12
7.26801e-12
7.12881e-12
7.00273e-12
6.89075e-12
6.79484e-12
6.71946e-12
6.66965e-12
6.65208e-12
6.67332e-12
6.73997e-12
6.85524e-12
7.02144e-12
7.23549e-12
7.4861e-12
7.75087e-12
8.0094e-12
8.27094e-12
3.00345e-08
7.20434e-08
8.60819e-08
8.02996e-08
5.19671e-08
2.56102e-08
1.32937e-08
2.71763e-09
2.249e-09
1.91707e-09
1.7541e-09
1.72429e-09
1.5667e-09
1.38964e-09
1.39801e-09
1.42452e-09
1.45399e-09
1.48206e-09
1.50412e-09
1.52137e-09
1.53224e-09
1.53873e-09
1.53961e-09
1.53692e-09
1.52993e-09
1.52008e-09
1.50675e-09
1.49123e-09
1.47296e-09
1.4526e-09
1.43027e-09
1.40612e-09
1.38042e-09
1.35338e-09
1.32522e-09
1.29615e-09
1.26644e-09
1.23622e-09
1.20566e-09
1.17497e-09
1.14439e-09
1.11397e-09
1.08387e-09
1.05426e-09
1.02518e-09
9.96748e-10
9.69094e-10
9.42275e-10
9.16329e-10
8.91253e-10
8.67179e-10
8.44078e-10
8.21936e-10
8.00788e-10
7.80696e-10
7.61592e-10
7.43451e-10
7.26293e-10
7.10197e-10
6.95174e-10
6.81227e-10
6.68478e-10
6.57054e-10
6.47114e-10
6.39025e-10
6.33274e-10
6.30492e-10
6.31275e-10
6.36249e-10
6.45853e-10
6.6048e-10
6.80023e-10
7.03602e-10
7.29105e-10
7.54507e-10
7.80556e-10
2.35921e-07
5.55862e-07
7.16728e-07
7.1973e-07
5.0682e-07
2.70225e-07
1.47649e-07
2.47599e-08
1.97629e-08
1.70557e-08
1.62308e-08
1.70362e-08
1.54256e-08
1.41808e-08
1.40772e-08
1.42696e-08
1.45047e-08
1.47332e-08
1.49126e-08
1.50501e-08
1.51311e-08
1.5173e-08
1.51658e-08
1.51255e-08
1.50473e-08
1.49425e-08
1.48068e-08
1.46506e-08
1.44691e-08
1.42683e-08
1.40491e-08
1.38131e-08
1.35624e-08
1.3299e-08
1.30247e-08
1.27416e-08
1.24516e-08
1.21567e-08
1.18584e-08
1.15583e-08
1.12583e-08
1.09597e-08
1.06635e-08
1.03714e-08
1.00841e-08
9.8024e-09
9.52769e-09
9.26056e-09
9.00137e-09
8.75051e-09
8.5089e-09
8.27662e-09
8.05349e-09
7.83971e-09
7.63577e-09
7.44154e-09
7.25633e-09
7.0804e-09
6.91433e-09
6.75831e-09
6.6124e-09
6.47737e-09
6.35438e-09
6.24496e-09
6.15215e-09
6.08029e-09
6.03499e-09
6.02202e-09
6.04787e-09
6.11868e-09
6.24106e-09
6.41727e-09
6.64131e-09
6.89274e-09
7.15067e-09
7.41984e-09
8.72544e-07
1.86192e-06
2.63844e-06
2.86971e-06
2.20828e-06
1.29208e-06
7.52556e-07
1.44643e-07
1.05392e-07
8.16254e-08
7.46013e-08
8.09825e-08
7.33885e-08
7.37553e-08
7.19311e-08
7.24174e-08
7.32233e-08
7.40446e-08
7.46843e-08
7.51533e-08
7.53892e-08
7.54527e-08
7.53102e-08
7.50203e-08
7.45669e-08
7.39972e-08
7.32914e-08
7.24927e-08
7.15839e-08
7.05865e-08
6.95048e-08
6.83466e-08
6.71187e-08
6.58316e-08
6.4492e-08
6.31094e-08
6.16922e-08
6.02493e-08
5.87871e-08
5.73141e-08
5.58378e-08
5.4364e-08
5.28987e-08
5.14485e-08
5.00181e-08
4.86114e-08
4.72341e-08
4.58905e-08
4.45824e-08
4.33127e-08
4.20859e-08
4.09024e-08
3.97622e-08
3.86664e-08
3.76168e-08
3.6613e-08
3.5652e-08
3.47343e-08
3.38622e-08
3.30361e-08
3.22564e-08
3.15255e-08
3.08479e-08
3.02303e-08
2.9685e-08
2.92295e-08
2.88877e-08
2.86873e-08
2.86626e-08
2.88543e-08
2.93129e-08
3.00719e-08
3.11195e-08
3.23579e-08
3.36797e-08
3.50927e-08
2.15947e-06
4.16057e-06
6.29088e-06
7.53933e-06
6.37793e-06
4.11903e-06
2.55618e-06
6.33313e-07
4.46437e-07
3.27014e-07
2.66235e-07
2.69099e-07
2.43759e-07
2.75918e-07
2.64131e-07
2.63735e-07
2.64994e-07
2.66521e-07
2.67694e-07
2.68411e-07
2.68514e-07
2.68106e-07
2.67125e-07
2.65697e-07
2.63804e-07
2.61549e-07
2.58909e-07
2.55967e-07
2.52703e-07
2.49162e-07
2.45357e-07
2.41307e-07
2.37033e-07
2.32562e-07
2.27918e-07
2.23124e-07
2.18209e-07
2.13199e-07
2.08116e-07
2.02982e-07
1.97822e-07
1.92657e-07
1.87502e-07
1.82381e-07
1.77309e-07
1.72303e-07
1.67379e-07
1.62556e-07
1.57842e-07
1.53249e-07
1.48794e-07
1.44481e-07
1.40311e-07
1.3629e-07
1.32422e-07
1.28705e-07
1.25132e-07
1.21701e-07
1.18418e-07
1.15282e-07
1.12292e-07
1.09455e-07
1.06781e-07
1.04286e-07
1.02002e-07
9.99759e-08
9.82748e-08
9.69875e-08
9.62424e-08
9.62222e-08
9.71783e-08
9.93212e-08
1.0269e-07
1.06967e-07
1.11767e-07
1.17061e-07
4.11294e-06
7.52477e-06
1.1878e-05
1.53618e-05
1.4289e-05
1.02098e-05
6.72847e-06
2.2961e-06
1.59451e-06
1.13941e-06
8.79989e-07
7.81866e-07
6.93434e-07
8.45249e-07
7.97033e-07
7.88288e-07
7.86192e-07
7.85738e-07
7.85284e-07
7.84058e-07
7.81775e-07
7.78365e-07
7.73834e-07
7.68266e-07
7.61755e-07
7.54371e-07
7.46195e-07
7.37266e-07
7.27634e-07
7.17333e-07
7.06393e-07
6.94843e-07
6.82734e-07
6.70112e-07
6.57033e-07
6.43555e-07
6.29736e-07
6.15637e-07
6.01312e-07
5.86812e-07
5.72198e-07
5.57515e-07
5.42811e-07
5.28133e-07
5.13532e-07
4.99047e-07
4.84733e-07
4.70639e-07
4.568e-07
4.43253e-07
4.30056e-07
4.17235e-07
4.0479e-07
3.92742e-07
3.81109e-07
3.69883e-07
3.5904e-07
3.48573e-07
3.38487e-07
3.28777e-07
3.19434e-07
3.10461e-07
3.01872e-07
2.93693e-07
2.85973e-07
2.78791e-07
2.72285e-07
2.66676e-07
2.62351e-07
2.59948e-07
2.60412e-07
2.64636e-07
2.72997e-07
2.84725e-07
2.98736e-07
3.14776e-07
6.47771e-06
1.17528e-05
1.94374e-05
2.67348e-05
2.74968e-05
2.16582e-05
1.50714e-05
7.21832e-06
5.01309e-06
3.55606e-06
2.67975e-06
2.22884e-06
1.92394e-06
2.25849e-06
2.11099e-06
2.06534e-06
2.04183e-06
2.0256e-06
2.01265e-06
1.99945e-06
1.98576e-06
1.97033e-06
1.95364e-06
1.93513e-06
1.91541e-06
1.89404e-06
1.8716e-06
1.84767e-06
1.82265e-06
1.79635e-06
1.76883e-06
1.7401e-06
1.71024e-06
1.6793e-06
1.64736e-06
1.61452e-06
1.5809e-06
1.54659e-06
1.5117e-06
1.47631e-06
1.44054e-06
1.40448e-06
1.36821e-06
1.33183e-06
1.29546e-06
1.25917e-06
1.2231e-06
1.18738e-06
1.15213e-06
1.11744e-06
1.08348e-06
1.05035e-06
1.01808e-06
9.86718e-07
9.56316e-07
9.26871e-07
8.98308e-07
8.7059e-07
8.43709e-07
8.17646e-07
7.92342e-07
7.67776e-07
7.43936e-07
7.20821e-07
6.98444e-07
6.76846e-07
6.56202e-07
6.3697e-07
6.20167e-07
6.07667e-07
6.02382e-07
6.07257e-07
6.23898e-07
6.50857e-07
6.85613e-07
7.2719e-07
8.79661e-06
1.62459e-05
2.83019e-05
4.10984e-05
4.5976e-05
4.07272e-05
3.09201e-05
1.95649e-05
1.39689e-05
1.00293e-05
7.51952e-06
6.07182e-06
5.14901e-06
5.47616e-06
5.09386e-06
4.92154e-06
4.8143e-06
4.73403e-06
4.67078e-06
4.61218e-06
4.55844e-06
4.50402e-06
4.45095e-06
4.39608e-06
4.34155e-06
4.28493e-06
4.22831e-06
4.16948e-06
4.10995e-06
4.04871e-06
3.98578e-06
3.92104e-06
3.85449e-06
3.78613e-06
3.71597e-06
3.64415e-06
3.57078e-06
3.49598e-06
3.41987e-06
3.34258e-06
3.26423e-06
3.18494e-06
3.10487e-06
3.02415e-06
2.94297e-06
2.86148e-06
2.77996e-06
2.69871e-06
2.61806e-06
2.53826e-06
2.45972e-06
2.38278e-06
2.30755e-06
2.2342e-06
2.16285e-06
2.0935e-06
2.02599e-06
1.9602e-06
1.89602e-06
1.83339e-06
1.7721e-06
1.71203e-06
1.65304e-06
1.59496e-06
1.53756e-06
1.48057e-06
1.42399e-06
1.36862e-06
1.31689e-06
1.27366e-06
1.24659e-06
1.24368e-06
1.26986e-06
1.32306e-06
1.39838e-06
1.49303e-06
1.05429e-05
2.01786e-05
3.73727e-05
5.70135e-05
6.79017e-05
6.61866e-05
5.56832e-05
4.22583e-05
3.25555e-05
2.45702e-05
1.88501e-05
1.518e-05
1.28097e-05
1.23444e-05
1.13979e-05
1.08524e-05
1.04831e-05
1.02003e-05
9.9785e-06
9.78184e-06
9.61065e-06
9.44759e-06
9.29772e-06
9.15074e-06
9.01192e-06
8.87337e-06
8.74047e-06
8.60628e-06
8.47477e-06
8.34268e-06
8.20976e-06
8.07541e-06
7.93921e-06
7.80084e-06
7.66e-06
7.51663e-06
7.37071e-06
7.22222e-06
7.07117e-06
6.91757e-06
6.76147e-06
6.60292e-06
6.44205e-06
6.27899e-06
6.11396e-06
5.94723e-06
5.77929e-06
5.61076e-06
5.44242e-06
5.27491e-06
5.10914e-06
4.94604e-06
4.78606e-06
4.62956e-06
4.47688e-06
4.32807e-06
4.18281e-06
4.04073e-06
3.9015e-06
3.76487e-06
3.63033e-06
3.49739e-06
3.36554e-06
3.23416e-06
3.10222e-06
2.96842e-06
2.832e-06
2.69427e-06
2.56051e-06
2.44191e-06
2.35604e-06
2.32157e-06
2.35066e-06
2.44146e-06
2.58598e-06
2.77785e-06
2.26882e-05
4.5478e-05
7.29258e-05
9.10661e-05
9.50451e-05
8.69745e-05
7.37534e-05
6.14766e-05
4.97572e-05
4.0063e-05
3.29836e-05
2.80658e-05
2.55816e-05
2.34078e-05
2.19794e-05
2.09644e-05
2.01787e-05
1.95621e-05
1.903e-05
1.85782e-05
1.81646e-05
1.77971e-05
1.74504e-05
1.71337e-05
1.68281e-05
1.65437e-05
1.62644e-05
1.59979e-05
1.57364e-05
1.54787e-05
1.52229e-05
1.49675e-05
1.47112e-05
1.44529e-05
1.41917e-05
1.3927e-05
1.36583e-05
1.33852e-05
1.31072e-05
1.2824e-05
1.25353e-05
1.22409e-05
1.1941e-05
1.16355e-05
1.13249e-05
1.10098e-05
1.06916e-05
1.03717e-05
1.00516e-05
9.73312e-06
9.41842e-06
9.10869e-06
8.80482e-06
8.50754e-06
8.21709e-06
7.93294e-06
7.65427e-06
7.38019e-06
7.11006e-06
6.84272e-06
6.57692e-06
6.31129e-06
6.04408e-06
5.77253e-06
5.49295e-06
5.20262e-06
4.90333e-06
4.60549e-06
4.33203e-06
4.11845e-06
4.00307e-06
4.01171e-06
4.14509e-06
4.39249e-06
4.74102e-06
5.15888e-05
8.75358e-05
0.000113763
0.000124702
0.000121326
0.000110437
9.79036e-05
8.4245e-05
7.13766e-05
6.0753e-05
5.26333e-05
4.71912e-05
4.3011e-05
4.00424e-05
3.78526e-05
3.61361e-05
3.47791e-05
3.36238e-05
3.26517e-05
3.17819e-05
3.10215e-05
3.03217e-05
2.96943e-05
2.9103e-05
2.85629e-05
2.80437e-05
2.75572e-05
2.70889e-05
2.66352e-05
2.61919e-05
2.57554e-05
2.53223e-05
2.48897e-05
2.44554e-05
2.40175e-05
2.35742e-05
2.31241e-05
2.26657e-05
2.21979e-05
2.17197e-05
2.12304e-05
2.07294e-05
2.02168e-05
1.96926e-05
1.9158e-05
1.86149e-05
1.80661e-05
1.7514e-05
1.6962e-05
1.64142e-05
1.58732e-05
1.53408e-05
1.48185e-05
1.4307e-05
1.38056e-05
1.33128e-05
1.28267e-05
1.2346e-05
1.18684e-05
1.13912e-05
1.09115e-05
1.04255e-05
9.92701e-06
9.40799e-06
8.86167e-06
8.28966e-06
7.71e-06
7.16425e-06
6.71646e-06
6.43741e-06
6.37614e-06
6.54076e-06
6.92059e-06
7.49148e-06
9.98224e-05
0.000134874
0.000153646
0.000156317
0.000149311
0.000138454
0.000124732
0.000110138
9.67543e-05
8.55699e-05
7.6976e-05
7.03145e-05
6.53113e-05
6.14933e-05
5.84526e-05
5.60183e-05
5.39526e-05
5.22134e-05
5.06744e-05
4.93358e-05
4.81207e-05
4.70399e-05
4.60362e-05
4.51273e-05
4.42663e-05
4.34677e-05
4.27091e-05
4.19829e-05
4.12815e-05
4.05982e-05
3.99267e-05
3.92612e-05
3.85972e-05
3.79308e-05
3.72582e-05
3.65765e-05
3.58826e-05
3.5174e-05
3.44485e-05
3.37047e-05
3.2941e-05
3.21571e-05
3.13527e-05
3.05291e-05
2.96887e-05
2.88361e-05
2.79748e-05
2.71098e-05
2.62477e-05
2.53934e-05
2.455e-05
2.37202e-05
2.29057e-05
2.21057e-05
2.1318e-05
2.05393e-05
1.97671e-05
1.89976e-05
1.82257e-05
1.74463e-05
1.6652e-05
1.58316e-05
1.49697e-05
1.40524e-05
1.30794e-05
1.20776e-05
1.11138e-05
1.02923e-05
9.73219e-06
9.5193e-06
9.6773e-06
1.02026e-05
1.10516e-05
0.000108926
0.000153618
0.000181107
0.000190797
0.000188789
0.000181026
0.000168682
0.0001536
0.000138354
0.000124613
0.000113161
0.000103943
9.6712e-05
9.10253e-05
8.64189e-05
8.26766e-05
7.94933e-05
7.67982e-05
7.44223e-05
7.2354e-05
7.04889e-05
6.88324e-05
6.73066e-05
6.59285e-05
6.46349e-05
6.34404e-05
6.23148e-05
6.12455e-05
6.0221e-05
5.92305e-05
5.82639e-05
5.73121e-05
5.63673e-05
5.54232e-05
5.44733e-05
5.35127e-05
5.25361e-05
5.15395e-05
5.0519e-05
4.94722e-05
4.83964e-05
4.72905e-05
4.61535e-05
4.49867e-05
4.37928e-05
4.25779e-05
4.13465e-05
4.0105e-05
3.88629e-05
3.76275e-05
3.6404e-05
3.51966e-05
3.40085e-05
3.28395e-05
3.16866e-05
3.05449e-05
2.94104e-05
2.8277e-05
2.71371e-05
2.59818e-05
2.47992e-05
2.35709e-05
2.22711e-05
2.08754e-05
1.93775e-05
1.78122e-05
1.62757e-05
1.49222e-05
1.39362e-05
1.34575e-05
1.35374e-05
1.41924e-05
1.53476e-05
0.00011403
0.000169304
0.000206577
0.000224274
0.000228226
0.000224718
0.000214976
0.000200432
0.000184002
0.00016811
0.000154091
0.000142378
0.000132878
0.000125221
0.000118925
0.000113739
0.000109308
0.00010553
0.0001022
9.92916e-05
9.66757e-05
9.43486e-05
9.2214e-05
9.02848e-05
8.84836e-05
8.68223e-05
8.52642e-05
8.37911e-05
8.23867e-05
8.10362e-05
7.97256e-05
7.84414e-05
7.71727e-05
7.59096e-05
7.46432e-05
7.33658e-05
7.20701e-05
7.07499e-05
6.93997e-05
6.80157e-05
6.65938e-05
6.51322e-05
6.36288e-05
6.20843e-05
6.05013e-05
5.88871e-05
5.72469e-05
5.55876e-05
5.39216e-05
5.22589e-05
5.06066e-05
4.89712e-05
4.73577e-05
4.57672e-05
4.41965e-05
4.26389e-05
4.10887e-05
3.95376e-05
3.79743e-05
3.63855e-05
3.47539e-05
3.30519e-05
3.1241e-05
2.92819e-05
2.71582e-05
2.49079e-05
2.26565e-05
2.06131e-05
1.90414e-05
1.81558e-05
1.805e-05
1.87814e-05
0.000114321
0.00018119
0.000229521
0.000256404
0.000267325
0.000269151
0.000263229
0.000250346
0.000233424
0.000215671
0.000199192
0.000184947
0.000173086
0.00016334
0.000155225
0.000148467
0.000142665
0.000137688
0.000133298
0.000129448
0.000125988
0.000122903
0.000120079
0.000117521
0.000115142
0.000112947
0.000110893
0.000108958
0.00010712
0.000105359
0.000103657
0.000101997
0.000100364
9.87451e-05
9.71273e-05
9.55009e-05
9.38558e-05
9.21839e-05
9.04779e-05
8.87322e-05
8.69416e-05
8.51028e-05
8.32128e-05
8.12712e-05
7.92799e-05
7.72467e-05
7.51772e-05
7.30781e-05
7.09638e-05
6.88466e-05
6.67361e-05
6.46407e-05
6.25682e-05
6.05215e-05
5.84978e-05
5.6489e-05
5.44878e-05
5.24832e-05
5.04601e-05
4.84005e-05
4.62806e-05
4.40627e-05
4.16935e-05
3.91155e-05
3.62973e-05
3.32733e-05
3.01927e-05
2.73189e-05
2.50012e-05
2.35498e-05
2.31165e-05
2.38284e-05
0.000108997
0.000188416
0.000249251
0.00028673
0.000305795
0.000314046
0.000313177
0.000303291
0.000286877
0.000267711
0.000248839
0.000231926
0.000217497
0.000205434
0.000195284
0.00018675
0.000179397
0.000173056
0.000167457
0.000162531
0.000158107
0.000154151
0.000150536
0.000147256
0.000144212
0.000141402
0.000138778
0.000136312
0.000133975
0.000131745
0.000129598
0.000127512
0.000125469
0.000123451
0.000121443
0.000119432
0.000117406
0.000115353
0.000113265
0.000111134
0.000108954
0.000106719
0.000104426
0.000102073
9.96609e-05
9.71968e-05
9.46862e-05
9.21351e-05
8.95586e-05
8.69715e-05
8.43848e-05
8.18094e-05
7.92561e-05
7.67301e-05
7.42301e-05
7.17469e-05
6.92721e-05
6.67918e-05
6.42873e-05
6.17354e-05
5.91056e-05
5.63497e-05
5.33985e-05
5.01739e-05
4.66249e-05
4.27749e-05
3.87862e-05
3.49704e-05
3.17577e-05
2.9574e-05
2.86433e-05
2.91962e-05
9.73724e-05
0.000189996
0.000264882
0.000314572
0.000343184
0.000359046
0.000364456
0.00035902
0.000344496
0.000324776
0.0003038
0.000284142
0.000266895
0.000252207
0.000239708
0.000229101
0.000219926
0.000211975
0.000204949
0.000198749
0.000193183
0.000188196
0.000183644
0.000179509
0.000175678
0.000172142
0.000168846
0.000165753
0.000162832
0.000160053
0.000157388
0.00015481
0.000152294
0.000149822
0.000147372
0.00014493
0.000142478
0.000140006
0.0001375
0.000134952
0.000132354
0.000129698
0.000126981
0.000124197
0.000121346
0.000118436
0.000115471
0.000112455
0.000109403
0.000106332
0.000103254
0.000100182
9.71288e-05
9.41044e-05
9.11087e-05
8.8133e-05
8.51672e-05
8.21957e-05
7.91956e-05
7.6139e-05
7.29884e-05
6.96857e-05
6.61455e-05
6.22677e-05
5.79782e-05
5.32829e-05
4.83428e-05
4.35069e-05
3.92711e-05
3.61907e-05
3.45723e-05
3.47859e-05
7.9075e-05
0.000184891
0.000275331
0.000338982
0.000378796
0.000403634
0.000416576
0.000417039
0.000406021
0.000387092
0.00036475
0.000342535
0.00032233
0.00030472
0.000289517
0.000276473
0.000265126
0.00025524
0.000246489
0.000238743
0.000231788
0.000225547
0.000219856
0.000214679
0.000209894
0.000205477
0.000201367
0.00019752
0.000193895
0.000190458
0.000187174
0.000184011
0.00018094
0.000177934
0.000174971
0.000172031
0.000169094
0.000166145
0.00016317
0.000160158
0.000157098
0.000153982
0.000150804
0.000147557
0.000144239
0.000140857
0.000137413
0.00013391
0.000130363
0.000126787
0.000123196
0.000119606
0.000116031
0.000112485
0.000108971
0.000105482
0.000102007
9.85277e-05
9.50187e-05
9.14468e-05
8.77684e-05
8.39159e-05
7.97889e-05
7.52644e-05
7.02429e-05
6.47081e-05
5.88043e-05
5.2904e-05
4.75445e-05
4.3414e-05
4.09088e-05
4.05682e-05
5.5513e-05
0.000172232
0.000279361
0.000358723
0.000411638
0.000447059
0.0004689
0.000476682
0.000470831
0.00045438
0.00043194
0.000407818
0.000384803
0.00036412
0.000345912
0.000330063
0.000316158
0.000303957
0.000293118
0.000283487
0.00027483
0.000267045
0.000259949
0.000253488
0.000247525
0.000242022
0.000236911
0.000232135
0.000227649
0.000223408
0.000219371
0.0002155
0.000211758
0.000208114
0.00020454
0.000201011
0.000197505
0.000194002
0.000190485
0.000186941
0.000183357
0.000179722
0.000176029
0.000172269
0.000168438
0.00016454
0.000160579
0.000156553
0.000152474
0.00014836
0.000144225
0.000140084
0.000135955
0.000131856
0.000127793
0.000123761
0.00011975
0.000115741
0.000111705
0.000107603
0.000103388
9.89821e-05
9.42722e-05
8.91134e-05
8.33783e-05
7.70269e-05
7.01726e-05
6.31947e-05
5.66445e-05
5.1332e-05
4.77487e-05
4.66156e-05
3.16628e-05
0.000151645
0.000275657
0.000372267
0.000440384
0.000488274
0.00052058
0.000537146
0.000538075
0.000525905
0.00050505
0.000480217
0.000455001
0.000431403
0.000410067
0.000391135
0.000374319
0.000359415
0.000346095
0.000334194
0.000323467
0.000313791
0.000304967
0.00029692
0.000289499
0.000282652
0.000276299
0.000270374
0.000264822
0.000259588
0.000254626
0.000249885
0.000245324
0.000240905
0.000236592
0.000232355
0.000228168
0.000224006
0.00021985
0.000215683
0.000211488
0.000207255
0.000202971
0.000198626
0.000194214
0.000189739
0.000185201
0.000180597
0.000175935
0.000171234
0.000166507
0.000161768
0.000157039
0.000152341
0.000147685
0.000143069
0.000138485
0.000133913
0.000129322
0.000124669
0.000119899
0.000114932
0.00010964
0.000103859
9.74324e-05
9.02972e-05
8.25253e-05
7.44858e-05
6.67208e-05
6.01238e-05
5.52971e-05
5.31273e-05
1.43079e-05
0.000123462
0.000262886
0.000377821
0.000463347
0.000525878
0.000570475
0.000597442
0.000606762
0.000600642
0.000583237
0.000559343
0.00053307
0.000507174
0.000482921
0.000460845
0.000440891
0.000422965
0.000406797
0.000392237
0.000379046
0.000367096
0.000356172
0.000346186
0.000336975
0.000328471
0.000320585
0.00031324
0.000306367
0.000299907
0.000293799
0.000287987
0.000282419
0.000277049
0.000271834
0.000266737
0.000261727
0.000256773
0.000251852
0.000246942
0.000242025
0.000237086
0.000232111
0.000227086
0.000222004
0.000216865
0.000211669
0.00020641
0.000201094
0.000195736
0.00019035
0.000184951
0.000179559
0.0001742
0.000168891
0.000163635
0.000158425
0.000153243
0.000148056
0.000142818
0.000137469
0.000131922
0.000126043
0.000119648
0.00011255
0.000104668
9.60302e-05
8.69697e-05
7.80117e-05
7.00664e-05
6.38801e-05
6.0454e-05
7.32401e-06
8.95995e-05
0.000239823
0.000373416
0.000478468
0.000558058
0.000617072
0.000656295
0.000675729
0.000677402
0.000665308
0.000644218
0.000618491
0.00059144
0.000564946
0.000540023
0.000516965
0.00049587
0.000476594
0.000459046
0.000443026
0.000428415
0.000415005
0.000402697
0.000391325
0.000380809
0.00037105
0.000361962
0.000353467
0.000345495
0.000337977
0.000330845
0.000324038
0.0003175
0.00031118
0.000305033
0.000299021
0.000293107
0.000287262
0.00028146
0.000275678
0.000269898
0.000264102
0.000258276
0.000252406
0.000246492
0.000240532
0.000234518
0.000228451
0.000222345
0.000216212
0.000210067
0.00020393
0.000197829
0.000191789
0.000185817
0.000179912
0.000174056
0.000168218
0.000162347
0.00015638
0.000150224
0.000143742
0.000136734
0.000128985
0.000120391
0.000110948
0.000100927
9.08465e-05
8.15452e-05
7.39686e-05
6.91368e-05
4.26773e-06
5.48907e-05
0.000205757
0.000357126
0.000483348
0.000582546
0.000658405
0.000712035
0.000743528
0.000754826
0.000749878
0.000733481
0.00071014
0.0006835
0.000655943
0.000628945
0.000603206
0.000579097
0.000556677
0.000535969
0.000516859
0.000499267
0.000483015
0.000468012
0.0004541
0.000441192
0.00042919
0.000418
0.000407538
0.000397725
0.000388484
0.000379737
0.000371413
0.000363446
0.000355774
0.000348346
0.000341113
0.000334032
0.000327067
0.000320187
0.000313363
0.000306573
0.000299797
0.000293014
0.000286208
0.000279378
0.000272519
0.00026562
0.000258678
0.000251705
0.000244712
0.000237712
0.000230723
0.000223777
0.000216903
0.000210119
0.000203426
0.000196814
0.00019025
0.000183682
0.000177043
0.000170236
0.000163121
0.000155491
0.0001471
0.000137822
0.000127642
0.00011674
0.000105671
9.50974e-05
8.62512e-05
8.00137e-05
2.96164e-06
2.70686e-05
0.000161177
0.000327535
0.000475378
0.000596589
0.00069198
0.000762494
0.000808294
0.000831265
0.000835379
0.000825552
0.000806484
0.000782035
0.000754974
0.000727142
0.000699618
0.000673075
0.000647825
0.000624063
0.000601811
0.000581073
0.000561735
0.000543738
0.000526951
0.000511297
0.000496684
0.000483022
0.000470226
0.000458213
0.000446901
0.000436205
0.000426043
0.000416342
0.000407029
0.000398044
0.000389329
0.000380833
0.000372511
0.000364326
0.000356245
0.000348239
0.000340283
0.000332354
0.00032443
0.000316507
0.000308579
0.000300633
0.000292659
0.000284668
0.00027667
0.000268675
0.000260699
0.000252776
0.000244941
0.000237219
0.000229623
0.000222145
0.000214757
0.000207407
0.000200022
0.000192503
0.000184708
0.00017643
0.0001674
0.000157462
0.000146626
0.000134971
0.000123156
0.000111582
0.000101933
9.46846e-05
2.43706e-06
1.19806e-05
0.00011199
0.000284683
0.000452084
0.00059699
0.000714711
0.000804909
0.000867611
0.000904623
0.000919936
0.000918649
0.000905733
0.000885328
0.000860495
0.000833393
0.000805401
0.00077746
0.000750135
0.000723819
0.000698712
0.000674933
0.000652481
0.000631359
0.00061149
0.000592825
0.000575297
0.000558832
0.000543355
0.000528786
0.000515046
0.000502046
0.000489702
0.00047793
0.000466652
0.000455797
0.000445299
0.000435099
0.000425144
0.00041539
0.000405796
0.000396327
0.000386955
0.000377649
0.000368386
0.000359154
0.00034995
0.000340755
0.000331554
0.000322356
0.000313171
0.000304005
0.000294872
0.000285805
0.000276847
0.000268031
0.00025938
0.000250897
0.000242558
0.000234313
0.000226086
0.000217774
0.000209238
0.000200278
0.000190617
0.000180068
0.000168724
0.000156584
0.000144576
0.000132912
0.000124325
0.00011807
2.516e-06
6.26956e-06
6.47743e-05
0.000229797
0.000411638
0.000580295
0.000722893
0.000835821
0.000918389
0.00097219
0.00100119
0.00101065
0.00100588
0.000991398
0.000970594
0.000945914
0.000919021
0.000891072
0.000862846
0.000834917
0.000807654
0.000781328
0.00075607
0.000731973
0.000709048
0.000687296
0.000666699
0.000647216
0.000628796
0.000611378
0.000594893
0.000579261
0.000564397
0.000550217
0.000536638
0.000523584
0.000510981
0.000498762
0.000486868
0.000475246
0.00046385
0.000452638
0.000441576
0.000430628
0.000419765
0.000408972
0.000398244
0.000387559
0.000376896
0.000366262
0.000355666
0.000345111
0.000334609
0.000324192
0.000313909
0.000303804
0.000293912
0.000284249
0.000274802
0.000265525
0.000256344
0.000247152
0.000237819
0.000228168
0.000217944
0.00020696
0.000195509
0.000183687
0.000173227
0.000163892
0.000156438
0.000150707
2.72308e-06
4.30123e-06
2.95261e-05
0.000164774
0.000353553
0.000543251
0.000712295
0.000851007
0.000956735
0.0010305
0.00107608
0.00109888
0.00110453
0.00109799
0.00108308
0.00106258
0.00103845
0.00101206
0.000984373
0.000956114
0.000927805
0.000899847
0.000872502
0.000845968
0.000820357
0.000795746
0.000772185
0.000749686
0.000728243
0.000707829
0.0006884
0.000669897
0.000652246
0.000635371
0.000619193
0.000603632
0.000588613
0.000574066
0.000559924
0.000546129
0.000532628
0.000519375
0.000506329
0.00049345
0.000480704
0.00046807
0.000455541
0.000443093
0.0004307
0.000418365
0.000406098
0.000393901
0.000381781
0.000369772
0.000357928
0.000346306
0.000334959
0.000323921
0.000313197
0.000302754
0.000292526
0.000282413
0.000272305
0.000262088
0.000251609
0.000240815
0.00023051
0.000220863
0.0002121
0.000203956
0.000196959
2.92864e-06
3.47954e-06
1.26048e-05
9.73414e-05
0.000280005
0.000483753
0.000678509
0.000845495
0.00097785
0.00107515
0.0011407
0.00117989
0.00119865
0.00120239
0.00119542
0.00118096
0.00116132
0.00113812
0.00111253
0.00108542
0.00105745
0.0010291
0.00100077
0.000972741
0.000945221
0.000918368
0.000892309
0.000867125
0.000842868
0.000819564
0.00079721
0.000775781
0.000755232
0.000735506
0.000716535
0.000698248
0.000680575
0.000663445
0.000646792
0.000630554
0.000614674
0.000599102
0.000583793
0.000568705
0.000553795
0.000539041
0.000524433
0.000509946
0.000495548
0.000481239
0.00046703
0.000452924
0.000438927
0.000425074
0.000411427
0.000398063
0.000385059
0.000372482
0.000360369
0.000348715
0.000337479
0.000326595
0.000316013
0.000305767
0.000295904
0.000286325
0.000277191
0.000268529
0.000260381
0.000252554
0.000245457
3.02807e-06
3.20442e-06
6.5583e-06
4.41596e-05
0.000196322
0.000402477
0.000617836
0.000813825
0.000975992
0.00110069
0.00119008
0.00124925
0.00128432
0.00130113
0.00130452
0.00129822
0.00128495
0.00126667
0.0012448
0.00122039
0.00119423
0.00116692
0.00113894
0.00111065
0.00108235
0.00105425
0.00102656
0.00099941
0.000972927
0.000947192
0.000922255
0.000898139
0.000874839
0.000852332
0.000830575
0.000809517
0.000789102
0.000769268
0.000749954
0.000731101
0.000712655
0.000694563
0.000676781
0.000659263
0.000641966
0.000624861
0.00060794
0.000591177
0.000574538
0.00055802
0.000541636
0.000525394
0.000509301
0.000493401
0.00047777
0.000462514
0.000447754
0.000433609
0.000420171
0.000407481
0.000395534
0.000384274
0.000373606
0.000363451
0.000353748
0.000344389
0.000335373
0.00032672
0.000318418
0.000310295
0.000302637
3.17812e-06
4.43418e-06
1.72919e-05
0.000112549
0.000304883
0.000529076
0.000750837
0.000944672
0.00110056
0.00121803
0.00130132
0.00135648
0.00138972
0.0014064
0.00141079
0.0014061
0.00139469
0.00137831
0.00135823
0.00133542
0.00131062
0.00128442
0.00125725
0.00122948
0.0012014
0.00117323
0.0011452
0.00111745
0.00109013
0.00106333
0.00103714
0.00101159
0.000986704
0.00096247
0.000938871
0.000915874
0.000893437
0.000871514
0.000850057
0.00082902
0.000808354
0.00078802
0.000767973
0.000748173
0.000728591
0.000709218
0.000690035
0.000671005
0.000652127
0.000633419
0.000614897
0.000596578
0.00057852
0.000560822
0.000543629
0.000527114
0.000511446
0.00049674
0.000483012
0.00047019
0.000458148
0.000446751
0.000435902
0.000425534
0.00041556
0.000405927
0.000396606
0.000387592
0.000378716
0.000370107
3.23152e-06
3.618e-06
7.75835e-06
4.77844e-05
0.000201126
0.000416317
0.00065354
0.000877396
0.00106719
0.00121705
0.00132906
0.00140874
0.0014624
0.0014959
0.00151406
0.00152063
0.00151843
0.00150959
0.00149568
0.00147791
0.0014572
0.00143426
0.00140964
0.00138379
0.00135705
0.00132973
0.00130206
0.00127425
0.00124648
0.00121889
0.00119159
0.00116466
0.00113817
0.00111214
0.00108658
0.0010615
0.00103688
0.0010127
0.000988928
0.000965527
0.000942465
0.000919712
0.000897233
0.000874992
0.000852964
0.000831147
0.000809528
0.000788075
0.00076679
0.000745698
0.00072483
0.000704213
0.000683918
0.000664064
0.000644818
0.000626377
0.000608919
0.000592544
0.000577239
0.000562901
0.000549389
0.000536573
0.00052436
0.000512687
0.000501481
0.00049068
0.000480182
0.000470009
0.000459993
0.000450102
3.27067e-06
3.41287e-06
4.83107e-06
1.69308e-05
0.000104701
0.000291322
0.00052459
0.000769606
0.000992802
0.00117842
0.00132391
0.00143305
0.00151183
0.00156639
0.00160205
0.00162316
0.00163304
0.00163425
0.00162873
0.00161797
0.00160312
0.00158507
0.00156452
0.00154203
0.00151803
0.0014929
0.00146691
0.00144033
0.00141337
0.00138621
0.00135898
0.0013318
0.00130477
0.00127794
0.00125137
0.00122507
0.00119905
0.00117332
0.00114787
0.00112267
0.00109772
0.00107299
0.00104846
0.00102411
0.000999916
0.000975883
0.000952011
0.000928275
0.000904681
0.000881262
0.000858059
0.000835108
0.000812486
0.000790315
0.000768766
0.000748035
0.000728303
0.000709679
0.000692162
0.000675666
0.000660064
0.000645236
0.000631096
0.000617581
0.000604625
0.00059216
0.000580079
0.000568323
0.000556792
0.000545353
3.29362e-06
3.3516e-06
3.91648e-06
7.50205e-06
3.86257e-05
0.000170737
0.000376536
0.00062273
0.00087145
0.00109307
0.00127591
0.00141965
0.00152884
0.00160942
0.00166711
0.00170674
0.00173221
0.00174657
0.00175217
0.00175084
0.001744
0.00173278
0.00171805
0.00170053
0.00168077
0.00165923
0.00163628
0.00161224
0.00158737
0.00156188
0.00153596
0.00150976
0.00148338
0.00145693
0.00143046
0.00140404
0.00137768
0.00135141
0.00132524
0.00129917
0.00127318
0.00124728
0.00122146
0.00119568
0.00116995
0.00114428
0.00111866
0.00109308
0.00106755
0.00104211
0.0010168
0.000991654
0.000966749
0.0009422
0.000918165
0.00089483
0.000872389
0.000850987
0.000830682
0.000811441
0.000793176
0.000775786
0.000759189
0.000743326
0.000728131
0.00071353
0.000699435
0.000685701
0.000672253
0.000658953
3.30307e-06
3.33734e-06
3.57828e-06
4.77655e-06
1.31732e-05
7.28045e-05
0.000230808
0.000449904
0.000703704
0.000953864
0.00117468
0.00135724
0.00150229
0.00161451
0.00169951
0.00176248
0.00180784
0.00183916
0.00185925
0.00187034
0.00187417
0.00187216
0.00186538
0.00185476
0.00184098
0.00182465
0.00180623
0.00178614
0.00176469
0.00174217
0.0017188
0.00169478
0.00167026
0.00164536
0.00162017
0.00159478
0.00156922
0.00154355
0.00151778
0.00149193
0.001466
0.00144
0.00141391
0.00138774
0.00136146
0.00133509
0.00130864
0.00128208
0.00125542
0.00122869
0.00120193
0.00117516
0.00114845
0.00112188
0.00109558
0.0010697
0.00104444
0.00101999