/*--------------------------------*- C++ -*----------------------------------*\
| =========                 |                                                 |
| \\      /  F ield         | OpenFOAM: The Open Source CFD Toolbox           |
|  \\    /   O peration     | Version:  2412                                  |
|   \\  /    A nd           | Website:  www.openfoam.com                      |
|    \\/     M anipulation  |                                                 |
\*---------------------------------------------------------------------------*/
FoamFile
{
    version     2.0;
    format      ascii;
    arch        "LSB;label=32;scalar=64";
    class       volScalarField;
    location    "80";
    object      nuTilda;
}
// * * * * * * * * * * * * * * * * * * * * * * * * * * * * * * * * * * * * * //

dimensions      [0 2 -1 0 0 0 0];

internalField   nonuniform List<scalar> 
7448
(
2.17835e-06
2.17748e-06
2.17649e-06
2.17527e-06
2.17381e-06
2.17218e-06
2.17036e-06
2.16833e-06
2.16614e-06
2.16381e-06
2.16133e-06
2.15872e-06
2.15602e-06
2.15327e-06
2.15041e-06
2.14747e-06
2.14448e-06
2.14139e-06
2.13824e-06
2.13508e-06
2.13189e-06
2.12868e-06
2.12544e-06
2.12217e-06
2.11884e-06
2.11543e-06
2.11188e-06
2.10808e-06
2.10382e-06
2.09896e-06
2.09354e-06
2.08853e-06
2.08703e-06
2.09479e-06
2.11569e-06
2.14473e-06
2.17184e-06
2.19151e-06
2.20307e-06
2.2085e-06
2.20951e-06
2.20775e-06
2.20405e-06
2.19915e-06
2.19349e-06
2.18739e-06
2.18101e-06
2.17453e-06
2.16804e-06
2.16165e-06
2.15535e-06
2.14915e-06
2.14308e-06
2.13708e-06
2.13118e-06
2.12538e-06
2.11963e-06
2.11393e-06
2.10827e-06
2.10266e-06
2.0971e-06
2.09151e-06
2.08591e-06
2.08034e-06
2.07478e-06
2.06921e-06
2.06359e-06
2.05798e-06
2.05238e-06
2.0468e-06
2.04117e-06
2.03556e-06
2.02996e-06
2.02437e-06
2.01883e-06
2.01326e-06
2.00772e-06
2.00221e-06
1.99675e-06
1.99138e-06
1.98593e-06
6.4709e-06
6.46963e-06
6.4685e-06
6.46692e-06
6.46481e-06
6.46229e-06
6.45936e-06
6.45596e-06
6.45217e-06
6.44809e-06
6.44363e-06
6.43891e-06
6.43396e-06
6.42889e-06
6.42355e-06
6.41797e-06
6.41227e-06
6.40628e-06
6.40014e-06
6.39393e-06
6.38763e-06
6.38127e-06
6.37473e-06
6.36804e-06
6.3611e-06
6.35372e-06
6.34556e-06
6.33621e-06
6.32482e-06
6.31077e-06
6.29466e-06
6.28131e-06
6.28507e-06
6.33154e-06
6.43737e-06
6.58015e-06
6.71496e-06
6.81642e-06
6.88076e-06
6.91652e-06
6.93113e-06
6.93206e-06
6.92337e-06
6.90867e-06
6.89002e-06
6.86914e-06
6.84692e-06
6.82425e-06
6.80154e-06
6.77927e-06
6.75746e-06
6.73624e-06
6.71566e-06
6.6956e-06
6.67603e-06
6.65692e-06
6.63814e-06
6.6197e-06
6.60152e-06
6.58354e-06
6.56575e-06
6.54802e-06
6.53035e-06
6.51279e-06
6.49527e-06
6.4777e-06
6.46007e-06
6.44253e-06
6.42497e-06
6.40745e-06
6.38983e-06
6.37228e-06
6.35473e-06
6.33721e-06
6.31979e-06
6.30234e-06
6.28501e-06
6.26776e-06
6.25068e-06
6.23386e-06
6.21681e-06
1.10505e-05
1.10492e-05
1.10484e-05
1.10468e-05
1.10446e-05
1.10417e-05
1.10382e-05
1.1034e-05
1.10293e-05
1.1024e-05
1.10183e-05
1.10122e-05
1.10058e-05
1.09992e-05
1.09923e-05
1.0985e-05
1.09775e-05
1.09698e-05
1.09616e-05
1.09535e-05
1.09451e-05
1.09367e-05
1.0928e-05
1.09189e-05
1.09094e-05
1.0899e-05
1.08869e-05
1.08723e-05
1.08538e-05
1.08303e-05
1.0804e-05
1.07857e-05
1.08065e-05
1.09202e-05
1.11614e-05
1.14807e-05
1.17806e-05
1.20068e-05
1.21522e-05
1.22359e-05
1.22741e-05
1.22827e-05
1.22706e-05
1.22455e-05
1.22118e-05
1.21732e-05
1.21317e-05
1.20892e-05
1.20467e-05
1.2005e-05
1.19643e-05
1.19248e-05
1.18867e-05
1.18498e-05
1.18141e-05
1.17793e-05
1.17452e-05
1.1712e-05
1.16793e-05
1.16471e-05
1.16152e-05
1.15836e-05
1.15522e-05
1.15209e-05
1.14897e-05
1.14585e-05
1.14273e-05
1.13963e-05
1.13652e-05
1.1334e-05
1.13029e-05
1.12718e-05
1.12407e-05
1.12097e-05
1.11787e-05
1.11478e-05
1.11171e-05
1.10866e-05
1.10563e-05
1.10265e-05
1.09963e-05
1.62714e-05
1.62672e-05
1.62631e-05
1.62575e-05
1.62509e-05
1.62431e-05
1.62344e-05
1.62246e-05
1.6214e-05
1.62026e-05
1.61906e-05
1.61781e-05
1.61653e-05
1.61523e-05
1.6139e-05
1.61253e-05
1.61114e-05
1.60973e-05
1.60829e-05
1.60685e-05
1.60541e-05
1.60395e-05
1.60248e-05
1.60096e-05
1.59938e-05
1.59767e-05
1.59573e-05
1.59344e-05
1.59062e-05
1.58722e-05
1.58368e-05
1.5819e-05
1.58675e-05
1.60666e-05
1.64713e-05
1.70002e-05
1.74915e-05
1.78593e-05
1.80953e-05
1.82322e-05
1.82964e-05
1.83137e-05
1.82981e-05
1.82618e-05
1.82116e-05
1.81536e-05
1.80908e-05
1.80266e-05
1.7962e-05
1.78987e-05
1.7837e-05
1.77772e-05
1.77195e-05
1.76638e-05
1.76099e-05
1.75575e-05
1.75064e-05
1.74565e-05
1.74075e-05
1.73592e-05
1.73116e-05
1.72644e-05
1.72174e-05
1.71707e-05
1.71241e-05
1.70776e-05
1.70311e-05
1.69848e-05
1.69383e-05
1.68918e-05
1.68453e-05
1.67989e-05
1.67525e-05
1.67062e-05
1.666e-05
1.66139e-05
1.65681e-05
1.65225e-05
1.64772e-05
1.64327e-05
1.63877e-05
2.26689e-05
2.26578e-05
2.26451e-05
2.26298e-05
2.26124e-05
2.2593e-05
2.25718e-05
2.25489e-05
2.25244e-05
2.24984e-05
2.24714e-05
2.24435e-05
2.2415e-05
2.23862e-05
2.2357e-05
2.23273e-05
2.22975e-05
2.22673e-05
2.2237e-05
2.22067e-05
2.21765e-05
2.21463e-05
2.2116e-05
2.20855e-05
2.20542e-05
2.20217e-05
2.19868e-05
2.19483e-05
2.1905e-05
2.18576e-05
2.18139e-05
2.18005e-05
2.18796e-05
2.21562e-05
2.26986e-05
2.33945e-05
2.40306e-05
2.45011e-05
2.48009e-05
2.49737e-05
2.50538e-05
2.50738e-05
2.50513e-05
2.50023e-05
2.49352e-05
2.4858e-05
2.47744e-05
2.46888e-05
2.46026e-05
2.45181e-05
2.44354e-05
2.43553e-05
2.42778e-05
2.42027e-05
2.41299e-05
2.40591e-05
2.39899e-05
2.39221e-05
2.38556e-05
2.37899e-05
2.37249e-05
2.36605e-05
2.35964e-05
2.35326e-05
2.34689e-05
2.34053e-05
2.33416e-05
2.3278e-05
2.32144e-05
2.31507e-05
2.30869e-05
2.30232e-05
2.29595e-05
2.28959e-05
2.28325e-05
2.27693e-05
2.27064e-05
2.26438e-05
2.25817e-05
2.25204e-05
2.24588e-05
3.05934e-05
3.05753e-05
3.05539e-05
3.05282e-05
3.04989e-05
3.04663e-05
3.04307e-05
3.03923e-05
3.03512e-05
3.03077e-05
3.02622e-05
3.02151e-05
3.01667e-05
3.01177e-05
3.00678e-05
3.00172e-05
2.99659e-05
2.99141e-05
2.98619e-05
2.98096e-05
2.97572e-05
2.97047e-05
2.9652e-05
2.9599e-05
2.95453e-05
2.94901e-05
2.94327e-05
2.93721e-05
2.93079e-05
2.92432e-05
2.919e-05
2.91825e-05
2.92915e-05
2.96223e-05
3.02204e-05
3.09484e-05
3.15958e-05
3.20688e-05
3.23669e-05
3.2535e-05
3.26071e-05
3.26162e-05
3.25801e-05
3.25159e-05
3.24321e-05
3.23374e-05
3.22357e-05
3.21318e-05
3.20272e-05
3.19242e-05
3.1823e-05
3.17245e-05
3.16287e-05
3.15353e-05
3.14441e-05
3.13551e-05
3.12676e-05
3.11815e-05
3.10965e-05
3.10124e-05
3.0929e-05
3.08459e-05
3.07631e-05
3.06804e-05
3.05978e-05
3.05152e-05
3.04324e-05
3.03496e-05
3.02667e-05
3.01837e-05
3.01006e-05
3.00174e-05
2.99343e-05
2.98513e-05
2.97685e-05
2.96859e-05
2.96037e-05
2.95221e-05
2.94409e-05
2.93609e-05
2.92806e-05
4.04346e-05
4.04086e-05
4.03769e-05
4.03385e-05
4.02945e-05
4.02455e-05
4.01918e-05
4.01337e-05
4.00713e-05
4.00051e-05
3.99357e-05
3.98637e-05
3.97895e-05
3.97139e-05
3.9637e-05
3.95586e-05
3.94792e-05
3.93987e-05
3.93175e-05
3.92357e-05
3.91537e-05
3.90714e-05
3.89888e-05
3.89057e-05
3.88219e-05
3.87367e-05
3.86495e-05
3.85602e-05
3.84695e-05
3.83826e-05
3.83151e-05
3.83043e-05
3.84147e-05
3.87181e-05
3.92193e-05
3.97983e-05
4.0302e-05
4.06649e-05
4.08869e-05
4.10022e-05
4.10367e-05
4.10174e-05
4.09589e-05
4.08757e-05
4.07751e-05
4.06649e-05
4.05484e-05
4.04299e-05
4.03105e-05
4.01925e-05
4.00758e-05
3.99613e-05
3.9849e-05
3.97385e-05
3.96299e-05
3.95227e-05
3.94168e-05
3.93118e-05
3.92075e-05
3.91037e-05
3.90002e-05
3.88969e-05
3.87934e-05
3.869e-05
3.85863e-05
3.84823e-05
3.83782e-05
3.82737e-05
3.81691e-05
3.80642e-05
3.79592e-05
3.78541e-05
3.7749e-05
3.76439e-05
3.75392e-05
3.74348e-05
3.73308e-05
3.72275e-05
3.71249e-05
3.70237e-05
3.69223e-05
5.21603e-05
5.21095e-05
5.20514e-05
5.1985e-05
5.1912e-05
5.18329e-05
5.17483e-05
5.16584e-05
5.15636e-05
5.14642e-05
5.13609e-05
5.12542e-05
5.11449e-05
5.10337e-05
5.09207e-05
5.08063e-05
5.06907e-05
5.0574e-05
5.04564e-05
5.03382e-05
5.02199e-05
5.01014e-05
4.99827e-05
4.98639e-05
4.97449e-05
4.96251e-05
4.95045e-05
4.9383e-05
4.92618e-05
4.91451e-05
4.90455e-05
4.89903e-05
4.90236e-05
4.91893e-05
4.94835e-05
4.98258e-05
5.0118e-05
5.0318e-05
5.04236e-05
5.04569e-05
5.0434e-05
5.03733e-05
5.02846e-05
5.01782e-05
5.00591e-05
4.99331e-05
4.98022e-05
4.967e-05
4.95368e-05
4.94044e-05
4.92727e-05
4.91423e-05
4.90132e-05
4.88851e-05
4.87579e-05
4.86314e-05
4.85053e-05
4.83796e-05
4.82539e-05
4.81281e-05
4.80022e-05
4.78759e-05
4.77491e-05
4.7622e-05
4.74943e-05
4.7366e-05
4.72374e-05
4.71082e-05
4.69787e-05
4.68488e-05
4.67187e-05
4.65885e-05
4.64582e-05
4.63282e-05
4.61984e-05
4.6069e-05
4.59402e-05
4.58124e-05
4.56854e-05
4.556e-05
4.54348e-05
6.48649e-05
6.47755e-05
6.46792e-05
6.45749e-05
6.44642e-05
6.43475e-05
6.42255e-05
6.40984e-05
6.39668e-05
6.38308e-05
6.36908e-05
6.35475e-05
6.34013e-05
6.32531e-05
6.31033e-05
6.29524e-05
6.28005e-05
6.26478e-05
6.24945e-05
6.2341e-05
6.21874e-05
6.20341e-05
6.18809e-05
6.17281e-05
6.15756e-05
6.14233e-05
6.1271e-05
6.11189e-05
6.09678e-05
6.08206e-05
6.06851e-05
6.05783e-05
6.0527e-05
6.05569e-05
6.06644e-05
6.08008e-05
6.09074e-05
6.09591e-05
6.09541e-05
6.09058e-05
6.08233e-05
6.07181e-05
6.05954e-05
6.04622e-05
6.0321e-05
6.01757e-05
6.0027e-05
5.98775e-05
5.9727e-05
5.95769e-05
5.94267e-05
5.9277e-05
5.91277e-05
5.89784e-05
5.88292e-05
5.86799e-05
5.85303e-05
5.83803e-05
5.82297e-05
5.80784e-05
5.79265e-05
5.77739e-05
5.76202e-05
5.74657e-05
5.73105e-05
5.71544e-05
5.69977e-05
5.68402e-05
5.66822e-05
5.65239e-05
5.63651e-05
5.62063e-05
5.60475e-05
5.58889e-05
5.57307e-05
5.55732e-05
5.54162e-05
5.52607e-05
5.51061e-05
5.49536e-05
5.48014e-05
7.82405e-05
7.81008e-05
7.79565e-05
7.78057e-05
7.76495e-05
7.74883e-05
7.73227e-05
7.71532e-05
7.69802e-05
7.68036e-05
7.66237e-05
7.64408e-05
7.62552e-05
7.60678e-05
7.58793e-05
7.56902e-05
7.55008e-05
7.53112e-05
7.51215e-05
7.49321e-05
7.4743e-05
7.45546e-05
7.43668e-05
7.41799e-05
7.3994e-05
7.38088e-05
7.36246e-05
7.34414e-05
7.32597e-05
7.30814e-05
7.29111e-05
7.27586e-05
7.26392e-05
7.25672e-05
7.25401e-05
7.25293e-05
7.25011e-05
7.24416e-05
7.23495e-05
7.22335e-05
7.2098e-05
7.19503e-05
7.17926e-05
7.16292e-05
7.14612e-05
7.12911e-05
7.11187e-05
7.09459e-05
7.0772e-05
7.05982e-05
7.04238e-05
7.02492e-05
7.00743e-05
6.98988e-05
6.97227e-05
6.95458e-05
6.9368e-05
6.91892e-05
6.90093e-05
6.88283e-05
6.86462e-05
6.8463e-05
6.82785e-05
6.80927e-05
6.7906e-05
6.77181e-05
6.75296e-05
6.734e-05
6.715e-05
6.69594e-05
6.67685e-05
6.65775e-05
6.63867e-05
6.61962e-05
6.60063e-05
6.58174e-05
6.56292e-05
6.54428e-05
6.52577e-05
6.5075e-05
6.48932e-05
9.23151e-05
9.21117e-05
9.19075e-05
9.16994e-05
9.14878e-05
9.1273e-05
9.10553e-05
9.08354e-05
9.06136e-05
9.03898e-05
9.01638e-05
8.99356e-05
8.97053e-05
8.94736e-05
8.92414e-05
8.90095e-05
8.87782e-05
8.85475e-05
8.83176e-05
8.80886e-05
8.78605e-05
8.76336e-05
8.7408e-05
8.71838e-05
8.69611e-05
8.67398e-05
8.65201e-05
8.63022e-05
8.60863e-05
8.58735e-05
8.56665e-05
8.54709e-05
8.52949e-05
8.5146e-05
8.50225e-05
8.49079e-05
8.47829e-05
8.46406e-05
8.44799e-05
8.43067e-05
8.41228e-05
8.39328e-05
8.37373e-05
8.35393e-05
8.33385e-05
8.31368e-05
8.29335e-05
8.27301e-05
8.25254e-05
8.23207e-05
8.21149e-05
8.19085e-05
8.17014e-05
8.14932e-05
8.12839e-05
8.10734e-05
8.08615e-05
8.06483e-05
8.04336e-05
8.02173e-05
7.99997e-05
7.97807e-05
7.95602e-05
7.93382e-05
7.9115e-05
7.88906e-05
7.86653e-05
7.84391e-05
7.82123e-05
7.79851e-05
7.77577e-05
7.75303e-05
7.73033e-05
7.70768e-05
7.68513e-05
7.6627e-05
7.64038e-05
7.61829e-05
7.59637e-05
7.57473e-05
7.55325e-05
0.00010723
0.000106947
0.000106669
0.00010639
0.00010611
0.00010583
0.000105548
0.000105268
0.000104987
0.000104706
0.000104425
0.000104143
0.00010386
0.000103576
0.000103292
0.00010301
0.000102729
0.00010245
0.000102173
0.000101898
0.000101625
0.000101353
0.000101083
0.000100815
0.00010055
0.000100286
0.000100025
9.97655e-05
9.95088e-05
9.92551e-05
9.9006e-05
9.87647e-05
9.85352e-05
9.83213e-05
9.81215e-05
9.79263e-05
9.77249e-05
9.75141e-05
9.72929e-05
9.70656e-05
9.68325e-05
9.65969e-05
9.63581e-05
9.61186e-05
9.58773e-05
9.56359e-05
9.53931e-05
9.51504e-05
9.49064e-05
9.46623e-05
9.44168e-05
9.41705e-05
9.39231e-05
9.36743e-05
9.34242e-05
9.31725e-05
9.29191e-05
9.26641e-05
9.24074e-05
9.2149e-05
9.18889e-05
9.16273e-05
9.1364e-05
9.10991e-05
9.0833e-05
9.05656e-05
9.02974e-05
9.00283e-05
8.97588e-05
8.9489e-05
8.92192e-05
8.89497e-05
8.86808e-05
8.84128e-05
8.81462e-05
8.78814e-05
8.7618e-05
8.73576e-05
8.70994e-05
8.68445e-05
8.65922e-05
0.000123148
0.000122767
0.000122398
0.000122033
0.00012167
0.00012131
0.000120951
0.000120596
0.000120244
0.000119895
0.000119548
0.000119201
0.000118854
0.000118507
0.000118161
0.000117818
0.000117479
0.000117142
0.000116809
0.000116478
0.00011615
0.000115825
0.000115502
0.000115182
0.000114865
0.000114551
0.000114239
0.00011393
0.000113623
0.00011332
0.00011302
0.000112726
0.00011244
0.000112163
0.000111893
0.000111626
0.000111355
0.000111079
0.000110797
0.000110513
0.000110225
0.000109937
0.000109647
0.000109357
0.000109066
0.000108775
0.000108483
0.000108192
0.000107899
0.000107605
0.000107311
0.000107015
0.000106718
0.000106419
0.000106119
0.000105817
0.000105514
0.000105208
0.000104901
0.000104592
0.000104281
0.000103968
0.000103654
0.000103338
0.000103021
0.000102703
0.000102384
0.000102064
0.000101744
0.000101424
0.000101105
0.000100786
0.000100468
0.000100152
9.98376e-05
9.95256e-05
9.92156e-05
9.89092e-05
9.86059e-05
9.83063e-05
9.80106e-05
0.000140219
0.000139721
0.000139242
0.000138774
0.000138311
0.000137855
0.000137404
0.000136959
0.000136522
0.00013609
0.000135662
0.000135237
0.000134814
0.000134391
0.000133972
0.000133557
0.000133146
0.000132741
0.000132339
0.000131942
0.000131549
0.000131159
0.000130773
0.00013039
0.00013001
0.000129634
0.000129261
0.000128891
0.000128524
0.00012816
0.0001278
0.000127444
0.000127093
0.000126747
0.000126406
0.000126065
0.000125723
0.000125378
0.00012503
0.000124681
0.00012433
0.00012398
0.000123628
0.000123278
0.000122926
0.000122575
0.000122223
0.000121871
0.000121518
0.000121165
0.00012081
0.000120454
0.000120097
0.000119738
0.000119378
0.000119016
0.000118651
0.000118285
0.000117918
0.000117548
0.000117176
0.000116803
0.000116429
0.000116053
0.000115675
0.000115297
0.000114918
0.000114539
0.00011416
0.000113782
0.000113404
0.000113028
0.000112653
0.00011228
0.00011191
0.000111543
0.000111179
0.000110819
0.000110463
0.000110112
0.000109765
0.000158569
0.000157936
0.00015733
0.00015674
0.000156161
0.000155591
0.00015503
0.00015448
0.00015394
0.00015341
0.000152887
0.00015237
0.000151855
0.000151343
0.000150836
0.000150334
0.000149839
0.000149351
0.000148869
0.000148392
0.00014792
0.000147453
0.00014699
0.000146532
0.000146078
0.000145627
0.00014518
0.000144737
0.000144297
0.00014386
0.000143426
0.000142995
0.000142569
0.000142145
0.000141725
0.000141304
0.000140883
0.000140461
0.000140036
0.000139612
0.000139187
0.000138763
0.000138339
0.000137915
0.00013749
0.000137067
0.000136642
0.000136218
0.000135793
0.000135367
0.000134941
0.000134513
0.000134084
0.000133653
0.000133221
0.000132787
0.000132351
0.000131914
0.000131474
0.000131033
0.00013059
0.000130146
0.000129701
0.000129254
0.000128806
0.000128358
0.00012791
0.000127461
0.000127014
0.000126567
0.000126122
0.000125678
0.000125237
0.000124799
0.000124364
0.000123933
0.000123506
0.000123084
0.000122668
0.000122256
0.000121852
0.000178311
0.000177525
0.000176775
0.000176046
0.000175332
0.000174631
0.000173943
0.00017327
0.000172611
0.000171965
0.000171331
0.000170705
0.000170084
0.000169466
0.000168855
0.000168251
0.000167656
0.00016707
0.000166491
0.00016592
0.000165355
0.000164796
0.000164242
0.000163694
0.000163151
0.000162612
0.000162077
0.000161546
0.000161018
0.000160493
0.000159972
0.000159453
0.000158938
0.000158424
0.000157913
0.000157402
0.00015689
0.000156378
0.000155865
0.000155353
0.00015484
0.00015433
0.000153818
0.000153307
0.000152796
0.000152286
0.000151776
0.000151266
0.000150755
0.000150245
0.000149733
0.00014922
0.000148706
0.000148191
0.000147675
0.000147157
0.000146637
0.000146116
0.000145593
0.000145068
0.000144542
0.000144016
0.000143488
0.000142959
0.00014243
0.0001419
0.000141371
0.000140843
0.000140316
0.00013979
0.000139267
0.000138747
0.000138229
0.000137716
0.000137207
0.000136703
0.000136204
0.000135711
0.000135224
0.000134744
0.000134273
0.000199534
0.000198585
0.000197677
0.000196794
0.000195929
0.000195081
0.000194249
0.000193434
0.000192639
0.00019186
0.000191097
0.000190345
0.000189599
0.00018886
0.000188127
0.000187404
0.000186692
0.000185991
0.000185299
0.000184617
0.000183942
0.000183275
0.000182614
0.00018196
0.000181311
0.000180667
0.000180028
0.000179393
0.000178762
0.000178134
0.000177509
0.000176886
0.000176266
0.000175648
0.000175032
0.000174415
0.000173799
0.000173183
0.000172567
0.000171952
0.000171337
0.000170724
0.00017011
0.000169497
0.000168885
0.000168274
0.000167662
0.000167052
0.000166441
0.000165831
0.00016522
0.000164608
0.000163995
0.000163382
0.000162768
0.000162152
0.000161535
0.000160917
0.000160297
0.000159676
0.000159055
0.000158433
0.00015781
0.000157187
0.000156564
0.000155941
0.00015532
0.0001547
0.000154082
0.000153467
0.000152854
0.000152246
0.000151641
0.000151042
0.000150448
0.00014986
0.000149279
0.000148705
0.00014814
0.000147581
0.000147034
0.000222312
0.000221196
0.000220122
0.000219075
0.000218048
0.000217039
0.000216047
0.000215075
0.000214126
0.000213197
0.000212287
0.000211391
0.000210504
0.000209623
0.000208751
0.000207891
0.000207044
0.000206209
0.000205386
0.000204575
0.000203772
0.000202979
0.000202193
0.000201414
0.000200642
0.000199876
0.000199115
0.000198359
0.000197606
0.000196857
0.00019611
0.000195366
0.000194625
0.000193886
0.000193147
0.000192409
0.000191672
0.000190936
0.000190199
0.000189465
0.00018873
0.000187998
0.000187265
0.000186534
0.000185803
0.000185075
0.000184346
0.000183619
0.000182892
0.000182166
0.00018144
0.000180713
0.000179987
0.00017926
0.000178533
0.000177805
0.000177076
0.000176346
0.000175616
0.000174885
0.000174154
0.000173423
0.000172692
0.000171962
0.000171232
0.000170504
0.000169777
0.000169053
0.000168332
0.000167614
0.000166901
0.000166192
0.000165489
0.000164793
0.000164103
0.00016342
0.000162746
0.000162081
0.000161425
0.000160777
0.000160145
0.000246689
0.000245416
0.00024418
0.000242967
0.000241772
0.000240593
0.000239431
0.000238289
0.000237172
0.000236077
0.000235003
0.000233946
0.0002329
0.000231861
0.000230832
0.000229815
0.000228813
0.000227826
0.000226852
0.000225892
0.000224942
0.000224003
0.000223072
0.00022215
0.000221235
0.000220327
0.000219425
0.000218528
0.000217634
0.000216745
0.000215858
0.000214974
0.000214092
0.000213212
0.000212333
0.000211456
0.000210579
0.000209703
0.000208828
0.000207955
0.000207082
0.000206212
0.000205342
0.000204475
0.000203608
0.000202743
0.00020188
0.000201018
0.000200158
0.000199299
0.000198441
0.000197583
0.000196726
0.000195869
0.000195013
0.000194157
0.0001933
0.000192444
0.000191587
0.000190731
0.000189876
0.000189021
0.000188168
0.000187315
0.000186465
0.000185616
0.000184771
0.000183929
0.000183091
0.000182259
0.000181431
0.00018061
0.000179796
0.00017899
0.000178191
0.000177403
0.000176623
0.000175855
0.000175098
0.00017435
0.000173621
0.000272671
0.000271271
0.000269891
0.000268524
0.000267166
0.000265819
0.000264483
0.000263165
0.000261869
0.000260597
0.000259346
0.000258113
0.000256892
0.000255678
0.000254474
0.000253283
0.000252108
0.000250949
0.000249805
0.000248676
0.000247559
0.000246453
0.000245357
0.000244271
0.000243193
0.000242122
0.000241058
0.000239999
0.000238944
0.000237893
0.000236846
0.0002358
0.000234758
0.000233717
0.000232678
0.00023164
0.000230603
0.000229568
0.000228534
0.000227502
0.000226471
0.000225444
0.000224416
0.000223392
0.000222369
0.00022135
0.000220331
0.000219317
0.000218303
0.000217293
0.000216284
0.000215277
0.000214271
0.000213267
0.000212264
0.000211262
0.000210261
0.000209261
0.000208262
0.000207264
0.000206268
0.000205274
0.000204282
0.000203292
0.000202306
0.000201323
0.000200344
0.000199369
0.000198401
0.000197439
0.000196483
0.000195536
0.000194597
0.000193667
0.000192748
0.000191839
0.000190943
0.000190058
0.000189188
0.000188328
0.000187491
0.000300211
0.000298739
0.000297256
0.000295765
0.000294267
0.000292766
0.000291265
0.000289774
0.000288299
0.000286845
0.00028541
0.000283992
0.000282584
0.000281182
0.000279789
0.000278408
0.000277042
0.000275693
0.00027436
0.000273043
0.000271739
0.000270446
0.000269165
0.000267893
0.000266631
0.000265377
0.000264129
0.000262886
0.000261649
0.000260415
0.000259184
0.000257956
0.000256731
0.000255508
0.000254286
0.000253066
0.000251848
0.000250632
0.000249417
0.000248204
0.000246993
0.000245786
0.00024458
0.000243378
0.000242178
0.000240982
0.000239789
0.0002386
0.000237413
0.000236231
0.000235052
0.000233875
0.000232701
0.00023153
0.000230361
0.000229195
0.00022803
0.000226868
0.000225709
0.000224552
0.000223398
0.000222247
0.0002211
0.000219956
0.000218817
0.000217683
0.000216554
0.000215432
0.000214317
0.00021321
0.000212111
0.000211023
0.000209944
0.000208877
0.000207822
0.00020678
0.000205752
0.000204738
0.00020374
0.000202756
0.000201797
0.000329184
0.000327729
0.000326215
0.000324657
0.000323063
0.000321443
0.000319805
0.00031816
0.000316519
0.000314889
0.000313273
0.000311668
0.00031007
0.000308474
0.000306883
0.000305301
0.000303732
0.000302178
0.00030064
0.000299117
0.000297608
0.000296111
0.000294624
0.000293147
0.00029168
0.000290221
0.000288768
0.000287321
0.000285879
0.00028444
0.000283004
0.000281571
0.000280141
0.000278712
0.000277286
0.000275861
0.000274438
0.000273018
0.000271599
0.000270183
0.000268769
0.00026736
0.000265952
0.000264549
0.000263149
0.000261755
0.000260364
0.000258979
0.000257597
0.000256222
0.00025485
0.000253483
0.000252119
0.00025076
0.000249406
0.000248055
0.000246707
0.000245364
0.000244024
0.000242689
0.000241358
0.000240032
0.000238711
0.000237395
0.000236086
0.000234783
0.000233487
0.0002322
0.000230921
0.000229652
0.000228394
0.000227148
0.000225914
0.000224693
0.000223487
0.000222296
0.000221122
0.000219964
0.000218824
0.000217701
0.000216606
0.000359368
0.000358059
0.000356623
0.000355089
0.000353476
0.000351799
0.000350074
0.000348316
0.000346542
0.000344762
0.000342982
0.000341203
0.000339423
0.000337637
0.000335849
0.000334063
0.000332286
0.000330519
0.000328766
0.000327026
0.000325297
0.00032358
0.000321872
0.000320172
0.000318482
0.000316799
0.000315122
0.00031345
0.000311782
0.000310117
0.000308455
0.000306795
0.000305137
0.000303481
0.000301827
0.000300174
0.000298524
0.000296876
0.00029523
0.000293587
0.000291947
0.000290311
0.000288679
0.000287051
0.000285428
0.000283812
0.0002822
0.000280595
0.000278995
0.000277403
0.000275817
0.000274236
0.000272661
0.000271093
0.00026953
0.000267972
0.000266421
0.000264875
0.000263334
0.0002618
0.000260272
0.00025875
0.000257236
0.000255729
0.00025423
0.000252739
0.000251258
0.000249787
0.000248326
0.000246878
0.000245443
0.000244021
0.000242614
0.000241223
0.000239848
0.000238492
0.000237154
0.000235836
0.000234539
0.00023326
0.000232014
0.000390408
0.000389427
0.000388223
0.000386847
0.000385328
0.000383693
0.000381965
0.000380166
0.000378317
0.000376436
0.000374532
0.000372612
0.000370675
0.00036872
0.00036675
0.000364771
0.000362792
0.000360816
0.000358847
0.000356886
0.000354932
0.000352986
0.000351046
0.000349113
0.000347186
0.000345264
0.000343347
0.000341434
0.000339523
0.000337614
0.000335706
0.000333799
0.000331894
0.000329989
0.000328086
0.000326183
0.000324283
0.000322385
0.000320488
0.000318595
0.000316705
0.000314821
0.000312939
0.000311064
0.000309194
0.000307331
0.000305474
0.000303626
0.000301784
0.000299952
0.000298127
0.00029631
0.0002945
0.000292698
0.000290905
0.000289118
0.00028734
0.000285569
0.000283806
0.000282051
0.000280304
0.000278566
0.000276837
0.000275117
0.000273408
0.000271709
0.000270022
0.000268347
0.000266685
0.000265038
0.000263406
0.00026179
0.000260191
0.00025861
0.000257049
0.000255509
0.00025399
0.000252493
0.000251021
0.000249569
0.000248155
0.000421789
0.000421374
0.000420614
0.000419579
0.000418316
0.000416865
0.000415259
0.000413527
0.000411698
0.000409796
0.000407839
0.000405837
0.000403794
0.000401712
0.000399597
0.000397456
0.000395298
0.000393131
0.00039096
0.000388788
0.000386616
0.000384444
0.000382273
0.000380103
0.000377935
0.000375768
0.000373602
0.000371437
0.000369271
0.000367104
0.000364937
0.000362768
0.000360599
0.000358429
0.000356258
0.000354087
0.000351917
0.000349749
0.000347582
0.000345417
0.000343256
0.000341099
0.000338947
0.000336801
0.000334661
0.000332528
0.000330404
0.000328288
0.000326181
0.000324084
0.000321997
0.000319919
0.000317851
0.000315793
0.000313745
0.000311707
0.000309678
0.000307659
0.00030565
0.000303652
0.000301664
0.000299687
0.000297721
0.000295767
0.000293826
0.000291898
0.000289983
0.000288083
0.000286199
0.000284332
0.000282482
0.000280651
0.00027884
0.00027705
0.000275282
0.000273537
0.000271817
0.000270123
0.000268456
0.000266812
0.000265211
0.0004528
0.000453257
0.000453212
0.000452762
0.000451972
0.000450899
0.000449587
0.000448077
0.000446405
0.000444605
0.000442701
0.000440711
0.000438646
0.000436511
0.000434315
0.000432068
0.000429781
0.000427465
0.000425128
0.000422774
0.000420407
0.00041803
0.000415643
0.000413248
0.000410847
0.000408441
0.000406029
0.000403612
0.000401189
0.000398762
0.000396328
0.00039389
0.000391448
0.000389002
0.000386553
0.000384101
0.000381647
0.000379193
0.000376739
0.000374286
0.000371836
0.000369389
0.000366947
0.00036451
0.000362079
0.000359657
0.000357242
0.000354838
0.000352443
0.00035006
0.000347688
0.000345327
0.000342978
0.00034064
0.000338315
0.000336001
0.000333699
0.000331409
0.000329132
0.000326867
0.000324615
0.000322376
0.000320151
0.000317941
0.000315745
0.000313565
0.000311401
0.000309254
0.000307125
0.000305015
0.000302926
0.000300858
0.000298813
0.000296792
0.000294795
0.000292825
0.000290883
0.000288969
0.000287086
0.00028523
0.00028342
0.000482485
0.000484195
0.000485212
0.000485657
0.000485622
0.000485181
0.000484395
0.000483315
0.00048199
0.000480461
0.000478764
0.000476925
0.000474961
0.000472884
0.000470708
0.000468445
0.00046611
0.000463717
0.000461277
0.000458798
0.000456286
0.000453746
0.000451181
0.000448595
0.000445989
0.000443366
0.000440728
0.000438075
0.000435409
0.00043273
0.000430039
0.000427337
0.000424625
0.000421903
0.000419174
0.000416437
0.000413695
0.000410949
0.0004082
0.00040545
0.000402699
0.000399951
0.000397205
0.000394463
0.000391727
0.000388999
0.000386278
0.000383567
0.000380867
0.000378179
0.000375503
0.000372839
0.000370188
0.00036755
0.000364926
0.000362316
0.000359719
0.000357137
0.000354569
0.000352016
0.000349478
0.000346955
0.000344448
0.000341959
0.000339486
0.000337032
0.000334595
0.000332179
0.000329783
0.000327409
0.000325057
0.00032273
0.000320428
0.000318153
0.000315906
0.000313687
0.0003115
0.000309344
0.000307222
0.000305131
0.000303089
0.000509602
0.000513033
0.000515537
0.000517267
0.000518342
0.000518857
0.000518893
0.000518515
0.000517784
0.000516755
0.000515472
0.000513972
0.000512283
0.000510423
0.000508411
0.000506264
0.000504002
0.000501642
0.0004992
0.000496686
0.000494111
0.000491483
0.000488807
0.000486088
0.000483331
0.000480541
0.00047772
0.000474871
0.000471995
0.000469096
0.000466174
0.00046323
0.000460268
0.000457288
0.000454293
0.000451283
0.000448262
0.000445231
0.000442192
0.000439147
0.000436097
0.000433046
0.000429993
0.000426943
0.000423895
0.000420853
0.000417818
0.000414791
0.000411774
0.000408768
0.000405775
0.000402794
0.000399826
0.000396873
0.000393934
0.00039101
0.000388101
0.000385209
0.000382332
0.000379472
0.000376628
0.000373802
0.000370993
0.000368204
0.000365434
0.000362685
0.000359955
0.000357248
0.000354563
0.000351902
0.000349267
0.000346658
0.000344077
0.000341524
0.000339003
0.000336513
0.000334057
0.000331635
0.000329251
0.0003269
0.000324601
0.000532561
0.000538278
0.000542788
0.00054628
0.000548903
0.000550778
0.000552007
0.000552675
0.000552856
0.000552618
0.000552019
0.000551108
0.000549923
0.000548492
0.00054684
0.000544992
0.000542972
0.000540801
0.000538499
0.000536083
0.000533568
0.000530964
0.00052828
0.000525525
0.000522705
0.000519829
0.000516899
0.000513921
0.000510899
0.000507836
0.000504735
0.000501599
0.00049843
0.000495232
0.000492007
0.000488758
0.000485487
0.000482197
0.000478891
0.000475572
0.000472241
0.000468901
0.000465556
0.000462207
0.000458856
0.000455508
0.000452162
0.000448821
0.000445488
0.000442164
0.00043885
0.000435549
0.000432259
0.000428983
0.000425722
0.000422475
0.000419244
0.00041603
0.000412832
0.000409652
0.000406489
0.000403345
0.00040022
0.000397116
0.000394032
0.00039097
0.00038793
0.000384914
0.000381922
0.000378955
0.000376015
0.000373104
0.000370223
0.000367372
0.000364554
0.000361771
0.000359023
0.000356312
0.000353641
0.000351006
0.000348426
0.000549362
0.000558038
0.000565179
0.00057101
0.000575714
0.000579442
0.000582322
0.00058446
0.000585947
0.000586868
0.000587295
0.00058729
0.000586904
0.000586176
0.000585141
0.000583831
0.000582275
0.000580502
0.000578536
0.000576401
0.000574114
0.000571692
0.000569148
0.000566495
0.000563741
0.000560898
0.000557972
0.00055497
0.000551899
0.000548764
0.00054557
0.00054232
0.00053902
0.000535673
0.000532283
0.000528855
0.00052539
0.000521894
0.00051837
0.000514821
0.00051125
0.000507661
0.000504058
0.000500442
0.000496818
0.000493188
0.000489556
0.000485923
0.000482292
0.000478666
0.000475046
0.000471435
0.000467833
0.000464242
0.000460664
0.000457099
0.000453549
0.000450014
0.000446495
0.000442993
0.000439508
0.000436041
0.000432594
0.000429168
0.000425763
0.000422379
0.000419018
0.000415682
0.00041237
0.000409085
0.000405827
0.000402599
0.000399401
0.000396236
0.000393104
0.000390007
0.000386948
0.000383928
0.000380949
0.000378008
0.000375123
0.000557529
0.000569956
0.000580466
0.000589324
0.000596749
0.000602927
0.000608013
0.000612138
0.000615415
0.000617947
0.000619821
0.000621117
0.000621898
0.000622219
0.000622126
0.000621657