/*--------------------------------*- C++ -*----------------------------------*\
| =========                 |                                                 |
| \\      /  F ield         | OpenFOAM: The Open Source CFD Toolbox           |
|  \\    /   O peration     | Version:  2412                                  |
|   \\  /    A nd           | Website:  www.openfoam.com                      |
|    \\/     M anipulation  |                                                 |
\*---------------------------------------------------------------------------*/
FoamFile
{
    version     2.0;
    format      ascii;
    arch        "LSB;label=32;scalar=64";
    class       volScalarField;
    location    "80";
    object      p;
}
// * * * * * * * * * * * * * * * * * * * * * * * * * * * * * * * * * * * * * //

dimensions      [0 2 -2 0 0 0 0];

internalField   nonuniform List<scalar> 
7448
(
-317.719
-313.999
-310.008
-305.748
-301.246
-296.528
-291.618
-286.53
-281.291
-275.911
-270.416
-264.821
-259.142
-253.391
-247.584
-241.735
-235.858
-229.963
-224.06
-218.159
-212.269
-206.401
-200.556
-194.746
-188.975
-183.244
-177.564
-171.935
-166.357
-160.836
-155.373
-149.97
-144.626
-139.338
-134.111
-128.943
-123.83
-118.772
-113.77
-108.819
-103.918
-99.0637
-94.254
-89.4881
-84.761
-80.07
-75.4156
-70.7929
-66.1972
-61.629
-57.0862
-52.5651
-48.0631
-43.5786
-39.1096
-34.6549
-30.2127
-25.7805
-21.3582
-16.9466
-12.5438
-8.14833
-3.7585
0.622815
4.99594
9.35881
13.7139
18.0585
22.3931
26.7132
31.0188
35.3083
39.5782
43.8258
48.0489
52.2444
56.4089
60.5365
64.6232
68.6736
72.6547
-317.719
-313.999
-310.008
-305.748
-301.246
-296.528
-291.618
-286.53
-281.291
-275.911
-270.416
-264.821
-259.142
-253.391
-247.584
-241.735
-235.858
-229.963
-224.06
-218.159
-212.269
-206.401
-200.556
-194.746
-188.975
-183.244
-177.564
-171.935
-166.357
-160.836
-155.373
-149.97
-144.626
-139.338
-134.111
-128.943
-123.83
-118.772
-113.77
-108.819
-103.918
-99.0637
-94.2539
-89.4881
-84.761
-80.07
-75.4156
-70.7929
-66.1972
-61.629
-57.0862
-52.5651
-48.0631
-43.5786
-39.1096
-34.6549
-30.2126
-25.7805
-21.3582
-16.9466
-12.5438
-8.1483
-3.75848
0.622836
4.99594
9.35881
13.7139
18.0585
22.3931
26.7133
31.0189
35.3083
39.5783
43.8258
48.0489
52.2444
56.4089
60.5366
64.6232
68.6736
72.6548
-317.719
-313.999
-310.007
-305.748
-301.246
-296.528
-291.618
-286.53
-281.291
-275.911
-270.416
-264.821
-259.142
-253.391
-247.584
-241.735
-235.858
-229.963
-224.06
-218.159
-212.269
-206.401
-200.556
-194.746
-188.975
-183.244
-177.564
-171.935
-166.357
-160.836
-155.373
-149.97
-144.626
-139.338
-134.111
-128.943
-123.83
-118.772
-113.77
-108.819
-103.918
-99.0637
-94.2539
-89.4881
-84.7609
-80.0699
-75.4156
-70.7929
-66.1972
-61.629
-57.0862
-52.5651
-48.0631
-43.5786
-39.1096
-34.6549
-30.2126
-25.7805
-21.3581
-16.9465
-12.5438
-8.14829
-3.75845
0.622854
4.99597
9.35886
13.7139
18.0585
22.3931
26.7133
31.0189
35.3083
39.5783
43.8259
48.0489
52.2444
56.409
60.5366
64.6233
68.6736
72.6548
-317.719
-313.999
-310.007
-305.748
-301.245
-296.528
-291.618
-286.529
-281.291
-275.911
-270.416
-264.821
-259.141
-253.391
-247.584
-241.735
-235.858
-229.963
-224.06
-218.159
-212.269
-206.401
-200.556
-194.746
-188.975
-183.244
-177.564
-171.935
-166.357
-160.836
-155.373
-149.97
-144.625
-139.338
-134.111
-128.943
-123.83
-118.772
-113.77
-108.819
-103.918
-99.0636
-94.2539
-89.488
-84.7609
-80.0699
-75.4155
-70.7929
-66.1971
-61.629
-57.0861
-52.5651
-48.0631
-43.5785
-39.1096
-34.6548
-30.2126
-25.7805
-21.3581
-16.9465
-12.5437
-8.14824
-3.75842
0.622895
4.99602
9.35889
13.714
18.0586
22.3932
26.7133
31.0189
35.3084
39.5783
43.8259
48.049
52.2445
56.409
60.5366
64.6233
68.6737
72.6549
-317.719
-313.998
-310.007
-305.747
-301.245
-296.528
-291.617
-286.529
-281.29
-275.91
-270.415
-264.821
-259.141
-253.39
-247.583
-241.735
-235.858
-229.963
-224.06
-218.159
-212.269
-206.401
-200.556
-194.746
-188.975
-183.243
-177.564
-171.935
-166.357
-160.836
-155.373
-149.97
-144.625
-139.338
-134.111
-128.943
-123.829
-118.772
-113.769
-108.819
-103.918
-99.0636
-94.2538
-89.488
-84.7608
-80.0698
-75.4155
-70.7928
-66.1971
-61.6289
-57.0861
-52.565
-48.063
-43.5785
-39.1095
-34.6548
-30.2125
-25.7804
-21.358
-16.9464
-12.5437
-8.14817
-3.75835
0.622967
4.99608
9.35896
13.7141
18.0587
22.3932
26.7134
31.019
35.3084
39.5784
43.826
48.0491
52.2446
56.4091
60.5367
64.6234
68.6738
72.655
-317.718
-313.997
-310.006
-305.747
-301.244
-296.527
-291.617
-286.529
-281.29
-275.91
-270.415
-264.82
-259.141
-253.39
-247.583
-241.735
-235.858
-229.963
-224.06
-218.159
-212.269
-206.4
-200.556
-194.745
-188.975
-183.243
-177.564
-171.935
-166.357
-160.835
-155.373
-149.97
-144.625
-139.338
-134.111
-128.943
-123.829
-118.772
-113.769
-108.819
-103.918
-99.0634
-94.2537
-89.4878
-84.7607
-80.0697
-75.4153
-70.7927
-66.1969
-61.6288
-57.0859
-52.5649
-48.0629
-43.5783
-39.1094
-34.6547
-30.2124
-25.7803
-21.3579
-16.9463
-12.5436
-8.14806
-3.75823
0.623081
4.9962
9.35908
13.7142
18.0588
22.3933
26.7135
31.0192
35.3086
39.5785
43.8261
48.0492
52.2447
56.4092
60.5369
64.6235
68.6739
72.6551
-317.716
-313.996
-310.005
-305.745
-301.243
-296.526
-291.616
-286.528
-281.289
-275.909
-270.414
-264.82
-259.14
-253.389
-247.582
-241.734
-235.857
-229.962
-224.059
-218.158
-212.268
-206.4
-200.555
-194.745
-188.974
-183.243
-177.564
-171.934
-166.357
-160.835
-155.373
-149.97
-144.625
-139.337
-134.111
-128.942
-123.829
-118.772
-113.769
-108.819
-103.918
-99.0632
-94.2535
-89.4876
-84.7605
-80.0695
-75.4151
-70.7925
-66.1967
-61.6286
-57.0857
-52.5647
-48.0627
-43.5781
-39.1092
-34.6545
-30.2122
-25.7801
-21.3577
-16.9461
-12.5434
-8.14786
-3.75803
0.62329
4.9964
9.35928
13.7144
18.059
22.3936
26.7137
31.0194
35.3088
39.5787
43.8263
48.0494
52.2449
56.4094
60.5371
64.6238
68.6741
72.6553
-317.713
-313.993
-310.002
-305.743
-301.241
-296.524
-291.614
-286.526
-281.287
-275.907
-270.412
-264.818
-259.139
-253.388
-247.581
-241.733
-235.856
-229.961
-224.058
-218.157
-212.267
-206.399
-200.554
-194.744
-188.973
-183.242
-177.563
-171.934
-166.356
-160.835
-155.372
-149.969
-144.624
-139.337
-134.11
-128.942
-123.829
-118.771
-113.769
-108.818
-103.917
-99.0628
-94.2531
-89.4873
-84.7601
-80.0691
-75.4148
-70.7921
-66.1964
-61.6282
-57.0854
-52.5643
-48.0623
-43.5778
-39.1088
-34.6541
-30.2119
-25.7797
-21.3574
-16.9458
-12.543
-8.14752
-3.7577
0.623617
4.99674
9.35962
13.7147
18.0593
22.3939
26.7141
31.0197
35.3091
39.5791
43.8267
48.0497
52.2452
56.4098
60.5374
64.6241
68.6745
72.6557
-317.709
-313.989
-309.999
-305.74
-301.238
-296.521
-291.611
-286.523
-281.285
-275.905
-270.41
-264.816
-259.137
-253.386
-247.579
-241.731
-235.854
-229.96
-224.057
-218.156
-212.266
-206.398
-200.553
-194.743
-188.972
-183.241
-177.562
-171.933
-166.355
-160.834
-155.371
-149.968
-144.624
-139.336
-134.11
-128.941
-123.828
-118.771
-113.768
-108.818
-103.917
-99.0622
-94.2525
-89.4867
-84.7596
-80.0686
-75.4142
-70.7916
-66.1958
-61.6277
-57.0849
-52.5638
-48.0618
-43.5773
-39.1083
-34.6536
-30.2114
-25.7792
-21.3569
-16.9453
-12.5425
-8.147
-3.75718
0.624149
4.99726
9.36015
13.7153
18.0598
22.3944
26.7146
31.0202
35.3097
39.5796
43.8272
48.0503
52.2458
56.4104
60.538
64.6247
68.675
72.6562
-317.703
-313.984
-309.993
-305.735
-301.233
-296.517
-291.607
-286.519
-281.281
-275.901
-270.407
-264.813
-259.134
-253.383
-247.577
-241.729
-235.852
-229.957
-224.055
-218.154
-212.264
-206.396
-200.551
-194.741
-188.971
-183.24
-177.561
-171.931
-166.354
-160.832
-155.37
-149.967
-144.623
-139.335
-134.109
-128.94
-123.827
-118.77
-113.767
-108.817
-103.916
-99.0613
-94.2516
-89.4858
-84.7587
-80.0678
-75.4134
-70.7907
-66.1951
-61.6269
-57.0841
-52.563
-48.061
-43.5765
-39.1075
-34.6528
-30.2106
-25.7785
-21.3561
-16.9445
-12.5417
-8.14623
-3.7564
0.624916
4.99804
9.36093
13.716
18.0606
22.3952
26.7154
31.021
35.3105
39.5804
43.828
48.0511
52.2466
56.4112
60.5388
64.6255
68.6759
72.657
-317.696
-313.976
-309.987
-305.728
-301.227
-296.511
-291.601
-286.514
-281.276
-275.897
-270.403
-264.809
-259.13
-253.38
-247.573
-241.725
-235.849
-229.954
-224.052
-218.151
-212.262
-206.394
-200.549
-194.739
-188.969
-183.238
-177.559
-171.929
-166.352
-160.831
-155.368
-149.965
-144.621
-139.334
-134.107
-128.939
-123.826
-118.769
-113.766
-108.816
-103.915
-99.0601
-94.2505
-89.4847
-84.7576
-80.0666
-75.4123
-70.7896
-66.194
-61.6258
-57.083
-52.5619
-48.06
-43.5754
-39.1065
-34.6518
-30.2095
-25.7774
-21.355
-16.9434
-12.5407
-8.14516
-3.75533
0.625994
4.99912
9.36201
13.7171
18.0617
22.3963
26.7165
31.0221
35.3116
39.5815
43.8292
48.0522
52.2477
56.4123
60.5399
64.6266
68.677
72.6582
-317.685
-313.967
-309.978
-305.72
-301.219
-296.503
-291.594
-286.507
-281.27
-275.891
-270.397
-264.804
-259.125
-253.375
-247.569
-241.721
-235.845
-229.95
-224.048
-218.148
-212.258
-206.39
-200.546
-194.736
-188.966
-183.235
-177.556
-171.927
-166.35
-160.828
-155.366
-149.963
-144.619
-139.332
-134.105
-128.937
-123.824
-118.767
-113.764
-108.814
-103.913
-99.0585
-94.2489
-89.4831
-84.7561
-80.0651
-75.4108
-70.7882
-66.1925
-61.6244
-57.0816
-52.5605
-48.0586
-43.574
-39.1051
-34.6504
-30.2081
-25.776
-21.3536
-16.942
-12.5393
-8.14374
-3.75392
0.627418
5.00054
9.36344
13.7186
18.0632
22.3978
26.718
31.0236
35.313
39.583
43.8306
48.0537
52.2492
56.4138
60.5414
64.6282
68.6785
72.6597
-317.673
-313.955
-309.966
-305.709
-301.209
-296.494
-291.585
-286.499
-281.262
-275.883
-270.39
-264.797
-259.118
-253.369
-247.563
-241.715
-235.839
-229.945
-224.043
-218.143
-212.254
-206.386
-200.542
-194.733
-188.962
-183.232
-177.553
-171.924
-166.347
-160.826
-155.363
-149.961
-144.616
-139.329
-134.103
-128.935
-123.822
-118.765
-113.762
-108.812
-103.911
-99.0565
-94.2469
-89.4812
-84.7542
-80.0633
-75.409
-70.7863
-66.1907
-61.6226
-57.0798
-52.5587
-48.0568
-43.5722
-39.1033
-34.6486
-30.2063
-25.7742
-21.3519
-16.9402
-12.5375
-8.14195
-3.75212
0.629218
5.00235
9.36526
13.7204
18.065
22.3996
26.7198
31.0255
35.3149
39.5849
43.8325
48.0556
52.2511
56.4157
60.5434
64.6301
68.6805
72.6616
-317.657
-313.94
-309.953
-305.696
-301.197
-296.483
-291.575
-286.489
-281.252
-275.874
-270.381
-264.789
-259.111
-253.361
-247.556
-241.709
-235.833
-229.939
-224.038
-218.138
-212.249
-206.381
-200.537
-194.728
-188.958
-183.227
-177.549
-171.92
-166.343
-160.822
-155.36
-149.957
-144.613
-139.326
-134.1
-128.932
-123.819
-118.762
-113.759
-108.809
-103.908
-99.0541
-94.2445
-89.4788
-84.7518
-80.0609
-75.4067
-70.7841
-66.1884
-61.6203
-57.0775
-52.5565
-48.0546
-43.5701
-39.1011
-34.6464
-30.2041
-25.772
-21.3497
-16.938
-12.5353
-8.13973
-3.7499
0.631445
5.00459
9.36751
13.7226
18.0673
22.4019
26.7221
31.0277
35.3172
39.5872
43.8349
48.058
52.2535
56.4181
60.5457
64.6325
68.6829
72.664
-317.638
-313.922
-309.936
-305.681
-301.182
-296.469
-291.561
-286.476
-281.24
-275.863
-270.371
-264.779
-259.101
-253.352
-247.547
-241.701
-235.825
-229.932
-224.031
-218.131
-212.242
-206.375
-200.532
-194.723
-188.953
-183.222
-177.544
-171.915
-166.339
-160.818
-155.356
-149.953
-144.609
-139.322
-134.096
-128.928
-123.815
-118.759
-113.756
-108.806
-103.905
-99.051
-94.2415
-89.4759
-84.7489
-80.0581
-75.4039
-70.7813
-66.1857
-61.6176
-57.0748
-52.5538
-48.0519
-43.5674
-39.0984
-34.6437
-30.2015
-25.7694
-21.347
-16.9354
-12.5326
-8.13704
-3.7472
0.634149
5.0073
9.37024
13.7254
18.07
22.4046
26.7249
31.0305
35.32
39.59
43.8377
48.0608
52.2563
56.4209
60.5486
64.6353
68.6857
72.6669
-317.615
-313.901
-309.916
-305.662
-301.164
-296.452
-291.545
-286.461
-281.226
-275.85
-270.358
-264.766
-259.09
-253.341
-247.537
-241.691
-235.816
-229.923
-224.022
-218.123
-212.235
-206.368
-200.525
-194.716
-188.946
-183.216
-177.538
-171.91
-166.333
-160.813
-155.351
-149.949
-144.605
-139.318
-134.092
-128.924
-123.811
-118.755
-113.752
-108.802
-103.902
-99.0474
-94.238
-89.4724
-84.7455
-80.0547
-75.4005
-70.778
-66.1824
-61.6143
-57.0716
-52.5506
-48.0487
-43.5642
-39.0952
-34.6405
-30.1983
-25.7662
-21.3438
-16.9322
-12.5294
-8.13381
-3.74397
0.637395
5.01055
9.37351
13.7287
18.0733
22.4079
26.7282
31.0339
35.3233
39.5934
43.841
48.0642
52.2597
56.4244
60.552
64.6388
68.6892
72.6703
-317.588
-313.875
-309.891
-305.639
-301.143
-296.432
-291.526
-286.443
-281.209
-275.833
-270.343
-264.752
-259.076
-253.328
-247.525
-241.679
-235.805
-229.913
-224.012
-218.113
-212.226
-206.359
-200.516
-194.708
-188.939
-183.209
-177.531
-171.903
-166.327
-160.806
-155.345
-149.943
-144.599
-139.313
-134.087
-128.919
-123.806
-118.75
-113.748
-108.798
-103.897
-99.0431
-94.2338
-89.4682
-84.7414
-80.0507
-75.3965
-70.774
-66.1785
-61.6104
-57.0677
-52.5467
-48.0448
-43.5603
-39.0914
-34.6367
-30.1945
-25.7623
-21.34
-16.9283
-12.5255
-8.12996
-3.74011
0.641259
5.01443
9.3774
13.7326
18.0772
22.4119
26.7321
31.0378
35.3273
39.5974
43.845
48.0682
52.2638
56.4284
60.5561
64.6428
68.6932
72.6743
-317.555
-313.845
-309.863
-305.612
-301.117
-296.407
-291.504
-286.422
-281.189
-275.814
-270.324
-264.735
-259.06
-253.313
-247.51
-241.665
-235.792
-229.9
-224
-218.102
-212.215
-206.349
-200.506
-194.698
-188.93
-183.2
-177.523
-171.895
-166.319
-160.799
-155.338
-149.936
-144.593
-139.306
-134.081
-128.913
-123.801
-118.744
-113.742
-108.792
-103.892
-99.038
-94.2287
-89.4632
-84.7365
-80.0458
-75.3917
-70.7693
-66.1738
-61.6058
-57.0631
-52.5422
-48.0403
-43.5558
-39.0869
-34.6322
-30.1899
-25.7578
-21.3354
-16.9238
-12.521
-8.12539
-3.73554
0.645845
5.01902
9.38202
13.7372
18.0819
22.4165
26.7368
31.0425
35.332
39.6021
43.8498
48.0729
52.2685
56.4332
60.5608
64.6476
68.698
72.6791
-317.516
-313.808
-309.828
-305.58
-301.087
-296.379
-291.477
-286.396
-281.165
-275.791
-270.303
-264.714
-259.04
-253.295
-247.493
-241.649
-235.776
-229.885
-223.986
-218.088
-212.202
-206.336
-200.495
-194.687
-188.919
-183.19
-177.513
-171.886
-166.31
-160.79
-155.33
-149.928
-144.585
-139.299
-134.073
-128.906
-123.794
-118.738
-113.736
-108.786
-103.886
-99.0319
-94.2227
-89.4574
-84.7307
-80.0401
-75.3861
-70.7637
-66.1683
-61.6003
-57.0576
-52.5367
-48.0348
-43.5504
-39.0815
-34.6268
-30.1846
-25.7524
-21.3301
-16.9184
-12.5156
-8.11999
-3.73013
0.651266
5.02445
9.38747
13.7427
18.0874
22.422
26.7423
31.048
35.3376
39.6076
43.8553
48.0785
52.2741
56.4388
60.5664
64.6532
68.7036
72.6847
-317.47
-313.765
-309.788
-305.541
-301.051
-296.345
-291.445
-286.366
-281.136
-275.765
-270.277
-264.69
-259.017
-253.273
-247.472
-241.629
-235.757
-229.867
-223.969
-218.072
-212.187
-206.322
-200.481
-194.674
-188.906
-183.178
-177.501
-171.875
-166.299
-160.78
-155.32
-149.918
-144.576
-139.29
-134.065
-128.898
-123.786
-118.73
-113.728
-108.779
-103.878
-99.0247
-94.2157
-89.4504
-84.7239
-80.0334
-75.3794
-70.7571
-66.1617
-61.5938
-57.0512
-52.5303
-48.0285
-43.544
-39.0751
-34.6205
-30.1782
-25.7461
-21.3237
-16.9121
-12.5092
-8.11362
-3.72376
0.657658
5.03086
9.3939
13.7491
18.0938
22.4285
26.7488
31.0545
35.3441
39.6142
43.8619
48.0851
52.2807
56.4453
60.573
64.6598
68.7102
72.6913
-317.415
-313.714
-309.74
-305.496
-301.009
-296.305
-291.407
-286.331
-281.103
-275.733
-270.247
-264.662
-258.99
-253.247
-247.448
-241.606
-235.735
-229.847
-223.949
-218.054
-212.169
-206.305
-200.464
-194.658
-188.891
-183.164
-177.488
-171.861
-166.287
-160.768
-155.308
-149.907
-144.565
-139.279
-134.055
-128.888
-123.776
-118.72
-113.719
-108.77
-103.87
-99.0162
-94.2074
-89.4422
-84.7158
-80.0254
-75.3716
-70.7493
-66.154
-61.5862
-57.0436
-52.5228
-48.0209
-43.5365
-39.0677
-34.613
-30.1708
-25.7387
-21.3163
-16.9046
-12.5017
-8.10613
-3.71626
0.665171
5.03839
9.40146
13.7567
18.1014
22.4361
26.7564
31.0622
35.3517
39.6218
43.8696
48.0928
52.2884
56.4531
60.5807
64.6675
68.7179
72.6991
-317.351
-313.654
-309.683
-305.443
-300.959
-296.258
-291.363
-286.289
-281.063
-275.696
-270.212
-264.628
-258.959
-253.217
-247.419
-241.579
-235.71
-229.822
-223.926
-218.031
-212.147
-206.285
-200.445
-194.64
-188.874
-183.147
-177.472
-171.846
-166.272
-160.754
-155.294
-149.894
-144.552
-139.267
-134.043
-128.876
-123.765
-118.709
-113.708
-108.759
-103.86
-99.0062
-94.1976
-89.4326
-84.7064
-80.0161
-75.3624
-70.7402
-66.145
-61.5772
-57.0347
-52.5139
-48.0121
-43.5277
-39.0589
-34.6042
-30.162
-25.7299
-21.3075
-16.8958
-12.493
-8.09733
-3.70746
0.673985
5.04721
9.41032
13.7656
18.1103
22.445
26.7654
31.0711
35.3607
39.6308
43.8785
48.1017
52.2974
56.4621
60.5897
64.6765
68.7268
72.7081
-317.275
-313.583
-309.617
-305.381
-300.9
-296.203
-291.311
-286.24
-281.017
-275.652
-270.171
-264.589
-258.922
-253.182
-247.386
-241.547
-235.68
-229.793
-223.899
-218.006
-212.123
-206.261
-200.423
-194.619
-188.853
-183.127
-177.453
-171.828
-166.255
-160.737
-155.278
-149.879
-144.537
-139.253
-134.029
-128.863
-123.752
-118.697
-113.696
-108.747
-103.848
-98.9946
-94.1861
-89.4214
-84.6953
-80.0052
-75.3516
-70.7295
-66.1344
-61.5667
-57.0243
-52.5035
-48.0018
-43.5174
-39.0486
-34.594
-30.1518
-25.7197
-21.2973
-16.8856
-12.4827
-8.08704
-3.69717
0.684295
5.05754
9.42068
13.7759
18.1207
22.4554
26.7758
31.0816
35.3711
39.6412
43.889
48.1122
52.3079
56.4725
60.6002
64.687
68.7372
72.7188
-317.185
-313.499
-309.539
-305.307
-300.831
-296.138
-291.25
-286.182
-280.962
-275.6
-270.122
-264.543
-258.878
-253.141
-247.347
-241.51
-235.644
-229.76
-223.867
-217.975
-212.094
-206.233
-200.396
-194.593
-188.829
-183.104
-177.431
-171.807
-166.234
-160.718
-155.26
-149.861
-144.52
-139.236
-134.012
-128.847
-123.736
-118.682
-113.681
-108.733
-103.834
-98.9809
-94.1728
-89.4082
-84.6823
-79.9924
-75.3389
-70.717
-66.122
-61.5545
-57.0121
-52.4914
-47.9897
-43.5054
-39.0366
-34.582
-30.1398
-25.7077
-21.2853
-16.8736
-12.4707
-8.07503
-3.68516
0.696328
5.06959
9.43277
13.788
18.1329
22.4675
26.7879
31.0937
35.3833
39.6534
43.9012
48.1244
52.3201
56.4847
60.6123
64.6991
68.7493
72.7311
-317.08
-313.401
-309.446
-305.221
-300.75
-296.062
-291.178
-286.115
-280.899
-275.54
-270.065
-264.489
-258.827
-253.092
-247.301
-241.467
-235.603
-229.721
-223.829
-217.94
-212.06
-206.201
-200.366
-194.564
-188.801
-183.077
-177.405
-171.782
-166.211
-160.695
-155.238
-149.839
-144.499
-139.216
-133.993
-128.828
-123.718
-118.664
-113.664
-108.716
-103.817
-98.965
-94.1571
-89.3928
-84.6672
-79.9775
-75.3242
-70.7024
-66.1076
-61.5401
-56.9978
-52.4772
-47.9756
-43.4914
-39.0226
-34.568
-30.1258
-25.6938
-21.2714
-16.8597
-12.4567
-8.06104
-3.67117
0.710333
5.08361
9.44683
13.8021
18.147
22.4817
26.802
31.1078
35.3974
39.6675
43.9153
48.1385
52.3342
56.4988
60.6264
64.7132
68.7633
72.7455
-316.955
-313.285
-309.338
-305.12
-300.655
-295.973
-291.094
-286.036
-280.824
-275.47
-269.999
-264.426
-258.767
-253.036
-247.247
-241.416
-235.555
-229.675
-223.786
-217.898
-212.021
-206.164
-200.33
-194.53
-188.768
-183.046
-177.375
-171.754
-166.183
-160.668
-155.212
-149.815
-144.476
-139.193
-133.971
-128.807
-123.698
-118.644
-113.644
-108.697
-103.799
-98.9465
-94.139
-89.375
-84.6496
-79.9601
-75.307
-70.6854
-66.0908
-61.5235
-56.9813
-52.4608
-47.9592
-43.475
-39.0063
-34.5518
-30.1096
-25.6775
-21.2552
-16.8435
-12.4405
-8.0448
-3.65492
0.726596
5.09988
9.46315
13.8184
18.1633
22.498
26.8184
31.1242
35.4138
39.6839
43.9317
48.1549
52.3505
56.5152
60.6427
64.7294
68.7794
72.7622
-316.809
-313.148
-309.211
-305.001
-300.544
-295.868
-290.996
-285.943
-280.737
-275.387
-269.921
-264.353
-258.698
-252.97
-247.185
-241.357
-235.499
-229.621
-223.735
-217.85
-211.975
-206.12
-200.288
-194.49
-188.73
-183.01
-177.34
-171.72
-166.151
-160.638
-155.182
-149.786
-144.448
-139.166
-133.945
-128.782
-123.673
-118.62
-113.621
-108.674
-103.777
-98.9249
-94.1178
-89.3542
-84.6291
-79.94
-75.2871
-70.6657
-66.0713
-61.5041
-56.9621
-52.4417
-47.9402
-43.4561
-38.9874
-34.5329
-30.0908
-25.6588
-21.2364
-16.8247
-12.4217
-8.02597
-3.6361
0.745433
5.11873
9.48204
13.8373
18.1823
22.5169
26.8373
31.1431
35.4327
39.7028
43.9505
48.1737
52.3694
56.534
60.6614
64.7481
68.798
72.7814
-316.636
-312.988
-309.061
-304.861
-300.413
-295.746
-290.881
-285.835
-280.635
-275.291
-269.83
-264.267
-258.617
-252.893
-247.112
-241.288
-235.433
-229.559
-223.676
-217.794
-211.921
-206.069
-200.24
-194.444
-188.686
-182.967
-177.3
-171.681
-166.114
-160.602
-155.148
-149.753
-144.416
-139.135
-133.915
-128.753
-123.645
-118.593
-113.595
-108.648
-103.751
-98.8999
-94.0933
-89.3301
-84.6054
-79.9166
-75.264
-70.6429
-66.0487
-61.4817
-56.9398
-52.4195
-47.9182
-43.4342
-38.9656
-34.5111
-30.069
-25.637
-21.2147
-16.803
-12.4
-8.0042
-3.61435
0.767198
5.1405
9.50385
13.8592
18.2041
22.5387
26.8591
31.1649
35.4545
39.7246
43.9723
48.1954
52.391
56.5556
60.6828
64.7695
68.8192
72.8035
-316.432
-312.799
-308.886
-304.697
-300.26
-295.602
-290.746
-285.708
-280.516
-275.179
-269.724
-264.167
-258.522
-252.804
-247.027
-241.207
-235.357
-229.487
-223.607
-217.728
-211.859
-206.01
-200.183
-194.39
-188.635
-182.918
-177.253
-171.636
-166.071
-160.56
-155.108
-149.714
-144.379
-139.1
-133.881
-128.719
-123.612
-118.561
-113.564
-108.618
-103.721
-98.871
-94.0649
-89.3021
-84.5779
-79.8895
-75.2373
-70.6164
-66.0225
-61.4558
-56.914
-52.3939
-47.8927
-43.4088
-38.9403
-34.4859
-30.0438
-25.6119
-21.1896
-16.7779
-12.3749
-7.97909
-3.58926
0.79229
5.16559
9.52898
13.8843
18.2292
22.5638
26.8842
31.19
35.4795
39.7495
43.9972
48.2203
52.4158
56.5803
60.7074
64.794
68.8435
72.8287
-316.192
-312.576
-308.678
-304.504
-300.079
-295.433
-290.588
-285.56
-280.376
-275.048
-269.6
-264.05
-258.412
-252.699
-246.928
-241.114
-235.268
-229.403
-223.527
-217.652
-211.787
-205.941
-200.118
-194.327
-188.575
-182.861
-177.198
-171.584
-166.02
-160.512
-155.062
-149.67
-144.336
-139.058
-133.84
-128.68
-123.574
-118.524
-113.528
-108.583
-103.687
-98.8374
-94.032
-89.2698
-84.5462
-79.8582
-75.2064
-70.5858
-65.9923
-61.4258
-56.8843
-52.3644
-47.8633
-43.3795
-38.9112
-34.4568
-30.0148
-25.5829
-21.1607
-16.749
-12.346
-7.95019
-3.5604
0.821153
5.19444
9.55786
13.9132
18.2581
22.5926
26.913
31.2187
35.5082
39.7781
44.0257
48.2487
52.4441
56.6085
60.7354
64.8219
68.8711
72.8574
-315.907
-312.313
-308.434
-304.277
-299.867
-295.235
-290.402
-285.386
-280.213
-274.894
-269.455
-263.913
-258.283
-252.577
-246.813
-241.005
-235.165
-229.305
-223.434
-217.564
-211.703
-205.861
-200.041
-194.254
-188.505
-182.795
-177.135
-171.523
-165.962
-160.456
-155.008
-149.618
-144.286
-139.01
-133.794
-128.635
-123.531
-118.481
-113.486
-108.543
-103.648
-98.7987
-93.9941
-89.2325
-84.5095
-79.8221
-75.1707
-70.5506
-65.9574
-61.3912
-56.85
-52.3303
-47.8294
-43.3458
-38.8776
-34.4234
-29.9814
-25.5496
-21.1275
-16.7158
-12.3127
-7.91698
-3.52725
0.854281
5.22754
9.59098
13.9462
18.2911
22.6256
26.9459
31.2515
35.5409
39.8107
44.0581
48.281
52.4763
56.6405
60.7671
64.8535
68.9023
72.8898
-315.571
-312.003
-308.146
-304.009
-299.618
-295.003
-290.185
-285.182
-280.021
-274.714
-269.286
-263.754
-258.132
-252.435
-246.679
-240.878
-235.044
-229.191
-223.326
-217.461
-211.605
-205.768
-199.953
-194.17
-188.425
-182.718
-177.061
-171.453
-165.895
-160.391
-154.946
-149.558
-144.228
-138.954
-133.74
-128.582
-123.48
-118.432
-113.438
-108.496
-103.602
-98.754
-93.9503
-89.1895
-84.4671
-79.7804
-75.1296
-70.5099
-65.9172
-61.3514
-56.8105
-52.2911
-47.7905
-43.307
-38.839
-34.3849
-29.943
-25.5114
-21.0893
-16.6776
-12.2746
-7.87891
-3.48925
0.892233
5.26544
9.62887
13.9841
18.3289
22.6633
26.9834
31.2889
35.5782
39.8478
44.0951
48.3177
52.5128
56.6768
60.803
64.8891
68.9374
72.9263
-315.172
-311.635
-307.806
-303.693
-299.324
-294.729
-289.929
-284.942
-279.797
-274.503
-269.088
-263.567
-257.956
-252.269
-246.522
-240.729
-234.904
-229.058
-223.2
-217.342
-211.492
-205.66
-199.85
-194.072
-188.332
-182.629
-176.976
-171.371
-165.817
-160.316
-154.874
-149.489
-144.161
-138.89
-133.677
-128.522
-123.421
-118.375
-113.383
-108.442
-103.549
-98.7024
-93.8997
-89.1399
-84.4184
-79.7324
-75.0822
-70.4631
-65.871
-61.3056
-56.7651
-52.246
-47.7456
-43.2625
-38.7946
-34.3407
-29.899
-25.4675
-21.0456
-16.6339
-12.231
-7.83532
-3.44579
0.935624
5.30874
9.67213
14.0272
18.372
22.7062
27.0262
31.3315
35.6205
39.8899
44.1369
48.3593
52.554
56.7177
60.8434
64.9291
68.9769
72.9669
-314.701
-311.201
-307.404
-303.321
-298.978
-294.406
-289.628
-284.661
-279.533
-274.256
-268.855
-263.349
-257.75
-252.075
-246.339
-240.556
-234.741
-228.903
-223.054
-217.203
-211.36
-205.535
-199.731
-193.959
-188.223
-182.526
-176.877
-171.277
-165.726
-160.23
-154.79
-149.409
-144.084
-138.815
-133.605
-128.452
-123.354
-118.31
-113.319
-108.379
-103.488
-98.6429
-93.8415
-89.0827
-84.3621
-79.6771
-75.0276
-70.4092
-65.8177
-61.2529
-56.7129
-52.1941
-47.6942
-43.2113
-38.7437
-34.29
-29.8485
-25.4172
-20.9955
-16.584
-12.1811
-7.78552
-3.39615
0.985142
5.35812
9.72142
14.0763
18.4209
22.7549
27.0747
31.3797
35.6684
39.9375
44.1841
48.406
52.6004
56.7637
60.8886
64.9738
69.0208
73.0119
-314.143
-310.687
-306.929
-302.881
-298.57
-294.026
-289.273
-284.33
-279.223
-273.966
-268.583
-263.093
-257.51
-251.848
-246.125
-240.354
-234.55
-228.722
-222.883
-217.041
-211.206
-205.388
-199.592
-193.827
-188.097
-182.406
-176.762
-171.167
-165.621
-160.129
-154.694
-149.316
-143.994
-138.729
-133.522
-128.372
-123.275
-118.234
-113.245
-108.308
-103.418
-98.5743
-93.7743
-89.0167
-84.2974
-79.6134
-74.9648
-70.3473
-65.7566
-61.1924
-56.6529
-52.1346
-47.6351
-43.1527
-38.6854
-34.232
-29.7907
-25.3597
-20.9382
-16.5268
-12.1241
-7.72869
-3.33955
1.04155
5.41432
9.77747
14.1321
18.4765
22.8101
27.1295
31.4342
35.7225
39.9911
44.2371
48.4585
52.6523
56.815
60.9389
65.0234
69.0693
73.0613
-313.484
-310.081
-306.369
-302.362
-298.088
-293.578
-288.856
-283.94
-278.859
-273.625
-268.263
-262.792
-257.227
-251.583
-245.875
-240.118
-234.327
-228.511
-222.683
-216.852
-211.027
-205.218
-199.43
-193.673
-187.951
-182.266
-176.629
-171.039
-165.499
-160.012
-154.582
-149.208
-143.891
-138.629
-133.425
-128.278
-123.185
-118.146
-113.16
-108.224
-103.337
-98.4951
-93.6968
-88.9407
-84.2228
-79.5401
-74.8926
-70.276
-65.6862
-61.1228
-56.584
-52.0664
-47.5674
-43.0854
-38.6186
-34.1656
-29.7246
-25.2939
-20.8727
-16.4616
-12.0591
-7.66395
-3.27513
1.1057
5.47816
9.84105
14.1954
18.5393
22.8725
27.1914
31.4955
35.7833
40.0511
44.2965
48.5171
52.71
56.8718
60.9944
65.0779
69.1225
73.1149
-312.714
-309.369
-305.709
-301.751
-297.521
-293.051
-288.364
-283.482
-278.43
-273.224
-267.887
-262.439
-256.895
-251.271
-245.581
-239.841
-234.065
-228.265
-222.45
-216.631
-210.817
-205.02
-199.242
-193.494
-187.78
-182.104
-176.474
-170.891
-165.358
-159.877
-154.451
-149.083
-143.77
-138.513
-133.314
-128.17
-123.08
-118.044
-113.061
-108.128
-103.243
-98.4037
-93.6074
-88.8531
-84.1368
-79.4556
-74.8094
-70.194
-65.6053
-61.0429
-56.5049
-51.988
-47.4897
-43.0084
-38.5421
-34.0895
-29.649
-25.2188
-20.798
-16.3873
-11.9851
-7.59028
-3.2019
1.17852
5.55055
9.91304
14.2668
18.6103
22.9428
27.261
31.5643
35.8512
40.1182
44.3625
48.582
52.7738
56.9345
61.0552
65.1373
69.18
73.1721
-311.827
-308.544
-304.942
-301.036
-296.855
-292.431
-287.787
-282.943
-277.927
-272.753
-267.446
-262.025
-256.506
-250.905
-245.237
-239.517
-233.76
-227.976
-222.177
-216.373
-210.573
-204.788
-199.022
-193.285
-187.582
-181.914
-176.294
-170.719
-165.193
-159.719
-154.3
-148.938
-143.631
-138.379
-133.184
-128.045
-122.959
-117.927
-112.947
-108.017
-103.135
-98.2981
-93.5042
-88.752
-84.0377
-79.3583
-74.7136
-70.0995
-65.5122
-60.951
-56.414
-51.898
-47.4006
-42.92
-38.4545
-34.0025
-29.5626
-25.133
-20.7128
-16.3025
-11.9008
-7.50652
-3.11876
1.26108
5.63249
9.99438
14.3475
18.6901
23.0218
27.3389
31.6412
35.927
40.1926
44.4355
48.6534
52.8437
57.0028
61.1209
65.201
69.2413
73.2321
-310.818
-307.603
-304.062
-300.214
-296.086
-291.711
-287.113
-282.313
-277.337
-272.2
-266.928
-261.54
-256.051
-250.476
-244.833
-239.137
-233.401
-227.638
-221.857
-216.071
-210.287
-204.517
-198.765
-193.041
-187.35
-181.694
-176.083
-170.518
-165.001
-159.535
-154.124
-148.769
-143.469
-138.222
-133.033
-127.899
-122.818
-117.791
-112.815
-107.889
-103.01
-98.176
-93.3849
-88.6352
-83.9232
-79.246
-74.6031
-69.9908
-65.4051
-60.8453
-56.3095
-51.7947
-47.2984
-42.8188
-38.3541
-33.903
-29.4639
-25.035
-20.6156
-16.206
-11.805
-7.41141
-3.02448
1.35455
5.72508
10.0861
14.4382
18.7797
23.1102
27.4259
31.7267
36.0109
40.2748
44.5157
48.7314
52.9195
57.0765
61.1911
65.2686
69.3054
73.2937
-309.678
-306.538
-303.063
-299.278
-295.208
-290.887
-286.339
-281.586
-276.654
-271.558
-266.324
-260.972
-255.517
-249.975
-244.361
-238.693
-232.982
-227.242
-221.484
-215.717
-209.953
-204.2
-198.465
-192.756
-187.079
-181.436
-175.838
-170.284
-164.777
-159.321
-153.92
-148.572
-143.28
-138.041
-132.858
-127.73
-122.655
-117.633
-112.661
-107.74
-102.865
-98.0346
-93.2468
-88.5002
-83.7909
-79.1163
-74.4757
-69.8654
-65.2817
-60.7236
-56.1894
-51.676
-47.181
-42.7026
-38.2391
-33.7891
-29.351
-24.9231
-20.5048
-16.0961
-11.696
-7.30346
-2.91767
1.46022
5.82955
10.1893
14.54
18.88
23.2089
27.5226
31.8214
36.1034
40.3648
44.603
48.8158
53.001
57.1549
61.2644
65.3382
69.3707
73.3546
-308.391
-305.337
-301.936
-298.221
-294.215
-289.952
-285.459
-280.757
-275.873
-270.823
-265.631
-260.318
-254.9
-249.392
-243.812
-238.174
-232.493
-226.78
-221.047
-215.305
-209.562
-203.83
-198.114
-192.423
-186.762
-181.135
-175.551
-170.011
-164.516
-159.072
-153.681
-148.343
-143.06
-137.829
-132.655
-127.534
-122.465
-117.449
-112.483
-107.567
-102.697
-97.8707
-93.0869
-88.3438
-83.6379
-78.9664
-74.3285
-69.7207
-65.1393
-60.5834
-56.0511
-51.5395
-47.0462
-42.5693
-38.1073
-33.6587
-29.2219
-24.7954
-20.3784
-15.9711
-11.5723
-7.18107
-2.79681
1.57953
5.94719
10.3053
14.654
18.9919
23.3185
27.6294
31.9255
36.2046
40.4626
44.6971
48.9059
53.0874
57.2382
61.3396
65.407
69.433
73.4091
-306.94
-303.983
-300.664
-297.027
-293.093
-288.895
-284.464
-279.819
-274.988
-269.987
-264.841
-259.572
-254.195
-248.726
-243.181
-237.577
-231.928
-226.245
-220.541
-214.825
-209.108
-203.399
-197.705
-192.034
-186.393
-180.785
-175.217
-169.692
-164.212
-158.781
-153.403
-148.077
-142.804
-137.583