/*--------------------------------*- C++ -*----------------------------------*\
| =========                 |                                                 |
| \\      /  F ield         | OpenFOAM: The Open Source CFD Toolbox           |
|  \\    /   O peration     | Version:  2412                                  |
|   \\  /    A nd           | Website:  www.openfoam.com                      |
|    \\/     M anipulation  |                                                 |
\*---------------------------------------------------------------------------*/
FoamFile
{
    version     2.0;
    format      ascii;
    arch        "LSB;label=32;scalar=64";
    class       volVectorField;
    location    "80";
    object      U;
}
// * * * * * * * * * * * * * * * * * * * * * * * * * * * * * * * * * * * * * //

dimensions      [0 1 -1 0 0 0 0];

internalField   nonuniform List<vector> 
7423
(
(0.5981 3.39182 -3.92356e-18)
(1.49169 3.25339 1.28513e-23)
(2.05505 2.59407 -2.17457e-23)
(2.16808 1.85207 4.86072e-17)
(1.83349 1.15298 -2.15292e-23)
(1.39476 0.677305 -3.76067e-17)
(1.15633 0.447288 0)
(0.972291 0.304954 -2.93841e-17)
(0.79726 0.204304 -1.29585e-23)
(0.671879 0.141106 0)
(0.597345 0.102456 5.32432e-18)
(0.559437 0.0776981 4.84121e-18)
(0.547092 0.0604868 0)
(0.550524 0.0471579 -4.04536e-18)
(0.561152 0.0356352 3.7172e-18)
(0.573769 0.0250039 -7.72866e-25)
(0.585617 0.0148917 7.74179e-25)
(0.595953 0.00525817 3.67933e-19)
(0.603922 -0.00392057 -3.42537e-19)
(0.610198 -0.012635 -1.27914e-18)
(0.614435 -0.0208588 0)
(0.617328 -0.0286287 0)
(0.618613 -0.0359032 -2.11213e-18)
(0.618863 -0.0427304 1.98984e-18)
(0.617892 -0.049099 -1.79229e-24)
(0.616144 -0.0550484 8.62343e-25)
(0.613426 -0.0605533 -7.88163e-25)
(0.610127 -0.0656816 1.52173e-24)
(0.606074 -0.0704009 -3.02922e-18)
(0.601463 -0.074759 -2.88073e-18)
(0.596317 -0.0787526 5.48575e-18)
(0.590699 -0.082398 5.22931e-18)
(0.584664 -0.0857126 0)
(0.578266 -0.0887128 4.76726e-18)
(0.571559 -0.0914134 -1.06901e-24)
(0.564601 -0.0938262 4.36327e-18)
(0.557439 -0.0959793 0)
(0.550125 -0.0978769 4.00789e-18)
(0.5427 -0.0995469 -3.08829e-26)
(0.535217 -0.100997 3.69341e-18)
(0.527726 -0.102254 -7.09925e-18)
(0.520257 -0.103331 3.41384e-18)
(0.512851 -0.104242 -7.96906e-25)
(0.505543 -0.105011 0)
(0.498359 -0.105646 6.09804e-18)
(0.491329 -0.106166 -1.40223e-24)
(0.484482 -0.106587 9.82636e-25)
(0.477841 -0.106918 5.476e-18)
(0.471406 -0.107179 1.05778e-17)
(0.4652 -0.107368 6.2021e-25)
(0.459251 -0.107516 -4.71069e-25)
(0.453549 -0.107617 4.77907e-18)
(0.448103 -0.107686 0)
(0.442943 -0.107733 -4.47645e-18)
(0.438079 -0.107776 0)
(0.433514 -0.107814 -4.19963e-18)
(0.429252 -0.107856 8.1394e-18)
(0.425314 -0.107918 -3.94491e-18)
(0.421735 -0.108011 -3.82495e-18)
(0.418527 -0.108147 3.70962e-18)
(0.415721 -0.108333 -3.59845e-18)
(0.413372 -0.108595 3.49114e-18)
(0.411535 -0.108955 0)
(0.410306 -0.109434 -7.67438e-25)
(0.409847 -0.11009 6.37933e-18)
(0.410359 -0.110982 7.53971e-25)
(0.412053 -0.112173 0)
(0.415068 -0.113707 -6.78792e-25)
(0.419401 -0.115592 3.1202e-26)
(0.424809 -0.117772 1.36862e-18)
(0.430901 -0.120137 0)
(0.437195 -0.122561 -1.28312e-18)
(0.443277 -0.124925 6.0711e-25)
(0.44883 -0.127142 0)
(0.453609 -0.129136 1.15597e-18)
(0.458161 -0.131066 1.11252e-18)
(1.79801 10.1874 3.34206e-23)
(4.5388 9.87827 -1.85171e-17)
(6.34847 8.00543 -4.1691e-17)
(6.79193 5.80241 -4.0626e-17)
(5.82409 3.6646 0)
(4.46986 2.17357 6.28506e-17)
(3.69408 1.4304 2.74146e-23)
(3.10853 0.975056 8.08226e-23)
(2.55318 0.654516 -2.16563e-23)
(2.15115 0.451884 0)
(1.90938 0.327631 -8.25936e-24)
(1.78442 0.247851 1.54554e-23)
(1.74088 0.192491 -7.23678e-24)
(1.74738 0.149722 6.75814e-18)
(1.7772 0.112889 -6.20967e-18)
(1.81384 0.0790352 -5.72543e-18)
(1.84857 0.0470208 -1.29321e-24)
(1.87899 0.0165824 -6.14531e-19)
(1.90235 -0.012343 4.99818e-25)
(1.92067 -0.0397757 1.0681e-18)
(1.93284 -0.0656082 1.99929e-18)
(1.94099 -0.0900052 -3.75124e-18)
(1.94427 -0.112842 7.05359e-18)
(1.94443 -0.134251 0)
(1.94088 -0.15422 1.46913e-24)
(1.935 -0.17286 -1.43986e-24)
(1.92615 -0.190134 -5.61506e-18)
(1.91552 -0.206205 2.49635e-24)
(1.90258 -0.221001 5.05742e-18)
(1.88794 -0.234655 4.80939e-18)
(1.87167 -0.247171 9.15837e-18)
(1.85394 -0.258602 -8.73011e-18)
(1.83491 -0.268998 -6.7153e-26)
(1.81477 -0.278402 -7.95845e-18)
(1.79367 -0.286865 0)
(1.77177 -0.294435 -7.28377e-18)
(1.74925 -0.301173 0)
(1.72626 -0.307125 -6.6902e-18)
(1.7029 -0.312353 -6.41975e-18)
(1.67936 -0.316894 -6.16503e-18)
(1.65579 -0.320821 1.43697e-24)
(1.63227 -0.324186 -5.69804e-18)
(1.60893 -0.327026 2.66023e-24)
(1.58589 -0.32941 0)
(1.56323 -0.331381 -1.01773e-17)
(1.54104 -0.332979 2.38075e-24)
(1.5194 -0.334264 9.46688e-18)
(1.4984 -0.335268 -9.13811e-18)
(1.47803 -0.336034 -3.08308e-24)
(1.45837 -0.336592 2.06984e-24)
(1.4395 -0.336995 -1.6488e-17)
(1.42139 -0.33726 -7.97356e-18)
(1.40408 -0.337417 -7.71494e-18)
(1.38764 -0.337503 7.46776e-18)
(1.37212 -0.337563 -7.2313e-18)
(1.35753 -0.337613 7.00506e-18)
(1.34386 -0.337669 -6.78779e-18)
(1.3312 -0.337777 -6.5791e-18)
(1.31964 -0.337976 -6.37851e-18)
(1.30924 -0.338307 -1.23713e-17)
(1.30008 -0.338797 5.99969e-18)
(1.29233 -0.339509 0)
(1.28618 -0.34052 0)
(1.28192 -0.341914 0)
(1.28003 -0.343847 -5.31556e-18)
(1.28118 -0.346508 -1.203e-24)
(1.28603 -0.35011 1.21931e-24)
(1.29505 -0.354797 1.13061e-24)
(1.30826 -0.360599 -1.1476e-24)
(1.32497 -0.367356 -5.51574e-24)
(1.34401 -0.374747 2.20726e-18)
(1.36386 -0.382371 4.2724e-18)
(1.38319 -0.389846 -1.01072e-24)
(1.40094 -0.39688 9.25526e-25)
(1.41629 -0.403231 -5.21267e-26)
(1.43095 -0.409375 -9.09591e-25)
(3.05509 17.3005 0)
(7.8037 16.9514 0)
(11.0641 13.9424 2.34904e-21)
(11.9901 10.245 8.49791e-23)
(10.4229 6.56168 0)
(8.07381 3.92884 -7.04471e-17)
(6.65867 2.5797 5.71217e-23)
(5.61292 1.76159 2.74855e-17)
(4.6181 1.18463 0)
(3.89022 0.817654 2.2148e-17)
(3.44718 0.591815 -1.00297e-17)
(3.2142 0.446588 -9.12649e-18)
(3.12793 0.345954 1.59141e-23)
(3.13116 0.268354 -3.71425e-25)
(3.17763 0.201866 -6.85872e-24)
(3.23728 0.14106 3.23149e-18)
(3.29457 0.0838337 6.97572e-25)
(3.345 0.029525 -7.57869e-25)
(3.38363 -0.0219401 7.87024e-26)
(3.4138 -0.0706858 1.12774e-24)
(3.43355 -0.11656 -2.25741e-18)
(3.44646 -0.159797 4.23577e-18)
(3.45111 -0.200277 -3.98259e-18)
(3.45042 -0.23822 3.75209e-18)
(3.4434 -0.273576 3.31839e-24)
(3.43238 -0.306608 -3.25251e-24)
(3.41626 -0.337205 7.64299e-25)
(3.39708 -0.365674 0)
(3.3739 -0.391903 0)
(3.34776 -0.416083 0)
(3.31881 -0.43826 -2.06942e-17)
(3.28731 -0.458531 2.31285e-24)
(3.25356 -0.476952 9.41346e-18)
(3.21784 -0.493629 5.71298e-24)
(3.18044 -0.508634 -4.17138e-24)
(3.14164 -0.52207 -8.23173e-18)
(3.1017 -0.53401 0)
(3.06091 -0.544569 -3.54624e-24)
(3.01949 -0.553823 7.25654e-18)
(2.97771 -0.561876 -6.96903e-18)
(2.9358 -0.568824 0)
(2.89399 -0.574757 6.44182e-18)
(2.85245 -0.579769 0)
(2.8114 -0.583949 0)
(2.771 -0.587393 0)
(2.73138 -0.59017 0)
(2.69272 -0.592374 1.07054e-17)
(2.65512 -0.594077 1.03341e-17)
(2.61863 -0.595338 -9.98095e-18)
(2.58334 -0.59623 9.6445e-18)
(2.54942 -0.596825 -7.89693e-25)
(2.51684 -0.597172 0)
(2.48564 -0.597316 1.93474e-24)
(2.45592 -0.597329 -2.29176e-24)
(2.4278 -0.597269 2.34225e-24)
(2.4013 -0.597185 -1.58484e-17)
(2.37639 -0.597107 -1.79628e-24)
(2.35323 -0.597099 7.44281e-18)
(2.33198 -0.597247 1.44322e-17)
(2.31275 -0.597604 6.99803e-18)
(2.29568 -0.598241 1.58626e-24)
(2.28105 -0.599255 -1.60203e-24)
(2.2692 -0.600774 0)
(2.26064 -0.602963 0)
(2.25625 -0.606085 1.40353e-24)
(2.25718 -0.61048 5.83505e-18)
(2.26465 -0.616532 2.69935e-24)
(2.27953 -0.624516 -1.33861e-24)
(2.30198 -0.634513 1.23947e-24)
(2.33096 -0.646278 -5.1573e-18)
(2.36448 -0.659294 -5.82299e-24)
(2.39988 -0.67284 -2.4169e-18)
(2.43473 -0.686228 0)
(2.46697 -0.698889 0)
(2.4951 -0.710385 -2.17732e-18)
(2.522 -0.721515 -2.09568e-18)
(4.33526 24.5328 6.85877e-23)
(11.1957 24.2989 -6.99611e-23)
(16.1077 20.2933 9.88474e-17)
(17.686 15.1163 1.80468e-22)
(15.6196 9.8392 4.44327e-17)
(12.2514 5.96597 3.86016e-17)
(10.1048 3.91692 0)
(8.54638 2.68357 -3.00947e-17)
(7.05142 1.80981 0)
(5.94221 1.24965 -2.46818e-17)
(5.2568 0.902852 -3.13745e-23)
(4.88861 0.67945 1.0243e-17)
(4.74345 0.524743 0)
(4.73244 0.405612 7.98199e-24)
(4.79048 0.304327 -7.88025e-18)
(4.87025 0.212211 3.38809e-24)
(4.94838 0.125905 -4.85171e-24)
(5.01762 0.0442709 1.52222e-24)
(5.07058 -0.0328796 -7.26276e-19)
(5.11171 -0.105826 1.2682e-24)
(5.13816 -0.174435 -2.53874e-18)
(5.15491 -0.238998 4.76397e-18)
(5.15996 -0.299426 0)
(5.15736 -0.356065 -4.22069e-18)
(5.14575 -0.40881 7.60423e-24)
(5.12839 -0.4581 -3.65937e-24)
(5.10374 -0.503757 1.66788e-24)
(5.07464 -0.546233 -3.17324e-24)
(5.0398 -0.585393 9.14971e-24)
(5.00066 -0.621496 6.11561e-18)
(4.95741 -0.654629 2.32957e-17)
(4.91044 -0.684912 5.20785e-24)
(4.86017 -0.712451 -1.05995e-17)
(4.80699 -0.737385 2.59102e-24)
(4.75132 -0.759838 4.69816e-24)
(4.69354 -0.779939 9.27249e-18)
(4.63404 -0.797809 0)
(4.57323 -0.813605 3.99567e-24)
(4.51144 -0.827446 -7.80102e-24)
(4.44904 -0.839489 7.85432e-18)
(4.38639 -0.849862 7.20217e-24)
(4.32379 -0.8587 -7.26206e-18)
(4.26153 -0.866145 3.27718e-24)
(4.1999 -0.872333 -3.2664e-24)
(4.13916 -0.877389 -1.29778e-17)
(4.07951 -0.881444 0)
(4.02119 -0.884608 -2.04922e-24)
(3.96438 -0.887004 -2.7315e-24)
(3.90914 -0.888719 1.12613e-17)
(3.85563 -0.88985 -1.08829e-17)
(3.8041 -0.890534 1.05225e-17)
(3.75447 -0.890813 -2.38341e-24)
(3.70684 -0.890764 9.84983e-18)
(3.66135 -0.8905 -9.5355e-18)
(3.61815 -0.890099 9.2347e-18)
(3.5773 -0.889635 8.94674e-18)
(3.53875 -0.889156 4.21364e-24)
(3.50271 -0.888753 0)
(3.46945 -0.888559 -8.14919e-18)
(3.43909 -0.888638 0)
(3.41188 -0.889107 7.66656e-18)
(3.3882 -0.890111 0)
(3.36855 -0.891829 3.37066e-24)
(3.35371 -0.894507 -3.40923e-24)
(3.34496 -0.898533 0)
(3.344 -0.90443 -1.31841e-17)
(3.3527 -0.912755 2.98202e-24)
(3.37251 -0.923969 6.20206e-18)
(3.40388 -0.938254 0)
(3.4456 -0.955343 2.91327e-18)
(3.49497 -0.974538 -5.64264e-18)
(3.54813 -0.994791 2.73025e-18)
(3.60129 -1.01505 2.45152e-24)
(3.65102 -1.03435 -2.54946e-18)
(3.6949 -1.052 2.4589e-18)
(3.73704 -1.06914 2.36645e-18)
(5.5831 31.5689 0)
(14.5191 31.5012 0)
(21.1393 26.6328 -4.77258e-17)
(23.5247 20.1143 4.59429e-17)
(21.1631 13.3398 -4.32695e-17)
(16.9052 8.23829 -3.95018e-17)
(14.0122 5.43462 0)
(11.9085 3.74131 3.1268e-17)
(9.88258 2.53791 -2.90202e-17)
(8.34741 1.7564 -2.67501e-17)
(7.37937 1.26796 9.16308e-23)
(6.84614 0.951804 -2.22072e-23)
(6.62194 0.732664 0)
(6.58017 0.563998 -8.87765e-24)
(6.64166 0.421942 2.13804e-23)
(6.73615 0.293488 -4.04263e-18)
(6.83142 0.173779 1.74562e-24)
(6.91667 0.0610144 -1.89669e-24)
(6.98182 -0.0452901 8.08295e-19)
(7.03201 -0.145602 0)
(7.06354 -0.23978 1.31199e-24)
(7.08256 -0.32837 -5.30365e-18)
(7.08656 -0.411223 4.98778e-18)
(7.08064 -0.48883 -4.70027e-18)
(7.06308 -0.561139 0)
(7.03801 -0.628644 0)
(7.00348 -0.691264 -3.2773e-24)
(6.96305 -0.749482 7.32447e-24)
(6.91513 -0.803196 6.72124e-24)
(6.86153 -0.852741 -6.81938e-18)
(6.80246 -0.898247 -1.29916e-17)
(6.73844 -0.939847 1.23897e-17)
(6.66996 -0.977728 5.73814e-24)
(6.59757 -1.01203 1.13053e-17)
(6.52179 -1.04295 0)
(6.44309 -1.07064 -1.03571e-17)
(6.36201 -1.09527 0)
(6.27907 -1.11705 4.46584e-24)
(6.1947 -1.13615 -9.14241e-18)
(6.10938 -1.15275 -1.13468e-23)
(6.02358 -1.16703 8.19394e-24)
(5.93772 -1.1792 -8.12698e-18)
(5.85216 -1.18941 -1.49296e-23)
(5.76732 -1.19786 7.31553e-24)
(5.68352 -1.20473 1.45372e-17)
(5.60105 -1.21017 1.40234e-17)
(5.52026 -1.21435 -2.70708e-17)
(5.44138 -1.21745 -6.12506e-24)
(5.36452 -1.21956 -1.26298e-17)
(5.28988 -1.22084 -1.22088e-17)
(5.21782 -1.22145 5.73266e-24)
(5.14825 -1.22149 5.35051e-24)
(5.08127 -1.22102 -5.37068e-24)
(5.0171 -1.22021 -1.07086e-17)
(4.95591 -1.21918 -4.85543e-24)
(4.89778 -1.21801 4.88419e-24)
(4.84268 -1.21676 -9.74357e-18)
(4.79087 -1.21558 -1.73259e-25)
(4.7427 -1.21463 9.16191e-18)
(4.69833 -1.214 -4.3221e-24)
(4.65809 -1.21384 -8.62263e-18)
(4.62249 -1.21436 -8.36675e-18)
(4.59222 -1.21579 3.95187e-24)
(4.56831 -1.21846 0)
(4.55246 -1.2229 0)
(4.54699 -1.2298 1.08245e-23)
(4.55454 -1.23996 -3.35693e-24)
(4.57728 -1.25406 -6.98242e-18)
(4.61622 -1.27245 -3.15322e-24)
(4.67028 -1.29493 3.20287e-24)
(4.73632 -1.32071 3.1763e-18)
(4.8093 -1.34842 -1.81582e-23)
(4.88382 -1.37658 5.66622e-24)
(4.95459 -1.4037 2.86841e-18)
(5.01795 -1.42873 2.76566e-18)
(5.0792 -1.45316 0)
(6.74449 38.0973 0)
(17.5537 38.0761 0)
(25.6617 32.332 1.61478e-22)
(28.7443 24.5864 -3.76542e-17)
(26.3511 16.6213 -9.96568e-24)
(21.6166 10.5428 3.47541e-17)
(18.1594 7.04782 0)
(15.538 4.88461 0)
(13.0374 3.3503 2.87597e-17)
(11.0833 2.33348 2.73871e-17)
(9.81671 1.68759 -1.00459e-23)
(9.09904 1.26547 2.48684e-23)
(8.77703 0.971289 -1.10989e-17)
(8.68658 0.744634 -1.03426e-17)
(8.74044 0.555245 1.18678e-23)
(8.84149 0.385186 4.39141e-18)
(8.94789 0.227593 -7.94093e-24)
(9.04436 0.0797546 0)
(9.11804 -0.059171 8.79051e-19)
(9.17412 -0.189955 0)
(9.20821 -0.312598 3.07523e-18)
(9.2272 -0.42781 -5.61677e-24)
(9.22831 -0.535499 -5.43148e-18)
(9.21732 -0.636321 5.12039e-18)
(9.19237 -0.730283 -9.6725e-18)
(9.15817 -0.818007 0)
(9.11259 -0.8994 1.73479e-17)
(9.05966 -0.97513 8.23361e-18)
(8.99759 -1.04504 0)
(8.92846 -1.10958 -7.44996e-18)
(8.85254 -1.16892 0)
(8.77038 -1.22323 -1.35507e-17)
(8.68264 -1.27272 1.21419e-23)
(8.5899 -1.31761 -1.20101e-23)
(8.4928 -1.3581 0)
(8.39194 -1.39443 7.88367e-24)
(8.28793 -1.42679 0)
(8.18141 -1.45543 9.8066e-24)
(8.07291 -1.48058 2.00899e-17)
(7.96301 -1.50245 -5.81405e-24)
(7.85229 -1.52129 8.71513e-24)
(7.74125 -1.53732 1.78968e-17)
(7.63038 -1.55078 0)
(7.52015 -1.56188 -7.79458e-24)
(7.411 -1.57086 -1.60414e-17)
(7.30333 -1.57792 -1.54856e-17)
(7.19755 -1.58329 1.49573e-17)
(7.09401 -1.58716 -1.44547e-17)
(6.99284 -1.5897 2.35619e-25)
(6.89432 -1.59109 1.35195e-17)
(6.7989 -1.59154 0)
(6.70653 -1.59117 -1.26682e-17)
(6.6173 -1.59009 -5.95883e-24)
(6.53148 -1.58849 5.18666e-24)
(6.44931 -1.58653 -5.39362e-24)
(6.37086 -1.58431 5.42871e-24)
(6.29612 -1.58192 2.16719e-17)
(6.22538 -1.57953 5.10976e-24)
(6.15909 -1.57734 -1.01998e-17)
(6.09745 -1.5755 0)
(6.04088 -1.57416 9.60907e-18)
(5.99002 -1.5736 9.32838e-18)
(5.94571 -1.5741 -9.05653e-18)
(5.90925 -1.5761 0)
(5.88277 -1.58024 3.98446e-24)
(5.86924 -1.58742 8.28723e-18)
(5.87211 -1.59867 -7.67137e-24)
(5.89449 -1.61495 3.80589e-24)
(5.93826 -1.6369 -3.52513e-24)
(6.00292 -1.66447 3.58119e-24)
(6.08529 -1.69691 3.30386e-24)
(6.17935 -1.73261 -3.43552e-18)
(6.27797 -1.76959 0)
(6.37348 -1.80574 -3.2029e-18)
(6.46052 -1.83952 -6.17179e-18)
(6.54545 -1.8727 -2.9664e-18)
(7.78861 43.938 1.5499e-22)
(20.2059 43.8191 3.92143e-23)
(29.4799 37.1445 -1.23424e-22)
(32.9535 28.1972 0)
(30.5282 19.269 2.62209e-17)
(25.6578 12.5243 2.59084e-17)
(22.0161 8.55104 2.74132e-17)
(19.0695 5.99903 9.33155e-23)
(16.2654 4.18291 2.56973e-17)
(13.9929 2.94813 0)
(12.4697 2.1449 1.11867e-22)
(11.5807 1.61127 -4.68412e-23)
(11.1569 1.23499 2.23273e-17)
(11.0135 0.944238 2.33793e-23)
(11.0483 0.701883 9.82704e-18)
(11.1467 0.485599 -4.54831e-18)
(11.2567 0.286276 0)
(11.3581 0.100143 -4.57971e-25)
(11.4356 -0.0742389 -1.27695e-24)
(11.4935 -0.237976 0)
(11.5271 -0.391321 3.20491e-18)
(11.5435 -0.535188 1.14965e-23)
(11.5399 -0.669616 5.67102e-18)
(11.5223 -0.795432 0)
(11.489 -0.912706 1.01178e-17)
(11.4449 -1.02222 -9.58273e-18)
(11.3878 -1.12392 -9.09065e-18)
(11.322 -1.2186 -8.63773e-18)
(11.2458 -1.30612 0)
(11.1613 -1.38702 7.83163e-18)
(11.0687 -1.46149 0)
(10.9687 -1.52978 0)
(10.8621 -1.59212 0)
(10.7494 -1.6488 1.30726e-17)
(10.6314 -1.70003 0)
(10.5087 -1.74611 1.20212e-17)
(10.3821 -1.78725 0)
(10.2523 -1.82378 1.10963e-17)
(10.1199 -1.85593 -2.13497e-17)
(9.98547 -1.88399 -3.08333e-17)
(9.84976 -1.90822 0)
(9.71333 -1.92889 8.95451e-24)
(9.57676 -1.94629 -1.75799e-23)
(9.4406 -1.96068 1.69746e-23)
(9.30539 -1.97233 1.71925e-17)
(9.17159 -1.98151 0)
(9.03971 -1.98846 1.60775e-17)
(8.91021 -1.99344 1.13559e-23)
(8.78328 -1.99667 -1.50666e-17)
(8.65928 -1.99835 1.45953e-17)
(8.53876 -1.99876 0)
(8.42169 -1.99805 1.37145e-17)
(8.3082 -1.99635 1.33012e-17)
(8.1986 -1.9939 9.09147e-24)
(8.09317 -1.99087 1.25243e-17)
(7.99204 -1.98742 2.31955e-23)
(7.89515 -1.98364 -2.03462e-23)
(7.80285 -1.97973 0)
(7.71564 -1.97594 -1.04192e-23)
(7.63381 -1.97243 -1.08243e-17)
(7.55782 -1.96942 -9.51955e-24)
(7.48843 -1.9672 0)
(7.42664 -1.96614 9.9358e-18)
(7.37398 -1.96675 9.01804e-24)
(7.333 -1.96979 -9.14267e-24)
(7.30725 -1.97634 0)
(7.30104 -1.9877 8.26417e-24)
(7.31856 -2.00513 -1.64157e-23)
(7.36291 -2.02964 -4.17651e-18)
(7.43469 -2.06153 7.54158e-24)
(7.53128 -2.1002 3.92339e-18)
(7.64613 -2.14395 -1.44751e-23)
(7.7704 -2.19035 7.17003e-24)
(7.89359 -2.2365 3.53049e-18)
(8.00815 -2.28025 6.79231e-18)
(8.12131 -2.32364 3.25875e-18)
(8.71225 49.072 2.32122e-23)
(22.5052 48.7955 3.08083e-22)
(32.7111 41.2211 2.30991e-23)
(36.3795 31.1426 -1.75604e-22)
(33.7914 21.3445 -3.93669e-17)
(28.7595 14.0505 -1.8451e-17)
(25.0848 9.75044 -1.949e-17)
(22.0839 6.95261 -1.9385e-17)
(19.1867 4.9382 -2.04439e-17)
(16.7711 3.53623 -7.90668e-23)
(15.1012 2.59924 2.16585e-17)
(14.0991 1.96265 4.20043e-23)
(13.5986 1.50579 -4.6738e-23)
(13.4239 1.15109 3.84849e-23)
(13.4365 0.853688 -9.33792e-18)
(13.5271 0.589309 8.70387e-18)
(13.6355 0.346756 4.137e-24)
(13.737 0.1211 3.25201e-24)
(13.8145 -0.0896795 -8.85181e-19)
(13.8714 -0.287217 -1.65954e-18)
(13.9027 -0.471957 -3.1182e-18)
(13.9152 -0.645116 5.87245e-18)
(13.9064 -0.806903 -5.54099e-18)
(13.8822 -0.958303 5.23878e-18)
(13.841 -1.09952 0)
(13.7879 -1.23144 1.88323e-17)
(13.7207 -1.35412 8.94836e-18)
(13.6438 -1.46842 -1.65386e-23)
(13.5553 -1.5743 0)
(13.4576 -1.67232 -7.74988e-18)
(13.3508 -1.76276 -1.48146e-17)
(13.2358 -1.84588 -1.41776e-17)
(13.1131 -1.92199 0)
(12.9834 -1.99139 -1.30308e-17)
(12.8476 -2.05434 1.17376e-23)
(12.7064 -2.11117 -1.16694e-23)
(12.5604 -2.16215 0)
(12.4105 -2.20761 -1.11497e-17)
(12.2573 -2.24783 1.07491e-17)
(12.1015 -2.28314 2.0744e-17)
(11.9438 -2.31382 -1.00164e-17)
(11.785 -2.34019 1.87842e-23)
(11.6255 -2.36256 -1.87267e-17)
(11.466 -2.38123 1.8126e-17)
(11.3071 -2.39652 1.75564e-17)
(11.1493 -2.4087 0)
(10.9932 -2.41809 -3.30026e-17)
(10.8394 -2.42498 1.91878e-23)
(10.6882 -2.42962 3.10873e-17)
(10.5398 -2.43225 -1.50963e-17)
(10.3951 -2.43321 -1.46683e-17)
(10.254 -2.43269 0)
(10.1166 -2.43082 -1.49972e-23)
(9.98344 -2.42789 1.34828e-17)
(9.85472 -2.42413 -2.62337e-17)
(9.73062 -2.41969 -1.27644e-17)
(9.61108 -2.41469 -2.48475e-17)
(9.49645 -2.40936 -1.20946e-17)
(9.38731 -2.40398 1.17762e-17)
(9.284 -2.39875 2.29364e-17)
(9.18701 -2.3939 -1.11696e-17)
(9.0972 -2.38977 1.08795e-17)
(9.01568 -2.38678 -1.05975e-17)
(8.9442 -2.3855 -9.64013e-24)
(8.88562 -2.38681 4.0864e-25)
(8.84399 -2.39194 -9.79445e-18)
(8.82441 -2.40242 0)
(8.8322 -2.41985 -9.2843e-18)
(8.87194 -2.44565 2.07943e-23)
(8.94583 -2.48061 -4.38731e-18)
(9.05253 -2.52451 -4.25458e-18)
(9.18559 -2.57572 0)
(9.33477 -2.63144 0)
(9.48651 -2.68794 0)
(9.6307 -2.74238 -3.35905e-23)
(9.77518 -2.79694 3.50156e-18)
(9.52653 53.5614 0)
(24.5243 53.161 1.81383e-17)
(35.5326 44.79 0)
(39.326 33.6839 0)
(36.5085 23.0809 1.58912e-17)
(31.2069 15.2608 0)
(27.417 10.6658 0)
(24.4247 7.69589 2.85229e-17)
(21.5263 5.54524 5.56916e-23)
(19.0975 4.03017 -1.60184e-17)
(17.4027 2.99753 -8.39687e-18)
(16.3749 2.28068 0)
(15.8521 1.75595 -8.44854e-18)
(15.6768 1.34456 8.16836e-23)
(15.6823 0.996458 7.97703e-18)
(15.7716 0.687098 -2.00187e-23)
(15.8811 0.403854 -1.77134e-18)
(15.9841 0.140894 8.3294e-19)
(16.063 -0.104292 7.83654e-19)
(16.1201 -0.333765 1.47693e-18)
(16.1509 -0.548256 2.78749e-18)
(16.1616 -0.749232 -5.27109e-18)
(16.1501 -0.937058 0)
(16.1221 -1.11288 -9.47021e-18)
(16.0764 -1.27703 0)
(16.0176 -1.43052 -3.14385e-23)
(15.9442 -1.57349 -2.87902e-23)
(15.8602 -1.70689 0)
(15.764 -1.83072 0)
(15.6577 -1.94563 7.11919e-18)
(15.5417 -2.05193 2.72833e-17)
(15.4167 -2.14994 2.61726e-17)
(15.2833 -2.23999 0)
(15.1424 -2.32242 -2.26723e-23)
(14.9946 -2.39754 2.25734e-23)
(14.8408 -2.4657 1.12127e-17)
(14.6817 -2.5272 0)
(14.518 -2.58239 1.0447e-17)
(14.3505 -2.63159 0)
(14.1799 -2.67514 -9.77263e-18)
(14.0068 -2.71336 9.46538e-18)
(13.832 -2.74658 -9.17606e-18)
(13.6562 -2.77513 2.20054e-23)
(13.4798 -2.79935 -1.72922e-17)
(13.3036 -2.81956 -1.68059e-17)
(13.128 -2.83607 -1.63455e-17)
(12.9538 -2.84923 3.18179e-17)
(12.7815 -2.85934 1.54939e-17)
(12.6114 -2.86669 -3.01965e-17)
(12.4439 -2.87155 0)
(12.2799 -2.87429 2.87153e-17)
(12.1194 -2.87513 1.40095e-17)
(11.9625 -2.87425 -1.08604e-23)
(11.8098 -2.87194 -1.29682e-23)
(11.6614 -2.86846 3.40513e-23)
(11.5178 -2.86399 2.12397e-23)
(11.3786 -2.85867 2.06163e-23)
(11.2444 -2.85274 2.43099e-17)
(11.1157 -2.84651 -2.37577e-17)
(10.9929 -2.8402 -1.16111e-17)
(10.8766 -2.83406 1.06104e-23)
(10.7675 -2.82846 -1.10978e-17)
(10.667 -2.82386 2.17027e-17)
(10.5768 -2.82087 9.90952e-24)
(10.5002 -2.82045 -1.01096e-23)
(10.4413 -2.82392 1.01511e-17)
(10.4061 -2.83301 -9.67939e-24)
(10.4008 -2.84962 1.94165e-17)
(10.4315 -2.87558 4.74284e-18)
(10.5022 -2.91224 1.69015e-23)
(10.6136 -2.95995 0)
(10.7599 -3.01731 0)
(10.9303 -3.08137 -7.79804e-24)
(11.1082 -3.14761 7.8883e-24)
(11.2809 -3.21245 -3.84592e-18)
(11.4566 -3.2782 -7.31542e-18)
(26.3312 57.0498 -1.87649e-17)
(38.0833 48.0216 2.69457e-17)
(42.0038 36.0032 0)
(38.9489 24.6493 1.9975e-22)
(33.312 16.3085 1.14232e-17)
(29.3073 11.412 -8.63982e-23)
(26.2524 8.27935 -1.08216e-17)
(23.3266 6.01487 0)
(20.8961 4.41382 1.16686e-17)
(19.2177 3.31265 0)
(18.2139 2.53819 -6.36772e-18)
(17.7147 1.96293 5.04043e-23)
(17.5603 1.50635 6.44726e-18)
(17.5823 1.11722 -2.4452e-23)
(17.6852 0.770416 -2.99497e-18)
(17.8061 0.45273 1.42673e-18)
(17.9185 0.15789 -6.77844e-19)
(18.0051 -0.116947 -6.43127e-19)
(18.0682 -0.374127 0)
(18.1037 -0.614551 -4.63721e-18)
(18.1178 -0.839896 -8.25359e-24)
(18.1087 -1.05067 -4.19484e-18)
(18.082 -1.24811 3.99685e-18)
(18.0367 -1.43268 0)
(17.9775 -1.60548 -7.28098e-18)
(17.903 -1.76672 -3.49864e-23)
(17.8171 -1.91741 0)
(17.7186 -2.05762 -6.38543e-18)
(17.6094 -2.18805 0)
(17.4899 -2.30904 -2.35405e-17)
(17.3609 -2.42096 -2.26391e-17)
(17.2231 -2.52418 -2.04451e-23)
(17.0773 -2.61906 4.00923e-23)
(16.9243 -2.70594 -3.86904e-23)
(16.7647 -2.78522 -9.79531e-18)
(16.5995 -2.85719 1.7773e-23)
(16.4295 -2.92225 -9.1739e-18)
(16.2552 -2.98074 -1.72533e-23)
(16.0776 -3.03301 2.58889e-17)
(15.8971 -3.0794 -1.57235e-23)
(15.7147 -3.12026 1.6305e-17)
(15.5308 -3.15593 1.58727e-17)
(15.3461 -3.18677 -1.54675e-17)
(15.1611 -3.2131 -1.50875e-17)
(14.9765 -3.23525 2.94616e-17)
(14.7928 -3.25357 -1.43952e-17)
(14.6106 -3.26838 0)
(14.4302 -3.27998 2.75576e-17)
(14.2521 -3.28866 2.52851e-23)
(14.077 -3.2948 -1.32218e-17)
(13.9051 -3.29863 -1.2961e-17)
(13.7365 -3.30036 -1.27093e-17)
(13.5718 -3.30029 0)
(13.4111 -3.29872 1.22312e-17)
(13.2549 -3.29582 1.20037e-17)
(13.1029 -3.29175 1.17825e-17)
(12.9556 -3.28677 -1.1568e-17)
(12.8136 -3.28118 2.27203e-17)
(12.6772 -3.27524 -2.08678e-23)
(12.5469 -3.26919 1.09635e-17)
(12.4238 -3.26343 -2.09702e-23)
(12.3089 -3.25843 -1.0591e-17)
(12.2043 -3.25482 0)
(12.1131 -3.2536 1.02446e-17)
(12.0398 -3.25615 0)
(11.9905 -3.2643 0)
(11.9722 -3.28014 -9.77743e-18)
(11.9922 -3.30587 -1.87824e-23)
(12.0564 -3.34329 4.72546e-18)
(12.1673 -3.39339 4.62046e-18)
(12.3208 -3.4552 0)
(12.506 -3.5258 0)
(12.7044 -3.60013 0)
(12.9005 -3.67392 0)
(13.1036 -3.74967 3.6688e-23)
(40.4527 51.0191 -3.76636e-20)
(44.5455 38.2137 -1.73617e-17)
(41.2778 26.1545 -1.26767e-17)
(35.2745 17.2916 -1.00577e-17)
(30.9842 12.0783 0)
(27.791 8.77386 0)
(24.7875 6.39866 0)
(22.3166 4.71875 0)
(20.6309 3.55918 0)
(19.6432 2.73892 4.72255e-18)
(19.1719 2.12507 -4.80257e-18)
(19.0426 1.63368 0)
(19.0911 1.21304 0)
(19.2163 0.836976 2.30698e-18)
(19.3559 0.491971 -4.53452e-24)
(19.484 0.171554 -5.33323e-19)
(19.5839 -0.127305 3.81517e-24)
(19.6583 -0.407112 -3.80202e-24)
(19.7033 -0.668893 1.50542e-23)
(19.7254 -0.914428 0)
(19.723 -1.14431 6.81792e-18)
(19.7018 -1.35988 -3.26218e-18)
(19.6611 -1.56168 -1.2138e-23)
(19.6057 -1.75082 0)
(19.5343 -1.92763 -5.7409e-18)
(19.4509 -2.09313 0)
(19.3542 -2.24746 5.29598e-18)
(19.2464 -2.39133 5.09377e-18)
(19.1278 -2.52516 2.22307e-23)
(18.9994 -2.64931 9.45357e-18)
(18.8618 -2.7642 -1.71104e-23)
(18.7159 -2.87021 1.70939e-23)
(18.5626 -2.96773 -8.51909e-18)
(18.4025 -3.05716 8.24714e-18)
(18.2367 -3.13882 0)
(18.0658 -3.21314 2.90975e-23)
(17.8907 -3.28047 -2.92351e-23)
(17.7121 -3.34119 -1.46556e-17)
(17.5307 -3.39565 0)
(17.3471 -3.44422 -6.9567e-18)
(17.1621 -3.48725 1.35809e-17)
(16.9761 -3.5251 2.65447e-17)
(16.7899 -3.55811 1.29862e-17)
(16.6038 -3.58661 -1.27208e-17)
(16.4184 -3.61094 8.30017e-25)
(16.2343 -3.63144 4.67247e-23)
(16.0518 -3.6484 -1.20317e-17)
(15.8712 -3.66211 0)
(15.6934 -3.67295 1.1642e-17)
(15.5184 -3.68118 -7.90961e-25)
(15.3463 -3.68696 -1.12903e-17)
(15.1777 -3.69066 1.11253e-17)
(15.0129 -3.69255 -2.05323e-23)
(14.8522 -3.69284 2.10165e-23)
(14.6954 -3.69167 -1.06654e-17)
(14.543 -3.68932 -1.05228e-17)
(14.3954 -3.6861 -1.0386e-17)
(14.2531 -3.68226 1.02549e-17)
(14.1167 -3.67806 -2.02598e-17)
(13.9869 -3.67389 1.87101e-23)
(13.865 -3.67023 -1.92727e-23)
(13.7529 -3.66772 -1.8294e-23)
(13.6538 -3.66735 -9.70084e-18)
(13.5722 -3.67052 -3.66974e-23)
(13.5143 -3.67909 8.07816e-25)
(13.4873 -3.69522 1.85153e-23)
(13.499 -3.72126 -4.71627e-18)
(13.5564 -3.75932 -4.67642e-18)
(13.6637 -3.81088 -4.61024e-18)
(13.8187 -3.87548 4.50232e-18)
(14.0114 -3.95048 0)
(14.2225 -4.03059 0)
(14.4343 -4.11101 -3.91471e-18)
(14.6576 -4.19468 3.66492e-18)
(47.032 40.3849 1.73049e-17)
(43.5972 27.6619 2.43618e-17)
(37.2157 18.2703 -1.50815e-22)
(32.5888 12.7201 0)
(29.2007 9.23012 0)
(26.0783 6.74042 -5.35472e-23)
(23.5292 4.98103 -7.14631e-18)
(21.8013 3.76462 5.68012e-23)
(20.8014 2.90224 3.67468e-18)
(20.338 2.25508 3.72064e-18)
(20.2231 1.7351 0)
(20.2918 1.2892 3.695e-18)
(20.4366 0.889892 -2.23792e-23)
(20.5941 0.523201 0)
(20.738 0.182387 4.24081e-19)
(20.8519 -0.13571 3.05291e-24)
(20.9385 -0.433745 -3.05953e-24)
(20.9943 -0.712795 1.50805e-18)
(21.0259 -0.974758 2.21154e-23)
(21.0319 -1.22026 -2.78017e-18)
(21.0181 -1.45072 2.66988e-18)
(20.9839 -1.66669 0)
(20.9341 -1.86939 1.84778e-23)
(20.8678 -2.05913 -4.73876e-18)
(20.7888 -2.23701 1.77091e-23)
(20.6962 -2.40318 -4.39089e-18)
(20.592 -2.5584 -8.46291e-18)
(20.4767 -2.70309 8.16258e-18)
(20.3512 -2.83766 -2.95632e-23)
(20.2163 -2.96254 2.9551e-23)
(20.0729 -3.07816 0)
(19.9219 -3.18489 7.13258e-18)
(19.7642 -3.28319 -6.91442e-18)
(19.6006 -3.37339 0)
(19.432 -3.45593 -2.44628e-23)
(19.2592 -3.53121 8.16259e-25)
(19.083 -3.5996 -6.17855e-18)
(18.9041 -3.66148 -7.79472e-25)
(18.7232 -3.71723 5.88469e-18)
(18.5409 -3.76722 -2.30177e-17)
(18.3578 -3.8118 -1.12692e-17)
(18.1745 -3.85134 0)
(17.9915 -3.88617 1.08478e-17)
(17.8092 -3.91663 -1.99901e-23)
(17.6282 -3.94304 -1.04957e-17)
(17.4486 -3.9657 0)
(17.2709 -3.98488 0)
(17.0958 -4.00099 -1.00691e-17)
(16.9233 -4.01426 -9.9471e-18)
(16.7536 -4.02487 9.83206e-18)
(16.587 -4.03317 -4.90186e-23)
(16.4241 -4.03946 0)
(16.265 -4.04395 9.52289e-18)
(16.1097 -4.04677 4.6915e-23)
(15.9583 -4.0482 9.34209e-18)
(15.8117 -4.04858 -9.25993e-18)
(15.6701 -4.04816 -1.8368e-17)
(15.534 -4.04719 4.48785e-23)
(15.4044 -4.04606 -1.76194e-23)
(15.2823 -4.04526 -8.99923e-18)
(15.1697 -4.04541 3.34556e-23)
(15.0697 -4.04751 -3.47848e-23)
(14.9867 -4.05295 -8.91617e-18)
(14.9268 -4.06355 0)
(14.8971 -4.08144 0)
(14.9052 -4.10891 4.49889e-18)
(14.9581 -4.14814 4.51119e-18)
(15.0612 -4.20082 -3.34435e-23)
(15.2138 -4.26699 1.93936e-24)
(15.4075 -4.3444 0)
(15.6233 -4.42793 0)
(15.8428 -4.51253 4.80068e-23)
(16.0788 -4.60169 0)
(49.5073 42.5554 1.78287e-17)
(45.9711 29.2129 -2.42093e-17)
(39.2135 19.2836 -1.31867e-22)
(34.2096 13.3725 2.32979e-22)
(30.5814 9.68006 -2.09845e-22)
(27.3076 7.06837 -6.39275e-18)
(24.6507 5.22551 6.14012e-18)
(22.8511 3.95016 0)
(21.8114 3.04537 -3.0363e-18)
(21.3323 2.36621 0)
(21.2149 1.82035 0)
(21.2906 1.35247 -3.01112e-18)
(21.4458 0.933525 -2.95474e-18)
(21.6148 0.548812 -7.19866e-19)
(21.7701 0.191186 -5.45115e-24)
(21.8948 -0.142722 0)
(21.9913 -0.45572 6.51429e-19)
(22.0563 -0.74897 0)
(22.0962 -1.02445 2.41814e-18)
(22.1099 -1.28284 2.32766e-18)
(22.103 -1.52559 -2.24094e-18)
(22.0751 -1.75334 1.67666e-23)
(22.0312 -1.96729 0)
(21.9702 -2.16783 4.35012e-23)
(21.8961 -2.35606 0)
(21.8081 -2.53217 3.84838e-23)
(21.7082 -2.69694 3.59042e-18)
(21.5969 -2.85082 0)
(21.4752 -2.99423 0)
(21.344 -3.12762 -2.4327e-23)
(21.2041 -3.25143 2.43634e-23)
(21.0565 -3.36608 2.28317e-23)
(20.9022 -3.47202 -7.57777e-25)
(20.742 -3.56961 -2.2254e-23)
(20.5769 -3.65933 0)
(20.4076 -3.74156 0)
(20.2351 -3.81671 5.29424e-18)
(20.0601 -3.88517 0)
(19.8833 -3.94733 5.05166e-18)
(19.7053 -4.00358 1.97795e-17)
(19.5267 -4.05428 3.63565e-23)
(19.3481 -4.09981 -3.69372e-23)
(19.1699 -4.14048 -9.35477e-18)
(18.9926 -4.17666 -7.02775e-23)
(18.8167 -4.20866 9.96548e-23)
(18.6424 -4.23679 3.35825e-23)
(18.4699 -4.26129 -1.20259e-24)
(18.3 -4.28259 -8.75715e-18)
(18.1326 -4.3009 1.73396e-17)
(17.968 -4.3164 -3.21741e-23)
(17.8064 -4.32945 -8.51493e-18)
(17.6484 -4.34036 3.16278e-23)
(17.4941 -4.34933 -8.38292e-18)
(17.3435 -4.3565 -9.18664e-24)
(17.1968 -4.36217 3.21619e-23)
(17.0547 -4.36667 8.46265e-23)
(16.9176 -4.37025 -8.75515e-24)
(16.7859 -4.37317 1.62959e-17)
(16.6605 -4.37583 -3.16186e-23)
(16.5426 -4.37871 2.33925e-23)
(16.4341 -4.38244 1.29475e-24)
(16.3379 -4.38801 -8.12015e-18)
(16.2585 -4.39678 8.15839e-18)
(16.2017 -4.41055 0)
(16.1743 -4.43133 -8.32533e-18)
(16.1832 -4.46125 3.29762e-23)
(16.2349 -4.50231 0)
(16.3345 -4.55614 0)
(16.4825 -4.6231 -4.28853e-18)
(16.6724 -4.70143 -3.10593e-23)
(16.8869 -4.78646 3.12788e-23)
(17.1074 -4.87319 3.73722e-18)
(17.3491 -4.9656 2.70782e-23)
(51.9842 44.7361 -3.80002e-17)
(48.4384 30.8334 2.47252e-17)
(41.3208 20.3585 2.6161e-22)
(35.9065 14.0596 -7.32432e-18)
(31.9975 10.1445 -6.47497e-18)
(28.5428 7.40028 5.88851e-18)
(25.7532 5.46765 0)
(23.8574 4.12923 -2.67637e-18)
(22.7541 3.17969 4.36721e-23)