/*--------------------------------*- C++ -*----------------------------------*\
| =========                 |                                                 |
| \\      /  F ield         | OpenFOAM: The Open Source CFD Toolbox           |
|  \\    /   O peration     | Version:  2412                                  |
|   \\  /    A nd           | Website:  www.openfoam.com                      |
|    \\/     M anipulation  |                                                 |
\*---------------------------------------------------------------------------*/
FoamFile
{
    version     2.0;
    format      ascii;
    arch        "LSB;label=32;scalar=64";
    class       volScalarField;
    location    "80";
    object      nut;
}
// * * * * * * * * * * * * * * * * * * * * * * * * * * * * * * * * * * * * * //

dimensions      [0 2 -1 0 0 0 0];

internalField   nonuniform List<scalar> 
7418
(
3.36147e-12
7.36918e-12
2.18028e-12
5.5237e-13
1.32608e-12
1.19519e-12
1.29655e-11
3.2733e-11
3.28921e-11
2.46781e-11
2.05715e-11
1.85499e-11
1.76781e-11
1.77573e-11
1.84291e-11
1.89868e-11
1.91029e-11
1.89291e-11
1.84964e-11
1.8029e-11
1.77471e-11
1.76469e-11
1.76776e-11
1.77413e-11
1.77605e-11
1.77453e-11
1.77255e-11
1.77375e-11
1.77835e-11
1.7851e-11
1.79274e-11
1.80108e-11
1.81053e-11
1.8212e-11
1.83315e-11
1.84606e-11
1.85984e-11
1.87448e-11
1.8898e-11
1.9057e-11
1.92217e-11
1.93922e-11
1.95671e-11
1.97457e-11
1.99271e-11
2.0111e-11
2.02974e-11
2.04857e-11
2.06731e-11
2.08593e-11
2.10472e-11
2.12341e-11
2.14198e-11
2.16045e-11
2.17855e-11
2.1966e-11
2.21444e-11
2.23201e-11
2.24915e-11
2.26581e-11
2.28219e-11
2.29841e-11
2.31404e-11
2.32913e-11
2.34396e-11
2.35836e-11
2.37237e-11
2.38581e-11
2.39863e-11
2.41112e-11
2.42296e-11
2.43373e-11
2.44351e-11
2.45255e-11
2.46292e-11
2.47331e-11
2.48318e-11
2.49264e-11
2.50183e-11
2.51077e-11
2.51983e-11
6.7181e-12
8.43193e-12
3.09054e-10
5.8266e-10
2.07901e-10
5.55036e-11
1.13567e-10
1.1109e-10
1.31098e-09
2.96521e-09
2.92937e-09
2.28996e-09
1.9477e-09
1.77681e-09
1.70603e-09
1.71622e-09
1.77352e-09
1.81906e-09
1.82709e-09
1.80971e-09
1.77087e-09
1.73007e-09
1.70606e-09
1.69786e-09
1.70077e-09
1.70629e-09
1.70796e-09
1.70685e-09
1.70558e-09
1.70723e-09
1.71201e-09
1.71869e-09
1.72626e-09
1.73456e-09
1.74389e-09
1.75448e-09
1.76621e-09
1.77882e-09
1.79226e-09
1.80649e-09
1.82135e-09
1.83676e-09
1.85273e-09
1.86912e-09
1.88591e-09
1.90304e-09
1.92036e-09
1.93791e-09
1.95565e-09
1.97347e-09
1.99128e-09
2.00898e-09
2.02669e-09
2.0443e-09
2.06173e-09
2.07905e-09
2.09607e-09
2.1129e-09
2.12948e-09
2.14581e-09
2.16177e-09
2.17728e-09
2.19245e-09
2.20736e-09
2.22185e-09
2.23588e-09
2.24956e-09
2.26281e-09
2.27565e-09
2.28805e-09
2.29991e-09
2.31131e-09
2.3221e-09
2.33207e-09
2.34104e-09
2.34941e-09
2.35889e-09
2.36828e-09
2.37724e-09
2.3858e-09
2.3941e-09
2.4022e-09
2.41027e-09
5.47042e-10
6.65361e-10
3.05561e-09
4.43646e-09
1.94482e-09
5.81121e-10
9.49106e-10
1.27341e-09
1.37544e-08
2.65281e-08
2.5761e-08
2.13123e-08
1.86616e-08
1.73222e-08
1.67974e-08
1.69203e-08
1.73821e-08
1.77229e-08
1.77572e-08
1.75806e-08
1.72436e-08
1.6906e-08
1.6711e-08
1.6649e-08
1.66766e-08
1.6723e-08
1.67379e-08
1.67321e-08
1.6729e-08
1.67529e-08
1.68045e-08
1.68733e-08
1.69514e-08
1.70371e-08
1.7133e-08
1.72412e-08
1.736e-08
1.74871e-08
1.76218e-08
1.77636e-08
1.79111e-08
1.80637e-08
1.82213e-08
1.83823e-08
1.85465e-08
1.87134e-08
1.88817e-08
1.90513e-08
1.92218e-08
1.93925e-08
1.9563e-08
1.9732e-08
1.99001e-08
2.00667e-08
2.02312e-08
2.03938e-08
2.05538e-08
2.0711e-08
2.08653e-08
2.10167e-08
2.11647e-08
2.13086e-08
2.14485e-08
2.15853e-08
2.17181e-08
2.18469e-08
2.19717e-08
2.20922e-08
2.2209e-08
2.23217e-08
2.24292e-08
2.25316e-08
2.26291e-08
2.27196e-08
2.28012e-08
2.28777e-08
2.29621e-08
2.30453e-08
2.31243e-08
2.31992e-08
2.3272e-08
2.33426e-08
2.34115e-08
4.25919e-09
5.13141e-09
1.906e-08
1.67696e-08
8.6115e-09
3.03608e-09
3.94543e-09
9.04685e-09
7.17113e-08
1.17067e-07
1.12627e-07
9.92122e-08
8.97763e-08
8.49972e-08
8.33092e-08
8.39745e-08
8.56498e-08
8.67374e-08
8.66695e-08
8.57935e-08
8.44014e-08
8.30992e-08
8.23691e-08
8.21665e-08
8.22964e-08
8.24822e-08
8.2552e-08
8.25589e-08
8.26008e-08
8.27672e-08
8.30545e-08
8.34192e-08
8.38296e-08
8.42817e-08
8.47858e-08
8.53469e-08
8.59564e-08
8.66038e-08
8.72855e-08
8.79987e-08
8.87375e-08
8.94979e-08
9.02768e-08
9.10687e-08
9.18717e-08
9.26826e-08
9.34975e-08
9.43138e-08
9.51291e-08
9.59412e-08
9.67475e-08
9.75443e-08
9.83326e-08
9.91105e-08
9.98764e-08
1.00629e-07
1.01366e-07
1.02088e-07
1.02793e-07
1.03481e-07
1.04151e-07
1.04802e-07
1.05432e-07
1.06046e-07
1.06638e-07
1.0721e-07
1.07765e-07
1.08298e-07
1.08812e-07
1.09306e-07
1.09776e-07
1.10223e-07
1.10648e-07
1.11044e-07
1.11406e-07
1.11747e-07
1.12105e-07
1.12458e-07
1.1279e-07
1.13103e-07
1.13404e-07
1.13692e-07
1.13964e-07
1.63447e-08
2.14819e-08
9.11265e-08
4.58358e-08
2.5918e-08
1.0856e-08
1.18936e-08
4.7642e-08
2.58095e-07
3.63566e-07
3.50416e-07
3.29008e-07
3.07958e-07
2.97509e-07
2.94559e-07
2.96758e-07
3.00305e-07
3.02017e-07
3.01003e-07
2.98055e-07
2.94254e-07
2.91043e-07
2.89341e-07
2.88994e-07
2.89419e-07
2.89924e-07
2.90181e-07
2.90368e-07
2.90751e-07
2.91536e-07
2.92687e-07
2.94084e-07
2.95644e-07
2.97364e-07
2.99265e-07
3.0135e-07
3.03588e-07
3.05945e-07
3.08407e-07
3.10961e-07
3.13589e-07
3.16273e-07
3.18999e-07
3.21751e-07
3.24518e-07
3.27292e-07
3.3006e-07
3.32815e-07
3.35545e-07
3.38245e-07
3.40908e-07
3.43525e-07
3.46098e-07
3.4862e-07
3.51089e-07
3.53501e-07
3.55848e-07
3.58133e-07
3.60352e-07
3.62506e-07
3.64593e-07
3.66609e-07
3.68555e-07
3.70434e-07
3.72241e-07
3.73977e-07
3.75651e-07
3.77255e-07
3.78791e-07
3.80256e-07
3.81646e-07
3.82969e-07
3.84221e-07
3.85393e-07
3.86489e-07
3.87528e-07
3.88537e-07
3.89528e-07
3.90451e-07
3.91312e-07
3.92123e-07
3.92873e-07
3.9354e-07
4.51471e-08
9.45454e-08
3.51616e-07
1.0706e-07
6.18125e-08
3.04616e-08
3.12114e-08
2.03573e-07
7.24261e-07
9.14475e-07
8.93731e-07
8.91351e-07
8.61686e-07
8.48168e-07
8.46682e-07
8.51346e-07
8.54713e-07
8.54125e-07
8.49519e-07
8.42038e-07
8.34588e-07
8.2931e-07
8.26861e-07
8.26839e-07
8.27944e-07
8.29044e-07
8.29923e-07
8.31036e-07
8.32908e-07
8.35811e-07
8.39588e-07
8.43987e-07
8.48869e-07
8.54237e-07
8.60101e-07
8.6643e-07
8.73141e-07
8.80136e-07
8.87367e-07
8.94795e-07
9.02358e-07
9.10003e-07
9.17694e-07
9.25384e-07
9.33042e-07
9.40641e-07
9.48155e-07
9.55562e-07
9.62831e-07
9.69957e-07
9.76922e-07
9.83714e-07
9.90334e-07
9.96766e-07
1.003e-06
1.00905e-06
1.01489e-06
1.02052e-06
1.02596e-06
1.03119e-06
1.03621e-06
1.04103e-06
1.04565e-06
1.05008e-06
1.0543e-06
1.05833e-06
1.06217e-06
1.06583e-06
1.0693e-06
1.07258e-06
1.07568e-06
1.07861e-06
1.08137e-06
1.08399e-06
1.08652e-06
1.08893e-06
1.09098e-06
1.09299e-06
1.09481e-06
1.09646e-06
1.09796e-06
1.09924e-06
1.10019e-06
1.06374e-07
3.67858e-07
1.12819e-06
2.76148e-07
1.27866e-07
7.17076e-08
9.35974e-08
7.41865e-07
1.68556e-06
1.99997e-06
2.00443e-06
2.10739e-06
2.09464e-06
2.0931e-06
2.1002e-06
2.10477e-06
2.09799e-06
2.08605e-06
2.0727e-06
2.05829e-06
2.04866e-06
2.04459e-06
2.04395e-06
2.04593e-06
2.04849e-06
2.05079e-06
2.05376e-06
2.05829e-06
2.06508e-06
2.07414e-06
2.08494e-06
2.09711e-06
2.1105e-06
2.12513e-06
2.14091e-06
2.15766e-06
2.17516e-06
2.19318e-06
2.21161e-06
2.23029e-06
2.24907e-06
2.26782e-06
2.28644e-06
2.30484e-06
2.32293e-06
2.34065e-06
2.35795e-06
2.3748e-06
2.39112e-06
2.40692e-06
2.42217e-06
2.43686e-06
2.451e-06
2.46457e-06
2.47755e-06
2.48998e-06
2.50186e-06
2.51317e-06
2.52394e-06
2.53414e-06
2.54385e-06
2.55302e-06
2.5617e-06
2.56991e-06
2.57763e-06
2.58487e-06
2.59168e-06
2.59806e-06
2.60401e-06
2.60953e-06
2.61465e-06
2.61944e-06
2.62395e-06
2.62833e-06
2.63284e-06
2.63709e-06
2.63978e-06
2.64237e-06
2.64452e-06
2.64628e-06
2.64763e-06
2.6483e-06
2.64796e-06
2.5589e-07
1.22335e-06
3.08933e-06
7.48258e-07
2.44277e-07
1.48696e-07
2.88227e-07
2.10435e-06
3.38777e-06
3.95874e-06
4.10714e-06
4.49594e-06
4.55552e-06
4.59288e-06
4.61334e-06
4.60384e-06
4.56488e-06
4.52677e-06
4.50038e-06
4.48181e-06
4.47947e-06
4.4871e-06
4.49517e-06
4.50299e-06
4.50891e-06
4.51468e-06
4.52437e-06
4.53924e-06
4.55952e-06
4.58408e-06
4.61176e-06
4.64215e-06
4.67531e-06
4.71117e-06
4.7493e-06
4.78913e-06
4.83012e-06
4.87176e-06
4.91376e-06
4.95574e-06
4.99737e-06
5.03831e-06
5.07836e-06
5.11731e-06
5.15498e-06
5.19132e-06
5.22617e-06
5.25951e-06
5.29124e-06
5.32144e-06
5.35003e-06
5.37704e-06
5.40251e-06
5.42647e-06
5.44895e-06
5.47002e-06
5.48967e-06
5.50797e-06
5.52494e-06
5.5406e-06
5.55514e-06
5.56846e-06
5.58072e-06
5.59192e-06
5.60208e-06
5.61123e-06
5.6195e-06
5.62686e-06
5.63334e-06
5.63901e-06
5.64395e-06
5.64832e-06
5.65239e-06
5.65669e-06
5.66204e-06
5.66689e-06
5.66677e-06
5.66653e-06
5.66537e-06
5.6634e-06
5.66041e-06
5.65567e-06
5.6483e-06
6.78481e-07
3.50327e-06
7.33926e-06
1.93469e-06
4.74475e-07
2.86082e-07
8.6779e-07
4.68966e-06
6.05344e-06
7.25428e-06
7.83659e-06
8.7597e-06
8.93445e-06
9.01817e-06
9.03366e-06
8.97972e-06
8.88344e-06
8.81203e-06
8.78107e-06
8.77568e-06
8.80275e-06
8.8402e-06
8.86777e-06
8.88785e-06
8.90239e-06
8.91933e-06
8.9477e-06
8.98805e-06
9.03885e-06
9.09681e-06
9.1599e-06
9.22802e-06
9.30162e-06
9.3803e-06
9.46276e-06
9.54763e-06
9.63374e-06
9.72016e-06
9.80619e-06
9.89097e-06
9.97384e-06
1.00541e-05
1.01314e-05
1.02052e-05
1.02753e-05
1.03417e-05
1.0404e-05
1.04623e-05
1.05164e-05
1.05668e-05
1.06131e-05
1.06556e-05
1.06945e-05
1.07298e-05
1.07618e-05
1.07905e-05
1.08161e-05
1.08388e-05
1.08586e-05
1.08757e-05
1.08905e-05
1.09028e-05
1.0913e-05
1.09211e-05
1.09272e-05
1.09314e-05
1.09339e-05
1.09348e-05
1.09341e-05
1.09319e-05
1.09286e-05
1.09246e-05
1.09205e-05
1.09179e-05
1.09186e-05
1.09181e-05
1.09055e-05
1.08928e-05
1.08785e-05
1.08626e-05
1.08446e-05
1.08226e-05
1.07949e-05
1.778e-06
8.70457e-06
1.52653e-05
4.61289e-06
1.03299e-06
5.29228e-07
2.49233e-06
8.75263e-06
9.83177e-06
1.24382e-05
1.39559e-05
1.55421e-05
1.57776e-05
1.5858e-05
1.58203e-05
1.56895e-05
1.55312e-05
1.54465e-05
1.5443e-05
1.54851e-05
1.55711e-05
1.56567e-05
1.57144e-05
1.57557e-05
1.57906e-05
1.58359e-05
1.59047e-05
1.59948e-05
1.61013e-05
1.62185e-05
1.63437e-05
1.64776e-05
1.66207e-05
1.67719e-05
1.69283e-05
1.70874e-05
1.7247e-05
1.74056e-05
1.75618e-05
1.77139e-05
1.78607e-05
1.80011e-05
1.81344e-05
1.82598e-05
1.83769e-05
1.84857e-05
1.85857e-05
1.86772e-05
1.87601e-05
1.88349e-05
1.89014e-05
1.89604e-05
1.90118e-05
1.90562e-05
1.9094e-05
1.91254e-05
1.91507e-05
1.91704e-05
1.91847e-05
1.91939e-05
1.91989e-05
1.91993e-05
1.9196e-05
1.91889e-05
1.91784e-05
1.91645e-05
1.91478e-05
1.91283e-05
1.91061e-05
1.90817e-05
1.90557e-05
1.90288e-05
1.90026e-05
1.89804e-05
1.89652e-05
1.89472e-05
1.89057e-05
1.88644e-05
1.88202e-05
1.87734e-05
1.87226e-05
1.86645e-05
1.85957e-05
4.40565e-06
1.88227e-05
2.79829e-05
1.00068e-05
2.31151e-06
1.06164e-06
6.68864e-06
1.43302e-05
1.49519e-05
2.00094e-05
2.29825e-05
2.5054e-05
2.52048e-05
2.51942e-05
2.50523e-05
2.48347e-05
2.46441e-05
2.45956e-05
2.4668e-05
2.47971e-05
2.49666e-05
2.51111e-05
2.52074e-05
2.52822e-05
2.53565e-05
2.54559e-05
2.55939e-05
2.57625e-05
2.59531e-05
2.6158e-05
2.63749e-05
2.6605e-05
2.68487e-05
2.71032e-05
2.73636e-05
2.76259e-05
2.7887e-05
2.81443e-05
2.83955e-05
2.86381e-05
2.88701e-05
2.90898e-05
2.92961e-05
2.94881e-05
2.96651e-05
2.98271e-05
2.99736e-05
3.0105e-05
3.02214e-05
3.03235e-05
3.04114e-05
3.04862e-05
3.05481e-05
3.05979e-05
3.06362e-05
3.06638e-05
3.06811e-05
3.06888e-05
3.06875e-05
3.06779e-05
3.06612e-05
3.06372e-05
3.0607e-05
3.05705e-05
3.05286e-05
3.04813e-05
3.04295e-05
3.03732e-05
3.03129e-05
3.02493e-05
3.01833e-05
3.01163e-05
3.00514e-05
2.99938e-05
2.99479e-05
2.98963e-05
2.98067e-05
2.97174e-05
2.96239e-05
2.95262e-05
2.94218e-05
2.93053e-05
2.91722e-05
1.00746e-05
3.54867e-05
4.56679e-05
1.96211e-05
5.07919e-06
2.2859e-06
1.43751e-05
2.12739e-05
2.18412e-05
3.01924e-05
3.48084e-05
3.69822e-05
3.6903e-05
3.67261e-05
3.64573e-05
3.61776e-05
3.60131e-05
3.6063e-05
3.62593e-05
3.65053e-05
3.677e-05
3.69768e-05
3.71193e-05
3.72437e-05
3.73819e-05
3.75652e-05
3.78018e-05
3.80765e-05
3.83769e-05
3.86953e-05
3.90301e-05
3.93831e-05
3.97534e-05
4.01359e-05
4.05238e-05
4.09115e-05
4.12948e-05
4.167e-05
4.20339e-05
4.2383e-05
4.27146e-05
4.30265e-05
4.33172e-05
4.35856e-05
4.38309e-05
4.40529e-05
4.42513e-05
4.44267e-05
4.45794e-05
4.47104e-05
4.482e-05
4.49097e-05
4.498e-05
4.5032e-05
4.50668e-05
4.50853e-05
4.50884e-05
4.50771e-05
4.50523e-05
4.50152e-05
4.49673e-05
4.49085e-05
4.48405e-05
4.47631e-05
4.46777e-05
4.45842e-05
4.44841e-05
4.43773e-05
4.42646e-05
4.41471e-05
4.40262e-05
4.39042e-05
4.37855e-05
4.36778e-05
4.35862e-05
4.34846e-05
4.33298e-05
4.31754e-05
4.30149e-05
4.28483e-05
4.26715e-05
4.24771e-05
4.22597e-05
2.08381e-05
5.88524e-05
6.73967e-05
3.4699e-05
1.0654e-05
5.00465e-06
2.47115e-05
2.9409e-05
3.08713e-05
4.27898e-05
4.87632e-05
5.06928e-05
5.03084e-05
4.99368e-05
4.956e-05
4.92718e-05
4.9202e-05
4.94056e-05
4.9758e-05
5.01343e-05
5.04942e-05
5.07634e-05
5.0962e-05
5.11558e-05
5.13845e-05
5.16801e-05
5.2041e-05
5.24438e-05
5.28741e-05
5.33256e-05
5.3798e-05
5.42928e-05
5.4807e-05
5.5333e-05
5.58619e-05
5.63869e-05
5.6903e-05
5.74055e-05
5.789e-05
5.83523e-05
5.87892e-05
5.9198e-05
5.95771e-05
5.9925e-05
6.02409e-05
6.05248e-05
6.07766e-05
6.09968e-05
6.1186e-05
6.13457e-05
6.14764e-05
6.15799e-05
6.1657e-05
6.17092e-05
6.17379e-05
6.17444e-05
6.17298e-05
6.16956e-05
6.16429e-05
6.15734e-05
6.14891e-05
6.13898e-05
6.12776e-05
6.11527e-05
6.10165e-05
6.08693e-05
6.07127e-05
6.05469e-05
6.03728e-05
6.01921e-05
6.00065e-05
5.98195e-05
5.96366e-05
5.94678e-05
5.9318e-05
5.91528e-05
5.89214e-05
5.86897e-05
5.84497e-05
5.82012e-05
5.79387e-05
5.76528e-05
5.73381e-05
3.86075e-05
8.75432e-05
9.1677e-05
5.55609e-05
2.08864e-05
1.08854e-05
3.64493e-05
3.86402e-05
4.22506e-05
5.72322e-05
6.39977e-05
6.54918e-05
6.48121e-05
6.42705e-05
6.3839e-05
6.36094e-05
6.36943e-05
6.40866e-05
6.46071e-05
6.51124e-05
6.55622e-05
6.58961e-05
6.61651e-05
6.64504e-05
6.67951e-05
6.7227e-05
6.77317e-05
6.82785e-05
6.88529e-05
6.94509e-05
7.00733e-05
7.07206e-05
7.13873e-05
7.2063e-05
7.27372e-05
7.34025e-05
7.40529e-05
7.4683e-05
7.52874e-05
7.58615e-05
7.64017e-05
7.69051e-05
7.73698e-05
7.77944e-05
7.81783e-05
7.85214e-05
7.88238e-05
7.90864e-05
7.931e-05
7.94963e-05
7.96461e-05
7.97617e-05
7.9844e-05
7.98948e-05
7.99159e-05
7.99088e-05
7.9875e-05
7.98164e-05
7.97343e-05
7.96308e-05
7.95082e-05
7.93664e-05
7.92079e-05
7.9033e-05
7.88434e-05
7.86397e-05
7.84234e-05
7.8195e-05
7.79557e-05
7.77076e-05
7.7453e-05
7.71958e-05
7.69433e-05
7.67063e-05
7.64891e-05
7.62502e-05
7.59363e-05
7.56208e-05
7.52946e-05
7.4957e-05
7.46012e-05
7.42168e-05
7.37993e-05
6.40832e-05
0.000119722
0.000117103
8.14765e-05
3.77675e-05
2.27025e-05
4.84138e-05
4.89349e-05
5.58341e-05
7.2795e-05
7.97789e-05
8.07973e-05
7.98978e-05
7.92496e-05
7.88345e-05
7.87271e-05
7.90076e-05
7.96014e-05
8.02855e-05
8.09117e-05
8.14472e-05
8.18542e-05
8.22118e-05
8.26119e-05
8.30955e-05
8.36825e-05
8.4345e-05
8.50469e-05
8.5775e-05
8.65279e-05
8.73073e-05
8.81119e-05
8.8933e-05
8.97582e-05
9.05759e-05
9.1378e-05
9.21582e-05
9.29102e-05
9.36283e-05
9.43074e-05
9.49438e-05
9.55346e-05
9.6078e-05
9.65727e-05
9.70181e-05
9.74145e-05
9.7762e-05
9.8062e-05
9.83156e-05
9.85246e-05
9.86903e-05
9.88149e-05
9.88999e-05
9.89473e-05
9.89592e-05
9.89373e-05
9.88834e-05
9.87996e-05
9.86876e-05
9.85499e-05
9.83888e-05
9.82045e-05
9.79996e-05
9.77747e-05
9.75316e-05
9.72709e-05
9.69946e-05
9.67032e-05
9.6398e-05
9.60816e-05
9.57567e-05
9.54279e-05
9.51032e-05
9.47938e-05
9.45021e-05
9.41819e-05
9.37837e-05
9.3382e-05
9.29666e-05
9.25368e-05
9.20848e-05
9.15997e-05
9.10793e-05
9.63411e-05
0.000153862
0.000142672
0.000111266
6.26571e-05
3.98534e-05
6.01756e-05
6.02338e-05
7.11178e-05
8.88196e-05
9.56028e-05
9.62095e-05
9.51954e-05
9.4522e-05
9.41952e-05
9.42595e-05
9.47556e-05
9.55472e-05
9.63827e-05
9.71219e-05
9.77452e-05
9.82399e-05
9.87085e-05
9.92464e-05
9.98891e-05
0.000100646
0.000101476
0.000102341
0.00010323
0.000104143
0.000105083
0.000106046
0.00010702
0.000107991
0.000108946
0.000109879
0.000110781
0.000111646
0.000112469
0.000113243
0.000113966
0.000114635
0.000115248
0.000115804
0.000116302
0.000116744
0.000117129
0.00011746
0.000117737
0.000117964
0.00011814
0.00011827
0.000118354
0.000118394
0.000118394
0.000118356
0.00011828
0.00011817
0.000118027
0.000117854
0.000117654
0.000117427
0.000117176
0.000116901
0.000116605
0.000116288
0.000115952
0.000115597
0.000115227
0.000114842
0.000114447
0.000114046
0.000113647
0.000113262
0.000112889
0.000112481
0.000111999
0.000111509
0.000111004
0.000110481
0.000109931
0.000109346
0.000108726
0.000133827
0.000189275
0.000167668
0.000143873
9.18525e-05
5.89561e-05
7.16122e-05
7.2337e-05
8.74104e-05
0.000104831
0.000111187
0.0001115
0.000110476
0.00010986
0.000109682
0.00010995
0.000110666
0.000111644
0.000112618
0.000113468
0.00011419
0.000114793
0.000115396
0.000116095
0.000116914
0.000117852
0.000118858
0.000119893
0.000120948
0.000122026
0.000123127
0.000124246
0.000125369
0.00012648
0.000127566
0.000128621
0.000129635
0.000130604
0.000131521
0.00013238
0.000133179
0.000133915
0.000134587
0.000135193
0.000135735
0.000136213
0.000136627
0.000136981
0.000137274
0.000137511
0.000137692
0.000137821
0.000137898
0.000137928
0.000137912
0.000137852
0.000137751
0.000137612
0.000137436
0.000137227
0.000136986
0.000136715
0.000136416
0.000136091
0.00013574
0.000135366
0.000134969
0.000134552
0.000134115
0.000133661
0.000133195
0.00013272
0.000132246
0.000131781
0.00013132
0.000130815
0.000130248
0.00012967
0.000129073
0.000128455
0.000127807
0.000127123
0.000126406
0.00017542
0.000225827
0.000191573
0.000178909
0.000119422
7.68713e-05
8.27542e-05
8.53267e-05
0.000104042
0.000120553
0.00012641
0.00012656
0.000125625
0.000125135
0.000125152
0.000125641
0.00012657
0.000127723
0.00012883
0.000129798
0.000130634
0.00013137
0.000132134
0.000133013
0.000134024
0.000135153
0.000136342
0.000137553
0.000138779
0.000140021
0.000141284
0.000142556
0.000143823
0.000145066
0.000146275
0.000147442
0.000148559
0.00014962
0.000150619
0.000151551
0.000152414
0.000153205
0.000153925
0.000154571
0.000155145
0.000155648
0.000156082
0.000156448
0.000156749
0.000156987
0.000157165
0.000157285
0.000157349
0.000157361
0.000157323
0.000157237
0.000157106
0.000156932
0.000156719
0.000156469
0.000156184
0.000155866
0.000155516
0.000155137
0.00015473
0.000154296
0.000153837
0.000153353
0.000152848
0.000152323
0.000151783
0.000151233
0.000150679
0.000150128
0.00014957
0.000148955
0.000148302
0.000147633
0.000146943
0.000146228
0.00014548
0.000144696
0.000143885
0.000213085
0.000261809
0.000213964
0.000213988
0.000143196
9.27877e-05
9.37918e-05
9.92614e-05
0.000120491
0.000135871
0.000141259
0.000141368
0.000140601
0.000140297
0.000140537
0.000141253
0.000142389
0.000143712
0.000144952
0.000146051
0.000147026
0.000147922
0.00014887
0.000149948
0.000151162
0.00015249
0.000153866
0.000155257
0.000156655
0.000158063
0.000159483
0.000160903
0.000162305
0.000163672
0.000164993
0.00016626
0.000167468
0.000168608
0.000169676
0.000170668
0.000171582
0.000172415
0.000173168
0.000173841
0.000174435
0.000174951
0.000175392
0.00017576
0.000176057
0.000176287
0.000176451
0.000176552
0.000176594
0.00017658
0.000176511
0.000176391
0.000176223
0.000176009
0.000175752
0.000175455
0.000175121
0.00017475
0.000174345
0.000173907
0.000173438
0.00017294
0.000172414
0.00017186
0.000171282
0.000170683
0.000170065
0.000169433
0.000168794
0.000168149
0.000167482
0.000166743
0.000166
0.000165237
0.000164448
0.000163632
0.000162781
0.000161896
0.000160993
0.000245411
0.000292135
0.000234556
0.000244048
0.000162203
0.000106746
0.000104935
0.000113967
0.000136425
0.000150781
0.000155792
0.000155961
0.000155412
0.000155349
0.000155826
0.000156772
0.00015811
0.000159601
0.000160988
0.00016224
0.000163379
0.00016446
0.000165612
0.000166904
0.00016833
0.00016986
0.000171426
0.000172997
0.000174566
0.000176135
0.000177705
0.000179263
0.000180789
0.000182267
0.000183686
0.00018504
0.000186322
0.000187526
0.000188647
0.000189683
0.000190631
0.00019149
0.000192262
0.000192946
0.000193544
0.000194059
0.000194493
0.000194849
0.000195129
0.000195337
0.000195475
0.000195547
0.000195555
0.000195504
0.000195395
0.000195231
0.000195016
0.000194753
0.000194444
0.000194092
0.0001937
0.000193269
0.000192801
0.000192298
0.000191761
0.000191192
0.000190593
0.000189964
0.000189307
0.000188626
0.000187924
0.000187204
0.000186472
0.000185723
0.000184936
0.000184053
0.000183216
0.000182351
0.000181459
0.000180535
0.000179576
0.000178586
0.00017759
0.000272806
0.000316142
0.000253136
0.000269579
0.00017636
0.000119023
0.000116333
0.000129182
0.000151884
0.000165348
0.000170104
0.000170429
0.000170132
0.000170334
0.000171059
0.000172236
0.000173775
0.000175443
0.000176997
0.000178423
0.000179751
0.000181039
0.00018241
0.000183924
0.000185565
0.000187295
0.000189048
0.000190793
0.000192526
0.000194245
0.000195952
0.000197633
0.000199267
0.000200838
0.000202337
0.000203758
0.000205095
0.000206343
0.000207498
0.000208557
0.000209519
0.000210386
0.000211157
0.000211833
0.000212418
0.000212914
0.000213324
0.000213651
0.000213899
0.00021407
0.000214167
0.000214195
0.000214156
0.000214054
0.000213892
0.000213673
0.0002134
0.000213077
0.000212705
0.000212289
0.00021183
0.00021133
0.00021079
0.000210213
0.0002096
0.000208952
0.000208271
0.000207558
0.000206815
0.000206044
0.000205249
0.000204433
0.000203598
0.000202735
0.000201816
0.000295092
0.00033411
0.000269214
0.000290811
0.000185967
0.00013003
0.000128066
0.000144625
0.000166971
0.00017968
0.000184307
0.000184865
0.000184848
0.000185331
0.000186311
0.000187722
0.00018947
0.000191327
0.000193068
0.00019469
0.000196225
0.000197733
0.000199331
0.000201066
0.000202917
0.000204839
0.000206767
0.000208674
0.000210553
0.000212404
0.000214228
0.000216009
0.000217727
0.000219367
0.000220921
0.000222383
0.00022375
0.000225017
0.00022618
0.000227238
0.000228192
0.000229041
0.000229788
0.000230436
0.000230986
0.000231442
0.000231808
0.000232087
0.000232283
0.000232399
0.000232439
0.000232406
0.000232304
0.000232136
0.000231907
0.000231618
0.000231274
0.000230878
0.000230432
0.00022994
0.000229402
0.000228821
0.0002282
0.000227538
0.000226838
0.000226102
0.00022533
0.000224523
0.000223684
0.000222815
0.000221917
0.000220994
0.000220044
0.000219055
0.000217997
0.000311343
0.000346281
0.000282852
0.000306878
0.000192363
0.000140159
0.000140071
0.000160026
0.000181818
0.00019393
0.000198549
0.000199389
0.000199676
0.000200451
0.000201691
0.000203341
0.000205305
0.000207364
0.000209307
0.000211138
0.000212889
0.000214621
0.000216439
0.000218385
0.00022043
0.000222525
0.000224606
0.000226651
0.000228648
0.000230602
0.000232513
0.000234363
0.000236133
0.000237809
0.000239386
0.000240858
0.000242223
0.000243477
0.000244618
0.000245646
0.000246561
0.000247365
0.000248061
0.000248653
0.000249142
0.000249535
0.000249833
0.000250041
0.000250164
0.000250205
0.000250167
0.000250054
0.000249871
0.000249621
0.000249308
0.000248934
0.000248504
0.000248021
0.000247486
0.000246904
0.000246276
0.000245602
0.000244886
0.000244129
0.000243332
0.000242495
0.000241622
0.000240711
0.000239765
0.000238786
0.000237775
0.000236732
0.000235655
0.000234529
0.000233328
0.000319405
0.000352812
0.000295951
0.00031606
0.00019743
0.000149807
0.000152696
0.000175405
0.000196578
0.000208269
0.000212982
0.000214136
0.000214752
0.000215818
0.000217323
0.000219215
0.000221398
0.000223663
0.000225813
0.000227852
0.000229814
0.000231756
0.000233777
0.000235908
0.000238118
0.000240352
0.000242553
0.000244696
0.000246773
0.000248791
0.000250747
0.000252624
0.000254405
0.000256077
0.000257635
0.000259078
0.000260403
0.000261606
0.000262688
0.000263649
0.000264491
0.000265218
0.000265831
0.000266336
0.000266737
0.000267037
0.000267242
0.000267354
0.000267379
0.000267321
0.000267183
0.000266971
0.000266687
0.000266335
0.00026592
0.000265445
0.000264912
0.000264326
0.000263689
0.000263003
0.00026227
0.000261491
0.000260667
0.000259802
0.000258895
0.000257947
0.000256959
0.000255932
0.000254868
0.000253767
0.00025263
0.000251456
0.00025024
0.000248967
0.00024762
0.000319318
0.00035424
0.00030858
0.00031874
0.000201405
0.000159408
0.000166142
0.000190834
0.000211416
0.000222868
0.000227755
0.000229252
0.000230208
0.000231557
0.000233323
0.000235449
0.000237843
0.000240304
0.000242647
0.000244877
0.000247026
0.000249148
0.000251334
0.000253608
0.000255937
0.000258263
0.000260532
0.000262722
0.000264828
0.000266858
0.000268807
0.000270659
0.000272399
0.000274017
0.000275509
0.000276875
0.000278113
0.000279222
0.000280202
0.000281056
0.000281786
0.000282397
0.000282893
0.000283278
0.000283557
0.000283735
0.000283816
0.000283805
0.000283706
0.000283525
0.000283264
0.000282929
0.000282523
0.00028205
0.000281515
0.00028092
0.000280269
0.000279564
0.000278809
0.000278004
0.000277152
0.000276253
0.00027531
0.000274323
0.000273294
0.000272222
0.000271108
0.000269953
0.000268758
0.000267523
0.000266247
0.000264929
0.000263562
0.000262134
0.00026064
0.000312863
0.000351737
0.000319414
0.000316742
0.000204855
0.000169328
0.000180424
0.000206403
0.000226501
0.00023787
0.000242985
0.000244835
0.000246124
0.000247753
0.000249761
0.000252099
0.000254676
0.0002573
0.000259799
0.00026218
0.000264471
0.000266723
0.000269018
0.000271374
0.000273757
0.000276108
0.00027838
0.000280553
0.000282625
0.000284602
0.000286481
0.000288247
0.000289887
0.000291393
0.000292762
0.000293997
0.000295096
0.000296061
0.000296892
0.000297593
0.000298168
0.000298623
0.000298963
0.000299191
0.000299315
0.000299337
0.000299265
0.000299101
0.000298852
0.000298521
0.000298114
0.000297634
0.000297086
0.000296473
0.000295799
0.000295067
0.000294281
0.000293442
0.000292554
0.000291616
0.000290631
0.0002896
0.000288524
0.000287404
0.000286239
0.000285032
0.00028378
0.000282485
0.000281147
0.000279765
0.000278338
0.000276863
0.000275334
0.000273745
0.000272101
0.000303466
0.000346214
0.000324015
0.000311521
0.000208165
0.000179419
0.000195504
0.000222221
0.000241963
0.000253358
0.000258719
0.000260915
0.00026252
0.000264401
0.000266614
0.000269117
0.000271821
0.000274548
0.000277142
0.000279608
0.000281974
0.000284284
0.000286613
0.000288974
0.000291325
0.000293622
0.000295819
0.000297899
0.00029986
0.000301711
0.000303447
0.000305057
0.000306529
0.000307858
0.000309043
0.000310087
0.000310991
0.000311757
0.000312388
0.000312889
0.000313265
0.000313522
0.000313665
0.0003137
0.000313633
0.000313468
0.000313211
0.000312867
0.000312441
0.000311937
0.00031136
0.000310715
0.000310005
0.000309233
0.000308404
0.000307521
0.000306584
0.000305598
0.000304563
0.00030348
0.00030235
0.000301175
0.000299955
0.00029869
0.00029738
0.000296025
0.000294624
0.000293178
0.000291685
0.000290145
0.000288555
0.000286912
0.000285213
0.000283457
0.000281659
0.000293967
0.000339074
0.000325953
0.000304815
0.000211753
0.000190394
0.000211268
0.000238365
0.000257858
0.00026931
0.000274888
0.00027739
0.00027927
0.000281351
0.000283704
0.000286296
0.000289041
0.000291782
0.000294383
0.000296846
0.000299197
0.000301475
0.000303745
0.000306016
0.000308239
0.000310389
0.000312422
0.000314321
0.000316089
0.000317731
0.000319246
0.000320623
0.000321855
0.000322937
0.000323872
0.000324663
0.000325314
0.000325827
0.000326206
0.000326459
0.00032659
0.000326607
0.000326516
0.000326322
0.000326031
0.000325648
0.000325179
0.000324629
0.000324003
0.000323305
0.00032254
0.000321711
0.000320824
0.00031988
0.000318882
0.000317834
0.000316737
0.000315591
0.0003144
0.000313162
0.000311878
0.00031055
0.000309176
0.000307757
0.000306292
0.000304781
0.000303222
0.000301614
0.000299957
0.000298247
0.000296484
0.000294664
0.000292787
0.000290859
0.000288897
0.000285741
0.000331981
0.000326067
0.000297961
0.000215688
0.000202666
0.000227568
0.00025484
0.000274107
0.000285537
0.000291234
0.000293957
0.000296037
0.000298235
0.000300633
0.000303208
0.000305882
0.000308523
0.000311018
0.00031337
0.000315599
0.00031774
0.000319843
0.000321914
0.000323909
0.000325813
0.000327584
0.000329211
0.000330696
0.000332044
0.000333255
0.000334321
0.000335238
0.000336004
0.000336624
0.000337101
0.00033744
0.000337646
0.000337725
0.000337684
0.00033753
0.00033727
0.00033691
0.000336456
0.000335913
0.000335288
0.000334584
0.000333809
0.000332965
0.000332057
0.000331091
0.000330068
0.000328993
0.000327868
0.000326694
0.000325474
0.000324209
0.000322899
0.000321545
0.000320147
0.000318704
0.000317216
0.000315684
0.000314105
0.000312479
0.000310805
0.000309079
0.000307302
0.000305471
0.000303585
0.00030164
0.000299635
0.000297574
0.000295463
0.000293322
0.00028106
0.000327327
0.00032522
0.000292348
0.000221066
0.000216266
0.000244301
0.000271521
0.000290421
0.000301608
0.000307239
0.000310034
0.000312203
0.000314406
0.000316728
0.000319156
0.000321626
0.000324036
0.0003263
0.00032842
0.000330411
0.000332302
0.000334127
0.000335881
0.000337543
0.000339097
0.000340508
0.000341768
0.000342879
0.000343847
0.000344672
0.000345351
0.000345881
0.000346264
0.000346506
0.000346611
0.000346588
0.00034644
0.000346177
0.000345805
0.000345332
0.000344765
0.00034411
0.000343373
0.00034256
0.000341676
0.000340725
0.000339713
0.000338644
0.000337521
0.000336349
0.00033513
0.000333865
0.000332558
0.000331208
0.000329817
0.000328384
0.00032691
0.000325393
0.000323834
0.000322232
0.000320585
0.000318892
0.000317151
0.000315361
0.000313519
0.000311623
0.00030967
0.00030766
0.000305588
0.000303454
0.000301257
0.000299
0.00029669
0.000294352
0.000281823
0.000326674
0.000324116
0.000287589
0.000227249
0.000230997
0.000261228
0.000288057
0.000306216
0.000316777
0.000322087
0.000324727
0.000326837
0.000328907
0.000331013
0.000333152
0.000335279
0.000337323
0.000339224
0.000340987
0.000342622
0.000344146
0.000345578
0.000346901
0.000348125
0.000349227
0.000350181
0.000350982
0.000351632
0.000352138
0.000352501
0.00035272
0.000352798
0.000352739
0.000352549
0.000352236
0.000351808
0.000351271
0.000350635
0.000349907
0.000349094