/*--------------------------------*- C++ -*----------------------------------*\
| =========                 |                                                 |
| \\      /  F ield         | OpenFOAM: The Open Source CFD Toolbox           |
|  \\    /   O peration     | Version:  2412                                  |
|   \\  /    A nd           | Website:  www.openfoam.com                      |
|    \\/     M anipulation  |                                                 |
\*---------------------------------------------------------------------------*/
FoamFile
{
    version     2.0;
    format      ascii;
    arch        "LSB;label=32;scalar=64";
    class       volScalarField;
    location    "80";
    object      p;
}
// * * * * * * * * * * * * * * * * * * * * * * * * * * * * * * * * * * * * * //

dimensions      [0 2 -2 0 0 0 0];

internalField   nonuniform List<scalar> 
7418
(
164.792
113.45
118.31
130.555
125.352
103.842
76.1266
71.2081
100.481
113.857
119.563
121.35
120.355
117.69
115.111
114.43
114.583
115.333
116.25
116.18
115.19
113.626
111.728
110.038
108.455
106.904
105.204
103.336
101.381
99.4278
97.5026
95.5881
93.6641
91.7377
89.8204
87.9192
86.0322
84.1563
82.2925
80.4436
78.6107
76.794
74.9938
73.2114
71.4486
69.7084
67.9929
66.3046
64.6454
63.0175
61.4224
59.8623
58.3401
56.8582
55.4182
54.0225
52.6737
51.3737
50.1248
48.9265
47.7805
46.6887
45.6547
44.6792
43.761
42.8995
42.0976
41.3574
40.6783
40.0593
39.499
39.0013
38.5809
38.2124
37.8988
37.6503
37.4672
37.3523
37.3016
37.3157
37.3863
105.88
148.603
164.636
113.529
118.352
130.544
125.333
103.875
76.1918
71.2408
100.471
113.847
119.558
121.348
120.355
117.691
115.112
114.431
114.583
115.333
116.249
116.179
115.19
113.626
111.728
110.038
108.455
106.904
105.204
103.336
101.381
99.4278
97.5026
95.5882
93.6641
91.7377
89.8204
87.9193
86.0322
84.1563
82.2926
80.4436
78.6108
76.7941
74.9938
73.2114
71.4486
69.7084
67.993
66.3047
64.6454
63.0175
61.4224
59.8623
58.3401
56.8582
55.4182
54.0225
52.6737
51.3737
50.1248
48.9265
47.7805
46.6887
45.6547
44.6792
43.761
42.8995
42.0976
41.3574
40.6783
40.0593
39.499
39.0013
38.5809
38.2124
37.8988
37.6503
37.4672
37.3522
37.3016
37.3157
37.3862
106.014
148.503
164.446
113.634
118.429
130.525
125.315
103.911
76.282
71.2895
100.46
113.835
119.552
121.344
120.353
117.691
115.113
114.432
114.584
115.332
116.249
116.179
115.19
113.626
111.728
110.038
108.455
106.904
105.204
103.336
101.381
99.4279
97.5026
95.5882
93.6642
91.7378
89.8205
87.9193
86.0323
84.1564
82.2926
80.4437
78.6108
76.7941
74.9939
73.2115
71.4487
69.7085
67.993
66.3047
64.6455
63.0176
61.4225
59.8624
58.3401
56.8583
55.4183
54.0226
52.6738
51.3738
50.1249
48.9266
47.7805
46.6887
45.6548
44.6792
43.761
42.8995
42.0976
41.3574
40.6783
40.0593
39.499
39.0013
38.5809
38.2124
37.8988
37.6503
37.4672
37.3522
37.3015
37.3156
37.3862
106.216
148.423
164.227
113.778
118.544
130.5
125.305
103.96
76.3998
71.3653
100.452
113.822
119.544
121.341
120.352
117.692
115.115
114.433
114.584
115.332
116.248
116.178
115.189
113.626
111.728
110.038
108.455
106.904
105.204
103.336
101.381
99.4279
97.5027
95.5882
93.6642
91.7379
89.8206
87.9194
86.0324
84.1564
82.2927
80.4438
78.6109
76.7942
74.9939
73.2115
71.4488
69.7085
67.9931
66.3048
64.6456
63.0176
61.4225
59.8624
58.3402
56.8583
55.4183
54.0226
52.6738
51.3738
50.1249
48.9266
47.7806
46.6888
45.6548
44.6792
43.761
42.8996
42.0977
41.3574
40.6783
40.0593
39.499
39.0013
38.5809
38.2123
37.8988
37.6503
37.4671
37.3522
37.3015
37.3156
37.3862
106.473
148.367
163.971
113.956
118.722
130.482
125.305
104.038
76.5685
71.4927
100.447
113.806
119.534
121.335
120.35
117.692
115.118
114.435
114.585
115.332
116.248
116.178
115.189
113.626
111.729
110.038
108.455
106.904
105.204
103.336
101.382
99.428
97.5028
95.5883
93.6643
91.738
89.8207
87.9195
86.0325
84.1566
82.2928
80.4439
78.611
76.7943
74.9941
73.2117
71.4489
69.7087
67.9932
66.3049
64.6457
63.0177
61.4226
59.8625
58.3403
56.8584
55.4184
54.0227
52.6739
51.3739
50.125
48.9267
47.7806
46.6888
45.6549
44.6793
43.7611
42.8996
42.0977
41.3574
40.6784
40.0594
39.499
39.0013
38.5809
38.2124
37.8988
37.6503
37.4671
37.3522
37.3015
37.3156
37.3862
106.75
148.265
163.65
114.145
118.996
130.485
125.301
104.137
76.8199
71.7063
100.45
113.785
119.518
121.325
120.346
117.693
115.122
114.439
114.588
115.333
116.247
116.176
115.188
113.625
111.729
110.038
108.456
106.904
105.204
103.336
101.382
99.4282
97.5029
95.5885
93.6645
91.7381
89.8209
87.9197
86.0327
84.1568
82.293
80.4441
78.6112
76.7945
74.9943
73.2119
71.4491
69.7089
67.9934
66.3051
64.6459
63.0179
61.4228
59.8627
58.3405
56.8586
55.4186
54.0228
52.674
51.3741
50.1251
48.9268
47.7808
46.6889
45.655
44.6794
43.7612
42.8997
42.0978
41.3575
40.6785
40.0594
39.4991
39.0014
38.581
38.2124
37.8989
37.6503
37.4672
37.3523
37.3016
37.3157
37.3862
107.042
148.03
163.208
114.327
119.373
130.528
125.276
104.263
77.1947
72.0477
100.462
113.755
119.492
121.31
120.339
117.695
115.13
114.446
114.592
115.335
116.246
116.175
115.187
113.625
111.729
110.039
108.456
106.905
105.204
103.337
101.382
99.4285
97.5032
95.5888
93.6648
91.7384
89.8212
87.92
86.033
84.1571
82.2934
80.4444
78.6116
76.7949
74.9946
73.2122
71.4494
69.7092
67.9937
66.3054
64.6462
63.0182
61.4231
59.863
58.3408
56.8589
55.4188
54.0231
52.6743
51.3743
50.1254
48.9271
47.781
46.6892
45.6552
44.6796
43.7614
42.8999
42.098
41.3577
40.6786
40.0596
39.4993
39.0016
38.5811
38.2126
37.8991
37.6505
37.4674
37.3524
37.3017
37.3158
37.3864
107.366
147.698
162.563
114.476
119.813
130.635
125.256
104.455
77.74
72.5609
100.48
113.71
119.453
121.285
120.329
117.698
115.143
114.457
114.599
115.337
116.244
116.172
115.185
113.625
111.73
110.04
108.457
106.905
105.204
103.337
101.382
99.4289
97.5037
95.5892
93.6653
91.7389
89.8217
87.9205
86.0335
84.1576
82.2939
80.4449
78.6121
76.7954
74.9951
73.2127
71.4499
69.7097
67.9942
66.3059
64.6467
63.0187
61.4236
59.8634
58.3412
56.8593
55.4193
54.0236
52.6747
51.3747
50.1258
48.9275
47.7814
46.6896
45.6556
44.68
43.7618
42.9003
42.0984
41.3581
40.679
40.06
39.4996
39.0019
38.5815
38.213
37.8994
37.6508
37.4677
37.3528
37.3021
37.3162
37.3867
107.694
147.268
161.638
114.536
120.292
130.841
125.271
104.791
78.4613
73.2866
100.496
113.644
119.394
121.249
120.313
117.704
115.162
114.475
114.61
115.341
116.241
116.167
115.182
113.624
111.732
110.042
108.458
106.905
105.205
103.337
101.383
99.4296
97.5044
95.5899
93.6659
91.7396
89.8224
87.9212
86.0342
84.1583
82.2946
80.4457
78.6129
76.7962
74.9959
73.2135
71.4507
69.7104
67.995
66.3066
64.6474
63.0194
61.4243
59.8642
58.3419
56.86
55.42
54.0242
52.6754
51.3754
50.1265
48.9281
47.7821
46.6902
45.6562
44.6806
43.7624
42.9009
42.099
41.3587
40.6796
40.0606
39.5002
39.0025
38.582
38.2135
37.9
37.6514
37.4683
37.3533
37.3026
37.3167
37.3873
107.972
146.647
160.35
114.434
120.809
131.162
125.333
105.364
79.3313
74.2525
100.501
113.556
119.314
121.198
120.293
117.713
115.191
114.5
114.626
115.347
116.236
116.16
115.178
113.623
111.733
110.044
108.459
106.906
105.205
103.338
101.384
99.4306
97.5053
95.5908
93.6668
91.7406
89.8234
87.9223
86.0353
84.1594
82.2957
80.4468
78.614
76.7973
74.997
73.2146
71.4518
69.7115
67.9961
66.3077
64.6485
63.0205
61.4254
59.8652
58.343
56.8611
55.421
54.0253
52.6764
51.3764
50.1274
48.9291
47.783
46.6912
45.6572
44.6815
43.7633
42.9018
42.0999
41.3595
40.6804
40.0614
39.501
39.0033
38.5828
38.2143
37.9008
37.6522
37.4691
37.3541
37.3034
37.3175
37.3881
108.149
145.719
158.641
114.168
121.334
131.551
125.478
106.326
80.3611
75.4673
100.494
113.451
119.214
121.133
120.266
117.725
115.229
114.533
114.646
115.354
116.231
116.151
115.173
113.621
111.736
110.047
108.461
106.906
105.205
103.338
101.385
99.4317
97.5065
95.5919
93.668
91.7418
89.8247
87.9236
86.0367
84.1608
82.2971
80.4483
78.6154
76.7987
74.9985
73.2161
71.4533
69.713
67.9976
66.3092
64.65
63.022
61.4268
59.8667
58.3444
56.8625
55.4224
54.0267
52.6778
51.3778
50.1288
48.9304
47.7843
46.6924
45.6584
44.6828
43.7645
42.903
42.1011
41.3607
40.6816
40.0626
39.5022
39.0044
38.584
38.2155
37.9019
37.6534
37.4702
37.3553
37.3046
37.3187
37.3893
108.22
144.341
156.504
113.746
121.79
131.954
125.73
107.684
81.647
76.9132
100.497
113.335
119.095
121.055
120.234
117.74
115.277
114.574
114.672
115.364
116.223
116.14
115.166
113.619
111.739
110.05
108.463
106.907
105.205
103.339
101.386
99.4332
97.5079
95.5933
93.6694
91.7434
89.8263
87.9253
86.0384
84.1626
82.2989
80.4501
78.6173
76.8006
75.0003
73.218
71.4552
69.715
67.9995
66.3111
64.6519
63.0239
61.4287
59.8685
58.3463
56.8643
55.4242
54.0285
52.6796
51.3795
50.1305
48.9321
47.786
46.6941
45.6601
44.6844
43.7662
42.9046
42.1027
41.3623
40.6832
40.0641
39.5037
39.006
38.5855
38.217
37.9035
37.6549
37.4718
37.3568
37.3062
37.3203
37.3909
108.175
142.499
153.977
113.151
122.102
132.324
126.158
109.265
83.2743
78.5584
100.547
113.218
118.961
120.963
120.195
117.758
115.336
114.626
114.705
115.377
116.215
116.127
115.157
113.617
111.743
110.055
108.466
106.908
105.206
103.34
101.387
99.4349
97.5096
95.5949
93.6711
91.7452
89.8283
87.9273
86.0405
84.1647
82.3011
80.4523
78.6195
76.8029
75.0027
73.2203
71.4576
69.7173
68.0019
66.3135
64.6542
63.0262
61.431
59.8709
58.3486
56.8666
55.4265
54.0307
52.6818
51.3817
50.1327
48.9343
47.7882
46.6962
45.6622
44.6865
43.7682
42.9067
42.1047
41.3643
40.6852
40.0661
39.5057
39.0079
38.5874
38.2189
37.9054
37.6568
37.4737
37.3588
37.3081
37.3223
37.3929
107.98
140.334
151.115
112.326
122.273
132.589
126.916
111.088
85.1721
80.3872
100.669
113.112
118.815
120.858
120.15
117.779
115.405
114.688
114.746
115.394
116.207
116.111
115.147
113.614
111.747
110.06
108.47
106.909
105.206
103.34
101.389
99.437
97.5117
95.5969
93.6732
91.7474
89.8306
87.9298
86.043
84.1673
82.3038
80.455
78.6223
76.8057
75.0055
73.2231
71.4604
69.7202
68.0047
66.3163
64.6571
63.0291
61.4339
59.8737
58.3514
56.8694
55.4292
54.0334
52.6845
51.3844
50.1353
48.9369
47.7908
46.6988
45.6647
44.6891
43.7707
42.9092
42.1072
41.3668
40.6876
40.0685
39.5081
39.0103
38.5898
38.2213
37.9078
37.6593
37.4761
37.3612
37.3106
37.3248
37.3954
107.629
137.895
147.974
111.212
122.35
132.755
127.964
113.116
87.2814
82.3946
100.89
113.02
118.661
120.741
120.098
117.804
115.488
114.762
114.797
115.416
116.199
116.094
115.135
113.611
111.752
110.066
108.474
106.911
105.206
103.342
101.391
99.4395
97.5142
95.5993
93.6757
91.7501
89.8335
87.9327
86.046
84.1703
82.3069
80.4582
78.6255
76.809
75.0088
73.2265
71.4637
69.7235
68.0081
66.3197
64.6604
63.0324
61.4372
59.877
58.3547
56.8727
55.4325
54.0367
52.6878
51.3876
50.1385
48.9401
47.7939
46.7019
45.6679
44.6921
43.7738
42.9122
42.1102
41.3698
40.6906
40.0715
39.511
39.0132
38.5927
38.2242
37.9108
37.6622
37.4791
37.3642
37.3136
37.3279
37.3985
107.134
135.204
144.601
109.806
122.329
132.848
129.197
115.137
89.5977
84.58
101.244
112.939
118.502
120.613
120.041
117.833
115.584
114.851
114.858
115.445
116.191
116.075
115.122
113.607
111.759
110.074
108.479
106.913
105.207
103.343
101.394
99.4426
97.5173
95.6023
93.6788
91.7533
89.8369
87.9362
86.0496
84.174
82.3107
80.462
78.6294
76.8129
75.0127
73.2305
71.4678
69.7276
68.0121
66.3237
64.6645
63.0364
61.4412
59.881
58.3586
56.8766
55.4365
54.0406
52.6916
51.3915
50.1424
48.9439
47.7977
46.7057
45.6716
44.6958
43.7774
42.9159
42.1138
41.3734
40.6942
40.0751
39.5146
39.0167
38.5962
38.2278
37.9144
37.6659
37.4828
37.3679
37.3174
37.3316
37.4023
106.424
132.286
141.057
108.115
122.18
132.672
130.838
116.943
92.1174
86.9411
101.76
112.876
118.344
120.476
119.978
117.869
115.697
114.955
114.932
115.481
116.185
116.055
115.108
113.603
111.766
110.084
108.486
106.916
105.209
103.345
101.397
99.4465
97.5211
95.606
93.6825
91.7573
89.8411
87.9405
86.0539
84.1785
82.3152
80.4666
78.634
76.8176
75.0175
73.2352
71.4725
69.7323
68.0169
66.3285
64.6692
63.0412
61.4459
59.8857
58.3633
56.8813
55.4411
54.0452
52.6962
51.396
50.1469
48.9484
47.8022
46.7102
45.676
44.7002
43.7818
42.9202
42.1182
41.3777
40.6985
40.0794
39.5189
39.021
38.6005
38.2322
37.9187
37.6702
37.4872
37.3724
37.3218
37.3362
37.4069
105.359
129.199
137.432
106.164
121.832
132.093
133.056
118.499
94.8173
89.4702
102.454
112.844
118.198
120.334
119.914
117.912
115.827
115.077
115.021
115.527
116.181
116.034
115.093
113.598
111.776
110.095
108.495
106.92
105.211
103.348
101.401
99.4514
97.526
95.6106
93.6872
91.7622
89.8461
87.9457
86.0592
84.1838
82.3206
80.4721
78.6396
76.8231
75.0231
73.2408
71.4781
69.738
68.0225
66.3342
64.6749
63.0468
61.4516
59.8913
58.3689
56.8868
55.4466
54.0507
52.7017
51.4015
50.1523
48.9538
47.8075
46.7155
45.6813
44.7055
43.7871
42.9254
42.1234
41.3829
40.7037
40.0845
39.524
39.0262
38.6057
38.2374
37.924
37.6755
37.4925
37.3777
37.3273
37.3416
37.4124
103.883
126.073
133.771
104.015
121.085
131.418
135.56
119.929
97.6486
92.1572
103.34
112.85
118.087
120.192
119.85
117.965
115.977
115.219
115.127
115.583
116.18
116.013
115.077
113.595
111.788
110.11
108.506
106.925
105.214
103.352
101.407
99.4575
97.532
95.6163
93.6929
91.7682
89.8523
87.952
86.0655
84.1902
82.3271
80.4787
78.6462
76.8298
75.0297
73.2475
71.4849
69.7447
68.0293
66.3409
64.6816
63.0535
61.4582
59.8979
58.3755
56.8934
55.4532
54.0572
52.7082
51.4079
50.1587
48.9601
47.8139
46.7218
45.6876
44.7118
43.7933
42.9317
42.1296
41.3891
40.7098
40.0907
39.5302
39.0324
38.6119
38.2436
37.9302
37.6818
37.4988
37.3841
37.3337
37.3481
37.419
102.086
123.048
129.993
101.765
119.689
131.073
137.982
121.427
100.559
94.9861
104.439
112.929
118.007
120.058
119.791
118.031
116.148
115.383
115.251
115.651
116.184
115.992
115.061
113.592
111.802
110.127
108.519
106.933
105.218
103.357
101.413
99.4652
97.5395
95.6234
93.7
91.7755
89.8598
87.9596
86.0732
84.1979
82.3349
80.4865
78.6541
76.8377
75.0377
73.2555
71.4928
69.7526
68.0372
66.3488
64.6895
63.0614
61.4661
59.9058
58.3833
56.9012
55.4609
54.065
52.7159
51.4156
50.1663
48.9677
47.8214
46.7293
45.6951
44.7192
43.8007
42.939
42.1369
41.3964
40.7172
40.098
39.5375
39.0397
38.6193
38.2509
37.9375
37.6891
37.5062
37.3915
37.3412
37.3558
37.4267
100.16
120.226
126.372
99.5484
117.646
131.154
139.584
123.019
103.53
97.9321
105.745
113.138
117.955
119.941
119.743
118.114
116.344
115.571
115.396
115.734
116.194
115.973
115.046
113.591
111.82
110.148
108.536
106.943
105.225
103.364
101.422
99.4747
97.5487
95.6322
93.7087
91.7843
89.8689
87.9688
86.0824
84.2071
82.3442
80.4958
78.6634
76.8471
75.0471
73.2649
71.5022
69.7621
68.0466
66.3582
64.6989
63.0707
61.4754
59.915
58.3926
56.9104
55.4701
54.0741
52.725
51.4246
50.1753
48.9766
47.8303
46.7382
45.7039
44.728
43.8094
42.9478
42.1457
41.4051
40.7259
40.1067
39.5462
39.0484
38.6281
98.258
117.735
123.602
97.5599
115.154
131.28
140.226
124.711
106.572
100.986
107.204
113.52
117.961
119.854
119.714
118.218
116.566
115.786
115.564
115.832
116.212
115.958
115.033
113.593
111.843
110.173
108.557
106.955
105.234
103.373
101.433
99.4865
97.5601
95.6429
93.7193
91.7951
89.8799
87.9798
86.0934
84.2182
82.3552
80.507
78.6746
76.8582
75.0582
73.276
71.5134
69.7732
68.0578
66.3693
64.7099
63.0818
61.4864
59.926
58.4035
56.9213
55.4809
54.0849
52.7357
51.4353
50.1859
48.9872
47.8408
46.7487
45.7143
44.7384
43.8198
42.9581
42.156
41.4154
40.7362
40.117
39.5565
39.0588
38.6384
96.5839
115.761
122.197
95.9896
112.743
132.075
140.671
126.461
109.702
104.145
108.798
114.093
118.042
119.812
119.713
118.35
116.816
116.03
115.759
115.95
116.241
115.949
115.024
113.598
111.87
110.204
108.582
106.972
105.245
103.385
101.447
99.5008
97.574
95.656
93.7321
91.8081
89.893
87.9929
86.1064
84.2313
82.3684
80.5201
78.6877
76.8714
75.0714
73.2892
71.5265
69.7863
68.0709
66.3824
64.723
63.0947
61.4993
59.9389
58.4163
56.9341
55.4937
54.0975
52.7483
51.4478
50.1984
48.9996
47.8532
46.761
45.7266
44.7506
43.832
42.9703
42.1681
41.4276
40.7483
40.1291
39.5687
39.071
38.6506
95.3093
114.604
122.462
95.229
111.401
134.469
140.983
128.279
112.919
107.382
110.55
114.848
118.222
119.83
119.753
118.516
117.099
116.305
115.982
116.091
116.283
115.948
115.02
113.609
111.904
110.241
108.613
106.992
105.26
103.4
101.463
99.5182
97.5907
95.6717
93.7475
91.8235
89.9085
88.0084
86.1219
84.2467
82.3838
80.5356
78.7032
76.8869
75.0869
73.3047
71.542
69.8018
68.0862
66.3977
64.7383
63.11
61.5145
59.954
58.4314
56.9491
55.5086
54.1124
52.7631
51.4626
50.2131
49.0143
47.8678
46.7756
45.7411
44.765
43.8464
42.9846
42.1825
41.4419
40.7626
40.1434
39.583
39.0854
38.6649
94.7829
114.735
124.624
96.117
111.9
137.685
141.211
130.147
116.199
110.666
112.469
115.765
118.54
119.931
119.847
118.724
117.417
116.615
116.238
116.259
116.342
115.959
115.024
113.627
111.945
110.286
108.651
107.019
105.28
103.418
101.483
99.5391
97.6107
95.6904
93.7657
91.8418
89.9269
88.0268
86.1401
84.2649
82.402
80.5538
78.7214
76.905
75.105
73.3228
71.5601
69.8198
68.1043
66.4157
64.7562
63.1278
61.5323
59.9717
58.4491
56.9667
55.5261
54.1299
52.7805
51.4799
50.2303
49.0314
47.8849
46.7926
45.7581
44.7819
43.8632
43.0014
42.1993
41.4587
40.7794
40.1602
39.5998
39.1022
38.6818
95.8039
116.679
129.043
99.8631
114.622
141.166
141.876
132.057
119.52
113.969
114.552
116.854
119.018
120.135
120.012
118.985
117.775
116.964
116.528
116.453
116.426
115.986
115.04
113.654
111.995
110.339
108.697
107.051
105.304
103.441
101.508
99.5639
97.6343
95.7126
93.7872
91.8632
89.9484
88.0482
86.1614
84.2861
82.4232
80.575
78.7426
76.9262
75.1261
73.3439
71.5812
69.8409
68.1253
66.4367
64.7771
63.1487
61.5531
59.9925
58.4697
56.9872
55.5466
54.1503
52.8008
51.5002
50.2504
49.0515
47.9049
46.8125
45.778
44.8017
43.8829
43.0211
42.2189
41.4783
40.799
40.1799
39.6195
39.122
38.7015
99.3612
121.16
136.458
107.679
120.634
144.918
143.04
134.087
122.868
117.273
116.788
118.133
119.661
120.463
120.266
119.309
118.18
117.356
116.859
116.679
116.538
116.034
115.071
113.694
112.057
110.402
108.751
107.09
105.334
103.469
101.537
99.5929
97.6619
95.7384
93.8123
91.8881
89.9734
88.073
86.1861
84.3107
82.4478
80.5996
78.7672
76.9508
75.1507
73.3685
71.6057
69.8654
68.1498
66.4611
64.8015
63.173
61.5773
60.0166
58.4938
57.0112
55.5705
54.1741
52.8246
51.5238
50.2739
49.0749
47.9282
46.8358
45.8011
44.8248
43.906
43.0441
42.2419
41.5013
40.8219
40.2028
39.6425
39.1451
38.7246
106.349
129.242
147.959
119.877
130.906
148.564
144.895
136.392
126.241
120.567
119.157
119.601
120.484
120.934
120.627
119.709
118.639
117.796
117.233
116.943
116.682
116.108
115.121
113.749
112.131
110.476
108.814
107.138
105.371
103.502
101.57
99.6264
97.6937
95.7682
93.8411
91.9168
90.002
88.1016
86.2145
84.3391
82.4762
80.628
78.7956
76.9792
75.1792
73.397
71.6342
69.8939
68.1782
66.4895
64.8298
63.2012
61.6054
60.0446
58.5217
57.0391
55.5983
54.2018
52.8521
51.5513
50.3013
49.1021
47.9554
46.8629
45.8282
44.8517
43.9328
43.0709
42.2687
41.528
40.8487
40.2296
39.6693
39.172
38.7514
117.48
141.749
163.645
136.134
143.325
151.942
147.704
139.061
129.649
123.847
121.641
121.251
121.494
121.567
121.113
120.198
119.16
118.29
117.655
117.25
116.865
116.213
115.195
113.823
112.219
110.562
108.889
107.194
105.414
103.541
101.609
99.6643
97.7297
95.802
93.8738
91.9493
90.0346
88.1341
86.247
84.3716
82.5088
80.6607
78.8284
77.012
75.2121
73.4298
71.6671
69.9268
68.2111
66.5223
64.8626
63.2339
61.638
60.0772
58.5542
57.0714
55.6306
54.234
52.8842
51.5832
50.3331
49.1338
47.9869
46.8944
45.8596
44.883
43.964
43.1021
42.2998
41.5591
40.8798
40.2607
39.7005
39.2033
38.7827
132.561
158.243
182.277
154.983
156.875
156.67
151.342
142.096
133.101
127.115
124.217
123.068
122.695
122.373
121.738
120.788
119.752
118.843
118.13
117.605
117.092
116.355
115.296
113.918
112.323
110.662
108.974
107.258
105.465
103.586
101.652
99.7066
97.7696
95.8396
93.9103
91.9857
90.0712
88.1708
86.2837
84.4084
82.5458
80.698
78.8658
77.0496
75.2498
73.4676
71.705
69.9647
68.249
66.5603
64.9005
63.2717
61.6758
60.1148
58.5918
57.1089
55.6679
54.2712
52.9214
51.6202
50.37
49.1706
48.0236
46.931
45.896
44.9194
44.0002
43.1383
42.3359
41.5952
40.9159
40.2968
39.7367
39.2396
38.819
151.218
178.127
202.924
175.149
171.912
162.67
155.439
145.442
136.595
130.371
126.865
125.034
124.078
123.357
122.513
121.489
120.423
119.462
118.661
118.012
117.369
116.539
115.43
114.037
112.444
110.774
109.069
107.331
105.522
103.635
101.699
99.7523
97.813
95.8806
93.9503
92.0258
90.1118
88.2117
86.3249
84.45
82.5878
80.7403
78.9085
77.0925
75.2929
73.511
71.7485
70.0083
68.2927
66.6039
64.9441
63.3153
61.7193
60.1583
58.6352
57.1522
55.7112
54.3144
52.9643
51.6631
50.4127
49.2131
48.066
46.9733
45.9382
44.9614
44.0422
43.1802
42.3778
41.637
40.9577
40.3387
39.7787
39.2817
38.861
172.22
200.844
224.989
196.108
185.904
169.518
159.747
149.035
140.112
133.613
129.563
127.123
125.629
124.514
123.439
122.307
121.18
120.149
119.252
118.475
117.698
116.767
115.6
114.182
112.582
110.899
109.173
107.411
105.583
103.688
101.749
99.8003
97.8587
95.9242
93.9932
92.0692
90.1562
88.2568
86.3706
84.4964
82.6349
80.7881
78.9568
77.1413
75.3421
73.5605
71.7982
70.0582
68.3428
66.6541
64.9944
63.3656
61.7695
60.2085
58.6853
57.2022
55.761
54.3641
53.014
51.7126
50.462
49.2623
48.115
47.0222
45.987
45.0101
44.0907
43.2286
42.4262
41.6854
41.0061
40.3872
39.8272
39.3303
38.9096
192.682
224.377
245.913
215.653
196.337
176.593
164.159
152.782
143.622
136.824
132.286
129.307
127.322
125.83
124.512
123.242
122.027
120.908
119.903
118.993
118.081
117.042
115.805
114.353
112.736
111.033
109.283
107.494
105.646
103.741
101.798
99.8482
97.9049
95.9689
94.0379
92.1152
90.2038
88.3058
86.4208
84.5479
82.6876
80.8418
79.0114
77.1966
75.3981
73.617
71.8551
70.1154
68.4002
66.7117
65.052
63.4233
61.8272
60.2662
58.7429
57.2598
55.8185
54.4215
53.0712
51.7696
50.5188
49.319
48.1716
47.0787
46.0433
45.0662
44.1467
43.2846
42.4821
41.7412
41.0619
40.443
39.8831
39.3864
210.223
244.823
260.99
230.637
203.875
183.307
168.521
156.561
147.077
139.978
135.005
131.551
129.125
127.279
125.714
124.285
122.958
121.735
120.611
119.564
118.513
117.36
116.043
114.545
112.901
111.172
109.393
107.575
105.707
103.79
101.844
99.8927
97.9488
96.0126
94.0829
92.1625
90.2539
88.3583
86.4755
84.6045
82.746
80.9017
79.0727
77.259
75.4614
73.6811
71.9198
70.1806
68.4659
66.7776
65.1181
63.4894
61.8934
60.3324
58.8091
57.3259
55.8846
54.4874
53.137
51.8353
50.5842
49.3842
48.2367
47.1437
46.1081
45.1308
44.2111
43.349
42.5465
41.8056
41.1262
40.5074
39.9476
39.451
223.607
258.884
269.242
240.418
209.392
189.01
172.617
160.218
150.411
143.036
137.684
133.817
130.998
128.828
127.019
125.419
123.962
122.619
121.367
120.178
118.986
117.712
116.306
114.75
113.068
111.306
109.495
107.647
105.757
103.829
101.88
99.9294
97.9868
96.0525
94.1259
92.2098
90.3055
88.4137
86.5342
84.6663
82.8104
80.9685
79.1414
77.3294
75.5331
73.7539
71.9934
70.2549
68.5407
66.8529
65.1936
63.5651
61.9692
60.4082
58.885
57.4017
55.9603
54.5631
53.2125
51.9106
50.6594
49.4592
48.3115
47.2183
46.1826
45.2051
44.2852
43.4229
42.6204
41.8794
41.2001
40.5813
40.0216
39.5253
232.457
266.336
271.225
245.65
213.06
193.342
176.221
163.593
153.545
145.942
140.277
136.063
132.904
130.437
128.395
126.616
125.015
123.541
122.153
120.819
119.484
118.084
116.58
114.955
113.223
111.422
109.576
107.698
105.787
103.849
101.899
99.9526
98.0144
96.0852
94.1646
92.2553
90.3577
88.4717
86.5971
84.7335
82.8814
81.0426
79.2183
77.4084
75.614
73.8362
72.0769
70.3393
68.6259
66.9386
65.2798
63.6515
62.0558
60.4949
58.9717
57.4884
56.047
54.6497
53.2989
51.9969
50.7454
49.545
48.3971
47.3038
46.2679
45.2901
44.3701
43.5077
42.7051
41.9641
41.2848
40.6661
40.1064
39.6104
236.923
268.854
267.132
246.822
214.902
196.246
179.128
166.531
156.391
148.639
142.735
138.241
134.794
132.065
129.801
127.841
126.087
124.471
122.941
121.46
119.98
118.45
116.84
115.136
113.346
111.5
109.619
107.714
105.784
103.84
101.894
99.9558
98.0267
96.1067
94.1959
92.2969
90.4092
88.5315
86.664
84.8065
82.9595
81.125
79.3042
77.4972
75.7051
73.9293
72.1714
70.435
68.7226
67.036
65.3777
63.7498
62.1543
60.5936
59.0705
57.5873
56.1458
54.7484
53.3975
52.0953
50.8435
49.6429
48.4949
47.4014
46.3653
45.3873
44.4671
43.6046
42.8019
42.0609
41.3816
40.763
40.2035
39.7076
237.143
267.293
259.406
244.33
215.061
197.698
181.204
168.908
158.859
151.065
145.011
140.304
136.62
133.661
131.192
129.055
127.141
125.375
123.696
122.065
120.439
118.776
117.054
115.264
113.408
111.515
109.602
107.674
105.734
103.791
101.857
99.9341
98.0207
96.1161
94.2206
92.3369
90.4617
88.5947
86.7358
84.8858
83.0452
81.2158
79.3994
77.5962
75.807
74.0336
72.2776
70.5427
68.8316
67.146
65.4883
63.861
62.2658
60.7054
59.1825
57.6994
56.2579
54.8605
53.5095
52.2071
50.9551
49.7543
48.6061
47.5125
46.4761
45.4979
44.5775
43.7149
42.9122
42.1711
41.4918
40.8732
40.3139
39.8183
233.771
262.104
250.708
238.763
213.632
197.753
182.379
170.632
160.873
153.166
147.062
142.212
138.343
135.188
132.53
130.216
128.137
126.211
124.376
122.589
120.813
119.015
117.181
115.303
113.38
111.445
109.508
107.569
105.628
103.695
101.782
99.8837
97.9936
96.1108
94.2358
92.3721
90.514
88.6609
86.8132
84.973
83.1405
81.3171
79.5061
77.7072
75.9214
74.1508
72.3969
70.6638
68.9541
67.2696
65.6128
63.9861
62.3914
60.8314
59.3088
57.8258
56.3844
54.987
53.636
52.3335
51.0813
49.8803
48.7319
47.6382
46.6016
45.6231
44.7025
43.8398
43.037
42.2958
41.6165
40.9982
40.439
39.9434
228.08
254.203
241.222
231.206
210.776
196.536
182.621
171.646
162.371
154.891
148.844
143.932
139.932
136.614
133.784
131.299
129.048
126.953
124.952
123.004
121.069
119.132
117.184
115.219
113.232
111.258
109.313
107.38
105.46
103.557
101.678
99.8126
97.9501
96.095
94.2471
92.4079
90.5698
88.7325
86.8979
85.0695
83.2463
81.4303
79.6253
77.8308
76.0485
74.281
72.5299
70.7989
69.0908
67.4077
65.7519
64.1261
62.5321
60.9727
59.4505
57.9678
56.5266
55.1294
53.7784
52.4758
51.2235
50.0224
48.8738
47.78
46.7432
45.7644
44.8435
43.9807
43.1778
42.4366
41.7574
41.1392
40.5801
40.0845
220.983
244.29
230.891
222.647
206.698
194.216
181.945
171.928
163.313
156.206
150.329
145.444
141.375
137.931
134.943
132.285
129.851
127.56
125.376
123.241
121.138
119.073
117.033
115.003
112.991
111.013
109.065
107.152
105.27
103.404
101.567
99.7376
97.9093
96.0911
94.2709
92.4512
90.6332
88.8128
86.9917
85.1746
83.361
81.5525
79.7537
77.9646
76.1866
74.4231
72.6756
70.9474
69.2417
67.5605
65.9062
64.2817
62.6889
61.1303
59.6088
58.1267
56.6859
55.2889
53.9381
52.6356
51.3832
50.182
49.0333
47.9394
46.9025
45.9234
45.0023
44.1394
43.3364
42.5951
41.916
41.2981
40.739
40.2434
213.251
232.916
220.379
213.677
201.63
190.959
180.402
171.482
163.677
157.074
151.476
146.704
142.628
139.092
135.959
133.12
130.483
128
125.652
123.369
121.142
118.974
116.845
114.764
112.729
110.756
108.829
106.944
105.102
103.276
101.472
99.6779
97.881
96.0891
94.2947
92.494
90.6954
88.8931
87.0873
85.2831
83.4809
81.682
79.8911
78.1087
76.3365
74.5778
72.8347
71.1102
69.4075
67.7289
66.0768
64.454
62.8627
61.3055
59.7851
58.3037
56.8636
55.4671
54.1167
52.8144
51.5621
50.3608
49.2122
48.1183
47.0813
46.102
45.1808
44.3178
43.5148
42.7736
42.0947
41.4769
40.918
40.4223
205.291
221.34
210.336
204.71
195.877
186.94
178.078
170.339
163.45
157.452
152.213
147.632
143.596
139.989
136.752
133.787
131.018
128.385
125.858
123.44
121.104
118.848
116.666
114.556
112.515
110.546
108.637
106.775
104.956
103.159
101.382
99.6139
97.8457
96.0789
94.3087
92.5325
90.7537
88.97
87.1819
85.3927
83.6035
81.8167
80.0353
78.2611
76.4964
74.744
73.0065
71.2869
69.5883
67.9131
66.2641
64.6439
63.0547
61.4993
59.9805
58.5004
57.0613
55.6657
54.3159
53.014
51.762
50.561
49.4126
48.3188
47.2818
46.3025
45.3811
44.5182
43.7153
42.9742
42.2956
41.6783
41.1195
40.6238
197.225
210.83
200.924
196.104
189.722
182.346
175.089
168.551
162.611
157.258
152.405
148.009
144.111
140.592
137.314
134.217
131.307
128.551
125.923
123.423
121.022
118.718
116.505
114.375
112.333
110.365
108.461
106.613
104.807
103.031
101.277
99.5322
97.7924
96.052
94.3069
92.5565
90.8004
89.0377
87.2701
85.4986
83.7252
81.9529
80.1838
78.4202
76.665
74.9208
73.1906
71.4773
69.7842
68.1137
66.4688
64.852
63.2659
61.7131
60.1965
58.7182
57.2807
55.8864
54.5376
53.2366
51.9852
50.7847
49.6367
48.5433
47.5064
46.5272
45.606
44.7432
43.9405
43.1996
42.5215
41.9047
41.3462
40.8504
189.849
201.217
192.097
187.89
183.342
177.346
171.563
166.183
161.147
156.368
151.934
147.9
144.166
140.661
137.343
134.219
131.266
128.461
125.794
123.252
120.824
118.501
116.276
114.147
112.106
110.145
108.251
106.415
104.624
102.868
101.136
99.4174
97.706
95.9951
94.279
92.5567
90.827
89.0893
87.3451
85.595
83.841
82.0862
80.3326
78.5828
76.8397
75.1061
73.3853
71.6805
69.9945
68.3304
66.691
65.0789
63.497
61.9479
60.4343
58.9587
57.5235
56.1311
54.7839
53.4842
52.2338
51.0341
49.8869
48.7942
47.7577
46.7788
45.8579
44.9956
44.1932
43.4528
42.7752
42.1592
41.6011
41.1051
183.126
191.968
183.776
180.001
176.856
172.088
167.641
163.318
159.062
154.875
150.915
147.16
143.568
140.141
136.885
133.798
130.856
128.053
125.387
122.847
120.424
118.109
115.897
113.785
111.765
109.823
107.952
106.139
104.372
102.642
100.937
99.2491
97.5694
95.8917
94.2099
92.5204
90.8218
89.1137
87.3973
85.6732
83.9433
82.2101
80.4761
78.744
77.0167
75.297
73.5884
71.8945
70.2181
68.5624
66.9304
65.3248
63.7485
62.2044
60.6951
59.2232
57.7913
56.4016
55.0568
53.759
52.5101
51.3119
50.1659
49.0741
48.0385
47.0602
46.1399
45.2782
44.4765
43.7367
43.06
42.445
41.8874
41.3914
176.086
183.117
175.784
172.395
170.359
166.698
163.452
160.029
156.448
152.816
149.255
145.754
142.358
139.078
135.924
132.907
130.023
127.267
124.642
122.141
119.757
117.481
115.306
113.233
111.25
109.346
107.513
105.738
104.01
102.317
100.65
98.9998
97.3589
95.7206
94.0792
92.4297
90.7692
89.0972
87.4145
85.7222
84.0219
82.3159
80.6066
78.897
77.1901
75.4886
73.7961
72.1164
70.4526
68.8081
67.186
65.5891
64.0205
62.4831
60.9796
59.5128
58.0853
56.6995
55.358
54.063
52.8165
51.6203
50.4761
49.3859
48.3516
47.3744
46.4551
45.5944
44.7936
44.0547
43.3793
42.7656
42.2088
41.7128
168.918
174.471
167.995
165.054
163.936
161.258
159.031
156.356
153.339
150.173
146.96
143.741
140.573
137.474
134.465
131.561