/*--------------------------------*- C++ -*----------------------------------*\
| =========                 |                                                 |
| \\      /  F ield         | OpenFOAM: The Open Source CFD Toolbox           |
|  \\    /   O peration     | Version:  2412                                  |
|   \\  /    A nd           | Website:  www.openfoam.com                      |
|    \\/     M anipulation  |                                                 |
\*---------------------------------------------------------------------------*/
FoamFile
{
    version     2.0;
    format      ascii;
    arch        "LSB;label=32;scalar=64";
    class       surfaceScalarField;
    location    "80";
    object      phi;
}
// * * * * * * * * * * * * * * * * * * * * * * * * * * * * * * * * * * * * * //

dimensions      [0 3 -1 0 0 0 0];

oriented        oriented;

internalField   nonuniform List<scalar> 
17125
(
-6.45938e-06
-1.98412e-07
-6.17876e-06
-2.80625e-07
-5.7577e-06
-4.21052e-07
-5.08116e-06
-6.76558e-07
-3.96603e-06
-1.11505e-06
-2.2144e-06
-1.75174e-06
2.49281e-07
-2.46416e-06
2.97792e-06
-2.72819e-06
5.05189e-06
-2.07471e-06
6.23385e-06
-1.18125e-06
6.70326e-06
-4.69401e-07
6.78362e-06
-8.03658e-08
6.87292e-06
-8.93693e-08
7.03499e-06
-1.61989e-07
7.18335e-06
-1.48432e-07
7.30239e-06
-1.18979e-07
7.39558e-06
-9.32215e-08
7.46728e-06
-7.16682e-08
7.52134e-06
-5.41196e-08
7.56184e-06
-4.04321e-08
7.59186e-06
-3.00178e-08
7.6136e-06
-2.17527e-08
7.62897e-06
-1.53783e-08
7.63923e-06
-1.02391e-08
7.64535e-06
-6.1094e-09
7.64795e-06
-2.60753e-09
7.64761e-06
3.48182e-10
7.64593e-06
1.71363e-09
7.64395e-06
1.99677e-09
7.64175e-06
2.23152e-09
7.6383e-06
3.46069e-09
7.63235e-06
5.98264e-09
7.62564e-06
6.7359e-09
7.61835e-06
7.34241e-09
7.61085e-06
7.5201e-09
7.60353e-06
7.28215e-09
7.59584e-06
7.83233e-09
7.58792e-06
7.90765e-09
7.5803e-06
7.68406e-09
7.5723e-06
7.96951e-09
7.56442e-06
7.97323e-09
7.55638e-06
8.00982e-09
7.54865e-06
7.81112e-09
7.54085e-06
7.79078e-09
7.53307e-06
7.87171e-09
7.52529e-06
7.77911e-09
7.5176e-06
7.74482e-09
7.51003e-06
7.53554e-09
7.50267e-06
7.48565e-09
7.49535e-06
7.29483e-09
7.48833e-06
7.09271e-09
7.48133e-06
6.954e-09
7.47431e-06
7.15076e-09
7.46763e-06
6.64664e-09
7.46092e-06
6.7926e-09
7.45437e-06
6.4917e-09
7.44817e-06
6.33871e-09
7.44186e-06
6.28047e-09
7.4357e-06
6.23899e-09
7.42973e-06
5.91764e-09
7.42384e-06
5.98173e-09
7.41827e-06
5.4883e-09
7.41302e-06
5.39943e-09
7.40777e-06
5.19689e-09
7.40257e-06
5.41711e-09
7.39755e-06
5.07226e-09
7.39269e-06
4.9349e-09
7.38793e-06
4.74514e-09
7.38348e-06
4.57333e-09
7.37889e-06
4.55105e-09
7.37465e-06
4.35392e-09
7.3707e-06
3.91817e-09
7.36643e-06
4.39995e-09
7.36266e-06
3.69288e-09
7.35897e-06
3.80745e-09
7.35525e-06
3.65652e-09
7.35181e-06
3.59739e-09
7.34843e-06
3.28353e-09
7.34503e-06
3.56346e-09
7.34193e-06
3.04249e-09
7.33873e-06
3.38843e-09
7.33568e-06
2.94856e-09
7.33278e-06
3.07645e-09
7.32988e-06
2.85538e-09
7.3269e-06
3.16897e-09
3.20413e-09
-2.22599e-05
-8.92677e-07
-2.12804e-05
-1.26011e-06
-1.98182e-05
-1.8833e-06
-1.74818e-05
-3.013e-06
-1.366e-05
-4.93673e-06
-7.70598e-06
-7.7059e-06
6.2398e-07
-1.07947e-05
9.86623e-06
-1.19699e-05
1.6995e-05
-9.20449e-06
2.12009e-05
-5.3862e-06
2.29922e-05
-2.26069e-06
2.3411e-05
-4.99111e-07
2.37692e-05
-4.47686e-07
2.43331e-05
-7.25804e-07
2.48426e-05
-6.58037e-07
2.52517e-05
-5.27932e-07
2.5572e-05
-4.13587e-07
2.58191e-05
-3.1871e-07
2.60065e-05
-2.41616e-07
2.61471e-05
-1.81e-07
2.62509e-05
-1.3378e-07
2.63275e-05
-9.83221e-08
2.6381e-05
-6.89497e-08
2.64182e-05
-4.73668e-08
2.64412e-05
-2.91113e-08
2.64522e-05
-1.36754e-08
2.64529e-05
-2.50756e-10
2.64482e-05
6.43959e-09
2.64439e-05
6.34362e-09
2.64387e-05
7.44587e-09
2.64264e-05
1.57227e-08
2.64072e-05
2.53089e-08
2.63839e-05
3.00377e-08
2.63598e-05
3.15066e-08
2.63351e-05
3.22281e-08
2.63096e-05
3.28054e-08
2.62841e-05
3.34697e-08
2.62583e-05
3.37248e-08
2.62318e-05
3.42568e-08
2.62058e-05
3.38938e-08
2.61791e-05
3.48037e-08
2.6153e-05
3.40954e-08
2.61264e-05
3.45225e-08
2.61001e-05
3.40794e-08
2.60739e-05
3.41963e-08
2.60483e-05
3.33753e-08
2.60229e-05
3.32711e-08
2.59973e-05
3.30539e-08
2.59722e-05
3.28244e-08
2.59479e-05
3.15145e-08
2.59236e-05
3.15293e-08
2.58998e-05
3.07054e-08
2.58769e-05
3.01639e-08
2.58536e-05
2.99434e-08
2.58311e-05
2.94409e-08
2.58094e-05
2.80756e-08
2.5788e-05
2.79502e-08
2.57667e-05
2.7474e-08
2.57462e-05
2.69052e-08
2.5726e-05
2.60169e-08
2.57067e-05
2.53847e-08
2.56876e-05
2.45221e-08
2.56693e-05
2.38765e-08
2.56516e-05
2.29151e-08
2.56348e-05
2.24139e-08
2.56172e-05
2.27549e-08
2.56004e-05
2.18538e-08
2.55855e-05
1.96644e-08
2.55689e-05
2.13004e-08
2.55544e-05
1.90489e-08
2.554e-05
1.89024e-08
2.55255e-05
1.84354e-08
2.55125e-05
1.75349e-08
2.5499e-05
1.7127e-08
2.54865e-05
1.64286e-08
2.5474e-05
1.60826e-08
2.5462e-05
1.57693e-08
2.54502e-05
1.50249e-08
2.54392e-05
1.47635e-08
2.54282e-05
1.39911e-08
2.54177e-05
1.41389e-08
2.54079e-05
1.25708e-08
2.53979e-05
1.32792e-08
2.5388e-05
1.27563e-08
2.53786e-05
1.28698e-08
1.48622e-08
-4.2981e-05
-2.25273e-06
-4.10629e-05
-3.17819e-06
-3.82041e-05
-4.74208e-06
-3.36502e-05
-7.5669e-06
-2.62471e-05
-1.23398e-05
-1.48022e-05
-1.91509e-05
1.12486e-06
-2.67225e-05
1.87853e-05
-2.96297e-05
3.25075e-05
-2.29277e-05
4.0748e-05
-1.36258e-05
4.43685e-05
-5.88112e-06
4.52931e-05
-1.42378e-06
4.60035e-05
-1.15811e-06
4.70773e-05
-1.79959e-06
4.80528e-05
-1.63355e-06
4.88398e-05
-1.31488e-06
4.94594e-05
-1.03326e-06
4.99416e-05
-8.00797e-07
5.03084e-05
-6.08536e-07
5.05862e-05
-4.58665e-07
5.07944e-05
-3.42071e-07
5.09473e-05
-2.51149e-07
5.10591e-05
-1.80852e-07
5.11359e-05
-1.24108e-07
5.11859e-05
-7.91088e-08
5.12134e-05
-4.11413e-08
5.12207e-05
-7.60223e-09
5.12179e-05
9.33068e-09
5.12133e-05
1.10232e-08
5.12055e-05
1.52414e-08
5.1187e-05
3.42436e-08
5.11523e-05
6.00814e-08
5.11113e-05
7.10203e-08
5.10666e-05
7.63313e-08
5.10199e-05
7.89967e-08
5.09741e-05
7.85093e-08
5.09268e-05
8.09406e-08
5.0878e-05
8.25518e-08
5.08293e-05
8.30365e-08
5.07807e-05
8.24931e-08
5.07324e-05
8.31859e-08
5.06825e-05
8.40029e-08
5.06338e-05
8.33538e-08
5.05854e-05
8.24307e-08
5.05366e-05
8.31446e-08
5.04881e-05
8.1907e-08
5.04394e-05
8.20218e-08
5.03928e-05
7.961e-08
5.03469e-05
7.89309e-08
5.03001e-05
7.8314e-08
5.02551e-05
7.65851e-08
5.02111e-05
7.46828e-08
5.0167e-05
7.44036e-08
5.01245e-05
7.24023e-08
5.00822e-05
7.18553e-08
5.00411e-05
6.91524e-08
5.00006e-05
6.86001e-08
4.99607e-05
6.74082e-08
4.9922e-05
6.56611e-08
4.98842e-05
6.374e-08
4.98468e-05
6.2942e-08
4.98121e-05
5.90888e-08
4.97779e-05
5.83216e-08
4.97446e-05
5.61894e-08
4.97119e-05
5.53202e-08
4.96798e-05
5.50347e-08
4.96486e-05
5.31399e-08
4.96182e-05
5.0031e-08
4.95899e-05
4.97829e-08
4.95613e-05
4.76471e-08
4.9534e-05
4.63363e-08
4.95078e-05
4.45434e-08
4.94811e-05
4.44395e-08
4.94564e-05
4.1707e-08
4.94319e-05
4.11209e-08
4.94098e-05
3.81485e-08
4.93865e-05
3.92553e-08
4.93646e-05
3.67612e-08
4.93442e-05
3.54566e-08
4.93239e-05
3.42438e-08
4.93038e-05
3.44767e-08
4.92835e-05
3.27277e-08
4.92659e-05
3.11273e-08
4.92472e-05
3.14129e-08
4.92282e-05
3.21255e-08
3.60545e-08
-6.89944e-05
-4.47306e-06
-6.58586e-05
-6.31404e-06
-6.11828e-05
-9.41792e-06
-5.37404e-05
-1.50092e-05
-4.17084e-05
-2.43717e-05
-2.32649e-05
-3.75946e-05
2.23544e-06
-5.22234e-05
3.04172e-05
-5.78109e-05
5.23551e-05
-4.48665e-05
6.56154e-05
-2.68851e-05
7.14759e-05
-1.17416e-05
7.29464e-05
-2.89431e-06
7.39905e-05
-2.20223e-06
7.56344e-05
-3.44341e-06
7.71676e-05
-3.16684e-06
7.84226e-05
-2.56982e-06
7.94227e-05
-2.03336e-06
8.02081e-05
-1.58617e-06
8.08131e-05
-1.21358e-06
8.12767e-05
-9.22268e-07
8.16288e-05
-6.94144e-07
8.18923e-05
-5.1462e-07
8.20849e-05
-3.73514e-07
8.2225e-05
-2.64205e-07
8.23207e-05
-1.74716e-07
8.23758e-05
-9.63173e-08
8.24021e-05
-3.38305e-08
8.24089e-05
2.58463e-09
8.24132e-05
6.78129e-09
8.24107e-05
1.77576e-08
8.23855e-05
5.94854e-08
8.23374e-05
1.0824e-07
8.22744e-05
1.34055e-07
8.22073e-05
1.43538e-07
8.21367e-05
1.49626e-07
8.20656e-05
1.4961e-07
8.19947e-05
1.52045e-07
8.19212e-05
1.56055e-07
8.18472e-05
1.57073e-07
8.17727e-05
1.56951e-07
8.16967e-05
1.59379e-07
8.16213e-05
1.59342e-07
8.15465e-05
1.58266e-07
8.14707e-05
1.58234e-07
8.13968e-05
1.57224e-07
8.1322e-05
1.56735e-07
8.12487e-05
1.55376e-07
8.11754e-05
1.52935e-07
8.11032e-05
1.51287e-07
8.10322e-05
1.49277e-07
8.09622e-05
1.46654e-07
8.08936e-05
1.43306e-07
8.08255e-05
1.42624e-07
8.07579e-05
1.3995e-07
8.06925e-05
1.37385e-07
8.06286e-05
1.33052e-07
8.05669e-05
1.30465e-07
8.05047e-05
1.29548e-07
8.04438e-05
1.26745e-07
8.03853e-05
1.22132e-07
8.03296e-05
1.18769e-07
8.02735e-05
1.15118e-07
8.022e-05
1.12007e-07
8.01674e-05
1.08826e-07
8.01167e-05
1.0629e-07
8.00676e-05
1.04199e-07
8.00186e-05
1.02341e-07
7.99712e-05
9.74078e-08
7.9926e-05
9.51433e-08
7.98817e-05
9.18899e-08
7.98396e-05
8.85911e-08
7.97983e-05
8.58555e-08
7.97583e-05
8.46289e-08
7.97195e-05
8.04201e-08
7.9682e-05
7.88178e-08
7.9646e-05
7.40554e-08
7.96089e-05
7.65656e-08
7.95749e-05
7.06643e-08
7.95418e-05
6.87766e-08
7.95101e-05
6.58762e-08
7.94793e-05
6.56074e-08
7.94493e-05
6.25853e-08
7.94184e-05
6.22542e-08
7.93897e-05
6.01068e-08
7.93616e-05
6.04866e-08
7.24246e-08
-0.000100503
-7.77273e-06
-9.58269e-05
-1.09902e-05
-8.88306e-05
-1.64143e-05
-7.76883e-05
-2.61515e-05
-5.97819e-05
-4.22781e-05
-3.25985e-05
-6.47781e-05
4.68457e-06
-8.9507e-05
4.56369e-05
-9.87627e-05
7.74283e-05
-7.66588e-05
9.66069e-05
-4.60629e-05
0.000104955
-2.00899e-05
0.000106812
-4.75066e-06
0.000107995
-3.38615e-06
0.000110178
-5.62623e-06
0.000112329
-5.31765e-06
0.000114131
-4.37186e-06
0.000115593
-3.49574e-06
0.00011676
-2.75231e-06
0.000117675
-2.12852e-06
0.000118386
-1.63374e-06
0.000118933
-1.24098e-06
0.000119349
-9.30638e-07
0.000119664
-6.88472e-07
0.000119895
-4.95647e-07
0.00012006
-3.38967e-07
0.000120169
-2.05717e-07
0.00012023
-9.44476e-08
0.000120264
-3.13228e-08
0.000120287
-1.68094e-08
0.0001203
4.52822e-09
0.000120281
7.87965e-08
0.000120222
1.6795e-07
0.000120135
2.20743e-07
0.000120043
2.35749e-07
0.000119948
2.44264e-07
0.000119851
2.46634e-07
0.000119752
2.51334e-07
0.000119651
2.56876e-07
0.000119548
2.60216e-07
0.000119445
2.59988e-07
0.000119343
2.61394e-07
0.000119238
2.64956e-07
0.000119132
2.63778e-07
0.000119029
2.61157e-07
0.000118925
2.61636e-07
0.000118822
2.59641e-07
0.000118718
2.59871e-07
0.000118617
2.53923e-07
0.000118517
2.51096e-07
0.000118417
2.48944e-07
0.00011832
2.44218e-07
0.000118223
2.40311e-07
0.000118129
2.36766e-07
0.000118036
2.33358e-07
0.000117943
2.29965e-07
0.000117853
2.22778e-07
0.000117765
2.19213e-07
0.000117679
2.15679e-07
0.000117594
2.11165e-07
0.000117512
2.04856e-07
0.000117429
2.01058e-07
0.000117353
1.9127e-07
0.000117278
1.87618e-07
0.000117205
1.81281e-07
0.000117134
1.78104e-07
0.000117064
1.74084e-07
0.000116995
1.71471e-07
0.00011693
1.62825e-07
0.000116865
1.59968e-07
0.000116802
1.54732e-07
0.000116742
1.48819e-07
0.000116684
1.44077e-07
0.000116626
1.42477e-07
0.000116571
1.34924e-07
0.000116518
1.32053e-07
0.000116466
1.26415e-07
0.000116419
1.23995e-07
0.00011637
1.19593e-07
0.000116323
1.15794e-07
0.000116276
1.12624e-07
0.000116232
1.10088e-07
0.000116188
1.06835e-07
0.000116148
1.01924e-07
0.000116106
1.0204e-07
0.000116065
1.01794e-07
1.23864e-07
-0.00013755
-1.24042e-05
-0.000130947
-1.7593e-05
-0.00012102
-2.63408e-05
-0.000105189
-4.19835e-05
-7.992e-05
-6.75465e-05
-4.20024e-05
-0.000102696
9.49047e-06
-0.000141
6.55456e-05
-0.000154817
0.000108779
-0.000119893
0.000134639
-7.19228e-05
0.00014551
-3.09604e-05
0.00014732
-6.56114e-06
0.000148199
-4.26527e-06
0.000150731
-8.15726e-06
0.000153486
-8.073e-06
0.000155891
-6.77672e-06
0.000157891
-5.49619e-06
0.000159525
-4.38576e-06
0.00016083
-3.43414e-06
0.000161864
-2.66782e-06
0.000162676
-2.0523e-06
0.000163304
-1.55908e-06
0.000163787
-1.17105e-06
0.000164152
-8.6044e-07
0.000164426
-6.12954e-07
0.000164617
-3.971e-07
0.000164743
-2.20118e-07
0.000164825
-1.13622e-07
0.000164891
-8.29936e-08
0.000164934
-3.85897e-08
0.000164929
8.39291e-08
0.000164866
2.3115e-07
0.000164766
3.2077e-07
0.00016465
3.51875e-07
0.000164527
3.67597e-07
0.000164403
3.70122e-07
0.000164277
3.77851e-07
0.000164147
3.8686e-07
0.000164016
3.91348e-07
0.000163883
3.92893e-07
0.000163749
3.9562e-07
0.000163616
3.98363e-07
0.00016348
3.9926e-07
0.000163347
3.94292e-07
0.000163212
3.97115e-07
0.000163077
3.94847e-07
0.000162944
3.92697e-07
0.000162813
3.85064e-07
0.00016268
3.83682e-07
0.000162552
3.77201e-07
0.000162422
3.74321e-07
0.000162298
3.63983e-07
0.000162174
3.61568e-07
0.00016205
3.57003e-07
0.000161931
3.49743e-07
0.000161813
3.40267e-07
0.000161697
3.35346e-07
0.000161583
3.29341e-07
0.000161472
3.22948e-07
0.000161363
3.13291e-07
0.000161259
3.05553e-07
0.000161154
2.95831e-07
0.000161055
2.86735e-07
0.000160959
2.77243e-07
0.000160867
2.71261e-07
0.000160773
2.67481e-07
0.000160683
2.61485e-07
0.000160597
2.49751e-07
0.000160512
2.44538e-07
0.000160429
2.38101e-07
0.00016035
2.27712e-07
0.000160272
2.21765e-07
0.000160198
2.16991e-07
0.000160124
2.09194e-07
0.000160054
2.01859e-07
0.000159986
1.9423e-07
0.000159919
1.91509e-07
0.000159854
1.84611e-07
0.000159793
1.76537e-07
0.000159735
1.71195e-07
0.000159674
1.71081e-07
0.000159618
1.63143e-07
0.000159563
1.5684e-07
0.000159506
1.59012e-07
0.000159452
1.55815e-07
1.95658e-07
-0.000180044
-1.86758e-05
-0.000171042
-2.65952e-05
-0.00015742
-3.99623e-05
-0.000135667
-6.37367e-05
-0.00010126
-0.000101954
-5.0334e-05
-0.000153622
1.79818e-05
-0.000209317
9.14809e-05
-0.000228316
0.000147644
-0.000176057
0.000180808
-0.000105085
0.00019401
-4.41631e-05
0.00019503
-7.58022e-06
0.000194808
-4.04425e-06
0.000197254
-1.06026e-05
0.000200474
-1.12936e-05
0.000203479
-9.7817e-06
0.000206078
-8.09491e-06
0.000208259
-6.56695e-06
0.000210049
-5.22352e-06
0.000211499
-4.1179e-06
0.000212657
-3.21003e-06
0.000213575
-2.47702e-06
0.000214293
-1.88948e-06
0.000214854
-1.42133e-06
0.000215282
-1.04093e-06
0.000215605
-7.20132e-07
0.000215832
-4.47475e-07
0.000216003
-2.84382e-07
0.000216141
-2.20498e-07
0.000216242
-1.39999e-07
0.000216274
5.23795e-08
0.000216218
2.86565e-07
0.000216111
4.28517e-07
0.000215973
4.89547e-07
0.000215826
5.15044e-07
0.000215672
5.23723e-07
0.000215517
5.3296e-07
0.000215359
5.44641e-07
0.000215201
5.50029e-07
0.000215039
5.54532e-07
0.000214878
5.57003e-07
0.000214713
5.63285e-07
0.000214548
5.64176e-07
0.000214381
5.61849e-07
0.000214215
5.62602e-07
0.000214051
5.5981e-07
0.000213884
5.59663e-07
0.00021372
5.49028e-07
0.00021356
5.43904e-07
0.000213399
5.37801e-07
0.00021324
5.33043e-07
0.000213083
5.21298e-07
0.000212929
5.15773e-07
0.000212777
5.08973e-07
0.000212625
5.01885e-07
0.000212477
4.88154e-07
0.000212334
4.78489e-07
0.000212192
4.72047e-07
0.000212053
4.617e-07
0.000211916
4.50064e-07
0.000211783
4.38633e-07
0.000211656
4.23225e-07
0.000211531
4.11269e-07
0.00021141
3.98863e-07
0.000211294
3.87185e-07
0.000211177
3.8502e-07
0.000211064
3.74697e-07
0.000210953
3.60633e-07
0.000210846
3.51115e-07
0.000210744
3.402e-07
0.000210643
3.29206e-07
0.000210548
3.17187e-07
0.000210452
3.12981e-07
0.000210361
2.99509e-07
0.000210273
2.90419e-07
0.000210189
2.78468e-07
0.000210102
2.77927e-07
0.000210023
2.63729e-07
0.000209942
2.57661e-07
0.000209868
2.45735e-07
0.000209793
2.46561e-07
0.000209718
2.37549e-07
0.000209649
2.26362e-07
0.000209581
2.26748e-07
0.000209511
2.2664e-07
2.87817e-07
-0.00022781
-2.69788e-05
-0.000215796
-3.86096e-05
-0.00019748
-5.82787e-05
-0.00016826
-9.29559e-05
-0.000122589
-0.000147626
-5.60977e-05
-0.000220113
3.17749e-05
-0.00029719
0.000124982
-0.000321522
0.000195449
-0.000246526
0.000236442
-0.000146078
0.000251611
-5.93318e-05
0.000250764
-6.73259e-06
0.000248222
-1.50246e-06
0.000249779
-1.21599e-05
0.000253124
-1.46384e-05
0.000256624
-1.32815e-05
0.00025983
-1.13017e-05
0.000262631
-9.36782e-06
0.000265002
-7.59463e-06
0.000266977
-6.09251e-06
0.000268593
-4.82553e-06
0.000269895
-3.77924e-06
0.000270939
-2.93346e-06
0.000271767
-2.24932e-06
0.000272426
-1.70042e-06
0.000272935
-1.22903e-06
0.000273324
-8.36636e-07
0.000273629
-5.88795e-07
0.000273883
-4.74614e-07
0.000274082
-3.38914e-07
0.000274183
-4.8323e-08
0.000274165
3.04603e-07
0.000274056
5.37315e-07
0.000273908
6.37533e-07
0.000273736
6.87699e-07
0.000273558
7.01737e-07
0.000273379
7.12164e-07
0.000273195
7.28498e-07
0.000273005
7.39544e-07
0.000272817
7.4347e-07
0.000272627
7.46861e-07
0.000272434
7.56442e-07
0.000272239
7.58514e-07
0.000272045
7.5623e-07
0.00027185
7.58083e-07
0.000271652
7.57201e-07
0.000271457
7.55068e-07
0.000271265
7.40896e-07
0.000271071
7.38355e-07
0.000270878
7.30747e-07
0.000270691
7.20439e-07
0.000270503
7.08955e-07
0.00027032
6.99071e-07
0.000270137
6.92504e-07
0.000269956
6.82505e-07
0.00026978
6.63955e-07
0.000269606
6.53148e-07
0.000269435
6.42947e-07
0.000269265
6.31667e-07
0.000269103
6.12345e-07
0.000268943
5.98898e-07
0.000268789
5.76782e-07
0.000268638
5.62665e-07
0.000268492
5.44334e-07
0.000268349
5.30721e-07
0.000268211
5.23082e-07
0.000268073
5.1352e-07
0.000267941
4.92136e-07
0.000267811
4.81878e-07
0.000267686
4.6516e-07
0.000267565
4.50476e-07
0.000267448
4.34143e-07
0.000267331
4.296e-07
0.000267217
4.13377e-07
0.000267111
3.96572e-07
0.000267006
3.84019e-07
0.000266906
3.77835e-07
0.000266805
3.64975e-07
0.000266714
3.48899e-07
0.000266618
3.41525e-07
0.000266528
3.36628e-07
0.000266438
3.27634e-07
0.000266354
3.10664e-07
0.000266267
3.14336e-07
0.000266187
3.06944e-07
4.1053e-07
-0.000280607
-3.78448e-05
-0.000264756
-5.44603e-05
-0.00024043
-8.26051e-05
-0.000201799
-0.000131587
-0.000142357
-0.000207068
-5.74884e-05
-0.000304981
5.2672e-05
-0.000407351
0.000167686
-0.000436536
0.00025376
-0.0003326
0.000303129
-0.000195447
0.000319846
-7.60487e-05
0.000315802
-2.68873e-06
0.00030924
5.05957e-06
0.000308615
-1.1534e-05
0.000311399
-1.74226e-05
0.000315103
-1.69858e-05
0.000318836
-1.50344e-05
0.00032228
-1.28124e-05
0.000325325
-1.06399e-05
0.000327943
-8.70961e-06
0.000330141
-7.02443e-06
0.000331956
-5.59331e-06
0.000333439
-4.41655e-06
0.000334647
-3.45794e-06
0.000335625
-2.67816e-06
0.000336412
-2.01594e-06
0.000337035
-1.45984e-06
0.000337546
-1.09934e-06
0.000337982
-9.1125e-07
0.000338327
-6.8377e-07
0.000338544
-2.65344e-07
0.000338599
2.50361e-07
0.000338522
6.13766e-07
0.000338372
7.87869e-07
0.000338187
8.72558e-07
0.00033799
8.99546e-07
0.000337784
9.18398e-07
0.000337575
9.37664e-07
0.000337362
9.51837e-07
0.000337148
9.57521e-07
0.000336931
9.64564e-07
0.000336712
9.75496e-07
0.000336491
9.7951e-07
0.00033627
9.77658e-07
0.000336047
9.80272e-07
0.000335823
9.8136e-07
0.0003356
9.78317e-07
0.000335376
9.65141e-07
0.000335157
9.57699e-07
0.000334938
9.49415e-07
0.000334716
9.42457e-07
0.000334502
9.22979e-07
0.000334288
9.13262e-07
0.000334078
9.03044e-07
0.000333867
8.93255e-07
0.000333662
8.68704e-07
0.000333461
8.54728e-07
0.00033326
8.44256e-07
0.000333064
8.27704e-07
0.000332872
8.03651e-07
0.000332684
7.87185e-07
0.000332504
7.57301e-07
0.000332328
7.38246e-07
0.000332157
7.16145e-07
0.000331994
6.93353e-07
0.000331832
6.85355e-07
0.00033167
6.76002e-07
0.000331513
6.48991e-07
0.000331363
6.32642e-07
0.000331212
6.15225e-07
0.00033107
5.92703e-07
0.000330932
5.72245e-07
0.000330798
5.6369e-07
0.000330667
5.44778e-07
0.000330537
5.2631e-07
0.000330417
5.046e-07
0.000330295
5.00187e-07
0.000330178
4.81341e-07
0.000330065
4.62633e-07
0.000329955
4.5135e-07
0.000329848
4.44095e-07
0.000329743
4.32768e-07
0.000329638
4.1549e-07
0.000329537
4.15662e-07
0.000329442
4.02137e-07
5.56765e-07
-0.000338128
-5.20114e-05
-0.000317317
-7.52714e-05
-0.00028524
-0.000114682
-0.000234793
-0.000182033
-0.000158737
-0.000283124
-5.25472e-05
-0.000411171
8.246e-05
-0.000542358
0.000221169
-0.000575245
0.000324188
-0.000435619
0.000382672
-0.00025393
0.000400661
-9.40378e-05
0.000392001
5.97204e-06
0.000379279
1.77807e-05
0.000374562
-6.817e-06
0.000375597
-1.84573e-05
0.0003789
-2.02889e-05
0.000382887
-1.90214e-05
0.000386915
-1.68398e-05
0.000390679
-1.44044e-05
0.000394051
-1.20816e-05
0.000396976
-9.94933e-06
0.000399454
-8.07089e-06
0.000401525
-6.48763e-06
0.000403244
-5.17752e-06
0.000404673
-4.10716e-06
0.00040585
-3.19218e-06
0.000406812
-2.42253e-06
0.000407623
-1.90966e-06
0.000408323
-1.61186e-06
0.000408905
-1.26474e-06
0.000409308
-6.69255e-07
0.000409493
6.58824e-08
0.000409494
6.13061e-07
0.000409371
9.11371e-07
0.000409183
1.05995e-06
0.000408971
1.11175e-06
0.000408746
1.14423e-06
0.000408512
1.17092e-06
0.000408274
1.18978e-06
0.000408039
1.19283e-06
0.000407802
1.2023e-06
0.000407561
1.21625e-06
0.000407317
1.22405e-06
0.000407074
1.22054e-06
0.000406829
1.22556e-06
0.000406581
1.22862e-06
0.000406331
1.22894e-06
0.000406085
1.21082e-06
0.000405841
1.20178e-06
0.000405596
1.19465e-06
0.000405353
1.18617e-06
0.000405111
1.16495e-06
0.000404874
1.14973e-06
0.000404636
1.14154e-06
0.000404398
1.13131e-06
0.000404164
1.1024e-06
0.000403938
1.08157e-06
0.000403712
1.06977e-06
0.000403489
1.05156e-06
0.00040327
1.02205e-06
0.000403057
9.99952e-07
0.000402851
9.64302e-07
0.000402651
9.38059e-07
0.000402459
9.08173e-07
0.000402269
8.83678e-07
0.000402084
8.70142e-07
0.000401901
8.60011e-07
0.000401723
8.26247e-07
0.00040155
8.06191e-07
0.000401381
7.84215e-07
0.000401216
7.58031e-07
0.000401058
7.30047e-07
0.000400902
7.20638e-07
0.000400749
6.972e-07
0.000400604
6.71186e-07
0.000400464
6.4532e-07
0.000400324
6.39952e-07
0.000400187
6.18403e-07
0.000400056
5.94034e-07
0.000399933
5.74208e-07
0.000399804
5.73945e-07
0.00039968
5.56244e-07
0.000399564
5.32345e-07
0.000399442
5.37449e-07
0.000399333
5.11239e-07
7.31565e-07
-0.000399955
-7.05328e-05
-0.000372652
-0.000102575
-0.000330587
-0.000156746
-0.000265493
-0.000247127
-0.000169817
-0.0003788
-3.94635e-05
-0.000541525
0.000122628
-0.00070445
0.000286759
-0.000739376
0.000408275
-0.000557136
0.000476995
-0.00032265
0.000496348
-0.000113391
0.00048181
2.05097e-05
0.000460533
3.90578e-05
0.000449174
4.5422e-06
0.000446604
-1.5887e-05
0.000448396
-2.20814e-05
0.00045205
-2.26758e-05
0.000456394
-2.11833e-05
0.000460821
-1.88313e-05
0.000465019
-1.62792e-05
0.000468807
-1.37379e-05
0.000472122
-1.13856e-05
0.000474958
-9.32411e-06
0.000477367
-7.58638e-06
0.000479406
-6.14577e-06
0.000481123
-4.9096e-06
0.00048257
-3.86979e-06
0.000483808
-3.14656e-06
0.000484891
-2.69496e-06
0.000485815
-2.18924e-06
0.000486515
-1.36859e-06
0.000486925
-3.44028e-07
0.000487061
4.77247e-07
0.000487022
9.50049e-07
0.000486862
1.21963e-06
0.000486649
1.32521e-06
0.000486411
1.3828e-06
0.000486161
1.42123e-06
0.000485903
1.44726e-06
0.000485647
1.44915e-06
0.000485388
1.46121e-06
0.00048513
1.47413e-06
0.000484869
1.48519e-06
0.000484606
1.48412e-06
0.000484346
1.48561e-06
0.000484081
1.49337e-06
0.000483816
1.4944e-06
0.000483548
1.47871e-06
0.000483286
1.46432e-06
0.000483022
1.45885e-06
0.000482757
1.45039e-06
0.000482496
1.42677e-06
0.000482234
1.41164e-06
0.000481974
1.40158e-06
0.000481717
1.38808e-06
0.00048146
1.35931e-06
0.00048121
1.33256e-06
0.000480959
1.32045e-06
0.000480716
1.29508e-06
0.000480472
1.26598e-06
0.000480236
1.2361e-06
0.000480008
1.19198e-06
0.000479786
1.1599e-06
0.000479569
1.12569e-06
0.000479363
1.09006e-06
0.000479159
1.07434e-06
0.000478958
1.06116e-06
0.000478756
1.02794e-06
0.000478563
9.99451e-07
0.000478375
9.7231e-07
0.000478191
9.42568e-07
0.000478012
9.09122e-07
0.00047784
8.92808e-07
0.00047767
8.67437e-07
0.000477505
8.36489e-07
0.000477344
8.06319e-07
0.000477188
7.95535e-07
0.000477034
7.72949e-07
0.000476888
7.39812e-07
0.000476742
7.20879e-07
0.000476602
7.14061e-07
0.00047646
6.98089e-07
0.000476323
6.69118e-07
0.000476186
6.74678e-07
0.000476063
6.34539e-07
9.28709e-07
-0.000465547
-9.48289e-05
-0.000429684
-0.000138438
-0.000374863
-0.000211568
-0.000292081
-0.00032991
-0.000173929
-0.000496952
-1.69333e-05
-0.00069852
0.000174135
-0.000895519
0.000365422
-0.000930662
0.000507393
-0.000699108
0.000588026
-0.000403282
0.000609401
-0.000134766
0.000588173
4.17376e-05
0.000556011
7.12199e-05
0.000534995
2.55575e-05
0.000526199
-7.09077e-06
0.00052467
-2.05524e-05
0.00052688
-2.48856e-05
0.000530924
-2.52273e-05
0.000535741
-2.36488e-05
0.000540709
-2.12462e-05
0.000545447
-1.84767e-05
0.000549749
-1.56872e-05
0.000553552
-1.31274e-05
0.000556859
-1.08929e-05
0.000559717
-9.00428e-06
0.000562179
-7.37092e-06
0.000564288
-5.97925e-06
0.000566126
-4.98381e-06
0.000567755
-4.32484e-06
0.000569172
-3.60569e-06
0.000570307
-2.5035e-06
0.000571081
-1.11833e-06
0.000571483
7.59983e-08
0.000571598
8.34975e-07
0.000571531
1.28687e-06
0.000571349
1.50687e-06
0.000571113
1.61947e-06
0.000570849
1.68545e-06
0.000570576
1.71996e-06
0.000570295
1.73013e-06
0.000570023
1.73411e-06
0.000569748
1.74935e-06
0.000569476
1.75731e-06
0.000569202
1.75802e-06
0.000568927
1.76069e-06
0.000568653
1.76781e-06
0.000568375
1.77179e-06
0.0005681
1.75414e-06
0.000567823
1.74124e-06
0.000567548
1.7342e-06
0.000567274
1.72472e-06
0.000566999
1.70173e-06
0.000566724
1.68687e-06
0.00056645
1.67517e-06
0.000566175
1.66376e-06
0.000565901
1.63365e-06
0.00056563
1.60363e-06
0.000565366
1.58441e-06
0.000565098
1.5629e-06
0.000564839
1.52472e-06
0.000564587
1.48866e-06
0.000564337
1.4418e-06
0.000564097
1.40055e-06
0.000563866
1.35715e-06
0.000563643
1.31346e-06
0.000563419
1.29835e-06
0.000563198
1.282e-06
0.000562987
1.2397e-06
0.000562774
1.21236e-06
0.000562567
1.17928e-06
0.000562366
1.14403e-06
0.000562172
1.10265e-06
0.000561983
1.08249e-06
0.000561796
1.05399e-06
0.000561613
1.02015e-06
0.000561439
9.80457e-07
0.000561267
9.6783e-07
0.000561099
9.40516e-07
0.000560932
9.07325e-07
0.000560774
8.78868e-07
0.000560614
8.74062e-07
0.000560454
8.58184e-07
0.000560302
8.217e-07
0.000560144
8.32836e-07
0.000560012
7.66939e-07
1.1396e-06
-0.000534105
-0.000126777
-0.000487052
-0.000185491
-0.000416347
-0.000282272
-0.000313028
-0.000433228
-0.000170003
-0.000639977
1.55502e-05
-0.000884074
0.000237298
-0.00111727
0.000457771
-0.00115113
0.000622726
-0.000864063
0.000717601
-0.000498156
0.000742359
-0.000159524
0.000714282
6.98148e-05
0.000669357
0.000116145
0.000635594
5.93199e-05
0.000617325
1.11781e-05
0.000609843
-1.30702e-05
0.000608753
-2.37951e-05
0.000611314
-2.77887e-05
0.000615844
-2.81788e-05
0.000621265
-2.66674e-05
0.000626884
-2.40955e-05
0.000632273
-2.10763e-05
0.000637215
-1.80691e-05
0.000641643
-1.53211e-05
0.000645562
-1.29228e-05
0.00064901
-1.08187e-05
0.000652022
-8.99119e-06
0.000654683
-7.64483e-06
0.000657064
-6.70604e-06
0.000659177
-5.71905e-06
0.000660951
-4.27732e-06
0.000662282
-2.44872e-06
0.000663122
-7.64146e-07
0.000663542
4.15658e-07
0.000663664
1.16471e-06
0.000663586
1.58533e-06
0.000663385
1.82027e-06
0.000663129
1.9414e-06
0.00066284
2.00952e-06
0.000662547
2.02341e-06
0.000662254
2.02711e-06
0.000661962
2.04137e-06
0.000661676
2.04317e-06
0.000661393
2.04109e-06
0.000661115
2.03932e-06
0.000660835
2.04723e-06
0.000660556
2.05129e-06
0.000660278
2.03235e-06
0.000660005
2.01454e-06
0.000659727
2.01166e-06
0.000659449
2.00347e-06
0.00065917
1.98066e-06
0.000658891
1.96639e-06
0.00065861
1.95628e-06
0.000658326
1.94778e-06
0.000658045
1.91488e-06
0.000657766
1.88194e-06
0.000657485
1.86562e-06
0.000657212
1.83584e-06
0.000656939
1.79785e-06
0.000656672
1.75598e-06
0.000656412
1.70166e-06
0.000656161
1.65232e-06
0.000655915
1.60298e-06
0.000655679
1.55027e-06
0.00065545
1.5272e-06
0.000655222
1.51057e-06
0.00065499
1.47208e-06
0.000654769
1.4328e-06
0.000654552
1.39722e-06
0.000654338
1.35781e-06
0.000654133
1.30775e-06
0.000653926
1.28932e-06
0.000653726
1.25389e-06
0.000653534
1.2132e-06
0.000653343
1.17129e-06
0.000653157
1.15385e-06
0.000652973
1.12482e-06
0.000652793
1.08689e-06
0.000652616
1.05603e-06
0.000652445
1.0461e-06
0.000652275
1.0275e-06
0.000652107
9.90166e-07
0.000651932
1.00776e-06
0.000651785
9.14471e-07
1.36193e-06
-0.000604466
-0.000168944
-0.00054317
-0.000246787
-0.000453716
-0.000371726
-0.000327483
-0.000559462
-0.000157825
-0.000809635
5.76656e-05
-0.00109956
0.000311845
-0.00137145
0.000564099
-0.00140339
0.000755216
-0.00105518
0.000867401
-0.000610341
0.000897712
-0.000189835
0.000863326
0.0001042
0.000804436
0.000175035
0.00075531
0.000108446
0.000724161
4.23277e-05
0.000707385
3.70544e-06
0.000700267
-1.6677e-05
0.000699355
-2.68763e-05
0.000702267
-3.10908e-05
0.000707357
-3.17577e-05
0.000713475
-3.02134e-05
0.000719836
-2.74373e-05
0.000726001
-2.42339e-05
0.000731739
-2.10591e-05
0.000736968
-1.81522e-05
0.000741676
-1.55259e-05
0.000745875
-1.31909e-05
0.000749635
-1.14047e-05
0.000753034
-1.01047e-05
0.000756098
-8.78288e-06
0.000758773
-6.95245e-06
0.000760934
-4.60897e-06
0.000762462
-2.29276e-06
0.000763413
-5.34663e-07
0.000763908
6.70059e-07
0.000764056
1.43756e-06
0.00076398
1.89665e-06
0.000763764
2.15728e-06
0.000763486
2.28772e-06
0.000763172
2.33784e-06
0.000762858
2.34099e-06
0.000762549
2.3505e-06
0.000762244
2.34766e-06
0.000761955
2.33121e-06
0.000761672
2.32198e-06
0.000761398
2.3218e-06
0.000761123
2.32615e-06
0.000760854
2.30117e-06
0.000760586
2.28258e-06
0.000760321
2.27727e-06
0.000760057
2.26796e-06
0.000759786
2.25171e-06
0.000759515
2.23696e-06
0.00075924
2.23161e-06
0.000758962
2.22627e-06
0.000758678
2.19868e-06
0.000758397
2.16333e-06
0.000758119
2.14408e-06
0.00075784
2.11463e-06
0.000757569
2.06939e-06
0.000757295
2.02921e-06
0.000757033
1.96377e-06
0.000756778
1.90753e-06
0.00075653
1.85201e-06
0.000756289
1.79151e-06
0.000756056
1.76067e-06
0.000755822
1.74469e-06
0.000755596
1.69813e-06
0.000755369
1.66052e-06
0.000755146
1.6204e-06
0.000754925
1.57852e-06
0.00075471
1.52254e-06
0.000754501
1.49911e-06
0.000754291
1.46407e-06
0.000754085
1.41877e-06
0.000753888
1.36906e-06
0.000753691
1.35061e-06
0.000753501
1.3152e-06
0.000753309
1.27864e-06
0.000753126
1.23941e-06
0.000752942
1.23044e-06
0.000752756
1.2136e-06
0.000752573
1.1741e-06
0.000752386
1.19493e-06
0.000752225
1.07519e-06
1.58058e-06
-0.000675315
-0.000224325
-0.000596781
-0.000325322
-0.000486322
-0.000482186
-0.000335528
-0.000710255
-0.000138073