/*--------------------------------*- C++ -*----------------------------------*\
| =========                 |                                                 |
| \\      /  F ield         | OpenFOAM: The Open Source CFD Toolbox           |
|  \\    /   O peration     | Version:  2412                                  |
|   \\  /    A nd           | Website:  www.openfoam.com                      |
|    \\/     M anipulation  |                                                 |
\*---------------------------------------------------------------------------*/
FoamFile
{
    version     2.0;
    format      ascii;
    arch        "LSB;label=32;scalar=64";
    class       volScalarField;
    location    "20";
    object      nut;
}
// * * * * * * * * * * * * * * * * * * * * * * * * * * * * * * * * * * * * * //

dimensions      [0 2 -1 0 0 0 0];

internalField   nonuniform List<scalar> 
32591
(
5.17396e-10
2.4568e-09
1.94543e-09
9.54957e-11
1.41655e-10
3.98033e-11
6.64082e-11
9.68002e-10
1.41376e-09
1.24559e-09
9.2223e-10
7.72008e-10
6.90355e-10
6.51275e-10
6.43994e-10
6.50505e-10
6.46945e-10
6.32472e-10
6.10985e-10
5.87615e-10
5.69556e-10
5.58461e-10
5.52594e-10
5.48754e-10
5.43525e-10
5.36955e-10
5.31545e-10
5.26254e-10
5.22438e-10
5.19189e-10
5.16184e-10
5.12798e-10
5.11195e-10
5.08467e-10
5.06369e-10
5.04582e-10
5.03075e-10
5.01079e-10
5.01048e-10
4.99515e-10
4.98487e-10
4.97673e-10
4.97047e-10
4.96576e-10
4.96183e-10
4.95799e-10
4.94633e-10
4.96665e-10
4.95701e-10
4.95713e-10
4.95967e-10
4.96236e-10
4.96592e-10
4.9584e-10
4.98995e-10
4.97799e-10
5.00018e-10
4.98805e-10
5.02208e-10
5.02137e-10
5.0313e-10
5.04397e-10
5.05651e-10
5.07181e-10
5.08622e-10
5.10283e-10
5.10827e-10
5.14526e-10
5.1397e-10
5.19246e-10
5.18202e-10
5.23003e-10
5.20872e-10
5.2915e-10
5.29046e-10
5.31477e-10
5.34617e-10
5.3795e-10
5.41255e-10
5.4463e-10
5.48199e-10
5.52447e-10
5.5635e-10
5.60723e-10
5.653e-10
5.70278e-10
5.753e-10
5.78484e-10
5.8829e-10
5.88174e-10
6.02507e-10
6.02338e-10
6.16484e-10
6.17822e-10
6.32735e-10
6.33922e-10
6.52038e-10
6.58246e-10
6.73196e-10
6.77791e-10
6.99183e-10
7.05065e-10
7.23998e-10
7.30508e-10
7.46053e-10
7.48938e-10
7.60078e-10
7.56421e-10
7.63493e-10
7.56627e-10
7.58386e-10
7.46287e-10
7.38564e-10
7.18222e-10
7.08781e-10
6.98596e-10
6.91097e-10
6.81959e-10
6.72744e-10
6.62548e-10
6.50986e-10
6.16706e-10
5.99331e-10
5.90715e-10
5.86346e-10
5.84614e-10
5.8456e-10
5.8612e-10
5.87654e-10
5.88605e-10
5.88873e-10
5.8803e-10
5.85473e-10
5.81454e-10
5.7223e-10
5.60819e-10
5.47124e-10
5.34654e-10
5.19491e-10
5.06601e-10
5.01485e-10
5.14028e-10
5.44392e-10
5.87274e-10
6.19665e-10
6.24989e-10
5.29492e-10
2.56611e-10
3.52075e-11
7.86831e-14
4.27069e-11
2.80079e-10
5.58519e-10
6.47087e-10
6.22256e-10
5.61337e-10
4.96409e-10
4.55503e-10
4.50961e-10
4.72394e-10
4.9732e-10
5.18406e-10
5.31924e-10
5.44024e-10
5.55909e-10
5.64537e-10
5.69177e-10
5.72375e-10
5.73665e-10
5.74367e-10
5.74452e-10
5.74024e-10
5.73458e-10
5.74041e-10
5.75988e-10
5.79994e-10
5.87477e-10
6.02432e-10
6.32588e-10
6.43142e-10
6.53026e-10
6.624e-10
6.69874e-10
6.79869e-10
6.84807e-10
6.97719e-10
7.13754e-10
7.26367e-10
7.26802e-10
7.33789e-10
7.33428e-10
7.35259e-10
7.25524e-10
7.27153e-10
7.12579e-10
7.09981e-10
6.89876e-10
6.87431e-10
6.65183e-10
6.63732e-10
6.45238e-10
6.43123e-10
6.25483e-10
6.24737e-10
6.08239e-10
6.08589e-10
5.93429e-10
5.9443e-10
5.80342e-10
5.82703e-10
5.67789e-10
5.67501e-10
5.62737e-10
5.57905e-10
5.53357e-10
5.48998e-10
5.44989e-10
5.41029e-10
5.37497e-10
5.33771e-10
5.30541e-10
5.27206e-10
5.24336e-10
5.21277e-10
5.21486e-10
5.12291e-10
5.15473e-10
5.09044e-10
5.10598e-10
5.05749e-10
5.06571e-10
5.02033e-10
5.01513e-10
4.99892e-10
4.98172e-10
4.96749e-10
4.95186e-10
4.93817e-10
4.92286e-10
4.91102e-10
4.89953e-10
4.90142e-10
4.86386e-10
4.87965e-10
4.84638e-10
4.84987e-10
4.8428e-10
4.83634e-10
4.82967e-10
4.82429e-10
4.82073e-10
4.82283e-10
4.80927e-10
4.81846e-10
4.80489e-10
4.81013e-10
4.80983e-10
4.81107e-10
4.8134e-10
4.81751e-10
4.82899e-10
4.81896e-10
4.83254e-10
4.84059e-10
4.85052e-10
4.86308e-10
4.88381e-10
4.88517e-10
4.90995e-10
4.93038e-10
4.95154e-10
4.97839e-10
5.02117e-10
5.06357e-10
5.11867e-10
5.15851e-10
5.18247e-10
5.22934e-10
5.34047e-10
5.52996e-10
5.78242e-10
6.00865e-10
6.14878e-10
6.15973e-10
6.04572e-10
6.08175e-10
6.5272e-10
7.5387e-10
9.3142e-10
1.30367e-09
1.52911e-09
1.07853e-09
1.27364e-10
4.67387e-11
1.53384e-10
1.13875e-10
2.15863e-09
3.00635e-09
9.21711e-10
2.45885e-08
5.96076e-08
5.71081e-08
2.54922e-08
4.57599e-09
2.72751e-09
1.45603e-08
7.59795e-08
8.83683e-08
8.16316e-08
6.86373e-08
6.11066e-08
5.68576e-08
5.4677e-08
5.40068e-08
5.3959e-08
5.33321e-08
5.21168e-08
5.05815e-08
4.90487e-08
4.78577e-08
4.70681e-08
4.65905e-08
4.62317e-08
4.57832e-08
4.52546e-08
4.4838e-08
4.44127e-08
4.40968e-08
4.38221e-08
4.35696e-08
4.32851e-08
4.3159e-08
4.29271e-08
4.27506e-08
4.26007e-08
4.24742e-08
4.2302e-08
4.23095e-08
4.21774e-08
4.20914e-08
4.20247e-08
4.19739e-08
4.19365e-08
4.19072e-08
4.18779e-08
4.17765e-08
4.19718e-08
4.18856e-08
4.18918e-08
4.19199e-08
4.19485e-08
4.19854e-08
4.19188e-08
4.22166e-08
4.21065e-08
4.23169e-08
4.22067e-08
4.25296e-08
4.25225e-08
4.26176e-08
4.27366e-08
4.28545e-08
4.29987e-08
4.31336e-08
4.32877e-08
4.33386e-08
4.36852e-08
4.36308e-08
4.41256e-08
4.40226e-08
4.4472e-08
4.42723e-08
4.50528e-08
4.50294e-08
4.52525e-08
4.55409e-08
4.58486e-08
4.61531e-08
4.64639e-08
4.67944e-08
4.71864e-08
4.75434e-08
4.79459e-08
4.83638e-08
4.88178e-08
4.92721e-08
4.95605e-08
5.04616e-08
5.04443e-08
5.1772e-08
5.17373e-08
5.30423e-08
5.31454e-08
5.45137e-08
5.46081e-08
5.6282e-08
5.6804e-08
5.81326e-08
5.85167e-08
6.0435e-08
6.0894e-08
6.25451e-08
6.30228e-08
6.43208e-08
6.44423e-08
6.53056e-08
6.4818e-08
6.53168e-08
6.4566e-08
6.46317e-08
6.34421e-08
6.26771e-08
6.07954e-08
5.99149e-08
5.89453e-08
5.82604e-08
5.73885e-08
5.65459e-08
5.56016e-08
5.45503e-08
5.1556e-08
5.0012e-08
4.92264e-08
4.88064e-08
4.86142e-08
4.85624e-08
4.86415e-08
4.87081e-08
4.87148e-08
4.86559e-08
4.8507e-08
4.81934e-08
4.77414e-08
4.68592e-08
4.5778e-08
4.44791e-08
4.31857e-08
4.16035e-08
4.01997e-08
3.98294e-08
4.16024e-08
4.50815e-08
4.87783e-08
5.00523e-08
4.69577e-08
3.51638e-08
1.44916e-08
1.94347e-09
7.08529e-12
2.33606e-09
1.58103e-08
3.71975e-08
4.88838e-08
5.07521e-08
4.68662e-08
4.05398e-08
3.57259e-08
3.49198e-08
3.69875e-08
3.95735e-08
4.17054e-08
4.31069e-08
4.42995e-08
4.54005e-08
4.62352e-08
4.67261e-08
4.71038e-08
4.72783e-08
4.7409e-08
4.74848e-08
4.751e-08
4.75144e-08
4.76125e-08
4.78266e-08
4.82156e-08
4.89045e-08
5.02407e-08
5.28812e-08
5.38494e-08
5.4761e-08
5.56385e-08
5.63428e-08
5.72855e-08
5.77823e-08
5.89803e-08
6.0472e-08
6.17014e-08
6.18452e-08
6.25603e-08
6.26589e-08
6.29721e-08
6.22337e-08
6.25074e-08
6.1314e-08
6.11845e-08
5.94391e-08
5.9295e-08
5.73154e-08
5.72284e-08
5.55688e-08
5.54121e-08
5.38123e-08
5.37695e-08
5.22619e-08
5.23127e-08
5.09217e-08
5.10291e-08
4.97298e-08
4.99632e-08
4.85831e-08
4.85578e-08
4.81276e-08
4.76888e-08
4.72732e-08
4.68743e-08
4.65068e-08
4.61422e-08
4.58185e-08
4.54751e-08
4.51786e-08
4.48701e-08
4.46053e-08
4.4323e-08
4.43539e-08
4.34879e-08
4.3788e-08
4.3186e-08
4.33353e-08
4.28818e-08
4.29628e-08
4.25399e-08
4.24931e-08
4.23436e-08
4.21843e-08
4.20518e-08
4.19055e-08
4.17783e-08
4.16354e-08
4.15236e-08
4.14144e-08
4.14331e-08
4.10773e-08
4.12249e-08
4.09093e-08
4.09404e-08
4.08732e-08
4.08102e-08
4.07457e-08
4.06923e-08
4.06552e-08
4.06727e-08
4.05422e-08
4.06245e-08
4.04934e-08
4.05373e-08
4.05312e-08
4.05376e-08
4.05531e-08
4.05847e-08
4.06846e-08
4.05832e-08
4.06999e-08
4.07651e-08
4.08459e-08
4.09494e-08
4.11267e-08
4.11221e-08
4.13287e-08
4.1498e-08
4.16741e-08
4.18929e-08
4.2235e-08
4.25556e-08
4.29987e-08
4.33403e-08
4.35684e-08
4.39432e-08
4.47503e-08
4.60553e-08
4.77942e-08
4.94558e-08
5.0635e-08
5.10166e-08
5.0559e-08
5.08334e-08
5.34561e-08
5.9248e-08
6.8631e-08
8.40701e-08
9.30753e-08
8.22962e-08
3.41044e-08
3.39823e-09
5.04686e-09
3.10131e-08
6.32996e-08
6.92169e-08
3.37356e-08
3.01585e-07
2.30387e-07
1.91633e-07
1.98977e-07
7.11503e-08
4.17894e-08
2.83956e-07
4.75767e-07
4.96011e-07
4.91206e-07
4.58043e-07
4.30668e-07
4.14818e-07
4.0576e-07
4.01044e-07
3.98069e-07
3.9322e-07
3.86334e-07
3.78698e-07
3.7167e-07
3.66211e-07
3.62418e-07
3.59862e-07
3.57743e-07
3.55297e-07
3.52626e-07
3.50542e-07
3.48485e-07
3.46939e-07
3.45598e-07
3.44385e-07
3.4308e-07
3.42517e-07
3.41505e-07
3.40765e-07
3.40163e-07
3.39681e-07
3.39014e-07
3.39182e-07
3.38716e-07
3.38471e-07
3.38325e-07
3.38259e-07
3.38261e-07
3.38308e-07
3.38355e-07
3.38081e-07
3.39193e-07
3.38979e-07
3.39204e-07
3.39529e-07
3.39855e-07
3.40217e-07
3.40099e-07
3.41695e-07
3.41352e-07
3.42529e-07
3.42198e-07
3.43913e-07
3.44037e-07
3.44653e-07
3.45378e-07
3.46095e-07
3.46931e-07
3.47714e-07
3.48579e-07
3.4896e-07
3.50742e-07
3.50613e-07
3.53093e-07
3.52697e-07
3.54938e-07
3.54126e-07
3.57991e-07
3.57929e-07
3.59065e-07
3.60521e-07
3.62071e-07
3.63608e-07
3.65193e-07
3.66902e-07
3.68917e-07
3.70764e-07
3.72856e-07
3.75033e-07
3.7739e-07
3.79751e-07
3.81388e-07
3.85932e-07
3.86228e-07
3.92924e-07
3.93165e-07
3.99807e-07
4.00777e-07
4.07761e-07
4.08804e-07
4.17408e-07
4.20335e-07
4.26975e-07
4.29225e-07
4.38626e-07
4.40954e-07
4.48736e-07
4.50688e-07
4.56343e-07
4.56263e-07
4.59452e-07
4.56212e-07
4.5763e-07
4.53334e-07
4.53126e-07
4.47192e-07
4.43418e-07
4.34623e-07
4.30558e-07
4.26027e-07
4.23022e-07
4.18963e-07
4.15153e-07
4.10778e-07
4.05894e-07
3.92539e-07
3.85403e-07
3.81466e-07
3.78971e-07
3.77307e-07
3.75995e-07
3.74971e-07
3.73582e-07
3.71606e-07
3.69068e-07
3.65915e-07
3.61668e-07
3.56423e-07
3.49062e-07
3.40259e-07
3.29586e-07
3.17086e-07
3.01579e-07
2.87595e-07
2.85636e-07
3.08541e-07
3.49238e-07
3.81452e-07
3.75176e-07
3.16841e-07
2.04446e-07
7.2531e-08
9.97315e-09
6.32334e-11
1.18578e-08
7.88635e-08
2.166e-07
3.31956e-07
3.85889e-07
3.69525e-07
3.06716e-07
2.52805e-07
2.42193e-07
2.60404e-07
2.85188e-07
3.0522e-07
3.18651e-07
3.2891e-07
3.37307e-07
3.4425e-07
3.49579e-07
3.54134e-07
3.5721e-07
3.59883e-07
3.62188e-07
3.64044e-07
3.65512e-07
3.67158e-07
3.69138e-07
3.71715e-07
3.75482e-07
3.81969e-07
3.94034e-07
3.98779e-07
4.03224e-07
4.07508e-07
4.10934e-07
4.15469e-07
4.1797e-07
4.23624e-07
4.30726e-07
4.36847e-07
4.38025e-07
4.4187e-07
4.43197e-07
4.45606e-07
4.43034e-07
4.44986e-07
4.40034e-07
4.39721e-07
4.31608e-07
4.3084e-07
4.21332e-07
4.20551e-07
4.12366e-07
4.11182e-07
4.0321e-07
4.02533e-07
3.94976e-07
3.94747e-07
3.87768e-07
3.87851e-07
3.81343e-07
3.82093e-07
3.75235e-07
3.7478e-07
3.72525e-07
3.7023e-07
3.68046e-07
3.65955e-07
3.64035e-07
3.6214e-07
3.60459e-07
3.58693e-07
3.57163e-07
3.5558e-07
3.54211e-07
3.52772e-07
3.52849e-07
3.48585e-07
3.499e-07
3.46943e-07
3.4757e-07
3.45325e-07
3.45625e-07
3.43518e-07
3.43191e-07
3.42376e-07
3.41505e-07
3.40753e-07
3.39928e-07
3.3919e-07
3.38367e-07
3.37683e-07
3.37009e-07
3.36953e-07
3.35092e-07
3.35632e-07
3.33969e-07
3.33951e-07
3.33476e-07
3.33016e-07
3.32548e-07
3.32131e-07
3.31793e-07
3.31716e-07
3.30943e-07
3.31176e-07
3.30411e-07
3.30469e-07
3.30306e-07
3.30205e-07
3.30156e-07
3.30191e-07
3.30558e-07
3.3e-07
3.30467e-07
3.30726e-07
3.31074e-07
3.31551e-07
3.32396e-07
3.32443e-07
3.33484e-07
3.34419e-07
3.35424e-07
3.36656e-07
3.38488e-07
3.40309e-07
3.42788e-07
3.44952e-07
3.46681e-07
3.48997e-07
3.53133e-07
3.59443e-07
3.6778e-07
3.76409e-07
3.83597e-07
3.8784e-07
3.89103e-07
3.92566e-07
4.03854e-07
4.26355e-07
4.61336e-07
5.02805e-07
5.13892e-07
5.02255e-07
3.87712e-07
5.41489e-08
8.15069e-08
2.4019e-07
2.0402e-07
2.47948e-07
3.62321e-07
1.58903e-06
1.3071e-06
4.34611e-07
5.79669e-07
5.89668e-07
3.15152e-07
1.18867e-06
1.32772e-06
1.34456e-06
1.4198e-06
1.42222e-06
1.39491e-06
1.37808e-06
1.36357e-06
1.34892e-06
1.33596e-06
1.32317e-06
1.30937e-06
1.29685e-06
1.28692e-06
1.2791e-06
1.27306e-06
1.26833e-06
1.26412e-06
1.25976e-06
1.25555e-06
1.25263e-06
1.24981e-06
1.24787e-06
1.24632e-06
1.24509e-06
1.24385e-06
1.24401e-06
1.24341e-06
1.24334e-06
1.24354e-06
1.24398e-06
1.24415e-06
1.24583e-06
1.24636e-06
1.24731e-06
1.24843e-06
1.2497e-06
1.25109e-06
1.25257e-06
1.25403e-06
1.25495e-06
1.25835e-06
1.25928e-06
1.26099e-06
1.26285e-06
1.26468e-06
1.26656e-06
1.26757e-06
1.27166e-06
1.2721e-06
1.27539e-06
1.27595e-06
1.28018e-06
1.28131e-06
1.28339e-06
1.28564e-06
1.28785e-06
1.29021e-06
1.29241e-06
1.29472e-06
1.29615e-06
1.30015e-06
1.30058e-06
1.30582e-06
1.30548e-06
1.31019e-06
1.30938e-06
1.31735e-06
1.31729e-06
1.31973e-06
1.3228e-06
1.32605e-06
1.32931e-06
1.33278e-06
1.33664e-06
1.3411e-06
1.34522e-06
1.34998e-06
1.35494e-06
1.36025e-06
1.3656e-06
1.36991e-06
1.37982e-06
1.3821e-06
1.39684e-06
1.399e-06
1.41391e-06
1.41782e-06
1.43362e-06
1.43826e-06
1.45794e-06
1.46525e-06
1.47945e-06
1.48547e-06
1.50491e-06
1.50964e-06
1.52423e-06
1.52605e-06
1.53446e-06
1.53081e-06
1.53271e-06
1.52166e-06
1.5201e-06
1.50789e-06
1.50502e-06
1.49112e-06
1.48223e-06
1.46377e-06
1.45522e-06
1.44535e-06
1.43954e-06
1.43047e-06
1.42256e-06
1.41291e-06
1.40228e-06
1.37664e-06
1.36159e-06
1.35169e-06
1.34363e-06
1.33633e-06
1.32842e-06
1.31979e-06
1.30918e-06
1.29621e-06
1.28125e-06
1.26454e-06
1.24422e-06
1.22058e-06
1.19224e-06
1.15888e-06
1.11801e-06
1.06591e-06
1.00132e-06
9.45122e-07
9.47086e-07
1.06718e-06
1.27374e-06
1.40843e-06
1.31277e-06
9.87848e-07
5.52828e-07
1.70658e-07
2.46477e-08
2.81552e-10
2.89738e-08
1.84512e-07
5.85667e-07
1.04009e-06
1.3706e-06
1.37666e-06
1.09052e-06
8.33216e-07
7.75607e-07
8.41964e-07
9.41758e-07
1.02343e-06
1.07921e-06
1.1198e-06
1.15017e-06
1.17667e-06
1.19974e-06
1.22066e-06
1.23615e-06
1.25017e-06
1.26323e-06
1.27463e-06
1.28408e-06
1.29295e-06
1.30169e-06
1.31075e-06
1.32145e-06
1.33656e-06
1.36116e-06
1.37259e-06
1.38324e-06
1.3936e-06
1.40184e-06
1.4124e-06
1.41886e-06
1.43122e-06
1.44679e-06
1.46138e-06
1.46637e-06
1.47655e-06
1.48331e-06
1.49272e-06
1.49214e-06
1.49956e-06
1.4934e-06
1.49479e-06
1.47999e-06
1.47871e-06
1.4599e-06
1.45714e-06
1.43997e-06
1.43603e-06
1.41897e-06
1.41578e-06
1.39939e-06
1.39699e-06
1.38183e-06
1.3802e-06
1.36612e-06
1.36607e-06
1.35151e-06
1.3491e-06
1.34389e-06
1.33866e-06
1.33363e-06
1.32882e-06
1.32443e-06
1.32016e-06
1.3164e-06
1.31251e-06
1.30912e-06
1.30566e-06
1.30265e-06
1.29954e-06
1.29949e-06
1.29082e-06
1.29272e-06
1.28676e-06
1.28756e-06
1.283e-06
1.28317e-06
1.27882e-06
1.27772e-06
1.27572e-06
1.27354e-06
1.27153e-06
1.26934e-06
1.26725e-06
1.26495e-06
1.26286e-06
1.26072e-06
1.25979e-06
1.25537e-06
1.2554e-06
1.25134e-06
1.25029e-06
1.24842e-06
1.24656e-06
1.24466e-06
1.24283e-06
1.24112e-06
1.23987e-06
1.23734e-06
1.23665e-06
1.23413e-06
1.23311e-06
1.2317e-06
1.2304e-06
1.2292e-06
1.22816e-06
1.22774e-06
1.22565e-06
1.22545e-06
1.22495e-06
1.22467e-06
1.22467e-06
1.2254e-06
1.22477e-06
1.226e-06
1.22724e-06
1.22872e-06
1.23069e-06
1.23377e-06
1.23694e-06
1.24158e-06
1.24624e-06
1.2506e-06
1.25579e-06
1.26335e-06
1.27369e-06
1.287e-06
1.30243e-06
1.31801e-06
1.33114e-06
1.34265e-06
1.3565e-06
1.37568e-06
1.40403e-06
1.44411e-06
1.45288e-06
1.38331e-06
1.37599e-06
1.37669e-06
4.21827e-07
6.84481e-07
6.99725e-07
5.06405e-07
1.42744e-06
1.96112e-06
5.06183e-06
5.11172e-06
1.50987e-06
1.22313e-06
1.6228e-06
9.69351e-07
2.71704e-06
2.49036e-06
2.55966e-06
2.82634e-06
2.96416e-06
2.99755e-06
3.0134e-06
3.00558e-06
2.97976e-06
2.95492e-06
2.93977e-06
2.93101e-06
2.92982e-06
2.93351e-06
2.93605e-06
2.93607e-06
2.93468e-06
2.9333e-06
2.93302e-06
2.93414e-06
2.93704e-06
2.93968e-06
2.9429e-06
2.94646e-06
2.95048e-06
2.95474e-06
2.96061e-06
2.96556e-06
2.97107e-06
2.97684e-06
2.9828e-06
2.98848e-06
2.99582e-06
3.00174e-06
3.00807e-06
3.01452e-06
3.02106e-06
3.02767e-06
3.03431e-06
3.04087e-06
3.04679e-06
3.05541e-06
3.06095e-06
3.06729e-06
3.07364e-06
3.07983e-06
3.08598e-06
3.09112e-06
3.09957e-06
3.10351e-06
3.11093e-06
3.11525e-06
3.1235e-06
3.12758e-06
3.13291e-06
3.13831e-06
3.14355e-06
3.14872e-06
3.15346e-06
3.15822e-06
3.16201e-06
3.16871e-06
3.17107e-06
3.17898e-06
3.17955e-06
3.18668e-06
3.18773e-06
3.19924e-06
3.19885e-06
3.20252e-06
3.20698e-06
3.21163e-06
3.21644e-06
3.2219e-06
3.22822e-06
3.23528e-06
3.2418e-06
3.24963e-06
3.25769e-06
3.26621e-06
3.27483e-06
3.28314e-06
3.29878e-06
3.30596e-06
3.32972e-06
3.3363e-06
3.36097e-06
3.37067e-06
3.39704e-06
3.40935e-06
3.44258e-06
3.45469e-06
3.47559e-06
3.48645e-06
3.51389e-06
3.5184e-06
3.53442e-06
3.52894e-06
3.53113e-06
3.51438e-06
3.50355e-06
3.4739e-06
3.45911e-06
3.43082e-06
3.41939e-06
3.39217e-06
3.37412e-06
3.34285e-06
3.32784e-06
3.30969e-06
3.30024e-06
3.2826e-06
3.26876e-06
3.25063e-06
3.23162e-06
3.19514e-06
3.1701e-06
3.14971e-06
3.12969e-06
3.10883e-06
3.0841e-06
3.05551e-06
3.02135e-06
2.98136e-06
2.93712e-06
2.88985e-06
2.83423e-06
2.77125e-06
2.70088e-06
2.61877e-06
2.51671e-06
2.38129e-06
2.2146e-06
2.07863e-06
2.11683e-06
2.49872e-06
3.13354e-06
3.48444e-06
3.05754e-06
2.05172e-06
1.00036e-06
2.6845e-07
4.21734e-08
8.98031e-10
4.89626e-08
2.8771e-07
1.05871e-06
2.16678e-06
3.23181e-06
3.43632e-06
2.62992e-06
1.86495e-06
1.67367e-06
1.82278e-06
2.07375e-06
2.28274e-06
2.42781e-06
2.53105e-06
2.60393e-06
2.66942e-06
2.72937e-06
2.78568e-06
2.82834e-06
2.868e-06
2.90623e-06
2.94048e-06
2.96935e-06
2.99574e-06
3.02024e-06
3.04331e-06
3.06719e-06
3.09525e-06
3.13369e-06
3.15632e-06
3.17757e-06
3.19866e-06
3.21552e-06
3.23625e-06
3.25081e-06
3.27305e-06
3.30096e-06
3.33021e-06
3.34573e-06
3.36808e-06
3.38953e-06
3.41668e-06
3.4294e-06
3.45145e-06
3.45448e-06
3.46428e-06
3.44912e-06
3.45049e-06
3.4262e-06
3.42109e-06
3.3962e-06
3.38825e-06
3.36253e-06
3.35462e-06
3.32911e-06
3.32173e-06
3.29797e-06
3.29183e-06
3.26982e-06
3.26647e-06
3.24429e-06
3.23729e-06
3.22862e-06
3.22017e-06
3.21187e-06
3.2039e-06
3.19674e-06
3.18986e-06
3.18389e-06
3.17784e-06
3.17251e-06
3.16717e-06
3.16251e-06
3.15778e-06
3.15758e-06
3.14535e-06
3.14606e-06
3.13774e-06
3.13777e-06
3.13139e-06
3.13062e-06
3.12437e-06
3.12175e-06
3.11806e-06
3.11397e-06
3.10989e-06
3.10541e-06
3.10088e-06
3.0959e-06
3.09096e-06
3.08575e-06
3.08212e-06
3.07396e-06
3.07094e-06
3.06308e-06
3.05859e-06
3.0532e-06
3.04777e-06
3.04215e-06
3.0365e-06
3.03085e-06
3.02565e-06
3.01888e-06
3.0142e-06
3.00737e-06
3.00215e-06
2.9965e-06
2.99085e-06
2.98525e-06
2.97975e-06
2.97496e-06
2.96817e-06
2.96349e-06
2.95858e-06
2.95391e-06
2.94962e-06
2.9462e-06
2.94121e-06
2.93838e-06
2.93585e-06
2.93382e-06
2.93233e-06
2.93181e-06
2.93118e-06
2.93262e-06
2.9354e-06
2.93918e-06
2.94339e-06
2.9474e-06
2.95002e-06
2.95236e-06
2.95908e-06
2.97215e-06
2.99039e-06
3.01657e-06
3.0438e-06
3.05843e-06
3.0555e-06
3.03577e-06
2.90523e-06
2.6365e-06
2.55659e-06
2.92994e-06
1.48071e-06
1.82472e-06
1.49321e-06
1.86732e-06
5.75509e-06
6.42692e-06
1.15987e-05
1.43074e-05
5.01493e-06
2.35154e-06
2.81181e-06
2.92817e-06
4.46921e-06
3.70216e-06
3.93615e-06
4.44595e-06
4.80172e-06
4.96517e-06
5.0543e-06
5.0746e-06
5.05001e-06
5.02627e-06
5.02807e-06
5.04989e-06
5.08809e-06
5.13148e-06
5.16519e-06
5.18667e-06
5.20094e-06
5.21418e-06
5.2307e-06
5.25037e-06
5.27153e-06
5.29112e-06
5.30998e-06
5.32863e-06
5.34768e-06
5.36708e-06
5.38769e-06
5.40706e-06
5.42658e-06
5.44599e-06
5.46525e-06
5.4841e-06
5.50408e-06
5.52243e-06
5.54085e-06
5.55908e-06
5.57709e-06
5.59491e-06
5.61252e-06
5.62982e-06
5.64644e-06
5.66495e-06
5.68018e-06
5.69583e-06
5.71106e-06
5.72582e-06
5.74029e-06
5.75373e-06
5.76946e-06
5.78068e-06
5.79535e-06
5.80731e-06
5.82181e-06
5.8315e-06
5.84258e-06
5.85338e-06
5.86371e-06
5.87344e-06
5.88227e-06
5.89083e-06
5.89864e-06
5.90882e-06
5.91472e-06
5.92526e-06
5.92764e-06
5.93739e-06
5.94246e-06
5.9568e-06
5.95523e-06
5.95997e-06
5.96543e-06
5.97109e-06
5.97718e-06
5.9847e-06
5.99383e-06
6.00352e-06
6.01244e-06
6.02366e-06
6.03493e-06
6.04662e-06
6.05858e-06
6.07225e-06
6.09409e-06
6.10934e-06
6.14335e-06
6.15651e-06
6.19271e-06
6.21064e-06
6.24956e-06
6.2734e-06
6.3224e-06
6.3374e-06
6.36256e-06
6.37742e-06
6.40866e-06
6.40657e-06
6.41491e-06
6.38965e-06
6.37173e-06
6.32659e-06
6.28653e-06
6.22214e-06
6.1801e-06
6.12378e-06
6.09519e-06
6.04523e-06
6.01049e-06
5.95935e-06
5.93331e-06
5.90116e-06
5.8849e-06
5.85193e-06
5.82782e-06
5.7951e-06
5.76269e-06
5.71429e-06
5.67509e-06
5.63766e-06
5.59738e-06
5.55339e-06
5.49987e-06
5.43759e-06
5.36428e-06
5.28051e-06
5.19023e-06
5.09657e-06
4.9877e-06
4.86635e-06
4.73536e-06
4.58335e-06
4.39055e-06
4.12911e-06
3.81085e-06
3.57464e-06
3.72908e-06
4.62353e-06
6.03392e-06
6.66659e-06
5.48039e-06
3.27763e-06
1.38889e-06
3.21632e-07
5.8012e-08
2.3981e-09
6.64083e-08
3.39954e-07
1.46804e-06
3.46689e-06
5.84526e-06
6.63166e-06
5.0017e-06
3.30847e-06
2.84139e-06
3.08654e-06
3.55817e-06
3.95628e-06
4.23709e-06
4.43333e-06
4.5666e-06
4.68837e-06
4.80175e-06
4.91076e-06
4.99388e-06
5.07305e-06
5.15095e-06
5.22158e-06
5.28145e-06
5.33682e-06
5.38744e-06
5.43341e-06
5.4782e-06
5.52521e-06
5.58133e-06
5.62206e-06
5.66086e-06
5.70019e-06
5.732e-06
5.76993e-06
5.79947e-06
5.83773e-06
5.88532e-06
5.93992e-06
5.97632e-06
6.01989e-06
6.06872e-06
6.1292e-06
6.1713e-06
6.22259e-06
6.25005e-06
6.2802e-06
6.27482e-06
6.28627e-06
6.26304e-06
6.25777e-06
6.22794e-06
6.21668e-06
6.18381e-06
6.17029e-06
6.13588e-06
6.12143e-06
6.08884e-06
6.07584e-06
6.04551e-06
6.03672e-06
6.00698e-06
5.99242e-06
5.97985e-06
5.96819e-06
5.95644e-06
5.94504e-06
5.93492e-06
5.92528e-06
5.91712e-06
5.90898e-06
5.90177e-06
5.89465e-06
5.88844e-06
5.88221e-06
5.88221e-06
5.86732e-06
5.86487e-06
5.85469e-06
5.85294e-06
5.84523e-06
5.8427e-06
5.83491e-06
5.82992e-06
5.82395e-06
5.81718e-06
5.80998e-06
5.80199e-06
5.79359e-06
5.78429e-06
5.77458e-06
5.76407e-06
5.7553e-06
5.74151e-06
5.73206e-06
5.7181e-06
5.70682e-06
5.69479e-06
5.68254e-06
5.66983e-06
5.65675e-06
5.64331e-06
5.63e-06
5.61506e-06
5.60179e-06
5.58643e-06
5.5722e-06
5.55747e-06
5.54243e-06
5.52715e-06
5.51164e-06
5.49657e-06
5.47942e-06
5.46387e-06
5.44807e-06
5.43233e-06
5.41675e-06
5.40179e-06
5.38512e-06
5.37016e-06
5.35567e-06
5.34177e-06
5.32804e-06
5.31415e-06
5.29903e-06
5.28584e-06
5.27586e-06
5.26922e-06
5.26202e-06
5.24855e-06
5.22365e-06
5.18941e-06
5.15961e-06
5.14504e-06
5.15025e-06
5.17916e-06
5.20843e-06
5.19661e-06
5.11893e-06
4.96641e-06
4.60895e-06
4.08404e-06
3.80292e-06
4.63953e-06
3.57416e-06
3.13977e-06
2.96612e-06
6.4412e-06
1.63865e-05
1.50226e-05
2.11226e-05
3.08523e-05
1.41024e-05
4.48802e-06
3.93145e-06
5.46051e-06
5.9468e-06
4.72827e-06
5.20912e-06
5.91765e-06
6.52016e-06
6.85829e-06
7.05192e-06
7.12645e-06
7.12955e-06
7.13355e-06
7.17929e-06
7.26112e-06
7.36704e-06
7.47521e-06
7.56154e-06
7.62266e-06
7.66906e-06
7.71307e-06
7.76264e-06
7.81671e-06
7.87099e-06
7.9213e-06
7.96869e-06
8.01477e-06
8.06085e-06
8.107e-06
8.15327e-06
8.19758e-06
8.24111e-06
8.28369e-06
8.32538e-06
8.3662e-06
8.40707e-06
8.44587e-06
8.48405e-06
8.52138e-06
8.55791e-06
8.59373e-06
8.62886e-06
8.6632e-06
8.69662e-06
8.73047e-06
8.76087e-06
8.79094e-06
8.81985e-06
8.84775e-06
8.87494e-06
8.90097e-06
8.92754e-06
8.94994e-06
8.97543e-06
8.99876e-06
9.02219e-06
9.04022e-06
9.05971e-06
9.07828e-06
9.0959e-06
9.11202e-06
9.12657e-06
9.14048e-06
9.15394e-06
9.16869e-06
9.17951e-06
9.19306e-06
9.19797e-06
9.21112e-06
9.22182e-06
9.23867e-06
9.23493e-06
9.24076e-06
9.24706e-06
9.25357e-06
9.261e-06
9.27099e-06
9.28342e-06
9.29598e-06
9.3075e-06
9.32258e-06
9.33725e-06
9.3522e-06
9.36785e-06
9.38829e-06
9.41752e-06
9.44354e-06
9.48964e-06
9.51083e-06
9.56071e-06
9.58843e-06
9.64216e-06
9.68002e-06
9.74609e-06
9.76026e-06
9.78658e-06
9.80252e-06
9.83213e-06
9.81461e-06
9.80452e-06
9.74456e-06
9.69121e-06
9.60052e-06
9.5143e-06
9.39854e-06
9.31597e-06
9.21983e-06
9.16541e-06
9.08201e-06
9.02162e-06
8.9416e-06
8.89872e-06
8.84599e-06
8.818e-06
8.76182e-06
8.72163e-06
8.66703e-06
8.61529e-06
8.55083e-06
8.49231e-06
8.43127e-06
8.36316e-06
8.28808e-06
8.19627e-06
8.09038e-06
7.96699e-06
7.8287e-06
7.68285e-06
7.53533e-06
7.3647e-06
7.17688e-06
6.97805e-06
6.74826e-06
6.44867e-06
6.03691e-06
5.54295e-06
5.2247e-06
5.63368e-06
7.34468e-06
9.84892e-06
1.06638e-05
8.15755e-06
4.3155e-06
1.57248e-06
3.29498e-07
7.00516e-08
5.90179e-09
7.88984e-08
3.46667e-07
1.66089e-06
4.5677e-06
8.75615e-06
1.06934e-05
8.11702e-06
5.04899e-06
4.1234e-06
4.4445e-06
5.1727e-06
5.79087e-06
6.23498e-06
6.53744e-06
6.73779e-06
6.923e-06
7.09518e-06
7.26377e-06
7.39291e-06
7.51935e-06
7.64529e-06
7.76031e-06
7.85785e-06
7.95058e-06
8.03522e-06
8.11104e-06
8.1832e-06
8.25468e-06
8.33427e-06
8.40018e-06
8.46397e-06
8.52952e-06
8.58322e-06
8.64596e-06
8.69806e-06
8.75975e-06
8.83573e-06
8.92769e-06
8.99597e-06
9.07033e-06
9.15841e-06
9.2677e-06
9.35517e-06
9.45192e-06
9.51962e-06
9.58447e-06
9.60032e-06
9.63221e-06
9.61755e-06
9.61677e-06
9.58529e-06
9.57348e-06
9.53545e-06
9.51724e-06
9.47413e-06
9.45192e-06
9.40987e-06
9.38879e-06
9.34915e-06
9.33373e-06
9.29566e-06
9.27099e-06
9.25374e-06
9.23869e-06
9.22323e-06
9.20798e-06
9.19454e-06
9.18182e-06
9.1713e-06
9.16094e-06
9.15172e-06
9.14267e-06
9.13483e-06
9.12697e-06
9.12769e-06
9.11042e-06
9.10337e-06
9.09109e-06
9.08676e-06
9.0777e-06
9.07277e-06
9.06335e-06
9.05523e-06
9.04628e-06
9.03601e-06
9.02461e-06
9.01182e-06
8.99805e-06
8.9827e-06
8.96619e-06
8.94805e-06
8.93166e-06
8.90988e-06
8.89076e-06
8.86785e-06
8.84628e-06
8.82414e-06
8.8015e-06
8.77793e-06
8.75342e-06
8.72793e-06
8.70196e-06
8.67426e-06
8.64734e-06
8.61847e-06
8.58979e-06
8.5604e-06
8.53014e-06
8.49905e-06
8.46708e-06
8.4349e-06
8.40041e-06
8.36645e-06
8.33193e-06
8.29694e-06
8.2615e-06
8.22592e-06
8.1882e-06
8.15101e-06
8.11405e-06
8.07739e-06
8.03999e-06
8.00042e-06
7.95747e-06
7.91528e-06
7.87785e-06
7.84621e-06
7.81264e-06
7.76486e-06
7.69192e-06
7.59645e-06
7.50182e-06
7.42998e-06
7.39425e-06
7.39925e-06
7.40446e-06
7.33983e-06
7.15508e-06
6.82342e-06
6.2078e-06
5.4655e-06
4.91108e-06
6.05072e-06
6.15861e-06
4.44037e-06
6.15453e-06
1.84887e-05
3.56423e-05
2.76758e-05
3.26592e-05
5.4465e-05
3.28429e-05
9.86996e-06
5.14099e-06
8.03264e-06
6.82174e-06
5.40354e-06
6.12079e-06
6.92673e-06
7.75092e-06
8.27194e-06
8.58546e-06
8.73887e-06
8.80106e-06
8.86193e-06
8.97622e-06
9.13989e-06
9.33192e-06
9.52105e-06
9.67604e-06
9.79289e-06
9.88765e-06
9.97836e-06
1.00761e-05
1.01786e-05
1.02792e-05
1.03728e-05
1.04609e-05
1.05462e-05
1.06306e-05
1.07143e-05
1.07966e-05
1.08756e-05
1.09524e-05
1.1027e-05
1.10997e-05
1.11705e-05
1.12399e-05
1.13065e-05
1.13715e-05
1.14346e-05
1.14961e-05
1.15562e-05
1.16148e-05
1.16719e-05
1.17275e-05
1.17818e-05
1.18322e-05
1.18812e-05
1.19281e-05
1.19733e-05
1.20171e-05
1.20594e-05
1.21002e-05
1.21371e-05
1.21767e-05
1.22143e-05
1.22492e-05
1.22779e-05
1.23081e-05
1.23366e-05
1.23633e-05
1.23875e-05
1.24092e-05
1.24299e-05
1.24504e-05
1.24709e-05
1.24875e-05
1.25047e-05
1.25128e-05
1.25304e-05
1.25475e-05
1.25666e-05
1.25602e-05
1.25674e-05
1.25746e-05
1.25823e-05
1.25915e-05
1.26047e-05
1.26211e-05
1.2637e-05
1.26517e-05
1.26713e-05
1.26898e-05
1.27084e-05
1.27287e-05
1.27574e-05
1.27958e-05
1.28349e-05
1.28948e-05
1.29253e-05
1.29907e-05
1.30292e-05
1.30996e-05
1.31524e-05
1.32348e-05
1.32438e-05
1.3268e-05
1.32804e-05
1.33016e-05
1.32591e-05
1.32194e-05
1.31105e-05
1.30074e-05
1.2856e-05
1.271e-05
1.25305e-05
1.23984e-05
1.22547e-05
1.21681e-05
1.20432e-05
1.19498e-05
1.18341e-05
1.17698e-05
1.16919e-05
1.16473e-05
1.1562e-05
1.15007e-05
1.14187e-05
1.13432e-05
1.12584e-05
1.11769e-05
1.1088e-05
1.09878e-05
1.08777e-05
1.07434e-05
1.05908e-05
1.04145e-05
1.02211e-05
1.00211e-05
9.82435e-06
9.59714e-06
9.35047e-06
9.09278e-06
8.79629e-06
8.3949e-06
7.83798e-06
7.18201e-06
6.84719e-06
7.70712e-06
1.05442e-05
1.43066e-05
1.49611e-05
1.05352e-05
4.8469e-06
1.48997e-06
2.9238e-07
7.93346e-08
1.34856e-08
8.76979e-08
3.07453e-07
1.57409e-06
5.1302e-06
1.13602e-05
1.51093e-05
1.17796e-05
6.97395e-06
5.39794e-06
5.75048e-06
6.72652e-06
7.54816e-06
8.15277e-06
8.54595e-06
8.80408e-06
9.04525e-06
9.26514e-06
9.48468e-06
9.65456e-06
9.82677e-06
9.999e-06
1.01576e-05
1.02918e-05
1.04243e-05
1.05455e-05
1.06533e-05
1.07556e-05
1.08539e-05
1.09614e-05
1.10569e-05
1.11506e-05
1.12478e-05
1.13283e-05
1.1421e-05
1.15013e-05
1.15922e-05
1.1703e-05
1.18413e-05
1.19499e-05
1.2062e-05
1.21967e-05
1.23656e-05
1.25105e-05
1.26663e-05
1.27875e-05
1.29005e-05
1.2949e-05
1.30124e-05
1.30144e-05
1.30241e-05
1.29946e-05
1.29862e-05
1.29457e-05
1.29249e-05
1.28737e-05
1.28441e-05
1.2792e-05
1.27624e-05
1.27123e-05
1.26896e-05
1.26421e-05
1.26053e-05
1.2582e-05
1.2563e-05
1.25433e-05
1.25235e-05
1.2506e-05
1.24896e-05
1.24762e-05
1.24632e-05
1.24515e-05
1.244e-05
1.24302e-05
1.24203e-05
1.2422e-05
1.24023e-05
1.23898e-05
1.23747e-05
1.23671e-05
1.23562e-05
1.23484e-05
1.23369e-05
1.23251e-05
1.23124e-05
1.22979e-05
1.22814e-05
1.22627e-05
1.22422e-05
1.22193e-05
1.21943e-05
1.21665e-05
1.21404e-05
1.21084e-05
1.2077e-05
1.20424e-05
1.20076e-05
1.19722e-05
1.19359e-05
1.1898e-05
1.18584e-05
1.1817e-05
1.17743e-05
1.17295e-05
1.16844e-05
1.16372e-05
1.15891e-05
1.15398e-05
1.14889e-05
1.14363e-05
1.13819e-05
1.13263e-05
1.12678e-05
1.12084e-05
1.11477e-05
1.10857e-05
1.10221e-05
1.09573e-05
1.08893e-05
1.08202e-05
1.07505e-05
1.06803e-05
1.0608e-05
1.0531e-05
1.04479e-05
1.03634e-05
1.02843e-05
1.02125e-05
1.01372e-05
1.00398e-05
9.90342e-06
9.73076e-06
9.55263e-06
9.40097e-06
9.29825e-06
9.24876e-06
9.198e-06
9.05527e-06
8.74751e-06
8.22723e-06
7.37541e-06
6.50773e-06
5.74907e-06
6.8903e-06
8.66633e-06
5.9479e-06
1.4204e-05
4.27855e-05
6.30089e-05
4.30452e-05
4.49068e-05
8.30142e-05
6.34125e-05
2.14881e-05
7.67303e-06
1.00187e-05
7.00385e-06
5.69133e-06
6.49025e-06
7.29153e-06
8.27668e-06
8.95601e-06
9.38777e-06
9.63572e-06
9.78051e-06
9.91867e-06
1.01146e-05
1.03675e-05
1.06497e-05
1.09241e-05
1.11553e-05
1.13383e-05
1.14932e-05
1.16422e-05
1.17981e-05
1.19582e-05
1.21139e-05
1.22597e-05
1.23973e-05
1.25307e-05
1.2662e-05
1.27912e-05
1.29171e-05
1.30381e-05
1.31553e-05
1.32686e-05
1.33785e-05
1.34854e-05
1.35892e-05
1.36891e-05
1.37861e-05
1.38803e-05
1.39718e-05
1.40609e-05
1.41476e-05
1.42318e-05
1.43135e-05
1.43922e-05
1.44663e-05
1.45379e-05
1.46061e-05
1.46716e-05
1.4735e-05
1.47961e-05
1.48539e-05