/*--------------------------------*- C++ -*----------------------------------*\
| =========                 |                                                 |
| \\      /  F ield         | OpenFOAM: The Open Source CFD Toolbox           |
|  \\    /   O peration     | Version:  2412                                  |
|   \\  /    A nd           | Website:  www.openfoam.com                      |
|    \\/     M anipulation  |                                                 |
\*---------------------------------------------------------------------------*/
FoamFile
{
    version     2.0;
    format      ascii;
    arch        "LSB;label=32;scalar=64";
    class       volScalarField;
    location    "20";
    object      nut;
}
// * * * * * * * * * * * * * * * * * * * * * * * * * * * * * * * * * * * * * //

dimensions      [0 2 -1 0 0 0 0];

internalField   nonuniform List<scalar> 
29601
(
9.14291e-12
2.55418e-11
1.47625e-11
1.01049e-11
5.56697e-12
2.99051e-11
1.29868e-10
1.71187e-10
1.42442e-10
1.0334e-10
8.36605e-11
7.4379e-11
6.96851e-11
6.79609e-11
6.79262e-11
6.79361e-11
6.72288e-11
6.60593e-11
6.45294e-11
6.30554e-11
6.205e-11
6.14593e-11
6.11421e-11
6.09016e-11
6.05988e-11
6.02495e-11
5.99089e-11
5.96359e-11
5.94213e-11
5.92452e-11
5.90786e-11
5.89253e-11
5.8788e-11
5.86685e-11
5.85679e-11
5.84803e-11
5.8398e-11
5.83335e-11
5.82707e-11
5.82187e-11
5.81744e-11
5.81364e-11
5.81065e-11
5.80818e-11
5.80651e-11
5.80486e-11
5.80413e-11
5.8034e-11
5.80333e-11
5.80282e-11
5.80322e-11
5.80389e-11
5.80525e-11
5.80692e-11
5.80835e-11
5.80992e-11
5.81229e-11
5.81507e-11
5.81642e-11
5.81829e-11
5.82079e-11
5.82346e-11
5.82669e-11
5.82951e-11
5.83282e-11
5.83623e-11
5.83966e-11
5.84307e-11
5.8465e-11
5.85005e-11
5.85413e-11
5.85754e-11
5.86218e-11
5.8672e-11
5.87062e-11
5.87508e-11
5.88088e-11
5.88532e-11
5.89073e-11
5.89483e-11
5.9014e-11
5.90589e-11
5.9128e-11
5.91749e-11
5.9255e-11
5.92821e-11
5.93678e-11
5.94453e-11
5.95176e-11
5.96084e-11
5.97028e-11
5.97984e-11
5.98991e-11
6.00217e-11
6.01358e-11
6.02801e-11
6.0425e-11
6.05986e-11
6.07726e-11
6.09494e-11
6.11289e-11
6.13275e-11
6.153e-11
6.17362e-11
6.19442e-11
6.21378e-11
6.23446e-11
6.25418e-11
6.27437e-11
6.29305e-11
6.311e-11
6.32806e-11
6.34819e-11
6.37447e-11
6.40227e-11
6.42803e-11
6.45276e-11
6.47564e-11
6.49825e-11
6.51967e-11
6.53983e-11
6.55813e-11
6.57476e-11
6.58867e-11
6.60388e-11
6.61676e-11
6.62464e-11
6.62956e-11
6.63232e-11
6.63123e-11
6.61861e-11
6.59862e-11
6.56985e-11
6.53358e-11
6.48081e-11
6.41516e-11
6.33859e-11
6.24093e-11
6.12081e-11
5.96594e-11
5.72279e-11
5.38155e-11
4.93731e-11
4.6676e-11
4.81627e-11
4.75574e-11
4.08748e-11
2.26664e-11
4.59221e-12
3.17979e-15
5.39845e-12
2.44455e-11
4.18862e-11
4.5868e-11
4.12061e-11
4.19808e-11
4.90574e-11
5.50269e-11
5.90037e-11
6.12638e-11
6.28311e-11
6.36899e-11
6.45112e-11
6.50408e-11
6.53974e-11
6.57152e-11
6.58904e-11
6.59999e-11
6.60565e-11
6.60725e-11
6.60023e-11
6.59486e-11
6.58614e-11
6.5759e-11
6.56186e-11
6.54849e-11
6.53465e-11
6.51947e-11
6.50186e-11
6.48266e-11
6.46267e-11
6.44102e-11
6.41888e-11
6.39454e-11
6.36976e-11
6.34279e-11
6.31756e-11
6.29824e-11
6.28238e-11
6.2653e-11
6.24648e-11
6.22526e-11
6.20541e-11
6.18402e-11
6.16314e-11
6.14174e-11
6.12153e-11
6.10194e-11
6.08287e-11
6.06478e-11
6.04734e-11
6.03092e-11
6.01573e-11
6.00165e-11
5.98804e-11
5.97534e-11
5.96371e-11
5.95278e-11
5.94228e-11
5.93243e-11
5.92383e-11
5.91548e-11
5.90756e-11
5.90013e-11
5.89362e-11
5.88649e-11
5.88061e-11
5.87379e-11
5.86937e-11
5.86391e-11
5.85871e-11
5.85351e-11
5.84907e-11
5.84436e-11
5.83915e-11
5.83499e-11
5.8304e-11
5.82622e-11
5.82221e-11
5.81801e-11
5.81392e-11
5.81053e-11
5.80693e-11
5.80333e-11
5.79963e-11
5.79641e-11
5.79393e-11
5.79035e-11
5.7879e-11
5.78484e-11
5.78288e-11
5.78026e-11
5.77786e-11
5.7757e-11
5.77364e-11
5.77198e-11
5.77012e-11
5.76874e-11
5.76759e-11
5.7667e-11
5.76662e-11
5.76662e-11
5.76619e-11
5.7668e-11
5.76707e-11
5.76816e-11
5.76964e-11
5.77174e-11
5.77444e-11
5.77774e-11
5.78177e-11
5.78647e-11
5.79212e-11
5.79864e-11
5.80624e-11
5.81482e-11
5.82549e-11
5.83782e-11
5.85199e-11
5.86672e-11
5.88316e-11
5.90268e-11
5.9287e-11
5.96114e-11
5.99472e-11
6.02369e-11
6.0465e-11
6.07704e-11
6.1352e-11
6.23494e-11
6.38187e-11
6.53498e-11
6.65353e-11
6.72701e-11
6.73042e-11
6.73969e-11
6.92036e-11
7.40324e-11
8.35203e-11
1.03567e-10
1.43463e-10
1.73109e-10
1.32023e-10
3.00107e-11
5.98847e-12
1.15763e-11
1.70324e-11
2.9693e-11
1.12595e-11
6.11589e-10
1.53355e-09
1.13102e-09
7.22315e-10
3.76956e-10
3.3708e-09
1.03534e-08
1.2041e-08
1.02391e-08
7.98732e-09
6.74398e-09
6.12357e-09
5.8061e-09
5.6859e-09
5.67184e-09
5.65593e-09
5.59114e-09
5.49506e-09
5.37815e-09
5.26947e-09
5.19531e-09
5.15101e-09
5.12559e-09
5.10507e-09
5.08014e-09
5.05236e-09
5.02583e-09
5.00461e-09
4.98796e-09
4.97408e-09
4.96103e-09
4.94913e-09
4.93851e-09
4.92946e-09
4.92178e-09
4.91516e-09
4.90911e-09
4.90423e-09
4.89973e-09
4.89609e-09
4.89309e-09
4.89054e-09
4.88865e-09
4.8872e-09
4.88628e-09
4.8855e-09
4.88535e-09
4.88527e-09
4.88575e-09
4.88606e-09
4.88686e-09
4.88791e-09
4.88936e-09
4.89105e-09
4.89266e-09
4.89429e-09
4.89633e-09
4.89868e-09
4.90031e-09
4.90218e-09
4.90445e-09
4.90675e-09
4.90963e-09
4.91235e-09
4.91521e-09
4.91805e-09
4.92088e-09
4.92377e-09
4.9267e-09
4.92959e-09
4.93279e-09
4.93572e-09
4.93949e-09
4.94347e-09
4.94634e-09
4.94993e-09
4.95442e-09
4.95797e-09
4.96219e-09
4.9656e-09
4.97055e-09
4.97417e-09
4.97939e-09
4.98301e-09
4.98867e-09
4.99114e-09
4.99787e-09
5.00372e-09
5.00945e-09
5.01674e-09
5.02412e-09
5.03164e-09
5.0399e-09
5.04988e-09
5.05949e-09
5.07136e-09
5.08355e-09
5.09788e-09
5.1121e-09
5.12652e-09
5.1413e-09
5.15751e-09
5.1738e-09
5.19015e-09
5.20607e-09
5.22062e-09
5.23596e-09
5.25024e-09
5.2643e-09
5.27665e-09
5.28817e-09
5.29909e-09
5.31258e-09
5.33052e-09
5.34957e-09
5.36732e-09
5.38435e-09
5.40023e-09
5.41604e-09
5.43102e-09
5.44493e-09
5.45738e-09
5.46828e-09
5.47717e-09
5.48699e-09
5.49448e-09
5.49761e-09
5.49774e-09
5.49614e-09
5.49096e-09
5.47588e-09
5.45363e-09
5.42468e-09
5.389e-09
5.33864e-09
5.27694e-09
5.20741e-09
5.1194e-09
5.01007e-09
4.86895e-09
4.63972e-09
4.32257e-09
3.92232e-09
3.73398e-09
3.9762e-09
3.98322e-09
3.37453e-09
1.79255e-09
3.57899e-10
3.02259e-13
4.21745e-10
1.94887e-09
3.47978e-09
3.83475e-09
3.31057e-09
3.28306e-09
3.90682e-09
4.46143e-09
4.82947e-09
5.04035e-09
5.18383e-09
5.25849e-09
5.33333e-09
5.37933e-09
5.40949e-09
5.43815e-09
5.45357e-09
5.46294e-09
5.47009e-09
5.47293e-09
5.46952e-09
5.4679e-09
5.46386e-09
5.45775e-09
5.44889e-09
5.44083e-09
5.43238e-09
5.42252e-09
5.41065e-09
5.39751e-09
5.38391e-09
5.36923e-09
5.35412e-09
5.33746e-09
5.32041e-09
5.30201e-09
5.28487e-09
5.27203e-09
5.26213e-09
5.25152e-09
5.2391e-09
5.22416e-09
5.20984e-09
5.19389e-09
5.17764e-09
5.16066e-09
5.14437e-09
5.12878e-09
5.11345e-09
5.0988e-09
5.08468e-09
5.07131e-09
5.05885e-09
5.04735e-09
5.03633e-09
5.02591e-09
5.01633e-09
5.0075e-09
4.99915e-09
4.99124e-09
4.98422e-09
4.97766e-09
4.97147e-09
4.96551e-09
4.9603e-09
4.95484e-09
4.95032e-09
4.94503e-09
4.94141e-09
4.93727e-09
4.93322e-09
4.92913e-09
4.9256e-09
4.9219e-09
4.91797e-09
4.91458e-09
4.91085e-09
4.90747e-09
4.90419e-09
4.9009e-09
4.89763e-09
4.89469e-09
4.89168e-09
4.88875e-09
4.88573e-09
4.88294e-09
4.8805e-09
4.87748e-09
4.87538e-09
4.87278e-09
4.87086e-09
4.86836e-09
4.86617e-09
4.86429e-09
4.86242e-09
4.86071e-09
4.85894e-09
4.8575e-09
4.85617e-09
4.85505e-09
4.85437e-09
4.85383e-09
4.85325e-09
4.85327e-09
4.85316e-09
4.8536e-09
4.85436e-09
4.85564e-09
4.85742e-09
4.85961e-09
4.86236e-09
4.86575e-09
4.86996e-09
4.87484e-09
4.88059e-09
4.88721e-09
4.89533e-09
4.90497e-09
4.91602e-09
4.92778e-09
4.94083e-09
4.95619e-09
4.97659e-09
5.00209e-09
5.02904e-09
5.05319e-09
5.07299e-09
5.09777e-09
5.14171e-09
5.21568e-09
5.32451e-09
5.44204e-09
5.53972e-09
5.6069e-09
5.62629e-09
5.64506e-09
5.77208e-09
6.10035e-09
6.73706e-09
8.00745e-09
1.03085e-08
1.2162e-08
1.05102e-08
3.40134e-09
4.01256e-10
8.27613e-10
1.3096e-09
1.77123e-09
7.30974e-10
4.1804e-09
8.87529e-09
7.79066e-09
4.81251e-09
2.6939e-09
3.56399e-08
7.25832e-08
7.63167e-08
6.71376e-08
5.65697e-08
5.00389e-08
4.65677e-08
4.4767e-08
4.4035e-08
4.38239e-08
4.35662e-08
4.30364e-08
4.23374e-08
4.1559e-08
4.08694e-08
4.03995e-08
4.01133e-08
3.99355e-08
3.97813e-08
3.96013e-08
3.94093e-08
3.92317e-08
3.90911e-08
3.89806e-08
3.88875e-08
3.8802e-08
3.87244e-08
3.86566e-08
3.86002e-08
3.8553e-08
3.85131e-08
3.84784e-08
3.84506e-08
3.84274e-08
3.84094e-08
3.83962e-08
3.83866e-08
3.83816e-08
3.83795e-08
3.83803e-08
3.83833e-08
3.83896e-08
3.83976e-08
3.8408e-08
3.84187e-08
3.84315e-08
3.84464e-08
3.84628e-08
3.84804e-08
3.84985e-08
3.85164e-08
3.85352e-08
3.85544e-08
3.85718e-08
3.8591e-08
3.86122e-08
3.86334e-08
3.86582e-08
3.86818e-08
3.87054e-08
3.87282e-08
3.87509e-08
3.87739e-08
3.87967e-08
3.88193e-08
3.8844e-08
3.88682e-08
3.88964e-08
3.89238e-08
3.89462e-08
3.89737e-08
3.90042e-08
3.90297e-08
3.90586e-08
3.90845e-08
3.91168e-08
3.91429e-08
3.91761e-08
3.92016e-08
3.92349e-08
3.92554e-08
3.93011e-08
3.93402e-08
3.93822e-08
3.94334e-08
3.94842e-08
3.95383e-08
3.96012e-08
3.96742e-08
3.97491e-08
3.98399e-08
3.99363e-08
4.00455e-08
4.01527e-08
4.02613e-08
4.03741e-08
4.04948e-08
4.06146e-08
4.07309e-08
4.08371e-08
4.09306e-08
4.10258e-08
4.11108e-08
4.11847e-08
4.12405e-08
4.12884e-08
4.13333e-08
4.13977e-08
4.14893e-08
4.15894e-08
4.16823e-08
4.17722e-08
4.18577e-08
4.19445e-08
4.20278e-08
4.21039e-08
4.2168e-08
4.22187e-08
4.2257e-08
4.23016e-08
4.23256e-08
4.23114e-08
4.22693e-08
4.22139e-08
4.21283e-08
4.19638e-08
4.1732e-08
4.1457e-08
4.11264e-08
4.06721e-08
4.01294e-08
3.95399e-08
3.88009e-08
3.78763e-08
3.66699e-08
3.46543e-08
3.18885e-08
2.85418e-08
2.74371e-08
3.05062e-08
3.12387e-08
2.58808e-08
1.30202e-08
2.59522e-09
2.92064e-12
3.06414e-09
1.42995e-08
2.69114e-08
2.99568e-08
2.45024e-08
2.34996e-08
2.86251e-08
3.34246e-08
3.66452e-08
3.84806e-08
3.97167e-08
4.03169e-08
4.09322e-08
4.12951e-08
4.15143e-08
4.17438e-08
4.18616e-08
4.1926e-08
4.19994e-08
4.20314e-08
4.20266e-08
4.20416e-08
4.20429e-08
4.20212e-08
4.19807e-08
4.19507e-08
4.19193e-08
4.18744e-08
4.18143e-08
4.17433e-08
4.16723e-08
4.15972e-08
4.15194e-08
4.14326e-08
4.13434e-08
4.12474e-08
4.11608e-08
4.11011e-08
4.10641e-08
4.1025e-08
4.0969e-08
4.08875e-08
4.08028e-08
4.07024e-08
4.05905e-08
4.0469e-08
4.03496e-08
4.02369e-08
4.01257e-08
4.00171e-08
3.99122e-08
3.98121e-08
3.97182e-08
3.96311e-08
3.95491e-08
3.94713e-08
3.93999e-08
3.93345e-08
3.92734e-08
3.92163e-08
3.91653e-08
3.91182e-08
3.90745e-08
3.90323e-08
3.89957e-08
3.8958e-08
3.89265e-08
3.88911e-08
3.88644e-08
3.88368e-08
3.88094e-08
3.8781e-08
3.87559e-08
3.87303e-08
3.87035e-08
3.86785e-08
3.86519e-08
3.86266e-08
3.86016e-08
3.85765e-08
3.85517e-08
3.85285e-08
3.8505e-08
3.84823e-08
3.84589e-08
3.84357e-08
3.84146e-08
3.83905e-08
3.8371e-08
3.83489e-08
3.83299e-08
3.83081e-08
3.82886e-08
3.82709e-08
3.82532e-08
3.82357e-08
3.82187e-08
3.82029e-08
3.81874e-08
3.81734e-08
3.81616e-08
3.81511e-08
3.81417e-08
3.81346e-08
3.81279e-08
3.81241e-08
3.81227e-08
3.81249e-08
3.81309e-08
3.81396e-08
3.81523e-08
3.81698e-08
3.81932e-08
3.82222e-08
3.82573e-08
3.82988e-08
3.83502e-08
3.84134e-08
3.84867e-08
3.85666e-08
3.86561e-08
3.87613e-08
3.88995e-08
3.90739e-08
3.92642e-08
3.94432e-08
3.95968e-08
3.97753e-08
4.00649e-08
4.05401e-08
4.12384e-08
4.20294e-08
4.27464e-08
4.32994e-08
4.3586e-08
4.38356e-08
4.46218e-08
4.65037e-08
5.00938e-08
5.68065e-08
6.76409e-08
7.70544e-08
7.35888e-08
3.61825e-08
2.80415e-09
5.50322e-09
9.00311e-09
1.01615e-08
5.00176e-09
1.43162e-08
2.56524e-08
2.51292e-08
1.52873e-08
1.5536e-08
1.53522e-07
2.31312e-07
2.28593e-07
2.09335e-07
1.89101e-07
1.74514e-07
1.66182e-07
1.61764e-07
1.59722e-07
1.58646e-07
1.57363e-07
1.55451e-07
1.5319e-07
1.50897e-07
1.48977e-07
1.47679e-07
1.46876e-07
1.46334e-07
1.45833e-07
1.45267e-07
1.44691e-07
1.4418e-07
1.43785e-07
1.43478e-07
1.43221e-07
1.42991e-07
1.42786e-07
1.42616e-07
1.42481e-07
1.42375e-07
1.4229e-07
1.42226e-07
1.4218e-07
1.42156e-07
1.42144e-07
1.42147e-07
1.42164e-07
1.42194e-07
1.42233e-07
1.42276e-07
1.42332e-07
1.42393e-07
1.42465e-07
1.42537e-07
1.42612e-07
1.42692e-07
1.42778e-07
1.42865e-07
1.42955e-07
1.43044e-07
1.43135e-07
1.43221e-07
1.43301e-07
1.43387e-07
1.43477e-07
1.43573e-07
1.43669e-07
1.43772e-07
1.43867e-07
1.43962e-07
1.44052e-07
1.4414e-07
1.44226e-07
1.44311e-07
1.44398e-07
1.44489e-07
1.44581e-07
1.44681e-07
1.44766e-07
1.44849e-07
1.44949e-07
1.45043e-07
1.45129e-07
1.45216e-07
1.45306e-07
1.45399e-07
1.45485e-07
1.45575e-07
1.45657e-07
1.45736e-07
1.45817e-07
1.45956e-07
1.46073e-07
1.46215e-07
1.46378e-07
1.4654e-07
1.46722e-07
1.46946e-07
1.47196e-07
1.47473e-07
1.47803e-07
1.48161e-07
1.48551e-07
1.48932e-07
1.49317e-07
1.49719e-07
1.50138e-07
1.50544e-07
1.5092e-07
1.51232e-07
1.51487e-07
1.51734e-07
1.51929e-07
1.52046e-07
1.52081e-07
1.52079e-07
1.52079e-07
1.5215e-07
1.52292e-07
1.52459e-07
1.52618e-07
1.52779e-07
1.5294e-07
1.53116e-07
1.53291e-07
1.53444e-07
1.5355e-07
1.536e-07
1.5362e-07
1.53663e-07
1.53618e-07
1.53421e-07
1.53093e-07
1.52722e-07
1.52237e-07
1.51445e-07
1.50365e-07
1.49164e-07
1.4776e-07
1.45864e-07
1.43632e-07
1.41309e-07
1.38417e-07
1.34741e-07
1.29928e-07
1.21666e-07
1.10527e-07
9.77606e-08
9.56593e-08
1.11879e-07
1.17082e-07
9.44601e-08
4.47599e-08
8.90707e-09
1.41905e-11
1.05312e-08
4.96622e-08
9.91838e-08
1.12079e-07
8.66634e-08
7.93602e-08
9.86239e-08
1.17903e-07
1.30972e-07
1.385e-07
1.43455e-07
1.45719e-07
1.48093e-07
1.49405e-07
1.50132e-07
1.50982e-07
1.51381e-07
1.51576e-07
1.51907e-07
1.52058e-07
1.5212e-07
1.52283e-07
1.52416e-07
1.52428e-07
1.5239e-07
1.52407e-07
1.52426e-07
1.52388e-07
1.52293e-07
1.52156e-07
1.52033e-07
1.51915e-07
1.51789e-07
1.5164e-07
1.51488e-07
1.5133e-07
1.51201e-07
1.51144e-07
1.51172e-07
1.51213e-07
1.51179e-07
1.51033e-07
1.50842e-07
1.50574e-07
1.50229e-07
1.4983e-07
1.49424e-07
1.4905e-07
1.48678e-07
1.48305e-07
1.4794e-07
1.47588e-07
1.47256e-07
1.4695e-07
1.46662e-07
1.4639e-07
1.46141e-07
1.45916e-07
1.45707e-07
1.45513e-07
1.45342e-07
1.45186e-07
1.45044e-07
1.44907e-07
1.44788e-07
1.44669e-07
1.44568e-07
1.44462e-07
1.44371e-07
1.44289e-07
1.44207e-07
1.4412e-07
1.44037e-07
1.43955e-07
1.43871e-07
1.43787e-07
1.437e-07
1.43611e-07
1.43523e-07
1.43433e-07
1.43342e-07
1.43254e-07
1.43168e-07
1.43084e-07
1.42995e-07
1.42902e-07
1.42817e-07
1.42724e-07
1.42636e-07
1.42544e-07
1.42457e-07
1.42367e-07
1.4228e-07
1.42197e-07
1.42116e-07
1.42036e-07
1.41954e-07
1.41872e-07
1.4179e-07
1.41712e-07
1.41641e-07
1.41572e-07
1.4151e-07
1.41449e-07
1.41394e-07
1.41343e-07
1.41301e-07
1.41271e-07
1.41252e-07
1.41241e-07
1.41242e-07
1.41259e-07
1.41294e-07
1.41352e-07
1.4143e-07
1.41527e-07
1.41656e-07
1.41823e-07
1.42024e-07
1.42252e-07
1.42511e-07
1.42819e-07
1.43225e-07
1.43747e-07
1.44338e-07
1.44923e-07
1.45447e-07
1.46017e-07
1.4686e-07
1.48205e-07
1.50187e-07
1.52557e-07
1.5491e-07
1.56928e-07
1.58335e-07
1.59566e-07
1.61812e-07
1.6651e-07
1.75232e-07
1.90367e-07
2.11216e-07
2.30844e-07
2.3418e-07
1.56027e-07
1.60276e-08
1.74077e-08
2.88637e-08
2.90606e-08
1.70954e-08
4.12065e-08
5.41414e-08
5.53591e-08
3.36166e-08
7.53055e-08
4.05836e-07
4.89181e-07
4.68635e-07
4.48118e-07
4.3046e-07
4.12511e-07
4.01035e-07
3.94628e-07
3.90885e-07
3.87743e-07
3.84142e-07
3.79783e-07
3.75171e-07
3.70977e-07
3.67734e-07
3.65597e-07
3.64262e-07
3.63276e-07
3.62296e-07
3.61228e-07
3.60203e-07
3.59352e-07
3.58734e-07
3.58279e-07
3.57911e-07
3.5761e-07
3.57357e-07
3.57178e-07
3.57072e-07
3.57022e-07
3.57012e-07
3.57051e-07
3.57119e-07
3.57249e-07
3.5739e-07
3.57563e-07
3.57764e-07
3.5799e-07
3.5823e-07
3.58468e-07
3.58741e-07
3.59015e-07
3.59325e-07
3.59609e-07
3.59909e-07
3.60207e-07
3.60517e-07
3.60816e-07
3.61119e-07
3.61412e-07
3.6171e-07
3.61982e-07
3.6222e-07
3.62503e-07
3.62785e-07
3.6308e-07
3.63375e-07
3.63671e-07
3.63939e-07
3.64199e-07
3.64442e-07
3.64676e-07
3.64905e-07
3.65128e-07
3.65359e-07
3.65588e-07
3.6583e-07
3.66063e-07
3.66242e-07
3.66452e-07
3.66699e-07
3.66889e-07
3.67082e-07
3.67253e-07
3.67457e-07
3.67619e-07
3.6781e-07
3.67951e-07
3.68121e-07
3.68206e-07
3.68429e-07
3.68698e-07
3.68923e-07
3.69243e-07
3.69588e-07
3.69932e-07
3.70349e-07
3.70893e-07
3.7148e-07
3.72187e-07
3.73006e-07
3.73912e-07
3.74858e-07
3.75778e-07
3.76705e-07
3.77674e-07
3.78656e-07
3.79572e-07
3.80364e-07
3.8092e-07
3.8131e-07
3.81645e-07
3.81804e-07
3.81673e-07
3.813e-07
3.8083e-07
3.80407e-07
3.80163e-07
3.80022e-07
3.79937e-07
3.79877e-07
3.79856e-07
3.79882e-07
3.79962e-07
3.80083e-07
3.80156e-07
3.80107e-07
3.79903e-07
3.7965e-07
3.79446e-07
3.79023e-07
3.78172e-07
3.76913e-07
3.75547e-07
3.73929e-07
3.71489e-07
3.68207e-07
3.64703e-07
3.60768e-07
3.55487e-07
3.49289e-07
3.43144e-07
3.35539e-07
3.25607e-07
3.12644e-07
2.89847e-07
2.59868e-07
2.27837e-07
2.29349e-07
2.83967e-07
3.0225e-07
2.36005e-07
1.04581e-07
2.07446e-08
4.93559e-11
2.45464e-08
1.17237e-07
2.50549e-07
2.89879e-07
2.12442e-07
1.82878e-07
2.30684e-07
2.8265e-07
3.18024e-07
3.39038e-07
3.52319e-07
3.58154e-07
3.6439e-07
3.67515e-07
3.6915e-07
3.71258e-07
3.72108e-07
3.72511e-07
3.73482e-07
3.73899e-07
3.74256e-07
3.74952e-07
3.75604e-07
3.75845e-07
3.76017e-07
3.76397e-07
3.76785e-07
3.76994e-07
3.77057e-07
3.77018e-07
3.77055e-07
3.77158e-07
3.77244e-07
3.77301e-07
3.77357e-07
3.77449e-07
3.77601e-07
3.77873e-07
3.78361e-07
3.78946e-07
3.79329e-07
3.79384e-07
3.79251e-07
3.78862e-07
3.78181e-07
3.77314e-07
3.76391e-07
3.7557e-07
3.74739e-07
3.73882e-07
3.73027e-07
3.72187e-07
3.71392e-07
3.70657e-07
3.69973e-07
3.69324e-07
3.68732e-07
3.68206e-07
3.67724e-07
3.67278e-07
3.66886e-07
3.66546e-07
3.66235e-07
3.65937e-07
3.65675e-07
3.6543e-07
3.65214e-07
3.65017e-07
3.64806e-07
3.64647e-07
3.64496e-07
3.64326e-07
3.64145e-07
3.63968e-07
3.63795e-07
3.63603e-07
3.63413e-07
3.63203e-07
3.62993e-07
3.62774e-07
3.62545e-07
3.62312e-07
3.62091e-07
3.61873e-07
3.61645e-07
3.61393e-07
3.6115e-07
3.60901e-07
3.60634e-07
3.60369e-07
3.60105e-07
3.59839e-07
3.59575e-07
3.5931e-07
3.5906e-07
3.58808e-07
3.58541e-07
3.58266e-07
3.57987e-07
3.5771e-07
3.57445e-07
3.57179e-07
3.56936e-07
3.56674e-07
3.56439e-07
3.56201e-07
3.55977e-07
3.5578e-07
3.55603e-07
3.55443e-07
3.55301e-07
3.5519e-07
3.55117e-07
3.55103e-07
3.55126e-07
3.55191e-07
3.55318e-07
3.55529e-07
3.5581e-07
3.56161e-07
3.56576e-07
3.57093e-07
3.57793e-07
3.58732e-07
3.59859e-07
3.61043e-07
3.62147e-07
3.63278e-07
3.64784e-07
3.67115e-07
3.70587e-07
3.75047e-07
3.79956e-07
3.84641e-07
3.88608e-07
3.92184e-07
3.96458e-07
4.03519e-07
4.15848e-07
4.34898e-07
4.534e-07
4.73951e-07
4.94915e-07
4.12258e-07
7.72546e-08
3.80067e-08
6.30155e-08
6.07057e-08
4.70212e-08
1.24489e-07
9.63168e-08
9.75491e-08
5.97913e-08
3.08757e-07
7.88019e-07
7.96313e-07
7.60299e-07
7.58881e-07
7.69129e-07
7.62204e-07
7.55e-07
7.50009e-07
7.45019e-07
7.38637e-07
7.31654e-07
7.24548e-07
7.18016e-07
7.13001e-07
7.09713e-07
7.07748e-07
7.06555e-07
7.05523e-07
7.0436e-07
7.03151e-07
7.02134e-07
7.01449e-07
7.01104e-07
7.0096e-07
7.00912e-07
7.00975e-07
7.01107e-07
7.01355e-07
7.01701e-07
7.02126e-07
7.02605e-07
7.03166e-07
7.03756e-07
7.04461e-07
7.05148e-07
7.05886e-07
7.06669e-07
7.07478e-07
7.08294e-07
7.09074e-07
7.0993e-07
7.10761e-07
7.11667e-07
7.12485e-07
7.13332e-07
7.14157e-07
7.14986e-07
7.15763e-07
7.16543e-07
7.17295e-07
7.18051e-07
7.18719e-07
7.19298e-07
7.20018e-07
7.20709e-07
7.2142e-07
7.22128e-07
7.22805e-07
7.23405e-07
7.23975e-07
7.24502e-07
7.25008e-07
7.25499e-07
7.2597e-07
7.2646e-07
7.26927e-07
7.27427e-07
7.27854e-07
7.28145e-07
7.28573e-07
7.29048e-07
7.29331e-07
7.29662e-07
7.29906e-07
7.30266e-07
7.30448e-07
7.30763e-07
7.30868e-07
7.31126e-07
7.31083e-07
7.31565e-07
7.3193e-07
7.32246e-07
7.32808e-07
7.33363e-07
7.33933e-07
7.34695e-07
7.35756e-07
7.36858e-07
7.38298e-07
7.39916e-07
7.41735e-07
7.43548e-07
7.45299e-07
7.47056e-07
7.48897e-07
7.50685e-07
7.52268e-07
7.53493e-07
7.54099e-07
7.54322e-07
7.54356e-07
7.5395e-07
7.52786e-07
7.51099e-07
7.49234e-07
7.47577e-07
7.46273e-07
7.45036e-07
7.43889e-07
7.42895e-07
7.42049e-07
7.41375e-07
7.4085e-07
7.40498e-07
7.40083e-07
7.39413e-07
7.38392e-07
7.37298e-07
7.36283e-07
7.34891e-07
7.32538e-07
7.29185e-07
7.25583e-07
7.2166e-07
7.1599e-07
7.08356e-07
7.00417e-07
6.91949e-07
6.80574e-07
6.67116e-07
6.54434e-07
6.3891e-07
6.17777e-07
5.90437e-07
5.41345e-07
4.78733e-07
4.17739e-07
4.38561e-07
5.78185e-07
6.20602e-07
4.64705e-07
1.9031e-07
3.7618e-08
1.41537e-10
4.45087e-08
2.15669e-07
4.9945e-07
5.98865e-07
4.18719e-07
3.32728e-07
4.23518e-07
5.32609e-07
6.06446e-07
6.52764e-07
6.80167e-07
6.92152e-07
7.05027e-07
7.10619e-07
7.13538e-07
7.17523e-07
7.18774e-07
7.19452e-07
7.21599e-07
7.22388e-07
7.23496e-07
7.25476e-07
7.27354e-07
7.28188e-07
7.29041e-07
7.30473e-07
7.31899e-07
7.32871e-07
7.33528e-07
7.34017e-07
7.34756e-07
7.35734e-07
7.36682e-07
7.37612e-07
7.38554e-07
7.39671e-07
7.40883e-07
7.42223e-07
7.43999e-07
7.46122e-07
7.47854e-07
7.48879e-07
7.49371e-07
7.49225e-07
7.48289e-07
7.46862e-07
7.45242e-07
7.43868e-07
7.4245e-07
7.40915e-07
7.3935e-07
7.37779e-07
7.36267e-07
7.34877e-07
7.33591e-07
7.32371e-07
7.31251e-07
7.30275e-07
7.29399e-07
7.28589e-07
7.27885e-07
7.27304e-07
7.26778e-07
7.26277e-07
7.25824e-07
7.25438e-07
7.25077e-07
7.24826e-07
7.24447e-07
7.24224e-07
7.2403e-07
7.23789e-07
7.23488e-07
7.23197e-07
7.22926e-07
7.22587e-07
7.22267e-07
7.21877e-07
7.21484e-07
7.21058e-07
7.20599e-07
7.20111e-07
7.19647e-07
7.19196e-07
7.18725e-07
7.18179e-07
7.17634e-07
7.1709e-07
7.16455e-07
7.15847e-07
7.15214e-07
7.14593e-07
7.13958e-07
7.133e-07
7.12684e-07
7.1206e-07
7.11391e-07
7.10688e-07
7.09957e-07
7.09216e-07
7.08487e-07
7.07739e-07
7.07045e-07
7.06279e-07
7.05574e-07
7.04838e-07
7.04113e-07
7.03426e-07
7.02767e-07
7.02124e-07
7.01496e-07
7.00909e-07
7.0037e-07
6.99943e-07
6.9957e-07
6.99257e-07
6.99033e-07
6.9894e-07
6.9895e-07
6.99093e-07
6.99339e-07
6.9973e-07
7.00359e-07
7.01351e-07
7.02707e-07
7.04287e-07
7.05845e-07
7.07318e-07
7.09003e-07
7.11501e-07
7.15382e-07
7.2106e-07
7.28309e-07
7.36177e-07
7.44004e-07
7.51347e-07
7.57443e-07
7.63664e-07
7.72325e-07
7.80971e-07
7.71348e-07
7.71584e-07
8.06322e-07
7.99901e-07
3.15859e-07
6.68456e-08
1.09727e-07
1.07504e-07
1.40135e-07
3.33785e-07
1.61852e-07
1.51574e-07
9.99121e-08
8.00864e-07
1.22497e-06
1.0743e-06
1.04988e-06
1.08955e-06
1.15589e-06
1.18016e-06
1.18896e-06
1.19107e-06
1.18653e-06
1.17686e-06
1.16681e-06
1.15847e-06
1.15253e-06
1.1498e-06
1.14947e-06
1.15001e-06
1.15062e-06
1.15074e-06
1.15048e-06
1.15032e-06
1.1506e-06
1.15137e-06
1.1525e-06
1.15375e-06
1.15504e-06
1.15646e-06
1.15794e-06
1.15955e-06
1.16126e-06
1.16303e-06
1.16484e-06
1.16675e-06
1.16867e-06
1.17074e-06
1.17272e-06
1.17476e-06
1.17684e-06
1.17892e-06
1.18097e-06
1.1829e-06
1.18496e-06
1.18694e-06
1.18903e-06
1.19092e-06
1.19284e-06
1.19468e-06
1.19649e-06
1.19817e-06
1.19985e-06
1.20147e-06
1.20306e-06
1.20445e-06
1.20566e-06
1.2072e-06
1.20863e-06
1.21008e-06
1.21151e-06
1.21283e-06
1.21398e-06
1.21507e-06
1.21606e-06
1.21701e-06
1.21792e-06
1.21879e-06
1.21968e-06
1.22051e-06
1.22139e-06
1.22206e-06
1.22246e-06
1.22321e-06
1.22398e-06
1.2243e-06
1.22477e-06
1.22503e-06
1.22554e-06
1.22562e-06
1.22603e-06
1.22592e-06
1.22621e-06
1.22581e-06
1.22669e-06
1.22702e-06
1.22736e-06
1.2282e-06
1.22893e-06
1.22973e-06
1.23096e-06
1.23276e-06
1.23456e-06
1.2371e-06
1.23985e-06
1.24298e-06
1.24595e-06
1.2488e-06
1.25164e-06
1.2546e-06
1.25732e-06
1.25955e-06
1.26096e-06
1.26105e-06
1.2604e-06
1.25929e-06
1.25727e-06
1.2537e-06
1.24922e-06
1.24453e-06
1.24043e-06
1.23692e-06
1.23331e-06
1.22983e-06
1.22679e-06
1.22411e-06
1.22184e-06
1.21988e-06
1.21839e-06
1.21688e-06
1.21491e-06
1.21225e-06
1.20945e-06
1.20673e-06
1.20359e-06
1.19862e-06
1.19157e-06
1.18395e-06
1.17627e-06
1.16549e-06
1.1508e-06
1.13571e-06
1.12062e-06
1.10027e-06
1.07569e-06
1.05366e-06
1.02735e-06
9.89281e-07
9.40714e-07
8.51988e-07
7.42638e-07
6.48687e-07
7.2275e-07
1.01809e-06
1.0878e-06
7.71479e-07
2.86705e-07
5.66869e-08
3.61428e-10
6.69808e-08
3.28844e-07
8.40508e-07
1.06086e-06
7.16507e-07
5.15307e-07
6.57504e-07
8.49829e-07
9.7717e-07
1.06402e-06
1.11029e-06
1.13153e-06
1.15374e-06
1.16149e-06
1.16602e-06
1.17195e-06
1.17308e-06
1.1741e-06
1.17787e-06
1.17887e-06
1.18142e-06
1.18578e-06
1.18979e-06
1.19163e-06
1.1939e-06
1.19745e-06
1.20088e-06
1.20333e-06
1.20518e-06
1.20685e-06
1.20917e-06
1.21206e-06
1.21489e-06
1.21774e-06
1.22061e-06
1.22394e-06
1.22741e-06
1.23095e-06
1.23524e-06
1.24042e-06
1.24502e-06
1.2484e-06
1.25064e-06
1.25155e-06
1.25074e-06
1.24887e-06
1.24652e-06
1.24467e-06
1.2427e-06
1.24041e-06
1.23799e-06
1.23549e-06
1.23304e-06
1.23077e-06
1.22871e-06
1.22674e-06
1.22492e-06
1.22336e-06
1.22199e-06
1.22073e-06
1.21964e-06
1.21879e-06
1.21804e-06
1.21733e-06
1.21667e-06
1.21616e-06
1.21566e-06
1.21546e-06
1.21489e-06
1.21465e-06
1.21449e-06
1.21425e-06
1.21385e-06
1.21345e-06
1.21311e-06
1.21261e-06
1.21216e-06
1.21155e-06
1.21091e-06
1.2102e-06
1.20941e-06
1.20853e-06
1.20769e-06
1.20687e-06
1.20603e-06
1.20501e-06
1.20395e-06
1.20293e-06
1.20166e-06
1.20046e-06
1.19917e-06
1.19792e-06
1.19663e-06
1.19526e-06
1.19397e-06
1.19267e-06
1.19126e-06
1.18976e-06
1.18818e-06
1.18655e-06
1.18493e-06
1.18323e-06
1.18163e-06
1.17985e-06
1.17818e-06
1.17641e-06
1.17463e-06
1.17288e-06
1.17115e-06
1.16941e-06
1.16765e-06
1.16593e-06
1.16423e-06
1.1627e-06
1.16122e-06
1.15979e-06
1.15845e-06
1.15726e-06
1.15619e-06
1.1553e-06
1.15454e-06
1.15392e-06
1.15349e-06
1.15347e-06
1.15401e-06
1.15505e-06
1.15624e-06
1.15712e-06
1.15761e-06
1.15822e-06
1.15976e-06
1.1638e-06
1.17114e-06
1.18094e-06
1.19261e-06
1.20407e-06
1.21057e-06
1.21046e-06
1.20377e-06
1.18172e-06
1.11518e-06
1.07194e-06
1.09129e-06
1.24323e-06
8.19069e-07
1.09818e-07
1.68025e-07
1.76996e-07
3.78323e-07
7.74561e-07
3.45854e-07
2.2365e-07
1.74496e-07
1.56795e-06
1.60203e-06
1.25015e-06
1.28472e-06
1.37755e-06
1.51776e-06
1.59125e-06
1.62787e-06
1.64333e-06
1.64233e-06
1.63151e-06
1.62096e-06
1.61514e-06
1.61439e-06
1.61872e-06
1.62564e-06
1.63208e-06
1.63707e-06
1.64048e-06
1.64314e-06
1.64616e-06
1.64992e-06
1.65424e-06
1.65875e-06
1.66315e-06
1.66743e-06
1.6718e-06
1.67617e-06
1.68062e-06
1.68511e-06
1.6896e-06
1.69405e-06
1.69857e-06
1.70304e-06
1.70767e-06
1.71207e-06
1.71648e-06
1.7209e-06
1.72526e-06
1.72948e-06
1.73346e-06
1.73759e-06
1.74155e-06
1.74564e-06
1.74934e-06
1.75304e-06
1.75657e-06
1.75998e-06
1.76316e-06
1.76633e-06
1.76934e-06
1.77229e-06
1.77482e-06
1.77712e-06
1.77995e-06
1.78257e-06
1.78518e-06
1.78774e-06
1.79002e-06
1.79202e-06
1.79388e-06
1.79557e-06
1.79717e-06
1.79871e-06
1.80016e-06
1.80164e-06
1.80296e-06
1.80436e-06
1.80528e-06
1.8058e-06
1.807e-06
1.80808e-06
1.80835e-06
1.80892e-06
1.80907e-06
1.8097e-06
1.80949e-06
1.8099e-06
1.80932e-06
1.80953e-06
1.80854e-06
1.80996e-06
1.81003e-06
1.8103e-06
1.81144e-06
1.81228e-06
1.81334e-06
1.81519e-06
1.81798e-06
1.82072e-06
1.82478e-06
1.82902e-06
1.83386e-06
1.83822e-06
1.84239e-06
1.8465e-06
1.8507e-06
1.8543e-06
1.85691e-06
1.85791e-06
1.85654e-06
1.85387e-06
1.85027e-06
1.8451e-06
1.83726e-06
1.82811e-06
1.8189e-06
1.81098e-06
1.80397e-06
1.79652e-06
1.78925e-06
1.78291e-06
1.77726e-06
1.77235e-06
1.768e-06
1.76463e-06
1.76143e-06
1.75751e-06
1.75238e-06
1.74686e-06
1.74133e-06
1.73571e-06
1.72705e-06
1.71456e-06
1.70082e-06
1.688e-06
1.67051e-06
1.64605e-06
1.62093e-06
1.59774e-06
1.56639e-06
1.52707e-06
1.49349e-06
1.45533e-06
1.39496e-06
1.31939e-06
1.17944e-06
1.0127e-06
8.92958e-07
1.07847e-06
1.62014e-06
1.692e-06
1.11908e-06
3.67235e-07
7.35395e-08
8.67183e-10
8.66178e-08
4.27213e-07
1.23733e-06
1.67458e-06
1.11509e-06
7.12607e-07
9.05684e-07
1.20338e-06
1.39076e-06
1.53549e-06
1.60029e-06
1.63439e-06
1.66701e-06
1.67459e-06
1.68103e-06
1.68746e-06
1.68719e-06
1.68866e-06
1.69387e-06
1.6943e-06
1.69917e-06
1.70712e-06
1.71399e-06
1.71704e-06
1.72164e-06
1.72858e-06
1.73503e-06
1.73957e-06
1.74311e-06
1.74671e-06
1.75165e-06
1.75765e-06
1.76353e-06
1.76945e-06
1.77541e-06
1.78227e-06
1.78934e-06
1.79638e-06
1.80456e-06
1.81456e-06
1.82398e-06
1.83164e-06
1.83727e-06
1.84051e-06
1.84056e-06
1.83861e-06
1.8357e-06
1.83368e-06
1.83141e-06
1.82844e-06
1.82513e-06
1.82159e-06
1.81801e-06
1.81469e-06
1.81167e-06
1.80881e-06
1.80614e-06
1.80385e-06
1.80189e-06
1.80011e-06
1.79857e-06
1.79745e-06
1.79646e-06
1.79556e-06
1.79467e-06
1.7941e-06
1.79346e-06
1.79345e-06
1.79272e-06
1.79252e-06
1.7925e-06
1.7924e-06
1.79194e-06
1.79146e-06
1.7911e-06
1.79045e-06
1.78989e-06
1.78903e-06
1.78811e-06
1.78704e-06
1.78582e-06
1.7844e-06
1.783e-06
1.78165e-06
1.78027e-06
1.77856e-06
1.77674e-06
1.77499e-06
1.77276e-06
1.77063e-06
1.76833e-06
1.76608e-06
1.76375e-06
1.76126e-06
1.75888e-06
1.75647e-06
1.75387e-06
1.75107e-06
1.74811e-06
1.74504e-06
1.74192e-06
1.73864e-06
1.73548e-06
1.732e-06
1.72863e-06
1.72508e-06
1.72144e-06
1.71779e-06
1.71413e-06
1.71039e-06
1.70654e-06
1.70266e-06
1.69876e-06
1.69505e-06
1.69133e-06
1.68762e-06
1.68393e-06
1.68038e-06
1.67689e-06
1.67361e-06
1.67043e-06
1.6673e-06
1.66417e-06
1.66132e-06
1.65916e-06
1.65783e-06
1.65696e-06
1.65547e-06
1.6525e-06
1.64812e-06
1.64329e-06
1.64114e-06
1.64417e-06
1.65239e-06
1.66556e-06
1.67927e-06
1.68334e-06
1.67076e-06
1.63682e-06
1.5657e-06
1.42357e-06
1.32357e-06
1.27834e-06
1.6275e-06
1.60442e-06
1.86521e-07
2.45206e-07
3.73231e-07
8.86378e-07
1.5712e-06
7.75693e-07
3.36494e-07
3.7577e-07
2.48283e-06
1.81633e-06
1.31136e-06
1.42391e-06
1.56626e-06
1.78033e-06
1.91137e-06
1.98296e-06
2.01666e-06
2.02337e-06
2.01586e-06
2.0096e-06
2.0116e-06
2.02154e-06
2.03805e-06
2.05666e-06
2.07267e-06
2.08509e-06
2.09455e-06
2.10287e-06
2.11185e-06
2.12182e-06
2.13227e-06
2.14252e-06
2.15226e-06
2.1616e-06
2.1709e-06
2.1801e-06
2.18926e-06
2.19832e-06
2.20727e-06
2.21602e-06
2.22473e-06
2.2333e-06
2.24195e-06
2.25015e-06
2.25827e-06
2.26632e-06
2.27416e-06
2.28168e-06
2.2888e-06
2.29604e-06
2.30299e-06
2.31001e-06
2.3164e-06
2.32273e-06
2.32872e-06
2.33448e-06
2.33987e-06
2.34522e-06