/*--------------------------------*- C++ -*----------------------------------*\
| =========                 |                                                 |
| \\      /  F ield         | OpenFOAM: The Open Source CFD Toolbox           |
|  \\    /   O peration     | Version:  2412                                  |
|   \\  /    A nd           | Website:  www.openfoam.com                      |
|    \\/     M anipulation  |                                                 |
\*---------------------------------------------------------------------------*/
FoamFile
{
    version     2.0;
    format      ascii;
    arch        "LSB;label=32;scalar=64";
    class       volScalarField;
    location    "20";
    object      nuTilda;
}
// * * * * * * * * * * * * * * * * * * * * * * * * * * * * * * * * * * * * * //

dimensions      [0 2 -1 0 0 0 0];

internalField   nonuniform List<scalar> 
32591
(
4.95002e-06
7.3075e-06
6.89326e-06
3.24444e-06
3.58057e-06
2.60688e-06
2.96277e-06
5.78932e-06
6.36441e-06
6.16603e-06
5.71962e-06
5.47093e-06
5.32013e-06
5.24318e-06
5.22846e-06
5.24163e-06
5.23444e-06
5.20491e-06
5.16013e-06
5.11006e-06
5.07033e-06
5.04545e-06
5.03215e-06
5.02338e-06
5.01137e-06
4.99616e-06
4.98353e-06
4.97108e-06
4.96204e-06
4.9543e-06
4.94712e-06
4.93899e-06
4.93512e-06
4.92852e-06
4.92343e-06
4.91908e-06
4.91541e-06
4.91052e-06
4.91045e-06
4.90669e-06
4.90416e-06
4.90216e-06
4.90061e-06
4.89945e-06
4.89848e-06
4.89753e-06
4.89465e-06
4.89967e-06
4.89729e-06
4.89732e-06
4.89795e-06
4.89861e-06
4.89949e-06
4.89763e-06
4.90541e-06
4.90247e-06
4.90792e-06
4.90494e-06
4.91329e-06
4.91311e-06
4.91554e-06
4.91863e-06
4.92169e-06
4.92541e-06
4.9289e-06
4.93292e-06
4.93424e-06
4.94314e-06
4.94181e-06
4.95444e-06
4.95195e-06
4.96338e-06
4.95832e-06
4.9779e-06
4.97766e-06
4.98337e-06
4.99071e-06
4.99847e-06
5.00613e-06
5.01392e-06
5.02211e-06
5.03181e-06
5.04068e-06
5.05056e-06
5.06083e-06
5.07194e-06
5.08307e-06
5.09009e-06
5.11152e-06
5.11127e-06
5.14213e-06
5.14177e-06
5.1717e-06
5.17451e-06
5.20546e-06
5.2079e-06
5.24471e-06
5.25715e-06
5.28676e-06
5.29575e-06
5.33706e-06
5.34825e-06
5.3838e-06
5.39586e-06
5.42435e-06
5.42958e-06
5.44966e-06
5.4431e-06
5.45578e-06
5.44347e-06
5.44663e-06
5.42477e-06
5.41068e-06
5.37303e-06
5.35528e-06
5.33594e-06
5.32156e-06
5.30388e-06
5.28587e-06
5.26572e-06
5.2426e-06
5.17217e-06
5.13534e-06
5.11678e-06
5.10729e-06
5.10352e-06
5.1034e-06
5.1068e-06
5.11014e-06
5.11221e-06
5.11279e-06
5.11096e-06
5.10539e-06
5.09661e-06
5.07627e-06
5.05077e-06
5.01965e-06
4.9908e-06
4.95503e-06
4.924e-06
4.91152e-06
4.94195e-06
5.01337e-06
5.10932e-06
5.17836e-06
5.18945e-06
4.97871e-06
4.15399e-06
2.52814e-06
5.49681e-07
2.65318e-06
4.24588e-06
5.04559e-06
5.23473e-06
5.18376e-06
5.05194e-06
4.89904e-06
4.79483e-06
4.78283e-06
4.83868e-06
4.90129e-06
4.95244e-06
4.98441e-06
5.01252e-06
5.03968e-06
5.05912e-06
5.06949e-06
5.0766e-06
5.07945e-06
5.08101e-06
5.08119e-06
5.08025e-06
5.07899e-06
5.08028e-06
5.08459e-06
5.09341e-06
5.10976e-06
5.14197e-06
5.20515e-06
5.22673e-06
5.2467e-06
5.26543e-06
5.28022e-06
5.29981e-06
5.30941e-06
5.33426e-06
5.36465e-06
5.3882e-06
5.38901e-06
5.40191e-06
5.40125e-06
5.40462e-06
5.38664e-06
5.38966e-06
5.36244e-06
5.35755e-06
5.31921e-06
5.31449e-06
5.27095e-06
5.26807e-06
5.23098e-06
5.22669e-06
5.19047e-06
5.18892e-06
5.15432e-06
5.15506e-06
5.12265e-06
5.12481e-06
5.09417e-06
5.09934e-06
5.06639e-06
5.06575e-06
5.05509e-06
5.0442e-06
5.03388e-06
5.02394e-06
5.01475e-06
5.00561e-06
4.99742e-06
4.98873e-06
4.98117e-06
4.97332e-06
4.96654e-06
4.95928e-06
4.95978e-06
4.93777e-06
4.94542e-06
4.92992e-06
4.93368e-06
4.92192e-06
4.92392e-06
4.91286e-06
4.91159e-06
4.90761e-06
4.90338e-06
4.89988e-06
4.89602e-06
4.89263e-06
4.88883e-06
4.88589e-06
4.88303e-06
4.8835e-06
4.87412e-06
4.87807e-06
4.86973e-06
4.87061e-06
4.86883e-06
4.86721e-06
4.86553e-06
4.86418e-06
4.86328e-06
4.86381e-06
4.86038e-06
4.8627e-06
4.85928e-06
4.8606e-06
4.86053e-06
4.86084e-06
4.86143e-06
4.86246e-06
4.86536e-06
4.86283e-06
4.86625e-06
4.86828e-06
4.87077e-06
4.87392e-06
4.87911e-06
4.87945e-06
4.88563e-06
4.8907e-06
4.89594e-06
4.90256e-06
4.91306e-06
4.9234e-06
4.93674e-06
4.94632e-06
4.95206e-06
4.96322e-06
4.98938e-06
5.03306e-06
5.08955e-06
5.13863e-06
5.16833e-06
5.17063e-06
5.14653e-06
5.15418e-06
5.24609e-06
5.4385e-06
5.73382e-06
6.2367e-06
6.49046e-06
5.94796e-06
3.48663e-06
2.71369e-06
3.6525e-06
3.3904e-06
7.07485e-06
7.68586e-06
5.71882e-06
1.30026e-05
1.62317e-05
1.60584e-05
1.31206e-05
8.53728e-06
7.50103e-06
1.14044e-05
1.72502e-05
1.79164e-05
1.75635e-05
1.68161e-05
1.63331e-05
1.60407e-05
1.58842e-05
1.58352e-05
1.58317e-05
1.57854e-05
1.56944e-05
1.55773e-05
1.54576e-05
1.53627e-05
1.52988e-05
1.52597e-05
1.52302e-05
1.5193e-05
1.51489e-05
1.51138e-05
1.50778e-05
1.50508e-05
1.50273e-05
1.50055e-05
1.49809e-05
1.497e-05
1.49498e-05
1.49344e-05
1.49212e-05
1.49101e-05
1.4895e-05
1.48956e-05
1.48839e-05
1.48763e-05
1.48704e-05
1.48659e-05
1.48626e-05
1.486e-05
1.48574e-05
1.48484e-05
1.48657e-05
1.48581e-05
1.48586e-05
1.48611e-05
1.48637e-05
1.48669e-05
1.4861e-05
1.48874e-05
1.48777e-05
1.48963e-05
1.48865e-05
1.4915e-05
1.49144e-05
1.49227e-05
1.49331e-05
1.49435e-05
1.4956e-05
1.49678e-05
1.49812e-05
1.49856e-05
1.50155e-05
1.50108e-05
1.50533e-05
1.50445e-05
1.50828e-05
1.50658e-05
1.51319e-05
1.513e-05
1.51487e-05
1.51728e-05
1.51985e-05
1.52237e-05
1.52493e-05
1.52764e-05
1.53084e-05
1.53373e-05
1.53698e-05
1.54032e-05
1.54393e-05
1.54752e-05
1.54979e-05
1.5568e-05
1.55667e-05
1.56683e-05
1.56657e-05
1.57638e-05
1.57715e-05
1.58723e-05
1.58792e-05
1.59998e-05
1.60369e-05
1.61301e-05
1.61568e-05
1.62879e-05
1.63189e-05
1.64287e-05
1.646e-05
1.65444e-05
1.65522e-05
1.66075e-05
1.65764e-05
1.66083e-05
1.65602e-05
1.65644e-05
1.64874e-05
1.64374e-05
1.63122e-05
1.62527e-05
1.61863e-05
1.6139e-05
1.60781e-05
1.60186e-05
1.59511e-05
1.5875e-05
1.56519e-05
1.55331e-05
1.54716e-05
1.54384e-05
1.54232e-05
1.54191e-05
1.54253e-05
1.54306e-05
1.54312e-05
1.54265e-05
1.54146e-05
1.53896e-05
1.53533e-05
1.52817e-05
1.51926e-05
1.50834e-05
1.49723e-05
1.48329e-05
1.47059e-05
1.46719e-05
1.48328e-05
1.51343e-05
1.54362e-05
1.55363e-05
1.52898e-05
1.42211e-05
1.13909e-05
6.89152e-06
1.69328e-06
7.216e-06
1.16419e-05
1.44228e-05
1.54446e-05
1.55904e-05
1.52823e-05
1.4737e-05
1.42777e-05
1.41963e-05
1.44023e-05
1.46482e-05
1.4842e-05
1.49655e-05
1.50681e-05
1.51611e-05
1.52305e-05
1.52708e-05
1.53017e-05
1.53158e-05
1.53265e-05
1.53326e-05
1.53346e-05
1.5335e-05
1.53429e-05
1.53602e-05
1.53914e-05
1.54462e-05
1.55509e-05
1.57518e-05
1.58236e-05
1.58903e-05
1.59538e-05
1.60041e-05
1.60709e-05
1.61057e-05
1.61887e-05
1.62904e-05
1.63728e-05
1.63824e-05
1.64297e-05
1.64362e-05
1.64567e-05
1.64081e-05
1.64262e-05
1.6347e-05
1.63383e-05
1.62202e-05
1.62104e-05
1.6073e-05
1.60668e-05
1.59488e-05
1.59375e-05
1.58209e-05
1.58177e-05
1.57054e-05
1.57092e-05
1.56035e-05
1.56117e-05
1.55111e-05
1.55293e-05
1.54207e-05
1.54187e-05
1.53843e-05
1.53491e-05
1.53154e-05
1.5283e-05
1.52528e-05
1.52228e-05
1.5196e-05
1.51673e-05
1.51425e-05
1.51165e-05
1.50941e-05
1.50701e-05
1.50728e-05
1.49985e-05
1.50244e-05
1.49723e-05
1.49853e-05
1.49458e-05
1.49529e-05
1.49159e-05
1.49118e-05
1.48986e-05
1.48846e-05
1.48728e-05
1.48598e-05
1.48485e-05
1.48358e-05
1.48258e-05
1.4816e-05
1.48177e-05
1.47857e-05
1.4799e-05
1.47706e-05
1.47734e-05
1.47673e-05
1.47616e-05
1.47557e-05
1.47509e-05
1.47475e-05
1.47491e-05
1.47372e-05
1.47447e-05
1.47328e-05
1.47368e-05
1.47362e-05
1.47368e-05
1.47382e-05
1.47411e-05
1.47502e-05
1.4741e-05
1.47516e-05
1.47575e-05
1.47648e-05
1.47742e-05
1.47902e-05
1.47898e-05
1.48083e-05
1.48235e-05
1.48393e-05
1.48587e-05
1.4889e-05
1.49173e-05
1.4956e-05
1.49857e-05
1.50054e-05
1.50377e-05
1.51064e-05
1.52156e-05
1.53576e-05
1.54897e-05
1.55814e-05
1.56107e-05
1.55755e-05
1.55967e-05
1.57946e-05
1.62071e-05
1.68157e-05
1.76937e-05
1.81513e-05
1.75992e-05
1.41125e-05
7.92501e-06
8.74899e-06
1.37807e-05
1.64781e-05
1.68516e-05
1.40742e-05
2.43974e-05
2.27959e-05
2.1763e-05
2.19699e-05
1.69684e-05
1.48495e-05
2.40294e-05
2.73774e-05
2.7668e-05
2.75998e-05
2.71154e-05
2.66957e-05
2.64436e-05
2.62964e-05
2.62187e-05
2.61694e-05
2.60884e-05
2.59721e-05
2.58414e-05
2.57193e-05
2.56234e-05
2.5556e-05
2.55103e-05
2.54723e-05
2.54282e-05
2.53798e-05
2.53418e-05
2.53041e-05
2.52757e-05
2.5251e-05
2.52286e-05
2.52044e-05
2.5194e-05
2.51752e-05
2.51614e-05
2.51501e-05
2.51411e-05
2.51287e-05
2.51318e-05
2.51231e-05
2.51185e-05
2.51157e-05
2.51145e-05
2.51146e-05
2.51154e-05
2.51163e-05
2.51112e-05
2.5132e-05
2.5128e-05
2.51322e-05
2.51383e-05
2.51444e-05
2.51511e-05
2.51489e-05
2.51787e-05
2.51723e-05
2.51942e-05
2.51881e-05
2.52199e-05
2.52222e-05
2.52336e-05
2.5247e-05
2.52602e-05
2.52756e-05
2.529e-05
2.53059e-05
2.53129e-05
2.53454e-05
2.53431e-05
2.53883e-05
2.53811e-05
2.54217e-05
2.5407e-05
2.54768e-05
2.54757e-05
2.54961e-05
2.55222e-05
2.55498e-05
2.55772e-05
2.56053e-05
2.56356e-05
2.56711e-05
2.57035e-05
2.57401e-05
2.5778e-05
2.58188e-05
2.58596e-05
2.58877e-05
2.59653e-05
2.59704e-05
2.60835e-05
2.60875e-05
2.61983e-05
2.62143e-05
2.63291e-05
2.63461e-05
2.64853e-05
2.65322e-05
2.66376e-05
2.6673e-05
2.68197e-05
2.68557e-05
2.69749e-05
2.70045e-05
2.70899e-05
2.70887e-05
2.71365e-05
2.70879e-05
2.71092e-05
2.70446e-05
2.70414e-05
2.69513e-05
2.68936e-05
2.67575e-05
2.6694e-05
2.66226e-05
2.6575e-05
2.65102e-05
2.6449e-05
2.63782e-05
2.62986e-05
2.6077e-05
2.59563e-05
2.5889e-05
2.58461e-05
2.58174e-05
2.57947e-05
2.57769e-05
2.57527e-05
2.57182e-05
2.56737e-05
2.56181e-05
2.55426e-05
2.54485e-05
2.53147e-05
2.51519e-05
2.49503e-05
2.47079e-05
2.43973e-05
2.41067e-05
2.40652e-05
2.45382e-05
2.53179e-05
2.58888e-05
2.57804e-05
2.47031e-05
2.21204e-05
1.70504e-05
1.03741e-05
2.92671e-06
1.08333e-05
1.74121e-05
2.24444e-05
2.49955e-05
2.59646e-05
2.56817e-05
2.45015e-05
2.33356e-05
2.30848e-05
2.35105e-05
2.40557e-05
2.44712e-05
2.47387e-05
2.49374e-05
2.50966e-05
2.52261e-05
2.53242e-05
2.54072e-05
2.54627e-05
2.55107e-05
2.55519e-05
2.55849e-05
2.5611e-05
2.56401e-05
2.5675e-05
2.57201e-05
2.57858e-05
2.58977e-05
2.61021e-05
2.61812e-05
2.62547e-05
2.6325e-05
2.63808e-05
2.64541e-05
2.64943e-05
2.65845e-05
2.66966e-05
2.67921e-05
2.68104e-05
2.68698e-05
2.68902e-05
2.69271e-05
2.68877e-05
2.69176e-05
2.68415e-05
2.68366e-05
2.67105e-05
2.66984e-05
2.65481e-05
2.65356e-05
2.6404e-05
2.63848e-05
2.62545e-05
2.62433e-05
2.61178e-05
2.6114e-05
2.59965e-05
2.59979e-05
2.58869e-05
2.58998e-05
2.57815e-05
2.57736e-05
2.57343e-05
2.56941e-05
2.56557e-05
2.56188e-05
2.55848e-05
2.55511e-05
2.5521e-05
2.54894e-05
2.54619e-05
2.54333e-05
2.54085e-05
2.53824e-05
2.53838e-05
2.5306e-05
2.53301e-05
2.52758e-05
2.52873e-05
2.5246e-05
2.52515e-05
2.52126e-05
2.52065e-05
2.51914e-05
2.51752e-05
2.51611e-05
2.51457e-05
2.51319e-05
2.51165e-05
2.51037e-05
2.5091e-05
2.509e-05
2.50549e-05
2.50651e-05
2.50337e-05
2.50333e-05
2.50243e-05
2.50156e-05
2.50067e-05
2.49988e-05
2.49924e-05
2.49909e-05
2.49762e-05
2.49807e-05
2.49661e-05
2.49672e-05
2.49641e-05
2.49621e-05
2.49612e-05
2.49619e-05
2.49689e-05
2.49582e-05
2.49671e-05
2.49721e-05
2.49787e-05
2.49878e-05
2.50039e-05
2.50047e-05
2.50245e-05
2.50422e-05
2.50612e-05
2.50844e-05
2.51188e-05
2.51529e-05
2.5199e-05
2.52391e-05
2.5271e-05
2.53135e-05
2.5389e-05
2.55028e-05
2.5651e-05
2.58018e-05
2.59255e-05
2.59977e-05
2.60191e-05
2.60775e-05
2.62651e-05
2.66278e-05
2.71647e-05
2.77635e-05
2.79174e-05
2.77558e-05
2.59955e-05
1.58456e-05
1.75567e-05
2.30365e-05
2.21088e-05
2.32218e-05
2.55543e-05
3.72525e-05
3.54242e-05
2.67574e-05
2.87835e-05
2.89088e-05
2.46698e-05
3.45704e-05
3.5567e-05
3.56825e-05
3.61861e-05
3.6202e-05
3.60217e-05
3.59093e-05
3.58117e-05
3.57122e-05
3.56237e-05
3.55356e-05
3.54399e-05
3.53525e-05
3.52827e-05
3.52275e-05
3.51847e-05
3.5151e-05
3.5121e-05
3.50899e-05
3.50597e-05
3.50387e-05
3.50184e-05
3.50045e-05
3.49933e-05
3.49844e-05
3.49755e-05
3.49766e-05
3.49723e-05
3.49718e-05
3.49733e-05
3.49764e-05
3.49776e-05
3.49898e-05
3.49936e-05
3.50004e-05
3.50085e-05
3.50176e-05
3.50277e-05
3.50383e-05
3.50488e-05
3.50554e-05
3.50798e-05
3.50864e-05
3.50987e-05
3.51119e-05
3.5125e-05
3.51384e-05
3.51456e-05
3.51748e-05
3.51779e-05
3.52012e-05
3.52051e-05
3.52351e-05
3.52431e-05
3.52578e-05
3.52737e-05
3.52893e-05
3.53059e-05
3.53213e-05
3.53376e-05
3.53476e-05
3.53756e-05
3.53786e-05
3.54152e-05
3.54128e-05
3.54456e-05
3.544e-05
3.54953e-05
3.54949e-05
3.55118e-05
3.55331e-05
3.55555e-05
3.55779e-05
3.56018e-05
3.56283e-05
3.56588e-05
3.5687e-05
3.57195e-05
3.57532e-05
3.57892e-05
3.58254e-05
3.58544e-05
3.5921e-05
3.59363e-05
3.60346e-05
3.60489e-05
3.61474e-05
3.61732e-05
3.62766e-05
3.63068e-05
3.64342e-05
3.64812e-05
3.6572e-05
3.66103e-05
3.67332e-05
3.6763e-05
3.68543e-05
3.68657e-05
3.6918e-05
3.68953e-05
3.69071e-05
3.68383e-05
3.68286e-05
3.6752e-05
3.67339e-05
3.66461e-05
3.65897e-05
3.64716e-05
3.64167e-05
3.63528e-05
3.63151e-05
3.6256e-05
3.62043e-05
3.61408e-05
3.60707e-05
3.58996e-05
3.57982e-05
3.57311e-05
3.56762e-05
3.56262e-05
3.55718e-05
3.55123e-05
3.54386e-05
3.5348e-05
3.52427e-05
3.5124e-05
3.49781e-05
3.48063e-05
3.4597e-05
3.4346e-05
3.40313e-05
3.36178e-05
3.30842e-05
3.25992e-05
3.26164e-05
3.3628e-05
3.51895e-05
3.61113e-05
3.54636e-05
3.29697e-05
2.84393e-05
2.11374e-05
1.30104e-05
4.25145e-06
1.3548e-05
2.15566e-05
2.88588e-05
3.34073e-05
3.58591e-05
3.58998e-05
3.38148e-05
3.1567e-05
3.09957e-05
3.16512e-05
3.25695e-05
3.32696e-05
3.37247e-05
3.40453e-05
3.42796e-05
3.44805e-05
3.46527e-05
3.48069e-05
3.49197e-05
3.50211e-05
3.51147e-05
3.51958e-05
3.52627e-05
3.53251e-05
3.53863e-05
3.54495e-05
3.55237e-05
3.56278e-05
3.57954e-05
3.58724e-05
3.59439e-05
3.6013e-05
3.60677e-05
3.61375e-05
3.618e-05
3.62609e-05
3.63622e-05
3.64563e-05
3.64883e-05
3.65535e-05
3.65966e-05
3.66563e-05
3.66526e-05
3.66995e-05
3.66606e-05
3.66694e-05
3.65755e-05
3.65673e-05
3.64468e-05
3.6429e-05
3.63179e-05
3.62923e-05
3.61808e-05
3.61598e-05
3.60515e-05
3.60356e-05
3.59345e-05
3.59235e-05
3.58289e-05
3.58285e-05
3.57299e-05
3.57135e-05
3.56779e-05
3.56422e-05
3.56076e-05
3.55746e-05
3.55443e-05
3.55148e-05
3.54888e-05
3.54618e-05
3.54382e-05
3.54141e-05
3.53931e-05
3.53713e-05
3.5371e-05
3.53102e-05
3.53235e-05
3.52816e-05
3.52872e-05
3.52551e-05
3.52563e-05
3.52255e-05
3.52177e-05
3.52035e-05
3.51881e-05
3.51738e-05
3.51582e-05
3.51434e-05
3.5127e-05
3.5112e-05
3.50967e-05
3.509e-05
3.50584e-05
3.50586e-05
3.50295e-05
3.50219e-05
3.50084e-05
3.49951e-05
3.49813e-05
3.49681e-05
3.49557e-05
3.49467e-05
3.49283e-05
3.49233e-05
3.49051e-05
3.48977e-05
3.48874e-05
3.4878e-05
3.48692e-05
3.48616e-05
3.48586e-05
3.48434e-05
3.48419e-05
3.48383e-05
3.48361e-05
3.48361e-05
3.48415e-05
3.48369e-05
3.48459e-05
3.48549e-05
3.48657e-05
3.48801e-05
3.49024e-05
3.49254e-05
3.49591e-05
3.49927e-05
3.50241e-05
3.50614e-05
3.51156e-05
3.51892e-05
3.52833e-05
3.53916e-05
3.54999e-05
3.55905e-05
3.56695e-05
3.57638e-05
3.58933e-05
3.60822e-05
3.63448e-05
3.64015e-05
3.59443e-05
3.58953e-05
3.59e-05
2.6556e-05
3.00251e-05
3.01938e-05
2.78138e-05
3.62362e-05
3.93385e-05
5.05445e-05
5.06787e-05
3.67645e-05
3.48249e-05
3.74555e-05
3.28108e-05
4.28331e-05
4.18663e-05
4.21681e-05
4.32791e-05
4.38247e-05
4.39542e-05
4.40153e-05
4.39852e-05
4.38854e-05
4.37887e-05
4.37295e-05
4.36951e-05
4.36905e-05
4.37049e-05
4.37149e-05
4.3715e-05
4.37095e-05
4.37041e-05
4.3703e-05
4.37074e-05
4.37188e-05
4.37291e-05
4.37417e-05
4.37557e-05
4.37714e-05
4.3788e-05
4.38109e-05
4.38302e-05
4.38516e-05
4.3874e-05
4.38972e-05
4.39192e-05
4.39476e-05
4.39704e-05
4.39948e-05
4.40197e-05
4.40448e-05
4.40702e-05
4.40956e-05
4.41207e-05
4.41434e-05
4.41763e-05
4.41974e-05
4.42215e-05
4.42456e-05
4.42691e-05
4.42924e-05
4.43119e-05
4.43438e-05
4.43586e-05
4.43866e-05
4.44029e-05
4.44339e-05
4.44492e-05
4.44692e-05
4.44894e-05
4.4509e-05
4.45283e-05
4.4546e-05
4.45637e-05
4.45778e-05
4.46028e-05
4.46115e-05
4.46409e-05
4.4643e-05
4.46694e-05
4.46733e-05
4.47159e-05
4.47144e-05
4.4728e-05
4.47444e-05
4.47616e-05
4.47793e-05
4.47993e-05
4.48225e-05
4.48484e-05
4.48723e-05
4.49009e-05
4.49303e-05
4.49614e-05
4.49927e-05
4.50229e-05
4.50795e-05
4.51054e-05
4.5191e-05
4.52146e-05
4.53028e-05
4.53374e-05
4.54311e-05
4.54747e-05
4.55917e-05
4.56341e-05
4.57071e-05
4.5745e-05
4.58402e-05
4.58558e-05
4.5911e-05
4.58922e-05
4.58997e-05
4.58418e-05
4.58043e-05
4.57012e-05
4.56496e-05
4.55503e-05
4.55101e-05
4.54138e-05
4.53497e-05
4.52381e-05
4.51842e-05
4.51189e-05
4.50848e-05
4.50209e-05
4.49706e-05
4.49046e-05
4.4835e-05
4.47007e-05
4.46079e-05
4.4532e-05
4.44571e-05
4.43787e-05
4.42853e-05
4.41767e-05
4.40459e-05
4.38916e-05
4.37191e-05
4.35328e-05
4.33109e-05
4.30559e-05
4.27661e-05
4.24212e-05
4.19817e-05
4.13788e-05
4.06026e-05
3.99381e-05
4.01278e-05
4.1903e-05
4.44715e-05
4.5738e-05
4.41844e-05
3.9803e-05
3.3076e-05
2.36915e-05
1.48836e-05
5.68172e-06
1.54508e-05
2.41092e-05
3.35594e-05
4.03723e-05
4.48357e-05
4.55697e-05
4.24685e-05
3.88286e-05
3.77555e-05
3.8599e-05
3.99137e-05
4.09247e-05
4.15886e-05
4.20442e-05
4.2358e-05
4.26348e-05
4.2884e-05
4.31146e-05
4.32872e-05
4.3446e-05
4.35976e-05
4.37323e-05
4.38449e-05
4.39472e-05
4.40417e-05
4.41301e-05
4.42211e-05
4.43275e-05
4.44721e-05
4.45567e-05
4.46357e-05
4.47137e-05
4.47759e-05
4.4852e-05
4.49052e-05
4.49862e-05
4.50874e-05
4.51928e-05
4.52484e-05
4.53282e-05
4.54045e-05
4.55005e-05
4.55454e-05
4.56228e-05
4.56334e-05
4.56677e-05
4.56146e-05
4.56194e-05
4.55341e-05
4.55161e-05
4.54281e-05
4.53999e-05
4.53084e-05
4.52802e-05
4.51888e-05
4.51623e-05
4.50766e-05
4.50544e-05
4.49745e-05
4.49623e-05
4.48814e-05
4.48558e-05
4.4824e-05
4.4793e-05
4.47624e-05
4.47331e-05
4.47066e-05
4.46812e-05
4.46591e-05
4.46367e-05
4.46169e-05
4.4597e-05
4.45797e-05
4.45621e-05
4.45613e-05
4.45157e-05
4.45184e-05
4.44872e-05
4.44874e-05
4.44635e-05
4.44606e-05
4.44371e-05
4.44273e-05
4.44134e-05
4.43981e-05
4.43827e-05
4.43658e-05
4.43487e-05
4.43299e-05
4.43113e-05
4.42916e-05
4.42778e-05
4.42468e-05
4.42354e-05
4.42055e-05
4.41884e-05
4.41679e-05
4.41471e-05
4.41257e-05
4.4104e-05
4.40824e-05
4.40624e-05
4.40364e-05
4.40184e-05
4.39921e-05
4.3972e-05
4.39502e-05
4.39283e-05
4.39066e-05
4.38853e-05
4.38667e-05
4.38403e-05
4.38221e-05
4.3803e-05
4.37848e-05
4.3768e-05
4.37547e-05
4.37351e-05
4.37241e-05
4.37141e-05
4.37061e-05
4.37003e-05
4.36983e-05
4.36958e-05
4.37014e-05
4.37124e-05
4.37272e-05
4.37437e-05
4.37593e-05
4.37696e-05
4.37787e-05
4.38049e-05
4.38558e-05
4.39266e-05
4.40275e-05
4.4132e-05
4.41878e-05
4.41766e-05
4.41012e-05
4.35936e-05
4.24963e-05
4.21549e-05
4.36909e-05
3.658e-05
3.86096e-05
3.66594e-05
3.88414e-05
5.23361e-05
5.39405e-05
6.36897e-05
6.77319e-05
5.04175e-05
4.12432e-05
4.32205e-05
4.3684e-05
4.88775e-05
4.648e-05
4.72447e-05
4.88091e-05
4.983e-05
5.02819e-05
5.05242e-05
5.05789e-05
5.05126e-05
5.04483e-05
5.04532e-05
5.05122e-05
5.06153e-05
5.07316e-05
5.08216e-05
5.08787e-05
5.09166e-05
5.09516e-05
5.09953e-05
5.10472e-05
5.11028e-05
5.11542e-05
5.12036e-05
5.12523e-05
5.13019e-05
5.13523e-05
5.14057e-05
5.14558e-05
5.15062e-05
5.15561e-05
5.16056e-05
5.16539e-05
5.17049e-05
5.17517e-05
5.17985e-05
5.18448e-05
5.18904e-05
5.19355e-05
5.19799e-05
5.20234e-05
5.20652e-05
5.21116e-05
5.21497e-05
5.21887e-05
5.22267e-05
5.22634e-05
5.22994e-05
5.23327e-05
5.23717e-05
5.23994e-05
5.24356e-05
5.24651e-05
5.25008e-05
5.25246e-05
5.25518e-05
5.25783e-05
5.26036e-05
5.26273e-05
5.26489e-05
5.26698e-05
5.26889e-05
5.27137e-05
5.2728e-05
5.27537e-05
5.27595e-05
5.27831e-05
5.27954e-05
5.28302e-05
5.28264e-05
5.28379e-05
5.28511e-05
5.28648e-05
5.28795e-05
5.28977e-05
5.29197e-05
5.29431e-05
5.29645e-05
5.29915e-05
5.30186e-05
5.30467e-05
5.30753e-05
5.31081e-05
5.31602e-05
5.31966e-05
5.32775e-05
5.33087e-05
5.33943e-05
5.34366e-05
5.35281e-05
5.3584e-05
5.36984e-05
5.37333e-05
5.37917e-05
5.38262e-05
5.38984e-05
5.38936e-05
5.39128e-05
5.38545e-05
5.3813e-05
5.37082e-05
5.36147e-05
5.34637e-05
5.33645e-05
5.3231e-05
5.31629e-05
5.30433e-05
5.29599e-05
5.28364e-05
5.27732e-05
5.2695e-05
5.26554e-05
5.25747e-05
5.25155e-05
5.2435e-05
5.23549e-05
5.22348e-05
5.21369e-05
5.20431e-05
5.19417e-05
5.18304e-05
5.16941e-05
5.15345e-05
5.1345e-05
5.11264e-05
5.08882e-05
5.0638e-05
5.03434e-05
5.00099e-05
4.96435e-05
4.92097e-05
4.86452e-05
4.78522e-05
4.68392e-05
4.60491e-05
4.65696e-05
4.93253e-05
5.30162e-05
5.44862e-05
5.16444e-05
4.50029e-05
3.59817e-05
2.47969e-05
1.61217e-05
7.26345e-06
1.66774e-05
2.51462e-05
3.64991e-05
4.56768e-05
5.25584e-05
5.44074e-05
5.03816e-05
4.51145e-05
4.33396e-05
4.42945e-05
4.59927e-05
4.7309e-05
4.81837e-05
4.87719e-05
4.91613e-05
4.95104e-05
4.983e-05
5.01326e-05
5.03603e-05
5.05748e-05
5.07836e-05
5.09712e-05
5.11289e-05
5.12736e-05
5.14051e-05
5.15238e-05
5.16388e-05
5.17588e-05
5.19012e-05
5.20039e-05
5.21013e-05
5.21996e-05
5.22788e-05
5.23728e-05
5.24458e-05
5.25399e-05
5.26564e-05
5.27893e-05
5.28774e-05
5.29825e-05
5.30996e-05
5.32438e-05
5.33437e-05
5.34647e-05
5.35293e-05
5.35999e-05
5.35873e-05
5.36141e-05
5.35597e-05
5.35474e-05
5.34773e-05
5.34508e-05
5.33733e-05
5.33413e-05
5.32597e-05
5.32254e-05
5.31477e-05
5.31166e-05
5.3044e-05
5.30229e-05
5.29514e-05
5.29163e-05
5.2886e-05
5.28578e-05
5.28293e-05
5.28017e-05
5.27771e-05
5.27537e-05
5.27339e-05
5.27141e-05
5.26965e-05
5.26792e-05
5.2664e-05
5.26488e-05
5.26488e-05
5.26124e-05
5.26064e-05
5.25815e-05
5.25772e-05
5.25583e-05
5.25521e-05
5.2533e-05
5.25207e-05
5.2506e-05
5.24894e-05
5.24717e-05
5.2452e-05
5.24313e-05
5.24083e-05
5.23843e-05
5.23583e-05
5.23366e-05
5.23024e-05
5.22789e-05
5.22442e-05
5.22161e-05
5.21861e-05
5.21556e-05
5.21238e-05
5.2091e-05
5.20573e-05
5.20239e-05
5.19863e-05
5.19528e-05
5.19141e-05
5.18781e-05
5.18407e-05
5.18026e-05
5.17637e-05
5.17242e-05
5.16857e-05
5.16419e-05
5.1602e-05
5.15615e-05
5.1521e-05
5.14808e-05
5.14422e-05
5.13991e-05
5.13603e-05
5.13227e-05
5.12865e-05
5.12507e-05
5.12145e-05
5.11749e-05
5.11404e-05
5.11142e-05
5.10968e-05
5.10778e-05
5.10424e-05
5.09767e-05
5.0886e-05
5.08067e-05
5.07679e-05
5.07818e-05
5.08587e-05
5.09364e-05
5.09051e-05
5.06981e-05
5.02853e-05
4.92834e-05
4.77121e-05
4.68132e-05
4.93711e-05
4.60475e-05
4.44948e-05
4.38323e-05
5.39734e-05
7.05443e-05
6.87237e-05
7.62989e-05
8.63843e-05
6.74425e-05
4.89326e-05
4.72296e-05
5.15934e-05
5.2806e-05
4.96235e-05
5.09382e-05
5.27352e-05
5.41543e-05
5.49135e-05
5.53372e-05
5.54984e-05
5.5505e-05
5.55136e-05
5.56119e-05
5.57867e-05
5.60111e-05
5.62382e-05
5.64179e-05
5.65443e-05
5.66398e-05
5.67301e-05
5.68314e-05
5.69414e-05
5.70513e-05
5.71528e-05
5.7248e-05
5.73403e-05
5.74322e-05
5.75239e-05
5.76155e-05
5.77029e-05
5.77885e-05
5.7872e-05
5.79534e-05
5.80329e-05
5.81123e-05
5.81874e-05
5.8261e-05
5.83329e-05
5.8403e-05
5.84716e-05
5.85386e-05
5.8604e-05
5.86675e-05
5.87317e-05
5.87892e-05
5.88459e-05
5.89003e-05
5.89527e-05
5.90037e-05
5.90524e-05
5.91021e-05
5.91439e-05
5.91913e-05
5.92347e-05
5.92782e-05
5.93116e-05
5.93476e-05
5.9382e-05
5.94145e-05
5.94442e-05
5.9471e-05
5.94966e-05
5.95214e-05
5.95485e-05
5.95683e-05
5.95931e-05
5.96021e-05
5.96262e-05
5.96458e-05
5.96766e-05
5.96698e-05
5.96804e-05
5.96919e-05
5.97038e-05
5.97174e-05
5.97356e-05
5.97582e-05
5.97811e-05
5.98021e-05
5.98295e-05
5.98561e-05
5.98832e-05
5.99116e-05
5.99486e-05
6.00014e-05
6.00484e-05
6.01313e-05
6.01693e-05
6.02587e-05
6.03082e-05
6.0404e-05
6.04713e-05
6.05883e-05
6.06133e-05
6.06598e-05
6.06879e-05
6.07399e-05
6.07091e-05
6.06914e-05
6.05856e-05
6.04911e-05
6.03298e-05
6.01756e-05
5.99671e-05
5.98175e-05
5.96422e-05
5.95424e-05
5.93889e-05
5.92771e-05
5.91283e-05
5.90482e-05
5.89494e-05
5.88968e-05
5.87909e-05
5.87149e-05
5.86113e-05
5.85128e-05
5.83894e-05
5.8277e-05
5.81591e-05
5.8027e-05
5.78806e-05
5.77004e-05
5.74909e-05
5.72446e-05
5.69657e-05
5.66681e-05
5.63634e-05
5.60062e-05
5.56068e-05
5.51765e-05
5.46692e-05
5.39906e-05
5.30234e-05
5.18039e-05
5.09795e-05
5.20331e-05
5.59639e-05
6.07695e-05
6.21656e-05
5.7624e-05
4.84209e-05
3.7152e-05
2.49486e-05
1.69023e-05
9.09822e-06
1.74141e-05
2.52707e-05
3.76808e-05
4.91645e-05
5.87802e-05
6.22151e-05
5.75438e-05
5.05098e-05
4.78345e-05
4.88048e-05
5.08416e-05
5.24245e-05
5.34939e-05
5.41937e-05
5.46458e-05
5.50559e-05
5.54309e-05
5.57924e-05
5.60656e-05
5.63302e-05
5.65909e-05
5.68266e-05
5.70248e-05
5.72117e-05
5.73811e-05
5.75319e-05
5.76746e-05
5.78152e-05
5.79707e-05
5.80989e-05
5.82223e-05
5.83485e-05
5.84515e-05
5.85712e-05
5.86703e-05
5.8787e-05
5.89302e-05
5.91024e-05
5.92295e-05
5.93673e-05
5.95296e-05
5.97296e-05
5.98886e-05
6.00634e-05
6.01851e-05
6.03012e-05
6.03295e-05
6.03863e-05
6.03602e-05
6.03588e-05
6.03026e-05
6.02815e-05
6.02135e-05
6.01809e-05
6.01034e-05
6.00634e-05
5.99876e-05
5.99495e-05
5.98777e-05
5.98497e-05
5.97805e-05
5.97356e-05
5.97041e-05
5.96766e-05
5.96484e-05
5.96205e-05
5.95959e-05
5.95725e-05
5.95532e-05
5.95342e-05
5.95173e-05
5.95006e-05
5.94862e-05
5.94718e-05
5.94731e-05
5.94413e-05
5.94283e-05
5.94056e-05
5.93976e-05
5.93809e-05
5.93718e-05
5.93544e-05
5.93394e-05
5.93228e-05
5.93038e-05
5.92827e-05
5.92589e-05
5.92334e-05
5.92048e-05
5.91741e-05
5.91403e-05
5.91098e-05
5.90691e-05
5.90334e-05
5.89904e-05
5.895e-05
5.89084e-05
5.88658e-05
5.88214e-05
5.87751e-05
5.87269e-05
5.86777e-05
5.86251e-05
5.85739e-05
5.85188e-05
5.8464e-05
5.84078e-05
5.83497e-05
5.82899e-05
5.82283e-05
5.81661e-05
5.80994e-05
5.80334e-05
5.79662e-05
5.78979e-05
5.78285e-05
5.77587e-05
5.76845e-05
5.76111e-05
5.75379e-05
5.74651e-05
5.73906e-05
5.73116e-05
5.72255e-05
5.71407e-05
5.70652e-05
5.70012e-05
5.69331e-05
5.68359e-05
5.66868e-05
5.64901e-05
5.62937e-05
5.61435e-05
5.60684e-05
5.6079e-05
5.60899e-05
5.59537e-05
5.556e-05
5.48363e-05
5.34299e-05
5.16062e-05
5.01335e-05
5.30565e-05
5.33136e-05
4.87927e-05
5.3304e-05
7.31944e-05
9.08298e-05
8.3277e-05
8.80915e-05
0.000106613
8.82629e-05
6.08064e-05
5.0757e-05
5.7376e-05
5.48326e-05
5.14467e-05
5.32238e-05
5.50641e-05
5.68075e-05
5.7849e-05
5.84558e-05
5.87476e-05
5.8865e-05
5.89793e-05
5.91928e-05
5.94955e-05
5.98464e-05
6.01877e-05
6.04642e-05
6.06709e-05
6.08374e-05
6.09958e-05
6.11655e-05
6.13425e-05
6.15151e-05
6.16748e-05
6.18242e-05
6.19682e-05
6.21101e-05
6.225e-05
6.23868e-05
6.25177e-05
6.26444e-05
6.2767e-05
6.28858e-05
6.30012e-05
6.31139e-05
6.32216e-05
6.33262e-05
6.34277e-05
6.35262e-05
6.3622e-05
6.37153e-05
6.38058e-05
6.38938e-05
6.39794e-05
6.40587e-05
6.41356e-05
6.42091e-05
6.42796e-05
6.43479e-05
6.44136e-05
6.44769e-05
6.45342e-05
6.45954e-05
6.46534e-05
6.47071e-05
6.47514e-05
6.47977e-05
6.48413e-05
6.48823e-05
6.49193e-05
6.49525e-05
6.49841e-05
6.50153e-05
6.50465e-05
6.50719e-05
6.5098e-05
6.51103e-05
6.5137e-05
6.51631e-05
6.5192e-05
6.51822e-05
6.51931e-05
6.52042e-05
6.52158e-05
6.52298e-05
6.52497e-05
6.52744e-05
6.52985e-05
6.53207e-05
6.53503e-05
6.53782e-05
6.54063e-05
6.54368e-05
6.548e-05
6.55377e-05
6.55962e-05
6.56859e-05
6.57313e-05
6.58287e-05
6.5886e-05
6.59903e-05
6.60683e-05
6.61896e-05
6.62029e-05
6.62384e-05
6.62567e-05
6.62879e-05
6.62255e-05
6.61671e-05
6.60063e-05
6.58535e-05
6.56279e-05
6.54087e-05
6.51373e-05
6.49359e-05
6.47156e-05
6.4582e-05
6.43885e-05
6.4243e-05
6.40617e-05
6.39605e-05
6.38374e-05
6.37669e-05
6.36313e-05
6.35335e-05
6.34021e-05
6.32807e-05
6.31438e-05
6.30116e-05
6.28667e-05
6.27026e-05
6.25212e-05
6.22984e-05
6.20433e-05
6.17456e-05
6.14155e-05
6.10702e-05
6.07263e-05
6.03238e-05
5.98801e-05
5.94087e-05
5.8856e-05
5.80887e-05
5.69845e-05
5.56178e-05
5.48889e-05
5.67179e-05
6.19649e-05
6.77308e-05
6.86396e-05
6.19497e-05
4.99559e-05
3.66389e-05
2.42073e-05
1.74382e-05
1.11876e-05
1.78822e-05
2.45163e-05
3.71618e-05
5.07282e-05
6.33082e-05
6.88422e-05
6.3976e-05
5.51675e-05
5.14322e-05
5.23247e-05
5.46206e-05
5.63901e-05
5.76145e-05
5.83801e-05
5.88706e-05
5.93209e-05
5.97249e-05
6.01224e-05
6.04261e-05
6.07305e-05
6.10318e-05
6.13063e-05
6.15366e-05
6.17623e-05
6.19671e-05
6.2148e-05
6.23187e-05
6.24818e-05
6.26592e-05
6.28159e-05
6.29689e-05
6.31266e-05
6.32568e-05
6.34058e-05
6.35344e-05
6.36793e-05
6.38551e-05
6.4073e-05
6.42431e-05
6.44177e-05
6.46263e-05
6.48857e-05
6.51068e-05
6.53428e-05
6.55251e-05
6.56944e-05
6.57667e-05
6.5861e-05
6.58639e-05
6.58783e-05
6.58345e-05
6.5822e-05
6.57617e-05
6.57308e-05
6.56543e-05
6.561e-05
6.55319e-05
6.54875e-05
6.54121e-05
6.53779e-05
6.53062e-05
6.52506e-05
6.52153e-05
6.51865e-05
6.51566e-05
6.51265e-05
6.51001e-05
6.50751e-05
6.50547e-05
6.50348e-05
6.5017e-05
6.49995e-05
6.49845e-05
6.49694e-05
6.4972e-05
6.49419e-05
6.49229e-05
6.48997e-05
6.48881e-05
6.48714e-05
6.48595e-05
6.48419e-05
6.48237e-05
6.48043e-05
6.4782e-05
6.47566e-05
6.47278e-05
6.46964e-05
6.46611e-05
6.46225e-05
6.45797e-05
6.45392e-05
6.44896e-05
6.4441e-05
6.43872e-05
6.43331e-05
6.42779e-05
6.42212e-05
6.41619e-05
6.40998e-05
6.40348e-05
6.39676e-05
6.38969e-05
6.38256e-05
6.37509e-05
6.36745e-05
6.3596e-05
6.35147e-05
6.34304e-05
6.33431e-05
6.32535e-05
6.31591e-05
6.30628e-05
6.29641e-05
6.28629e-05
6.27589e-05
6.26524e-05
6.25404e-05
6.2426e-05
6.23103e-05
6.21932e-05
6.20722e-05
6.19427e-05
6.18021e-05
6.16588e-05
6.15238e-05
6.14009e-05
6.12712e-05
6.11027e-05
6.0865e-05
6.05612e-05
6.02443e-05
5.99715e-05
5.97852e-05
5.9695e-05
5.96022e-05
5.93394e-05
5.87639e-05
5.77613e-05
5.60288e-05
5.41259e-05
5.23212e-05
5.4984e-05
5.861e-05
5.28086e-05
6.75862e-05
9.70665e-05
0.000113289
9.72864e-05
9.88502e-05
0.000128456
0.0001136
7.67136e-05
5.6648e-05
6.1066e-05
5.52327e-05
5.21775e-05
5.4086e-05
5.58514e-05
5.78583e-05
5.91552e-05
5.99477e-05
6.03925e-05
6.06491e-05
6.08917e-05
6.12322e-05
6.16657e-05
6.21419e-05
6.25978e-05
6.29765e-05
6.32729e-05
6.35216e-05
6.37587e-05
6.40051e-05
6.42561e-05
6.44982e-05
6.47232e-05
6.49343e-05
6.51375e-05
6.53363e-05
6.55308e-05
6.57191e-05
6.58992e-05
6.60725e-05
6.62394e-05
6.64004e-05
6.65563e-05
6.6707e-05
6.68514e-05
6.69911e-05
6.7126e-05
6.72567e-05
6.73836e-05
6.75065e-05
6.76254e-05
6.77405e-05
6.7851e-05
6.79547e-05
6.80545e-05
6.81495e-05
6.82405e-05
6.83283e-05