/*--------------------------------*- C++ -*----------------------------------*\
| =========                 |                                                 |
| \\      /  F ield         | OpenFOAM: The Open Source CFD Toolbox           |
|  \\    /   O peration     | Version:  2412                                  |
|   \\  /    A nd           | Website:  www.openfoam.com                      |
|    \\/     M anipulation  |                                                 |
\*---------------------------------------------------------------------------*/
FoamFile
{
    version     2.0;
    format      ascii;
    arch        "LSB;label=32;scalar=64";
    class       volScalarField;
    location    "20";
    object      nuTilda;
}
// * * * * * * * * * * * * * * * * * * * * * * * * * * * * * * * * * * * * * //

dimensions      [0 2 -1 0 0 0 0];

internalField   nonuniform List<scalar> 
29601
(
1.80473e-06
2.33321e-06
2.03437e-06
1.85044e-06
1.59421e-06
2.42704e-06
3.50364e-06
3.75416e-06
3.58554e-06
3.3091e-06
3.13887e-06
3.04793e-06
2.99866e-06
2.97994e-06
2.97956e-06
2.97967e-06
2.97188e-06
2.95887e-06
2.94159e-06
2.92464e-06
2.91292e-06
2.90596e-06
2.9022e-06
2.89934e-06
2.89573e-06
2.89155e-06
2.88745e-06
2.88416e-06
2.88156e-06
2.87942e-06
2.8774e-06
2.87553e-06
2.87385e-06
2.87239e-06
2.87116e-06
2.87008e-06
2.86907e-06
2.86828e-06
2.86751e-06
2.86687e-06
2.86632e-06
2.86585e-06
2.86549e-06
2.86518e-06
2.86498e-06
2.86477e-06
2.86468e-06
2.86459e-06
2.86458e-06
2.86452e-06
2.86457e-06
2.86465e-06
2.86482e-06
2.86503e-06
2.8652e-06
2.8654e-06
2.86569e-06
2.86603e-06
2.8662e-06
2.86643e-06
2.86674e-06
2.86706e-06
2.86746e-06
2.86781e-06
2.86822e-06
2.86864e-06
2.86906e-06
2.86948e-06
2.8699e-06
2.87033e-06
2.87083e-06
2.87125e-06
2.87182e-06
2.87243e-06
2.87285e-06
2.8734e-06
2.87411e-06
2.87465e-06
2.87531e-06
2.87581e-06
2.87661e-06
2.87716e-06
2.878e-06
2.87857e-06
2.87954e-06
2.87987e-06
2.88091e-06
2.88185e-06
2.88273e-06
2.88383e-06
2.88497e-06
2.88612e-06
2.88734e-06
2.88881e-06
2.89018e-06
2.89192e-06
2.89365e-06
2.89573e-06
2.89781e-06
2.89991e-06
2.90204e-06
2.9044e-06
2.90679e-06
2.90922e-06
2.91167e-06
2.91394e-06
2.91637e-06
2.91867e-06
2.92102e-06
2.92319e-06
2.92528e-06
2.92725e-06
2.92958e-06
2.9326e-06
2.9358e-06
2.93875e-06
2.94157e-06
2.94417e-06
2.94674e-06
2.94916e-06
2.95144e-06
2.9535e-06
2.95537e-06
2.95694e-06
2.95864e-06
2.96008e-06
2.96096e-06
2.96151e-06
2.96182e-06
2.9617e-06
2.96029e-06
2.95805e-06
2.95482e-06
2.95074e-06
2.94476e-06
2.93727e-06
2.92847e-06
2.91712e-06
2.90298e-06
2.88444e-06
2.85459e-06
2.81105e-06
2.75115e-06
2.71278e-06
2.73413e-06
2.7255e-06
2.62425e-06
2.26457e-06
1.51931e-06
2.46456e-07
1.582e-06
2.30776e-06
2.64034e-06
2.70097e-06
2.62955e-06
2.64183e-06
2.74674e-06
2.82674e-06
2.87649e-06
2.90364e-06
2.92204e-06
2.93197e-06
2.94138e-06
2.9474e-06
2.95143e-06
2.95501e-06
2.95698e-06
2.9582e-06
2.95884e-06
2.95902e-06
2.95823e-06
2.95763e-06
2.95665e-06
2.9555e-06
2.95392e-06
2.95242e-06
2.95086e-06
2.94914e-06
2.94715e-06
2.94497e-06
2.9427e-06
2.94023e-06
2.9377e-06
2.93491e-06
2.93206e-06
2.92895e-06
2.92604e-06
2.9238e-06
2.92195e-06
2.91997e-06
2.91777e-06
2.91529e-06
2.91296e-06
2.91045e-06
2.90799e-06
2.90546e-06
2.90307e-06
2.90074e-06
2.89847e-06
2.89632e-06
2.89423e-06
2.89227e-06
2.89044e-06
2.88875e-06
2.88711e-06
2.88558e-06
2.88417e-06
2.88285e-06
2.88158e-06
2.88038e-06
2.87934e-06
2.87832e-06
2.87736e-06
2.87646e-06
2.87566e-06
2.87479e-06
2.87407e-06
2.87324e-06
2.8727e-06
2.87203e-06
2.87139e-06
2.87076e-06
2.87021e-06
2.86963e-06
2.86899e-06
2.86848e-06
2.86792e-06
2.8674e-06
2.86691e-06
2.86639e-06
2.86589e-06
2.86547e-06
2.86503e-06
2.86458e-06
2.86413e-06
2.86373e-06
2.86342e-06
2.86298e-06
2.86268e-06
2.8623e-06
2.86206e-06
2.86173e-06
2.86144e-06
2.86117e-06
2.86091e-06
2.86071e-06
2.86048e-06
2.86031e-06
2.86016e-06
2.86005e-06
2.86004e-06
2.86004e-06
2.85999e-06
2.86007e-06
2.8601e-06
2.86023e-06
2.86042e-06
2.86068e-06
2.86101e-06
2.86142e-06
2.86192e-06
2.8625e-06
2.8632e-06
2.86401e-06
2.86494e-06
2.866e-06
2.86731e-06
2.86883e-06
2.87057e-06
2.87238e-06
2.87438e-06
2.87677e-06
2.87993e-06
2.88386e-06
2.88792e-06
2.8914e-06
2.89413e-06
2.89778e-06
2.90469e-06
2.91642e-06
2.93345e-06
2.95089e-06
2.96419e-06
2.97234e-06
2.97271e-06
2.97374e-06
2.99347e-06
3.04438e-06
3.13755e-06
3.31092e-06
3.59194e-06
3.76465e-06
3.51809e-06
2.42918e-06
1.62356e-06
1.9144e-06
2.10843e-06
2.42273e-06
1.90117e-06
5.1614e-06
6.49517e-06
6.01905e-06
5.38067e-06
4.57321e-06
7.90896e-06
1.04717e-05
1.08749e-05
1.04427e-05
9.81361e-06
9.40691e-06
9.18256e-06
9.0611e-06
9.01381e-06
9.00823e-06
9.0019e-06
8.976e-06
8.93717e-06
8.88923e-06
8.84396e-06
8.81266e-06
8.7938e-06
8.78293e-06
8.77412e-06
8.76339e-06
8.75137e-06
8.73986e-06
8.73062e-06
8.72334e-06
8.71726e-06
8.71154e-06
8.70631e-06
8.70163e-06
8.69764e-06
8.69425e-06
8.69132e-06
8.68864e-06
8.68649e-06
8.68449e-06
8.68288e-06
8.68154e-06
8.68041e-06
8.67958e-06
8.67893e-06
8.67852e-06
8.67817e-06
8.67811e-06
8.67807e-06
8.67829e-06
8.67843e-06
8.67878e-06
8.67925e-06
8.67989e-06
8.68064e-06
8.68136e-06
8.68208e-06
8.68299e-06
8.68402e-06
8.68475e-06
8.68558e-06
8.68658e-06
8.6876e-06
8.68888e-06
8.69008e-06
8.69134e-06
8.6926e-06
8.69385e-06
8.69513e-06
8.69642e-06
8.6977e-06
8.69911e-06
8.7004e-06
8.70206e-06
8.70381e-06
8.70508e-06
8.70666e-06
8.70863e-06
8.71019e-06
8.71205e-06
8.71355e-06
8.71571e-06
8.7173e-06
8.71959e-06
8.72117e-06
8.72365e-06
8.72473e-06
8.72767e-06
8.73023e-06
8.73273e-06
8.7359e-06
8.73912e-06
8.74238e-06
8.74597e-06
8.7503e-06
8.75446e-06
8.7596e-06
8.76485e-06
8.77103e-06
8.77714e-06
8.78333e-06
8.78966e-06
8.79658e-06
8.80352e-06
8.81047e-06
8.81722e-06
8.82338e-06
8.82986e-06
8.83587e-06
8.84178e-06
8.84697e-06
8.85179e-06
8.85636e-06
8.86199e-06
8.86947e-06
8.87739e-06
8.88475e-06
8.89179e-06
8.89834e-06
8.90485e-06
8.911e-06
8.91671e-06
8.9218e-06
8.92625e-06
8.92988e-06
8.93388e-06
8.93693e-06
8.9382e-06
8.93826e-06
8.93761e-06
8.9355e-06
8.92936e-06
8.92027e-06
8.9084e-06
8.89371e-06
8.87285e-06
8.84709e-06
8.81779e-06
8.78027e-06
8.733e-06
8.67081e-06
8.56686e-06
8.41649e-06
8.21444e-06
8.11396e-06
8.24251e-06
8.24614e-06
7.91115e-06
6.75362e-06
4.51428e-06
7.69546e-07
4.7034e-06
6.89631e-06
7.97215e-06
8.16818e-06
7.87338e-06
7.85697e-06
8.2063e-06
8.48332e-06
8.65318e-06
8.74617e-06
8.80778e-06
8.83934e-06
8.87064e-06
8.88972e-06
8.90216e-06
8.91393e-06
8.92024e-06
8.92407e-06
8.92699e-06
8.92815e-06
8.92676e-06
8.9261e-06
8.92445e-06
8.92195e-06
8.91833e-06
8.91503e-06
8.91156e-06
8.90751e-06
8.90263e-06
8.89722e-06
8.89161e-06
8.88554e-06
8.87928e-06
8.87236e-06
8.86526e-06
8.85758e-06
8.85041e-06
8.84503e-06
8.84087e-06
8.83641e-06
8.83118e-06
8.82487e-06
8.81882e-06
8.81206e-06
8.80515e-06
8.79792e-06
8.79097e-06
8.7843e-06
8.77772e-06
8.77143e-06
8.76534e-06
8.75957e-06
8.75419e-06
8.7492e-06
8.74442e-06
8.73989e-06
8.73572e-06
8.73188e-06
8.72823e-06
8.72478e-06
8.7217e-06
8.71883e-06
8.71612e-06
8.7135e-06
8.71122e-06
8.70882e-06
8.70683e-06
8.7045e-06
8.70291e-06
8.70108e-06
8.6993e-06
8.69749e-06
8.69593e-06
8.6943e-06
8.69257e-06
8.69107e-06
8.68942e-06
8.68792e-06
8.68647e-06
8.68501e-06
8.68356e-06
8.68225e-06
8.68092e-06
8.67962e-06
8.67828e-06
8.67704e-06
8.67595e-06
8.67461e-06
8.67368e-06
8.67252e-06
8.67166e-06
8.67055e-06
8.66958e-06
8.66874e-06
8.6679e-06
8.66714e-06
8.66635e-06
8.66571e-06
8.66512e-06
8.66461e-06
8.66431e-06
8.66407e-06
8.66381e-06
8.66382e-06
8.66377e-06
8.66397e-06
8.66431e-06
8.66488e-06
8.66568e-06
8.66665e-06
8.66788e-06
8.66939e-06
8.67126e-06
8.67344e-06
8.67599e-06
8.67894e-06
8.68254e-06
8.68681e-06
8.6917e-06
8.6969e-06
8.70265e-06
8.70941e-06
8.71836e-06
8.72951e-06
8.74126e-06
8.75173e-06
8.7603e-06
8.77098e-06
8.78983e-06
8.82129e-06
8.86697e-06
8.91552e-06
8.95528e-06
8.98232e-06
8.99008e-06
8.99757e-06
9.04779e-06
9.17384e-06
9.4045e-06
9.81979e-06
1.04603e-05
1.09022e-05
1.05112e-05
7.92682e-06
4.6452e-06
5.56689e-06
6.24377e-06
6.73344e-06
5.39672e-06
8.34639e-06
1.00758e-05
9.7526e-06
8.64557e-06
7.47781e-06
1.42691e-05
1.70534e-05
1.72693e-05
1.67232e-05
1.60203e-05
1.55352e-05
1.52578e-05
1.51078e-05
1.50455e-05
1.50274e-05
1.50053e-05
1.49593e-05
1.48981e-05
1.4829e-05
1.47669e-05
1.47242e-05
1.4698e-05
1.46817e-05
1.46675e-05
1.46508e-05
1.4633e-05
1.46164e-05
1.46033e-05
1.45929e-05
1.45842e-05
1.45762e-05
1.45688e-05
1.45624e-05
1.45571e-05
1.45527e-05
1.45489e-05
1.45456e-05
1.4543e-05
1.45408e-05
1.45391e-05
1.45378e-05
1.45369e-05
1.45364e-05
1.45362e-05
1.45363e-05
1.45366e-05
1.45372e-05
1.45379e-05
1.45389e-05
1.454e-05
1.45412e-05
1.45426e-05
1.45441e-05
1.45458e-05
1.45475e-05
1.45492e-05
1.4551e-05
1.45528e-05
1.45544e-05
1.45563e-05
1.45583e-05
1.45603e-05
1.45626e-05
1.45648e-05
1.45671e-05
1.45692e-05
1.45713e-05
1.45735e-05
1.45757e-05
1.45778e-05
1.45801e-05
1.45824e-05
1.4585e-05
1.45876e-05
1.45897e-05
1.45923e-05
1.45951e-05
1.45975e-05
1.46002e-05
1.46027e-05
1.46057e-05
1.46081e-05
1.46112e-05
1.46136e-05
1.46167e-05
1.46186e-05
1.46229e-05
1.46265e-05
1.46305e-05
1.46352e-05
1.46399e-05
1.4645e-05
1.46508e-05
1.46576e-05
1.46645e-05
1.46729e-05
1.46817e-05
1.46918e-05
1.47016e-05
1.47116e-05
1.47219e-05
1.47329e-05
1.47438e-05
1.47544e-05
1.4764e-05
1.47725e-05
1.47811e-05
1.47887e-05
1.47954e-05
1.48004e-05
1.48047e-05
1.48088e-05
1.48145e-05
1.48227e-05
1.48317e-05
1.484e-05
1.4848e-05
1.48556e-05
1.48633e-05
1.48707e-05
1.48774e-05
1.48831e-05
1.48876e-05
1.4891e-05
1.48949e-05
1.4897e-05
1.48958e-05
1.48921e-05
1.48872e-05
1.48796e-05
1.4865e-05
1.48444e-05
1.48198e-05
1.47901e-05
1.47491e-05
1.46995e-05
1.46451e-05
1.45761e-05
1.44883e-05
1.43713e-05
1.41692e-05
1.38771e-05
1.34971e-05
1.33643e-05
1.37239e-05
1.38057e-05
1.31704e-05
1.10898e-05
7.40836e-06
1.35678e-06
7.72255e-06
1.13529e-05
1.32998e-05
1.36616e-05
1.29911e-05
1.28559e-05
1.35069e-05
1.40416e-05
1.43688e-05
1.45458e-05
1.46615e-05
1.47167e-05
1.47726e-05
1.48053e-05
1.4825e-05
1.48455e-05
1.4856e-05
1.48617e-05
1.48682e-05
1.4871e-05
1.48706e-05
1.48719e-05
1.4872e-05
1.48701e-05
1.48665e-05
1.48639e-05
1.48611e-05
1.48571e-05
1.48517e-05
1.48454e-05
1.48391e-05
1.48324e-05
1.48254e-05
1.48177e-05
1.48097e-05
1.4801e-05
1.47932e-05
1.47879e-05
1.47845e-05
1.4781e-05
1.4776e-05
1.47686e-05
1.47609e-05
1.47518e-05
1.47416e-05
1.47306e-05
1.47197e-05
1.47094e-05
1.46992e-05
1.46892e-05
1.46795e-05
1.46703e-05
1.46616e-05
1.46536e-05
1.4646e-05
1.46387e-05
1.46321e-05
1.4626e-05
1.46203e-05
1.4615e-05
1.46102e-05
1.46058e-05
1.46017e-05
1.45978e-05
1.45943e-05
1.45908e-05
1.45879e-05
1.45845e-05
1.4582e-05
1.45794e-05
1.45768e-05
1.45742e-05
1.45718e-05
1.45694e-05
1.45669e-05
1.45645e-05
1.4562e-05
1.45596e-05
1.45573e-05
1.45549e-05
1.45525e-05
1.45503e-05
1.45481e-05
1.4546e-05
1.45438e-05
1.45416e-05
1.45396e-05
1.45373e-05
1.45354e-05
1.45333e-05
1.45315e-05
1.45295e-05
1.45276e-05
1.45259e-05
1.45242e-05
1.45226e-05
1.4521e-05
1.45194e-05
1.4518e-05
1.45166e-05
1.45155e-05
1.45145e-05
1.45136e-05
1.45129e-05
1.45123e-05
1.45119e-05
1.45118e-05
1.4512e-05
1.45126e-05
1.45134e-05
1.45146e-05
1.45163e-05
1.45185e-05
1.45213e-05
1.45246e-05
1.45286e-05
1.45335e-05
1.45395e-05
1.45464e-05
1.4554e-05
1.45624e-05
1.45723e-05
1.45853e-05
1.46017e-05
1.46195e-05
1.46361e-05
1.46504e-05
1.46669e-05
1.46936e-05
1.4737e-05
1.48002e-05
1.48708e-05
1.4934e-05
1.49822e-05
1.5007e-05
1.50284e-05
1.50955e-05
1.52526e-05
1.55395e-05
1.60371e-05
1.67545e-05
1.73111e-05
1.71124e-05
1.43232e-05
7.5532e-06
8.94049e-06
1.01119e-05
1.04228e-05
8.72937e-06
1.13562e-05
1.31412e-05
1.30735e-05
1.15443e-05
1.1591e-05
2.05824e-05
2.28189e-05
2.27511e-05
2.22524e-05
2.16902e-05
2.12566e-05
2.09966e-05
2.08548e-05
2.07883e-05
2.0753e-05
2.07107e-05
2.06471e-05
2.05712e-05
2.04933e-05
2.04275e-05
2.03826e-05
2.03547e-05
2.03358e-05
2.03182e-05
2.02984e-05
2.02781e-05
2.02601e-05
2.02461e-05
2.02353e-05
2.02261e-05
2.0218e-05
2.02107e-05
2.02046e-05
2.01999e-05
2.01961e-05
2.0193e-05
2.01907e-05
2.01891e-05
2.01883e-05
2.01878e-05
2.01879e-05
2.01885e-05
2.01896e-05
2.0191e-05
2.01925e-05
2.01945e-05
2.01967e-05
2.01993e-05
2.02018e-05
2.02045e-05
2.02073e-05
2.02104e-05
2.02135e-05
2.02167e-05
2.02199e-05
2.02231e-05
2.02262e-05
2.0229e-05
2.0232e-05
2.02352e-05
2.02386e-05
2.0242e-05
2.02457e-05
2.0249e-05
2.02524e-05
2.02556e-05
2.02587e-05
2.02617e-05
2.02647e-05
2.02678e-05
2.0271e-05
2.02743e-05
2.02778e-05
2.02808e-05
2.02837e-05
2.02872e-05
2.02905e-05
2.02935e-05
2.02966e-05
2.02997e-05
2.0303e-05
2.0306e-05
2.03092e-05
2.03121e-05
2.03148e-05
2.03177e-05
2.03225e-05
2.03266e-05
2.03316e-05
2.03373e-05
2.0343e-05
2.03493e-05
2.03571e-05
2.03658e-05
2.03754e-05
2.03869e-05
2.03993e-05
2.04128e-05
2.04259e-05
2.04392e-05
2.0453e-05
2.04674e-05
2.04813e-05
2.04941e-05
2.05048e-05
2.05134e-05
2.05219e-05
2.05285e-05
2.05325e-05
2.05336e-05
2.05336e-05
2.05336e-05
2.0536e-05
2.05408e-05
2.05465e-05
2.05518e-05
2.05573e-05
2.05628e-05
2.05687e-05
2.05746e-05
2.05797e-05
2.05833e-05
2.0585e-05
2.05857e-05
2.05871e-05
2.05856e-05
2.0579e-05
2.05679e-05
2.05554e-05
2.05389e-05
2.0512e-05
2.04752e-05
2.04339e-05
2.03854e-05
2.03193e-05
2.02407e-05
2.01579e-05
2.00535e-05
1.99183e-05
1.97371e-05
1.9414e-05
1.89514e-05
1.83764e-05
1.82764e-05
1.90094e-05
1.92276e-05
1.82187e-05
1.51072e-05
1.00849e-05
2.01437e-06
1.05164e-05
1.55058e-05
1.84432e-05
1.90179e-05
1.7829e-05
1.74396e-05
1.8417e-05
1.92614e-05
1.97768e-05
2.00565e-05
2.02345e-05
2.03143e-05
2.03969e-05
2.04422e-05
2.04672e-05
2.04962e-05
2.05098e-05
2.05165e-05
2.05277e-05
2.05329e-05
2.0535e-05
2.05405e-05
2.0545e-05
2.05454e-05
2.05441e-05
2.05447e-05
2.05454e-05
2.0544e-05
2.05408e-05
2.05362e-05
2.0532e-05
2.0528e-05
2.05237e-05
2.05187e-05
2.05135e-05
2.05081e-05
2.05037e-05
2.05018e-05
2.05027e-05
2.05041e-05
2.0503e-05
2.0498e-05
2.04915e-05
2.04823e-05
2.04705e-05
2.04568e-05
2.04429e-05
2.043e-05
2.04171e-05
2.04043e-05
2.03916e-05
2.03794e-05
2.03679e-05
2.03572e-05
2.03472e-05
2.03377e-05
2.0329e-05
2.03211e-05
2.03138e-05
2.0307e-05
2.0301e-05
2.02956e-05
2.02905e-05
2.02857e-05
2.02815e-05
2.02774e-05
2.02738e-05
2.02701e-05
2.02669e-05
2.02639e-05
2.02611e-05
2.0258e-05
2.02551e-05
2.02522e-05
2.02492e-05
2.02462e-05
2.02431e-05
2.024e-05
2.02369e-05
2.02337e-05
2.02304e-05
2.02273e-05
2.02243e-05
2.02213e-05
2.02181e-05
2.02148e-05
2.02118e-05
2.02085e-05
2.02054e-05
2.02021e-05
2.0199e-05
2.01958e-05
2.01927e-05
2.01897e-05
2.01868e-05
2.01839e-05
2.0181e-05
2.01781e-05
2.01752e-05
2.01724e-05
2.01698e-05
2.01674e-05
2.01652e-05
2.0163e-05
2.0161e-05
2.01592e-05
2.01577e-05
2.01566e-05
2.01559e-05
2.01555e-05
2.01556e-05
2.01562e-05
2.01574e-05
2.01595e-05
2.01623e-05
2.01658e-05
2.01704e-05
2.01764e-05
2.01835e-05
2.01917e-05
2.02009e-05
2.02119e-05
2.02263e-05
2.02448e-05
2.02657e-05
2.02863e-05
2.03047e-05
2.03247e-05
2.03541e-05
2.04008e-05
2.04691e-05
2.05498e-05
2.0629e-05
2.06962e-05
2.07428e-05
2.07832e-05
2.08564e-05
2.1007e-05
2.12785e-05
2.17267e-05
2.23026e-05
2.28073e-05
2.28899e-05
2.06663e-05
1.16817e-05
1.19257e-05
1.35351e-05
1.35581e-05
1.18718e-05
1.47974e-05
1.58451e-05
1.59336e-05
1.40617e-05
1.72117e-05
2.62976e-05
2.75709e-05
2.72728e-05
2.69654e-05
2.66924e-05
2.64064e-05
2.62186e-05
2.6112e-05
2.60492e-05
2.59961e-05
2.59348e-05
2.58601e-05
2.57804e-05
2.57072e-05
2.56502e-05
2.56125e-05
2.55888e-05
2.55713e-05
2.55539e-05
2.55348e-05
2.55165e-05
2.55012e-05
2.54901e-05
2.5482e-05
2.54753e-05
2.54699e-05
2.54654e-05
2.54622e-05
2.54602e-05
2.54593e-05
2.54592e-05
2.54599e-05
2.54611e-05
2.54634e-05
2.5466e-05
2.54691e-05
2.54727e-05
2.54768e-05
2.54811e-05
2.54854e-05
2.54903e-05
2.54952e-05
2.55007e-05
2.55058e-05
2.55112e-05
2.55165e-05
2.55221e-05
2.55274e-05
2.55328e-05
2.55381e-05
2.55434e-05
2.55482e-05
2.55525e-05
2.55575e-05
2.55626e-05
2.55678e-05
2.5573e-05
2.55783e-05
2.55831e-05
2.55877e-05
2.5592e-05
2.55962e-05
2.56002e-05
2.56042e-05
2.56083e-05
2.56123e-05
2.56166e-05
2.56207e-05
2.56239e-05
2.56276e-05
2.5632e-05
2.56353e-05
2.56387e-05
2.56417e-05
2.56453e-05
2.56482e-05
2.56516e-05
2.56541e-05
2.56571e-05
2.56585e-05
2.56625e-05
2.56672e-05
2.56712e-05
2.56768e-05
2.56829e-05
2.56889e-05
2.56962e-05
2.57057e-05
2.5716e-05
2.57284e-05
2.57427e-05
2.57585e-05
2.57749e-05
2.57909e-05
2.5807e-05
2.58237e-05
2.58407e-05
2.58565e-05
2.58701e-05
2.58797e-05
2.58864e-05
2.58921e-05
2.58948e-05
2.58926e-05
2.58862e-05
2.58781e-05
2.58708e-05
2.58666e-05
2.58642e-05
2.58628e-05
2.58617e-05
2.58614e-05
2.58618e-05
2.58632e-05
2.58653e-05
2.58665e-05
2.58657e-05
2.58622e-05
2.58578e-05
2.58543e-05
2.5847e-05
2.58323e-05
2.58106e-05
2.57869e-05
2.57588e-05
2.57162e-05
2.56586e-05
2.55966e-05
2.55266e-05
2.54316e-05
2.53189e-05
2.52056e-05
2.50634e-05
2.48739e-05
2.46201e-05
2.41542e-05
2.34983e-05
2.27321e-05
2.277e-05
2.40297e-05
2.44109e-05
2.29347e-05
1.86901e-05
1.24608e-05
2.75091e-06
1.2997e-05
1.9234e-05
2.3283e-05
2.41549e-05
2.23351e-05
2.15084e-05
2.28033e-05
2.40015e-05
2.47264e-05
2.51291e-05
2.53742e-05
2.54797e-05
2.55911e-05
2.56464e-05
2.56752e-05
2.57121e-05
2.5727e-05
2.5734e-05
2.5751e-05
2.57582e-05
2.57645e-05
2.57766e-05
2.57879e-05
2.57921e-05
2.5795e-05
2.58016e-05
2.58084e-05
2.5812e-05
2.58131e-05
2.58124e-05
2.5813e-05
2.58148e-05
2.58163e-05
2.58173e-05
2.58182e-05
2.58198e-05
2.58225e-05
2.58272e-05
2.58356e-05
2.58457e-05
2.58523e-05
2.58532e-05
2.58509e-05
2.58442e-05
2.58325e-05
2.58175e-05
2.58015e-05
2.57873e-05
2.57729e-05
2.57579e-05
2.5743e-05
2.57284e-05
2.57145e-05
2.57016e-05
2.56896e-05
2.56782e-05
2.56678e-05
2.56585e-05
2.56501e-05
2.56422e-05
2.56353e-05
2.56293e-05
2.56238e-05
2.56185e-05
2.56139e-05
2.56095e-05
2.56057e-05
2.56022e-05
2.55985e-05
2.55957e-05
2.5593e-05
2.559e-05
2.55867e-05
2.55836e-05
2.55805e-05
2.55771e-05
2.55737e-05
2.557e-05
2.55663e-05
2.55624e-05
2.55583e-05
2.55541e-05
2.55502e-05
2.55463e-05
2.55422e-05
2.55377e-05
2.55334e-05
2.55289e-05
2.55242e-05
2.55194e-05
2.55147e-05
2.551e-05
2.55052e-05
2.55005e-05
2.5496e-05
2.54915e-05
2.54867e-05
2.54817e-05
2.54767e-05
2.54717e-05
2.5467e-05
2.54622e-05
2.54578e-05
2.54531e-05
2.54488e-05
2.54445e-05
2.54405e-05
2.54369e-05
2.54337e-05
2.54308e-05
2.54283e-05
2.54263e-05
2.54249e-05
2.54247e-05
2.54251e-05
2.54263e-05
2.54286e-05
2.54324e-05
2.54375e-05
2.54438e-05
2.54513e-05
2.54606e-05
2.54732e-05
2.54901e-05
2.55103e-05
2.55315e-05
2.55512e-05
2.55713e-05
2.55981e-05
2.56393e-05
2.57004e-05
2.57782e-05
2.58631e-05
2.59433e-05
2.60107e-05
2.6071e-05
2.61426e-05
2.62596e-05
2.64602e-05
2.67618e-05
2.70456e-05
2.73509e-05
2.76524e-05
2.64022e-05
1.73223e-05
1.45007e-05
1.64596e-05
1.63062e-05
1.52949e-05
1.95262e-05
1.83079e-05
1.83664e-05
1.62443e-05
2.45425e-05
3.11214e-05
3.12045e-05
3.08387e-05
3.08241e-05
3.09296e-05
3.08584e-05
3.07838e-05
3.07319e-05
3.06797e-05
3.06126e-05
3.05386e-05
3.04628e-05
3.03927e-05
3.03385e-05
3.03029e-05
3.02815e-05
3.02685e-05
3.02573e-05
3.02446e-05
3.02313e-05
3.02202e-05
3.02127e-05
3.02089e-05
3.02073e-05
3.02068e-05
3.02075e-05
3.0209e-05
3.02117e-05
3.02155e-05
3.02201e-05
3.02254e-05
3.02315e-05
3.0238e-05
3.02457e-05
3.02532e-05
3.02612e-05
3.02697e-05
3.02786e-05
3.02874e-05
3.02959e-05
3.03052e-05
3.03143e-05
3.03241e-05
3.0333e-05
3.03421e-05
3.0351e-05
3.036e-05
3.03684e-05
3.03768e-05
3.03849e-05
3.03931e-05
3.04003e-05
3.04065e-05
3.04142e-05
3.04217e-05
3.04293e-05
3.04369e-05
3.04442e-05
3.04506e-05
3.04567e-05
3.04624e-05
3.04678e-05
3.0473e-05
3.0478e-05
3.04833e-05
3.04883e-05
3.04936e-05
3.04982e-05
3.05013e-05
3.05058e-05
3.05109e-05
3.05139e-05
3.05174e-05
3.052e-05
3.05239e-05
3.05258e-05
3.05292e-05
3.05303e-05
3.0533e-05
3.05325e-05
3.05377e-05
3.05416e-05
3.05449e-05
3.05509e-05
3.05568e-05
3.05628e-05
3.05709e-05
3.05821e-05
3.05938e-05
3.0609e-05
3.0626e-05
3.06452e-05
3.06643e-05
3.06826e-05
3.0701e-05
3.07203e-05
3.07389e-05
3.07554e-05
3.07682e-05
3.07745e-05
3.07768e-05
3.07772e-05
3.07729e-05
3.07608e-05
3.07433e-05
3.07238e-05
3.07065e-05
3.06928e-05
3.06799e-05
3.06678e-05
3.06574e-05
3.06485e-05
3.06414e-05
3.06359e-05
3.06322e-05
3.06278e-05
3.06207e-05
3.061e-05
3.05984e-05
3.05877e-05
3.0573e-05
3.0548e-05
3.05123e-05
3.04739e-05
3.04319e-05
3.03709e-05
3.02881e-05
3.02014e-05
3.01081e-05
2.99814e-05
2.98295e-05
2.96843e-05
2.95037e-05
2.92527e-05
2.89183e-05
2.82883e-05
2.74205e-05
2.64906e-05
2.68187e-05
2.87648e-05
2.92866e-05
2.72147e-05
2.17251e-05
1.44634e-05
3.57982e-06
1.50859e-05
2.24201e-05
2.77164e-05
2.90226e-05
2.65063e-05
2.50102e-05
2.65829e-05
2.81718e-05
2.91154e-05
2.9665e-05
2.99768e-05
3.01103e-05
3.02518e-05
3.03127e-05
3.03443e-05
3.03874e-05
3.04009e-05
3.04082e-05
3.04312e-05
3.04397e-05
3.04516e-05
3.04728e-05
3.04928e-05
3.05017e-05
3.05108e-05
3.05261e-05
3.05412e-05
3.05515e-05
3.05585e-05
3.05637e-05
3.05715e-05
3.05819e-05
3.05919e-05
3.06017e-05
3.06117e-05
3.06235e-05
3.06362e-05
3.06503e-05
3.0669e-05
3.06913e-05
3.07094e-05
3.07201e-05
3.07252e-05
3.07237e-05
3.07139e-05
3.0699e-05
3.0682e-05
3.06676e-05
3.06527e-05
3.06366e-05
3.06201e-05
3.06035e-05
3.05875e-05
3.05728e-05
3.05592e-05
3.05462e-05
3.05343e-05
3.0524e-05
3.05146e-05
3.0506e-05
3.04985e-05
3.04923e-05
3.04867e-05
3.04813e-05
3.04765e-05
3.04724e-05
3.04685e-05
3.04658e-05
3.04618e-05
3.04594e-05
3.04573e-05
3.04547e-05
3.04515e-05
3.04484e-05
3.04455e-05
3.04418e-05
3.04384e-05
3.04342e-05
3.043e-05
3.04254e-05
3.04205e-05
3.04153e-05
3.04103e-05
3.04054e-05
3.04003e-05
3.03945e-05
3.03886e-05
3.03827e-05
3.03759e-05
3.03693e-05
3.03625e-05
3.03558e-05
3.03489e-05
3.03418e-05
3.03351e-05
3.03283e-05
3.03211e-05
3.03135e-05
3.03055e-05
3.02975e-05
3.02895e-05
3.02814e-05
3.02738e-05
3.02655e-05
3.02578e-05
3.02498e-05
3.02419e-05
3.02343e-05
3.02271e-05
3.02201e-05
3.02132e-05
3.02068e-05
3.02009e-05
3.01962e-05
3.01921e-05
3.01887e-05
3.01862e-05
3.01852e-05
3.01853e-05
3.01868e-05
3.01896e-05
3.01938e-05
3.02007e-05
3.02116e-05
3.02265e-05
3.02438e-05
3.02608e-05
3.02768e-05
3.02952e-05
3.03223e-05
3.03643e-05
3.04254e-05
3.0503e-05
3.05866e-05
3.0669e-05
3.07458e-05
3.08092e-05
3.08734e-05
3.09623e-05
3.10502e-05
3.09523e-05
3.09547e-05
3.1304e-05
3.12403e-05
2.46838e-05
1.67049e-05
1.89169e-05
1.88199e-05
2.01157e-05
2.50302e-05
2.08576e-05
2.05164e-05
1.84771e-05
3.12499e-05
3.48384e-05
3.36853e-05
3.34875e-05
3.38072e-05
3.43233e-05
3.45067e-05
3.45725e-05
3.45883e-05
3.45544e-05
3.44819e-05
3.44061e-05
3.43429e-05
3.42976e-05
3.42768e-05
3.42743e-05
3.42784e-05
3.4283e-05
3.4284e-05
3.4282e-05
3.42808e-05
3.42829e-05
3.42888e-05
3.42974e-05
3.43069e-05
3.43168e-05
3.43276e-05
3.43389e-05
3.43511e-05
3.43641e-05
3.43775e-05
3.43913e-05
3.44057e-05
3.44202e-05
3.44359e-05
3.44508e-05
3.44661e-05
3.44817e-05
3.44974e-05
3.45128e-05
3.45273e-05
3.45427e-05
3.45575e-05
3.45731e-05
3.45872e-05
3.46014e-05
3.46151e-05
3.46286e-05
3.46411e-05
3.46536e-05
3.46655e-05
3.46773e-05
3.46876e-05
3.46966e-05
3.47079e-05
3.47185e-05
3.47291e-05
3.47397e-05
3.47494e-05
3.47579e-05
3.47659e-05
3.47731e-05
3.47801e-05
3.47868e-05
3.47931e-05
3.47997e-05
3.48057e-05
3.48122e-05
3.48171e-05
3.482e-05
3.48255e-05
3.48311e-05
3.48335e-05
3.48369e-05
3.48388e-05
3.48426e-05
3.48431e-05
3.48461e-05
3.48453e-05
3.48474e-05
3.48445e-05
3.48509e-05
3.48533e-05
3.48558e-05
3.48619e-05
3.48672e-05
3.48731e-05
3.4882e-05
3.48951e-05
3.49082e-05
3.49266e-05
3.49466e-05
3.49692e-05
3.49906e-05
3.50112e-05
3.50316e-05
3.50529e-05
3.50724e-05
3.50883e-05
3.50984e-05
3.50991e-05
3.50945e-05
3.50865e-05
3.5072e-05
3.50464e-05
3.50142e-05
3.49804e-05
3.49507e-05
3.49253e-05
3.48991e-05
3.48738e-05
3.48516e-05
3.48321e-05
3.48155e-05
3.48011e-05
3.47902e-05
3.47791e-05
3.47647e-05
3.47452e-05
3.47245e-05
3.47045e-05
3.46812e-05
3.46444e-05
3.4592e-05
3.45351e-05
3.44775e-05
3.43962e-05
3.42844e-05
3.41686e-05
3.40516e-05
3.38921e-05
3.36964e-05
3.35184e-05
3.33021e-05
3.2982e-05
3.25602e-05
3.17469e-05
3.06547e-05
2.96178e-05
3.04436e-05
3.32251e-05
3.37932e-05
3.09536e-05
2.40879e-05
1.60286e-05
4.52537e-06
1.67134e-05
2.49361e-05
3.16373e-05
3.35769e-05
3.03764e-05
2.79369e-05
2.97197e-05
3.17264e-05
3.28782e-05
3.36025e-05
3.39709e-05
3.41363e-05
3.43069e-05
3.43659e-05
3.44002e-05
3.4445e-05
3.44535e-05
3.44612e-05
3.44895e-05
3.4497e-05
3.45162e-05
3.45488e-05
3.45788e-05
3.45925e-05
3.46094e-05
3.46358e-05
3.46612e-05
3.46793e-05
3.4693e-05
3.47054e-05
3.47224e-05
3.47437e-05
3.47646e-05
3.47854e-05
3.48065e-05
3.48309e-05
3.48562e-05
3.4882e-05
3.49132e-05
3.49507e-05
3.4984e-05
3.50083e-05
3.50244e-05
3.5031e-05
3.50251e-05
3.50117e-05
3.49947e-05
3.49814e-05
3.49672e-05
3.49506e-05
3.49331e-05
3.49149e-05
3.48971e-05
3.48807e-05
3.48656e-05
3.48513e-05
3.4838e-05
3.48266e-05
3.48166e-05
3.48073e-05
3.47994e-05
3.47932e-05
3.47876e-05
3.47824e-05
3.47776e-05
3.47739e-05
3.47702e-05
3.47687e-05
3.47646e-05
3.47628e-05
3.47616e-05
3.47599e-05
3.47569e-05
3.4754e-05
3.47514e-05
3.47478e-05
3.47445e-05
3.47399e-05
3.47353e-05
3.473e-05
3.47242e-05
3.47178e-05
3.47115e-05
3.47055e-05
3.46992e-05
3.46917e-05
3.46839e-05
3.46763e-05
3.46669e-05
3.46581e-05
3.46485e-05
3.46392e-05
3.46296e-05
3.46195e-05
3.46099e-05
3.46002e-05
3.45897e-05
3.45785e-05
3.45667e-05
3.45546e-05
3.45424e-05
3.45297e-05
3.45177e-05
3.45044e-05
3.44918e-05
3.44786e-05
3.44651e-05
3.4452e-05
3.44389e-05
3.44258e-05
3.44125e-05
3.43995e-05
3.43866e-05
3.4375e-05
3.43638e-05
3.43529e-05
3.43427e-05
3.43337e-05
3.43255e-05
3.43188e-05
3.4313e-05
3.43082e-05
3.4305e-05
3.43048e-05
3.43089e-05
3.43168e-05
3.43259e-05
3.43327e-05
3.43364e-05
3.4341e-05
3.43527e-05
3.43834e-05
3.44388e-05
3.45126e-05
3.45998e-05
3.46848e-05
3.47328e-05
3.47319e-05
3.46826e-05
3.45184e-05
3.40092e-05
3.36663e-05
3.38209e-05
3.4971e-05
3.14295e-05
1.89208e-05
2.10549e-05
2.13322e-05
2.58349e-05
3.09851e-05
2.52558e-05
2.26262e-05
2.1256e-05
3.71243e-05
3.7331e-05
3.50209e-05
3.52672e-05
3.59058e-05
3.68139e-05
3.7266e-05
3.74857e-05
3.75774e-05
3.75714e-05
3.75073e-05
3.74445e-05
3.74097e-05
3.74052e-05
3.74311e-05
3.74724e-05
3.75107e-05
3.75403e-05
3.75605e-05
3.75762e-05
3.75941e-05
3.76162e-05
3.76417e-05
3.76682e-05
3.7694e-05
3.77191e-05
3.77446e-05
3.77701e-05
3.7796e-05
3.78221e-05
3.78481e-05
3.78739e-05
3.79e-05
3.79258e-05
3.79524e-05
3.79777e-05
3.8003e-05
3.80283e-05
3.80532e-05
3.80773e-05
3.80999e-05
3.81234e-05
3.81459e-05
3.81691e-05
3.819e-05
3.82109e-05
3.82308e-05
3.825e-05
3.82679e-05
3.82857e-05
3.83026e-05
3.83191e-05
3.83332e-05
3.83461e-05
3.83619e-05
3.83765e-05
3.83911e-05
3.84053e-05
3.8418e-05
3.84291e-05
3.84395e-05
3.84488e-05
3.84577e-05
3.84663e-05
3.84743e-05
3.84825e-05
3.84898e-05
3.84975e-05
3.85026e-05
3.85055e-05
3.85121e-05
3.85181e-05
3.85196e-05
3.85227e-05
3.85236e-05
3.8527e-05
3.85258e-05
3.85281e-05
3.85249e-05
3.85261e-05
3.85206e-05
3.85284e-05
3.85288e-05
3.85303e-05
3.85366e-05
3.85412e-05
3.85471e-05
3.85573e-05
3.85726e-05
3.85877e-05
3.861e-05
3.86332e-05
3.86597e-05
3.86835e-05
3.87062e-05
3.87286e-05
3.87514e-05
3.87709e-05
3.8785e-05
3.87905e-05
3.8783e-05
3.87686e-05
3.87491e-05
3.8721e-05
3.86782e-05
3.86282e-05
3.85777e-05
3.8534e-05
3.84953e-05
3.84541e-05
3.84138e-05
3.83784e-05
3.83469e-05
3.83195e-05
3.82951e-05
3.82761e-05
3.82581e-05
3.82361e-05
3.82072e-05
3.81759e-05
3.81446e-05
3.81127e-05
3.80635e-05
3.7992e-05
3.7913e-05
3.78389e-05
3.77371e-05
3.75934e-05
3.74443e-05
3.73052e-05
3.71148e-05
3.68721e-05
3.66612e-05
3.64173e-05
3.60221e-05
3.55095e-05
3.45013e-05
3.31799e-05
3.21298e-05
3.37188e-05
3.74396e-05
3.78621e-05
3.40396e-05
2.56414e-05
1.71095e-05
5.63228e-06
1.78267e-05
2.66414e-05
3.49283e-05
3.77608e-05
3.40085e-05
3.03343e-05
3.22461e-05
3.46797e-05
3.59941e-05
3.69244e-05
3.73206e-05
3.75244e-05
3.77166e-05
3.77609e-05
3.77984e-05
3.78357e-05
3.78342e-05
3.78427e-05
3.78729e-05
3.78753e-05
3.79035e-05
3.79493e-05
3.79887e-05
3.80062e-05
3.80325e-05
3.80721e-05
3.81089e-05
3.81347e-05
3.81547e-05
3.81751e-05
3.8203e-05
3.82369e-05
3.82699e-05
3.83032e-05
3.83365e-05
3.83748e-05
3.84142e-05
3.84533e-05
3.84986e-05
3.85538e-05
3.86056e-05
3.86475e-05
3.86783e-05
3.8696e-05
3.86963e-05
3.86856e-05
3.86697e-05
3.86587e-05
3.86463e-05
3.863e-05
3.86119e-05
3.85924e-05
3.85728e-05
3.85545e-05
3.85379e-05
3.85221e-05
3.85073e-05
3.84947e-05
3.84839e-05
3.8474e-05
3.84655e-05
3.84592e-05
3.84538e-05
3.84488e-05
3.84439e-05
3.84407e-05
3.84372e-05
3.84371e-05
3.8433e-05
3.84319e-05
3.84318e-05
3.84312e-05
3.84287e-05
3.8426e-05
3.8424e-05
3.84204e-05
3.84173e-05
3.84125e-05
3.84074e-05
3.84014e-05
3.83947e-05
3.83867e-05
3.83789e-05
3.83714e-05
3.83637e-05
3.83542e-05
3.8344e-05
3.83342e-05
3.83217e-05
3.83098e-05
3.82969e-05
3.82843e-05
3.82712e-05
3.82572e-05
3.82438e-05
3.82302e-05
3.82155e-05
3.81998e-05
3.8183e-05
3.81657e-05
3.8148e-05
3.81294e-05
3.81114e-05
3.80916e-05
3.80724e-05
3.80522e-05
3.80314e-05
3.80105e-05
3.79895e-05
3.79681e-05
3.79459e-05
3.79236e-05
3.79011e-05
3.78797e-05
3.78582e-05
3.78366e-05
3.78152e-05
3.77946e-05
3.77743e-05
3.77552e-05
3.77366e-05
3.77183e-05
3.77e-05
3.76833e-05
3.76706e-05
3.76628e-05
3.76577e-05
3.76489e-05
3.76315e-05
3.76056e-05
3.75771e-05
3.75644e-05
3.75824e-05
3.76308e-05
3.77081e-05
3.77882e-05
3.78118e-05
3.77385e-05
3.75388e-05
3.71105e-05
3.62109e-05
3.55384e-05
3.52221e-05
3.74835e-05
3.73454e-05
2.16154e-05
2.31568e-05
2.57466e-05
3.20692e-05
3.71442e-05
3.09966e-05
2.50814e-05
2.57908e-05
4.18331e-05
3.85635e-05
3.54538e-05
3.62132e-05
3.71139e-05
3.83641e-05
3.9077e-05
3.94519e-05
3.9625e-05
3.96593e-05
3.96209e-05
3.95889e-05
3.95991e-05
3.96499e-05
3.97338e-05
3.98279e-05
3.99083e-05
3.99704e-05
4.00175e-05
4.00588e-05
4.01032e-05
4.01524e-05
4.02038e-05
4.02541e-05
4.03016e-05
4.03471e-05
4.03923e-05
4.04368e-05
4.0481e-05
4.05246e-05
4.05675e-05
4.06093e-05
4.06509e-05
4.06916e-05
4.07327e-05
4.07715e-05
4.08098e-05
4.08477e-05
4.08845e-05
4.09198e-05
4.0953e-05
4.09868e-05
4.10192e-05
4.10517e-05
4.10814e-05
4.11106e-05
4.11383e-05
4.11648e-05
4.11896e-05
4.12142e-05
4.12375e-05