/*--------------------------------*- C++ -*----------------------------------*\
| =========                 |                                                 |
| \\      /  F ield         | OpenFOAM: The Open Source CFD Toolbox           |
|  \\    /   O peration     | Version:  2412                                  |
|   \\  /    A nd           | Website:  www.openfoam.com                      |
|    \\/     M anipulation  |                                                 |
\*---------------------------------------------------------------------------*/
FoamFile
{
    version     2.0;
    format      ascii;
    arch        "LSB;label=32;scalar=64";
    class       volScalarField;
    location    "20";
    object      p;
}
// * * * * * * * * * * * * * * * * * * * * * * * * * * * * * * * * * * * * * //

dimensions      [0 2 -2 0 0 0 0];

internalField   nonuniform List<scalar> 
29601
(
430.722
212.033
185.25
263.05
198.533
22.6647
-76.3511
-36.6813
57.6827
109.474
132.038
142.196
144.498
142.145
138.826
138.008
138.405
139.461
140.596
140.011
137.825
134.615
130.921
127.484
124.256
121.046
117.612
113.884
109.998
106.053
102.1
98.1132
94.0721
89.9741
85.8634
81.7257
77.591
73.4451
69.2962
65.15
61.0083
56.8819
52.7562
48.6564
44.5575
40.4886
36.4208
32.3825
28.3538
24.3488
20.3556
16.3795
12.4145
8.46933
4.53591
0.607856
-3.29733
-7.20614
-11.093
-14.9887
-18.8711
-22.7553
-26.6357
-30.5212
-34.4065
-38.3048
-42.2067
-46.1229
-50.0473
-53.9929
-57.9514
-61.9336
-65.9299
-69.9597
-74.0093
-78.0965
-82.2044
-86.3546
-90.5329
-94.7563
-99.0118
-103.321
-107.672
-112.079
-116.535
-121.047
-125.611
-130.234
-134.915
-139.659
-144.471
-149.343
-154.27
-159.246
-164.265
-169.329
-174.441
-179.609
-184.836
-190.104
-195.401
-200.719
-206.056
-211.421
-216.818
-222.238
-227.662
-233.071
-238.46
-243.822
-249.148
-254.418
-259.606
-264.7
-269.695
-274.568
-279.304
-283.874
-288.26
-292.436
-296.369
-300.043
-303.428
-306.493
-309.211
-311.545
-313.433
-314.843
-315.718
-315.975
-315.516
-314.261
-312.015
-308.592
-303.783
-297.339
-289.249
-278.953
-265.514
-247.974
-225.174
-193.513
-144.88
-76.2625
14.4253
130.685
295.459
519.846
728.409
806.693
722.431
511.416
286.366
130.876
3.83345
-96.3444
-166.97
-208.927
-236.9
-259.278
-276.947
-290.443
-300.803
-308.628
-314.482
-318.705
-321.664
-323.508
-324.476
-324.695
-324.211
-323.138
-321.507
-319.383
-316.837
-313.916
-310.641
-307.038
-303.166
-299.062
-294.734
-290.194
-285.47
-280.591
-275.578
-270.44
-265.202
-259.87
-254.457
-248.987
-243.477
-237.941
-232.386
-226.818
-221.253
-215.701
-210.172
-204.668
-199.188
-193.742
-188.339
-182.987
-177.699
-172.478
-167.325
-162.245
-157.238
-152.305
-147.443
-142.652
-137.935
-133.29
-128.713
-124.205
-119.763
-115.385
-111.063
-106.798
-102.58
-98.4128
-94.2842
-90.1985
-86.1438
-82.1267
-78.1291
-74.1632
-70.2129
-66.2891
-62.372
-58.4745
-54.5847
-50.7041
-46.8299
-42.96
-39.0923
-35.2293
-31.3651
-27.4993
-23.6297
-19.7574
-15.876
-11.9986
-8.10475
-4.21076
-0.298771
3.6156
7.54038
11.4784
15.4256
19.3828
23.352
27.3337
31.3282
35.3316
39.3535
43.3749
47.4155
51.4591
55.5103
59.5667
63.6242
67.6804
71.73
75.7709
79.7959
83.8141
87.7949
91.7282
95.6049
99.4472
103.27
107.05
110.648
113.975
117.063
120.175
123.49
127.066
130.147
132.227
132.701
131.487
130.34
129.857
130.586
133.794
136.067
133.69
123.496
101.002
49.4283
-44.7463
-83.0865
20.6133
206.28
274.2
190.743
212.983
429.955
430.284
212.376
185.439
262.931
198.579
22.8897
-76.1673
-36.6365
57.6478
109.45
132.027
142.192
144.497
142.147
138.828
138.01
138.406
139.462
140.597
140.012
137.826
134.617
130.923
127.486
124.258
121.047
117.613
113.886
109.999
106.055
102.102
98.1149
94.0739
89.9759
85.8652
81.7275
77.5928
73.4469
69.298
65.1518
61.0101
56.8836
52.758
48.6581
44.5592
40.4903
36.4225
32.3842
28.3555
24.3504
20.3573
16.3812
12.4161
8.47098
4.53756
0.609497
-3.29569
-7.20452
-11.0914
-14.9871
-18.8695
-22.7537
-26.6341
-30.5197
-34.405
-38.3033
-42.2052
-46.1214
-50.0458
-53.9914
-57.9499
-61.9322
-65.9285
-69.9583
-74.0079
-78.0951
-82.203
-86.3532
-90.5315
-94.755
-99.0105
-103.32
-107.67
-112.078
-116.534
-121.046
-125.61
-130.233
-134.914
-139.658
-144.47
-149.342
-154.269
-159.245
-164.264
-169.328
-174.441
-179.608
-184.835
-190.103
-195.4
-200.718
-206.055
-211.42
-216.818
-222.238
-227.661
-233.071
-238.459
-243.822
-249.148
-254.418
-259.606
-264.7
-269.695
-274.568
-279.304
-283.875
-288.261
-292.436
-296.37
-300.043
-303.429
-306.494
-309.212
-311.546
-313.434
-314.844
-315.719
-315.975
-315.517
-314.262
-312.015
-308.592
-303.784
-297.34
-289.25
-278.953
-265.515
-247.975
-225.174
-193.512
-144.879
-76.2602
14.4299
130.693
295.469
519.851
728.408
806.699
722.43
511.42
286.376
130.884
3.83784
-96.3424
-166.969
-208.927
-236.9
-259.278
-276.947
-290.444
-300.804
-308.628
-314.483
-318.705
-321.664
-323.509
-324.476
-324.695
-324.211
-323.139
-321.508
-319.384
-316.838
-313.916
-310.641
-307.039
-303.167
-299.063
-294.734
-290.194
-285.471
-280.592
-275.578
-270.44
-265.202
-259.869
-254.457
-248.987
-243.476
-237.94
-232.386
-226.818
-221.252
-215.701
-210.171
-204.667
-199.187
-193.741
-188.338
-182.986
-177.698
-172.477
-167.324
-162.244
-157.237
-152.304
-147.442
-142.651
-137.934
-133.289
-128.712
-124.204
-119.762
-115.384
-111.061
-106.796
-102.578
-98.4115
-94.2828
-90.1971
-86.1424
-82.1253
-78.1277
-74.1618
-70.2114
-66.2876
-62.3705
-58.473
-54.5832
-50.7026
-46.8284
-42.9585
-39.0907
-35.2278
-31.3636
-27.4977
-23.6281
-19.7558
-15.8744
-11.997
-8.10311
-4.20911
-0.297121
3.61725
7.54205
11.4801
15.4273
19.3845
23.3537
27.3354
31.3299
35.3333
39.3552
43.3766
47.4173
51.4608
55.5121
59.5684
63.626
67.6822
71.7318
75.7727
79.7977
83.8158
87.7967
91.73
95.6067
99.449
103.271
107.052
110.65
113.977
117.065
120.177
123.492
127.068
130.148
132.229
132.702
131.489
130.341
129.859
130.588
133.795
136.066
133.686
123.485
100.978
49.3928
-44.7023
-82.9017
20.845
206.33
274.067
190.934
213.345
429.536
429.809
212.901
185.839
262.885
198.649
23.2415
-75.794
-36.4747
57.629
109.42
132.012
142.186
144.496
142.15
138.834
138.015
138.41
139.465
140.599
140.015
137.829
134.62
130.926
127.489
124.261
121.051
117.617
113.889
110.003
106.058
102.105
98.1183
94.0772
89.9792
85.8685
81.7309
77.5962
73.4502
69.3013
65.1551
61.0134
56.8869
52.7613
48.6614
44.5625
40.4936
36.4257
32.3874
28.3587
24.3536
20.3605
16.3843
12.4192
8.47407
4.54061
0.612548
-3.29268
-7.20151
-11.0884
-14.9842
-18.8665
-22.7508
-26.6312
-30.5168
-34.4021
-38.3005
-42.2024
-46.1187
-50.043
-53.9887
-57.9472
-61.9295
-65.9259
-69.9557
-74.0053
-78.0926
-82.2005
-86.3507
-90.5291
-94.7526
-99.0081
-103.318
-107.668
-112.075
-116.532
-121.044
-125.607
-130.231
-134.912
-139.656
-144.468
-149.34
-154.267
-159.243
-164.263
-169.326
-174.439
-179.607
-184.833
-190.102
-195.399
-200.717
-206.054
-211.419
-216.817
-222.237
-227.66
-233.07
-238.459
-243.821
-249.148
-254.417
-259.606
-264.7
-269.695
-274.569
-279.304
-283.875
-288.262
-292.437
-296.371
-300.045
-303.431
-306.496
-309.215
-311.549
-313.438
-314.848
-315.724
-315.982
-315.524
-314.27
-312.024
-308.602
-303.795
-297.352
-289.263
-278.969
-265.532
-247.993
-225.195
-193.537
-144.907
-76.2917
14.3948
130.655
295.425
519.79
728.316
806.594
722.339
511.36
286.333
130.844
3.80249
-96.3743
-166.997
-208.951
-236.921
-259.297
-276.964
-290.459
-300.817
-308.641
-314.494
-318.715
-321.673
-323.516
-324.483
-324.701
-324.217
-323.144
-321.512
-319.387
-316.84
-313.919
-310.644
-307.04
-303.168
-299.064
-294.735
-290.195
-285.471
-280.592
-275.578
-270.44
-265.202
-259.869
-254.457
-248.987
-243.476
-237.94
-232.385
-226.817
-221.251
-215.699
-210.17
-204.666
-199.186
-193.74
-188.336
-182.984
-177.697
-172.476
-167.323
-162.242
-157.235
-152.302
-147.44
-142.649
-137.932
-133.287
-128.71
-124.202
-119.76
-115.381
-111.059
-106.794
-102.576
-98.4091
-94.2804
-90.1947
-86.1399
-82.1228
-78.1252
-74.1592
-70.2088
-66.285
-62.3679
-58.4703
-54.5805
-50.6998
-46.8256
-42.9557
-39.0879
-35.2249
-31.3607
-27.4948
-23.6251
-19.7529
-15.8715
-11.994
-8.1001
-4.20607
-0.29408
3.62034
7.54514
11.4832
15.4305
19.3877
23.3569
27.3386
31.3331
35.3365
39.3584
43.3798
47.4205
51.4641
55.5154
59.5717
63.6293
67.6855
71.7351
75.776
79.8011
83.8192
87.8001
91.7333
95.61
99.4523
103.275
107.055
110.653
113.98
117.069
120.18
123.496
127.071
130.151
132.231
132.704
131.492
130.345
129.864
130.594
133.798
136.065
133.679
123.469
100.947
49.3733
-44.5399
-82.5252
21.205
206.405
274.015
191.349
213.923
429.079
429.178
213.657
186.583
262.929
198.727
23.7511
-75.0795
-36.0747
57.664
109.384
131.988
142.173
144.491
142.152
138.841
138.022
138.415
139.468
140.601
140.016
137.831
134.622
130.929
127.492
124.264
121.053
117.619
113.892
110.005
106.061
102.108
98.1208
94.0797
89.9817
85.871
81.7333
77.5986
73.4526
69.3037
65.1575
61.0158
56.8893
52.7636
48.6637
44.5648
40.4959
36.428
32.3897
28.361
24.3559
20.3627
16.3866
12.4215
8.47631
4.54286
0.614758
-3.29046
-7.19932
-11.0862
-14.982
-18.8644
-22.7487
-26.6291
-30.5147
-34.4
-38.2984
-42.2004
-46.1166
-50.041
-53.9867
-57.9452
-61.9275
-65.9239
-69.9538
-74.0034
-78.0907
-82.1986
-86.3489
-90.5272
-94.7508
-99.0063
-103.316
-107.666
-112.074
-116.53
-121.042
-125.606
-130.229
-134.91
-139.655
-144.466
-149.339
-154.265
-159.241
-164.261
-169.325
-174.438
-179.605
-184.832
-190.1
-195.398
-200.716
-206.053
-211.418
-216.816
-222.236
-227.659
-233.07
-238.458
-243.821
-249.147
-254.417
-259.605
-264.7
-269.695
-274.569
-279.304
-283.875
-288.262
-292.438
-296.372
-300.046
-303.431
-306.497
-309.215
-311.55
-313.438
-314.849
-315.725
-315.982
-315.524
-314.27
-312.024
-308.602
-303.794
-297.351
-289.262
-278.966
-265.528
-247.988
-225.188
-193.527
-144.893
-76.2714
14.4256
130.703
295.494
519.863
728.373
806.643
722.396
511.434
286.403
130.89
3.833
-96.3547
-166.984
-208.942
-236.914
-259.292
-276.96
-290.456
-300.815
-308.639
-314.493
-318.715
-321.673
-323.517
-324.484
-324.702
-324.218
-323.144
-321.513
-319.388
-316.841
-313.919
-310.644
-307.041
-303.169
-299.064
-294.735
-290.195
-285.471
-280.592
-275.578
-270.44
-265.201
-259.869
-254.456
-248.986
-243.475
-237.939
-232.384
-226.816
-221.25
-215.698
-210.169
-204.665
-199.185
-193.738
-188.335
-182.983
-177.695
-172.474
-167.321
-162.241
-157.233
-152.3
-147.439
-142.648
-137.93
-133.285
-128.708
-124.2
-119.758
-115.38
-111.057
-106.792
-102.574
-98.4072
-94.2786
-90.1928
-86.1381
-82.1209
-78.1232
-74.1572
-70.2069
-66.283
-62.3659
-58.4683
-54.5785
-50.6978
-46.8236
-42.9536
-39.0858
-35.2228
-31.3586
-27.4927
-23.623
-19.7507
-15.8693
-11.9918
-8.0979
-4.20388
-0.291849
3.62256
7.54738
11.4855
15.4327
19.39
23.3592
27.3409
31.3354
35.3388
39.3607
43.3822
47.4229
51.4664
55.5177
59.5741
63.6316
67.6879
71.7375
75.7784
79.8034
83.8216
87.8024
91.7357
95.6124
99.4547
103.277
107.058
110.655
113.983
117.071
120.183
123.498
127.073
130.152
132.232
132.705
131.495
130.35
129.87
130.6
133.8
136.06
133.666
123.445
100.911
49.4083
-44.1365
-81.8029
21.7233
206.486
274.06
192.133
214.789
428.464
428.454
214.653
187.853
263.184
198.85
24.5529
-73.8101
-35.2946
57.7945
109.34
131.95
142.151
144.482
142.156
138.854
138.035
138.425
139.474
140.603
140.017
137.833
134.625
130.933
127.496
124.268
121.057
117.622
113.895
110.009
106.064
102.111
98.1242
94.0831
89.985
85.8743
81.7366
77.6019
73.4559
69.307
65.1608
61.019
56.8925
52.7669
48.6669
44.568
40.4991
36.4312
32.3929
28.3641
24.359
20.3658
16.3897
12.4246
8.47935
4.54588
0.617758
-3.28748
-7.19636
-11.0833
-14.9791
-18.8615
-22.7458
-26.6263
-30.5119
-34.3972
-38.2956
-42.1976
-46.1139
-50.0383
-53.984
-57.9426
-61.9249
-65.9213
-69.9512
-74.0009
-78.0882
-82.1961
-86.3464
-90.5248
-94.7484
-99.0039
-103.314
-107.664
-112.071
-116.528
-121.04
-125.604
-130.227
-134.908
-139.652
-144.464
-149.337
-154.263
-159.239
-164.259
-169.323
-174.436
-179.603
-184.83
-190.099
-195.396
-200.714
-206.051
-211.417
-216.814
-222.235
-227.658
-233.068
-238.457
-243.82
-249.146
-254.416
-259.604
-264.699
-269.694
-274.568
-279.304
-283.875
-288.262
-292.437
-296.372
-300.046
-303.431
-306.497
-309.216
-311.55
-313.439
-314.849
-315.725
-315.982
-315.524
-314.27
-312.024
-308.602
-303.794
-297.35
-289.261
-278.965
-265.526
-247.986
-225.185
-193.522
-144.885
-76.2586
14.4477
130.74
295.548
519.909
728.371
806.62
722.396
511.481
286.459
130.927
3.85451
-96.3432
-166.977
-208.938
-236.911
-259.29
-276.959
-290.455
-300.815
-308.639
-314.493
-318.715
-321.673
-323.517
-324.484
-324.702
-324.218
-323.144
-321.513
-319.388
-316.841
-313.92
-310.644
-307.041
-303.169
-299.064
-294.735
-290.195
-285.471
-280.591
-275.577
-270.439
-265.201
-259.868
-254.455
-248.985
-243.474
-237.938
-232.383
-226.815
-221.249
-215.697
-210.167
-204.664
-199.183
-193.737
-188.334
-182.981
-177.694
-172.472
-167.319
-162.239
-157.231
-152.298
-147.437
-142.646
-137.928
-133.283
-128.706
-124.198
-119.756
-115.377
-111.055
-106.79
-102.572
-98.4048
-94.2761
-90.1904
-86.1356
-82.1184
-78.1207
-74.1547
-70.2043
-66.2804
-62.3632
-58.4656
-54.5758
-50.6951
-46.8209
-42.9508
-39.083
-35.22
-31.3558
-27.4899
-23.6201
-19.7478
-15.8664
-11.9889
-8.09496
-4.20092
-0.288872
3.62555
7.55039
11.4885
15.4358
19.393
23.3622
27.3439
31.3385
35.3419
39.3639
43.3853
47.426
51.4696
55.5209
59.5773
63.6348
67.6911
71.7407
75.7816
79.8067
83.8248
87.8057
91.7389
95.6157
99.458
103.28
107.061
110.658
113.986
117.075
120.187
123.502
127.076
130.154
132.233
132.707
131.5
130.359
129.882
130.613
133.803
136.05
133.644
123.406
100.865
49.5391
-43.3498
-80.52
22.5344
206.6
274.331
193.483
215.958
427.763
427.524
215.809
189.666
263.692
198.907
25.8066
-71.7754
-33.9759
58.0301
109.284
131.894
142.116
144.467
142.161
138.875
138.055
138.439
139.483
140.605
140.017
137.834
134.628
130.937
127.501
124.272
121.061
117.626
113.899
110.013
106.068
102.115
98.128
94.0869
89.9889
85.8781
81.7405
77.6057
73.4597
69.3107
65.1645
61.0227
56.8962
52.7705
48.6706
44.5716
40.5027
36.4348
32.3964
28.3677
24.3625
20.3693
16.3931
12.428
8.48277
4.54927
0.621134
-3.28413
-7.19303
-11.08
-14.9758
-18.8582
-22.7426
-26.6231
-30.5087
-34.3941
-38.2925
-42.1945
-46.1108
-50.0353
-53.981
-57.9396
-61.9219
-65.9184
-69.9483
-73.998
-78.0853
-82.1933
-86.3436
-90.522
-94.7456
-99.0012
-103.311
-107.661
-112.069
-116.525
-121.038
-125.601
-130.225
-134.906
-139.65
-144.462
-149.335
-154.261
-159.237
-164.257
-169.321
-174.434
-179.601
-184.828
-190.097
-195.394
-200.712
-206.049
-211.415
-216.813
-222.233
-227.657
-233.067
-238.455
-243.818
-249.145
-254.415
-259.603
-264.698
-269.693
-274.567
-279.303
-283.874
-288.261
-292.437
-296.371
-300.045
-303.431
-306.496
-309.215
-311.55
-313.439
-314.849
-315.725
-315.983
-315.525
-314.271
-312.025
-308.603
-303.795
-297.351
-289.261
-278.965
-265.526
-247.985
-225.182
-193.517
-144.877
-76.2437
14.4743
130.787
295.617
519.96
728.344
806.554
722.371
511.534
286.529
130.971
3.88002
-96.3304
-166.97
-208.934
-236.909
-259.288
-276.958
-290.455
-300.815
-308.64
-314.494
-318.716
-321.674
-323.517
-324.484
-324.702
-324.218
-323.145
-321.513
-319.388
-316.841
-313.919
-310.644
-307.04
-303.168
-299.063
-294.734
-290.194
-285.47
-280.59
-275.576
-270.438
-265.199
-259.866
-254.454
-248.983
-243.472
-237.936
-232.381
-226.813
-221.247
-215.695
-210.166
-204.662
-199.181
-193.735
-188.331
-182.979
-177.691
-172.47
-167.317
-162.236
-157.229
-152.296
-147.434
-142.643
-137.925
-133.28
-128.703
-124.196
-119.753
-115.375
-111.052
-106.787
-102.569
-98.4021
-94.2734
-90.1876
-86.1328
-82.1156
-78.1179
-74.1518
-70.2014
-66.2775
-62.3603
-58.4627
-54.5728
-50.692
-46.8178
-42.9478
-39.08
-35.2169
-31.3526
-27.4867
-23.6169
-19.7446
-15.8631
-11.9856
-8.09167
-4.19761
-0.285556
3.62889
7.55376
11.4919
15.4392
19.3964
23.3657
27.3474
31.342
35.3454
39.3674
43.3888
47.4295
51.4731
55.5244
59.5808
63.6384
67.6946
71.7443
75.7852
79.8103
83.8284
87.8093
91.7426
95.6194
99.4617
103.284
107.064
110.662
113.99
117.079
120.191
123.506
127.078
130.154
132.232
132.708
131.508
130.373
129.901
130.632
133.807
136.033
133.608
123.349
100.808
49.7712
-42.02
-78.4667
23.7972
206.636
274.883
195.437
217.334
426.867
426.275
217.091
191.805
264.465
198.86
27.6918
-68.8185
-31.9712
58.352
109.217
131.813
142.062
144.44
142.167
138.906
138.086
138.461
139.495
140.606
140.014
137.833
134.63
130.942
127.506
124.277
121.065
117.629
113.903
110.016
106.072
102.119
98.1317
94.0906
89.9925
85.8818
81.7441
77.6093
73.4633
69.3143
65.168
61.0262
56.8997
52.774
48.674
44.5751
40.5061
36.4381
32.3998
28.371
24.3658
20.3726
16.3964
12.4312
8.48598
4.55246
0.624295
-3.28098
-7.18992
-11.0769
-14.9727
-18.8552
-22.7396
-26.6201
-30.5057
-34.3911
-38.2896
-42.1916
-46.1079
-50.0324
-53.9781
-57.9368
-61.9191
-65.9156
-69.9455
-73.9953
-78.0826
-82.1906
-86.3409
-90.5194
-94.743
-98.9986
-103.308
-107.659
-112.066
-116.523
-121.035
-125.599
-130.222
-134.903
-139.648
-144.459
-149.332
-154.259
-159.235
-164.255
-169.319
-174.431
-179.599
-184.826
-190.094
-195.392
-200.71
-206.047
-211.412
-216.81
-222.231
-227.654
-233.064
-238.453
-243.816
-249.143
-254.412
-259.601
-264.696
-269.691
-274.565
-279.301
-283.872
-288.259
-292.434
-296.369
-300.043
-303.428
-306.494
-309.213
-311.547
-313.436
-314.847
-315.722
-315.979
-315.521
-314.266
-312.02
-308.597
-303.788
-297.343
-289.252
-278.954
-265.513
-247.968
-225.162
-193.491
-144.843
-76.1961
14.5438
130.891
295.762
520.08
728.365
806.526
722.394
511.66
286.675
131.073
3.94719
-96.2862
-166.938
-208.909
-236.889
-259.272
-276.945
-290.445
-300.806
-308.632
-314.487
-318.71
-321.669
-323.513
-324.481
-324.699
-324.215
-323.142
-321.51
-319.386
-316.839
-313.917
-310.641
-307.038
-303.166
-299.061
-294.732
-290.192
-285.468
-280.588
-275.574
-270.436
-265.197
-259.864
-254.452
-248.981
-243.47
-237.934
-232.379
-226.811
-221.245
-215.693
-210.163
-204.659
-199.179
-193.732
-188.329
-182.977
-177.689
-172.468
-167.315
-162.234
-157.227
-152.294
-147.432
-142.641
-137.923
-133.278
-128.701
-124.193
-119.751
-115.372
-111.05
-106.785
-102.567
-98.3996
-94.2708
-90.185
-86.1301
-82.1129
-78.1152
-74.1491
-70.1987
-66.2747
-62.3575
-58.4599
-54.57
-50.6892
-46.815
-42.9449
-39.0771
-35.214
-31.3497
-27.4838
-23.614
-19.7416
-15.8601
-11.9826
-8.08862
-4.19455
-0.282482
3.63198
7.55686
11.495
15.4423
19.3996
23.3688
27.3506
31.3452
35.3487
39.3706
43.3921
47.4328
51.4764
55.5277
59.5841
63.6417
67.6979
71.7476
75.7885
79.8136
83.8317
87.8125
91.7459
95.6227
99.465
103.287
107.067
110.664
113.993
117.083
120.196
123.51
127.079
130.153
132.229
132.709
131.519
130.393
129.93
130.662
133.811
136.006
133.553
123.267
100.739
50.0884
-40.0056
-75.4964
25.6897
206.555
275.737
197.769
218.877
425.67
424.581
218.324
193.974
265.454
198.825
30.3785
-64.8438
-29.1991
58.7788
109.142
131.706
141.987
144.403
142.175
138.951
138.13
138.493
139.512
140.608
140.01
137.831
134.631
130.948
127.513
124.283
121.069
117.633
113.906
110.02
106.076
102.123
98.1356
94.0944
89.9964
85.8856
81.7479
77.613
73.467
69.3179
65.1717
61.0299
56.9033
52.7776
48.6775
44.5786
40.5096
36.4416
32.4032
28.3744
24.3692
20.376
16.3997
12.4345
8.48928
4.55574
0.627541
-3.27777
-7.18672
-11.0737
-14.9696
-18.8521
-22.7365
-26.617
-30.5027
-34.3881
-38.2866
-42.1886
-46.105
-50.0295
-53.9752
-57.9339
-61.9163
-65.9127
-69.9427
-73.9924
-78.0798
-82.1878
-86.3382
-90.5166
-94.7403
-98.9959
-103.306
-107.656
-112.064
-116.52
-121.032
-125.596
-130.219
-134.9
-139.645
-144.457
-149.329
-154.256
-159.232
-164.252
-169.316
-174.429
-179.596
-184.823
-190.092
-195.389
-200.707
-206.044
-211.41
-216.807
-222.228
-227.651
-233.062
-238.45
-243.813
-249.14
-254.409
-259.598
-264.693
-269.688
-274.561
-279.297
-283.868
-288.255
-292.43
-296.364
-300.038
-303.424
-306.489
-309.208
-311.542
-313.43
-314.84
-315.715
-315.972
-315.513
-314.257
-312.01
-308.585
-303.775
-297.328
-289.235
-278.933
-265.488
-247.939
-225.126
-193.447
-144.786
-76.1199
14.6521
131.05
295.978
520.247
728.405
806.499
722.439
511.838
286.893
131.229
4.05147
-96.2154
-166.886
-208.867
-236.854
-259.243
-276.921
-290.424
-300.788
-308.617
-314.474
-318.698
-321.658
-323.504
-324.472
-324.691
-324.208
-323.135
-321.504
-319.38
-316.833
-313.912
-310.637
-307.034
-303.161
-299.057
-294.728
-290.188
-285.464
-280.584
-275.57
-270.433
-265.194
-259.861
-254.448
-248.978
-243.467
-237.931
-232.376
-226.808
-221.242
-215.69
-210.161
-204.657
-199.176
-193.73
-188.327
-182.974
-177.686
-172.465
-167.312
-162.231
-157.224
-152.291
-147.429
-142.638
-137.92
-133.275
-128.698
-124.191
-119.748
-115.37
-111.047
-106.782
-102.564
-98.3969
-94.2681
-90.1823
-86.1274
-82.1102
-78.1124
-74.1464
-70.1959
-66.272
-62.3547
-58.4571
-54.5671
-50.6864
-46.8121
-42.942
-39.0742
-35.2111
-31.3467
-27.4808
-23.611
-19.7386
-15.8571
-11.9796
-8.08554
-4.19145
-0.27936
3.63512
7.56001
11.4982
15.4455
19.4028
23.3721
27.3538
31.3485
35.3519
39.3739
43.3953
47.4361
51.4797
55.531
59.5874
63.645
67.7013
71.751
75.7919
79.817
83.8351
87.8159
91.7492
95.6262
99.4685
103.291
107.07
110.667
113.996
117.087
120.201
123.515
127.08
130.15
132.223
132.709
131.534
130.422
129.971
130.705
133.817
135.967
133.477
123.16
100.663
50.5147
-37.2312
-71.506
28.3693
206.466
276.821
200.148
220.43
424.086
422.353
219.264
196.077
266.407
198.931
33.9616
-59.7605
-25.6277
59.3543
109.069
131.574
141.888
144.353
142.187
139.014
138.19
138.536
139.535
140.608
140.003
137.826
134.632
130.955
127.521
124.289
121.073
117.637
113.91
110.025
106.081
102.127
98.1399
94.0986
90.0005
85.8897
81.752
77.6171
73.471
69.3219
65.1756
61.0338
56.9072
52.7814
48.6814
44.5824
40.5133
36.4453
32.4069
28.3781
24.3729
20.3796
16.4033
12.4381
8.49281
4.55925
0.631025
-3.27431
-7.18329
-11.0703
-14.9662
-18.8487
-22.7332
-26.6137
-30.4994
-34.3849
-38.2833
-42.1854
-46.1018
-50.0263
-53.9721
-57.9308
-61.9132
-65.9097
-69.9396
-73.9894
-78.0768
-82.1848
-86.3352
-90.5136
-94.7373
-98.9929
-103.303
-107.653
-112.061
-116.517
-121.029
-125.593
-130.216
-134.897
-139.642
-144.454
-149.326
-154.253
-159.229
-164.249
-169.313
-174.425
-179.593
-184.82
-190.088
-195.386
-200.704
-206.041
-211.406
-216.804
-222.224
-227.648
-233.058
-238.446
-243.809
-249.135
-254.405
-259.593
-264.688
-269.683
-274.556
-279.292
-283.863
-288.249
-292.424
-296.358
-300.032
-303.417
-306.481
-309.199
-311.533
-313.421
-314.83
-315.704
-315.96
-315.499
-314.243
-311.994
-308.567
-303.755
-297.305
-289.208
-278.903
-265.452
-247.897
-225.076
-193.386
-144.708
-76.0153
14.7998
131.265
296.262
520.464
728.454
806.455
722.494
512.068
287.181
131.442
4.1929
-96.1194
-166.816
-208.809
-236.805
-259.201
-276.886
-290.394
-300.762
-308.594
-314.454
-318.681
-321.643
-323.49
-324.459
-324.68
-324.197
-323.125
-321.495
-319.371
-316.825
-313.904
-310.63
-307.027
-303.155
-299.051
-294.722
-290.182
-285.459
-280.579
-275.565
-270.428
-265.189
-259.857
-254.444
-248.974
-243.463
-237.927
-232.372
-226.804
-221.238
-215.687
-210.157
-204.653
-199.173
-193.726
-188.323
-182.971
-177.683
-172.462
-167.309
-162.228
-157.221
-152.288
-147.426
-142.635
-137.917
-133.272
-128.696
-124.188
-119.745
-115.367
-111.044
-106.779
-102.561
-98.394
-94.2652
-90.1794
-86.1245
-82.1073
-78.1095
-74.1434
-70.1929
-66.269
-62.3517
-58.4541
-54.5641
-50.6833
-46.809
-42.9389
-39.071
-35.2079
-31.3436
-27.4776
-23.6078
-19.7354
-15.8539
-11.9763
-8.08226
-4.18816
-0.276046
3.63845
7.56337
11.5015
15.4489
19.4062
23.3755
27.3573
31.3519
35.3554
39.3774
43.3988
47.4396
51.4832
55.5346
59.591
63.6486
67.7048
71.7546
75.7955
79.8206
83.8386
87.8194
91.7528
95.6299
99.4723
103.294
107.073
110.67
114
117.093
120.208
123.52
127.079
130.144
132.215
132.708
131.555
130.463
130.029
130.764
133.826
135.915
133.377
123.027
100.588
51.0918
-33.6613
-66.3951
31.9011
206.478
277.848
202.487
221.725
422.043
419.62
219.662
198.091
266.981
199.333
38.4495
-53.56
-21.2474
60.106
109.01
131.419
141.765
144.289
142.203
139.096
138.269
138.592
139.566
140.609
139.993
137.82
134.632
130.963
127.53
124.297
121.079
117.641
113.915
110.029
106.086
102.132
98.1445
94.1031
90.005
85.8942
81.7564
77.6214
73.4753
69.3262
65.1799
61.038
56.9113
52.7856
48.6855
44.5864
40.5174
36.4493
32.4109
28.382
24.3768
20.3835
16.4072
12.4419
8.49659
4.56299
0.634739
-3.27063
-7.17964
-11.0667
-14.9626
-18.8451
-22.7296
-26.6102
-30.4959
-34.3814
-38.2799
-42.182
-46.0984
-50.023
-53.9687
-57.9275
-61.9099
-65.9064
-69.9364
-73.9861
-78.0736
-82.1815
-86.3319
-90.5104
-94.7341
-98.9897
-103.299
-107.65
-112.057
-116.514
-121.026
-125.59
-130.213
-134.894
-139.639
-144.45
-149.323
-154.249
-159.225
-164.245
-169.309
-174.422
-179.589
-184.816
-190.084
-195.381
-200.699
-206.036
-211.402
-216.799
-222.219
-227.643
-233.053
-238.441
-243.803
-249.13
-254.399
-259.587
-264.681
-269.676
-274.549
-279.284
-283.855
-288.241
-292.416
-296.349
-300.022
-303.407
-306.471
-309.188
-311.521
-313.407
-314.816
-315.689
-315.943
-315.481
-314.222
-311.971
-308.542
-303.726
-297.273
-289.172
-278.86
-265.403
-247.838
-225.007
-193.303
-144.604
-75.8747
14.9995
131.556
296.624
520.784
728.522
806.404
722.57
512.397
287.549
131.729
4.38391
-95.9922
-166.725
-208.732
-236.738
-259.144
-276.837
-290.352
-300.726
-308.562
-314.426
-318.656
-321.62
-323.469
-324.441
-324.663
-324.181
-323.111
-321.482
-319.359
-316.814
-313.894
-310.619
-307.017
-303.146
-299.042
-294.714
-290.175
-285.451
-280.572
-275.559
-270.422
-265.183
-259.851
-254.439
-248.969
-243.458
-237.922
-232.367
-226.799
-221.234
-215.682
-210.153
-204.649
-199.169
-193.722
-188.319
-182.967
-177.68
-172.459
-167.305
-162.225
-157.218
-152.285
-147.423
-142.632
-137.914
-133.269
-128.692
-124.184
-119.742
-115.364
-111.041
-106.776
-102.558
-98.3909
-94.2621
-90.1763
-86.1214
-82.1041
-78.1064
-74.1403
-70.1898
-66.2658
-62.3485
-58.4509
-54.5609
-50.6801
-46.8058
-42.9357
-39.0678
-35.2046
-31.3402
-27.4743
-23.6044
-19.732
-15.8504
-11.9729
-8.0788
-4.18468
-0.27255
3.64197
7.56691
11.5051
15.4524
19.4098
23.3791
27.3609
31.3556
35.3591
39.381
43.4025
47.4433
51.487
55.5383
59.5947
63.6523
67.7086
71.7583
75.7992
79.8243
83.8424
87.8231
91.7566
95.6339
99.4763
103.298
107.076
110.673
114.004
117.099
120.216
123.527
127.078
130.136
132.203
132.707
131.584
130.516
130.104
130.842
133.839
135.849
133.253
122.871
100.528
51.8457
-29.2834
-60.1748
36.291
206.739
278.446
204.759
222.476
419.539
416.481
219.38
199.802
266.762
200.194
43.6152
-46.2871
-16.0761
61.0629
108.985
131.245
141.619
144.213
142.225
139.2
138.37
138.664
139.605
140.61
139.98
137.811
134.632
130.972
127.542
124.306
121.085
117.645
113.919
110.035
106.091
102.138
98.1495
94.108
90.0099
85.8991
81.7612
77.6262
73.48
69.3309
65.1845
61.0425
56.9158
52.79
48.6899
44.5908
40.5217
36.4537
32.4151
28.3863
24.381
20.3876
16.4113
12.446
8.50064
4.56702
0.638722
-3.26667
-7.17573
-11.0628
-14.9588
-18.8413
-22.7258
-26.6064
-30.4922
-34.3777
-38.2762
-42.1784
-46.0948
-50.0193
-53.9651
-57.9239
-61.9063
-65.9028
-69.9328
-73.9826
-78.07
-82.178
-86.3284
-90.5069
-94.7305
-98.9861
-103.296
-107.646
-112.054
-116.51
-121.022
-125.586
-130.209
-134.89
-139.635
-144.446
-149.319
-154.245
-159.221
-164.241
-169.305
-174.417
-179.585
-184.811
-190.079
-195.376
-200.694
-206.031
-211.396
-216.793
-222.213
-227.636
-233.046
-238.434
-243.796
-249.122
-254.391
-259.579
-264.673
-269.667
-274.54
-279.275
-283.845
-288.23
-292.404
-296.337
-300.009
-303.393
-306.456
-309.172
-311.504
-313.389
-314.796
-315.667
-315.92
-315.456
-314.194
-311.94
-308.508
-303.688
-297.23
-289.122
-278.804
-265.337
-247.762
-224.918
-193.197
-144.47
-75.6916
15.2618
131.942
297.077
521.24
728.615
806.35
722.674
512.863
288.01
132.105
4.6337
-95.8309
-166.611
-208.634
-236.652
-259.07
-276.773
-290.297
-300.678
-308.52
-314.388
-318.622
-321.59
-323.442
-324.416
-324.64
-324.16
-323.092
-321.464
-319.342
-316.798
-313.879
-310.606
-307.005
-303.134
-299.031
-294.703
-290.165
-285.442
-280.563
-275.55
-270.413
-265.175
-259.843
-254.431
-248.962
-243.451
-237.916
-232.361
-226.793
-221.228
-215.677
-210.148
-204.644
-199.164
-193.718
-188.315
-182.963
-177.675
-172.454
-167.301
-162.221
-157.214
-152.281
-147.419
-142.628
-137.91
-133.266
-128.689
-124.181
-119.739
-115.36
-111.038
-106.773
-102.554
-98.3875
-94.2587
-90.1729
-86.118
-82.1007
-78.103
-74.1369
-70.1863
-66.2624
-62.3451
-58.4474
-54.5574
-50.6766
-46.8023
-42.9322
-39.0642
-35.2011
-31.3367
-27.4707
-23.6008
-19.7284
-15.8468
-11.9692
-8.0751
-4.18097
-0.26881
3.64573
7.57069
11.5089
15.4563
19.4136
23.383
27.3648
31.3595
35.363
39.385
43.4065
47.4473
51.4909
55.5423
59.5987
63.6563
67.7126
71.7623
75.8033
79.8284
83.8464
87.8271
91.7606
95.6382
99.4808
103.302
107.08
110.676
114.008
117.107
120.226
123.534
127.076
130.125
132.188
132.706
131.62
130.585
130.201
130.942
133.858
135.771
133.106
122.697
100.503
52.8055
-24.1113
-52.898
41.2976
207.428
278.179
206.749
222.546
416.637
412.876
218.285
200.962
265.503
201.687
49.0284
-37.908
-10.1358
62.2739
109.009
131.059
141.453
144.125
142.255
139.329
138.494
138.753
139.653
140.612
139.963
137.8
134.631
130.984
127.555
124.317
121.091
117.65
113.924
110.041
106.098
102.144
98.1551
94.1134
90.0153
85.9044
81.7666
77.6314
73.4852
69.336
65.1895
61.0475
56.9208
52.7949
48.6948
44.5956
40.5265
36.4584
32.4198
28.3909
24.3856
20.3922
16.4158
12.4505
8.50508
4.57142
0.643089
-3.26234
-7.17143
-11.0586
-14.9546
-18.8371
-22.7217
-26.6023
-30.4881
-34.3736
-38.2722
-42.1744
-46.0908
-50.0154
-53.9612
-57.9199
-61.9024
-65.8989
-69.9289
-73.9787
-78.0661
-82.1741
-86.3245
-90.5029
-94.7265
-98.9821
-103.292
-107.642
-112.05
-116.506
-121.018
-125.582
-130.205
-134.886
-139.63
-144.442
-149.314
-154.24
-159.216
-164.236
-169.299
-174.412
-179.579
-184.806
-190.074
-195.37
-200.688
-206.024
-211.389
-216.786
-222.206
-227.629
-233.038
-238.426
-243.787
-249.113
-254.382
-259.569
-264.662
-269.656
-274.528
-279.262
-283.832
-288.216
-292.39
-296.321
-299.993
-303.375
-306.437
-309.152
-311.482
-313.366
-314.771
-315.64
-315.89
-315.423
-314.159
-311.901