/*--------------------------------*- C++ -*----------------------------------*\
| =========                 |                                                 |
| \\      /  F ield         | OpenFOAM: The Open Source CFD Toolbox           |
|  \\    /   O peration     | Version:  2412                                  |
|   \\  /    A nd           | Website:  www.openfoam.com                      |
|    \\/     M anipulation  |                                                 |
\*---------------------------------------------------------------------------*/
FoamFile
{
    version     2.0;
    format      ascii;
    arch        "LSB;label=32;scalar=64";
    class       volScalarField;
    location    "20";
    object      p;
}
// * * * * * * * * * * * * * * * * * * * * * * * * * * * * * * * * * * * * * //

dimensions      [0 2 -2 0 0 0 0];

internalField   nonuniform List<scalar> 
32591
(
383.116
123.66
-101.749
-12.6139
220.002
257.001
141.668
88.9491
98.8022
142.334
157.998
164.47
164.587
160.708
154.795
150.694
148.747
147.93
147.676
146.502
143.664
139.88
135.608
131.634
127.897
124.205
120.279
116.129
111.871
107.621
103.365
99.0929
94.7768
90.443
86.11
81.7869
77.4629
73.1549
68.8568
64.5773
60.3182
56.0778
51.8584
47.663
43.4955
39.3435
35.2234
31.1233
27.0477
22.9922
18.957
14.9469
10.9461
6.97151
3.0006
-0.941827
-4.88809
-8.81486
-12.7374
-16.6546
-20.5677
-24.4818
-28.3961
-32.3185
-36.2426
-40.1857
-44.1297
-48.0967
-52.0742
-56.082
-60.099
-64.1506
-68.2264
-72.3295
-76.4598
-80.6255
-84.8228
-89.0593
-93.3328
-97.6481
-102.009
-106.416
-110.87
-115.377
-119.939
-124.555
-129.235
-133.971
-138.775
-143.646
-148.579
-153.566
-158.609
-163.695
-168.831
-174.019
-179.267
-184.566
-189.914
-195.297
-200.695
-206.11
-211.557
-217.037
-222.537
-228.047
-233.536
-239.004
-244.438
-249.838
-255.166
-260.407
-265.549
-270.587
-275.492
-280.25
-284.827
-289.201
-293.359
-297.263
-300.9
-304.247
-307.287
-309.98
-312.279
-314.126
-315.486
-316.292
-316.49
-316.002
-314.777
-312.574
-309.283
-304.667
-298.675
-290.972
-281.341
-268.88
-252.735
-230.376
-198.359
-155.447
-103.043
-34.6133
61.5587
186.098
361.16
570.195
743.721
804.05
737.087
557.585
346.258
172.939
48.3355
-42.6332
-113.294
-171.774
-217.89
-247.67
-266.782
-281.475
-293.583
-303.188
-310.949
-316.447
-320.663
-323.464
-325.298
-326.115
-326.236
-325.703
-324.575
-322.941
-320.839
-318.31
-315.403
-312.151
-308.586
-304.738
-300.636
-296.307
-291.772
-287.053
-282.167
-277.133
-271.971
-266.71
-261.35
-255.895
-250.381
-244.822
-239.232
-233.614
-227.984
-222.348
-216.728
-211.128
-205.55
-199.985
-194.454
-188.963
-183.521
-178.139
-172.826
-167.579
-162.405
-157.305
-152.279
-147.331
-142.455
-137.653
-132.927
-128.277
-123.695
-119.181
-114.734
-110.345
-106.012
-101.73
-97.5003
-93.3132
-89.1672
-85.058
-80.9878
-76.9417
-72.9234
-68.9279
-64.9614
-61.0037
-57.0713
-53.146
-49.2404
-45.3373
-41.4474
-37.5615
-33.6805
-29.807
-25.9331
-22.0594
-18.1829
-14.3092
-10.4302
-6.55109
-2.65681
1.23123
5.1375
9.04376
12.961
16.888
20.8244
24.7704
28.7292
32.693
36.682
40.6645
44.6716
48.6786
52.6971
56.723
60.7507
64.7824
68.807
72.8335
76.8382
80.835
84.8136
88.7538
92.6289
96.4631
100.266
104.048
107.69
111.075
114.192
117.31
120.62
124.175
127.19
129.197
129.467
128.724
128.44
129.159
131.894
136.277
138.414
136.145
126.939
107.314
57.7008
40.5639
93.0358
214.579
176.225
-65.6997
-162.849
50.8154
341.896
381.876
124.857
-99.1491
-11.8554
219.474
256.716
141.889
89.1824
98.8847
142.302
157.972
164.456
164.581
160.706
154.796
150.696
148.748
147.931
147.675
146.501
143.664
139.88
135.609
131.634
127.898
124.206
120.28
116.13
111.872
107.622
103.366
99.0934
94.7773
90.4435
86.1106
81.7875
77.4635
73.1555
68.8574
64.5778
60.3187
56.0783
51.859
47.6636
43.496
39.3441
35.2239
31.1238
27.0482
22.9927
18.9575
14.9474
10.9465
6.972
3.00107
-0.941363
-4.88761
-8.8144
-12.7369
-16.6542
-20.5673
-24.4814
-28.3956
-32.318
-36.2422
-40.1853
-44.1293
-48.0963
-52.0737
-56.0815
-60.0986
-64.1502
-68.226
-72.3291
-76.4594
-80.6251
-84.8224
-89.0589
-93.3324
-97.6477
-102.009
-106.415
-110.87
-115.377
-119.938
-124.554
-129.235
-133.971
-138.775
-143.646
-148.579
-153.565
-158.609
-163.695
-168.831
-174.019
-179.267
-184.566
-189.914
-195.297
-200.695
-206.11
-211.557
-217.037
-222.537
-228.047
-233.535
-239.004
-244.437
-249.838
-255.166
-260.407
-265.549
-270.587
-275.492
-280.25
-284.827
-289.201
-293.359
-297.263
-300.9
-304.247
-307.287
-309.98
-312.279
-314.126
-315.486
-316.292
-316.489
-316.002
-314.777
-312.574
-309.283
-304.666
-298.675
-290.971
-281.341
-268.879
-252.734
-230.375
-198.357
-155.443
-103.037
-34.6034
61.5726
186.118
361.182
570.205
743.712
804.039
737.078
557.594
346.28
172.959
48.3501
-42.6234
-113.288
-171.771
-217.888
-247.669
-266.781
-281.474
-293.582
-303.188
-310.948
-316.446
-320.662
-323.464
-325.297
-326.115
-326.236
-325.703
-324.575
-322.941
-320.839
-318.31
-315.403
-312.151
-308.586
-304.738
-300.636
-296.307
-291.772
-287.053
-282.167
-277.133
-271.971
-266.71
-261.35
-255.895
-250.381
-244.822
-239.231
-233.614
-227.983
-222.348
-216.728
-211.128
-205.549
-199.985
-194.454
-188.963
-183.52
-178.139
-172.826
-167.579
-162.404
-157.305
-152.279
-147.33
-142.454
-137.652
-132.927
-128.277
-123.694
-119.181
-114.733
-110.344
-106.011
-101.73
-97.5
-93.3128
-89.1668
-85.0576
-80.9874
-76.9413
-72.9229
-68.9275
-64.961
-61.0032
-57.0709
-53.1456
-49.24
-45.3369
-41.447
-37.5611
-33.6801
-29.8066
-25.9326
-22.0589
-18.1825
-14.3087
-10.4297
-6.55063
-2.65634
1.2317
5.13797
9.04423
12.9615
16.8885
20.8249
24.7708
28.7297
32.6935
36.6825
40.665
44.6721
48.6791
52.6976
56.7235
60.7512
64.7829
68.8075
72.834
76.8387
80.8356
84.8141
88.7543
92.6294
96.4636
100.266
104.048
107.69
111.076
114.192
117.31
120.621
124.175
127.19
129.196
129.466
128.724
128.441
129.161
131.895
136.275
138.406
136.129
126.91
107.28
57.7841
40.8125
93.2727
214.293
175.693
-64.9349
-160.001
52.7482
340.768
380.06
126.853
-95.1878
-10.1873
219.204
256.509
142.302
89.7288
99.168
142.289
157.928
164.43
164.567
160.703
154.801
150.703
148.753
147.933
147.675
146.5
143.664
139.881
135.61
131.636
127.9
124.207
120.281
116.131
111.873
107.623
103.367
99.095
94.7789
90.445
86.1121
81.789
77.465
73.157
68.8589
64.5793
60.3202
56.0798
51.8604
47.665
43.4975
39.3455
35.2254
31.1252
27.0496
22.9941
18.9589
14.9487
10.9479
6.97333
3.0024
-0.940049
-4.88632
-8.81311
-12.7356
-16.6529
-20.566
-24.4801
-28.3944
-32.3168
-36.241
-40.1841
-44.1281
-48.0951
-52.0726
-56.0804
-60.0975
-64.1491
-68.2249
-72.328
-76.4583
-80.6241
-84.8214
-89.0579
-93.3314
-97.6467
-102.008
-106.414
-110.869
-115.376
-119.937
-124.554
-129.234
-133.97
-138.774
-143.645
-148.578
-153.564
-158.608
-163.694
-168.83
-174.018
-179.266
-184.565
-189.913
-195.297
-200.694
-206.109
-211.557
-217.036
-222.537
-228.046
-233.535
-239.004
-244.437
-249.837
-255.165
-260.407
-265.549
-270.586
-275.492
-280.25
-284.827
-289.201
-293.359
-297.263
-300.9
-304.248
-307.288
-309.981
-312.28
-314.127
-315.488
-316.294
-316.492
-316.005
-314.78
-312.577
-309.287
-304.671
-298.68
-290.977
-281.347
-268.886
-252.741
-230.384
-198.366
-155.453
-103.046
-34.6109
61.568
186.122
361.186
570.176
743.625
803.931
736.993
557.569
346.287
172.963
48.3461
-42.6312
-113.298
-171.781
-217.898
-247.678
-266.79
-281.482
-293.589
-303.193
-310.953
-316.451
-320.666
-323.467
-325.3
-326.117
-326.238
-325.705
-324.577
-322.942
-320.84
-318.311
-315.404
-312.151
-308.586
-304.739
-300.636
-296.307
-291.772
-287.052
-282.167
-277.133
-271.971
-266.709
-261.349
-255.894
-250.38
-244.822
-239.231
-233.613
-227.983
-222.347
-216.727
-211.127
-205.549
-199.984
-194.453
-188.963
-183.52
-178.138
-172.825
-167.578
-162.404
-157.304
-152.278
-147.33
-142.453
-137.651
-132.926
-128.276
-123.693
-119.18
-114.732
-110.344
-106.01
-101.729
-97.499
-93.3118
-89.1658
-85.0566
-80.9863
-76.9403
-72.9219
-68.9264
-64.9599
-61.0021
-57.0698
-53.1445
-49.2388
-45.3357
-41.4458
-37.5599
-33.6789
-29.8053
-25.9314
-22.0577
-18.1812
-14.3074
-10.4285
-6.54934
-2.65504
1.23301
5.13929
9.04556
12.9628
16.8898
20.8263
24.7722
28.7311
32.6949
36.6839
40.6664
44.6735
48.6805
52.699
56.725
60.7527
64.7844
68.809
72.8355
76.8402
80.837
84.8155
88.7558
92.6308
96.4651
100.268
104.05
107.691
111.077
114.194
117.312
120.622
124.176
127.19
129.195
129.466
128.726
128.445
129.167
131.899
136.27
138.391
136.101
126.863
107.265
58.0901
41.4207
93.7341
214.108
175.458
-63.1333
-155.517
56.0845
339.214
377.092
128.306
-91.2047
-7.12809
219.493
256.477
143.011
90.7166
99.7689
142.309
157.861
164.382
164.54
160.693
154.809
150.717
148.764
147.939
147.675
146.498
143.662
139.881
135.611
131.638
127.901
124.208
120.282
116.132
111.874
107.624
103.368
99.0959
94.7798
90.446
86.113
81.7899
77.4659
73.1579
68.8598
64.5802
60.3211
56.0807
51.8613
47.6659
43.4983
39.3463
35.2262
31.1261
27.0505
22.9949
18.9597
14.9495
10.9487
6.97412
3.00319
-0.939264
-4.88554
-8.81234
-12.7349
-16.6522
-20.5653
-24.4794
-28.3937
-32.3161
-36.2403
-40.1834
-44.1274
-48.0944
-52.0719
-56.0797
-60.0968
-64.1484
-68.2242
-72.3273
-76.4576
-80.6234
-84.8206
-89.0572
-93.3307
-97.646
-102.007
-106.414
-110.868
-115.375
-119.937
-124.553
-129.233
-133.969
-138.773
-143.645
-148.577
-153.564
-158.607
-163.694
-168.829
-174.017
-179.265
-184.564
-189.913
-195.296
-200.693
-206.109
-211.556
-217.035
-222.536
-228.045
-233.534
-239.003
-244.436
-249.836
-255.164
-260.406
-265.548
-270.585
-275.491
-280.248
-284.826
-289.2
-293.358
-297.262
-300.899
-304.246
-307.286
-309.979
-312.278
-314.125
-315.485
-316.291
-316.488
-316.001
-314.775
-312.572
-309.28
-304.664
-298.672
-290.967
-281.336
-268.873
-252.726
-230.364
-198.342
-155.422
-103.004
-34.5518
61.6517
186.244
361.343
570.308
743.685
803.961
737.056
557.706
346.448
173.088
48.4305
-42.5733
-113.257
-171.752
-217.875
-247.66
-266.775
-281.469
-293.578
-303.184
-310.945
-316.444
-320.66
-323.462
-325.296
-326.113
-326.235
-325.702
-324.574
-322.94
-320.838
-318.309
-315.402
-312.15
-308.585
-304.737
-300.635
-296.306
-291.771
-287.051
-282.166
-277.132
-271.97
-266.708
-261.348
-255.893
-250.379
-244.821
-239.23
-233.612
-227.982
-222.346
-216.726
-211.126
-205.548
-199.983
-194.453
-188.962
-183.519
-178.138
-172.824
-167.578
-162.403
-157.303
-152.278
-147.329
-142.453
-137.651
-132.925
-128.275
-123.693
-119.179
-114.732
-110.343
-106.01
-101.728
-97.4983
-93.3111
-89.1651
-85.0559
-80.9857
-76.9396
-72.9212
-68.9257
-64.9592
-61.0014
-57.0691
-53.1438
-49.2381
-45.335
-41.4451
-37.5592
-33.6782
-29.8046
-25.9307
-22.057
-18.1805
-14.3067
-10.4277
-6.5486
-2.65429
1.23376
5.14005
9.04632
12.9636
16.8906
20.8271
24.773
28.7319
32.6957
36.6847
40.6672
44.6743
48.6813
52.6998
56.7257
60.7535
64.7852
68.8098
72.8363
76.841
80.8378
84.8163
88.7565
92.6316
96.4658
100.269
104.05
107.692
111.078
114.195
117.313
120.623
124.175
127.187
129.192
129.466
128.731
128.455
129.181
131.907
136.26
138.363
136.051
126.793
107.288
58.7451
42.5406
94.5579
214.137
175.842
-59.6516
-151.073
59.2702
336.658
372.539
128.068
-87.6909
-2.84435
220.601
256.838
144.248
92.2688
100.754
142.368
157.767
164.307
164.496
160.679
154.827
150.745
148.785
147.951
147.677
146.494
143.659
139.881
135.614
131.641
127.904
124.21
120.284
116.134
111.876
107.626
103.37
99.0979
94.7818
90.448
86.115
81.7919
77.4678
73.1598
68.8617
64.5821
60.323
56.0826
51.8631
47.6677
43.5001
39.3481
35.228
31.1278
27.0522
22.9966
18.9614
14.9512
10.9504
6.97581
3.00485
-0.93761
-4.88391
-8.81072
-12.7332
-16.6506
-20.5637
-24.4778
-28.3921
-32.3145
-36.2387
-40.1819
-44.1259
-48.0929
-52.0704
-56.0782
-60.0953
-64.1469
-68.2228
-72.3259
-76.4562
-80.6219
-84.8192
-89.0558
-93.3292
-97.6446
-102.006
-106.412
-110.867
-115.374
-119.935
-124.551
-129.232
-133.968
-138.772
-143.643
-148.576
-153.562
-158.606
-163.692
-168.828
-174.016
-179.264
-184.563
-189.911
-195.294
-200.691
-206.107
-211.554
-217.034
-222.534
-228.043
-233.532
-239.001
-244.434
-249.834
-255.162
-260.403
-265.546
-270.583
-275.488
-280.246
-284.823
-289.197
-293.355
-297.259
-300.896
-304.243
-307.283
-309.975
-312.274
-314.12
-315.48
-316.286
-316.483
-315.995
-314.769
-312.565
-309.273
-304.655
-298.662
-290.956
-281.323
-268.858
-252.708
-230.344
-198.316
-155.388
-102.956
-34.4827
61.7546
186.402
361.541
570.441
743.698
803.921
737.076
557.85
346.655
173.249
48.5341
-42.5066
-113.213
-171.72
-217.851
-247.641
-266.758
-281.454
-293.565
-303.173
-310.936
-316.435
-320.653
-323.455
-325.29
-326.108
-326.23
-325.697
-324.57
-322.935
-320.834
-318.305
-315.398
-312.146
-308.582
-304.734
-300.632
-296.303
-291.768
-287.049
-282.163
-277.13
-271.968
-266.706
-261.346
-255.892
-250.377
-244.819
-239.228
-233.611
-227.98
-222.345
-216.725
-211.125
-205.546
-199.982
-194.451
-188.96
-183.517
-178.136
-172.823
-167.576
-162.401
-157.302
-152.276
-147.328
-142.451
-137.649
-132.924
-128.274
-123.691
-119.178
-114.73
-110.341
-106.008
-101.727
-97.4969
-93.3097
-89.1637
-85.0545
-80.9842
-76.9382
-72.9198
-68.9242
-64.9577
-61
-57.0676
-53.1423
-49.2367
-45.3335
-41.4436
-37.5577
-33.6767
-29.8031
-25.9292
-22.0554
-18.1789
-14.3051
-10.4262
-6.54701
-2.65269
1.23538
5.14167
9.04796
12.9652
16.8922
20.8287
24.7747
28.7336
32.6974
36.6864
40.6689
44.676
48.683
52.7016
56.7275
60.7552
64.7869
68.8116
72.8381
76.8428
80.8396
84.8181
88.7583
92.6334
96.4677
100.27
104.052
107.693
111.079
114.197
117.316
120.626
124.174
127.184
129.188
129.467
128.742
128.476
129.208
131.923
136.245
138.318
135.974
126.696
107.356
59.8141
44.3006
95.9912
214.582
177.062
-54.6252
-147.144
60.6519
332.562
366.197
126.024
-84.9048
1.82165
222.43
257.657
146.103
94.4296
102.146
142.477
157.644
164.202
164.432
160.659
154.856
150.79
148.82
147.971
147.68
146.488
143.655
139.881
135.619
131.646
127.908
124.213
120.286
116.137
111.879
107.629
103.373
99.1007
94.7846
90.4508
86.1178
81.7947
77.4706
73.1626
68.8644
64.5848
60.3257
56.0853
51.8658
47.6704
43.5028
39.3507
35.2306
31.1304
27.0548
22.9992
18.964
14.9537
10.9529
6.97826
3.00728
-0.935198
-4.88152
-8.80835
-12.7309
-16.6482
-20.5614
-24.4755
-28.3898
-32.3123
-36.2365
-40.1797
-44.1237
-48.0907
-52.0682
-56.076
-60.0931
-64.1448
-68.2206
-72.3238
-76.4541
-80.6198
-84.8172
-89.0537
-93.3272
-97.6425
-102.003
-106.41
-110.865
-115.372
-119.933
-124.549
-129.23
-133.966
-138.77
-143.641
-148.574
-153.56
-158.603
-163.69
-168.826
-174.014
-179.262
-184.561
-189.909
-195.292
-200.689
-206.104
-211.551
-217.031
-222.531
-228.04
-233.529
-238.998
-244.431
-249.831
-255.159
-260.4
-265.542
-270.579
-275.485
-280.242
-284.819
-289.193
-293.35
-297.254
-300.891
-304.237
-307.277
-309.969
-312.268
-314.114
-315.473
-316.278
-316.474
-315.986
-314.759
-312.555
-309.261
-304.642
-298.647
-290.94
-281.304
-268.836
-252.682
-230.312
-198.277
-155.336
-102.885
-34.3789
61.9111
186.639
361.825
570.633
743.704
803.845
737.092
558.058
346.952
173.492
48.6917
-42.4065
-113.147
-171.673
-217.815
-247.611
-266.733
-281.433
-293.547
-303.157
-310.922
-316.423
-320.642
-323.445
-325.28
-326.099
-326.222
-325.69
-324.563
-322.929
-320.828
-318.3
-315.393
-312.141
-308.577
-304.73
-300.628
-296.299
-291.764
-287.045
-282.16
-277.126
-271.964
-266.703
-261.343
-255.888
-250.374
-244.816
-239.225
-233.608
-227.977
-222.342
-216.722
-211.122
-205.544
-199.979
-194.449
-188.958
-183.515
-178.134
-172.821
-167.574
-162.399
-157.3
-152.274
-147.325
-142.449
-137.647
-132.922
-128.272
-123.689
-119.176
-114.728
-110.339
-106.006
-101.725
-97.4949
-93.3077
-89.1616
-85.0524
-80.9822
-76.9361
-72.9177
-68.9222
-64.9556
-60.9979
-57.0655
-53.1402
-49.2345
-45.3314
-41.4414
-37.5555
-33.6745
-29.8009
-25.9269
-22.0532
-18.1767
-14.3029
-10.4239
-6.54469
-2.65036
1.23772
5.14404
9.05034
12.9676
16.8947
20.8312
24.7771
28.736
32.6998
36.6889
40.6714
44.6785
48.6856
52.7041
56.73
60.7578
64.7895
68.8141
72.8406
76.8453
80.8421
84.8206
88.7608
92.636
96.4703
100.273
104.054
107.695
111.081
114.201
117.321
120.629
124.174
127.179
129.181
129.469
128.761
128.51
129.252
131.951
136.224
138.252
135.867
126.572
107.483
61.3189
46.7256
98.0909
215.485
178.916
-49.1384
-143.539
60.0043
326.632
358.019
121.971
-83.1924
6.46154
224.736
258.805
148.575
97.1175
103.963
142.654
157.502
164.067
164.346
160.632
154.898
150.855
148.87
148
147.685
146.479
143.648
139.88
135.624
131.653
127.913
124.216
120.289
116.14
111.883
107.633
103.377
99.104
94.7878
90.454
86.1211
81.7979
77.4738
73.1658
68.8676
64.588
60.3288
56.0884
51.8689
47.6734
43.5058
39.3537
35.2336
31.1334
27.0577
23.0021
18.9669
14.9566
10.9557
6.9811
3.01009
-0.932403
-4.87876
-8.8056
-12.7282
-16.6455
-20.5587
-24.4728
-28.3872
-32.3097
-36.2339
-40.1771
-44.1211
-48.0881
-52.0657
-56.0735
-60.0906
-64.1423
-68.2181
-72.3213
-76.4516
-80.6173
-84.8147
-89.0512
-93.3247
-97.64
-102.001
-106.408
-110.862
-115.369
-119.931
-124.547
-129.227
-133.963
-138.767
-143.638
-148.571
-153.557
-158.601
-163.687
-168.823
-174.011
-179.258
-184.557
-189.905
-195.288
-200.686
-206.101
-211.548
-217.027
-222.527
-228.036
-233.525
-238.993
-244.426
-249.826
-255.154
-260.395
-265.537
-270.574
-275.479
-280.236
-284.813
-289.186
-293.343
-297.247
-300.883
-304.229
-307.268
-309.96
-312.258
-314.103
-315.461
-316.265
-316.46
-315.97
-314.742
-312.536
-309.24
-304.618
-298.621
-290.909
-281.269
-268.795
-252.634
-230.255
-198.207
-155.248
-102.765
-34.2075
62.1651
187.009
362.25
570.959
743.765
803.801
737.166
558.407
347.394
173.871
48.9477
-42.24
-113.033
-171.591
-217.751
-247.558
-266.687
-281.393
-293.512
-303.127
-310.895
-316.4
-320.621
-323.427
-325.264
-326.084
-326.208
-325.677
-324.551
-322.918
-320.818
-318.29
-315.384
-312.133
-308.569
-304.722
-300.62
-296.292
-291.758
-287.039
-282.154
-277.12
-271.959
-266.698
-261.338
-255.884
-250.37
-244.812
-239.221
-233.604
-227.974
-222.338
-216.719
-211.119
-205.54
-199.976
-194.445
-188.955
-183.512
-178.131
-172.818
-167.571
-162.396
-157.297
-152.271
-147.323
-142.447
-137.645
-132.919
-128.269
-123.687
-119.173
-114.726
-110.337
-106.004
-101.723
-97.4924
-93.3052
-89.1592
-85.05
-80.9798
-76.9337
-72.9153
-68.9197
-64.9532
-60.9954
-57.063
-53.1377
-49.232
-45.3289
-41.4389
-37.553
-33.6719
-29.7983
-25.9243
-22.0506
-18.174
-14.3002
-10.4212
-6.54204
-2.64769
1.24041
5.14675
9.05307
12.9703
16.8974
20.8339
24.7799
28.7388
32.7026
36.6917
40.6742
44.6814
48.6884
52.7069
56.7329
60.7606
64.7923
68.817
72.8435
76.8482
80.845
84.8234
88.7636
92.6388
96.4733
100.276
104.056
107.697
111.084
114.205
117.327
120.634
124.172
127.171
129.171
129.473
128.789
128.559
129.316
131.992
136.197
138.166
135.731
126.431
107.686
63.2719
49.7269
100.8
216.673
181.1
-43.8723
-140.819
57.3682
318.844
348.104
115.859
-82.9955
9.74708
227.064
260.063
151.647
100.291
106.211
142.901
157.351
163.907
164.241
160.601
154.956
150.943
148.939
148.041
147.693
146.468
143.639
139.878
135.631
131.662
127.92
124.22
120.292
116.143
111.887
107.637
103.381
99.108
94.7918
90.4581
86.1251
81.8019
77.4777
73.1697
68.8715
64.5918
60.3326
56.0922
51.8727
47.6772
43.5095
39.3574
35.2372
31.137
27.0613
23.0057
18.9704
14.9601
10.9592
6.98458
3.01355
-0.928973
-4.87536
-8.80223
-12.7248
-16.6422
-20.5554
-24.4696
-28.3839
-32.3064
-36.2307
-40.1739
-44.1179
-48.085
-52.0625
-56.0704
-60.0875
-64.1392
-68.215
-72.3182
-76.4485
-80.6142
-84.8116
-89.0481
-93.3216
-97.6369
-101.998
-106.405
-110.859
-115.366
-119.927
-124.543
-129.224
-133.96
-138.764
-143.635
-148.567
-153.554
-158.597
-163.683
-168.819
-174.007
-179.254
-184.553
-189.901
-195.284
-200.681
-206.096
-211.543
-217.022
-222.522
-228.031
-233.519
-238.987
-244.42
-249.82
-255.147
-260.388
-265.529
-270.566
-275.47
-280.227
-284.804
-289.176
-293.333
-297.236
-300.871
-304.217
-307.255
-309.946
-312.243
-314.086
-315.444
-316.246
-316.44
-315.948
-314.717
-312.508
-309.21
-304.584
-298.582
-290.866
-281.219
-268.738
-252.567
-230.176
-198.111
-155.125
-102.599
-33.9707
62.515
187.512
362.81
571.376
743.846
803.752
737.264
558.856
347.974
174.385
49.3006
-42.0091
-112.877
-171.477
-217.661
-247.484
-266.623
-281.338
-293.464
-303.085
-310.858
-316.366
-320.591
-323.4
-325.239
-326.062
-326.188
-325.659
-324.534
-322.902
-320.803
-318.276
-315.371
-312.121
-308.557
-304.711
-300.61
-296.283
-291.749
-287.03
-282.146
-277.113
-271.951
-266.69
-261.331
-255.877
-250.363
-244.806
-239.215
-233.598
-227.968
-222.333
-216.714
-211.114
-205.536
-199.971
-194.441
-188.951
-183.508
-178.127
-172.814
-167.567
-162.393
-157.293
-152.268
-147.319
-142.443
-137.641
-132.916
-128.266
-123.683
-119.17
-114.723
-110.334
-106.001
-101.72
-97.4894
-93.3022
-89.1562
-85.047
-80.9768
-76.9307
-72.9123
-68.9167
-64.9502
-60.9924
-57.06
-53.1347
-49.229
-45.3258
-41.4358
-37.5498
-33.6688
-29.7952
-25.9212
-22.0474
-18.1709
-14.297
-10.418
-6.53879
-2.64441
1.2437
5.15005
9.05639
12.9737
16.9008
20.8373
24.7833
28.7422
32.7061
36.6952
40.6777
44.6848
48.6919
52.7104
56.7364
60.7641
64.7958
68.8204
72.847
76.8517
80.8485
84.8268
88.767
92.6424
96.477
100.279
104.059
107.7
111.087
114.211
117.334
120.64
124.169
127.162
129.159
129.48
128.828
128.625
129.402
132.049
136.166
138.062
135.574
126.287
107.964
65.6867
53.2932
104.065
217.774
183.057
-40.2373
-139.679
52.675
309.301
336.686
107.937
-84.7416
10.9455
228.627
261.022
155.133
103.943
108.891
143.195
157.207
163.729
164.119
160.566
155.031
151.055
149.028
148.095
147.705
146.455
143.629
139.877
135.64
131.673
127.929
124.225
120.296
116.148
111.892
107.643
103.386
99.1129
94.7967
90.463
86.13
81.8067
77.4825
73.1744
68.8762
64.5965
60.3373
56.0968
51.8773
47.6817
43.514
39.3619
35.2417
31.1414
27.0657
23.01
18.9747
14.9644
10.9635
6.98881
3.01774
-0.924812
-4.87124
-8.79814
-12.7208
-16.6382
-20.5514
-24.4656
-28.38
-32.3025
-36.2268
-40.17
-44.114
-48.0811
-52.0587
-56.0666
-60.0837
-64.1354
-68.2113
-72.3144
-76.4447
-80.6105
-84.8078
-89.0443
-93.3178
-97.6331
-101.994
-106.401
-110.855
-115.362
-119.923
-124.539
-129.22
-133.956
-138.759
-143.631
-148.563
-153.549
-158.592
-163.679
-168.814
-174.002
-179.249
-184.548
-189.896
-195.278
-200.675
-206.09
-211.536
-217.015
-222.515
-228.023
-233.512
-238.979
-244.412
-249.811
-255.138
-260.378
-265.52
-270.556
-275.46
-280.216
-284.792
-289.164
-293.319
-297.222
-300.856
-304.2
-307.238
-309.927
-312.223
-314.065
-315.421
-316.221
-316.413
-315.918
-314.685
-312.472
-309.17
-304.54
-298.532
-290.809
-281.154
-268.664
-252.481
-230.074
-197.987
-154.968
-102.385
-33.6633
62.9687
188.149
363.502
571.85
743.933
803.684
737.371
559.367
348.694
175.038
49.7584
-41.7076
-112.674
-171.331
-217.548
-247.39
-266.542
-281.266
-293.401
-303.03
-310.81
-316.323
-320.553
-323.365
-325.208
-326.033
-326.161
-325.634
-324.511
-322.881
-320.783
-318.258
-315.354
-312.105
-308.542
-304.697
-300.597
-296.27
-291.737
-287.019
-282.135
-277.102
-271.942
-266.681
-261.322
-255.869
-250.355
-244.798
-239.208
-233.591
-227.961
-222.327
-216.707
-211.108
-205.53
-199.966
-194.436
-188.945
-183.503
-178.122
-172.809
-167.563
-162.388
-157.289
-152.264
-147.315
-142.439
-137.637
-132.912
-128.262
-123.68
-119.166
-114.719
-110.33
-105.997
-101.716
-97.4857
-93.2986
-89.1526
-85.0434
-80.9731
-76.9271
-72.9086
-68.9131
-64.9465
-60.9887
-57.0563
-53.131
-49.2252
-45.3221
-41.4321
-37.5461
-33.665
-29.7914
-25.9174
-22.0436
-18.167
-14.2931
-10.4141
-6.53485
-2.64045
1.24769
5.15406
9.06042
12.9777
16.9048
20.8414
24.7874
28.7464
32.7102
36.6993
40.6819
44.689
48.6961
52.7146
56.7406
60.7683
64.8
68.8247
72.8512
76.8559
80.8527
84.831
88.7711
92.6467
96.4816
100.284
104.063
107.702
111.091
114.218
117.344
120.647
124.166
127.15
129.144
129.49
128.88
128.712
129.513
132.125
136.132
137.943
135.401
126.156
108.281
68.5749
57.4186
107.619
218.402
183.832
-38.7883
-140.475
46.1683
298.268
324.056
98.6266
-88.6231
10.2668
228.077
261.404
158.653
107.916
111.985
143.494
157.086
163.539
163.985
160.531
155.126
151.193
149.137
148.163
147.722
146.44
143.617
139.875
135.652
131.687
127.94
124.232
120.301
116.153
111.899
107.649
103.392
99.1186
94.8024
90.4687
86.1357
81.8123
77.4881
73.1799
68.8817
64.602
60.3427
56.1021
51.8826
47.687
43.5193
39.3671
35.2469
31.1466
27.0708
23.0151
18.9798
14.9694
10.9684
6.99372
3.02262
-0.919969
-4.86645
-8.79337
-12.716
-16.6335
-20.5467
-24.461
-28.3754
-32.2979
-36.2222
-40.1655
-44.1095
-48.0767
-52.0542
-56.0621
-60.0793
-64.131
-68.2068
-72.31
-76.4403
-80.606
-84.8033
-89.0399
-93.3133
-97.6286
-101.989
-106.396
-110.851
-115.358
-119.919
-124.535
-129.215
-133.951
-138.754
-143.625
-148.558
-153.544
-158.587
-163.673
-168.808
-173.996
-179.243
-184.541
-189.889
-195.271
-200.668
-206.082
-211.528
-217.007
-222.506
-228.014
-233.502
-238.97
-244.402
-249.801
-255.127
-260.367
-265.507
-270.543
-275.446
-280.201
-284.776
-289.148
-293.302
-297.203
-300.837
-304.18
-307.216
-309.904
-312.197
-314.038
-315.391
-316.19
-316.378
-315.881
-314.643
-312.427
-309.119
-304.483
-298.469
-290.737
-281.073
-268.57
-252.373
-229.947
-197.832
-154.769
-102.112
-33.2708
63.5419
188.902
364.35
572.385
744.028
803.601
737.489
559.939
349.575
175.814
50.3388
-41.3206
-112.414
-171.148
-217.407
-247.274
-266.441
-281.177
-293.323
-302.961
-310.749
-316.269
-320.504
-323.32
-325.167
-325.996
-326.127
-325.603
-324.482
-322.855
-320.758
-318.235
-315.332
-312.084
-308.523
-304.679
-300.58
-296.254
-291.722
-287.005
-282.121
-277.089
-271.929
-266.67
-261.311
-255.858
-250.345
-244.788
-239.199
-233.582
-227.953
-222.318
-216.7
-211.1
-205.523
-199.959
-194.429
-188.939
-183.497
-178.116
-172.803
-167.557
-162.383
-157.283
-152.258
-147.31
-142.434
-137.632
-132.907
-128.257
-123.675
-119.162
-114.714
-110.326
-105.993
-101.711
-97.4814
-93.2942
-89.1483
-85.0391
-80.9688
-76.9228
-72.9044
-68.9088
-64.9423
-60.9844
-57.052
-53.1267
-49.2209
-45.3177
-41.4277
-37.5417
-33.6606
-29.7869
-25.9129
-22.0391
-18.1625
-14.2886
-10.4095
-6.53027
-2.63585
1.25231
5.15872
9.06511
12.9824
16.9096
20.8461
24.7922
28.7512
32.715
36.7042
40.6867
44.6939
48.7009
52.7195
56.7455
60.7732
64.8049
68.8296
72.8562
76.8609
80.8576
84.8358
88.776
92.6518
96.487
100.289
104.067
107.706
111.096
114.228
117.357
120.657
124.163
127.136
129.129
129.505
128.946
128.82
129.65
132.22
136.099
137.814
135.22
126.055
108.604
71.9235
61.9382
111.054
218.53
181.837
-39.257
-143.341
38.2589
286.086
310.501
88.1392
-94.6169
7.74554
223.724
261.425
161.808
112.104
115.426
143.8
156.999
163.345
163.841
160.498
155.242
151.358
149.27
148.246
147.744
146.425
143.603
139.873
135.666
131.704
127.953
124.239
120.306
116.16
111.906
107.657
103.399
99.1253
94.809
90.4753
86.1422
81.8188
77.4945
73.1863
68.8879
64.6082
60.3488
56.1083
51.8887
47.693
43.5253
39.3731
35.2528
31.1525
27.0766
23.0209
18.9855
14.9751
10.9741
6.99933
3.02818
-0.914451
-4.86098
-8.78794
-12.7106
-16.6281
-20.5414
-24.4557
-28.3701
-32.2927
-36.217
-40.1603
-44.1044
-48.0716
-52.0491
-56.057
-60.0742
-64.1259
-68.2018
-72.3049
-76.4352
-80.6009
-84.7982
-89.0347
-93.3081
-97.6233
-101.984
-106.391
-110.845
-115.352
-119.913
-124.529
-129.209
-133.945
-138.748
-143.619
-148.551
-153.537
-158.58
-163.666
-168.801
-173.988
-179.235
-184.533
-189.881
-195.263
-200.659
-206.073
-211.519
-216.997
-222.496
-228.004
-233.491
-238.958
-244.389
-249.788
-255.113
-260.352
-265.492
-270.527
-275.429
-280.184
-284.757
-289.128
-293.281
-297.181
-300.813
-304.154
-307.188
-309.875
-312.166
-314.004
-315.355
-316.15
-316.335
-315.834
-314.592
-312.37
-309.056
-304.413
-298.391
-290.649
-280.972
-268.456
-252.241
-229.793
-197.644
-154.525
-101.773
-32.7798
64.2465
189.734
365.389
572.984
744.129
803.506
737.616
560.579
350.653
176.667
51.0582
-40.8331
-112.089
-170.923
-217.239
-247.136
-266.319
-281.069
-293.227
-302.876
-310.674
-316.202
-320.443
-323.266
-325.118
-325.95
-326.085
-325.564
-324.447
-322.822
-320.728
-318.206
-315.306
-312.059
-308.5
-304.657
-300.559
-296.234
-291.703
-286.987
-282.105
-277.074
-271.914
-266.655
-261.298
-255.845
-250.333
-244.776
-239.187
-233.571
-227.943
-222.309
-216.69
-211.091
-205.514
-199.951
-194.421
-188.931
-183.489
-178.109
-172.797
-167.55
-162.376
-157.277
-152.252
-147.304
-142.428
-137.627
-132.902
-128.252
-123.67
-119.157
-114.709
-110.32
-105.987
-101.706
-97.4763
-93.2893
-89.1433
-85.0341
-80.9639
-76.9179
-72.8995
-68.9039
-64.9374
-60.9796
-57.0471
-53.1218
-49.216
-45.3128
-41.4227
-37.5367
-33.6556
-29.7819
-25.9078
-22.034
-18.1574
-14.2835
-10.4043
-6.52507
-2.63061
1.25757
5.16401
9.07043
12.9878
16.9149
20.8515
24.7976
28.7566
32.7205
36.7097
40.6922
44.6994
48.7065
52.7251
56.7511
60.7788
64.8105
68.8352
72.8618
76.8666
80.8633
84.8414
88.7816
92.6578
96.4933
100.295
104.072
107.71
111.102
114.239
117.372
120.669
124.16
127.122
129.112
129.526
129.028
128.951
129.815
132.337
136.07
137.679
135.039
125.997
108.973
75.65
66.7386
114.121
218.341
175.563
-41.6687
-148.253
29.0871
273.055
296.169
76.4006
-102.656
2.8512
215.182
261.035
164.371
116.469
119.082
144.2
156.957
163.154
163.692
160.47
155.378
151.55
149.425
148.345
147.772
146.41
143.589
139.872
135.682
131.724
127.968
124.249
120.313
116.167
111.915
107.665
103.407
99.1329
94.8165
90.4828
86.1497
81.8261
77.5017
73.1934
68.8951
64.6153
60.3558
56.1152
51.8956
47.6999
43.5321
39.3798
35.2595
31.1591
27.0832
23.0274
18.992
14.9815
10.9804
7.00567
3.03446
-0.908214
-4.85479
-8.78179
-12.7045
-16.622
-20.5354
-24.4497
-28.3642
-32.2868
-36.2112
-40.1544
-44.0986
-48.0658
-52.0433
-56.0513
-60.0684
-64.1202
-68.196
-72.2991
-76.4294
-80.5951
-84.7924
-89.0288
-93.3022
-97.6174
-101.978
-106.385
-110.839
-115.346
-119.907
-124.522
-129.202
-133.938
-138.741
-143.612
-148.544
-153.53
-158.572
-163.658
-168.793
-173.98
-179.226
-184.524
-189.871
-195.253
-200.648
-206.062
-211.507
-216.985
-222.483
-227.99
-233.477
-238.943
-244.374
-249.772
-255.097
-260.335
-265.474
-270.507
-275.409
-280.162
-284.735
-289.104
-293.256
-297.154
-300.784
-304.124
-307.156
-309.839
-312.128
-313.964
-315.311
-316.102
-316.283
-315.777
-314.53
-312.302
-308.981
-304.33
-298.297