/*--------------------------------*- C++ -*----------------------------------*\
| =========                 |                                                 |
| \\      /  F ield         | OpenFOAM: The Open Source CFD Toolbox           |
|  \\    /   O peration     | Version:  2412                                  |
|   \\  /    A nd           | Website:  www.openfoam.com                      |
|    \\/     M anipulation  |                                                 |
\*---------------------------------------------------------------------------*/
FoamFile
{
    version     2.0;
    format      ascii;
    arch        "LSB;label=32;scalar=64";
    class       surfaceScalarField;
    location    "20";
    object      phi;
}
// * * * * * * * * * * * * * * * * * * * * * * * * * * * * * * * * * * * * * //

dimensions      [0 3 -1 0 0 0 0];

oriented        oriented;

internalField   nonuniform List<scalar> 
58903
(
1.08479e-05
4.19185e-07
-1.12671e-05
8.64338e-06
2.20458e-06
5.41617e-06
3.22728e-06
6.58988e-06
-1.17365e-06
2.62263e-06
3.96735e-06
-7.14961e-06
9.77231e-06
-1.43906e-05
7.24109e-06
-1.57438e-05
1.35329e-06
-1.336e-05
-2.38368e-06
-1.10412e-05
-2.31865e-06
-9.82852e-06
-1.21265e-06
-9.20438e-06
-6.24634e-07
-8.90296e-06
-3.00496e-07
-8.83442e-06
-6.88113e-08
-8.87539e-06
4.17505e-08
-8.8868e-06
1.16523e-08
-8.84242e-06
-4.40645e-08
-8.75398e-06
-8.81563e-08
-8.63419e-06
-1.19463e-07
-8.52976e-06
-1.04137e-07
-8.46283e-06
-6.58893e-08
-8.42791e-06
-3.49315e-08
-8.41193e-06
-1.55175e-08
-8.39727e-06
-1.42531e-08
-8.3765e-06
-2.02863e-08
-8.35201e-06
-2.40745e-08
-8.32915e-06
-2.09027e-08
-8.31149e-06
-1.83912e-08
-8.29765e-06
-1.09336e-08
-8.28592e-06
-1.23109e-08
-8.27446e-06
-1.05249e-08
-8.26403e-06
-9.54392e-09
-8.25452e-06
-9.03471e-09
-8.24635e-06
-7.86406e-09
-8.2395e-06
-5.07631e-09
-8.23287e-06
-8.19618e-09
-8.22729e-06
-3.81818e-09
-8.22212e-06
-6.42363e-09
-8.21735e-06
-4.01638e-09
-8.21318e-06
-3.32015e-09
-8.20962e-06
-3.01891e-09
-8.2063e-06
-2.82981e-09
-8.20361e-06
-2.70297e-09
-8.20131e-06
-1.21384e-09
-8.19937e-06
-2.12534e-09
-8.19767e-06
-1.28128e-09
-8.19624e-06
-1.79904e-09
-8.19511e-06
-9.77807e-10
-8.19403e-06
-3.19323e-10
-8.19304e-06
-5.5045e-10
-8.19274e-06
-4.68391e-10
-8.19249e-06
3.475e-10
-8.19303e-06
6.30679e-10
-8.19348e-06
5.35757e-10
-8.19375e-06
-3.05174e-10
-8.19464e-06
1.48045e-09
-8.1961e-06
7.84089e-11
-8.1973e-06
2.57066e-09
-8.19768e-06
-2.94483e-09
-8.1987e-06
4.36967e-09
-8.19989e-06
-2.59791e-09
-8.2015e-06
5.64292e-09
-8.20313e-06
1.65099e-09
-8.2049e-06
1.7402e-09
-8.20718e-06
1.87245e-09
-8.20925e-06
2.345e-09
-8.21165e-06
1.91716e-09
-8.21381e-06
2.73872e-09
-8.21616e-06
2.05546e-09
-8.21871e-06
3.55621e-09
-8.22126e-06
2.81337e-09
-8.22373e-06
3.6121e-09
-8.22761e-06
7.61865e-09
-8.2305e-06
5.55899e-10
-8.23329e-06
1.02505e-09
-8.23685e-06
5.79446e-09
-8.24083e-06
4.13051e-09
-8.24449e-06
4.50923e-09
-8.24812e-06
2.81859e-09
-8.25207e-06
5.09742e-09
-8.25652e-06
4.39864e-09
-8.26084e-06
5.17661e-09
-8.2655e-06
3.19079e-09
-8.27081e-06
7.10047e-09
-8.27507e-06
2.62548e-09
-8.27902e-06
6.19367e-09
-8.28528e-06
6.4265e-09
-8.29098e-06
5.97129e-09
-8.29677e-06
5.92084e-09
-8.30364e-06
7.02118e-09
-8.31059e-06
7.09694e-09
-8.31724e-06
6.7891e-09
-8.32476e-06
7.66963e-09
-8.33241e-06
7.82673e-09
-8.34044e-06
8.13631e-09
-8.34935e-06
9.05741e-09
-8.35909e-06
9.74255e-09
-8.37026e-06
1.12306e-08
-8.38146e-06
1.13111e-08
-8.3929e-06
1.16444e-08
-8.40495e-06
1.20393e-08
-8.41823e-06
1.32664e-08
-8.43213e-06
1.39692e-08
-8.44721e-06
1.49457e-08
-8.46261e-06
1.55952e-08
-8.47851e-06
1.59816e-08
-8.4951e-06
1.66437e-08
-8.51267e-06
1.75842e-08
-8.53127e-06
1.85705e-08
-8.54988e-06
1.84558e-08
-8.56812e-06
1.82385e-08
-8.58698e-06
1.87412e-08
-8.60917e-06
2.21982e-08
-8.63471e-06
2.54193e-08
-8.65963e-06
2.48927e-08
-8.68301e-06
2.32764e-08
-8.70471e-06
2.16804e-08
-8.72507e-06
2.02145e-08
-8.74451e-06
1.93901e-08
-8.76281e-06
1.82014e-08
-8.78032e-06
1.75394e-08
-8.79672e-06
1.62747e-08
-8.81173e-06
4.86976e-09
-8.82565e-06
2.36294e-08
-8.83993e-06
1.31562e-08
-8.85275e-06
1.40242e-08
-8.86408e-06
4.11808e-09
-8.87434e-06
1.74266e-08
-8.88328e-06
3.33757e-09
-8.88869e-06
1.0412e-08
-8.89022e-06
-1.08914e-08
-8.88708e-06
8.78713e-09
-8.87942e-06
-1.01156e-08
-8.86709e-06
-1.0192e-08
-8.84718e-06
-2.02398e-08
-8.81995e-06
-2.73486e-08
-8.78384e-06
-3.64723e-08
-8.73806e-06
-4.63804e-08
-8.68285e-06
-5.50361e-08
-8.61425e-06
-6.95954e-08
-8.52487e-06
-8.8526e-08
-8.40644e-06
-1.16774e-07
-8.23663e-06
-1.71883e-07
-8.00631e-06
-2.32229e-07
-7.74719e-06
-2.55939e-07
-7.46189e-06
-2.82684e-07
-6.7832e-06
-6.77958e-07
-4.99421e-06
-1.7093e-06
-1.79749e-06
-3.28075e-06
1.935e-06
-3.77867e-06
5.10168e-06
-3.12422e-06
6.82178e-06
-1.71941e-06
7.43065e-06
-6.07597e-07
7.65919e-06
-2.29602e-07
7.88726e-06
-2.28647e-07
8.13197e-06
-2.4524e-07
8.33402e-06
-2.04824e-07
8.49092e-06
-1.54144e-07
8.60102e-06
-1.08476e-07
8.67384e-06
-7.42641e-08
8.72565e-06
-5.12923e-08
8.76653e-06
-4.18836e-08
8.79914e-06
-3.29076e-08
8.82423e-06
-2.57272e-08
8.84374e-06
-1.93032e-08
8.85592e-06
-1.94322e-08
8.86477e-06
-2.53163e-09
8.86877e-06
-2.99843e-09
8.86747e-06
-2.34875e-10
8.86261e-06
1.38039e-08
8.85448e-06
-2.99374e-10
8.84468e-06
2.41434e-08
8.83363e-06
-3.25928e-09
8.82155e-06
3.01172e-08
8.8079e-06
-4.07878e-09
8.79396e-06
2.83975e-08
8.77915e-06
3.64555e-10
8.76353e-06
1.55379e-08
8.74653e-06
1.67261e-08
8.72882e-06
1.76832e-08
8.70957e-06
1.93136e-08
8.68919e-06
2.02744e-08
8.66758e-06
2.16014e-08
8.64466e-06
2.28945e-08
8.6204e-06
2.42484e-08
8.59547e-06
2.49366e-08
8.57389e-06
2.16247e-08
8.55558e-06
1.83847e-08
8.53769e-06
1.80739e-08
8.51901e-06
1.88212e-08
8.50006e-06
1.91106e-08
8.48214e-06
1.81056e-08
8.46526e-06
1.69048e-08
8.44917e-06
1.61469e-08
8.43423e-06
1.48274e-08
8.42e-06
1.41922e-08
8.40651e-06
1.34444e-08
8.39321e-06
1.32683e-08
8.38079e-06
1.24743e-08
8.36898e-06
1.18294e-08
8.35798e-06
1.10307e-08
8.34765e-06
1.03681e-08
8.3382e-06
9.49145e-09
8.32905e-06
9.19208e-09
8.32036e-06
8.72979e-09
8.31237e-06
8.0743e-09
8.30475e-06
7.66055e-09
8.29744e-06
7.37121e-09
8.29038e-06
7.11029e-09
8.28392e-06
6.54634e-09
8.27793e-06
6.10419e-09
8.27189e-06
6.29943e-09
8.26637e-06
5.606e-09
8.26124e-06
1.12332e-08
8.25619e-06
-1.03929e-09
8.25127e-06
1.11768e-08
8.24629e-06
-1.40953e-09
8.24224e-06
1.28141e-08
8.23835e-06
-4.96098e-09
8.23415e-06
7.6702e-09
8.22994e-06
9.10264e-11
8.22639e-06
9.06946e-09
8.22285e-06
-2.1668e-09
8.21914e-06
7.10086e-09
8.21537e-06
-1.24971e-10
8.21242e-06
6.1887e-09
8.20895e-06
-7.02228e-11
8.20623e-06
2.63222e-09
8.20326e-06
2.94151e-09
8.20041e-06
2.8739e-09
8.19789e-06
2.67321e-09
8.19569e-06
1.83819e-09
8.19306e-06
2.49771e-09
8.19071e-06
2.49397e-09
8.18832e-06
2.89695e-09
8.1867e-06
1.35681e-09
8.18484e-06
1.87314e-09
8.18301e-06
8.43391e-09
8.18154e-06
-5.09421e-09
8.18012e-06
8.63641e-09
8.17904e-06
-6.78008e-09
8.17755e-06
7.58069e-09
8.17652e-06
-6.19652e-09
8.17532e-06
3.03931e-10
8.17449e-06
4.51238e-10
8.17372e-06
4.50612e-10
8.17299e-06
1.81613e-10
8.17288e-06
-3.21277e-10
8.17263e-06
-1.51995e-10
8.17301e-06
-9.19817e-10
8.17374e-06
-9.81226e-10
8.17408e-06
-4.72449e-10
8.17483e-06
-1.60193e-09
8.17576e-06
-2.21525e-09
8.17678e-06
-6.61671e-10
8.1784e-06
-1.69879e-09
8.1802e-06
-2.16715e-09
8.18256e-06
-2.3173e-09
8.18512e-06
-2.83491e-09
8.18834e-06
-3.0605e-09
8.19188e-06
-3.59906e-09
8.19611e-06
-4.03819e-09
8.20061e-06
-5.38355e-09
8.20597e-06
-4.44328e-09
8.21169e-06
-5.48448e-09
8.21872e-06
-7.01157e-09
8.22705e-06
-7.90186e-09
8.23638e-06
-9.03074e-09
8.24644e-06
-1.15934e-08
8.25676e-06
-8.5222e-09
8.26913e-06
-1.31693e-08
8.28531e-06
-1.43702e-08
8.30673e-06
-2.10968e-08
8.32984e-06
-2.28597e-08
8.34927e-06
-1.92862e-08
8.3626e-06
-1.31368e-08
8.37725e-06
-1.48854e-08
8.41105e-06
-3.30799e-08
8.47704e-06
-6.60028e-08
8.58096e-06
-1.03533e-07
8.70045e-06
-1.19381e-07
8.78954e-06
-8.89348e-08
8.83541e-06
-4.5782e-08
8.82641e-06
9.12765e-09
8.78895e-06
3.8048e-08
8.86246e-06
-7.37769e-08
9.1728e-06
-3.09856e-07
9.81056e-06
-6.38017e-07
1.10439e-05
-1.23327e-06
1.33994e-05
-2.35533e-06
1.58346e-05
-2.43519e-06
1.45184e-05
1.31644e-06
7.19307e-06
7.32818e-06
-2.82457e-06
1.00147e-05
-6.84246e-06
4.01785e-06
-5.57055e-06
-1.27185e-06
-8.91566e-06
3.34515e-06
-1.1454e-05
2.53842e-06
-1.10348e-05
3.24965e-05
1.17882e-06
-4.49423e-05
2.83581e-05
6.34306e-06
1.8617e-05
1.29685e-05
1.92956e-05
-1.85213e-06
3.76797e-06
1.94952e-05
-2.75101e-05
4.10505e-05
-4.8848e-05
2.85791e-05
-5.20283e-05
4.53387e-06
-4.46813e-05
-9.73051e-06
-3.76198e-05
-9.37982e-06
-3.38671e-05
-4.96522e-06
-3.19272e-05
-2.56521e-06
-3.09997e-05
-1.22645e-06
-3.07854e-05
-2.83447e-07
-3.08915e-05
1.49125e-07
-3.09012e-05
2.18768e-08
-3.07323e-05
-2.12342e-07
-3.04247e-05
-3.9517e-07
-3.003e-05
-5.13533e-07
-2.96882e-05
-4.45377e-07
-2.94687e-05
-2.83575e-07
-2.93502e-05
-1.53254e-07
-2.92915e-05
-7.33332e-08
-2.92361e-05
-6.88998e-08
-2.91618e-05
-9.36793e-08
-2.9076e-05
-1.09066e-07
-2.89972e-05
-9.63733e-08
-2.89351e-05
-8.15983e-08
-2.88875e-05
-5.35658e-08
-2.88444e-05
-5.60194e-08
-2.88044e-05
-4.87453e-08
-2.87668e-05
-4.54734e-08
-2.87334e-05
-4.16259e-08
-2.87051e-05
-3.5657e-08
-2.86795e-05
-2.81199e-08
-2.86572e-05
-3.27753e-08
-2.86362e-05
-2.21601e-08
-2.86178e-05
-2.66709e-08
-2.86004e-05
-1.99837e-08
-2.85865e-05
-1.5671e-08
-2.85733e-05
-1.52306e-08
-2.85617e-05
-1.36159e-08
-2.85517e-05
-1.27693e-08
-2.85438e-05
-7.65683e-09
-2.85364e-05
-9.44449e-09
-2.85305e-05
-6.77914e-09
-2.8525e-05
-7.75601e-09
-2.85205e-05
-5.35126e-09
-2.85181e-05
-1.25482e-09
-2.85154e-05
-2.47415e-09
-2.85138e-05
-2.38539e-09
-2.85137e-05
1.28708e-09
-2.85144e-05
1.48135e-09
-2.85166e-05
2.80096e-09
-2.85178e-05
-1.86693e-10
-2.85203e-05
5.04685e-09
-2.85242e-05
1.40349e-09
-2.8529e-05
9.67488e-09
-2.85312e-05
-6.1741e-09
-2.85344e-05
1.28639e-08
-2.85381e-05
-4.97556e-09
-2.85422e-05
1.62124e-08
-2.85493e-05
8.71391e-09
-2.85564e-05
8.64988e-09
-2.85634e-05
8.02667e-09
-2.85707e-05
1.01639e-08
-2.85782e-05
8.38718e-09
-2.85865e-05
1.21255e-08
-2.85944e-05
9.28882e-09
-2.86023e-05
1.33435e-08
-2.86103e-05
1.13075e-08
-2.86198e-05
1.52659e-08
-2.8632e-05
2.54921e-08
-2.86439e-05
9.20221e-09
-2.86519e-05
6.09006e-09
-2.86644e-05
2.20733e-08
-2.86775e-05
1.72357e-08
-2.86905e-05
1.91928e-08
-2.8703e-05
1.38285e-08
-2.8717e-05
2.11532e-08
-2.87313e-05
1.83687e-08
-2.8747e-05
2.25327e-08
-2.87625e-05
1.62087e-08
-2.87795e-05
2.71036e-08
-2.87936e-05
1.4062e-08
-2.88077e-05
2.38789e-08
-2.88291e-05
2.81566e-08
-2.88472e-05
2.45119e-08
-2.88677e-05
2.66634e-08
-2.88914e-05
3.09658e-08
-2.89143e-05
3.0211e-08
-2.89363e-05
2.90614e-08
-2.89621e-05
3.37576e-08
-2.89887e-05
3.46914e-08
-2.90157e-05
3.53834e-08
-2.90455e-05
3.91551e-08
-2.90793e-05
4.35261e-08
-2.91167e-05
4.88098e-08
-2.91547e-05
4.95443e-08
-2.91929e-05
5.02096e-08
-2.92346e-05
5.36947e-08
-2.92793e-05
5.79658e-08
-2.93269e-05
6.17341e-08
-2.93779e-05
6.5734e-08
-2.943e-05
6.80445e-08
-2.94836e-05
6.97303e-08
-2.95392e-05
7.22897e-08
-2.95988e-05
7.72529e-08
-2.96614e-05
8.11479e-08
-2.97238e-05
8.0521e-08
-2.97847e-05
7.91858e-08
-2.98473e-05
8.10659e-08
-2.99217e-05
9.66985e-08
-3.00066e-05
1.10081e-07
-3.00905e-05
1.08755e-07
-3.01683e-05
1.00871e-07
-3.02406e-05
9.39063e-08
-3.03086e-05
8.80056e-08
-3.03728e-05
8.34704e-08
-3.04329e-05
7.80839e-08
-3.04904e-05
7.51224e-08
-3.05448e-05
7.04445e-08
-3.05937e-05
3.88716e-08
-3.06392e-05
8.31659e-08
-3.06841e-05
5.6309e-08
-3.07246e-05
5.63973e-08
-3.07604e-05
2.93435e-08
-3.07924e-05
5.98208e-08
-3.0819e-05
2.15689e-08
-3.08337e-05
3.22984e-08
-3.0835e-05
-2.76478e-08
-3.08194e-05
1.03168e-08
-3.07874e-05
-4.58411e-08
-3.07384e-05
-5.62158e-08
-3.06636e-05
-9.57315e-08
-3.05613e-05
-1.29866e-07
-3.04273e-05
-1.71215e-07
-3.02593e-05
-2.15531e-07
-3.00572e-05
-2.5689e-07
-2.98024e-05
-3.26315e-07
-2.94697e-05
-4.19524e-07
-2.90179e-05
-5.6523e-07
-2.83772e-05
-8.16961e-07
-2.75403e-05
-1.073e-06
-2.66242e-05
-1.16574e-06
-2.55961e-05
-1.30553e-06
-2.31576e-05
-3.11528e-06
-1.69659e-05
-7.78402e-06
-6.08969e-06
-1.42812e-05
6.55756e-06
-1.64941e-05
1.73386e-05
-1.38437e-05
2.32998e-05
-7.6792e-06
2.54883e-05
-2.79326e-06
2.62745e-05
-1.01812e-06
2.70765e-05
-1.03178e-06
2.79908e-05
-1.16063e-06
2.87626e-05
-9.82062e-07
2.93473e-05
-7.33485e-07
2.97538e-05
-5.11941e-07
3.00252e-05
-3.48398e-07
3.02168e-05
-2.41902e-07
3.03684e-05
-1.95443e-07
3.04902e-05
-1.55288e-07
3.05848e-05
-1.21549e-07
3.06579e-05
-9.19964e-08
3.07058e-05
-7.78748e-08
3.07415e-05
-2.93964e-08
3.07597e-05
-1.98499e-08
3.07589e-05
-1.79574e-09
3.07459e-05
3.96816e-08
3.0722e-05
1.15304e-08
3.06916e-05
7.50691e-08
3.06567e-05
1.10431e-08
3.06188e-05
9.39389e-08
3.05761e-05
1.30483e-08
3.05307e-05
9.45447e-08
3.04825e-05
2.76608e-08
3.04308e-05
6.71052e-08
3.03751e-05
7.19439e-08
3.03171e-05
7.56397e-08
3.02537e-05
8.292e-08
3.01855e-05
8.82312e-08
3.01136e-05
9.35825e-08
3.00374e-05
9.91027e-08
2.99557e-05
1.05846e-07
2.98731e-05
1.07677e-07
2.98007e-05
9.40376e-08
2.97401e-05
7.91257e-08
2.96805e-05
7.80726e-08
2.9618e-05
8.1624e-08
2.95541e-05
8.32877e-08
2.94933e-05
7.93682e-08
2.94366e-05
7.35831e-08
2.93823e-05
7.0581e-08
2.93317e-05
6.52077e-08
2.92836e-05
6.22189e-08
2.92375e-05
5.94719e-08
2.91927e-05
5.79174e-08
2.91499e-05
5.54901e-08
2.91103e-05
5.13954e-08
2.9073e-05
4.84491e-08
2.90384e-05
4.49916e-08
2.90058e-05
4.22137e-08
2.89752e-05
3.98636e-08
2.89459e-05
3.81224e-08
2.89181e-05
3.60593e-08
2.88919e-05
3.39129e-08
2.88676e-05
3.18779e-08
2.88442e-05
3.05644e-08
2.88219e-05
2.90151e-08
2.88008e-05
2.74858e-08
2.87815e-05
2.61261e-08
2.87626e-05
2.46981e-08
2.87444e-05
3.85219e-08
2.87276e-05
6.71083e-09
2.87118e-05
3.64106e-08
2.86953e-05
5.47985e-09
2.86804e-05
4.08492e-08
2.8668e-05
-5.84247e-09
2.86532e-05
2.7692e-08
2.86387e-05
8.18137e-09
2.8626e-05
3.01178e-08
2.86145e-05
7.75266e-10
2.86015e-05
2.52041e-08
2.85902e-05
5.16403e-09
2.8578e-05
2.3248e-08
2.85672e-05
5.33468e-09
2.85569e-05
1.27341e-08
2.85474e-05
1.2417e-08
2.85385e-05
1.18932e-08
2.853e-05
1.1474e-08
2.85215e-05
9.59892e-09
2.85132e-05
1.05134e-08
2.85049e-05
1.10867e-08
2.84975e-05
1.13799e-08
2.84909e-05
7.43738e-09
2.84831e-05
9.69957e-09
2.84782e-05
2.34244e-08
2.84735e-05
-1.0391e-08
2.84689e-05
2.41758e-08
2.84642e-05
-1.42269e-08
2.84584e-05
2.25906e-08
2.84559e-05
-1.48817e-08
2.84524e-05
2.09071e-09
2.84492e-05
2.87137e-09
2.84459e-05
3.16012e-09
2.84445e-05
4.82642e-10
2.84434e-05
-2.7374e-11
2.8443e-05
-5.95351e-10
2.84436e-05
-2.5295e-09
2.84447e-05
-2.65347e-09
2.84465e-05
-2.4994e-09
2.84496e-05
-6.34125e-09
2.84527e-05
-7.40426e-09
2.84569e-05
-4.51841e-09
2.84624e-05
-7.41144e-09
2.84692e-05
-9.6826e-09
2.84775e-05
-1.05246e-08
2.84871e-05
-1.29781e-08
2.84976e-05
-1.32864e-08
2.85107e-05
-1.67746e-08
2.85257e-05
-1.86634e-08
2.85429e-05
-2.38484e-08
2.85606e-05
-2.09247e-08
2.85823e-05
-2.66552e-08
2.86064e-05
-3.11393e-08
2.86356e-05
-3.63194e-08
2.86693e-05
-4.20415e-08
2.87043e-05
-4.89285e-08
2.87424e-05
-4.38655e-08
2.87847e-05
-5.65101e-08
2.88413e-05
-6.80897e-08
2.8915e-05
-9.41447e-08
2.89957e-05
-1.02993e-07
2.90651e-05
-8.84301e-08
2.91155e-05
-6.32221e-08
2.91693e-05
-6.89514e-08
2.92833e-05
-1.459e-07
2.94993e-05
-2.81855e-07
2.98387e-05
-4.42277e-07
3.02319e-05
-5.12409e-07
3.05408e-05
-3.97508e-07
3.07139e-05
-2.18644e-07
3.07113e-05
1.19552e-08
3.06159e-05
1.34484e-07
3.08459e-05
-3.04224e-07
3.18011e-05
-1.26414e-06
3.37835e-05
-2.62084e-06
3.75999e-05
-5.04955e-06
4.47701e-05
-9.52534e-06
5.22701e-05
-9.93495e-06
4.92254e-05
4.36138e-06
2.76873e-05
2.88711e-05
-4.25649e-06
4.19535e-05
-1.99988e-05
1.976e-05
-1.92696e-05
-2.00094e-06
-2.93727e-05
1.34484e-05
-3.43175e-05
7.48335e-06
-4.41736e-05
5.50811e-05
2.1052e-06
-0.000102129
5.26348e-05
8.78938e-06
3.70285e-05
2.8575e-05
3.37268e-05
1.44963e-06
-1.24652e-07
5.33468e-05
-5.80635e-05
9.89895e-05
-9.37135e-05
6.42292e-05
-9.74317e-05
8.25224e-06
-8.43528e-05
-2.28092e-05
-7.21518e-05
-2.15806e-05
-6.55915e-05
-1.15254e-05
-6.21787e-05
-5.97867e-06
-6.05555e-05
-2.84828e-06
-6.01784e-05
-6.6089e-07
-6.0325e-05
2.96943e-07
-6.02927e-05
-1.00484e-08
-5.99379e-05
-5.66653e-07
-5.93376e-05
-9.95013e-07
-5.85991e-05
-1.25143e-06
-5.79666e-05
-1.07737e-06
-5.75574e-05
-6.91202e-07
-5.73334e-05
-3.77141e-07
-5.72122e-05
-1.93729e-07
-5.70969e-05
-1.83493e-07
-5.69472e-05
-2.42577e-07
-5.67813e-05
-2.74309e-07
-5.66291e-05
-2.45535e-07
-5.65091e-05
-2.02495e-07
-5.64118e-05
-1.46365e-07
-5.63285e-05
-1.39917e-07
-5.62483e-05
-1.27356e-07
-5.61744e-05
-1.17834e-07
-5.61087e-05
-1.06519e-07
-5.60519e-05
-9.19475e-08
-5.60026e-05
-7.46984e-08
-5.59566e-05
-8.10816e-08
-5.59163e-05
-5.9691e-08
-5.58792e-05
-6.56195e-08
-5.58454e-05
-5.24712e-08
-5.58171e-05
-4.24909e-08
-5.57916e-05
-3.97008e-08
-5.57693e-05
-3.50911e-08
-5.57501e-05
-3.19654e-08
-5.5734e-05
-2.1948e-08
-5.57213e-05
-2.24142e-08
-5.57093e-05
-1.80366e-08
-5.5699e-05
-1.86347e-08
-5.56905e-05
-1.34146e-08
-5.56846e-05
-5.98045e-09
-5.56797e-05
-6.60617e-09
-5.56767e-05
-5.70233e-09
-5.56765e-05
2.20165e-09
-5.56788e-05
3.94476e-09
-5.56812e-05
5.34076e-09
-5.56866e-05
4.2859e-09
-5.56901e-05
9.55426e-09
-5.57002e-05
9.64944e-09
-5.57056e-05
1.70373e-08
-5.57102e-05
-6.42194e-09
-5.5718e-05
2.5542e-08
-5.57253e-05
-3.15847e-09
-5.57355e-05
3.2435e-08
-5.5747e-05
2.02145e-08
-5.57602e-05
2.188e-08
-5.57742e-05
2.13127e-08
-5.57879e-05
2.43941e-08
-5.58035e-05
2.31478e-08
-5.58181e-05
2.77108e-08
-5.58319e-05
2.26699e-08
-5.58485e-05
3.16629e-08
-5.58654e-05
2.87297e-08
-5.58835e-05
3.53524e-08
-5.59076e-05
5.53444e-08
-5.59282e-05
2.64892e-08
-5.59451e-05
2.04746e-08
-5.59679e-05
4.82143e-08
-5.59918e-05
4.16105e-08
-5.60166e-05
4.52728e-08
-5.60405e-05
3.67154e-08
-5.60673e-05
4.95816e-08
-5.60944e-05
4.55819e-08
-5.61229e-05
5.23705e-08
-5.61524e-05
4.36567e-08
-5.61855e-05
6.27815e-08
-5.6212e-05
3.83012e-08
-5.6236e-05
5.12509e-08
-5.62769e-05
6.93627e-08
-5.63132e-05
6.13676e-08
-5.63511e-05
6.47696e-08
-5.63942e-05
7.43017e-08
-5.64372e-05
7.3505e-08
-5.64807e-05
7.28473e-08
-5.65275e-05
8.07881e-08
-5.65767e-05
8.42495e-08
-5.66274e-05
8.61958e-08
-5.66853e-05
9.73483e-08
-5.67495e-05
1.07718e-07
-5.68204e-05
1.19753e-07
-5.68922e-05
1.21564e-07
-5.69653e-05
1.23718e-07
-5.70431e-05
1.31463e-07
-5.7129e-05
1.43854e-07
-5.72193e-05
1.52111e-07
-5.73155e-05
1.61733e-07
-5.74139e-05
1.66739e-07
-5.7513e-05
1.69009e-07
-5.76183e-05
1.77653e-07
-5.77298e-05
1.88803e-07
-5.78457e-05
1.97032e-07
-5.79628e-05
1.97338e-07
-5.80758e-05
1.92148e-07
-5.81902e-05
1.95211e-07
-5.83281e-05
2.34664e-07
-5.84868e-05
2.68541e-07
-5.8642e-05
2.63918e-07
-5.87849e-05
2.43582e-07
-5.89174e-05
2.26338e-07
-5.90416e-05
2.11965e-07
-5.91602e-05
2.02051e-07
-5.92708e-05
1.88435e-07
-5.93755e-05
1.79947e-07
-5.94746e-05
1.69279e-07
-5.9562e-05
1.10992e-07
-5.96422e-05
1.77863e-07
-5.97234e-05
1.35859e-07
-5.97924e-05
1.27194e-07
-5.98539e-05
7.99057e-08
-5.99057e-05
1.22437e-07
-5.99479e-05
5.52639e-08
-5.99694e-05
6.11629e-08
-5.99604e-05
-5.53763e-08
-5.99189e-05
-1.33198e-08
-5.98472e-05
-1.21254e-07
-5.97388e-05
-1.61476e-07
-5.95796e-05
-2.55516e-07
-5.93674e-05
-3.42202e-07
-5.90906e-05
-4.48671e-07
-5.87454e-05
-5.61781e-07
-5.83287e-05
-6.73255e-07
-5.78025e-05
-8.54255e-07
-5.71008e-05
-1.11972e-06
-5.61423e-05
-1.52091e-06
-5.48171e-05
-2.14568e-06
-5.31666e-05
-2.72666e-06
-5.14289e-05
-2.89808e-06
-4.94149e-05
-3.31506e-06
-4.45861e-05
-7.9427e-06
-3.25462e-05
-1.97049e-05
-1.16544e-05
-3.52995e-05
1.25535e-05
-4.07717e-05
3.32801e-05
-3.45069e-05
4.48791e-05
-1.92771e-05
4.91984e-05
-7.11048e-06
5.06607e-05
-2.48219e-06
5.21472e-05
-2.51923e-06
5.39861e-05
-3.00043e-06
5.56128e-05
-2.61341e-06
5.6848e-05
-1.96403e-06
5.76985e-05
-1.35974e-06
5.82621e-05
-9.1439e-07
5.8662e-05
-6.40942e-07
5.89771e-05
-5.12255e-07
5.923e-05
-4.08763e-07
5.94267e-05
-3.1935e-07
5.95816e-05
-2.46476e-07
5.96869e-05
-1.94315e-07
5.97644e-05
-9.73667e-08
5.98104e-05
-6.43973e-08
5.98199e-05
-1.36684e-08
5.98014e-05
7.17051e-08
5.97643e-05
3.59756e-08
5.97155e-05
1.45404e-07
5.96559e-05
4.90151e-08
5.95919e-05
1.85236e-07
5.95152e-05
6.29298e-08
5.94355e-05
1.96074e-07
5.93496e-05
9.16766e-08
5.92558e-05
1.60732e-07
5.91547e-05
1.72556e-07
5.90484e-05
1.81948e-07
5.89313e-05
2.00086e-07
5.88071e-05
2.12235e-07
5.86752e-05
2.25436e-07
5.85353e-05
2.38937e-07
5.83846e-05
2.56525e-07
5.82303e-05
2.62006e-07
5.80966e-05
2.27824e-07
5.79862e-05
1.8967e-07
5.78759e-05
1.8865e-07
5.77586e-05
1.99138e-07
5.76403e-05
2.01904e-07
5.75262e-05
1.9375e-07
5.74188e-05
1.81043e-07
5.73181e-05
1.71368e-07
5.72224e-05
1.6073e-07
5.71318e-05
1.52777e-07
5.70446e-05
1.46541e-07
5.69589e-05
1.43599e-07
5.68788e-05
1.35673e-07
5.68031e-05
1.27171e-07
5.67324e-05
1.19124e-07
5.66672e-05
1.10268e-07
5.66054e-05
1.04135e-07
5.65461e-05
9.91643e-08
5.64911e-05
9.32208e-08
5.64393e-05
8.7966e-08
5.63918e-05
8.15687e-08
5.63437e-05
8.00676e-08
5.62995e-05
7.48203e-08
5.6259e-05
6.96714e-08
5.62199e-05
6.67338e-08
5.61812e-05
6.52696e-08
5.6145e-05
6.11161e-08
5.61135e-05
7.91562e-08
5.60814e-05
2.97141e-08
5.60506e-05
7.65936e-08
5.6019e-05
2.74751e-08
5.59921e-05
8.10144e-08
5.59686e-05
4.3124e-09
5.59405e-05
6.08936e-08
5.59128e-05
2.96607e-08
5.58885e-05
6.26772e-08
5.58674e-05
1.32844e-08
5.58439e-05
5.37654e-08
5.58208e-05
2.23849e-08
5.57994e-05
4.94578e-08
5.57779e-05
2.15393e-08
5.57583e-05
3.21271e-08
5.57385e-05
3.2143e-08
5.57199e-05
3.05934e-08
5.57048e-05
2.68381e-08
5.56898e-05
2.39113e-08
5.56728e-05
2.73576e-08
5.56571e-05
2.69719e-08
5.56423e-05
2.70367e-08
5.56299e-05
1.93731e-08
5.56172e-05
2.2489e-08
5.56055e-05
4.50229e-08
5.55962e-05
-1.09337e-08
5.55859e-05
4.52471e-08
5.55765e-05
-1.66772e-08
5.55689e-05
3.91566e-08
5.55611e-05
-1.79807e-08
5.55558e-05
5.81797e-09
5.55467e-05
1.13447e-08
5.5542e-05
7.29002e-09
5.55383e-05
3.26095e-09
5.55361e-05
1.44134e-09
5.55354e-05
-5.81818e-10
5.55362e-05
-4.24779e-09
5.55394e-05
-6.37375e-09
5.55427e-05
-6.1116e-09
5.55482e-05
-1.31317e-08
5.55548e-05
-1.60833e-08
5.55612e-05
-1.05005e-08
5.55725e-05
-1.87917e-08
5.55854e-05
-2.32761e-08
5.56011e-05
-2.61426e-08
5.56195e-05
-3.18318e-08
5.5641e-05
-3.45325e-08
5.56664e-05
-4.22583e-08
5.56967e-05
-4.85908e-08
5.57294e-05
-5.78409e-08
5.57664e-05
-5.66238e-08
5.58078e-05
-6.75599e-08
5.58563e-05
-7.96464e-08
5.59136e-05
-9.28914e-08
5.59795e-05
-1.07392e-07
5.60498e-05
-1.21526e-07
5.61231e-05
-1.14454e-07
5.621e-05
-1.44484e-07
5.63191e-05
-1.74461e-07
5.64611e-05
-2.35521e-07
5.66168e-05
-2.5828e-07
5.67566e-05
-2.27986e-07
5.68618e-05
-1.68163e-07
5.6973e-05
-1.80432e-07
5.7188e-05
-3.59839e-07
5.75898e-05
-6.83636e-07
5.82171e-05
-1.06891e-06
5.89522e-05
-1.2474e-06
5.95541e-05
-9.99147e-07
5.99159e-05
-5.80268e-07
5.99608e-05
-3.26877e-08
5.98331e-05
2.62988e-07
6.0239e-05
-7.10403e-07
6.19124e-05
-2.93691e-06
6.54028e-05
-6.11155e-06
7.20782e-05
-1.17248e-05
8.44708e-05
-2.19178e-05
9.78224e-05
-2.32864e-05
9.43906e-05
7.79341e-06
5.85195e-05
6.47462e-05
-5.46624e-07
0.000101016
-3.5e-05
5.42134e-05
-3.84367e-05
1.43589e-06
-5.46813e-05
2.9693e-05
-5.84113e-05
1.12135e-05
-0.00010048
7.86093e-05
3.02001e-06
-0.000183758
8.09495e-05
6.44927e-06
5.96278e-05
4.98968e-05
4.79085e-05
1.3169e-05
-1.17989e-05
0.000113054
-0.000100499
0.00018769
-0.000149206
0.000112937
-0.000151764
1.08099e-05
-0.000132535
-4.20379e-05
-0.000115245
-3.887e-05
-0.000105829
-2.09413e-05
-0.000100882
-1.09266e-05
-9.85506e-05
-5.17787e-06
-9.79931e-05
-1.21863e-06
-9.81401e-05
4.45366e-07
-9.79997e-05
-1.49911e-07
-9.73796e-05
-1.18599e-06
-9.64078e-05
-1.96609e-06
-9.52561e-05
-2.40238e-06
-9.42827e-05
-2.04997e-06
-9.3653e-05
-1.31894e-06
-9.3299e-05
-7.30812e-07
-9.30959e-05
-3.95783e-07
-9.28977e-05
-3.80729e-07
-9.26493e-05
-4.89815e-07
-9.23786e-05
-5.44096e-07
-9.21336e-05
-4.87114e-07
-9.19359e-05
-4.00961e-07
-9.17815e-05
-2.95558e-07
-9.16426e-05
-2.78914e-07
-9.15096e-05
-2.58071e-07
-9.13887e-05
-2.36743e-07
-9.12816e-05
-2.12503e-07
-9.11889e-05
-1.84125e-07
-9.11065e-05
-1.54661e-07
-9.10316e-05
-1.58119e-07
-9.09644e-05
-1.24232e-07
-9.0904e-05
-1.27769e-07
-9.08513e-05
-1.03374e-07
-9.08042e-05
-8.7736e-08
-9.07633e-05
-7.93994e-08
-9.07261e-05
-7.12558e-08
-9.06942e-05
-6.39003e-08
-9.06689e-05
-4.58142e-08
-9.06473e-05
-4.36582e-08
-9.06273e-05
-3.7835e-08
-9.06116e-05
-3.46251e-08
-9.05981e-05
-2.68124e-08
-9.05883e-05
-1.40051e-08
-9.05812e-05
-1.27671e-08
-9.05762e-05
-1.11571e-08
-9.05774e-05
4.67655e-09
-9.05824e-05
9.13885e-09
-9.05875e-05
1.0577e-08
-9.05924e-05
7.78711e-09
-9.0602e-05
2.04903e-08
-9.06151e-05
2.01288e-08
-9.06262e-05
3.04308e-08
-9.06326e-05
-5.48156e-09
-9.06449e-05
4.31384e-08
-9.06574e-05
3.30683e-09
-9.06728e-05
5.42394e-08
-9.06915e-05
3.89352e-08
-9.07132e-05
4.33215e-08
-9.07372e-05
4.41737e-08
-9.07608e-05
4.85164e-08
-9.0782e-05
4.31338e-08
-9.08043e-05
5.13383e-08
-9.08293e-05
4.68733e-08
-9.08537e-05
5.84225e-08
-9.0879e-05
5.45635e-08
-9.09076e-05
6.66839e-08
-9.09463e-05
9.96828e-08
-9.09781e-05
5.55991e-08
-9.10034e-05
4.29367e-08
-9.10393e-05
8.79018e-08
-9.10791e-05
8.15724e-08
-9.11179e-05
8.58616e-08
-9.11532e-05
7.06049e-08
-9.11952e-05
9.36619e-08
-9.12366e-05
8.68241e-08
-9.12825e-05
1.00003e-07
-9.13278e-05
8.65968e-08
-9.13771e-05
1.15003e-07
-9.14183e-05
7.7033e-08
-9.14577e-05
9.42169e-08
-9.152e-05
1.32077e-07
-9.15741e-05
1.15991e-07
-9.16354e-05
1.26414e-07
-9.17035e-05
1.42679e-07
-9.17702e-05
1.40567e-07
-9.18351e-05
1.38007e-07
-9.19092e-05
1.55232e-07
-9.19855e-05
1.60879e-07
-9.20662e-05
1.67236e-07
-9.21549e-05
1.86391e-07
-9.2255e-05
2.07891e-07
-9.23663e-05
2.3118e-07
-9.248e-05
2.35593e-07
-9.25934e-05
2.37597e-07
-9.27147e-05
2.52702e-07
-9.28483e-05
2.77492e-07
-9.29901e-05
2.94074e-07
-9.31404e-05
3.11762e-07
-9.32927e-05
3.19475e-07
-9.34474e-05
3.23892e-07
-9.36098e-05
3.40157e-07
-9.37823e-05
3.61296e-07
-9.39623e-05
3.76973e-07
-9.41389e-05
3.73661e-07
-9.43096e-05
3.62906e-07
-9.44838e-05
3.69037e-07
-9.46922e-05
4.43133e-07
-9.49315e-05
5.07596e-07
-9.51658e-05
4.98175e-07
-9.53836e-05
4.61101e-07
-9.55828e-05
4.25522e-07
-9.57706e-05
3.99367e-07
-9.59453e-05
3.76635e-07
-9.61108e-05
3.53712e-07
-9.62653e-05
3.34512e-07
-9.64097e-05
3.13429e-07
-9.65376e-05
2.24482e-07
-9.66571e-05
3.10575e-07
-9.67701e-05
2.47257e-07
-9.68704e-05
2.29246e-07
-9.69542e-05
1.53666e-07
-9.70228e-05
2.00782e-07
-9.70737e-05
9.81356e-08
-9.70858e-05
7.98721e-08
-9.70523e-05
-1.06204e-07
-9.69675e-05
-8.21552e-08
-9.68283e-05
-2.6398e-07
-9.66318e-05
-3.55329e-07
-9.63494e-05
-5.38709e-07
-9.59758e-05
-7.16164e-07
-9.54995e-05
-9.2591e-07
-9.49084e-05
-1.15433e-06
-9.41944e-05
-1.38685e-06
-9.32805e-05
-1.77058e-06
-9.20448e-05
-2.35342e-06
-9.03504e-05
-3.21111e-06
-8.80823e-05
-4.41917e-06
-8.54437e-05
-5.37016e-06
-8.28205e-05
-5.51343e-06
-7.96622e-05
-6.46677e-06
-7.17724e-05
-1.58311e-05
-5.22268e-05
-3.91391e-05
-1.86537e-05
-6.89925e-05
2.01003e-05
-7.95917e-05
5.34405e-05
-6.7789e-05
7.22876e-05
-3.81223e-05
7.92937e-05
-1.41131e-05
8.13946e-05
-4.58589e-06
8.35297e-05
-4.65588e-06
8.65434e-05
-6.01549e-06
8.93944e-05
-5.47114e-06
9.15815e-05
-4.14444e-06
9.30781e-05
-2.85253e-06
9.40662e-05
-1.90592e-06
9.4763e-05
-1.33657e-06
9.53104e-05
-1.06204e-06
9.57489e-05
-8.48037e-07
9.6097e-05
-6.68964e-07
9.6371e-05
-5.19974e-07
9.65609e-05
-3.94391e-07
9.67075e-05
-2.35858e-07
9.67987e-05
-1.54363e-07
9.68327e-05
-5.0055e-08
9.68249e-05
9.17089e-08
9.67821e-05
6.75023e-08
9.6719e-05
2.27759e-07
9.66384e-05
1.10142e-07
9.65462e-05
3.01766e-07
9.64411e-05
1.43853e-07
9.63233e-05
3.33483e-07
9.61984e-05
1.96667e-07
9.60626e-05
2.9634e-07
9.59144e-05
3.20089e-07
9.5756e-05
3.4037e-07
9.55844e-05
3.7188e-07
9.5397e-05
3.99417e-07
9.51988e-05
4.23681e-07
9.49858e-05
4.51894e-07
9.47589e-05
4.83447e-07
9.45269e-05
4.94098e-07
9.43255e-05
4.29256e-07
9.41581e-05
3.57296e-07
9.39922e-05
3.54987e-07
9.38156e-05
3.76064e-07
9.36318e-05
3.86185e-07
9.34551e-05
3.70908e-07
9.32891e-05
3.47157e-07
9.31315e-05
3.29118e-07
9.29828e-05
3.09124e-07
9.28413e-05
2.94155e-07
9.27049e-05
2.82807e-07
9.2572e-05
2.76413e-07
9.24474e-05
2.60462e-07
9.23298e-05
2.44848e-07
9.22178e-05
2.31246e-07
9.21156e-05
2.12564e-07
9.20198e-05
2.00039e-07
9.19294e-05
1.89622e-07
9.18418e-05
1.81006e-07
9.17611e-05
1.68804e-07
9.16856e-05
1.57234e-07
9.16133e-05
1.52518e-07
9.15442e-05
1.4409e-07
9.14799e-05
1.34128e-07
9.14169e-05
1.30063e-07
9.1359e-05
1.23921e-07
9.13037e-05
1.16585e-07
9.12528e-05
1.38867e-07
9.12023e-05
7.14917e-08
9.11561e-05
1.31984e-07
9.11076e-05
6.65844e-08
9.10639e-05
1.37474e-07
9.10281e-05
2.73152e-08
9.09844e-05
1.09555e-07
9.09433e-05
6.44817e-08
9.0905e-05
1.09027e-07
9.08696e-05
4.03307e-08
9.08329e-05
9.53169e-08
9.07981e-05
5.13117e-08
9.07645e-05
8.77616e-08
9.07296e-05
5.107e-08
9.0699e-05
6.25803e-08
9.06692e-05
6.18775e-08
9.06413e-05
5.85933e-08
9.06141e-05
5.44197e-08
9.05911e-05
4.6022e-08
9.05675e-05
5.0674e-08
9.05409e-05
5.39165e-08
9.05153e-05
5.38524e-08
9.04949e-05
3.91751e-08
9.04743e-05
4.31562e-08
9.04565e-05
7.25987e-08
9.0441e-05
-5.11638e-09
9.04244e-05
7.24188e-08
9.04105e-05
-1.46691e-08
9.03955e-05
6.28713e-08
9.03857e-05
-1.92064e-08
9.03734e-05
1.5921e-08
9.03628e-05
2.10276e-08
9.03537e-05
1.55365e-08
9.03463e-05
9.31751e-09
9.03414e-05
5.36989e-09
9.03404e-05
-6.4691e-10
9.03408e-05
-5.95473e-09
9.0346e-05
-1.22631e-08
9.03514e-05
-1.19261e-08
9.03591e-05
-2.27154e-08
9.03705e-05
-2.95382e-08
9.03817e-05
-2.18218e-08
9.03988e-05
-3.613e-08
9.04206e-05
-4.59248e-08
9.04469e-05
-5.23425e-08
9.04761e-05
-6.17315e-08
9.0512e-05
-7.00231e-08
9.0551e-05
-8.13762e-08
9.05998e-05
-9.69578e-08
9.06546e-05
-1.13713e-07
9.07149e-05
-1.15834e-07
9.07839e-05
-1.3604e-07
9.08629e-05
-1.58609e-07
9.0956e-05
-1.84933e-07
9.10633e-05
-2.14012e-07
9.11801e-05
-2.40497e-07
9.13024e-05
-2.34032e-07
9.14396e-05
-2.82523e-07
9.16194e-05
-3.51182e-07
9.18474e-05
-4.62761e-07
9.2101e-05
-5.11235e-07
9.23327e-05
-4.59385e-07
9.2514e-05
-3.49052e-07
9.27004e-05