/*--------------------------------*- C++ -*----------------------------------*\
| =========                 |                                                 |
| \\      /  F ield         | OpenFOAM: The Open Source CFD Toolbox           |
|  \\    /   O peration     | Version:  2412                                  |
|   \\  /    A nd           | Website:  www.openfoam.com                      |
|    \\/     M anipulation  |                                                 |
\*---------------------------------------------------------------------------*/
FoamFile
{
    version     2.0;
    format      ascii;
    arch        "LSB;label=32;scalar=64";
    class       surfaceScalarField;
    location    "20";
    object      phi;
}
// * * * * * * * * * * * * * * * * * * * * * * * * * * * * * * * * * * * * * //

dimensions      [0 3 -1 0 0 0 0];

oriented        oriented;

internalField   nonuniform List<scalar> 
64883
(
7.85052e-05
1.11828e-05
-8.9688e-05
9.54181e-05
-1.6913e-05
2.92326e-05
6.61856e-05
-3.25591e-05
6.17917e-05
-1.44546e-05
-1.81046e-05
1.47654e-05
-2.922e-05
-8.05736e-06
2.28228e-05
-3.48702e-05
2.68128e-05
-4.15762e-05
6.70602e-06
-3.45486e-05
-7.02755e-06
-2.8693e-05
-5.85566e-06
-2.55989e-05
-3.0941e-06
-2.39046e-05
-1.69428e-06
-2.33077e-05
-5.96895e-07
-2.35208e-05
2.13135e-07
-2.38256e-05
3.04882e-07
-2.38336e-05
7.96223e-09
-2.3566e-05
-2.67553e-07
-2.30812e-05
-4.84758e-07
-2.25759e-05
-5.0537e-07
-2.22462e-05
-3.29526e-07
-2.20908e-05
-1.55326e-07
-2.20444e-05
-4.64405e-08
-2.20058e-05
-3.85517e-08
-2.19326e-05
-7.31969e-08
-2.18373e-05
-9.51686e-08
-2.17526e-05
-8.46554e-08
-2.16933e-05
-5.92177e-08
-2.16524e-05
-4.07435e-08
-2.16173e-05
-3.50319e-08
-2.15832e-05
-3.40027e-08
-2.15514e-05
-3.19518e-08
-2.15246e-05
-2.64132e-08
-2.15023e-05
-2.21537e-08
-2.14836e-05
-1.85558e-08
-2.14677e-05
-1.58198e-08
-2.14541e-05
-1.35402e-08
-2.14423e-05
-1.21982e-08
-2.14322e-05
-9.37753e-09
-2.14241e-05
-8.04232e-09
-2.14169e-05
-6.9931e-09
-2.14113e-05
-5.50531e-09
-2.14072e-05
-3.88746e-09
-2.14039e-05
-3.13995e-09
-2.14011e-05
-2.69833e-09
-2.1399e-05
-2.00993e-09
-2.13971e-05
-3.50965e-09
-2.13967e-05
1.7347e-09
-2.13973e-05
7.47887e-10
-2.13981e-05
9.6279e-10
-2.14001e-05
2.17475e-09
-2.14023e-05
2.30275e-09
-2.14044e-05
2.2595e-09
-2.14073e-05
5.17989e-10
-2.14111e-05
6.62696e-09
-2.14148e-05
1.18929e-09
-2.1418e-05
6.34814e-09
-2.14202e-05
-6.54402e-11
-2.14246e-05
7.30233e-09
-2.14296e-05
5.27194e-09
-2.14345e-05
5.19158e-09
-2.14397e-05
5.52758e-09
-2.1445e-05
5.54014e-09
-2.14507e-05
6.07559e-09
-2.14571e-05
6.84001e-09
-2.14636e-05
6.78989e-09
-2.14693e-05
4.39529e-09
-2.14757e-05
8.40488e-09
-2.1482e-05
3.92152e-09
-2.14897e-05
1.08749e-08
-2.14973e-05
4.26249e-09
-2.15027e-05
9.44206e-09
-2.15062e-05
-3.1256e-09
-2.15149e-05
1.62213e-08
-2.15272e-05
1.26661e-08
-2.15356e-05
8.91801e-09
-2.15444e-05
9.38856e-09
-2.15526e-05
9.02562e-09
-2.15617e-05
9.6929e-09
-2.15703e-05
9.13945e-09
-2.15799e-05
1.01104e-08
-2.15919e-05
1.26434e-08
-2.16045e-05
1.31729e-08
-2.16185e-05
1.43982e-08
-2.16348e-05
1.66428e-08
-2.16531e-05
1.85608e-08
-2.16721e-05
1.93996e-08
-2.16898e-05
1.4253e-08
-2.17101e-05
2.47986e-08
-2.17286e-05
1.87789e-08
-2.17534e-05
2.57877e-08
-2.17806e-05
2.97136e-08
-2.18096e-05
2.80383e-08
-2.18411e-05
3.79514e-08
-2.18729e-05
2.7086e-08
-2.1903e-05
4.56584e-08
-2.19433e-05
2.76025e-08
-2.19962e-05
6.08565e-08
-2.2044e-05
4.02303e-08
-2.20869e-05
5.42486e-08
-2.21386e-05
4.20953e-08
-2.21945e-05
6.42609e-08
-2.22519e-05
4.954e-08
-2.23111e-05
6.77305e-08
-2.23704e-05
5.12711e-08
-2.24289e-05
6.15542e-08
-2.24873e-05
5.6035e-08
-2.25415e-05
5.38742e-08
-2.25922e-05
5.18397e-08
-2.26389e-05
4.78586e-08
-2.26918e-05
5.23174e-08
-2.27556e-05
6.08966e-08
-2.28236e-05
7.15287e-08
-2.28875e-05
5.97758e-08
-2.29441e-05
6.09537e-08
-2.29955e-05
4.39707e-08
-2.30479e-05
6.04418e-08
-2.3103e-05
4.93529e-08
-2.31526e-05
5.61294e-08
-2.32022e-05
4.97354e-08
-2.32445e-05
4.25078e-08
-2.32806e-05
3.63043e-08
-2.33086e-05
2.82747e-08
-2.33299e-05
2.12707e-08
-2.33447e-05
1.49052e-08
-2.3351e-05
6.4836e-09
-2.33503e-05
-4.787e-10
-2.33428e-05
-7.5721e-09
-2.33271e-05
-1.55781e-08
-2.33012e-05
-2.59114e-08
-2.32573e-05
-4.40139e-08
-2.32016e-05
-6.3896e-08
-2.31407e-05
-5.26817e-08
-2.30633e-05
-9.89924e-08
-2.29691e-05
-7.17878e-08
-2.28598e-05
-1.06008e-07
-2.274e-05
-1.22612e-07
-2.26048e-05
-8.90231e-08
-2.24813e-05
-1.70269e-07
-2.23581e-05
-1.233e-07
-2.22435e-05
-1.1452e-07
-2.22678e-05
2.4317e-08
-2.26729e-05
4.05069e-07
-2.35394e-05
8.66615e-07
-2.47553e-05
1.21597e-06
-2.58132e-05
1.05784e-06
-2.43859e-05
-1.42724e-06
-1.77646e-05
-6.62154e-06
-6.11704e-06
-1.16476e-05
6.89896e-06
-1.30161e-05
1.85296e-05
-1.16308e-05
2.50208e-05
-6.49126e-06
2.62182e-05
-1.19767e-06
2.48352e-05
1.38282e-06
2.31718e-05
1.66304e-06
2.20593e-05
1.11218e-06
2.15957e-05
4.62596e-07
2.16125e-05
-1.77891e-08
2.18356e-05
-2.26022e-07
2.2114e-05
-2.79259e-07
2.23496e-05
-5.67967e-08
2.25185e-05
-3.51359e-07
2.26225e-05
-1.15598e-07
2.27146e-05
-7.16276e-08
2.2803e-05
-1.03222e-07
2.28834e-05
-6.29243e-08
2.29475e-05
-5.21432e-08
2.30023e-05
-6.32963e-08
2.30548e-05
-5.23551e-08
2.30911e-05
-3.60454e-08
2.31179e-05
-2.65737e-08
2.31361e-05
-1.80731e-08
2.31464e-05
-1.00611e-08
2.31492e-05
-2.62301e-09
2.3144e-05
5.37982e-09
2.31324e-05
1.17396e-08
2.31125e-05
1.9916e-08
2.30839e-05
2.87188e-08
2.30484e-05
3.55413e-08
2.30094e-05
3.90835e-08
2.29649e-05
4.41465e-08
2.29203e-05
5.485e-08
2.28716e-05
3.95755e-08
2.28204e-05
6.24955e-08
2.27699e-05
3.95601e-08
2.27104e-05
5.94664e-08
2.26404e-05
6.94603e-08
2.2577e-05
7.29943e-08
2.25283e-05
3.92678e-08
2.2481e-05
5.36649e-08
2.24253e-05
5.08371e-08
2.23695e-05
6.86819e-08
2.23129e-05
4.43845e-08
2.22548e-05
6.67728e-08
2.2195e-05
5.15439e-08
2.21372e-05
6.32954e-08
2.20794e-05
5.2563e-08
2.2026e-05
6.31006e-08
2.19781e-05
3.80822e-08
2.19312e-05
5.52713e-08
2.18856e-05
3.73101e-08
2.18435e-05
4.88381e-08
2.18051e-05
3.1686e-08
2.17696e-05
4.34926e-08
2.17374e-05
2.42092e-08
2.17073e-05
3.93871e-08
2.16796e-05
1.84583e-08
2.16543e-05
3.47829e-08
2.16305e-05
1.4186e-08
2.16084e-05
3.24887e-08
2.15931e-05
4.53781e-09
2.15748e-05
1.83177e-08
2.15551e-05
1.96519e-08
2.15374e-05
1.77969e-08
2.15218e-05
1.56489e-08
2.15074e-05
1.451e-08
2.14947e-05
1.26936e-08
2.14825e-05
1.24004e-08
2.14711e-05
1.14973e-08
2.14605e-05
1.0721e-08
2.14504e-05
1.01939e-08
2.14416e-05
9.03141e-09
2.14328e-05
8.89626e-09
2.14212e-05
1.18369e-08
2.14129e-05
1.19277e-08
2.14087e-05
8.81123e-10
2.14029e-05
8.6924e-09
2.13964e-05
3.96818e-09
2.13895e-05
8.70532e-09
2.13825e-05
5.30951e-09
2.13749e-05
1.05614e-08
2.1368e-05
4.27032e-09
2.13611e-05
7.07288e-09
2.1354e-05
7.18612e-09
2.13473e-05
6.77452e-09
2.13412e-05
6.13229e-09
2.13351e-05
6.23781e-09
2.13289e-05
6.26549e-09
2.1323e-05
5.91349e-09
2.13184e-05
4.69707e-09
2.13131e-05
5.39506e-09
2.13088e-05
6.804e-09
2.13049e-05
1.70149e-09
2.13015e-05
6.2011e-09
2.12985e-05
3.34682e-10
2.12946e-05
3.9394e-09
2.12915e-05
3.24477e-09
2.12886e-05
3.00294e-09
2.12859e-05
2.79995e-09
2.12846e-05
1.44974e-09
2.12835e-05
1.13508e-09
2.12829e-05
1.55917e-09
2.1283e-05
-8.62791e-10
2.12834e-05
2.90083e-10
2.12849e-05
-2.10975e-09
2.12866e-05
-1.6529e-09
2.12893e-05
-2.7037e-09
2.12939e-05
-4.49179e-09
2.12999e-05
-5.99687e-09
2.13071e-05
-7.12725e-09
2.13163e-05
-8.69055e-09
2.13275e-05
-1.16732e-08
2.13405e-05
-1.29314e-08
2.13558e-05
-1.52906e-08
2.13739e-05
-1.80174e-08
2.13955e-05
-2.16429e-08
2.14222e-05
-2.63903e-08
2.14548e-05
-3.27583e-08
2.14905e-05
-3.56969e-08
2.1528e-05
-3.74495e-08
2.15718e-05
-4.38235e-08
2.1635e-05
-6.31553e-08
2.17248e-05
-8.96892e-08
2.18268e-05
-1.02032e-07
2.19093e-05
-8.25265e-08
2.196e-05
-5.06562e-08
2.20215e-05
-6.14896e-08
2.21953e-05
-1.73772e-07
2.25483e-05
-3.52863e-07
2.30835e-05
-5.35265e-07
2.36074e-05
-5.2393e-07
2.39248e-05
-3.17429e-07
2.39797e-05
-5.48618e-08
2.37538e-05
2.25893e-07
2.36417e-05
1.12185e-07
2.43741e-05
-7.32452e-07
2.62657e-05
-1.89153e-06
2.96563e-05
-3.39062e-06
3.60084e-05
-6.3521e-06
4.38547e-05
-7.84624e-06
3.8023e-05
5.83164e-06
1.08421e-05
2.7181e-05
-1.39621e-05
2.48042e-05
1.40966e-05
-2.80587e-05
3.23895e-05
-1.82929e-05
-3.02708e-05
6.26603e-05
-9.95519e-05
6.92811e-05
-9.26032e-05
-6.94866e-06
-8.14204e-05
0.000165037
2.18885e-05
-0.000276613
0.00022989
-8.17658e-05
0.000105996
0.000190079
-4.79646e-05
0.000215753
-2.66649e-05
-3.94043e-05
2.2099e-05
-7.79838e-05
-4.64992e-05
9.1421e-05
-0.000114407
9.47207e-05
-0.000127567
1.9866e-05
-0.000109324
-2.52707e-05
-9.38495e-05
-2.13301e-05
-8.5499e-05
-1.14446e-05
-8.09492e-05
-6.24404e-06
-7.9384e-05
-2.16217e-06
-7.98522e-05
6.8149e-07
-8.04919e-05
9.44562e-07
-8.03037e-05
-1.80165e-07
-7.93458e-05
-1.22544e-06
-7.78476e-05
-1.98286e-06
-7.63582e-05
-1.99484e-06
-7.53776e-05
-1.30991e-06
-7.48938e-05
-6.39091e-07
-7.47046e-05
-2.35569e-07
-7.45349e-05
-2.08188e-07
-7.42711e-05
-3.36996e-07
-7.39542e-05
-4.1185e-07
-7.36778e-05
-3.60998e-07
-7.34762e-05
-2.6067e-07
-7.33286e-05
-1.88196e-07
-7.31994e-05
-1.64003e-07
-7.30782e-05
-1.55127e-07
-7.29652e-05
-1.45118e-07
-7.28688e-05
-1.22237e-07
-7.27893e-05
-1.01417e-07
-7.27213e-05
-8.63618e-08
-7.26633e-05
-7.3536e-08
-7.2613e-05
-6.37706e-08
-7.25681e-05
-5.77414e-08
-7.25309e-05
-4.54498e-08
-7.24999e-05
-3.89211e-08
-7.24736e-05
-3.30707e-08
-7.24524e-05
-2.64153e-08
-7.24352e-05
-2.08443e-08
-7.24217e-05
-1.64289e-08
-7.24121e-05
-1.20365e-08
-7.24033e-05
-1.0629e-08
-7.23965e-05
-1.27613e-08
-7.23929e-05
1.34531e-09
-7.23932e-05
1.39635e-09
-7.2397e-05
4.99811e-09
-7.24027e-05
8.10566e-09
-7.24099e-05
9.84002e-09
-7.24178e-05
1.03308e-08
-7.24259e-05
4.86984e-09
-7.24382e-05
2.33485e-08
-7.24521e-05
1.127e-08
-7.24608e-05
1.98779e-08
-7.24701e-05
5.6587e-09
-7.24835e-05
2.54128e-08
-7.25017e-05
2.38871e-08
-7.25176e-05
2.15805e-08
-7.25341e-05
2.24572e-08
-7.25514e-05
2.33228e-08
-7.25716e-05
2.69456e-08
-7.2593e-05
2.8866e-08
-7.26135e-05
2.78684e-08
-7.26338e-05
2.25798e-08
-7.26537e-05
3.15481e-08
-7.26742e-05
2.06742e-08
-7.27006e-05
4.22147e-08
-7.27263e-05
2.48513e-08
-7.27444e-05
3.38595e-08
-7.27565e-05
-1.11594e-09
-7.27861e-05
5.73065e-08
-7.28252e-05
5.2306e-08
-7.28522e-05
3.68389e-08
-7.28797e-05
3.78641e-08
-7.2909e-05
3.97009e-08
-7.29375e-05
3.92589e-08
-7.29659e-05
3.84162e-08
-7.29979e-05
4.29781e-08
-7.30373e-05
5.31322e-08
-7.30799e-05
5.67368e-08
-7.31257e-05
6.07996e-08
-7.31789e-05
7.04821e-08
-7.32399e-05
8.00249e-08
-7.33015e-05
8.16702e-08
-7.33613e-05
6.87391e-08
-7.34284e-05
9.88334e-08
-7.349e-05
8.08561e-08
-7.35741e-05
1.11532e-07
-7.3665e-05
1.24423e-07
-7.37614e-05
1.23236e-07
-7.38663e-05
1.52699e-07
-7.39725e-05
1.26193e-07
-7.40753e-05
1.72057e-07
-7.42115e-05
1.44783e-07
-7.43866e-05
2.47957e-07
-7.45443e-05
1.86594e-07
-7.46879e-05
2.1483e-07
-7.48576e-05
1.97639e-07
-7.50413e-05
2.60565e-07
-7.52291e-05
2.25486e-07
-7.54221e-05
2.73629e-07
-7.56124e-05
2.29628e-07
-7.57986e-05
2.52276e-07
-7.59812e-05
2.35136e-07
-7.6151e-05
2.23264e-07
-7.63077e-05
2.10281e-07
-7.64533e-05
1.95118e-07
-7.66174e-05
2.15692e-07
-7.68199e-05
2.59067e-07
-7.70348e-05
2.91786e-07
-7.72366e-05
2.55282e-07
-7.74145e-05
2.45446e-07
-7.75758e-05
1.94256e-07
-7.77406e-05
2.37156e-07
-7.79146e-05
2.14795e-07
-7.80679e-05
2.19319e-07
-7.82226e-05
2.04638e-07
-7.8353e-05
1.73331e-07
-7.84616e-05
1.45278e-07
-7.85422e-05
1.09285e-07
-7.86011e-05
8.01807e-08
-7.86336e-05
4.74118e-08
-7.86382e-05
1.15455e-08
-7.86178e-05
-2.05504e-08
-7.85709e-05
-5.46107e-08
-7.84958e-05
-9.03815e-08
-7.838e-05
-1.41929e-07
-7.8203e-05
-2.21083e-07
-7.79832e-05
-2.95752e-07
-7.77381e-05
-2.85633e-07
-7.74352e-05
-4.33641e-07
-7.70691e-05
-4.04954e-07
-7.66468e-05
-5.23409e-07
-7.61694e-05
-6.04149e-07
-7.56138e-05
-5.76816e-07
-7.50507e-05
-8.01974e-07
-7.44441e-05
-7.3014e-07
-7.38768e-05
-6.81743e-07
-7.38473e-05
-5.10896e-09
-7.5083e-05
1.64084e-06
-7.76545e-05
3.4382e-06
-8.10427e-05
4.60428e-06
-8.32802e-05
3.2953e-06
-7.73577e-05
-7.34971e-06
-5.55476e-05
-2.8432e-05
-1.89753e-05
-4.822e-05
2.14084e-05
-5.34e-05
5.79532e-05
-4.8176e-05
7.9426e-05
-2.79643e-05
8.46769e-05
-6.44888e-06
8.14165e-05
4.64288e-06
7.64925e-05
6.5866e-06
7.29241e-05
4.67986e-06
7.13887e-05
1.99645e-06
7.16419e-05
-2.72616e-07
7.26388e-05
-1.22781e-06
7.37813e-05
-1.4231e-06
7.47275e-05
-7.43399e-07
7.54043e-05
-1.29379e-06
7.58344e-05
-5.61583e-07
7.61992e-05
-4.06292e-07
7.65471e-05
-4.72391e-07
7.68583e-05
-3.48501e-07
7.71141e-05
-2.90447e-07
7.733e-05
-2.91255e-07
7.75328e-05
-2.54906e-07
7.76812e-05
-1.84129e-07
7.77926e-05
-1.37466e-07
7.78758e-05
-1.0103e-07
7.79289e-05
-6.28292e-08
7.7955e-05
-2.85124e-08
7.79558e-05
5.05211e-09
7.79302e-05
3.7427e-08
7.78786e-05
7.16212e-08
7.77966e-05
1.10803e-07
7.76902e-05
1.42075e-07
7.75716e-05
1.57878e-07
7.7437e-05
1.78166e-07
7.72983e-05
2.08659e-07
7.71478e-05
1.76618e-07
7.69887e-05
2.38268e-07
7.68308e-05
1.8135e-07
7.66448e-05
2.45551e-07
7.64247e-05
2.88527e-07
7.62239e-05
2.88062e-07
7.60735e-05
1.75568e-07
7.59268e-05
2.10094e-07
7.57545e-05
2.15939e-07
7.55788e-05
2.63592e-07
7.5401e-05
2.04032e-07
7.5216e-05
2.648e-07
7.50236e-05
2.31551e-07
7.48342e-05
2.60901e-07
7.46449e-05
2.34012e-07
7.44691e-05
2.53406e-07
7.4312e-05
1.80677e-07
7.41563e-05
2.23493e-07
7.40047e-05
1.76415e-07
7.38646e-05
1.99072e-07
7.37366e-05
1.49659e-07
7.36179e-05
1.74274e-07
7.35105e-05
1.19536e-07
7.34102e-05
1.53714e-07
7.33179e-05
9.67851e-08
7.32336e-05
1.3357e-07
7.3153e-05
8.01731e-08
7.308e-05
1.21241e-07
7.30287e-05
3.95777e-08
7.29675e-05
7.95428e-08
7.29038e-05
8.33187e-08
7.28447e-05
7.71322e-08
7.27933e-05
6.6963e-08
7.27463e-05
6.16304e-08
7.27035e-05
5.5599e-08
7.26635e-05
5.27588e-08
7.26256e-05
4.95357e-08
7.25907e-05
4.5896e-08
7.25584e-05
4.2567e-08
7.2527e-05
4.08756e-08
7.24992e-05
3.68186e-08
7.24617e-05
4.97404e-08
7.24349e-05
4.42758e-08
7.24204e-05
1.0449e-08
7.24015e-05
3.19298e-08
7.23801e-05
2.15638e-08
7.23567e-05
3.49764e-08
7.23327e-05
2.66352e-08
7.23085e-05
3.93537e-08
7.22871e-05
2.16738e-08
7.2263e-05
3.13437e-08
7.22402e-05
3.0092e-08
7.22183e-05
2.89127e-08
7.21969e-05
2.76692e-08
7.21767e-05
2.65538e-08
7.21571e-05
2.59533e-08
7.21381e-05
2.50049e-08
7.2121e-05
2.19032e-08
7.21046e-05
2.20729e-08
7.20889e-05
2.64039e-08
7.20777e-05
9.51264e-09
7.20646e-05
2.35519e-08
7.20547e-05
6.20935e-09
7.20439e-05
1.48596e-08
7.20325e-05
1.47236e-08
7.20228e-05
1.28978e-08
7.20149e-05
1.09012e-08
7.20092e-05
7.29081e-09
7.20073e-05
3.27654e-09
7.20077e-05
2.56927e-09
7.20085e-05
-2.85859e-09
7.20116e-05
-1.7072e-09
7.20165e-05
-7.95441e-09
7.20247e-05
-9.77224e-09
7.20371e-05
-1.50313e-08
7.20542e-05
-2.15304e-08
7.20766e-05
-2.83258e-08
7.21039e-05
-3.43336e-08
7.21377e-05
-4.16583e-08
7.218e-05
-5.46849e-08
7.22275e-05
-6.0411e-08
7.22825e-05
-7.01729e-08
7.23474e-05
-8.29436e-08
7.24238e-05
-9.79822e-08
7.25183e-05
-1.20526e-07
7.26321e-05
-1.46786e-07
7.27567e-05
-1.60249e-07
7.28912e-05
-1.71853e-07
7.30459e-05
-1.98537e-07
7.3257e-05
-2.7423e-07
7.35463e-05
-3.7884e-07
7.38809e-05
-4.36608e-07
7.41696e-05
-3.71273e-07
7.43723e-05
-2.5327e-07
7.46027e-05
-2.91923e-07
7.51377e-05
-7.08695e-07
7.61829e-05
-1.39793e-06
7.7756e-05
-2.10839e-06
7.93628e-05
-2.13076e-06
8.04606e-05
-1.41517e-06
8.08259e-05
-4.20194e-07
8.04095e-05
6.42302e-07
8.02258e-05
2.96053e-07
8.21667e-05
-2.6734e-06
8.7246e-05
-6.97087e-06
9.63653e-05
-1.25099e-05
0.000113057
-2.30441e-05
0.000133319
-2.81078e-05
0.000122785
1.63659e-05
5.51862e-05
9.47794e-05
-1.81098e-05
9.81002e-05
2.58552e-05
-7.20237e-05
4.53704e-05
-3.7808e-05
-0.000112413
0.000220443
-0.000244321
0.000201189
-0.0001971
-5.41696e-05
-0.000256632
0.000208864
2.57007e-05
-0.000511178
0.000320487
-0.000193389
0.00019715
0.000313416
-1.8688e-05
0.000431591
-2.92095e-05
-2.88828e-05
7.50293e-06
-0.000114696
-0.00011001
0.000208934
-0.000209938
0.000194648
-0.000223168
3.30956e-05
-0.000195499
-5.2939e-05
-0.000172441
-4.43886e-05
-0.00015968
-2.42052e-05
-0.000152751
-1.31731e-05
-0.000150379
-4.53434e-06
-0.000150901
1.20329e-06
-0.000151559
1.60256e-06
-0.000150907
-8.32077e-07
-0.000149072
-3.05995e-06
-0.000146486
-4.56892e-06
-0.000144012
-4.46937e-06
-0.000142375
-2.9464e-06
-0.000141534
-1.47958e-06
-0.000141142
-6.27813e-07
-0.000140775
-5.75277e-07
-0.000140265
-8.46506e-07
-0.000139689
-9.88163e-07
-0.000139185
-8.64868e-07
-0.000138812
-6.33274e-07
-0.00013853
-4.70706e-07
-0.000138282
-4.11304e-07
-0.000138049
-3.87765e-07
-0.000137836
-3.5866e-07
-0.000137654
-3.03747e-07
-0.000137503
-2.52539e-07
-0.000137372
-2.16955e-07
-0.000137258
-1.86601e-07
-0.000137163
-1.59389e-07
-0.000137079
-1.4175e-07
-0.000137008
-1.1569e-07
-0.00013695
-9.71271e-08
-0.0001369
-8.26786e-08
-0.00013686
-6.63837e-08
-0.000136828
-5.20807e-08
-0.000136804
-4.03416e-08
-0.000136784
-3.19098e-08
-0.00013677
-2.47747e-08
-0.000136759
-2.55815e-08
-0.000136755
-5.63392e-11
-0.00013676
6.94285e-09
-0.000136766
1.13857e-08
-0.000136778
2.0229e-08
-0.000136793
2.51379e-08
-0.000136808
2.5793e-08
-0.000136827
2.01641e-08
-0.000136851
5.18662e-08
-0.000136877
3.33804e-08
-0.000136896
4.39373e-08
-0.000136915
2.13948e-08
-0.000136946
5.98782e-08
-0.000136979
5.80478e-08
-0.00013701
5.3078e-08
-0.000137042
5.49653e-08
-0.000137076
5.77671e-08
-0.000137114
6.56449e-08
-0.000137154
6.9372e-08
-0.000137195
6.88683e-08
-0.000137232
5.812e-08
-0.000137272
7.41698e-08
-0.000137311
5.63367e-08
-0.000137358
9.36178e-08
-0.000137405
6.76064e-08
-0.000137438
7.26867e-08
-0.000137465
1.65781e-08
-0.00013752
1.23165e-07
-0.00013759
1.23185e-07
-0.000137637
8.45453e-08
-0.000137691
9.20731e-08
-0.000137743
9.36414e-08
-0.000137794
9.12975e-08
-0.000137846
9.07877e-08
-0.000137905
1.02978e-07
-0.000137979
1.2833e-07
-0.000138057
1.35161e-07
-0.000138141
1.45981e-07
-0.00013824
1.70131e-07
-0.00013835
1.90706e-07
-0.000138466
1.97501e-07
-0.000138575
1.73568e-07
-0.0001387
2.2962e-07
-0.000138817
1.98398e-07
-0.000138972
2.68211e-07
-0.000139141
2.97546e-07
-0.000139321
3.01574e-07
-0.000139516
3.5749e-07
-0.000139714
3.17144e-07
-0.000139909
3.89323e-07
-0.000140167
3.84813e-07
-0.000140489
5.8101e-07
-0.000140775
4.62832e-07
-0.000141042
4.97482e-07
-0.000141355
4.97345e-07
-0.00014169
6.07749e-07
-0.000142028
5.5228e-07
-0.000142372
6.29531e-07
-0.000142708
5.54398e-07
-0.00014303
5.7858e-07
-0.000143345
5.46264e-07
-0.000143627
5.05655e-07
-0.000143889
4.73388e-07
-0.000144129
4.37246e-07
-0.000144407
4.93067e-07
-0.000144751
5.98983e-07
-0.000145118
6.63685e-07
-0.00014546
5.91624e-07
-0.000145763
5.5439e-07
-0.000146038
4.58535e-07
-0.000146319
5.29684e-07
-0.000146615
5.0257e-07
-0.000146873
4.87144e-07
-0.00014713
4.60948e-07
-0.000147341
3.84907e-07
-0.000147513
3.17672e-07
-0.000147634
2.31166e-07
-0.000147712
1.57739e-07
-0.000147742
7.76548e-08
-0.000147719
-1.1078e-08
-0.000147644
-9.52284e-08
-0.000147516
-1.82262e-07
-0.000147326
-2.80209e-07
-0.000147058
-4.10535e-07
-0.000146672
-6.073e-07
-0.000146202
-7.77221e-07
-0.000145675
-8.01053e-07
-0.000145031
-1.10782e-06
-0.000144262
-1.1425e-06
-0.000143372
-1.40898e-06
-0.000142349
-1.63103e-06
-0.000141131
-1.72889e-06
-0.000139812
-2.18731e-06
-0.000138376
-2.16634e-06
-0.000137131
-1.92727e-06
-0.000137116
-1.95112e-08
-0.00013947
3.99512e-06
-0.000143948
7.91612e-06
-0.000149238
9.89439e-06
-0.000151418
5.47528e-06
-0.000138563
-2.02046e-05
-9.82044e-05
-6.87911e-05
-3.32771e-05
-0.000113147
3.75606e-05
-0.000124238
0.000102463
-0.000113079
0.000142309
-6.78107e-05
0.000154081
-1.82207e-05
0.000150108
8.61471e-06
0.000141988
1.47062e-05
0.000135329
1.13387e-05
0.000132172
5.15213e-06
0.000132605
-7.07994e-07
0.000134798
-3.42538e-06
0.000137329
-3.95512e-06
0.000139397
-2.55724e-06
0.000140861
-3.01792e-06
0.000141809
-1.52555e-06
0.000142596
-1.16314e-06
0.00014333
-1.22702e-06
0.000143988
-9.81162e-07
0.000144537
-8.22531e-07
0.000145001
-7.67295e-07
0.00014543
-6.83374e-07
0.000145755
-5.09103e-07
0.000146012
-3.93479e-07
0.000146208
-2.96728e-07
0.000146345
-1.99909e-07
0.000146427
-1.10207e-07
0.00014646
-2.76666e-08
0.000146447
5.07221e-08
0.000146383
1.35911e-07
0.000146263
2.30286e-07
0.000146099
3.06411e-07
0.000145911
3.46499e-07
0.000145691
3.97491e-07
0.000145461
4.53132e-07
0.00014521
4.14053e-07
0.000144943
5.21352e-07
0.000144677
4.3236e-07
0.000144366
5.56907e-07
0.000143993
6.60136e-07
0.000143653
6.41891e-07
0.000143399
4.16062e-07
0.000143158
4.59613e-07
0.000142871
4.96947e-07
0.000142576
5.76951e-07
0.000142267
4.9522e-07
0.000141947
5.97454e-07
0.000141607
5.59731e-07
0.000141267
6.07959e-07
0.000140926
5.68021e-07
0.000140604
5.88946e-07
0.000140314
4.56776e-07
0.000140029
5.20923e-07
0.000139752
4.41713e-07
0.000139492
4.68559e-07
0.000139254
3.78403e-07
0.000139034
4.05197e-07
0.000138834
3.07824e-07
0.000138647
3.53737e-07
0.000138476
2.55166e-07
0.000138319
3.0444e-07
0.000138171
2.1433e-07
0.000138035
2.7218e-07
0.000137937
1.22594e-07
0.000137826
1.90126e-07
0.000137707
2.02054e-07
0.0001376
1.84593e-07
0.000137504
1.62721e-07
0.000137418
1.4824e-07
0.00013734
1.33728e-07
0.000137264
1.2826e-07
0.000137195
1.18947e-07
0.000137132
1.0957e-07
0.000137073
1.01082e-07
0.000137016
9.83135e-08
0.000136962
9.10341e-08
0.000136897
1.1526e-07
0.000136846
1.00374e-07
0.000136818
3.4222e-08
0.000136782
7.21353e-08
0.000136743
5.67821e-08
0.0001367
8.07263e-08
0.000136657
6.64542e-08
0.000136613
8.77756e-08
0.000136571
6.00768e-08
0.000136528
7.49571e-08
0.000136483
7.45892e-08
0.000136443
6.98641e-08
0.000136403
6.77531e-08
0.000136364
6.54183e-08
0.000136326
6.35124e-08
0.00013629
6.16316e-08
0.000136258
5.42578e-08
0.000136223
5.72805e-08
0.000136193
5.95402e-08
0.000136169
3.1025e-08
0.000136144
5.18074e-08
0.000136124
2.31127e-08
0.000136101
3.7691e-08
0.00013608
3.60746e-08
0.00013606
3.25113e-08
0.000136044
2.69596e-08
0.000136035
1.70421e-08
0.000136027
1.16805e-08
0.000136025
5.0782e-09
0.000136026
-4.21342e-09
0.00013603
-4.66448e-09
0.000136041
-2.02073e-08
0.000136055
-2.40161e-08
0.000136078
-3.73342e-08
0.00013611
-5.3859e-08
0.000136152
-7.05258e-08
0.000136203
-8.51899e-08
0.000136268
-1.05358e-07
0.000136346
-1.33149e-07
0.000136435
-1.50091e-07
0.000136542
-1.76957e-07
0.000136666
-2.07067e-07
0.000136811
-2.42455e-07
0.000136988
-2.97218e-07
0.0001372
-3.5955e-07
0.000137437
-3.96365e-07
0.000137691
-4.25922e-07
0.000137983
-4.90742e-07
0.000138369
-6.60263e-07
0.000138891
-9.0125e-07
0.000139494
-1.03947e-06
0.000140042
-9.1864e-07
0.00014046
-6.712e-07
0.000140916
-7.48514e-07
0.000141837
-1.62949e-06
0.000143576
-3.13634e-06
0.000146182
-4.71462e-06
0.000148939
-4.88828e-06
0.000150995
-3.47118e-06
0.000151928
-1.35293e-06
0.000151625
9.45153e-07
0.000151557
3.64896e-07
0.000154517
-5.63413e-06
0.000162251
-1.47051e-05
0.000176143
-2.64012e-05
0.000200907
-4.78083e-05
0.000231385
-5.8586e-05
0.000222599
2.51516e-05
0.000125738
0.000191641
1.96532e-06
0.000221873
2.71011e-05
-9.71595e-05
1.00507e-05
-2.07575e-05
-0.000210365
0.000440859
-0.000344865
0.000335689
-0.00025141
-0.000147624
-0.000482341
0.00022243
2.78155e-05
-0.000761423
0.000372783
-0.000343742
0.000289106
0.000397092
4.90698e-05
0.000671627
-1.57374e-05
3.59244e-05
-3.23399e-05
-9.80936e-05
-0.000199432
0.000376026
-0.000316139
0.000311356
-0.000324611
4.15673e-05
-0.000290457
-8.7093e-05
-0.000262635
-7.22111e-05
-0.000246821
-4.00185e-05
-0.000238278
-2.1716e-05
-0.000235293
-7.51944e-06
-0.000235653
1.563e-06
-0.000235994
1.94323e-06
-0.000234651
-2.17415e-06
-0.000231856
-5.85532e-06
-0.000228236
-8.18888e-06
-0.000224883
-7.8228e-06
-0.000222663
-5.16609e-06
-0.000221468
-2.67418e-06
-0.000220831
-1.26482e-06
-0.000220216
-1.18996e-06
-0.000219427
-1.63543e-06
-0.000218576
-1.83895e-06
-0.000217841
-1.59999e-06
-0.000217283
-1.19087e-06
-0.000216851
-9.02601e-07
-0.000216471
-7.91824e-07
-0.000216116
-7.4237e-07
-0.000215794
-6.80581e-07
-0.000215518
-5.79574e-07
-0.000215287
-4.83197e-07
-0.000215089
-4.14409e-07
-0.000214919
-3.56734e-07
-0.000214773
-3.04706e-07
-0.000214648
-2.68005e-07
-0.000214543
-2.19175e-07
-0.000214456
-1.83697e-07
-0.000214385
-1.54051e-07
-0.000214328
-1.22645e-07
-0.000214282
-9.845e-08
-0.000214248
-7.33957e-08
-0.000214225
-5.51152e-08
-0.000214207
-4.22908e-08
-0.000214194
-4.13398e-08
-0.000214195
4.56417e-09
-0.000214203
1.47548e-08
-0.00021422
2.89822e-08
-0.000214242
4.18748e-08
-0.000214269
5.31238e-08
-0.0002143
5.63539e-08
-0.000214332
4.97719e-08
-0.000214374
9.71061e-08
-0.000214415
7.15076e-08
-0.000214448
8.14836e-08
-0.000214485
5.50888e-08
-0.000214536
1.15237e-07
-0.00021459
1.11795e-07
-0.000214638
1.01908e-07
-0.000214692
1.09899e-07
-0.000214749
1.14846e-07
-0.000214806
1.23713e-07
-0.000214871
1.34458e-07
-0.000214934
1.32759e-07
-0.000214991
1.13037e-07
-0.000215052
1.38576e-07
-0.000215115
1.15831e-07
-0.00021519
1.72793e-07
-0.000215259
1.32372e-07
-0.00021531
1.29353e-07
-0.000215352
5.04529e-08
-0.000215441
2.21437e-07
-0.000215544
2.26738e-07
-0.000215616
1.58046e-07
-0.000215692
1.68519e-07
-0.000215769
1.72505e-07
-0.000215849
1.71965e-07
-0.000215929
1.71733e-07
-0.000216019
1.93816e-07
-0.000216126
2.37271e-07
-0.000216245
2.54514e-07
-0.000216375
2.76817e-07
-0.000216524
3.19791e-07
-0.000216689
3.56174e-07
-0.000216861
3.70293e-07
-0.000217028
3.36174e-07
-0.000217214
4.21475e-07
-0.0002174
3.84726e-07
-0.00021764
5.09862e-07
-0.000217897
5.58088e-07
-0.00021817
5.74011e-07
-0.00021847
6.65699e-07
-0.000218773
6.14741e-07
-0.00021908
7.16412e-07
-0.000219477
7.66517e-07
-0.000219958
1.07167e-06
-0.000220388
8.83136e-07
-0.000220794
9.18179e-07
-0.000221262
9.53347e-07
-0.000221758
1.11487e-06
-0.000222255
1.03887e-06
-0.000222752
1.13764e-06
-0.000223228
1.02118e-06
-0.000223682
1.03589e-06
-0.000224107
9.68994e-07
-0.000224488
8.86142e-07
-0.000224831
8.17872e-07
-0.000225147
7.54512e-07
-0.000225523
8.68691e-07
-0.00022599
1.06258e-06
-0.000226488
1.16601e-06
-0.000226951
1.04955e-06
-0.00022736
9.69139e-07
-0.000227735
8.23978e-07
-0.000228121
9.2591e-07
-0.000228521
8.94908e-07
-0.00022887
8.44486e-07
-0.000229208
8.00005e-07
-0.000229477
6.53611e-07
-0.000229681
5.22608e-07
-0.000229817
3.6734e-07
-0.00022989
2.3087e-07
-0.000229885
7.25559e-08
-0.000229795
-1.00698e-07
-0.000229625
-2.64466e-07
-0.000229368
-4.39553e-07
-0.000229009
-6.38641e-07
-0.000228514
-9.06265e-07
-0.000227842
-1.2796e-06
-0.000227036
-1.59365e-06
-0.000226123
-1.70335e-06
-0.000225022
-2.23568e-06
-0.000223716
-2.42096e-06
-0.000222204
-2.9163e-06
-0.000220438
-3.40002e-06
-0.000218298
-3.81109e-06
-0.000215884
-4.66044e-06
-0.000213283
-4.76732e-06
-0.000211235
-3.97522e-06
-0.000211491
2.36399e-07
-0.000215477
7.9814e-06
-0.000222176
1.46152e-05
-0.000228985
1.67032e-05
-0.000229564
6.0541e-06
-0.000207038
-4.27307e-05
-0.000144761
-0.000131068
-4.86032e-05
-0.000209306
5.48895e-05
-0.000227731
0.000151022
-0.000209212
0.000212638
-0.000129427
0.000233711
-3.92939e-05
0.000230628
1.16972e-05
0.000219544
2.57904e-05
0.000209024
2.18573e-05
0.000203335
1.08401e-05
0.000203649
-1.02442e-06
0.000207327
-7.10789e-06
0.000211765
-8.39442e-06
0.000215419
-5.98719e-06
0.000217996
-5.82479e-06
0.000219687
-3.22847e-06
0.000221055
-2.50473e-06
0.000222309
-2.49917e-06
0.000223436
-2.08527e-06
0.000224392
-1.76326e-06
0.000225199
-1.58393e-06
0.000225931
-1.41565e-06
0.000226511
-1.08843e-06
0.000226972
-8.54161e-07
0.000227337
-6.61696e-07
0.000227606
-4.68674e-07
0.00022779
-2.93928e-07
0.000227895
-1.32466e-07
0.000227925
2.13198e-08
0.000227882
1.78553e-07
0.000227763
3.49675e-07
0.00022757
4.99384e-07
0.000227335
5.81656e-07
0.000227052
6.80006e-07
0.000226753
7.65541e-07
0.000226422
7.33756e-07
0.000226065
8.92625e-07
0.000225709
7.74032e-07
0.000225295
9.71108e-07
0.000224796
1.15805e-06
0.000224335
1.11554e-06
0.000223993
7.45462e-07
0.000223681
7.79972e-07
0.000223304
8.68293e-07
0.000222902
9.95324e-07
0.00022248
9.01479e-07
0.000222029
1.0601e-06
0.000221546
1.03216e-06
0.000221051
1.10968e-06
0.000220548
1.0644e-06
0.00022007
1.07956e-06
0.000219637
8.77494e-07
0.000219208
9.59984e-07
0.00021879
8.49679e-07
0.000218398
8.69516e-07
0.000218037
7.30046e-07
0.000217703
7.49851e-07
0.000217397
6.03492e-07
0.000217111
6.5204e-07
0.000216851
5.03165e-07
0.000216612
5.55835e-07
0.000216385
4.28585e-07
0.000216174
4.97018e-07
0.000216022
2.60542e-07
0.000215857
3.55036e-07
0.00021568
3.79019e-07
0.000215519
3.46122e-07
0.000215374
3.06993e-07
0.000215242
2.80872e-07
0.000215123
2.53206e-07
0.000215014
2.37655e-07
0.00021491
2.22915e-07
0.000214812
2.07531e-07
0.000214721
1.92667e-07
0.000214636
1.83618e-07
0.000214558
1.68349e-07
0.00021446
2.13675e-07
0.00021438
1.8567e-07
0.000214331
7.90756e-08
0.00021428
1.27109e-07
0.000214221
1.1208e-07
0.000214158
1.468e-07
0.000214091
1.30947e-07
0.000214023
1.60157e-07
0.000213958
1.20893e-07
0.000213894
1.39411e-07
0.000213825
1.4355e-07
0.00021376
1.35719e-07
0.0002137
1.27621e-07
0.000213637
1.28453e-07
0.000213575
1.25633e-07
0.000213519
1.18147e-07
0.000213466
1.0648e-07
0.00021341
1.14334e-07
0.000213358
1.14277e-07
0.000213318
6.88828e-08
0.000213277
9.63232e-08
0.000213241
5.55598e-08
0.000213203
7.51845e-08
0.000213165
7.46988e-08
0.000213131
6.67807e-08
0.000213104
5.43392e-08
0.000213081
3.95802e-08
0.000213069
2.3884e-08
0.00021306
1.56685e-08
0.00021306
-4.78517e-09
0.000213062
-6.23484e-09
0.000213073
-3.14147e-08
0.000213091
-4.27652e-08
0.000213124
-7.01108e-08
0.000213169
-9.82275e-08
0.000213229
-1.30335e-07
0.000213304
-1.60249e-07
0.000213397
-1.98254e-07
0.000213514
-2.50107e-07
0.000213649
-2.85656e-07
0.000213809
-3.36766e-07
0.000213996
-3.93807e-07
0.000214216
-4.62057e-07
0.000214483
-5.64046e-07
0.000214801
-6.77632e-07
0.000215157
-7.52839e-07
0.000215544
-8.12845e-07
0.000215986
-9.33009e-07
0.000216559
-1.23314e-06
0.000217317
-1.65839e-06
0.0002182
-1.92268e-06
0.000219036
-1.75463e-06
0.000219715
-1.35004e-06
0.000220434
-1.46769e-06
0.000221732
-2.92729e-06
0.000224083
-5.48756e-06
0.000227606
-8.23811e-06
0.000231448
-8.72933e-06
0.000234529