/*--------------------------------*- C++ -*----------------------------------*\
| =========                 |                                                 |
| \\      /  F ield         | OpenFOAM: The Open Source CFD Toolbox           |
|  \\    /   O peration     | Version:  2412                                  |
|   \\  /    A nd           | Website:  www.openfoam.com                      |
|    \\/     M anipulation  |                                                 |
\*---------------------------------------------------------------------------*/
FoamFile
{
    version     2.0;
    format      ascii;
    arch        "LSB;label=32;scalar=64";
    class       volVectorField;
    location    "20";
    object      U;
}
// * * * * * * * * * * * * * * * * * * * * * * * * * * * * * * * * * * * * * //

dimensions      [0 1 -1 0 0 0 0];

internalField   nonuniform List<vector> 
32591
(
(-0.299407 -3.26654 -2.31367e-23)
(-2.13112 -8.57887 1.24611e-23)
(-2.75193 -5.92174 -1.17529e-23)
(0.568912 0.612279 0)
(2.58809 2.50512 -2.35239e-19)
(-0.837245 -0.424294 2.51846e-19)
(-0.788718 -0.360331 0)
(2.23551 0.566231 -4.07259e-23)
(3.57937 0.578794 -4.08815e-20)
(3.31181 0.406022 4.49055e-23)
(2.60812 0.329798 0)
(2.27596 0.307642 0)
(2.07864 0.295154 0)
(1.98584 0.290342 0)
(1.98088 0.291413 8.44602e-20)
(2.01637 0.29112 7.64805e-20)
(2.0316 0.28606 7.02811e-20)
(2.01961 0.279161 0)
(1.98543 0.271898 2.92634e-23)
(1.93846 0.266037 2.22961e-19)
(1.90136 0.262921 -2.45335e-23)
(1.88207 0.261473 4.62955e-25)
(1.87533 0.260697 3.33443e-19)
(1.87349 0.259546 -4.86751e-25)
(1.86881 0.257949 1.64531e-23)
(1.86113 0.256275 -1.23937e-19)
(1.85298 0.254893 0)
(1.84696 0.253832 2.02508e-19)
(1.84303 0.252909 0)
(1.84004 0.251972 -9.85835e-24)
(1.83719 0.251029 9.25015e-24)
(1.83442 0.25011 0)
(1.83195 0.249225 4.80794e-19)
(1.83001 0.24837 1.31928e-23)
(1.82838 0.247515 -1.1841e-23)
(1.82699 0.246655 -1.73768e-19)
(1.82586 0.245798 -4.61776e-24)
(1.82488 0.244929 1.38954e-19)
(1.82403 0.244036 -2.4776e-19)
(1.82339 0.243134 -2.2035e-19)
(1.82286 0.242207 1.17172e-24)
(1.82244 0.241256 -1.72688e-19)
(1.82215 0.240282 1.51973e-19)
(1.82196 0.239279 -1.9439e-24)
(1.82183 0.238242 1.15834e-19)
(1.82178 0.237175 -1.44848e-24)
(1.82174 0.236065 1.71248e-19)
(1.82176 0.234922 -1.44805e-19)
(1.82195 0.233759 2.41122e-19)
(1.82216 0.232553 9.82887e-20)
(1.82245 0.231319 7.78041e-20)
(1.82279 0.230045 3.9085e-25)
(1.82316 0.228732 4.15486e-20)
(1.82352 0.227376 0)
(1.82396 0.225984 2.89957e-26)
(1.82454 0.224566 -2.79732e-26)
(1.825 0.223092 -3.19232e-20)
(1.82539 0.221565 -5.57281e-20)
(1.82581 0.220003 7.79407e-20)
(1.82652 0.218431 -3.31507e-25)
(1.82709 0.216799 1.27122e-24)
(1.82773 0.21513 1.03967e-24)
(1.82836 0.213417 -1.17112e-24)
(1.82904 0.211669 1.69922e-19)
(1.82977 0.209884 -7.44872e-25)
(1.83057 0.208058 7.25e-25)
(1.83129 0.206178 0)
(1.832 0.204252 0)
(1.83281 0.202288 9.50939e-25)
(1.8335 0.200261 -5.05099e-19)
(1.8346 0.198229 0)
(1.8353 0.1961 0)
(1.836 0.193918 -5.74842e-19)
(1.83636 0.191643 5.9694e-19)
(1.83801 0.189443 6.18582e-19)
(1.83892 0.1871 6.39907e-19)
(1.83992 0.1847 0)
(1.8409 0.182227 0)
(1.84192 0.179684 -7.02504e-19)
(1.84293 0.177058 7.2317e-19)
(1.84393 0.174348 7.43863e-19)
(1.8451 0.171563 0)
(1.84651 0.168702 0)
(1.84785 0.165732 -8.06655e-19)
(1.84944 0.162675 0)
(1.85118 0.159511 8.49745e-19)
(1.85316 0.156241 -8.71858e-19)
(1.85501 0.152823 -8.94377e-19)
(1.85682 0.14926 9.17422e-19)
(1.85907 0.145581 9.41039e-19)
(1.86058 0.141677 -4.76669e-25)
(1.86398 0.137746 9.90026e-19)
(1.86586 0.133518 -2.03096e-18)
(1.86955 0.129222 -3.09489e-26)
(1.87189 0.124623 1.06833e-18)
(1.87564 0.119894 -1.09588e-18)
(1.8777 0.114828 -2.2487e-18)
(1.8832 0.109723 1.15373e-18)
(1.88743 0.104271 1.18412e-18)
(1.892 0.0985598 1.21547e-18)
(1.89545 0.0924994 -1.24776e-18)
(1.90144 0.0862479 6.40525e-19)
(1.90565 0.0795898 6.57768e-19)
(1.91187 0.0726667 -6.75643e-19)
(1.91641 0.065318 -6.94182e-19)
(1.92255 0.0576424 -7.13389e-19)
(1.92692 0.0495175 7.33241e-19)
(1.93298 0.0410197 -8.19416e-27)
(1.9366 0.0320392 -3.87503e-19)
(1.942 0.0226385 -1.92051e-25)
(1.94487 0.0127445 9.46757e-26)
(1.95117 0.00237782 -2.63473e-20)
(1.95587 -0.00851396 -2.0875e-25)
(1.96274 -0.0199709 -3.90921e-27)
(1.96661 -0.03198 2.16943e-25)
(1.97206 -0.044613 0)
(1.97485 -0.057816 0)
(1.98022 -0.0717571 -1.38263e-25)
(1.98334 -0.0863228 1.02931e-18)
(1.98737 -0.101673 1.05915e-18)
(1.99029 -0.117754 2.06617e-24)
(1.99271 -0.134643 -2.24259e-18)
(1.99416 -0.152363 -4.61467e-18)
(1.99475 -0.170965 -2.37371e-18)
(1.9946 -0.190522 2.44157e-18)
(1.99342 -0.211084 4.79911e-24)
(1.99124 -0.232735 -4.91165e-24)
(1.9881 -0.255585 0)
(1.9839 -0.279748 4.52049e-24)
(1.9784 -0.305326 -2.79254e-18)
(1.97124 -0.332452 0)
(1.96138 -0.361127 -7.77506e-25)
(1.95056 -0.391928 0)
(1.93786 -0.424992 -3.04426e-18)
(1.92198 -0.46046 6.17911e-18)
(1.90348 -0.498905 -3.12121e-18)
(1.88162 -0.540803 1.16893e-23)
(1.85673 -0.58712 3.11818e-18)
(1.82676 -0.638304 -3.05602e-18)
(1.79571 -0.697512 2.90898e-18)
(1.75488 -0.763763 -5.2395e-18)
(1.71014 -0.842816 2.15339e-18)
(1.67061 -0.945881 -3.88626e-23)
(1.64754 -1.0932 -1.6953e-24)
(1.61418 -1.29131 1.73332e-23)
(1.54503 -1.55666 3.20008e-18)
(1.33057 -1.81072 1.09759e-22)
(0.843008 -1.75728 -5.56156e-18)
(0.255714 -1.09093 8.34766e-23)
(0.00486876 0.0330716 -6.61973e-23)
(0.271168 1.15784 8.25887e-23)
(0.869994 1.81368 5.43862e-18)
(1.3581 1.84816 -2.44817e-22)
(1.56212 1.57374 -2.97395e-18)
(1.60365 1.28314 1.43462e-23)
(1.60763 1.06671 -4.29604e-25)
(1.6195 0.916924 3.66848e-23)
(1.65824 0.817221 -2.3724e-18)
(1.70821 0.743415 2.87812e-18)
(1.76064 0.68384 -3.13029e-18)
(1.80355 0.630167 3.22678e-18)
(1.83839 0.581277 -3.2639e-18)
(1.86345 0.535568 1.22154e-23)
(1.88227 0.493341 3.2517e-18)
(1.90074 0.45536 -6.43202e-18)
(1.91561 0.420111 3.1617e-18)
(1.92959 0.387706 0)
(1.93954 0.3571 8.40294e-25)
(1.94997 0.328859 2.95755e-18)
(1.95793 0.302162 -2.88174e-18)
(1.9643 0.276978 6.11405e-24)
(1.96944 0.253182 0)
(1.97341 0.230646 -5.05062e-24)
(1.97634 0.209273 4.9349e-24)
(1.97828 0.18896 2.38252e-24)
(1.9793 0.169639 2.43705e-18)
(1.97945 0.151237 2.3678e-18)
(1.97864 0.133691 -2.20533e-24)
(1.97685 0.116957 2.11804e-24)
(1.97445 0.10101 -3.11196e-24)
(1.97172 0.0858155 -1.05458e-18)
(1.96814 0.0713196 1.4818e-25)
(1.96504 0.0575275 0)
(1.96059 0.0443541 0)
(1.95686 0.0318205 2.22137e-25)
(1.9523 0.0198647 -4.00943e-27)
(1.94689 0.0084746 -2.13741e-25)
(1.94036 -0.00236404 2.69776e-20)
(1.93597 -0.0126866 9.69419e-26)
(1.9319 -0.0225204 -1.96647e-25)
(1.92761 -0.0318908 3.74221e-25)
(1.92203 -0.0407864 -8.38611e-27)
(1.91765 -0.0492798 -7.50838e-19)
(1.91191 -0.057323 7.30506e-19)
(1.90722 -0.0650048 7.1084e-19)
(1.90113 -0.072258 6.91826e-19)
(1.89671 -0.0792162 -6.73457e-19)
(1.89064 -0.0857571 -6.55703e-19)
(1.88695 -0.0920841 1.27703e-18)
(1.88186 -0.0980306 -1.24367e-18)
(1.87825 -0.103764 -1.21136e-18)
(1.87341 -0.109152 -1.18008e-18)
(1.87037 -0.114379 2.29955e-18)
(1.86619 -0.11929 1.12048e-18)
(1.86365 -0.124074 -1.09215e-18)
(1.86004 -0.128565 -3.16131e-26)
(1.85784 -0.132944 2.07637e-18)
(1.85469 -0.137059 -1.01248e-18)
(1.85289 -0.141091 2.30123e-24)
(1.84997 -0.144868 -9.63406e-19)
(1.8485 -0.148592 -9.39912e-19)
(1.84678 -0.152145 9.1708e-19)
(1.84474 -0.155531 8.94864e-19)
(1.84284 -0.158792 -8.73216e-19)
(1.84114 -0.161944 0)
(1.8396 -0.164992 8.31328e-19)
(1.83815 -0.167937 0)
(1.83685 -0.170795 0)
(1.83554 -0.173554 -7.71167e-19)
(1.83436 -0.176234 -7.51535e-19)
(1.8332 -0.178833 7.3202e-19)
(1.83215 -0.181361 0)
(1.8311 -0.183815 0)
(1.83017 -0.186209 6.26545e-25)
(1.82866 -0.188479 -6.53413e-19)
(1.82826 -0.190799 -6.33203e-19)
(1.82746 -0.193016 6.1261e-19)
(1.82679 -0.195191 0)
(1.82589 -0.197287 0)
(1.82512 -0.199346 5.47546e-19)
(1.82422 -0.20134 1.03452e-24)
(1.8234 -0.203293 0)
(1.82261 -0.205201 0)
(1.82176 -0.207058 8.19215e-25)
(1.82097 -0.208875 -8.41668e-25)
(1.82021 -0.210648 -1.96324e-19)
(1.81949 -0.212383 -1.37998e-24)
(1.81875 -0.214074 -1.64834e-19)
(1.81805 -0.215727 -2.33964e-24)
(1.81739 -0.21734 -4.48747e-25)
(1.81683 -0.218922 -1.0979e-19)
(1.81611 -0.220439 8.89278e-20)
(1.81567 -0.221954 6.65584e-20)
(1.81513 -0.223409 -4.25713e-20)
(1.81469 -0.224837 1.67052e-20)
(1.81425 -0.226221 0)
(1.81376 -0.227553 -2.05746e-20)
(1.81332 -0.228852 2.2311e-25)
(1.81292 -0.230111 5.43742e-20)
(1.81258 -0.231333 0)
(1.81233 -0.232526 -9.41269e-20)
(1.8121 -0.233679 8.21185e-25)
(1.81196 -0.234801 -1.41117e-19)
(1.81182 -0.23588 -1.20496e-24)
(1.81175 -0.236927 -9.84861e-20)
(1.81177 -0.237944 -1.66243e-24)
(1.81181 -0.238922 -1.31798e-19)
(1.81202 -0.23988 1.50838e-19)
(1.81233 -0.240812 -1.11596e-24)
(1.81279 -0.241725 1.94588e-19)
(1.81334 -0.24261 2.19687e-19)
(1.81414 -0.243492 -1.2362e-19)
(1.81507 -0.244351 -4.11447e-24)
(1.81615 -0.245197 1.55399e-19)
(1.81748 -0.246045 -1.06073e-23)
(1.81905 -0.246891 1.18348e-23)
(1.82095 -0.247736 -4.31788e-19)
(1.82344 -0.248621 0)
(1.82632 -0.249552 8.31642e-24)
(1.82934 -0.250516 -8.86325e-24)
(1.83256 -0.251482 0)
(1.83678 -0.252444 -1.81958e-19)
(1.84317 -0.253556 0)
(1.8518 -0.255004 1.11105e-19)
(1.86015 -0.256769 1.2238e-19)
(1.86573 -0.258489 4.0755e-25)
(1.86872 -0.259798 -2.97292e-19)
(1.87685 -0.260771 6.58806e-25)
(1.8979 -0.262468 -2.18005e-23)
(1.93719 -0.265894 -1.97144e-19)
(1.98704 -0.272153 2.6097e-23)
(2.02497 -0.279944 0)
(2.04168 -0.287531 -6.08465e-20)
(2.03234 -0.293488 -6.57962e-20)
(2.00435 -0.29494 -7.20941e-20)
(2.01894 -0.29527 0)
(2.12541 -0.301908 0)
(2.34252 -0.316783 0)
(2.70644 -0.342429 0)
(3.46341 -0.425077 3.10278e-23)
(3.81039 -0.617983 4.91151e-20)
(2.50676 -0.638808 -2.21501e-23)
(-0.602727 0.288728 0)
(-0.843537 0.422669 -2.11764e-19)
(2.54505 -2.477 3.81133e-19)
(0.558422 -0.602793 0)
(-2.82478 6.03869 6.07841e-23)
(-2.29381 9.33747 -6.49358e-23)
(-0.323218 4.95189 -2.097e-23)
(-1.04464 -5.83127 -7.26416e-23)
(-4.49392 -17.539 1.30919e-23)
(-6.65533 -15.0351 -1.18963e-23)
(-0.388461 -1.3154 0)
(5.02258 4.88543 1.18994e-21)
(-1.8882 -0.912625 -7.85368e-19)
(-0.197014 -0.273978 -1.83983e-22)
(7.39571 1.78036 2.18015e-23)
(10.1182 1.60794 1.35593e-22)
(9.28505 1.16159 -8.70326e-23)
(7.64441 0.991243 8.38205e-23)
(6.83669 0.936885 0)
(6.35254 0.909033 -1.64146e-19)
(6.13051 0.899288 0)
(6.11865 0.900632 -2.71143e-19)
(6.19501 0.894562 -1.23002e-19)
(6.21711 0.876234 -5.57023e-23)
(6.16991 0.854305 0)
(6.06853 0.832924 2.85219e-24)
(5.94061 0.817117 -1.79777e-19)
(5.84126 0.809149 1.64425e-19)
(5.78835 0.80521 3.29827e-23)
(5.7672 0.802554 -2.70311e-19)
(5.75774 0.798444 4.89721e-19)
(5.74096 0.79323 8.08383e-25)
(5.717 0.788044 2.49982e-23)
(5.69263 0.783864 -1.82586e-19)
(5.67429 0.780573 3.30106e-19)
(5.66156 0.777612 0)
(5.65142 0.774585 2.68896e-19)
(5.64188 0.77157 2.42548e-19)
(5.63276 0.768652 -5.8262e-25)
(5.62463 0.765847 -3.93369e-19)
(5.61808 0.763131 -1.10604e-23)
(5.61252 0.760414 -3.1756e-19)
(5.60775 0.757696 2.84784e-19)
(5.60375 0.754986 0)
(5.60028 0.752244 0)
(5.59722 0.74944 4.06528e-19)
(5.59485 0.74661 0)
(5.59284 0.743709 -3.20835e-19)
(5.59123 0.740741 2.83622e-19)
(5.59001 0.737703 -7.62803e-24)
(5.58911 0.73458 2.18699e-19)
(5.58846 0.731361 -1.90389e-19)
(5.58808 0.72805 -2.64575e-24)
(5.58775 0.724616 -2.81674e-19)
(5.58761 0.721076 1.94015e-24)
(5.588 0.717476 -1.98474e-19)
(5.58847 0.713758 1.62958e-23)
(5.58923 0.709946 1.55163e-23)
(5.59012 0.706017 9.73502e-20)
(5.59115 0.701972 6.87923e-20)
(5.59214 0.697793 0)
(5.59335 0.693503 -5.23314e-26)
(5.59501 0.689139 -6.63217e-26)
(5.59631 0.684597 5.11019e-20)
(5.59744 0.679908 4.20036e-25)
(5.59868 0.675102 -1.26532e-19)
(5.60078 0.670269 0)
(5.60245 0.665251 1.99038e-23)
(5.60432 0.660119 2.22231e-19)
(5.60618 0.654855 1.02017e-24)
(5.60821 0.649484 -2.76949e-19)
(5.61042 0.643999 1.21441e-24)
(5.61275 0.638385 -1.18212e-24)
(5.61491 0.63261 -1.39009e-24)
(5.61703 0.626691 1.35535e-24)
(5.61943 0.620658 -7.83488e-19)
(5.62153 0.614438 1.64805e-18)
(5.62479 0.608189 -1.10792e-25)
(5.62685 0.60165 -9.01268e-19)
(5.62896 0.594952 -1.73568e-24)
(5.63017 0.587982 0)
(5.63504 0.58121 -2.02085e-18)
(5.63774 0.574013 -2.09113e-18)
(5.6407 0.56664 2.11173e-24)
(5.64364 0.55905 1.11466e-18)
(5.6467 0.551238 -2.14042e-24)
(5.64969 0.543174 -1.18298e-18)
(5.65273 0.534858 1.2171e-18)
(5.6563 0.526309 -2.3368e-24)
(5.66055 0.517526 1.28587e-18)
(5.66462 0.508412 0)
(5.66943 0.499026 0)
(5.67471 0.489317 -1.39146e-18)
(5.68065 0.479273 1.4276e-18)
(5.68626 0.468787 0)
(5.6918 0.457854 -1.50169e-18)
(5.69861 0.446559 0)
(5.70341 0.434599 -1.57896e-18)
(5.71363 0.422523 -1.44214e-23)
(5.71955 0.409565 1.65989e-18)
(5.73066 0.396371 1.70167e-18)
(5.73798 0.382272 -1.7446e-18)
(5.74931 0.367755 1.7884e-18)
(5.75604 0.352241 1.83368e-18)
(5.77264 0.33656 -1.88028e-18)
(5.78544 0.319832 1.81406e-24)
(5.79922 0.302298 -1.97875e-18)
(5.8099 0.283714 2.03062e-18)
(5.82777 0.264514 -1.04194e-18)
(5.84057 0.244092 1.03303e-24)
(5.85899 0.222834 1.09819e-18)
(5.87251 0.200286 0)
(5.89047 0.176722 3.58236e-24)
(5.90322 0.151793 -1.19088e-18)
(5.92063 0.12572 0)
(5.93101 0.0981797 1.2656e-24)
(5.94633 0.0693546 3.11767e-25)
(5.9546 0.0390273 -3.1394e-25)
(5.97273 0.00726136 8.5522e-20)
(5.98647 -0.0261077 1.75925e-19)
(6.0063 -0.0611914 -3.54637e-25)
(6.01756 -0.097963 7.03857e-25)
(6.0332 -0.136629 0)
(6.0414 -0.177049 0)
(6.05686 -0.219703 1.62224e-18)
(6.06585 -0.264278 -1.66923e-18)
(6.07736 -0.311234 -1.71745e-18)
(6.08555 -0.360428 3.34992e-24)
(6.09226 -0.412084 0)
(6.09595 -0.466251 3.73948e-18)
(6.09703 -0.523104 3.84672e-18)
(6.09575 -0.582855 -7.91305e-18)
(6.0912 -0.64565 0)
(6.08358 -0.711747 0)
(6.07284 -0.781468 0)
(6.05869 -0.855147 8.82277e-18)
(6.04035 -0.933088 -4.52564e-18)
(6.01658 -1.01566 0)
(5.98467 -1.10291 -5.24471e-23)
(5.94933 -1.1965 -1.83568e-23)
(5.90782 -1.29682 3.76232e-23)
(5.85651 -1.40432 -1.00266e-17)
(5.79663 -1.52064 5.06726e-18)
(5.72589 -1.64712 1.89895e-23)
(5.64399 -1.7862 -5.06736e-18)
(5.54455 -1.93898 9.93366e-18)
(5.43728 -2.11364 0)
(5.29943 -2.30786 4.21429e-18)
(5.15377 -2.54083 -6.90678e-18)
(5.03047 -2.84802 -2.44813e-18)
(4.95127 -3.28372 0)
(4.82774 -3.85936 0)
(4.57189 -4.60125 -1.0195e-17)
(3.87518 -5.26527 -1.0595e-17)
(2.41845 -5.0314 -1.12379e-22)
(0.72579 -3.0867 -1.25537e-17)
(0.0157665 0.0935637 1.0712e-22)
(0.769575 3.27628 1.24406e-17)
(2.49682 5.19516 -1.09056e-22)
(3.95846 5.37871 1.01457e-17)
(4.62839 4.65806 9.4758e-18)
(4.80336 3.84028 0)
(4.82925 3.20274 0)
(4.86187 2.7526 2.63182e-18)
(4.98314 2.45675 7.45098e-18)
(5.15141 2.24349 -9.27177e-18)
(5.32764 2.07102 0)
(5.47129 1.91339 -1.05108e-17)
(5.58637 1.7679 5.30025e-18)
(5.66905 1.63077 1.98231e-23)
(5.73098 1.50343 -5.27307e-18)
(5.79051 1.38849 1.04262e-17)
(5.83894 1.28171 3.90561e-23)
(5.88406 1.18337 -1.90399e-23)
(5.91696 1.09043 5.2772e-23)
(5.95033 1.00447 -4.79172e-18)
(5.97633 0.923199 4.66877e-18)
(5.99719 0.846465 -9.08942e-18)
(6.01421 0.773923 0)
(6.02751 0.705187 0)
(6.03748 0.639954 4.178e-18)
(6.04435 0.577939 0)
(6.04836 0.518927 -3.94462e-18)
(6.04965 0.462708 -3.83239e-18)
(6.04801 0.409091 0)
(6.04334 0.357927 3.42859e-24)
(6.03679 0.309154 -4.40976e-26)
(6.02924 0.262681 1.70734e-18)
(6.01915 0.218336 -1.65888e-18)
(6.01033 0.176135 0)
(5.99764 0.135826 0)
(5.98688 0.0974601 7.19437e-25)
(5.97381 0.0608602 -3.62523e-25)
(5.95826 0.0259846 -1.79793e-19)
(5.93939 -0.00721914 -8.73986e-20)
(5.9267 -0.0388462 -3.20773e-25)
(5.9151 -0.0689895 3.1857e-25)
(5.90295 -0.0977148 6.42798e-19)
(5.88696 -0.125003 0)
(5.87427 -0.15105 1.21623e-18)
(5.85755 -0.175734 -3.58036e-24)
(5.84376 -0.199305 0)
(5.82575 -0.22157 -1.12057e-18)
(5.81242 -0.242915 1.05372e-24)
(5.79429 -0.262995 1.062e-18)
(5.78299 -0.2824 -4.13597e-18)
(5.7677 -0.300655 1.94739e-24)
(5.75666 -0.318241 1.84378e-24)
(5.74209 -0.334781 1.91041e-18)
(5.73269 -0.350811 -1.86105e-18)
(5.72005 -0.365884 -1.81347e-18)
(5.71215 -0.380552 1.76721e-18)
(5.70125 -0.394336 -1.72253e-18)
(5.69442 -0.407766 -1.67906e-18)
(5.68489 -0.420397 1.4428e-23)
(5.67928 -0.432761 1.59612e-18)
(5.67048 -0.444352 0)
(5.66587 -0.455771 1.51788e-18)
(5.66062 -0.466671 0)
(5.6545 -0.477067 -1.4439e-18)
(5.64875 -0.487078 1.40829e-18)
(5.64358 -0.49675 0)
(5.63894 -0.506106 0)
(5.63454 -0.515147 -1.30605e-18)
(5.63058 -0.523916 -2.37964e-24)
(5.62664 -0.532387 -1.2406e-18)
(5.62307 -0.540614 1.20838e-18)
(5.61961 -0.548593 -2.19435e-24)
(5.61645 -0.556355 -1.14426e-18)
(5.61329 -0.563885 2.17086e-24)
(5.61049 -0.571237 0)
(5.60604 -0.578218 2.09412e-18)
(5.60477 -0.585332 1.01373e-18)
(5.60236 -0.592137 -1.81599e-24)
(5.6004 -0.598821 9.44969e-19)
(5.5977 -0.605259 -1.08532e-25)
(5.59542 -0.611583 -1.74434e-18)
(5.59274 -0.617707 8.33807e-19)
(5.59034 -0.623713 1.45572e-24)
(5.58799 -0.629576 -1.49306e-24)
(5.58548 -0.635281 -1.28968e-24)
(5.58314 -0.640866 1.3249e-24)
(5.58088 -0.646316 3.0693e-19)
(5.57871 -0.651645 1.13804e-24)
(5.57655 -0.656846 -2.54149e-19)
(5.57451 -0.66193 -1.95469e-23)
(5.57255 -0.666889 0)
(5.5709 -0.67175 1.61695e-19)
(5.56878 -0.676422 5.58891e-25)
(5.56752 -0.681075 -8.89898e-20)
(5.56596 -0.685557 -3.67638e-25)
(5.5647 -0.689949 -5.16582e-21)
(5.56346 -0.69421 0)
(5.5621 -0.698321 -4.46697e-25)
(5.56089 -0.702321 -7.33399e-20)
(5.55981 -0.706205 -1.02858e-19)
(5.5589 -0.709977 0)
(5.55829 -0.713657 0)
(5.55779 -0.717224 -2.07236e-19)
(5.55757 -0.720696 2.4824e-19)
(5.55735 -0.72404 -2.36503e-24)
(5.55738 -0.727288 1.70801e-19)
(5.55767 -0.730442 -1.97366e-19)
(5.5581 -0.733486 -6.91666e-24)
(5.55903 -0.736469 -2.58123e-19)
(5.56032 -0.739378 2.92867e-19)
(5.56206 -0.742227 0)
(5.56412 -0.745001 -3.726e-19)
(5.56697 -0.747763 0)
(5.57026 -0.750464 0)
(5.57402 -0.753129 -2.61771e-19)
(5.57855 -0.755802 2.91986e-19)
(5.58388 -0.758475 -1.01692e-23)
(5.59019 -0.761147 3.61641e-19)
(5.59827 -0.763934 -5.28978e-25)
(5.60756 -0.766865 -2.227e-19)
(5.61745 -0.769918 -2.46775e-19)
(5.62805 -0.772998 0)
(5.64141 -0.77604 -3.02283e-19)
(5.66058 -0.779442 2.00493e-23)
(5.68608 -0.783776 2.2788e-23)
(5.71165 -0.789177 6.80605e-25)
(5.73065 -0.794688 -4.44969e-19)
(5.74296 -0.799189 2.44929e-19)
(5.76759 -0.802338 3.48929e-23)
(5.8249 -0.806913 -1.4821e-19)
(5.92981 -0.81568 1.61411e-19)
(6.06498 -0.832511 -1.88729e-24)
(6.17582 -0.855235 0)
(6.23512 -0.878933 -4.88818e-23)
(6.22805 -0.89957 1.07705e-19)
(6.17093 -0.908661 2.35841e-19)
(6.2073 -0.911009 0)
(6.4631 -0.925505 0)
(6.9947 -0.959482 0)
(7.87497 -1.02257 6.78937e-23)
(9.63092 -1.2077 -7.0326e-23)
(10.6479 -1.6994 -4.83629e-20)
(8.09735 -1.96092 1.95907e-23)
(0.401189 0.0332259 -1.26739e-22)
(-1.80786 0.863222 6.89719e-19)
(4.85599 -4.74731 -1.20294e-21)
(-0.556196 1.51565 0)
(-6.94153 15.6409 -1.00874e-22)
(-4.8459 19.4387 1.12461e-22)
(-1.03976 8.92765 -2.79392e-20)
(-2.03192 -6.30537 -1.30405e-20)
(-5.65715 -20.9875 2.7384e-22)
(-9.03926 -20.6062 -9.15541e-23)
(-3.12247 -5.80392 9.3524e-23)
(5.10407 5.08917 4.7469e-19)
(-2.00276 -0.762285 8.2561e-19)
(2.32353 0.500024 -1.99525e-19)
(13.0676 3.01654 -1.28641e-19)
(16.1406 2.54159 1.49225e-22)
(14.8046 1.88743 -2.2373e-22)
(12.6324 1.66609 8.09926e-23)
(11.5116 1.59171 -8.58481e-20)
(10.8391 1.55794 1.6361e-19)
(10.5355 1.54736 -7.49169e-23)
(10.5145 1.54682 1.37211e-19)
(10.6013 1.52986 -6.19406e-23)
(10.6076 1.49512 -1.15357e-19)
(10.5154 1.45697 5.21739e-23)
(10.3498 1.42199 -1.99804e-19)
(10.1548 1.39804 -1.8531e-19)
(10.0053 1.38665 -1.70106e-19)
(9.92372 1.38066 3.10048e-19)
(9.8873 1.37583 0)
(9.86655 1.36813 -2.55418e-19)
(9.83526 1.3589 0)
(9.79451 1.35007 2.53734e-23)
(9.75434 1.34309 3.83155e-19)
(9.72366 1.3375 1.16368e-23)
(9.70148 1.33234 3.1373e-19)
(9.68334 1.32703 -2.83443e-19)
(9.66636 1.32177 -2.55982e-19)
(9.65034 1.31671 0)
(9.63611 1.31186 4.16162e-19)
(9.62449 1.30714 -3.74499e-19)
(9.61455 1.30243 3.36577e-19)
(9.60598 1.29771 -9.47139e-24)
(9.59874 1.29302 -2.70705e-19)
(9.59243 1.28827 -2.42125e-19)
(9.58692 1.28343 -4.32198e-19)
(9.58256 1.27854 3.84739e-19)
(9.57885 1.27354 0)
(9.57587 1.26842 -3.02029e-19)
(9.57355 1.26319 -3.89839e-24)
(9.57181 1.25781 -2.3308e-19)
(9.57053 1.25228 0)
(9.56973 1.24659 -2.54065e-24)
(9.56908 1.2407 3.00548e-19)
(9.56878 1.23463 1.81651e-24)
(9.56934 1.22846 -3.2398e-24)
(9.57009 1.22208 -3.45908e-19)
(9.57129 1.21554 2.01014e-23)
(9.57274 1.20881 -2.08067e-19)
(9.57443 1.20187 1.84413e-23)
(9.5761 1.19471 0)
(9.57814 1.18737 -3.86118e-20)
(9.58088 1.17988 1.78936e-25)
(9.58304 1.1721 5.4606e-20)
(9.58501 1.16407 4.49275e-25)
(9.58722 1.15586 -4.348e-25)
(9.5907 1.14757 -7.31481e-25)
(9.59355 1.13898 2.77085e-23)
(9.59669 1.13018 -2.37901e-19)
(9.59983 1.12117 0)
(9.60329 1.11197 2.96551e-19)
(9.60701 1.10257 1.16636e-24)
(9.6109 1.09295 1.3969e-24)
(9.61454 1.08306 -3.73715e-19)
(9.61816 1.07292 1.57711e-24)
(9.62216 1.06258 8.39383e-19)
(9.6258 1.05193 -8.82919e-19)
(9.63112 1.04121 9.24896e-19)
(9.63461 1.03001 9.65875e-19)
(9.63814 1.01854 0)
(9.64059 1.00664 0)
(9.64848 0.994998 3.31027e-23)
(9.65293 0.982662 1.12083e-18)
(9.65785 0.970025 -1.15808e-18)
(9.66279 0.957026 -1.19511e-18)
(9.66789 0.943635 2.29501e-24)
(9.67288 0.929819 -2.47334e-24)
(9.67804 0.915579 -2.5383e-23)
(9.68411 0.900943 -2.61316e-24)
(9.69125 0.885894 -2.10505e-23)
(9.69815 0.870285 -2.64838e-24)
(9.70628 0.854208 0)
(9.7152 0.837579 1.49252e-18)
(9.72514 0.820366 0)
(9.73459 0.802404 -1.57067e-18)
(9.74409 0.783693 3.0196e-24)
(9.75547 0.764336 0)
(9.76419 0.743903 0)
(9.78109 0.723188 -1.73656e-18)
(9.79166 0.701038 -1.78068e-18)
(9.81016 0.678417 -1.74927e-23)
(9.82301 0.654308 2.05197e-23)
(9.84193 0.62943 5.34533e-26)
(9.85448 0.602936 1.96696e-18)
(9.88217 0.576049 2.01683e-18)
(9.90376 0.547398 -1.94585e-24)
(9.9267 0.517357 4.24465e-18)
(9.94534 0.485563 2.17815e-18)
(9.97475 0.45265 0)
(9.99643 0.417689 0)
(10.0264 0.38125 1.17796e-18)
(10.0487 0.342639 -1.21002e-18)
(10.0773 0.30226 6.09576e-24)
(10.0977 0.259584 1.2776e-18)
(10.1247 0.214932 0)
(10.1409 0.167817 6.75028e-19)
(10.1642 0.118509 -6.5475e-25)
(10.1772 0.0666634 0)
(10.2054 0.0123787 -4.58634e-20)
(10.2271 -0.0446241 -1.88659e-19)
(10.258 -0.104518 1.11336e-24)
(10.2757 -0.167281 -7.54426e-25)
(10.3 -0.233238 0)
(10.3131 -0.302206 1.62348e-24)
(10.3372 -0.374914 -4.98333e-24)
(10.3512 -0.450911 3.38563e-24)
(10.3688 -0.530907 0)
(10.381 -0.614698 -1.89154e-18)
(10.3905 -0.702652 -3.7283e-24)
(10.3951 -0.79488 3.79625e-24)
(10.3954 -0.891669 -4.11443e-18)
(10.3916 -0.993357 4.23149e-18)
(10.3822 -1.1002 4.351e-18)
(10.3674 -1.21262 -3.01301e-26)
(10.3471 -1.33115 -1.47504e-26)
(10.3207 -1.45632 -4.71858e-18)
(10.2868 -1.58864 4.84146e-18)
(10.2432 -1.72867 4.96282e-18)
(10.1861 -1.87666 1.01598e-17)
(10.1224 -2.03518 -5.18885e-18)
(10.0474 -2.20487 0)
(9.9557 -2.38656 5.36931e-18)
(9.84852 -2.5828 0)
(9.72206 -2.79581 2.03529e-23)
(9.57356 -3.02887 -6.13887e-23)
(9.3917 -3.28329 -5.33214e-18)
(9.18965 -3.57111 0)
(8.93914 -3.89172 4.53074e-18)
(8.68815 -4.28231 3.70693e-18)
(8.48932 -4.80568 2.61743e-18)
(8.35461 -5.54049 -9.89571e-19)
(8.11781 -6.48893 1.63241e-18)
(7.6146 -7.66098 5.45433e-18)
(6.36105 -8.63449 1.14196e-17)
(3.91711 -8.12966 -1.21828e-22)
(1.16924 -4.92603 1.36503e-17)
(0.0346076 0.150053 1.16598e-22)
(1.23925 5.22882 -1.35227e-17)
(4.04448 8.39567 -9.49761e-18)
(6.50066 8.82478 -1.09265e-17)
(7.71643 7.76374 -5.06297e-18)
(8.09117 6.46877 -1.20426e-18)
(8.15276 5.40695 1.18562e-18)
(8.18426 4.6331 -2.82461e-18)
(8.37344 4.12708 -8.0289e-18)
(8.6702 3.77454 -4.89929e-23)
(8.99414 3.49495 0)
(9.26129 3.23765 5.64644e-18)
(9.47162 2.99645 -6.44371e-23)
(9.62215 2.76707 2.12569e-23)
(9.7347 2.55297 0)
(9.84071 2.35898 -5.58667e-18)
(9.92782 2.17863 0)
(10.0085 2.01227 5.38145e-18)
(10.0687 1.85503 -1.05185e-17)
(10.1279 1.7092 -1.95963e-23)
(10.1749 1.57134 -4.99869e-18)
(10.2129 1.4411 4.86539e-18)
(10.2442 1.31789 -2.57444e-26)
(10.2689 1.20109 -3.94788e-26)
(10.2877 1.09018 -8.94381e-18)
(10.3012 0.984706 -6.17888e-26)
(10.3097 0.88431 4.22237e-18)
(10.3137 0.788644 3.89232e-24)
(10.3128 0.697389 -3.82228e-24)
(10.3069 0.610304 1.93748e-18)
(10.2976 0.527255 0)
(10.2866 0.448092 3.46415e-24)
(10.2714 0.372525 -5.09835e-24)
(10.2579 0.300579 1.6606e-24)
(10.2384 0.231849 0)
(10.2216 0.166393 -7.71346e-25)
(10.2015 0.103941 1.13833e-24)
(10.1774 0.0444071 1.9285e-19)
(10.148 -0.0123059 4.68822e-20)
(10.1281 -0.0663459 0)
(10.1103 -0.117878 -6.69125e-25)
(10.0918 -0.167004 -6.89718e-19)
(10.0671 -0.213703 0)
(10.0469 -0.258281 -1.30491e-18)
(10.0205 -0.300554 -6.06193e-24)
(9.99814 -0.340915 1.2352e-18)
(9.96897 -0.379068 -1.20228e-18)
(9.94657 -0.415604 0)
(9.91687 -0.450023 1.13943e-18)
(9.89741 -0.483225 1.7274e-23)
(9.87212 -0.51451 -2.16069e-18)
(9.85317 -0.544603 -1.97808e-24)
(9.82896 -0.572953 -2.0498e-18)
(9.81262 -0.600374 -1.99666e-18)
(9.79153 -0.626206 5.60319e-26)
(9.77771 -0.651291 -1.66938e-23)
(9.75952 -0.674915 2.07737e-23)
(9.74755 -0.697882 1.80149e-18)
(9.73166 -0.719531 1.75659e-18)
(9.72174 -0.740672 0)
(9.70717 -0.760546 1.67016e-18)
(9.69889 -0.780064 3.05281e-24)
(9.69002 -0.798729 1.58833e-18)
(9.67983 -0.816543 0)
(9.67013 -0.833694 -1.51091e-18)
(9.6614 -0.850258 0)
(9.65355 -0.866281 -2.6886e-24)
(9.64613 -0.881769 3.13106e-23)
(9.63943 -0.896785 -2.65697e-24)
(9.6328 -0.911297 2.99265e-23)
(9.62679 -0.925387 -2.52434e-24)
(9.621 -0.939057 2.35341e-24)
(9.61568 -0.952359 1.22713e-18)
(9.61035 -0.965254 1.19255e-18)
(9.6057 -0.97785 -2.26196e-24)
(9.59846 -0.989841 -3.25774e-23)
(9.59599 -1.00199 -1.08679e-18)
(9.59201 -1.01366 -1.05034e-18)
(9.58868 -1.0251 -1.01291e-18)
(9.58426 -1.03614 -9.7447e-19)
(9.58041 -1.04697 9.34694e-19)
(9.576 -1.05748 -8.93544e-19)
(9.57201 -1.06777 1.68356e-24)
(9.56808 -1.07782 4.0289e-19)
(9.56391 -1.0876 -3.79406e-19)
(9.56 -1.09717 1.28557e-24)
(9.5562 -1.10651 -3.2873e-19)
(9.55255 -1.11564 0)
(9.54895 -1.12456 2.72126e-19)
(9.54552 -1.13327 -2.54714e-23)
(9.54221 -1.14177 -8.70393e-25)
(9.53939 -1.15009 -5.78662e-25)
(9.53589 -1.1581 -1.35416e-19)
(9.53368 -1.16606 -2.7574e-25)
(9.53109 -1.17375 1.77871e-25)
(9.52893 -1.18127 1.11474e-25)
(9.52689 -1.18857 0)
(9.52467 -1.19562 -4.92717e-20)
(9.52268 -1.20248 1.56784e-19)
(9.52092 -1.20914 -2.09617e-23)
(9.51947 -1.21562 1.44057e-19)
(9.51849 -1.22193 -2.76801e-24)
(9.51775 -1.22804 2.21232e-19)
(9.51748 -1.23401 -2.64908e-19)
(9.51726 -1.23975 -2.25156e-24)
(9.51746 -1.24533 0)
(9.51814 -1.25076 2.10379e-19)
(9.51911 -1.256 -3.5275e-24)
(9.5209 -1.26114 2.74909e-19)
(9.52333 -1.26615 0)
(9.52654 -1.27106 -3.52028e-19)
(9.53035 -1.27585 3.96129e-19)
(9.53547 -1.28061 2.22219e-19)
(9.54139 -1.28529 2.48699e-19)
(9.54818 -1.2899 -8.70767e-24)
(9.55629 -1.29453 -3.09459e-19)
(9.56576 -1.29916 3.44338e-19)
(9.5769 -1.30379 -3.82573e-19)
(9.5909 -1.3086 0)
(9.60701 -1.31366 2.35054e-19)
(9.62437 -1.31895 2.60112e-19)
(9.64306 -1.32432 -2.87538e-19)
(9.66602 -1.32958 -8.68088e-24)
(9.69777 -1.33532 -1.75201e-19)
(9.73943 -1.34251 2.31729e-23)
(9.78237 -1.35164 2.11439e-19)
(9.81673 -1.36128 2.32004e-19)
(9.8415 -1.36954 0)
(9.88285 -1.37509 -2.80235e-19)
(9.97067 -1.38201 1.53281e-19)
(10.1281 -1.39459 1.66315e-19)
(10.3335 -1.42005 1.78232e-19)
(10.5126 -1.457 4.6393e-23)
(10.6222 -1.49774 1.01517e-19)
(10.6375 -1.53585 1.09223e-19)
(10.5786 -1.55729 -1.19155e-19)
(10.6349 -1.56338 -6.44827e-23)
(10.9858 -1.58101 -4.78615e-25)
(11.7229 -1.62374 7.26967e-20)
(12.9385 -1.71061 6.53914e-23)
(15.2539 -1.95236 -1.70999e-22)
(16.8263 -2.66747 1.11188e-22)
(14.0802 -3.2834 8.09116e-20)
(3.43373 -0.934681 1.43034e-19)
(-1.74804 0.626357 -7.2869e-19)
(4.66187 -4.6814 -3.9994e-19)
(-3.50857 6.36214 -2.11157e-20)
(-9.43975 21.653 -2.09857e-22)
(-6.12403 23.642 2.00939e-22)
(-1.9829 9.66459 2.20526e-20)
(-3.09693 -6.26867 -2.01314e-20)
(-6.15437 -19.9878 2.47149e-20)
(-10.1954 -23.8317 0)
(-6.00844 -11.0218 0)
(2.91522 2.89538 0)
(-1.16478 -0.163119 -4.38827e-19)
(6.56635 1.81873 1.66053e-19)
(18.6645 4.16333 1.10185e-19)
(21.2777 3.34262 -6.2432e-20)
(19.6599 2.5561 2.19567e-23)
(17.3169 2.3189 -1.50745e-22)
(16.0547 2.23813 1.62443e-19)
(15.2982 2.20781 1.56359e-19)
(14.9594 2.19999 1.46043e-19)
(14.9257 2.19558 -1.33339e-19)
(14.9966 2.16402 -1.1817e-22)
(14.9712 2.11138 1.13104e-19)
(14.8327 2.05739 0)
(14.615 2.01061 -9.57505e-23)
(14.3732 1.98105 1.83648e-19)
(14.1898 1.96801 0)
(14.0871 1.96065 -3.09407e-19)
(14.0363 1.95359 2.8155e-19)
(14.0025 1.94201 2.56342e-19)
(13.9564 1.92875 2.33601e-19)
(13.9005 1.91649 0)
(13.8469 1.90697 -1.93596e-19)
(13.8053 1.89922 -7.02298e-19)
(13.7743 1.8919 -6.36093e-19)
(13.7484 1.88432 2.87843e-19)
(13.7243 1.87684 -3.11319e-23)
(13.7018 1.86966 2.35157e-19)
(13.6819 1.8628 -8.48465e-19)
(13.6655 1.8561 3.82179e-19)
(13.6514 1.84939 0)
(13.6392 1.84268 0)
(13.6289 1.836 2.77014e-19)
(13.6199 1.82925 2.47947e-19)
(13.6121 1.82237 4.42892e-19)
(13.6058 1.81542 -3.94514e-19)
(13.6006 1.80831 0)
(13.5963 1.80104 3.10047e-19)
(13.593 1.7936 6.77734e-25)
(13.5905 1.78597 6.42399e-25)
(13.5887 1.77811 6.6823e-24)
(13.5875 1.77003 3.60987e-19)
(13.5866 1.76167 -3.09236e-19)
(13.5864 1.75307 0)
(13.5872 1.7443 0)
(13.5882 1.73525 1.78094e-19)
(13.5899 1.72596 -1.41178e-19)
(13.592 1.71639 1.0718e-19)
(13.5944 1.70655 -7.57793e-20)
(13.5968 1.69639 -3.99711e-25)
(13.5998 1.68596 -4.74552e-23)
(13.6035 1.67532 1.1188e-25)
(13.6066 1.66426 -5.63056e-20)
(13.6094 1.65288 -5.83803e-25)
(13.6128 1.64124 0)
(13.6176 1.62946 0)
(13.6216 1.61725 2.12385e-19)
(13.626 1.60476 0)
(13.6305 1.59195 -2.76545e-19)
(13.6354 1.57889 1.0954e-24)
(13.6405 1.56553 0)
(13.6459 1.55185 0)
(13.651 1.53779 2.74595e-23)
(13.6561 1.5234 3.12708e-24)
(13.6616 1.5087 8.66572e-19)
(13.6669 1.49359 0)
(13.6739 1.47832 -9.55124e-19)
(13.6788 1.46241 0)
(13.6837 1.4461 -2.04022e-24)
(13.6878 1.42928 -1.07913e-18)
(13.6982 1.41266 4.48291e-23)
(13.7043 1.39512 -2.26569e-24)
(13.711 1.37716 4.45547e-23)
(13.7178 1.35868 1.23472e-18)
(13.7248 1.33965 1.27279e-18)
(13.7317 1.32001 1.31072e-18)
(13.7389 1.29979 -1.34873e-18)
(13.7474 1.279 0)
(13.7573 1.2576 -1.42518e-18)
(13.7669 1.23543 -2.73693e-24)
(13.7782 1.21259 0)