/*--------------------------------*- C++ -*----------------------------------*\
| =========                 |                                                 |
| \\      /  F ield         | OpenFOAM: The Open Source CFD Toolbox           |
|  \\    /   O peration     | Version:  2412                                  |
|   \\  /    A nd           | Website:  www.openfoam.com                      |
|    \\/     M anipulation  |                                                 |
\*---------------------------------------------------------------------------*/
FoamFile
{
    version     2.0;
    format      ascii;
    arch        "LSB;label=32;scalar=64";
    class       volVectorField;
    location    "20";
    object      U;
}
// * * * * * * * * * * * * * * * * * * * * * * * * * * * * * * * * * * * * * //

dimensions      [0 1 -1 0 0 0 0];

internalField   nonuniform List<vector> 
29601
(
(-0.0911936 -1.40144 -3.06142e-20)
(-0.591878 -2.0933 5.47597e-20)
(-0.518737 -0.907565 -8.98244e-20)
(-0.782031 -0.830881 1.25082e-19)
(-0.977307 -0.730205 -1.31163e-23)
(0.411333 0.194912 -1.26067e-20)
(2.12578 0.660546 -1.95978e-24)
(2.9001 0.550674 0)
(2.66677 0.341675 1.10215e-20)
(2.13512 0.263039 1.93775e-20)
(1.83819 0.243626 -2.20598e-20)
(1.69112 0.236777 0)
(1.61172 0.233894 -4.30494e-20)
(1.58253 0.233156 -3.98962e-20)
(1.58734 0.231868 -7.33404e-20)
(1.59635 0.227527 4.18389e-24)
(1.59291 0.222278 3.21903e-20)
(1.58127 0.217562 -6.07893e-20)
(1.5611 0.213715 5.73733e-20)
(1.53894 0.211739 0)
(1.52353 0.211049 2.97026e-24)
(1.51478 0.210641 4.49466e-20)
(1.51101 0.210143 -6.80128e-26)
(1.50901 0.209149 -2.30156e-24)
(1.50589 0.20799 0)
(1.50167 0.206918 0)
(1.49721 0.206082 1.68648e-24)
(1.49361 0.205426 -5.18611e-26)
(1.49089 0.204785 -1.84114e-19)
(1.4888 0.204119 8.32041e-20)
(1.48674 0.203408 0)
(1.48484 0.202726 -5.70119e-25)
(1.48308 0.202068 -3.79261e-25)
(1.48158 0.201421 -2.20055e-19)
(1.48029 0.200769 0)
(1.47921 0.20011 8.87719e-20)
(1.47812 0.199427 -7.95616e-20)
(1.47729 0.198753 0)
(1.47641 0.198043 0)
(1.47573 0.197328 -4.18365e-25)
(1.47513 0.196596 1.00498e-19)
(1.47459 0.195839 0)
(1.47416 0.195065 7.84266e-20)
(1.47377 0.194264 0)
(1.47356 0.193454 1.20112e-19)
(1.47327 0.192601 0)
(1.47316 0.191737 -4.47152e-20)
(1.47297 0.190828 -7.60258e-20)
(1.47295 0.189907 6.37225e-20)
(1.47287 0.188945 -5.24492e-20)
(1.4729 0.187964 -4.20868e-20)
(1.47296 0.18695 -3.25602e-20)
(1.47315 0.18592 -3.83696e-26)
(1.47335 0.184855 3.68972e-26)
(1.47358 0.183759 8.2101e-21)
(1.47379 0.182627 0)
(1.47414 0.181474 1.57184e-26)
(1.47461 0.180303 -4.43149e-20)
(1.47481 0.179063 0)
(1.47511 0.177804 -4.35542e-20)
(1.47549 0.176519 2.79577e-26)
(1.47586 0.175197 -1.2448e-19)
(1.47633 0.17385 -1.88385e-24)
(1.47683 0.172472 7.8711e-20)
(1.47736 0.171066 4.34341e-26)
(1.47792 0.169626 -4.22299e-26)
(1.4785 0.168151 4.99662e-26)
(1.47907 0.166637 -4.86623e-26)
(1.47967 0.165091 5.59024e-26)
(1.48026 0.163503 -4.75069e-19)
(1.48094 0.161886 2.48946e-19)
(1.48152 0.160216 -5.99652e-26)
(1.48229 0.158526 2.70656e-19)
(1.48322 0.156806 6.50597e-26)
(1.48384 0.155011 2.91227e-19)
(1.48452 0.15317 3.01211e-19)
(1.48553 0.151311 0)
(1.48631 0.149375 0)
(1.48731 0.147405 -3.30255e-19)
(1.48803 0.145344 0)
(1.4892 0.143265 -8.50775e-26)
(1.48998 0.141077 1.711e-25)
(1.49128 0.138866 -8.60493e-26)
(1.49207 0.136529 -2.07357e-24)
(1.4936 0.134176 -3.55964e-27)
(1.49406 0.131638 7.95593e-19)
(1.49548 0.129092 4.07864e-19)
(1.49681 0.126435 -4.18122e-19)
(1.49799 0.123655 4.28587e-19)
(1.49944 0.120787 1.06531e-25)
(1.50095 0.117799 -1.70167e-24)
(1.50243 0.114677 0)
(1.50386 0.111414 -4.73115e-19)
(1.50564 0.108031 -9.69942e-19)
(1.50715 0.104475 4.97128e-19)
(1.50906 0.100779 5.0961e-19)
(1.5109 0.0969016 -5.22459e-19)
(1.51314 0.0928678 5.3573e-19)
(1.51541 0.0886401 -5.49466e-19)
(1.51773 0.0842055 0)
(1.52004 0.0795531 5.78273e-19)
(1.52262 0.0746877 -5.93353e-19)
(1.52533 0.0695836 -1.88712e-27)
(1.52818 0.0642334 7.35621e-26)
(1.53125 0.0586226 0)
(1.5342 0.0527257 -3.29527e-19)
(1.53739 0.0465416 7.97424e-26)
(1.5406 0.040048 3.47764e-19)
(1.54412 0.0332378 -1.78675e-19)
(1.54762 0.0260839 4.33009e-26)
(1.55113 0.0185713 -9.43827e-20)
(1.55443 0.0106814 -2.2896e-26)
(1.55802 0.0023995 1.24716e-20)
(1.56252 -0.00629805 -5.12987e-20)
(1.56719 -0.0154436 1.05515e-19)
(1.57141 -0.0250537 2.17055e-19)
(1.57532 -0.0351473 -4.46546e-19)
(1.57881 -0.0457447 0)
(1.58209 -0.0568729 3.32979e-25)
(1.58502 -0.0685576 4.86161e-19)
(1.58771 -0.0808343 -5.0012e-19)
(1.59007 -0.0937331 5.14456e-19)
(1.59216 -0.107297 2.53612e-25)
(1.59362 -0.121554 -2.58215e-25)
(1.59501 -0.136589 1.41253e-24)
(1.59609 -0.152454 -2.75188e-25)
(1.59654 -0.169194 1.78077e-24)
(1.59659 -0.186916 1.21492e-18)
(1.59597 -0.205691 5.9403e-25)
(1.59485 -0.225669 1.28e-18)
(1.59221 -0.246841 1.31205e-18)
(1.5886 -0.269455 0)
(1.58315 -0.293549 -9.23695e-25)
(1.57652 -0.31949 1.39932e-18)
(1.56764 -0.347367 -1.42182e-18)
(1.55632 -0.377497 -6.76465e-25)
(1.5422 -0.410271 7.0037e-25)
(1.5245 -0.446067 1.44916e-18)
(1.50286 -0.485594 1.32068e-24)
(1.47648 -0.529676 -1.37427e-24)
(1.44299 -0.578929 -1.31901e-18)
(1.39979 -0.634287 1.2188e-24)
(1.34231 -0.696246 0)
(1.26295 -0.76414 0)
(1.1575 -0.839672 -1.02791e-19)
(1.02574 -0.930628 9.6541e-19)
(0.844234 -1.02704 -3.21043e-24)
(0.542623 -1.00529 8.60556e-18)
(0.174642 -0.664597 -3.22003e-24)
(0.00111134 0.0117736 6.83336e-24)
(0.181324 0.690306 -3.2078e-24)
(0.548528 1.0162 -8.46699e-18)
(0.844778 1.02776 0)
(1.01756 0.923095 -1.93122e-18)
(1.13954 0.82668 3.00687e-20)
(1.24479 0.753172 0)
(1.3275 0.688566 0)
(1.39167 0.630594 1.29917e-24)
(1.43999 0.577717 -1.24385e-24)
(1.47493 0.529115 -1.43498e-24)
(1.5013 0.485089 1.37902e-24)
(1.52174 0.445257 -1.50867e-18)
(1.5389 0.409392 7.27619e-25)
(1.5523 0.376519 -7.02784e-25)
(1.56358 0.346465 0)
(1.57231 0.318635 -1.44512e-18)
(1.579 0.292779 -1.41514e-18)
(1.5848 0.268808 0)
(1.58834 0.24624 -1.3494e-18)
(1.59111 0.22514 -1.31543e-18)
(1.59228 0.205215 6.09903e-25)
(1.59313 0.186511 -1.24705e-18)
(1.593 0.168819 -1.21909e-24)
(1.59273 0.152134 -2.82217e-25)
(1.59174 0.136307 -1.42289e-24)
(1.59049 0.121314 -2.64421e-25)
(1.58887 0.107075 2.59708e-25)
(1.587 0.093552 -5.26472e-19)
(1.5847 0.0806809 5.11618e-19)
(1.58213 0.0684326 -4.97211e-19)
(1.57929 0.0567722 -3.34115e-25)
(1.57599 0.0456629 0)
(1.57252 0.0350846 4.56447e-19)
(1.56862 0.0250092 -2.21835e-19)
(1.56455 0.0154175 -1.07825e-19)
(1.55997 0.00628774 5.2415e-20)
(1.55561 -0.00239579 -1.27414e-20)
(1.5521 -0.0106654 -2.33871e-26)
(1.54892 -0.0185447 2.32293e-26)
(1.54542 -0.0260467 4.42189e-26)
(1.54188 -0.0331896 3.64901e-19)
(1.53827 -0.0399874 -3.55065e-19)
(1.53503 -0.0464699 8.14006e-26)
(1.53177 -0.052642 3.36356e-19)
(1.52882 -0.0585295 0)
(1.52591 -0.0641379 7.50507e-26)
(1.52321 -0.0694867 -1.94568e-27)
(1.5205 -0.0745837 6.051e-19)
(1.51791 -0.0794415 -5.89548e-19)
(1.51548 -0.0840805 0)
(1.51315 -0.0885073 5.59914e-19)
(1.51096 -0.0927343 -5.45813e-19)
(1.50893 -0.0967755 5.32197e-19)
(1.50699 -0.10064 -5.19042e-19)
(1.5051 -0.104333 -5.06319e-19)
(1.50333 -0.107866 9.88027e-19)
(1.50168 -0.111253 4.82104e-19)
(1.50009 -0.114499 4.70569e-19)
(1.49853 -0.11761 -4.59378e-19)
(1.49706 -0.120595 -4.48509e-19)
(1.49572 -0.123468 -4.37951e-19)
(1.49437 -0.126228 4.27678e-19)
(1.4931 -0.128885 9.78202e-26)
(1.49188 -0.131445 -8.15753e-19)
(1.4908 -0.133924 -3.50474e-27)
(1.4896 -0.136302 1.88683e-24)
(1.48861 -0.138618 -8.87631e-26)
(1.4874 -0.140832 1.76679e-25)
(1.48664 -0.143018 -8.79464e-26)
(1.48564 -0.145111 0)
(1.48466 -0.147143 0)
(1.48371 -0.149113 0)
(1.48292 -0.151045 0)
(1.48208 -0.152918 -3.16284e-19)
(1.48117 -0.154733 -3.06959e-19)
(1.48043 -0.156511 6.90094e-26)
(1.4796 -0.158238 -2.87749e-19)
(1.47888 -0.159931 2.77771e-19)
(1.47816 -0.161583 3.0103e-24)
(1.47746 -0.163195 5.1349e-19)
(1.47679 -0.164769 6.0628e-26)
(1.47621 -0.166315 -5.3612e-26)
(1.4756 -0.167822 -1.1089e-19)
(1.47499 -0.169289 -1.04478e-19)
(1.47436 -0.170719 4.88837e-26)
(1.47385 -0.172125 -9.05619e-20)
(1.47339 -0.173503 1.96395e-24)
(1.47281 -0.174834 1.49812e-19)
(1.47246 -0.176157 3.41977e-26)
(1.47196 -0.177424 5.70991e-20)
(1.47164 -0.178679 0)
(1.47121 -0.179886 7.33685e-20)
(1.47086 -0.181071 3.00814e-26)
(1.47055 -0.182224 0)
(1.4702 -0.183337 -8.00064e-23)
(1.46991 -0.184422 2.07288e-26)
(1.46965 -0.185478 -2.1556e-26)
(1.46944 -0.186504 0)
(1.46928 -0.187501 3.24344e-20)
(1.46916 -0.188468 4.23233e-20)
(1.46911 -0.189411 -1.06178e-19)
(1.46912 -0.190329 6.48209e-20)
(1.46905 -0.191201 3.88091e-20)
(1.46918 -0.192065 0)
(1.46918 -0.192879 -1.06882e-19)
(1.46933 -0.193679 0)
(1.46954 -0.194454 -7.09492e-20)
(1.46983 -0.195205 0)
(1.47018 -0.195935 -9.19775e-20)
(1.4706 -0.196642 -3.83825e-25)
(1.47112 -0.197332 0)
(1.47173 -0.198003 0)
(1.47248 -0.198666 -5.80192e-25)
(1.47327 -0.199305 -8.26954e-20)
(1.47419 -0.199941 0)
(1.47525 -0.200559 2.05911e-19)
(1.47656 -0.201178 -1.39022e-24)
(1.47808 -0.201803 5.71398e-25)
(1.47983 -0.202462 0)
(1.48155 -0.203123 7.83434e-20)
(1.48346 -0.203765 8.67751e-20)
(1.48585 -0.204355 -5.03811e-26)
(1.48923 -0.204982 1.59228e-24)
(1.49341 -0.205777 0)
(1.4974 -0.206816 0)
(1.50027 -0.207936 -2.17888e-24)
(1.50204 -0.208893 -6.59965e-26)
(1.50558 -0.209358 -4.25942e-20)
(1.51414 -0.209745 2.81543e-24)
(1.52942 -0.210425 0)
(1.5515 -0.212397 -5.43805e-20)
(1.57166 -0.216237 5.75769e-20)
(1.58352 -0.220964 -3.04731e-20)
(1.58729 -0.226232 3.95758e-24)
(1.57883 -0.23062 3.4668e-20)
(1.57469 -0.231996 3.77732e-20)
(1.60501 -0.232916 4.07556e-20)
(1.68642 -0.236116 0)
(1.83631 -0.243371 0)
(2.13779 -0.263362 -1.80657e-20)
(2.67808 -0.343111 -1.94092e-20)
(2.92025 -0.554452 0)
(2.14881 -0.667494 -2.20095e-24)
(0.403841 -0.190418 1.52861e-23)
(-1.02135 0.762499 -1.36798e-23)
(-0.806782 0.85642 -1.31172e-19)
(-0.5334 0.931887 9.34344e-20)
(-0.612824 2.16091 -5.55005e-20)
(-0.0966048 1.55091 -3.06222e-20)
(-0.288319 -3.69207 4.53527e-20)
(-1.67451 -5.78447 0)
(-1.60253 -2.79621 1.00196e-19)
(-2.19467 -2.36531 -1.92978e-19)
(-2.33878 -1.7787 1.71149e-19)
(1.93716 0.897392 -2.37097e-22)
(6.62521 2.03915 -6.99505e-24)
(8.5234 1.614 2.64472e-21)
(7.80488 1.00836 -4.48867e-20)
(6.37752 0.795346 -3.45311e-20)
(5.5748 0.743757 -5.24812e-24)
(5.17074 0.72639 7.7167e-20)
(4.95357 0.720015 1.47483e-19)
(4.87497 0.718567 8.24271e-24)
(4.88693 0.713849 6.2777e-20)
(4.90787 0.699588 -5.85556e-20)
(4.89396 0.683141 8.06163e-25)
(4.85671 0.668554 6.34211e-24)
(4.79657 0.657039 -1.95276e-19)
(4.73238 0.651453 -1.10694e-23)
(4.68768 0.649614 1.0201e-23)
(4.66198 0.648456 -7.64395e-20)
(4.65016 0.646856 -4.30525e-24)
(4.64309 0.643664 0)
(4.63285 0.640018 1.1537e-19)
(4.61962 0.636686 -1.05108e-19)
(4.60592 0.634111 9.55652e-20)
(4.59479 0.632077 -5.29003e-24)
(4.58628 0.630082 -2.67441e-24)
(4.57955 0.627987 -2.83664e-19)
(4.57298 0.625765 -1.28163e-19)
(4.56689 0.623632 -4.77182e-25)
(4.56131 0.621582 5.7934e-25)
(4.55652 0.619567 1.87872e-19)
(4.55237 0.617532 0)
(4.54883 0.615482 3.55543e-24)
(4.54535 0.613357 1.3607e-19)
(4.5426 0.611257 -1.86012e-24)
(4.53975 0.609054 8.55478e-25)
(4.53753 0.60684 0)
(4.53557 0.604569 -3.44915e-19)
(4.53378 0.602225 0)
(4.53232 0.599829 1.3492e-19)
(4.53104 0.597355 4.34226e-25)
(4.53027 0.594848 -2.07341e-19)
(4.52932 0.592215 -3.35787e-26)
(4.52887 0.589543 -3.12307e-25)
(4.52818 0.586736 1.32338e-19)
(4.52808 0.583899 -1.98426e-25)
(4.52783 0.58094 1.90039e-25)
(4.52786 0.577914 -7.46224e-20)
(4.52798 0.574791 1.16828e-19)
(4.5285 0.571614 4.34798e-20)
(4.52906 0.568334 4.53717e-26)
(4.52974 0.564959 -4.36754e-26)
(4.53035 0.561471 4.76663e-28)
(4.53132 0.557918 -2.13577e-26)
(4.53269 0.554308 6.33416e-20)
(4.53329 0.550498 3.85165e-26)
(4.53421 0.546622 6.81008e-20)
(4.5353 0.542664 0)
(4.53637 0.538589 9.99297e-20)
(4.5378 0.534449 -7.66369e-24)
(4.53933 0.530215 -7.37879e-24)
(4.54093 0.525886 0)
(4.54262 0.521455 -1.53008e-19)
(4.54433 0.516913 -1.64571e-19)
(4.54605 0.512256 1.74679e-25)
(4.54789 0.5075 -1.70262e-25)
(4.54963 0.502613 3.92406e-19)
(4.55164 0.497634 -4.1182e-19)
(4.55341 0.492501 0)
(4.55574 0.487298 -1.08301e-23)
(4.55857 0.482012 -4.66274e-19)
(4.56045 0.476487 4.8344e-19)
(4.56251 0.470825 5.00234e-19)
(4.56555 0.465105 -2.52581e-25)
(4.56792 0.459152 -5.3293e-19)
(4.57096 0.453093 5.48991e-19)
(4.57315 0.446757 -2.75389e-25)
(4.57669 0.440358 2.70917e-25)
(4.57908 0.433635 0)
(4.58299 0.426831 -6.12604e-19)
(4.58539 0.419642 -6.28708e-19)
(4.58996 0.412398 -1.50815e-25)
(4.59137 0.4046 -6.61533e-19)
(4.59572 0.396769 -6.783e-19)
(4.5997 0.388595 6.95374e-19)
(4.60326 0.38005 0)
(4.60771 0.37123 0)
(4.61226 0.362042 -1.49733e-18)
(4.61671 0.352439 5.98498e-27)
(4.62105 0.342408 6.00821e-27)
(4.62646 0.332007 5.38516e-24)
(4.63107 0.321073 2.00031e-25)
(4.63684 0.309707 -1.694e-18)
(4.64244 0.297791 1.73646e-18)
(4.64926 0.285389 -8.90134e-19)
(4.65616 0.272393 0)
(4.66317 0.258758 0)
(4.67018 0.24446 0)
(4.67804 0.229503 -2.38208e-25)
(4.68628 0.213816 3.60328e-25)
(4.69493 0.197371 -1.22258e-25)
(4.70423 0.180125 0)
(4.71315 0.162002 0)
(4.72277 0.142994 5.62847e-19)
(4.73245 0.12304 1.36283e-25)
(4.74307 0.102112 5.94476e-19)
(4.75358 0.0801287 3.05549e-19)
(4.7641 0.0570459 -7.40907e-26)
(4.77392 0.032806 -1.61507e-19)
(4.78465 0.00736533 -6.64344e-27)
(4.79806 -0.0193507 0)
(4.81199 -0.047434 0)
(4.82457 -0.0769426 0)
(4.83621 -0.10793 7.43588e-19)
(4.84658 -0.14046 0)
(4.85631 -0.174618 -7.87128e-19)
(4.86496 -0.210479 3.88848e-25)
(4.87287 -0.248152 1.66655e-18)
(4.8798 -0.287732 8.17423e-25)
(4.88589 -0.32935 -1.76387e-18)
(4.89009 -0.373092 -1.81421e-18)
(4.89402 -0.419217 -1.86568e-18)
(4.89692 -0.467881 9.17527e-25)
(4.89793 -0.51923 -1.9715e-18)
(4.89771 -0.573588 1.25161e-23)
(4.89542 -0.631182 0)
(4.8915 -0.692432 0)
(4.88298 -0.757319 -2.18899e-18)
(4.87143 -0.826604 0)
(4.85421 -0.900409 2.29148e-18)
(4.83326 -0.979841 2.33622e-18)
(4.80537 -1.06517 2.37359e-18)
(4.76988 -1.15735 0)
(4.72567 -1.25756 -2.26553e-24)
(4.67036 -1.36693 3.88078e-23)
(4.60276 -1.48762 2.20906e-24)
(4.52023 -1.622 2.33197e-18)
(4.41509 -1.77176 -5.26292e-23)
(4.27849 -1.93907 2.03691e-24)
(4.09571 -2.12468 1.50117e-18)
(3.8461 -2.32715 8.03438e-19)
(3.5212 -2.55404 -6.04815e-25)
(3.11862 -2.82826 0)
(2.55951 -3.1104 3.81249e-18)
(1.6387 -3.03007 -7.13302e-18)
(0.526181 -1.99594 5.35783e-24)
(0.00409492 0.0351163 -1.13752e-23)
(0.546578 2.07417 5.33604e-24)
(1.65725 3.06436 7.0239e-18)
(2.56237 3.11399 -3.67373e-18)
(3.0907 2.80283 1.5383e-18)
(3.45863 2.50873 -8.67667e-25)
(3.78492 2.29017 3.47083e-24)
(4.0488 2.10037 -2.52227e-24)
(4.25316 1.92757 2.18297e-24)
(4.40533 1.76783 2.3284e-18)
(4.51525 1.62021 -2.43545e-18)
(4.59797 1.48608 2.30454e-24)
(4.66205 1.36451 -3.43168e-23)
(4.71572 1.25491 -2.35562e-24)
(4.75768 1.15439 0)
(4.79299 1.06243 0)
(4.82037 0.977227 0)
(4.84142 0.898038 0)
(4.85963 0.8246 0)
(4.87094 0.755454 2.25243e-18)
(4.87983 0.690781 0)
(4.88388 0.629693 0)
(4.88687 0.572319 -1.06484e-23)
(4.88686 0.518055 2.02365e-18)
(4.88636 0.466874 9.41459e-25)
(4.88374 0.418333 1.91251e-18)
(4.88023 0.37234 -4.45294e-25)
(4.8756 0.328656 1.8063e-18)
(4.87017 0.287164 8.3679e-25)
(4.86344 0.247672 -8.5276e-19)
(4.85591 0.210087 3.9791e-25)
(4.84754 0.174303 8.05348e-19)
(4.83776 0.140204 0)
(4.82742 0.107733 -7.60562e-19)
(4.81584 0.0768032 0)
(4.8037 0.0473522 0)
(4.79006 0.0193183 0)
(4.77706 -0.00735377 6.55983e-27)
(4.7666 -0.0327558 1.65065e-19)
(4.75713 -0.0569625 -7.57138e-26)
(4.74667 -0.0800122 7.52682e-26)
(4.73605 -0.101961 -6.0743e-19)
(4.72515 -0.12285 1.39238e-25)
(4.71535 -0.14277 -5.75032e-19)
(4.70551 -0.161739 0)
(4.6966 -0.179833 0)
(4.68777 -0.19707 -1.24838e-25)
(4.67958 -0.21351 3.67865e-25)
(4.67137 -0.229176 -2.43168e-25)
(4.66348 -0.244109 0)
(4.6561 -0.258366 0)
(4.64904 -0.271976 0)
(4.64241 -0.284969 1.81397e-18)
(4.63624 -0.297394 -1.76837e-18)
(4.63034 -0.309273 1.72426e-18)
(4.62463 -0.320626 8.40784e-19)
(4.61923 -0.331489 -5.76898e-24)
(4.61421 -0.341902 6.10745e-27)
(4.60938 -0.351879 6.0678e-27)
(4.60468 -0.361446 1.52356e-18)
(4.60023 -0.370627 0)
(4.59612 -0.37946 0)
(4.59202 -0.387946 -7.08256e-19)
(4.5882 -0.39612 6.91317e-19)
(4.58448 -0.403991 6.74776e-19)
(4.58119 -0.41161 -1.54081e-25)
(4.5776 -0.418928 6.42699e-19)
(4.57463 -0.426053 -1.5244e-25)
(4.57094 -0.432862 0)
(4.56862 -0.439582 2.78413e-25)
(4.56562 -0.446021 -2.83009e-25)
(4.56264 -0.45227 0)
(4.55975 -0.45833 5.50608e-19)
(4.55734 -0.46427 -2.61301e-25)
(4.55482 -0.470031 -5.1971e-19)
(4.5521 -0.475615 -5.03898e-19)
(4.54983 -0.481087 4.87752e-19)
(4.54729 -0.486396 1.08451e-23)
(4.54513 -0.491604 -4.5416e-19)
(4.54294 -0.496682 4.36502e-19)
(4.54086 -0.501645 -4.18174e-19)
(4.53885 -0.506492 -1.8313e-25)
(4.53709 -0.511247 1.87881e-25)
(4.53525 -0.51588 1.78996e-19)
(4.53341 -0.520398 1.67915e-19)
(4.53155 -0.524799 0)
(4.52999 -0.529124 1.43813e-19)
(4.52856 -0.533361 7.67452e-24)
(4.52681 -0.537453 -1.16595e-19)
(4.52581 -0.541529 0)
(4.52435 -0.545432 -8.55611e-20)
(4.52336 -0.549293 5.54382e-26)
(4.52207 -0.553007 -9.98332e-20)
(4.52103 -0.556653 -5.69316e-26)
(4.52016 -0.560209 1.87923e-26)
(4.51915 -0.563638 -2.52233e-26)
(4.51826 -0.566979 2.62029e-26)
(4.51753 -0.57023 -3.32509e-20)
(4.51696 -0.573393 -4.79136e-20)
(4.51651 -0.576465 6.38236e-20)
(4.51619 -0.579447 1.6892e-25)
(4.51606 -0.582349 9.99205e-20)
(4.51614 -0.585175 -1.20417e-19)
(4.51602 -0.58787 -2.88735e-25)
(4.51647 -0.590535 -3.36793e-26)
(4.51658 -0.59305 1.93847e-19)
(4.51714 -0.595522 4.07196e-25)
(4.51789 -0.597919 -1.27471e-19)
(4.51887 -0.600243 0)
(4.52007 -0.602503 1.64118e-19)
(4.52148 -0.604694 0)
(4.52318 -0.60683 8.19284e-25)
(4.5252 -0.608914 -1.78319e-24)
(4.52769 -0.610974 9.70564e-25)
(4.53025 -0.612964 -3.57019e-24)
(4.53325 -0.614939 0)
(4.53669 -0.616869 -1.81176e-19)
(4.54087 -0.618795 -3.65094e-24)
(4.54573 -0.620741 4.03223e-24)
(4.55127 -0.622796 1.23959e-19)
(4.55682 -0.624864 2.68941e-24)
(4.56296 -0.62688 1.51957e-19)
(4.57043 -0.628719 -5.12837e-24)
(4.58084 -0.630657 -9.27027e-20)
(4.59365 -0.633104 3.0698e-24)
(4.60613 -0.636324 -1.12055e-19)
(4.61557 -0.639847 0)
(4.62186 -0.642918 -4.18846e-24)
(4.63291 -0.644408 7.43915e-20)
(4.65797 -0.645496 9.93446e-24)
(4.70217 -0.647294 -1.07869e-23)
(4.76605 -0.652859 9.52003e-20)
(4.82606 -0.664339 -1.0111e-19)
(4.8638 -0.678937 -8.08733e-25)
(4.87857 -0.695419 5.72332e-20)
(4.85907 -0.709792 6.14469e-20)
(4.84896 -0.714756 8.07516e-24)
(4.93066 -0.716733 -1.44897e-19)
(5.15336 -0.724023 -7.5979e-20)
(5.56519 -0.742591 3.78168e-20)
(6.38002 -0.795847 3.42803e-20)
(7.82976 -1.01179 4.52282e-20)
(8.57286 -1.6235 -1.75711e-21)
(6.68945 -2.05844 -7.961e-24)
(1.93263 -0.892919 6.27149e-20)
(-2.44258 1.85586 -1.8944e-19)
(-2.26625 2.44214 2.11764e-19)
(-1.6591 2.89345 -1.15522e-19)
(-1.73165 5.97964 6.94588e-20)
(-0.302314 4.07505 2.29994e-20)
(-0.545478 -5.37283 2.41511e-20)
(-2.62159 -9.05198 0)
(-2.81334 -4.95328 0)
(-3.66958 -3.97663 2.13644e-19)
(-3.23131 -2.52173 6.38944e-23)
(4.29613 1.9368 5.64401e-20)
(11.5783 3.51915 -7.50475e-24)
(14.1579 2.67481 -2.8744e-21)
(12.9182 1.68517 2.4411e-20)
(10.7442 1.35484 3.77987e-20)
(9.51199 1.27656 4.22039e-20)
(8.8821 1.25143 5.25671e-24)
(8.54509 1.24368 -1.63528e-19)
(8.42461 1.24212 -7.58728e-20)
(8.44056 1.23279 0)
(8.46655 1.20686 6.51605e-20)
(8.43736 1.17802 -5.89673e-24)
(8.37069 1.1527 -1.15531e-19)
(8.26942 1.13325 1.0895e-19)
(8.16414 1.12426 -1.23615e-23)
(8.09079 1.12145 5.7576e-24)
(8.04813 1.11956 8.5501e-20)
(8.02739 1.11669 -1.55631e-19)
(8.01383 1.11099 1.13912e-25)
(7.9952 1.10457 -1.29252e-19)
(7.97199 1.09877 1.17822e-19)
(7.94839 1.09433 -1.07177e-19)
(7.92912 1.09079 0)
(7.91418 1.0873 1.76065e-19)
(7.90215 1.08362 1.5926e-19)
(7.89047 1.07974 1.43962e-19)
(7.87967 1.07602 1.30005e-19)
(7.86977 1.07244 3.09934e-24)
(7.86127 1.06893 1.57601e-24)
(7.85386 1.06538 -6.90532e-26)
(7.84749 1.06181 -1.70674e-19)
(7.84129 1.05811 0)
(7.83627 1.05445 0)
(7.83119 1.05063 0)
(7.82717 1.04678 0)
(7.82363 1.04284 1.94163e-19)
(7.82041 1.03878 0)
(7.81775 1.03463 6.88882e-24)
(7.81542 1.03034 0)
(7.81395 1.026 1.16782e-19)
(7.81224 1.02145 4.06399e-25)
(7.81132 1.01682 8.74169e-20)
(7.81006 1.01197 -3.01973e-25)
(7.80977 1.00706 0)
(7.80931 1.00196 -1.83139e-25)
(7.80928 0.996727 -9.01591e-24)
(7.80945 0.991336 -1.31703e-19)
(7.81026 0.985844 8.36142e-24)
(7.81114 0.980176 0)
(7.81227 0.974355 -1.91581e-20)
(7.81328 0.96833 0)
(7.81487 0.962191 2.35512e-26)
(7.81708 0.955947 -3.57072e-20)
(7.81807 0.949373 -5.69423e-20)
(7.81963 0.942684 -2.06913e-26)
(7.82146 0.935852 9.5319e-20)
(7.82324 0.928815 -1.12682e-19)
(7.82565 0.921673 -2.57972e-19)
(7.82826 0.914367 -1.44347e-19)
(7.83096 0.906892 -1.42479e-25)
(7.83378 0.899243 9.90561e-24)
(7.83666 0.891402 1.85636e-19)
(7.83956 0.883365 0)
(7.84264 0.875151 0)
(7.84556 0.866715 0)
(7.84896 0.85812 4.64547e-19)
(7.852 0.849269 2.23932e-25)
(7.85596 0.840289 -1.01229e-18)
(7.8607 0.831164 5.26039e-19)
(7.86389 0.821626 -5.45413e-19)
(7.86738 0.811859 -5.64367e-19)
(7.87248 0.80198 5.82931e-19)
(7.87649 0.791709 1.20252e-18)
(7.88162 0.781252 -3.02189e-25)
(7.88539 0.770325 -6.37346e-19)
(7.89133 0.759273 -6.5524e-19)
(7.89539 0.747678 3.27709e-25)
(7.90196 0.735929 6.91179e-19)
(7.90605 0.72353 -7.0933e-19)
(7.91365 0.711015 -7.27722e-19)
(7.91606 0.697568 3.62577e-25)
(7.92341 0.684056 1.53059e-18)
(7.93012 0.669949 0)
(7.93615 0.65521 -8.04149e-19)
(7.9437 0.639992 0)
(7.95134 0.624135 8.44678e-19)
(7.95883 0.607569 -4.06067e-25)
(7.96619 0.590267 -8.87319e-19)
(7.9753 0.572323 1.81902e-18)
(7.98311 0.553461 -9.32249e-19)
(7.99288 0.533859 9.55564e-19)
(8.00244 0.513313 -7.33153e-24)
(8.01403 0.491922 0)
(8.02571 0.469508 0)
(8.03757 0.445994 0)
(8.04947 0.421341 -2.61922e-25)
(8.06282 0.395549 2.61615e-25)
(8.07679 0.368502 0)
(8.09144 0.340148 0)
(8.10714 0.310414 0)
(8.12214 0.279166 -6.17918e-19)
(8.1383 0.246399 -6.34824e-19)
(8.15459 0.212004 1.57355e-25)
(8.17239 0.175931 -3.35229e-19)
(8.18992 0.138045 -6.05563e-25)
(8.20741 0.0982683 1.77135e-19)
(8.22362 0.0565026 1.82134e-19)
(8.24138 0.0126797 -4.68219e-20)
(8.26358 -0.0333352 -4.63584e-26)
(8.28664 -0.08169 -4.85308e-26)
(8.30741 -0.132492 2.92307e-25)
(8.32657 -0.185826 -7.33238e-26)
(8.34362 -0.241808 -8.62511e-19)
(8.3596 -0.30058 0)
(8.37375 -0.362276 9.13027e-19)
(8.38661 -0.427077 -9.39336e-19)
(8.39783 -0.495147 0)
(8.40758 -0.566713 1.98817e-18)
(8.41412 -0.641919 4.08961e-18)
(8.42017 -0.72121 0)
(8.42434 -0.804841 -1.03403e-24)
(8.42528 -0.89307 1.05616e-24)
(8.42408 -0.986449 -2.28251e-18)
(8.41931 -1.08536 2.34401e-18)
(8.41161 -1.19053 0)
(8.3961 -1.30196 -2.34766e-24)
(8.37519 -1.42089 2.52545e-18)
(8.34461 -1.54758 -2.58133e-18)
(8.3074 -1.68385 2.98241e-23)
(8.25817 -1.83021 2.52194e-24)
(8.19579 -1.98825 -2.60664e-24)
(8.11817 -2.15995 0)
(8.02133 -2.34727 4.14361e-23)
(7.9031 -2.55382 -4.97528e-24)
(7.75848 -2.78341 -2.62593e-18)
(7.57312 -3.03842 4.98388e-18)
(7.33049 -3.32147 2.21639e-18)
(7.00579 -3.63334 -1.69086e-18)
(6.56993 -3.97399 3.51968e-23)
(6.01644 -4.36221 2.0733e-19)
(5.33399 -4.83448 -1.7475e-18)
(4.37212 -5.30673 -4.2921e-18)
(2.79349 -5.15242 -1.20935e-23)
(0.897607 -3.38165 5.99985e-18)
(0.0105967 0.0589684 0)
(0.932834 3.51647 -5.9465e-18)
(2.82641 5.21329 -1.18184e-23)
(4.37901 5.31537 4.13571e-18)
(5.28101 4.7864 1.73203e-18)
(5.89412 4.27364 -9.67016e-20)
(6.45166 3.90245 -1.09745e-18)
(6.91903 3.58833 1.95439e-18)
(7.28441 3.30054 -2.42348e-18)
(7.5548 3.03103 -5.24274e-18)
(7.74908 2.78003 2.74188e-18)
(7.89454 2.55105 -5.18925e-24)
(8.00718 2.34314 -4.18692e-23)
(8.10122 2.15544 0)
(8.17491 1.98318 -2.70072e-24)
(8.23687 1.82549 2.61306e-24)
(8.2851 1.67933 -2.71663e-18)
(8.32229 1.54344 2.66081e-18)
(8.35443 1.41737 -2.60028e-18)
(8.37489 1.29867 -2.41647e-24)
(8.39094 1.18761 0)
(8.39884 1.08272 -2.40881e-18)
(8.40479 0.984191 2.34444e-18)
(8.40564 0.890985 1.08372e-24)
(8.40553 0.803048 -1.06101e-24)
(8.40187 0.719637 0)
(8.39658 0.640582 -2.09504e-18)
(8.38937 0.565484 -2.03604e-18)
(8.38072 0.494138 0)
(8.36988 0.426224 9.61323e-19)
(8.35767 0.36158 -9.3425e-19)
(8.34403 0.30002 0)
(8.32799 0.241355 8.82389e-19)
(8.311 0.185478 4.28773e-19)
(8.29194 0.132245 2.98941e-25)
(8.27192 0.0815444 2.02546e-19)
(8.24939 0.0332775 -4.73974e-26)
(8.22789 -0.0126593 4.78601e-20)
(8.21062 -0.0564136 -1.8615e-19)
(8.19504 -0.0981204 -1.81026e-19)
(8.17769 -0.137839 -3.52133e-19)
(8.15997 -0.175663 3.42539e-19)
(8.14169 -0.211668 1.60781e-25)
(8.12518 -0.246001 2.00605e-24)
(8.10863 -0.278702 6.31244e-19)
(8.09359 -0.309895 0)
(8.07868 -0.339612 0)
(8.06483 -0.367957 0)
(8.05093 -0.394966 2.66983e-25)
(8.03756 -0.420718 -2.67295e-25)
(8.02505 -0.445299 0)
(8.01307 -0.468768 0)
(8.00185 -0.491175 -1.02323e-18)
(7.99139 -0.512605 7.32827e-24)
(7.98137 -0.53309 -9.72653e-19)
(7.9717 -0.55267 -9.48583e-19)
(7.96256 -0.571408 -1.85053e-18)
(7.95406 -0.589368 9.02669e-19)
(7.94588 -0.606579 -4.13154e-25)
(7.93793 -0.623082 -8.59486e-19)
(7.93042 -0.638923 0)
(7.92346 -0.654162 8.18681e-19)
(7.91653 -0.6688 0)
(7.91006 -0.682904 -1.55999e-18)
(7.90377 -0.696483 3.6969e-25)
(7.89822 -0.709629 7.43064e-19)
(7.89217 -0.722258 7.2513e-19)
(7.88717 -0.734553 -6.74705e-25)
(7.88093 -0.746306 3.35685e-25)
(7.87698 -0.757895 6.72786e-19)
(7.87195 -0.769012 6.55594e-19)
(7.86691 -0.779794 -3.11161e-25)
(7.862 -0.79025 -1.24243e-18)
(7.85791 -0.800498 -6.03884e-19)
(7.85369 -0.810446 5.8635e-19)
(7.84914 -0.820085 5.68505e-19)
(7.84526 -0.82953 -5.50281e-19)
(7.84097 -0.838688 1.06318e-18)
(7.8373 -0.847679 2.36775e-25)
(7.83357 -0.856438 -2.42328e-25)
(7.83005 -0.865002 0)
(7.82668 -0.873369 0)
(7.8237 -0.881578 0)
(7.8206 -0.889575 -2.01912e-19)
(7.8175 -0.897373 -9.89417e-24)
(7.81438 -0.90497 -1.59021e-25)
(7.81174 -0.912437 1.63685e-25)
(7.8093 -0.919747 2.94649e-19)
(7.80637 -0.926811 1.3148e-19)
(7.80469 -0.933846 -1.14574e-19)
(7.80224 -0.940585 -2.08858e-26)
(7.80055 -0.947246 7.70842e-20)
(7.79839 -0.953658 5.62823e-20)
(7.79669 -0.959956 4.37455e-26)
(7.79527 -0.966098 0)
(7.7936 -0.972024 0)
(7.7921 -0.977787 0)
(7.79093 -0.983403 -8.34839e-24)
(7.79001 -0.988869 1.08027e-19)
(7.7893 -0.994174 9.32817e-24)
(7.78883 -0.999328 -1.59074e-25)
(7.78862 -1.00434 0)
(7.78882 -1.00922 -2.7645e-25)
(7.78876 -1.01388 -8.04408e-20)
(7.78961 -1.01849 3.78704e-25)
(7.78994 -1.02285 -1.09186e-19)
(7.79098 -1.02712 0)
(7.79241 -1.03127 -6.86737e-24)
(7.79422 -1.0353 0)
(7.79643 -1.03921 0)
(7.799 -1.04301 0)
(7.80208 -1.04672 0)
(7.80575 -1.05034 0)
(7.81023 -1.05392 1.47026e-19)
(7.81489 -1.05739 1.6417e-19)
(7.82029 -1.06082 -6.83178e-26)
(7.82645 -1.06419 1.51901e-24)
(7.83386 -1.06754 -3.0818e-24)
(7.84249 -1.07093 -1.25632e-19)
(7.85231 -1.07452 -1.3924e-19)
(7.86223 -1.07814 -1.54171e-19)
(7.87317 -1.08167 -1.70573e-19)
(7.88632 -1.08489 0)
(7.90429 -1.08825 1.03971e-19)
(7.92636 -1.09248 -3.54006e-24)
(7.94821 -1.09807 1.25561e-19)
(7.96543 -1.10427 1.13367e-25)
(7.97758 -1.10975 1.51342e-19)
(7.99694 -1.11243 -8.32062e-20)
(8.03843 -1.11419 5.60936e-24)
(8.11086 -1.11692 -1.2047e-23)
(8.21553 -1.12586 1.29313e-23)
(8.31652 -1.14525 2.2545e-19)
(8.38386 -1.17056 -8.86999e-24)
(8.41435 -1.19944 -6.36935e-20)
(8.3906 -1.22553 -6.83279e-20)
(8.37764 -1.23526 7.43971e-20)
(8.50312 -1.23771 1.60667e-19)
(8.84901 -1.24699 8.40554e-20)
(9.49149 -1.27415 -4.16881e-20)
(10.7429 -1.35522 -3.75129e-20)
(12.9513 -1.69018 -2.45707e-20)
(14.231 -2.68931 8.03887e-23)
(11.6864 -3.55151 1.94319e-20)
(4.31763 -1.94239 2.97889e-22)
(-3.37884 2.63265 1.32332e-22)
(-3.79649 4.11356 -1.11321e-22)
(-2.92451 5.14605 0)
(-2.71734 9.38482 0)
(-0.567223 5.97557 4.89937e-20)
(-0.869542 -6.4077 2.48651e-20)
(-3.43334 -11.8112 6.99408e-23)
(-4.05063 -7.1924 0)
(-5.02382 -5.48706 -4.68313e-19)
(-3.42499 -2.85592 -3.98623e-19)
(7.47854 3.29796 0)
(16.7278 5.01954 -2.46458e-20)
(19.5159 3.68423 2.79937e-21)
(17.7884 2.34712 -2.60116e-20)
(15.0755 1.9231 -1.59608e-23)
(13.5206 1.82573 -4.57654e-20)
(12.7119 1.79654 -9.30821e-20)
(12.2813 1.78992 8.94808e-20)
(12.1289 1.78888 -1.6237e-24)
(12.1445 1.7737 0)
(12.1671 1.73454 7.1706e-20)
(12.1175 1.6924 -6.74702e-20)
(12.0184 1.65581 1.27427e-19)
(11.8766 1.62846 -1.20314e-19)
(11.7332 1.61646 1.35971e-23)
(11.6333 1.61292 -2.5243e-25)
(11.5745 1.61037 -9.47777e-20)
(11.5442 1.60609 1.72669e-19)
(11.5228 1.59761 0)
(11.4947 1.58822 0)
(11.4609 1.57982 0)
(11.427 1.57342 -1.19296e-19)
(11.3993 1.56831 6.50057e-24)
(11.3775 1.56323 -6.09711e-24)
(11.3597 1.55786 5.32205e-24)
(11.3425 1.55222 1.606e-19)
(11.3266 1.5468 0)
(11.312 1.54161 -2.61857e-19)
(11.2995 1.53652 2.35941e-19)
(11.2885 1.53137 3.31903e-24)
(11.279 1.52618 0)
(11.2699 1.52084 0)
(11.2623 1.51553 0)
(11.2548 1.51 0)
(11.2488 1.50445 -1.8078e-24)
(11.2435 1.49875 3.31947e-24)
(11.2387 1.49289 1.92678e-19)
(11.2347 1.4869 8.53358e-24)
(11.2313 1.48072 0)
(11.2289 1.47446 -1.30831e-19)
(11.2264 1.4679 0)
(11.2249 1.46123 -9.79518e-20)
(11.223 1.45425 -1.67151e-19)
(11.2224 1.44717 1.40767e-19)
(11.2217 1.43982 0)
(11.2215 1.43229 9.43011e-20)
(11.2217 1.42454 7.38373e-20)
(11.2228 1.41664 -5.49692e-20)
(11.224 1.40848 0)
(11.2255 1.4001 2.14859e-20)
(11.2269 1.39144 -6.60608e-21)
(11.2291 1.38261 -1.43745e-20)
(11.232 1.3736 4.00231e-20)
(11.2333 1.36414 6.38798e-20)
(11.2355 1.35453 1.4067e-25)
(11.2381 1.3447 -1.47496e-23)
(11.2406 1.33458 1.26433e-19)
(11.244 1.32431 1.44728e-19)
(11.2476 1.3138 -2.88125e-25)
(11.2514 1.30305 -1.78232e-19)
(11.2553 1.29204 3.87338e-19)
(11.2593 1.28076 0)
(11.2633 1.26919 -2.2227e-19)
(11.2676 1.25738 0)
(11.2717 1.24525 -4.96793e-19)
(11.2764 1.23288 -2.03302e-23)
(11.2807 1.22016 -2.51346e-25)
(11.2863 1.20725 5.68131e-19)
(11.2929 1.1941 -5.90451e-19)
(11.2973 1.18039 6.12212e-19)
(11.3022 1.16635 6.335e-19)
(11.3093 1.15213 -1.66945e-23)
(11.315 1.13736 -6.74965e-19)
(11.3221 1.12231 0)
(11.3274 1.10661 7.15497e-19)
(11.3356 1.0907 7.35591e-19)
(11.3413 1.07403 0)
(11.3504 1.05712 0)
(11.3562 1.03931 1.59265e-18)
(11.3666 1.02128 8.16986e-19)
(11.3701 1.00196 -8.37908e-19)