/*--------------------------------*- C++ -*----------------------------------*\
| =========                 |                                                 |
| \\      /  F ield         | OpenFOAM: The Open Source CFD Toolbox           |
|  \\    /   O peration     | Version:  2412                                  |
|   \\  /    A nd           | Website:  www.openfoam.com                      |
|    \\/     M anipulation  |                                                 |
\*---------------------------------------------------------------------------*/
FoamFile
{
    version     2.0;
    format      ascii;
    arch        "LSB;label=32;scalar=64";
    class       volVectorField;
    location    "340";
    object      U;
}
// * * * * * * * * * * * * * * * * * * * * * * * * * * * * * * * * * * * * * //

dimensions      [0 1 -1 0 0 0 0];

internalField   nonuniform List<vector> 
8659
(
(0.266016 -0.191522 3.30706e-25)
(0.219268 -0.175954 0)
(0.1517 -0.138688 1.38668e-24)
(0.054679 -0.0587573 -1.46017e-18)
(-0.0757086 0.101746 -2.78983e-24)
(-0.207825 0.381377 -2.27435e-18)
(-0.291796 0.906019 4.85861e-19)
(-0.119431 1.50644 1.23605e-19)
(0.326409 1.85086 -3.52263e-24)
(0.817661 1.78983 2.19918e-18)
(1.08759 1.39526 0)
(1.08936 0.957583 -1.69129e-23)
(0.96893 0.63426 -4.85616e-18)
(0.843529 0.431965 1.82189e-24)
(0.747946 0.308857 -7.95438e-18)
(0.678827 0.230342 3.60401e-18)
(0.625867 0.176514 0)
(0.584545 0.137833 1.42061e-25)
(0.551055 0.108781 1.26908e-24)
(0.522476 0.0861113 -1.23047e-24)
(0.497539 0.0679821 0)
(0.475566 0.0532018 1.07379e-18)
(0.456051 0.0409836 -4.99115e-19)
(0.438672 0.0307334 3.73709e-26)
(0.423167 0.0220444 8.70501e-19)
(0.409398 0.0146015 1.98533e-25)
(0.397182 0.00815361 1.91763e-19)
(0.386347 0.00251477 -4.51548e-20)
(0.376821 -0.00247609 4.2617e-20)
(0.368452 -0.00692859 -1.61192e-19)
(0.361199 -0.0109354 -3.05364e-19)
(0.354942 -0.0145988 2.89727e-19)
(0.349532 -0.0179578 4.13493e-27)
(0.344939 -0.0210801 1.26904e-25)
(0.34104 -0.0239983 -2.53405e-25)
(0.33779 -0.0267456 4.76213e-19)
(0.335113 -0.0293589 4.54838e-19)
(0.332968 -0.0318534 -4.34886e-19)
(0.331332 -0.0342519 -8.32509e-19)
(0.33007 -0.0365676 -7.97608e-19)
(0.329124 -0.0387995 -7.64869e-19)
(0.328462 -0.0409671 -7.3413e-19)
(0.328062 -0.0430706 0)
(0.327898 -0.0451233 -6.7796e-19)
(0.327953 -0.0471282 -6.22213e-25)
(0.328178 -0.0490866 3.03678e-25)
(0.328485 -0.0509905 0)
(0.328826 -0.0528361 1.1665e-18)
(0.329203 -0.0546279 1.12527e-18)
(0.329612 -0.0563689 0)
(0.33005 -0.0580577 1.04901e-18)
(0.330506 -0.0596992 0)
(0.33097 -0.0612922 0)
(0.331464 -0.0628393 9.48084e-19)
(0.331969 -0.064344 9.17573e-19)
(0.332426 -0.0657935 8.88458e-19)
(0.332827 -0.0671859 -2.02342e-25)
(0.333171 -0.0685251 8.34115e-19)
(0.33347 -0.0698123 0)
(0.333733 -0.0710505 0)
(0.333978 -0.0722455 0)
(0.334201 -0.0733957 -7.38815e-19)
(0.33441 -0.0745056 1.73565e-25)
(0.334614 -0.0755787 6.96857e-19)
(0.334828 -0.0766194 1.63845e-25)
(0.33506 -0.0776284 0)
(0.335286 -0.0786048 0)
(0.335485 -0.0795452 -6.2223e-19)
(0.335664 -0.0804468 -1.21047e-18)
(0.335818 -0.081317 -1.42588e-25)
(0.335948 -0.0821513 0)
(0.33607 -0.0829566 0)
(0.33618 -0.0837354 2.71432e-26)
(0.336284 -0.0844842 0)
(0.336384 -0.0852106 5.15027e-19)
(0.336475 -0.0859114 5.01662e-19)
(0.336563 -0.0865898 -4.88703e-19)
(0.336652 -0.0872478 2.30886e-25)
(0.336746 -0.0878875 2.17466e-25)
(0.336852 -0.0885112 -4.52053e-19)
(0.336967 -0.0891203 8.80987e-19)
(0.337078 -0.0897111 2.01038e-25)
(0.337183 -0.0902837 -7.23507e-27)
(0.337281 -0.0908393 -1.97868e-25)
(0.33737 -0.0913787 3.9684e-19)
(0.337447 -0.0919 -3.8649e-19)
(0.818715 -0.589355 4.01371e-18)
(0.673785 -0.540542 0)
(0.465678 -0.425514 4.06874e-25)
(0.168979 -0.181257 4.62247e-24)
(-0.226665 0.304904 2.34353e-18)
(-0.624469 1.14572 3.77033e-18)
(-0.875309 2.71219 -4.01662e-19)
(-0.359088 4.51364 -4.10374e-19)
(0.984477 5.57866 3.86772e-25)
(2.491 5.44573 0)
(3.36157 4.30914 -1.6848e-23)
(3.41828 3.0046 -4.82731e-23)
(3.07035 2.01053 8.04864e-18)
(2.6839 1.37494 -7.30398e-18)
(2.38237 0.984121 4.60045e-24)
(2.16207 0.733879 5.98116e-18)
(1.99281 0.562197 0)
(1.86007 0.438711 -3.85578e-24)
(1.75208 0.345971 6.55899e-24)
(1.65991 0.273653 2.08492e-18)
(1.57946 0.21586 -1.79372e-24)
(1.50854 0.168818 7.88205e-26)
(1.4455 0.12993 8.29053e-19)
(1.38928 0.0973735 7.73157e-19)
(1.33906 0.0697892 -1.44615e-18)
(1.29434 0.0461913 3.38988e-19)
(1.25456 0.0257759 -3.18616e-19)
(1.21915 0.00794427 7.50289e-20)
(1.18789 -0.00778093 -7.08161e-20)
(1.16031 -0.0217977 2.67867e-19)
(1.13627 -0.0343981 2.53737e-19)
(1.11539 -0.0458635 -9.63013e-19)
(1.09722 -0.056369 6.51443e-25)
(1.08167 -0.0660951 8.7077e-19)
(1.06838 -0.0751711 -8.29709e-19)
(1.05718 -0.0837061 7.91555e-19)
(1.04786 -0.0917965 -7.56051e-19)
(1.04028 -0.0995123 7.22915e-19)
(1.03436 -0.10693 1.90316e-26)
(1.0297 -0.114073 6.41528e-25)
(1.02611 -0.120965 1.27157e-18)
(1.02348 -0.127647 -1.64028e-26)
(1.02174 -0.134143 -1.17245e-18)
(1.02079 -0.140475 1.12718e-18)
(1.0206 -0.146664 1.08446e-18)
(1.02099 -0.152712 1.38285e-26)
(1.0217 -0.158597 1.33026e-26)
(1.02256 -0.164308 9.25117e-25)
(1.02358 -0.169854 1.87111e-18)
(1.02473 -0.175243 0)
(1.026 -0.180482 -1.74436e-18)
(1.02735 -0.185572 8.0397e-25)
(1.02877 -0.190514 -1.62982e-18)
(1.03028 -0.195324 0)
(1.03184 -0.199997 0)
(1.03327 -0.204504 -1.47751e-18)
(1.03453 -0.208837 -1.36527e-24)
(1.03562 -0.213002 6.70958e-25)
(1.03658 -0.217008 -1.34495e-18)
(1.03742 -0.220864 -6.13258e-25)
(1.03821 -0.224583 6.12401e-25)
(1.03893 -0.228168 -5.58621e-25)
(1.03961 -0.231622 1.19315e-18)
(1.04027 -0.234963 1.159e-18)
(1.04096 -0.238204 -5.29128e-25)
(1.04171 -0.24135 1.556e-26)
(1.04243 -0.24439 5.15153e-25)
(1.04308 -0.247318 0)
(1.04366 -0.250132 2.42398e-27)
(1.04416 -0.252837 0)
(1.04459 -0.255439 0)
(1.04498 -0.257948 9.27864e-19)
(1.04534 -0.260369 4.43862e-25)
(1.04568 -0.262707 -8.7961e-19)
(1.04601 -0.264967 8.56682e-19)
(1.04631 -0.267151 0)
(1.04659 -0.269264 -3.8122e-25)
(1.04688 -0.271314 7.91992e-19)
(1.04719 -0.273308 0)
(1.04755 -0.275253 7.5196e-19)
(1.04792 -0.277152 -7.32737e-19)
(1.0483 -0.278996 -7.14001e-19)
(1.04865 -0.280785 -6.95667e-19)
(1.04897 -0.282517 3.17223e-25)
(1.04927 -0.2842 -6.60148e-19)
(1.04952 -0.285828 6.42935e-19)
(1.42005 -1.02205 3.70122e-26)
(1.16601 -0.935132 2.46511e-18)
(0.803425 -0.733623 5.28143e-18)
(0.290059 -0.310252 0)
(-0.389289 0.525002 -2.64592e-18)
(-1.06664 1.95876 -2.12652e-18)
(-1.48793 4.60994 -4.52342e-19)
(-0.611451 7.66926 2.30669e-19)
(1.68234 9.52684 0)
(4.29458 9.38157 -1.73537e-23)
(5.87517 7.53016 -2.17329e-24)
(6.06269 5.33033 -1.94249e-17)
(5.4985 3.60187 1.67173e-23)
(4.82574 2.47307 -9.93161e-25)
(4.28819 1.77193 -3.20926e-24)
(3.89171 1.32134 -6.73723e-18)
(3.58632 1.01199 6.03179e-24)
(3.34589 0.789337 2.79218e-18)
(3.14969 0.622094 -2.55745e-18)
(2.98216 0.491755 -2.35251e-18)
(2.83586 0.387656 0)
(2.70672 0.302984 -2.01331e-18)
(2.59177 0.233033 0)
(2.48904 0.17451 0)
(2.397 0.124977 8.16673e-19)
(2.31478 0.0826571 -3.82922e-19)
(2.24133 0.0460867 1.68604e-25)
(2.17567 0.0142113 -8.47743e-20)
(2.11738 -0.0138399 8.00229e-20)
(2.06567 -0.0387784 -3.02722e-19)
(2.02023 -0.0611386 0)
(1.98047 -0.0814163 5.44256e-19)
(1.94562 -0.0999396 0)
(1.91551 -0.117032 -8.48815e-26)
(1.88952 -0.132934 -9.38055e-19)
(1.86738 -0.147848 -7.92284e-26)
(1.8487 -0.161946 8.03611e-25)
(1.83329 -0.175363 -8.17478e-19)
(1.82097 -0.188245 -7.35788e-25)
(1.81105 -0.200626 1.49955e-18)
(1.80321 -0.212572 6.95717e-25)
(1.79724 -0.224147 6.49182e-25)
(1.79301 -0.235402 1.32615e-18)
(1.79033 -0.246372 -1.27499e-18)
(1.78912 -0.257105 -1.22673e-18)
(1.7891 -0.267597 0)
(1.78976 -0.27782 0)
(1.7908 -0.287749 0)
(1.79222 -0.297404 -2.11684e-18)
(1.79397 -0.306795 0)
(1.79601 -0.315934 0)
(1.79826 -0.324821 -1.9072e-18)
(1.80067 -0.333461 2.11594e-27)
(1.80331 -0.341878 1.78389e-18)
(1.80605 -0.35006 0)
(1.80862 -0.357959 1.67182e-18)
(1.81089 -0.365559 0)
(1.81288 -0.372866 -1.56965e-18)
(1.81465 -0.379899 1.5219e-18)
(1.81623 -0.386669 -2.0167e-26)
(1.81771 -0.393202 -1.43242e-18)
(1.81907 -0.399499 1.3905e-18)
(1.82034 -0.40557 -1.35021e-18)
(1.82159 -0.411439 -1.31159e-18)
(1.8229 -0.417135 -1.27439e-18)
(1.8243 -0.422668 1.23873e-18)
(1.82565 -0.428011 1.20433e-18)
(1.82688 -0.433157 0)
(1.82796 -0.438106 6.05209e-25)
(1.82891 -0.44286 1.10853e-18)
(1.82973 -0.447437 0)
(1.83047 -0.451846 -4.82831e-26)
(1.83117 -0.4561 1.02234e-18)
(1.83183 -0.460212 9.95511e-19)
(1.83244 -0.464182 -9.69567e-19)
(1.83303 -0.468023 -4.57794e-25)
(1.83359 -0.47174 0)
(1.83414 -0.475344 -8.96368e-19)
(1.83475 -0.478851 -8.73409e-19)
(1.83543 -0.482279 3.98847e-25)
(1.83615 -0.485621 -4.02428e-25)
(1.83687 -0.488869 8.08116e-19)
(1.83754 -0.492019 7.87365e-19)
(1.83817 -0.495072 3.59038e-25)
(1.83875 -0.498034 -3.62997e-25)
(1.83925 -0.500901 -2.44042e-26)
(2.06347 -1.48485 -2.55976e-18)
(1.68863 -1.35378 -5.56717e-18)
(1.15703 -1.05566 -1.63063e-23)
(0.410277 -0.437282 -3.09077e-18)
(-0.569405 0.7703 -1.17956e-23)
(-1.53592 2.82503 -2.39549e-18)
(-2.1242 6.58842 1.01613e-18)
(-0.870372 10.9399 -5.15643e-19)
(2.4124 13.6496 1.455e-23)
(6.21007 13.562 4.49474e-18)
(8.62327 11.0527 1.06133e-17)
(9.04739 7.95659 1.06533e-17)
(8.3001 5.43909 -5.71961e-23)
(7.32179 3.75359 1.79336e-23)
(6.51662 2.69359 8.27811e-18)
(5.91591 2.00916 0)
(5.45164 1.53873 0)
(5.08465 1.19983 0)
(4.78428 0.945153 2.87139e-18)
(4.52757 0.746767 5.1815e-24)
(4.30316 0.588394 0)
(4.10473 0.459594 2.26516e-18)
(3.92766 0.35326 4.02483e-24)
(3.76893 0.264335 -3.75527e-24)
(3.62618 0.189146 2.65275e-24)
(3.49802 0.124974 -8.39796e-25)
(3.38291 0.0696248 -4.05782e-19)
(3.27939 0.0214744 9.55939e-20)
(3.18683 -0.0207849 -9.02593e-20)
(3.10407 -0.0582378 3.41526e-19)
(3.03068 -0.0916816 0)
(2.96583 -0.121895 0)
(2.90845 -0.149365 5.8385e-19)
(2.85829 -0.174612 -1.11143e-18)
(2.8145 -0.197994 -8.32878e-25)
(2.77669 -0.219822 -1.01077e-18)
(2.74434 -0.240389 -9.07704e-25)
(2.71717 -0.259901 9.23483e-19)
(2.69489 -0.278577 -8.31299e-25)
(2.67657 -0.296501 -3.38877e-18)
(2.66169 -0.313769 1.62514e-18)
(2.64996 -0.330493 0)
(2.64114 -0.346748 0)
(2.63497 -0.362604 0)
(2.63129 -0.378125 1.30441e-24)
(2.62964 -0.393319 -1.29138e-24)
(2.62929 -0.408141 1.28651e-18)
(2.62979 -0.422559 -2.48077e-18)
(2.63107 -0.436604 1.1257e-24)
(2.63303 -0.450289 -1.11718e-24)
(2.63559 -0.463624 1.04953e-24)
(2.63862 -0.476616 -9.28258e-25)
(2.64201 -0.48927 2.08514e-18)
(2.64583 -0.501609 -2.01716e-18)
(2.64991 -0.513622 1.95234e-18)
(2.65379 -0.525235 -3.781e-18)
(2.65729 -0.536419 1.83144e-18)
(2.6604 -0.547182 3.55004e-18)
(2.66321 -0.557548 0)
(2.66576 -0.567532 0)
(2.66816 -0.577171 1.61989e-18)
(2.6704 -0.586464 0)
(2.67248 -0.595427 7.17612e-25)
(2.67452 -0.604093 -1.48328e-18)
(2.67667 -0.612505 2.88245e-18)
(2.67894 -0.620676 -1.40091e-18)
(2.68113 -0.628572 -1.36202e-18)
(2.68312 -0.636177 -6.41285e-25)
(2.68489 -0.643484 -1.17266e-24)
(2.68646 -0.650512 -1.2537e-18)
(2.68783 -0.657273 -1.2201e-18)
(2.68907 -0.663786 -1.18764e-18)
(2.69023 -0.670074 3.51078e-26)
(2.69133 -0.676146 1.09115e-24)
(2.69236 -0.682012 0)
(2.69335 -0.687686 1.06813e-18)
(2.69429 -0.693182 0)
(2.69523 -0.698507 0)
(2.69625 -0.703697 9.87823e-19)
(2.69739 -0.70877 -9.62558e-19)
(2.6986 -0.713721 -9.37956e-19)
(2.6998 -0.718532 -1.7434e-24)
(2.70092 -0.723196 8.64719e-25)
(2.70196 -0.727716 -8.67521e-19)
(2.70293 -0.732104 -8.21089e-25)
(2.70378 -0.736348 -8.13711e-25)
(2.74035 -1.97146 2.88828e-18)
(2.23241 -1.78897 3.14149e-18)
(1.51702 -1.38277 -3.36554e-18)
(0.521142 -0.552881 3.48792e-18)
(-0.772477 1.0487 -1.32979e-23)
(-2.03237 3.74567 1.02229e-22)
(-2.77613 8.62569 -1.13618e-18)
(-1.13078 14.2682 5.71294e-19)
(3.15994 17.8613 -1.59246e-23)
(8.19351 17.8907 -4.83854e-18)
(11.546 14.8006 -1.12195e-17)
(12.3315 10.8479 1.11856e-17)
(11.4716 7.52019 -4.10649e-23)
(10.1941 5.22806 9.79119e-18)
(9.10078 3.76298 0)
(8.27169 2.81006 -8.24953e-18)
(7.62698 2.15331 0)
(7.11463 1.67926 3.46153e-18)
(6.69365 1.32269 0)
(6.33324 1.04486 -5.46687e-24)
(6.01761 0.823041 5.32118e-24)
(5.73779 0.642638 0)
(5.48731 0.493695 1.17622e-18)
(5.26186 0.369192 0)
(5.05812 0.263962 -1.02929e-18)
(4.87412 0.174244 4.8322e-19)
(4.70777 0.0969894 3.09393e-25)
(4.55709 0.0299259 0)
(4.4212 -0.0287589 -1.01295e-19)
(4.29863 -0.0805786 -7.67041e-19)
(4.18878 -0.126661 6.82558e-25)
(4.09062 -0.16807 -6.69551e-25)
(4.00279 -0.205528 -1.31335e-18)
(3.92504 -0.239739 -1.25061e-18)
(3.8563 -0.271246 1.1924e-18)
(3.79611 -0.300501 1.06979e-24)
(3.74383 -0.327914 1.08779e-18)
(3.69909 -0.353801 0)
(3.66156 -0.378487 -1.99312e-18)
(3.63002 -0.402107 -1.37151e-24)
(3.6038 -0.424817 -1.83281e-18)
(3.58248 -0.446784 -1.75985e-18)
(3.56572 -0.468127 -1.59065e-24)
(3.55315 -0.488955 -1.62628e-18)
(3.54452 -0.509357 0)
(3.53919 -0.52936 -1.41777e-24)
(3.53614 -0.548908 -1.45236e-18)
(3.53472 -0.567967 2.80085e-18)
(3.53479 -0.58657 -2.70232e-18)
(3.53617 -0.604741 -2.60878e-18)
(3.53869 -0.622488 1.18518e-24)
(3.54213 -0.639822 4.87063e-18)
(3.54631 -0.656738 2.3548e-18)
(3.55127 -0.67327 -2.27808e-18)
(3.55675 -0.689395 1.76189e-24)
(3.56211 -0.705012 2.13509e-18)
(3.56707 -0.720076 -2.06841e-18)
(3.57158 -0.734594 -4.00938e-18)
(3.57574 -0.748591 1.94374e-18)
(3.57957 -0.762083 0)
(3.58322 -0.775116 -1.8295e-18)
(3.58664 -0.787691 0)
(3.58986 -0.799821 0)
(3.59301 -0.811554 -1.33904e-24)
(3.59629 -0.822945 -3.25541e-18)
(3.59974 -0.834014 0)
(3.60306 -0.844716 0)
(3.6061 -0.85502 -1.40521e-24)
(3.60882 -0.864923 1.45515e-18)
(3.61124 -0.874445 0)
(3.61338 -0.883607 1.37794e-18)
(3.61533 -0.892431 0)
(3.61715 -0.900949 0)
(3.61888 -0.909177 -1.27154e-18)
(3.62051 -0.917127 -1.23841e-18)
(3.62207 -0.924818 -1.64305e-25)
(3.62358 -0.932268 -1.10218e-24)
(3.62508 -0.939493 1.11039e-24)
(3.6267 -0.946536 0)
(3.62848 -0.953425 1.50657e-25)
(3.63036 -0.960152 1.05924e-18)
(3.63222 -0.966693 1.03214e-18)
(3.63397 -0.973033 1.00564e-18)
(3.6356 -0.979175 1.95935e-18)
(3.63713 -0.985137 -9.54272e-19)
(3.63847 -0.990905 -9.29384e-19)
(3.43981 -2.47399 -6.51143e-18)
(2.78611 -2.23154 3.5427e-18)
(1.87239 -1.70467 0)
(0.613556 -0.646879 0)
(-1.00312 1.36698 3.7889e-18)
(-2.55362 4.71752 9.04341e-23)
(-3.43218 10.688 -5.05073e-23)
(-1.38593 17.5755 -1.66225e-22)
(3.90459 22.0439 1.71393e-23)
(10.1751 22.2142 2.75007e-23)
(14.5122 18.6057 -3.8845e-23)
(15.7514 13.8609 -1.38317e-21)
(14.8816 9.75968 0)
(13.367 6.85816 -9.84506e-18)
(12.0049 4.96566 -3.42257e-23)
(10.9464 3.71995 8.6277e-18)
(10.1134 2.85615 1.48158e-23)
(9.44529 2.23001 -7.3953e-18)
(8.89285 1.75776 -1.34445e-23)
(8.41809 1.38923 1.18245e-23)
(8.00087 1.09463 -1.15612e-23)
(7.62955 0.854797 2.75362e-18)
(7.29572 0.656651 -1.28681e-18)
(6.9937 0.490912 1.20561e-18)
(6.71917 0.350833 1.13214e-18)
(6.46953 0.231449 -2.86117e-24)
(6.24212 0.128746 5.02368e-19)
(6.03443 0.0397603 1.18658e-19)
(5.84537 -0.0379063 5.38104e-25)
(5.67313 -0.106238 -8.21093e-25)
(5.517 -0.166724 4.04359e-19)
(5.37581 -0.220788 0)
(5.24798 -0.269391 1.46437e-18)
(5.13328 -0.313472 1.39606e-18)
(5.03055 -0.353781 1.33252e-18)
(4.93929 -0.390941 -1.27328e-18)
(4.85878 -0.425527 -2.43593e-18)
(4.78867 -0.457977 4.45042e-24)
(4.72858 -0.488751 2.23529e-18)
(4.67707 -0.518065 2.14411e-18)
(4.63335 -0.546157 -1.99149e-24)
(4.59688 -0.573277 1.97753e-18)
(4.5672 -0.599595 -1.90126e-18)
(4.54385 -0.625272 3.65841e-18)
(4.52643 -0.650454 1.7033e-24)
(4.51411 -0.675176 0)
(4.50559 -0.699392 0)
(4.49996 -0.723061 3.15421e-18)
(4.49696 -0.746236 6.08767e-18)
(4.49628 -0.768937 8.51136e-25)
(4.49764 -0.791181 -2.83909e-18)
(4.50069 -0.812973 -5.48812e-18)
(4.50514 -0.834307 -2.65351e-18)
(4.51094 -0.855214 2.56715e-18)
(4.51771 -0.875661 -6.51612e-25)
(4.52461 -0.895515 2.40609e-18)
(4.53121 -0.914712 2.33094e-18)
(4.53741 -0.933246 2.25911e-18)
(4.54326 -0.951148 1.56364e-24)
(4.54876 -0.968425 -1.99752e-24)
(4.55405 -0.985131 6.10935e-25)
(4.55908 -1.00126 2.00119e-18)
(4.56384 -1.01683 1.94317e-18)
(4.56851 -1.03189 -1.32397e-24)
(4.57333 -1.04653 3.66796e-18)
(4.57835 -1.06075 1.78262e-18)
(4.58319 -1.07451 0)
(4.58764 -1.08775 1.68542e-18)
(4.59166 -1.10048 1.58762e-24)
(4.59526 -1.11273 1.59512e-18)
(4.59847 -1.1245 -2.96123e-24)
(4.6014 -1.13584 1.51099e-18)
(4.60416 -1.14679 -1.38072e-24)
(4.60678 -1.15737 1.43239e-18)
(4.60925 -1.16759 1.39504e-18)
(4.61162 -1.17748 -1.35883e-18)
(4.61392 -1.18706 0)
(4.61622 -1.19636 1.20933e-24)
(4.61867 -1.20543 1.25656e-18)
(4.62135 -1.21432 1.22439e-18)
(4.62416 -1.22299 -1.19305e-18)
(4.62693 -1.23143 -1.1625e-18)
(4.62955 -1.23961 -1.13261e-18)
(4.63199 -1.24754 -2.20669e-18)
(4.63427 -1.25522 3.01659e-25)
(4.6363 -1.26266 0)
(4.1487 -2.98282 3.66517e-18)
(3.33655 -2.67074 -3.99103e-18)
(2.21085 -2.00984 3.26379e-23)
(0.678283 -0.708883 -3.37947e-23)
(-1.26441 1.72991 -4.25612e-18)
(-3.09436 5.73196 3.36598e-18)
(-4.07752 12.7312 6.97175e-19)
(-1.62791 20.7714 -3.39927e-19)
(4.62478 26.0724 0)
(12.0793 26.3675 -4.38857e-23)
(17.3603 22.2609 3.73385e-23)
(19.05 16.7696 -1.0018e-17)
(18.2394 11.9674 6.90393e-23)
(16.5946 8.51823 8.96517e-18)
(15.0479 6.22707 3.41899e-23)
(13.8097 4.69484 0)
(12.8162 3.62074 0)
(12.0073 2.83583 3.69407e-18)
(11.3309 2.2404 -3.46651e-18)
(10.7451 1.77384 1.27471e-23)
(10.227 1.39968 0)
(9.7629 1.09423 -2.86756e-18)
(9.34303 0.841276 -2.26695e-25)
(8.96061 0.629295 -1.27189e-18)
(8.61047 0.449867 0)
(8.28949 0.296808 -5.67912e-19)
(7.99454 0.165115 0)
(7.72268 0.0510844 -2.55225e-19)
(7.47262 -0.0482747 2.25582e-25)
(7.24232 -0.135462 4.61508e-19)
(7.03101 -0.212331 9.87305e-25)
(6.83747 -0.280686 -1.62674e-24)
(6.66005 -0.341746 -8.01154e-19)
(6.49863 -0.396739 -1.5319e-18)
(6.35205 -0.44662 -1.46605e-18)
(6.21991 -0.492213 1.40433e-18)
(6.10154 -0.534289 1.3464e-18)
(5.99668 -0.57344 -1.29189e-18)
(5.905 -0.610286 -2.48106e-18)
(5.82496 -0.645163 0)
(5.75572 -0.678416 0)
(5.69666 -0.710394 0)
(5.64727 -0.74136 4.24624e-18)
(5.60696 -0.771544 -4.0898e-18)
(5.57524 -0.801152 0)
(5.55107 -0.830261 3.5743e-24)
(5.53286 -0.858843 -3.54462e-24)
(5.51944 -0.886868 -3.5368e-18)
(5.51037 -0.914401 -3.41462e-18)
(5.50518 -0.941473 3.29815e-18)
(5.50341 -0.968109 1.58577e-24)
(5.50455 -0.994305 6.16212e-18)
(5.50814 -1.02006 -2.97985e-18)
(5.514 -1.04539 2.71178e-24)
(5.52159 -1.07025 -5.58161e-18)
(5.52983 -1.09448 -1.08101e-17)
(5.53809 -1.11798 -2.61809e-18)
(5.54616 -1.14073 2.53735e-18)
(5.55401 -1.16276 -2.46006e-18)
(5.56156 -1.18406 2.38607e-18)
(5.56896 -1.20468 2.31511e-18)
(5.57608 -1.22462 1.10568e-24)
(5.58288 -1.24388 -2.18187e-18)
(5.58957 -1.26253 2.11926e-18)
(5.59643 -1.28065 3.13014e-24)
(5.60351 -1.29827 -8.60632e-25)
(5.61034 -1.31532 -1.94539e-18)
(5.61665 -1.33174 -8.02557e-24)
(5.62239 -1.34752 7.02013e-24)
(5.62759 -1.3627 -3.58041e-18)
(5.63225 -1.3773 3.37504e-24)
(5.63652 -1.39137 -1.69561e-18)
(5.64055 -1.40494 -1.65066e-18)
(5.64438 -1.41806 -3.0167e-24)
(5.64801 -1.43073 1.56526e-18)
(5.6515 -1.443 -1.52457e-18)
(5.65489 -1.45489 -1.4851e-18)
(5.65828 -1.46643 0)
(5.66186 -1.4777 -2.81922e-18)
(5.66574 -1.48874 -2.66519e-24)
(5.66978 -1.49954 2.67641e-18)
(5.67377 -1.51004 4.97421e-24)
(5.67755 -1.52023 -2.46697e-24)
(5.68107 -1.53009 1.23738e-18)
(5.68436 -1.53965 1.20519e-18)
(5.68731 -1.5489 1.17368e-18)
(4.85166 -3.48679 -4.12004e-18)
(3.86881 -3.09437 -4.49046e-18)
(2.5192 -2.28589 0)
(0.706562 -0.728943 4.98117e-18)
(-1.55699 2.13918 3.21996e-23)
(-3.64597 6.77442 -3.2539e-23)
(-4.6947 14.7041 -7.64786e-19)
(-1.84886 23.7681 -3.65576e-19)
(5.30311 29.8454 3.83981e-23)
(13.8518 30.2314 -3.19356e-23)
(19.9782 25.623 1.01734e-17)
(22.0355 19.4056 0)
(21.2657 13.9603 7.84963e-18)
(19.5493 10.0402 -7.47303e-18)
(17.9134 7.41648 7.31024e-18)
(16.5845 5.64062 2.82274e-23)
(15.4998 4.38065 -6.94447e-18)
(14.6013 3.44979 -3.33723e-18)
(13.8389 2.73731 3.19155e-18)
(13.1709 2.17513 0)
(12.574 1.72159 2.89794e-18)
(12.0344 1.34942 -2.75834e-18)
(11.5419 1.03979 1.31304e-18)
(11.0894 0.779253 4.87769e-24)
(10.6713 0.55794 1.1927e-18)
(10.2844 0.3686 -4.43045e-24)
(9.92531 0.205318 -5.43799e-19)
(9.59086 0.0637411 2.60057e-19)
(9.27971 -0.059681 2.48996e-19)
(8.98971 -0.167894 -4.77314e-19)
(8.72014 -0.263114 -4.57922e-19)
(8.46986 -0.347492 1.59756e-24)
(8.23729 -0.422489 -3.27707e-24)
(8.02255 -0.4896 7.17106e-26)
(7.82467 -0.550003 -1.56504e-18)
(7.64349 -0.604729 0)
(7.4786 -0.654744 0)
(7.32996 -0.700823 1.92539e-24)
(7.19748 -0.743764 3.45038e-24)
(7.07971 -0.784049 2.60504e-18)
(6.97594 -0.822162 -2.51372e-18)
(6.88559 -0.858593 -2.42619e-18)
(6.80818 -0.893706 -2.36248e-24)
(6.74313 -0.927843 -2.05543e-24)
(6.68989 -0.96129 4.22458e-24)
(6.64731 -0.994195 2.10935e-18)
(6.61354 -1.02657 2.03778e-18)
(6.58717 -1.05842 0)
(6.56758 -1.08982 0)
(6.55407 -1.12085 3.67956e-18)
(6.54602 -1.15151 2.72968e-24)
(6.54269 -1.18183 3.81768e-24)
(6.5434 -1.21178 3.32989e-18)
(6.54779 -1.24139 -3.22278e-18)
(6.55509 -1.27058 6.2402e-18)
(6.56396 -1.29917 -1.4475e-24)
(6.57354 -1.32701 0)
(6.58339 -1.35408 -5.67415e-18)
(6.59339 -1.38037 -2.75048e-18)
(6.60331 -1.40586 -5.33503e-18)
(6.61323 -1.43059 -2.58789e-18)
(6.62294 -1.45454 -2.51162e-18)
(6.63234 -1.47771 -2.43831e-18)
(6.6416 -1.50016 -9.03454e-24)
(6.65106 -1.522 2.87014e-24)
(6.66075 -1.54324 -4.47076e-18)
(6.67012 -1.56379 2.17278e-18)
(6.67881 -1.58359 -2.11261e-18)
(6.68679 -1.60264 2.05452e-18)
(6.69406 -1.62095 3.99736e-18)
(6.70063 -1.63857 0)
(6.70667 -1.65554 0)
(6.71238 -1.67191 1.84231e-18)
(6.71781 -1.68774 -3.47659e-24)
(6.72297 -1.70304 -3.49328e-18)
(6.72794 -1.71785 3.40214e-18)
(6.73277 -1.73221 1.65688e-18)
(6.73758 -1.74616 3.02696e-24)
(6.74265 -1.75979 -1.88376e-24)
(6.74807 -1.77315 0)
(6.75369 -1.78622 -1.49237e-18)
(6.75923 -1.79894 -2.82276e-24)
(6.76449 -1.81127 2.65258e-24)
(6.7694 -1.82322 1.37949e-18)
(6.77399 -1.83479 0)
(6.77814 -1.84598 -1.06758e-24)
(5.53151 -3.9733 4.62385e-18)
(4.36664 -3.48913 5.04461e-18)
(2.78398 -2.52009 4.05901e-23)
(0.690958 -0.698467 -6.88886e-23)
(-1.87837 2.59226 -3.59032e-23)
(-4.19663 7.82451 1.38766e-23)
(-5.26506 16.5533 1.66631e-18)
(-2.04188 26.4909 1.56825e-18)
(5.92899 33.3 0)
(15.4691 33.7543 -8.94503e-23)
(22.337 28.6556 -9.55952e-18)
(24.673 21.7388 9.84752e-26)
(23.8858 15.6897 -6.53926e-18)
(22.0778 11.3457 0)
(20.3754 8.44039 -5.82644e-18)
(19.0059 6.46728 -4.51241e-23)
(17.8889 5.05814 5.6131e-18)
(16.9578 4.00826 5.47327e-18)
(16.1607 3.19791 -1.97602e-23)
(15.4558 2.55358 2.01745e-23)
(14.8201 2.03006 -2.48668e-18)
(14.2403 1.59756 2.40086e-18)
(13.7063 1.23547 -2.31727e-18)
(13.2112 0.928966 0)
(12.7497 0.667157 -2.16043e-18)
(12.3184 0.441991 0)
(11.9141 0.24691 1.00964e-18)
(11.5335 0.0770612 -1.22159e-19)
(11.1752 -0.0714922 -2.36687e-19)
(10.8372 -0.20205 2.1611e-24)
(10.5188 -0.317061 3.34414e-24)
(10.2189 -0.418947 -3.3546e-24)
(9.93617 -0.509351 8.40404e-19)
(9.67092 -0.589937 1.63388e-18)
(9.42254 -0.662081 1.58876e-18)
(9.19123 -0.72696 5.98514e-24)
(8.97699 -0.785725 0)
(8.78021 -0.839299 1.46153e-18)
(8.60126 -0.888663 5.68435e-18)
(8.43906 -0.934445 -1.04575e-23)
(8.2933 -0.977293 2.68435e-18)
(8.1637 -1.01785 2.60712e-18)
(8.05005 -1.05663 -2.53095e-18)
(7.95199 -1.0941 2.45586e-18)
(7.86911 -1.13067 -2.38195e-18)
(7.80031 -1.16659 -2.30932e-18)
(7.74368 -1.20195 -2.23819e-18)
(7.69768 -1.23682 2.29246e-25)
(7.66154 -1.27133 8.12679e-24)
(7.6344 -1.30558 -4.06945e-18)
(7.61544 -1.33962 3.9411e-18)
(7.60371 -1.37348 1.00937e-23)
(7.59828 -1.40714 -1.96411e-25)
(7.59856 -1.44061 3.57989e-18)
(7.60354 -1.47381 -3.46755e-18)
(7.61156 -1.50652 7.40788e-24)
(7.62144 -1.53857 0)
(7.63252 -1.56988 3.15481e-18)
(7.64444 -1.60043 -8.35434e-24)
(7.65679 -1.63016 2.96583e-18)
(7.6695 -1.6591 2.87682e-18)
(7.68223 -1.6872 -5.24799e-24)
(7.69473 -1.71442 2.70938e-18)
(7.70712 -1.74085 1.00365e-23)
(7.71976 -1.76657 -5.10955e-18)
(7.73265 -1.7916 2.48204e-18)
(7.74513 -1.81584 2.41193e-18)
(7.75678 -1.8392 4.40464e-24)
(7.76754 -1.86168 -4.5592e-18)
(7.77741 -1.8833 -2.21717e-18)
(7.7864 -1.90409 0)
(7.79469 -1.92412 2.09876e-18)
(7.80254 -1.94346 -1.2404e-25)
(7.81001 -1.96215 -3.85382e-24)
(7.81711 -1.98021 3.87166e-18)
(7.82396 -1.99771 -3.77003e-18)
(7.83062 -2.01467 0)
(7.83725 -2.03116 0)
(7.84416 -2.04728 1.74149e-18)
(7.85148 -2.0631 -1.6963e-18)
(7.85903 -2.07857 -1.6523e-18)
(7.86648 -2.09364 0)
(7.87355 -2.10825 0)
(7.88016 -2.12239 -1.8677e-24)
(7.88635 -2.13609 0)
(7.89197 -2.14933 -1.44724e-18)
(6.16963 -4.42877 5.18054e-18)
(4.81309 -3.8411 5.65671e-18)
(2.99238 -2.7003 9.25261e-23)
(0.626407 -0.611382 -1.84648e-22)
(-2.22215 3.08146 -7.96234e-23)
(-4.73211 8.85713 1.02443e-22)
(-5.77185 18.2271 -9.02303e-19)
(-2.20265 28.8822 -4.23079e-19)
(6.4976 36.4077 8.70856e-23)
(16.929 36.9313 -6.65716e-23)
(24.463 31.3927 0)
(27.0264 23.8262 0)
(26.1799 17.2089 -5.5911e-18)
(24.2404 12.4659 -3.66841e-23)
(22.4428 9.30264 2.31322e-24)
(21.0238 7.15784 6.91213e-23)
(19.8831 5.62477 -3.4742e-23)
(18.9387 4.47855 -9.78914e-23)
(18.1319 3.58962 0)
(17.4183 2.87917 2.0427e-18)
(16.7736 2.29878 0)
(16.1837 1.81657 7.23096e-24)
(15.6385 1.41049 9.44116e-19)
(15.1309 1.06472 9.20828e-19)
(14.6553 0.767555 8.99087e-19)
(14.2083 0.510426 6.71198e-24)
(13.7866 0.286282 -4.30118e-19)
(13.3867 0.0899674 1.05377e-19)
(13.007 -0.0827245 1.03404e-19)
(12.6453 -0.235312 8.12743e-19)
(12.3007 -0.37035 -3.99695e-19)
(11.972 -0.490421 2.95594e-24)
(11.6577 -0.597224 -7.75534e-19)
(11.3583 -0.692525 -1.1673e-23)
(11.0733 -0.777744 5.84313e-24)
(10.8031 -0.854138 1.48735e-18)
(10.548 -0.922946 -1.11936e-23)
(10.3089 -0.98516 5.59595e-24)
(10.0866 -1.04188 -2.84669e-18)
(9.88072 -1.09385 -8.15125e-24)
(9.69155 -1.14186 -1.03544e-23)
(9.51943 -1.1867 2.06178e-23)
(9.36471 -1.22903 -1.02461e-23)
(9.22761 -1.26947 0)
(9.10821 -1.30859 5.06722e-18)
(9.00578 -1.34677 9.30671e-24)
(8.91875 -1.38426 -9.32967e-24)
(8.84567 -1.4212 8.83829e-24)
(8.78585 -1.45784 -2.41556e-25)
(8.73843 -1.49435 -8.5952e-24)
(8.70249 -1.53082 0)
(8.67694 -1.56733 -8.38212e-18)
(8.66067 -1.60388 0)
(8.65283 -1.64049 0)
(8.65217 -1.67708 7.19606e-24)
(8.65672 -1.7134 3.70929e-18)
(8.66497 -1.74925 -6.76369e-24)
(8.67592 -1.78451 6.74557e-24)
(8.68893 -1.81912 6.76076e-18)
(8.70328 -1.85298 0)
(8.71871 -1.88609 -3.17901e-18)
(8.73462 -1.91835 1.15956e-23)
(8.75059 -1.9497 -1.15832e-23)
(8.7666 -1.98018 -2.90428e-18)
(8.78294 -2.00988 2.81944e-18)
(8.7996 -2.03883 1.06021e-23)
(8.81575 -2.06687 -4.13205e-24)
(8.83093 -2.09391 0)
(8.84505 -2.11994 3.89058e-24)
(8.85809 -2.145 9.17425e-24)
(8.87002 -2.1691 -9.20332e-24)
(8.88108 -2.19231 -2.31049e-18)
(8.89153 -2.21472 -8.44001e-24)
(8.90151 -2.23639 8.48048e-24)
(8.91099 -2.25733 -2.12937e-18)
(8.92015 -2.27761 2.07292e-18)
(8.92903 -2.29729 7.82795e-24)
(8.93786 -2.31642 0)
(8.94698 -2.33513 0)
(8.95654 -2.35348 1.86343e-18)
(8.96634 -2.37145 1.81457e-18)
(8.97601 -2.38895 -1.767e-18)
(8.98519 -2.40592 0)
(8.9938 -2.42234 -3.01398e-24)
(9.00188 -2.43825 0)
(9.00923 -2.45363 0)
(6.74678 -4.83906 2.5673e-22)
(5.19161 -4.13662 -6.32791e-18)
(3.13363 -2.81615 1.01711e-22)
(0.51148 -0.4655 -6.9457e-18)
(-2.57774 3.59343 -8.76949e-23)
(-5.23652 9.84464 4.88133e-18)
(-6.20349 19.6842 -1.94775e-18)
(-2.32602 30.9011 -4.52371e-19)
(7.01026 39.1602 -9.48166e-23)
(18.2312 39.7668 -5.72437e-18)
(26.398 33.889 9.06002e-18)
(29.1805 25.7431 6.42701e-18)
(28.2617 18.5932 4.98517e-18)
(26.1636 13.4663 6.72162e-23)
(24.2381 10.0542 0)
(22.742 7.74772 -3.70009e-18)
(21.5592 6.10235 2.63649e-23)
(20.5917 4.87201 -1.06975e-22)
(19.7723 3.91637 -5.09585e-23)
(19.0521 3.15087 -1.61873e-18)
(18.4045 2.52366 1.23309e-23)
(17.8139 2.00073 1.14625e-23)
(17.2695 1.55862 7.50145e-19)
(16.7635 1.18051 -7.34457e-19)
(16.2902 0.853995 5.39377e-24)
(15.8456 0.569977 -5.51738e-24)
(15.426 0.320996 0)
(15.0277 0.101611 -8.62958e-20)
(14.6486 -0.0925958 8.54505e-20)
(14.286 -0.265307 -6.78389e-19)
(13.9386 -0.419165 6.74555e-19)
(13.6049 -0.556842 2.60633e-24)
(13.2829 -0.680033 0)
(12.9726 -0.790519 1.33993e-18)
(12.6732 -0.889709 -1.34004e-18)
(12.3849 -0.978817 -1.34093e-18)
(12.108 -1.05908 1.03945e-23)
(11.8433 -1.13144 1.3429e-18)
(11.5918 -1.19703 1.0102e-23)
(11.3535 -1.25659 -2.68316e-18)
(11.1294 -1.31098 1.03586e-23)
(10.9202 -1.36106 1.00275e-23)
(10.7272 -1.4076 -2.64886e-18)
(10.5512 -1.45134 2.62671e-18)
(10.3932 -1.49301 -8.19276e-24)
(10.2533 -1.53316 9.652e-24)
(10.1305 -1.5722 -9.77254e-24)
(10.0242 -1.61043 9.33991e-24)
(9.93395 -1.64825 8.90089e-24)
(9.85926 -1.68594 -1.84289e-23)
(9.79945 -1.72372 -1.75119e-23)
(9.75352 -1.76175 9.07987e-18)
(9.72033 -1.80009 0)
(9.69891 -1.8388 -1.61898e-23)
(9.68784 -1.87783 1.61848e-23)
(9.68493 -1.91692 2.46633e-23)
(9.68834 -1.95585 -1.52643e-23)
(9.69671 -1.99449 0)
(9.70903 -2.03271 -7.42703e-18)
(9.72422 -2.07037 -3.60169e-18)
(9.74169 -2.10742 3.49292e-18)
(9.76054 -2.1437 1.27378e-23)
(9.78003 -2.1791 -3.65707e-25)
(9.79991 -2.21361 6.37554e-18)
(9.82036 -2.24732 -3.09307e-18)
(9.84123 -2.2802 0)
(9.86157 -2.31209 -2.91461e-18)
(9.88082 -2.34288 0)
(9.89884 -2.37254 2.74979e-18)
(9.91561 -2.40111 -2.67228e-18)
(9.93103 -2.42859 0)
(9.94536 -2.45506 0)
(9.95891 -2.48061 -2.45636e-18)
(9.97185 -2.50532 9.26286e-24)
(9.98416 -2.5292 8.72583e-24)
(9.99603 -2.55234 2.26244e-18)
(10.0075 -2.57479 -8.54041e-24)
(10.0189 -2.59662 0)
(10.0306 -2.61796 0)
(10.0426 -2.63889 0)
(10.055 -2.6594 -1.97672e-18)
(10.0671 -2.67937 1.19716e-23)
(10.0787 -2.69874 -7.27479e-24)
(10.0895 -2.71748 -1.82291e-18)
(10.0997 -2.73564 -6.64115e-24)
(10.1091 -2.75318 1.31725e-23)
(7.24407 -5.19024 3.48976e-22)
(5.48746 -4.36344 -7.0571e-18)
(3.20061 -2.86062 -7.54218e-18)
(0.349648 -0.263933 1.17135e-22)
(-2.93065 4.10956 0)
(-5.69396 10.759 -1.05093e-17)
(-6.54669 20.8978 1.03888e-18)
(-2.40947 32.5247 -4.81578e-19)
(7.46148 41.5339 0)
(19.365 42.2315 6.27216e-18)
(28.1776 36.1899 -1.86305e-17)
(31.2067 27.5529 -5.98332e-21)
(30.2255 19.9049 -7.21126e-23)
(27.9568 14.4035 0)
(25.8795 10.7443 3.42974e-18)
(24.2811 8.27818 3.18573e-18)
(23.035 6.52436 4.74962e-23)
(22.0282 5.21503 -1.43886e-18)
(21.1841 4.19845 2.05435e-23)
(20.4486 3.38379 -4.07216e-23)
(19.7919 2.71556 2.01794e-23)