/*--------------------------------*- C++ -*----------------------------------*\
| =========                 |                                                 |
| \\      /  F ield         | OpenFOAM: The Open Source CFD Toolbox           |
|  \\    /   O peration     | Version:  2412                                  |
|   \\  /    A nd           | Website:  www.openfoam.com                      |
|    \\/     M anipulation  |                                                 |
\*---------------------------------------------------------------------------*/
FoamFile
{
    version     2.0;
    format      ascii;
    arch        "LSB;label=32;scalar=64";
    class       volScalarField;
    location    "440";
    object      nut;
}
// * * * * * * * * * * * * * * * * * * * * * * * * * * * * * * * * * * * * * //

dimensions      [0 2 -1 0 0 0 0];

internalField   nonuniform List<scalar> 
8702
(
2.12562e-12
2.13569e-12
2.14529e-12
2.15437e-12
2.16299e-12
2.17142e-12
2.1798e-12
2.18788e-12
2.19585e-12
2.20392e-12
2.21195e-12
2.21971e-12
2.2271e-12
2.23419e-12
2.24078e-12
2.24704e-12
2.25279e-12
2.2582e-12
2.26353e-12
2.26837e-12
2.27293e-12
2.27741e-12
2.28163e-12
2.28569e-12
2.28977e-12
2.29366e-12
2.29732e-12
2.30091e-12
2.30423e-12
2.30712e-12
2.30977e-12
2.31212e-12
2.31392e-12
2.31543e-12
2.31654e-12
2.317e-12
2.31724e-12
2.3171e-12
2.31651e-12
2.31556e-12
2.31409e-12
2.31215e-12
2.30964e-12
2.30654e-12
2.30309e-12
2.29907e-12
2.29447e-12
2.28918e-12
2.2833e-12
2.27671e-12
2.26944e-12
2.26173e-12
2.25338e-12
2.24444e-12
2.23495e-12
2.22503e-12
2.21452e-12
2.20348e-12
2.19211e-12
2.18064e-12
2.16889e-12
2.15683e-12
2.14489e-12
2.13324e-12
2.12213e-12
2.11136e-12
2.10111e-12
2.09106e-12
2.08145e-12
2.07395e-12
2.07016e-12
2.07021e-12
2.07093e-12
2.0698e-12
2.06495e-12
2.06057e-12
2.06777e-12
2.09225e-12
2.14253e-12
2.21138e-12
2.27277e-12
2.31148e-12
1.97274e-10
1.98249e-10
1.99178e-10
2.00063e-10
2.00907e-10
2.01725e-10
2.02527e-10
2.03314e-10
2.04088e-10
2.04863e-10
2.05631e-10
2.06375e-10
2.07088e-10
2.07768e-10
2.08403e-10
2.09005e-10
2.09563e-10
2.10085e-10
2.10587e-10
2.11057e-10
2.11506e-10
2.11937e-10
2.12352e-10
2.12751e-10
2.13149e-10
2.13531e-10
2.13893e-10
2.14247e-10
2.14574e-10
2.14865e-10
2.15129e-10
2.1536e-10
2.15548e-10
2.15697e-10
2.15814e-10
2.15884e-10
2.15919e-10
2.1592e-10
2.15881e-10
2.15805e-10
2.15682e-10
2.15512e-10
2.1529e-10
2.15019e-10
2.14707e-10
2.14335e-10
2.13909e-10
2.13422e-10
2.1288e-10
2.12281e-10
2.11618e-10
2.10898e-10
2.10118e-10
2.09287e-10
2.08403e-10
2.07468e-10
2.06481e-10
2.05454e-10
2.04394e-10
2.03313e-10
2.0221e-10
2.01084e-10
1.99962e-10
1.98865e-10
1.97815e-10
1.96806e-10
1.95841e-10
1.94891e-10
1.93994e-10
1.93288e-10
1.92909e-10
1.92874e-10
1.92918e-10
1.9282e-10
1.92402e-10
1.92018e-10
1.92653e-10
1.94832e-10
1.99297e-10
2.05426e-10
2.10973e-10
2.14568e-10
1.82843e-09
1.83809e-09
1.84731e-09
1.8561e-09
1.86448e-09
1.87257e-09
1.88046e-09
1.88823e-09
1.8959e-09
1.9035e-09
1.911e-09
1.9183e-09
1.92531e-09
1.93196e-09
1.93818e-09
1.94405e-09
1.94956e-09
1.95469e-09
1.95957e-09
1.96422e-09
1.96867e-09
1.97293e-09
1.97707e-09
1.9811e-09
1.98506e-09
1.98891e-09
1.99261e-09
1.99618e-09
1.99949e-09
2.00254e-09
2.00525e-09
2.00763e-09
2.00965e-09
2.01128e-09
2.01257e-09
2.01349e-09
2.01404e-09
2.01423e-09
2.01407e-09
2.01356e-09
2.01259e-09
2.01118e-09
2.00929e-09
2.00695e-09
2.00416e-09
2.00082e-09
1.99696e-09
1.99252e-09
1.98755e-09
1.98204e-09
1.97596e-09
1.96929e-09
1.96205e-09
1.95432e-09
1.94609e-09
1.93733e-09
1.92809e-09
1.91849e-09
1.90858e-09
1.89843e-09
1.88807e-09
1.87752e-09
1.86698e-09
1.85665e-09
1.84675e-09
1.83728e-09
1.82818e-09
1.81928e-09
1.81094e-09
1.80427e-09
1.80042e-09
1.7996e-09
1.79973e-09
1.7989e-09
1.79547e-09
1.79234e-09
1.79776e-09
1.81644e-09
1.85454e-09
1.90709e-09
1.95592e-09
1.98905e-09
8.36003e-09
8.40836e-09
8.45445e-09
8.49831e-09
8.54013e-09
8.58041e-09
8.61954e-09
8.65802e-09
8.69599e-09
8.73351e-09
8.77044e-09
8.80636e-09
8.84076e-09
8.87344e-09
8.90407e-09
8.93287e-09
8.95992e-09
8.98527e-09
9.00937e-09
9.0324e-09
9.05441e-09
9.07562e-09
9.0964e-09
9.11674e-09
9.13674e-09
9.15624e-09
9.17518e-09
9.19339e-09
9.21054e-09
9.22642e-09
9.24059e-09
9.25321e-09
9.26414e-09
9.27321e-09
9.2806e-09
9.28626e-09
9.29022e-09
9.29243e-09
9.29302e-09
9.29185e-09
9.28861e-09
9.28324e-09
9.27576e-09
9.26609e-09
9.25414e-09
9.23972e-09
9.22273e-09
9.20306e-09
9.18085e-09
9.15597e-09
9.12841e-09
9.09811e-09
9.06508e-09
9.02962e-09
8.99165e-09
8.95128e-09
8.90867e-09
8.86422e-09
8.81824e-09
8.77106e-09
8.72288e-09
8.67394e-09
8.62494e-09
8.57675e-09
8.53036e-09
8.48607e-09
8.4436e-09
8.40235e-09
8.36377e-09
8.33225e-09
8.31257e-09
8.30597e-09
8.30471e-09
8.30073e-09
8.2875e-09
8.27573e-09
8.29793e-09
8.3747e-09
8.52986e-09
8.74481e-09
8.95146e-09
9.09993e-09
2.6795e-08
2.69669e-08
2.71308e-08
2.72867e-08
2.7435e-08
2.75776e-08
2.77156e-08
2.78509e-08
2.79841e-08
2.81154e-08
2.82443e-08
2.83694e-08
2.8489e-08
2.86028e-08
2.87099e-08
2.88103e-08
2.89044e-08
2.89931e-08
2.90776e-08
2.91581e-08
2.92355e-08
2.93106e-08
2.93845e-08
2.94572e-08
2.95288e-08
2.95992e-08
2.96678e-08
2.97341e-08
2.9797e-08
2.98554e-08
2.99083e-08
2.99558e-08
2.99974e-08
3.0033e-08
3.00628e-08
3.00868e-08
3.01051e-08
3.01179e-08
3.01251e-08
3.01264e-08
3.01208e-08
3.01084e-08
3.00891e-08
3.00623e-08
3.00278e-08
2.9985e-08
2.99335e-08
2.98734e-08
2.98048e-08
2.9727e-08
2.964e-08
2.95439e-08
2.94386e-08
2.93247e-08
2.92024e-08
2.90719e-08
2.89339e-08
2.87894e-08
2.86395e-08
2.84853e-08
2.83278e-08
2.81678e-08
2.80073e-08
2.7849e-08
2.76958e-08
2.75495e-08
2.74093e-08
2.72739e-08
2.71475e-08
2.70417e-08
2.69702e-08
2.69375e-08
2.69246e-08
2.69093e-08
2.68741e-08
2.68449e-08
2.69068e-08
2.71214e-08
2.75491e-08
2.81431e-08
2.87365e-08
2.91911e-08
6.90229e-08
6.95191e-08
6.99921e-08
7.04413e-08
7.08681e-08
7.1277e-08
7.16715e-08
7.20567e-08
7.24348e-08
7.28066e-08
7.31702e-08
7.3522e-08
7.38588e-08
7.41796e-08
7.44816e-08
7.47645e-08
7.503e-08
7.52806e-08
7.55195e-08
7.57476e-08
7.59676e-08
7.61823e-08
7.63941e-08
7.66035e-08
7.68111e-08
7.7016e-08
7.72164e-08
7.74112e-08
7.75966e-08
7.77695e-08
7.79281e-08
7.80713e-08
7.81987e-08
7.83098e-08
7.8405e-08
7.84844e-08
7.85487e-08
7.85983e-08
7.86326e-08
7.86511e-08
7.86522e-08
7.86355e-08
7.86e-08
7.85445e-08
7.84684e-08
7.83696e-08
7.82482e-08
7.81036e-08
7.79355e-08
7.77426e-08
7.75245e-08
7.72813e-08
7.70127e-08
7.67204e-08
7.6405e-08
7.6067e-08
7.57076e-08
7.533e-08
7.4937e-08
7.45316e-08
7.41168e-08
7.36945e-08
7.327e-08
7.28501e-08
7.24419e-08
7.20501e-08
7.16747e-08
7.1314e-08
7.09768e-08
7.0688e-08
7.0477e-08
7.03556e-08
7.02911e-08
7.02373e-08
7.01583e-08
7.01022e-08
7.02363e-08
7.07007e-08
7.16099e-08
7.28701e-08
7.41812e-08
7.52578e-08
1.52869e-07
1.54106e-07
1.55286e-07
1.56403e-07
1.57463e-07
1.58476e-07
1.59449e-07
1.60395e-07
1.61321e-07
1.62228e-07
1.63111e-07
1.63964e-07
1.64782e-07
1.65559e-07
1.66291e-07
1.66978e-07
1.67623e-07
1.68232e-07
1.68813e-07
1.6937e-07
1.69908e-07
1.70435e-07
1.70956e-07
1.71475e-07
1.71991e-07
1.72501e-07
1.73002e-07
1.7349e-07
1.73957e-07
1.74395e-07
1.74798e-07
1.75165e-07
1.75495e-07
1.75787e-07
1.76041e-07
1.7626e-07
1.76444e-07
1.76594e-07
1.76709e-07
1.76787e-07
1.76828e-07
1.76829e-07
1.76787e-07
1.76701e-07
1.76566e-07
1.76381e-07
1.76143e-07
1.75852e-07
1.75505e-07
1.75102e-07
1.74639e-07
1.74116e-07
1.73534e-07
1.72894e-07
1.72198e-07
1.71448e-07
1.70647e-07
1.698e-07
1.68916e-07
1.68e-07
1.67059e-07
1.661e-07
1.65132e-07
1.64171e-07
1.6323e-07
1.62322e-07
1.6145e-07
1.60616e-07
1.59834e-07
1.59148e-07
1.58609e-07
1.58242e-07
1.58008e-07
1.57831e-07
1.57659e-07
1.57561e-07
1.57796e-07
1.5862e-07
1.60196e-07
1.62356e-07
1.64698e-07
1.66769e-07
3.02398e-07
3.05158e-07
3.07789e-07
3.10277e-07
3.12629e-07
3.14868e-07
3.17013e-07
3.1909e-07
3.21113e-07
3.23086e-07
3.25001e-07
3.26846e-07
3.28612e-07
3.30289e-07
3.31871e-07
3.33358e-07
3.34753e-07
3.36073e-07
3.37332e-07
3.38539e-07
3.3971e-07
3.40859e-07
3.42e-07
3.43138e-07
3.44272e-07
3.45396e-07
3.46504e-07
3.47583e-07
3.48617e-07
3.49589e-07
3.5049e-07
3.51315e-07
3.5206e-07
3.52727e-07
3.53317e-07
3.53833e-07
3.5428e-07
3.54656e-07
3.54962e-07
3.55196e-07
3.55356e-07
3.55437e-07
3.55434e-07
3.55342e-07
3.55155e-07
3.54866e-07
3.54471e-07
3.53966e-07
3.53349e-07
3.52612e-07
3.51752e-07
3.50765e-07
3.49652e-07
3.48415e-07
3.47057e-07
3.45584e-07
3.43999e-07
3.42314e-07
3.40543e-07
3.38699e-07
3.36795e-07
3.34848e-07
3.32877e-07
3.30908e-07
3.28967e-07
3.27078e-07
3.25257e-07
3.23516e-07
3.2188e-07
3.20407e-07
3.19176e-07
3.18226e-07
3.17536e-07
3.17016e-07
3.16612e-07
3.16419e-07
3.16743e-07
3.1796e-07
3.20221e-07
3.23231e-07
3.26631e-07
3.29898e-07
5.47033e-07
5.52657e-07
5.58014e-07
5.63071e-07
5.67837e-07
5.72356e-07
5.7667e-07
5.80826e-07
5.84855e-07
5.88766e-07
5.92546e-07
5.96179e-07
5.99649e-07
6.02944e-07
6.06056e-07
6.08982e-07
6.1173e-07
6.14327e-07
6.16805e-07
6.19184e-07
6.21494e-07
6.23766e-07
6.26024e-07
6.28277e-07
6.30525e-07
6.32758e-07
6.34957e-07
6.37098e-07
6.3915e-07
6.41083e-07
6.42877e-07
6.44525e-07
6.46024e-07
6.47374e-07
6.48582e-07
6.4965e-07
6.50588e-07
6.51401e-07
6.52086e-07
6.52644e-07
6.5307e-07
6.53356e-07
6.53497e-07
6.53481e-07
6.53299e-07
6.52934e-07
6.52378e-07
6.51623e-07
6.50657e-07
6.49467e-07
6.48042e-07
6.46375e-07
6.44464e-07
6.42312e-07
6.39922e-07
6.37303e-07
6.34464e-07
6.31423e-07
6.28199e-07
6.24821e-07
6.21318e-07
6.17713e-07
6.14046e-07
6.10359e-07
6.06694e-07
6.03096e-07
5.99605e-07
5.96255e-07
5.93092e-07
5.90182e-07
5.87617e-07
5.85444e-07
5.83705e-07
5.82342e-07
5.81356e-07
5.80876e-07
5.81149e-07
5.82597e-07
5.8521e-07
5.88443e-07
5.92239e-07
5.9631e-07
9.19188e-07
9.29807e-07
9.39912e-07
9.49426e-07
9.58365e-07
9.66804e-07
9.74826e-07
9.82521e-07
9.89942e-07
9.97106e-07
1.004e-06
1.0106e-06
1.01689e-06
1.02287e-06
1.02851e-06
1.03382e-06
1.03882e-06
1.04353e-06
1.04802e-06
1.05234e-06
1.05652e-06
1.06064e-06
1.06472e-06
1.0688e-06
1.07287e-06
1.0769e-06
1.08087e-06
1.08472e-06
1.08841e-06
1.09188e-06
1.0951e-06
1.09806e-06
1.10076e-06
1.10321e-06
1.1054e-06
1.10736e-06
1.1091e-06
1.11063e-06
1.11195e-06
1.11306e-06
1.11397e-06
1.11465e-06
1.11511e-06
1.11534e-06
1.1153e-06
1.11497e-06
1.11433e-06
1.11336e-06
1.11204e-06
1.11033e-06
1.10821e-06
1.10566e-06
1.10269e-06
1.09928e-06
1.09544e-06
1.09117e-06
1.08651e-06
1.08146e-06
1.07607e-06
1.07037e-06
1.06442e-06
1.05826e-06
1.05195e-06
1.04555e-06
1.03914e-06
1.03278e-06
1.02656e-06
1.02055e-06
1.01483e-06
1.00947e-06
1.00453e-06
1.00006e-06
9.96201e-07
9.93017e-07
9.90671e-07
9.89379e-07
9.89163e-07
9.90313e-07
9.92394e-07
9.94377e-07
9.96796e-07
1.00013e-06
1.00616e-06
1.45051e-06
1.46929e-06
1.48713e-06
1.50388e-06
1.51956e-06
1.53429e-06
1.54823e-06
1.56155e-06
1.57432e-06
1.58658e-06
1.59831e-06
1.60949e-06
1.62013e-06
1.63023e-06
1.63978e-06
1.64876e-06
1.65721e-06
1.66518e-06
1.67275e-06
1.68001e-06
1.68704e-06
1.69393e-06
1.70076e-06
1.70755e-06
1.71431e-06
1.72099e-06
1.72752e-06
1.73384e-06
1.73986e-06
1.74551e-06
1.75074e-06
1.75554e-06
1.75991e-06
1.76387e-06
1.76743e-06
1.77062e-06
1.77347e-06
1.77598e-06
1.77819e-06
1.78009e-06
1.7817e-06
1.783e-06
1.78401e-06
1.7847e-06
1.78504e-06
1.78496e-06
1.78444e-06
1.78342e-06
1.78185e-06
1.77967e-06
1.77684e-06
1.77331e-06
1.76908e-06
1.76412e-06
1.75843e-06
1.75203e-06
1.74495e-06
1.7372e-06
1.72883e-06
1.7199e-06
1.71049e-06
1.70067e-06
1.69054e-06
1.6802e-06
1.66971e-06
1.6592e-06
1.6488e-06
1.63868e-06
1.62895e-06
1.61966e-06
1.61083e-06
1.60243e-06
1.59474e-06
1.58807e-06
1.58289e-06
1.57964e-06
1.57793e-06
1.57766e-06
1.57758e-06
1.57583e-06
1.57371e-06
1.57313e-06
1.57566e-06
2.16737e-06
2.19872e-06
2.22847e-06
2.2563e-06
2.28225e-06
2.30648e-06
2.32931e-06
2.35102e-06
2.37173e-06
2.39149e-06
2.41028e-06
2.42811e-06
2.44503e-06
2.46108e-06
2.47624e-06
2.49052e-06
2.50394e-06
2.51657e-06
2.52853e-06
2.53995e-06
2.55095e-06
2.56168e-06
2.57226e-06
2.58273e-06
2.59307e-06
2.60323e-06
2.6131e-06
2.62256e-06
2.63151e-06
2.63984e-06
2.64751e-06
2.65451e-06
2.66084e-06
2.66654e-06
2.67166e-06
2.67622e-06
2.68028e-06
2.68387e-06
2.68703e-06
2.68979e-06
2.69218e-06
2.69422e-06
2.69594e-06
2.69732e-06
2.69831e-06
2.6988e-06
2.69871e-06
2.69795e-06
2.6964e-06
2.69397e-06
2.69057e-06
2.68612e-06
2.68058e-06
2.67392e-06
2.66612e-06
2.6572e-06
2.64717e-06
2.63608e-06
2.62395e-06
2.61086e-06
2.59694e-06
2.58228e-06
2.56703e-06
2.55129e-06
2.53519e-06
2.51886e-06
2.50251e-06
2.48642e-06
2.47079e-06
2.45563e-06
2.44085e-06
2.42626e-06
2.41231e-06
2.39963e-06
2.38922e-06
2.38191e-06
2.37683e-06
2.37312e-06
2.36838e-06
2.3594e-06
2.34821e-06
2.3387e-06
2.33314e-06
3.08666e-06
3.13648e-06
3.18368e-06
3.22768e-06
3.26852e-06
3.30637e-06
3.34188e-06
3.37549e-06
3.40738e-06
3.4376e-06
3.46615e-06
3.4931e-06
3.51858e-06
3.5427e-06
3.56551e-06
3.58698e-06
3.60711e-06
3.62601e-06
3.64381e-06
3.66068e-06
3.6768e-06
3.69241e-06
3.70767e-06
3.72261e-06
3.73722e-06
3.75142e-06
3.76506e-06
3.77797e-06
3.79001e-06
3.80108e-06
3.81112e-06
3.82015e-06
3.82821e-06
3.83537e-06
3.84169e-06
3.84725e-06
3.85212e-06
3.85637e-06
3.86007e-06
3.86332e-06
3.86617e-06
3.86872e-06
3.87105e-06
3.87317e-06
3.87499e-06
3.87634e-06
3.87704e-06
3.87692e-06
3.87577e-06
3.87343e-06
3.86974e-06
3.86458e-06
3.85785e-06
3.84951e-06
3.8395e-06
3.82783e-06
3.81453e-06
3.7996e-06
3.78307e-06
3.76503e-06
3.74562e-06
3.72499e-06
3.7033e-06
3.68073e-06
3.65737e-06
3.63341e-06
3.60913e-06
3.58494e-06
3.56116e-06
3.53776e-06
3.5145e-06
3.49096e-06
3.46764e-06
3.4456e-06
3.42652e-06
3.4119e-06
3.40035e-06
3.3901e-06
3.3772e-06
3.35665e-06
3.33086e-06
3.3059e-06
3.28587e-06
4.21348e-06
4.28935e-06
4.36118e-06
4.42788e-06
4.48948e-06
4.54607e-06
4.5989e-06
4.64866e-06
4.69563e-06
4.73984e-06
4.7813e-06
4.82018e-06
4.85676e-06
4.89134e-06
4.924e-06
4.95471e-06
4.98344e-06
5.01026e-06
5.03532e-06
5.05884e-06
5.08107e-06
5.10231e-06
5.1228e-06
5.14257e-06
5.1616e-06
5.17977e-06
5.19689e-06
5.21276e-06
5.22722e-06
5.24017e-06
5.25158e-06
5.26154e-06
5.27012e-06
5.27746e-06
5.28366e-06
5.28886e-06
5.29317e-06
5.29672e-06
5.29965e-06
5.30213e-06
5.30435e-06
5.30651e-06
5.30878e-06
5.31124e-06
5.31375e-06
5.31599e-06
5.31764e-06
5.31839e-06
5.31793e-06
5.31596e-06
5.31223e-06
5.30655e-06
5.29877e-06
5.28881e-06
5.27659e-06
5.26208e-06
5.24528e-06
5.2262e-06
5.20483e-06
5.18122e-06
5.15554e-06
5.12795e-06
5.09869e-06
5.06792e-06
5.03578e-06
5.00243e-06
4.96823e-06
4.93372e-06
4.89936e-06
4.86513e-06
4.83059e-06
4.795e-06
4.75881e-06
4.72347e-06
4.69142e-06
4.66509e-06
4.64272e-06
4.62158e-06
4.59605e-06
4.55905e-06
4.51275e-06
4.46512e-06
4.4227e-06
5.54184e-06
5.65318e-06
5.75879e-06
5.85652e-06
5.94632e-06
6.02799e-06
6.10377e-06
6.17483e-06
6.24153e-06
6.30386e-06
6.36185e-06
6.41579e-06
6.46627e-06
6.5138e-06
6.55863e-06
6.6007e-06
6.63988e-06
6.67619e-06
6.70974e-06
6.74078e-06
6.76965e-06
6.79674e-06
6.82234e-06
6.84651e-06
6.86919e-06
6.89023e-06
6.90942e-06
6.92653e-06
6.9414e-06
6.954e-06
6.96438e-06
6.97268e-06
6.97909e-06
6.98381e-06
6.98705e-06
6.989e-06
6.98987e-06
6.98988e-06
6.98931e-06
6.98846e-06
6.98772e-06
6.98749e-06
6.9881e-06
6.98967e-06
6.99198e-06
6.99451e-06
6.99669e-06
6.99802e-06
6.99801e-06
6.9962e-06
6.99222e-06
6.98581e-06
6.97677e-06
6.96495e-06
6.95026e-06
6.93262e-06
6.91203e-06
6.88844e-06
6.86179e-06
6.83207e-06
6.79944e-06
6.76408e-06
6.72625e-06
6.68614e-06
6.64386e-06
6.59956e-06
6.55362e-06
6.50671e-06
6.45943e-06
6.4118e-06
6.36319e-06
6.31249e-06
6.25993e-06
6.20722e-06
6.15751e-06
6.11434e-06
6.0758e-06
6.03839e-06
5.99501e-06
5.93649e-06
5.86409e-06
5.78695e-06
5.71394e-06
7.05918e-06
7.21732e-06
7.36827e-06
7.50778e-06
7.63548e-06
7.75019e-06
7.856e-06
7.95472e-06
8.04686e-06
8.13233e-06
8.21114e-06
8.28378e-06
8.35122e-06
8.41441e-06
8.47379e-06
8.52932e-06
8.58072e-06
8.62785e-06
8.67074e-06
8.70965e-06
8.74501e-06
8.77732e-06
8.80697e-06
8.83401e-06
8.85833e-06
8.87975e-06
8.89807e-06
8.91305e-06
8.92461e-06
8.9328e-06
8.93782e-06
8.93993e-06
8.93946e-06
8.93672e-06
8.93205e-06
8.92576e-06
8.91821e-06
8.90981e-06
8.90106e-06
8.89254e-06
8.8849e-06
8.87881e-06
8.8748e-06
8.873e-06
8.87303e-06
8.87406e-06
8.87516e-06
8.87558e-06
8.87459e-06
8.87156e-06
8.86599e-06
8.85752e-06
8.84592e-06
8.83102e-06
8.81269e-06
8.79085e-06
8.76546e-06
8.73642e-06
8.7036e-06
8.66689e-06
8.62639e-06
8.5823e-06
8.53484e-06
8.48424e-06
8.43057e-06
8.37392e-06
8.31467e-06
8.25353e-06
8.19126e-06
8.12792e-06
8.06274e-06
7.99426e-06
7.92231e-06
7.84864e-06
7.77693e-06
7.71178e-06
7.65144e-06
7.59195e-06
7.52522e-06
7.44038e-06
7.33728e-06
7.22517e-06
7.11455e-06
8.75563e-06
8.97272e-06
9.1833e-06
9.37865e-06
9.55729e-06
9.71571e-06
9.86092e-06
9.99574e-06
1.01208e-05
1.0236e-05
1.03412e-05
1.04371e-05
1.05253e-05
1.06073e-05
1.06839e-05
1.07551e-05
1.08205e-05
1.08795e-05
1.09321e-05
1.09786e-05
1.10195e-05
1.10554e-05
1.10869e-05
1.11139e-05
1.11364e-05
1.11541e-05
1.11668e-05
1.11744e-05
1.11768e-05
1.11743e-05
1.11674e-05
1.11563e-05
1.11418e-05
1.11242e-05
1.11041e-05
1.10819e-05
1.10583e-05
1.10341e-05
1.10101e-05
1.09874e-05
1.0967e-05
1.09498e-05
1.09365e-05
1.09271e-05
1.09209e-05
1.09168e-05
1.09132e-05
1.09091e-05
1.09036e-05
1.08958e-05
1.08851e-05
1.08711e-05
1.08535e-05
1.08323e-05
1.08072e-05
1.07783e-05
1.07454e-05
1.07084e-05
1.06671e-05
1.06213e-05
1.0571e-05
1.05164e-05
1.04576e-05
1.03948e-05
1.03281e-05
1.02575e-05
1.01833e-05
1.01062e-05
1.00271e-05
9.94607e-06
9.86227e-06
9.77393e-06
9.6804e-06
9.58321e-06
9.48621e-06
9.3949e-06
9.30783e-06
9.22103e-06
9.12606e-06
9.01107e-06
8.87424e-06
8.72391e-06
8.57105e-06
8.41687e-06
1.09244e-05
1.12108e-05
1.148e-05
1.17277e-05
1.19448e-05
1.21428e-05
1.23258e-05
1.24946e-05
1.26489e-05
1.27886e-05
1.29146e-05
1.3029e-05
1.31343e-05
1.32318e-05
1.33216e-05
1.34029e-05
1.34751e-05
1.35377e-05
1.35909e-05
1.36355e-05
1.36724e-05
1.37022e-05
1.37251e-05
1.37408e-05
1.3749e-05
1.37495e-05
1.37422e-05
1.37273e-05
1.37055e-05
1.36773e-05
1.36434e-05
1.36047e-05
1.35619e-05
1.35156e-05
1.34669e-05
1.34166e-05
1.33661e-05
1.33172e-05
1.32715e-05
1.32303e-05
1.31948e-05
1.31654e-05
1.31419e-05
1.31231e-05
1.31072e-05
1.30923e-05
1.3077e-05
1.30599e-05
1.30403e-05
1.30174e-05
1.29908e-05
1.29603e-05
1.29259e-05
1.28876e-05
1.28452e-05
1.27989e-05
1.27485e-05
1.26937e-05
1.26342e-05
1.25698e-05
1.25006e-05
1.24268e-05
1.23486e-05
1.22659e-05
1.21787e-05
1.20871e-05
1.19918e-05
1.18936e-05
1.17929e-05
1.16886e-05
1.15787e-05
1.14623e-05
1.13402e-05
1.12162e-05
1.10962e-05
1.09793e-05
1.08617e-05
1.07354e-05
1.05884e-05
1.04172e-05
1.02282e-05
1.00318e-05
9.83776e-06
9.66737e-06
9.55115e-06
1.31096e-05
1.34864e-05
1.3851e-05
1.41928e-05
1.44898e-05
1.47607e-05
1.50104e-05
1.52395e-05
1.54477e-05
1.56348e-05
1.58018e-05
1.59517e-05
1.60879e-05
1.62126e-05
1.63261e-05
1.64273e-05
1.65149e-05
1.65882e-05
1.66475e-05
1.66938e-05
1.67284e-05
1.67523e-05
1.67658e-05
1.67684e-05
1.67598e-05
1.67396e-05
1.6708e-05
1.66655e-05
1.66129e-05
1.65514e-05
1.64819e-05
1.64058e-05
1.63239e-05
1.62375e-05
1.61479e-05
1.60568e-05
1.59668e-05
1.58806e-05
1.58006e-05
1.57286e-05
1.56652e-05
1.56105e-05
1.55633e-05
1.55218e-05
1.54836e-05
1.54463e-05
1.5408e-05
1.53674e-05
1.53236e-05
1.5276e-05
1.52244e-05
1.51686e-05
1.51088e-05
1.50452e-05
1.4978e-05
1.49072e-05
1.48328e-05
1.47544e-05
1.46718e-05
1.45845e-05
1.44927e-05
1.43965e-05
1.42961e-05
1.41913e-05
1.40821e-05
1.39683e-05
1.38506e-05
1.37298e-05
1.36061e-05
1.34786e-05
1.33454e-05
1.32048e-05
1.30572e-05
1.29059e-05
1.27567e-05
1.26092e-05
1.24601e-05
1.23025e-05
1.21247e-05
1.19219e-05
1.16977e-05
1.14602e-05
1.12233e-05
1.10087e-05
1.08333e-05
1.56258e-05
1.60986e-05
1.65801e-05
1.70485e-05
1.74555e-05
1.78293e-05
1.81745e-05
1.84903e-05
1.87763e-05
1.90322e-05
1.92592e-05
1.94612e-05
1.96426e-05
1.98069e-05
1.99545e-05
2.00839e-05
2.01929e-05
2.02805e-05
2.0347e-05
2.03941e-05
2.04237e-05
2.04376e-05
2.04361e-05
2.04189e-05
2.03853e-05
2.03349e-05
2.02679e-05
2.0185e-05
2.00878e-05
1.99779e-05
1.98569e-05
1.97265e-05
1.95882e-05
1.94438e-05
1.92955e-05
1.91464e-05
1.90005e-05
1.88622e-05
1.87348e-05
1.86195e-05
1.85162e-05
1.84233e-05
1.83385e-05
1.82591e-05
1.81821e-05
1.81049e-05
1.80252e-05
1.79418e-05
1.78539e-05
1.77615e-05
1.76644e-05
1.75629e-05
1.74575e-05
1.73487e-05
1.72368e-05
1.71223e-05
1.70053e-05
1.68857e-05
1.6763e-05
1.66367e-05
1.65072e-05
1.63746e-05
1.62389e-05
1.61002e-05
1.5958e-05
1.58124e-05
1.56637e-05
1.55126e-05
1.53595e-05
1.52037e-05
1.5043e-05
1.48755e-05
1.47011e-05
1.45221e-05
1.43442e-05
1.41674e-05
1.39891e-05
1.3804e-05
1.36012e-05
1.3374e-05
1.31227e-05
1.28519e-05
1.25754e-05
1.23166e-05
1.20899e-05
1.8676e-05
1.92284e-05
1.98399e-05
2.04734e-05
2.10309e-05
2.15524e-05
2.20371e-05
2.24811e-05
2.28831e-05
2.32432e-05
2.35627e-05
2.38462e-05
2.40996e-05
2.43275e-05
2.45307e-05
2.47069e-05
2.48524e-05
2.49653e-05
2.50461e-05
2.50974e-05
2.51227e-05
2.51248e-05
2.51046e-05
2.5062e-05
2.49958e-05
2.49055e-05
2.4791e-05
2.46538e-05
2.44958e-05
2.43196e-05
2.41278e-05
2.39227e-05
2.37068e-05
2.34829e-05
2.32548e-05
2.30274e-05
2.28071e-05
2.26e-05
2.24098e-05
2.22363e-05
2.2077e-05
2.19278e-05
2.17848e-05
2.16446e-05
2.15041e-05
2.13601e-05
2.12108e-05
2.10549e-05
2.08924e-05
2.07237e-05
2.05495e-05
2.03705e-05
2.01876e-05
2.00016e-05
1.98135e-05
1.96241e-05
1.9434e-05
1.92435e-05
1.90519e-05
1.88589e-05
1.86651e-05
1.84708e-05
1.82763e-05
1.80816e-05
1.78862e-05
1.769e-05
1.74933e-05
1.72968e-05
1.7101e-05
1.69053e-05
1.67078e-05
1.65062e-05
1.62998e-05
1.60902e-05
1.58825e-05
1.56773e-05
1.54738e-05
1.52684e-05
1.50507e-05
1.48117e-05
1.45471e-05
1.42566e-05
1.39519e-05
1.366e-05
1.34004e-05
2.26442e-05
2.32197e-05
2.39545e-05
2.47934e-05
2.55551e-05
2.62921e-05
2.69854e-05
2.76216e-05
2.81997e-05
2.87207e-05
2.91869e-05
2.96028e-05
2.99759e-05
3.03121e-05
3.0613e-05
3.08744e-05
3.10902e-05
3.1256e-05
3.1372e-05
3.14423e-05
3.14726e-05
3.1468e-05
3.14309e-05
3.13612e-05
3.12578e-05
3.11196e-05
3.09465e-05
3.07401e-05
3.05033e-05
3.02401e-05
2.99544e-05
2.96501e-05
2.93314e-05
2.90028e-05
2.86706e-05
2.83425e-05
2.80274e-05
2.77327e-05
2.7461e-05
2.72092e-05
2.69705e-05
2.6738e-05
2.65057e-05
2.62697e-05
2.60277e-05
2.57769e-05
2.55152e-05
2.52421e-05
2.49587e-05
2.46665e-05
2.4367e-05
2.40617e-05
2.3752e-05
2.34395e-05
2.31258e-05
2.28123e-05
2.25003e-05
2.21909e-05
2.18835e-05
2.15777e-05
2.12746e-05
2.09756e-05
2.06812e-05
2.03917e-05
2.01066e-05
1.98257e-05
1.95493e-05
1.92783e-05
1.90137e-05
1.87552e-05
1.85009e-05
1.82483e-05
1.7996e-05
1.77449e-05
1.74998e-05
1.72623e-05
1.7035e-05
1.68174e-05
1.65982e-05
1.63639e-05
1.61048e-05
1.58141e-05
1.55012e-05
1.52017e-05
1.4948e-05
1.46949e-05
1.45354e-05
1.45097e-05
2.82401e-05
2.87239e-05
2.95612e-05
3.06546e-05
3.17084e-05
3.27855e-05
3.38181e-05
3.47649e-05
3.56258e-05
3.641e-05
3.71231e-05
3.777e-05
3.83576e-05
3.88926e-05
3.93767e-05
3.98043e-05
4.0164e-05
4.0446e-05
4.0648e-05
4.0775e-05
4.08367e-05
4.08421e-05
4.07965e-05
4.07013e-05
4.05556e-05
4.03582e-05
4.01089e-05
3.98095e-05
3.94645e-05
3.90799e-05
3.86625e-05
3.82193e-05
3.77574e-05
3.72849e-05
3.68118e-05
3.63493e-05
3.5908e-05
3.54945e-05
3.51079e-05
3.474e-05
3.43795e-05
3.40156e-05
3.36407e-05
3.32512e-05
3.28461e-05
3.24236e-05
3.19823e-05
3.15223e-05
3.10459e-05
3.05561e-05
3.00559e-05
2.95476e-05
2.90338e-05
2.85166e-05
2.79985e-05
2.74823e-05
2.69703e-05
2.64641e-05
2.59636e-05
2.54684e-05
2.49807e-05
2.45037e-05
2.4039e-05
2.35872e-05
2.31479e-05
2.27213e-05
2.23078e-05
2.19092e-05
2.15275e-05
2.11634e-05
2.08146e-05
2.04773e-05
2.0149e-05
1.98303e-05
1.9526e-05
1.92377e-05
1.89772e-05
1.87501e-05
1.85421e-05
1.833e-05
1.80963e-05
1.7827e-05
1.75324e-05
1.72689e-05
1.7095e-05
1.70044e-05
1.69163e-05
1.71551e-05
4.01051e-05
4.19091e-05
4.38763e-05
4.58346e-05
4.76557e-05
4.92967e-05
5.07563e-05
5.20439e-05
5.3178e-05
5.41851e-05
5.50903e-05
5.59094e-05
5.66455e-05
5.7287e-05
5.78164e-05
5.82239e-05
5.85122e-05
5.86943e-05
5.87851e-05
5.87949e-05
5.87271e-05
5.85815e-05
5.83566e-05
5.8052e-05
5.76695e-05
5.72138e-05
5.66923e-05
5.61134e-05
5.5485e-05
5.48137e-05
5.41052e-05
5.33655e-05
5.2602e-05
5.1823e-05
5.10361e-05
5.02458e-05
4.94529e-05
4.86557e-05
4.78509e-05
4.70349e-05
4.62048e-05
4.53591e-05
4.44972e-05
4.36201e-05
4.27292e-05
4.18264e-05
4.09136e-05
3.99955e-05
3.9076e-05
3.81584e-05
3.72451e-05
3.63396e-05
3.54462e-05
3.45646e-05
3.36961e-05
3.28409e-05
3.20009e-05
3.11802e-05
3.03828e-05
2.96114e-05
2.88669e-05
2.81496e-05
2.74597e-05
2.6799e-05
2.61719e-05
2.55842e-05
2.5039e-05
2.45306e-05
2.405e-05
2.35903e-05
2.31541e-05
2.27444e-05
2.23548e-05
2.20183e-05
2.17629e-05
2.15755e-05
2.14078e-05
2.1224e-05
2.10051e-05
2.07677e-05
2.0627e-05
2.06982e-05
2.1082e-05
2.18746e-05
2.3013e-05
5.59834e-05
5.85362e-05
6.15508e-05
6.47096e-05
6.77159e-05
7.04249e-05
7.2819e-05
7.49167e-05
7.6741e-05
7.83354e-05
7.97472e-05
8.10159e-05
8.21713e-05
8.32128e-05
8.41185e-05
8.48669e-05
8.54517e-05
8.58812e-05
8.61747e-05
8.63476e-05
8.64067e-05
8.63525e-05
8.61839e-05
8.5901e-05
8.55062e-05
8.50047e-05
8.44052e-05
8.37183e-05
8.29541e-05
8.21203e-05
8.12218e-05
8.02619e-05
7.92445e-05
7.81743e-05
7.70571e-05
7.58989e-05
7.4706e-05
7.34842e-05
7.22373e-05
7.0966e-05
6.96689e-05
6.83451e-05
6.69947e-05
6.56206e-05
6.42268e-05
6.28148e-05
6.13872e-05
5.99465e-05
5.84992e-05
5.7052e-05
5.56079e-05
5.41696e-05
5.27402e-05
5.13227e-05
4.99204e-05
4.85293e-05
4.71568e-05
4.581e-05
4.44956e-05
4.32184e-05
4.19821e-05
4.07889e-05
3.96386e-05
3.85325e-05
3.74761e-05
3.64768e-05
3.55401e-05
3.46639e-05
3.38397e-05
3.30611e-05
3.23272e-05
3.16571e-05
3.10696e-05
3.06078e-05
3.02942e-05
3.00766e-05
2.98877e-05
2.96862e-05
2.94367e-05
2.91752e-05
2.90959e-05
2.93829e-05
3.01807e-05
3.16221e-05
3.35039e-05
3.30918e-05
2.80706e-05
1.96419e-05
1.39992e-05
1.45768e-05
7.86609e-05
8.15801e-05
8.54597e-05
8.98652e-05
9.42758e-05
9.83049e-05
0.000101857
0.000104976
0.000107688
0.000110023
0.000112061
0.000113857
0.000115473
0.000116952
0.00011829
0.000119461
0.000120443
0.00012123
0.000121838
0.000122285
0.000122578
0.000122719
0.000122706
0.000122542
0.00012223
0.000121778
0.000121195
0.000120494
0.000119687
0.000118786
0.000117795
0.000116718
0.000115555
0.000114308
0.00011298
0.000111576
0.000110103
0.000108572
0.000106992
0.000105369
0.000103701
0.000101987
0.000100229
9.84289e-05
9.65906e-05
9.4717e-05
9.28116e-05
9.08785e-05
8.89209e-05
8.69472e-05
8.49646e-05
8.29753e-05
8.09816e-05
7.89865e-05
7.69958e-05
7.50117e-05
7.30319e-05
7.10674e-05
6.91312e-05
6.72321e-05
6.5377e-05
6.35711e-05
6.18125e-05
6.01043e-05
5.84557e-05
5.68795e-05
5.53861e-05
5.39747e-05
5.2634e-05
5.1356e-05
5.01427e-05
4.90305e-05
4.80609e-05
4.72739e-05
4.67053e-05
4.62773e-05
4.58939e-05
4.55005e-05
4.50605e-05
4.46278e-05
4.44637e-05
4.47998e-05
4.57929e-05
4.7547e-05
4.97417e-05
4.91692e-05
4.21899e-05
2.90687e-05
1.82646e-05
1.63737e-05
0.000107985
0.000110529
0.000114659
0.000119985
0.000125795
0.00013133
0.000136216
0.000140507
0.000144298
0.000147571
0.000150338
0.000152692
0.000154754
0.000156619
0.000158334
0.000159901
0.000161301
0.00016251
0.000163519
0.000164334
0.000164959
0.00016539
0.000165624
0.000165666
0.000165521
0.0001652
0.000164715
0.000164081
0.000163313
0.000162426
0.000161427
0.000160321
0.000159107
0.000157784
0.000156354
0.000154819
0.000153186
0.000151468
0.000149679
0.000147827
0.000145914
0.000143939
0.000141901
0.000139803
0.00013765
0.000135444
0.000133188
0.000130889
0.00012855
0.000126175
0.000123773
0.000121348
0.000118903
0.000116439
0.000113962
0.000111477
0.000108984
0.00010649
0.000104009
0.00010155
9.91228e-05
9.67296e-05
9.43725e-05
9.20562e-05
8.97941e-05
8.76035e-05
8.54994e-05
8.34827e-05
8.15403e-05
7.96637e-05
7.78569e-05
7.61726e-05
7.46698e-05
7.33738e-05
7.23292e-05
7.14579e-05
7.06584e-05
6.987e-05
6.90537e-05
6.82712e-05
6.77817e-05
6.78174e-05
6.85168e-05
6.99194e-05
7.1573e-05
7.03189e-05
6.15183e-05
4.39032e-05
2.58983e-05
1.9359e-05
0.000143885
0.000145068
0.000148423
0.000153761
0.000160549
0.000167694
0.000174156
0.000179745
0.000184759
0.000189245
0.000193053
0.000196205
0.000198838
0.000201089
0.000203028
0.000204666
0.000206011
0.000207086
0.000207933
0.000208596
0.000209092
0.000209418
0.000209561
0.000209516
0.000209289
0.000208888
0.000208322
0.000207604
0.00020675
0.000205774
0.000204685
0.000203484
0.000202169
0.000200737
0.000199185
0.000197513
0.000195728
0.000193842
0.000191871
0.000189825
0.000187707
0.000185517
0.000183254
0.00018092
0.000178521
0.000176058
0.000173534
0.000170955
0.000168326
0.000165652
0.000162932
0.000160178
0.000157392
0.000154575
0.000151732
0.000148867
0.000145982
0.000143087
0.000140191
0.000137302
0.000134427
0.00013157
0.000128735
0.000125928
0.000123161
0.000120454
0.000117822
0.000115267
0.000112777
0.000110345
0.000107976
0.000105724
0.000103651
0.000101777
0.000100145
9.86866e-05
9.73114e-05
9.59653e-05
9.46162e-05
9.33318e-05
9.23166e-05
9.17849e-05
9.18412e-05
9.24768e-05
9.32299e-05
9.13058e-05
8.19327e-05
6.22747e-05
3.75615e-05
2.43532e-05
0.000186877
0.000185639
0.000186962
0.000190981
0.000197712
0.000206346
0.000214888
0.000222045
0.000227785
0.000232427
0.000236196
0.000239272
0.000241816
0.000243971
0.000245817
0.000247357
0.000248589
0.000249542
0.000250272
0.000250836
0.000251263
0.000251543
0.000251649
0.000251567
0.000251298
0.000250852
0.000250238
0.000249469
0.000248557
0.000247518
0.000246361
0.00024509
0.0002437
0.000242184
0.000240535
0.000238752
0.000236839
0.000234808
0.000232676
0.000230457
0.000228156
0.000225773
0.000223307
0.000220761
0.000218139
0.000215444
0.000212679
0.000209848
0.000206957
0.000204012
0.000201017
0.000197969
0.000194881
0.000191753
0.00018859
0.000185392
0.000182167
0.00017892
0.00017566
0.000172396
0.000169133
0.000165876
0.000162628
0.000159396
0.000156191
0.000153032
0.000149933
0.000146897
0.000143912
0.000140973
0.000138084
0.000135297
0.00013267
0.000130225
0.000127994
0.000125919
0.000123925
0.000121967
0.000120022
0.000118152
0.000116525
0.00011532
0.00011461
0.000114357