/*--------------------------------*- C++ -*----------------------------------*\
| =========                 |                                                 |
| \\      /  F ield         | OpenFOAM: The Open Source CFD Toolbox           |
|  \\    /   O peration     | Version:  2412                                  |
|   \\  /    A nd           | Website:  www.openfoam.com                      |
|    \\/     M anipulation  |                                                 |
\*---------------------------------------------------------------------------*/
FoamFile
{
    version     2.0;
    format      ascii;
    arch        "LSB;label=32;scalar=64";
    class       volScalarField;
    location    "440";
    object      nuTilda;
}
// * * * * * * * * * * * * * * * * * * * * * * * * * * * * * * * * * * * * * //

dimensions      [0 2 -1 0 0 0 0];

internalField   nonuniform List<scalar> 
8702
(
1.25318e-06
1.25466e-06
1.25606e-06
1.25739e-06
1.25865e-06
1.25987e-06
1.26108e-06
1.26225e-06
1.2634e-06
1.26456e-06
1.26571e-06
1.26682e-06
1.26787e-06
1.26888e-06
1.26981e-06
1.2707e-06
1.27151e-06
1.27227e-06
1.27303e-06
1.27371e-06
1.27434e-06
1.27497e-06
1.27556e-06
1.27613e-06
1.2767e-06
1.27724e-06
1.27775e-06
1.27825e-06
1.27871e-06
1.27911e-06
1.27948e-06
1.2798e-06
1.28005e-06
1.28026e-06
1.28041e-06
1.28048e-06
1.28051e-06
1.28049e-06
1.28041e-06
1.28028e-06
1.28008e-06
1.27981e-06
1.27946e-06
1.27903e-06
1.27855e-06
1.27799e-06
1.27735e-06
1.27662e-06
1.2758e-06
1.27487e-06
1.27386e-06
1.27277e-06
1.27159e-06
1.27033e-06
1.26899e-06
1.26758e-06
1.26608e-06
1.2645e-06
1.26286e-06
1.26121e-06
1.2595e-06
1.25775e-06
1.25601e-06
1.2543e-06
1.25266e-06
1.25107e-06
1.24955e-06
1.24805e-06
1.24661e-06
1.24549e-06
1.24492e-06
1.24493e-06
1.24503e-06
1.24487e-06
1.24414e-06
1.24347e-06
1.24456e-06
1.24823e-06
1.25566e-06
1.26563e-06
1.27432e-06
1.27971e-06
3.88967e-06
3.89447e-06
3.89902e-06
3.90335e-06
3.90746e-06
3.91143e-06
3.91531e-06
3.91911e-06
3.92284e-06
3.92656e-06
3.93023e-06
3.93378e-06
3.93718e-06
3.9404e-06
3.94341e-06
3.94625e-06
3.94889e-06
3.95134e-06
3.9537e-06
3.9559e-06
3.958e-06
3.96002e-06
3.96196e-06
3.96382e-06
3.96567e-06
3.96745e-06
3.96913e-06
3.97077e-06
3.97228e-06
3.97363e-06
3.97485e-06
3.97592e-06
3.97678e-06
3.97747e-06
3.97801e-06
3.97833e-06
3.97849e-06
3.9785e-06
3.97832e-06
3.97797e-06
3.9774e-06
3.97662e-06
3.97559e-06
3.97434e-06
3.9729e-06
3.97118e-06
3.9692e-06
3.96694e-06
3.96442e-06
3.96163e-06
3.95853e-06
3.95516e-06
3.9515e-06
3.94758e-06
3.94341e-06
3.93898e-06
3.93428e-06
3.92938e-06
3.9243e-06
3.91911e-06
3.91378e-06
3.90832e-06
3.90285e-06
3.89749e-06
3.89234e-06
3.88736e-06
3.88259e-06
3.87787e-06
3.8734e-06
3.86987e-06
3.86798e-06
3.8678e-06
3.86802e-06
3.86753e-06
3.86543e-06
3.8635e-06
3.86669e-06
3.87758e-06
3.89961e-06
3.92925e-06
3.95551e-06
3.97226e-06
6.78717e-06
6.79612e-06
6.80463e-06
6.81271e-06
6.82039e-06
6.82778e-06
6.83496e-06
6.84201e-06
6.84895e-06
6.8558e-06
6.86255e-06
6.8691e-06
6.87536e-06
6.8813e-06
6.88683e-06
6.89203e-06
6.89691e-06
6.90145e-06
6.90575e-06
6.90985e-06
6.91376e-06
6.9175e-06
6.92113e-06
6.92464e-06
6.92811e-06
6.93147e-06
6.93468e-06
6.93779e-06
6.94067e-06
6.94331e-06
6.94566e-06
6.94772e-06
6.94947e-06
6.95088e-06
6.952e-06
6.95279e-06
6.95326e-06
6.95342e-06
6.95328e-06
6.95284e-06
6.95201e-06
6.95079e-06
6.94915e-06
6.94713e-06
6.94471e-06
6.94182e-06
6.93847e-06
6.93461e-06
6.93028e-06
6.92547e-06
6.92015e-06
6.9143e-06
6.90794e-06
6.90112e-06
6.89384e-06
6.88607e-06
6.87784e-06
6.86927e-06
6.86038e-06
6.85123e-06
6.84186e-06
6.83229e-06
6.82267e-06
6.81322e-06
6.80411e-06
6.79537e-06
6.78694e-06
6.77867e-06
6.77088e-06
6.76463e-06
6.76102e-06
6.76025e-06
6.76038e-06
6.75959e-06
6.75637e-06
6.75343e-06
6.75852e-06
6.77602e-06
6.81128e-06
6.85903e-06
6.90253e-06
6.93159e-06
9.92621e-06
9.94053e-06
9.95414e-06
9.96703e-06
9.97928e-06
9.99103e-06
1.00024e-05
1.00136e-05
1.00245e-05
1.00353e-05
1.00459e-05
1.00562e-05
1.0066e-05
1.00753e-05
1.0084e-05
1.00922e-05
1.00998e-05
1.01069e-05
1.01137e-05
1.01202e-05
1.01263e-05
1.01323e-05
1.01381e-05
1.01437e-05
1.01493e-05
1.01547e-05
1.016e-05
1.0165e-05
1.01697e-05
1.01741e-05
1.0178e-05
1.01815e-05
1.01845e-05
1.0187e-05
1.0189e-05
1.01906e-05
1.01917e-05
1.01923e-05
1.01924e-05
1.01921e-05
1.01912e-05
1.01898e-05
1.01877e-05
1.0185e-05
1.01818e-05
1.01778e-05
1.01731e-05
1.01677e-05
1.01615e-05
1.01546e-05
1.0147e-05
1.01385e-05
1.01293e-05
1.01194e-05
1.01087e-05
1.00974e-05
1.00853e-05
1.00727e-05
1.00596e-05
1.00461e-05
1.00323e-05
1.00182e-05
1.0004e-05
9.98997e-06
9.97642e-06
9.96344e-06
9.95094e-06
9.93876e-06
9.92732e-06
9.91795e-06
9.91209e-06
9.91012e-06
9.90974e-06
9.90855e-06
9.9046e-06
9.90108e-06
9.90771e-06
9.93056e-06
9.97627e-06
1.00386e-05
1.00974e-05
1.0139e-05
1.32853e-05
1.33066e-05
1.33268e-05
1.3346e-05
1.33641e-05
1.33814e-05
1.33982e-05
1.34145e-05
1.34306e-05
1.34463e-05
1.34617e-05
1.34766e-05
1.34908e-05
1.35043e-05
1.3517e-05
1.35288e-05
1.35398e-05
1.35502e-05
1.35601e-05
1.35695e-05
1.35785e-05
1.35872e-05
1.35958e-05
1.36042e-05
1.36125e-05
1.36206e-05
1.36285e-05
1.36361e-05
1.36433e-05
1.365e-05
1.36561e-05
1.36615e-05
1.36663e-05
1.36703e-05
1.36737e-05
1.36764e-05
1.36785e-05
1.368e-05
1.36808e-05
1.36809e-05
1.36803e-05
1.36789e-05
1.36767e-05
1.36737e-05
1.36697e-05
1.36648e-05
1.3659e-05
1.36521e-05
1.36442e-05
1.36353e-05
1.36253e-05
1.36142e-05
1.36021e-05
1.35889e-05
1.35746e-05
1.35594e-05
1.35433e-05
1.35263e-05
1.35086e-05
1.34904e-05
1.34717e-05
1.34526e-05
1.34334e-05
1.34143e-05
1.33958e-05
1.3378e-05
1.3361e-05
1.33444e-05
1.33289e-05
1.33159e-05
1.3307e-05
1.3303e-05
1.33014e-05
1.32995e-05
1.32951e-05
1.32915e-05
1.32992e-05
1.33257e-05
1.3378e-05
1.34496e-05
1.35201e-05
1.35733e-05
1.68397e-05
1.687e-05
1.68987e-05
1.69258e-05
1.69515e-05
1.6976e-05
1.69995e-05
1.70223e-05
1.70447e-05
1.70666e-05
1.70879e-05
1.71085e-05
1.71281e-05
1.71468e-05
1.71642e-05
1.71806e-05
1.71958e-05
1.72102e-05
1.72239e-05
1.7237e-05
1.72495e-05
1.72617e-05
1.72737e-05
1.72856e-05
1.72973e-05
1.73089e-05
1.73202e-05
1.73311e-05
1.73415e-05
1.73512e-05
1.73601e-05
1.73681e-05
1.73752e-05
1.73814e-05
1.73867e-05
1.73911e-05
1.73947e-05
1.73974e-05
1.73993e-05
1.74004e-05
1.74004e-05
1.73995e-05
1.73975e-05
1.73944e-05
1.73902e-05
1.73847e-05
1.7378e-05
1.73699e-05
1.73605e-05
1.73497e-05
1.73375e-05
1.73238e-05
1.73087e-05
1.72922e-05
1.72744e-05
1.72552e-05
1.72347e-05
1.72131e-05
1.71905e-05
1.71671e-05
1.71431e-05
1.71186e-05
1.70938e-05
1.70692e-05
1.70451e-05
1.70219e-05
1.69997e-05
1.69782e-05
1.6958e-05
1.69407e-05
1.6928e-05
1.69207e-05
1.69168e-05
1.69135e-05
1.69087e-05
1.69054e-05
1.69135e-05
1.69414e-05
1.69958e-05
1.70703e-05
1.71468e-05
1.72089e-05
2.05603e-05
2.0602e-05
2.06416e-05
2.06788e-05
2.0714e-05
2.07474e-05
2.07793e-05
2.08103e-05
2.08404e-05
2.08698e-05
2.08983e-05
2.09258e-05
2.0952e-05
2.09768e-05
2.1e-05
2.10218e-05
2.10422e-05
2.10614e-05
2.10797e-05
2.10972e-05
2.1114e-05
2.11305e-05
2.11467e-05
2.11628e-05
2.11788e-05
2.11946e-05
2.12101e-05
2.12251e-05
2.12395e-05
2.12529e-05
2.12652e-05
2.12765e-05
2.12865e-05
2.12954e-05
2.13032e-05
2.13099e-05
2.13154e-05
2.132e-05
2.13235e-05
2.13259e-05
2.13271e-05
2.13271e-05
2.13259e-05
2.13232e-05
2.13191e-05
2.13135e-05
2.13063e-05
2.12974e-05
2.12869e-05
2.12745e-05
2.12604e-05
2.12443e-05
2.12264e-05
2.12067e-05
2.11852e-05
2.1162e-05
2.11371e-05
2.11106e-05
2.10829e-05
2.10541e-05
2.10244e-05
2.0994e-05
2.09632e-05
2.09324e-05
2.09022e-05
2.08729e-05
2.08446e-05
2.08175e-05
2.0792e-05
2.07695e-05
2.07518e-05
2.07397e-05
2.0732e-05
2.07261e-05
2.07204e-05
2.07172e-05
2.0725e-05
2.07521e-05
2.08038e-05
2.08739e-05
2.09493e-05
2.10152e-05
2.4414e-05
2.447e-05
2.45231e-05
2.45729e-05
2.46198e-05
2.46642e-05
2.47065e-05
2.47473e-05
2.47868e-05
2.48251e-05
2.48622e-05
2.48978e-05
2.49317e-05
2.49637e-05
2.49939e-05
2.50221e-05
2.50485e-05
2.50734e-05
2.50971e-05
2.51198e-05
2.51417e-05
2.51631e-05
2.51844e-05
2.52055e-05
2.52265e-05
2.52473e-05
2.52677e-05
2.52876e-05
2.53066e-05
2.53244e-05
2.53408e-05
2.53559e-05
2.53695e-05
2.53816e-05
2.53923e-05
2.54017e-05
2.54098e-05
2.54166e-05
2.54221e-05
2.54264e-05
2.54293e-05
2.54307e-05
2.54307e-05
2.5429e-05
2.54256e-05
2.54204e-05
2.54133e-05
2.54041e-05
2.53929e-05
2.53795e-05
2.53639e-05
2.53459e-05
2.53255e-05
2.53029e-05
2.52779e-05
2.52508e-05
2.52215e-05
2.51902e-05
2.51572e-05
2.51227e-05
2.5087e-05
2.50503e-05
2.5013e-05
2.49755e-05
2.49385e-05
2.49022e-05
2.48672e-05
2.48335e-05
2.48017e-05
2.4773e-05
2.4749e-05
2.47303e-05
2.47168e-05
2.47066e-05
2.46986e-05
2.46948e-05
2.47012e-05
2.47251e-05
2.47694e-05
2.4828e-05
2.48936e-05
2.49563e-05
2.83634e-05
2.84371e-05
2.85067e-05
2.85721e-05
2.86333e-05
2.86909e-05
2.87456e-05
2.87981e-05
2.88487e-05
2.88975e-05
2.89445e-05
2.89895e-05
2.90322e-05
2.90727e-05
2.91107e-05
2.91463e-05
2.91797e-05
2.92111e-05
2.9241e-05
2.92696e-05
2.92973e-05
2.93244e-05
2.93514e-05
2.93782e-05
2.94049e-05
2.94313e-05
2.94572e-05
2.94824e-05
2.95065e-05
2.95292e-05
2.95502e-05
2.95694e-05
2.95869e-05
2.96026e-05
2.96166e-05
2.9629e-05
2.96399e-05
2.96493e-05
2.96572e-05
2.96636e-05
2.96686e-05
2.96719e-05
2.96735e-05
2.96733e-05
2.96712e-05
2.9667e-05
2.96606e-05
2.96519e-05
2.96407e-05
2.96269e-05
2.96103e-05
2.9591e-05
2.95687e-05
2.95436e-05
2.95156e-05
2.94849e-05
2.94514e-05
2.94155e-05
2.93773e-05
2.9337e-05
2.92952e-05
2.92519e-05
2.92077e-05
2.9163e-05
2.91185e-05
2.90745e-05
2.90317e-05
2.89904e-05
2.89513e-05
2.89152e-05
2.88832e-05
2.8856e-05
2.88343e-05
2.88172e-05
2.88048e-05
2.87987e-05
2.88022e-05
2.88204e-05
2.88531e-05
2.88935e-05
2.89407e-05
2.89911e-05
3.23682e-05
3.24634e-05
3.25531e-05
3.2637e-05
3.27153e-05
3.27887e-05
3.2858e-05
3.29242e-05
3.29876e-05
3.30485e-05
3.31068e-05
3.31623e-05
3.3215e-05
3.32649e-05
3.33117e-05
3.33557e-05
3.33969e-05
3.34356e-05
3.34724e-05
3.35076e-05
3.35417e-05
3.35751e-05
3.36082e-05
3.36411e-05
3.36738e-05
3.37062e-05
3.3738e-05
3.37687e-05
3.37981e-05
3.38257e-05
3.38512e-05
3.38746e-05
3.3896e-05
3.39152e-05
3.39325e-05
3.39479e-05
3.39616e-05
3.39735e-05
3.39839e-05
3.39926e-05
3.39997e-05
3.40051e-05
3.40087e-05
3.40104e-05
3.40101e-05
3.40075e-05
3.40025e-05
3.3995e-05
3.39846e-05
3.39712e-05
3.39546e-05
3.39346e-05
3.39111e-05
3.38842e-05
3.38538e-05
3.38201e-05
3.3783e-05
3.37427e-05
3.36995e-05
3.36537e-05
3.36057e-05
3.35558e-05
3.35044e-05
3.34522e-05
3.33995e-05
3.33471e-05
3.32955e-05
3.32455e-05
3.31978e-05
3.31528e-05
3.31113e-05
3.30735e-05
3.30408e-05
3.30138e-05
3.29938e-05
3.29828e-05
3.2981e-05
3.29908e-05
3.30085e-05
3.30253e-05
3.30459e-05
3.30741e-05
3.3125e-05
3.63862e-05
3.65071e-05
3.66208e-05
3.67268e-05
3.68252e-05
3.69169e-05
3.70032e-05
3.70851e-05
3.71632e-05
3.72377e-05
3.73086e-05
3.73759e-05
3.74396e-05
3.74997e-05
3.75563e-05
3.76094e-05
3.76591e-05
3.77059e-05
3.77502e-05
3.77925e-05
3.78333e-05
3.78732e-05
3.79126e-05
3.79518e-05
3.79906e-05
3.80288e-05
3.80661e-05
3.81021e-05
3.81363e-05
3.81683e-05
3.81979e-05
3.8225e-05
3.82496e-05
3.82719e-05
3.82919e-05
3.83098e-05
3.83257e-05
3.83397e-05
3.83521e-05
3.83627e-05
3.83717e-05
3.83789e-05
3.83846e-05
3.83884e-05
3.83903e-05
3.83899e-05
3.8387e-05
3.83813e-05
3.83725e-05
3.83604e-05
3.83445e-05
3.83248e-05
3.83011e-05
3.82733e-05
3.82413e-05
3.82052e-05
3.81651e-05
3.81212e-05
3.80736e-05
3.80226e-05
3.79686e-05
3.79121e-05
3.78536e-05
3.77935e-05
3.77324e-05
3.76708e-05
3.76097e-05
3.75498e-05
3.74921e-05
3.74368e-05
3.73839e-05
3.73334e-05
3.72871e-05
3.72467e-05
3.72153e-05
3.71956e-05
3.71852e-05
3.71835e-05
3.71831e-05
3.71724e-05
3.71595e-05
3.71559e-05
3.71713e-05
4.03751e-05
4.05265e-05
4.06687e-05
4.08005e-05
4.09224e-05
4.10353e-05
4.1141e-05
4.12408e-05
4.13354e-05
4.14251e-05
4.15099e-05
4.159e-05
4.16655e-05
4.17369e-05
4.1804e-05
4.1867e-05
4.19259e-05
4.19811e-05
4.20333e-05
4.20829e-05
4.21305e-05
4.21769e-05
4.22224e-05
4.22674e-05
4.23117e-05
4.2355e-05
4.23971e-05
4.24373e-05
4.24752e-05
4.25104e-05
4.25428e-05
4.25722e-05
4.25988e-05
4.26228e-05
4.26442e-05
4.26633e-05
4.26802e-05
4.26952e-05
4.27084e-05
4.27199e-05
4.27299e-05
4.27384e-05
4.27455e-05
4.27513e-05
4.27554e-05
4.27574e-05
4.27571e-05
4.27539e-05
4.27475e-05
4.27373e-05
4.27232e-05
4.27046e-05
4.26815e-05
4.26537e-05
4.2621e-05
4.25835e-05
4.25413e-05
4.24945e-05
4.24431e-05
4.23876e-05
4.23282e-05
4.22655e-05
4.21999e-05
4.2132e-05
4.20622e-05
4.19911e-05
4.19196e-05
4.18489e-05
4.17799e-05
4.17127e-05
4.16469e-05
4.15817e-05
4.1519e-05
4.14619e-05
4.14148e-05
4.13817e-05
4.13586e-05
4.13417e-05
4.13201e-05
4.12791e-05
4.12279e-05
4.11843e-05
4.11587e-05
4.4295e-05
4.44826e-05
4.46583e-05
4.48206e-05
4.49698e-05
4.51069e-05
4.52346e-05
4.53546e-05
4.54677e-05
4.55742e-05
4.56742e-05
4.57681e-05
4.58564e-05
4.59396e-05
4.60179e-05
4.60913e-05
4.61598e-05
4.62239e-05
4.62841e-05
4.63409e-05
4.63951e-05
4.64474e-05
4.64983e-05
4.65481e-05
4.65966e-05
4.66436e-05
4.66887e-05
4.67312e-05
4.67708e-05
4.68072e-05
4.684e-05
4.68696e-05
4.68959e-05
4.69192e-05
4.69398e-05
4.69579e-05
4.69737e-05
4.69875e-05
4.69995e-05
4.70101e-05
4.70193e-05
4.70276e-05
4.70351e-05
4.7042e-05
4.70479e-05
4.70522e-05
4.70545e-05
4.70541e-05
4.70504e-05
4.70428e-05
4.70309e-05
4.70142e-05
4.69923e-05
4.69652e-05
4.69327e-05
4.68947e-05
4.68512e-05
4.68023e-05
4.6748e-05
4.66886e-05
4.66245e-05
4.6556e-05
4.64838e-05
4.64083e-05
4.63298e-05
4.6249e-05
4.61667e-05
4.60843e-05
4.6003e-05
4.59226e-05
4.58423e-05
4.57606e-05
4.56794e-05
4.56023e-05
4.55352e-05
4.54837e-05
4.54428e-05
4.54065e-05
4.53607e-05
4.52874e-05
4.51951e-05
4.51052e-05
4.50328e-05
4.81118e-05
4.83422e-05
4.85578e-05
4.87558e-05
4.89369e-05
4.91018e-05
4.92545e-05
4.93973e-05
4.95311e-05
4.96562e-05
4.97728e-05
4.98815e-05
4.99833e-05
5.0079e-05
5.0169e-05
5.02533e-05
5.03318e-05
5.04048e-05
5.04728e-05
5.05364e-05
5.05964e-05
5.06535e-05
5.07084e-05
5.07613e-05
5.0812e-05
5.08604e-05
5.09058e-05
5.09479e-05
5.09861e-05
5.10203e-05
5.10504e-05
5.10766e-05
5.10991e-05
5.11184e-05
5.11347e-05
5.11483e-05
5.11596e-05
5.11689e-05
5.11766e-05
5.11831e-05
5.11889e-05
5.11945e-05
5.12004e-05
5.12069e-05
5.12134e-05
5.12193e-05
5.12236e-05
5.12255e-05
5.12243e-05
5.12192e-05
5.12095e-05
5.11946e-05
5.11743e-05
5.11482e-05
5.11161e-05
5.1078e-05
5.10338e-05
5.09834e-05
5.09269e-05
5.08642e-05
5.07959e-05
5.07222e-05
5.06437e-05
5.05609e-05
5.04741e-05
5.03835e-05
5.02903e-05
5.01957e-05
5.01012e-05
5.00065e-05
4.99105e-05
4.98112e-05
4.97096e-05
4.96099e-05
4.95191e-05
4.94442e-05
4.93803e-05
4.93197e-05
4.92463e-05
4.91394e-05
4.90049e-05
4.88655e-05
4.87405e-05
5.18011e-05
5.20821e-05
5.23452e-05
5.25859e-05
5.28048e-05
5.30019e-05
5.31833e-05
5.3352e-05
5.35093e-05
5.36552e-05
5.37901e-05
5.39149e-05
5.4031e-05
5.41398e-05
5.4242e-05
5.43374e-05
5.4426e-05
5.45077e-05
5.4583e-05
5.46525e-05
5.47169e-05
5.47771e-05
5.48339e-05
5.48874e-05
5.49375e-05
5.49839e-05
5.50261e-05
5.50637e-05
5.50963e-05
5.51239e-05
5.51466e-05
5.51647e-05
5.51787e-05
5.5189e-05
5.51961e-05
5.52004e-05
5.52023e-05
5.52023e-05
5.5201e-05
5.51992e-05
5.51976e-05
5.51971e-05
5.51984e-05
5.52018e-05
5.52069e-05
5.52124e-05
5.52171e-05
5.522e-05
5.522e-05
5.52161e-05
5.52074e-05
5.51934e-05
5.51737e-05
5.51478e-05
5.51157e-05
5.5077e-05
5.50318e-05
5.49799e-05
5.49212e-05
5.48555e-05
5.47831e-05
5.47044e-05
5.462e-05
5.45301e-05
5.4435e-05
5.43349e-05
5.42306e-05
5.41236e-05
5.40153e-05
5.39057e-05
5.37932e-05
5.36753e-05
5.35524e-05
5.34285e-05
5.3311e-05
5.32085e-05
5.31166e-05
5.30269e-05
5.29226e-05
5.27809e-05
5.26045e-05
5.24149e-05
5.22339e-05
5.5353e-05
5.56933e-05
5.60137e-05
5.63061e-05
5.65707e-05
5.6806e-05
5.7021e-05
5.722e-05
5.74043e-05
5.75741e-05
5.77296e-05
5.78721e-05
5.80038e-05
5.81265e-05
5.82413e-05
5.83481e-05
5.84467e-05
5.85367e-05
5.86184e-05
5.86922e-05
5.87592e-05
5.88202e-05
5.88761e-05
5.89269e-05
5.89726e-05
5.90127e-05
5.9047e-05
5.9075e-05
5.90966e-05
5.91119e-05
5.91213e-05
5.91252e-05
5.91243e-05
5.91192e-05
5.91105e-05
5.90988e-05
5.90847e-05
5.9069e-05
5.90526e-05
5.90367e-05
5.90224e-05
5.9011e-05
5.90035e-05
5.90001e-05
5.90001e-05
5.90021e-05
5.90041e-05
5.90049e-05
5.90031e-05
5.89974e-05
5.8987e-05
5.89711e-05
5.89493e-05
5.89213e-05
5.88869e-05
5.88457e-05
5.87978e-05
5.87429e-05
5.86808e-05
5.86111e-05
5.85339e-05
5.84497e-05
5.83588e-05
5.82614e-05
5.81578e-05
5.80479e-05
5.79325e-05
5.78129e-05
5.76905e-05
5.75654e-05
5.7436e-05
5.72993e-05
5.71549e-05
5.70061e-05
5.68605e-05
5.67275e-05
5.66036e-05
5.64808e-05
5.63424e-05
5.61653e-05
5.59483e-05
5.57101e-05
5.54727e-05
5.87793e-05
5.91863e-05
5.95753e-05
5.99312e-05
6.02526e-05
6.05346e-05
6.07905e-05
6.10261e-05
6.12429e-05
6.14411e-05
6.16209e-05
6.1784e-05
6.19331e-05
6.2071e-05
6.21992e-05
6.2318e-05
6.24265e-05
6.25242e-05
6.2611e-05
6.26875e-05
6.27546e-05
6.28134e-05
6.28649e-05
6.29091e-05
6.29457e-05
6.29746e-05
6.29952e-05
6.30075e-05
6.30114e-05
6.30074e-05
6.29961e-05
6.29781e-05
6.29545e-05
6.29258e-05
6.2893e-05
6.28568e-05
6.28182e-05
6.27785e-05
6.27392e-05
6.27019e-05
6.26684e-05
6.26401e-05
6.26182e-05
6.26027e-05
6.25926e-05
6.25857e-05
6.25798e-05
6.25731e-05
6.2564e-05
6.25511e-05
6.25334e-05
6.25103e-05
6.24812e-05
6.2446e-05
6.24045e-05
6.23564e-05
6.23017e-05
6.22401e-05
6.21711e-05
6.20945e-05
6.201e-05
6.19179e-05
6.18186e-05
6.17121e-05
6.15986e-05
6.1478e-05
6.13506e-05
6.12177e-05
6.10806e-05
6.09395e-05
6.07929e-05
6.06375e-05
6.0472e-05
6.02989e-05
6.01251e-05
5.99605e-05
5.98027e-05
5.96444e-05
5.94701e-05
5.92575e-05
5.90024e-05
5.87193e-05
5.84282e-05
5.81312e-05
6.25982e-05
6.30666e-05
6.35004e-05
6.38941e-05
6.42351e-05
6.45429e-05
6.48248e-05
6.50826e-05
6.53166e-05
6.55268e-05
6.57153e-05
6.58856e-05
6.60415e-05
6.61853e-05
6.63171e-05
6.64361e-05
6.65413e-05
6.66322e-05
6.67094e-05
6.6774e-05
6.68273e-05
6.68703e-05
6.69033e-05
6.69259e-05
6.69377e-05
6.69384e-05
6.69279e-05
6.69065e-05
6.6875e-05
6.68343e-05
6.67854e-05
6.67294e-05
6.66674e-05
6.66003e-05
6.65293e-05
6.6456e-05
6.63823e-05
6.63107e-05
6.62436e-05
6.61831e-05
6.61308e-05
6.60874e-05
6.60527e-05
6.6025e-05
6.60015e-05
6.59795e-05
6.59567e-05
6.59315e-05
6.59023e-05
6.58683e-05
6.58288e-05
6.57835e-05
6.57322e-05
6.5675e-05
6.56117e-05
6.55423e-05
6.54667e-05
6.53842e-05
6.52943e-05
6.51968e-05
6.50917e-05
6.49793e-05
6.48597e-05
6.47328e-05
6.45984e-05
6.44566e-05
6.43085e-05
6.41551e-05
6.39968e-05
6.38322e-05
6.36579e-05
6.3472e-05
6.32759e-05
6.30754e-05
6.28801e-05
6.26886e-05
6.24947e-05
6.22851e-05
6.20392e-05
6.17502e-05
6.14278e-05
6.10887e-05
6.07498e-05
6.04488e-05
6.02416e-05
6.6005e-05
6.65577e-05
6.70842e-05
6.75704e-05
6.79875e-05
6.83637e-05
6.87071e-05
6.90193e-05
6.93008e-05
6.95518e-05
6.97746e-05
6.99734e-05
7.01532e-05
7.0317e-05
7.04655e-05
7.05974e-05
7.07113e-05
7.08063e-05
7.08829e-05
7.09427e-05
7.09873e-05
7.10182e-05
7.10355e-05
7.10389e-05
7.10278e-05
7.10018e-05
7.09611e-05
7.09062e-05
7.08382e-05
7.07586e-05
7.06685e-05
7.05694e-05
7.04626e-05
7.03496e-05
7.0232e-05
7.01122e-05
6.99934e-05
6.98792e-05
6.9773e-05
6.96771e-05
6.95926e-05
6.95194e-05
6.94561e-05
6.94004e-05
6.93491e-05
6.92989e-05
6.92472e-05
6.91925e-05
6.91332e-05
6.90688e-05
6.89988e-05
6.8923e-05
6.88415e-05
6.87548e-05
6.86627e-05
6.85655e-05
6.84632e-05
6.83551e-05
6.82407e-05
6.81195e-05
6.79915e-05
6.7857e-05
6.7716e-05
6.75683e-05
6.74136e-05
6.72518e-05
6.70836e-05
6.691e-05
6.67314e-05
6.65465e-05
6.6352e-05
6.61455e-05
6.59275e-05
6.57023e-05
6.54789e-05
6.52565e-05
6.50301e-05
6.4789e-05
6.4515e-05
6.41993e-05
6.38467e-05
6.34687e-05
6.30869e-05
6.27369e-05
6.24478e-05
6.95398e-05
7.01672e-05
7.07958e-05
7.13977e-05
7.19135e-05
7.23815e-05
7.2809e-05
7.31964e-05
7.35442e-05
7.38529e-05
7.41251e-05
7.43658e-05
7.4581e-05
7.47749e-05
7.49484e-05
7.50999e-05
7.52272e-05
7.53293e-05
7.54066e-05
7.54612e-05
7.54956e-05
7.55117e-05
7.551e-05
7.54901e-05
7.54511e-05
7.53926e-05
7.53146e-05
7.5218e-05
7.51045e-05
7.49758e-05
7.48338e-05
7.46801e-05
7.45165e-05
7.43451e-05
7.41685e-05
7.39901e-05
7.38148e-05
7.36481e-05
7.34939e-05
7.33539e-05
7.3228e-05
7.31145e-05
7.30106e-05
7.29131e-05
7.28184e-05
7.27232e-05
7.26246e-05
7.25213e-05
7.24121e-05
7.22969e-05
7.21757e-05
7.20485e-05
7.1916e-05
7.17787e-05
7.16372e-05
7.14917e-05
7.13426e-05
7.11896e-05
7.10319e-05
7.08691e-05
7.07013e-05
7.05287e-05
7.03515e-05
7.01693e-05
6.99818e-05
6.97887e-05
6.95905e-05
6.93881e-05
6.91818e-05
6.89707e-05
6.87517e-05
6.85221e-05
6.82813e-05
6.80326e-05
6.77837e-05
6.75344e-05
6.72814e-05
6.70167e-05
6.67244e-05
6.63938e-05
6.60244e-05
6.56216e-05
6.52053e-05
6.48107e-05
6.4461e-05
7.34225e-05
7.40883e-05
7.48137e-05
7.55532e-05
7.61943e-05
7.67862e-05
7.73301e-05
7.78229e-05
7.82652e-05
7.8658e-05
7.90042e-05
7.93094e-05
7.95808e-05
7.98236e-05
8.00393e-05
8.02256e-05
8.0379e-05
8.04977e-05
8.05825e-05
8.06363e-05
8.06628e-05
8.0665e-05
8.06439e-05
8.05992e-05
8.05298e-05
8.04348e-05
8.03144e-05
8.01695e-05
8.00023e-05
7.98153e-05
7.96109e-05
7.93915e-05
7.91595e-05
7.89179e-05
7.86706e-05
7.8423e-05
7.81818e-05
7.79542e-05
7.77442e-05
7.75518e-05
7.73745e-05
7.72079e-05
7.70477e-05
7.68901e-05
7.67317e-05
7.65689e-05
7.63993e-05
7.62216e-05
7.60358e-05
7.58421e-05
7.56412e-05
7.54339e-05
7.5221e-05
7.50036e-05
7.47827e-05
7.45591e-05
7.43335e-05
7.41063e-05
7.38766e-05
7.36441e-05
7.34092e-05
7.31725e-05
7.29343e-05
7.26943e-05
7.24523e-05
7.22077e-05
7.19611e-05
7.17132e-05
7.14646e-05
7.12147e-05
7.09608e-05
7.07e-05
7.04311e-05
7.01562e-05
6.98817e-05
6.96086e-05
6.93358e-05
6.90585e-05
6.87623e-05
6.84341e-05
6.80674e-05
6.76604e-05
6.72283e-05
6.68094e-05
6.64325e-05
7.80028e-05
7.86325e-05
7.94256e-05
8.03169e-05
8.11139e-05
8.18746e-05
8.25814e-05
8.32227e-05
8.37998e-05
8.43155e-05
8.47734e-05
8.51793e-05
8.55413e-05
8.58659e-05
8.61551e-05
8.64055e-05
8.66114e-05
8.67692e-05
8.68794e-05
8.69461e-05
8.69749e-05
8.69706e-05
8.69353e-05
8.68692e-05
8.67709e-05
8.66394e-05
8.64743e-05
8.62769e-05
8.60499e-05
8.57965e-05
8.55205e-05
8.52253e-05
8.49147e-05
8.45929e-05
8.4266e-05
8.39416e-05
8.36283e-05
8.3334e-05
8.30615e-05
8.28077e-05
8.25663e-05
8.23301e-05
8.20932e-05
8.18516e-05
8.16029e-05
8.13439e-05
8.10724e-05
8.07877e-05
8.04908e-05
8.01829e-05
7.98656e-05
7.95403e-05
7.92082e-05
7.8871e-05
7.85303e-05
7.81876e-05
7.78442e-05
7.75013e-05
7.71583e-05
7.68148e-05
7.64718e-05
7.6131e-05
7.57932e-05
7.54585e-05
7.51265e-05
7.4797e-05
7.44704e-05
7.4148e-05
7.38307e-05
7.35186e-05
7.32093e-05
7.28999e-05
7.25884e-05
7.22763e-05
7.19693e-05
7.16694e-05
7.13805e-05
7.11019e-05
7.08192e-05
7.05148e-05
7.01753e-05
6.97909e-05
6.93727e-05
6.8968e-05
6.86217e-05
6.82727e-05
6.80511e-05
6.80153e-05
8.38399e-05
8.43186e-05
8.51388e-05
8.61951e-05
8.71981e-05
8.82094e-05
8.91665e-05
9.00339e-05
9.08149e-05
9.15201e-05
9.21565e-05
9.273e-05
9.32479e-05
9.37169e-05
9.41394e-05
9.45111e-05
9.48227e-05
9.50664e-05
9.52405e-05
9.53499e-05
9.5403e-05
9.54077e-05
9.53685e-05
9.52865e-05
9.5161e-05
9.49906e-05
9.4775e-05
9.45157e-05
9.42159e-05
9.38806e-05
9.35155e-05
9.31262e-05
9.27188e-05
9.23003e-05
9.18793e-05
9.14657e-05
9.10694e-05
9.06963e-05
9.0346e-05
9.00113e-05
8.9682e-05
8.93482e-05
8.90029e-05
8.86425e-05
8.82659e-05
8.78711e-05
8.74566e-05
8.7022e-05
8.65691e-05
8.61005e-05
8.56187e-05
8.51256e-05
8.46233e-05
8.41139e-05
8.35995e-05
8.30829e-05
8.2566e-05
8.20507e-05
8.15367e-05
8.10237e-05
8.05139e-05
8.00107e-05
7.9516e-05
7.90306e-05
7.85544e-05
7.80876e-05
7.76311e-05
7.71871e-05
7.67581e-05
7.63453e-05
7.59465e-05
7.55577e-05
7.5176e-05
7.48024e-05
7.44428e-05
7.40994e-05
7.37868e-05
7.35125e-05
7.32596e-05
7.30001e-05
7.27126e-05
7.23787e-05
7.20102e-05
7.16779e-05
7.1457e-05
7.13414e-05
7.12287e-05
7.15335e-05
9.47718e-05
9.63216e-05
9.79871e-05
9.96223e-05
0.000101125
0.000102465
0.000103647
0.000104683
0.00010559
0.000106391
0.000107109
0.000107756
0.000108336
0.00010884
0.000109255
0.000109574
0.000109799
0.000109942
0.000110012
0.00011002
0.000109967
0.000109853
0.000109678
0.000109439
0.00010914
0.000108782
0.000108373
0.000107917
0.000107421
0.00010689
0.000106328
0.000105739
0.00010513
0.000104505
0.000103873
0.000103235
0.000102592
0.000101943
0.000101285
0.000100614
9.99291e-05
9.92273e-05
9.85079e-05
9.77715e-05
9.70188e-05
9.62509e-05
9.54691e-05
9.46769e-05
9.38772e-05
9.30726e-05
9.2265e-05
9.1457e-05
9.06526e-05
8.98512e-05
8.9054e-05
8.82611e-05
8.74741e-05
8.66971e-05
8.5934e-05
8.51876e-05
8.44594e-05
8.375e-05
8.30601e-05
8.23922e-05
8.17512e-05
8.11441e-05
8.05751e-05
8.00392e-05
7.95277e-05
7.9034e-05
7.85611e-05
7.81131e-05
7.76833e-05
7.73091e-05
7.70232e-05
7.68123e-05
7.66229e-05
7.64143e-05
7.61648e-05
7.58927e-05
7.57307e-05
7.58128e-05
7.62526e-05
7.71484e-05
7.84073e-05
0.000107814
0.000109818
0.000112163
0.000114598
0.000116899
0.000118961
0.000120777
0.000122362
0.000123738
0.000124939
0.000126001
0.000126955
0.000127823
0.000128605
0.000129285
0.000129846
0.000130285
0.000130607
0.000130827
0.000130957
0.000131001
0.000130961
0.000130834
0.000130622
0.000130326
0.00012995
0.0001295
0.000128984
0.000128411
0.000127785
0.00012711
0.000126388
0.000125623
0.000124818
0.000123977
0.000123103
0.000122203
0.00012128
0.000120336
0.000119372
0.000118387
0.000117379
0.000116348
0.000115297
0.000114227
0.000113139
0.000112036
0.000110917
0.000109789
0.000108655
0.000107518
0.000106379
0.00010524
0.000104103
0.000102971
0.00010184
0.000100715
9.96019e-05
9.85066e-05
9.74327e-05
9.63838e-05
9.53619e-05
9.43672e-05
9.34014e-05
9.24699e-05
9.15799e-05
9.07375e-05
8.99419e-05
8.91864e-05
8.8466e-05
8.77808e-05
8.71496e-05
8.65917e-05
8.61502e-05
8.58486e-05
8.56387e-05
8.54559e-05
8.52603e-05
8.50175e-05
8.47619e-05
8.46843e-05
8.4965e-05
8.57392e-05
8.71165e-05
8.88765e-05
8.84946e-05
8.36714e-05
7.45801e-05
6.72959e-05
6.81088e-05
0.000125184
0.000127379
0.000130291
0.000133595
0.000136905
0.000139932
0.000142607
0.000144961
0.000147012
0.000148783
0.000150332
0.000151699
0.000152932
0.000154062
0.000155086
0.000155983
0.000156736
0.000157341
0.000157809
0.000158152
0.000158378
0.000158487
0.000158477
0.00015835
0.000158111
0.000157763
0.000157314
0.000156776
0.000156157
0.000155465
0.000154707
0.000153883
0.000152994
0.000152043
0.000151031
0.000149962
0.000148844
0.000147682
0.000146486
0.000145258
0.000143998
0.000142705
0.00014138
0.000140026
0.000138644
0.000137236
0.000135806
0.000134355
0.000132887
0.000131407
0.000129919
0.000128426
0.000126929
0.000125429
0.00012393
0.000122434
0.000120938
0.000119449
0.000117978
0.00011653
0.00011511
0.000113722
0.000112365
0.00011104
0.000109755
0.00010852
0.000107343
0.000106224
0.000105155
0.00010413
0.000103151
0.000102248
0.000101457
0.000100811
0.000100343
9.99891e-05
9.96715e-05
9.93449e-05
9.89785e-05
9.86171e-05
9.84798e-05
9.87609e-05
9.95878e-05
0.000101036
0.000102826
0.000102361
9.65608e-05
8.46576e-05
7.29199e-05
7.05276e-05
0.000147238
0.000149167
0.00015231
0.000156385
0.00016086
0.000165155
0.000168975
0.00017235
0.000175351
0.000177954
0.000180166
0.000182054
0.000183713
0.000185218
0.000186606
0.000187877
0.000189016
0.00019
0.000190824
0.00019149
0.000192
0.000192353
0.000192545
0.000192579
0.00019246
0.000192198
0.000191801
0.000191282
0.000190655
0.000189931
0.000189118
0.000188218
0.000187232
0.000186161
0.000185004
0.000183765
0.000182451
0.000181071
0.000179638
0.000178159
0.000176635
0.000175066
0.000173452
0.000171795
0.0001701
0.000168369
0.000166605
0.000164812
0.000162994
0.000161154
0.000159299
0.000157432
0.000155555
0.000153669
0.000151779
0.000149888
0.000147995
0.000146106
0.00014423
0.000142376
0.000140548
0.000138748
0.000136977
0.000135239
0.000133542
0.000131899
0.000130321
0.000128807
0.000127349
0.000125939
0.000124579
0.00012331
0.000122176
0.000121196
0.000120406
0.000119745
0.000119139
0.00011854
0.000117919
0.000117323
0.000116949
0.000116977
0.00011751
0.000118577
0.000119833
0.000118881
0.000112137
9.80097e-05
8.14694e-05
7.42442e-05
0.000175023
0.000175962
0.000178634
0.000182913
0.000188404
0.000194243
0.000199576
0.000204229
0.000208433
0.000212219
0.00021545
0.000218137
0.00022039
0.000222322
0.00022399
0.000225403
0.000226564
0.000227494
0.000228228
0.000228802
0.000229233
0.000229515
0.000229639
0.000229601
0.000229403
0.000229055
0.000228564
0.000227943
0.000227203
0.000226359
0.000225418
0.000224383
0.00022325
0.000222019
0.000220687
0.000219255
0.00021773
0.000216122
0.000214445
0.00021271
0.000210919
0.000209071
0.000207167
0.000205211
0.000203206
0.000201155
0.000199061
0.000196928
0.000194762
0.000192568
0.000190345
0.000188102
0.000185843
0.000183569
0.000181283
0.000178989
0.000176689
0.000174391
0.000172101
0.000169827
0.000167573
0.000165343
0.000163138
0.000160963
0.000158827
0.000156745
0.000154727
0.000152774
0.000150876
0.000149027
0.000147231
0.000145526
0.00014396
0.000142547
0.000141318
0.00014022
0.000139185
0.000138174
0.00013716
0.000136196
0.000135434
0.000135035
0.000135078
0.000135554
0.00013612
0.000134676
0.000127644
0.000112722
9.25455e-05
7.98509e-05
0.000210218
0.000209174
0.000210289
0.00021369
0.000219426
0.000226854
0.000234278
0.000240554
0.000245621
0.00024974
0.000253099
0.000255849
0.000258129
0.000260064
0.000261726
0.000263114
0.000264225
0.000265086
0.000265745
0.000266255
0.000266641
0.000266894
0.000266991
0.000266917
0.000266673
0.000266269
0.000265715
0.00026502
0.000264196
0.000263258
0.000262216
0.000261071
0.000259821
0.000258459
0.00025698
0.000255383
0.000253673
0.00025186
0.000249962
0.000247989
0.000245949
0.000243841
0.000241665
0.000239424
0.000237123
0.000234764
0.000232351
0.000229889
0.000227383
0.000224838
0.000222259
0.000219645
0.000217007
0.000214346
0.000211664
0.000208966
0.000206255
0.000203539
0.000200825
0.000198118
0.000195426
0.000192751
0.000190097
0.000187467
0.000184873
0.000182327
0.000179841
0.000177417
0.000175044
0.000172718
0.000170442
0.000168254
0.000166201
0.000164296
0.000162563
0.000160956
0.000159416
0.000157908
0.000156414
0.00015498
0.000153735
0.000152814
0.000152273
0.00015208