/*--------------------------------*- C++ -*----------------------------------*\
| =========                 |                                                 |
| \\      /  F ield         | OpenFOAM: The Open Source CFD Toolbox           |
|  \\    /   O peration     | Version:  2412                                  |
|   \\  /    A nd           | Website:  www.openfoam.com                      |
|    \\/     M anipulation  |                                                 |
\*---------------------------------------------------------------------------*/
FoamFile
{
    version     2.0;
    format      ascii;
    arch        "LSB;label=32;scalar=64";
    class       volScalarField;
    location    "260";
    object      nuTilda;
}
// * * * * * * * * * * * * * * * * * * * * * * * * * * * * * * * * * * * * * //

dimensions      [0 2 -1 0 0 0 0];

internalField   nonuniform List<scalar> 
8659
(
1.47039e-06
1.34117e-06
1.15e-06
8.76448e-07
5.28987e-07
1.12378e-06
1.89625e-06
2.59127e-06
3.05241e-06
3.25992e-06
3.19838e-06
2.9491e-06
2.6521e-06
2.41774e-06
2.24748e-06
2.1219e-06
2.02622e-06
1.94956e-06
1.88733e-06
1.83678e-06
1.79508e-06
1.76029e-06
1.73094e-06
1.70588e-06
1.68416e-06
1.66547e-06
1.6496e-06
1.63645e-06
1.62601e-06
1.61814e-06
1.61286e-06
1.60983e-06
1.60844e-06
1.60859e-06
1.60976e-06
1.61173e-06
1.61422e-06
1.61724e-06
1.62065e-06
1.6238e-06
1.62655e-06
1.62913e-06
1.6316e-06
1.634e-06
1.63651e-06
1.63888e-06
1.64074e-06
1.64212e-06
1.64326e-06
1.64424e-06
1.64512e-06
1.64595e-06
1.64675e-06
1.64773e-06
1.64875e-06
1.64952e-06
1.65006e-06
1.65048e-06
1.65082e-06
1.65112e-06
1.6514e-06
1.65166e-06
1.65193e-06
1.65219e-06
1.65247e-06
1.65284e-06
1.65325e-06
1.6536e-06
1.6539e-06
1.65417e-06
1.65442e-06
1.65468e-06
1.65491e-06
1.65513e-06
1.65537e-06
1.65558e-06
1.65579e-06
1.656e-06
1.6562e-06
1.65639e-06
1.65658e-06
1.65676e-06
1.65694e-06
1.65711e-06
1.65726e-06
1.6574e-06
4.48534e-06
4.0781e-06
3.48633e-06
2.65627e-06
1.62915e-06
3.49945e-06
5.78449e-06
7.85314e-06
9.28176e-06
1.00135e-05
9.95011e-06
9.26652e-06
8.38757e-06
7.66244e-06
7.12443e-06
6.72239e-06
6.4125e-06
6.16176e-06
5.95576e-06
5.78612e-06
5.64429e-06
5.52448e-06
5.42217e-06
5.33379e-06
5.25661e-06
5.18928e-06
5.13102e-06
5.08159e-06
5.04119e-06
5.00957e-06
4.98674e-06
4.97181e-06
4.96298e-06
4.95984e-06
4.96078e-06
4.96495e-06
4.97133e-06
4.98e-06
4.99027e-06
5.00008e-06
5.00884e-06
5.01727e-06
5.02546e-06
5.03348e-06
5.04194e-06
5.04999e-06
5.05637e-06
5.06117e-06
5.06514e-06
5.06862e-06
5.07175e-06
5.0747e-06
5.07763e-06
5.08111e-06
5.08472e-06
5.08749e-06
5.08948e-06
5.09101e-06
5.09229e-06
5.09344e-06
5.09453e-06
5.09553e-06
5.09652e-06
5.09752e-06
5.09862e-06
5.10002e-06
5.1015e-06
5.10285e-06
5.10398e-06
5.10499e-06
5.10595e-06
5.10689e-06
5.10779e-06
5.10863e-06
5.10951e-06
5.11032e-06
5.11111e-06
5.11188e-06
5.11261e-06
5.11334e-06
5.11407e-06
5.11478e-06
5.11547e-06
5.11612e-06
5.11673e-06
5.11727e-06
7.60435e-06
6.8839e-06
5.86417e-06
4.47256e-06
2.84219e-06
6.112e-06
9.8066e-06
1.32121e-05
1.569e-05
1.71871e-05
1.7379e-05
1.64442e-05
1.50338e-05
1.37853e-05
1.28282e-05
1.20987e-05
1.15267e-05
1.10571e-05
1.06643e-05
1.03345e-05
1.00534e-05
9.81136e-06
9.60094e-06
9.41595e-06
9.2517e-06
9.10583e-06
8.97718e-06
8.8656e-06
8.77183e-06
8.69582e-06
8.63776e-06
8.59623e-06
8.56819e-06
8.55268e-06
8.54668e-06
8.54844e-06
8.5558e-06
8.56874e-06
8.58569e-06
8.60266e-06
8.61846e-06
8.6341e-06
8.6497e-06
8.66523e-06
8.68176e-06
8.69757e-06
8.71026e-06
8.72e-06
8.72814e-06
8.73531e-06
8.74184e-06
8.74805e-06
8.75425e-06
8.76158e-06
8.76909e-06
8.77494e-06
8.77919e-06
8.7825e-06
8.78532e-06
8.7879e-06
8.7903e-06
8.79258e-06
8.79479e-06
8.79701e-06
8.79949e-06
8.80263e-06
8.8059e-06
8.80884e-06
8.81137e-06
8.81362e-06
8.8158e-06
8.81784e-06
8.81981e-06
8.82173e-06
8.82362e-06
8.82545e-06
8.82721e-06
8.82891e-06
8.83056e-06
8.8322e-06
8.83383e-06
8.83543e-06
8.83699e-06
8.83847e-06
8.83987e-06
8.84112e-06
1.07152e-05
9.65017e-06
8.18656e-06
6.24899e-06
4.23036e-06
8.95596e-06
1.38737e-05
1.8514e-05
2.20813e-05
2.46267e-05
2.54681e-05
2.4595e-05
2.27725e-05
2.09873e-05
1.95584e-05
1.84419e-05
1.75484e-05
1.68019e-05
1.61647e-05
1.56169e-05
1.514e-05
1.47205e-05
1.43484e-05
1.40152e-05
1.37145e-05
1.3443e-05
1.31995e-05
1.29845e-05
1.27998e-05
1.26458e-05
1.25232e-05
1.24303e-05
1.23625e-05
1.23183e-05
1.22927e-05
1.22827e-05
1.22846e-05
1.22978e-05
1.23195e-05
1.23431e-05
1.23663e-05
1.23905e-05
1.24154e-05
1.24408e-05
1.24682e-05
1.24946e-05
1.2516e-05
1.25328e-05
1.25471e-05
1.25597e-05
1.25714e-05
1.25825e-05
1.25937e-05
1.26068e-05
1.26202e-05
1.26307e-05
1.26384e-05
1.26445e-05
1.26497e-05
1.26545e-05
1.2659e-05
1.26633e-05
1.26675e-05
1.26716e-05
1.26763e-05
1.26823e-05
1.26884e-05
1.26939e-05
1.26986e-05
1.27029e-05
1.27069e-05
1.27108e-05
1.27145e-05
1.27181e-05
1.27216e-05
1.2725e-05
1.27283e-05
1.27315e-05
1.27346e-05
1.27377e-05
1.27408e-05
1.27438e-05
1.27468e-05
1.27496e-05
1.27523e-05
1.27547e-05
1.37245e-05
1.22904e-05
1.03796e-05
7.92953e-06
5.98813e-06
1.20082e-05
1.79031e-05
2.36258e-05
2.82623e-05
3.21291e-05
3.41098e-05
3.37757e-05
3.17677e-05
2.947e-05
2.75227e-05
2.59567e-05
2.46755e-05
2.35856e-05
2.26353e-05
2.17988e-05
2.1054e-05
2.03847e-05
1.97789e-05
1.92271e-05
1.87215e-05
1.82588e-05
1.78385e-05
1.74624e-05
1.71335e-05
1.68537e-05
1.66241e-05
1.64429e-05
1.63043e-05
1.62055e-05
1.61396e-05
1.61018e-05
1.6086e-05
1.60911e-05
1.61122e-05
1.61394e-05
1.61688e-05
1.62018e-05
1.62375e-05
1.62751e-05
1.63164e-05
1.63565e-05
1.63897e-05
1.64163e-05
1.64391e-05
1.64596e-05
1.64786e-05
1.6497e-05
1.65155e-05
1.65368e-05
1.65584e-05
1.65755e-05
1.65882e-05
1.65984e-05
1.66072e-05
1.66153e-05
1.66229e-05
1.66301e-05
1.66371e-05
1.66442e-05
1.66522e-05
1.66624e-05
1.66728e-05
1.6682e-05
1.669e-05
1.66972e-05
1.6704e-05
1.67105e-05
1.67167e-05
1.67227e-05
1.67286e-05
1.67344e-05
1.674e-05
1.67453e-05
1.67505e-05
1.67558e-05
1.67611e-05
1.67663e-05
1.67713e-05
1.67762e-05
1.67809e-05
1.67851e-05
1.65494e-05
1.47297e-05
1.23833e-05
9.47626e-06
8.24287e-06
1.522e-05
2.18026e-05
2.84147e-05
3.40386e-05
3.9454e-05
4.30664e-05
4.39106e-05
4.21413e-05
3.9442e-05
3.69495e-05
3.48707e-05
3.31304e-05
3.16237e-05
3.02834e-05
2.90769e-05
2.79792e-05
2.6972e-05
2.60428e-05
2.51824e-05
2.43841e-05
2.36458e-05
2.29687e-05
2.23566e-05
2.18146e-05
2.13456e-05
2.09519e-05
2.06317e-05
2.03777e-05
2.01865e-05
2.00487e-05
1.99573e-05
1.99036e-05
1.98852e-05
1.98946e-05
1.9918e-05
1.99494e-05
1.99893e-05
2.00358e-05
2.00872e-05
2.01449e-05
2.0202e-05
2.02501e-05
2.02895e-05
2.03238e-05
2.0355e-05
2.03842e-05
2.04127e-05
2.04413e-05
2.04739e-05
2.05065e-05
2.05326e-05
2.05522e-05
2.0568e-05
2.05818e-05
2.05944e-05
2.06061e-05
2.06173e-05
2.06281e-05
2.06393e-05
2.06522e-05
2.06683e-05
2.06847e-05
2.06992e-05
2.07116e-05
2.07229e-05
2.07334e-05
2.07435e-05
2.07531e-05
2.07625e-05
2.07717e-05
2.07806e-05
2.07892e-05
2.07976e-05
2.08057e-05
2.0814e-05
2.08223e-05
2.08306e-05
2.08387e-05
2.08465e-05
2.08539e-05
2.08607e-05
1.91117e-05
1.68994e-05
1.41497e-05
1.0873e-05
1.10449e-05
1.85172e-05
2.54665e-05
3.27406e-05
3.92067e-05
4.6348e-05
5.19973e-05
5.46512e-05
5.38006e-05
5.10598e-05
4.80842e-05
4.54441e-05
4.31663e-05
4.11574e-05
3.93379e-05
3.76673e-05
3.61179e-05
3.46697e-05
3.33111e-05
3.20356e-05
3.08401e-05
2.97258e-05
2.86971e-05
2.776e-05
2.69213e-05
2.61852e-05
2.55551e-05
2.50294e-05
2.46006e-05
2.42641e-05
2.40086e-05
2.38248e-05
2.37012e-05
2.36338e-05
2.36118e-05
2.3617e-05
2.36404e-05
2.36813e-05
2.37359e-05
2.38006e-05
2.38762e-05
2.39527e-05
2.40188e-05
2.40743e-05
2.41236e-05
2.4169e-05
2.42118e-05
2.42537e-05
2.42959e-05
2.43432e-05
2.439e-05
2.44278e-05
2.44565e-05
2.44798e-05
2.45e-05
2.45185e-05
2.45357e-05
2.4552e-05
2.4568e-05
2.45846e-05
2.46041e-05
2.46282e-05
2.46526e-05
2.46739e-05
2.46923e-05
2.47088e-05
2.47243e-05
2.4739e-05
2.4753e-05
2.47667e-05
2.478e-05
2.4793e-05
2.48056e-05
2.48178e-05
2.48297e-05
2.48419e-05
2.48544e-05
2.4867e-05
2.48792e-05
2.48909e-05
2.49021e-05
2.49123e-05
2.13367e-05
1.87379e-05
1.56452e-05
1.21389e-05
1.42167e-05
2.1803e-05
2.87759e-05
3.64581e-05
4.35495e-05
5.25536e-05
6.05512e-05
6.5469e-05
6.61504e-05
6.40145e-05
6.09187e-05
5.78164e-05
5.49736e-05
5.23864e-05
4.99913e-05
4.77501e-05
4.56375e-05
4.36344e-05
4.17319e-05
3.99284e-05
3.82263e-05
3.66314e-05
3.51512e-05
3.37935e-05
3.25663e-05
3.14747e-05
3.05229e-05
2.97107e-05
2.90309e-05
2.8479e-05
2.80428e-05
2.77111e-05
2.74699e-05
2.73134e-05
2.72276e-05
2.71893e-05
2.71861e-05
2.72151e-05
2.72698e-05
2.73437e-05
2.74362e-05
2.7533e-05
2.76194e-05
2.76942e-05
2.77622e-05
2.78257e-05
2.78863e-05
2.79459e-05
2.80057e-05
2.80715e-05
2.81362e-05
2.81887e-05
2.8229e-05
2.82618e-05
2.82903e-05
2.83163e-05
2.83403e-05
2.83632e-05
2.83857e-05
2.84095e-05
2.84376e-05
2.84722e-05
2.85069e-05
2.8537e-05
2.85628e-05
2.85859e-05
2.86075e-05
2.86279e-05
2.86473e-05
2.86663e-05
2.86847e-05
2.87026e-05
2.872e-05
2.87369e-05
2.87534e-05
2.87708e-05
2.87888e-05
2.8807e-05
2.88246e-05
2.88414e-05
2.88576e-05
2.88724e-05
2.31562e-05
2.01946e-05
1.68578e-05
1.33828e-05
1.754e-05
2.49622e-05
3.16038e-05
3.94253e-05
4.6835e-05
5.78146e-05
6.8414e-05
7.59511e-05
7.85596e-05
7.75001e-05
7.47355e-05
7.14826e-05
6.82331e-05
6.51197e-05
6.21363e-05
5.92725e-05
5.65233e-05
5.38819e-05
5.13487e-05
4.89302e-05
4.66352e-05
4.44738e-05
4.2456e-05
4.05908e-05
3.88863e-05
3.73488e-05
3.59839e-05
3.47934e-05
3.37722e-05
3.2918e-05
3.2219e-05
3.1664e-05
3.12377e-05
3.09331e-05
3.07331e-05
3.06102e-05
3.05482e-05
3.05413e-05
3.05791e-05
3.06516e-05
3.07548e-05
3.08698e-05
3.09771e-05
3.10737e-05
3.11641e-05
3.12501e-05
3.13332e-05
3.14153e-05
3.14974e-05
3.15861e-05
3.16725e-05
3.17432e-05
3.1798e-05
3.18428e-05
3.18817e-05
3.19168e-05
3.19492e-05
3.19802e-05
3.20109e-05
3.2044e-05
3.20834e-05
3.21314e-05
3.21788e-05
3.22198e-05
3.22547e-05
3.22859e-05
3.23147e-05
3.23418e-05
3.23677e-05
3.23927e-05
3.2417e-05
3.24408e-05
3.24637e-05
3.2486e-05
3.25081e-05
3.2532e-05
3.25572e-05
3.25825e-05
3.26071e-05
3.26305e-05
3.26529e-05
3.26736e-05
2.45152e-05
2.12389e-05
1.78097e-05
1.52628e-05
2.08267e-05
2.78657e-05
3.38245e-05
4.15154e-05
4.88097e-05
6.18783e-05
7.53527e-05
8.58046e-05
9.06893e-05
9.1041e-05
8.89008e-05
8.57378e-05
8.22659e-05
7.87604e-05
7.52827e-05
7.18561e-05
6.85018e-05
6.52324e-05
6.20622e-05
5.90085e-05
5.60889e-05
5.33186e-05
5.07107e-05
4.82759e-05
4.60235e-05
4.39609e-05
4.20962e-05
4.04343e-05
3.89746e-05
3.77186e-05
3.66579e-05
3.57841e-05
3.50827e-05
3.45474e-05
3.41597e-05
3.38892e-05
3.37165e-05
3.36323e-05
3.36221e-05
3.36709e-05
3.37704e-05
3.38952e-05
3.40202e-05
3.4139e-05
3.42545e-05
3.43675e-05
3.44781e-05
3.45882e-05
3.46981e-05
3.48147e-05
3.4927e-05
3.50197e-05
3.50922e-05
3.51517e-05
3.52033e-05
3.52497e-05
3.52924e-05
3.53334e-05
3.53744e-05
3.54194e-05
3.54731e-05
3.55375e-05
3.56004e-05
3.56544e-05
3.57002e-05
3.57408e-05
3.57779e-05
3.58128e-05
3.58458e-05
3.58777e-05
3.59085e-05
3.59387e-05
3.59678e-05
3.59961e-05
3.60247e-05
3.60566e-05
3.60909e-05
3.61254e-05
3.61587e-05
3.61904e-05
3.62206e-05
3.62485e-05
2.53822e-05
2.18744e-05
1.85794e-05
1.78687e-05
2.39066e-05
3.03783e-05
3.53277e-05
4.26327e-05
4.91822e-05
6.45007e-05
8.10975e-05
9.47636e-05
0.000102311
0.000104423
0.000103176
0.000100302
9.67598e-05
9.2984e-05
8.91158e-05
8.52167e-05
8.13349e-05
7.75021e-05
7.37454e-05
7.0092e-05
6.65669e-05
6.31907e-05
5.99799e-05
5.6948e-05
5.41058e-05
5.14631e-05
4.90302e-05
4.68162e-05
4.48262e-05
4.30674e-05
4.15376e-05
4.0234e-05
3.91471e-05
3.82739e-05
3.75979e-05
3.70888e-05
3.67261e-05
3.64983e-05
3.63865e-05
3.63709e-05
3.64374e-05
3.65528e-05
3.66847e-05
3.68216e-05
3.69627e-05
3.71056e-05
3.72489e-05
3.73929e-05
3.75364e-05
3.76861e-05
3.78291e-05
3.79479e-05
3.80419e-05
3.81194e-05
3.81863e-05
3.82463e-05
3.83016e-05
3.83549e-05
3.8409e-05
3.8469e-05
3.85406e-05
3.86248e-05
3.8706e-05
3.87753e-05
3.88336e-05
3.88848e-05
3.89312e-05
3.89744e-05
3.90151e-05
3.90542e-05
3.90919e-05
3.91286e-05
3.91642e-05
3.91988e-05
3.92348e-05
3.92767e-05
3.93224e-05
3.93684e-05
3.94124e-05
3.94541e-05
3.94936e-05
3.95302e-05
2.57649e-05
2.21633e-05
1.94587e-05
2.11317e-05
2.66153e-05
3.23697e-05
3.60827e-05
4.27311e-05
4.76592e-05
6.54814e-05
8.5304e-05
0.000102532
0.000113185
0.000117473
0.000117435
0.000115078
0.000111633
0.000107716
0.000103565
9.9286e-05
9.4958e-05
9.06333e-05
8.6352e-05
8.21503e-05
7.80601e-05
7.41063e-05
7.03083e-05
6.66818e-05
6.32388e-05
5.99907e-05
5.69496e-05
5.41279e-05
5.15359e-05
4.91871e-05
4.70868e-05
4.52402e-05
4.36457e-05
4.23079e-05
4.12167e-05
4.03471e-05
3.96818e-05
3.921e-05
3.89111e-05
3.87615e-05
3.87411e-05
3.88089e-05
3.89233e-05
3.90649e-05
3.92261e-05
3.93991e-05
3.95783e-05
3.97616e-05
3.9945e-05
4.01335e-05
4.03122e-05
4.0462e-05
4.05818e-05
4.06809e-05
4.07664e-05
4.0843e-05
4.09138e-05
4.09826e-05
4.10533e-05
4.11324e-05
4.12259e-05
4.13331e-05
4.14352e-05
4.15217e-05
4.1594e-05
4.16567e-05
4.1713e-05
4.17648e-05
4.18131e-05
4.18592e-05
4.19034e-05
4.19465e-05
4.1988e-05
4.20289e-05
4.20731e-05
4.21273e-05
4.21872e-05
4.22472e-05
4.23042e-05
4.23577e-05
4.24082e-05
4.24548e-05
2.57305e-05
2.22653e-05
2.12336e-05
2.42097e-05
2.87972e-05
3.37319e-05
3.61121e-05
4.18332e-05
4.50124e-05
6.46812e-05
8.76355e-05
0.000108757
0.00012301
0.000129971
0.000131535
0.000129982
0.000126845
0.000122947
0.000118641
0.000114089
0.000109403
0.000104661
9.9918e-05
9.522e-05
9.06073e-05
8.61103e-05
8.17518e-05
7.75492e-05
7.35156e-05
6.96624e-05
6.60019e-05
6.25472e-05
5.93123e-05
5.63144e-05
5.35656e-05
5.10786e-05
4.88612e-05
4.69279e-05
4.52788e-05
4.39009e-05
4.2786e-05
4.19299e-05
4.1316e-05
4.09212e-05
4.07225e-05
4.06722e-05
4.072e-05
4.08354e-05
4.09998e-05
4.11954e-05
4.14097e-05
4.16355e-05
4.18642e-05
4.20974e-05
4.23176e-05
4.2504e-05
4.26547e-05
4.27799e-05
4.28881e-05
4.29853e-05
4.30759e-05
4.31647e-05
4.32567e-05
4.33596e-05
4.34791e-05
4.36125e-05
4.37376e-05
4.38428e-05
4.393e-05
4.40047e-05
4.40706e-05
4.41305e-05
4.41857e-05
4.42377e-05
4.42873e-05
4.43354e-05
4.43817e-05
4.44278e-05
4.44812e-05
4.45505e-05
4.4628e-05
4.47048e-05
4.47769e-05
4.48439e-05
4.49065e-05
4.49642e-05
2.54352e-05
2.28918e-05
2.38314e-05
2.6805e-05
3.03225e-05
3.44004e-05
3.54906e-05
4.00467e-05
4.20662e-05
6.19791e-05
8.77345e-05
0.000113018
0.000131405
0.000141622
0.000145268
0.00014488
0.000142319
0.000138646
0.00013435
0.000129659
0.000124728
0.000119659
0.000114526
0.00010939
0.0001043
9.92958e-05
9.44051e-05
8.96495e-05
8.50435e-05
8.05988e-05
7.63268e-05
7.22392e-05
6.83505e-05
6.46785e-05
6.12383e-05
5.80472e-05
5.51201e-05
5.24797e-05
5.01377e-05
4.8096e-05
4.63621e-05
4.49454e-05
4.3842e-05
4.30381e-05
4.25153e-05
4.22266e-05
4.21161e-05
4.21423e-05
4.22703e-05
4.24662e-05
4.2705e-05
4.29707e-05
4.32474e-05
4.35306e-05
4.37986e-05
4.40283e-05
4.42167e-05
4.43742e-05
4.45111e-05
4.46351e-05
4.47518e-05
4.48668e-05
4.49863e-05
4.51182e-05
4.52677e-05
4.54296e-05
4.5579e-05
4.57035e-05
4.58056e-05
4.58917e-05
4.59663e-05
4.60327e-05
4.60928e-05
4.61485e-05
4.6201e-05
4.62514e-05
4.62999e-05
4.63497e-05
4.64134e-05
4.65013e-05
4.65998e-05
4.66962e-05
4.67853e-05
4.6867e-05
4.69422e-05
4.70112e-05
2.52869e-05
2.45392e-05
2.65031e-05
2.87611e-05
3.11156e-05
3.43799e-05
3.43619e-05
3.75858e-05
3.85995e-05
5.73717e-05
8.52625e-05
0.000114826
0.000137898
0.000152039
0.000158342
0.000159562
0.000157917
0.000154731
0.000150656
0.000146002
0.00014097
0.000135693
0.000130269
0.000124771
0.000119263
0.000113796
0.000108407
0.000103124
9.79665e-05
9.29477e-05
8.80794e-05
8.33719e-05
7.88381e-05
7.44942e-05
7.03543e-05
6.64356e-05
6.27553e-05
5.93389e-05
5.62054e-05
5.33696e-05
5.08547e-05
4.86885e-05
4.68872e-05
4.5458e-05
4.44003e-05
4.36819e-05
4.32542e-05
4.30714e-05
4.30817e-05
4.32266e-05
4.34592e-05
4.37492e-05
4.40693e-05
4.44047e-05
4.4727e-05
4.5009e-05
4.52447e-05
4.54444e-05
4.56197e-05
4.57802e-05
4.59324e-05
4.60824e-05
4.62367e-05
4.64032e-05
4.65859e-05
4.67774e-05
4.69509e-05
4.70939e-05
4.72095e-05
4.73053e-05
4.73862e-05
4.7456e-05
4.75174e-05
4.75727e-05
4.76238e-05
4.76719e-05
4.77181e-05
4.77692e-05
4.78451e-05
4.79554e-05
4.80784e-05
4.81966e-05
4.83036e-05
4.83996e-05
4.84864e-05
4.85651e-05
2.62945e-05
2.70011e-05
2.86007e-05
2.999e-05
3.11816e-05
3.37737e-05
3.29485e-05
3.47982e-05
3.48329e-05
5.12812e-05
8.00244e-05
0.000113648
0.000141928
0.000160736
0.000170363
0.00017373
0.000173417
0.000171046
0.000167457
0.000163064
0.00015812
0.000152796
0.000147213
0.000141462
0.000135623
0.00012976
0.000123922
0.000118149
0.000112467
0.000106896
0.000101449
9.61381e-05
9.09755e-05
8.59752e-05
8.11489e-05
7.65108e-05
7.20753e-05
6.78649e-05
6.38982e-05
6.01947e-05
5.67865e-05
5.3714e-05
5.10141e-05
4.87203e-05
4.68628e-05
4.5444e-05
4.44471e-05
4.38443e-05
4.35805e-05
4.35698e-05
4.37287e-05
4.40004e-05
4.4342e-05
4.47231e-05
4.51041e-05
4.54503e-05
4.5749e-05
4.60075e-05
4.62377e-05
4.645e-05
4.66516e-05
4.68479e-05
4.70452e-05
4.72514e-05
4.74691e-05
4.76891e-05
4.78846e-05
4.80434e-05
4.81694e-05
4.82712e-05
4.8354e-05
4.84221e-05
4.84787e-05
4.85272e-05
4.85697e-05
4.86082e-05
4.86452e-05
4.8695e-05
4.87862e-05
4.8923e-05
4.90729e-05
4.92133e-05
4.93369e-05
4.94444e-05
4.95389e-05
4.96226e-05
2.82681e-05
2.90411e-05
2.9971e-05
3.04886e-05
3.06329e-05
3.28108e-05
3.15568e-05
3.21862e-05
3.21611e-05
4.46236e-05
7.2146e-05
0.000108937
0.000142864
0.000167116
0.000180824
0.000186975
0.0001885
0.000187344
0.000184571
0.000180717
0.000176101
0.000170939
0.000165375
0.000159522
0.000153477
0.000147319
0.000141112
0.000134909
0.000128748
0.000122658
0.000116659
0.000110765
0.000104993
9.93548e-05
9.38628e-05
8.85276e-05
8.33599e-05
7.83755e-05
7.3587e-05
6.90097e-05
6.4673e-05
6.06176e-05
5.68875e-05
5.35337e-05
5.0615e-05
4.81794e-05
4.62677e-05
4.49106e-05
4.40937e-05
4.37281e-05
4.36805e-05
4.38427e-05
4.41478e-05
4.45462e-05
4.4982e-05
4.54065e-05
4.57936e-05
4.61399e-05
4.64523e-05
4.67396e-05
4.70089e-05
4.72647e-05
4.75135e-05
4.77629e-05
4.8015e-05
4.82601e-05
4.84729e-05
4.86422e-05
4.8773e-05
4.88748e-05
4.89526e-05
4.90109e-05
4.90537e-05
4.90853e-05
4.91085e-05
4.9126e-05
4.91448e-05
4.91924e-05
4.93038e-05
4.947e-05
4.96466e-05
4.98061e-05
4.99406e-05
5.00523e-05
5.01453e-05
5.02242e-05
3.00433e-05
3.03692e-05
3.05941e-05
3.03619e-05
2.97066e-05
3.18175e-05
3.06937e-05
3.10078e-05
3.09344e-05
3.83512e-05
6.23224e-05
0.00010013
0.000140091
0.000170488
0.000189088
0.000198767
0.000202733
0.000203275
0.000201715
0.000198739
0.000194749
0.00019001
0.000184697
0.000178945
0.000172867
0.000166559
0.000160103
0.000153567
0.000147004
0.000140453
0.000133946
0.000127504
0.000121148
0.000114895
0.000108759
0.000102751
9.68804e-05
9.11568e-05
8.55862e-05
8.0176e-05
7.49451e-05
6.99226e-05
6.51426e-05
6.06509e-05
5.6511e-05
5.27977e-05
4.96069e-05
4.70572e-05
4.52454e-05
4.41687e-05
4.36755e-05
4.35624e-05
4.37102e-05
4.40522e-05
4.4514e-05
4.50267e-05
4.5538e-05
4.60176e-05
4.64535e-05
4.68469e-05
4.72051e-05
4.75334e-05
4.784e-05
4.81336e-05
4.84166e-05
4.86807e-05
4.89034e-05
4.90752e-05
4.92022e-05
4.92947e-05
4.93574e-05
4.9394e-05
4.94095e-05
4.94093e-05
4.93972e-05
4.93775e-05
4.93686e-05
4.94194e-05
4.9558e-05
4.9753e-05
4.99497e-05
5.01183e-05
5.0251e-05
5.03514e-05
5.04259e-05
5.0482e-05
5.04569e-05
3.11422e-05
3.09449e-05
3.0576e-05
2.98328e-05
2.88012e-05
3.12019e-05
3.09706e-05
3.12138e-05
3.10322e-05
3.48536e-05
5.19471e-05
8.74781e-05
0.000133185
0.000170078
0.000194379
0.000208429
0.000215548
0.000218362
0.000218488
0.000216797
0.000213792
0.000209797
0.000205025
0.000199632
0.00019375
0.000187493
0.000180958
0.000174233
0.000167385
0.00016047
0.000153531
0.0001466
0.000139706
0.000132875
0.000126124
0.00011947
0.000112922
0.000106492
0.000100182
9.39923e-05
8.79327e-05
8.20169e-05
7.62607e-05
7.06875e-05
6.53362e-05
6.02651e-05
5.55756e-05
5.14356e-05
4.80772e-05
4.57261e-05
4.43727e-05
4.37293e-05
4.35157e-05
4.36518e-05
4.40583e-05
4.46442e-05
4.53147e-05
4.5985e-05
4.65983e-05
4.7135e-05
4.76025e-05
4.80127e-05
4.83788e-05
4.87131e-05
4.90197e-05
4.92929e-05
4.95148e-05
4.96772e-05
4.97875e-05
4.98568e-05
4.98888e-05
4.98862e-05
4.98545e-05
4.98006e-05
4.97298e-05
4.96522e-05
4.96147e-05
4.96871e-05
4.98596e-05
5.00738e-05
5.02727e-05
5.04283e-05
5.05343e-05
5.05964e-05
5.06236e-05
5.06269e-05
5.05563e-05
3.15139e-05
3.08855e-05
3.01473e-05
2.92404e-05
2.89085e-05
3.15309e-05
3.21203e-05
3.23865e-05
3.21161e-05
3.3933e-05
4.34619e-05
7.32555e-05
0.000121952
0.000165057
0.000195791
0.00021513
0.000226218
0.00023198
0.000234353
0.000234426
0.000232832
0.000229964
0.000226083
0.000221369
0.000215974
0.000210027
0.000203645
0.00019693
0.000189969
0.000182834
0.000175584
0.000168262
0.00016091
0.000153561
0.000146244
0.000138981
0.000131789
0.000124683
0.000117666
0.000110741
0.000103911
9.71821e-05
9.05541e-05
8.40278e-05
7.76082e-05
7.13089e-05
6.51761e-05
5.933e-05
5.40185e-05
4.97036e-05
4.68692e-05
4.5526e-05
4.48927e-05
4.48019e-05
4.51335e-05
4.57555e-05
4.65367e-05
4.73508e-05
4.80956e-05
4.87258e-05
4.92456e-05
4.96753e-05
5.00406e-05
5.03595e-05
5.06385e-05
5.08741e-05
5.10508e-05
5.11594e-05
5.12093e-05
5.12132e-05
5.11732e-05
5.10897e-05
5.09687e-05
5.08189e-05
5.0647e-05
5.04825e-05
5.04365e-05
5.05653e-05
5.07684e-05
5.0974e-05
5.11381e-05
5.12399e-05
5.12764e-05
5.1256e-05
5.11904e-05
5.10957e-05
5.09361e-05
3.12965e-05
3.04458e-05
2.96518e-05
2.92345e-05
2.98709e-05
3.28587e-05
3.38148e-05
3.40872e-05
3.37705e-05
3.50025e-05
3.86698e-05
5.8632e-05
0.000106519
0.00015467
0.000192329
0.000217873
0.000233841
0.000243336
0.00024861
0.000251008
0.000251319
0.000250031
0.000247455
0.000243805
0.000239251
0.000233941
0.000228004
0.000221564
0.000214723
0.000207572
0.000200185
0.000192622
0.000184936
0.000177173
0.000169371
0.000161564
0.000153778
0.000146035
0.000138347
0.000130719
0.00012316
0.000115673
0.000108254
0.000100894
9.35732e-05
8.62699e-05
7.89656e-05
7.16724e-05
6.44931e-05
5.78735e-05
5.35802e-05
5.10727e-05
4.953e-05
4.88103e-05
4.87906e-05
4.93069e-05
5.01811e-05
5.12272e-05
5.22607e-05
5.31441e-05
5.38434e-05
5.43896e-05
5.48274e-05
5.51916e-05
5.54964e-05
5.57432e-05
5.59202e-05
5.60172e-05
5.60452e-05
5.60189e-05
5.59378e-05
5.57989e-05
5.56085e-05
5.53774e-05
5.51131e-05
5.48245e-05
5.45558e-05
5.43708e-05
5.42578e-05
5.41677e-05
5.40563e-05
5.38996e-05
5.36916e-05
5.34386e-05
5.31502e-05
5.28449e-05
5.25013e-05
3.0775e-05
2.99973e-05
2.97064e-05
3.0125e-05
3.14099e-05
3.47803e-05
3.57404e-05
3.596e-05
3.56315e-05
3.66184e-05
3.71004e-05
4.81869e-05
8.81379e-05
0.000138707
0.00018306
0.000215524
0.000237324
0.000251439
0.000260371
0.000265744
0.000268535
0.000269347
0.000268558
0.000266423
0.000263134
0.000258853
0.000253727
0.000247893
0.000241474
0.000234576
0.000227293
0.000219698
0.00021186
0.000203838
0.000195682
0.000187439
0.000179145
0.000170833
0.000162524
0.000154235
0.000145981
0.000137771
0.000129607
0.000121481
0.000113371
0.000105244
9.70503e-05
8.87366e-05
8.02583e-05
7.17786e-05
6.52187e-05
6.08868e-05
5.78556e-05
5.59707e-05
5.51558e-05
5.52626e-05
5.60609e-05
5.73222e-05
5.87728e-05
6.01144e-05
6.1179e-05
6.19958e-05
6.26185e-05
6.31127e-05
6.35151e-05
6.38363e-05
6.40721e-05
6.42123e-05
6.4269e-05
6.42602e-05
6.41826e-05
6.40288e-05
6.38059e-05
6.35276e-05
6.32027e-05
6.28331e-05
6.24342e-05
6.20468e-05
6.16947e-05
6.13607e-05
6.10127e-05
6.06286e-05
6.02011e-05
5.9734e-05
5.92349e-05
5.87156e-05
5.81693e-05
3.03585e-05
3.02217e-05
3.06295e-05
3.16201e-05
3.32405e-05
3.69572e-05
3.76446e-05
3.77599e-05
3.74402e-05
3.83838e-05
3.74884e-05
4.21637e-05
6.97194e-05
0.000118273
0.000167411
0.000206897
0.000235395
0.000255088
0.000268538
0.000277629
0.000283558
0.000287065
0.000288617
0.000288517
0.000286985
0.000284199
0.00028032
0.000275499
0.000269875
0.000263573
0.000256704
0.000249357
0.000241616
0.000233554
0.000225236
0.000216719
0.000208054
0.000199285
0.000190446
0.000181564
0.000172665
0.000163771
0.000154893
0.000146035
0.000137185
0.000128318
0.00011939
0.000110343
0.000101106
9.16497e-05
8.25547e-05
7.56923e-05
7.05518e-05
6.68777e-05
6.46292e-05
6.37555e-05
6.40435e-05
6.52646e-05
6.71148e-05
6.91198e-05
7.07793e-05
7.20792e-05
7.30668e-05
7.38107e-05
7.43994e-05
7.48675e-05
7.52253e-05
7.54677e-05
7.56085e-05
7.56707e-05
7.56496e-05
7.55327e-05
7.5328e-05
7.50537e-05
7.47193e-05
7.43233e-05
7.38701e-05
7.33842e-05
7.28967e-05
7.24104e-05
7.1906e-05
7.13656e-05
7.07815e-05
7.01559e-05
6.94948e-05
6.88072e-05
6.80914e-05
3.08075e-05
3.12685e-05
3.21297e-05
3.34183e-05
3.51279e-05
3.91418e-05
3.93479e-05
3.93416e-05
3.9045e-05
3.99531e-05
3.86896e-05
3.9777e-05
5.57869e-05
9.56886e-05
0.000145408
0.000190976
0.000226684
0.000252876
0.000271775
0.000285425
0.000295238
0.000302119
0.000306637
0.000309163
0.00030995
0.000309197
0.000307077
0.000303752
0.000299376
0.000294091
0.000288022
0.000281279
0.000273958
0.000266149
0.000257928
0.000249368
0.000240532
0.000231477
0.00022225
0.000212891
0.000203439
0.000193928
0.000184385
0.000174826
0.000165259
0.000155673
0.000146049
0.00013635
0.000126528
0.000116536
0.000106399
9.65268e-05
8.86188e-05
8.2492e-05
7.80807e-05
7.54194e-05
7.44727e-05
7.50583e-05
7.69669e-05
7.97198e-05
8.22735e-05
8.4318e-05
8.59879e-05
8.71765e-05
8.80749e-05
8.87787e-05
8.93253e-05
8.9727e-05
8.99999e-05
9.0178e-05
9.02591e-05
9.02249e-05
9.00849e-05
8.98629e-05
8.95691e-05
8.91979e-05
8.87485e-05
8.82392e-05
8.76997e-05
8.71419e-05
8.65548e-05
8.59235e-05
8.52402e-05
8.45061e-05
8.37261e-05
8.29083e-05
8.20518e-05
8.11318e-05
8.02408e-05
7.93487e-05
3.20046e-05
3.28294e-05
3.39088e-05
3.52771e-05
3.69077e-05
4.0881e-05
4.0736e-05
4.06415e-05
4.03819e-05
4.12582e-05
4.00489e-05
3.97352e-05
4.71152e-05
7.31678e-05
0.000118608
0.000167495
0.000209943
0.000243255
0.000268524
0.000287643
0.000302174
0.000313184
0.000321372
0.000327185
0.000330927
0.000332819
0.000333045
0.000331779
0.000329186
0.00032542
0.000320624
0.000314923
0.000308428
0.000301243
0.00029346
0.000285163
0.00027643
0.000267331
0.000257926
0.000248267
0.000238409
0.000228398
0.000218276
0.000208078
0.000197828
0.000187538
0.00017721
0.000166835
0.000156395
0.000145855
0.000135172
0.000124333
0.000113402
0.000104158
9.68344e-05
9.15265e-05
8.83581e-05
8.73426e-05
8.84514e-05
9.15721e-05
9.54088e-05
9.78127e-05
9.94416e-05
0.000100644
0.00010161
0.000102405
0.000103045
0.000103548
0.00010392
0.000104197
0.000104377
0.000104434
0.000104376
0.000104231
0.000104009
0.000103698
0.000103294
0.000102814
0.000102285
0.000101723
0.000101121
0.000100466
9.97511e-05
9.89781e-05
9.81509e-05
9.72764e-05
9.6355e-05
9.53833e-05
9.43997e-05
9.34022e-05
3.3631e-05
3.46116e-05
3.57307e-05
3.70297e-05
3.84841e-05
4.20087e-05
4.17915e-05
4.16611e-05
4.14504e-05
4.22636e-05
4.12617e-05
4.031e-05
4.27632e-05
5.6667e-05
9.12984e-05
0.000137673
0.000184519
0.000224764
0.000257073
0.000282555
0.000302691
0.000318664
0.000331295
0.000341131
0.000348532
0.000353752
0.000356989
0.000358425
0.000358233
0.000356577
0.000353615
0.000349483
0.00034431
0.000338211
0.000331293
0.000323654
0.000315383
0.000306563
0.000297268
0.000287563
0.000277516
0.000267187
0.000256635
0.000245909
0.000235054
0.000224101
0.000213075
0.000201993
0.00019086
0.000179664
0.000168374
0.000156943
0.000145316
0.000133472
0.00012254
0.000113767
0.000107393
0.000103577
0.00010247
0.000104346
0.000108303
0.000110763
0.000112385
0.000113596
0.000114596
0.000115457
0.000116163
0.000116753
0.000117223
0.000117598
0.000117887
0.000118049
0.000118091
0.000118047
0.000117924
0.000117702
0.000117373
0.000116956
0.00011648
0.000115958
0.000115383
0.000114745
0.000114041
0.000113271
0.000112438
0.000111549
0.000110605
0.000109608
0.000108575
0.000107511
3.54081e-05
3.63937e-05
3.74365e-05
3.85806e-05
3.98178e-05
4.27498e-05
4.2581e-05
4.24432e-05
4.22868e-05
4.30301e-05
4.2237e-05
4.12489e-05
4.18675e-05
4.81041e-05
6.82405e-05
0.00010504
0.000151353
0.000196582
0.000235815
0.00026829
0.000294876
0.000316674
0.000334582
0.000349236
0.000361068
0.000370368
0.000377355
0.000382215
0.000385126
0.000386261
0.000385784
0.000383845
0.000380585
0.000376133
0.000370606
0.000364115
0.000356761
0.00034864
0.000339836
0.000330429
0.000320498
0.000310118
0.00029936
0.000288293
0.000276976
0.000265462
0.000253797
0.000242019
0.000230156
0.000218223
0.000206215
0.000194111
0.00018187
0.000169415
0.000156789
0.000144003
0.000133742
0.000126022
0.000121175
0.000119609
0.000121501
0.000123779
0.000125297
0.000126401
0.000127323
0.000128158
0.000128856
0.000129466
0.000130002
0.000130442
0.000130819
0.000131081
0.000131221
0.000131286
0.000131276
0.000131159
0.000130921
0.000130591
0.000130197
0.000129745
0.000129228
0.000128639
0.000127974
0.000127237
0.000126432
0.00012556
0.000124623
0.000123628
0.000122578
0.000121481
3.71357e-05
3.80335e-05
3.89378e-05
3.98911e-05
4.09103e-05
4.32029e-05
4.31815e-05
4.30395e-05
4.294e-05
4.35799e-05
4.29713e-05
4.21487e-05
4.2016e-05
4.39216e-05
5.37541e-05
7.65074e-05
0.000114627
0.000159751
0.000203916
0.000243158
0.000276709
0.000305101
0.000329115
0.000349419
0.000366499
0.000380689
0.000392227
0.000401307
0.000408107
0.0004128
0.000415556
0.000416533
0.000415881
0.000413739
0.000410235
0.000405491
0.000399618
0.000392722
0.000384899
0.000376239
0.000366834
0.000356769
0.000346132
0.000335002
0.00032346
0.000311574
0.000299409
0.000287026
0.000274475
0.000261796
0.000249015
0.000236141
0.000223169
0.000210069
0.0001968
0.000183338
0.000169559
0.00015725
0.000147577
0.00014123
0.000138011
0.000138198
0.000139026
0.000139754
0.000140353
0.000140931
0.000141465
0.000141923
0.000142427
0.000142839
0.000143225
0.000143538
0.000143736
0.000143887
0.000143978
0.000143958
0.000143808
0.000143573
0.000143277
0.000142914
0.000142473
0.000141949
0.000141344
0.000140665
0.000139911
0.000139082
0.000138179
0.000137208
0.00013617
0.000135072
3.86936e-05
3.94582e-05
4.02018e-05
4.09629e-05
4.1786e-05
4.34629e-05
4.36619e-05
4.34924e-05
4.34569e-05
4.39835e-05
4.35137e-05
4.28833e-05
4.23394e-05
4.28782e-05
4.66774e-05