/*--------------------------------*- C++ -*----------------------------------*\
| =========                 |                                                 |
| \\      /  F ield         | OpenFOAM: The Open Source CFD Toolbox           |
|  \\    /   O peration     | Version:  2412                                  |
|   \\  /    A nd           | Website:  www.openfoam.com                      |
|    \\/     M anipulation  |                                                 |
\*---------------------------------------------------------------------------*/
FoamFile
{
    version     2.0;
    format      ascii;
    arch        "LSB;label=32;scalar=64";
    class       volScalarField;
    location    "260";
    object      nuTilda;
}
// * * * * * * * * * * * * * * * * * * * * * * * * * * * * * * * * * * * * * //

dimensions      [0 2 -1 0 0 0 0];

internalField   nonuniform List<scalar> 
7418
(
7.99728e-07
1.06041e-06
1.0115e-06
9.67757e-07
1.01003e-06
9.70901e-07
1.72345e-06
2.14e-06
2.14037e-06
2.00886e-06
1.93094e-06
1.88948e-06
1.87125e-06
1.87399e-06
1.89044e-06
1.90409e-06
1.9081e-06
1.90601e-06
1.89802e-06
1.88891e-06
1.88388e-06
1.88274e-06
1.88454e-06
1.88702e-06
1.88835e-06
1.88877e-06
1.88892e-06
1.88962e-06
1.8909e-06
1.89248e-06
1.89407e-06
1.89563e-06
1.89725e-06
1.89898e-06
1.90084e-06
1.90275e-06
1.90472e-06
1.90675e-06
1.90881e-06
1.91088e-06
1.91297e-06
1.9151e-06
1.91725e-06
1.91939e-06
1.92153e-06
1.92366e-06
1.9258e-06
1.92794e-06
1.93001e-06
1.93202e-06
1.93404e-06
1.93602e-06
1.93797e-06
1.93988e-06
1.9417e-06
1.94352e-06
1.94529e-06
1.94701e-06
1.94866e-06
1.95021e-06
1.95172e-06
1.95321e-06
1.95461e-06
1.95591e-06
1.9572e-06
1.95843e-06
1.95961e-06
1.96071e-06
1.96173e-06
1.96274e-06
1.96371e-06
1.96461e-06
1.9655e-06
1.96627e-06
1.96682e-06
1.96736e-06
1.9678e-06
1.96817e-06
1.96845e-06
1.96861e-06
1.96872e-06
7.39655e-07
9.30668e-07
2.51226e-06
3.24797e-06
3.11727e-06
2.99977e-06
3.10076e-06
3.04224e-06
5.45275e-06
6.61436e-06
6.59771e-06
6.24607e-06
6.02841e-06
5.91276e-06
5.8643e-06
5.87386e-06
5.91978e-06
5.9571e-06
5.9674e-06
5.96012e-06
5.93664e-06
5.91071e-06
5.89669e-06
5.894e-06
5.89944e-06
5.9066e-06
5.91048e-06
5.91187e-06
5.9126e-06
5.91496e-06
5.91905e-06
5.92393e-06
5.92885e-06
5.93373e-06
5.93879e-06
5.94425e-06
5.95005e-06
5.95601e-06
5.96216e-06
5.96848e-06
5.9749e-06
5.98138e-06
5.98797e-06
5.99459e-06
6.00128e-06
6.00799e-06
6.01465e-06
6.02133e-06
6.02801e-06
6.03463e-06
6.04115e-06
6.04751e-06
6.05383e-06
6.06004e-06
6.06611e-06
6.07208e-06
6.07785e-06
6.0835e-06
6.089e-06
6.09436e-06
6.09954e-06
6.10443e-06
6.10916e-06
6.11376e-06
6.11817e-06
6.12233e-06
6.12635e-06
6.13017e-06
6.13382e-06
6.13729e-06
6.14054e-06
6.14366e-06
6.14664e-06
6.14951e-06
6.15226e-06
6.15468e-06
6.15641e-06
6.15807e-06
6.15946e-06
6.16058e-06
6.16146e-06
6.16203e-06
6.16234e-06
2.28344e-06
2.86061e-06
4.52209e-06
5.5705e-06
5.38086e-06
5.2243e-06
5.33555e-06
5.61612e-06
9.79861e-06
1.14716e-05
1.14091e-05
1.0936e-05
1.06203e-05
1.04542e-05
1.03894e-05
1.04079e-05
1.04752e-05
1.05274e-05
1.05395e-05
1.05248e-05
1.04877e-05
1.04491e-05
1.0429e-05
1.04263e-05
1.04354e-05
1.04466e-05
1.04528e-05
1.04554e-05
1.04574e-05
1.0462e-05
1.04693e-05
1.04778e-05
1.04864e-05
1.0495e-05
1.05039e-05
1.05136e-05
1.05238e-05
1.05343e-05
1.05451e-05
1.05561e-05
1.05674e-05
1.05788e-05
1.05904e-05
1.0602e-05
1.06138e-05
1.06256e-05
1.06374e-05
1.06491e-05
1.06608e-05
1.06725e-05
1.0684e-05
1.06952e-05
1.07063e-05
1.07173e-05
1.0728e-05
1.07385e-05
1.07487e-05
1.07586e-05
1.07683e-05
1.07777e-05
1.07868e-05
1.07955e-05
1.08039e-05
1.0812e-05
1.08197e-05
1.08271e-05
1.08342e-05
1.08409e-05
1.08473e-05
1.08535e-05
1.08592e-05
1.08647e-05
1.08699e-05
1.0875e-05
1.08798e-05
1.08841e-05
1.08871e-05
1.089e-05
1.08924e-05
1.08944e-05
1.08959e-05
1.0897e-05
1.08975e-05
3.95236e-06
4.9318e-06
7.03543e-06
8.01198e-06
7.77362e-06
7.62799e-06
7.71422e-06
9.13485e-06
1.48205e-05
1.66875e-05
1.65678e-05
1.61085e-05
1.57573e-05
1.55769e-05
1.55153e-05
1.55439e-05
1.56187e-05
1.5672e-05
1.56791e-05
1.56548e-05
1.56082e-05
1.55637e-05
1.55422e-05
1.55417e-05
1.55542e-05
1.55681e-05
1.55761e-05
1.55803e-05
1.55844e-05
1.55921e-05
1.56031e-05
1.56154e-05
1.5628e-05
1.56407e-05
1.5654e-05
1.56683e-05
1.56833e-05
1.56988e-05
1.57146e-05
1.57309e-05
1.57475e-05
1.57644e-05
1.57814e-05
1.57986e-05
1.5816e-05
1.58334e-05
1.58508e-05
1.58682e-05
1.58854e-05
1.59026e-05
1.59195e-05
1.59362e-05
1.59526e-05
1.59688e-05
1.59847e-05
1.60002e-05
1.60154e-05
1.60301e-05
1.60444e-05
1.60583e-05
1.60718e-05
1.60847e-05
1.60971e-05
1.61091e-05
1.61205e-05
1.61314e-05
1.61419e-05
1.61519e-05
1.61614e-05
1.61705e-05
1.6179e-05
1.6187e-05
1.61948e-05
1.62023e-05
1.62094e-05
1.62157e-05
1.62202e-05
1.62245e-05
1.6228e-05
1.62308e-05
1.62331e-05
1.62346e-05
1.62354e-05
5.72953e-06
7.14387e-06
1.02817e-05
1.05895e-05
1.02801e-05
1.02011e-05
1.02897e-05
1.37543e-05
2.05076e-05
2.22547e-05
2.20966e-05
2.18103e-05
2.15016e-05
2.13519e-05
2.13157e-05
2.13526e-05
2.1416e-05
2.14531e-05
2.14471e-05
2.14118e-05
2.13618e-05
2.13206e-05
2.13038e-05
2.13081e-05
2.13234e-05
2.13384e-05
2.13475e-05
2.13538e-05
2.13612e-05
2.13727e-05
2.13877e-05
2.14042e-05
2.1421e-05
2.14382e-05
2.14564e-05
2.14758e-05
2.1496e-05
2.15168e-05
2.15382e-05
2.15601e-05
2.15825e-05
2.16053e-05
2.16284e-05
2.16516e-05
2.1675e-05
2.16985e-05
2.1722e-05
2.17455e-05
2.17689e-05
2.17921e-05
2.1815e-05
2.18376e-05
2.18598e-05
2.18818e-05
2.19033e-05
2.19244e-05
2.19449e-05
2.19648e-05
2.19842e-05
2.20031e-05
2.20213e-05
2.20388e-05
2.20557e-05
2.20719e-05
2.20874e-05
2.21022e-05
2.21165e-05
2.213e-05
2.21429e-05
2.21552e-05
2.21667e-05
2.21776e-05
2.21881e-05
2.21982e-05
2.22079e-05
2.22165e-05
2.22226e-05
2.22282e-05
2.22329e-05
2.22368e-05
2.22398e-05
2.22418e-05
2.22428e-05
7.60988e-06
9.54047e-06
1.43413e-05
1.3371e-05
1.29061e-05
1.2944e-05
1.34441e-05
1.96823e-05
2.67868e-05
2.81882e-05
2.80435e-05
2.81044e-05
2.79287e-05
2.78597e-05
2.78698e-05
2.79094e-05
2.79387e-05
2.79399e-05
2.79123e-05
2.78661e-05
2.78215e-05
2.77946e-05
2.77895e-05
2.78012e-05
2.78183e-05
2.78322e-05
2.78419e-05
2.78508e-05
2.78628e-05
2.78792e-05
2.78987e-05
2.79195e-05
2.79407e-05
2.79629e-05
2.79863e-05
2.80111e-05
2.8037e-05
2.80635e-05
2.80908e-05
2.81189e-05
2.81475e-05
2.81766e-05
2.82061e-05
2.82358e-05
2.82658e-05
2.82959e-05
2.8326e-05
2.83561e-05
2.8386e-05
2.84157e-05
2.84451e-05
2.84741e-05
2.85027e-05
2.85309e-05
2.85584e-05
2.85854e-05
2.86118e-05
2.86374e-05
2.86624e-05
2.86866e-05
2.871e-05
2.87325e-05
2.87542e-05
2.87751e-05
2.8795e-05
2.88141e-05
2.88323e-05
2.88497e-05
2.88663e-05
2.8882e-05
2.88968e-05
2.89109e-05
2.89243e-05
2.89372e-05
2.89495e-05
2.89606e-05
2.89685e-05
2.89756e-05
2.89816e-05
2.89865e-05
2.89904e-05
2.89929e-05
2.89941e-05
9.60391e-06
1.28129e-05
1.93187e-05
1.69016e-05
1.56966e-05
1.58804e-05
1.78972e-05
2.71736e-05
3.35488e-05
3.45353e-05
3.44831e-05
3.50756e-05
3.51317e-05
3.5194e-05
3.52666e-05
3.52987e-05
3.52687e-05
3.52138e-05
3.51565e-05
3.51023e-05
3.50739e-05
3.50737e-05
3.50877e-05
3.51092e-05
3.51267e-05
3.51375e-05
3.5147e-05
3.51595e-05
3.51775e-05
3.51998e-05
3.52242e-05
3.52493e-05
3.52753e-05
3.53027e-05
3.53318e-05
3.53625e-05
3.53944e-05
3.54271e-05
3.54607e-05
3.54953e-05
3.55306e-05
3.55664e-05
3.56028e-05
3.56394e-05
3.56764e-05
3.57135e-05
3.57507e-05
3.57879e-05
3.58248e-05
3.58615e-05
3.58978e-05
3.59337e-05
3.59691e-05
3.6004e-05
3.60381e-05
3.60715e-05
3.61042e-05
3.6136e-05
3.61669e-05
3.61968e-05
3.62258e-05
3.62537e-05
3.62806e-05
3.63065e-05
3.63312e-05
3.63548e-05
3.63775e-05
3.63991e-05
3.64196e-05
3.6439e-05
3.64573e-05
3.64747e-05
3.64913e-05
3.65072e-05
3.65223e-05
3.65361e-05
3.65458e-05
3.65546e-05
3.65619e-05
3.65679e-05
3.65726e-05
3.65757e-05
3.65771e-05
1.17541e-05
1.7078e-05
2.52984e-05
2.16441e-05
1.87742e-05
1.90958e-05
2.38417e-05
3.60295e-05
4.06897e-05
4.13874e-05
4.15232e-05
4.28464e-05
4.32332e-05
4.34697e-05
4.36107e-05
4.36183e-05
4.35037e-05
4.33746e-05
4.32827e-05
4.32267e-05
4.32278e-05
4.32667e-05
4.33069e-05
4.33399e-05
4.33561e-05
4.33615e-05
4.33705e-05
4.33876e-05
4.34131e-05
4.34424e-05
4.3472e-05
4.35017e-05
4.35326e-05
4.35657e-05
4.3601e-05
4.36379e-05
4.36761e-05
4.37154e-05
4.37558e-05
4.37972e-05
4.38396e-05
4.38826e-05
4.39262e-05
4.39703e-05
4.40147e-05
4.40593e-05
4.41041e-05
4.41488e-05
4.41932e-05
4.42375e-05
4.42812e-05
4.43245e-05
4.43671e-05
4.44091e-05
4.44503e-05
4.44906e-05
4.453e-05
4.45684e-05
4.46057e-05
4.46418e-05
4.46769e-05
4.47106e-05
4.47431e-05
4.47743e-05
4.48042e-05
4.48327e-05
4.48601e-05
4.48862e-05
4.49109e-05
4.49344e-05
4.49565e-05
4.49774e-05
4.49972e-05
4.5016e-05
4.50341e-05
4.5051e-05
4.50626e-05
4.5073e-05
4.50817e-05
4.50888e-05
4.50944e-05
4.50981e-05
4.50996e-05
1.43977e-05
2.24343e-05
3.23246e-05
2.76016e-05
2.26607e-05
2.29281e-05
3.15731e-05
4.53729e-05
4.81424e-05
4.88924e-05
4.93307e-05
5.16018e-05
5.2393e-05
5.28185e-05
5.30104e-05
5.29668e-05
5.27467e-05
5.25348e-05
5.2411e-05
5.23652e-05
5.24103e-05
5.24987e-05
5.25691e-05
5.26134e-05
5.26259e-05
5.26243e-05
5.2633e-05
5.26561e-05
5.26906e-05
5.27275e-05
5.27626e-05
5.27967e-05
5.28327e-05
5.28718e-05
5.29136e-05
5.2957e-05
5.30017e-05
5.30476e-05
5.30949e-05
5.31435e-05
5.31932e-05
5.32436e-05
5.32948e-05
5.33465e-05
5.33986e-05
5.34511e-05
5.35037e-05
5.35562e-05
5.36085e-05
5.36606e-05
5.37121e-05
5.3763e-05
5.38133e-05
5.38627e-05
5.39113e-05
5.39589e-05
5.40054e-05
5.40507e-05
5.40947e-05
5.41373e-05
5.41786e-05
5.42184e-05
5.42567e-05
5.42936e-05
5.43288e-05
5.43625e-05
5.43947e-05
5.44254e-05
5.44546e-05
5.44821e-05
5.4508e-05
5.45324e-05
5.45554e-05
5.45771e-05
5.4598e-05
5.46182e-05
5.46315e-05
5.46435e-05
5.46535e-05
5.46617e-05
5.4668e-05
5.46722e-05
5.46737e-05
1.79085e-05
2.89568e-05
4.04395e-05
3.47828e-05
2.79689e-05
2.83925e-05
4.14901e-05
5.48394e-05
5.59085e-05
5.72698e-05
5.81899e-05
6.15989e-05
6.27729e-05
6.33335e-05
6.35193e-05
6.33902e-05
6.3061e-05
6.27795e-05
6.26415e-05
6.26247e-05
6.27258e-05
6.28656e-05
6.29631e-05
6.30142e-05
6.302e-05
6.30115e-05
6.30213e-05
6.30519e-05
6.30959e-05
6.31401e-05
6.31801e-05
6.32184e-05
6.32592e-05
6.33041e-05
6.3352e-05
6.34015e-05
6.34524e-05
6.35046e-05
6.35585e-05
6.36139e-05
6.36704e-05
6.37279e-05
6.37863e-05
6.38453e-05
6.39049e-05
6.39648e-05
6.40249e-05
6.4085e-05
6.41448e-05
6.42044e-05
6.42634e-05
6.43217e-05
6.43793e-05
6.4436e-05
6.44917e-05
6.45463e-05
6.45996e-05
6.46515e-05
6.4702e-05
6.47509e-05
6.47982e-05
6.48439e-05
6.48878e-05
6.493e-05
6.49703e-05
6.50088e-05
6.50456e-05
6.50807e-05
6.51138e-05
6.5145e-05
6.51742e-05
6.52016e-05
6.52273e-05
6.5251e-05
6.52741e-05
6.52973e-05
6.5312e-05
6.53251e-05
6.5336e-05
6.53447e-05
6.53516e-05
6.5356e-05
6.53571e-05
2.23543e-05
3.67549e-05
4.96746e-05
4.32439e-05
3.47166e-05
3.56521e-05
5.40537e-05
6.43463e-05
6.40399e-05
6.68255e-05
6.85704e-05
7.30865e-05
7.44452e-05
7.50039e-05
7.50998e-05
7.486e-05
7.44446e-05
7.41324e-05
7.40123e-05
7.40452e-05
7.42053e-05
7.4385e-05
7.44966e-05
7.45462e-05
7.45433e-05
7.45303e-05
7.45439e-05
7.45829e-05
7.46354e-05
7.46855e-05
7.47291e-05
7.47709e-05
7.4816e-05
7.4866e-05
7.49192e-05
7.49739e-05
7.503e-05
7.50876e-05
7.51472e-05
7.52084e-05
7.52709e-05
7.53346e-05
7.53992e-05
7.54646e-05
7.55306e-05
7.55971e-05
7.56637e-05
7.57305e-05
7.5797e-05
7.58632e-05
7.59288e-05
7.59937e-05
7.60579e-05
7.6121e-05
7.6183e-05
7.62438e-05
7.63031e-05
7.63609e-05
7.64171e-05
7.64714e-05
7.65241e-05
7.65749e-05
7.66237e-05
7.66704e-05
7.67151e-05
7.67577e-05
7.67983e-05
7.68368e-05
7.68731e-05
7.69071e-05
7.69388e-05
7.69681e-05
7.69951e-05
7.70197e-05
7.70438e-05
7.70693e-05
7.70847e-05
7.70981e-05
7.7109e-05
7.71177e-05
7.71243e-05
7.71285e-05
7.71285e-05
2.77991e-05
4.59485e-05
6.00557e-05
5.3074e-05
4.29783e-05
4.49331e-05
6.80306e-05
7.39156e-05
7.30323e-05
7.79439e-05
8.10221e-05
8.61476e-05
8.73755e-05
8.77737e-05
8.77099e-05
8.73564e-05
8.68967e-05
8.66042e-05
8.65366e-05
8.66333e-05
8.68439e-05
8.70424e-05
8.71507e-05
8.71902e-05
8.71785e-05
8.71652e-05
8.71856e-05
8.72333e-05
8.72925e-05
8.73462e-05
8.73923e-05
8.7437e-05
8.74861e-05
8.75405e-05
8.75981e-05
8.76571e-05
8.77176e-05
8.77798e-05
8.78442e-05
8.79104e-05
8.7978e-05
8.80469e-05
8.81169e-05
8.81878e-05
8.82594e-05
8.83316e-05
8.8404e-05
8.84765e-05
8.85488e-05
8.86208e-05
8.86922e-05
8.87629e-05
8.88328e-05
8.89016e-05
8.89691e-05
8.90353e-05
8.90998e-05
8.91627e-05
8.92238e-05
8.92829e-05
8.93401e-05
8.93951e-05
8.94479e-05
8.94984e-05
8.95466e-05
8.95924e-05
8.9636e-05
8.96771e-05
8.97156e-05
8.97514e-05
8.97843e-05
8.98143e-05
8.98413e-05
8.98651e-05
8.98887e-05
8.99156e-05
8.99306e-05
8.99432e-05
8.99532e-05
8.99609e-05
8.99664e-05
8.99695e-05
8.99675e-05
3.43589e-05
5.66452e-05
7.16019e-05
6.43943e-05
5.29159e-05
5.67028e-05
8.13371e-05
8.37282e-05
8.34129e-05
9.10065e-05
9.57099e-05
0.000100696
0.000101524
0.000101643
0.000101385
0.000100936
0.00010048
0.000100254
0.000100266
0.000100429
0.000100674
0.000100868
0.000100957
0.000100981
0.000100962
0.000100953
0.000100983
0.000101039
0.000101102
0.000101158
0.000101206
0.000101253
0.000101306
0.000101364
0.000101426
0.000101489
0.000101553
0.000101619
0.000101688
0.000101759
0.000101831
0.000101904
0.000101979
0.000102055
0.000102132
0.000102209
0.000102286
0.000102364
0.000102442
0.000102519
0.000102596
0.000102672
0.000102747
0.00010282
0.000102893
0.000102964
0.000103033
0.0001031
0.000103166
0.000103229
0.00010329
0.000103348
0.000103405
0.000103458
0.000103509
0.000103557
0.000103603
0.000103645
0.000103685
0.000103721
0.000103754
0.000103784
0.000103809
0.00010383
0.000103852
0.000103878
0.000103892
0.000103902
0.00010391
0.000103915
0.000103919
0.000103919
0.000103914
4.22006e-05
6.89699e-05
8.43213e-05
7.73479e-05
6.47719e-05
7.16337e-05
9.38965e-05
9.41205e-05
9.57726e-05
0.00010623
0.000112367
0.000116626
0.000116908
0.000116687
0.000116231
0.000115721
0.000115316
0.000115193
0.000115297
0.000115521
0.000115779
0.000115948
0.000116005
0.00011601
0.000115987
0.000115987
0.000116028
0.000116091
0.000116157
0.000116213
0.000116262
0.000116313
0.000116369
0.000116431
0.000116496
0.000116562
0.00011663
0.0001167
0.000116773
0.000116848
0.000116924
0.000117002
0.000117081
0.000117162
0.000117243
0.000117325
0.000117407
0.00011749
0.000117572
0.000117654
0.000117736
0.000117817
0.000117896
0.000117975
0.000118051
0.000118127
0.0001182
0.000118271
0.00011834
0.000118406
0.000118471
0.000118532
0.00011859
0.000118646
0.000118699
0.000118748
0.000118795
0.000118838
0.000118877
0.000118913
0.000118944
0.000118971
0.000118993
0.000119009
0.000119026
0.00011905
0.000119061
0.000119068
0.000119072
0.000119073
0.000119072
0.000119069
0.000119059
5.14819e-05
8.30987e-05
9.82012e-05
9.21074e-05
7.88353e-05
9.05063e-05
0.000105877
0.000105512
0.00011061
0.000123594
0.000130663
0.000133903
0.000133604
0.000133026
0.000132397
0.000131865
0.000131551
0.000131552
0.000131751
0.000132021
0.000132272
0.000132398
0.000132416
0.000132402
0.000132378
0.000132391
0.000132444
0.000132513
0.00013258
0.000132636
0.000132686
0.000132739
0.000132799
0.000132865
0.000132933
0.000133002
0.000133073
0.000133147
0.000133223
0.000133302
0.000133382
0.000133464
0.000133548
0.000133633
0.000133718
0.000133805
0.000133891
0.000133978
0.000134065
0.000134152
0.000134237
0.000134322
0.000134406
0.000134488
0.000134569
0.000134648
0.000134724
0.000134798
0.00013487
0.000134939
0.000135005
0.000135068
0.000135128
0.000135185
0.000135238
0.000135287
0.000135333
0.000135375
0.000135413
0.000135446
0.000135474
0.000135496
0.000135511
0.00013552
0.000135529
0.000135549
0.000135554
0.000135555
0.000135552
0.000135547
0.00013554
0.000135531
0.000135514
6.24402e-05
9.9199e-05
0.000113202
0.000108875
9.55963e-05
0.000108902
0.000117696
0.000118295
0.000128058
0.000142936
0.000150417
0.000152575
0.000151722
0.000150807
0.000150043
0.000149531
0.000149336
0.000149471
0.000149756
0.000150053
0.000150276
0.000150347
0.000150323
0.000150292
0.000150272
0.000150299
0.000150365
0.000150439
0.000150505
0.000150559
0.00015061
0.000150667
0.000150731
0.0001508
0.000150871
0.000150943
0.000151017
0.000151094
0.000151174
0.000151256
0.00015134
0.000151426
0.000151513
0.000151602
0.000151691
0.000151782
0.000151872
0.000151963
0.000152054
0.000152144
0.000152233
0.000152322
0.000152409
0.000152494
0.000152577
0.000152659
0.000152738
0.000152814
0.000152887
0.000152957
0.000153024
0.000153088
0.000153148
0.000153203
0.000153255
0.000153303
0.000153346
0.000153385
0.000153419
0.000153447
0.000153468
0.000153483
0.000153489
0.000153487
0.000153484
0.000153494
0.000153492
0.000153484
0.000153472
0.000153457
0.000153441
0.000153422
0.000153394
7.53969e-05
0.000117449
0.000129242
0.000127948
0.000115859
0.000126081
0.000129808
0.000132757
0.000147886
0.000164093
0.000171596
0.000172745
0.000171397
0.000170186
0.000169334
0.000168876
0.000168815
0.00016908
0.000169434
0.000169738
0.000169917
0.000169926
0.000169859
0.000169814
0.000169802
0.000169847
0.000169923
0.00017
0.000170064
0.000170117
0.000170169
0.000170229
0.000170297
0.000170369
0.000170443
0.000170518
0.000170595
0.000170676
0.000170759
0.000170844
0.000170932
0.000171021
0.000171111
0.000171203
0.000171296
0.000171389
0.000171483
0.000171577
0.000171671
0.000171764
0.000171856
0.000171946
0.000172036
0.000172123
0.000172208
0.000172291
0.00017237
0.000172447
0.00017252
0.00017259
0.000172656
0.000172718
0.000172776
0.000172829
0.000172877
0.000172921
0.000172959
0.000172992
0.000173018
0.000173038
0.00017305
0.000173053
0.000173046
0.000173028
0.000173009
0.000173003
0.000172989
0.000172968
0.000172943
0.000172915
0.000172885
0.000172852
0.00017281
9.07862e-05
0.000137866
0.000146137
0.000149741
0.000140508
0.000142008
0.000142663
0.000149315
0.000169771
0.000186966
0.000194259
0.000194533
0.000192771
0.000191318
0.000190422
0.00019004
0.000190117
0.000190497
0.0001909
0.000191191
0.000191313
0.000191258
0.000191152
0.000191098
0.000191097
0.000191159
0.000191245
0.000191324
0.000191385
0.000191436
0.00019149
0.000191554
0.000191626
0.000191701
0.000191777
0.000191855
0.000191935
0.000192019
0.000192105
0.000192193
0.000192283
0.000192375
0.000192468
0.000192563
0.000192658
0.000192754
0.00019285
0.000192946
0.000193041
0.000193136
0.00019323
0.000193321
0.000193411
0.000193499
0.000193584
0.000193666
0.000193745
0.00019382
0.000193891
0.000193958
0.000194021
0.000194079
0.000194132
0.000194179
0.000194221
0.000194257
0.000194287
0.00019431
0.000194325
0.000194333
0.000194331
0.000194318
0.000194292
0.000194254
0.000194211
0.00019418
0.000194151
0.000194111
0.000194068
0.000194021
0.000193971
0.000193919
0.000193857
0.000108863
0.00016017
0.000163619
0.00017481
0.000163629
0.000157001
0.000156745
0.00016833
0.000193442
0.00021152
0.000218512
0.000218069
0.00021598
0.000214344
0.000213437
0.000213147
0.000213353
0.000213826
0.000214255
0.000214517
0.000214577
0.000214459
0.00021432
0.000214261
0.000214273
0.000214352
0.000214448
0.000214526
0.000214585
0.000214634
0.000214691
0.00021476
0.000214835
0.000214913
0.000214992
0.000215072
0.000215155
0.000215241
0.00021533
0.000215421
0.000215513
0.000215607
0.000215702
0.000215799
0.000215896
0.000215993
0.00021609
0.000216187
0.000216283
0.000216377
0.00021647
0.000216562
0.00021665
0.000216736
0.000216819
0.000216898
0.000216974
0.000217044
0.000217111
0.000217172
0.000217229
0.000217279
0.000217324
0.000217362
0.000217393
0.000217418
0.000217435
0.000217444
0.000217443
0.000217433
0.000217411
0.000217377
0.000217327
0.000217261
0.000217187
0.000217118
0.000217068
0.000217004
0.000216935
0.000216861
0.000216785
0.000216705
0.000216617
0.000125245
0.000180523
0.000181344
0.000203742
0.000184821
0.000171651
0.0001725
0.000189984
0.000218895
0.000237773
0.000244484
0.000243486
0.000241125
0.00023939
0.000238495
0.000238298
0.000238613
0.000239155
0.000239591
0.000239813
0.000239809
0.000239635
0.000239468
0.000239409
0.000239436
0.000239531
0.000239634
0.000239712
0.000239767
0.000239817
0.000239877
0.00023995
0.00024003
0.000240111
0.000240192
0.000240274
0.00024036
0.000240449
0.00024054
0.000240633
0.000240727
0.000240822
0.000240919
0.000241016
0.000241113
0.00024121
0.000241307
0.000241403
0.000241498
0.000241591
0.000241681
0.00024177
0.000241855
0.000241936
0.000242014
0.000242088
0.000242156
0.00024222
0.000242278
0.00024233
0.000242376
0.000242415
0.000242447
0.000242471
0.000242487
0.000242495
0.000242493
0.000242482
0.000242459
0.000242425
0.000242377
0.000242313
0.000242231
0.000242129
0.000242015
0.000241895
0.000241815
0.000241718
0.000241615
0.000241506
0.000241393
0.000241276
0.000241152
0.000139753
0.00019814
0.000199059
0.000230109
0.000203892
0.000186563
0.000190408
0.000214302
0.000246268
0.000265772
0.000272277
0.00027091
0.00026832
0.000266553
0.00026568
0.000265567
0.000265969
0.000266557
0.000266983
0.000267159
0.000267096
0.000266873
0.000266687
0.00026663
0.000266673
0.000266783
0.000266892
0.00026697
0.000267023
0.000267073
0.000267138
0.000267216
0.0002673
0.000267384
0.000267468
0.000267553
0.000267642
0.000267733
0.000267826
0.00026792
0.000268015
0.000268111
0.000268207
0.000268304
0.0002684
0.000268496
0.00026859
0.000268683
0.000268774
0.000268863
0.000268949
0.000269032
0.00026911
0.000269184
0.000269254
0.000269317
0.000269376
0.000269427
0.000269473
0.000269511
0.000269541
0.000269563
0.000269577
0.000269581
0.000269576
0.000269561
0.000269534
0.000269495
0.000269443
0.000269376
0.000269293
0.000269191
0.000269067
0.000268921
0.000268755
0.000152826
0.000213084
0.000216796
0.000254184
0.000221024
0.00020237
0.000210784
0.000241117
0.000275634
0.000295581
0.000301959
0.000300408
0.000297652
0.000295896
0.000295051
0.000295007
0.000295472
0.000296085
0.000296491
0.000296621
0.000296505
0.000296244
0.000296047
0.000295994
0.000296052
0.000296176
0.00029629
0.000296368
0.000296421
0.000296474
0.000296543
0.000296627
0.000296716
0.000296804
0.00029689
0.000296978
0.00029707
0.000297163
0.000297257
0.000297352
0.000297447
0.000297543
0.000297638
0.000297732
0.000297826
0.000297918
0.000298008
0.000298096
0.000298181
0.000298263
0.00029834
0.000298414
0.000298482
0.000298544
0.000298601
0.000298651
0.000298694
0.000298729
0.000298755
0.000298774
0.000298783
0.000298782
0.00029877
0.000298747
0.000298713
0.000298666
0.000298605
0.000298529
0.000298438
0.000298329
0.000298201
0.000298051
0.000297874
0.000297672
0.000297444
0.000164686
0.000225818
0.000234785
0.000276368
0.000237076
0.000219589
0.00023377
0.000270455
0.000307014
0.000327271
0.000333616
0.000332021
0.000329185
0.000327446
0.000326633
0.000326642
0.000327148
0.000327771
0.00032815
0.000328238
0.000328079
0.00032779
0.000327588
0.000327544
0.000327617
0.000327754
0.000327873
0.000327953
0.000328007
0.000328063
0.000328139
0.000328229
0.000328324
0.000328415
0.000328505
0.000328596
0.00032869
0.000328785
0.00032888
0.000328975
0.000329069
0.000329163
0.000329256
0.000329346
0.000329435
0.000329521
0.000329604
0.000329684
0.00032976
0.00032983
0.000329896
0.000329956
0.000330009
0.000330055
0.000330094
0.000330124
0.000330145
0.000330157
0.000330159
0.00033015
0.00033013
0.000330097
0.000330052
0.000329993
0.00032992
0.000329832
0.000329726
0.000329603
0.000329461
0.000329298
0.000329112
0.0003289
0.000328658
0.000328386
0.000328086
0.000175795
0.000236832
0.000253287
0.000296723
0.000252915
0.000238682
0.000259702
0.00030232
0.00034039
0.00036088
0.000367262
0.00036574
0.000362928
0.000361193
0.000360419
0.000360465
0.000360996
0.000361616
0.000361968
0.000362022
0.000361832
0.000361526
0.000361325
0.00036129
0.000361379
0.000361528
0.000361654
0.000361737
0.000361794
0.000361856
0.000361939
0.000362037
0.000362137
0.000362233
0.000362326
0.000362421
0.000362517
0.000362613
0.000362709
0.000362803
0.000362895
0.000362985
0.000363073
0.000363158
0.000363239
0.000363316
0.000363389
0.000363457
0.000363519
0.000363575
0.000363624
0.000363665
0.000363698
0.000363721
0.000363735
0.000363739
0.000363731
0.000363712
0.000363681
0.000363636
0.000363577
0.000363504
0.000363414
0.000363308
0.000363185
0.000363043
0.000362881
0.000362697
0.00036249
0.000362258
0.000361999
0.00036171
0.000361387
0.00036103
0.000360643
0.000186921
0.000246677
0.000273347
0.000315241
0.000269173
0.000260084
0.000288899
0.000336632
0.000375718
0.000396389
0.000402855
0.000401501
0.000398802
0.000397092
0.000396362
0.000396434
0.000396978
0.000397589
0.000397916
0.000397945
0.000397735
0.000397422
0.000397229
0.000397207
0.00039731
0.000397472
0.000397606
0.000397694
0.000397757
0.000397827
0.000397918
0.000398024
0.00039813
0.000398232
0.000398329
0.000398427
0.000398525
0.000398622
0.000398717
0.000398808
0.000398897
0.000398982
0.000399063
0.000399139
0.000399209
0.000399274
0.000399333
0.000399384
0.000399428
0.000399463
0.000399489
0.000399505
0.000399511
0.000399504
0.000399486
0.000399455
0.000399409
0.00039935
0.000399275
0.000399184
0.000399075
0.000398949
0.000398803
0.000398636
0.000398449
0.000398239
0.000398004
0.000397743
0.000397455
0.000397137
0.000396787
0.000396402
0.000395979
0.000395519
0.000395029
0.000199075
0.000255974
0.000296466
0.000332492
0.000286408
0.000284298
0.000321389
0.00037324
0.000412921
0.00043372
0.000440309
0.000439206
0.000436683
0.000435051
0.000434372
0.000434465
0.000435012
0.000435611
0.000435918
0.000435931
0.000435713
0.000435405
0.000435226
0.000435218
0.000435337
0.000435512
0.000435656
0.000435752
0.000435823
0.000435902
0.000436003
0.000436117
0.000436231
0.000436337
0.000436439
0.000436539
0.000436639
0.000436736
0.000436828
0.000436916
0.000436998
0.000437075
0.000437146
0.000437209
0.000437265
0.000437313
0.000437352
0.000437382
0.000437401
0.00043741
0.000437406
0.000437389
0.000437359
0.000437314
0.000437253
0.000437177
0.000437083
0.000436972
0.000436841
0.000436691
0.000436519
0.000436325
0.000436107
0.000435864
0.000435596
0.0004353
0.000434974
0.000434617
0.000434227
0.000433803
0.000433341
0.000432838
0.000432293
0.000431708
0.000431094
0.000213391
0.000265374
0.000320104
0.000348967
0.000305366
0.00031157
0.000356836
0.000411954
0.000451876
0.000472746
0.000479488
0.000478712
0.00047643
0.000474922
0.000474304
0.000474415
0.000474961
0.000475547
0.000475839
0.000475846
0.000475632
0.000475339
0.00047518
0.00047519
0.000475326
0.000475515
0.000475669
0.000475776
0.000475858
0.000475948
0.000476059
0.000476182
0.000476303
0.000476415
0.00047652
0.000476622
0.000476722
0.000476817
0.000476905
0.000476986
0.00047706
0.000477125
0.000477182
0.000477228
0.000477265
0.00047729
0.000477304
0.000477305
0.000477292
0.000477265
0.000477222
0.000477163
0.000477087
0.000476993
0.000476879
0.000476745
0.00047659
0.000476412
0.000476211
0.000475986
0.000475734
0.000475455
0.000475147
0.00047481
0.00047444
0.000474037
0.000473598
0.000473122
0.000472607
0.000472051
0.000471452
0.000470806
0.000470112
0.000469375
0.000468609
0.000230998
0.00027643
0.000342564
0.000365058
0.00032648
0.00034186
0.000395028
0.000452532
0.000492403
0.00051328
0.000520199
0.000519812
0.000517832
0.000516486
0.000515944
0.000516077
0.000516619
0.00051719
0.000517473
0.000517484
0.000517286
0.000517018
0.000516886
0.000516916
0.00051707
0.000517273
0.000517441
0.000517561
0.000517655
0.000517757
0.000517879
0.000518011
0.000518138
0.000518255
0.000518363
0.000518466
0.000518564
0.000518654
0.000518735
0.000518806
0.000518866
0.000518916
0.000518953
0.000518977
0.000518987
0.000518982
0.000518962
0.000518926
0.000518872
0.0005188
0.000518708
0.000518595
0.000518461
0.000518303
0.000518122
0.000517916
0.000517683
0.000517423
0.000517134
0.000516815
0.000516463
0.000516079
0.000515659
0.000515203
0.000514709
0.000514173
0.000513596
0.000512973
0.000512305
0.000511588
0.00051082
0.00051
0.000509127
0.000508205
0.000507251
0.000252986
0.000291413
0.000366532
0.000381485
0.000350099
0.000375309
0.000435679
0.000494672
0.000534266
0.000555077
0.000562186
0.000562213
0.000560589
0.000559443
0.000558997
0.000559154
0.000559691
0.000560249
0.000560528
0.000560552
0.00056038
0.000560147
0.000560048
0.000560102
0.000560274
0.000560494
0.000560676
0.00056081
0.000560918
0.000561033
0.000561165
0.000561306
0.000561439
0.000561558
0.000561667
0.000561768
0.00056186
0.000561942
0.000562012
0.000562068
0.000562109
0.000562136
0.000562147
0.00056214
0.000562116
0.000562073
0.000562009
0.000561925
0.000561818
0.000561688
0.000561534
0.000561353
0.000561145
0.000560909
0.000560643
0.000560346
0.000560017
0.000559654
0.000559255
0.00055882
0.000558345
0.00055783
0.000557273
0.000556671
0.000556023
0.000555326
0.000554578
0.000553777
0.000552922
0.000552009
0.000551038
0.000550005
0.000548913
0.000547767
0.000546582
0.000280394
0.000311891
0.00039167
0.000399189
0.000376462
0.000411988
0.000478369
0.000538024
0.000577142
0.000597823
0.000605174
0.000605522
0.000604302
0.000603393
0.000603063
0.000603249
0.000603781
0.000604326
0.000604607
0.000604651
0.000604516
0.000604327
0.000604265
0.000604345
0.000604538
0.000604773
0.000604971
0.00060512
0.000605243
0.00060537
0.000605512
0.000605658
0.000605794
0.000605914
0.00060602
0.000606114
0.000606197
0.000606265
0.000606317
0.000606351
0.000606366
0.000606362
0.000606338
0.000606291
0.000606221
0.000606128
0.000606008
0.000605863
0.000605689
0.000605486
0.000605252
0.000604986
0.000604686
0.000604351
0.00060398
0.000603571
0.000603122
0.000602632
0.000602098
0.000601519
0.000600893
0.000600218
0.000599492
0.000598712
0.000597876
0.000596982
0.000596027
0.000595009
0.000593927
0.000592777
0.000591558
0.000590269
0.000588912
0.00058749
0.000586019
0.000314101
0.000336873
0.000419503
0.000418945
0.000405706
0.00045163
0.000522563
0.000582145
0.000620566
0.000641011
0.000648638
0.000649235
0.000648451
0.00064781
0.000647614
0.000647838
0.000648365
0.000648898
0.000649184
0.000649255
0.000649166
0.000649029
0.000649007
0.000649115
0.000649328
0.000649578
0.000649791
0.000649955
0.000650092
0.000650229
0.000650378
0.000650527
0.000650662
0.000650777
0.000650875
0.000650957
0.000651023
0.00065107
0.000651095