/*--------------------------------*- C++ -*----------------------------------*\
| =========                 |                                                 |
| \\      /  F ield         | OpenFOAM: The Open Source CFD Toolbox           |
|  \\    /   O peration     | Version:  2412                                  |
|   \\  /    A nd           | Website:  www.openfoam.com                      |
|    \\/     M anipulation  |                                                 |
\*---------------------------------------------------------------------------*/
FoamFile
{
    version     2.0;
    format      ascii;
    arch        "LSB;label=32;scalar=64";
    class       volVectorField;
    location    "260";
    object      U;
}
// * * * * * * * * * * * * * * * * * * * * * * * * * * * * * * * * * * * * * //

dimensions      [0 1 -1 0 0 0 0];

internalField   nonuniform List<vector> 
7418
(
(-0.0156389 -0.0592883 0)
(-0.128787 -0.257672 -3.02088e-20)
(-0.146088 -0.17163 -5.47866e-20)
(-0.142768 -0.109909 -5.15092e-20)
(-0.233938 -0.11799 4.77491e-20)
(-0.143645 -0.0432608 3.93388e-20)
(0.346458 0.0435638 1.44519e-20)
(0.761256 0.00893659 -1.65512e-24)
(0.788549 -0.0374031 0)
(0.63944 -0.0332567 1.69775e-20)
(0.564059 -0.0241285 -1.0258e-24)
(0.524383 -0.0185756 7.99771e-21)
(0.505318 -0.0153767 7.5016e-21)
(0.505289 -0.0142814 -6.95088e-21)
(0.519796 -0.0153327 6.43377e-21)
(0.533299 -0.0175818 0)
(0.538303 -0.0193232 2.98462e-27)
(0.538165 -0.0203466 2.14468e-20)
(0.532025 -0.0204692 0)
(0.52396 -0.0198043 1.90368e-20)
(0.519219 -0.019147 0)
(0.517746 -0.0188236 0)
(0.518952 -0.0188587 -3.05962e-20)
(0.520984 -0.0191751 2.95277e-27)
(0.522044 -0.0194614 4.02154e-25)
(0.522271 -0.0196371 -1.22909e-20)
(0.522139 -0.0197076 0)
(0.522385 -0.0197723 -3.22688e-25)
(0.523107 -0.0198909 1.97234e-20)
(0.524073 -0.0200591 1.83278e-20)
(0.525036 -0.0202449 2.5888e-25)
(0.525949 -0.0204267 -1.58559e-20)
(0.526889 -0.0206095 0)
(0.527907 -0.0208043 -2.08623e-25)
(0.529002 -0.0210151 -5.12264e-20)
(0.530135 -0.0212405 -4.77699e-20)
(0.531294 -0.0214764 0)
(0.532481 -0.0217242 0)
(0.53369 -0.0219835 0)
(0.534912 -0.0222564 0)
(0.536148 -0.0225413 3.40902e-20)
(0.537399 -0.0228394 -1.21111e-25)
(0.538654 -0.0231506 -2.99711e-20)
(0.539913 -0.0234748 0)
(0.541168 -0.0238123 -5.29046e-20)
(0.542418 -0.0241634 0)
(0.543665 -0.0245277 0)
(0.544904 -0.024906 0)
(0.546115 -0.0252971 -4.17341e-20)
(0.547301 -0.0257006 7.39162e-26)
(0.548479 -0.0261177 7.46399e-20)
(0.549632 -0.0265485 7.07104e-20)
(0.550761 -0.0269918 -6.70716e-20)
(0.551866 -0.0274494 -7.43843e-28)
(0.552933 -0.0279189 -1.15578e-25)
(0.55398 -0.0284021 1.10066e-25)
(0.554999 -0.0288987 -1.04963e-25)
(0.555983 -0.029408 5.03842e-26)
(0.556928 -0.0299295 -1.00501e-19)
(0.557827 -0.0304624 -1.92517e-19)
(0.558697 -0.0310082 -3.72571e-27)
(0.559542 -0.0315676 -1.77415e-19)
(0.560339 -0.0321393 8.53595e-20)
(0.56109 -0.0327223 -1.6454e-19)
(0.561813 -0.0333178 -2.34378e-27)
(0.562503 -0.0339259 7.67937e-20)
(0.563161 -0.0345474 1.48753e-19)
(0.563778 -0.0351818 0)
(0.564353 -0.0358284 0)
(0.564906 -0.0364892 -1.36534e-19)
(0.565436 -0.0371647 1.3314e-19)
(0.56594 -0.0378549 -1.30049e-19)
(0.566421 -0.0385606 7.62289e-29)
(0.566828 -0.0392785 -6.20608e-26)
(0.567112 -0.0400061 -5.96347e-26)
(0.567381 -0.0407515 5.73467e-26)
(0.567593 -0.041513 0)
(0.567754 -0.042291 0)
(0.567866 -0.0430867 5.54451e-26)
(0.567915 -0.0439009 -5.45034e-26)
(0.567919 -0.044736 -2.27645e-19)
(-0.0150802 0.140263 1.4927e-20)
(0.0289126 0.219038 0)
(-0.0526748 -0.169626 0)
(-0.380725 -0.752131 4.96698e-20)
(-0.442584 -0.521741 -4.38474e-23)
(-0.436687 -0.336015 8.4857e-20)
(-0.680955 -0.345765 -7.87361e-20)
(-0.341145 -0.112343 1.70401e-23)
(1.15306 0.135048 -2.37545e-20)
(2.33011 0.0228916 2.72262e-24)
(2.38756 -0.112068 0)
(1.96787 -0.0998046 -1.39982e-20)
(1.75313 -0.0737533 -3.30508e-24)
(1.63993 -0.057488 1.60821e-24)
(1.58666 -0.0480783 -1.51929e-24)
(1.58826 -0.0450352 0)
(1.63038 -0.0483578 1.29759e-24)
(1.66878 -0.0551766 -1.21899e-24)
(1.68264 -0.0604365 1.4365e-26)
(1.68135 -0.0635242 -3.55017e-20)
(1.66305 -0.0638911 0)
(1.63969 -0.0618969 -1.57644e-20)
(1.62612 -0.0599286 1.4709e-20)
(1.62211 -0.058973 1.36694e-20)
(1.6258 -0.0590999 -1.46753e-26)
(1.63176 -0.0600745 -4.70959e-20)
(1.63487 -0.0609531 3.49514e-27)
(1.63558 -0.0614975 2.03766e-20)
(1.63532 -0.0617243 -5.76154e-25)
(1.63619 -0.061934 1.07452e-24)
(1.63847 -0.0623081 -3.2712e-20)
(1.64145 -0.0628347 -3.04008e-20)
(1.64442 -0.0634129 2.82717e-20)
(1.64726 -0.0639825 2.63058e-20)
(1.65018 -0.0645534 3.75544e-25)
(1.65336 -0.065163 0)
(1.65676 -0.0658228 4.25077e-20)
(1.66028 -0.0665263 3.96428e-20)
(1.66388 -0.0672642 0)
(1.66756 -0.0680376 6.91169e-20)
(1.67131 -0.068849 6.46093e-20)
(1.67511 -0.069701 -6.04469e-20)
(1.67896 -0.070593 -5.66025e-20)
(1.68284 -0.0715251 0)
(1.68674 -0.0724973 4.97703e-20)
(1.69065 -0.0735116 1.79496e-25)
(1.69455 -0.0745667 -1.55126e-26)
(1.69843 -0.0756642 0)
(1.70231 -0.076804 0)
(1.70615 -0.0779862 0)
(1.70993 -0.0792092 -1.3139e-25)
(1.71363 -0.0804728 6.55276e-20)
(1.71729 -0.0817775 -1.24011e-19)
(1.72088 -0.0831245 4.48285e-25)
(1.72439 -0.0845121 -2.1395e-25)
(1.72782 -0.0859421 0)
(1.73116 -0.0874124 0)
(1.73441 -0.0889237 0)
(1.73756 -0.0904765 0)
(1.74062 -0.0920692 0)
(1.74356 -0.0937011 -1.6704e-19)
(1.74637 -0.0953691 3.19992e-19)
(1.74907 -0.0970769 1.53479e-19)
(1.75168 -0.0988261 1.47455e-19)
(1.75417 -0.100615 -1.41895e-19)
(1.75653 -0.102441 2.73532e-19)
(1.75878 -0.104304 2.6407e-19)
(1.76092 -0.106206 -1.27671e-19)
(1.76295 -0.10815 0)
(1.76488 -0.110135 0)
(1.76668 -0.11216 -1.11086e-25)
(1.76839 -0.114227 1.08363e-25)
(1.77002 -0.11634 -2.21384e-19)
(1.7716 -0.1185 0)
(1.77309 -0.120708 2.11641e-19)
(1.77435 -0.122955 2.07456e-19)
(1.77524 -0.125232 2.03697e-19)
(1.77606 -0.127564 -2.00364e-19)
(1.77672 -0.129947 1.88332e-25)
(1.77721 -0.132382 -9.2666e-26)
(1.77755 -0.134871 0)
(1.77771 -0.137421 0)
(1.77771 -0.140034 0)
(-0.0433211 0.425315 -2.45403e-20)
(0.080337 0.63677 2.04609e-25)
(-0.102908 -0.274538 0)
(-0.637389 -1.24515 5.33283e-23)
(-0.758639 -0.898049 -1.00972e-19)
(-0.756724 -0.581988 4.59873e-23)
(-1.1232 -0.573915 -4.36551e-23)
(-0.42766 -0.163754 0)
(2.14693 0.232874 6.37351e-24)
(4.03561 0.0309563 3.05988e-21)
(4.09479 -0.189626 1.49761e-20)
(3.42691 -0.169617 -3.64664e-24)
(3.0809 -0.127562 -3.8013e-24)
(2.89841 -0.100631 3.6029e-24)
(2.81445 -0.0850113 -1.68829e-24)
(2.81988 -0.080184 1.59205e-24)
(2.88902 -0.0860745 -1.19689e-20)
(2.95071 -0.097795 0)
(2.97231 -0.106809 -1.05684e-20)
(2.96871 -0.11208 1.9979e-20)
(2.93787 -0.112706 2.2959e-24)
(2.89963 -0.109325 0)
(2.87768 -0.105995 -1.657e-20)
(2.87156 -0.104397 -1.54076e-20)
(2.87794 -0.104645 -2.21119e-26)
(2.88784 -0.106342 5.30972e-20)
(2.89301 -0.107871 3.01487e-24)
(2.89429 -0.108826 2.29808e-20)
(2.89409 -0.109238 0)
(2.89581 -0.109621 3.97298e-20)
(2.89987 -0.110288 0)
(2.90506 -0.111217 -1.21467e-26)
(2.91027 -0.112237 -3.19117e-20)
(2.91527 -0.113244 -2.96966e-20)
(2.92042 -0.114253 5.52934e-20)
(2.92603 -0.115331 -7.81812e-25)
(2.93202 -0.116498 -4.8e-20)
(2.9382 -0.117741 -6.87045e-25)
(2.94452 -0.119045 6.34028e-25)
(2.95098 -0.120411 -7.80688e-20)
(2.95757 -0.121845 -1.45966e-19)
(2.96426 -0.12335 6.82854e-20)
(2.97104 -0.124927 -1.96093e-26)
(2.97786 -0.126574 -4.54432e-25)
(2.98472 -0.128292 4.31909e-25)
(2.9916 -0.130085 -1.05623e-19)
(2.99846 -0.131951 1.98581e-19)
(3.0053 -0.13389 0)
(3.0121 -0.135905 0)
(3.01884 -0.137994 0)
(3.0255 -0.140156 7.83574e-20)
(3.03204 -0.142391 5.65167e-25)
(3.03848 -0.144698 2.80333e-19)
(3.04479 -0.147078 1.32799e-19)
(3.05097 -0.149532 1.25976e-19)
(3.05701 -0.15206 -2.29674e-25)
(3.06289 -0.15466 -2.15827e-25)
(3.06861 -0.157333 4.1355e-25)
(3.07415 -0.160077 -1.03364e-19)
(3.07952 -0.162893 1.87349e-25)
(3.0847 -0.165778 3.77679e-19)
(3.08967 -0.168729 -1.80882e-19)
(3.09443 -0.171749 1.73517e-19)
(3.09901 -0.174841 1.6671e-19)
(3.10339 -0.178004 1.60426e-19)
(3.10755 -0.181234 -1.54629e-19)
(3.1115 -0.184529 -1.49282e-19)
(3.11526 -0.187892 -1.44351e-19)
(3.11884 -0.19133 2.79627e-19)
(3.12224 -0.194842 1.29616e-25)
(3.12542 -0.198423 1.25602e-25)
(3.12841 -0.202077 -2.56691e-19)
(3.13128 -0.205813 0)
(3.13407 -0.209636 0)
(3.13667 -0.213539 -2.39307e-19)
(3.1389 -0.217513 -2.34577e-19)
(3.14046 -0.22154 -1.10026e-25)
(3.14189 -0.225664 2.2656e-19)
(3.14303 -0.229878 1.06205e-25)
(3.14387 -0.234183 0)
(3.14447 -0.238586 0)
(3.14476 -0.243097 0)
(3.14475 -0.247717 -4.2813e-19)
(-0.0684133 0.728893 -2.62478e-23)
(0.12475 1.04924 -9.16154e-25)
(-0.169016 -0.369363 3.29422e-23)
(-0.892504 -1.72183 1.23759e-19)
(-1.08961 -1.2955 1.12653e-19)
(-1.1017 -0.847434 0)
(-1.54422 -0.795483 -9.90123e-20)
(-0.355059 -0.189388 2.47523e-23)
(3.35896 0.335654 2.90873e-20)
(5.87193 0.0320124 -3.38472e-21)
(5.90126 -0.268758 -1.19219e-24)
(5.02218 -0.242333 -4.32701e-24)
(4.55959 -0.185723 1.72521e-20)
(4.31572 -0.14841 -1.65669e-20)
(4.20663 -0.12669 0)
(4.21837 -0.120323 0)
(4.3126 -0.129085 1.33813e-20)
(4.39459 -0.145996 6.13813e-24)
(4.42217 -0.15897 -5.78308e-24)
(4.41486 -0.166537 5.46513e-24)
(4.37149 -0.167452 -5.1622e-24)
(4.31944 -0.162655 4.85284e-24)
(4.29001 -0.15793 -1.85884e-20)
(4.28245 -0.155693 -4.219e-24)
(4.29169 -0.156096 3.20779e-20)
(4.30539 -0.158582 -2.98105e-20)
(4.31258 -0.160818 1.68868e-24)
(4.31452 -0.16223 -2.5822e-20)
(4.31463 -0.16286 0)
(4.31748 -0.16345 -4.46568e-20)
(4.32355 -0.164451 -4.15013e-20)
(4.33118 -0.165834 7.71649e-20)
(4.33883 -0.167349 0)
(4.34623 -0.168847 3.34054e-20)
(4.3539 -0.17035 9.85745e-25)
(4.36222 -0.171957 -8.79754e-25)
(4.37107 -0.173692 8.00292e-25)
(4.3802 -0.175541 -7.64699e-25)
(4.38953 -0.177481 7.2201e-25)
(4.39907 -0.179514 6.66655e-25)
(4.40882 -0.181647 8.21725e-20)
(4.41872 -0.183888 -5.83076e-25)
(4.42874 -0.186234 7.20134e-20)
(4.43883 -0.188685 5.1179e-25)
(4.44898 -0.191243 6.33373e-20)
(4.45915 -0.193911 1.1897e-19)
(4.46931 -0.196688 -2.2369e-19)
(4.47944 -0.199576 3.98909e-25)
(4.4895 -0.202574 -3.80842e-25)
(4.49947 -0.205684 0)
(4.50932 -0.208902 -8.82832e-20)
(4.519 -0.212229 -3.20483e-25)
(4.52852 -0.215664 -1.57935e-19)
(4.53787 -0.219208 -1.49639e-19)
(4.54703 -0.222863 -1.41956e-19)
(4.55598 -0.226627 0)
(4.56469 -0.230499 1.28247e-19)
(4.57316 -0.234479 2.3436e-25)
(4.58136 -0.238566 1.16489e-19)
(4.58931 -0.24276 0)
(4.59697 -0.247055 2.98385e-25)
(4.60433 -0.25145 -1.95381e-25)
(4.61139 -0.255949 8.55614e-26)
(4.61818 -0.260555 -1.87898e-19)
(4.62466 -0.265265 0)
(4.63081 -0.270074 0)
(4.63668 -0.274982 -1.68262e-19)
(4.64225 -0.279993 3.25413e-19)
(4.64755 -0.285114 -3.15188e-19)
(4.65258 -0.290344 0)
(4.65728 -0.295677 0)
(4.66171 -0.301122 2.89343e-19)
(4.66596 -0.306687 -2.82164e-19)
(4.67008 -0.31238 2.75627e-19)
(4.67394 -0.318195 -3.27319e-28)
(4.67723 -0.324114 2.64423e-19)
(4.67953 -0.330113 0)
(4.68163 -0.336255 -2.44119e-25)
(4.68329 -0.342532 4.80107e-25)
(4.68453 -0.348945 -2.48407e-19)
(4.68539 -0.355504 4.91186e-19)
(4.68581 -0.362224 4.86458e-19)
(4.68578 -0.369107 -4.09105e-25)
(-0.0885958 1.04333 0)
(0.159278 1.44266 -3.40805e-20)
(-0.253061 -0.448737 3.87486e-20)
(-1.14141 -2.16507 1.01835e-23)
(-1.42661 -1.7038 0)
(-1.46781 -1.13029 1.19058e-19)
(-1.92002 -1.00475 2.20497e-19)
(-0.066792 -0.178285 -3.80728e-23)
(4.81202 0.442247 -3.11438e-20)
(7.82338 0.0255771 3.65254e-21)
(7.79425 -0.348249 -1.81194e-20)
(6.75608 -0.317855 4.73473e-24)
(6.19893 -0.248486 -3.79421e-20)
(5.90588 -0.201266 5.26496e-24)
(5.77931 -0.173637 1.72175e-20)
(5.79959 -0.165955 0)
(5.91521 -0.177836 3.61007e-24)
(6.01291 -0.200195 1.46235e-27)
(6.04397 -0.217322 -3.19466e-24)
(6.03145 -0.227304 2.48153e-20)
(5.97618 -0.228573 0)
(5.9123 -0.222369 0)
(5.87686 -0.216238 4.13141e-20)
(5.86869 -0.213371 2.33737e-24)
(5.88091 -0.213963 -2.18712e-24)
(5.89809 -0.217299 3.31758e-20)
(5.90715 -0.220302 3.08835e-20)
(5.90987 -0.222222 0)
(5.91061 -0.22311 -2.67698e-20)
(5.91488 -0.223945 1.52512e-24)
(5.92321 -0.225323 9.2552e-20)
(5.93348 -0.227212 -4.30335e-20)
(5.94377 -0.229278 0)
(5.9538 -0.231325 -3.72789e-20)
(5.96425 -0.233382 -6.94412e-20)
(5.97553 -0.235578 0)
(5.9875 -0.237949 8.63142e-25)
(5.99986 -0.240476 -8.6365e-25)
(6.01248 -0.243126 0)
(6.0254 -0.245902 0)
(6.03859 -0.248817 6.96293e-25)
(6.05201 -0.251879 -8.1518e-27)
(6.06558 -0.255085 -8.0477e-20)
(6.07924 -0.258435 -5.71993e-25)
(6.09298 -0.261931 6.05081e-25)
(6.10676 -0.265576 0)
(6.12053 -0.269372 1.2503e-19)
(6.13425 -0.273319 1.17669e-19)
(6.14788 -0.277419 0)
(6.16138 -0.281669 -7.92499e-25)
(6.17472 -0.286069 7.58265e-25)
(6.18785 -0.290617 9.33077e-20)
(6.20077 -0.295314 -1.76606e-19)
(6.21345 -0.300161 0)
(6.22588 -0.305158 0)
(6.23801 -0.310306 -5.71844e-25)
(6.24982 -0.3156 -1.43421e-19)
(6.2613 -0.321043 -1.36598e-19)
(6.27243 -0.326634 -4.94361e-25)
(6.28321 -0.332368 4.77271e-25)
(6.2936 -0.338244 6.54746e-25)
(6.30358 -0.344255 2.28003e-19)
(6.31316 -0.350409 1.83136e-25)
(6.32237 -0.356709 -2.10153e-19)
(6.33115 -0.363153 0)
(6.33949 -0.369731 1.94933e-19)
(6.34745 -0.376446 1.88195e-19)
(6.35501 -0.383301 -1.81982e-19)
(6.3622 -0.390307 3.5253e-19)
(6.369 -0.39746 -3.26818e-25)
(6.37537 -0.404757 0)
(6.3814 -0.412207 3.08462e-25)
(6.38716 -0.419822 3.15597e-19)
(6.39272 -0.427609 -3.08287e-19)
(6.39794 -0.435565 -3.01716e-19)
(6.40241 -0.443664 2.81814e-25)
(6.40552 -0.451872 2.90401e-19)
(6.40833 -0.460276 0)
(6.41056 -0.468864 0)
(6.41224 -0.47764 2.77846e-19)
(6.41338 -0.486616 -5.49403e-19)
(6.41391 -0.49581 -1.08823e-18)
(6.41383 -0.505228 5.39819e-19)
(-0.100879 1.35629 0)
(0.180568 1.80022 3.78125e-20)
(-0.356607 -0.509518 -4.17758e-20)
(-1.37739 -2.56042 -1.50235e-19)
(-1.75654 -2.10582 -1.38746e-19)
(-1.84709 -1.42568 -1.32239e-19)
(-2.22266 -1.19272 -2.43453e-19)
(0.50203 -0.120775 -1.38545e-22)
(6.51282 0.549639 2.07693e-23)
(9.86072 0.0114788 -3.86366e-21)
(9.75444 -0.427069 4.96034e-24)
(8.62183 -0.395862 2.03482e-20)
(7.9996 -0.315821 2.04082e-20)
(7.67396 -0.259385 1.97306e-20)
(7.53926 -0.226115 -1.86456e-20)
(7.56942 -0.217297 4.2642e-24)
(7.7006 -0.232454 0)
(7.80784 -0.260449 -3.68859e-24)
(7.8392 -0.28189 3.47277e-24)
(7.82018 -0.29441 -2.7003e-20)
(7.75456 -0.296145 0)
(7.68181 -0.288594 0)
(7.64242 -0.281075 -4.50912e-20)
(7.63467 -0.277598 0)
(7.64976 -0.278404 0)
(7.66987 -0.282643 1.23494e-25)
(7.68058 -0.28647 8.17932e-26)
(7.68421 -0.288951 0)
(7.68594 -0.290139 5.86514e-20)
(7.69197 -0.291257 3.34341e-24)
(7.70273 -0.293057 -1.01491e-19)
(7.71573 -0.295501 0)
(7.7288 -0.298173 0)
(7.74164 -0.300824 4.09228e-20)
(7.75504 -0.303493 7.62473e-20)
(7.76947 -0.306338 0)
(7.78475 -0.30941 6.62678e-20)
(7.80052 -0.312682 6.18366e-20)
(7.81664 -0.316114 1.77263e-24)
(7.83314 -0.31971 0)
(7.84998 -0.323487 0)
(7.86711 -0.327452 0)
(7.88443 -0.331606 8.84887e-20)
(7.90189 -0.335945 1.27431e-24)
(7.91944 -0.340475 -7.78565e-20)
(7.93703 -0.345198 -1.12346e-24)
(7.95462 -0.350117 0)
(7.97215 -0.355233 -2.58861e-19)
(7.98957 -0.360545 1.2194e-19)
(8.00682 -0.366054 8.83475e-25)
(8.02386 -0.371757 1.08589e-19)
(8.04065 -0.377654 -1.02646e-19)
(8.05717 -0.383743 3.88568e-19)
(8.07339 -0.390027 1.84085e-19)
(8.08926 -0.396507 -1.74637e-19)
(8.10477 -0.403181 0)
(8.11987 -0.410047 0)
(8.13455 -0.417105 3.33493e-25)
(8.14879 -0.424356 -5.49856e-25)
(8.16257 -0.431794 5.1954e-25)
(8.17584 -0.439413 -2.61843e-19)
(8.1886 -0.447211 -2.50811e-19)
(8.20087 -0.455195 -2.40603e-19)
(8.21264 -0.463367 4.62335e-19)
(8.22387 -0.471727 -2.22456e-19)
(8.23454 -0.480262 -2.14419e-19)
(8.2447 -0.488972 0)
(8.25437 -0.497867 0)
(8.26356 -0.506957 -7.75499e-19)
(8.27223 -0.516238 0)
(8.28039 -0.525707 3.65618e-19)
(8.28809 -0.535375 3.55943e-19)
(8.29544 -0.545256 -3.47107e-19)
(8.30253 -0.555361 3.39062e-19)
(8.30918 -0.565684 3.31829e-19)
(8.31488 -0.576195 -6.21196e-25)
(8.31885 -0.586849 -6.38756e-19)
(8.3224 -0.597755 0)
(8.32522 -0.608903 0)
(8.32735 -0.620295 -3.0557e-19)
(8.32879 -0.631948 -1.15273e-24)
(8.32942 -0.643884 5.98418e-19)
(8.32927 -0.656111 -1.1327e-24)
(-0.104303 1.65339 3.75146e-20)
(0.182606 2.09909 4.15416e-20)
(-0.481158 -0.550025 4.42454e-20)
(-1.59317 -2.8949 -1.65397e-22)
(-2.06263 -2.48063 1.52239e-19)
(-2.22598 -1.726 0)
(-2.42026 -1.3492 1.324e-19)
(1.42427 -0.00449816 9.55529e-20)
(8.44152 0.652391 3.26742e-20)
(11.9383 -0.0096682 -4.41668e-24)
(11.7506 -0.503449 4.36261e-24)
(10.5926 -0.475384 -4.20757e-20)
(9.94049 -0.386956 -2.11992e-20)
(9.60205 -0.322237 0)
(9.46916 -0.283678 -9.73284e-21)
(9.50905 -0.273839 -1.8125e-20)
(9.64819 -0.292307 0)
(9.75772 -0.326003 1.58396e-20)
(9.78599 -0.351848 0)
(9.75978 -0.367022 0)
(9.68642 -0.36938 0)
(9.60863 -0.360601 0)
(9.5678 -0.351754 6.00257e-24)
(9.56148 -0.347695 -5.44306e-24)
(9.57913 -0.348729 -5.02782e-24)
(9.60137 -0.353905 -3.84672e-20)
(9.61338 -0.358598 1.48927e-25)
(9.618 -0.361686 4.07056e-24)
(9.62107 -0.363215 -3.11623e-20)
(9.6291 -0.364651 -5.80192e-20)
(9.64234 -0.366907 5.39805e-20)
(9.65802 -0.369944 5.02385e-20)
(9.6738 -0.373263 0)
(9.68945 -0.376563 0)
(9.70582 -0.379888 -8.12351e-20)
(9.72341 -0.38343 2.32343e-24)
(9.74198 -0.387252 -7.06412e-20)
(9.76114 -0.391322 2.18692e-24)
(9.78074 -0.395592 0)
(9.80079 -0.400066 -1.74619e-24)
(9.82126 -0.404765 1.65301e-24)
(9.84206 -0.409698 1.00776e-19)
(9.86312 -0.414867 0)
(9.88433 -0.420268 0)
(9.90566 -0.425905 0)
(9.92705 -0.431784 0)
(9.94843 -0.437907 1.46743e-19)
(9.96975 -0.444276 1.38107e-19)
(9.99092 -0.450891 -1.30115e-19)
(10.0119 -0.457751 0)
(10.0326 -0.464853 -1.15862e-19)
(10.053 -0.472197 8.30234e-25)
(10.0731 -0.479783 -4.14551e-19)
(10.0928 -0.487611 -1.96383e-19)
(10.1121 -0.495684 -1.20334e-24)
(10.131 -0.503999 6.79287e-25)
(10.1494 -0.512554 -1.6829e-19)
(10.1672 -0.521351 -1.04125e-24)
(10.1845 -0.530387 5.86408e-25)
(10.2013 -0.539657 0)
(10.2174 -0.549154 2.79211e-19)
(10.2329 -0.558874 0)
(10.2479 -0.568827 -9.74517e-25)
(10.2622 -0.579016 -2.46448e-19)
(10.2758 -0.589439 -1.55069e-24)
(10.2888 -0.600082 8.75009e-25)
(10.3011 -0.610944 -2.20648e-19)
(10.3129 -0.622037 -2.13347e-19)
(10.3241 -0.633373 4.13255e-19)
(10.3346 -0.644949 0)
(10.3445 -0.65676 -3.89626e-19)
(10.3538 -0.668819 -3.79296e-19)
(10.3627 -0.681145 3.69861e-19)
(10.3713 -0.69375 -3.61271e-19)
(10.3794 -0.706627 -3.53549e-19)
(10.3863 -0.719742 -6.60418e-25)
(10.3911 -0.733038 6.80525e-19)
(10.3954 -0.746648 -3.34693e-19)
(10.3987 -0.760562 -6.2758e-25)
(10.4013 -0.774782 3.2554e-19)
(10.403 -0.78933 -6.43711e-19)
(10.4037 -0.804232 -6.37527e-19)
(10.4035 -0.819501 6.00652e-25)
(-0.0971843 1.91863 -4.08493e-20)
(0.160579 2.31147 -4.50913e-20)
(-0.628057 -0.574817 -1.35978e-19)
(-1.78534 -3.15055 -3.32844e-22)
(-2.32873 -2.80763 7.13851e-24)
(-2.5833 -2.01733 4.88118e-24)
(-2.45708 -1.46484 -1.40129e-19)
(2.75847 0.172833 -1.84762e-19)
(10.5443 0.740672 -6.25818e-20)
(13.9929 -0.0367146 8.72761e-24)
(13.7317 -0.574956 -1.38362e-23)
(12.6079 -0.554083 2.07744e-20)
(11.9613 -0.459668 2.09685e-20)
(11.6296 -0.387882 0)
(11.5072 -0.344541 1.9339e-20)
(11.5553 -0.333779 1.80235e-20)
(11.6947 -0.355454 -1.67753e-20)
(11.7997 -0.394718 1.69705e-23)
(11.8221 -0.424918 -7.33011e-24)
(11.7889 -0.442805 0)
(11.711 -0.445949 -6.63758e-24)
(11.6322 -0.43612 -2.56115e-20)
(11.5924 -0.426054 2.40099e-20)
(11.5883 -0.421459 3.86712e-26)
(11.6079 -0.422722 1.01841e-23)
(11.6314 -0.428831 -2.78916e-26)
(11.6442 -0.434402 -4.19315e-24)
(11.6498 -0.438121 3.38454e-20)
(11.6544 -0.440017 0)
(11.6644 -0.441791 1.17554e-19)
(11.6799 -0.444516 5.47212e-20)
(11.6979 -0.448157 -5.09557e-20)
(11.7161 -0.452138 0)
(11.7343 -0.456101 0)
(11.7533 -0.460097 0)
(11.7737 -0.464352 0)
(11.7952 -0.468938 -2.86364e-25)
(11.8174 -0.473822 -6.69884e-20)
(11.84 -0.478947 1.89883e-24)
(11.8632 -0.484317 -1.16981e-19)
(11.8869 -0.489956 1.09418e-19)
(11.911 -0.49588 -1.02426e-19)
(11.9353 -0.502085 -9.59581e-20)
(11.9598 -0.50857 0)
(11.9845 -0.515339 8.44307e-20)
(12.0093 -0.5224 1.58617e-19)
(12.034 -0.529756 -1.49121e-19)
(12.0586 -0.537407 -2.15606e-24)
(12.0831 -0.545354 1.32202e-19)
(12.1074 -0.553597 0)
(12.1313 -0.562134 -1.17693e-19)
(12.1549 -0.570962 1.11232e-19)
(12.1782 -0.58008 -2.50825e-24)
(12.201 -0.589492 1.53139e-24)
(12.2233 -0.599199 1.89131e-19)
(12.2451 -0.609199 0)
(12.2663 -0.619489 -2.05043e-24)
(12.287 -0.630071 1.62638e-19)
(12.307 -0.640941 0)
(12.3263 -0.652094 -1.4808e-19)
(12.3449 -0.663522 -2.83204e-19)
(12.3629 -0.67522 -2.71216e-19)
(12.3801 -0.687199 0)
(12.3966 -0.699464 0)
(12.4124 -0.712011 4.80807e-19)
(12.4274 -0.724826 -8.86909e-25)
(12.4416 -0.737906 2.23619e-19)
(12.4552 -0.751264 4.32387e-19)
(12.468 -0.764917 4.18726e-19)
(12.4802 -0.77886 4.06186e-19)
(12.4916 -0.793088 -7.5208e-25)
(12.5024 -0.807616 1.46593e-24)
(12.5126 -0.822466 -3.74607e-19)
(12.5225 -0.837651 6.9793e-25)
(12.5317 -0.853167 3.58021e-19)
(12.5397 -0.868973 -6.70148e-25)
(12.5452 -0.885003 -3.44521e-19)
(12.5501 -0.901414 3.38871e-19)
(12.5539 -0.918193 6.38655e-25)
(12.5568 -0.935346 3.29589e-19)
(12.5587 -0.952895 -2.92535e-24)
(12.5594 -0.970877 6.45447e-19)
(12.5591 -0.989303 0)
(-0.0791396 2.13759 4.44373e-20)
(0.111115 2.4094 4.81094e-20)
(-0.797975 -0.593911 4.59673e-22)
(-1.94729 -3.31437 -7.10863e-22)
(-2.54136 -3.06681 3.57119e-22)
(-2.88637 -2.27986 0)
(-2.22795 -1.50362 1.40146e-19)
(4.49801 0.40279 8.3455e-20)
(12.7295 0.81214 2.8798e-20)
(15.9465 -0.0679129 -2.98187e-23)
(15.6226 -0.638532 0)
(14.569 -0.627718 -9.6574e-24)
(13.9546 -0.52986 9.35487e-24)
(13.6439 -0.452602 0)
(13.5375 -0.40529 -1.80522e-20)
(13.5921 -0.393806 0)
(13.7266 -0.41845 3.14643e-20)
(13.8227 -0.462847 -1.49187e-20)
(13.8377 -0.497116 0)
(13.7986 -0.517629 2.69976e-20)
(13.719 -0.521666 1.24717e-23)
(13.6422 -0.511007 8.06594e-25)
(13.6051 -0.499896 -2.27352e-20)
(13.6034 -0.494835 1.03952e-23)
(13.6244 -0.49632 3.95375e-20)
(13.6481 -0.503308 3.68705e-20)
(13.6613 -0.509717 -3.4433e-20)
(13.6677 -0.514052 -7.70858e-24)
(13.6736 -0.516313 0)
(13.6853 -0.518419 -5.59293e-20)
(13.7026 -0.521594 -5.20899e-20)
(13.7223 -0.525813 0)
(13.7422 -0.530423 -5.49594e-24)
(13.7622 -0.53502 1.02933e-23)
(13.7833 -0.539655 -7.86253e-20)
(13.8057 -0.544588 0)
(13.8294 -0.549902 -4.23264e-25)
(13.8538 -0.555562 6.38762e-20)
(13.8787 -0.561501 4.2051e-26)
(13.9042 -0.567724 1.11564e-19)
(13.9302 -0.57426 -2.08701e-19)
(13.9567 -0.581126 0)
(13.9835 -0.588319 -5.82917e-25)
(14.0104 -0.595839 8.57849e-20)
(14.0375 -0.603689 -1.92284e-24)
(14.0647 -0.611879 -1.5119e-19)
(14.0919 -0.620412 -2.15465e-24)
(14.119 -0.629289 4.08183e-24)
(14.1459 -0.638511 -1.25954e-19)
(14.1725 -0.648078 0)
(14.1988 -0.657987 2.24167e-19)
(14.2248 -0.668237 -1.05907e-19)
(14.2503 -0.678826 -1.34182e-24)
(14.2753 -0.689756 -1.89781e-19)
(14.2998 -0.701031 0)
(14.3237 -0.71265 0)
(14.347 -0.724607 1.62448e-19)
(14.3696 -0.736904 0)
(14.3916 -0.749539 -1.47429e-19)
(14.4128 -0.762504 1.40746e-19)
(14.4332 -0.775792 0)
(14.4529 -0.789395 2.57676e-19)
(14.4717 -0.803328 -2.47089e-19)
(14.4899 -0.817595 2.37304e-19)
(14.5071 -0.832193 -2.28272e-19)
(14.5235 -0.847103 8.41999e-25)
(14.5391 -0.862326 -2.12261e-19)
(14.5539 -0.877874 -4.10356e-19)
(14.568 -0.893768 -7.94653e-19)
(14.5813 -0.910001 -3.8537e-19)
(14.5938 -0.926569 3.74424e-19)
(14.6055 -0.943489 3.64415e-19)
(14.6167 -0.960785 3.55272e-19)
(14.6275 -0.978472 1.32369e-24)
(14.6376 -0.996546 1.29607e-24)
(14.6463 -1.01496 -1.26801e-24)
(14.6522 -1.03365 1.24819e-24)
(14.6575 -1.05279 -3.21249e-19)
(14.6616 -1.07236 2.41547e-24)
(14.6647 -1.09237 -3.12423e-19)
(14.6667 -1.11285 6.17757e-19)
(14.6674 -1.13383 1.1626e-24)
(14.667 -1.15535 1.16336e-24)
(-0.0532734 2.30523 -4.788e-20)
(0.0311847 2.37372 -4.99985e-20)
(-0.989603 -0.619027 8.5891e-20)
(-2.07567 -3.38076 6.93439e-22)
(-2.691 -3.24368 -7.60323e-22)
(-3.09213 -2.48789 0)
(-1.61624 -1.42184 2.35211e-22)
(6.57573 0.656787 7.19764e-20)
(14.876 0.856211 -1.14976e-22)
(17.7178 -0.100661 0)
(17.3378 -0.690038 -4.41253e-24)
(16.3616 -0.690966 1.71532e-20)
(15.7921 -0.59255 1.64627e-23)
(15.5093 -0.511893 -1.62528e-23)
(15.4212 -0.461838 1.59115e-20)
(15.4819 -0.450013 -1.48682e-20)
(15.6096 -0.477238 -1.3939e-20)
(15.6954 -0.525971 0)
(15.7028 -0.563718 1.2646e-20)
(15.6588 -0.586562 -2.40513e-20)
(15.5789 -0.591492 0)
(15.5053 -0.580258 1.03768e-24)
(15.4716 -0.56835 5.87843e-25)
(15.4723 -0.562938 9.19259e-24)
(15.494 -0.564632 -7.99005e-24)
(15.5175 -0.572392 -3.28984e-20)
(15.5306 -0.579539 -3.93811e-26)
(15.5374 -0.584428 -6.8152e-24)
(15.5443 -0.587025 0)
(15.5571 -0.589435 -4.99705e-20)
(15.5754 -0.593012 4.65538e-20)
(15.5961 -0.597741 -5.27276e-24)
(15.617 -0.602909 4.9591e-24)
(15.6381 -0.608066 3.77043e-20)
(15.6603 -0.613267 1.40639e-19)
(15.684 -0.618799 0)
(15.7089 -0.624756 6.12066e-20)
(15.7346 -0.631099 -1.14291e-19)
(15.7608 -0.637758 -3.23981e-24)
(15.7877 -0.644735 3.06399e-24)
(15.8151 -0.652064 9.3343e-20)
(15.8429 -0.659762 -5.33305e-24)
(15.8711 -0.667831 1.74651e-24)
(15.8994 -0.676266 -7.671e-20)
(15.9279 -0.685073 -7.19691e-20)
(15.9565 -0.694264 0)
(15.9851 -0.703841 1.92585e-24)
(16.0136 -0.713806 -2.43165e-26)
(16.0418 -0.724162 -3.43504e-24)
(16.0698 -0.734905 2.15737e-26)
(16.0975 -0.746036 -1.00104e-19)
(16.1247 -0.757551 -9.45735e-20)
(16.1515 -0.76945 1.78892e-19)
(16.1777 -0.781735 1.69392e-19)
(16.2035 -0.79441 0)
(16.2286 -0.807472 -1.52453e-19)
(16.253 -0.820918 -1.44907e-19)
(16.2768 -0.834749 -2.09297e-24)
(16.2998 -0.848963 1.31456e-19)
(16.322 -0.863551 0)
(16.3435 -0.878503 0)
(16.3641 -0.893815 -2.29625e-19)
(16.3839 -0.9095 -3.89793e-24)
(16.4028 -0.925565 -2.11391e-19)
(16.4209 -0.942004 -1.55729e-24)
(16.4381 -0.958799 1.95866e-19)
(16.4544 -0.975948 1.88995e-19)
(16.47 -0.993467 3.65327e-19)
(16.4847 -1.01138 3.53676e-19)
(16.4986 -1.02968 2.61749e-24)
(16.5117 -1.04835 -6.66427e-19)
(16.524 -1.06743 -3.24271e-19)
(16.5357 -1.08694 1.20573e-24)
(16.547 -1.10688 -1.17769e-24)
(16.5575 -1.12727 3.02008e-19)
(16.5666 -1.14805 0)
(16.5727 -1.16914 0)
(16.5782 -1.19075 2.85736e-19)
(16.5825 -1.21286 -5.49131e-27)
(16.5856 -1.23546 1.05705e-24)
(16.5876 -1.2586 5.49455e-19)
(16.5883 -1.28233 -8.24526e-27)
(16.5877 -1.30665 1.02545e-24)
(-0.0246395 2.42102 0)
(-0.0788686 2.20717 4.99224e-20)
(-1.19816 -0.656089 7.85865e-20)
(-2.17222 -3.35583 -3.51189e-23)
(-2.7783 -3.34678 -7.88866e-22)
(-3.14931 -2.61961 0)
(-0.52609 -1.1931 -1.05891e-19)
(8.9027 0.898652 -6.0307e-20)
(16.8528 0.863751 1.45137e-22)
(19.2422 -0.13113 -4.83731e-23)
(18.8117 -0.725974 3.81096e-24)
(17.9054 -0.739883 -1.45693e-20)
(17.3844 -0.644287 -1.45182e-20)
(17.1318 -0.562677 4.85822e-26)
(17.0628 -0.511403 -6.7594e-21)
(17.129 -0.49971 2.52992e-20)
(17.2495 -0.528971 0)
(17.3245 -0.580947 1.13295e-20)
(17.3244 -0.621347 -1.0813e-20)
(17.2762 -0.646065 -2.05247e-20)
(17.1968 -0.65182 1.94909e-20)
(17.1269 -0.640305 1.83764e-20)
(17.0967 -0.627912 1.72627e-20)
(17.0994 -0.622303 -1.61282e-20)
(17.1216 -0.624196 8.09339e-24)
(17.1445 -0.632583 -2.8119e-20)
(17.1572 -0.640329 0)
(17.1641 -0.645683 -2.4555e-20)
(17.1715 -0.648577 -5.57402e-24)
(17.1851 -0.651255 8.5441e-20)
(17.2039 -0.655176 -3.98041e-20)
(17.2251 -0.660334 3.71025e-20)
(17.2464 -0.665967 -4.24142e-24)
(17.268 -0.671592 4.31626e-24)
(17.2908 -0.677267 -6.016e-20)
(17.3151 -0.683301 3.59146e-26)
(17.3406 -0.689796 3.21372e-24)
(17.3669 -0.696711 4.88961e-20)
(17.3937 -0.703971 -5.60804e-24)
(17.4212 -0.711579 0)
(17.4493 -0.719571 7.98519e-20)
(17.4778 -0.727968 5.67286e-26)
(17.5066 -0.736769 7.00085e-20)
(17.5356 -0.745972 6.56207e-20)
(17.5648 -0.755583 0)
(17.594 -0.765613 1.15605e-19)
(17.6232 -0.776068 1.08645e-19)
(17.6523 -0.786948 -1.02203e-19)
(17.6812 -0.798256 2.9569e-24)
(17.7098 -0.809991 9.07035e-20)
(17.7381 -0.82215 0)
(17.7659 -0.834733 -1.09406e-24)
(17.7933 -0.847736 0)
(17.8201 -0.861164 -2.19551e-24)
(17.8464 -0.875021 2.62202e-26)
(17.872 -0.889305 1.30271e-19)
(17.897 -0.90401 -3.57925e-24)
(17.9213 -0.91914 2.06128e-26)
(17.9448 -0.93469 1.72334e-24)
(17.9675 -0.950653 1.62715e-24)
(17.9894 -0.967018 -1.57121e-24)
(18.0104 -0.983779 1.961e-19)
(18.0306 -1.00095 3.75987e-19)
(18.05 -1.01854 0)
(18.0684 -1.03655 1.73592e-19)
(18.086 -1.05495 -3.34437e-19)
(18.1026 -1.07373 0)
(18.1185 -1.09293 3.34145e-24)
(18.1335 -1.11256 3.019e-19)
(18.1477 -1.13262 0)
(18.161 -1.1531 5.6881e-19)
(18.1736 -1.17402 1.05686e-24)
(18.1856 -1.19541 0)
(18.1972 -1.21729 2.63463e-19)
(18.208 -1.23965 -2.57755e-19)
(18.2172 -1.26245 0)
(18.2235 -1.28561 -2.47953e-19)
(18.229 -1.30934 -2.43867e-19)
(18.2334 -1.33361 9.1446e-25)
(18.2365 -1.35845 2.37166e-19)
(18.2385 -1.38387 -9.37902e-19)
(18.2392 -1.40995 8.82559e-25)
(18.2385 -1.43669 0)
(0.00478066 2.48019 -5.26059e-20)
(-0.219179 1.9389 -6.80414e-23)
(-1.41682 -0.703737 -6.81331e-20)
(-2.24744 -3.26609 0)
(-2.81452 -3.38854 7.68417e-22)
(-3.00751 -2.65574 1.70063e-19)
(1.0804 -0.815546 8.32059e-20)
(11.325 1.12692 0)
(18.5494 0.821703 0)
(20.4942 -0.155587 2.68062e-21)
(20.027 -0.747146 -2.04545e-23)
(19.1881 -0.773906 -1.41136e-24)
(18.7166 -0.684651 1.2136e-20)
(18.4948 -0.604497 -1.18395e-20)
(18.4436 -0.553484 -5.64409e-21)
(18.5134 -0.542337 -1.06552e-20)
(18.6254 -0.573 -1.00187e-20)
(18.6894 -0.627051 -9.53597e-21)
(18.6822 -0.66924 0)
(18.6307 -0.695357 1.72523e-20)
(18.5525 -0.701878 1.51918e-23)
(18.4868 -0.6904 -1.54716e-20)
(18.4601 -0.67785 -1.44986e-20)
(18.4647 -0.672203 1.35718e-20)
(18.4871 -0.674285 -2.52869e-20)
(18.5092 -0.683145 4.72814e-20)
(18.5214 -0.691349 0)
(18.5283 -0.697084 0)
(18.5362 -0.70024 9.37934e-24)
(18.5502 -0.703161 -8.36484e-24)
(18.5694 -0.707373 0)
(18.5907 -0.712882 -3.12336e-20)
(18.6123 -0.718896 -2.91088e-20)
(18.6342 -0.724906 4.47799e-25)
(18.6573 -0.730972 -5.06503e-20)
(18.6819 -0.737419 4.72528e-20)
(18.7077 -0.744355 -4.41006e-20)
(18.7343 -0.75174 4.11795e-20)
(18.7614 -0.759492 0)
(18.7892 -0.767618 0)
(18.8176 -0.776156 -6.7273e-20)
(18.8464 -0.785126 -6.2977e-20)
(18.8756 -0.794529 0)
(18.9049 -0.804363 -5.5295e-20)
(18.9344 -0.814635 -3.14628e-24)
(18.964 -0.825357 -9.7423e-20)
(18.9936 -0.836533 1.61518e-24)
(19.023 -0.848168 8.61374e-20)
(19.0522 -0.860261 0)