/*--------------------------------*- C++ -*----------------------------------*\
| =========                 |                                                 |
| \\      /  F ield         | OpenFOAM: The Open Source CFD Toolbox           |
|  \\    /   O peration     | Version:  2412                                  |
|   \\  /    A nd           | Website:  www.openfoam.com                      |
|    \\/     M anipulation  |                                                 |
\*---------------------------------------------------------------------------*/
FoamFile
{
    version     2.0;
    format      ascii;
    arch        "LSB;label=32;scalar=64";
    class       volScalarField;
    location    "400";
    object      nut;
}
// * * * * * * * * * * * * * * * * * * * * * * * * * * * * * * * * * * * * * //

dimensions      [0 2 -1 0 0 0 0];

internalField   nonuniform List<scalar> 
8659
(
1.2074e-12
5.95306e-13
1.7065e-13
1.59454e-14
5.2196e-13
4.67572e-12
2.28248e-11
6.52358e-11
1.12516e-10
1.39032e-10
1.29077e-10
9.89549e-11
6.93174e-11
4.82752e-11
3.53534e-11
2.76315e-11
2.26635e-11
1.93269e-11
1.69467e-11
1.5113e-11
1.36378e-11
1.24176e-11
1.13839e-11
1.04934e-11
9.71495e-12
9.02878e-12
8.41831e-12
7.87056e-12
7.37685e-12
6.92782e-12
6.51929e-12
6.14544e-12
5.80092e-12
5.48368e-12
5.19e-12
4.9185e-12
4.66715e-12
4.43421e-12
4.21933e-12
4.02014e-12
3.83545e-12
3.66448e-12
3.50641e-12
3.36067e-12
3.22644e-12
3.10286e-12
2.98903e-12
2.88447e-12
2.78934e-12
2.70373e-12
2.62786e-12
2.56179e-12
2.50536e-12
2.45878e-12
2.4217e-12
2.39305e-12
2.37225e-12
2.35853e-12
2.35117e-12
2.34945e-12
2.35267e-12
2.35996e-12
2.37064e-12
2.38398e-12
2.39948e-12
2.41664e-12
2.43459e-12
2.45251e-12
2.47005e-12
2.48695e-12
2.50294e-12
2.51836e-12
2.53301e-12
2.547e-12
2.56056e-12
2.5735e-12
2.58607e-12
2.5985e-12
2.61085e-12
2.6234e-12
2.636e-12
2.64824e-12
2.65994e-12
2.67106e-12
2.68153e-12
2.69134e-12
1.0594e-10
5.1602e-11
1.47269e-11
1.43646e-12
4.84042e-11
4.0791e-10
1.89146e-09
5.37362e-09
9.49833e-09
1.22678e-08
1.20286e-08
9.59771e-09
6.87143e-09
4.81697e-09
3.52541e-09
2.74813e-09
2.24876e-09
1.91326e-09
1.67427e-09
1.49089e-09
1.3438e-09
1.22248e-09
1.11995e-09
1.03179e-09
9.54859e-10
8.87117e-10
8.26883e-10
7.72837e-10
7.24134e-10
6.7985e-10
6.39486e-10
6.025e-10
5.68382e-10
5.36912e-10
5.07746e-10
4.80707e-10
4.55618e-10
4.3233e-10
4.10771e-10
3.90741e-10
3.72128e-10
3.54853e-10
3.38834e-10
3.24012e-10
3.1032e-10
2.97688e-10
2.86018e-10
2.75246e-10
2.65385e-10
2.56452e-10
2.48463e-10
2.41428e-10
2.35351e-10
2.30242e-10
2.26077e-10
2.22775e-10
2.20274e-10
2.18507e-10
2.17412e-10
2.16917e-10
2.16953e-10
2.17432e-10
2.1828e-10
2.19428e-10
2.20829e-10
2.22414e-10
2.24097e-10
2.25807e-10
2.27491e-10
2.29124e-10
2.30687e-10
2.32185e-10
2.3362e-10
2.34995e-10
2.36318e-10
2.37586e-10
2.38814e-10
2.40024e-10
2.41228e-10
2.42448e-10
2.4367e-10
2.44862e-10
2.46e-10
2.47078e-10
2.48099e-10
2.49053e-10
8.9452e-10
4.29114e-10
1.22407e-10
1.32814e-11
4.39741e-10
3.39776e-09
1.46608e-08
4.14851e-08
7.58121e-08
1.04512e-07
1.10427e-07
9.38558e-08
6.9569e-08
4.93998e-08
3.62214e-08
2.81818e-08
2.30117e-08
1.95315e-08
1.70536e-08
1.51606e-08
1.36478e-08
1.24035e-08
1.13552e-08
1.04556e-08
9.67202e-09
8.98277e-09
8.37035e-09
7.82082e-09
7.32532e-09
6.87459e-09
6.46314e-09
6.08531e-09
5.7362e-09
5.41326e-09
5.11315e-09
4.83407e-09
4.57416e-09
4.33204e-09
4.10691e-09
3.89692e-09
3.70116e-09
3.51865e-09
3.34874e-09
3.19078e-09
3.04417e-09
2.90819e-09
2.78198e-09
2.66494e-09
2.55716e-09
2.45877e-09
2.37001e-09
2.29101e-09
2.22189e-09
2.16282e-09
2.11355e-09
2.07347e-09
2.04199e-09
2.01849e-09
2.00241e-09
1.99298e-09
1.98949e-09
1.99108e-09
1.99691e-09
2.00625e-09
2.01858e-09
2.03315e-09
2.04899e-09
2.06539e-09
2.08181e-09
2.09789e-09
2.11342e-09
2.12832e-09
2.14264e-09
2.15642e-09
2.16962e-09
2.18233e-09
2.19462e-09
2.20666e-09
2.21867e-09
2.23079e-09
2.24288e-09
2.25467e-09
2.26595e-09
2.27664e-09
2.28676e-09
2.29623e-09
3.62437e-09
1.70645e-09
4.85828e-10
6.41813e-11
1.96348e-09
1.37282e-08
5.45379e-08
1.52621e-07
2.87627e-07
4.26509e-07
4.95448e-07
4.57165e-07
3.54698e-07
2.56609e-07
1.89006e-07
1.46919e-07
1.19754e-07
1.01406e-07
8.83416e-08
7.8404e-08
7.04951e-08
6.40111e-08
5.85643e-08
5.39023e-08
4.98489e-08
4.62864e-08
4.31235e-08
4.02856e-08
3.77247e-08
3.53928e-08
3.32595e-08
3.12967e-08
2.94781e-08
2.77903e-08
2.62159e-08
2.47456e-08
2.33705e-08
2.20832e-08
2.08797e-08
1.97515e-08
1.86948e-08
1.77047e-08
1.67781e-08
1.59123e-08
1.51042e-08
1.43505e-08
1.36474e-08
1.29923e-08
1.23857e-08
1.18282e-08
1.1321e-08
1.08654e-08
1.04621e-08
1.0112e-08
9.81447e-09
9.56681e-09
9.36649e-09
9.21053e-09
9.09604e-09
9.01922e-09
8.97632e-09
8.96284e-09
8.97436e-09
9.00687e-09
9.0572e-09
9.12145e-09
9.19443e-09
9.27194e-09
9.35126e-09
9.43031e-09
9.50738e-09
9.58187e-09
9.65369e-09
9.72299e-09
9.78945e-09
9.85344e-09
9.91523e-09
9.97558e-09
1.00357e-08
1.00961e-08
1.01562e-08
1.02148e-08
1.02707e-08
1.03238e-08
1.03742e-08
1.04215e-08
1.0068e-08
4.6399e-09
1.3161e-09
2.47028e-10
6.12937e-09
3.84706e-08
1.39526e-07
3.83196e-07
7.39386e-07
1.17818e-06
1.52103e-06
1.55344e-06
1.27977e-06
9.50714e-07
7.06205e-07
5.49453e-07
4.47472e-07
3.78214e-07
3.28844e-07
2.91436e-07
2.61778e-07
2.37542e-07
2.17245e-07
1.99915e-07
1.84877e-07
1.71673e-07
1.59955e-07
1.49445e-07
1.39951e-07
1.31299e-07
1.23366e-07
1.16048e-07
1.09247e-07
1.02911e-07
9.69774e-08
9.14092e-08
8.61742e-08
8.12467e-08
7.66107e-08
7.22405e-08
6.81237e-08
6.42449e-08
6.05943e-08
5.71635e-08
5.3943e-08
5.0923e-08
4.80923e-08
4.54441e-08
4.29801e-08
4.07033e-08
3.86192e-08
3.67325e-08
3.50469e-08
3.3566e-08
3.22883e-08
3.12059e-08
3.03104e-08
2.95915e-08
2.90384e-08
2.86368e-08
2.83728e-08
2.82299e-08
2.81914e-08
2.82419e-08
2.83683e-08
2.85553e-08
2.87838e-08
2.90371e-08
2.93041e-08
2.95761e-08
2.98454e-08
3.01083e-08
3.03634e-08
3.06105e-08
3.08479e-08
3.10763e-08
3.12968e-08
3.15118e-08
3.17249e-08
3.1938e-08
3.21496e-08
3.23555e-08
3.25524e-08
3.27396e-08
3.29174e-08
3.30844e-08
2.20478e-08
9.92383e-09
2.80316e-09
8.41533e-10
1.53126e-08
8.57904e-08
2.81737e-07
7.54227e-07
1.47849e-06
2.51856e-06
3.60419e-06
4.12576e-06
3.68912e-06
2.85369e-06
2.15144e-06
1.68018e-06
1.36898e-06
1.15587e-06
1.00352e-06
8.88424e-07
7.97488e-07
7.23394e-07
6.61524e-07
6.08826e-07
5.63184e-07
5.23153e-07
4.87651e-07
4.55813e-07
4.27038e-07
4.00786e-07
3.76673e-07
3.54373e-07
3.33587e-07
3.14138e-07
2.95851e-07
2.78602e-07
2.62293e-07
2.46846e-07
2.32216e-07
2.18336e-07
2.05179e-07
1.92707e-07
1.80893e-07
1.69723e-07
1.59176e-07
1.49232e-07
1.39871e-07
1.31083e-07
1.22877e-07
1.15264e-07
1.08264e-07
1.01894e-07
9.61669e-08
9.10914e-08
8.66641e-08
8.28649e-08
7.96693e-08
7.70461e-08
7.49609e-08
7.33698e-08
7.22291e-08
7.14893e-08
7.11002e-08
7.10142e-08
7.1188e-08
7.15738e-08
7.2114e-08
7.27569e-08
7.34654e-08
7.42091e-08
7.49614e-08
7.57064e-08
7.64357e-08
7.71457e-08
7.78303e-08
7.84895e-08
7.91257e-08
7.97445e-08
8.03549e-08
8.09629e-08
8.1564e-08
8.21487e-08
8.27085e-08
8.3241e-08
8.37471e-08
8.42245e-08
4.07601e-08
1.78892e-08
5.04399e-09
2.54888e-09
3.26656e-08
1.62572e-07
4.79362e-07
1.24396e-06
2.45956e-06
4.45801e-06
6.99508e-06
8.90419e-06
8.80629e-06
7.29556e-06
5.66875e-06
4.47065e-06
3.65312e-06
3.0847e-06
2.67595e-06
2.36753e-06
2.12449e-06
1.92697e-06
1.76247e-06
1.62269e-06
1.50187e-06
1.39603e-06
1.30224e-06
1.21817e-06
1.14216e-06
1.07278e-06
1.00895e-06
9.49785e-07
8.94502e-07
8.42577e-07
7.93538e-07
7.47045e-07
7.02828e-07
6.6068e-07
6.20476e-07
5.82074e-07
5.45416e-07
5.10429e-07
4.77066e-07
4.45314e-07
4.15147e-07
3.86553e-07
3.59528e-07
3.3408e-07
3.10251e-07
2.88091e-07
2.6766e-07
2.49007e-07
2.32169e-07
2.17165e-07
2.03978e-07
1.9256e-07
1.82842e-07
1.74734e-07
1.68138e-07
1.62933e-07
1.58998e-07
1.56202e-07
1.54414e-07
1.53505e-07
1.53357e-07
1.53841e-07
1.54809e-07
1.56124e-07
1.5768e-07
1.59388e-07
1.61168e-07
1.62966e-07
1.64749e-07
1.665e-07
1.68196e-07
1.69833e-07
1.71412e-07
1.72944e-07
1.74449e-07
1.7594e-07
1.7741e-07
1.78837e-07
1.80205e-07
1.81508e-07
1.82747e-07
1.83921e-07
6.60609e-08
2.82523e-08
8.01096e-09
6.77974e-09
6.16222e-08
2.71047e-07
7.11457e-07
1.78253e-06
3.53015e-06
6.80012e-06
1.15841e-05
1.6074e-05
1.74348e-05
1.5809e-05
1.30545e-05
1.05902e-05
8.75402e-06
7.42389e-06
6.44909e-06
5.70916e-06
5.12527e-06
4.65078e-06
4.25608e-06
3.92116e-06
3.63204e-06
3.37902e-06
3.15498e-06
2.95426e-06
2.77277e-06
2.60705e-06
2.45442e-06
2.31272e-06
2.18003e-06
2.05499e-06
1.93643e-06
1.82348e-06
1.71546e-06
1.61184e-06
1.51228e-06
1.41653e-06
1.32447e-06
1.23599e-06
1.15102e-06
1.06962e-06
9.91806e-07
9.17673e-07
8.47344e-07
7.80954e-07
7.18673e-07
6.60669e-07
6.07117e-07
5.5815e-07
5.1385e-07
4.74236e-07
4.39251e-07
4.08765e-07
3.82595e-07
3.60502e-07
3.42223e-07
3.2745e-07
3.15877e-07
3.07189e-07
3.01068e-07
2.9721e-07
2.95326e-07
2.95109e-07
2.9622e-07
2.98333e-07
3.01186e-07
3.04551e-07
3.08216e-07
3.12026e-07
3.15875e-07
3.19697e-07
3.23432e-07
3.2705e-07
3.30541e-07
3.33922e-07
3.37229e-07
3.40489e-07
3.43689e-07
3.46793e-07
3.49767e-07
3.52605e-07
3.5531e-07
3.57878e-07
9.59708e-08
4.00371e-08
1.16049e-08
1.5865e-08
1.04891e-07
4.0524e-07
9.3929e-07
2.26615e-06
4.45746e-06
9.16679e-06
1.68968e-05
2.51518e-05
2.93224e-05
2.88219e-05
2.5628e-05
2.1893e-05
1.86614e-05
1.61028e-05
1.41268e-05
1.25825e-05
1.13426e-05
1.03237e-05
9.47007e-06
8.74228e-06
8.11195e-06
7.55881e-06
7.06801e-06
6.62766e-06
6.22883e-06
5.86416e-06
5.52771e-06
5.21471e-06
4.92093e-06
4.64319e-06
4.3789e-06
4.12597e-06
3.88279e-06
3.64816e-06
3.42124e-06
3.20157e-06
2.98897e-06
2.78332e-06
2.5846e-06
2.39311e-06
2.20911e-06
2.03307e-06
1.86557e-06
1.70719e-06
1.55844e-06
1.41981e-06
1.29174e-06
1.17452e-06
1.06832e-06
9.73105e-07
8.88699e-07
8.14777e-07
7.5089e-07
6.96456e-07
6.50832e-07
6.13301e-07
5.83146e-07
5.59655e-07
5.42127e-07
5.29883e-07
5.22283e-07
5.18662e-07
5.18309e-07
5.2053e-07
5.24736e-07
5.30398e-07
5.37018e-07
5.44199e-07
5.51655e-07
5.59191e-07
5.66642e-07
5.73906e-07
5.80933e-07
5.8773e-07
5.94353e-07
6.00845e-07
6.0719e-07
6.13333e-07
6.1922e-07
6.24844e-07
6.30214e-07
6.35331e-07
1.2669e-07
5.17667e-08
1.58521e-08
3.29875e-08
1.63054e-07
5.4875e-07
1.12207e-06
2.58787e-06
4.98542e-06
1.10845e-05
2.2232e-05
3.52313e-05
4.34467e-05
4.54453e-05
4.30444e-05
3.88068e-05
3.44556e-05
3.0625e-05
2.74449e-05
2.48311e-05
2.26538e-05
2.0813e-05
1.92361e-05
1.78672e-05
1.6664e-05
1.55945e-05
1.46351e-05
1.37664e-05
1.29732e-05
1.22428e-05
1.15645e-05
1.09297e-05
1.03308e-05
9.76134e-06
9.21648e-06
8.69211e-06
8.18504e-06
7.69284e-06
7.21387e-06
6.74753e-06
6.29372e-06
5.8525e-06
5.42418e-06
5.00969e-06
4.61e-06
4.22649e-06
3.86089e-06
3.51477e-06
3.18942e-06
2.88595e-06
2.60524e-06
2.3479e-06
2.1142e-06
1.90398e-06
1.7168e-06
1.552e-06
1.40861e-06
1.28541e-06
1.18102e-06
1.09391e-06
1.02256e-06
9.65475e-07
9.21208e-07
8.88355e-07
8.65588e-07
8.51565e-07
8.44899e-07
8.44226e-07
8.48334e-07
8.56111e-07
8.66485e-07
8.78542e-07
8.9159e-07
9.05133e-07
9.1876e-07
9.32188e-07
9.45242e-07
9.57875e-07
9.70141e-07
9.82103e-07
9.93738e-07
1.00497e-06
1.01574e-06
1.02603e-06
1.03588e-06
1.04529e-06
1.53328e-07
6.19348e-08
2.16276e-08
6.1597e-08
2.33228e-07
6.78236e-07
1.22602e-06
2.67461e-06
4.90441e-06
1.20938e-05
2.68166e-05
4.52732e-05
5.85201e-05
6.41815e-05
6.37925e-05
6.01185e-05
5.54096e-05
5.07749e-05
4.66375e-05
4.30528e-05
3.99417e-05
3.72206e-05
3.48206e-05
3.26831e-05
3.07603e-05
2.90144e-05
2.74172e-05
2.59451e-05
2.45785e-05
2.33014e-05
2.2099e-05
2.09594e-05
1.98719e-05
1.88272e-05
1.7818e-05
1.68381e-05
1.5883e-05
1.4949e-05
1.40337e-05
1.31371e-05
1.22599e-05
1.1403e-05
1.05676e-05
9.75606e-06
8.97075e-06
8.21482e-06
7.4921e-06
6.80609e-06
6.15944e-06
5.55436e-06
4.99257e-06
4.47531e-06
4.00315e-06
3.57594e-06
3.193e-06
2.85332e-06
2.55534e-06
2.29693e-06
2.07555e-06
1.88841e-06
1.73264e-06
1.60541e-06
1.50392e-06
1.4255e-06
1.36756e-06
1.32755e-06
1.30291e-06
1.29114e-06
1.28992e-06
1.29708e-06
1.31051e-06
1.32826e-06
1.34882e-06
1.37106e-06
1.39403e-06
1.41705e-06
1.43964e-06
1.46158e-06
1.48283e-06
1.50346e-06
1.52342e-06
1.54264e-06
1.56104e-06
1.57863e-06
1.59548e-06
1.61164e-06
1.71305e-07
6.96434e-08
3.4114e-08
1.04178e-07
3.08557e-07
7.70949e-07
1.2352e-06
2.51593e-06
4.12582e-06
1.1876e-05
2.99178e-05
5.42794e-05
7.33326e-05
8.35598e-05
8.61376e-05
8.39709e-05
7.97374e-05
7.49709e-05
7.03883e-05
6.62112e-05
6.24414e-05
5.90352e-05
5.59441e-05
5.31183e-05
5.05136e-05
4.80925e-05
4.58276e-05
4.36955e-05
4.16765e-05
3.97541e-05
3.79125e-05
3.61387e-05
3.44215e-05
3.27498e-05
3.1116e-05
2.9513e-05
2.79356e-05
2.63798e-05
2.48433e-05
2.33274e-05
2.18346e-05
2.03675e-05
1.89289e-05
1.75232e-05
1.61547e-05
1.48293e-05
1.35542e-05
1.23359e-05
1.11796e-05
1.00895e-05
9.06939e-06
8.12197e-06
7.24915e-06
6.45166e-06
5.72939e-06
5.08178e-06
4.50727e-06
4.00314e-06
3.56579e-06
3.19101e-06
2.87419e-06
2.61065e-06
2.39567e-06
2.22451e-06
2.09256e-06
1.99525e-06
1.92812e-06
1.88676e-06
1.86706e-06
1.86507e-06
1.87684e-06
1.89858e-06
1.9272e-06
1.96033e-06
1.99601e-06
2.03272e-06
2.06934e-06
2.10517e-06
2.13992e-06
2.17353e-06
2.20589e-06
2.23692e-06
2.26657e-06
2.29492e-06
2.32208e-06
2.34818e-06
1.78034e-07
7.52278e-08
6.02338e-08
1.60598e-07
3.79277e-07
8.12083e-07
1.15728e-06
2.16922e-06
2.91747e-06
1.03974e-05
3.09188e-05
6.13445e-05
8.68663e-05
0.000102418
0.000108696
0.000108746
0.000105655
0.000101354
9.6841e-05
9.25053e-05
8.84427e-05
8.46597e-05
8.11361e-05
7.78374e-05
7.47269e-05
7.17715e-05
6.89466e-05
6.62325e-05
6.36114e-05
6.10696e-05
5.85923e-05
5.6168e-05
5.37874e-05
5.144e-05
4.91191e-05
4.68184e-05
4.45334e-05
4.22606e-05
3.99978e-05
3.77483e-05
3.55165e-05
3.3307e-05
3.11241e-05
2.8974e-05
2.68632e-05
2.48003e-05
2.27964e-05
2.08624e-05
1.9007e-05
1.72378e-05
1.55619e-05
1.39856e-05
1.25139e-05
1.11505e-05
9.89788e-06
8.7582e-06
7.73198e-06
6.81769e-06
6.01212e-06
5.31066e-06
4.70766e-06
4.19685e-06
3.77152e-06
3.42446e-06
3.14826e-06
2.93545e-06
2.77871e-06
2.67072e-06
2.60451e-06
2.57333e-06
2.57026e-06
2.58828e-06
2.6215e-06
2.6653e-06
2.7159e-06
2.77023e-06
2.82588e-06
2.88116e-06
2.9351e-06
2.98721e-06
3.03718e-06
3.08488e-06
3.13032e-06
3.1737e-06
3.21525e-06
3.25525e-06
1.74205e-07
8.17194e-08
1.01651e-07
2.26781e-07
4.35459e-07
8.00917e-07
1.0205e-06
1.73393e-06
1.80078e-06
7.97033e-06
2.93958e-05
6.56395e-05
9.82581e-05
0.000119887
0.000130529
0.000133367
0.000131924
0.000128535
0.000124485
0.000120339
0.000116295
0.000112417
0.000108716
0.000105177
0.000101771
9.84721e-05
9.52582e-05
9.2114e-05
8.90248e-05
8.59803e-05
8.29682e-05
7.99796e-05
7.70084e-05
7.40457e-05
7.1087e-05
6.81275e-05
6.51638e-05
6.21931e-05
5.92132e-05
5.62287e-05
5.32455e-05
5.0269e-05
4.73042e-05
4.43583e-05
4.14386e-05
3.85555e-05
3.57231e-05
3.29565e-05
3.0268e-05
2.76694e-05
2.51718e-05
2.27862e-05
2.05228e-05
1.83904e-05
1.63968e-05
1.45501e-05
1.28565e-05
1.13191e-05
9.93857e-06
8.71317e-06
7.63893e-06
6.71038e-06
5.92058e-06
5.26094e-06
4.72162e-06
4.29195e-06
3.96108e-06
3.71783e-06
3.55112e-06
3.44997e-06
3.4029e-06
3.3975e-06
3.42312e-06
3.47129e-06
3.53514e-06
3.60891e-06
3.68789e-06
3.76849e-06
3.84824e-06
3.92559e-06
3.99962e-06
4.06998e-06
4.13673e-06
4.20025e-06
4.26098e-06
4.31949e-06
1.64157e-07
1.04849e-07
1.56964e-07
2.94817e-07
4.70551e-07
7.49853e-07
8.62605e-07
1.3094e-06
1.13369e-06
5.23597e-06
2.52573e-05
6.63875e-05
0.000106711
0.000135262
0.000150986
0.000157181
0.000157832
0.000155713
0.000152421
0.000148718
0.000144919
0.000141154
0.000137471
0.000133875
0.000130352
0.000126879
0.00012344
0.000120023
0.000116616
0.000113213
0.000109805
0.000106384
0.000102949
9.94937e-05
9.60147e-05
9.25091e-05
8.89749e-05
8.54096e-05
8.18107e-05
7.81828e-05
7.45321e-05
7.08639e-05
6.71826e-05
6.34942e-05
5.98052e-05
5.61257e-05
5.24706e-05
4.8857e-05
4.52997e-05
4.18128e-05
3.84106e-05
3.51082e-05
3.1921e-05
2.88635e-05
2.59502e-05
2.31973e-05
2.06197e-05
1.82295e-05
1.60356e-05
1.40441e-05
1.2258e-05
1.06777e-05
9.30113e-06
8.12251e-06
7.13297e-06
6.32096e-06
5.67328e-06
5.17509e-06
4.81057e-06
4.56323e-06
4.41486e-06
4.34447e-06
4.33364e-06
4.36752e-06
4.43415e-06
4.5234e-06
4.62674e-06
4.73722e-06
4.84953e-06
4.95986e-06
5.06572e-06
5.16602e-06
5.26069e-06
5.35037e-06
5.4358e-06
5.51802e-06
1.57278e-07
1.53786e-07
2.21075e-07
3.5528e-07
4.84e-07
6.7963e-07
7.17783e-07
9.64507e-07
7.88476e-07
2.98396e-06
1.90463e-05
6.28925e-05
0.000111414
0.00014787
0.000169516
0.000179733
0.00018297
0.000182477
0.00018021
0.00017716
0.000173781
0.000170284
0.000166763
0.000163249
0.000159742
0.000156228
0.000152696
0.000149136
0.000145543
0.000141911
0.000138236
0.000134514
0.000130745
0.000126927
0.000123058
0.000119137
0.000115164
0.000111136
0.00010705
0.000102911
9.87238e-05
9.44929e-05
9.02209e-05
8.59118e-05
8.15695e-05
7.72014e-05
7.28207e-05
6.84439e-05
6.4085e-05
5.97578e-05
5.54768e-05
5.12582e-05
4.71197e-05
4.30792e-05
3.9156e-05
3.53733e-05
3.17552e-05
2.83238e-05
2.50991e-05
2.20991e-05
1.9339e-05
1.68319e-05
1.4588e-05
1.26124e-05
1.09054e-05
9.46158e-06
8.27167e-06
7.32151e-06
6.59293e-06
6.06456e-06
5.70985e-06
5.49496e-06
5.38913e-06
5.36724e-06
5.40904e-06
5.49749e-06
5.61804e-06
5.75834e-06
5.90819e-06
6.05941e-06
6.20613e-06
6.34524e-06
6.47595e-06
6.59898e-06
6.71549e-06
6.82727e-06
1.79797e-07
2.16122e-07
2.85322e-07
4.0115e-07
4.81549e-07
6.12581e-07
6.09815e-07
7.30853e-07
6.32623e-07
1.57171e-06
1.21768e-05
5.46828e-05
0.000111505
0.000156977
0.000185534
0.000200582
0.000207009
0.000208571
0.000207629
0.000205453
0.000202667
0.000199581
0.000196348
0.000193032
0.000189653
0.000186208
0.00018269
0.000179097
0.000175424
0.000171673
0.00016784
0.000163926
0.000159935
0.000155865
0.00015172
0.000147499
0.000143204
0.000138832
0.000134383
0.000129858
0.000125263
0.000120601
0.000115873
0.000111082
0.000106227
0.000101312
9.6348e-05
9.13478e-05
8.63226e-05
8.12831e-05
7.62406e-05
7.12084e-05
6.62021e-05
6.12384e-05
5.63367e-05
5.15222e-05
4.68232e-05
4.22687e-05
3.78873e-05
3.3708e-05
2.97596e-05
2.60707e-05
2.26698e-05
1.95816e-05
1.68258e-05
1.4416e-05
1.23598e-05
1.06564e-05
9.29587e-06
8.25921e-06
7.51421e-06
7.01062e-06
6.69976e-06
6.54035e-06
6.49871e-06
6.54669e-06
6.66053e-06
6.81963e-06
7.0061e-06
7.20424e-06
7.40154e-06
7.59028e-06
7.76736e-06
7.93289e-06
8.08835e-06
8.23659e-06
2.37211e-07
2.82043e-07
3.40882e-07
4.30966e-07
4.73312e-07
5.67744e-07
5.73694e-07
6.42544e-07
5.99089e-07
9.80716e-07
6.50117e-06
4.17923e-05
0.000106152
0.000161741
0.000198325
0.000219189
0.000229564
0.000233724
0.00023449
0.000233462
0.000231474
0.000228964
0.000226157
0.000223161
0.000220023
0.000216754
0.000213355
0.000209831
0.00020618
0.000202407
0.000198515
0.000194505
0.000190386
0.00018616
0.000181832
0.000177404
0.00017288
0.000168261
0.000163543
0.000158732
0.000153831
0.000148844
0.000143771
0.000138613
0.000133368
0.000128037
0.000122626
0.000117146
0.000111603
0.000106006
0.000100359
9.46721e-05
8.89541e-05
8.32166e-05
7.74738e-05
7.17465e-05
6.60603e-05
6.04432e-05
5.49245e-05
4.95371e-05
4.43163e-05
3.93014e-05
3.45364e-05
3.00669e-05
2.59378e-05
2.2192e-05
1.88701e-05
1.60054e-05
1.36188e-05
1.17156e-05
1.0273e-05
9.22915e-06
8.51483e-06
8.06599e-06
7.82767e-06
7.75348e-06
7.80499e-06
7.94935e-06
8.15741e-06
8.40178e-06
8.65811e-06
8.90932e-06
9.14661e-06
9.36741e-06
9.57275e-06
9.7667e-06
9.90817e-06
3.02103e-07
3.42104e-07
3.8302e-07
4.49718e-07
4.72471e-07
5.68892e-07
6.24649e-07
6.82501e-07
6.5731e-07
7.81328e-07
3.01211e-06
2.65456e-05
9.48299e-05
0.000161198
0.000206998
0.000234841
0.000250104
0.000257556
0.000260529
0.000261008
0.000260085
0.000258357
0.000256147
0.00025362
0.000250855
0.000247886
0.000244724
0.00024138
0.00023786
0.000234171
0.00023032
0.000226312
0.000222158
0.000217866
0.000213441
0.000208891
0.000204219
0.00019943
0.000194522
0.000189499
0.000184368
0.000179133
0.000173795
0.000168353
0.000162806
0.000157152
0.000151396
0.000145546
0.000139607
0.000133583
0.000127475
0.000121287
0.000115024
0.000108689
0.000102289
9.58361e-05
8.93486e-05
8.2846e-05
7.63499e-05
6.98863e-05
6.34853e-05
5.71838e-05
5.10283e-05
4.50725e-05
3.93772e-05
3.40108e-05
2.90508e-05
2.45793e-05
2.06754e-05
1.74053e-05
1.47938e-05
1.27945e-05
1.13319e-05
1.03204e-05
9.67623e-06
9.32368e-06
9.19991e-06
9.25292e-06
9.43757e-06
9.70986e-06
1.0027e-05
1.03544e-05
1.06708e-05
1.09664e-05
1.12391e-05
1.14935e-05
1.16891e-05
3.63226e-07
3.9078e-07
4.13715e-07
4.68824e-07
5.1932e-07
6.47944e-07
7.48109e-07
8.12578e-07
7.92816e-07
7.88893e-07
1.62885e-06
1.39072e-05
7.75818e-05
0.000154246
0.000210461
0.000246613
0.000267896
0.000279512
0.000285334
0.000287789
0.000288283
0.00028761
0.000286218
0.000284346
0.000282121
0.000279602
0.000276818
0.00027379
0.000270528
0.000267046
0.000263354
0.00025946
0.000255379
0.000251121
0.000246696
0.000242112
0.000237376
0.000232495
0.00022747
0.000222306
0.000217011
0.00021159
0.000206046
0.000200379
0.000194589
0.000188673
0.000182637
0.000176487
0.000170229
0.000163864
0.000157393
0.000150815
0.000144132
0.000137343
0.000130447
0.00012345
0.000116361
0.000109187
0.000101941
9.4634e-05
8.72825e-05
7.99083e-05
7.25436e-05
6.52304e-05
5.80221e-05
5.0988e-05
4.42201e-05
3.78354e-05
3.19732e-05
2.6787e-05
2.23985e-05
1.88359e-05
1.60692e-05
1.4025e-05
1.26005e-05
1.16821e-05
1.11678e-05
1.09738e-05
1.1031e-05
1.12724e-05
1.1631e-05
1.20438e-05
1.24641e-05
1.28656e-05
1.32367e-05
1.35787e-05
1.38502e-05
4.15109e-07
4.2966e-07
4.43264e-07
5.31965e-07
6.29285e-07
7.9459e-07
9.33333e-07
1.01067e-06
9.93331e-07
9.20951e-07
1.19352e-06
6.19256e-06
5.56263e-05
0.000139712
0.000207435
0.000253339
0.000281961
0.000298813
0.000308298
0.000313337
0.000315705
0.000316443
0.000316155
0.000315179
0.000313702
0.000311822
0.000309591
0.000307042
0.000304195
0.000301069
0.000297679
0.000294036
0.000290158
0.000286058
0.000281749
0.00027724
0.000272543
0.000267666
0.000262611
0.000257386
0.000252
0.000246459
0.00024077
0.000234933
0.00022895
0.000222821
0.000216549
0.000210143
0.000203609
0.000196951
0.000190168
0.000183261
0.000176229
0.000169069
0.000161779
0.000154359
0.000146811
0.000139139
0.000131341
0.00012342
0.000115376
0.000107212
9.89392e-05
9.05748e-05
8.21444e-05
7.36888e-05
6.52762e-05
5.70127e-05
4.90525e-05
4.16058e-05
3.48971e-05
2.90822e-05
2.42599e-05
2.04597e-05
1.7627e-05
1.56357e-05
1.4338e-05
1.36002e-05
1.33165e-05
1.33858e-05
1.37095e-05
1.41953e-05
1.47468e-05
1.5302e-05
1.58266e-05
1.63091e-05
1.6703e-05
4.60296e-07
4.70288e-07
5.19157e-07
6.54931e-07
7.9795e-07
9.98081e-07
1.16642e-06
1.25587e-06
1.24166e-06
1.1354e-06
1.19217e-06
3.20095e-06
3.33345e-05
0.000116863
0.000196566
0.000253611
0.000291042
0.000314413
0.000328575
0.000336971
0.000341803
0.000344412
0.000345595
0.00034582
0.000345355
0.000344348
0.000342884
0.000341015
0.000338774
0.000336186
0.000333272
0.000330047
0.000326533
0.000322745
0.000318697
0.000314403
0.000309875
0.000305123
0.000300153
0.000294973
0.000289593
0.000284022
0.000278267
0.000272332
0.00026622
0.000259931
0.000253472
0.000246852
0.000240079
0.000233158
0.000226093
0.000218885
0.000211533
0.000204038
0.000196396
0.000188606
0.00018067
0.000172587
0.000164354
0.000155965
0.000147412
0.000138685
0.000129778
0.000120686
0.000111404
0.000101935
9.22999e-05
8.25535e-05
7.28015e-05
6.32267e-05
5.40746e-05
4.55884e-05
3.80235e-05
3.16077e-05
2.6476e-05
2.26072e-05
1.98591e-05
1.80487e-05
1.70211e-05
1.6635e-05
1.67252e-05
1.71966e-05
1.78961e-05
1.86734e-05
1.94475e-05
2.01734e-05
2.07863e-05
5.14114e-07
5.62827e-07
6.50749e-07
8.34427e-07
1.0172e-06
1.24296e-06
1.42855e-06
1.52533e-06
1.51576e-06
1.39957e-06
1.32407e-06
2.0025e-06
1.55165e-05
8.67101e-05
0.000176714
0.00024583
0.000293583
0.000324952
0.000345026
0.000357749
0.000365798
0.000370866
0.000373993
0.000375806
0.000376682
0.000376838
0.000376403
0.000375457
0.00037405
0.000372218
0.00036999
0.000367386
0.000364431
0.000361141
0.000357536
0.00035363
0.000349437
0.000344969
0.000340233
0.000335239
0.000329998
0.000324519
0.000318812
0.000312883
0.000306734
0.00030037
0.000293797
0.000287026
0.000280067
0.000272928
0.000265616
0.000258133
0.000250483
0.000242667
0.000234686
0.00022654
0.000218232
0.000209761
0.000201126
0.00019232
0.000183334
0.000174153
0.000164763
0.000155147
0.000145285
0.00013515
0.000124726
0.000114011
0.00010304
9.19055e-05
8.07686e-05
6.98311e-05
5.93862e-05
4.98163e-05
4.1522e-05
3.47787e-05
2.96262e-05
2.59153e-05
2.34692e-05
2.21335e-05
2.16667e-05
2.18739e-05
2.27299e-05
2.38775e-05
2.51123e-05
2.6324e-05
2.74095e-05
6.25107e-07
7.115e-07
8.36655e-07
1.06191e-06
1.2727e-06
1.50907e-06
1.69893e-06
1.79692e-06
1.79301e-06
1.68311e-06
1.52237e-06
1.68758e-06
6.70654e-06
5.38827e-05
0.00014716
0.000228332
0.000287751
0.000328731
0.000356171
0.000374416
0.000386629
0.000394904
0.000400574
0.000404467
0.000407096
0.000408773
0.000409686
0.000409956
0.000409656
0.000408841
0.000407548
0.000405804
0.000403639
0.000401075
0.00039813
0.000394823
0.000391168
0.000387181
0.000382869
0.000378242
0.000373313
0.000368091
0.000362588
0.000356809
0.00035076
0.000344446
0.000337873
0.000331054
0.000324
0.000316722
0.000309229
0.000301527
0.000293622
0.000285518
0.00027722
0.00026873
0.000260053
0.000251194
0.000242152
0.000232925
0.000223506
0.000213881
0.000204037
0.000193958
0.000183618
0.000172982
0.000162014
0.000150684
0.000138974
0.000126896
0.000114495
0.000101847
8.91273e-05
7.66709e-05
6.49898e-05
5.46762e-05
4.61768e-05
3.95903e-05
3.48507e-05
3.18926e-05
3.09756e-05
3.12844e-05
3.2395e-05
3.40249e-05
3.59569e-05
3.79873e-05
3.99061e-05
4.16109e-05
4.31291e-05
4.44639e-05
7.93761e-07
9.13225e-07
1.06938e-06
1.32217e-06
1.54528e-06
1.7757e-06
1.95916e-06
2.05303e-06
2.05497e-06
1.96087e-06
1.78267e-06
1.80944e-06
3.80971e-06
2.69644e-05
0.000108393
0.000199677
0.000271565
0.000323707
0.000360145
0.000385343
0.000402893
0.000415319
0.00042429
0.000430882
0.000435781
0.000439422
0.000442073
0.00044391
0.000445044
0.000445552
0.000445486
0.000444885
0.000443783
0.000442208
0.000440181
0.000437724
0.000434853
0.000431583
0.000427925
0.00042389
0.000419489
0.000414734
0.000409634
0.000404198
0.000398432
0.000392341
0.000385931
0.000379216
0.000372209
0.000364921
0.000357363
0.000349545
0.000341475
0.00033316
0.000324606
0.000315821
0.000306811
0.000297584
0.000288143
0.000278492
0.000268625
0.000258535
0.000248212
0.000237647
0.000226815
0.000215684
0.000204218
0.000192381
0.000180135
0.000167448
0.000154294
0.000140642
0.000126516
0.000112065
9.76626e-05
8.3957e-05
7.1783e-05
6.17367e-05
5.41304e-05
4.97624e-05
4.77834e-05
4.74019e-05
4.83069e-05
5.01991e-05
5.2833e-05
5.58967e-05
5.89986e-05
6.18431e-05
6.43423e-05
6.65038e-05
1.01396e-06
1.15826e-06
1.33413e-06
1.59557e-06
1.81514e-06
2.02579e-06
2.1964e-06
2.28249e-06
2.28995e-06
2.21691e-06
2.0566e-06
2.00404e-06
2.64627e-06
1.13192e-05
6.53264e-05
0.000159422
0.000243173
0.000307583
0.00035468
0.000388472
0.000412781
0.000430529
0.000443755
0.000453825
0.000461642
0.000467795
0.000472662
0.000476493
0.00047945
0.000481642
0.000483147
0.000484016
0.000484294
0.000484015
0.000483206
0.000481891
0.000480089
0.000477817
0.000475087
0.000471909
0.000468297
0.000464261
0.000459812
0.000454958
0.000449706
0.000444061
0.00043803
0.000431624
0.000424858
0.000417744
0.000410295
0.000402522
0.000394435
0.000386044
0.000377357
0.000368384
0.000359134
0.000349618
0.00033984
0.000329809
0.000319524
0.00030898
0.000298174
0.0002871
0.000275744
0.000264075
0.000252066
0.000239685
0.000226895
0.000213653
0.000199907
0.000185576
0.000170595
0.000154956
0.000138808
0.000122608
0.000107299
9.41166e-05
8.43539e-05
7.80018e-05
7.38311e-05
7.1723e-05
7.15491e-05
7.30236e-05
7.58913e-05
7.98227e-05
8.42426e-05
8.85426e-05
9.2349e-05
9.55773e-05
1.27269e-06
1.43008e-06
1.6113e-06
1.86257e-06
2.06605e-06
2.24917e-06
2.40396e-06
2.48028e-06
2.49295e-06
2.44535e-06
2.32205e-06
2.17871e-06
2.37253e-06
5.51765e-06
2.9923e-05
0.000109059
0.000201336
0.00027809
0.000337189
0.000381297
0.00041401
0.000438502
0.000457166
0.000471692
0.000483239
0.000492589
0.000500261
0.000506603
0.000511849
0.000516155
0.000519631
0.000522351
0.000524376
0.000525748
0.000526502
0.000526666
0.000526263
0.000525312
0.000523826
0.000521817
0.000519299
0.000516281
0.000512775
0.000508789
0.000504329
0.000499402
0.000494013
0.000488173
0.000481895
0.000475194
0.000468083
0.000460573
0.000452678
0.000444408
0.000435774
0.000426786
0.000417457
0.000407798
0.000397818
0.000387526
0.000376926
0.000366015
0.000354793
0.00034326
0.000331407
0.000319209
0.000306643
0.000293686
0.000280308
0.000266465
0.000252104
0.000237138
0.00022147
0.000205018
0.000187779
0.000169985
0.000152474
0.000137145
0.000125639
0.000116678
0.000109706
0.000104954
0.000102657
0.000102691
0.00010483
0.000108842
0.000114202
0.000120036
0.000125424
0.000129978
1.55123e-06
1.70862e-06
1.88116e-06
2.10792e-06
2.28793e-06
2.44134e-06
2.58011e-06
2.64584e-06
2.66415e-06
2.64892e-06
2.58314e-06
2.4191e-06
2.45014e-06
3.49353e-06
1.19603e-05
5.71528e-05
0.000146604
0.000233589
0.000305062
0.000360951
0.000403812
0.000436692
0.000462226
0.000482417
0.000498708
0.000512108
0.000523315
0.000532804
0.000540903
0.000547835
0.000553755
0.000558772
0.000562967
0.000566398
0.00056911
0.000571139
0.000572511
0.000573251
0.000573372
0.00057289
0.000571816
0.000570162
0.000567938
0.000565152
0.000561812
0.000557922
0.000553487
0.000548518
0.000543026
0.000537027
0.000530534
0.00052356
0.000516118
0.000508222
0.000499884
0.000491116
0.000481932
0.000472344
0.000462363
0.000452002
0.000441267
0.000430157
0.000418674
0.000406823
0.000394597
0.000381978
0.000368944
0.000355479
0.000341557
0.00032714
0.000312178
0.000296593
0.000280288
0.000263163
0.000245152
0.000226339
0.000207368
0.000190223
0.000176428
0.000164791
0.000154932
0.000147115
0.000141829
0.000139329
0.000139498
0.000142248
0.000147425
0.000154414
0.000161534
0.00016788
1.82918e-06
1.97507e-06
2.12828e-06
2.32275e-06
2.4769e-06
2.60336e-06
2.72647e-06
2.78141e-06
2.80711e-06
2.83843e-06
2.82885e-06
2.70032e-06
2.6459e-06