/*--------------------------------*- C++ -*----------------------------------*\
| =========                 |                                                 |
| \\      /  F ield         | OpenFOAM: The Open Source CFD Toolbox           |
|  \\    /   O peration     | Version:  2412                                  |
|   \\  /    A nd           | Website:  www.openfoam.com                      |
|    \\/     M anipulation  |                                                 |
\*---------------------------------------------------------------------------*/
FoamFile
{
    version     2.0;
    format      ascii;
    arch        "LSB;label=32;scalar=64";
    class       volScalarField;
    location    "400";
    object      nuTilda;
}
// * * * * * * * * * * * * * * * * * * * * * * * * * * * * * * * * * * * * * //

dimensions      [0 2 -1 0 0 0 0];

internalField   nonuniform List<scalar> 
7418
(
6.60857e-07
8.8783e-07
9.3277e-07
9.20632e-07
9.28199e-07
9.14553e-07
1.63276e-06
2.00707e-06
2.00326e-06
1.88075e-06
1.80814e-06
1.76926e-06
1.75193e-06
1.75414e-06
1.76895e-06
1.78109e-06
1.78442e-06
1.78221e-06
1.77458e-06
1.76594e-06
1.76109e-06
1.75986e-06
1.76137e-06
1.76353e-06
1.76465e-06
1.76496e-06
1.76505e-06
1.76567e-06
1.76687e-06
1.76836e-06
1.76988e-06
1.77139e-06
1.773e-06
1.77472e-06
1.77658e-06
1.77851e-06
1.78052e-06
1.78259e-06
1.78471e-06
1.78686e-06
1.78905e-06
1.79128e-06
1.79354e-06
1.79582e-06
1.7981e-06
1.80039e-06
1.80269e-06
1.805e-06
1.80725e-06
1.80946e-06
1.8117e-06
1.8139e-06
1.81608e-06
1.81824e-06
1.82032e-06
1.8224e-06
1.82445e-06
1.82646e-06
1.82841e-06
1.83028e-06
1.83212e-06
1.83395e-06
1.83569e-06
1.83736e-06
1.83902e-06
1.84063e-06
1.8422e-06
1.84371e-06
1.84515e-06
1.84658e-06
1.84798e-06
1.84932e-06
1.85066e-06
1.85192e-06
1.85304e-06
1.85418e-06
1.85527e-06
1.85631e-06
1.85732e-06
1.85827e-06
1.85921e-06
5.71385e-07
6.99082e-07
2.07683e-06
2.73027e-06
2.87361e-06
2.85452e-06
2.8556e-06
2.87399e-06
5.15658e-06
6.20631e-06
6.18183e-06
5.85112e-06
5.64664e-06
5.53682e-06
5.48967e-06
5.49783e-06
5.53969e-06
5.57321e-06
5.5818e-06
5.57435e-06
5.55184e-06
5.52707e-06
5.51343e-06
5.51036e-06
5.51497e-06
5.52126e-06
5.52458e-06
5.52566e-06
5.52619e-06
5.52832e-06
5.53214e-06
5.53678e-06
5.54153e-06
5.5463e-06
5.55131e-06
5.55675e-06
5.56257e-06
5.5686e-06
5.57487e-06
5.58134e-06
5.58796e-06
5.59469e-06
5.60156e-06
5.60851e-06
5.61556e-06
5.62268e-06
5.62978e-06
5.63693e-06
5.64412e-06
5.65128e-06
5.65838e-06
5.66536e-06
5.67234e-06
5.67924e-06
5.68602e-06
5.69275e-06
5.69932e-06
5.70579e-06
5.71216e-06
5.71842e-06
5.72453e-06
5.7304e-06
5.73615e-06
5.7418e-06
5.74729e-06
5.75258e-06
5.75776e-06
5.76277e-06
5.76765e-06
5.77239e-06
5.77694e-06
5.78138e-06
5.78572e-06
5.78995e-06
5.7941e-06
5.79804e-06
5.8016e-06
5.80514e-06
5.80853e-06
5.81178e-06
5.81495e-06
5.81798e-06
5.8209e-06
1.77596e-06
2.16666e-06
3.73281e-06
4.70677e-06
4.96121e-06
4.97452e-06
4.92698e-06
5.3124e-06
9.2441e-06
1.077e-05
1.07038e-05
1.0252e-05
9.95169e-06
9.79085e-06
9.72549e-06
9.74216e-06
9.80455e-06
9.85206e-06
9.8621e-06
9.84757e-06
9.81192e-06
9.7746e-06
9.7547e-06
9.75116e-06
9.759e-06
9.76898e-06
9.77436e-06
9.7765e-06
9.77814e-06
9.7824e-06
9.78929e-06
9.79742e-06
9.8058e-06
9.81427e-06
9.82317e-06
9.83285e-06
9.84315e-06
9.85381e-06
9.86484e-06
9.87623e-06
9.88788e-06
9.89974e-06
9.91189e-06
9.92414e-06
9.93656e-06
9.94912e-06
9.96166e-06
9.97427e-06
9.98688e-06
9.99948e-06
1.0012e-05
1.00244e-05
1.00367e-05
1.00488e-05
1.00608e-05
1.00726e-05
1.00843e-05
1.00957e-05
1.01069e-05
1.01179e-05
1.01286e-05
1.0139e-05
1.01492e-05
1.01591e-05
1.01688e-05
1.01782e-05
1.01873e-05
1.01961e-05
1.02047e-05
1.02131e-05
1.02212e-05
1.0229e-05
1.02366e-05
1.02442e-05
1.02515e-05
1.02584e-05
1.02647e-05
1.0271e-05
1.02769e-05
1.02826e-05
1.02883e-05
1.02937e-05
1.02988e-05
3.11144e-06
3.78199e-06
5.75779e-06
6.80326e-06
7.17563e-06
7.27124e-06
7.14196e-06
8.62396e-06
1.3951e-05
1.56767e-05
1.55629e-05
1.51125e-05
1.47721e-05
1.45919e-05
1.45257e-05
1.45528e-05
1.46239e-05
1.46734e-05
1.46793e-05
1.46559e-05
1.46107e-05
1.4567e-05
1.45451e-05
1.45432e-05
1.45542e-05
1.45669e-05
1.45741e-05
1.45777e-05
1.45814e-05
1.45885e-05
1.4599e-05
1.46111e-05
1.46234e-05
1.46361e-05
1.46495e-05
1.46639e-05
1.46792e-05
1.4695e-05
1.47113e-05
1.47282e-05
1.47454e-05
1.47631e-05
1.4781e-05
1.47992e-05
1.48176e-05
1.48362e-05
1.48548e-05
1.48735e-05
1.48922e-05
1.49108e-05
1.49293e-05
1.49477e-05
1.49659e-05
1.49839e-05
1.50017e-05
1.50193e-05
1.50365e-05
1.50535e-05
1.507e-05
1.50863e-05
1.51023e-05
1.51178e-05
1.51329e-05
1.51476e-05
1.5162e-05
1.51758e-05
1.51894e-05
1.52026e-05
1.52154e-05
1.52278e-05
1.52398e-05
1.52514e-05
1.52628e-05
1.52739e-05
1.52848e-05
1.52952e-05
1.53046e-05
1.53138e-05
1.53227e-05
1.53312e-05
1.53395e-05
1.53476e-05
1.53553e-05
4.58419e-06
5.55909e-06
8.34011e-06
9.02661e-06
9.51174e-06
9.74077e-06
9.54374e-06
1.29501e-05
1.92742e-05
2.09197e-05
2.07788e-05
2.04768e-05
2.01681e-05
2.00096e-05
1.9963e-05
1.99998e-05
2.0063e-05
2.00992e-05
2.00937e-05
2.00602e-05
2.00115e-05
1.99699e-05
1.99516e-05
1.99539e-05
1.99678e-05
1.99819e-05
1.99904e-05
1.99962e-05
2.00031e-05
2.00141e-05
2.00288e-05
2.00451e-05
2.0062e-05
2.00793e-05
2.00978e-05
2.01175e-05
2.01384e-05
2.01598e-05
2.0182e-05
2.02049e-05
2.02284e-05
2.02524e-05
2.02768e-05
2.03016e-05
2.03265e-05
2.03518e-05
2.03771e-05
2.04025e-05
2.04279e-05
2.04533e-05
2.04784e-05
2.05034e-05
2.05282e-05
2.05527e-05
2.0577e-05
2.06009e-05
2.06244e-05
2.06475e-05
2.06701e-05
2.06923e-05
2.0714e-05
2.07351e-05
2.07557e-05
2.07759e-05
2.07954e-05
2.08144e-05
2.08329e-05
2.08508e-05
2.08683e-05
2.08852e-05
2.09016e-05
2.09175e-05
2.09331e-05
2.09483e-05
2.09631e-05
2.09773e-05
2.09902e-05
2.10028e-05
2.10149e-05
2.10266e-05
2.1038e-05
2.1049e-05
2.10596e-05
6.21022e-06
7.54278e-06
1.15731e-05
1.14325e-05
1.19851e-05
1.23902e-05
1.25862e-05
1.84857e-05
2.51575e-05
2.65109e-05
2.6393e-05
2.64035e-05
2.62119e-05
2.61233e-05
2.61177e-05
2.61595e-05
2.61938e-05
2.61984e-05
2.61739e-05
2.61305e-05
2.60864e-05
2.60576e-05
2.60498e-05
2.60591e-05
2.60753e-05
2.60891e-05
2.60987e-05
2.61075e-05
2.6119e-05
2.61351e-05
2.61546e-05
2.61756e-05
2.61973e-05
2.622e-05
2.62442e-05
2.62698e-05
2.62968e-05
2.63246e-05
2.63533e-05
2.63829e-05
2.64133e-05
2.64442e-05
2.64757e-05
2.65077e-05
2.654e-05
2.65725e-05
2.66052e-05
2.66381e-05
2.66709e-05
2.67036e-05
2.67362e-05
2.67685e-05
2.68006e-05
2.68324e-05
2.68637e-05
2.68946e-05
2.6925e-05
2.69549e-05
2.69843e-05
2.7013e-05
2.70411e-05
2.70685e-05
2.70953e-05
2.71214e-05
2.71467e-05
2.71714e-05
2.71954e-05
2.72187e-05
2.72414e-05
2.72633e-05
2.72846e-05
2.73053e-05
2.73255e-05
2.73453e-05
2.73646e-05
2.73831e-05
2.73999e-05
2.74163e-05
2.7432e-05
2.74473e-05
2.74622e-05
2.74765e-05
2.74902e-05
8.02253e-06
1.01145e-05
1.55412e-05
1.44957e-05
1.46448e-05
1.52514e-05
1.67845e-05
2.54471e-05
3.15142e-05
3.249e-05
3.24693e-05
3.29694e-05
3.29926e-05
3.30264e-05
3.3081e-05
3.31182e-05
3.30992e-05
3.30527e-05
3.30012e-05
3.29504e-05
3.29216e-05
3.29179e-05
3.29284e-05
3.29478e-05
3.29653e-05
3.29771e-05
3.29874e-05
3.30002e-05
3.30182e-05
3.30407e-05
3.30657e-05
3.30918e-05
3.31189e-05
3.31477e-05
3.31782e-05
3.32106e-05
3.32443e-05
3.32791e-05
3.3315e-05
3.33521e-05
3.339e-05
3.34286e-05
3.3468e-05
3.35078e-05
3.35482e-05
3.35888e-05
3.36297e-05
3.36708e-05
3.37118e-05
3.37527e-05
3.37934e-05
3.38339e-05
3.38741e-05
3.39138e-05
3.39531e-05
3.39918e-05
3.403e-05
3.40675e-05
3.41042e-05
3.41402e-05
3.41755e-05
3.42099e-05
3.42435e-05
3.42763e-05
3.43082e-05
3.43392e-05
3.43694e-05
3.43987e-05
3.44272e-05
3.44549e-05
3.44816e-05
3.45077e-05
3.45332e-05
3.4558e-05
3.45823e-05
3.46057e-05
3.46269e-05
3.46476e-05
3.46675e-05
3.46868e-05
3.47056e-05
3.47238e-05
3.47411e-05
1.01011e-05
1.34375e-05
2.03471e-05
1.85372e-05
1.7599e-05
1.84186e-05
2.23462e-05
3.36842e-05
3.82615e-05
3.89348e-05
3.90971e-05
4.02818e-05
4.06262e-05
4.08342e-05
4.09622e-05
4.09799e-05
4.08814e-05
4.07644e-05
4.06798e-05
4.06267e-05
4.06262e-05
4.06611e-05
4.06984e-05
4.07305e-05
4.07482e-05
4.07561e-05
4.07669e-05
4.07853e-05
4.08117e-05
4.08422e-05
4.08736e-05
4.09054e-05
4.09386e-05
4.09742e-05
4.10121e-05
4.10519e-05
4.10932e-05
4.11358e-05
4.11797e-05
4.1225e-05
4.12714e-05
4.13186e-05
4.13667e-05
4.14154e-05
4.14647e-05
4.15144e-05
4.15644e-05
4.16145e-05
4.16647e-05
4.17148e-05
4.17647e-05
4.18142e-05
4.18634e-05
4.19121e-05
4.19603e-05
4.20078e-05
4.20546e-05
4.21007e-05
4.21458e-05
4.21901e-05
4.22334e-05
4.22758e-05
4.23171e-05
4.23574e-05
4.23967e-05
4.24348e-05
4.2472e-05
4.25082e-05
4.25433e-05
4.25774e-05
4.26104e-05
4.26426e-05
4.2674e-05
4.27046e-05
4.27344e-05
4.27636e-05
4.27898e-05
4.28154e-05
4.28401e-05
4.2864e-05
4.28874e-05
4.29099e-05
4.29314e-05
1.26902e-05
1.76188e-05
2.60715e-05
2.36006e-05
2.11614e-05
2.22389e-05
2.95566e-05
4.25387e-05
4.53485e-05
4.59752e-05
4.64112e-05
4.8505e-05
4.92725e-05
4.96924e-05
4.98918e-05
4.98672e-05
4.96646e-05
4.94626e-05
4.93436e-05
4.9298e-05
4.93408e-05
4.94277e-05
4.94987e-05
4.95453e-05
4.95619e-05
4.95644e-05
4.95762e-05
4.96021e-05
4.96392e-05
4.96792e-05
4.9718e-05
4.97562e-05
4.97963e-05
4.98397e-05
4.98859e-05
4.99342e-05
4.9984e-05
5.00352e-05
5.00881e-05
5.01426e-05
5.01984e-05
5.02552e-05
5.0313e-05
5.03716e-05
5.04309e-05
5.04907e-05
5.05509e-05
5.06113e-05
5.06716e-05
5.0732e-05
5.07921e-05
5.08518e-05
5.09112e-05
5.097e-05
5.10281e-05
5.10856e-05
5.11421e-05
5.11977e-05
5.12524e-05
5.13059e-05
5.13584e-05
5.14096e-05
5.14597e-05
5.15086e-05
5.15562e-05
5.16024e-05
5.16476e-05
5.16915e-05
5.17341e-05
5.17756e-05
5.18157e-05
5.18547e-05
5.18928e-05
5.19299e-05
5.19662e-05
5.20018e-05
5.20339e-05
5.20651e-05
5.20952e-05
5.21245e-05
5.2153e-05
5.21806e-05
5.22068e-05
1.6029e-05
2.27697e-05
3.27708e-05
2.97041e-05
2.60518e-05
2.76391e-05
3.87789e-05
5.16431e-05
5.27878e-05
5.38109e-05
5.46445e-05
5.78929e-05
5.91334e-05
5.97543e-05
5.99889e-05
5.98902e-05
5.95697e-05
5.92839e-05
5.91409e-05
5.91193e-05
5.92211e-05
5.93684e-05
5.94755e-05
5.95353e-05
5.95487e-05
5.95455e-05
5.956e-05
5.95956e-05
5.96454e-05
5.96962e-05
5.97429e-05
5.97881e-05
5.98358e-05
5.98879e-05
5.99434e-05
6.00007e-05
6.00597e-05
6.01204e-05
6.0183e-05
6.02475e-05
6.03134e-05
6.03805e-05
6.04489e-05
6.05181e-05
6.05882e-05
6.06589e-05
6.073e-05
6.08014e-05
6.08729e-05
6.09443e-05
6.10154e-05
6.10862e-05
6.11566e-05
6.12263e-05
6.12953e-05
6.13634e-05
6.14306e-05
6.14966e-05
6.15616e-05
6.16252e-05
6.16876e-05
6.17486e-05
6.18083e-05
6.18665e-05
6.19231e-05
6.19782e-05
6.2032e-05
6.20843e-05
6.21352e-05
6.21846e-05
6.22324e-05
6.2279e-05
6.23244e-05
6.23684e-05
6.24115e-05
6.24545e-05
6.24928e-05
6.25301e-05
6.25662e-05
6.26013e-05
6.26355e-05
6.26686e-05
6.27001e-05
2.02468e-05
2.90018e-05
4.04996e-05
3.68986e-05
3.23068e-05
3.48066e-05
5.04415e-05
6.09051e-05
6.06415e-05
6.2739e-05
6.42272e-05
6.87759e-05
7.03888e-05
7.11079e-05
7.12998e-05
7.10949e-05
7.06674e-05
7.03261e-05
7.01867e-05
7.02118e-05
7.03824e-05
7.05863e-05
7.07216e-05
7.07886e-05
7.07969e-05
7.07903e-05
7.08104e-05
7.08579e-05
7.09211e-05
7.09825e-05
7.10372e-05
7.10895e-05
7.11454e-05
7.12066e-05
7.12714e-05
7.13382e-05
7.14065e-05
7.14768e-05
7.15493e-05
7.16239e-05
7.17001e-05
7.17777e-05
7.18567e-05
7.19368e-05
7.20178e-05
7.20996e-05
7.21818e-05
7.22644e-05
7.2347e-05
7.24297e-05
7.25121e-05
7.25942e-05
7.26758e-05
7.27566e-05
7.28367e-05
7.29158e-05
7.29937e-05
7.30705e-05
7.31459e-05
7.32199e-05
7.32925e-05
7.33635e-05
7.34329e-05
7.35006e-05
7.35666e-05
7.36307e-05
7.36933e-05
7.37543e-05
7.38135e-05
7.3871e-05
7.39267e-05
7.39808e-05
7.40335e-05
7.40843e-05
7.41342e-05
7.41846e-05
7.42294e-05
7.4273e-05
7.4315e-05
7.4356e-05
7.43959e-05
7.44346e-05
7.44712e-05
2.54807e-05
3.64439e-05
4.93131e-05
4.5256e-05
3.99763e-05
4.39888e-05
6.43584e-05
7.03452e-05
6.93149e-05
7.31814e-05
7.58397e-05
8.14207e-05
8.31125e-05
8.3759e-05
8.38207e-05
8.34943e-05
8.29958e-05
8.2649e-05
8.25513e-05
8.26438e-05
8.28815e-05
8.31247e-05
8.32719e-05
8.33373e-05
8.33398e-05
8.33342e-05
8.33639e-05
8.3425e-05
8.35008e-05
8.35716e-05
8.36337e-05
8.36936e-05
8.37579e-05
8.38284e-05
8.39026e-05
8.39786e-05
8.40563e-05
8.41361e-05
8.42185e-05
8.43032e-05
8.43896e-05
8.44777e-05
8.45673e-05
8.46581e-05
8.475e-05
8.48428e-05
8.49361e-05
8.50299e-05
8.51238e-05
8.52177e-05
8.53114e-05
8.54047e-05
8.54975e-05
8.55896e-05
8.56807e-05
8.57708e-05
8.58596e-05
8.59471e-05
8.60331e-05
8.61174e-05
8.62003e-05
8.62813e-05
8.63605e-05
8.64378e-05
8.6513e-05
8.65863e-05
8.66577e-05
8.67272e-05
8.67947e-05
8.68602e-05
8.69236e-05
8.69851e-05
8.70448e-05
8.7102e-05
8.71583e-05
8.72161e-05
8.72672e-05
8.73167e-05
8.73645e-05
8.7411e-05
8.74564e-05
8.75003e-05
8.75416e-05
3.18936e-05
4.52362e-05
5.92709e-05
5.48567e-05
4.92461e-05
5.56578e-05
7.76513e-05
8.0133e-05
7.93586e-05
8.56575e-05
8.99856e-05
9.58833e-05
9.73115e-05
9.77256e-05
9.75969e-05
9.7157e-05
9.6637e-05
9.63392e-05
9.63181e-05
9.64895e-05
9.67816e-05
9.70402e-05
9.71814e-05
9.72374e-05
9.72356e-05
9.72367e-05
9.72799e-05
9.73553e-05
9.74425e-05
9.75214e-05
9.75907e-05
9.76585e-05
9.7732e-05
9.78121e-05
9.78958e-05
9.79813e-05
9.80686e-05
9.81584e-05
9.82509e-05
9.8346e-05
9.8443e-05
9.85419e-05
9.86423e-05
9.87443e-05
9.88474e-05
9.89515e-05
9.90563e-05
9.91616e-05
9.9267e-05
9.93726e-05
9.94779e-05
9.95828e-05
9.96872e-05
9.97908e-05
9.98934e-05
9.99948e-05
0.000100095
0.000100193
0.00010029
0.000100385
0.000100479
0.00010057
0.000100659
0.000100746
0.000100831
0.000100913
0.000100994
0.000101072
0.000101148
0.000101221
0.000101292
0.000101361
0.000101427
0.00010149
0.000101552
0.000101617
0.000101674
0.000101729
0.000101783
0.000101834
0.000101884
0.000101933
0.000101978
3.96801e-05
5.55006e-05
7.04351e-05
6.57884e-05
6.03481e-05
7.04966e-05
9.03211e-05
9.06098e-05
9.14427e-05
0.000100608
0.00010663
0.000112095
0.000113023
0.0001131
0.000112758
0.000112232
0.000111743
0.000111541
0.000111621
0.000111871
0.000112198
0.000112448
0.000112568
0.00011261
0.000112607
0.00011262
0.00011268
0.00011277
0.000112868
0.000112954
0.00011303
0.000113107
0.000113191
0.000113281
0.000113375
0.00011347
0.000113568
0.000113668
0.000113772
0.000113878
0.000113986
0.000114096
0.000114208
0.000114322
0.000114437
0.000114553
0.00011467
0.000114788
0.000114906
0.000115023
0.000115141
0.000115258
0.000115375
0.000115491
0.000115605
0.000115719
0.00011583
0.000115941
0.000116049
0.000116155
0.000116259
0.000116361
0.000116461
0.000116558
0.000116652
0.000116744
0.000116834
0.00011692
0.000117004
0.000117086
0.000117164
0.00011724
0.000117312
0.000117381
0.000117448
0.000117519
0.000117582
0.000117642
0.000117699
0.000117755
0.000117809
0.000117861
0.00011791
4.90964e-05
6.73779e-05
8.28546e-05
7.81644e-05
7.35964e-05
8.9278e-05
0.000102557
0.000102241
0.000106273
0.000118197
0.000125493
0.000130021
0.000130349
0.000130041
0.000129494
0.000128923
0.000128513
0.000128441
0.000128632
0.000128951
0.000129291
0.000129512
0.0001296
0.000129627
0.000129626
0.000129658
0.000129737
0.000129841
0.000129947
0.00013004
0.000130125
0.000130211
0.000130306
0.000130407
0.000130512
0.000130618
0.000130727
0.000130839
0.000130954
0.000131072
0.000131192
0.000131315
0.000131439
0.000131566
0.000131694
0.000131823
0.000131953
0.000132083
0.000132214
0.000132345
0.000132476
0.000132606
0.000132736
0.000132864
0.000132992
0.000133118
0.000133242
0.000133364
0.000133484
0.000133602
0.000133718
0.000133831
0.000133941
0.000134048
0.000134152
0.000134253
0.000134352
0.000134447
0.000134539
0.000134628
0.000134713
0.000134795
0.000134872
0.000134945
0.000135015
0.000135092
0.000135159
0.000135222
0.000135283
0.000135341
0.000135398
0.000135451
0.000135501
6.04563e-05
8.10716e-05
9.6553e-05
9.21366e-05
8.9557e-05
0.000107638
0.000114793
0.000115501
0.000124216
0.000138348
0.000146354
0.000149735
0.00014945
0.000148752
0.000148033
0.000147461
0.000147169
0.000147247
0.000147548
0.000147919
0.000148249
0.000148425
0.000148474
0.000148487
0.000148494
0.000148547
0.000148647
0.000148765
0.000148879
0.000148978
0.000149071
0.000149169
0.000149276
0.000149389
0.000149505
0.000149623
0.000149744
0.000149868
0.000149996
0.000150127
0.00015026
0.000150396
0.000150534
0.000150674
0.000150816
0.000150958
0.000151102
0.000151247
0.000151391
0.000151536
0.00015168
0.000151824
0.000151968
0.00015211
0.00015225
0.000152389
0.000152526
0.000152661
0.000152793
0.000152922
0.000153049
0.000153173
0.000153294
0.000153411
0.000153525
0.000153635
0.000153741
0.000153844
0.000153943
0.000154038
0.000154129
0.000154216
0.000154296
0.000154371
0.000154443
0.000154521
0.000154591
0.000154656
0.000154717
0.000154776
0.000154831
0.000154883
0.00015493
7.41487e-05
9.68147e-05
0.000111524
0.000107902
0.000108873
0.000124886
0.000127527
0.000130773
0.000145142
0.000160926
0.000169164
0.00017139
0.000170527
0.000169466
0.000168617
0.000168087
0.000167941
0.000168173
0.000168573
0.000168974
0.000169274
0.000169392
0.0001694
0.000169402
0.000169423
0.000169501
0.000169622
0.000169752
0.000169873
0.000169978
0.000170081
0.000170192
0.000170312
0.000170437
0.000170565
0.000170696
0.00017083
0.000170967
0.000171109
0.000171253
0.0001714
0.00017155
0.000171702
0.000171857
0.000172013
0.00017217
0.000172328
0.000172487
0.000172646
0.000172805
0.000172963
0.000173121
0.000173278
0.000173434
0.000173588
0.000173739
0.000173889
0.000174036
0.00017418
0.00017432
0.000174458
0.000174592
0.000174723
0.000174849
0.000174971
0.000175089
0.000175202
0.000175311
0.000175415
0.000175515
0.000175609
0.000175698
0.000175779
0.000175853
0.000175922
0.000175998
0.000176067
0.00017613
0.000176188
0.000176242
0.000176292
0.000176338
0.000176377
9.06324e-05
0.000114903
0.000127719
0.000125738
0.000132659
0.000141147
0.000141269
0.000148521
0.000168734
0.00018586
0.000194018
0.000195178
0.000193806
0.000192429
0.000191497
0.000191043
0.000191054
0.000191434
0.000191913
0.000192322
0.000192576
0.00019263
0.000192597
0.000192593
0.000192631
0.000192736
0.000192877
0.000193019
0.000193145
0.000193258
0.000193372
0.000193496
0.000193629
0.000193768
0.000193909
0.000194053
0.0001942
0.000194352
0.000194507
0.000194666
0.000194828
0.000194992
0.000195159
0.000195328
0.000195499
0.00019567
0.000195843
0.000196016
0.00019619
0.000196363
0.000196536
0.000196707
0.000196878
0.000197047
0.000197213
0.000197377
0.000197539
0.000197697
0.000197851
0.000198002
0.00019815
0.000198292
0.000198431
0.000198564
0.000198692
0.000198816
0.000198934
0.000199046
0.000199153
0.000199253
0.000199347
0.000199434
0.000199512
0.000199579
0.000199641
0.000199707
0.000199771
0.000199825
0.000199874
0.000199917
0.000199955
0.000199987
0.000200012
0.000107576
0.000135598
0.000145054
0.000146038
0.000155863
0.000156753
0.000156573
0.000169209
0.000194744
0.000213161
0.000221097
0.000221332
0.000219526
0.000217892
0.000216918
0.000216561
0.00021673
0.00021724
0.000217774
0.000218171
0.000218366
0.000218354
0.000218285
0.000218279
0.000218337
0.00021847
0.000218631
0.000218783
0.000218915
0.000219035
0.00021916
0.000219298
0.000219447
0.000219599
0.000219753
0.000219911
0.000220072
0.000220238
0.000220409
0.000220582
0.000220758
0.000220937
0.000221119
0.000221303
0.000221488
0.000221674
0.000221861
0.000222048
0.000222236
0.000222422
0.000222608
0.000222793
0.000222976
0.000223157
0.000223335
0.00022351
0.000223681
0.000223849
0.000224012
0.000224171
0.000224325
0.000224474
0.000224618
0.000224755
0.000224886
0.000225011
0.00022513
0.000225241
0.000225345
0.000225442
0.000225531
0.00022561
0.000225678
0.000225733
0.000225779
0.000225824
0.000225875
0.000225914
0.000225945
0.000225968
0.000225984
0.000225993
0.000225992
0.000124064
0.000156
0.000163434
0.000169493
0.000178014
0.000172362
0.000173976
0.000193122
0.000223176
0.000242916
0.000250628
0.000250107
0.000247898
0.000246105
0.000245118
0.000244866
0.000245179
0.000245796
0.000246362
0.000246729
0.000246859
0.000246781
0.00024668
0.000246677
0.000246759
0.000246918
0.000247098
0.000247258
0.000247395
0.000247524
0.000247662
0.000247815
0.000247978
0.000248144
0.000248312
0.000248483
0.000248659
0.00024884
0.000249025
0.000249213
0.000249404
0.000249597
0.000249793
0.000249991
0.00025019
0.00025039
0.00025059
0.000250791
0.000250991
0.00025119
0.000251387
0.000251583
0.000251776
0.000251967
0.000252154
0.000252337
0.000252516
0.00025269
0.000252859
0.000253022
0.00025318
0.000253331
0.000253475
0.000253611
0.00025374
0.000253862
0.000253975
0.000254079
0.000254175
0.00025426
0.000254336
0.0002544
0.000254449
0.000254482
0.000254501
0.000254513
0.000254541
0.000254553
0.000254554
0.000254545
0.000254526
0.000254496
0.000254455
0.000140313
0.00017526
0.000182804
0.000197133
0.000198671
0.000188644
0.000194059
0.000220399
0.000254329
0.000275258
0.000282822
0.000281762
0.00027917
0.000277298
0.000276313
0.000276162
0.000276599
0.000277297
0.000277872
0.000278198
0.00027826
0.000278123
0.000277996
0.000277999
0.000278104
0.00027829
0.000278485
0.000278653
0.000278796
0.000278933
0.000279084
0.000279253
0.00027943
0.000279611
0.000279792
0.000279978
0.000280168
0.000280363
0.000280562
0.000280764
0.000280969
0.000281176
0.000281385
0.000281596
0.000281807
0.000282019
0.000282231
0.000282443
0.000282653
0.000282862
0.000283068
0.000283272
0.000283473
0.00028367
0.000283862
0.00028405
0.000284232
0.000284407
0.000284577
0.000284739
0.000284894
0.000285041
0.00028518
0.000285309
0.000285429
0.000285539
0.000285638
0.000285727
0.000285804
0.000285869
0.000285921
0.000285958
0.000285977
0.000285976
0.000285956
0.000156763
0.000193683
0.000203249
0.000226793
0.000218057
0.00020633
0.000217261
0.000250993
0.000288422
0.000310366
0.000317879
0.000316499
0.000313581
0.000311672
0.000310699
0.000310637
0.000311171
0.000311924
0.000312493
0.00031277
0.000312767
0.000312576
0.000312431
0.000312441
0.00031257
0.000312779
0.000312989
0.000313164
0.000313312
0.000313458
0.000313623
0.000313806
0.000313999
0.000314192
0.000314387
0.000314586
0.00031479
0.000314999
0.000315211
0.000315426
0.000315643
0.000315862
0.000316083
0.000316305
0.000316526
0.000316748
0.000316969
0.000317188
0.000317406
0.00031762
0.000317832
0.00031804
0.000318243
0.000318441
0.000318634
0.000318819
0.000318998
0.000319169
0.000319332
0.000319486
0.000319631
0.000319766
0.00031989
0.000320002
0.000320103
0.000320191
0.000320266
0.000320327
0.000320374
0.000320405
0.00032042
0.000320416
0.000320389
0.000320338
0.000320262
0.000174028
0.00021174
0.000224977
0.000255677
0.00023676
0.00022605
0.000243887
0.00028509
0.000325602
0.000348442
0.000356024
0.000354493
0.000351351
0.000349395
0.000348441
0.000348449
0.000349055
0.000349841
0.00035039
0.000350617
0.000350553
0.000350318
0.000350161
0.000350178
0.000350329
0.000350559
0.000350781
0.000350962
0.000351116
0.000351272
0.00035145
0.000351649
0.000351855
0.000352062
0.000352269
0.00035248
0.000352697
0.000352918
0.000353142
0.000353367
0.000353595
0.000353823
0.000354053
0.000354282
0.000354511
0.000354738
0.000354964
0.000355187
0.000355406
0.000355622
0.000355833
0.000356038
0.000356238
0.00035643
0.000356615
0.000356792
0.000356959
0.000357117
0.000357264
0.0003574
0.000357524
0.000357635
0.000357733
0.000357816
0.000357884
0.000357937
0.000357973
0.000357991
0.000357991
0.000357972
0.000357931
0.000357867
0.000357775
0.000357654
0.000357502
0.000192891
0.000229932
0.000248618
0.000282506
0.000255621
0.000248387
0.000274391
0.000322841
0.000365976
0.000389651
0.000397397
0.00039585
0.000392623
0.000390595
0.000389666
0.000389725
0.00039038
0.00039118
0.000391701
0.000391881
0.000391764
0.000391492
0.000391327
0.000391353
0.000391523
0.000391773
0.000392006
0.000392193
0.000392352
0.000392518
0.000392709
0.000392921
0.00039314
0.000393358
0.000393576
0.000393799
0.000394026
0.000394257
0.00039449
0.000394723
0.000394958
0.000395192
0.000395427
0.000395659
0.00039589
0.000396118
0.000396343
0.000396563
0.000396778
0.000396987
0.00039719
0.000397385
0.000397572
0.00039775
0.000397918
0.000398075
0.00039822
0.000398352
0.000398471
0.000398576
0.000398666
0.000398739
0.000398795
0.000398833
0.000398852
0.000398852
0.00039883
0.000398786
0.000398719
0.000398627
0.000398509
0.000398361
0.000398179
0.000397962
0.000397709
0.000214258
0.000248727
0.000275116
0.000306816
0.000275382
0.000273908
0.000309248
0.000364311
0.000409616
0.000434096
0.000442074
0.000440632
0.00043743
0.000435357
0.000434457
0.00043455
0.000435234
0.000436035
0.000436525
0.00043666
0.0004365
0.0004362
0.000436031
0.000436066
0.000436254
0.000436519
0.000436761
0.000436954
0.000437119
0.000437294
0.000437497
0.000437721
0.000437951
0.000438178
0.000438406
0.000438636
0.000438872
0.000439109
0.000439347
0.000439585
0.000439822
0.000440057
0.000440291
0.000440521
0.000440748
0.000440969
0.000441186
0.000441395
0.000441597
0.000441791
0.000441976
0.00044215
0.000442314
0.000442465
0.000442603
0.000442727
0.000442836
0.000442928
0.000443003
0.000443061
0.000443098
0.000443115
0.000443111
0.000443083
0.000443032
0.000442956
0.000442853
0.000442722
0.000442562
0.000442372
0.000442148
0.000441887
0.000441585
0.00044124
0.000440855
0.00023914
0.000268413
0.000306305
0.000329664
0.000296858
0.000303229
0.000348621
0.000409478
0.000456557
0.000481805
0.000490074
0.000488851
0.000485751
0.000483707
0.00048284
0.000482954
0.000483651
0.000484443
0.0004849
0.000484998
0.000484803
0.000484484
0.000484316
0.00048436
0.000484562
0.000484841
0.000485091
0.000485288
0.000485459
0.000485641
0.000485854
0.000486088
0.000486327
0.000486561
0.000486794
0.00048703
0.000487269
0.000487509
0.000487748
0.000487984
0.000488217
0.000488448
0.000488673
0.000488894
0.000489108
0.000489314
0.000489512
0.000489701
0.000489879
0.000490046
0.0004902
0.00049034
0.000490466
0.000490576
0.000490668
0.000490743
0.000490797
0.000490831
0.000490843
0.000490832
0.000490797
0.000490735
0.000490646
0.000490528
0.000490381
0.000490202
0.000489989
0.000489741
0.000489457
0.000489135
0.00048877
0.000488361
0.000487902
0.000487393
0.000486837
0.000268572
0.000288838
0.000337208
0.000351753
0.000320839
0.000336767
0.000392361
0.000458266
0.000506774
0.000532739
0.000541352
0.00054046
0.000537553
0.000535596
0.000534773
0.000534901
0.000535599
0.000536373
0.000536797
0.000536865
0.000536646
0.000536317
0.000536154
0.000536205
0.00053642
0.00053671
0.000536966
0.000537167
0.000537342
0.000537531
0.000537751
0.000537992
0.000538235
0.000538473
0.000538708
0.000538944
0.000539181
0.000539418
0.00053965
0.000539878
0.0005401
0.000540317
0.000540526
0.000540726
0.000540917
0.000541097
0.000541265
0.00054142
0.000541561
0.000541686
0.000541794
0.000541884
0.000541954
0.000542004
0.000542031
0.000542036
0.000542015
0.000541967
0.000541892
0.000541788
0.000541653
0.000541485
0.000541282
0.000541045
0.000540769
0.000540454
0.000540097
0.000539697
0.000539251
0.000538757
0.000538211
0.00053761
0.00053695
0.000536231
0.000535457
0.000303491
0.000309213
0.000369539
0.000373897
0.000347911
0.000374726
0.000440395
0.000510525
0.000560171
0.000586788
0.000595791
0.000595332
0.000592711
0.000590892
0.000590129
0.000590269
0.000590958
0.000591707
0.000592099
0.000592143
0.00059191
0.000591581
0.000591427
0.000591487
0.000591711
0.000592008
0.000592269
0.000592473
0.000592651
0.000592843
0.000593067
0.00059331
0.000593554
0.00059379
0.000594021
0.000594251
0.00059448
0.000594705
0.000594923
0.000595134
0.000595335
0.000595527
0.000595709
0.000595877
0.000596032
0.000596171
0.000596294
0.000596399
0.000596485
0.000596551
0.000596593
0.000596613
0.000596607
0.000596574
0.000596513
0.000596422
0.0005963
0.000596144
0.000595953
0.000595725
0.000595459
0.000595151
0.000594801
0.000594407
0.000593965
0.000593475
0.000592932
0.000592336
0.000591683
0.000590971
0.000590195
0.000589353
0.00058844
0.000587456
0.000586408
0.000344849
0.000336803
0.000403021
0.000397062
0.000378485
0.000417271
0.000492542
0.000566025
0.000616574
0.000643765
0.000653198
0.000653233
0.000650986
0.000649359
0.000648681
0.000648832
0.000649504
0.000650222
0.000650584
0.000650612
0.000650375
0.000650054
0.000649914
0.000649981
0.000650212
0.000650513
0.000650775
0.000650981
0.000651158
0.000651351
0.000651574
0.000651814
0.000652052
0.000652279
0.000652499
0.000652715
0.000652927
0.000653131
0.000653325
0.000653506
0.000653675
0.00065383
0.000653969
0.00065409
0.000654193
0.000654274
0.000654334
0.00065437
0.000654381
0.000654365
0.00065432
0.000654244
0.000654136
0.000653994
0.000653817
0.000653601
0.000653346
0.000653048
0.000652707
0.00065232
0.000651885
0.000651399
0.00065086
0.000650265
0.000649613
0.000648901
0.000648124
0.00064728
0.000646368
0.000645382
0.00064432
0.000643176
0.000641949
0.000640636
0.000639245
0.0003936
0.000376645
0.000439757
0.000422262
0.000413006
0.000464611
0.000548462
0.000624467
0.000675703
0.000703403
0.000713348
0.000713809
0.000712019
0.000710642
0.000710076
0.000710241
0.00071089
0.000711571
0.000711904
0.000711922
0.000711691
0.000711387
0.000711263
0.000711337
0.000711571
0.000711873
0.000712133
0.000712336
0.00071251
0.000712698
0.000712914
0.000713144
0.000713368
0.000713579
0.000713778
0.000713969
0.000714153
0.000714324
0.00071448
0.000714618
0.000714739
0.00071484
0.000714919
0.000714975
0.000715006
0.000715009
0.000714984
0.000714927
0.000714838
0.000714714
0.000714553
0.000714354
0.000714113
0.00071383
0.000713502
0.000713126
0.0007127
0.000712223
0.000711691
0.000711102
0.000710453
0.000709742
0.000708966
0.000708121
0.000707206
0.000706216
0.000705148
0.000703998
0.000702763
0.00070144
0.000700024
0.000698509
0.000696895
0.000695178
0.000693364
0.000450493
0.000426513
0.000480452
0.000450334
0.000451754
0.000516564
0.00060767
0.000685434
0.000737115
0.000765234
0.000775818
0.000776579
0.000775313
0.00077424
0.000773813
0.000773998
0.000774618
0.000775258
0.000775563
0.000775575
0.00077536
0.000775081
0.000774971
0.000775051
0.000775284
0.000775581
0.000775834
0.00077603
0.000776196
0.000776372
0.000776573
0.000776783
0.000776984
0.000777166
0.000777333
0.000777487
0.000777628
0.00077775
0.000777852
0.00077793