/*--------------------------------*- C++ -*----------------------------------*\
| =========                 |                                                 |
| \\      /  F ield         | OpenFOAM: The Open Source CFD Toolbox           |
|  \\    /   O peration     | Version:  2412                                  |
|   \\  /    A nd           | Website:  www.openfoam.com                      |
|    \\/     M anipulation  |                                                 |
\*---------------------------------------------------------------------------*/
FoamFile
{
    version     2.0;
    format      ascii;
    arch        "LSB;label=32;scalar=64";
    class       volScalarField;
    location    "400";
    object      p;
}
// * * * * * * * * * * * * * * * * * * * * * * * * * * * * * * * * * * * * * //

dimensions      [0 2 -2 0 0 0 0];

internalField   nonuniform List<scalar> 
7418
(
109.673
105.064
100.355
99.069
97.4947
85.6772
68.4373
67.5658
84.2607
91.8569
95.1337
96.1873
95.7391
94.3919
93.1548
93.0604
93.4531
94.2173
95.1005
95.4315
95.2631
94.7986
94.1634
93.6814
93.2685
92.8803
92.3946
91.7966
91.1253
90.4271
89.7133
88.9717
88.1891
87.3695
86.5207
85.6496
84.757
83.8442
82.9139
81.97
81.0158
80.0544
79.0886
78.122
77.1578
76.1994
75.25
74.3127
73.3903
72.4855
71.6008
70.739
69.9033
69.0966
68.3213
67.5798
66.8745
66.2076
65.581
64.9957
64.4537
63.9571
63.5089
63.1102
62.7613
62.462
62.2141
62.0203
61.8815
61.7979
61.769
61.7958
61.8883
62.0333
62.2383
62.5053
62.8371
63.2293
63.6797
64.1968
64.7849
104.911
106.194
109.649
105.056
100.361
99.0693
97.4912
85.6972
68.4781
67.5844
84.2541
91.8506
95.1307
96.1858
95.7387
94.3923
93.1554
93.0608
93.4531
94.2172
95.1003
95.4313
95.263
94.7986
94.1635
93.6814
93.2685
92.8803
92.3946
91.7966
91.1253
90.4271
89.7133
88.9718
88.1891
87.3695
86.5207
85.6496
84.757
83.8442
82.9139
81.97
81.0158
80.0544
79.0886
78.122
77.1578
76.1994
75.25
74.3128
73.3903
72.4855
71.6008
70.739
69.9033
69.0966
68.3213
67.5798
66.8745
66.2076
65.581
64.9957
64.4537
63.9571
63.5089
63.1102
62.7613
62.462
62.2141
62.0203
61.8816
61.7979
61.769
61.7958
61.8883
62.0333
62.2383
62.5054
62.8371
63.2293
63.6797
64.1969
64.7849
104.919
106.188
109.62
105.046
100.372
99.0721
97.4897
85.7244
68.5327
67.6101
84.2467
91.8432
95.127
96.184
95.7381
94.3926
93.1561
93.0613
93.4533
94.217
95.1
95.431
95.2629
94.7986
94.1635
93.6815
93.2686
92.8803
92.3946
91.7966
91.1253
90.4271
89.7133
88.9718
88.1891
87.3695
86.5208
85.6496
84.757
83.8442
82.9139
81.97
81.0158
80.0544
79.0887
78.122
77.1578
76.1994
75.25
74.3128
73.3904
72.4855
71.6008
70.739
69.9033
69.0966
68.3213
67.5798
66.8745
66.2076
65.581
64.9957
64.4537
63.9571
63.5089
63.1102
62.7613
62.462
62.2141
62.0203
61.8816
61.7979
61.769
61.7958
61.8883
62.0333
62.2383
62.5054
62.8371
63.2293
63.6797
64.1969
64.7849
104.929
106.18
109.59
105.038
100.39
99.0805
97.4904
85.7591
68.6012
67.6471
84.2398
91.8355
95.1228
96.1819
95.7373
94.393
93.1571
93.062
93.4536
94.217
95.0997
95.4307
95.2628
94.7985
94.1636
93.6815
93.2686
92.8803
92.3946
91.7966
91.1253
90.4272
89.7133
88.9718
88.1891
87.3696
86.5208
85.6497
84.7571
83.8442
82.914
81.97
81.0159
80.0545
79.0887
78.122
77.1579
76.1994
75.2501
74.3128
73.3904
72.4855
71.6008
70.7391
69.9034
69.0967
68.3213
67.5798
66.8746
66.2076
65.581
64.9957
64.4537
63.9571
63.5089
63.1102
62.7613
62.4621
62.2141
62.0203
61.8816
61.7979
61.769
61.7958
61.8883
62.0334
62.2383
62.5054
62.8371
63.2293
63.6797
64.1969
64.7849
104.937
106.174
109.557
105.03
100.419
99.0971
97.4989
85.8023
68.6942
67.7061
84.2338
91.8269
95.1174
96.1789
95.7362
94.3934
93.1584
93.0631
93.4542
94.2171
95.0994
95.4304
95.2626
94.7985
94.1637
93.6816
93.2687
92.8804
92.3946
91.7967
91.1254
90.4272
89.7134
88.9719
88.1892
87.3696
86.5208
85.6497
84.7571
83.8443
82.914
81.9701
81.0159
80.0545
79.0887
78.1221
77.1579
76.1995
75.2501
74.3128
73.3904
72.4856
71.6009
70.7391
69.9034
69.0967
68.3213
67.5799
66.8746
66.2076
65.581
64.9957
64.4537
63.9572
63.5089
63.1102
62.7614
62.4621
62.2142
62.0203
61.8816
61.7979
61.769
61.7958
61.8884
62.0334
62.2383
62.5054
62.8371
63.2293
63.6797
64.1969
64.7849
104.946
106.174
109.52
105.027
100.463
99.1257
97.5156
85.8549
68.8263
67.8032
84.231
91.8163
95.1097
96.1744
95.7343
94.3939
93.1606
93.065
93.4553
94.2175
95.099
95.4299
95.2623
94.7985
94.1639
93.6818
93.2688
92.8804
92.3947
91.7967
91.1255
90.4273
89.7135
88.9719
88.1893
87.3697
86.5209
85.6498
84.7572
83.8443
82.9141
81.9701
81.016
80.0546
79.0888
78.1221
77.158
76.1995
75.2502
74.3129
73.3905
72.4856
71.6009
70.7392
69.9035
69.0968
68.3214
67.5799
66.8747
66.2077
65.5811
64.9958
64.4538
63.9572
63.509
63.1103
62.7614
62.4621
62.2142
62.0204
61.8817
61.798
61.7691
61.7959
61.8884
62.0334
62.2384
62.5055
62.8372
63.2294
63.6798
64.197
64.785
104.958
106.179
109.476
105.043
100.52
99.1725
97.5233
85.9219
69.0187
67.9588
84.2343
91.8023
95.098
96.1672
95.7312
94.3947
93.1642
93.0683
93.4574
94.2183
95.0985
95.429
95.2618
94.7984
94.1641
93.6822
93.269
92.8806
92.3947
91.7968
91.1256
90.4275
89.7136
88.9721
88.1894
87.3698
86.5211
85.6499
84.7573
83.8445
82.9142
81.9703
81.0161
80.0547
79.0889
78.1223
77.1581
76.1997
75.2503
74.313
73.3906
72.4858
71.601
70.7393
69.9036
69.0969
68.3215
67.58
66.8748
66.2078
65.5812
64.9959
64.4539
63.9573
63.5091
63.1104
62.7615
62.4622
62.2143
62.0205
61.8818
61.7981
61.7692
61.796
61.8885
62.0335
62.2385
62.5056
62.8373
63.2295
63.6799
64.1971
64.7851
104.973
106.184
109.424
105.077
100.589
99.2452
97.5213
86.024
69.3004
68.1971
84.2443
91.7826
95.0799
96.1557
95.7261
94.3961
93.1702
93.0738
93.461
94.2197
95.0978
95.4277
95.261
94.7982
94.1646
93.6827
93.2694
92.8808
92.3949
91.797
91.1258
90.4277
89.7138
88.9723
88.1896
87.3701
86.5213
85.6501
84.7575
83.8447
82.9144
81.9705
81.0163
80.0549
79.0892
78.1225
77.1583
76.1999
75.2505
74.3132
73.3908
72.486
71.6012
70.7395
69.9038
69.0971
68.3217
67.5802
66.875
66.208
65.5814
64.9961
64.4541
63.9575
63.5093
63.1106
62.7617
62.4624
62.2145
62.0207
61.8819
61.7983
61.7694
61.7962
61.8887
62.0337
62.2387
62.5057
62.8375
63.2297
63.6801
64.1973
64.7853
104.986
106.181
109.364
105.115
100.671
99.3496
97.5287
86.1936
69.6872
68.5457
84.2584
91.7537
95.0522
96.1377
95.7183
94.3986
93.1799
93.0826
93.4668
94.222
95.0966
95.4256
95.2597
94.7979
94.1654
93.6836
93.2701
92.8811
92.3951
91.7973
91.1262
90.4281
89.7142
88.9726
88.1899
87.3704
86.5216
85.6505
84.7579
83.845
82.9148
81.9708
81.0167
80.0553
79.0895
78.1228
77.1586
76.2002
75.2508
74.3136
73.3911
72.4863
71.6016
70.7398
69.9041
69.0974
68.322
67.5805
66.8753
66.2083
65.5817
64.9964
64.4544
63.9578
63.5096
63.1109
62.762
62.4627
62.2148
62.021
61.8822
61.7985
61.7696
61.7964
61.889
62.034
62.239
62.506
62.8377
63.23
63.6804
64.1976
64.7856
104.993
106.166
109.291
105.138
100.778
99.4793
97.5524
86.4812
70.1732
69.032
84.2718
91.7113
95.011
96.1109
95.707
94.4029
93.1949
93.096
93.4753
94.2254
95.0947
95.4224
95.2577
94.7976
94.1665
93.685
93.271
92.8816
92.3954
91.7977
91.1267
90.4287
89.7148
88.9732
88.1905
87.3709
86.5222
85.651
84.7584
83.8456
82.9153
81.9713
81.0172
80.0558
79.09
78.1233
77.1592
76.2007
75.2513
74.3141
73.3916
72.4868
71.602
70.7403
69.9046
69.0979
68.3225
67.581
66.8757
66.2087
65.5822
64.9968
64.4548
63.9582
63.51
63.1113
62.7624
62.4631
62.2152
62.0214
61.8827
61.799
61.7701
61.7969
61.8894
62.0344
62.2394
62.5065
62.8382
63.2304
63.6808
64.198
64.7861
104.993
106.139
109.196
105.133
100.91
99.6238
97.5971
86.9796
70.7692
69.675
84.278
91.6518
94.9538
96.0738
95.692
94.4099
93.2164
93.1149
93.4873
94.2298
95.0918
95.4178
95.2549
94.7971
94.1683
93.687
93.2724
92.8823
92.3958
91.7982
91.1275
90.4296
89.7156
88.974
88.1912
87.3717
86.523
85.6518
84.7592
83.8464
82.9161
81.9721
81.018
80.0565
79.0908
78.1241
77.1599
76.2015
75.2521
74.3148
73.3923
72.4875
71.6028
70.741
69.9053
69.0985
68.3232
67.5817
66.8764
66.2094
65.5828
64.9975
64.4555
63.9589
63.5107
63.1119
62.7631
62.4638
62.2159
62.022
61.8833
61.7996
61.7707
61.7975
61.89
62.0351
62.24
62.5071
62.8388
63.2311
63.6815
64.1987
64.7867
104.989
106.098
109.073
105.097
101.043
99.7846
97.6949
87.704
71.5549
70.4722
84.2785
91.5747
94.8805
96.0264
95.6735
94.4201
93.2453
93.1399
93.5029
94.2356
95.0878
95.4116
95.2513
94.7966
94.1706
93.6897
93.2743
92.8832
92.3964
91.7991
91.1286
90.4308
89.7168
88.9751
88.1923
87.3728
86.5241
85.6529
84.7603
83.8474
82.9172
81.9732
81.019
80.0576
79.0918
78.1251
77.1609
76.2025
75.2531
74.3158
73.3933
72.4885
71.6037
70.7419
69.9062
69.0995
68.3241
67.5826
66.8773
66.2103
65.5837
64.9984
64.4564
63.9598
63.5115
63.1128
62.7639
62.4646
62.2167
62.0229
61.8841
61.8004
61.7715
61.7983
61.8909
62.0359
62.2409
62.5079
62.8397
63.2319
63.6823
64.1995
64.7876
104.984
106.031
108.915
105.031
101.157
99.9483
97.9234
88.6017
72.5855
71.4012
84.2867
91.4855
94.794
95.97
95.652
94.4336
93.2817
93.1711
93.5225
94.2427
95.0829
95.4039
95.2468
94.7961
94.1738
93.6931
93.2768
92.8845
92.3973
91.8002
91.1301
90.4324
89.7184
88.9765
88.1938
87.3743
86.5256
85.6544
84.7618
83.8489
82.9186
81.9746
81.0204
80.059
79.0932
78.1265
77.1623
76.2038
75.2544
74.3171
73.3946
72.4898
71.605
70.7432
69.9075
69.1007
68.3253
67.5838
66.8785
66.2115
65.5849
64.9996
64.4575
63.9609
63.5127
63.1139
62.7651
62.4658
62.2178
62.024
61.8852
61.8015
61.7726
61.7994
61.892
62.037
62.242
62.509
62.8408
63.233
63.6835
64.2007
64.7888
104.978
105.944
108.722
104.937
101.264
100.128
98.3575
89.7047
73.8007
72.4387
84.3197
91.394
94.6986
95.9061
95.6276
94.45
93.3252
93.2086
93.5462
94.2517
95.0774
95.3951
95.2417
94.7956
94.1776
93.6974
93.2799
92.8861
92.3984
91.8017
91.132
90.4345
89.7203
88.9784
88.1956
87.3762
86.5274
85.6563
84.7636
83.8507
82.9204
81.9764
81.0222
80.0608
79.0949
78.1282
77.164
76.2055
75.2561
74.3188
73.3963
72.4914
71.6066
70.7448
69.9091
69.1023
68.3269
67.5854
66.88
66.213
65.5864
65.001
64.459
63.9624
63.5141
63.1154
62.7665
62.4672
62.2192
62.0254
61.8866
61.8029
61.774
61.8008
61.8934
62.0384
62.2433
62.5104
62.8422
63.2345
63.6849
64.2021
64.7902
104.969
105.848
108.503
104.827
101.354
100.422
99.0321
90.9908
75.1598
73.5701
84.3989
91.3083
94.5985
95.8361
95.6005
94.4691
93.3759
93.2527
93.5747
94.2632
95.0717
95.3852
95.236
94.7951
94.1823
93.7026
93.2837
92.8882
92.3999
91.8035
91.1344
90.437
89.7228
88.9807
88.1979
87.3784
86.5298
85.6585
84.7659
83.853
82.9226
81.9786
81.0244
80.0629
79.0971
78.1304
77.1661
76.2076
75.2582
74.3208
73.3983
72.4934
71.6086
70.7468
69.911
69.1042
68.3288
67.5872
66.8819
66.2149
65.5882
65.0028
64.4608
63.9642
63.5159
63.1171
62.7682
62.4689
62.221
62.0271
61.8883
61.8046
61.7757
61.8025
61.8951
62.0401
62.245
62.5122
62.8439
63.2362
63.6867
64.2039
64.792
104.96
105.748
108.275
104.715
101.444
100.825
99.9039
92.3109
76.6475
74.7897
84.5497
91.2329
94.4971
95.7607
95.5706
94.4908
93.434
93.3039
93.6088
94.2778
95.0663
95.3746
95.2297
94.7947
94.1878
93.7087
93.2883
92.8908
92.4018
91.8057
91.1372
90.4401
89.7257
88.9834
88.2006
87.3812
86.5325
85.6613
84.7686
83.8557
82.9253
81.9813
81.0271
80.0656
79.0997
78.1329
77.1687
76.2101
75.2607
74.3233
73.4008
72.4958
71.611
70.7491
69.9134
69.1065
68.3311
67.5895
66.8842
66.2171
65.5904
65.005
64.463
63.9663
63.518
63.1193
62.7703
62.471
62.2231
62.0292
61.8904
61.8067
61.7778
61.8046
61.8971
62.0422
62.2471
62.5142
62.846
63.2383
63.6888
64.206
64.7942
104.964
105.658
108.06
104.609
101.609
101.235
100.98
93.5076
78.2413
76.0967
84.7909
91.1726
94.3972
95.6809
95.5382
94.5152
93.4998
93.363
93.6493
94.2964
95.0617
95.3634
95.2229
94.7943
94.1942
93.7159
93.2937
92.894
92.4041
91.8085
91.1406
90.4437
89.7292
88.9867
88.2038
87.3845
86.5358
85.6646
84.7718
83.8589
82.9285
81.9845
81.0302
80.0687
79.1028
78.136
77.1717
76.2131
75.2636
74.3262
73.4037
72.4987
71.6139
70.752
69.9162
69.1093
68.3338
67.5923
66.8869
66.2198
65.5931
65.0077
64.4656
63.9689
63.5206
63.1218
62.7729
62.4735
62.2256
62.0317
61.8929
61.8092
61.7803
61.8071
61.8996
62.0446
62.2496
62.5168
62.8485
63.2409
63.6914
64.2086
64.7968
105.005
105.607
107.891
104.559
101.916
101.738
102.406
94.5531
79.9103
77.492
85.1347
91.1318
94.3026
95.5984
95.5041
94.5431
93.5743
93.431
93.6972
94.3195
95.0582
95.3518
95.2157
94.7941
94.2016
93.7243
93.3003
92.8979
92.4069
91.8117
91.1445
90.4479
89.7333
88.9906
88.2076
87.3883
86.5397
85.6684
84.7756
83.8626
82.9323
81.9882
81.0339
80.0723
79.1064
78.1396
77.1753
76.2167
75.2672
74.3297
73.4071
72.5021
71.6173
70.7553
69.9195
69.1126
68.3371
67.5955
66.8901
66.223
65.5963
65.0108
64.4687
63.972
63.5237
63.1249
62.7759
62.4765
62.2286
62.0347
61.8959
61.8122
61.7833
61.8101
61.9026
62.0476
62.2526
62.5198
62.8516
63.2439
63.6944
64.2118
64.8
105.116
105.634
107.8
104.636
102.379
102.453
104.09
95.5167
81.6245
78.974
85.5932
91.1101
94.224
95.5149
95.4695
94.5754
93.6582
93.5088
93.7534
94.348
95.0563
95.34
95.2081
94.794
94.2102
93.734
93.3079
92.9026
92.4103
91.8155
91.1492
90.4529
89.7381
88.9951
88.2121
87.3928
86.5442
85.6729
84.7801
83.867
82.9366
81.9925
81.0382
80.0766
79.1107
78.1438
77.1795
76.2209
75.2713
74.3338
73.4112
72.5062
71.6213
70.7593
69.9234
69.1165
68.341
67.5993
66.8939
66.2268
65.6
65.0145
64.4724
63.9757
63.5273
63.1285
62.7795
62.4801
62.2321
62.0382
61.8994
61.8157
61.7868
61.8136
61.9061
62.0512
62.2562
62.5233
62.8551
63.2475
63.6981
64.2155
64.8037
105.336
105.794
107.825
104.869
102.935
103.485
105.682
96.4995
83.3681
80.5333
86.175
91.121
94.1657
95.4341
95.4364
94.6133
93.7526
93.5975
93.8191
94.3827
95.0566
95.3283
95.2003
94.7942
94.2202
93.7453
93.317
92.9082
92.4145
91.82
91.1546
90.4587
89.7437
89.0004
88.2173
87.398
86.5495
85.6781
84.7853
83.8722
82.9418
81.9976
81.0433
80.0817
79.1157
78.1488
77.1844
76.2258
75.2762
74.3387
73.416
72.5109
71.626
70.764
69.9281
69.1211
68.3455
67.6039
66.8984
66.2312
65.6044
65.0189
64.4767
63.98
63.5316
63.1328
62.7837
62.4844
62.2364
62.0424
61.9036
61.8199
61.791
61.8178
61.9103
62.0554
62.2604
62.5276
62.8594
63.2518
63.7024
64.2199
64.8082
105.699
106.136
108.043
105.257
103.53
104.7
106.863
97.5018
85.1484
82.1583
86.8723
91.2014
94.121
95.3608
95.4075
94.6586
93.8585
93.6981
93.8952
94.4244
95.0596
95.3172
95.1926
94.795
94.2317
93.7583
93.3276
92.9149
92.4195
91.8254
91.161
90.4654
89.7502
89.0066
88.2234
87.4041
86.5556
85.6842
84.7913
83.8782
82.9478
82.0036
81.0492
80.0875
79.1215
78.1546
77.1902
76.2315
75.2819
74.3443
73.4216
72.5165
71.6315
70.7695
69.9335
69.1265
68.3509
67.6092
66.9037
66.2365
65.6096
65.0241
64.4819
63.9851
63.5367
63.1378
62.7888
62.4894
62.2413
62.0474
61.9086
61.8249
61.796
61.8228
61.9153
106.241
106.695
108.523
105.812
104.18
106.069
107.758
98.4768
86.9759
83.8486
87.66
91.3823
94.0916
95.3013
95.3864
94.7134
93.9772
93.8119
93.983
94.4742
95.0663
95.3072
95.1853
94.7965
94.2449
93.7733
93.34
92.923
92.4255
91.8318
91.1684
90.4733
89.7578
89.0138
88.2305
87.4113
86.5628
85.6914
84.7984
83.8852
82.9548
82.0106
81.0561
80.0944
79.1284
78.1614
77.197
76.2382
75.2885
74.351
73.4282
72.523
71.638
70.7759
69.9399
69.1329
68.3572
67.6155
66.9099
66.2426
65.6158
65.0302
64.4879
63.9912
63.5427
63.1438
62.7947
62.4953
62.2472
62.0533
61.9144
61.8307
61.8018
61.8286
61.9212
106.995
107.511
109.337
106.616
105.053
107.887
108.551
99.4226
88.8462
85.6014
88.5242
91.6744
94.0907
95.263
95.3776
94.7805
94.1099
93.94
94.0837
94.5332
95.0777
95.2992
95.1789
94.7992
94.2603
93.7906
93.3545
92.9326
92.4328
91.8394
91.1771
90.4825
89.7667
89.0222
88.2387
87.4196
86.5711
85.6997
84.8066
83.8934
82.9629
82.0187
81.0642
80.1025
79.1364
78.1694
77.2049
76.2461
75.2964
74.3587
73.4359
72.5307
71.6456
70.7835
69.9474
69.1403
68.3646
67.6228
66.9172
66.2499
65.623
65.0373
64.4951
63.9982
63.5498
63.1508
62.8017
62.5022
62.2542
62.0602
61.9213
61.8376
61.8087
61.8355
61.9281
107.985
108.613
110.515
107.663
106.338
110.079
109.238
100.38
90.7426
87.3999
89.4695
92.0644
94.1486
95.2544
95.3872
94.8632
94.258
94.0838
94.1987
94.6026
95.0951
95.2942
95.1742
94.8035
94.2781
93.8105
93.3714
92.9441
92.4415
91.8483
91.1873
90.4931
89.777
89.032
88.2484
87.4292
86.5808
85.7093
84.8162
83.9029
82.9724
82.0281
81.0736
80.1118
79.1457
78.1786
77.2141
76.2553
75.3055
74.3678
73.4449
72.5397
71.6545
70.7923
69.9562
69.1491
68.3733
67.6315
66.9258
66.2584
65.6314
65.0458
64.5034
64.0066
63.558
63.159
62.8099
62.5104
62.2623
62.0683
61.9295
61.8457
61.8168
61.8437
61.9362
109.216
110.018
112.039
108.843
108.015
112.135
109.843
101.37
92.6458
89.227
90.5051
92.5357
94.2915
95.2853
95.4225
94.9655
94.4236
94.2448
94.3294
94.684
95.1202
95.2936
95.172
94.8101
94.2987
93.8333
93.391
92.9577
92.4521
91.8589
91.1991
90.5055
89.789
89.0435
88.2596
87.4404
86.5921
85.7205
84.8273
83.914
82.9834
82.0391
81.0846
80.1227
79.1565
78.1894
77.2249
76.266
75.3162
74.3784
73.4555
72.5501
71.6649
70.8027
69.9665
69.1593
68.3835
67.6416
66.9359
66.2684
65.6414
65.0556
64.5133
64.0164
63.5678
63.1687
62.8195
62.52
62.2719
62.0779
61.939
61.8553
61.8264
61.8533
61.9458
110.667
111.717
113.807
110.203
109.939
113.789
110.485
102.403
94.5359
91.0663
91.6328
93.097
94.5218
95.3674
95.4919
95.0925
94.6088
94.4246
94.4775
94.7791
95.1549
95.2989
95.1736
94.8197
94.3226
93.8595
93.4138
92.9739
92.4647
91.8715
91.2129
90.5198
89.803
89.0567
88.2726
87.4535
86.6052
85.7336
84.8402
83.9269
82.9962
82.0519
81.0973
80.1354
79.1692
78.202
77.2374
76.2785
75.3286
74.3908
73.4678
72.5624
71.6771
70.8148
69.9786
69.1713
68.3954
67.6535
66.9477
66.2802
65.653
65.0672
64.5248
64.0279
63.5792
63.1801
62.8308
62.5313
62.2832
62.0891
61.9503
61.8666
61.8377
61.8646
61.9571
112.301
113.648
115.643
111.947
112.261
115.308
111.101
103.5
96.3951
92.9016
92.8456
93.7629
94.8379
95.5132
95.6047
95.25
94.8164
94.6253
94.6446
94.8896
95.2013
95.3123
95.1803
94.8334
94.3505
93.8895
93.4402
92.9932
92.48
91.8865
91.2291
90.5365
89.8191
89.0722
88.2877
87.4686
86.6203
85.7486
84.8552
83.9418
83.0111
82.0668
81.1121
80.1502
79.1839
78.2167
77.252
76.293
75.3431
74.4052
73.4822
72.5767
71.6913
70.829
69.9927
69.1853
68.4094
67.6673
66.9615
66.2939
65.6667
65.0808
64.5383
64.0413
63.5926
63.1934
62.8441
62.5446
62.2965
62.1024
61.9635
61.8798
61.8509
61.8778
61.9704
114.09
115.62
117.518
114.237
115.061
116.758
111.634
104.678
98.2101
94.7188
94.1299
94.5345
95.2496
95.7338
95.7711
95.4445
95.0502
94.8491
94.8327
95.0176
95.2621
95.3361
95.1939
94.8525
94.3831
93.924
93.4708
93.016
92.4983
91.9042
91.2479
90.5557
89.8378
89.09
88.3053
87.4861
86.6379
85.7661
84.8726
83.9591
83.0284
82.084
81.1293
80.1673
79.2009
78.2337
77.269
76.31
75.36
74.4221
73.499
72.5934
71.7079
70.8455
70.0091
69.2017
68.4257
67.6836
66.9776
66.31
65.6827
65.0967
64.5542
64.0571
63.6084
63.2091
62.8598
62.5602
62.312
62.1179
61.979
61.8953
61.8665
61.8934
61.986
115.978
117.588
119.543
116.976
118.024
118.033
112.226
105.926
99.973
96.506
95.4711
95.4068
95.7633
96.0396
96.0011
95.6834
95.3143
95.0989
95.0438
95.1655
95.34
95.373
95.2167
94.8785
94.4213
93.9637
93.5062
93.043
92.5203
91.9251
91.2698
90.578
89.8595
89.1108
88.3256
87.5063
86.6581
85.7863
84.8927
83.9791
83.0483
82.1039
81.1492
80.1871
79.2208
78.2535
77.2887
76.3297
75.3796
74.4416
73.5185
72.6128
71.7273
70.8648
70.0284
69.2209
68.4447
67.7026
66.9965
66.3288
65.7014
65.1154
64.5727
64.0756
63.6268
63.2275
62.878
62.5784
62.3303
62.1361
61.9972
61.9136
61.8847
61.9117
62.0043
117.849
119.669
121.662
119.818
120.783
119.076
112.987
107.214
101.681
98.2531
96.8534
96.371
96.3813
96.4388
96.3041
95.974
95.6136
95.3778
95.2804
95.3358
95.4382
95.4259
95.2512
94.9133
94.4663
94.0094
93.547
93.075
92.5466
91.9499
91.2953
90.6038
89.8845
89.1348
88.349
87.5297
86.6816
85.8096
84.9158
84.0022
83.0714
82.127
81.1722
80.2101
79.2438
78.2765
77.3117
76.3526
75.4025
74.4644
73.5412
72.6355
71.7499
70.8873
70.0508
69.2432
68.467
67.7247
67.0186
66.3508
65.7233
65.1372
64.5945
64.0973
63.6484
63.249
62.8995
62.5999
62.3517
62.1575
62.0186
61.935
61.9062
61.9332
62.0258
119.656
121.78
123.539
122.579
123.182
120.027
113.908
108.515
103.332
99.9522
98.2606
97.4157
97.1015
96.9361
96.6875
96.3231
95.9534
95.6893
95.5449
95.5313
95.5598
95.4984
95.3004
94.9593
94.5195
94.0623
93.5943
93.1127
92.578
91.9793
91.325
90.6336
89.9134
89.1625
88.3762
87.5567
86.7086
85.8365
84.9426
84.0289
83.0981
82.1537
81.1989
80.2368
79.2704
78.3031
77.3383
76.3791
75.429
74.4909
73.5676
72.6618
71.7762
70.9135
70.0769
69.2692
68.493
67.7506
67.0444
66.3765
65.7489
65.1626
64.6199
64.1226
63.6737
63.2741
62.9246
62.625
62.3767
62.1826
62.0437
61.9601
61.9313
61.9584
62.051
121.395
123.766
124.865
125.123
125.106
120.909
114.928
109.808
104.925
101.597
99.6771
98.5263
97.9168
97.532
97.1561
96.7365
96.3389
96.037
95.8401
95.7549
95.7084
95.5938
95.3676
95.0189
94.5828
94.1234
93.6489
93.1571
92.6154
92.014
91.3595
90.6679
89.9467
89.1944
88.4075
87.5878
86.7396
85.8675
84.9734
84.0597
83.1289
82.1845
81.2297
80.2676
79.3012
78.3339
77.3691
76.4099
75.4598
74.5217
73.5984
72.6925
71.8067
70.944
70.1073
69.2996
68.5232
67.7808
67.0745
66.4065
65.7787
65.1924
64.6496
64.1523
63.7032
63.3036
62.954
62.6544
62.4061
62.2119
62.0731
61.9895
61.9609
61.988
62.0807
123.042
125.567
125.905
127.252
126.549
121.618
115.999
111.076
106.459
103.18
101.088
99.6854
98.8155
98.2218
97.7105
97.2175
96.7743
96.4243
96.1687
96.0095
95.887
95.7156
95.4562
95.095
94.6581
94.1945
93.7121
93.2093
92.6597
92.0548
91.3996
90.7075
89.985
89.2313
88.4435
87.6236
86.7754
85.9031
85.0089
84.0951
83.1643
82.22
81.2652
80.3031
79.3368
78.3695
77.4048
76.4457
75.4955
74.5574
73.634
72.7281
71.8423
70.9795
70.1428
69.335
68.5585
67.816
67.1097
66.4415
65.8137
65.2273
64.6844
64.187
63.7378
63.3382
62.9885
62.6888
62.4406
62.2464
62.1076
62.0241
61.9955
62.0227
124.553
127.215
127.169
129.002
127.59
122.245
117.077
112.305
107.927
104.697
102.48
100.875
99.782
98.9958
98.3469
97.7667
97.2624
96.8538
96.5332
96.2977
96.0985
95.8673
95.5695
95.1905
94.7479
94.2771
93.7853
93.2705
92.7122
92.1028
91.4461
90.7529
90.0289
89.2737
88.485
87.6647
86.8164
85.9439
85.0497
84.1358
83.2051
82.2609
81.3062
80.3442
79.3779
78.4108
77.4461
76.487
75.5369
74.5988
73.6755
72.7695
71.8837
71.0209
70.1841
69.3762
68.5997
67.8571
67.1507
66.4825
65.8545
65.268
64.725
64.2276
63.7784
63.3786
63.0289
62.7292
62.4809
62.2868
62.148
62.0646
62.0361
62.0635
125.896
128.722
128.567
130.434
128.374
122.929
118.129
113.49
109.324
106.143
103.839
102.076
100.798
99.8397
99.0564
98.3803
97.8027
97.3264
96.935
96.6214
96.3453
96.0515
95.7108
95.3083
94.8543
94.3733
93.8699
93.3422
92.774
92.159
91.5
90.8052
90.0793
89.3223
88.5326
87.7118
86.8633
85.9908
85.0964
84.1826
83.252
82.3079
81.3534
80.3915
79.4254
78.4584
77.4938
76.5349
75.5849
74.6469
73.7236
72.8176
71.9318
71.0689
70.2321
69.4242
68.6477
67.905
67.1985
66.5302
65.9021
65.3155
64.7725
64.275
63.8257
63.4259
63.0761
62.7765
62.5282
62.3341
62.1954
62.1122
62.0838
62.1113
127.073
129.983
129.879
131.64
129.022
123.685
119.136
114.624
110.644
107.515
105.153
103.273
101.844
100.736
99.8263
99.051
98.3921
97.8408
97.3741
96.9814
96.6283
96.2702
95.8826
95.4511
94.9799
94.4848
93.9676
93.4256
92.8464
92.2247
91.5621
90.865
90.1369
89.3779
88.587
87.7657
86.917
86.0443
85.1499
84.2362
83.3058
82.3619
81.4076
80.446
79.4801
78.5133
77.5489
76.5902
75.6404
74.7025
73.7794
72.8735
71.9877
71.1248
70.288
69.4801
68.7036
67.9609
67.2544
66.586
65.9578
65.3711
64.828
64.3305
63.8812
63.4813
63.1315
62.8318
62.5837
62.3895
62.251
62.1679
62.1397
62.1673
128.124
131.007
131.082
132.672
129.609
124.421
120.066
115.697
111.881
108.806
106.411
104.448
102.899
101.665
100.64
99.767
99.0233
98.3929
97.8483
97.3764
96.9474
96.524
96.0862
95.6206
95.1267
94.6134
94.0796
93.5221
92.9306
92.3008
91.6336
90.9333
90.2026
89.4413
88.649
87.8271
86.9782
86.1054
85.211
84.2975
83.3673
82.4238
81.4698
80.5085
79.543
78.5766
77.6126
76.6542
75.7046
74.767
73.844
72.9383
72.0525
71.1898
70.3531
69.5452
68.7686
68.026
67.3195
66.651
66.0227
65.436
64.8929
64.3954
63.946
63.5461
63.1962
62.8967
62.6486
62.4546
62.3161
62.2333
62.2053
62.2331
129.031
131.904
132.426
133.644
130.019
125.061
120.903
116.693
113.027
110.012
107.604
105.584
103.942
102.604
101.478
100.513
99.6853
98.9751
98.3525
97.8028
97.2996
96.8115
96.3215
95.8175
95.296
94.7605
94.2073
93.6326
93.0277
92.3886
91.7154
91.0111
90.2771
89.5133
88.7194
87.8967
87.0477
86.1749
85.2806
84.3673
83.4376
82.4946
81.5412
80.5804
79.6154
78.6494
77.6859
76.728
75.7788
74.8416
73.9189
73.0134
72.1278
71.2653
70.4287
69.6209
68.8444
68.1019
67.3954
66.7269
66.0986
65.5119
64.9687
64.4713
64.0219
63.6219
63.2721
62.9727
62.7247
62.5308
62.3926
62.31
62.2823
62.3104
129.736
132.753
133.847
134.343
130.217
125.642
121.637
117.601
114.075
111.125
108.722
106.664
104.953
103.531
102.319
101.271
100.364
99.5764
98.8784
98.2542
97.6797
97.1283
96.586
96.0408
95.4876
94.9265
94.3515
93.7578
93.1381
92.4885
91.8083
91.0989
90.3611
89.5945
88.7989
87.9755
87.1262
86.2535
85.3596
84.4468
83.5177
82.5754
81.6227
80.6626
79.6983
78.7331
77.7703
76.813
75.8645
74.9278
74.0056
73.1004
72.2152
71.3529
70.5165
69.7089
68.9326
68.1903
67.4839
66.8155
66.1871
65.6004
65.0573
64.56
64.1106
63.7106
63.3609
63.0616
62.8138
62.6201
62.4822
62.4
62.3726
62.401
130.286
133.461
134.926
134.656
130.339
126.155
122.265
118.41
115.017
112.138
109.752
107.674
105.914
104.427
103.142
102.022
101.042
100.183
99.4143
98.7208
98.0801
97.468
96.8739
96.287
95.6996
95.1103
94.5115
93.8977
93.2618
92.6005
91.9125
91.1973
90.4552
89.6856
88.8882
88.0639
87.2145
86.3421
85.4488
84.5367
83.6086
82.6673
81.7156
80.7566
79.7933
78.8291
77.8673
76.9109
75.9632
75.0273
74.1058
73.2012
72.3163
71.4545
70.6185
69.8112
69.0353
68.2931
67.5869
66.9187
66.2904
65.7038
65.1608
64.6636
64.2143
63.8144
63.4648
63.1658
62.9182
62.7247
62.5871
62.5054
62.4785
62.5073
130.735
133.886
135.534
134.653
130.409
126.565
122.782
119.111
115.845
113.042
110.682
108.598
106.807
105.269
103.927
102.745
101.702
100.779
99.946
99.1894
98.4884
97.8213
97.1775
96.5487
95.9275
95.3087
94.685
94.0504
93.398
92.7241
92.0272
91.3061
90.5594
89.7867
88.9875
88.1625
87.3131
86.4413
85.5489
84.638
83.7113
82.7714
81.8212
80.8636
79.9018
78.9389
77.9784
77.0233
76.0767
75.1419
74.2214
73.3176
72.4335
71.5722
70.7368
69.93
69.1545
68.4128
67.707
67.0389
66.4108
65.8244
65.2816
64.7846
64.3355
63.9357
63.5864
63.2877
63.0404
62.8471
62.7101
62.629
62.6026
62.6318
131.08
134.121
135.75
134.5
130.427
126.853
123.18
119.689
116.549
113.827
111.501
109.423
107.614
106.041
104.654
103.422
102.326
101.347
100.458
99.6459
98.8913
98.1749
97.4871
96.8182
96.1631
95.5167
94.8683
94.213
93.5441
92.8578
92.1515
91.424
90.6733
89.8975
89.0967
88.2713
87.4223
86.5515
85.6605
84.7514
83.8266
82.8888
81.9407
80.985
80.0251
79.0641
78.1054
77.152
76.2071
75.2738
74.3547
73.452
72.5688
71.7084
70.8738
70.0677
69.2929
68.5518
67.8465
67.1789
66.551
65.9649
65.4225
64.9258
64.4769
64.0774
63.7283
63.4301
63.1832
62.9903
62.8539
62.7735
62.7478
62.7775
131.373
134.178
135.644
134.221
130.361
126.993
123.448
120.132
117.119
114.481
112.195
110.135
108.32
106.724
105.303
104.032
102.893
101.867
100.932
100.072
99.2712
98.512
97.7857
97.0829
96.3961
95.7228
95.0532
94.3786
93.6945
92.9966
92.2819
91.5481
90.7936
90.0164
89.2144
88.3891
87.5413
86.6722
85.7834
84.8769
83.955
83.0201
82.0748
81.1219
80.1645
79.2062
78.25
77.299
76.3562
75.425
74.5078
73.6067
72.7248
71.8657
71.0322
70.2271
69.4532
68.713
68.0085
67.3415
66.714
66.1283
65.5864
65.0901
64.6417
64.2425
63.8938
63.5962
63.3497
63.1573
63.0216
62.942
62.9171
62.9473
131.715
134.049
135.314
133.827
130.171
126.975
123.574
120.427
117.541
114.991
112.75
110.717
108.906
107.298
105.857
104.558
103.385
102.323
101.349
100.451
99.6129
98.8185
98.0602
97.3293
96.6179
95.9204
95.231
94.5419
93.8446
93.137
92.4156
91.6773
90.9194
90.1412
89.3403
88.5159
87.6701
86.8037
85.9181
85.0152
84.0971
83.1661
82.2248
81.2756
80.3218
79.3668
78.4139
77.466
76.5261
75.5976
74.683
73.784
72.9038
72.0463
71.2143
70.4106
69.638
68.899
68.1955
67.5292
66.9024
66.3174
65.7761
65.2804
64.8325
64.4338
64.0858
63.789
63.5431
63.3514
63.2167
63.1382
63.1143
63.1453
132.038
133.826
134.941
133.373
129.844
126.8
123.549
120.563
117.807
115.348
113.156
111.158
109.362
107.753
106.299
104.981
103.784
102.694
101.691
100.763
99.895
99.0731
98.2894
97.536
96.8056
96.0912
95.3854
94.6842
93.9794
93.2651
92.5397
91.7995
91.0412
90.2632
89.4649
88.6445
87.8021
86.9401
86.0595
85.1619
84.2494
83.3241
82.3884
81.4446
80.4956
79.5452
78.597
77.6534
76.7175
75.793
74.8821
73.9861
73.1083
72.2533
71.4235
70.6218
69.8509
69.1136
68.4117
67.7467
67.1208
66.5367
65.9962
65.5014
65.0541
64.656
64.3086
64.0125
63.767
63.5756
63.4417
63.364
63.341
63.3722
132.221
133.612
134.586
132.817
129.354
126.464
123.361
120.53
117.9
115.53
113.385
111.424
109.649
108.048
106.597
105.274
104.065
102.956
101.934
100.985
100.097
99.2571
98.4576
97.6906
96.9489
96.2258
95.5126
94.8038
94.095
93.3797
92.6536
91.9149
91.1598
90.3854
89.5912
88.7769
87.9411
87.0854
86.2117
85.3214
84.4164
83.4986
82.5701
81.633
80.69
79.7454
78.8031
77.8652
76.9345
76.0148
75.1082
74.2154
73.3403
72.4879
71.6605
70.861
70.0922
69.3569
68.6567
67.9929
67.3678
66.7845
66.245
65.7509
65.3043
64.9067
64.5599
64.2647
64.0199
63.8297
63.697
63.6205
63.5983
63.6293
132.205
133.338
134.03
131.994
128.693
125.959
123.006
120.325
117.825
115.547
113.459
111.54
109.796
108.216
106.775
105.451
104.226
103.1
102.065
101.106
100.209
99.361
98.5545
97.7813
97.0341
96.3058
95.5885
94.8759
94.1641
93.45
92.729
91.997
91.2492
90.4817
89.6944
88.8884
88.0627
87.2173
86.3538
85.4739
84.5795
83.672
82.7533
81.8253
80.8911
79.9556
79.0223
78.0923
77.1684
76.2546
75.3536
74.4665
73.597
72.7489
71.9254
71.1293
70.3637
69.6311
68.9332
68.271
67.6473
67.0653
66.5271
66.0341
65.5884
65.1917
64.8455
64.5505
64.3061
64.117
63.9854
63.9096
63.8875
63.9181
132.038
132.982
133.221
131.027
127.901
125.288
122.487
119.954
117.572
115.374
113.324
111.408
109.668
108.102
106.675
105.367
104.163
103.055
102.032
101.08
100.19
99.348
98.5467
97.7775
97.0334