/*--------------------------------*- C++ -*----------------------------------*\
| =========                 |                                                 |
| \\      /  F ield         | OpenFOAM: The Open Source CFD Toolbox           |
|  \\    /   O peration     | Version:  2412                                  |
|   \\  /    A nd           | Website:  www.openfoam.com                      |
|    \\/     M anipulation  |                                                 |
\*---------------------------------------------------------------------------*/
FoamFile
{
    version     2.0;
    format      ascii;
    arch        "LSB;label=32;scalar=64";
    class       volScalarField;
    location    "400";
    object      p;
}
// * * * * * * * * * * * * * * * * * * * * * * * * * * * * * * * * * * * * * //

dimensions      [0 2 -2 0 0 0 0];

internalField   nonuniform List<scalar> 
8659
(
414.91
432.893
443.063
436.236
395.268
285.516
70.5881
-351.719
-835.914
-1286.79
-1559.2
-1601.11
-1527.05
-1427.84
-1331.19
-1246.2
-1168.72
-1098.51
-1036.66
-981.744
-932.576
-888.358
-848.35
-811.944
-778.628
-747.963
-719.644
-693.324
-668.779
-645.811
-624.203
-603.859
-584.59
-566.321
-548.945
-532.37
-516.539
-501.367
-486.818
-472.824
-459.349
-446.361
-433.813
-421.682
-409.937
-398.554
-387.515
-376.796
-366.384
-356.261
-346.413
-336.829
-327.496
-318.403
-309.54
-300.898
-292.471
-284.25
-276.229
-268.397
-260.755
-253.285
-245.996
-238.864
-231.912
-225.099
-218.45
-211.936
-205.584
-199.362
-193.275
-187.314
-181.482
-175.779
-170.187
-164.713
-159.345
-154.09
-148.939
-143.889
-138.933
-134.077
-129.315
-124.646
-120.072
-115.586
414.91
432.892
443.062
436.234
395.263
285.509
70.5754
-351.712
-835.907
-1286.78
-1559.18
-1601.1
-1527.05
-1427.84
-1331.19
-1246.2
-1168.71
-1098.51
-1036.66
-981.744
-932.576
-888.358
-848.35
-811.944
-778.628
-747.963
-719.643
-693.324
-668.779
-645.811
-624.203
-603.859
-584.59
-566.321
-548.945
-532.37
-516.539
-501.367
-486.818
-472.824
-459.349
-446.361
-433.813
-421.682
-409.937
-398.554
-387.515
-376.796
-366.384
-356.261
-346.413
-336.829
-327.496
-318.403
-309.54
-300.898
-292.471
-284.25
-276.229
-268.397
-260.755
-253.285
-245.996
-238.864
-231.912
-225.099
-218.45
-211.935
-205.584
-199.362
-193.275
-187.314
-181.482
-175.779
-170.187
-164.713
-159.345
-154.09
-148.939
-143.889
-138.933
-134.077
-129.315
-124.646
-120.072
-115.586
414.909
432.892
443.061
436.231
395.258
285.498
70.5536
-351.713
-835.881
-1286.73
-1559.13
-1601.08
-1527.04
-1427.83
-1331.19
-1246.19
-1168.71
-1098.51
-1036.66
-981.744
-932.576
-888.358
-848.35
-811.944
-778.628
-747.963
-719.643
-693.324
-668.779
-645.811
-624.202
-603.859
-584.59
-566.321
-548.945
-532.37
-516.539
-501.367
-486.818
-472.824
-459.349
-446.361
-433.813
-421.681
-409.937
-398.554
-387.515
-376.796
-366.384
-356.261
-346.413
-336.829
-327.496
-318.402
-309.54
-300.898
-292.471
-284.25
-276.229
-268.397
-260.755
-253.285
-245.996
-238.864
-231.912
-225.099
-218.45
-211.936
-205.584
-199.362
-193.275
-187.314
-181.482
-175.779
-170.188
-164.713
-159.345
-154.09
-148.939
-143.889
-138.933
-134.077
-129.315
-124.646
-120.072
-115.586
414.909
432.891
443.06
436.228
395.25
285.485
70.5328
-351.694
-835.809
-1286.62
-1559.05
-1601.04
-1527.03
-1427.83
-1331.18
-1246.19
-1168.71
-1098.51
-1036.66
-981.743
-932.575
-888.357
-848.35
-811.943
-778.627
-747.963
-719.643
-693.323
-668.779
-645.811
-624.202
-603.859
-584.59
-566.321
-548.944
-532.37
-516.539
-501.367
-486.818
-472.824
-459.349
-446.361
-433.813
-421.681
-409.937
-398.554
-387.515
-376.796
-366.384
-356.261
-346.413
-336.829
-327.496
-318.402
-309.54
-300.898
-292.471
-284.25
-276.229
-268.397
-260.755
-253.285
-245.996
-238.864
-231.912
-225.099
-218.45
-211.936
-205.584
-199.362
-193.275
-187.314
-181.482
-175.779
-170.187
-164.713
-159.345
-154.09
-148.939
-143.889
-138.933
-134.077
-129.315
-124.646
-120.072
-115.586
414.91
432.891
443.059
436.225
395.242
285.473
70.5218
-351.634
-835.658
-1286.42
-1558.88
-1600.96
-1526.99
-1427.81
-1331.17
-1246.19
-1168.71
-1098.5
-1036.66
-981.742
-932.574
-888.357
-848.349
-811.943
-778.627
-747.962
-719.643
-693.323
-668.779
-645.811
-624.202
-603.859
-584.589
-566.321
-548.944
-532.369
-516.539
-501.367
-486.818
-472.824
-459.349
-446.361
-433.813
-421.681
-409.937
-398.554
-387.515
-376.796
-366.384
-356.261
-346.413
-336.829
-327.496
-318.402
-309.54
-300.898
-292.471
-284.25
-276.229
-268.397
-260.755
-253.285
-245.996
-238.863
-231.912
-225.099
-218.45
-211.935
-205.584
-199.362
-193.275
-187.314
-181.482
-175.779
-170.187
-164.713
-159.345
-154.09
-148.939
-143.889
-138.933
-134.077
-129.315
-124.646
-120.072
-115.586
414.91
432.891
443.058
436.221
395.233
285.463
70.5294
-351.508
-835.382
-1286.07
-1558.6
-1600.8
-1526.92
-1427.78
-1331.16
-1246.18
-1168.7
-1098.5
-1036.66
-981.739
-932.572
-888.355
-848.348
-811.942
-778.626
-747.962
-719.642
-693.322
-668.778
-645.81
-624.202
-603.858
-584.589
-566.32
-548.944
-532.369
-516.539
-501.367
-486.817
-472.824
-459.349
-446.36
-433.813
-421.681
-409.937
-398.554
-387.515
-376.796
-366.384
-356.261
-346.413
-336.829
-327.496
-318.402
-309.54
-300.898
-292.471
-284.25
-276.229
-268.397
-260.754
-253.285
-245.996
-238.863
-231.912
-225.099
-218.45
-211.935
-205.584
-199.362
-193.275
-187.314
-181.482
-175.779
-170.187
-164.713
-159.345
-154.09
-148.939
-143.889
-138.933
-134.077
-129.315
-124.646
-120.072
-115.586
414.912
432.892
443.057
436.216
395.224
285.459
70.5681
-351.288
-834.93
-1285.51
-1558.13
-1600.54
-1526.79
-1427.71
-1331.12
-1246.15
-1168.69
-1098.49
-1036.65
-981.734
-932.567
-888.351
-848.345
-811.939
-778.624
-747.96
-719.641
-693.321
-668.777
-645.809
-624.201
-603.858
-584.588
-566.32
-548.944
-532.369
-516.538
-501.366
-486.817
-472.824
-459.348
-446.36
-433.812
-421.681
-409.937
-398.554
-387.515
-376.796
-366.384
-356.261
-346.413
-336.829
-327.496
-318.402
-309.54
-300.898
-292.471
-284.25
-276.229
-268.397
-260.754
-253.285
-245.996
-238.863
-231.912
-225.099
-218.45
-211.935
-205.584
-199.362
-193.275
-187.314
-181.482
-175.779
-170.187
-164.712
-159.345
-154.09
-148.939
-143.888
-138.933
-134.077
-129.315
-124.646
-120.072
-115.586
414.914
432.894
443.056
436.211
395.214
285.464
70.6402
-350.94
-834.242
-1284.66
-1557.42
-1600.12
-1526.58
-1427.6
-1331.06
-1246.12
-1168.66
-1098.47
-1036.64
-981.724
-932.56
-888.345
-848.34
-811.935
-778.62
-747.957
-719.638
-693.319
-668.775
-645.808
-624.2
-603.856
-584.587
-566.319
-548.943
-532.368
-516.538
-501.366
-486.817
-472.823
-459.348
-446.36
-433.812
-421.681
-409.937
-398.554
-387.514
-376.796
-366.383
-356.26
-346.413
-336.829
-327.496
-318.402
-309.54
-300.898
-292.471
-284.25
-276.229
-268.397
-260.754
-253.285
-245.996
-238.863
-231.912
-225.099
-218.45
-211.935
-205.583
-199.362
-193.275
-187.314
-181.482
-175.779
-170.187
-164.712
-159.345
-154.09
-148.939
-143.888
-138.933
-134.077
-129.315
-124.646
-120.072
-115.586
414.918
432.896
443.055
436.205
395.205
285.48
70.743
-350.419
-833.257
-1283.46
-1556.42
-1599.53
-1526.26
-1427.43
-1330.96
-1246.06
-1168.62
-1098.44
-1036.61
-981.707
-932.547
-888.335
-848.331
-811.928
-778.615
-747.952
-719.634
-693.316
-668.772
-645.805
-624.197
-603.854
-584.586
-566.317
-548.941
-532.367
-516.537
-501.365
-486.816
-472.822
-459.347
-446.359
-433.811
-421.68
-409.936
-398.553
-387.514
-376.796
-366.383
-356.26
-346.412
-336.829
-327.496
-318.402
-309.539
-300.898
-292.471
-284.25
-276.229
-268.397
-260.754
-253.285
-245.996
-238.863
-231.912
-225.099
-218.45
-211.935
-205.583
-199.362
-193.275
-187.314
-181.482
-175.779
-170.187
-164.712
-159.345
-154.09
-148.939
-143.888
-138.933
-134.076
-129.314
-124.646
-120.072
-115.586
414.923
432.899
443.054
436.198
395.198
285.508
70.9071
-349.676
-831.911
-1281.83
-1555.06
-1598.72
-1525.83
-1427.2
-1330.83
-1245.97
-1168.56
-1098.4
-1036.58
-981.683
-932.527
-888.319
-848.318
-811.918
-778.606
-747.945
-719.628
-693.31
-668.767
-645.801
-624.194
-603.851
-584.583
-566.315
-548.939
-532.365
-516.535
-501.363
-486.814
-472.821
-459.346
-446.358
-433.81
-421.679
-409.935
-398.553
-387.513
-376.795
-366.382
-356.26
-346.412
-336.828
-327.495
-318.402
-309.539
-300.898
-292.47
-284.249
-276.228
-268.397
-260.754
-253.285
-245.996
-238.863
-231.911
-225.099
-218.45
-211.935
-205.583
-199.362
-193.274
-187.314
-181.482
-175.779
-170.187
-164.712
-159.344
-154.09
-148.939
-143.888
-138.933
-134.076
-129.314
-124.646
-120.071
-115.586
414.93
432.904
443.053
436.191
395.192
285.563
71.1501
-348.665
-830.148
-1279.66
-1553.26
-1597.64
-1525.26
-1426.89
-1330.64
-1245.85
-1168.48
-1098.34
-1036.54
-981.648
-932.5
-888.297
-848.3
-811.902
-778.593
-747.934
-719.618
-693.302
-668.76
-645.795
-624.188
-603.846
-584.578
-566.311
-548.936
-532.362
-516.532
-501.361
-486.812
-472.819
-459.344
-446.356
-433.809
-421.678
-409.934
-398.552
-387.512
-376.794
-366.382
-356.259
-346.411
-336.828
-327.495
-318.401
-309.539
-300.897
-292.47
-284.249
-276.228
-268.396
-260.754
-253.285
-245.996
-238.863
-231.911
-225.099
-218.45
-211.935
-205.583
-199.362
-193.274
-187.314
-181.482
-175.779
-170.187
-164.712
-159.344
-154.09
-148.939
-143.888
-138.933
-134.076
-129.314
-124.646
-120.071
-115.586
414.94
432.911
443.052
436.183
395.19
285.661
71.4546
-347.346
-827.904
-1276.9
-1550.96
-1596.26
-1524.53
-1426.48
-1330.4
-1245.7
-1168.37
-1098.26
-1036.48
-981.602
-932.463
-888.267
-848.275
-811.882
-778.575
-747.919
-719.605
-693.291
-668.75
-645.786
-624.18
-603.839
-584.572
-566.306
-548.931
-532.357
-516.528
-501.357
-486.809
-472.816
-459.342
-446.354
-433.807
-421.676
-409.932
-398.55
-387.511
-376.793
-366.38
-356.258
-346.41
-336.827
-327.494
-318.4
-309.538
-300.897
-292.469
-284.248
-276.227
-268.396
-260.753
-253.284
-245.995
-238.862
-231.911
-225.098
-218.449
-211.934
-205.583
-199.361
-193.274
-187.313
-181.481
-175.778
-170.187
-164.712
-159.344
-154.089
-148.938
-143.888
-138.932
-134.076
-129.314
-124.646
-120.071
-115.585
414.953
432.918
443.051
436.174
395.192
285.812
71.8085
-345.685
-825.09
-1273.51
-1548.07
-1594.5
-1523.6
-1425.98
-1330.11
-1245.5
-1168.24
-1098.17
-1036.41
-981.544
-932.417
-888.229
-848.244
-811.855
-778.553
-747.899
-719.588
-693.276
-668.737
-645.775
-624.17
-603.83
-584.564
-566.298
-548.924
-532.351
-516.523
-501.352
-486.804
-472.812
-459.338
-446.351
-433.804
-421.673
-409.93
-398.548
-387.509
-376.791
-366.379
-356.256
-346.409
-336.826
-327.493
-318.399
-309.537
-300.896
-292.468
-284.247
-276.227
-268.395
-260.752
-253.283
-245.995
-238.862
-231.91
-225.098
-218.449
-211.934
-205.582
-199.361
-193.273
-187.313
-181.481
-175.778
-170.186
-164.711
-159.344
-154.089
-148.938
-143.887
-138.932
-134.076
-129.314
-124.645
-120.071
-115.585
414.968
432.928
443.049
436.164
395.2
286.02
72.2031
-343.657
-821.646
-1269.47
-1544.49
-1592.29
-1522.43
-1425.35
-1329.74
-1245.27
-1168.08
-1098.05
-1036.31
-981.472
-932.359
-888.182
-848.204
-811.822
-778.524
-747.875
-719.567
-693.257
-668.721
-645.76
-624.158
-603.819
-584.554
-566.289
-548.916
-532.344
-516.516
-501.346
-486.799
-472.807
-459.333
-446.347
-433.8
-421.67
-409.927
-398.545
-387.506
-376.788
-366.376
-356.254
-346.407
-336.824
-327.491
-318.398
-309.535
-300.894
-292.467
-284.246
-276.226
-268.394
-260.751
-253.283
-245.994
-238.861
-231.909
-225.097
-218.448
-211.933
-205.581
-199.36
-193.273
-187.312
-181.48
-175.777
-170.186
-164.711
-159.343
-154.088
-148.938
-143.887
-138.931
-134.075
-129.313
-124.645
-120.07
-115.585
414.987
432.938
443.045
436.153
395.213
286.278
72.6355
-341.253
-817.616
-1264.68
-1540.1
-1589.52
-1520.96
-1424.56
-1329.28
-1244.97
-1167.87
-1097.9
-1036.2
-981.384
-932.288
-888.124
-848.156
-811.781
-778.49
-747.845
-719.541
-693.235
-668.701
-645.742
-624.142
-603.805
-584.541
-566.278
-548.906
-532.335
-516.507
-501.338
-486.792
-472.801
-459.327
-446.341
-433.795
-421.665
-409.922
-398.541
-387.503
-376.785
-366.373
-356.251
-346.404
-336.821
-327.489
-318.396
-309.534
-300.893
-292.466
-284.245
-276.224
-268.393
-260.75
-253.281
-245.993
-238.86
-231.908
-225.096
-218.447
-211.932
-205.581
-199.359
-193.272
-187.312
-181.48
-175.777
-170.185
-164.71
-159.342
-154.088
-148.937
-143.886
-138.931
-134.074
-129.312
-124.644
-120.07
-115.584
415.008
432.949
443.04
436.141
395.232
286.584
73.1211
-338.489
-813.053
-1259.03
-1534.77
-1586.1
-1519.12
-1423.57
-1328.7
-1244.61
-1167.62
-1097.72
-1036.06
-981.276
-932.202
-888.053
-848.097
-811.732
-778.447
-747.809
-719.51
-693.207
-668.677
-645.721
-624.123
-603.788
-584.526
-566.264
-548.893
-532.323
-516.497
-501.329
-486.783
-472.792
-459.32
-446.334
-433.789
-421.659
-409.917
-398.536
-387.498
-376.781
-366.37
-356.248
-346.401
-336.818
-327.486
-318.393
-309.531
-300.89
-292.463
-284.243
-276.222
-268.391
-260.749
-253.28
-245.991
-238.858
-231.907
-225.095
-218.446
-211.931
-205.579
-199.358
-193.271
-187.311
-181.479
-175.776
-170.184
-164.709
-159.341
-154.087
-148.936
-143.885
-138.93
-134.073
-129.312
-124.643
-120.069
-115.583
415.032
432.96
443.033
436.127
395.256
286.937
73.6843
-335.38
-807.934
-1252.48
-1528.5
-1581.86
-1516.85
-1422.35
-1327.99
-1244.16
-1167.31
-1097.49
-1035.9
-981.145
-932.096
-887.967
-848.026
-811.671
-778.396
-747.765
-719.471
-693.174
-668.647
-645.695
-624.099
-603.767
-584.507
-566.247
-548.877
-532.309
-516.484
-501.317
-486.772
-472.782
-459.311
-446.326
-433.781
-421.652
-409.91
-398.53
-387.492
-376.776
-366.365
-356.243
-346.397
-336.814
-327.482
-318.39
-309.528
-300.887
-292.461
-284.24
-276.22
-268.389
-260.747
-253.278
-245.989
-238.857
-231.906
-225.093
-218.444
-211.93
-205.578
-199.357
-193.27
-187.309
-181.477
-175.774
-170.183
-164.708
-159.34
-154.086
-148.935
-143.884
-138.929
-134.072
-129.31
-124.642
-120.068
-115.582
415.059
432.971
443.024
436.11
395.285
287.332
74.3382
-331.9
-802.185
-1245.01
-1521.28
-1576.77
-1513.96
-1420.82
-1327.11
-1243.6
-1166.94
-1097.22
-1035.69
-980.985
-931.969
-887.863
-847.939
-811.599
-778.334
-747.711
-719.425
-693.133
-668.611
-645.663
-624.071
-603.741
-584.484
-566.226
-548.858
-532.292
-516.468
-501.302
-486.759
-472.77
-459.3
-446.316
-433.771
-421.643
-409.902
-398.522
-387.485
-376.769
-366.358
-356.237
-346.391
-336.809
-327.478
-318.385
-309.524
-300.884
-292.457
-284.237
-276.217
-268.386
-260.744
-253.275
-245.987
-238.855
-231.903
-225.091
-218.442
-211.928
-205.576
-199.355
-193.268
-187.308
-181.476
-175.773
-170.181
-164.706
-159.339
-154.084
-148.933
-143.883
-138.927
-134.071
-129.309
-124.641
-120.066
-115.581
-111.184
415.087
432.982
443.012
436.091
395.315
287.76
75.0929
-328.007
-795.734
-1236.58
-1513.06
-1571.3
-1510.07
-1418.92
-1326.01
-1242.91
-1166.47
-1096.89
-1035.44
-980.79
-931.813
-887.736
-847.834
-811.51
-778.259
-747.647
-719.369
-693.084
-668.568
-645.624
-624.037
-603.71
-584.456
-566.201
-548.836
-532.271
-516.449
-501.285
-486.743
-472.756
-459.286
-446.303
-433.76
-421.633
-409.892
-398.513
-387.477
-376.761
-366.351
-356.23
-346.385
-336.803
-327.472
-318.38
-309.519
-300.879
-292.453
-284.233
-276.213
-268.383
-260.741
-253.272
-245.984
-238.852
-231.901
-225.089
-218.44
-211.926
-205.574
-199.353
-193.266
-187.306
-181.474
-175.771
-170.179
-164.705
-159.337
-154.083
-148.932
-143.881
-138.926
-134.069
-129.308
-124.639
-120.065
-115.579
-111.182
415.117
432.992
442.997
436.066
395.347
288.223
75.9566
-323.664
-788.518
-1227.14
-1503.75
-1565.27
-1505.16
-1416.52
-1324.62
-1242.04
-1165.89
-1096.47
-1035.13
-980.552
-931.624
-887.582
-847.707
-811.403
-778.168
-747.568
-719.301
-693.024
-668.516
-645.578
-623.995
-603.673
-584.423
-566.17
-548.808
-532.246
-516.426
-501.264
-486.723
-472.738
-459.27
-446.288
-433.746
-421.619
-409.88
-398.501
-387.466
-376.751
-366.342
-356.222
-346.377
-336.796
-327.465
-318.373
-309.513
-300.873
-292.447
-284.228
-276.208
-268.378
-260.736
-253.268
-245.98
-238.848
-231.898
-225.086
-218.437
-211.923
-205.572
-199.351
-193.264
-187.303
-181.472
-175.769
-170.177
-164.703
-159.335
-154.08
-148.93
-143.879
-138.924
-134.068
-129.306
-124.637
-120.063
-115.578
-111.18
415.149
433.001
442.978
436.035
395.378
288.723
76.9369
-318.828
-780.463
-1216.59
-1493.3
-1557.74
-1499.83
-1413.56
-1322.88
-1240.96
-1165.17
-1095.96
-1034.75
-980.26
-931.392
-887.394
-847.552
-811.274
-778.058
-747.474
-719.219
-692.953
-668.453
-645.522
-623.945
-603.628
-584.382
-566.134
-548.775
-532.216
-516.399
-501.239
-486.7
-472.716
-459.25
-446.269
-433.729
-421.604
-409.865
-398.488
-387.453
-376.739
-366.331
-356.211
-346.367
-336.787
-327.456
-318.365
-309.505
-300.866
-292.441
-284.222
-276.203
-268.373
-260.731
-253.264
-245.976
-238.844
-231.894
-225.082
-218.434
-211.92
-205.568
-199.348
-193.261
-187.301
-181.469
-175.766
-170.175
-164.7
-159.332
-154.078
-148.927
-143.877
-138.921
-134.065
-129.303
-124.635
-120.061
-115.575
-111.178
415.182
433.009
442.952
435.996
395.407
289.263
78.0462
-313.454
-771.491
-1204.82
-1481.63
-1548.82
-1493.83
-1409.93
-1320.71
-1239.61
-1164.27
-1095.33
-1034.28
-979.902
-931.11
-887.166
-847.364
-811.116
-777.924
-747.359
-719.12
-692.866
-668.376
-645.454
-623.885
-603.574
-584.334
-566.09
-548.735
-532.179
-516.365
-501.208
-486.672
-472.69
-459.226
-446.247
-433.708
-421.585
-409.848
-398.471
-387.438
-376.725
-366.317
-356.199
-346.355
-336.776
-327.446
-318.356
-309.496
-300.858
-292.433
-284.214
-276.196
-268.366
-260.725
-253.258
-245.97
-238.839
-231.889
-225.077
-218.429
-211.916
-205.565
-199.344
-193.257
-187.297
-181.466
-175.763
-170.172
-164.697
-159.33
-154.075
-148.925
-143.874
-138.919
-134.062
-129.301
-124.632
-120.058
-115.573
-111.176
415.218
433.014
442.92
435.947
395.431
289.844
79.2998
-307.497
-761.519
-1191.71
-1468.62
-1538.84
-1487.52
-1405.13
-1317.99
-1237.92
-1163.16
-1094.55
-1033.71
-979.462
-930.764
-886.887
-847.135
-810.925
-777.762
-747.221
-719
-692.761
-668.284
-645.373
-623.812
-603.509
-584.275
-566.037
-548.687
-532.136
-516.326
-501.172
-486.639
-472.66
-459.197
-446.221
-433.684
-421.562
-409.827
-398.452
-387.42
-376.708
-366.301
-356.184
-346.341
-336.763
-327.434
-318.344
-309.485
-300.847
-292.423
-284.205
-276.187
-268.358
-260.717
-253.251
-245.964
-238.833
-231.883
-225.072
-218.424
-211.911
-205.56
-199.34
-193.253
-187.293
-181.462
-175.759
-170.168
-164.694
-159.326
-154.072
-148.921
-143.871
-138.916
-134.059
-129.298
-124.629
-120.055
-115.57
-111.173
415.254
433.016
442.879
435.885
395.448
290.463
80.7157
-300.907
-750.46
-1177.13
-1454.13
-1527.61
-1480.52
-1399.39
-1314.64
-1235.79
-1161.75
-1093.57
-1033
-978.92
-930.339
-886.546
-846.856
-810.692
-777.565
-747.052
-718.854
-692.635
-668.173
-645.274
-623.725
-603.431
-584.205
-565.973
-548.629
-532.083
-516.278
-501.128
-486.598
-472.622
-459.163
-446.189
-433.654
-421.535
-409.801
-398.428
-387.398
-376.687
-366.282
-356.166
-346.325
-336.747
-327.419
-318.33
-309.472
-300.835
-292.412
-284.194
-276.177
-268.349
-260.709
-253.242
-245.956
-238.825
-231.876
-225.065
-218.418
-211.905
-205.554
-199.334
-193.248
-187.289
-181.458
-175.755
-170.164
-164.69
-159.322
-154.068
-148.917
-143.867
-138.912
-134.056
-129.294
-124.626
-120.052
-115.566
-111.169
-106.852
-102.616
-98.4603
415.292
433.014
442.826
435.806
395.455
291.121
82.3144
-293.639
-738.223
-1160.97
-1438.01
-1515.09
-1471.96
-1393.15
-1310.61
-1233.14
-1159.99
-1092.35
-1032.11
-978.251
-929.817
-886.128
-846.514
-810.408
-777.326
-746.848
-718.678
-692.482
-668.039
-645.156
-623.619
-603.337
-584.12
-565.897
-548.56
-532.02
-516.22
-501.075
-486.55
-472.578
-459.122
-446.151
-433.619
-421.502
-409.771
-398.4
-387.372
-376.663
-366.259
-356.145
-346.305
-336.728
-327.402
-318.314
-309.457
-300.821
-292.398
-284.182
-276.165
-268.337
-260.698
-253.232
-245.946
-238.816
-231.867
-225.057
-218.41
-211.898
-205.548
-199.328
-193.242
-187.283
-181.452
-175.75
-170.159
-164.685
-159.318
-154.064
-148.913
-143.863
-138.908
-134.051
-129.29
-124.622
-120.047
-115.562
-111.165
-106.848
-102.612
-98.4565
415.33
433.005
442.759
435.707
395.448
291.814
84.1196
-285.644
-724.719
-1143.1
-1420.1
-1501.15
-1462.18
-1386.59
-1305.58
-1229.87
-1157.79
-1090.82
-1031
-977.421
-929.173
-885.615
-846.096
-810.062
-777.035
-746.601
-718.465
-692.296
-667.876
-645.012
-623.492
-603.223
-584.018
-565.805
-548.477
-531.944
-516.151
-501.012
-486.492
-472.525
-459.073
-446.106
-433.578
-421.464
-409.735
-398.367
-387.341
-376.634
-366.232
-356.12
-346.281
-336.706
-327.381
-318.295
-309.439
-300.804
-292.382
-284.167
-276.151
-268.324
-260.685
-253.22
-245.935
-238.806
-231.857
-225.048
-218.401
-211.889
-205.54
-199.321
-193.235
-187.276
-181.446
-175.744
-170.153
-164.679
-159.312
-154.058
-148.908
-143.858
-138.903
-134.047
-129.285
-124.617
-120.043
-115.558
-111.161
-106.844
-102.607
-98.4522
415.367
432.988
442.673
435.582
395.42
292.55
86.1592
-276.882
-709.864
-1123.4
-1400.26
-1485.6
-1451.26
-1379.22
-1299.76
-1225.94
-1155.06
-1088.91
-1029.63
-976.39
-928.376
-884.983
-845.584
-809.639
-776.68
-746.299
-718.205
-692.071
-667.68
-644.839
-623.339
-603.086
-583.895
-565.694
-548.377
-531.854
-516.068
-500.936
-486.423
-472.461
-459.015
-446.052
-433.528
-421.417
-409.692
-398.327
-387.303
-376.6
-366.2
-356.09
-346.253
-336.68
-327.356
-318.272
-309.417
-300.783
-292.363
-284.149
-276.134
-268.308
-260.67
-253.206
-245.922
-238.793
-231.846
-225.037
-218.391
-211.879
-205.53
-199.312
-193.227
-187.268
-181.438
-175.737
-170.147
-164.673
-159.306
-154.052
-148.902
-143.852
-138.897
-134.041
-129.28
-124.612
-120.038
-115.552
-111.156
-106.839
-102.602
-98.4474
415.402
432.96
442.564
435.424
395.367
293.315
88.4659
-267.311
-693.575
-1101.75
-1378.34
-1468.31
-1439.08
-1370.52
-1293.47
-1221.27
-1151.76
-1086.54
-1027.91
-975.108
-927.389
-884.202
-844.953
-809.119
-776.246
-745.931
-717.89
-691.798
-667.441
-644.629
-623.153
-602.92
-583.747
-565.561
-548.256
-531.745
-515.969
-500.846
-486.34
-472.385
-458.945
-445.988
-433.468
-421.362
-409.641
-398.279
-387.259
-376.558
-366.162
-356.054
-346.22
-336.649
-327.327
-318.244
-309.391
-300.759
-292.34
-284.127
-276.114
-268.289
-260.653
-253.189
-245.906
-238.778
-231.832
-225.023
-218.378
-211.868
-205.519
-199.301
-193.217
-187.259
-181.429
-175.729
-170.139
-164.665
-159.299
-154.045
-148.895
-143.845
-138.89
-134.035
-129.273
-124.605
-120.031
-115.546
-111.15
-106.833
-102.597
-98.4418
415.432
432.916
442.426
435.227
395.278
294.057
91.0658
-256.898
-675.78
-1078.02
-1354.21
-1449.1
-1425.46
-1360.79
-1286.45
-1215.78
-1147.9
-1083.63
-1025.77
-973.512
-926.165
-883.237
-844.176
-808.482
-775.714
-745.482
-717.505
-691.466
-667.152
-644.375
-622.929
-602.72
-583.569
-565.401
-548.112
-531.613
-515.85
-500.737
-486.24
-472.294
-458.861
-445.91
-433.397
-421.296
-409.58
-398.223
-387.207
-376.51
-366.116
-356.011
-346.18
-336.612
-327.292
-318.212
-309.361
-300.731
-292.314
-284.102
-276.09
-268.267
-260.632
-253.17
-245.887
-238.761
-231.815
-225.008
-218.364
-211.854
-205.506
-199.289
-193.205
-187.248
-181.419
-175.719
-170.129
-164.657
-159.291
-154.037
-148.887
-143.837
-138.883
-134.027
-129.266
-124.598
-120.024
-115.54
-111.143
-106.826
-102.59
-98.4355
415.454
432.852
442.252
434.98
395.144
294.798
93.9707
-245.635
-656.421
-1052.13
-1327.72
-1427.83
-1410.27
-1349.91
-1278.56
-1209.55
-1143.4
-1080.18
-1023.15
-971.534
-924.644
-882.042
-843.216
-807.696
-775.061
-744.932
-717.036
-691.062
-666.8
-644.066
-622.656
-602.479
-583.353
-565.207
-547.937
-531.456
-515.706
-500.607
-486.121
-472.185
-458.761
-445.818
-433.312
-421.218
-409.507
-398.155
-387.144
-376.451
-366.062
-355.961
-346.133
-336.568
-327.251
-318.173
-309.325
-300.697
-292.282
-284.072
-276.062
-268.24
-260.607
-253.146
-245.865
-238.74
-231.795
-224.989
-218.346
-211.837
-205.491
-199.274
-193.191
-187.235
-181.407
-175.707
-170.118
-164.646
-159.281
-154.028
-148.878
-143.828
-138.874
-134.018
-129.257
-124.59
-120.016
-115.531
-111.135
-106.819
-102.583
-98.4282
415.465
432.761
442.032
434.67
394.951
295.571
97.1904
-233.519
-635.454
-1023.99
-1298.73
-1404.33
-1393.35
-1337.7
-1269.77
-1202.56
-1138.2
-1076.16
-1020.03
-969.115
-922.766
-880.563
-842.03
-806.728
-774.258
-744.257
-716.461
-690.567
-666.371
-643.691
-622.326
-602.185
-583.092
-564.973
-547.726
-531.265
-515.534
-500.45
-485.978
-472.054
-458.64
-445.708
-433.21
-421.124
-409.42
-398.075
-387.069
-376.382
-365.998
-355.901
-346.077
-336.515
-327.202
-318.127
-309.282
-300.657
-292.244
-284.037
-276.029
-268.209
-260.577
-253.119
-245.839
-238.715
-231.772
-224.967
-218.326
-211.818
-205.472
-199.257
-193.175
-187.219
-181.392
-175.693
-170.105
-164.634
-159.269
-154.016
-148.867
-143.818
-138.863
-134.008
-129.247
-124.58
-120.006
-115.522
-111.126
-106.81
-102.575
-98.4198
415.46
432.636
441.754
434.283
394.683
296.346
100.748
-220.551
-612.854
-993.538
-1267.15
-1378.46
-1374.52
-1324.04
-1259.88
-1194.71
-1132.3
-1071.57
-1016.39
-966.23
-920.477
-878.741
-840.566
-805.534
-773.269
-743.427
-715.756
-689.963
-665.847
-643.234
-621.924
-601.829
-582.775
-564.689
-547.472
-531.035
-515.325
-500.26
-485.805
-471.896
-458.496
-445.575
-433.088
-421.011
-409.316
-397.979
-386.98
-376.299
-365.921
-355.829
-346.01
-336.453
-327.144
-318.073
-309.231
-300.609
-292.2
-283.995
-275.989
-268.172
-260.543
-253.086
-245.808
-238.686
-231.745
-224.942
-218.301
-211.795
-205.45
-199.236
-193.155
-187.201
-181.374
-175.677
-170.09
-164.619
-159.255
-154.003
-148.854
-143.805
-138.851
-133.996
-129.235
-124.568
-119.994
-115.511
-111.116
-106.8
-102.564
-98.4106
415.431
432.465
441.404
433.801
394.32
297.114
104.669
-206.763
-588.625
-960.761
-1232.89
-1350.07
-1353.64
-1308.79
-1248.79
-1185.91
-1125.62
-1066.37
-1012.23
-962.875
-917.759
-876.535
-838.772
-804.064
-772.052
-742.407
-714.891
-689.222
-665.207
-642.675
-621.434
-601.396
-582.39
-564.345
-547.163
-530.757
-515.074
-500.032
-485.597
-471.706
-458.322
-445.415
-432.941
-420.876
-409.192
-397.863
-386.873
-376.2
-365.829
-355.744
-345.93
-336.379
-327.075
-318.008
-309.171
-300.552
-292.146
-283.945
-275.943
-268.128
-260.501
-253.047
-245.772
-238.652
-231.712
-224.911
-218.272
-211.767
-205.425
-199.212
-193.132
-187.179
-181.354
-175.657
-170.071
-164.601
-159.238
-153.987
-148.839
-143.79
-138.836
-133.982
-129.221
-124.555
-119.981
-115.498
-111.103
-106.787
-102.553
-98.3995
415.369
432.236
440.964
433.201
393.838
297.85
108.969
-192.202
-562.802
-925.671
-1195.89
-1319.03
-1330.53
-1291.81
-1236.31
-1176.11
-1118.09
-1060.48
-1007.5
-959.036
-914.609
-873.933
-836.616
-802.275
-770.561
-741.156
-713.83
-688.313
-664.422
-641.992
-620.835
-600.867
-581.921
-563.927
-546.788
-530.42
-514.769
-499.756
-485.346
-471.477
-458.113
-445.223
-432.764
-420.713
-409.042
-397.725
-386.745
-376.081
-365.719
-355.641
-345.835
-336.29
-326.992
-317.931
-309.098
-300.485
-292.083
-283.886
-275.887
-268.076
-260.452
-253.001
-245.728
-238.611
-231.674
-224.875
-218.238
-211.735
-205.394
-199.183
-193.104
-187.153
-181.329
-175.634
-170.049
-164.58
-159.218
-153.968
-148.82
-143.772
-138.819
-133.965
-129.205
-124.538
-119.966
-115.482
-111.087
-106.772
-102.538
-98.385
415.264
431.934
440.413
432.457
393.208
298.528
113.668
-176.941
-535.452
-888.326
-1156.14
-1285.25
-1305.03
-1272.94
-1222.23
-1165.25
-1109.59
-1053.84
-1002.16
-954.678
-911.009
-870.929
-834.094
-800.147
-768.761
-739.631
-712.531
-687.202
-663.462
-641.156
-620.104
-600.221
-581.349
-563.417
-546.331
-530.01
-514.398
-499.42
-485.041
-471.199
-457.859
-444.991
-432.551
-420.517
-408.861
-397.558
-386.591
-375.939
-365.586
-355.518
-345.721
-336.184
-326.893
-317.839
-309.012
-300.404
-292.008
-283.815
-275.821
-268.014
-260.394
-252.946
-245.677
-238.562
-231.628
-224.831
-218.197
-211.696
-205.357
-199.148
-193.072
-187.122
-181.3
-175.606
-170.023
-164.555
-159.194
-153.945
-148.798
-143.751
-138.798
-133.945
-129.185
-124.519
-119.947
-115.464
-111.069
-106.755
-102.521
-98.3679
415.101
431.537
439.725
431.536
392.396
299.115
118.793
-161.088
-506.685
-848.836
-1113.68
-1248.65
-1276.99
-1252.04
-1206.42
-1153.17
-1100.04
-1046.35
-996.12
-949.744
-906.924
-867.504
-831.195
-797.677
-766.646
-737.813
-710.964
-685.849
-662.291
-640.136
-619.211
-599.434
-580.651
-562.796
-545.776
-529.51
-513.948
-499.013
-484.671
-470.863
-457.552
-444.71
-432.294
-420.281
-408.643
-397.357
-386.406
-375.767
-365.427
-355.371
-345.584
-336.056
-326.774
-317.728
-308.909
-300.308
-291.918
-283.731
-275.742
-267.94
-260.324
-252.88
-245.615
-238.504
-231.573
-224.78
-218.148
-211.65
-205.314
-199.107
-193.033
-187.085
-181.265
-175.573
-169.991
-164.526
-159.166
-153.918
-148.772
-143.726
-138.774
-133.921
-129.162
-124.497
-119.925
-115.442
-111.048
-106.734
-102.501
-98.3486
414.863
431.022
438.868
430.402
391.363
299.574
124.302
-144.801
-476.652
-807.365
-1068.63
-1209.18
-1246.3
-1228.96
-1188.85
-1139.66
-1089.35
-1037.92
-989.312
-944.17
-902.3
-863.62
-827.897
-794.852
-764.208
-735.699
-709.122
-684.239
-660.881
-638.899
-618.124
-598.474
-579.802
-562.039
-545.099
-528.903
-513.4
-498.518
-484.222
-470.454
-457.179
-444.369
-431.981
-419.994
-408.379
-397.114
-386.181
-375.56
-365.235
-355.193
-345.419
-335.903
-326.632
-317.595
-308.785
-300.192
-291.809
-283.63
-275.647
-267.851
-260.241
-252.802
-245.541
-238.435
-231.508
-224.718
-218.09
-211.595
-205.262
-199.058
-192.987
-187.041
-181.223
-175.534
-169.954
-164.49
-159.132
-153.886
-148.741
-143.696
-138.745
-133.893
-129.135
-124.47
-119.899
-115.417
-111.024
-106.711
-102.478
-98.326
414.525
430.36
437.805
429.01
390.062
299.86
130.021
-128.153
-445.537
-764.141
-1021.21
-1166.81
-1212.83
-1203.53
-1169.33
-1124.55
-1077.36
-1028.43
-981.641
-937.877
-897.073
-859.223
-824.16
-791.643
-761.429
-733.277
-706.997
-682.368
-659.228
-637.433
-616.822
-597.315
-578.77
-561.119
-544.275
-528.163
-512.733
-497.915
-483.675
-469.957
-456.726
-443.955
-431.602
-419.646
-408.06
-396.82
-385.91
-375.309
-365.003
-354.978
-345.219
-335.717
-326.459
-317.435
-308.635
-300.053
-291.679