/*--------------------------------*- C++ -*----------------------------------*\
| =========                 |                                                 |
| \\      /  F ield         | OpenFOAM: The Open Source CFD Toolbox           |
|  \\    /   O peration     | Version:  2412                                  |
|   \\  /    A nd           | Website:  www.openfoam.com                      |
|    \\/     M anipulation  |                                                 |
\*---------------------------------------------------------------------------*/
FoamFile
{
    version     2.0;
    format      ascii;
    arch        "LSB;label=32;scalar=64";
    class       volVectorField;
    location    "400";
    object      U;
}
// * * * * * * * * * * * * * * * * * * * * * * * * * * * * * * * * * * * * * //

dimensions      [0 1 -1 0 0 0 0];

internalField   nonuniform List<vector> 
8659
(
(0.219041 -0.157701 3.74082e-25)
(0.171883 -0.137923 0)
(0.102941 -0.09409 1.55179e-24)
(0.00459975 -0.00479738 -1.44052e-18)
(-0.127881 0.171592 -2.71403e-24)
(-0.259367 0.475758 -2.0305e-18)
(-0.331857 1.02996 2.60396e-19)
(-0.130925 1.6504 1.6901e-19)
(0.350833 1.98971 -4.0316e-24)
(0.869812 1.90392 2.47248e-18)
(1.1536 1.47982 0)
(1.16669 1.02545 -1.77746e-23)
(1.05364 0.689667 -5.23105e-18)
(0.920096 0.471157 2.04067e-24)
(0.811859 0.335243 -8.48121e-18)
(0.733644 0.248941 3.83354e-18)
(0.674528 0.190237 0)
(0.630438 0.148653 1.47845e-25)
(0.596182 0.117689 1.34168e-24)
(0.567211 0.093484 -1.30087e-24)
(0.541871 0.0740394 0)
(0.519307 0.0580951 1.13166e-18)
(0.498862 0.0448308 -5.25453e-19)
(0.480141 0.0336387 4.06151e-26)
(0.462848 0.0241115 9.14652e-19)
(0.446838 0.0159369 2.08512e-25)
(0.431947 0.00886735 2.01138e-19)
(0.418021 0.00272128 -4.7324e-20)
(0.405015 -0.00266148 4.46301e-20)
(0.392797 -0.00738633 -1.68682e-19)
(0.38136 -0.0115457 -3.19333e-19)
(0.37063 -0.015244 3.0278e-19)
(0.360522 -0.0185224 4.4038e-27)
(0.351054 -0.0214538 1.32498e-25)
(0.342161 -0.0240773 -2.72446e-25)
(0.333853 -0.0264336 4.96482e-19)
(0.326106 -0.0285699 4.73942e-19)
(0.318918 -0.0305093 -4.52917e-19)
(0.312307 -0.032285 -8.66595e-19)
(0.306216 -0.0339251 -8.29868e-19)
(0.30064 -0.0354415 -7.95441e-19)
(0.295567 -0.0368644 -7.63138e-19)
(0.290995 -0.038204 0)
(0.286924 -0.0394847 -7.04169e-19)
(0.283342 -0.0407174 -6.46024e-25)
(0.280224 -0.0419141 3.15239e-25)
(0.277516 -0.0430787 0)
(0.275175 -0.0442153 1.20983e-18)
(0.273189 -0.0453328 1.16669e-18)
(0.271539 -0.0464375 0)
(0.270209 -0.0475312 1.08694e-18)
(0.269171 -0.0486203 0)
(0.268399 -0.0497048 0)
(0.267882 -0.0507852 9.81522e-19)
(0.26759 -0.0518659 9.49686e-19)
(0.267462 -0.052936 9.19322e-19)
(0.267467 -0.0539921 -2.09298e-25)
(0.267577 -0.055034 8.62691e-19)
(0.267775 -0.0560592 0)
(0.26805 -0.0570669 0)
(0.268393 -0.0580584 0)
(0.268785 -0.0590293 -7.63541e-19)
(0.269216 -0.0599806 1.79364e-25)
(0.269683 -0.0609128 7.19975e-19)
(0.270182 -0.0618266 1.69279e-25)
(0.270709 -0.0627191 0)
(0.27124 -0.06359 0)
(0.271752 -0.0644339 -6.42684e-19)
(0.272242 -0.0652466 -1.25036e-18)
(0.272697 -0.0660328 -1.47285e-25)
(0.273117 -0.0667869 0)
(0.273515 -0.0675152 0)
(0.273891 -0.0682208 2.67475e-26)
(0.27425 -0.0688995 0)
(0.274592 -0.0695578 5.32062e-19)
(0.274916 -0.0701936 5.18247e-19)
(0.27523 -0.0708102 -5.0483e-19)
(0.275542 -0.0714102 2.38499e-25)
(0.275853 -0.0719952 2.24586e-25)
(0.276175 -0.0725675 -4.66815e-19)
(0.276502 -0.0731286 9.09559e-19)
(0.27682 -0.0736738 2.07488e-25)
(0.277123 -0.0742021 -7.50462e-27)
(0.27741 -0.0747143 -2.04179e-25)
(0.277677 -0.0752105 4.09396e-19)
(0.277921 -0.0756887 -3.98647e-19)
(0.674265 -0.485348 4.09729e-18)
(0.528352 -0.423815 0)
(0.316445 -0.289011 1.16385e-24)
(0.0163456 -0.0167969 4.59588e-24)
(-0.384855 0.516654 2.24653e-18)
(-0.780075 1.43048 3.36568e-18)
(-0.995611 3.08389 -2.14852e-19)
(-0.393676 4.9457 -5.6056e-19)
(1.05857 5.99922 4.7347e-25)
(2.6516 5.79667 0)
(3.56894 4.57467 -1.84183e-23)
(3.66394 3.22027 -4.99556e-23)
(3.33942 2.1866 8.66708e-18)
(2.9267 1.4993 -7.81685e-18)
(2.58394 1.06739 5.09133e-24)
(2.33381 0.792178 6.36094e-18)
(2.14458 0.605013 0)
(2.00263 0.472332 -4.06719e-24)
(1.89191 0.373579 6.94032e-24)
(1.79845 0.296489 2.20233e-18)
(1.71684 0.234632 -1.8913e-24)
(1.6443 0.18401 8.50589e-26)
(1.57871 0.141903 8.72704e-19)
(1.51875 0.106448 8.13052e-19)
(1.46346 0.0762741 -1.51934e-18)
(1.41233 0.0504043 3.55827e-19)
(1.36482 0.0280445 -3.34159e-19)
(1.3204 0.00860785 7.86259e-20)
(1.27894 -0.00837236 -7.41544e-20)
(1.24 -0.0232893 2.80291e-19)
(1.20352 -0.0364282 2.65322e-19)
(1.16927 -0.0480729 -1.00632e-18)
(1.13699 -0.0584053 6.80252e-25)
(1.10671 -0.0676179 9.08806e-19)
(1.07824 -0.0758576 -8.65448e-19)
(1.05159 -0.083256 8.25192e-19)
(1.02669 -0.0899354 -7.87756e-19)
(1.00354 -0.0959911 7.52842e-19)
(0.98219 -0.10153 2.01454e-26)
(0.962464 -0.106618 6.67602e-25)
(0.944354 -0.111322 1.32233e-18)
(0.927822 -0.115712 -1.73112e-26)
(0.912867 -0.119845 -1.21821e-18)
(0.89948 -0.123777 1.1707e-18)
(0.887643 -0.127554 1.1259e-18)
(0.877281 -0.131213 1.45396e-26)
(0.868228 -0.13477 1.39754e-26)
(0.860348 -0.13824 9.59456e-25)
(0.85361 -0.141647 1.9399e-18)
(0.847959 -0.145011 0)
(0.843342 -0.148349 -1.80737e-18)
(0.839676 -0.15167 8.32769e-25)
(0.836883 -0.154979 -1.68771e-18)
(0.834925 -0.158287 0)
(0.833704 -0.161593 0)
(0.833041 -0.164874 -1.52879e-18)
(0.832825 -0.168119 -1.41233e-24)
(0.832973 -0.171322 6.94e-25)
(0.833436 -0.174481 -1.39069e-18)
(0.834167 -0.177591 -6.33932e-25)
(0.835138 -0.180655 6.33047e-25)
(0.836288 -0.183663 -5.83004e-25)
(0.837577 -0.186611 1.23289e-18)
(0.838994 -0.189503 1.19739e-18)
(0.840538 -0.192341 -5.466e-25)
(0.842175 -0.195121 1.61246e-26)
(0.843829 -0.19783 5.32113e-25)
(0.84544 -0.200457 0)
(0.846982 -0.202995 -4.78847e-27)
(0.848422 -0.205441 0)
(0.849758 -0.207797 0)
(0.851016 -0.21007 9.5839e-19)
(0.852215 -0.212267 4.51956e-25)
(0.85336 -0.21439 -9.08643e-19)
(0.854444 -0.216442 8.84936e-19)
(0.855478 -0.218428 0)
(0.856478 -0.220352 -3.93751e-25)
(0.857466 -0.222224 8.18002e-19)
(0.858458 -0.22405 0)
(0.859481 -0.225838 7.76429e-19)
(0.860519 -0.227588 -7.56412e-19)
(0.861535 -0.229291 -7.36892e-19)
(0.862501 -0.230943 -7.17821e-19)
(0.86341 -0.232542 3.27238e-25)
(0.864264 -0.234091 -6.80931e-19)
(0.865041 -0.235586 6.63049e-19)
(1.17019 -0.842141 -5.17788e-25)
(0.914789 -0.733481 2.49781e-18)
(0.546153 -0.498273 5.29408e-18)
(0.0278136 -0.0276516 0)
(-0.659892 0.887266 -2.53608e-18)
(-1.33203 2.44435 -1.89788e-18)
(-1.69194 5.23978 -2.4181e-19)
(-0.670281 8.40138 3.14884e-19)
(1.80891 10.2454 0)
(4.57275 9.98933 -1.92599e-23)
(6.24059 7.99819 -2.07537e-24)
(6.49991 5.71431 -2.10712e-17)
(5.97783 3.91565 1.79304e-23)
(5.25797 2.69455 -1.14949e-24)
(4.64499 1.91939 -2.36733e-24)
(4.1933 1.42376 -7.16239e-18)
(3.85125 1.08675 6.40697e-24)
(3.59353 0.847751 2.95742e-18)
(3.39198 0.669936 -2.7047e-18)
(3.22216 0.531319 -2.48454e-18)
(3.07418 0.420224 0)
(2.94285 0.329408 -2.12122e-18)
(2.82431 0.253937 0)
(2.71611 0.190429 0)
(2.61646 0.136422 8.57875e-19)
(2.52439 0.0901479 -4.01884e-19)
(2.43887 0.0501575 1.76735e-25)
(2.35895 0.0154204 -8.88262e-20)
(2.28431 -0.0149168 8.37842e-20)
(2.21421 -0.0415504 -3.16723e-19)
(2.14846 -0.0650008 0)
(2.08665 -0.0857614 5.68667e-19)
(2.02833 -0.104167 0)
(1.97351 -0.120554 -1.27608e-25)
(1.92188 -0.135188 -9.78373e-19)
(1.87341 -0.148303 -1.18993e-25)
(1.82802 -0.160112 8.37035e-25)
(1.78569 -0.170787 -8.51263e-19)
(1.74648 -0.180523 -7.65646e-25)
(1.71014 -0.189426 1.56004e-18)
(1.67664 -0.197632 7.23626e-25)
(1.64593 -0.205257 6.74637e-25)
(1.618 -0.212408 1.37787e-18)
(1.59285 -0.219181 -1.3242e-18)
(1.57047 -0.225669 -1.27359e-18)
(1.55073 -0.23193 0)
(1.53335 -0.238007 0)
(1.51811 -0.243922 0)
(1.50496 -0.249727 -2.19475e-18)
(1.49381 -0.255454 0)
(1.48455 -0.26114 0)
(1.47707 -0.2668 -1.97562e-18)
(1.47123 -0.272448 1.03171e-26)
(1.46694 -0.278105 1.84688e-18)
(1.46404 -0.283767 0)
(1.46223 -0.2894 1.73e-18)
(1.46129 -0.294985 0)
(1.46108 -0.300508 -1.62353e-18)
(1.46151 -0.305969 1.57382e-18)
(1.4625 -0.311361 -2.09855e-26)
(1.46397 -0.316682 -1.48075e-18)
(1.46582 -0.32192 1.43713e-18)
(1.46797 -0.327063 -1.39534e-18)
(1.47039 -0.332116 -1.35518e-18)
(1.47307 -0.337085 -1.31673e-18)
(1.47595 -0.341961 1.27967e-18)
(1.47889 -0.346716 1.2441e-18)
(1.48177 -0.351332 0)
(1.48454 -0.3558 6.07937e-25)
(1.48715 -0.360105 1.14508e-18)
(1.48957 -0.364256 0)
(1.49186 -0.368261 -3.38891e-26)
(1.49404 -0.372131 1.05614e-18)
(1.49613 -0.375876 1.02848e-18)
(1.49811 -0.379491 -1.00165e-18)
(1.5 -0.382992 -4.7294e-25)
(1.50182 -0.386386 0)
(1.50362 -0.389685 -9.25908e-19)
(1.50543 -0.392904 -9.02076e-19)
(1.50729 -0.396058 4.11825e-25)
(1.50918 -0.399144 -4.15522e-25)
(1.51102 -0.402148 8.34116e-19)
(1.51278 -0.40506 8.12528e-19)
(1.51443 -0.407881 3.70415e-25)
(1.51598 -0.410612 -3.74499e-25)
(1.5174 -0.41325 -1.31359e-26)
(1.70224 -1.22473 -2.61378e-18)
(1.32575 -1.06248 -5.64188e-18)
(0.786004 -0.716201 -1.89011e-23)
(0.0332636 -0.0309311 -3.04897e-18)
(-0.956732 1.28895 -1.14701e-23)
(-1.91492 3.51862 -2.13696e-18)
(-2.4133 7.48087 5.42744e-19)
(-0.953652 11.9755 -7.02907e-19)
(2.59266 14.673 1.65932e-23)
(6.61106 14.4382 5.03132e-18)
(9.15846 11.7383 1.16281e-17)
(9.69429 8.52481 1.15153e-17)
(9.01173 5.90504 -6.14497e-23)
(7.96451 4.08307 1.91923e-23)
(7.04419 2.91175 8.80485e-18)
(6.35749 2.1592 0)
(5.83637 1.64735 0)
(5.44195 1.28412 0)
(5.13273 1.01396 3.03499e-18)
(4.87275 0.803672 5.47342e-24)
(4.64666 0.635338 0)
(4.44636 0.497827 2.38542e-18)
(4.26588 0.383668 4.23424e-24)
(4.10138 0.287648 -3.94672e-24)
(3.95006 0.206043 2.78581e-24)
(3.8103 0.136141 -8.81377e-25)
(3.68052 0.0757669 -4.2532e-19)
(3.55926 0.0233302 1.00117e-19)
(3.44592 -0.0224458 -9.44585e-20)
(3.3394 -0.0626187 3.5716e-19)
(3.23932 -0.0979543 0)
(3.14509 -0.129219 0)
(3.05599 -0.156896 6.09401e-19)
(2.97204 -0.181512 -1.1594e-18)
(2.89272 -0.203447 -8.21827e-25)
(2.81802 -0.223044 -1.05324e-18)
(2.74779 -0.240641 -9.45121e-25)
(2.68202 -0.256489 9.61325e-19)
(2.6208 -0.270868 -8.64759e-25)
(2.56376 -0.283957 -3.52442e-18)
(2.51092 -0.295949 1.68948e-18)
(2.46217 -0.30703 0)
(2.41756 -0.317354 0)
(2.37709 -0.327079 0)
(2.34076 -0.336341 1.35378e-24)
(2.3084 -0.34524 -1.34033e-24)
(2.27965 -0.353838 1.3346e-18)
(2.25421 -0.362185 -2.57275e-18)
(2.23201 -0.37036 1.16692e-24)
(2.21291 -0.378423 -1.15814e-24)
(2.19681 -0.386422 1.08739e-24)
(2.18351 -0.394397 -9.70832e-25)
(2.17283 -0.402373 2.15961e-18)
(2.16465 -0.410374 -2.0887e-18)
(2.15872 -0.41841 2.02113e-18)
(2.1546 -0.426431 -3.91336e-18)
(2.15197 -0.434409 1.89516e-18)
(2.15062 -0.442329 3.67279e-18)
(2.15039 -0.450188 0)
(2.15115 -0.457974 0)
(2.15279 -0.465687 1.67502e-18)
(2.15512 -0.473304 0)
(2.15802 -0.480808 7.41752e-25)
(2.16142 -0.488201 -1.53304e-18)
(2.16531 -0.495492 2.97911e-18)
(2.16956 -0.502662 -1.44765e-18)
(2.17396 -0.509672 -1.40743e-18)
(2.17831 -0.516488 -6.62633e-25)
(2.18254 -0.523089 -1.25125e-24)
(2.18655 -0.529466 -1.29543e-18)
(2.19031 -0.535616 -1.26074e-18)
(2.19387 -0.541551 -1.22722e-18)
(2.19727 -0.547292 3.62201e-26)
(2.20053 -0.552844 1.12759e-24)
(2.20361 -0.558208 0)
(2.20657 -0.5634 1.10379e-18)
(2.20942 -0.568438 0)
(2.21222 -0.573331 0)
(2.21504 -0.578107 1.02055e-18)
(2.21793 -0.582787 -9.94282e-19)
(2.22085 -0.587368 -9.68653e-19)
(2.2237 -0.591825 -1.80004e-24)
(2.22642 -0.596146 8.92712e-25)
(2.22898 -0.600332 -8.95351e-19)
(2.23139 -0.604387 -8.47357e-25)
(2.2336 -0.608301 -8.11434e-25)
(2.26418 -1.62857 2.95024e-18)
(1.75429 -1.40512 3.1845e-18)
(1.02876 -0.935989 -3.37464e-18)
(0.0265249 -0.0196507 3.44058e-18)
(-1.27825 1.72618 -1.29259e-23)
(-2.52642 4.65012 9.30195e-23)
(-3.14913 9.77753 -6.06054e-19)
(-1.23779 15.5991 7.76931e-19)
(3.39246 19.1818 -1.80932e-23)
(8.71491 19.0302 -5.39006e-18)
(12.2492 15.7015 -1.22152e-17)
(13.1882 11.6005 1.19977e-17)
(12.4206 8.14177 -4.38696e-23)
(11.0569 5.67061 1.03767e-17)
(9.80707 4.05523 0)
(8.85711 3.00909 -8.73437e-18)
(8.13222 2.29602 0)
(7.5801 1.78911 3.65833e-18)
(7.1458 1.41199 0)
(6.78121 1.11872 -5.7604e-24)
(6.46465 0.884137 5.6074e-24)
(6.18458 0.692641 0)
(5.93258 0.533729 1.23598e-18)
(5.70316 0.400142 0)
(5.49229 0.286618 -1.07945e-18)
(5.29757 0.189394 5.06303e-19)
(5.11676 0.105439 3.64809e-25)
(4.94775 0.0325264 0)
(4.78964 -0.0311096 -1.0587e-19)
(4.64087 -0.0869381 -8.01097e-19)
(4.50083 -0.136031 7.12138e-25)
(4.36867 -0.179421 -6.98573e-25)
(4.24338 -0.217802 -1.36897e-18)
(4.12492 -0.251863 -1.30282e-18)
(4.01264 -0.282154 1.2415e-18)
(3.90644 -0.309144 1.11297e-24)
(3.80614 -0.33328 1.13145e-18)
(3.71172 -0.354916 0)
(3.6233 -0.374439 -2.07129e-18)
(3.54043 -0.392092 -1.35541e-24)
(3.46314 -0.40815 -1.90324e-18)
(3.39137 -0.422867 -1.82685e-18)
(3.32515 -0.436465 -1.65038e-24)
(3.26457 -0.449168 -1.6872e-18)
(3.20964 -0.461164 0)
(3.16019 -0.472609 -1.46992e-24)
(3.11578 -0.4836 -1.50573e-18)
(3.07606 -0.494218 2.90324e-18)
(3.04097 -0.50458 -2.80063e-18)
(3.01036 -0.51478 -2.70325e-18)
(2.9841 -0.524897 1.22773e-24)
(2.96196 -0.534996 5.04551e-18)
(2.94368 -0.545114 2.43901e-18)
(2.92914 -0.555302 -2.35922e-18)
(2.91799 -0.565571 1.9017e-24)
(2.90966 -0.575867 2.21054e-18)
(2.90371 -0.586157 -2.14121e-18)
(2.89984 -0.596426 -4.14991e-18)
(2.89783 -0.606666 2.0116e-18)
(2.89747 -0.616864 0)
(2.89858 -0.627017 -1.89289e-18)
(2.90091 -0.637094 0)
(2.90423 -0.647066 0)
(2.90844 -0.656934 -1.47885e-24)
(2.91349 -0.666703 -3.36684e-18)
(2.91918 -0.676343 0)
(2.9252 -0.6858 0)
(2.93125 -0.695016 -1.45297e-24)
(2.93721 -0.703964 1.50467e-18)
(2.94293 -0.712621 0)
(2.94833 -0.720982 1.4248e-18)
(2.95347 -0.729059 0)
(2.9584 -0.736875 0)
(2.96314 -0.744438 -1.31493e-18)
(2.96763 -0.751747 -1.28063e-18)
(2.97193 -0.758822 -9.97851e-26)
(2.97608 -0.765685 -1.13963e-24)
(2.98015 -0.772354 1.14812e-24)
(2.98423 -0.778863 0)
(2.98839 -0.785239 9.06706e-26)
(2.99259 -0.791479 1.09463e-18)
(2.99669 -0.797555 1.06637e-18)
(3.0006 -0.803445 1.03876e-18)
(3.00429 -0.809149 2.02353e-18)
(3.00777 -0.814677 -9.85362e-19)
(3.01097 -0.820014 -9.59479e-19)
(2.84793 -2.04773 -6.65478e-18)
(2.19182 -1.75436 3.59267e-18)
(1.26605 -1.14974 0)
(0.00120704 0.0134547 0)
(-1.62598 2.20166 3.62717e-18)
(-3.16125 5.83039 6.07218e-23)
(-3.88507 12.0872 -1.15897e-22)
(-1.51493 19.1804 -2.02585e-22)
(4.18495 23.6366 1.93765e-23)
(10.8053 23.592 2.95966e-23)
(15.3626 19.6954 -4.2343e-23)
(16.7862 14.7701 -1.50403e-21)
(16.0355 10.5157 0)
(14.4295 7.4035 -1.03054e-17)
(12.8781 5.32727 -3.58788e-23)
(11.6658 3.96472 9.08085e-18)
(10.729 3.03014 1.55999e-23)
(10.0078 2.36281 -7.79384e-18)
(9.43691 1.86523 -1.4172e-23)
(8.95725 1.47812 1.24348e-23)
(8.54071 1.16841 -1.21599e-23)
(8.17219 0.915525 2.89103e-18)
(7.84071 0.705653 -1.34947e-18)
(7.53902 0.529158 1.26287e-18)
(7.26173 0.379149 1.18457e-18)
(7.00559 0.250633 -3.08137e-24)
(6.7676 0.139609 5.24501e-19)
(6.54497 0.0431669 1.23759e-19)
(6.33638 -0.0410301 5.76103e-25)
(6.13979 -0.114899 -7.99689e-25)
(5.95431 -0.179847 4.20588e-19)
(5.77879 -0.237232 0)
(5.61189 -0.287953 1.5208e-18)
(5.45348 -0.332896 1.44887e-18)
(5.30271 -0.372784 1.38207e-18)
(5.15944 -0.408222 -1.31989e-18)
(5.02341 -0.439796 -2.52384e-18)
(4.89458 -0.467953 4.60908e-24)
(4.77311 -0.493201 2.31407e-18)
(4.65851 -0.515858 2.21897e-18)
(4.55086 -0.536286 -2.06098e-24)
(4.45009 -0.554828 2.04564e-18)
(4.35633 -0.571774 -1.96649e-18)
(4.26972 -0.587419 3.78364e-18)
(4.19035 -0.602036 1.76192e-24)
(4.11807 -0.615826 0)
(4.05244 -0.628946 0)
(3.99307 -0.641519 3.26283e-18)
(3.93995 -0.653719 6.29813e-18)
(3.89293 -0.665679 7.70094e-25)
(3.85191 -0.677525 -2.93813e-18)
(3.81663 -0.689351 -5.68043e-18)
(3.78681 -0.70123 -2.7469e-18)
(3.76227 -0.713235 2.65787e-18)
(3.74264 -0.725398 -5.02524e-25)
(3.72719 -0.737664 2.49165e-18)
(3.71538 -0.750001 2.414e-18)
(3.70679 -0.762392 2.33971e-18)
(3.70115 -0.774839 1.81123e-24)
(3.69812 -0.787321 -2.06865e-24)
(3.69747 -0.799835 4.41134e-25)
(3.69884 -0.812335 2.07247e-18)
(3.70189 -0.824788 2.01236e-18)
(3.70645 -0.837184 -1.55752e-24)
(3.7124 -0.849525 3.79832e-18)
(3.71945 -0.861762 1.84574e-18)
(3.72715 -0.87382 0)
(3.73508 -0.885615 1.74494e-18)
(3.74304 -0.897106 1.64375e-24)
(3.7508 -0.908252 1.65152e-18)
(3.75821 -0.919035 -3.06596e-24)
(3.76532 -0.929469 1.56445e-18)
(3.77218 -0.939575 -1.42966e-24)
(3.77878 -0.949361 1.48317e-18)
(3.78506 -0.95882 1.44444e-18)
(3.79108 -0.967981 -1.40691e-18)
(3.79689 -0.976864 0)
(3.80257 -0.985501 1.25187e-24)
(3.80824 -0.993926 1.30067e-18)
(3.81399 -1.00218 1.26715e-18)
(3.81977 -1.01026 -1.23444e-18)
(3.82542 -1.01812 -1.20254e-18)
(3.83081 -1.02575 -1.17138e-18)
(3.83592 -1.03314 -2.28181e-18)
(3.84073 -1.04029 1.92165e-25)
(3.84516 -1.0472 0)
(3.44342 -2.47486 3.74879e-18)
(2.62809 -2.1018 -4.04966e-18)
(1.48849 -1.34858 3.24863e-23)
(-0.048892 0.075524 -3.35884e-23)
(-1.9995 2.7155 -4.071e-18)
(-3.81079 7.04482 2.99255e-18)
(-4.60391 14.3566 3.70567e-19)
(-1.7763 22.6184 -4.59377e-19)
(4.94651 27.9009 0)
(12.8013 27.9465 -4.77374e-23)
(18.3263 23.4991 4.03945e-23)
(20.2101 17.7889 -1.05207e-17)
(19.5293 12.8127 7.12603e-23)
(17.7946 9.13458 9.24023e-18)
(16.0435 6.63982 3.54919e-23)
(14.6308 4.97448 0)
(13.5158 3.81865 0)
(12.6426 2.9859 3.87869e-18)
(11.9431 2.36136 -3.64163e-18)
(11.3521 1.87392 1.33942e-23)
(10.8369 1.48304 0)
(10.3797 1.16326 -3.00407e-18)
(9.96773 0.897436 -2.42735e-25)
(9.59208 0.673576 -1.32837e-18)
(9.24628 0.483046 0)
(8.9263 0.319596 -5.91159e-19)
(8.62848 0.178221 0)
(8.34937 0.0552688 -2.64782e-19)
(8.08726 -0.0521807 2.61895e-25)
(7.83965 -0.146544 4.77251e-19)
(7.60533 -0.229561 9.27704e-25)
(7.38285 -0.302938 -1.67789e-24)
(7.17055 -0.367784 -8.24985e-19)
(6.96816 -0.425229 -1.5756e-18)
(6.77463 -0.47614 -1.50629e-18)
(6.58974 -0.521275 1.44158e-18)
(6.41315 -0.561359 1.38108e-18)
(6.24481 -0.596943 -1.32438e-18)
(6.08492 -0.628651 -2.54239e-18)
(5.93296 -0.656894 0)
(5.78906 -0.682117 0)
(5.65323 -0.704752 0)
(5.52567 -0.725176 4.3511e-18)
(5.40663 -0.743764 -4.19246e-18)
(5.29631 -0.760868 0)
(5.19465 -0.776762 3.66776e-24)
(5.10127 -0.791672 -3.64134e-24)
(5.01581 -0.805782 -3.63565e-18)
(4.93835 -0.81933 -3.51315e-18)
(4.86881 -0.83251 3.39638e-18)
(4.80713 -0.845508 1.38749e-24)
(4.75309 -0.858462 6.35706e-18)
(4.70643 -0.871499 -3.07676e-18)
(4.66696 -0.884723 2.80188e-24)
(4.63429 -0.898199 -5.77211e-18)
(4.60757 -0.91189 -1.11865e-17)
(4.58617 -0.925771 -2.71087e-18)
(4.56958 -0.939838 2.62859e-18)
(4.55743 -0.954098 -2.54962e-18)
(4.5493 -0.968533 2.47375e-18)
(4.54486 -0.983139 2.40089e-18)
(4.54361 -0.997866 1.50126e-24)
(4.5451 -1.01266 -2.26351e-18)
(4.54906 -1.02751 2.19865e-18)
(4.55525 -1.04241 3.58611e-24)
(4.56328 -1.05728 -5.61531e-25)
(4.57251 -1.07202 -2.0186e-18)
(4.58237 -1.08652 -8.01053e-24)
(4.59253 -1.10071 7.28437e-24)
(4.60263 -1.11453 -3.71515e-18)
(4.61245 -1.12794 3.50201e-24)
(4.62197 -1.14094 -1.7594e-18)
(4.63121 -1.15355 -1.71279e-18)
(4.64016 -1.16577 -3.13026e-24)
(4.64869 -1.1776 1.62411e-18)
(4.65688 -1.18905 -1.5818e-18)
(4.66477 -1.20016 -1.54071e-18)
(4.67248 -1.21096 0)
(4.68014 -1.22149 -2.92415e-18)
(4.68787 -1.23181 -2.76413e-24)
(4.69561 -1.24191 2.7749e-18)
(4.70316 -1.25173 5.15606e-24)
(4.71038 -1.26127 -2.55685e-24)
(4.71723 -1.27051 1.28209e-18)
(4.72369 -1.27946 1.24851e-18)
(4.72967 -1.2881 1.21562e-18)
(4.03856 -2.9011 -4.21816e-18)
(3.0513 -2.43773 -4.55968e-18)
(1.68603 -1.523 0)
(-0.129282 0.173014 4.91079e-18)
(-2.39573 3.26443 2.98233e-23)
(-4.46323 8.27261 -3.00631e-23)
(-5.28414 16.5275 -4.06269e-19)
(-2.01307 25.8193 -4.92896e-19)
(5.6592 31.8702 4.29997e-23)
(14.6493 31.9762 -3.56195e-23)
(21.0328 26.9752 1.08568e-17)
(23.2781 20.4975 0)
(22.6292 14.8541 8.06802e-18)
(20.8145 10.6907 -7.6175e-18)
(18.9669 7.85379 7.48136e-18)
(17.4563 5.93797 2.91965e-23)
(16.2432 4.59117 -7.23042e-18)
(15.2747 3.60898 -3.49204e-18)
(14.4866 2.86534 3.34739e-18)
(13.8135 2.2811 0)
(13.2216 1.8101 3.03809e-18)
(12.6928 1.42309 -2.88718e-18)
(12.2136 1.10015 1.37144e-18)
(11.7746 0.827286 5.08434e-24)
(11.3688 0.594323 1.23907e-18)
(10.9919 0.393907 -4.59078e-24)
(10.6399 0.220081 -5.61412e-19)
(10.3088 0.0685283 2.67593e-19)
(9.99677 -0.0642421 2.5535e-19)
(9.70095 -0.181091 -4.8785e-19)
(9.41992 -0.284108 -4.66484e-19)
(9.15197 -0.375324 1.62061e-24)
(8.89518 -0.456047 -3.31874e-24)
(8.64913 -0.527624 5.58402e-25)
(8.4126 -0.591088 -1.57612e-18)
(8.18528 -0.647327 0)
(7.96675 -0.697194 0)
(7.75696 -0.741341 2.22987e-24)
(7.5561 -0.780503 3.96874e-24)
(7.36366 -0.815166 2.60643e-18)
(7.17986 -0.845863 -2.51514e-18)
(7.00477 -0.87312 -2.42873e-18)
(6.83869 -0.89738 -2.56728e-24)
(6.68203 -0.919111 -1.92801e-24)
(6.53514 -0.938738 4.24643e-24)
(6.39812 -0.956624 2.12405e-18)
(6.27071 -0.973074 2.05655e-18)
(6.15269 -0.98834 0)
(6.04428 -1.00274 0)
(5.94554 -1.01655 3.74137e-18)
(5.85657 -1.03003 2.38943e-24)
(5.77723 -1.04338 4.34616e-24)
(5.70736 -1.0568 3.4114e-18)
(5.64683 -1.07044 -3.30927e-18)
(5.59528 -1.08442 6.4214e-18)
(5.55184 -1.09874 -2.65392e-24)
(5.51581 -1.11341 0)
(5.48665 -1.12844 -5.8697e-18)
(5.4639 -1.14385 -2.84914e-18)
(5.44706 -1.15965 -5.53266e-18)
(5.43569 -1.17584 -2.68638e-18)
(5.4292 -1.19236 -2.60913e-18)
(5.42697 -1.20914 -2.53463e-18)
(5.42861 -1.22618 -9.39574e-24)
(5.43376 -1.24345 3.57717e-24)
(5.44184 -1.26084 -4.65219e-18)
(5.45205 -1.27824 2.26142e-18)
(5.46357 -1.29547 -2.19888e-18)
(5.47592 -1.31245 2.13872e-18)
(5.48856 -1.32907 4.16111e-18)
(5.50112 -1.34527 0)
(5.51347 -1.36102 0)
(5.5256 -1.37634 1.91766e-18)
(5.5374 -1.3912 -3.6186e-24)
(5.54873 -1.4056 -3.6357e-18)
(5.55962 -1.41956 3.54052e-18)
(5.57011 -1.4331 1.72405e-18)
(5.58034 -1.44626 3.14913e-24)
(5.59045 -1.45909 -2.38261e-24)
(5.60059 -1.47165 0)
(5.61071 -1.48394 -1.55177e-18)
(5.62058 -1.49591 -2.93473e-24)
(5.63002 -1.50752 2.7566e-24)
(5.63898 -1.51877 1.43342e-18)
(5.64746 -1.52968 0)
(5.65533 -1.54021 -7.2243e-25)
(4.61933 -3.31616 4.73918e-18)
(3.44831 -2.75135 5.12657e-18)
(1.84843 -1.66321 4.09847e-23)
(-0.244088 0.31096 -7.88025e-23)
(-2.8085 3.84104 -3.32103e-23)
(-5.1033 9.48824 1.59222e-23)
(-5.90557 18.5393 8.84569e-19)
(-2.21992 28.7067 2.11207e-18)
(6.31305 35.4852 0)
(16.3301 35.6394 -9.68128e-23)
(23.4644 30.1017 -1.02018e-17)
(25.9772 22.8851 -5.43148e-25)
(25.2921 16.612 -6.72083e-18)
(23.3661 12.0088 0)
(21.4385 8.8824 -5.92184e-18)
(19.8826 6.76682 -4.63243e-23)
(18.6364 5.27011 5.81005e-18)
(17.6351 4.1685 5.7076e-18)
(16.8123 3.32675 -2.06845e-23)
(16.1027 2.66027 2.11835e-23)
(15.4732 2.11928 -2.60845e-18)
(14.9059 1.672 2.51404e-18)
(14.388 1.2967 -2.41945e-18)
(13.9104 0.977946 0)
(13.4664 0.704512 -2.23651e-18)
(13.0517 0.468191 0)
(12.6623 0.262346 1.03359e-18)
(12.2944 0.0821157 -1.24273e-19)
(11.946 -0.0764103 -2.39193e-19)
(11.6142 -0.216479 2.42037e-24)
(11.2975 -0.340429 3.33207e-24)
(10.994 -0.450577 -3.3216e-24)
(10.7018 -0.548406 8.26273e-19)
(10.4202 -0.63541 1.59622e-18)
(10.148 -0.712779 1.54309e-18)
(9.88468 -0.781493 5.78478e-24)
(9.62986 -0.842518 0)
(9.38338 -0.896571 1.40118e-18)
(9.14545 -0.944475 5.43621e-18)
(8.91553 -0.98677 -1.08557e-23)
(8.69393 -1.02405 2.56264e-18)
(8.48075 -1.05692 2.49071e-18)
(8.2764 -1.08587 -2.42216e-18)
(8.08142 -1.11144 2.35667e-18)
(7.89634 -1.13412 -2.29391e-18)
(7.72144 -1.15434 -2.23353e-18)
(7.55667 -1.17249 -2.17532e-18)
(7.40202 -1.1889 2.26728e-25)
(7.25792 -1.20397 7.98659e-24)
(7.12469 -1.21806 -4.0217e-18)
(7.00264 -1.2315 3.91753e-18)
(6.89188 -1.2446 1.07158e-23)
(6.79243 -1.25763 -1.99441e-25)
(6.70437 -1.27084 3.61772e-18)
(6.62746 -1.28441 -3.52154e-18)
(6.56096 -1.2984 5.74053e-24)
(6.50422 -1.31288 0)
(6.45671 -1.32791 3.24379e-18)
(6.418 -1.34357 -9.61685e-24)
(6.38755 -1.35986 3.06811e-18)
(6.36488 -1.37683 2.9833e-18)
(6.34928 -1.39442 -5.4527e-24)
(6.34003 -1.41257 2.81995e-18)
(6.3366 -1.43128 1.04597e-23)
(6.33848 -1.45049 -5.33067e-18)
(6.3449 -1.47008 2.59124e-18)
(6.35484 -1.48991 2.51951e-18)
(6.36724 -1.50976 4.60262e-24)
(6.38136 -1.52948 -4.76534e-18)
(6.39644 -1.54893 -2.31755e-18)
(6.41188 -1.568 0)
(6.4274 -1.58664 2.19365e-18)
(6.44284 -1.60482 -1.29425e-25)
(6.45803 -1.62252 -4.02727e-24)
(6.4727 -1.63968 4.0453e-18)
(6.48686 -1.65633 -3.93844e-18)
(6.50052 -1.67249 0)
(6.5138 -1.6882 0)
(6.52688 -1.70351 1.81822e-18)
(6.53991 -1.71849 -1.77064e-18)
(6.55285 -1.73314 -1.72424e-18)
(6.56546 -1.7474 0)
(6.57753 -1.76125 0)
(6.58902 -1.77466 -1.29248e-24)
(6.59989 -1.78767 0)
(6.61004 -1.80023 -1.50838e-18)
(5.17005 -3.70854 5.31556e-18)
(3.80517 -3.03112 5.75344e-18)
(1.96603 -1.75992 9.22579e-23)
(-0.395257 0.492071 -1.93365e-22)
(-3.22826 4.43343 -7.35435e-23)
(-5.71423 10.6621 9.09965e-23)
(-6.45565 20.3384 -4.78978e-19)
(-2.39029 31.2237 -5.6955e-19)
(6.90439 38.7232 9.71954e-23)
(17.8462 38.9412 -7.43488e-23)
(25.6558 32.9239 0)
(28.3846 25.0205 0)
(27.619 18.1534 -5.76879e-18)
(25.5364 13.1339 -3.72521e-23)
(23.4927 9.74008 2.46403e-24)
(21.8772 7.45003 7.05181e-23)
(20.6047 5.82981 -3.57833e-23)
(19.5906 4.63298 -1.02333e-22)
(18.7593 3.71373 0)
(18.0417 2.98198 2.13646e-18)
(17.4031 2.38477 0)
(16.8254 1.8883 7.54741e-24)
(16.2957 1.46949 9.824e-19)
(15.8053 1.11192 9.53192e-19)
(15.3473 0.803584 9.24532e-19)
(14.9178 0.535739 6.8478e-24)
(14.5129 0.301232 -4.34857e-19)
(14.1288 0.0948681 1.05473e-19)
(13.7636 -0.0875752 1.02376e-19)
(13.4145 -0.249613 7.95364e-19)
(13.0798 -0.393744 -3.86429e-19)
(12.7579 -0.522499 2.82168e-24)
(12.4466 -0.637464 -7.31403e-19)
(12.1452 -0.740271 -1.08765e-23)
(11.8524 -0.832179 5.38378e-24)
(11.5677 -0.91425 1.35562e-18)
(11.2904 -0.987516 -1.01076e-23)
(11.0205 -1.05272 5.01472e-24)
(10.758 -1.11074 -2.53467e-18)
(10.5023 -1.16213 -8.64179e-24)
(10.2536 -1.20752 -9.15668e-24)
(10.0121 -1.24754 1.82317e-23)
(9.7782 -1.28268 -9.07781e-24)
(9.55239 -1.31352 0)
(9.33531 -1.34058 4.5296e-18)
(9.12738 -1.36433 8.3766e-24)
(8.92871 -1.38519 -8.47081e-24)
(8.7395 -1.40355 8.09781e-24)
(8.56044 -1.41987 -2.26259e-25)
(8.39209 -1.43457 -8.04407e-24)
(8.23512 -1.4481 0)
(8.08996 -1.46082 -8.01742e-18)
(7.95698 -1.47313 0)
(7.83659 -1.48534 0)
(7.7289 -1.49777 7.09915e-24)
(7.63345 -1.51056 3.69364e-18)
(7.54987 -1.52387 -6.79166e-24)
(7.47782 -1.53786 6.82723e-24)
(7.41704 -1.55265 6.88905e-18)
(7.36709 -1.56835 0)
(7.32755 -1.58503 -3.27624e-18)
(7.29773 -1.60269 1.20027e-23)
(7.27688 -1.62129 -1.20363e-23)
(7.26435 -1.64083 -3.02674e-18)
(7.25954 -1.66126 2.94571e-18)
(7.2615 -1.68246 1.10977e-23)
(7.26897 -1.70424 -2.83323e-24)
(7.28061 -1.72635 0)
(7.29542 -1.74858 2.65196e-24)
(7.31232 -1.77074 9.63373e-24)
(7.33041 -1.79265 -9.66501e-24)
(7.34915 -1.8142 -2.42627e-18)
(7.36819 -1.83534 -8.86199e-24)
(7.38717 -1.85598 8.90227e-24)
(7.4057 -1.87605 -2.23466e-18)
(7.42368 -1.89556 2.17478e-18)
(7.44108 -1.91451 8.21016e-24)
(7.45797 -1.93292 0)
(7.47452 -1.95086 0)
(7.49092 -1.9684 1.95261e-18)
(7.50713 -1.98555 1.90077e-18)
(7.5229 -2.00225 -1.85032e-18)
(7.53802 -2.01845 0)
(7.55241 -2.03416 -2.11469e-24)
(7.56607 -2.04938 0)
(7.57885 -2.0641 0)
(5.67392 -4.06587 2.09734e-22)
(4.10793 -3.26546 -6.4414e-18)
(2.03081 -1.80531 1.02836e-22)
(-0.581617 0.715725 -6.83788e-18)
(-3.64229 5.02544 -8.08711e-23)
(-6.27896 11.7613 4.32006e-18)
(-6.91396 21.8867 -1.03788e-18)
(-2.52032 33.3293 -6.10084e-19)
(7.43468 41.5813 -1.05913e-22)
(19.2013 41.8925 -6.31502e-18)
(27.6529 35.5013 9.75233e-18)
(30.5912 26.9842 6.78788e-18)
(29.7313 19.5585 5.1705e-18)
(27.4632 14.1374 6.88473e-23)
(25.2658 10.4836 0)
(23.5567 8.0275 -3.76044e-18)
(22.2346 6.29475 2.69348e-23)
(21.1946 5.01506 -1.10286e-22)
(20.3497 4.03068 -5.27351e-23)
(19.6248 3.24533 -1.67933e-18)
(18.9819 2.60251 1.28019e-23)
(18.4013 2.06636 1.18599e-23)
(17.8694 1.61244 7.73149e-19)
(17.377 1.2234 -7.52116e-19)
(16.9172 0.886596 5.47508e-24)
(16.4857 0.592774 -5.54897e-24)
(16.0787 0.334395 0)
(15.6923 0.105972 -8.45938e-20)
(15.3246 -0.0969513 8.25374e-20)
(14.9727 -0.278088 -6.44843e-19)
(14.6351 -0.44008 6.30337e-19)
(14.3099 -0.585609 2.39311e-24)
(13.9949 -0.716337 0)
(13.6895 -0.83399 1.18549e-18)
(13.3921 -0.939901 -1.16433e-18)
(13.1022 -1.03516 -1.14509e-18)
(12.819 -1.12086 8.73701e-24)
(12.5423 -1.19775 1.11224e-18)
(12.2719 -1.26672 8.26159e-24)
(12.0072 -1.32834 -2.17298e-18)
(11.7482 -1.38322 8.32992e-24)
(11.4947 -1.43197 8.02513e-24)
(11.2471 -1.47508 -2.11769e-18)
(11.0056 -1.51307 2.10392e-18)
(10.7709 -1.54647 -7.45457e-24)
(10.5432 -1.5757 7.82916e-24)
(10.3227 -1.60119 -8.01306e-24)
(10.1094 -1.62331 7.75362e-24)
(9.90432 -1.64253 7.49519e-24)
(9.70804 -1.6593 -1.578e-23)
(9.52149 -1.67408 -1.52482e-23)
(9.34545 -1.68733 8.04831e-18)
(9.18066 -1.69949 0)
(9.02797 -1.71098 -1.48688e-23)
(8.88796 -1.72222 1.51264e-23)
(8.76069 -1.73348 2.17391e-23)
(8.64629 -1.74505 -1.47275e-23)
(8.54485 -1.75718 0)
(8.45652 -1.77016 -7.36291e-18)
(8.38123 -1.78417 -3.61241e-18)
(8.31884 -1.7994 3.53965e-18)
(8.2689 -1.81592 1.30228e-23)
(8.23078 -1.83378 -3.78636e-25)
(8.20393 -1.85303 6.60974e-18)
(8.18771 -1.87365 -3.22346e-18)
(8.18107 -1.89553 0)
(8.18264 -1.91847 -3.05914e-18)
(8.1908 -1.94218 0)
(8.20425 -1.96643 2.89688e-18)
(8.22155 -1.99094 -2.8176e-18)
(8.24143 -2.01547 0)
(8.26298 -2.03982 0)
(8.28554 -2.06387 -2.59074e-18)
(8.3085 -2.08749 9.76637e-24)
(8.33123 -2.11055 9.19598e-24)
(8.35349 -2.13301 2.38319e-18)
(8.37512 -2.15486 -8.99175e-24)
(8.39613 -2.1761 0)
(8.41666 -2.19679 0)
(8.43688 -2.21701 0)
(8.45677 -2.23675 -2.07729e-18)
(8.47608 -2.25597 1.09547e-23)
(8.4946 -2.27463 -7.63904e-24)
(8.51225 -2.29271 -1.91319e-18)
(8.52903 -2.31024 -6.96648e-24)
(8.54478 -2.3272 1.3813e-23)
(6.1139 -4.37552 2.80998e-22)
(4.34393 -3.44378 -7.18899e-18)
(2.03786 -1.79434 -7.59076e-18)
(-0.798 0.976967 1.16171e-22)
(-4.03556 5.59772 0)
(-6.7784 12.7532 -9.30052e-18)
(-7.27497 23.1577 5.52311e-19)
(-2.60729 35.0007 -6.51181e-19)
(7.90338 44.0524 0)
(20.3833 44.4675 6.97926e-18)
(29.4908 37.8789 -2.01917e-17)
(32.6698 28.8411 -6.36073e-21)
(31.7259 20.8915 -7.5516e-23)
(29.26 15.078 0)
(26.8825 11.1649 3.48066e-18)
(25.0495 8.54311 3.22929e-18)
(23.6515 6.7006 4.8344e-23)
(22.5651 5.34273 -1.46949e-18)
(21.6915 4.299 2.10436e-23)