/*--------------------------------*- C++ -*----------------------------------*\
| =========                 |                                                 |
| \\      /  F ield         | OpenFOAM: The Open Source CFD Toolbox           |
|  \\    /   O peration     | Version:  2412                                  |
|   \\  /    A nd           | Website:  www.openfoam.com                      |
|    \\/     M anipulation  |                                                 |
\*---------------------------------------------------------------------------*/
FoamFile
{
    version     2.0;
    format      ascii;
    arch        "LSB;label=32;scalar=64";
    class       volScalarField;
    location    "80";
    object      nuTilda;
}
// * * * * * * * * * * * * * * * * * * * * * * * * * * * * * * * * * * * * * //

dimensions      [0 2 -1 0 0 0 0];

internalField   nonuniform List<scalar> 
8637
(
2.57645e-06
2.57608e-06
2.57562e-06
2.57445e-06
2.57415e-06
2.57387e-06
2.57358e-06
2.57332e-06
2.57301e-06
2.57271e-06
2.57247e-06
2.57227e-06
2.57205e-06
2.57174e-06
2.5715e-06
2.57128e-06
2.57105e-06
2.57079e-06
2.57056e-06
2.57032e-06
2.57011e-06
2.56988e-06
2.56963e-06
2.56936e-06
2.56914e-06
2.56889e-06
2.56868e-06
2.56841e-06
2.56816e-06
2.56787e-06
2.56761e-06
2.5673e-06
2.56707e-06
2.56676e-06
2.56646e-06
2.56614e-06
2.5658e-06
2.56544e-06
2.56507e-06
2.56467e-06
2.5643e-06
2.56384e-06
2.56338e-06
2.56288e-06
2.56241e-06
2.56186e-06
2.56129e-06
2.56069e-06
2.56006e-06
2.55932e-06
2.55861e-06
2.55781e-06
2.55701e-06
2.55611e-06
2.55513e-06
2.5541e-06
2.55301e-06
2.55182e-06
2.55057e-06
2.5492e-06
2.54777e-06
2.54619e-06
2.5445e-06
2.54267e-06
2.54074e-06
2.53864e-06
2.53636e-06
2.53387e-06
2.53125e-06
2.52832e-06
2.52517e-06
2.52175e-06
2.51796e-06
2.51386e-06
2.50932e-06
2.50431e-06
2.49883e-06
2.49267e-06
2.48577e-06
2.47802e-06
2.46919e-06
2.4591e-06
2.4474e-06
2.43368e-06
2.4175e-06
2.39835e-06
2.37425e-06
2.34248e-06
7.60582e-06
7.60472e-06
7.60322e-06
7.59916e-06
7.5982e-06
7.59732e-06
7.59644e-06
7.59561e-06
7.59469e-06
7.59383e-06
7.59304e-06
7.59231e-06
7.59155e-06
7.5907e-06
7.5899e-06
7.58914e-06
7.58837e-06
7.58759e-06
7.58686e-06
7.58604e-06
7.58533e-06
7.58453e-06
7.58377e-06
7.58291e-06
7.58212e-06
7.58129e-06
7.58054e-06
7.57965e-06
7.57882e-06
7.5779e-06
7.57702e-06
7.57605e-06
7.57518e-06
7.5741e-06
7.57314e-06
7.57204e-06
7.57098e-06
7.5698e-06
7.56852e-06
7.56723e-06
7.56597e-06
7.56448e-06
7.56302e-06
7.56142e-06
7.55984e-06
7.55805e-06
7.55621e-06
7.55424e-06
7.5522e-06
7.54991e-06
7.54758e-06
7.54505e-06
7.54246e-06
7.53956e-06
7.53654e-06
7.53328e-06
7.52983e-06
7.52615e-06
7.52225e-06
7.51798e-06
7.51352e-06
7.50864e-06
7.50347e-06
7.49788e-06
7.49194e-06
7.48552e-06
7.4786e-06
7.47109e-06
7.4631e-06
7.4543e-06
7.44487e-06
7.43456e-06
7.42327e-06
7.41102e-06
7.39753e-06
7.38267e-06
7.36628e-06
7.34798e-06
7.32756e-06
7.30457e-06
7.27844e-06
7.2486e-06
7.21407e-06
7.17365e-06
7.12608e-06
7.06962e-06
6.998e-06
6.90376e-06
1.23058e-05
1.2304e-05
1.23012e-05
1.22936e-05
1.2292e-05
1.22905e-05
1.2289e-05
1.22875e-05
1.2286e-05
1.22846e-05
1.22832e-05
1.22818e-05
1.22804e-05
1.2279e-05
1.22777e-05
1.22763e-05
1.22749e-05
1.22735e-05
1.22722e-05
1.22708e-05
1.22695e-05
1.2268e-05
1.22667e-05
1.22652e-05
1.22637e-05
1.22622e-05
1.22608e-05
1.22592e-05
1.22577e-05
1.2256e-05
1.22544e-05
1.22527e-05
1.2251e-05
1.22491e-05
1.22473e-05
1.22453e-05
1.22433e-05
1.22412e-05
1.2239e-05
1.22367e-05
1.22343e-05
1.22317e-05
1.22291e-05
1.22262e-05
1.22234e-05
1.22202e-05
1.2217e-05
1.22135e-05
1.22099e-05
1.22059e-05
1.22018e-05
1.21975e-05
1.21929e-05
1.21879e-05
1.21827e-05
1.21771e-05
1.21712e-05
1.21649e-05
1.21582e-05
1.21511e-05
1.21435e-05
1.21354e-05
1.21267e-05
1.21174e-05
1.21076e-05
1.20969e-05
1.20855e-05
1.20732e-05
1.20601e-05
1.20458e-05
1.20304e-05
1.20137e-05
1.19954e-05
1.19756e-05
1.19538e-05
1.19299e-05
1.19036e-05
1.18742e-05
1.18415e-05
1.18047e-05
1.1763e-05
1.17154e-05
1.16603e-05
1.15959e-05
1.15204e-05
1.14302e-05
1.13147e-05
1.11628e-05
1.64571e-05
1.64546e-05
1.64505e-05
1.6439e-05
1.64368e-05
1.64347e-05
1.64326e-05
1.64305e-05
1.64284e-05
1.64264e-05
1.64244e-05
1.64224e-05
1.64204e-05
1.64184e-05
1.64164e-05
1.64145e-05
1.64125e-05
1.64105e-05
1.64085e-05
1.64065e-05
1.64045e-05
1.64024e-05
1.64004e-05
1.63982e-05
1.63961e-05
1.63939e-05
1.63917e-05
1.63894e-05
1.63872e-05
1.63848e-05
1.63824e-05
1.63798e-05
1.63773e-05
1.63746e-05
1.63719e-05
1.6369e-05
1.6366e-05
1.63629e-05
1.63597e-05
1.63563e-05
1.63529e-05
1.63491e-05
1.63453e-05
1.63412e-05
1.63371e-05
1.63326e-05
1.63279e-05
1.63229e-05
1.63178e-05
1.63122e-05
1.63064e-05
1.63003e-05
1.62938e-05
1.62869e-05
1.62795e-05
1.62718e-05
1.62636e-05
1.62548e-05
1.62456e-05
1.62358e-05
1.62255e-05
1.62144e-05
1.62027e-05
1.61901e-05
1.61768e-05
1.61625e-05
1.61472e-05
1.61308e-05
1.61133e-05
1.60943e-05
1.60739e-05
1.60519e-05
1.60278e-05
1.60017e-05
1.59732e-05
1.59419e-05
1.59075e-05
1.58692e-05
1.58266e-05
1.57786e-05
1.57243e-05
1.56624e-05
1.55908e-05
1.55071e-05
1.54088e-05
1.52904e-05
1.51368e-05
1.49348e-05
1.9956e-05
1.99527e-05
1.99472e-05
1.9932e-05
1.99293e-05
1.99266e-05
1.99239e-05
1.99213e-05
1.99187e-05
1.99161e-05
1.99135e-05
1.9911e-05
1.99084e-05
1.99058e-05
1.99032e-05
1.99007e-05
1.98981e-05
1.98955e-05
1.98929e-05
1.98903e-05
1.98877e-05
1.98849e-05
1.98823e-05
1.98795e-05
1.98767e-05
1.98738e-05
1.9871e-05
1.9868e-05
1.9865e-05
1.98618e-05
1.98586e-05
1.98553e-05
1.9852e-05
1.98485e-05
1.98449e-05
1.98411e-05
1.98372e-05
1.98332e-05
1.9829e-05
1.98246e-05
1.98201e-05
1.98154e-05
1.98105e-05
1.98052e-05
1.97999e-05
1.97941e-05
1.97882e-05
1.97819e-05
1.97753e-05
1.97683e-05
1.9761e-05
1.97533e-05
1.97452e-05
1.97366e-05
1.97275e-05
1.97178e-05
1.97077e-05
1.96969e-05
1.96856e-05
1.96736e-05
1.9661e-05
1.96476e-05
1.96333e-05
1.96183e-05
1.96023e-05
1.95852e-05
1.9567e-05
1.95475e-05
1.95267e-05
1.95042e-05
1.94802e-05
1.94542e-05
1.9426e-05
1.93956e-05
1.93623e-05
1.93258e-05
1.92857e-05
1.92412e-05
1.91916e-05
1.91359e-05
1.90729e-05
1.9001e-05
1.89176e-05
1.882e-05
1.8705e-05
1.85643e-05
1.83787e-05
1.8134e-05
2.27499e-05
2.27459e-05
2.2739e-05
2.27205e-05
2.27174e-05
2.27142e-05
2.2711e-05
2.27079e-05
2.27048e-05
2.27017e-05
2.26986e-05
2.26956e-05
2.26925e-05
2.26894e-05
2.26863e-05
2.26832e-05
2.268e-05
2.2677e-05
2.26738e-05
2.26707e-05
2.26674e-05
2.26641e-05
2.26608e-05
2.26575e-05
2.2654e-05
2.26505e-05
2.2647e-05
2.26434e-05
2.26397e-05
2.26359e-05
2.2632e-05
2.2628e-05
2.26239e-05
2.26197e-05
2.26153e-05
2.26108e-05
2.26061e-05
2.26013e-05
2.25962e-05
2.2591e-05
2.25856e-05
2.258e-05
2.25741e-05
2.2568e-05
2.25616e-05
2.25549e-05
2.25479e-05
2.25405e-05
2.25329e-05
2.25248e-05
2.25163e-05
2.25074e-05
2.2498e-05
2.24881e-05
2.24776e-05
2.24666e-05
2.2455e-05
2.24429e-05
2.243e-05
2.24166e-05
2.24024e-05
2.23875e-05
2.23716e-05
2.2355e-05
2.23373e-05
2.23186e-05
2.22986e-05
2.22774e-05
2.22548e-05
2.22304e-05
2.22044e-05
2.21764e-05
2.21461e-05
2.21135e-05
2.20778e-05
2.20388e-05
2.1996e-05
2.19485e-05
2.18956e-05
2.18362e-05
2.17689e-05
2.16918e-05
2.16021e-05
2.14963e-05
2.13706e-05
2.12129e-05
2.10004e-05
2.07191e-05
2.48248e-05
2.48203e-05
2.4812e-05
2.47914e-05
2.47879e-05
2.47844e-05
2.47809e-05
2.47773e-05
2.47738e-05
2.47703e-05
2.47668e-05
2.47633e-05
2.47598e-05
2.47562e-05
2.47527e-05
2.47492e-05
2.47456e-05
2.47421e-05
2.47384e-05
2.47348e-05
2.47309e-05
2.47272e-05
2.47233e-05
2.47196e-05
2.47155e-05
2.47116e-05
2.47075e-05
2.47034e-05
2.46991e-05
2.46947e-05
2.46902e-05
2.46857e-05
2.4681e-05
2.46762e-05
2.46712e-05
2.46661e-05
2.46607e-05
2.46554e-05
2.46497e-05
2.46439e-05
2.46378e-05
2.46316e-05
2.4625e-05
2.46183e-05
2.46112e-05
2.46038e-05
2.45961e-05
2.45881e-05
2.45797e-05
2.4571e-05
2.45618e-05
2.45522e-05
2.45421e-05
2.45315e-05
2.45203e-05
2.45087e-05
2.44963e-05
2.44835e-05
2.44701e-05
2.4456e-05
2.44413e-05
2.44259e-05
2.44096e-05
2.43926e-05
2.43745e-05
2.43555e-05
2.43353e-05
2.43141e-05
2.42913e-05
2.4267e-05
2.42411e-05
2.42134e-05
2.41834e-05
2.41512e-05
2.4116e-05
2.40777e-05
2.40356e-05
2.39889e-05
2.39369e-05
2.38782e-05
2.38116e-05
2.37348e-05
2.36443e-05
2.35361e-05
2.34045e-05
2.32332e-05
2.29969e-05
2.26826e-05
2.62033e-05
2.61983e-05
2.61888e-05
2.61685e-05
2.61649e-05
2.61611e-05
2.61573e-05
2.61534e-05
2.61496e-05
2.61458e-05
2.6142e-05
2.61382e-05
2.61343e-05
2.61304e-05
2.61266e-05
2.61227e-05
2.61187e-05
2.61149e-05
2.61107e-05
2.61068e-05
2.61025e-05
2.60984e-05
2.60941e-05
2.609e-05
2.60855e-05
2.60813e-05
2.60767e-05
2.60723e-05
2.60675e-05
2.60628e-05
2.60578e-05
2.6053e-05
2.60478e-05
2.60428e-05
2.60373e-05
2.60319e-05
2.60261e-05
2.60204e-05
2.60144e-05
2.60083e-05
2.60018e-05
2.59954e-05
2.59885e-05
2.59816e-05
2.59742e-05
2.59667e-05
2.59587e-05
2.59507e-05
2.59421e-05
2.59333e-05
2.5924e-05
2.59145e-05
2.59043e-05
2.58939e-05
2.58827e-05
2.58713e-05
2.58592e-05
2.58468e-05
2.58337e-05
2.58203e-05
2.58061e-05
2.57916e-05
2.57762e-05
2.57604e-05
2.57435e-05
2.57261e-05
2.57075e-05
2.56882e-05
2.56675e-05
2.56457e-05
2.56223e-05
2.55975e-05
2.55708e-05
2.55422e-05
2.5511e-05
2.5477e-05
2.54397e-05
2.53981e-05
2.53517e-05
2.5299e-05
2.52385e-05
2.51675e-05
2.50816e-05
2.49754e-05
2.48405e-05
2.46557e-05
2.4395e-05
2.40473e-05
2.69413e-05
2.69359e-05
2.69256e-05
2.69096e-05
2.69059e-05
2.69019e-05
2.6898e-05
2.68939e-05
2.68899e-05
2.68859e-05
2.68819e-05
2.68779e-05
2.68738e-05
2.68696e-05
2.68655e-05
2.68614e-05
2.68572e-05
2.68532e-05
2.68487e-05
2.68446e-05
2.68399e-05
2.68357e-05
2.6831e-05
2.68267e-05
2.68219e-05
2.68175e-05
2.68126e-05
2.68081e-05
2.6803e-05
2.67982e-05
2.6793e-05
2.67881e-05
2.67827e-05
2.67776e-05
2.67719e-05
2.67665e-05
2.67607e-05
2.67551e-05
2.6749e-05
2.67431e-05
2.67366e-05
2.67304e-05
2.67237e-05
2.67171e-05
2.67099e-05
2.67029e-05
2.66953e-05
2.66878e-05
2.66798e-05
2.66717e-05
2.66631e-05
2.66545e-05
2.66453e-05
2.66359e-05
2.66259e-05
2.66158e-05
2.66051e-05
2.65944e-05
2.65831e-05
2.65718e-05
2.65598e-05
2.65478e-05
2.65351e-05
2.65224e-05
2.65088e-05
2.6495e-05
2.64804e-05
2.64656e-05
2.64495e-05
2.6433e-05
2.64152e-05
2.63966e-05
2.63767e-05
2.63555e-05
2.63323e-05
2.6307e-05
2.62791e-05
2.62478e-05
2.62124e-05
2.61713e-05
2.61227e-05
2.60629e-05
2.59856e-05
2.58831e-05
2.57429e-05
2.55396e-05
2.52489e-05
2.48636e-05
2.71203e-05
2.71146e-05
2.71043e-05
2.71006e-05
2.70969e-05
2.70929e-05
2.70888e-05
2.70847e-05
2.70806e-05
2.70765e-05
2.70724e-05
2.70682e-05
2.70639e-05
2.70596e-05
2.70554e-05
2.70511e-05
2.70468e-05
2.70427e-05
2.7038e-05
2.70338e-05
2.70289e-05
2.70246e-05
2.70199e-05
2.70156e-05
2.70106e-05
2.70063e-05
2.70013e-05
2.69967e-05
2.69916e-05
2.69869e-05
2.69818e-05
2.69771e-05
2.69718e-05
2.69669e-05
2.69614e-05
2.69564e-05
2.69509e-05
2.69458e-05
2.69401e-05
2.69348e-05
2.6929e-05
2.69236e-05
2.69175e-05
2.69119e-05
2.69057e-05
2.68998e-05
2.68935e-05
2.68874e-05
2.68807e-05
2.68744e-05
2.68675e-05
2.68609e-05
2.68538e-05
2.68468e-05
2.68393e-05
2.6832e-05
2.68243e-05
2.68169e-05
2.68091e-05
2.68017e-05
2.6794e-05
2.67867e-05
2.67789e-05
2.67717e-05
2.6764e-05
2.67567e-05
2.6749e-05
2.67417e-05
2.67336e-05
2.67259e-05
2.67175e-05
2.67091e-05
2.67004e-05
2.66911e-05
2.66808e-05
2.66694e-05
2.66565e-05
2.66413e-05
2.6623e-05
2.65999e-05
2.65689e-05
2.65244e-05
2.64569e-05
2.63543e-05
2.61997e-05
2.59654e-05
2.56339e-05
2.52048e-05
2.68476e-05
2.68438e-05
2.68397e-05
2.68357e-05
2.68315e-05
2.68274e-05
2.68232e-05
2.68191e-05
2.68148e-05
2.68104e-05
2.68062e-05
2.68019e-05
2.67975e-05
2.67932e-05
2.6789e-05
2.67842e-05
2.678e-05
2.67751e-05
2.6771e-05
2.67662e-05
2.6762e-05
2.67572e-05
2.6753e-05
2.67481e-05
2.67439e-05
2.67389e-05
2.67347e-05
2.67299e-05
2.67256e-05
2.67208e-05
2.67166e-05
2.67117e-05
2.67074e-05
2.67028e-05
2.66987e-05
2.6694e-05
2.66899e-05
2.66853e-05
2.66813e-05
2.66768e-05
2.6673e-05
2.66686e-05
2.66648e-05
2.66606e-05
2.6657e-05
2.6653e-05
2.66495e-05
2.66458e-05
2.66426e-05
2.66391e-05
2.66362e-05
2.6633e-05
2.66304e-05
2.66277e-05
2.66258e-05
2.66239e-05
2.6623e-05
2.66221e-05
2.66223e-05
2.66226e-05
2.66241e-05
2.66255e-05
2.66283e-05
2.66313e-05
2.66356e-05
2.66398e-05
2.66453e-05
2.66509e-05
2.66578e-05
2.66654e-05
2.66736e-05
2.66821e-05
2.66909e-05
2.66995e-05
2.67074e-05
2.67133e-05
2.67144e-05
2.67058e-05
2.66779e-05
2.66154e-05
2.64998e-05
2.6311e-05
2.60248e-05
2.56382e-05
2.51649e-05
2.62667e-05
2.62628e-05
2.62588e-05
2.62546e-05
2.62504e-05
2.62463e-05
2.62421e-05
2.62379e-05
2.62336e-05
2.62292e-05
2.62249e-05
2.62206e-05
2.62163e-05
2.6212e-05
2.62078e-05
2.6203e-05
2.61989e-05
2.61941e-05
2.61901e-05
2.61855e-05
2.61816e-05
2.6177e-05
2.61732e-05
2.61687e-05
2.61649e-05
2.61605e-05
2.61569e-05
2.61528e-05
2.61494e-05
2.61454e-05
2.61423e-05
2.61385e-05
2.61356e-05
2.61323e-05
2.61298e-05
2.61268e-05
2.61247e-05
2.61221e-05
2.61205e-05
2.61184e-05
2.61173e-05
2.61159e-05
2.61154e-05
2.61147e-05
2.6115e-05
2.61151e-05
2.61162e-05
2.61174e-05
2.61196e-05
2.61219e-05
2.61252e-05
2.61288e-05
2.61336e-05
2.61387e-05
2.61453e-05
2.61526e-05
2.61615e-05
2.61711e-05
2.61826e-05
2.6195e-05
2.62094e-05
2.62246e-05
2.62421e-05
2.62608e-05
2.62818e-05
2.63036e-05
2.63279e-05
2.63535e-05
2.63817e-05
2.64122e-05
2.64446e-05
2.64791e-05
2.65156e-05
2.65538e-05
2.65925e-05
2.66299e-05
2.66609e-05
2.66765e-05
2.66601e-05
2.65874e-05
2.64316e-05
2.61757e-05
2.58097e-05
2.53585e-05
2.48636e-05
2.54742e-05
2.54701e-05
2.54659e-05
2.54617e-05
2.54574e-05
2.54532e-05
2.54489e-05
2.54446e-05
2.54402e-05
2.54357e-05
2.54313e-05
2.5427e-05
2.54227e-05
2.54185e-05
2.54143e-05
2.54095e-05
2.54055e-05
2.54009e-05
2.53973e-05
2.5393e-05
2.53895e-05
2.53853e-05
2.53821e-05
2.53782e-05
2.53751e-05
2.53715e-05
2.5369e-05
2.5366e-05
2.53638e-05
2.53612e-05
2.53596e-05
2.53575e-05
2.53566e-05
2.53555e-05
2.53553e-05
2.53549e-05
2.53555e-05
2.53561e-05
2.53579e-05
2.53596e-05
2.53626e-05
2.53656e-05
2.537e-05
2.53747e-05
2.53808e-05
2.53872e-05
2.53953e-05
2.54039e-05
2.54143e-05
2.54253e-05
2.54382e-05
2.54521e-05
2.54679e-05
2.54849e-05
2.55043e-05
2.55252e-05
2.55487e-05
2.55737e-05
2.56017e-05
2.56315e-05
2.56645e-05
2.56993e-05
2.57377e-05
2.57784e-05
2.58226e-05
2.58687e-05
2.59187e-05
2.59714e-05
2.60286e-05
2.60897e-05
2.61546e-05
2.62236e-05
2.62967e-05
2.63732e-05
2.64512e-05
2.65265e-05
2.65899e-05
2.66249e-05
2.66038e-05
2.64885e-05
2.62467e-05
2.58777e-05
2.54056e-05
2.49051e-05
2.44682e-05
2.45768e-05
2.45723e-05
2.45678e-05
2.45633e-05
2.45588e-05
2.45544e-05
2.45499e-05
2.45453e-05
2.45407e-05
2.4536e-05
2.45316e-05
2.45272e-05
2.45228e-05
2.45185e-05
2.45143e-05
2.45096e-05
2.45058e-05
2.45015e-05
2.44982e-05
2.44944e-05
2.44913e-05
2.44879e-05
2.44854e-05
2.44824e-05
2.44803e-05
2.4478e-05
2.44768e-05
2.44754e-05
2.4475e-05
2.44743e-05
2.44749e-05
2.44753e-05
2.44772e-05
2.44792e-05
2.44824e-05
2.44857e-05
2.44904e-05
2.44955e-05
2.45023e-05
2.45095e-05
2.45185e-05
2.45281e-05
2.45399e-05
2.45526e-05
2.45674e-05
2.45833e-05
2.46019e-05
2.46219e-05
2.46445e-05
2.46687e-05
2.46959e-05
2.4725e-05
2.47573e-05
2.47918e-05
2.48298e-05
2.48705e-05
2.49149e-05
2.4962e-05
2.50134e-05
2.50678e-05
2.51265e-05
2.51884e-05
2.52553e-05
2.53257e-05
2.54008e-05
2.54792e-05
2.55629e-05
2.56512e-05
2.5746e-05
2.58468e-05
2.59535e-05
2.60666e-05
2.6186e-05
2.631e-05
2.64345e-05
2.65508e-05
2.6642e-05
2.66796e-05
2.66187e-05
2.64052e-05
2.60108e-05
2.54778e-05
2.4896e-05
2.44264e-05
2.42508e-05
2.36647e-05
2.36595e-05
2.36545e-05
2.36495e-05
2.36445e-05
2.36397e-05
2.36347e-05
2.36298e-05
2.36247e-05
2.36198e-05
2.36151e-05
2.36105e-05
2.3606e-05
2.36016e-05
2.35973e-05
2.35928e-05
2.35891e-05
2.35852e-05
2.35823e-05
2.35791e-05
2.35767e-05
2.35742e-05
2.35727e-05
2.35708e-05
2.35702e-05
2.35696e-05
2.35704e-05
2.35711e-05
2.35732e-05
2.35753e-05
2.3579e-05
2.3583e-05
2.35888e-05
2.35951e-05
2.36031e-05
2.36118e-05
2.36225e-05
2.36342e-05
2.36484e-05
2.36637e-05
2.36818e-05
2.37014e-05
2.37242e-05
2.3749e-05
2.37771e-05
2.38075e-05
2.38418e-05
2.38788e-05
2.39198e-05
2.39638e-05
2.4012e-05
2.40636e-05
2.41196e-05
2.41792e-05
2.42438e-05
2.43123e-05
2.43858e-05
2.44635e-05
2.45466e-05
2.46341e-05
2.47272e-05
2.48249e-05
2.49288e-05
2.50376e-05
2.51521e-05
2.52714e-05
2.53978e-05
2.55309e-05
2.56727e-05
2.58228e-05
2.59813e-05
2.61489e-05
2.6324e-05
2.6503e-05
2.66768e-05
2.68291e-05
2.69305e-05
2.69339e-05
2.6772e-05
2.63775e-05
2.57495e-05
2.5018e-05
2.43867e-05
2.41738e-05
2.47957e-05
2.28077e-05
2.28016e-05
2.27958e-05
2.279e-05
2.27843e-05
2.27787e-05
2.27731e-05
2.27675e-05
2.27618e-05
2.27565e-05
2.27514e-05
2.27464e-05
2.27417e-05
2.27371e-05
2.27327e-05
2.27283e-05
2.27249e-05
2.27215e-05
2.27192e-05
2.27167e-05
2.27153e-05
2.2714e-05
2.27139e-05
2.27138e-05
2.27152e-05
2.2717e-05
2.27204e-05
2.27242e-05
2.27297e-05
2.27358e-05
2.27439e-05
2.2753e-05
2.27644e-05
2.27771e-05
2.2792e-05
2.28087e-05
2.28282e-05
2.28501e-05
2.28754e-05
2.29033e-05
2.29352e-05
2.29703e-05
2.301e-05
2.30534e-05
2.31017e-05
2.31542e-05
2.32121e-05
2.32745e-05
2.33424e-05
2.3415e-05
2.34933e-05
2.35767e-05
2.36659e-05
2.37603e-05
2.38609e-05
2.39668e-05
2.40789e-05
2.41965e-05
2.43206e-05
2.44504e-05
2.45869e-05
2.47293e-05
2.48788e-05
2.50342e-05
2.51965e-05
2.53654e-05
2.55432e-05
2.57301e-05
2.59284e-05
2.61378e-05
2.63581e-05
2.65893e-05
2.68272e-05
2.70631e-05
2.72801e-05
2.74488e-05
2.75215e-05
2.74265e-05
2.70711e-05
2.63898e-05
2.54549e-05
2.45427e-05
2.40744e-05
2.48156e-05
2.75056e-05
2.20554e-05
2.20481e-05
2.20411e-05
2.20343e-05
2.20276e-05
2.2021e-05
2.20144e-05
2.20079e-05
2.20016e-05
2.19956e-05
2.199e-05
2.19846e-05
2.19795e-05
2.19747e-05
2.19703e-05
2.19662e-05
2.19632e-05
2.19605e-05
2.1959e-05
2.19577e-05
2.19576e-05
2.19581e-05
2.19599e-05
2.19623e-05
2.19665e-05
2.19717e-05
2.19789e-05
2.19872e-05
2.19976e-05
2.20095e-05
2.2024e-05
2.20405e-05
2.20602e-05
2.20823e-05
2.2108e-05
2.21369e-05
2.21703e-05
2.2208e-05
2.22509e-05
2.22985e-05
2.23523e-05
2.24114e-05
2.24773e-05
2.25491e-05
2.26276e-05
2.27126e-05
2.28048e-05
2.29034e-05
2.30091e-05
2.31213e-05
2.32406e-05
2.33664e-05
2.34992e-05
2.36386e-05
2.3785e-05
2.3938e-05
2.40979e-05
2.42642e-05
2.44378e-05
2.4618e-05
2.48056e-05
2.5e-05
2.52022e-05
2.54113e-05
2.56284e-05
2.58544e-05
2.60917e-05
2.63413e-05
2.66052e-05
2.68829e-05
2.71738e-05
2.74745e-05
2.77759e-05
2.80604e-05
2.82981e-05
2.84415e-05
2.84186e-05
2.81278e-05
2.74573e-05
2.63803e-05
2.51149e-05
2.41742e-05
2.48401e-05
2.75211e-05
3.11122e-05
2.1443e-05
2.14341e-05
2.14257e-05
2.14175e-05
2.14095e-05
2.14016e-05
2.13939e-05
2.13863e-05
2.13791e-05
2.13724e-05
2.13661e-05
2.13602e-05
2.13548e-05
2.13499e-05
2.13455e-05
2.13419e-05
2.13396e-05
2.1338e-05
2.13376e-05
2.13379e-05
2.13398e-05
2.13427e-05
2.13473e-05
2.13533e-05
2.13615e-05
2.13715e-05
2.13841e-05
2.13988e-05
2.14164e-05
2.14368e-05
2.14609e-05
2.14887e-05
2.15212e-05
2.15582e-05
2.16011e-05
2.16499e-05
2.1706e-05
2.17691e-05
2.18402e-05
2.1919e-05
2.20066e-05
2.21022e-05
2.22069e-05
2.23197e-05
2.24414e-05
2.25714e-05
2.27101e-05
2.28567e-05
2.30117e-05
2.31742e-05
2.33448e-05
2.35228e-05
2.37084e-05
2.39012e-05
2.41014e-05
2.43086e-05
2.4523e-05
2.47441e-05
2.49727e-05
2.52085e-05
2.54521e-05
2.57031e-05
2.59623e-05
2.62297e-05
2.65074e-05
2.67972e-05
2.71018e-05
2.74225e-05
2.77608e-05
2.81151e-05
2.84816e-05
2.88512e-05
2.92051e-05
2.95124e-05
2.97253e-05
2.97731e-05
2.95543e-05
2.89379e-05
2.78173e-05
2.62784e-05
2.48235e-05
2.50874e-05
2.75392e-05
3.09897e-05
3.50223e-05
2.10053e-05
2.0994e-05
2.09834e-05
2.09731e-05
2.0963e-05
2.09532e-05
2.09437e-05
2.09345e-05
2.09259e-05
2.09179e-05
2.09106e-05
2.09038e-05
2.08977e-05
2.08925e-05
2.08881e-05
2.08849e-05
2.08832e-05
2.08827e-05
2.08837e-05
2.08861e-05
2.08906e-05
2.08968e-05
2.09054e-05
2.09164e-05
2.09305e-05
2.09475e-05
2.09681e-05
2.09922e-05
2.10207e-05
2.10539e-05
2.1093e-05
2.11387e-05
2.11922e-05
2.12542e-05
2.13259e-05
2.14077e-05
2.15004e-05
2.16039e-05
2.17185e-05
2.18438e-05
2.19802e-05
2.2127e-05
2.22843e-05
2.24514e-05
2.26284e-05
2.28147e-05
2.30102e-05
2.32142e-05
2.34268e-05
2.36472e-05
2.38756e-05
2.41114e-05
2.43547e-05
2.4605e-05
2.48625e-05
2.51267e-05
2.53978e-05
2.56755e-05
2.59606e-05
2.62533e-05
2.65543e-05
2.68636e-05
2.71823e-05
2.7512e-05
2.78561e-05
2.82172e-05
2.85981e-05
2.89995e-05
2.94209e-05
2.98572e-05
3.02978e-05
3.07229e-05
3.10999e-05
3.13798e-05
3.14929e-05
3.13416e-05
3.07929e-05
2.96995e-05
2.80229e-05
2.61384e-05
2.58004e-05
2.77965e-05
3.09272e-05
3.47646e-05
3.88488e-05
2.08892e-05
2.08678e-05
2.08475e-05
2.0828e-05
2.08094e-05
2.07916e-05
2.07746e-05
2.07584e-05
2.07433e-05
2.07291e-05
2.07159e-05
2.07037e-05
2.06927e-05
2.06829e-05
2.06745e-05
2.06677e-05
2.06629e-05
2.066e-05
2.06594e-05
2.06614e-05
2.06663e-05
2.06745e-05
2.06864e-05
2.07023e-05
2.07228e-05
2.07479e-05
2.07783e-05
2.08145e-05
2.0858e-05
2.09101e-05
2.09729e-05
2.10481e-05
2.11372e-05
2.12407e-05
2.13593e-05
2.14925e-05
2.16401e-05
2.18012e-05
2.19754e-05
2.21617e-05
2.23599e-05
2.25689e-05
2.27885e-05
2.30177e-05
2.32565e-05
2.35042e-05
2.37606e-05
2.40248e-05
2.42969e-05
2.45763e-05
2.4863e-05
2.51564e-05
2.54565e-05
2.57631e-05
2.60761e-05
2.63954e-05
2.67211e-05
2.70534e-05
2.73934e-05
2.7742e-05
2.81004e-05
2.84691e-05
2.88508e-05
2.92492e-05
2.96688e-05
3.01126e-05
3.05819e-05
3.10749e-05
3.15863e-05
3.21028e-05
3.26021e-05
3.30493e-05
3.33935e-05
3.35651e-05
3.34704e-05
3.29828e-05
3.19436e-05
3.0234e-05
2.80777e-05
2.71859e-05
2.8513e-05
3.11576e-05
3.464e-05
3.85009e-05
4.23118e-05
2.12399e-05
2.12099e-05
2.11814e-05
2.11542e-05
2.11281e-05
2.11033e-05
2.10797e-05
2.10573e-05
2.10361e-05
2.10161e-05
2.09974e-05
2.09799e-05
2.09637e-05
2.09488e-05
2.09353e-05
2.09234e-05
2.09131e-05
2.09045e-05
2.08978e-05
2.08931e-05
2.08908e-05
2.08911e-05
2.08944e-05
2.09012e-05
2.09122e-05
2.09281e-05
2.09508e-05
2.09836e-05
2.10323e-05
2.11021e-05
2.11966e-05
2.1316e-05
2.14589e-05
2.16231e-05
2.18065e-05
2.20067e-05
2.2222e-05
2.24507e-05
2.26916e-05
2.29436e-05
2.32061e-05
2.34781e-05
2.37592e-05
2.40489e-05
2.43469e-05
2.46527e-05
2.49659e-05
2.52863e-05
2.56134e-05
2.59471e-05
2.62872e-05
2.66333e-05
2.69854e-05
2.73433e-05
2.77071e-05
2.8077e-05
2.84534e-05
2.88372e-05
2.92303e-05
2.96347e-05
3.00524e-05
3.04856e-05
3.0939e-05
3.14186e-05
3.19291e-05
3.24719e-05
3.30442e-05
3.3638e-05
3.42378e-05
3.48169e-05
3.53365e-05
3.5743e-05
3.59657e-05
3.59142e-05
3.54706e-05
3.44812e-05
3.27887e-05
3.04926e-05
2.92063e-05
2.99129e-05
3.1879e-05
3.48714e-05
3.83628e-05
4.19409e-05
4.52422e-05
2.18532e-05
2.18157e-05
2.178e-05
2.17459e-05
2.17133e-05
2.16824e-05
2.16529e-05
2.1625e-05
2.15986e-05
2.15738e-05
2.15506e-05
2.15289e-05
2.15088e-05
2.14904e-05
2.14737e-05
2.14589e-05
2.14461e-05
2.14353e-05
2.14271e-05
2.14214e-05
2.14189e-05
2.14199e-05
2.1425e-05
2.14349e-05
2.14506e-05
2.14733e-05
2.15051e-05
2.15497e-05
2.16155e-05
2.1717e-05
2.18623e-05
2.20456e-05
2.22582e-05
2.24932e-05
2.27459e-05
2.3013e-05
2.32925e-05
2.35828e-05
2.38829e-05
2.41922e-05
2.45101e-05
2.48362e-05
2.51701e-05
2.55115e-05
2.58603e-05
2.62161e-05
2.65786e-05
2.69474e-05
2.73225e-05
2.77036e-05
2.80905e-05
2.84829e-05
2.8881e-05
2.92848e-05
2.96946e-05
3.01111e-05
3.05355e-05
3.09698e-05
3.14174e-05
3.1882e-05
3.2367e-05
3.28771e-05
3.34196e-05
3.40012e-05
3.46243e-05
3.52849e-05
3.59715e-05
3.66641e-05
3.73309e-05
3.79273e-05
3.83951e-05
3.8662e-05
3.86395e-05
3.82179e-05
3.72563e-05
3.55879e-05
3.32316e-05
3.16914e-05
3.19426e-05
3.3287e-05
3.56255e-05
3.86377e-05
4.18515e-05
4.4931e-05
4.75934e-05
2.26256e-05
2.25814e-05
2.25392e-05
2.2499e-05
2.24608e-05
2.24244e-05
2.239e-05
2.23575e-05
2.23269e-05
2.22981e-05
2.22712e-05
2.22463e-05
2.22234e-05
2.22026e-05
2.2184e-05
2.21678e-05
2.21544e-05
2.21443e-05
2.2138e-05
2.21361e-05
2.21393e-05
2.21483e-05
2.21646e-05
2.21895e-05
2.22253e-05
2.22754e-05
2.23447e-05
2.24421e-05
2.25821e-05
2.27738e-05
2.30064e-05
2.32672e-05
2.3548e-05
2.3844e-05
2.41525e-05
2.44716e-05
2.48003e-05
2.51379e-05
2.5484e-05
2.58382e-05
2.62002e-05
2.65698e-05
2.69468e-05
2.7331e-05
2.77221e-05
2.81199e-05
2.85242e-05
2.89346e-05
2.9351e-05
2.97731e-05
3.02009e-05
3.06343e-05
3.10736e-05
3.15191e-05
3.1972e-05
3.24337e-05
3.29069e-05
3.33955e-05
3.39054e-05
3.44422e-05
3.50118e-05
3.56213e-05
3.62792e-05
3.69896e-05
3.77476e-05
3.85381e-05
3.93347e-05
4.00986e-05
4.07776e-05
4.13069e-05
4.16113e-05
4.16033e-05
4.11801e-05
4.02148e-05
3.85496e-05
3.61627e-05
3.44612e-05
3.44028e-05
3.53072e-05
3.70414e-05
3.9449e-05
4.22134e-05
4.49583e-05
4.74321e-05
4.94355e-05
2.35145e-05
2.34637e-05
2.34155e-05
2.33696e-05
2.33261e-05
2.3285e-05
2.32463e-05
2.32099e-05
2.31759e-05
2.31442e-05
2.31151e-05
2.30885e-05
2.30646e-05
2.30438e-05
2.30261e-05
2.30122e-05
2.30027e-05
2.29987e-05
2.30013e-05
2.30115e-05
2.30309e-05
2.30615e-05
2.31063e-05
2.31689e-05
2.32559e-05
2.33741e-05
2.3537e-05
2.37545e-05
2.40111e-05
2.42931e-05
2.45938e-05
2.49093e-05
2.5237e-05
2.55753e-05
2.59232e-05
2.62801e-05
2.66456e-05
2.70194e-05
2.74014e-05
2.77913e-05
2.81891e-05
2.85945e-05
2.90073e-05
2.94273e-05
2.98542e-05
3.02879e-05
3.0728e-05
3.11744e-05
3.16268e-05
3.2085e-05
3.25493e-05
3.30198e-05
3.34972e-05
3.39829e-05
3.44791e-05
3.49889e-05
3.55174e-05
3.60716e-05
3.66601e-05
3.72912e-05
3.79727e-05
3.87128e-05
3.95167e-05
4.03798e-05
4.12833e-05
4.21939e-05
4.30638e-05
4.38313e-05
4.44229e-05
4.47576e-05
4.47487e-05
4.42997e-05
4.32967e-05
4.15962e-05
3.91718e-05
3.73662e-05
3.71009e-05
3.77168e-05
3.90135e-05
4.08645e-05
4.30967e-05
4.5445e-05
4.76372e-05
4.95004e-05
5.091e-05
2.45143e-05
2.44573e-05
2.44034e-05
2.43525e-05
2.43044e-05
2.42594e-05
2.42174e-05
2.41784e-05
2.41425e-05
2.41099e-05
2.40808e-05
2.40553e-05
2.40341e-05
2.40175e-05
2.40065e-05
2.40021e-05
2.4006e-05
2.40196e-05
2.4045e-05
2.4085e-05
2.41428e-05
2.42245e-05
2.4336e-05
2.4485e-05
2.46901e-05
2.49433e-05
2.52236e-05
2.55231e-05
2.58384e-05
2.61668e-05
2.65065e-05
2.68564e-05
2.72157e-05
2.75841e-05
2.79614e-05
2.83474e-05
2.87418e-05
2.91447e-05
2.9556e-05
2.99754e-05
3.04029e-05
3.08382e-05
3.12812e-05
3.17315e-05
3.2189e-05
3.26534e-05
3.31245e-05
3.3602e-05
3.4086e-05
3.45765e-05
3.5074e-05
3.55794e-05
3.60945e-05
3.6622e-05
3.71662e-05
3.77333e-05
3.83315e-05
3.89716e-05
3.9665e-05
4.04216e-05
4.12492e-05
4.21517e-05
4.31243e-05
4.41455e-05
4.5175e-05
4.61555e-05
4.70149e-05
4.76689e-05
4.80272e-05
4.80003e-05
4.74993e-05
4.64246e-05
4.46506e-05
4.21585e-05
4.02917e-05
3.98783e-05
4.03004e-05
4.13054e-05
4.27441e-05
4.44949e-05
4.64021e-05
4.82699e-05
4.99174e-05
5.12348e-05
5.21534e-05
2.56412e-05
2.55788e-05
2.55202e-05
2.54654e-05
2.54144e-05
2.53672e-05
2.53241e-05
2.52852e-05
2.52508e-05
2.52212e-05
2.5197e-05
2.51789e-05
2.51679e-05
2.51655e-05
2.51735e-05
2.51939e-05
2.52292e-05
2.52826e-05
2.53604e-05
2.54672e-05
2.56093e-05
2.58066e-05
2.60548e-05
2.63302e-05
2.66237e-05
2.69337e-05
2.7257e-05
2.75916e-05
2.79364e-05
2.82909e-05
2.86546e-05
2.90275e-05
2.94093e-05
2.98001e-05
3.01998e-05
3.06083e-05
3.10257e-05
3.14518e-05
3.18866e-05
3.233e-05
3.27816e-05
3.32414e-05
3.37092e-05
3.41845e-05
3.46673e-05
3.51574e-05
3.56545e-05
3.61588e-05
3.66704e-05
3.719e-05
3.7719e-05
3.82594e-05
3.8815e-05
3.93909e-05
3.99946e-05
4.06362e-05
4.13281e-05
4.20838e-05
4.2916e-05
4.38331e-05
4.4837e-05
4.59199e-05
4.70576e-05
4.82041e-05
4.92922e-05
5.02384e-05
5.09476e-05
5.13198e-05
5.12591e-05
5.06785e-05
4.94967e-05
4.76144e-05
4.50394e-05
4.31123e-05
4.26261e-05
4.29057e-05
4.36936e-05
4.48511e-05
4.62404e-05
4.7759e-05
4.92854e-05
5.0687e-05
5.18499e-05
5.27083e-05
5.32284e-05
2.69285e-05
2.68626e-05
2.68017e-05
2.67456e-05
2.66947e-05
2.66494e-05
2.661e-05
2.65772e-05
2.65513e-05
2.65331e-05
2.65246e-05
2.65275e-05
2.65433e-05
2.65739e-05
2.6624e-05
2.66988e-05
2.68011e-05
2.69395e-05
2.71327e-05
2.73723e-05
2.76362e-05
2.7917e-05
2.82142e-05
2.85248e-05
2.88465e-05
2.91784e-05
2.952e-05
2.9871e-05
3.02313e-05
3.06006e-05
3.09792e-05
3.1367e-05
3.1764e-05
3.21702e-05
3.25858e-05
3.30106e-05
3.34446e-05
3.38877e-05
3.43398e-05
3.48008e-05
3.52704e-05
3.57485e-05
3.62349e-05
3.67293e-05
3.72316e-05
3.77419e-05
3.82602e-05
3.87871e-05
3.93233e-05
3.98707e-05
4.0432e-05
4.10116e-05
4.16158e-05
4.22537e-05
4.29368e-05
4.36791e-05
4.4496e-05
4.54016e-05
4.64054e-05
4.75076e-05
4.86964e-05
4.99426e-05
5.11951e-05
5.23784e-05
5.33973e-05
5.41452e-05
5.45124e-05
5.43962e-05
5.37107e-05
5.23886e-05
5.03669e-05
4.76999e-05
4.57509e-05
4.5218e-05
4.53855e-05
4.60266e-05
4.69692e-05
4.81092e-05
4.9336e-05
5.05703e-05
5.17239e-05
5.2709e-05
5.34555e-05
5.39247e-05
5.41033e-05
2.84299e-05
2.83646e-05
2.83058e-05
2.8254e-05
2.82099e-05
2.81746e-05
2.81496e-05
2.81352e-05
2.81323e-05
2.81425e-05
2.81697e-05
2.82181e-05
2.82893e-05
2.83874e-05
2.85268e-05
2.87164e-05
2.894e-05
2.91827e-05
2.94417e-05
2.97166e-05
3.00045e-05
3.03033e-05
3.06122e-05
3.09311e-05
3.12597e-05
3.15976e-05
3.1945e-05
3.23018e-05
3.2668e-05
3.30439e-05
3.34293e-05
3.38244e-05
3.42292e-05
3.46436e-05
3.50677e-05
3.55016e-05
3.5945e-05
3.63979e-05
3.68601e-05
3.73317e-05
3.78122e-05
3.83017e-05
3.88e-05
3.9307e-05
3.9823e-05
4.03482e-05
4.08833e-05
4.14297e-05
4.19895e-05
4.2566e-05
4.31646e-05
4.37927e-05
4.44605e-05
4.5181e-05
4.59698e-05
4.68432e-05
4.78161e-05
4.88978e-05
5.00873e-05
5.13686e-05
5.27071e-05
5.40451e-05
5.53001e-05
5.63672e-05
5.71279e-05
5.74625e-05
5.72625e-05
5.64432e-05
5.49541e-05
5.27747e-05
5.00281e-05
4.80879e-05
4.75612e-05
4.76429e-05
4.81564e-05
4.89533e-05
4.9908e-05
5.09351e-05
5.19528e-05
5.2899e-05
5.37091e-05
5.43246e-05
5.47026e-05
5.48236e-05
5.46876e-05
3.0227e-05
3.01701e-05
3.01226e-05
3.00859e-05
3.00619e-05
3.00529e-05
3.00604e-05
3.0085e-05
3.01276e-05
3.01939e-05
3.02957e-05
3.04386e-05
3.06126e-05
3.08061e-05
3.10152e-05
3.12406e-05
3.1481e-05
3.17337e-05
3.19973e-05
3.22715e-05
3.25561e-05
3.28507e-05
3.31551e-05
3.34694e-05
3.37937e-05
3.41279e-05
3.4472e-05
3.48262e-05
3.51904e-05
3.55646e-05
3.59489e-05
3.63434e-05
3.67481e-05
3.71629e-05
3.75878e-05
3.80227e-05
3.84677e-05
3.89225e-05