/*--------------------------------*- C++ -*----------------------------------*\
| =========                 |                                                 |
| \\      /  F ield         | OpenFOAM: The Open Source CFD Toolbox           |
|  \\    /   O peration     | Version:  2412                                  |
|   \\  /    A nd           | Website:  www.openfoam.com                      |
|    \\/     M anipulation  |                                                 |
\*---------------------------------------------------------------------------*/
FoamFile
{
    version     2.0;
    format      ascii;
    arch        "LSB;label=32;scalar=64";
    class       volScalarField;
    location    "80";
    object      p;
}
// * * * * * * * * * * * * * * * * * * * * * * * * * * * * * * * * * * * * * //

dimensions      [0 2 -2 0 0 0 0];

internalField   nonuniform List<scalar> 
8637
(
-23.4046
-23.796
-24.1744
-24.5359
-24.8797
-25.2098
-25.5258
-25.828
-26.1173
-26.3944
-26.6582
-26.9084
-27.1463
-27.3732
-27.5876
-27.789
-27.9784
-28.156
-28.3209
-28.4723
-28.6102
-28.7343
-28.8442
-28.9392
-29.0179
-29.0788
-29.1207
-29.1442
-29.1462
-29.1239
-29.0768
-29.0031
-28.9006
-28.7666
-28.5977
-28.3898
-28.1417
-27.8515
-27.5115
-27.1191
-26.6722
-26.1638
-25.589
-24.9444
-24.2231
-23.4188
-22.5256
-21.5357
-20.4417
-19.2362
-17.9084
-16.4479
-14.8436
-13.0805
-11.1444
-9.0212
-6.69079
-4.13424
-1.33028
1.74184
5.0916
8.75889
12.7933
17.1576
21.8433
26.9188
32.3819
38.2303
44.4758
51.1471
58.254
65.8339
73.9166
82.5386
91.7652
101.622
112.2
123.558
135.786
148.994
163.275
178.779
195.654
214.065
234.203
256.279
280.486
306.903
-23.4046
-23.796
-24.1744
-24.5359
-24.8797
-25.2098
-25.5258
-25.828
-26.1173
-26.3944
-26.6582
-26.9084
-27.1463
-27.3732
-27.5876
-27.789
-27.9784
-28.156
-28.3209
-28.4723
-28.6102
-28.7343
-28.8442
-28.9392
-29.0179
-29.0788
-29.1207
-29.1442
-29.1462
-29.1239
-29.0768
-29.0031
-28.9006
-28.7666
-28.5977
-28.3897
-28.1417
-27.8515
-27.5115
-27.1191
-26.6722
-26.1638
-25.589
-24.9444
-24.2231
-23.4188
-22.5256
-21.5357
-20.4417
-19.2362
-17.9084
-16.4479
-14.8436
-13.0805
-11.1444
-9.02119
-6.69077
-4.13422
-1.33027
1.74185
5.09162
8.75891
12.7933
17.1576
21.8433
26.9188
32.3819
38.2303
44.4758
51.1472
58.254
65.8339
73.9167
82.5386
91.7653
101.622
112.2
123.558
135.786
148.994
163.275
178.779
195.654
214.065
234.203
256.279
280.486
306.903
-23.4046
-23.796
-24.1743
-24.5359
-24.8797
-25.2098
-25.5258
-25.828
-26.1173
-26.3944
-26.6582
-26.9083
-27.1463
-27.3732
-27.5876
-27.7889
-27.9784
-28.1559
-28.3208
-28.4723
-28.6102
-28.7342
-28.8442
-28.9391
-29.0179
-29.0788
-29.1207
-29.1441
-29.1461
-29.1239
-29.0768
-29.0031
-28.9005
-28.7665
-28.5976
-28.3897
-28.1417
-27.8514
-27.5115
-27.1191
-26.6722
-26.1637
-25.5889
-24.9444
-24.2231
-23.4187
-22.5255
-21.5356
-20.4416
-19.2361
-17.9083
-16.4478
-14.8435
-13.0804
-11.1443
-9.02109
-6.69068
-4.13413
-1.33016
1.74197
5.09174
8.75903
12.7934
17.1577
21.8434
26.919
32.3821
38.2304
44.476
51.1473
58.2542
65.8341
73.9169
82.5389
91.7655
101.622
112.201
123.558
135.787
148.994
163.276
178.78
195.654
214.066
234.204
256.28
280.487
306.904
-23.4045
-23.7959
-24.1743
-24.5358
-24.8796
-25.2097
-25.5257
-25.8279
-26.1172
-26.3943
-26.6581
-26.9083
-27.1462
-27.3731
-27.5875
-27.7889
-27.9783
-28.1559
-28.3208
-28.4722
-28.6101
-28.7341
-28.8441
-28.9391
-29.0178
-29.0787
-29.1206
-29.144
-29.146
-29.1238
-29.0767
-29.003
-28.9004
-28.7664
-28.5975
-28.3896
-28.1416
-27.8513
-27.5114
-27.1189
-26.672
-26.1636
-25.5887
-24.9442
-24.2229
-23.4186
-22.5253
-21.5354
-20.4414
-19.2359
-17.9081
-16.4476
-14.8433
-13.0802
-11.1441
-9.02083
-6.6904
-4.13383
-1.32986
1.74228
5.09207
8.75938
12.7938
17.1581
21.8439
26.9194
32.3825
38.2309
44.4765
51.1479
58.2548
65.8347
73.9175
82.5396
91.7663
101.623
112.201
123.559
135.788
148.995
163.277
178.781
195.656
214.068
234.206
256.282
280.49
306.907
-23.4043
-23.7958
-24.1741
-24.5357
-24.8794
-25.2096
-25.5256
-25.8278
-26.117
-26.3941
-26.658
-26.9081
-27.146
-27.3729
-27.5874
-27.7887
-27.9782
-28.1557
-28.3206
-28.472
-28.6099
-28.734
-28.8439
-28.9389
-29.0176
-29.0785
-29.1204
-29.1438
-29.1458
-29.1236
-29.0765
-29.0028
-28.9002
-28.7662
-28.5973
-28.3893
-28.1413
-27.851
-27.5111
-27.1186
-26.6717
-26.1632
-25.5884
-24.9438
-24.2225
-23.4182
-22.5249
-21.535
-20.441
-19.2355
-17.9077
-16.4471
-14.8428
-13.0797
-11.1435
-9.02027
-6.68982
-4.13323
-1.32922
1.74295
5.09277
8.76011
12.7946
17.1589
21.8447
26.9203
32.3835
38.2319
44.4776
51.149
58.256
65.836
73.9189
82.541
91.7678
101.625
112.203
123.561
135.79
148.998
163.28
178.784
195.659
214.071
234.21
256.287
280.495
306.913
-23.4041
-23.7955
-24.1738
-24.5354
-24.8791
-25.2093
-25.5253
-25.8275
-26.1168
-26.3939
-26.6577
-26.9078
-27.1458
-27.3726
-27.5871
-27.7884
-27.9779
-28.1554
-28.3203
-28.4717
-28.6096
-28.7336
-28.8436
-28.9385
-29.0173
-29.0781
-29.12
-29.1435
-29.1454
-29.1232
-29.0761
-29.0024
-28.8998
-28.7657
-28.5968
-28.3889
-28.1408
-27.8505
-27.5106
-27.1181
-26.6712
-26.1627
-25.5878
-24.9432
-24.2219
-23.4175
-22.5242
-21.5343
-20.4403
-19.2347
-17.9069
-16.4463
-14.8419
-13.0788
-11.1426
-9.01928
-6.68878
-4.13214
-1.32809
1.74414
5.09401
8.76141
12.7959
17.1603
21.8462
26.9219
32.3852
38.2337
44.4794
51.151
58.2581
65.8382
73.9213
82.5436
91.7706
101.628
112.207
123.565
135.794
149.002
163.284
178.789
195.665
214.078
234.218
256.296
280.505
306.925
-23.4036
-23.7951
-24.1734
-24.535
-24.8787
-25.2088
-25.5248
-25.827
-26.1163
-26.3934
-26.6572
-26.9074
-27.1453
-27.3722
-27.5866
-27.7879
-27.9774
-28.1549
-28.3198
-28.4712
-28.6091
-28.7331
-28.843
-28.938
-29.0167
-29.0776
-29.1195
-29.1429
-29.1448
-29.1226
-29.0755
-29.0017
-28.8991
-28.765
-28.5961
-28.3881
-28.1401
-27.8497
-27.5097
-27.1173
-26.6703
-26.1618
-25.5869
-24.9423
-24.2209
-23.4165
-22.5232
-21.5332
-20.4391
-19.2335
-17.9056
-16.445
-14.8405
-13.0773
-11.1411
-9.01771
-6.68714
-4.13042
-1.32629
1.74602
5.09598
8.76349
12.7981
17.1626
21.8486
26.9245
32.3878
38.2365
44.4824
51.1542
58.2615
65.8419
73.9252
82.5478
91.7751
101.633
112.212
123.57
135.8
149.009
163.292
178.798
195.674
214.088
234.229
256.309
280.521
306.943
-23.4029
-23.7944
-24.1727
-24.5343
-24.878
-25.2082
-25.5242
-25.8264
-26.1157
-26.3927
-26.6566
-26.9067
-27.1446
-27.3715
-27.5859
-27.7872
-27.9767
-28.1542
-28.3191
-28.4705
-28.6084
-28.7324
-28.8423
-28.9372
-29.0159
-29.0767
-29.1186
-29.142
-29.144
-29.1217
-29.0745
-29.0008
-28.8981
-28.764
-28.5951
-28.387
-28.139
-27.8486
-27.5086
-27.116
-26.669
-26.1605
-25.5855
-24.9408
-24.2194
-23.415
-22.5216
-21.5315
-20.4373
-19.2317
-17.9037
-16.443
-14.8385
-13.0752
-11.1389
-9.01539
-6.68472
-4.12789
-1.32364
1.7488
5.09889
8.76654
12.8013
17.166
21.8522
26.9282
32.3918
38.2407
44.4869
51.1589
58.2665
65.8472
73.9309
82.5539
91.7816
101.64
112.219
123.579
135.809
149.019
163.303
178.81
195.688
214.104
234.247
256.329
280.544
306.97
-23.402
-23.7935
-24.1718
-24.5334
-24.8771
-25.2073
-25.5233
-25.8255
-26.1148
-26.3918
-26.6556
-26.9058
-27.1437
-27.3705
-27.585
-27.7863
-27.9757
-28.1532
-28.3181
-28.4695
-28.6074
-28.7313
-28.8412
-28.9361
-29.0148
-29.0756
-29.1175
-29.1408
-29.1427
-29.1204
-29.0732
-28.9994
-28.8967
-28.7626
-28.5936
-28.3856
-28.1374
-27.847
-27.5069
-27.1143
-26.6673
-26.1586
-25.5836
-24.9389
-24.2174
-23.4128
-22.5193
-21.5292
-20.435
-19.2292
-17.9011
-16.4403
-14.8357
-13.0722
-11.1358
-9.01218
-6.68137
-4.12438
-1.31997
1.75264
5.10292
8.77076
12.8057
17.1707
21.8571
26.9334
32.3973
38.2465
44.493
51.1654
58.2734
65.8545
73.9387
82.5623
91.7907
101.649
112.23
123.59
135.822
149.032
163.318
178.827
195.707
214.125
234.271
256.357
280.576
307.007
-23.4008
-23.7923
-24.1706
-24.5322
-24.8759
-25.2061
-25.5221
-25.8243
-26.1135
-26.3906
-26.6544
-26.9045
-27.1425
-27.3693
-27.5837
-27.785
-27.9744
-28.1519
-28.3168
-28.4681
-28.606
-28.73
-28.8398
-28.9347
-29.0134
-29.0741
-29.116
-29.1393
-29.1411
-29.1188
-29.0715
-28.9977
-28.8949
-28.7608
-28.5917
-28.3836
-28.1354
-27.8449
-27.5047
-27.1121
-26.6649
-26.1562
-25.5811
-24.9362
-24.2146
-23.41
-22.5164
-21.5262
-20.4318
-19.2259
-17.8977
-16.4367
-14.8319
-13.0684
-11.1317
-9.00794
-6.67693
-4.11975
-1.31512
1.75771
5.10824
8.77635
12.8116
17.1768
21.8636
26.9402
32.4045
38.2541
44.5011
51.1739
58.2825
65.8643
73.9491
82.5734
91.8026
101.662
112.244
123.606
135.838
149.051
163.338
178.849
195.732
214.153
234.303
256.394
280.618
307.056
-24.5307
-24.8744
-25.2046
-25.5205
-25.8227
-26.112
-26.3891
-26.6529
-26.903
-27.1409
-27.3677
-27.5821
-27.7834
-27.9728
-28.1503
-28.3151
-28.4664
-28.6043
-28.7282
-28.838
-28.9329
-29.0115
-29.0722
-29.114
-29.1373
-29.1391
-29.1167
-29.0694
-28.9955
-28.8926
-28.7584
-28.5892
-28.3811
-28.1328
-27.8422
-27.5019
-27.1092
-26.6619
-26.1531
-25.5779
-24.9329
-24.2112
-23.4064
-22.5127
-21.5223
-20.4277
-19.2217
-17.8933
-16.4322
-14.8272
-13.0634
-11.1266
-9.00254
-6.67129
-4.11385
-1.30895
1.76418
5.11501
8.78346
12.8191
17.1847
21.8718
26.9489
32.4137
38.2638
44.5114
51.1849
58.2942
65.8767
73.9624
82.5877
91.8179
101.679
112.262
123.625
135.86
149.074
163.364
178.878
195.764
214.189
234.344
256.441
280.672
307.119
-24.5288
-24.8725
-25.2027
-25.5186
-25.8208
-26.1101
-26.3872
-26.651
-26.9011
-27.139
-27.3658
-27.5802
-27.7814
-27.9708
-28.1482
-28.313
-28.4643
-28.6021
-28.726
-28.8358
-28.9306
-29.0092
-29.0699
-29.1116
-29.1348
-29.1365
-29.1141
-29.0667
-28.9927
-28.8898
-28.7555
-28.5862
-28.3779
-28.1296
-27.8389
-27.4985
-27.1056
-26.6582
-26.1493
-25.5739
-24.9288
-24.2069
-23.402
-22.5081
-21.5175
-20.4228
-19.2165
-17.8879
-16.4265
-14.8213
-13.0573
-11.1202
-8.99586
-6.66431
-4.10655
-1.30131
1.77217
5.1234
8.79225
12.8283
17.1944
21.882
26.9597
32.4251
38.2759
44.5241
51.1984
58.3086
65.892
73.9788
82.6053
91.8368
101.699
112.284
123.649
135.886
149.103
163.396
178.913
195.804
214.234
234.395
256.499
280.739
307.196
-24.5265
-24.8702
-25.2004
-25.5164
-25.8186
-26.1078
-26.3849
-26.6486
-26.8987
-27.1366
-27.3634
-27.5778
-27.779
-27.9684
-28.1458
-28.3105
-28.4618
-28.5996
-28.7234
-28.8331
-28.9279
-29.0064
-29.067
-29.1087
-29.1318
-29.1335
-29.1109
-29.0635
-28.9894
-28.8864
-28.752
-28.5826
-28.3742
-28.1257
-27.8348
-27.4943
-27.1013
-26.6538
-26.1446
-25.5691
-24.9238
-24.2017
-23.3966
-22.5025
-21.5117
-20.4167
-19.2102
-17.8814
-16.4197
-14.8142
-13.0499
-11.1124
-8.98778
-6.65587
-4.09773
-1.29207
1.78185
5.13354
8.80289
12.8395
17.2062
21.8944
26.9727
32.4388
38.2904
44.5396
51.2148
58.326
65.9106
73.9987
82.6266
91.8598
101.724
112.311
123.678
135.918
149.138
163.435
178.957
195.852
214.289
234.457
256.569
280.82
307.289
-24.5237
-24.8675
-25.1977
-25.5136
-25.8158
-26.1051
-26.3821
-26.6459
-26.8959
-27.1338
-27.3606
-27.5749
-27.7761
-27.9655
-28.1428
-28.3075
-28.4588
-28.5965
-28.7203
-28.8299
-28.9246
-29.0031
-29.0636
-29.1052
-29.1283
-29.1298
-29.1072
-29.0596
-28.9854
-28.8823
-28.7478
-28.5782
-28.3697
-28.121
-27.8301
-27.4894
-27.0962
-26.6485
-26.1392
-25.5634
-24.9179
-24.1956
-23.3902
-22.4959
-21.5048
-20.4096
-19.2027
-17.8736
-16.4116
-14.8058
-13.041
-11.1033
-8.97819
-6.64584
-4.08724
-1.2811
1.79334
5.14559
8.81554
12.8528
17.2201
21.9091
26.9883
32.4552
38.3078
44.558
51.2343
58.3468
65.9328
74.0224
82.6521
91.8871
101.754
112.343
123.713
135.956
149.18
163.481
179.008
195.91
214.354
234.531
256.654
280.916
307.398
-24.5205
-24.8643
-25.1945
-25.5104
-25.8126
-26.1019
-26.3789
-26.6427
-26.8927
-27.1306
-27.3573
-27.5716
-27.7728
-27.9621
-28.1394
-28.3041
-28.4552
-28.5929
-28.7166
-28.8262
-28.9208
-28.9992
-29.0596
-29.1011
-29.1241
-29.1256
-29.1028
-29.0551
-28.9808
-28.8775
-28.7428
-28.5732
-28.3645
-28.1156
-27.8245
-27.4836
-27.0902
-26.6423
-26.1327
-25.5568
-24.911
-24.1884
-23.3828
-22.4881
-21.4967
-20.4012
-19.194
-17.8645
-16.4021
-14.7959
-13.0307
-11.0925
-8.96694
-6.63409
-4.07495
-1.26823
1.80682
5.15972
8.83037
12.8684
17.2365
21.9264
27.0065
32.4745
38.3281
44.5796
51.2572
58.3712
65.9588
74.0503
82.682
91.9194
101.788
112.381
123.754
136.001
149.23
163.536
179.069
195.978
214.431
234.618
256.752
281.03
307.521
-24.5168
-24.8606
-25.1908
-25.5068
-25.8089
-26.0982
-26.3752
-26.6389
-26.8889
-27.1268
-27.3535
-27.5678
-27.7689
-27.9581
-28.1354
-28.3
-28.4511
-28.5887
-28.7124
-28.8219
-28.9164
-28.9947
-29.055
-29.0964
-29.1193
-29.1206
-29.0977
-29.0499
-28.9754
-28.872
-28.7371
-28.5673
-28.3584
-28.1094
-27.818
-27.4769
-27.0833
-26.6351
-26.1253
-25.549
-24.903
-24.1801
-23.3741
-22.4791
-21.4874
-20.3914
-19.1838
-17.8539
-16.3911
-14.7844
-13.0188
-11.08
-8.95388
-6.62044
-4.06067
-1.25328
1.82248
5.17614
8.84761
12.8865
17.2556
21.9465
27.0277
32.4969
38.3518
44.6047
51.284
58.3997
65.9893
74.0828
82.717
91.957
101.829
112.425
123.803
136.054
149.288
163.6
179.141
196.058
214.521
234.719
256.866
281.16
307.659
-24.5126
-24.8564
-25.1865
-25.5025
-25.8047
-26.0939
-26.3709
-26.6346
-26.8846
-27.1224
-27.3491
-27.5633
-27.7644
-27.9536
-28.1308
-28.2954
-28.4464
-28.5839
-28.7075
-28.8169
-28.9114
-28.9895
-29.0497
-29.091
-29.1137
-29.1149
-29.0919
-29.0439
-28.9692
-28.8656
-28.7306
-28.5605
-28.3514
-28.1022
-27.8105
-27.4692
-27.0753
-26.6268
-26.1167
-25.5401
-24.8937
-24.1705
-23.3641
-22.4687
-21.4766
-20.3802
-19.1722
-17.8418
-16.3784
-14.7712
-13.005
-11.0656
-8.93883
-6.6047
-4.04421
-1.23604
1.84054
5.19509
8.86751
12.9074
17.2776
21.9697
27.0522
32.5228
38.3792
44.6338
51.3149
58.4327
66.0245
74.1206
82.7577
92.0008
101.877
112.476
123.859
136.116
149.356
163.675
179.224
196.151
214.625
234.835
256.996
281.304
307.816
-24.5077
-24.8515
-25.1817
-25.4976
-25.7998
-26.089
-26.366
-26.6297
-26.8797
-27.1174
-27.3441
-27.5582
-27.7593
-27.9484
-28.1256
-28.29
-28.441
-28.5785
-28.7019
-28.8113
-28.9056
-28.9836
-29.0437
-29.0848
-29.1074
-29.1084
-29.0852
-29.037
-28.9622
-28.8584
-28.7231
-28.5528
-28.3434
-28.0939
-27.802
-27.4603
-27.0661
-26.6173
-26.1068
-25.5299
-24.8831
-24.1595
-23.3527
-22.4568
-21.4642
-20.3673
-19.1588
-17.8278
-16.3639
-14.756
-12.9891
-11.0491
-8.92156
-6.58665
-4.02531
-1.21625
1.86129
5.21687
8.89039
12.9315
17.303
21.9964
27.0804
32.5527
38.4109
44.6674
51.3506
58.4708
66.0653
74.1643
82.8047
92.0515
101.932
112.536
123.924
136.187
149.434
163.762
179.321
196.258
214.744
234.967
257.142
281.463
307.986
-24.5022
-24.846
-25.1761
-25.4921
-25.7943
-26.0835
-26.3604
-26.6241
-26.874
-27.1118
-27.3383
-27.5525
-27.7535
-27.9425
-28.1196
-28.284
-28.4348
-28.5722
-28.6956
-28.8048
-28.899
-28.9769
-29.0368
-29.0778
-29.1001
-29.101
-29.0775
-29.0292
-28.9541
-28.8501
-28.7145
-28.5439
-28.3343
-28.0845
-27.7922
-27.4502
-27.0557
-26.6065
-26.0956
-25.5183
-24.8711
-24.1469
-23.3397
-22.4433
-21.4501
-20.3527
-19.1435
-17.8119
-16.3473
-14.7387
-12.971
-11.0302
-8.90181
-6.56598
-4.00367
-1.19357
1.88506
5.24183
8.91662
12.9591
17.3321
22.0271
27.1128
32.587
38.4473
44.7061
51.3918
58.5148
66.1123
74.2148
82.8591
92.1102
101.995
112.605
124
136.27
149.525
163.863
179.432
196.381
214.879
235.116
257.303
281.637
308.169
-24.4959
-24.8397
-25.1699
-25.4858
-25.788
-26.0771
-26.3541
-26.6177
-26.8676
-27.1053
-27.3318
-27.5459
-27.7468
-27.9358
-28.1128
-28.2771
-28.4279
-28.5651
-28.6883
-28.7974
-28.8914
-28.9692
-29.0289
-29.0697
-29.0919
-29.0925
-29.0689
-29.0203
-28.9449
-28.8406
-28.7048
-28.5339
-28.3239
-28.0738
-27.7811
-27.4388
-27.0438
-26.5942
-26.0828
-25.505
-24.8573
-24.1326
-23.3248
-22.4278
-21.434
-20.3359
-19.126
-17.7937
-16.3283
-14.7189
-12.9504
-11.0086
-8.87924
-6.54236
-3.97894
-1.16764
1.91226
5.2704
8.94667
12.9907
17.3654
22.0623
27.1501
32.6265
38.4891
44.7506
51.4393
58.5655
66.1667
74.2732
82.922
92.1782
102.069
112.686
124.087
136.366
149.631
163.978
179.559
196.52
215.031
235.281
257.48
281.823
308.361
-24.4887
-24.8326
-25.1627
-25.4787
-25.7808
-26.07
-26.3468
-26.6104
-26.8603
-27.098
-27.3244
-27.5384
-27.7393
-27.9282
-28.1051
-28.2693
-28.4199
-28.557
-28.6801
-28.789
-28.8829
-28.9604
-29.02
-29.0606
-29.0825
-29.0829
-29.059
-29.0101
-28.9345
-28.8299
-28.6937
-28.5225
-28.3121
-28.0616
-27.7685
-27.4257
-27.0303
-26.5802
-26.0683
-25.49
-24.8416
-24.1164
-23.3079
-22.4102
-21.4157
-20.3169
-19.1062
-17.773
-16.3067
-14.6963
-12.9268
-10.9839
-8.85346
-6.51537
-3.95066
-1.13799
1.94339
5.30311
8.98108
13.027
17.4037
22.1027
27.1928
32.6718
38.5373
44.8019
51.494
58.624
66.2295
74.3407
82.9949
92.2569
102.155
112.779
124.189
136.477
149.751
164.11
179.702
196.676
215.2
235.461
257.671
282.023
308.564
-24.4806
-24.8245
-25.1546
-25.4706
-25.7727
-26.0618
-26.3387
-26.6022
-26.8521
-27.0897
-27.3161
-27.53
-27.7307
-27.9195
-28.0963
-28.2604
-28.4109
-28.5479
-28.6708
-28.7795
-28.8732
-28.9506
-29.0099
-29.0503
-29.0719
-29.072
-29.0478
-28.9986
-28.9227
-28.8177
-28.6811
-28.5095
-28.2987
-28.0477
-27.7542
-27.4109
-27.0149
-26.5642
-26.0518
-25.4728
-24.8238
-24.0979
-23.2886
-22.3902
-21.3949
-20.2951
-19.0835
-17.7494
-16.2821
-14.6706
-12.8999
-10.9558
-8.82402
-6.48454
-3.91834
-1.10406
1.97901
5.34058
9.02053
13.0686
17.4476
22.1491
27.242
32.7241
38.5928
44.8612
51.5572
58.6918
66.3022
74.419
83.0795
92.3483
102.254
112.886
124.306
136.604
149.889
164.26
179.864
196.85
215.385
235.657
257.877
282.234
308.778
-24.4714
-24.8153
-25.1454
-25.4614
-25.7635
-26.0526
-26.3294
-26.5929
-26.8427
-27.0802
-27.3065
-27.5204
-27.721
-27.9097
-28.0864
-28.2503
-28.4007
-28.5375
-28.6602
-28.7688
-28.8622
-28.9393
-28.9984
-29.0385
-29.0599
-29.0597
-29.0351
-28.9856
-28.9093
-28.8039
-28.6669
-28.4948
-28.2835
-28.032
-27.7379
-27.394
-26.9975
-26.5461
-26.033
-25.4533
-24.8036
-24.0768
-23.2667
-22.3674
-21.3711
-20.2704
-19.0577
-17.7224
-16.2539
-14.6412
-12.8692
-10.9237
-8.79037
-6.44928
-3.88135
-1.06522
2.01983
5.38353
9.0658
13.1163
17.4981
22.2025
27.2987
32.7843
38.6569
44.9296
51.6304
58.7703
66.3865
74.5098
83.1775
92.4541
102.368
113.01
124.44
136.749
150.046
164.428
180.044
197.041
215.587
235.869
258.097
282.459
309.003
-24.461
-24.8049
-25.135
-25.451
-25.7531
-26.0421
-26.3189
-26.5823
-26.8321
-27.0695
-27.2958
-27.5095
-27.7101
-27.8986
-28.0751
-28.2389
-28.3891
-28.5257
-28.6483
-28.7566
-28.8498
-28.9266
-28.9854
-29.0252
-29.0462
-29.0456
-29.0207
-28.9708
-28.894
-28.7882
-28.6507
-28.478
-28.2663
-28.0142
-27.7194
-27.3749
-26.9777
-26.5256
-26.0116
-25.4311
-24.7805
-24.0528
-23.2418
-22.3414
-21.344
-20.2422
-19.0283
-17.6917
-16.2218
-14.6076
-12.8341
-10.8869
-8.75188
-6.40891
-3.83898
-1.0207
2.06665
5.43285
9.11781
13.1713
17.5563
22.2641
27.3641
32.8539
38.7311
45.0089
51.7153
58.8614
66.4845
74.6152
83.2913
92.5766
102.501
113.153
124.593
136.914
150.222
164.616
180.243
197.251
215.807
236.098
258.333
282.7
309.243
-24.4492
-24.7931
-25.1232
-25.4392
-25.7412
-26.0303
-26.307
-26.5704
-26.82
-27.0574
-27.2836
-27.4972
-27.6976
-27.886
-28.0624
-28.226
-28.376
-28.5124
-28.6347
-28.7427
-28.8356
-28.9122
-28.9706
-29.0101
-29.0307
-29.0297
-29.0044
-28.954
-28.8767
-28.7703
-28.6323
-28.459
-28.2467
-27.9939
-27.6984
-27.3531
-26.9551
-26.5022
-25.9873
-25.4059
-24.7543
-24.0255
-23.2133
-22.3118
-21.3132
-20.21
-18.9947
-17.6566
-16.1852
-14.5693
-12.7939
-10.8449
-8.7078
-6.36265
-3.7904
-0.969615
2.12042
5.48953
9.17765
13.2345
17.6233
22.3352
27.4397
32.9345
38.8171
45.101
51.8139
58.9673
66.5982
74.7375
83.4228
92.7179
102.652
113.315
124.767
137.099
150.418
164.823
180.461
197.479
216.046
236.346
258.587
282.958
309.5
-24.4358
-24.7797
-25.1099
-25.4258
-25.7279
-26.0169
-26.2935
-26.5568
-26.8064
-27.0437
-27.2697
-27.4832
-27.6835
-27.8718
-28.0479
-28.2113
-28.3611
-28.4972
-28.6193
-28.727
-28.8196
-28.8958
-28.9539
-28.993
-29.0132
-29.0117
-28.9859
-28.9349
-28.8571
-28.7501
-28.6114
-28.4375
-28.2244
-27.9708
-27.6745
-27.3284
-26.9294
-26.4755
-25.9597
-25.3771
-24.7243
-23.9944
-23.1809
-22.278
-21.2779
-20.1732
-18.9563
-17.6165
-16.1432
-14.5254
-12.748
-10.7967
-8.65726
-6.30959
-3.73463
-0.910932
2.18223
5.55476
9.24658
13.3075
17.7007
22.4174
27.5273
33.028
38.9169
45.2079
51.9285
59.0902
66.7301
74.8789
83.5746
92.8801
102.826
113.5
124.962
137.305
150.636
165.052
180.7
197.729
216.305
236.614
258.863
283.237
309.775
-24.4206
-24.7646
-25.0948
-25.4106
-25.7127
-26.0016
-26.2782
-26.5414
-26.791
-27.0282
-27.254
-27.4673
-27.6675
-27.8556
-28.0315
-28.1947
-28.3442
-28.4801
-28.6018
-28.7092
-28.8014
-28.8772
-28.9349
-28.9735
-28.9932
-28.9912
-28.9648
-28.9133
-28.8348
-28.7271
-28.5876
-28.4129
-28.199
-27.9446
-27.6473
-27.3002
-26.9002
-26.4452
-25.9281
-25.3444
-24.6902
-23.9588
-23.1439
-22.2394
-21.2377
-20.1312
-18.9124
-17.5706
-16.0952
-14.4751
-12.6953
-10.7415
-8.59929
-6.24869
-3.67057
-0.843462
2.25337
5.6299
9.32608
13.3918
17.7902
22.5126
27.6289
33.1365
39.0329
45.3322
52.0615
59.2327
66.8827
75.042
83.7486
93.0651
103.022
113.707
125.181
137.535
150.876
165.303
180.962
198.001
216.587
236.905
259.161
283.538
310.072
-24.4034
-24.7475
-25.0776
-25.3935
-25.6955
-25.9844
-26.2609
-26.524
-26.7734
-27.0105
-27.2363
-27.4494
-27.6494
-27.8372
-28.0129
-28.1758
-28.325
-28.4606
-28.582
-28.689
-28.7808
-28.8561
-28.9133
-28.9514
-28.9705
-28.9679
-28.9409
-28.8887
-28.8094
-28.7009
-28.5606
-28.385
-28.1701
-27.9147
-27.6164
-27.2681
-26.8669
-26.4106
-25.8922
-25.307
-24.6513
-23.9183
-23.1017
-22.1953
-21.1917
-20.0832
-18.8622
-17.518
-16.0402
-14.4175
-12.6349
-10.6782
-8.53275
-6.17873
-3.59693
-0.765834
2.33531
5.71656
9.41788
13.4893
17.8939
22.6231
27.7468
33.2626
39.1677
45.4765
52.2157
59.3975
67.0584
75.2288
83.9469
93.2745
103.243
113.939
125.424
137.789
151.14
165.578
181.249
198.299
216.896
237.223
259.485
283.864
310.393
-24.384
-24.728
-25.0582
-25.374
-25.676
-25.9648
-26.2412
-26.5043
-26.7536
-26.9906
-27.2161
-27.429
-27.6288
-27.8164
-27.9918
-28.1544
-28.3033
-28.4385
-28.5595
-28.6661
-28.7574
-28.8322
-28.8888
-28.9263
-28.9448
-28.9415
-28.9137
-28.8607
-28.7806
-28.6712
-28.5299
-28.3533
-28.1373
-27.8807
-27.5811
-27.2315
-26.829
-26.3711
-25.8512
-25.2643
-24.6069
-23.872
-23.0534
-22.145
-21.1391
-20.0282
-18.8047
-17.4579
-15.9772
-14.3515
-12.5656
-10.6055
-8.45635
-6.09833
-3.51223
-0.676447
2.42978
5.8166
9.52402
13.6021
18.0142
22.7512
27.8838
33.4089
39.3241
45.6435
52.3938
59.587
67.2595
75.4415
84.1713
93.5099
103.489
114.197
125.692
138.069
151.431
165.881
181.563
198.625
217.233
237.569
259.838
284.218
310.738
-24.3619
-24.706
-25.0361
-25.3519
-25.6539
-25.9427
-26.2189
-26.4818
-26.7311
-26.9679
-27.1932
-27.4059
-27.6055
-27.7928
-27.9679
-28.1301
-28.2786
-28.4134
-28.5339
-28.64
-28.7308
-28.805
-28.861
-28.8978
-28.9155
-28.9114
-28.8828
-28.8289
-28.7478
-28.6374
-28.495
-28.3171
-28.0999
-27.842
-27.541
-27.1898
-26.7857
-26.3262
-25.8044
-25.2156
-24.5562
-23.8191
-22.9982
-22.0874
-21.0789
-19.9653
-18.7389
-17.389
-15.9051
-14.2758
-12.4862
-10.522
-8.36859
-6.00591
-3.41474
-0.573443
2.53879
5.93221
9.64684
13.7329
18.1536
22.9
28.0427
33.5787
39.5051
45.8363
52.5985
59.8038
67.4881
75.6819
84.4233
93.7729
103.764
114.482
125.989
138.377
151.752
166.214
181.908
198.982
217.6
237.946
260.221
284.601
311.109
-24.3369
-24.681
-25.0111
-25.3269
-25.6288
-25.9175
-26.1937
-26.4564
-26.7055
-26.9422
-27.1673
-27.3797
-27.579
-27.766
-27.9407
-28.1025
-28.2506
-28.3849
-28.5049
-28.6105
-28.7006
-28.7741
-28.8294
-28.8654
-28.8823
-28.8772
-28.8476
-28.7927
-28.7105
-28.5989
-28.4552
-28.276
-28.0573
-27.7979
-27.4952
-27.1423
-26.7364
-26.2748
-25.751
-25.16
-24.4982
-23.7587
-22.9352
-22.0215
-21.0101
-19.8934
-18.6636
-17.3101
-15.8224
-14.189
-12.3951
-10.4263
-8.26775
-5.89959
-3.30247
-0.454654
2.66469
6.06592
9.78904
13.8845
18.3154
23.0724
28.2268
33.7749
39.7136
46.0575
52.8321
60.0498
67.7462
75.9516
84.7048
94.0656
104.068
114.798
126.317
138.718
152.104
166.579
182.286
199.372
218.002
238.357
260.637
285.014
311.507
-24.3085
-24.6527
-24.9828
-25.2985
-25.6004
-25.889
-26.165
-26.4276
-26.6765
-26.913
-27.1378
-27.35
-27.5489
-27.7356
-27.9099
-28.0712
-28.2188
-28.3526
-28.472
-28.5769
-28.6663
-28.739
-28.7934
-28.8286
-28.8445
-28.8383
-28.8077
-28.7515
-28.6681
-28.555
-28.4099
-28.2291
-28.0088
-27.7477
-27.443
-27.0882
-26.6801
-26.2163
-25.6901
-25.0966
-24.4321
-23.6897
-22.8631
-21.9463
-20.9314
-19.8111
-18.5774
-17.2198
-15.7277
-14.0895
-12.2906
-10.3163
-8.15183
-5.77724
-3.1731
-0.317585
2.81017
6.22058
9.95368
14.06
18.5027
23.272
28.4393
34.0006
39.9525
46.3096
53.0969
60.3271
68.0357
76.253
85.0181
94.3905
104.405
115.147
126.679
139.092
152.492
166.98
182.7
199.799
218.441
238.805
261.089
285.46
311.932
-24.2763
-24.6205
-24.9506
-25.2663
-25.5681
-25.8566
-26.1325
-26.3949
-26.6436
-26.8798
-27.1044
-27.3162
-27.5148
-27.701
-27.8749
-28.0357
-28.1827
-28.3159
-28.4346
-28.5387
-28.6273
-28.6991
-28.7526
-28.7867
-28.8015
-28.7941
-28.7622
-28.7047
-28.6197
-28.5051
-28.3583
-28.1757
-27.9536
-27.6904
-27.3836
-27.0264
-26.616
-26.1496
-25.6206
-25.0242
-24.3566
-23.6109
-22.7808
-21.8603
-20.8415
-19.7169
-18.4788
-17.1164
-15.6191
-13.9755
-12.1706
-10.19
-8.01857
-5.6364
-3.02399
-0.159408
2.97823
6.3994
10.1441
14.263
18.719
23.5019
28.6833
34.2588
40.2242
46.5948
53.395
60.638
68.359
76.5885
85.3661
94.7504
104.778
115.532
127.077
139.504
152.917
167.419
183.153
200.265
218.919
239.291
261.577
285.939
312.383
-24.2398
-24.5841
-24.9142
-25.2298
-25.5315
-25.8199
-26.0956
-26.3578
-26.6063
-26.8422
-27.0664
-27.2778
-27.476
-27.6618
-27.8351
-27.9953
-28.1417
-28.2741
-28.3921
-28.4953
-28.583
-28.6538
-28.7062
-28.7391
-28.7526
-28.7439
-28.7105
-28.6514
-28.5648
-28.4484
-28.2996
-28.115
-27.8906
-27.6252
-27.3158
-26.9561
-26.5428
-26.0735
-25.5413
-24.9416
-24.2704
-23.5209
-22.6869
-21.762
-20.7387
-19.6093
-18.366
-16.9981
-15.4949
-13.8448
-12.033
-10.0449
-7.86536
-5.4743
-2.85219
0.023025
3.17221
6.60584
10.3638
14.497
18.9677
23.7654
28.9618
34.5518
40.5312
46.9156
53.729
60.9851
68.7189
76.9611
85.7516
95.1484
105.189
115.957
127.515
139.956
153.383
167.9
183.649
200.774
219.439
239.818
262.103
286.451
312.859
-24.1984
-24.5427
-24.8728
-25.1883
-25.4899
-25.7782
-26.0537
-26.3156
-26.5639
-26.7995
-27.0233
-27.2343
-27.432
-27.6173
-27.79
-27.9495
-28.0951
-28.2267
-28.3438
-28.446
-28.5326
-28.6022
-28.6534
-28.685
-28.697
-28.6867
-28.6516
-28.5908
-28.5022
-28.3838
-28.2328
-28.0458
-27.819
-27.5509
-27.2387
-26.8759
-26.4595
-25.9867
-25.4509
-24.8474
-24.1721
-23.4183
-22.5796
-21.6498
-20.6213
-19.4863
-18.237
-16.8627
-15.3526
-13.6951
-11.8753
-9.87847
-7.68935
-5.2879
-2.65446
0.23308
3.39556
6.84338
10.6163
14.7652
19.2523
24.0657
29.2771
34.8824
40.8762
47.2749
54.1019
61.3716
69.1187
77.3741
86.178
95.5878
105.643
116.424
127.997
140.452
153.894
168.427
184.189
201.328
220.003
240.387
262.668
286.995
313.355
-24.1515
-24.4957
-24.8258
-25.1413
-25.4428
-25.7309
-26.0061
-26.2678
-26.5157
-26.751
-26.9744
-27.1849
-27.382
-27.5667
-27.7387
-27.8974
-28.0422
-28.1728
-28.2889
-28.39
-28.4754
-28.5437
-28.5934
-28.6235
-28.6338
-28.6217
-28.5847
-28.5218
-28.4311
-28.3102
-28.1567
-27.967
-27.7374
-27.4663
-27.1508
-26.7846
-26.3645
-25.8878
-25.3479
-24.74
-24.06
-23.3012
-22.4572
-21.5218
-20.4872
-19.3458
-18.0896
-16.7079
-15.1898
-13.5237
-11.6945
-9.68759
-7.48738
-5.0739
-2.42739
0.474337
3.65199
7.11591
10.9049
15.0712
19.5767
24.4041
29.6326
35.2536
41.2623
47.6758
54.517
61.8008
69.5617
77.8308
86.6487
96.0719
106.141
116.937
128.525
140.996
154.453
169.001
184.778
201.93
220.614
241
263.271
287.568
313.867
-24.0982
-24.4425
-24.7725
-25.0879
-25.3892
-25.6772
-25.9521
-26.2135
-26.4611
-26.696
-26.9188
-27.1287
-27.3253
-27.5092
-27.6804
-27.8382
-27.982
-28.1116
-28.2265
-28.3264
-28.4103
-28.4771
-28.5251
-28.5535
-28.5619
-28.5477
-28.5086
-28.4433
-28.3501
-28.2266
-28.0702
-27.8774
-27.6446
-27.37
-27.0507
-26.6806
-26.2564
-25.7752
-25.2305
-24.6176
-23.9323
-23.1677
-22.3177
-21.3758
-20.3343
-19.1855
-17.9214
-16.5311
-15.0038
-13.3277
-11.4877
-9.46908
-7.2561
-4.82878
-2.16732
0.75045
3.94505
7.42606
11.2322
15.4229
19.9406
24.7837
30.0319
35.6687
41.693
48.1219
54.9778
62.2762
70.0514
78.3346
87.167
96.6042
106.688
117.499
129.102
141.589
155.062
169.626
185.418
202.581
221.272
241.656
263.91
288.166
314.386
-24.0377
-24.382
-24.712
-25.0273
-25.3285
-25.6162
-25.8908
-26.1518
-26.399
-26.6335
-26.8557
-27.065
-27.2608
-27.4439
-27.6142
-27.771
-27.9137
-28.0421
-28.1556
-28.254
-28.3363
-28.4014
-28.4476
-28.474
-28.4802
-28.4637
-28.422
-28.3541
-28.258
-28.1314
-27.9717
-27.7755
-27.5389
-27.2604
-26.9369
-26.5623
-26.1333
-25.647
-25.0969
-24.4783
-23.7868
-23.0157
-22.1587
-21.2094
-20.16
-19.0027
-17.7294
-16.3293
-14.7915
-13.1039
-11.2515
-9.21946
-6.99188
-4.54884
-1.8705
1.06509
4.27818
7.77652
11.6074
15.8195
20.345
25.2122
30.4782
36.1315
42.172
48.6169
55.4879
62.8014
70.5913
78.8891
87.7365
97.1882
107.288
118.114
129.733
142.237
155.726
170.305
186.11
203.283
221.977
242.354
264.582
288.782
314.901
-24.3134
-24.6433
-24.9585
-25.2595
-25.547
-25.8212
-26.0818
-26.3286
-26.5625
-26.7841
-26.9926
-27.1876
-27.3698
-27.539
-27.6946
-27.8361
-27.9631
-28.0751
-28.1718
-28.2523
-28.3154
-28.3595
-28.3836
-28.3873
-28.3681
-28.3236
-28.2527
-28.1533
-28.0233
-27.8598
-27.6595
-27.4188
-27.1358
-26.8074
-26.4276
-25.9933
-25.5011
-24.9449
-24.3197
-23.6212
-22.8426
-21.9777
-21.0199
-19.9615
-18.7945
-17.5108
-16.0995
-14.5495
-12.8488
-10.9823
-8.93496
-6.69085
-4.2301
-1.53298
1.42228
4.65493
8.17473
12.0317
16.2569
20.8026
25.6922
30.9751
36.6459
42.7032
49.1645
56.0511
63.3801
71.1851
79.498
88.3607
97.8274
107.943
118.785
130.421
142.941
156.446
171.04
186.857
204.037
222.73
243.091
265.282
289.407
315.397
-24.2356
-24.5654
-24.8804
-25.1813
-25.4684
-25.7422
-26.0024
-26.2486
-26.4819
-26.7027
-26.9103
-27.1045
-27.2856
-27.4536
-27.6079
-27.7479
-27.8733
-27.9836
-28.0784
-28.1568
-28.2176
-28.2593
-28.2809
-28.2818
-28.2595
-28.2118
-28.1374
-28.0344
-27.9003
-27.7326
-27.5277
-27.2822
-26.9941
-26.6602
-26.2746
-25.8341
-25.3353
-24.772
-24.1394
-23.4329
-22.6458
-21.7719
-20.8044
-19.7357
-18.5577
-17.2621
-15.8379
-14.2742
-12.5586
-10.6761
-8.61149
-6.34882
-3.86834
-1.15048
1.82633
5.08077