/*--------------------------------*- C++ -*----------------------------------*\
| =========                 |                                                 |
| \\      /  F ield         | OpenFOAM: The Open Source CFD Toolbox           |
|  \\    /   O peration     | Version:  2412                                  |
|   \\  /    A nd           | Website:  www.openfoam.com                      |
|    \\/     M anipulation  |                                                 |
\*---------------------------------------------------------------------------*/
FoamFile
{
    version     2.0;
    format      ascii;
    arch        "LSB;label=32;scalar=64";
    class       surfaceScalarField;
    location    "80";
    object      phi;
}
// * * * * * * * * * * * * * * * * * * * * * * * * * * * * * * * * * * * * * //

dimensions      [0 3 -1 0 0 0 0];

oriented        oriented;

internalField   nonuniform List<scalar> 
14486
(
3.5706e-06
1.4946e-07
-3.72006e-06
2.17292e-06
1.39768e-06
2.25572e-07
1.94735e-06
8.36012e-07
-6.10437e-07
1.39746e-06
-5.6145e-07
-4.03402e-07
1.80086e-06
-3.1168e-06
2.71339e-06
-4.52861e-06
1.41181e-06
-4.16469e-06
-3.63917e-07
-3.4763e-06
-6.88399e-07
-3.10598e-06
-3.70318e-07
-2.91839e-06
-1.87586e-07
-2.85624e-06
-6.21554e-08
-2.90114e-06
4.49175e-08
-2.99129e-06
9.0119e-08
-3.04879e-06
5.74901e-08
-3.0632e-06
1.43974e-08
-3.04255e-06
-2.06486e-08
-2.99653e-06
-4.60273e-08
-2.95671e-06
-3.98203e-08
-2.93932e-06
-1.72995e-08
-2.94187e-06
2.42824e-09
-2.95675e-06
1.48707e-08
-2.97121e-06
1.4449e-08
-2.98006e-06
8.83613e-09
-2.9851e-06
5.01781e-09
-2.9905e-06
5.53493e-09
-2.99919e-06
8.49891e-09
-3.01039e-06
1.13423e-08
1.02748e-08
3.15889e-06
1.69296e-08
3.14241e-06
1.64688e-08
3.12617e-06
1.62334e-08
3.10977e-06
1.64019e-08
3.09352e-06
1.6243e-08
3.07758e-06
1.65683e-08
3.06213e-06
1.47938e-08
3.04691e-06
1.52294e-08
3.03231e-06
1.45905e-08
3.01839e-06
1.39155e-08
3.0049e-06
1.34972e-08
2.99154e-06
1.36422e-08
2.97809e-06
1.31597e-08
2.96571e-06
1.25071e-08
2.95577e-06
9.80027e-09
2.94891e-06
6.86846e-09
2.94231e-06
6.59522e-09
2.93201e-06
1.02974e-08
2.91627e-06
1.57404e-08
2.90022e-06
1.6098e-08
2.89637e-06
3.80263e-09
2.91215e-06
-1.57422e-08
2.94995e-06
-3.78501e-08
2.99383e-06
-4.38797e-08
3.01285e-06
-1.90154e-08
2.99777e-06
1.50755e-08
2.94087e-06
5.68961e-08
2.85234e-06
8.85542e-08
2.80871e-06
4.36039e-08
2.87023e-06
-6.1516e-08
3.05499e-06
-1.8477e-07
3.41881e-06
-3.63816e-07
4.09671e-06
-6.77901e-07
4.46217e-06
-3.65463e-07
3.08578e-06
1.37639e-06
4.14316e-07
2.67143e-06
-1.41681e-06
1.83115e-06
-8.65942e-07
-5.50863e-07
-1.46204e-07
-7.1974e-07
-2.11956e-06
1.97335e-06
-3.71094e-06
1.59138e-06
-3.56148e-06
1.12173e-05
4.51779e-07
-1.53891e-05
7.61272e-06
5.00223e-06
1.23793e-06
8.32214e-06
2.80717e-06
-2.17967e-06
4.342e-06
-2.09628e-06
-2.0808e-06
8.22367e-06
-1.11701e-05
1.18027e-05
-1.55506e-05
5.79232e-06
-1.43803e-05
-1.53424e-06
-1.21666e-05
-2.90208e-06
-1.09643e-05
-1.57267e-06
-1.03592e-05
-7.92601e-07
-1.0169e-05
-2.52408e-07
-1.03223e-05
1.98247e-07
-1.0614e-05
3.81733e-07
-1.07986e-05
2.42096e-07
-1.08398e-05
5.5598e-08
-1.0766e-05
-9.44558e-08
-1.0614e-05
-1.98082e-07
-1.04839e-05
-1.6992e-07
-1.04288e-05
-7.22693e-08
-1.04394e-05
1.28918e-08
-1.04899e-05
6.53472e-08
-1.05388e-05
6.33107e-08
-1.05692e-05
3.9228e-08
-1.05873e-05
2.30929e-08
-1.06072e-05
2.56273e-08
-1.0638e-05
3.90168e-08
-1.0678e-05
5.1488e-08
4.65065e-08
1.12065e-05
7.6875e-08
1.11482e-05
7.47164e-08
1.10903e-05
7.41121e-08
1.10325e-05
7.42314e-08
1.0975e-05
7.36765e-08
1.09191e-05
7.34373e-08
1.0864e-05
6.89026e-08
1.08107e-05
6.85717e-08
1.07588e-05
6.6445e-08
1.07095e-05
6.31839e-08
1.06621e-05
6.09622e-08
1.06147e-05
6.13973e-08
1.0568e-05
5.94888e-08
1.05238e-05
5.68764e-08
1.04885e-05
4.48524e-08
1.04634e-05
3.1977e-08
1.04398e-05
3.02014e-08
1.04043e-05
4.58612e-08
1.03508e-05
6.92023e-08
1.02961e-05
7.08725e-08
1.02808e-05
1.89799e-08
1.03303e-05
-6.51578e-08
1.04534e-05
-1.6103e-07
1.0598e-05
-1.88451e-07
1.06659e-05
-8.68798e-08
1.06218e-05
5.91232e-08
1.04385e-05
2.40195e-07
1.01516e-05
3.75511e-07
1.00022e-05
1.92918e-07
1.01905e-05
-2.49752e-07
1.07863e-05
-7.80627e-07
1.19672e-05
-1.54474e-06
1.41474e-05
-2.85811e-06
1.53203e-05
-1.53831e-06
1.10513e-05
5.6454e-06
2.1102e-06
1.16125e-05
-4.39033e-06
8.33171e-06
-2.87431e-06
-2.06688e-06
-9.86602e-07
-2.60746e-06
-7.48439e-06
8.47114e-06
-1.16762e-05
5.78323e-06
-1.47859e-05
2.01918e-05
7.94206e-07
-3.63751e-05
1.48394e-05
1.03546e-05
3.16602e-06
1.99955e-05
5.38738e-06
-4.40102e-06
7.58009e-06
-4.289e-06
-5.27136e-06
2.10751e-05
-2.25081e-05
2.90394e-05
-3.02814e-05
1.35657e-05
-2.80699e-05
-3.74577e-06
-2.40494e-05
-6.92259e-06
-2.18492e-05
-3.77291e-06
-2.07498e-05
-1.89196e-06
-2.04216e-05
-5.80613e-07
-2.07209e-05
4.97555e-07
-2.12567e-05
9.17499e-07
-2.15922e-05
5.77559e-07
-2.16589e-05
1.22285e-07
-2.15123e-05
-2.41039e-07
-2.12281e-05
-4.8229e-07
-2.0989e-05
-4.09064e-07
-2.08907e-05
-1.70413e-07
-2.09163e-05
3.83067e-08
-2.10136e-05
1.62666e-07
-2.11078e-05
1.57429e-07
-2.11671e-05
9.85729e-08
-2.12053e-05
6.11737e-08
-2.12472e-05
6.77583e-08
-2.13103e-05
1.01788e-07
-2.13891e-05
1.30522e-07
1.20518e-07
2.24606e-05
1.97349e-07
2.23433e-05
1.91996e-07
2.22274e-05
1.89988e-07
2.21113e-05
1.90302e-07
2.19965e-05
1.88469e-07
2.18839e-05
1.87053e-07
2.17742e-05
1.7754e-07
2.16668e-05
1.76003e-07
2.15632e-05
1.70059e-07
2.14642e-05
1.62139e-07
2.13689e-05
1.56264e-07
2.12746e-05
1.5613e-07
2.11803e-05
1.53321e-07
2.10931e-05
1.4426e-07
2.10211e-05
1.16663e-07
2.09688e-05
8.4309e-08
2.09198e-05
7.9209e-08
2.08501e-05
1.15484e-07
2.07469e-05
1.72472e-07
2.06411e-05
1.76674e-07
2.06065e-05
5.35316e-08
2.06939e-05
-1.52435e-07
2.09195e-05
-3.8675e-07
2.11892e-05
-4.5816e-07
2.1324e-05
-2.21632e-07
2.12511e-05
1.31938e-07
2.09173e-05
5.74057e-07
2.03896e-05
9.03212e-07
2.00977e-05
4.84829e-07
2.04226e-05
-5.74704e-07
2.15055e-05
-1.86352e-06
2.36668e-05
-3.70602e-06
2.7627e-05
-6.81828e-06
2.98391e-05
-3.7505e-06
2.2265e-05
1.32195e-05
5.31361e-06
2.85638e-05
-7.66342e-06
2.13088e-05
-5.48425e-06
-4.24604e-06
-2.70551e-06
-5.3862e-06
-1.46363e-05
2.0402e-05
-2.10454e-05
1.21923e-05
-3.50372e-05
3.03408e-05
1.1317e-06
-6.78476e-05
2.40381e-05
1.66572e-05
6.43117e-06
3.76025e-05
8.72129e-06
-6.69113e-06
1.07889e-05
-6.35666e-06
-1.07947e-05
4.26588e-05
-3.80866e-05
5.63313e-05
-4.95578e-05
2.50368e-05
-4.60096e-05
-7.29397e-06
-3.99691e-05
-1.29631e-05
-3.6635e-05
-7.10691e-06
-3.4981e-05
-3.54601e-06
-3.45228e-05
-1.03884e-06
-3.50095e-05
9.84294e-07
-3.58314e-05
1.73937e-06
-3.63354e-05
1.08152e-06
-3.64213e-05
2.08149e-07
-3.61806e-05
-4.81754e-07
-3.57381e-05
-9.24737e-07
-3.5374e-05
-7.73152e-07
-3.52326e-05
-3.11679e-07
-3.52833e-05
8.87139e-08
-3.5443e-05
3.22414e-07
-3.55958e-05
3.10147e-07
-3.56948e-05
1.97564e-07
-3.57616e-05
1.2792e-07
-3.58363e-05
1.42646e-07
-3.59435e-05
2.08689e-07
-3.60788e-05
2.66067e-07
2.45942e-07
3.79177e-05
4.00846e-07
3.77187e-05
3.90968e-07
3.75228e-05
3.85844e-07
3.73257e-05
3.87479e-07
3.71315e-05
3.82633e-07
3.69416e-05
3.779e-07
3.6756e-05
3.62152e-07
3.65749e-05
3.5708e-07
3.63994e-05
3.455e-07
3.62317e-05
3.29883e-07
3.60703e-05
3.17683e-07
3.59115e-05
3.15309e-07
3.57532e-05
3.11197e-07
3.56037e-05
2.9394e-07
3.54813e-05
2.3885e-07
3.53892e-05
1.76447e-07
3.53043e-05
1.64123e-07
3.51882e-05
2.31562e-07
3.50202e-05
3.4043e-07
3.48465e-05
3.5044e-07
3.47812e-05
1.18822e-07
3.49049e-05
-2.76081e-07
3.52473e-05
-7.29243e-07
3.56664e-05
-8.77217e-07
3.58875e-05
-4.42825e-07
3.57908e-05
2.28641e-07
3.5288e-05
1.07688e-06
3.44777e-05
1.71352e-06
3.40024e-05
9.60136e-07
3.44566e-05
-1.02886e-06
3.6086e-05
-3.49298e-06
3.93616e-05
-6.98162e-06
4.53115e-05
-1.27682e-05
4.88523e-05
-7.29123e-06
3.76727e-05
2.43991e-05
1.08337e-05
5.54028e-05
-1.09072e-05
4.30497e-05
-8.83644e-06
-6.31683e-06
-5.74115e-06
-8.4815e-06
-2.37938e-05
3.84546e-05
-3.16119e-05
2.00104e-05
-6.55173e-05
4.11317e-05
1.43483e-06
-0.000110414
3.52591e-05
2.25299e-05
1.15134e-05
6.13481e-05
1.29718e-05
-8.14955e-06
1.33963e-05
-6.78112e-06
-1.97893e-05
7.58444e-05
-5.90072e-05
9.55492e-05
-7.42602e-05
4.02898e-05
-6.91052e-05
-1.24489e-05
-6.09459e-05
-2.11225e-05
-5.63962e-05
-1.16566e-05
-5.41651e-05
-5.77711e-06
-5.35999e-05
-1.60407e-06
-5.43184e-05
1.70281e-06
-5.54595e-05
2.88046e-06
-5.61391e-05
1.76111e-06
-5.62334e-05
3.02422e-07
-5.58752e-05
-8.3998e-07
-5.52543e-05
-1.54565e-06
-5.4759e-05
-1.26843e-06
-5.458e-05
-4.90586e-07
-5.46705e-05
1.79083e-07
-5.49102e-05
5.62075e-07
-5.51372e-05
5.3707e-07
-5.52892e-05
3.49588e-07
-5.53983e-05
2.36937e-07
-5.55209e-05
2.65453e-07
-5.56915e-05
3.7903e-07
-5.58992e-05
4.73887e-07
4.42782e-07
5.88045e-05
7.17258e-07
5.84957e-05
6.99727e-07
5.81901e-05
6.9138e-07
5.78859e-05
6.91762e-07
5.75844e-05
6.84066e-07
5.72905e-05
6.72711e-07
5.70023e-05
6.49394e-07
5.67203e-05
6.3908e-07
5.64486e-05
6.17205e-07
5.61885e-05
5.89958e-07
5.59374e-05
5.68829e-07
5.56902e-05
5.62893e-07
5.54452e-05
5.55812e-07
5.52156e-05
5.23674e-07
5.50213e-05
4.32956e-07
5.4872e-05
3.25799e-07
5.47354e-05
3.00677e-07
5.45575e-05
4.09479e-07
5.43075e-05
5.90437e-07
5.40468e-05
6.11186e-07
5.39343e-05
2.31241e-07
5.40874e-05
-4.29117e-07
5.45512e-05
-1.1931e-06
5.5138e-05
-1.46401e-06
5.54672e-05
-7.71994e-07
5.53558e-05
3.39955e-07
5.4676e-05
1.75672e-06
5.355e-05
2.83956e-06
5.28476e-05
1.66248e-06
5.34087e-05
-1.58991e-06
5.56068e-05
-5.69108e-06
6.00774e-05
-1.14523e-05
6.81133e-05
-2.08041e-05
7.3244e-05
-1.2422e-05
5.83713e-05
3.92718e-05
1.98001e-05
9.39739e-05
-1.35474e-05
7.63973e-05
-1.3093e-05
-6.7712e-06
-1.06018e-05
-1.09727e-05
-3.50389e-05
6.28918e-05
-4.28112e-05
2.77827e-05
-0.000106894
5.19049e-05
1.72469e-06
-0.000164044
4.82945e-05
2.61403e-05
1.88361e-05
9.08066e-05
1.83001e-05
-7.61354e-06
1.45236e-05
-3.00461e-06
-3.373e-05
0.000124098
-8.64695e-05
0.000148289
-0.000105302
5.91223e-05
-9.83621e-05
-1.93888e-05
-8.81477e-05
-3.13368e-05
-8.23904e-05
-1.7414e-05
-7.96055e-05
-8.562e-06
-7.89814e-05
-2.22816e-06
-7.99659e-05
2.68733e-06
-8.14374e-05
4.35194e-06
-8.22852e-05
2.6089e-06
-8.23701e-05
3.87311e-07
-8.18768e-05
-1.33327e-06
-8.10714e-05
-2.35112e-06
-8.04485e-05
-1.89131e-06
-8.02469e-05
-6.92135e-07
-8.03969e-05
3.28892e-07
-8.07357e-05
9.00923e-07
-8.10539e-05
8.55192e-07
-8.12752e-05
5.70913e-07
-8.1444e-05
4.05598e-07
-8.16331e-05
4.54773e-07
-8.18868e-05
6.32415e-07
-8.21933e-05
7.80565e-07
8.65281e-05
1.18098e-06
8.6076e-05
1.15188e-06
8.56288e-05
1.13854e-06
8.51843e-05
1.13618e-06
8.4743e-05
1.12542e-06
8.4311e-05
1.10555e-06
8.38889e-05
1.07058e-06
8.34779e-05
1.05009e-06
8.30795e-05
1.0156e-06
8.26975e-05
9.71946e-07
8.23286e-05
9.37747e-07
8.19677e-05
9.24223e-07
8.16106e-05
9.12448e-07
8.12714e-05
8.63034e-07
8.09828e-05
7.21369e-07
8.07551e-05
5.53484e-07
8.05472e-05
5.08608e-07
8.0289e-05
6.67634e-07
7.99381e-05
9.41376e-07
7.95695e-05
9.79811e-07
7.9389e-05
4.11741e-07
7.9555e-05
-5.95121e-07
8.01351e-05
-1.77324e-06
8.08941e-05
-2.22305e-06
8.13473e-05
-1.22514e-06
8.12378e-05
4.49428e-07
8.03876e-05
2.60695e-06
7.89346e-05
4.29256e-06
7.79716e-05
2.62544e-06
7.85923e-05
-2.21059e-06
8.13356e-05
-8.43445e-06
8.69928e-05
-1.71094e-05
9.70484e-05
-3.08597e-05
0.000103937
-1.9311e-05
8.55621e-05
5.76471e-05
3.3682e-05
0.000145854
-1.46987e-05
0.000124778
-1.8422e-05
-3.04786e-06
-1.77566e-05
-1.16381e-05
-4.81432e-05
9.32783e-05
-5.39587e-05
3.35983e-05
-0.000159128
6.24378e-05
2.02668e-06
-0.000228508
6.27187e-05
2.58595e-05
2.86335e-05
0.000124892
2.47712e-05
-3.75117e-06
1.29339e-05
8.83266e-06
-5.43911e-05
0.000191423
-0.000121634
0.000215531
-0.000143541
8.10299e-05
-0.000134795
-2.81348e-05
-0.000122769
-4.33631e-05
-0.000115914
-2.42691e-05
-0.000112659
-1.18167e-05
-0.000112038
-2.84955e-06
-0.000113308
3.95705e-06
-0.000115088
6.13248e-06
-0.00011608
3.60045e-06
-0.000116136
4.43596e-07
-0.000115499
-1.97021e-06
-0.000114514
-3.33645e-06
-0.000113787
-2.61843e-06
-0.000113587
-8.91234e-07
-0.000113819
5.60336e-07
-0.000114275
1.35684e-06
-0.000114699
1.27917e-06
-0.000115007
8.78643e-07
-0.000115253
6.52048e-07
-0.000115533
7.34691e-07
-0.000115893
9.92629e-07
1.20241e-06
0.000122467
1.82383e-06
0.000121836
1.78258e-06
0.000121214
1.76022e-06
0.000120594
1.75655e-06
0.000119983
1.73684e-06
0.000119382
1.70642e-06
0.000118795
1.6568e-06
0.000118221
1.62435e-06
0.000117665
1.57154e-06
0.000117132
1.5057e-06
0.000116617
1.45193e-06
0.000116114
1.42805e-06
0.000115616
1.41025e-06
0.000115145
1.33405e-06
0.000114735
1.13089e-06
0.000114403
8.8606e-07
0.000114103
8.08223e-07
0.000113745
1.0251e-06
0.000113277
1.4096e-06
0.000112782
1.47562e-06
0.000112509
6.83751e-07
0.000112662
-7.47815e-07
0.000113334
-2.44514e-06
0.000114259
-3.14843e-06
0.000114844
-1.80974e-06
0.000114755
5.38719e-07
0.000113758
3.60364e-06
0.000111999
6.0511e-06
0.000110757
3.86764e-06
0.000111377
-2.83004e-06
0.000114581
-1.16389e-05
0.000121314
-2.38419e-05
0.000133143
-4.26886e-05
0.000141801
-2.79691e-05
0.00012041
7.90374e-05
5.42549e-05
0.000212009
-1.31031e-05
0.000192136
-2.49022e-05
8.75123e-06
-2.74797e-05
-9.06058e-06
-6.26728e-05
0.000128471
-6.48346e-05
3.57601e-05
-0.000221936
7.25973e-05
2.36338e-06
-0.000303469
7.79854e-05
2.04713e-05
4.07914e-05
0.000162086
3.22317e-05
4.80848e-06
6.93775e-06
3.41266e-05
-8.37827e-05
0.000282143
-0.000165469
0.000297218
-0.000189649
0.00010521
-0.000179222
-3.85618e-05
-0.000165751
-5.68337e-05
-0.000158013
-3.20071e-05
-0.000154422
-1.54082e-05
-0.000153865
-3.40669e-06
-0.00015541
5.50281e-06
-0.000157458
8.18016e-06
-0.000158548
4.69059e-06
-0.000158551
4.46466e-07
-0.000157773
-2.74884e-06
-0.000156638
-4.47151e-06
-0.000155838
-3.41791e-06
-0.000155665
-1.06394e-06
-0.000156001
8.95468e-07
-0.000156584
1.94045e-06
-0.000157127
1.82169e-06
-0.000157533
1.28463e-06
-0.000157877
9.96075e-07
-0.000158261
1.11934e-06
-0.000158747
1.47775e-06
1.76168e-06
0.00016755
2.67244e-06
0.000166716
2.61647e-06
0.000165895
2.5809e-06
0.000165076
2.57586e-06
0.000164268
2.54488e-06
0.000163476
2.49901e-06
0.000162699
2.43269e-06
0.000161941
2.38273e-06
0.000161206
2.30652e-06
0.000160497
2.21435e-06
0.000159816
2.13281e-06
0.000159149
2.09602e-06
0.000158491
2.06726e-06
0.000157864
1.96135e-06
0.000157312
1.68243e-06
0.000156859
1.33953e-06
0.000156446
1.2209e-06
0.000155976
1.49517e-06
0.000155377
2.00909e-06
0.000154742
2.11036e-06
0.000154355
1.07027e-06
0.00015447
-8.6244e-07
0.000155201
-3.17618e-06
0.000156262
-4.20931e-06
0.000156975
-2.52305e-06
0.00015693
5.83934e-07
0.000155831
4.70244e-06
0.000153809
8.07374e-06
0.000152296
5.38022e-06
0.000152853
-3.3867e-06
0.000156385
-1.51713e-05
0.000163977
-3.14336e-05
0.000177208
-5.59199e-05
0.000187503
-3.82638e-05
0.000163884
0.000102656
8.35404e-05
0.000292353
-7.02314e-06
0.0002827
-3.23738e-05
3.41019e-05
-3.9704e-05
-1.73039e-06
-7.80704e-05
0.000166838
-7.52882e-05
3.29778e-05
-0.000294861
8.25409e-05
2.76038e-06
-0.00038877
9.33943e-05
9.61793e-06
5.49172e-05
0.000200563
3.98385e-05
1.98872e-05
-5.73601e-06
7.97011e-05
-0.000123792
0.0004002
-0.0002186
0.000392025
-0.000243949
0.000130558
-0.000232034
-5.04767e-05
-0.000217504
-7.13639e-05
-0.000209145
-4.03656e-05
-0.000205363
-1.91903e-05
-0.000204937
-3.83288e-06
-0.000206731
7.29732e-06
-0.000208978
1.04263e-05
-0.000210116
5.82954e-06
-0.000210041
3.71401e-07
-0.000209121
-3.66902e-06
-0.000207863
-5.72976e-06
-0.00020702
-4.2611e-06
-0.000206905
-1.17923e-06
-0.00020735
1.34086e-06
-0.000208066
2.65648e-06
-0.000208724
2.47996e-06
-0.000209234
1.79403e-06
-0.000209677
1.43945e-06
-0.000210182
1.62414e-06
-0.000210799
2.09485e-06
2.4583e-06
0.00022187
3.72991e-06
0.000220828
3.65841e-06
0.000219798
3.61056e-06
0.000218779
3.5953e-06
0.000217768
3.5563e-06
0.000216775
3.49202e-06
0.000215803
3.40403e-06
0.000214851
3.33449e-06
0.00021393
3.22816e-06
0.000213039
3.10552e-06
0.000212181
2.99018e-06
0.000211342
2.93561e-06
0.000210518
2.89074e-06
0.00020973
2.74956e-06
0.000209027
2.38504e-06
0.000208436
1.93054e-06
0.000207908
1.7494e-06
0.000207319
2.08406e-06
0.00020659
2.7382e-06
0.00020581
2.88985e-06
0.000205302
1.57876e-06
0.000205347
-9.07432e-07
0.000206108
-3.93727e-06
0.000207277
-5.37868e-06
0.000208118
-3.36385e-06
0.00020814
5.62507e-07
0.000206986
5.85646e-06
0.000204764
1.02954e-05
0.000203005
7.13942e-06
0.00020343
-3.81221e-06
0.000207145
-1.88857e-05
0.000215335
-3.96241e-05
0.000229588
-7.01728e-05
0.000241329
-5.00051e-05
0.000216577
0.000127409
0.000123407
0.000385523
5.85919e-06
0.000400247
-3.99456e-05
7.99067e-05
-5.3975e-05
1.2299e-05
-9.36537e-05
0.000206517
-8.55844e-05
2.49085e-05
-0.000377685
9.1929e-05
3.22391e-06
-0.000483923
0.000108331
-6.78367e-06
7.0528e-05
0.000238365
4.59831e-05
4.44321e-05
-2.76897e-05
0.000153374
-0.00017576
0.00054827
-0.00028124
0.000497505
-0.000306436
0.000155755
-0.0002932
-6.37131e-05
-0.000277922
-8.66415e-05
-0.000269192
-4.90965e-05
-0.000265365
-2.30173e-05
-0.000265106
-4.09124e-06
-0.000267124
9.31486e-06
-0.000269498
1.28006e-05
-0.000270618
6.94954e-06
-0.000270432
1.85161e-07
-0.000269369
-4.73225e-06
-0.000267999
-7.099e-06
-0.000267141
-5.11905e-06
-0.000267089
-1.23169e-06
-0.000267646
1.89788e-06
-0.000268485
3.49505e-06
-0.00026925
3.24568e-06
-0.000269855
2.399e-06
-0.0002704
1.98363e-06
-0.000271013
2.2375e-06
-0.000271757
2.83912e-06
3.28863e-06
0.000284866
4.98754e-06
0.000283627
4.89704e-06
0.0002824
4.8375e-06
0.000281181
4.81401e-06
0.000279976
4.7619e-06
0.000278792
4.67676e-06
0.000277629
4.56624e-06
0.000276492
4.47152e-06
0.000275388
4.33229e-06
0.000274323
4.17034e-06
0.000273292
4.02123e-06
0.00027229
3.93787e-06
0.0002713
3.87997e-06
0.000270353
3.69651e-06
0.000269502
3.23635e-06
0.000268783
2.64933e-06
0.000268136
2.39685e-06
0.000267434
2.78571e-06
0.000266581
3.5908e-06
0.000265665
3.80655e-06
0.000265031
2.21266e-06
0.000264999
-8.75929e-07
0.000265761
-4.69871e-06
0.000267026
-6.64347e-06
0.000267994
-4.33199e-06
0.000268111
4.44801e-07
0.000266964
7.00397e-06
0.000264606
1.26536e-05
0.000262617
9.12793e-06
0.000262869
-4.06372e-06
0.000266618
-2.26356e-05
0.000275165
-4.81705e-05
0.000290143
-8.51512e-05
0.000303185
-6.30468e-05
0.000278627
0.000151966
0.000175134
0.000489016
2.81881e-05
0.000547193
-4.59016e-05
0.000153996
-6.9773e-05
3.61704e-05
-0.000108809
0.000245553
-9.54449e-05
1.1544e-05
-0.000469906
0.000100589
3.75778e-06
-0.00058827
0.000122443
-2.86382e-05
8.66166e-05
0.000274192
4.86472e-05
8.24015e-05
-6.16474e-05
0.000263669
-0.000240736
0.000727359
-0.000353248
0.000610016
-0.000377084
0.000179591
-0.000362688
-7.81082e-05
-0.000346918
-0.000102411
-0.000338015
-5.80004e-05
-0.000334248
-2.67835e-05
-0.000334192
-4.14795e-06
-0.000336386
1.15096e-05
-0.000338816
1.52306e-05
-0.000339853
7.98559e-06
-0.000339513
-1.54294e-07
-0.000338292
-5.95373e-06
-0.000336823
-8.56754e-06
-0.000335959
-5.98348e-06
-0.000335978
-1.21237e-06
-0.000336641
2.56103e-06
-0.000337589
4.44299e-06
-0.000338447
4.10377e-06
-0.000339136
3.08732e-06
-0.000339766
2.61396e-06
-0.000340486
2.95718e-06
-0.000341345
3.69838e-06
4.24291e-06
0.000356156
6.43218e-06
0.000354724
6.32812e-06
0.000353312
6.24998e-06
0.000351906
6.21986e-06
0.000350515
6.15311e-06
0.000349142
6.04988e-06
0.000347801
5.90742e-06
0.000346486
5.78595e-06
0.000345203
5.61515e-06
0.000343968
5.40556e-06
0.000342777
5.2127e-06
0.000341612
5.10215e-06
0.000340469
5.02383e-06
0.000339369
4.79633e-06
0.000338376
4.22868e-06
0.000337528
3.49776e-06
0.000336773
3.15225e-06
0.000335967
3.59166e-06
0.000335002
4.55582e-06
0.000333957
4.85152e-06
0.000333199
2.97055e-06
0.000333078
-7.55505e-07
0.000333829
-5.44941e-06
0.000335175
-7.98978e-06
0.000336283
-5.43994e-06
0.000336535
1.93245e-07
0.000335452
8.08706e-06
0.000333019
1.50859e-05
0.000330836
1.13112e-05
0.00033087
-4.09782e-06
0.000334545
-2.63098e-05
0.000343249
-5.68745e-05
0.000358713
-0.000100616
0.000372919
-7.7253e-05
0.00034978
0.000175106
0.000239659
0.000599137
6.26759e-05
0.000724176
-4.81492e-05
0.000264821
-8.61072e-05
7.41284e-05
-0.000123143
0.000282589
-0.000104759
-6.84016e-06
-0.000570907
0.000108989
4.36588e-06
-0.000701625
0.000136022
-5.56707e-05
0.000101655
0.000308559
4.45721e-05
0.000139484
-0.000110395
0.000418635
-0.000318761
0.000935725
-0.000434292
0.000725547
-0.000456319
0.000201619
-0.000441001
-9.3426e-05
-0.000424931
-0.000118482
-0.000415995
-6.69367e-05
-0.000412348
-3.043e-05
-0.000412482
-4.01382e-06
-0.000414797
1.38242e-05
-0.00041721
1.76443e-05
-0.000418111
8.88573e-06
-0.000417594
-6.70602e-07
-0.000416215
-7.33254e-06
-0.000414654
-1.01287e-05
-0.00041379
-6.84745e-06
-0.000413881
-1.12141e-06
-0.000414649
3.32905e-06
-0.000415695
5.48876e-06
-0.000416633
5.04169e-06
-0.000417392
3.84665e-06
-0.000418107
3.32876e-06
-0.000418919
3.76915e-06
-0.00041989
4.66888e-06
5.31489e-06
0.000436143
8.05956e-06
0.000434518
7.95394e-06
0.000432915
7.85235e-06
0.000431321
7.81383e-06
0.00042974
7.7342e-06
0.000428187
7.6032e-06
0.000426659
7.43565e-06
0.000425162
7.28219e-06
0.000423707
7.07012e-06
0.0004223
6.81261e-06
0.000420943
6.56967e-06
0.000419621
6.42446e-06
0.00041832
6.32456e-06
0.000417068
6.04895e-06
0.000415931
5.36507e-06
0.000414961
4.46821e-06
0.000414093
4.01988e-06
0.000413189
4.49528e-06
0.000412119
5.62651e-06
0.000410951
6.01912e-06
0.000410065
3.85695e-06
0.00040985
-5.40965e-07
0.000410579
-6.17781e-06
0.000411996
-9.40683e-06
0.000413239
-6.68296e-06
0.000413643
-2.11286e-07
0.00041267
9.05985e-06
0.000410228
1.75281e-05
0.000407898
1.36415e-05
0.000407716
-3.91566e-06
0.000411248
-2.9842e-05
0.000419965
-6.55915e-05
0.000435725
-0.000116376
0.000450869
-9.23966e-05
0.000429608
0.000196367
0.00031689
0.000711855
0.000112
0.000929067
-4.33141e-05
0.000420135
-0.000101305
0.00013212
-0.000136918
0.000318202
-0.000113825
-2.99329e-05
-0.000680366
0.000117721
5.0366e-06
-0.000824383
0.000149038
-8.69873e-05
0.000114162
0.000343435
2.96132e-05
0.000224033
-0.000177094
0.000625342
-0.00040988
0.00116851
-0.000524741
0.000840408
-0.000545172
0.00022205
-0.000529265
-0.000109334
-0.000513048
-0.000134699
-0.000504146
-7.58386e-05
-0.000500615
-3.39611e-05
-0.000500897
-3.73163e-06
-0.000503276
1.62025e-05
-0.00050562
1.9989e-05
-0.000506354
9.61902e-06
-0.000505651
-1.37351e-06
-0.000504123
-8.86013e-06
-0.00050248
-1.17715e-05
-0.000501632
-7.69523e-06
-0.000501803
-9.50993e-07
-0.000502663
4.18948e-06
-0.000503802
6.62783e-06
-0.000504812
6.05151e-06
-0.000505645
4.67964e-06
-0.000506439
4.12246e-06
-0.000507352
4.68246e-06
-0.000508435
5.75106e-06
6.5038e-06
0.000526008
9.88739e-06
0.000524182
9.78017e-06
0.000522372
9.66177e-06
0.000520576
9.60992e-06
0.000518795
9.51571e-06
0.000517041
9.35697e-06
0.000515317
9.15959e-06
0.00051363
8.96933e-06
0.000511985
8.71467e-06
0.000510398
8.40047e-06
0.000508867
8.10024e-06
0.000507375
7.91696e-06
0.000505908
7.79118e-06
0.000504496
7.46078e-06
0.000503208
6.65358e-06
0.000502098
5.57768e-06
0.000501116
5.00166e-06
0.000500105
5.50628e-06
0.00049893
6.80179e-06
0.000497638
7.31142e-06
0.000496629
4.86594e-06
0.000496306
-2.18386e-07
0.000496991
-6.86259e-06
0.000498463
-1.08787e-05
0.000499828
-8.04815e-06
0.000500391
-7.74445e-07
0.000499555
9.89591e-06
0.00049715
1.99329e-05
0.000494723
1.60689e-05
0.00049436
-3.55313e-06
0.000497748
-3.32296e-05
0.000506407
-7.42503e-05
0.000522302
-0.000132272
0.000538038
-0.000108132
0.000518442
0.000215962
0.000406772
0.000823525
0.000179218
0.00115662
-2.71763e-05
0.000626529
-0.000113799
0.000218743
-0.000150208
0.000354611
-0.000123275
-5.68665e-05
-0.000798604
0.000126984
5.75881e-06
-0.000957126
0.000161101
-0.000121105
0.000122128
0.000382409
-1.58589e-07
0.00034632
-0.000263643
0.000888827
-0.000514277
0.00141914
-0.000625765
0.000951897
-0.000645205
0.00024149
-0.00062907
-0.000125469
-0.000612804
-0.000150964
-0.000603939
-8.47039e-05
-0.000600495
-3.74047e-05
-0.000600864
-3.36288e-06
-0.000603246
1.85851e-05
-0.000605498
2.22406e-05
-0.000606059
1.018e-05
-0.00060519
-2.24257e-06
-0.00060353
-1.05199e-05
-0.00060183
-1.34716e-05
-0.000601009
-8.51655e-06
-0.000601253
-7.06908e-07
-0.000602213
5.14914e-06
-0.000603439
7.85374e-06
-0.00060453
7.14296e-06
-0.000605437
5.58661e-06
-0.000606319
5.00434e-06
-0.000607341
5.70425e-06
-0.000608543
6.95295e-06
7.82172e-06
0.000627463
1.19321e-05
0.000625403
1.18404e-05
0.000623367
1.16975e-05
0.000621342
1.1635e-05
0.00061934
1.15181e-05
0.000617365
1.13318e-05
0.000615424
1.11009e-05
0.00061352
1.08729e-05
0.000611671
1.05637e-05
0.000609879
1.01927e-05
0.000608152
9.82684e-06
0.000606468
9.60172e-06
0.000604823
9.43602e-06
0.000603233
9.05048e-06
0.000601775
8.1112e-06
0.000600511
6.84193e-06
0.000599397
6.11537e-06
0.000598271
6.63301e-06
0.000596973
8.09914e-06
0.000595556
8.72908e-06
0.00059441
6.01123e-06
0.000593979
2.12952e-07
0.000594604
-7.4878e-06
0.000596102
-1.23762e-05
0.000597568
-9.51475e-06
0.000598266
-1.47258e-06
0.000597569
1.05927e-05
0.000595223
2.22791e-05
0.000592755
1.85372e-05
0.00059227
-3.06816e-06
0.000595537
-3.64972e-05
0.000604136
-8.28483e-05
0.000620061
-0.000148197
0.000636009
-0.00012408
0.000617456
0.000234515
0.000509412
0.00093157
0.000265571
0.00140046
3.90967e-06
0.00088819
-0.000121332
0.000343984
-0.000162598
0.000395877
-0.000133332
-8.6132e-05
-0.000926178
0.000136868
6.49669e-06
-0.00110049
0.000171675
-0.000155912
0.000122138
0.000431946
-4.90282e-05
0.000517486
-0.00037014
0.00120994
-0.00063249
0.00168149
-0.000739054
0.00105846
-0.000758279
0.000260715
-0.000742282
-0.000141466
-0.000726042
-0.000167205
-0.000717175
-9.35706e-05
-0.000713756
-4.08239e-05
-0.00071415
-2.96889e-06
-0.000716505
2.09406e-05
-0.000718654
2.43892e-05
-0.00071907
1.05963e-05
-0.000718062
-3.25015e-06
-0.000716305
-1.22774e-05
-0.000714564
-1.52122e-05
-0.000713776
-9.30477e-06
-0.000714109
-3.74207e-07
-0.000715164
6.20403e-06
-0.000716491
9.18043e-06
-0.000717668
8.32025e-06
-0.000718662
6.58114e-06
-0.000719645
5.98735e-06
-0.000720783
6.84162e-06
-0.000722122
8.29257e-06
9.285e-06
0.000742529
1.42287e-05
0.000740207
1.41623e-05
0.000737905
1.39995e-05
0.000735626
1.39137e-05
0.000733365
1.3779e-05
0.000731135
1.35622e-05
0.000728945
1.32904e-05
0.000726802
1.30167e-05
0.000724709
1.26563e-05
0.000722688
1.2214e-05
0.000720737
1.17777e-05
0.000718843
1.14958e-05
0.000716986
1.12927e-05
0.000715194
1.08423e-05
0.000713542
9.76371e-06
0.000712106
8.27744e-06
0.000710838
7.38314e-06
0.000709573
7.89793e-06
0.000708142
9.53051e-06
0.000706577
1.02944e-05
0.000705292
7.29616e-06
0.00070473
7.74606e-07
0.000705283
-8.0408e-06
0.000706784
-1.38774e-05
0.000708314
-1.10447e-05
0.000709117
-2.27552e-06
0.000708531
1.11791e-05
0.000706253
2.45575e-05
0.000703774
2.10153e-05
0.000703228
-2.52162e-06
0.000706438
-3.97074e-05
0.000715015
-9.14253e-05
0.000730895
-0.000164077
0.000746684
-0.000139868
0.000728373
0.000252825
0.000625323
0.00103462
0.000370999
0.00165479
5.40086e-05
0.00120518
-0.000120373
0.000518366
-0.000173379
0.000448883
-0.000143989
-0.000115522
-0.00106367
0.000147184
7.26233e-06
-0.00125494
0.000180867
-0.000189596
0.000111568
0.000501245
-0.000119841
0.000748895
-0.00049714
0.00158724
-0.000765491
0.00194985
-0.000866738
0.00115971
-0.000886502
0.000280479
-0.000870937
-0.00015703
-0.000854795
-0.000183347
-0.000845877
-0.000102488
-0.000842426
-4.42755e-05
-0.000842799
-2.59605e-06
-0.000845112
2.32543e-05
-0.00084719
2.6467e-05
-0.000847496
1.09021e-05
-0.000846395
-4.35077e-06
-0.000844573
-1.40996e-05
-0.000842809
-1.69761e-05
-0.000842068
-1.00458e-05
-0.000842485
4.31e-08
-0.000843651
7.36978e-06
-0.000845088
1.06173e-05
-0.000846362
9.59435e-06
-0.000847466
7.68444e-06
-0.000848574
7.09537e-06
-0.000849848
8.11628e-06
-0.000851339
9.783e-06
1.09201e-05
0.000873476
1.68146e-05
0.000870845
1.67935e-05
0.000868244
1.66009e-05
0.000865659
1.64988e-05
0.000863104
1.63333e-05
0.000860586
1.6081e-05
0.000858109
1.57664e-05
0.000855679
1.54475e-05
0.000853312
1.50225e-05
0.000851022
1.45042e-05
0.000848816
1.39838e-05
0.000846673
1.36394e-05
0.000844575
1.33898e-05
0.000842547
1.28704e-05
0.000840678
1.16332e-05
0.00083904
9.9155e-06
0.000837584
8.83888e-06
0.00083615
9.33199e-06
0.000834563
1.1117e-05
0.000832833
1.2025e-05
0.000831385
8.74434e-06
0.000830689
1.47e-06
0.00083115
-8.50106e-06
0.000832632
-1.53598e-05
0.000834188
-1.26011e-05
0.000835048
-3.13559e-06
0.000834537
1.16902e-05
0.000832296
2.67991e-05
0.000829825
2.34863e-05
0.000829266
-1.96242e-06
0.000832478
-4.292e-05
0.000841087
-0.000100034
0.000856857
-0.000179847
0.000872199
-0.000155211
0.000853348
0.000271677
0.000755461
0.00113251
0.000495968
0.00191428
0.000125421
0.00157573
-0.000108631
0.000752418
-0.000182514
0.000522766
-0.000155001
-0.000143035
-0.00121141
0.000158098
8.01367e-06
-0.00142105
0.000188178
-0.000219676
8.85884e-05
0.000600835
-0.00021444
0.00105192
-0.000645625
0.00201842
-0.000914401
0.00221862
-0.0010109
0.0012562
-0.00103206
0.000301646
-0.00101729
-0.000171805
-0.00100131
-0.000199323
-0.000992311
-0.00011149
-0.000988772
-4.78143e-05
-0.0009891
-2.26795e-06
-0.000991385
2.55389e-05
-0.00099343
2.85122e-05
-0.00099368
1.11512e-05
-0.000992535
-5.49536e-06
-0.00099068
-1.59548e-05
-0.000988917
-1.87386e-05
-0.000988227
-1.07358e-05
-0.000988747
5.62502e-07
-0.000990029
8.6518e-06
-0.000991592
1.21805e-05
-0.000992998
1.10003e-05
-0.000994232
8.91915e-06
-0.000995479
8.34164e-06
-0.000996921
9.55889e-06
-0.000998596
1.14576e-05
1.27485e-05
0.00102279
1.97386e-05
0.00101981
1.97779e-05
0.00101685
1.95614e-05
0.00101392
1.94248e-05
0.00101102
1.92349e-05
0.00100816
1.89418e-05
0.00100535
1.85757e-05
0.0010026
1.82007e-05
0.000999909
1.77104e-05
0.00099731
1.71024e-05
0.0009948
1.64941e-05
0.000992367
1.60723e-05
0.000989986
1.5771e-05
0.000987692
1.51645e-05
0.000985563
1.37621e-05
0.000983682
1.1797e-05
0.000982014
1.05067e-05
0.000980377
1.09688e-05
0.00097859
1.29037e-05
0.000976668
1.39472e-05
0.000975042
1.03704e-05
0.000974187
2.3249e-06
0.000974543
-8.85721e-06
0.000975976
-1.67927e-05
0.000977522
-1.41474e-05
0.000978388
-4.00102e-06