/*--------------------------------*- C++ -*----------------------------------*\
| =========                 |                                                 |
| \\      /  F ield         | OpenFOAM: The Open Source CFD Toolbox           |
|  \\    /   O peration     | Version:  2412                                  |
|   \\  /    A nd           | Website:  www.openfoam.com                      |
|    \\/     M anipulation  |                                                 |
\*---------------------------------------------------------------------------*/
FoamFile
{
    version     2.0;
    format      ascii;
    arch        "LSB;label=32;scalar=64";
    class       volVectorField;
    location    "80";
    object      U;
}
// * * * * * * * * * * * * * * * * * * * * * * * * * * * * * * * * * * * * * //

dimensions      [0 1 -1 0 0 0 0];

internalField   nonuniform List<vector> 
7373
(
(0.796824 -0.0639724 0)
(0.79811 -0.0653225 3.10336e-26)
(0.799307 -0.0667102 -1.2883e-19)
(0.800412 -0.0681372 -1.28343e-19)
(0.801425 -0.0696059 0)
(0.802341 -0.0711194 0)
(0.803176 -0.0726821 -3.09903e-26)
(0.803911 -0.0742951 -1.29723e-19)
(0.804546 -0.0759616 -6.3088e-28)
(0.805087 -0.0776852 1.32525e-19)
(0.805511 -0.0794683 -1.345e-19)
(0.80581 -0.0813124 -1.36879e-19)
(0.805979 -0.0832206 2.79342e-19)
(0.806016 -0.0851973 3.35805e-26)
(0.805911 -0.0872447 -2.9326e-19)
(0.805636 -0.0893637 3.01736e-19)
(0.805183 -0.0915565 -3.11316e-19)
(0.804543 -0.0938249 0)
(0.803702 -0.0961734 0)
(0.802643 -0.0986007 2.56491e-25)
(0.801341 -0.101107 -3.62461e-19)
(0.799769 -0.103693 -3.66418e-25)
(0.797922 -0.10636 -9.71083e-26)
(0.795785 -0.109108 9.72204e-26)
(0.793328 -0.111935 3.05943e-25)
(0.790523 -0.11484 4.64882e-19)
(0.787344 -0.117816 -4.92183e-19)
(0.783776 -0.120866 5.22269e-19)
(0.779801 -0.123984 1.11081e-18)
(0.775394 -0.127167 -5.91895e-19)
(0.770548 -0.130413 0)
(0.765227 -0.133712 -4.31615e-25)
(0.759401 -0.13706 -7.24978e-19)
(0.753073 -0.140452 -1.8007e-25)
(0.746218 -0.143881 8.37525e-19)
(0.738809 -0.147336 -9.02452e-19)
(0.73082 -0.150811 -9.73958e-19)
(0.722232 -0.154294 -1.05273e-18)
(0.713017 -0.157773 -1.78297e-26)
(0.70314 -0.161235 2.4706e-18)
(0.69259 -0.164667 0)
(0.681359 -0.168066 0)
(0.669433 -0.171415 -3.17316e-18)
(0.656838 -0.174719 -7.98098e-25)
(0.643613 -0.177975 1.88731e-18)
(0.629771 -0.181188 -6.65781e-26)
(0.615411 -0.184387 2.25712e-18)
(0.600601 -0.187596 1.14121e-24)
(0.585426 -0.19085 0)
(0.569983 -0.194203 0)
(0.55436 -0.19772 0)
(0.538598 -0.201453 3.61936e-18)
(0.522709 -0.205473 -3.99607e-18)
(0.506568 -0.209797 -4.41894e-18)
(0.489967 -0.214447 -4.89395e-18)
(0.47246 -0.219322 -5.42825e-18)
(0.453287 -0.224157 6.02856e-18)
(0.431243 -0.228424 -6.70142e-18)
(0.404337 -0.230999 0)
(0.369439 -0.229629 -8.27509e-18)
(0.321182 -0.219743 -9.16148e-18)
(0.250151 -0.191327 -1.00674e-17)
(0.143164 -0.125078 1.42383e-23)
(-0.0174741 0.0185928 5.65661e-18)
(-0.239513 0.31066 -4.34449e-24)
(-0.462119 0.82433 3.98247e-18)
(-0.578495 1.76243 -6.71815e-19)
(-0.22439 2.80975 8.28065e-19)
(2.4935 -0.200193 0)
(2.49742 -0.20441 2.21563e-19)
(2.50104 -0.208741 2.20218e-19)
(2.50436 -0.213195 -2.1946e-19)
(2.50744 -0.217783 0)
(2.51021 -0.222509 0)
(2.5127 -0.227387 2.20583e-19)
(2.51489 -0.232424 2.2207e-19)
(2.51678 -0.237628 -5.29338e-26)
(2.51835 -0.243008 -2.26895e-19)
(2.51956 -0.248574 2.30275e-19)
(2.52039 -0.254333 2.34341e-19)
(2.52084 -0.260292 -7.45269e-25)
(2.52084 -0.266462 0)
(2.52038 -0.272851 0)
(2.5194 -0.279465 -5.16137e-19)
(2.51787 -0.28631 5.32339e-19)
(2.51576 -0.29339 4.97902e-27)
(2.513 -0.300719 -2.72413e-25)
(2.50955 -0.308291 1.18689e-18)
(2.50535 -0.316112 6.186e-19)
(2.50031 -0.324182 -1.24877e-24)
(2.49441 -0.332501 -6.77391e-19)
(2.48758 -0.341072 7.11532e-19)
(2.47975 -0.349889 7.49237e-19)
(2.47082 -0.358943 -1.83838e-25)
(2.46073 -0.368224 -2.05061e-25)
(2.44941 -0.377728 4.23535e-25)
(2.4368 -0.387442 -9.4278e-19)
(2.42283 -0.397356 1.00398e-18)
(2.40748 -0.407464 0)
(2.39064 -0.417736 -1.14547e-18)
(2.37222 -0.428154 0)
(2.3522 -0.438701 0)
(2.33052 -0.449361 -2.21663e-24)
(2.30709 -0.460095 1.52417e-18)
(2.28183 -0.470881 -7.59856e-25)
(2.25466 -0.481677 2.52601e-24)
(2.2255 -0.492452 1.92082e-18)
(2.19425 -0.503161 -2.08091e-18)
(2.16087 -0.513766 -2.25753e-18)
(2.12534 -0.524244 -2.34231e-24)
(2.08758 -0.534552 2.66797e-18)
(2.0477 -0.544684 0)
(2.00579 -0.554655 -6.34032e-18)
(1.96194 -0.564462 0)
(1.91643 -0.574197 -3.78743e-18)
(1.86946 -0.583923 2.04819e-24)
(1.82131 -0.593752 -2.09971e-24)
(1.77228 -0.603858 0)
(1.72266 -0.614415 0)
(1.67256 -0.62559 -6.05883e-18)
(1.62201 -0.637604 0)
(1.57066 -0.650506 -7.39026e-18)
(1.51785 -0.664326 8.18073e-18)
(1.46217 -0.678753 9.0692e-18)
(1.40129 -0.692962 0)
(1.3315 -0.705286 1.11838e-17)
(1.24666 -0.712187 1.24265e-17)
(1.13716 -0.706797 2.75818e-17)
(0.986697 -0.674983 1.4911e-23)
(0.766843 -0.586393 -1.67434e-17)
(0.43831 -0.382733 3.60916e-17)
(-0.050438 0.0539245 -7.20965e-23)
(-0.719621 0.93291 0)
(-1.38509 2.46714 0)
(-1.72885 5.24522 1.34955e-18)
(-0.674587 8.37027 -4.23944e-18)
(4.40832 -0.353929 0)
(4.41501 -0.361363 -5.00498e-19)
(4.42112 -0.368996 0)
(4.42672 -0.376846 2.47873e-19)
(4.4319 -0.384932 1.51725e-27)
(4.43655 -0.393265 -1.17487e-25)
(4.44071 -0.401864 -2.49138e-19)
(4.44435 -0.410744 0)
(4.44745 -0.419917 2.53189e-19)
(4.44995 -0.429397 0)
(4.45184 -0.439209 2.60077e-19)
(4.45307 -0.449359 1.2793e-25)
(4.45361 -0.459863 -1.09077e-24)
(4.45337 -0.470736 -1.33789e-25)
(4.45228 -0.481994 1.33046e-25)
(4.4503 -0.493651 5.82915e-19)
(4.44735 -0.505713 6.01206e-19)
(4.44336 -0.518188 0)
(4.43822 -0.531099 -6.44644e-19)
(4.43185 -0.544437 -1.34041e-18)
(4.42414 -0.558213 6.98603e-19)
(4.41498 -0.572428 -7.30124e-19)
(4.40426 -0.587078 1.25203e-24)
(4.39189 -0.602168 -8.03543e-19)
(4.37775 -0.61769 8.46112e-19)
(4.36167 -0.633625 -8.93081e-19)
(4.34352 -0.64996 0)
(4.32319 -0.66668 1.00188e-18)
(4.30056 -0.683766 0)
(4.27554 -0.701203 1.13378e-18)
(4.24804 -0.718968 0)
(4.2179 -0.73702 -1.29356e-18)
(4.18497 -0.755319 -6.41474e-25)
(4.14916 -0.773835 1.48698e-18)
(4.11037 -0.792529 -1.59851e-18)
(4.06846 -0.811349 0)
(4.02329 -0.830233 -9.14709e-25)
(3.9747 -0.849123 2.00523e-18)
(3.92254 -0.867947 -2.16924e-18)
(3.86663 -0.886632 1.08552e-24)
(3.80692 -0.905109 2.54956e-18)
(3.74333 -0.923321 0)
(3.67576 -0.941194 0)
(3.60434 -0.95872 0)
(3.52928 -0.975903 5.33431e-24)
(3.45071 -0.992761 3.91092e-18)
(3.36914 -1.00942 0)
(3.28492 -1.026 0)
(3.19856 -1.04271 -5.07568e-24)
(3.11061 -1.05982 -3.66251e-25)
(3.02152 -1.07763 5.73143e-24)
(2.93155 -1.09645 0)
(2.84076 -1.11663 7.46188e-24)
(2.74853 -1.13828 8.34761e-18)
(2.65372 -1.16141 -9.24047e-18)
(2.55383 -1.18543 1.0244e-17)
(2.44479 -1.20891 0)
(2.3201 -1.22886 -1.24641e-23)
(2.16911 -1.23903 -1.40365e-17)
(1.97508 -1.22745 -1.97957e-23)
(1.70993 -1.16946 0)
(1.32508 -1.01286 1.89137e-17)
(0.754263 -0.657923 -4.0768e-17)
(-0.0872602 0.0943103 -5.9995e-23)
(-1.22887 1.59376 1.60975e-23)
(-2.35485 4.19104 7.30981e-18)
(-2.92582 8.84899 -1.00945e-18)
(-1.1508 14.1169 3.15285e-18)
(6.55984 -0.526672 2.83456e-19)
(6.56924 -0.537687 2.31099e-25)
(6.57778 -0.548999 -1.33858e-25)
(6.5856 -0.560634 -2.7836e-19)
(6.59277 -0.572617 0)
(6.59918 -0.584967 1.33882e-25)
(6.60488 -0.597713 2.79775e-19)
(6.60981 -0.610876 0)
(6.61391 -0.624471 -2.84323e-19)
(6.61714 -0.638522 -1.35773e-25)
(6.61948 -0.653065 -3.89768e-25)
(6.62082 -0.668107 2.97211e-19)
(6.62112 -0.683673 -6.88743e-25)
(6.62028 -0.699786 -6.20399e-19)
(6.61818 -0.71647 -6.36401e-19)
(6.61476 -0.733745 1.53527e-25)
(6.60989 -0.751617 -6.7514e-19)
(6.60347 -0.770101 3.26869e-25)
(6.59535 -0.789229 7.23935e-19)
(6.58536 -0.808986 7.52652e-19)
(6.57339 -0.829389 -7.84557e-19)
(6.55927 -0.850445 8.19971e-19)
(6.54283 -0.872139 8.17177e-25)
(6.52392 -0.894484 0)
(6.50235 -0.917459 -8.5251e-25)
(6.4779 -0.941046 9.67493e-25)
(6.45037 -0.965221 -5.20229e-25)
(6.4196 -0.989959 -4.61927e-25)
(6.3854 -1.01524 -5.54899e-25)
(6.34763 -1.04102 -1.27374e-18)
(6.30613 -1.06728 3.81369e-26)
(6.26065 -1.09395 2.90689e-18)
(6.21102 -1.12097 7.20823e-25)
(6.15707 -1.1483 -2.24499e-24)
(6.09861 -1.17587 0)
(6.03546 -1.20359 -9.52998e-25)
(5.96737 -1.23139 9.64648e-25)
(5.89413 -1.25915 1.11118e-24)
(5.8155 -1.28678 -1.12692e-24)
(5.73119 -1.31415 -2.64288e-18)
(5.64113 -1.34117 -2.82877e-24)
(5.5452 -1.36773 -3.11585e-18)
(5.44324 -1.39373 3.39022e-18)
(5.33543 -1.41914 3.69377e-18)
(5.22208 -1.44394 4.02993e-18)
(5.10339 -1.46819 -4.40273e-18)
(4.98008 -1.49201 -4.75553e-24)
(4.8527 -1.51562 -5.27676e-18)
(4.72202 -1.5393 5.7892e-18)
(4.58886 -1.56341 0)
(4.45392 -1.58843 -6.91359e-24)
(4.31763 -1.61482 7.713e-18)
(4.18009 -1.64301 0)
(4.04042 -1.67324 0)
(3.89694 -1.70543 1.04198e-17)
(3.7459 -1.73868 -2.3107e-17)
(3.58139 -1.77084 0)
(3.39373 -1.79738 0)
(3.1673 -1.80904 1.58405e-17)
(2.8777 -1.78812 -3.51689e-17)
(2.48406 -1.69851 0)
(1.91675 -1.46442 0)
(1.08217 -0.942706 2.30172e-17)
(-0.135465 0.14804 -1.19443e-17)
(-1.76975 2.29797 -1.1289e-17)
(-3.3641 5.98932 -1.64161e-17)
(-4.14372 12.5226 -5.62166e-19)
(-1.62885 19.9231 3.46418e-18)
(8.95343 -0.718852 -3.13888e-19)
(8.96533 -0.733811 3.112e-19)
(8.97605 -0.749169 -1.33716e-27)
(8.9858 -0.764968 3.08237e-19)
(8.9947 -0.781241 0)
(9.00259 -0.798014 0)
(9.00952 -0.815326 -6.19609e-19)
(9.01541 -0.833204 0)
(9.0202 -0.851669 3.14844e-19)
(9.02381 -0.870756 -3.18669e-19)
(9.02619 -0.890508 -1.77799e-26)
(9.02723 -0.910939 -3.29133e-19)
(9.02684 -0.93208 -6.71633e-19)
(9.02493 -0.953967 6.87072e-19)
(9.02134 -0.976629 7.04821e-19)
(9.01591 -1.00009 0)
(9.00852 -1.02436 -7.47794e-19)
(8.99901 -1.04947 -1.39893e-26)
(8.9872 -1.07545 3.75094e-25)
(8.97284 -1.10228 -8.33818e-19)
(8.9558 -1.12998 4.23921e-25)
(8.93582 -1.15857 -1.4997e-25)
(8.91271 -1.18803 9.52094e-19)
(8.88622 -1.21837 -4.89114e-25)
(8.8561 -1.24956 -2.26552e-25)
(8.82205 -1.28157 1.1121e-18)
(8.78383 -1.31438 1.17682e-18)
(8.74118 -1.34795 -1.24815e-18)
(8.69386 -1.38225 1.32671e-18)
(8.64164 -1.41723 1.34943e-24)
(8.5843 -1.45283 -1.44045e-24)
(8.52151 -1.48897 -3.22693e-18)
(8.45303 -1.52559 0)
(8.3786 -1.56259 -3.71232e-18)
(8.29793 -1.59989 -1.99624e-18)
(8.21078 -1.63736 1.98877e-24)
(8.11679 -1.67489 2.32056e-18)
(8.01566 -1.71233 2.50796e-18)
(7.90704 -1.74953 1.68306e-25)
(7.79055 -1.78631 2.94274e-18)
(7.66604 -1.82254 -3.1513e-24)
(7.53334 -1.85805 3.47296e-18)
(7.39226 -1.89272 -3.78085e-18)
(7.24299 -1.92644 -4.12176e-18)
(7.08592 -1.95925 0)
(6.92137 -1.99112 4.91887e-18)
(6.75025 -2.02227 -5.38468e-18)
(6.57334 -2.05294 -2.45785e-24)
(6.39171 -2.08349 -6.48048e-18)
(6.20649 -2.11444 -7.12479e-18)
(6.01867 -2.14638 -7.23891e-24)
(5.82895 -2.17995 -8.65077e-18)
(5.63742 -2.21573 -1.82552e-23)
(5.44306 -2.254 -1.05688e-17)
(5.24353 -2.29461 -1.17084e-17)
(5.03369 -2.3363 1.29903e-17)
(4.80566 -2.37603 0)
(4.54616 -2.40754 0)
(4.23416 -2.41813 -3.56923e-17)
(3.83695 -2.38378 1.9825e-17)
(3.29998 -2.25578 2.1948e-17)
(2.53175 -1.93319 0)
(1.41188 -1.22795 2.59772e-17)
(-0.202461 0.223278 -4.87504e-23)
(-2.34214 3.0467 2.54008e-17)
(-4.40083 7.84403 9.17364e-18)
(-5.35224 16.1861 1.24106e-18)
(-2.09012 25.6025 -1.86736e-18)
(11.5608 -0.928197 -3.2144e-25)
(11.5747 -0.947393 3.20679e-25)
(11.5871 -0.967105 -3.32873e-19)
(11.5984 -0.987385 0)
(11.6086 -1.00828 0)
(11.6175 -1.02981 -3.19122e-25)
(11.6252 -1.05204 3.33453e-19)
(11.6316 -1.075 3.35717e-19)
(11.6367 -1.09871 -3.38913e-19)
(11.6402 -1.12323 3.43053e-19)
(11.6422 -1.1486 -3.48194e-19)
(11.6424 -1.17484 -3.33737e-25)
(11.6409 -1.202 0)
(11.6374 -1.23012 7.39937e-19)
(11.6318 -1.25924 0)
(11.6239 -1.28938 0)
(11.6134 -1.32057 1.61137e-18)
(11.6003 -1.35283 0)
(11.5842 -1.38621 8.6436e-19)
(11.5649 -1.42069 -1.97849e-24)
(11.5422 -1.4563 -9.37349e-19)
(11.5157 -1.49305 -9.80029e-19)
(11.4852 -1.53092 5.01911e-25)
(11.4504 -1.56992 -1.0796e-18)
(11.4109 -1.61002 2.3996e-24)
(11.3665 -1.65118 -1.20127e-18)
(11.3167 -1.69337 -1.27175e-18)
(11.2612 -1.73654 -1.34947e-18)
(11.1997 -1.78064 -1.43517e-18)
(11.132 -1.82562 1.52965e-18)
(11.0576 -1.87139 -1.51421e-24)
(10.9762 -1.91786 1.74859e-18)
(10.8875 -1.96493 1.845e-24)
(10.791 -2.01246 2.0146e-18)
(10.6864 -2.06036 2.16844e-18)
(10.5734 -2.10846 2.16227e-24)
(10.4514 -2.15659 -2.5254e-18)
(10.3201 -2.20455 -2.73213e-18)
(10.1789 -2.25215 2.73556e-24)
(10.0274 -2.29914 0)
(9.86532 -2.34532 -3.44491e-24)
(9.69242 -2.3905 -3.80145e-18)
(9.50841 -2.43445 -4.14409e-18)
(9.31351 -2.47706 -4.52416e-18)
(9.10818 -2.51829 4.88224e-24)
(8.8928 -2.55814 -1.08307e-17)
(8.66849 -2.59683 1.18751e-17)
(8.43628 -2.63463 6.51947e-18)
(8.19752 -2.672 0)
(7.95375 -2.70956 7.89449e-18)
(7.70625 -2.74807 1.60679e-23)
(7.45609 -2.78833 -1.90003e-23)
(7.20339 -2.83106 -1.06375e-17)
(6.94705 -2.87664 -8.00479e-24)
(6.68396 -2.92479 1.30755e-17)
(6.40753 -2.97373 0)
(6.1077 -3.01957 3.19247e-23)
(5.76716 -3.05386 -3.32416e-23)
(5.35903 -3.06015 2.00533e-17)
(4.84157 -3.00735 -2.23108e-17)
(4.14568 -2.83294 -4.94628e-17)
(3.15756 -2.40944 5.06635e-23)
(1.73178 -1.50317 -2.92958e-17)
(-0.295408 0.327984 5.82157e-23)
(-2.94304 3.83688 -1.42493e-17)
(-5.44823 9.72657 -4.72264e-23)
(-6.51888 19.7409 1.4537e-23)
(-2.51834 30.9572 1.97771e-18)
(14.2922 -1.14752 3.31512e-25)
(14.3077 -1.1711 -3.43593e-19)
(14.3213 -1.19532 3.41547e-19)
(14.3336 -1.22024 3.4042e-19)
(14.3445 -1.24592 -3.26661e-25)
(14.3541 -1.2724 3.22812e-25)
(14.3622 -1.29973 0)
(14.3687 -1.32797 -3.44723e-19)
(14.3736 -1.35714 0)
(14.3768 -1.3873 3.52403e-19)
(14.378 -1.41852 -3.57767e-19)
(14.3773 -1.45082 3.64213e-19)
(14.3744 -1.48425 -3.59724e-25)
(14.3691 -1.51886 -7.60905e-19)
(14.3613 -1.55472 -7.8092e-19)
(14.3507 -1.59185 0)
(14.3371 -1.63027 4.98378e-24)
(14.3203 -1.67003 0)
(14.2999 -1.71117 -8.9061e-19)
(14.2757 -1.75369 9.26693e-19)
(14.2473 -1.79761 9.66836e-19)
(14.2144 -1.84295 -9.87467e-25)
(14.1768 -1.88968 1.06094e-18)
(14.1339 -1.93783 1.11574e-18)
(14.0854 -1.98735 -1.17638e-18)
(14.0308 -2.0382 1.24346e-18)
(13.9698 -2.09035 1.22426e-24)
(13.9019 -2.14373 1.39947e-18)
(13.8268 -2.19828 1.48991e-18)
(13.744 -2.25395 -1.58977e-18)
(13.6532 -2.31062 0)
(13.5537 -2.36817 1.82192e-18)
(13.4452 -2.42648 -1.95653e-18)
(13.3272 -2.4854 2.10525e-18)
(13.1992 -2.54477 2.2697e-18)
(13.0607 -2.6044 -2.45159e-18)
(12.9111 -2.66405 -2.6529e-18)
(12.7498 -2.72349 -2.87582e-18)
(12.5762 -2.78246 -3.12286e-18)
(12.3896 -2.84065 3.39689e-18)
(12.1896 -2.89778 0)
(11.9759 -2.95358 4.03902e-18)
(11.7482 -3.00776 8.82984e-18)
(11.5064 -3.06016 4.83346e-18)
(11.2512 -3.11066 -5.29992e-18)
(10.9829 -3.15924 -2.8231e-23)
(10.7028 -3.20608 -6.40183e-18)
(10.4121 -3.2515 2.69445e-23)
(10.1125 -3.29601 7.78008e-18)
(9.80591 -3.34032 0)
(9.49392 -3.38535 1.87911e-23)
(9.17807 -3.43207 -1.05399e-17)
(8.85851 -3.48132 -5.2396e-23)
(8.53419 -3.53361 2.59984e-17)
(8.20111 -3.58841 1.44674e-17)
(7.8512 -3.64345 0)
(7.47202 -3.69373 0)
(7.04172 -3.72836 -3.96626e-23)
(6.52713 -3.7266 2.24551e-17)
(5.87677 -3.64952 2.50502e-17)
(5.00611 -3.41954 2.78267e-17)
(3.77927 -2.8815 0)
(2.02906 -1.75679 -3.3002e-17)
(-0.420596 0.469247 0)
(-3.56554 4.66052 0)
(-6.48446 11.5995 1.12383e-17)
(-7.60668 23.0887 7.37266e-19)
(-2.8997 35.8329 -2.07831e-18)
(16.989 -1.36405 0)
(17.0056 -1.39193 -3.58042e-24)
(17.0201 -1.42058 3.29203e-19)
(17.0332 -1.45007 -3.28225e-19)
(17.0448 -1.48046 -6.3015e-25)
(17.0548 -1.51181 6.22957e-25)
(17.0633 -1.54418 0)
(17.07 -1.57762 3.32894e-19)
(17.0748 -1.61219 0)
(17.0778 -1.64793 -6.81228e-19)
(17.0786 -1.68495 3.45968e-19)
(17.0771 -1.72326 -3.52387e-19)
(17.0732 -1.76292 1.3737e-24)
(17.0667 -1.804 -1.40679e-24)
(17.0573 -1.84657 7.56918e-19)
(17.0447 -1.89068 7.79521e-19)
(17.0288 -1.93634 -8.05048e-19)
(17.0092 -1.9836 0)
(16.9856 -2.03254 0)
(16.9576 -2.08313 9.01725e-19)
(16.9249 -2.13543 8.79294e-25)
(16.8871 -2.18945 0)
(16.8439 -2.24518 -2.07101e-18)
(16.7947 -2.30262 -1.09027e-18)
(16.7391 -2.36175 -1.15098e-18)
(16.6767 -2.42252 1.21824e-18)
(16.6068 -2.48489 0)
(16.529 -2.54879 1.37519e-18)
(16.443 -2.61418 -1.46646e-18)
(16.3481 -2.68095 0)
(16.2438 -2.749 0)
(16.1297 -2.8182 -3.60716e-18)
(16.005 -2.88838 1.94109e-18)
(15.8692 -2.95937 -2.0936e-18)
(15.7216 -3.031 1.60179e-23)
(15.5617 -3.10302 -1.7033e-23)
(15.3887 -3.17518 5.32007e-18)
(15.2017 -3.24715 5.78532e-18)
(15.0001 -3.31863 3.15175e-18)
(14.7828 -3.38924 2.00302e-23)
(14.5495 -3.45864 6.9519e-24)
(14.2994 -3.52645 -4.12372e-18)
(14.0321 -3.59233 -4.52701e-18)
(13.7476 -3.656 0)
(13.4461 -3.71729 5.48566e-18)
(13.1281 -3.77609 -2.62043e-23)
(12.7949 -3.83253 -6.69466e-18)
(12.4477 -3.88692 0)
(12.0885 -3.93977 4.68459e-23)
(11.7194 -3.99187 0)
(11.3425 -4.04421 0)
(10.9596 -4.09797 -6.1102e-23)
(10.5711 -4.15403 -1.17813e-22)
(10.176 -4.21305 -1.41344e-17)
(9.76918 -4.27415 -3.16311e-17)
(9.34126 -4.33453 1.77196e-17)
(8.8771 -4.38783 1.98742e-17)
(8.34985 -4.42036 8.80536e-23)
(7.71952 -4.40656 -5.00871e-17)
(6.92414 -4.29874 -2.80528e-17)
(5.86312 -4.003 1.1598e-22)
(4.37974 -3.33595 0)
(2.29028 -1.9766 3.71206e-17)
(-0.582618 0.652504 1.38508e-22)
(-4.19828 5.50398 -1.42489e-22)
(-7.48332 13.4207 -2.46148e-17)
(-8.58636 26.14 -1.59198e-18)
(-3.22842 40.1417 -4.36331e-18)
(19.474 -1.56359 5.76053e-25)
(19.4918 -1.59545 3.00382e-19)
(19.5076 -1.62821 -2.98873e-19)
(19.5218 -1.66195 -5.65866e-25)
(19.5346 -1.69673 5.72817e-25)
(19.5456 -1.73261 -5.66646e-25)
(19.555 -1.76968 0)
(19.5626 -1.808 4.82088e-24)
(19.5682 -1.84761 3.0652e-19)
(19.5717 -1.88859 3.107e-19)
(19.573 -1.93105 3.15839e-19)
(19.5719 -1.97501 6.22484e-25)
(19.5681 -2.02054 -6.58173e-19)
(19.5617 -2.06773 0)
(19.5521 -2.11666 0)
(19.5392 -2.16737 -1.42962e-18)
(19.5226 -2.2199 -7.38998e-19)
(19.5021 -2.27431 7.45099e-25)
(19.4774 -2.3307 3.03002e-26)
(19.4479 -2.38904 1.36581e-23)
(19.4134 -2.44938 -3.61522e-26)
(19.3734 -2.51177 9.10763e-19)
(19.3275 -2.57619 9.57702e-19)
(19.2751 -2.64266 -1.8085e-23)
(19.2158 -2.71115 -1.89607e-23)
(19.1491 -2.78164 -1.13219e-18)
(19.0743 -2.85406 1.20363e-18)
(18.9909 -2.92837 1.93579e-23)
(18.8985 -3.00451 1.3709e-18)
(18.7964 -3.08239 1.61556e-25)
(18.6841 -3.1619 -2.92365e-24)
(18.5608 -3.24288 1.69808e-18)
(18.4259 -3.32518 0)
(18.2787 -3.40861 -1.9824e-18)
(18.1184 -3.49297 -2.14947e-18)
(17.9443 -3.57799 2.33606e-18)
(17.7554 -3.66338 -2.54472e-18)
(17.5508 -3.74879 3.79573e-23)
(17.3295 -3.83385 5.61823e-24)
(17.0905 -3.91813 -3.33407e-18)
(16.8328 -4.00122 0)
(16.5557 -4.08266 4.03695e-18)
(16.2583 -4.16203 0)
(15.9405 -4.23895 -9.73397e-24)
(15.6024 -4.31313 1.00968e-23)
(15.244 -4.3844 6.07698e-18)
(14.8665 -4.45276 1.35355e-17)
(14.4713 -4.51847 0)
(14.06 -4.58196 -8.44479e-18)
(13.6352 -4.64404 -9.45992e-18)
(13.1989 -4.70573 0)
(12.7534 -4.76828 2.38567e-17)
(12.2991 -4.83261 2.68477e-17)
(11.835 -4.89945 0)
(11.355 -4.96748 -1.64209e-22)
(10.8482 -5.03323 -1.92642e-17)
(10.2964 -5.08873 -4.35422e-17)
(9.66739 -5.11701 2.46203e-17)
(8.91369 -5.08708 5.56411e-17)
(7.96207 -4.94142 3.13354e-17)
(6.6958 -4.56878 3.50429e-17)
(4.94004 -3.75798 1.44164e-22)
(2.50221 -2.15052 0)
(-0.783407 0.880477 0)
(-4.82549 6.3481 0)
(-8.4197 15.145 1.33918e-17)
(-9.44256 28.8257 1.72013e-18)
(-3.49961 43.8443 2.32157e-18)
(21.6386 -1.73741 0)
(21.6584 -1.77281 -2.62501e-19)
(21.6761 -1.80923 -2.61389e-19)
(21.6922 -1.84674 5.00736e-25)
(21.7069 -1.88543 -4.95362e-25)
(21.7198 -1.92536 -5.04095e-25)
(21.7311 -1.96662 -8.26513e-27)
(21.7405 -2.00929 -2.66273e-19)
(21.7479 -2.05343 -2.69411e-19)
(21.7532 -2.09911 -5.15863e-25)
(21.7562 -2.14645 -2.78117e-19)
(21.7568 -2.19549 2.8379e-19)
(21.7547 -2.24632 5.80714e-19)
(21.7498 -2.29902 0)
(21.7417 -2.3537 0)
(21.7302 -2.4104 6.32739e-19)
(21.715 -2.46919 6.5491e-19)
(21.6957 -2.53011 -1.32227e-24)
(21.672 -2.5933 -5.38396e-26)
(21.6434 -2.65873 2.27836e-23)
(21.6097 -2.72646 -7.73713e-19)
(21.5702 -2.79657 -8.12503e-19)
(21.5246 -2.86902 8.55718e-19)
(21.4723 -2.94387 9.0376e-19)
(21.4128 -3.02108 9.57227e-19)
(21.3456 -3.10065 0)
(21.2699 -3.18253 -1.08287e-18)
(21.1852 -3.26666 -1.15647e-18)
(21.091 -3.35301 -2.4768e-18)
(20.9867 -3.4415 -5.0785e-24)
(20.8716 -3.53202 2.65334e-24)
(20.745 -3.62441 -1.54506e-18)
(20.6061 -3.71853 0)
(20.4542 -3.81419 3.62805e-18)
(20.2884 -3.91119 3.65091e-24)
(20.1079 -4.00924 -2.152e-18)
(19.9114 -4.10806 4.35064e-24)
(19.6981 -4.20725 -5.15883e-18)
(19.4666 -4.30644 0)
(19.2158 -4.40516 3.12406e-18)
(18.9444 -4.50293 -3.45167e-18)
(18.6515 -4.59925 0)
(18.336 -4.69362 0)
(17.9973 -4.78557 -1.86744e-23)
(17.6351 -4.87473 4.03679e-23)
(17.2494 -4.96081 5.91631e-18)
(16.8408 -5.04369 -6.64345e-18)
(16.4104 -5.12351 2.95441e-23)
(15.9598 -5.20061 -3.11678e-23)
(15.4912 -5.27566 9.55243e-18)
(15.0066 -5.34968 0)
(14.5084 -5.42385 -1.23019e-17)
(13.9967 -5.49906 -2.79919e-17)
(13.4705 -5.57591 -1.59397e-17)
(12.9224 -5.6525 1.81759e-17)
(12.3399 -5.72454 -2.07427e-17)
(11.7011 -5.78202 -3.71033e-22)
(10.9678 -5.80419 -2.70363e-17)
(10.0847 -5.75376 -6.16192e-17)
(8.96642 -5.56235 -2.74524e-22)
(7.48104 -5.10074 -7.84255e-17)
(5.44038 -4.13205 6.58208e-22)
(2.6531 -2.2677 -4.66307e-17)
(-1.02125 1.15214 2.3779e-17)
(-5.42785 7.16892 6.22862e-22)
(-9.27024 16.7265 -1.44952e-17)
(-10.1509 31.1054 6.88841e-21)
(-3.70981 46.92 4.96371e-18)
(10.2483 57.4997 0)
(23.4732 -1.88474 0)
(23.4954 -1.9232 2.2737e-19)
(23.5155 -1.96279 2.26588e-19)
(23.5342 -2.00358 0)
(23.5514 -2.04566 0)
(23.5668 -2.08911 0)
(23.5807 -2.13403 8.83226e-25)
(23.5927 -2.18049 -8.76605e-25)
(23.6027 -2.22857 -2.3474e-19)
(23.6106 -2.27836 -8.99738e-25)
(23.6163 -2.32998 -9.3786e-25)
(23.6195 -2.38347 1.10264e-23)
(23.6202 -2.43894 2.71867e-26)
(23.618 -2.4965 -1.99117e-24)
(23.6126 -2.55623 1.00914e-24)
(23.6038 -2.61822 1.0776e-24)
(23.5912 -2.68253 -1.07818e-24)
(23.5746 -2.74922 1.16263e-24)
(23.5536 -2.81844 -1.16558e-24)
(23.5276 -2.89016 -6.51239e-19)
(23.4964 -2.96449 6.8277e-19)
(23.4594 -3.04148 0)
(23.4163 -3.12112 2.7943e-23)
(23.3663 -3.20349 1.56647e-24)
(23.309 -3.28856 -1.58102e-24)
(23.2438 -3.37633 -9.03699e-19)
(23.17 -3.46677 -9.64076e-19)
(23.087 -3.55984 -1.03136e-18)
(22.9944 -3.65552 -3.62057e-23)
(22.8915 -3.75375 -2.2075e-24)
(22.7774 -3.85442 0)
(22.6516 -3.95741 -4.59479e-23)
(22.5133 -4.06256 0)
(22.3615 -4.16971 -1.63866e-18)
(22.1955 -4.27869 0)
(22.0143 -4.3892 1.95513e-18)
(21.8167 -4.50096 -2.1448e-18)
(21.6015 -4.61359 2.3595e-18)
(21.3674 -4.7267 2.60342e-18)
(21.1129 -4.83982 -2.88101e-18)
(20.8368 -4.95245 3.19798e-18)
(20.5377 -5.06404 -1.4053e-23)
(20.2143 -5.17408 3.97755e-18)
(19.8658 -5.28203 1.64616e-23)
(19.4915 -5.38745 5.01205e-18)
(19.091 -5.48997 -1.13097e-17)
(18.6645 -5.58935 6.40254e-18)
(18.2126 -5.68562 2.87306e-23)
(17.7365 -5.77899 -3.06101e-23)
(17.238 -5.86995 0)
(16.7188 -5.95941 0)
(16.1807 -6.04835 0)
(15.6236 -6.1375 1.44061e-17)
(15.0457 -6.22713 1.66184e-17)
(14.4379 -6.31452 1.91993e-17)
(13.7857 -6.39427 4.43813e-17)
(13.0628 -6.4537 5.12864e-17)
(12.2245 -6.46764 2.33727e-22)
(11.2064 -6.39157 3.40634e-17)
(9.91136 -6.14527 2.87793e-22)
(8.19445 -5.5819 4.37854e-17)
(5.86158 -4.44299 0)
(2.73441 -2.32008 1.03967e-16)
(-1.28974 1.46159 -2.62806e-17)
(-5.98418 7.93999 -2.34459e-17)
(-10.0086 18.1245 1.55908e-17)
(-10.7033 32.9545 -1.00067e-18)
(-3.85645 49.3459 -2.68689e-18)
(10.8924 60.9507 -3.80697e-22)
(27.9438 60.546 9.42551e-22)
(25.0273 -2.00957 0)
(25.0521 -2.05067 0)
(25.0749 -2.09297 0)
(25.0962 -2.13659 1.98919e-19)
(25.1161 -2.1816 0)
(25.1343 -2.22809 0)
(25.151 -2.27617 0)
(25.1659 -2.32592 0)
(25.1788 -2.37741 2.06981e-19)
(25.1897 -2.43076 0)
(25.1985 -2.48609 -2.14412e-19)
(25.2048 -2.54346 -4.38327e-19)
(25.2085 -2.60297 0)
(25.2095 -2.66474 0)
(25.2074 -2.72889 9.2342e-25)
(25.2019 -2.79549 -1.87971e-24)
(25.1926 -2.86462 5.10691e-19)
(25.1794 -2.93635 -2.02799e-24)
(25.1617 -3.01085 1.03686e-24)
(25.1391 -3.08811 -5.79929e-19)
(25.1113 -3.16822 6.08643e-19)
(25.0778 -3.25126 0)
(25.038 -3.33725 -6.76412e-19)
(24.9914 -3.42625 2.6683e-24)
(24.9375 -3.51827 0)
(24.8756 -3.61331 8.10195e-19)
(24.8052 -3.71136 8.65439e-19)
(24.7255 -3.8124 -4.34622e-23)
(24.6361 -3.91642 9.95996e-19)
(24.5363 -4.02337 -3.98049e-24)
(24.4254 -4.13318 0)
(24.3026 -4.24572 -5.56822e-23)
(24.1672 -4.36088 -1.36531e-18)
(24.0184 -4.4785 -5.50834e-24)
(23.8552 -4.59844 0)
(23.6766 -4.72043 -7.02742e-24)
(23.4815 -4.84419 1.96129e-18)
(23.2686 -4.96938 0)
(23.0363 -5.09561 -2.39481e-18)
(22.7832 -5.22241 -2.6594e-18)
(22.508 -5.34931 -2.96317e-18)
(22.209 -5.47576 0)
(21.8847 -5.60121 1.33101e-22)
(21.5341 -5.72515 0)
(21.1562 -5.84707 -4.7373e-18)
(20.7502 -5.96658 1.07606e-17)
(20.3161 -6.08337 -6.13679e-18)
(19.8539 -6.19737 -7.03088e-18)
(19.3643 -6.30866 6.39168e-23)
(18.8484 -6.41758 -6.90209e-23)
(18.3074 -6.52485 0)
(17.7422 -6.63118 -1.26288e-17)
(17.152 -6.73699 -1.16563e-22)
(16.5335 -6.8419 -1.72511e-17)
(15.8755 -6.94213 -2.02185e-17)
(15.1606 -7.03066 5.79267e-22)
(14.3568 -7.09137 -5.55144e-17)
(13.4122 -7.09388 0)
(12.2528 -6.9854 -3.76666e-17)
(10.7704 -6.67341 -3.39741e-22)
(8.81195 -5.99538 4.87658e-17)
(6.18727 -4.67778 -5.38236e-17)
(2.74289 -2.30419 -1.15284e-16)
(-1.57733 1.7975 0)
(-6.47379 8.63551 2.53272e-17)
(-10.6129 19.3029 0)
(-11.0998 34.3691 0)
(-3.937 51.1078 8.6635e-18)
(11.4693 63.9803 6.43998e-23)
(29.3517 63.6302 0)
(42.6765 53.8455 2.87757e-17)
(26.3645 -2.11699 6.89133e-25)
(26.3916 -2.16036 -6.8145e-25)
(26.4169 -2.20503 -1.78818e-19)
(26.4407 -2.2511 -1.78899e-19)
(26.4632 -2.29865 -6.80588e-25)
(26.4841 -2.34778 0)
(26.5034 -2.3986 0)
(26.5211 -2.45121 0)
(26.5369 -2.50567 1.86723e-19)
(26.5507 -2.56212 7.16702e-25)
(26.5625 -2.62068 3.87321e-19)
(26.5718 -2.68143 1.9808e-19)
(26.5787 -2.74446 -4.06379e-19)
(26.5828 -2.80992 0)
(26.584 -2.87792 0)
(26.5818 -2.94856 -4.46306e-19)
(26.5759 -3.02191 -4.63199e-19)
(26.5661 -3.09806 0)
(26.5518 -3.17719 0)
(26.5328 -3.25929 5.27238e-19)
(26.5085 -3.34448 -5.53797e-19)
(26.4786 -3.43285 -2.17734e-24)
(26.4425 -3.52441 2.40991e-24)
(26.3996 -3.61926 1.2201e-25)
(26.3493 -3.7174 -2.58559e-24)
(26.2912 -3.81886 0)
(26.2244 -3.92363 3.10518e-24)
(26.1485 -4.03172 1.69829e-18)
(26.0628 -4.14313 3.38961e-24)
(25.9669 -4.25784 3.87056e-24)
(25.8598 -4.37577 -1.06563e-18)
(25.7409 -4.49684 1.1561e-18)
(25.6094 -4.62095 -7.13061e-23)
(25.4645 -4.74797 0)
(25.3053 -4.87777 1.50358e-18)
(25.1308 -5.01012 6.10892e-24)
(24.9398 -5.14478 1.43469e-23)
(24.7309 -5.28141 -3.07436e-23)
(24.5026 -5.41966 3.41086e-23)
(24.2535 -5.55908 4.97059e-18)
(23.9819 -5.69922 2.77738e-18)
(23.6862 -5.83956 0)
(23.3648 -5.97958 -3.50975e-18)
(23.0165 -6.11876 0)
(22.6401 -6.25663 0)
(22.2345 -6.39276 -5.15369e-18)
(21.7995 -6.52685 -5.91637e-18)
(21.3344 -6.65876 -2.98536e-22)
(20.8397 -6.78852 6.26035e-23)
(20.3156 -6.91627 -6.82654e-23)
(19.7628 -7.04263 1.08473e-17)
(19.1809 -7.16788 2.55724e-17)
(18.568 -7.29205 1.51349e-17)
(17.9185 -7.4138 1.7959e-17)
(17.2183 -7.5279 2.13667e-17)
(16.4459 -7.62503 -2.541e-17)
(15.5622 -7.68467 3.01609e-17)
(14.5075 -7.67039 -3.56486e-17)
(13.1981 -7.52027 -1.74695e-21)
(11.5174 -7.13021 -7.54666e-22)
(9.31207 -6.32602 -1.08232e-16)
(6.40681 -4.82773 5.95593e-17)
(2.68271 -2.22309 6.34727e-17)
(-1.86744 2.14329 -3.13432e-17)
(-6.87968 9.23417 -2.70878e-17)
(-11.0691 20.2367 -1.76445e-17)
(-11.3471 35.3717 1.15586e-18)
(-3.95381 52.246 -9.25903e-18)
(11.9642 66.529 0)
(30.5188 66.1579 -2.86586e-17)
(44.7577 56.5224 0)
(27.5398 -2.21144 1.26488e-24)
(27.569 -2.25681 0)
(27.5963 -2.30354 1.65112e-19)
(27.6223 -2.35176 0)
(27.647 -2.40154 0)
(27.6702 -2.45298 0)
(27.692 -2.50621 1.68444e-19)
(27.7121 -2.56133 -1.70413e-19)
(27.7305 -2.61842 1.32731e-23)
(27.7469 -2.67759 1.35777e-24)
(27.7613 -2.739 -3.58997e-19)
(27.7734 -2.80272 1.83704e-19)
(27.7831 -2.86886 -2.83316e-23)
(27.7902 -2.93756 3.88078e-19)
(27.7943 -3.00896 0)
(27.7951 -3.08316 -3.32808e-23)
(27.7923 -3.16023 4.30794e-19)
(27.7856 -3.24029 0)
(27.7746 -3.32351 4.688e-19)
(27.7588 -3.40989 4.91261e-19)
(27.7379 -3.49957 1.92849e-24)
(27.7113 -3.59265 2.12572e-24)
(27.6786 -3.68914 -2.1461e-24)
(27.6392 -3.78916 -2.38821e-24)
(27.5924 -3.89272 2.41726e-24)
(27.5378 -3.99987 0)
(27.4746 -4.11061 0)
(27.4023 -4.22495 -7.95685e-19)
(27.3203 -4.34292 8.56515e-19)
(27.2281 -4.46452 6.85966e-24)
(27.1248 -4.58968 1.00116e-18)
(27.0097 -4.71835 0)
(26.8822 -4.85044 1.1845e-18)
(26.7414 -4.98585 0)
(26.5864 -5.12449 -2.83809e-18)
(26.4162 -5.26613 1.56087e-18)
(26.2296 -5.41058 8.40259e-25)
(26.0252 -5.55752 1.90776e-18)
(25.8016 -5.70663 1.67265e-23)
(25.5571 -5.85751 -4.73181e-18)
(25.2902 -6.00972 0)
(24.9992 -6.16278 0)
(24.6823 -6.31622 0)
(24.3382 -6.46955 0)
(23.9657 -6.62233 0)
(23.5636 -6.77417 3.95479e-23)
(23.1312 -6.92478 1.15608e-17)
(22.6676 -7.07403 6.71521e-18)
(22.173 -7.2219 6.20427e-23)
(21.6467 -7.3684 -6.82692e-23)
(21.0887 -7.51403 7.84656e-22)
(20.4973 -7.65859 -1.30768e-17)
(19.8689 -7.8016 -1.56848e-17)
(19.1947 -7.94034 -1.88811e-17)
(18.4569 -8.06769 -2.27939e-17)
(17.6282 -8.17111 -2.74864e-17)
(16.6614 -8.22472 5.21705e-22)
(15.4882 -8.18518 3.93703e-17)
(14.017 -7.98149 4.62475e-17)
(12.1287 -7.50055 5.32061e-17)
(9.6794 -6.56281 5.97514e-17)
(6.51867 -4.89114 -6.54534e-17)
(2.56687 -2.08765 0)
(-2.14021 2.47881 3.37424e-17)
(-7.19141 9.72316 2.86364e-17)
(-11.3739 20.9222 3.68649e-17)
(-11.4636 36.0162 -1.19649e-18)
(-3.91802 52.9049 -3.18271e-18)
(12.3342 68.3559 0)
(31.3695 67.9956 -3.54563e-17)
(46.6785 58.9928 0)
(28.5951 -2.29626 0)
(28.626 -2.3434 0)
(28.6549 -2.39198 1.56475e-19)
(28.6827 -2.4421 1.18927e-24)
(28.7092 -2.49386 1.20833e-24)
(28.7343 -2.54737 -1.19982e-24)
(28.758 -2.60275 -1.59827e-19)
(28.7802 -2.6601 1.61755e-19)
(28.8006 -2.71952 -1.64177e-19)
(28.8192 -2.78112 -1.28992e-24)
(28.8359 -2.84507 1.70592e-19)
(28.8503 -2.91143 1.83476e-23)
(28.8624 -2.98034 3.58643e-19)
(28.8719 -3.05195 3.64222e-23)
(28.8786 -3.12638 0)
(28.882 -3.20375 7.90222e-19)
(28.8818 -3.28414 -4.10509e-19)
(28.8779 -3.36768 -1.60237e-24)
(28.8697 -3.45454 -4.47177e-19)
(28.8567 -3.54475 -4.6884e-19)
(28.8387 -3.63843 0)
(28.815 -3.73571 5.20142e-19)
(28.7853 -3.83661 4.30173e-24)