/*--------------------------------*- C++ -*----------------------------------*\
| =========                 |                                                 |
| \\      /  F ield         | OpenFOAM: The Open Source CFD Toolbox           |
|  \\    /   O peration     | Version:  2412                                  |
|   \\  /    A nd           | Website:  www.openfoam.com                      |
|    \\/     M anipulation  |                                                 |
\*---------------------------------------------------------------------------*/
FoamFile
{
    version     2.0;
    format      ascii;
    arch        "LSB;label=32;scalar=64";
    class       volScalarField;
    location    "120";
    object      nut;
}
// * * * * * * * * * * * * * * * * * * * * * * * * * * * * * * * * * * * * * //

dimensions      [0 2 -1 0 0 0 0];

internalField   nonuniform List<scalar> 
7423
(
5.13445e-10
1.06899e-09
1.29473e-09
1.23658e-09
7.67939e-10
3.84701e-10
2.06469e-10
4.43314e-11
3.36775e-11
2.66183e-11
2.17326e-11
1.87829e-11
1.6974e-11
1.64527e-11
1.56127e-11
1.55013e-11
1.54735e-11
1.38461e-11
1.50397e-11
1.49193e-11
1.47453e-11
1.45894e-11
1.44395e-11
1.4295e-11
1.41405e-11
1.3975e-11
1.37949e-11
1.36045e-11
1.34018e-11
1.31891e-11
1.29669e-11
1.27362e-11
1.24986e-11
1.2255e-11
1.20062e-11
1.17536e-11
1.14985e-11
1.12415e-11
1.09833e-11
1.07254e-11
1.04692e-11
1.02145e-11
9.96228e-12
9.7138e-12
9.46822e-12
9.22722e-12
8.99097e-12
8.75954e-12
8.53307e-12
8.31191e-12
8.09647e-12
7.88572e-12
7.68026e-12
7.48066e-12
7.28679e-12
7.09753e-12
6.9136e-12
6.73493e-12
6.56152e-12
6.393e-12
6.22923e-12
6.07087e-12
5.91762e-12
5.76921e-12
5.62629e-12
5.48879e-12
5.35719e-12
5.23155e-12
5.11283e-12
4.99992e-12
4.89263e-12
4.79072e-12
4.6946e-12
4.60354e-12
4.51867e-12
4.44716e-12
4.29914e-08
1.04392e-07
1.31792e-07
1.32163e-07
9.20589e-08
5.08504e-08
2.7954e-08
2.91465e-09
2.36756e-09
2.01022e-09
1.73182e-09
1.56834e-09
1.46791e-09
1.78587e-09
1.42101e-09
1.43764e-09
1.45528e-09
1.39676e-09
1.40784e-09
1.40432e-09
1.40911e-09
1.40761e-09
1.39653e-09
1.38272e-09
1.36708e-09
1.35026e-09
1.33206e-09
1.31293e-09
1.29271e-09
1.27162e-09
1.24972e-09
1.22707e-09
1.2038e-09
1.18001e-09
1.15577e-09
1.1312e-09
1.10644e-09
1.08152e-09
1.05653e-09
1.03158e-09
1.00681e-09
9.82215e-10
9.57866e-10
9.33896e-10
9.10227e-10
8.87e-10
8.64245e-10
8.41947e-10
8.20146e-10
7.98854e-10
7.78116e-10
7.57851e-10
7.38098e-10
7.18899e-10
7.00258e-10
6.82076e-10
6.64387e-10
6.47203e-10
6.30538e-10
6.14352e-10
5.98616e-10
5.83382e-10
5.68655e-10
5.54394e-10
5.40629e-10
5.27381e-10
5.14708e-10
5.02593e-10
4.91097e-10
4.80145e-10
4.69712e-10
4.5975e-10
4.50303e-10
4.41299e-10
4.32841e-10
4.25599e-10
3.26263e-07
7.74773e-07
1.02642e-06
1.07681e-06
8.23218e-07
4.98436e-07
2.88714e-07
3.47673e-08
2.52942e-08
1.90618e-08
1.54724e-08
1.38032e-08
1.29437e-08
2.02425e-08
1.28019e-08
1.31105e-08
1.34236e-08
1.49559e-08
1.30399e-08
1.31701e-08
1.36162e-08
1.38386e-08
1.37964e-08
1.36693e-08
1.35076e-08
1.33301e-08
1.31394e-08
1.29403e-08
1.27316e-08
1.25158e-08
1.22931e-08
1.20643e-08
1.18302e-08
1.15919e-08
1.13499e-08
1.11052e-08
1.08588e-08
1.06117e-08
1.03645e-08
1.01179e-08
9.87311e-09
9.63058e-09
9.39065e-09
9.15445e-09
8.9218e-09
8.6934e-09
8.46978e-09
8.25072e-09
8.0365e-09
7.82757e-09
7.62401e-09
7.42529e-09
7.23166e-09
7.04344e-09
6.8606e-09
6.68255e-09
6.50928e-09
6.341e-09
6.17774e-09
6.01921e-09
5.86519e-09
5.71592e-09
5.5715e-09
5.43169e-09
5.2966e-09
5.16647e-09
5.04174e-09
4.92225e-09
4.80841e-09
4.69959e-09
4.59542e-09
4.49526e-09
4.39944e-09
4.30723e-09
4.21945e-09
4.14219e-09
1.16411e-06
2.49636e-06
3.5596e-06
3.93385e-06
3.30208e-06
2.19128e-06
1.35461e-06
2.19519e-07
1.54553e-07
1.11903e-07
8.56022e-08
7.02213e-08
6.16795e-08
1.15501e-07
5.79993e-08
5.91526e-08
6.07713e-08
8.24144e-08
5.96509e-08
6.12558e-08
6.59631e-08
6.85656e-08
6.87897e-08
6.82218e-08
6.73694e-08
6.64142e-08
6.53917e-08
6.4334e-08
6.32385e-08
6.21147e-08
6.09645e-08
5.97914e-08
5.85976e-08
5.73883e-08
5.61653e-08
5.49331e-08
5.36959e-08
5.24579e-08
5.12219e-08
4.9992e-08
4.87724e-08
4.75653e-08
4.63735e-08
4.52007e-08
4.40469e-08
4.29155e-08
4.18078e-08
4.07237e-08
3.96638e-08
3.86309e-08
3.76252e-08
3.66434e-08
3.56872e-08
3.47583e-08
3.38559e-08
3.29775e-08
3.21231e-08
3.12935e-08
3.04887e-08
2.97069e-08
2.89476e-08
2.82114e-08
2.74983e-08
2.68079e-08
2.61403e-08
2.54962e-08
2.4877e-08
2.42822e-08
2.37131e-08
2.31667e-08
2.26403e-08
2.21304e-08
2.16372e-08
2.11566e-08
2.06915e-08
2.02693e-08
2.78819e-06
5.34248e-06
8.02975e-06
9.4825e-06
8.7963e-06
6.40341e-06
4.24932e-06
9.94188e-07
6.85904e-07
4.85765e-07
3.62496e-07
2.87307e-07
2.41643e-07
4.56539e-07
2.02309e-07
1.98232e-07
1.99786e-07
3.22722e-07
1.97074e-07
2.05045e-07
2.29505e-07
2.43491e-07
2.4559e-07
2.43671e-07
2.40386e-07
2.36657e-07
2.3271e-07
2.28659e-07
2.24519e-07
2.20315e-07
2.16049e-07
2.11729e-07
2.07365e-07
2.02964e-07
1.98538e-07
1.94095e-07
1.89649e-07
1.85214e-07
1.80797e-07
1.76411e-07
1.72069e-07
1.6778e-07
1.63549e-07
1.5939e-07
1.55303e-07
1.513e-07
1.47383e-07
1.43553e-07
1.39811e-07
1.36165e-07
1.32619e-07
1.29158e-07
1.25788e-07
1.22516e-07
1.19339e-07
1.16246e-07
1.13238e-07
1.1032e-07
1.07489e-07
1.04738e-07
1.02066e-07
9.9474e-08
9.69628e-08
9.45293e-08
9.21728e-08
8.98958e-08
8.77006e-08
8.55854e-08
8.35511e-08
8.15881e-08
7.96853e-08
7.78266e-08
7.60081e-08
7.42115e-08
7.24433e-08
7.07876e-08
5.14903e-06
9.25988e-06
1.44752e-05
1.82051e-05
1.82143e-05
1.45957e-05
1.03933e-05
3.62617e-06
2.48553e-06
1.74619e-06
1.2827e-06
9.96729e-07
8.1982e-07
1.41031e-06
6.441e-07
6.05298e-07
5.86344e-07
1.00654e-06
5.66098e-07
5.87075e-07
6.66581e-07
7.12396e-07
7.19159e-07
7.12681e-07
7.01894e-07
6.89801e-07
6.77235e-07
6.64484e-07
6.51633e-07
6.38713e-07
6.25732e-07
6.12691e-07
5.9961e-07
5.865e-07
5.73382e-07
5.60278e-07
5.47213e-07
5.3422e-07
5.21322e-07
5.08544e-07
4.95919e-07
4.83469e-07
4.7121e-07
4.59171e-07
4.47356e-07
4.35793e-07
4.24491e-07
4.13448e-07
4.02664e-07
3.92163e-07
3.81953e-07
3.72e-07
3.62309e-07
3.52903e-07
3.43772e-07
3.34888e-07
3.2625e-07
3.17868e-07
3.0974e-07
3.01842e-07
2.94168e-07
2.86723e-07
2.79505e-07
2.72504e-07
2.65716e-07
2.59142e-07
2.52787e-07
2.46641e-07
2.40702e-07
2.34941e-07
2.2932e-07
2.23785e-07
2.18307e-07
2.12825e-07
2.07337e-07
2.02044e-07
7.87571e-06
1.39425e-05
2.27747e-05
3.01929e-05
3.23368e-05
2.86475e-05
2.18499e-05
1.12959e-05
7.7864e-06
5.47507e-06
3.99848e-06
3.07636e-06
2.49332e-06
3.63064e-06
1.88773e-06
1.73509e-06
1.64181e-06
2.63441e-06
1.54573e-06
1.57524e-06
1.74592e-06
1.8399e-06
1.84614e-06
1.8228e-06
1.79039e-06
1.75557e-06
1.72031e-06
1.68507e-06
1.65008e-06
1.61529e-06
1.58068e-06
1.54622e-06
1.51192e-06
1.47778e-06
1.44381e-06
1.41005e-06
1.37655e-06
1.34335e-06
1.3105e-06
1.27805e-06
1.24606e-06
1.21457e-06
1.18363e-06
1.15329e-06
1.12354e-06
1.09446e-06
1.06607e-06
1.03835e-06
1.01129e-06
9.84965e-07
9.59378e-07
9.34454e-07
9.10196e-07
8.86652e-07
8.63808e-07
8.41592e-07
8.19998e-07
7.99038e-07
7.78711e-07
7.58968e-07
7.39778e-07
7.21154e-07
7.03087e-07
6.85547e-07
6.68516e-07
6.5199e-07
6.35957e-07
6.20398e-07
6.05292e-07
5.90561e-07
5.76099e-07
5.61748e-07
5.47391e-07
5.32845e-07
5.18047e-07
5.03374e-07
1.04045e-05
1.86793e-05
3.20899e-05
4.453e-05
5.04926e-05
4.89643e-05
4.13084e-05
2.85849e-05
2.09686e-05
1.5158e-05
1.11925e-05
8.61482e-06
6.93777e-06
8.16696e-06
5.13878e-06
4.66418e-06
4.35727e-06
5.9836e-06
4.03115e-06
4.02301e-06
4.24526e-06
4.34116e-06
4.30485e-06
4.22544e-06
4.13503e-06
4.04305e-06
3.95276e-06
3.86399e-06
3.77725e-06
3.69205e-06
3.6082e-06
3.52553e-06
3.44394e-06
3.36334e-06
3.28368e-06
3.20497e-06
3.12725e-06
3.05058e-06
2.975e-06
2.90059e-06
2.82742e-06
2.75558e-06
2.68513e-06
2.61616e-06
2.54865e-06
2.48272e-06
2.4184e-06
2.35567e-06
2.29451e-06
2.23501e-06
2.17721e-06
2.12095e-06
2.06621e-06
2.01309e-06
1.96157e-06
1.91148e-06
1.8628e-06
1.81555e-06
1.76972e-06
1.7252e-06
1.68193e-06
1.6399e-06
1.59911e-06
1.55946e-06
1.52091e-06
1.48342e-06
1.44692e-06
1.41136e-06
1.37666e-06
1.34265e-06
1.30905e-06
1.27548e-06
1.24156e-06
1.20679e-06
1.17089e-06
1.13433e-06
1.21496e-05
2.25731e-05
4.12422e-05
5.97293e-05
7.08707e-05
7.36212e-05
6.79684e-05
5.56556e-05
4.47824e-05
3.48434e-05
2.69863e-05
2.13238e-05
1.73786e-05
1.70055e-05
1.28607e-05
1.16021e-05
1.07436e-05
1.22543e-05
9.72188e-06
9.47873e-06
9.53101e-06
9.45942e-06
9.26244e-06
9.03173e-06
8.80122e-06
8.57738e-06
8.36365e-06
8.15711e-06
7.95846e-06
7.76576e-06
7.57835e-06
7.39548e-06
7.21667e-06
7.04153e-06
6.86973e-06
6.70109e-06
6.5355e-06
6.37295e-06
6.2134e-06
6.05691e-06
5.90351e-06
5.75326e-06
5.60624e-06
5.46257e-06
5.32216e-06
5.18517e-06
5.05168e-06
4.92159e-06
4.79483e-06
4.67155e-06
4.55182e-06
4.43537e-06
4.32207e-06
4.21212e-06
4.10548e-06
4.00182e-06
3.90106e-06
3.80324e-06
3.70835e-06
3.61615e-06
3.52646e-06
3.4393e-06
3.35461e-06
3.27219e-06
3.1919e-06
3.1136e-06
3.03706e-06
2.96216e-06
2.88868e-06
2.81625e-06
2.74423e-06
2.67178e-06
2.59788e-06
2.52131e-06
2.44124e-06
2.35749e-06
2.47415e-05
4.9059e-05
7.43522e-05
9.16318e-05
0.000100081
9.87958e-05
8.92011e-05
7.74512e-05
6.48474e-05
5.34407e-05
4.42069e-05
3.7127e-05
3.3522e-05
2.80979e-05
2.53491e-05
2.33559e-05
2.35503e-05
2.07478e-05
1.99098e-05
1.9427e-05
1.89079e-05
1.83419e-05
1.77876e-05
1.72682e-05
1.67785e-05
1.632e-05
1.58834e-05
1.54691e-05
1.50719e-05
1.46898e-05
1.43207e-05
1.39631e-05
1.36157e-05
1.32774e-05
1.29476e-05
1.26256e-05
1.2311e-05
1.20036e-05
1.1703e-05
1.14093e-05
1.11223e-05
1.08419e-05
1.05683e-05
1.03012e-05
1.00407e-05
9.78705e-06
9.53995e-06
9.29916e-06
9.06487e-06
8.83729e-06
8.6159e-06
8.40042e-06
8.19116e-06
7.9881e-06
7.79059e-06
7.59845e-06
7.41177e-06
7.2305e-06
7.05421e-06
6.88253e-06
6.71542e-06
6.55275e-06
6.39412e-06
6.23914e-06
6.08742e-06
5.93835e-06
5.79167e-06
5.64673e-06
5.50288e-06
5.35879e-06
5.21272e-06
5.06242e-06
4.90516e-06
4.73907e-06
4.56046e-06
5.45106e-05
8.72349e-05
0.000111399
0.000126446
0.000130949
0.000125686
0.000115382
0.000102241
8.88359e-05
7.68267e-05
6.67514e-05
5.95222e-05
5.23822e-05
4.75621e-05
4.387e-05
4.19864e-05
3.87119e-05
3.68825e-05
3.54923e-05
3.42172e-05
3.30263e-05
3.19263e-05
3.09214e-05
2.99881e-05
2.91242e-05
2.83096e-05
2.75435e-05
2.68155e-05
2.6121e-05
2.54554e-05
2.48153e-05
2.41977e-05
2.36003e-05
2.30209e-05
2.2458e-05
2.19104e-05
2.1377e-05
2.08572e-05
2.03501e-05
1.98555e-05
1.93729e-05
1.89022e-05
1.84428e-05
1.79948e-05
1.75583e-05
1.71328e-05
1.67179e-05
1.63136e-05
1.59205e-05
1.55376e-05
1.51645e-05
1.48014e-05
1.44486e-05
1.41049e-05
1.37699e-05
1.34438e-05
1.31265e-05
1.28173e-05
1.25155e-05
1.22209e-05
1.19332e-05
1.16517e-05
1.13755e-05
1.11036e-05
1.08346e-05
1.05679e-05
1.03018e-05
1.00354e-05
9.76605e-06
9.49072e-06
9.20496e-06
8.90351e-06
8.58306e-06
8.22867e-06
9.74452e-05
0.000129218
0.000151603
0.000162774
0.00016289
0.000155732
0.000143822
0.000129987
0.000116404
0.000104111
9.39061e-05
8.48194e-05
7.77712e-05
7.21216e-05
6.8016e-05
6.38259e-05
6.07302e-05
5.81832e-05
5.59194e-05
5.38869e-05
5.20419e-05
5.03696e-05
4.88261e-05
4.74036e-05
4.60696e-05
4.48211e-05
4.36411e-05
4.25211e-05
4.14536e-05
4.04322e-05
3.94517e-05
3.85075e-05
3.75957e-05
3.67132e-05
3.58574e-05
3.50261e-05
3.42174e-05
3.343e-05
3.26625e-05
3.19141e-05
3.11842e-05
3.04718e-05
2.97763e-05
2.9098e-05
2.84362e-05
2.77897e-05
2.71588e-05
2.65438e-05
2.5944e-05
2.5358e-05
2.47866e-05
2.42299e-05
2.36862e-05
2.31549e-05
2.26361e-05
2.21299e-05
2.1635e-05
2.11502e-05
2.06752e-05
2.02093e-05
1.97513e-05
1.92992e-05
1.88511e-05
1.84038e-05
1.79558e-05
1.75041e-05
1.70468e-05
1.65796e-05
1.60976e-05
1.55934e-05
1.50582e-05
1.44877e-05
1.38401e-05
0.000104159
0.000144351
0.000174882
0.0001935
0.000199807
0.000197047
0.000187731
0.000174676
0.000160471
0.000146683
0.000134287
0.000123308
0.00011418
0.000106602
0.000100475
9.50388e-05
9.05737e-05
8.6776e-05
8.34138e-05
8.0418e-05
7.77073e-05
7.52513e-05
7.29879e-05
7.09035e-05
6.89534e-05
6.71316e-05
6.54146e-05
6.37899e-05
6.22461e-05
6.0774e-05
5.93656e-05
5.80137e-05
5.67122e-05
5.5456e-05
5.42406e-05
5.30624e-05
5.19181e-05
5.08049e-05
4.97207e-05
4.86636e-05
4.76325e-05
4.66256e-05
4.56416e-05
4.46807e-05
4.37418e-05
4.2823e-05
4.19244e-05
4.10466e-05
4.01884e-05
3.9348e-05
3.85262e-05
3.77231e-05
3.69366e-05
3.61653e-05
3.54098e-05
3.46699e-05
3.39439e-05
3.32296e-05
3.25264e-05
3.18335e-05
3.11481e-05
3.04671e-05
2.97867e-05
2.91012e-05
2.84071e-05
2.76991e-05
2.69735e-05
2.62245e-05
2.54448e-05
2.46235e-05
2.37481e-05
2.28147e-05
2.17317e-05
0.00010656
0.000156098
0.000195737
0.000222694
0.000236027
0.000238734
0.000233225
0.000222051
0.000208004
0.000193214
0.000179091
0.000166293
0.000155222
0.000145792
0.00013784
0.000130989
0.000125135
0.000120071
0.000115575
0.000111566
0.000107934
0.000104638
0.0001016
9.87998e-05
9.61833e-05
9.37399e-05
9.14409e-05
8.92692e-05
8.72101e-05
8.5251e-05
8.33813e-05
8.15911e-05
7.98717e-05
7.82158e-05
7.66169e-05
7.50695e-05
7.35687e-05
7.21101e-05
7.06904e-05
6.93065e-05
6.79564e-05
6.66373e-05
6.53471e-05
6.40858e-05
6.28516e-05
6.16419e-05
6.04561e-05
5.92952e-05
5.81578e-05
5.70412e-05
5.59461e-05
5.48727e-05
5.38183e-05
5.27809e-05
5.1761e-05
5.07585e-05
4.97706e-05
4.87945e-05
4.78289e-05
4.68723e-05
4.59204e-05
4.49681e-05
4.4009e-05
4.30337e-05
4.20355e-05
4.10056e-05
3.99382e-05
3.88248e-05
3.76564e-05
3.6419e-05
3.50959e-05
3.3687e-05
0.000103803
0.000163691
0.00021357
0.00024993
0.00027127
0.00028049
0.000279974
0.00027189
0.000258923
0.000243645
0.000228066
0.000213445
0.000200412
0.000189082
0.000179325
0.000170916
0.000163612
0.000157231
0.000151552
0.000146474
0.000141869
0.000137683
0.000133824
0.000130267
0.000126946
0.000123846
0.000120933
0.000118186
0.000115586
0.000113118
0.000110767
0.000108522
0.000106371
0.000104303
0.000102311
0.000100387
9.85227e-05
9.67138e-05
9.49547e-05
9.32409e-05
9.15693e-05
8.9936e-05
8.83377e-05
8.6774e-05
8.52424e-05
8.37392e-05
8.22634e-05
8.08157e-05
7.93945e-05
7.79963e-05
7.66215e-05
7.52704e-05
7.39392e-05
7.26256e-05
7.13297e-05
7.00512e-05
6.87866e-05
6.75318e-05
6.62847e-05
6.50428e-05
6.38001e-05
6.25488e-05
6.12791e-05
5.99769e-05
5.86311e-05
5.72284e-05
5.57596e-05
5.42135e-05
5.25795e-05
5.08408e-05
4.89776e-05
4.69967e-05
9.50412e-05
0.000166255
0.000227647
0.000274631
0.000305153
0.000322007
0.00032767
0.000323987
0.000313304
0.000298345
0.000281697
0.000265294
0.000250202
0.000236811
0.0002251
0.000214925
0.000206009
0.000198171
0.000191179
0.000184915
0.000179232
0.000174061
0.000169298
0.000164908
0.000160816
0.000157
0.000153421
0.000150052
0.00014687
0.000143857
0.000140994
0.000138267
0.00013566
0.000133161
0.000130759
0.000128444
0.000126206
0.000124038
0.000121933
0.000119885
0.000117888
0.000115938
0.000114031
0.000112164
0.000110335
0.000108539
0.000106774
0.00010504
0.000103335
0.000101655
0.000100001
9.83709e-05
9.67614e-05
9.5169e-05
9.35938e-05
9.20348e-05
9.04875e-05
8.89467e-05
8.74091e-05
8.5871e-05
8.43243e-05
8.27582e-05
8.11589e-05
7.95069e-05
7.77856e-05
7.59759e-05
7.40644e-05
7.20369e-05
6.9881e-05
6.75781e-05
6.51063e-05
6.24823e-05
7.94854e-05
0.000162845
0.000237077
0.000296008
0.00033708
0.000362842
0.000375903
0.000377958
0.000370965
0.000357509
0.000340533
0.000322632
0.000305479
0.000289866
0.000275981
0.000263779
0.000253002
0.000243474
0.000234954
0.000227306
0.000220365
0.000214048
0.000208236
0.000202881
0.0001979
0.000193261
0.000188919
0.000184841
0.000180999
0.00017737
0.000173932
0.000170665
0.000167552
0.000164577
0.000161725
0.000158984
0.00015634
0.000153785
0.000151309
0.000148904
0.000146563
0.00014428
0.000142049
0.000139866
0.000137728
0.000135629
0.000133565
0.000131536
0.000129541
0.000127573
0.000125632
0.000123717
0.000121823
0.000119946
0.000118085
0.000116239
0.000114402
0.000112568
0.000110731
0.000108888
0.000107027
0.000105134
0.000103192
0.000101174
9.9059e-05
9.68198e-05
9.44385e-05
9.18971e-05
8.91819e-05
8.62732e-05
8.31474e-05
7.98335e-05
5.8131e-05
0.000152613
0.000240828
0.000313039
0.000366198
0.000402337
0.00042412
0.000433252
0.00043142
0.000420932
0.000404787
0.000386073
0.000367124
0.000349276
0.000333047
0.000318565
0.000305649
0.000294149
0.000283825
0.000274531
0.000266089
0.000258398
0.000251328
0.000244817
0.000238769
0.000233146
0.000227893
0.00022297
0.000218344
0.000213985
0.000209867
0.000205966
0.00020226
0.000198729
0.000195354
0.000192119
0.000189009
0.000186011
0.000183112
0.000180303
0.000177574
0.000174917
0.000172324
0.000169791
0.000167312
0.000164879
0.000162489
0.00016014
0.000157829
0.00015555
0.000153301
0.00015108
0.000148882
0.000146701
0.000144536
0.000142385
0.000140241
0.000138097
0.000135945
0.000133779
0.000131587
0.000129352
0.000127049
0.000124649
0.00012212
0.000119432
0.000116558
0.000113478
0.000110176
0.000106632
0.000102821
9.87865e-05
3.48416e-05
0.000135083
0.00023776
0.000324464
0.000391374
0.000439566
0.000471568
0.000489174
0.000493971
0.000488021
0.000474192
0.000455796
0.000435722
0.000415915
0.000397354
0.000380441
0.000365151
0.0003514
0.000338979
0.000327747
0.000317516
0.000308179
0.00029959
0.000291679
0.000284338
0.000277518
0.000271156
0.000265204
0.000259623
0.000254376
0.000249432
0.00024476
0.000240335
0.000236131
0.000232124
0.000228295
0.000224624
0.000221095
0.000217693
0.000214403
0.000211215
0.000208118
0.0002051
0.000202156
0.00019928
0.000196461
0.000193694
0.000190976
0.000188304
0.000185669
0.00018307
0.000180504
0.000177963
0.000175441
0.000172936
0.000170446
0.000167962
0.000165475
0.000162976
0.000160458
0.000157905
0.000155297
0.000152607
0.000149795
0.000146827
0.000143661
0.000140268
0.000136621
0.000132703
0.000128495
0.000123972
0.000119189
1.64561e-05
0.000110363
0.000226648
0.000328806
0.000411175
0.000473292
0.000517232
0.000544851
0.000557766
0.000557933
0.000548053
0.000531455
0.00051137
0.000490287
0.000469712
0.00045043
0.000432664
0.000416464
0.000401691
0.000388235
0.000375922
0.000364643
0.000354248
0.000344658
0.000335757
0.000327485
0.000319774
0.000312567
0.000305817
0.000299482
0.000293524
0.000287906
0.000282597
0.000277565
0.000272783
0.000268225
0.000263867
0.000259688
0.00025567
0.000251794
0.000248047
0.000244414
0.000240882
0.000237443
0.000234088
0.000230805
0.000227586
0.000224428
0.000221326
0.00021827
0.000215258
0.000212284
0.000209341
0.000206422
0.000203522
0.000200639
0.000197763
0.000194882
0.000191987
0.000189068
0.000186108
0.000183082
0.000179959
0.000176694
0.000173244
0.000169561
0.000165607
0.000161353
0.00015678
0.000151869
0.000146598
0.000141032
8.41851e-06
8.01186e-05
0.000206278
0.000324442
0.000423875
0.000501931
0.000559763
0.000599151
0.000621791
0.000629659
0.000625387
0.000612245
0.000593614
0.000572369
0.000550504
0.00052924
0.000509136
0.000490453
0.000473185
0.000457291
0.000442639
0.000429139
0.000416648
0.000405087
0.000394338
0.000384334
0.000375001
0.000366278
0.00035811
0.000350449
0.000343252
0.000336475
0.000330081
0.000324033
0.000318296
0.000312839
0.000307635
0.000302656
0.000297878
0.000293281
0.000288846
0.000284556
0.000280393
0.000276347
0.000272407
0.000268558
0.00026479
0.000261097
0.000257474
0.000253909
0.000250398
0.000246934
0.000243509
0.000240114
0.000236743
0.000233393
0.000230053
0.000226709
0.00022335
0.000219964
0.000216531
0.000213024
0.000209406
0.000205627
0.000201635
0.000197376
0.000192805
0.000187887
0.000182604
0.000176937
0.000170866
0.000164464
4.78602e-06
4.86187e-05
0.000175866
0.000309779
0.000427484
0.000523523
0.00059742
0.000650594
0.000684772
0.000702025
0.000705026
0.000697041
0.000681521
0.000661569
0.000639548
0.000617092
0.000595131
0.000574201
0.000554493
0.000536093
0.000518948
0.000503014
0.000488179
0.000474377
0.000461497
0.000449474
0.000438234
0.000427713
0.000417852
0.0004086
0.000399907
0.000391726
0.000384012
0.000376724
0.00036982
0.000363263
0.00035702
0.000351059
0.000345349
0.000339866
0.000334586
0.000329488
0.000324551
0.00031976
0.000315103
0.00031056
0.000306121
0.000301774
0.000297515
0.000293331
0.000289213
0.000285156
0.000281147
0.000277177
0.00027324
0.000269329
0.000265433
0.000261535
0.000257624
0.000253685
0.000249695
0.000245624
0.000241431
0.000237058
0.000232448
0.000227536
0.000222272
0.000216616
0.000210547
0.00020405
0.000197109
0.000189791
3.23443e-06
2.42383e-05
0.000135873
0.000283603
0.000419861
0.000535721
0.00062802
0.000697268
0.000745072
0.000773596
0.000785625
0.000784518
0.000773822
0.0007568
0.000736076
0.000713604
0.000690659
0.000668075
0.000646284
0.000625546
0.000605938
0.000587497
0.000570171
0.000553928
0.000538683
0.000524383
0.000510964
0.000498364
0.000486529
0.000475405
0.000464941
0.000455086
0.000445792
0.000437012
0.000428698
0.00042081
0.000413306
0.000406149
0.000399304
0.00039274
0.000386428
0.000380344
0.00037446
0.00036876
0.000363226
0.000357838
0.000352579
0.000347436
0.000342403
0.000337464
0.00033261
0.000327832
0.000323117
0.000318452
0.00031383
0.000309244
0.000304679
0.000300119
0.000295548
0.000290951
0.000286301
0.000281565
0.000276696
0.000271632
0.000266306
0.000260647
0.000254595
0.000248106
0.000241158
0.000233737
0.000225835
0.000217487
2.66934e-06
1.1021e-05
9.22892e-05
0.000245854
0.000398999
0.000535841
0.000648883
0.00073675
0.000800578
0.000842542
0.000865561
0.000873148
0.000869022
0.000856635
0.000838825
0.000817793
0.000795094
0.000771827
0.000748675
0.000726095
0.000704328
0.000683533
0.000663749
0.000645007
0.00062727
0.000610515
0.000594701
0.000579782
0.000565714
0.000552448
0.000539937
0.000528133
0.000516985
0.000506443
0.000496456
0.000486979
0.000477966
0.000469373
0.000461161
0.000453293
0.000445735
0.000438457
0.000431429
0.000424626
0.00041803
0.000411616
0.000405364
0.000399258
0.000393287
0.000387436
0.000381691
0.000376042
0.000370474
0.000364972
0.000359525
0.000354127
0.000348761
0.000343408
0.00033805
0.000332667
0.000327234
0.000321712
0.000316049
0.000310177
0.000304021
0.000297502
0.00029055
0.000283116
0.000275177
0.000266718
0.000257745
0.000248212
2.80004e-06
6.03657e-06
5.24608e-05
0.000197523
0.000363427
0.000521018
0.000656835
0.000766029
0.000848596
0.000906513
0.000942781
0.000961092
0.000965399
0.000959404
0.000946195
0.000928202
0.000907214
0.000884549
0.000861109
0.000837543
0.000814267
0.000791578
0.000769638
0.000748564
0.000728395
0.000709157
0.000690852
0.000673466
0.000656975
0.000641349
0.000626552
0.000612544
0.000599278
0.000586707
0.000574779
0.000563446
0.00055266
0.000542374
0.000532543
0.000523125
0.000514081
0.000505379
0.00049698
0.000488858
0.000480988
0.000473344
0.0004659
0.000458636
0.000451539
0.000444592
0.000437778
0.000431084
0.000424493
0.000417987
0.000411555
0.000405186
0.000398863
0.000392565
0.000386269
0.000379957
0.000373596
0.000367147
0.000360552
0.000353737
0.000346619
0.000339109
0.00033113
0.000322624
0.000313566
0.000303942
0.000293772
0.000282857
2.87974e-06
4.27977e-06
2.4182e-05
0.000140051
0.000312659
0.000488572
0.000648289
0.000781458
0.000885751
0.000962501
0.00101465
0.00104604
0.00106087
0.00106317
0.00105633
0.00104304
0.00102535
0.00100476
0.000982366
0.000958985
0.00093519
0.000911416
0.00088795
0.000865015
0.000842741
0.000821227
0.000800534
0.000780697
0.000761731
0.000743636
0.000726401
0.000710001
0.000694405
0.000679573
0.00066546
0.000652019
0.000639204
0.000626965
0.000615257
0.000604034
0.000593253
0.000582877
0.000572866
0.000563186
0.00055381
0.000544708
0.000535851
0.000527213
0.00051878
0.00051053
0.000502446
0.00049451
0.000486703
0.000479005
0.000471402
0.000463881
0.000456425
0.000449007
0.000441604
0.000434194
0.000426743
0.000419206
0.000411523
0.000403612
0.000395383
0.000386739
0.000377591
0.000367875
0.00035756
0.000346632
0.000335136
0.000322596
2.85065e-06
3.40842e-06
1.08321e-05
8.05809e-05
0.000248008
0.000436713
0.000619536
0.000778777
0.000907902
0.00100672
0.00107779
0.00112501
0.00115282
0.00116557
0.00116703
0.00116024
0.0011475
0.00113056
0.0011107
0.00108888
0.00106582
0.00104207
0.00101803
0.000994041
0.000970315
0.000947035
0.000924335
0.000902312
0.000881035
0.000860548
0.000840879
0.000822032
0.000804001
0.000786765
0.000770292
0.000754547
0.000739487
0.000725069
0.000711246
0.000697976
0.000685213
0.000672918
0.000661049
0.000649567
0.000638443
0.000627645
0.000617139
0.000606896
0.000596897
0.000587121
0.000577546
0.000568152
0.000558918
0.00054982
0.000540842
0.000531969
0.000523181
0.000514451
0.000505751
0.000497057
0.000488334
0.000479532
0.000470587
0.000461412
0.00045191
0.000441975
0.000431509
0.000420439
0.000408729
0.000396361
0.000383413
2.88063e-06
3.09287e-06
5.69622e-06
3.61897e-05
0.000173799
0.0003659
0.000567435
0.000753322
0.000910113
0.00103447
0.00112794
0.0011942
0.00123787
0.00126362
0.00127563
0.00127732
0.00127135
0.00125973
0.00124397
0.0012252
0.00120428
0.00118187
0.00115848
0.00113452
0.0011103
0.00108609
0.00106208
0.00103845
0.00101531
0.000992773
0.000970911
0.000949774
0.000929387
0.000909761
0.00089089
0.000872756
0.000855331
0.000838584
0.000822476
0.000806969
0.000792019
0.000777591
0.000763642
0.000750132
0.00073703
0.000724303
0.000711918
0.000699837
0.000688042
0.00067651
0.000665217
0.00065414
0.000643254
0.000632537
0.000621967
0.000611527
0.000601197
0.000590947
0.000580747
0.00057057
0.000560377
0.000550119
0.000539726
0.000529109
0.000518163
0.000506777
0.000494843
0.000482277
0.000469042
0.000455113
0.000440608
2.97022e-06
3.04932e-06
4.05522e-06
1.46043e-05
9.90356e-05
0.00028018
0.000490777
0.000700634
0.000886803
0.00104012
0.00115978
0.00124877
0.00131168
0.00135346
0.00137868
0.0013912
0.00139407
0.00138964
0.00137969
0.00136556
0.00134828
0.00132864
0.00130725
0.0012846
0.00126109
0.00123704
0.00121272
0.00118835
0.00116412
0.00114019
0.00111668
0.00109368
0.00107128
0.00104952
0.00102842
0.001008
0.000988258
0.000969178
0.000950738
0.000932911
0.000915665
0.000898968
0.000882785
0.000867076
0.000851813
0.000836965
0.000822499
0.000808375
0.000794573
0.000781072
0.000767845
0.000754867
0.000742114
0.00072956
0.000717183
0.000704962
0.000692876
0.000680895
0.000668987
0.000657122
0.00064526
0.000633349
0.00062132
0.000609079
0.000596519
0.000583522
0.000569976
0.000555789
0.000540919
0.000525336
0.000509204
3.07531e-06
3.37909e-06
6.75866e-06
4.17702e-05
0.000187239
0.000392404
0.000617854
0.000832278
0.00101712
0.00116685
0.0012827
0.00136878
0.00143016
0.00147177
0.00149791
0.00151208
0.00151702
0.00151484
0.00150713
0.00149513
0.00147979
0.00146186
0.00144192
0.00142044
0.00139782
0.00137438
0.0013504
0.00132611
0.00130172
0.0012774
0.00125329
0.00122951
0.00120616
0.00118329
0.00116095
0.00113918
0.00111798
0.00109736
0.00107732
0.00105782
0.00103887
0.00102042
0.00100246
0.000984947
0.000967872
0.000951201
0.000934895
0.000918934
0.000903299
0.000887967
0.00087291
0.000858104
0.000843525
0.000829148
0.000814952
0.000800915
0.000787009
0.000773198
0.000759452
0.00074573
0.000731982
0.000718136
0.000704099
0.000689765
0.000675014
0.000659729
0.000643815
0.000627228
0.000609934
0.000592141
3.13572e-06
3.22981e-06
4.33221e-06
1.51176e-05
9.85863e-05
0.000280963
0.000506249
0.00074212
0.000958596
0.00114164
0.00128861
0.00140227
0.00148742
0.0015492
0.00159234
0.00162079
0.00163772
0.00164562
0.00164641
0.00164157
0.00163225
0.00161937
0.00160364
0.00158562
0.0015658
0.00154456
0.00152222
0.00149908
0.00147538
0.00145133
0.00142711
0.00140289
0.00137877
0.00135488
0.00133129
0.00130807
0.00128526
0.00126288
0.00124096
0.00121951
0.00119851
0.00117798
0.00115788
0.00113821
0.00111895
0.00110009
0.00108159
0.00106343
0.0010456
0.00102808
0.00101084
0.000993875
0.000977147
0.000960639
0.000944328
0.000928194
0.000912209
0.000896341
0.000880556
0.000864818
0.000849076
0.000833262
0.000817285
0.000801042
0.000784416
0.000767291
0.00074957
0.00073121
0.000712175
0.000692707
3.18268e-06
3.2114e-06
3.6308e-06
6.7992e-06
3.66759e-05
0.000169524
0.000374578
0.0006161
0.000858692
0.00107601
0.00125787
0.00140377
0.00151739
0.00160378
0.00166793
0.00171424
0.00174635
0.00176715
0.00177894
0.00178349
0.00178222
0.00177623
0.00176639
0.00175342
0.00173788
0.00172025
0.00170092
0.00168024
0.0016585
0.00163594
0.00161278
0.00158922
0.00156541
0.0015415
0.00151759
0.00149377
0.00147012
0.0014467
0.00142355
0.0014007
0.00137817
0.00135598
0.00133413
0.00131262
0.00129144
0.00127061
0.00125009
0.00122986
0.00120994
0.00119031
0.00117095
0.00115184
0.00113296
0.0011143
0.00109583
0.00107755
0.00105942
0.00104141
0.00102351
0.00100566
0.000987829
0.00096995
0.000951938
0.000933697
0.000915115
0.000896083
0.000876503
0.000856334
0.000835537
0.000814372
3.21763e-06
3.22707e-06
3.41402e-06
4.46406e-06
1.24878e-05
7.49782e-05
0.000239563
0.000462677
0.000715856
0.000962799
0.0011811
0.00136339
0.00151049
0.0016265
0.00171638
0.00178484
0.00183597
0.0018731
0.00189893
0.00191561
0.00192482
0.00192793
0.00192599
0.00191989
0.00191033
0.0018979
0.00188308
0.00186627
0.00184785
0.00182809
0.00180727
0.00178561
0.0017633
0.00174051
0.00171738
0.00169403
0.00167055
0.00164703
0.00162355
0.00160014
0.00157685
0.00155372
0.00153077
0.00150801
0.00148546
0.00146314
0.00144103
0.00141914
0.00139747
0.00137602
0.00135478
0.00133374
0.0013129
0.00129224
0.00127175
0.00125141
0.00123121
0.00121113
0.00119114
0.00117121
0.0011513
0.00113136
0.0011113
0.00109105
0.0010705
0.00104955
0.00102811
0.00100612
0.00098355
0.000960655
3.23936e-06
3.24861e-06
3.33066e-06
3.70842e-06
6.03958e-06
2.35781e-05
0.00011935
0.000301866
0.000538534
0.000799497
0.00104991
0.00127045
0.00145548
0.0016064
0.00172733
0.00182298
0.00189772
0.00195533
0.00199894
0.00203108
0.00205377
0.00206866
0.00207706
0.00208005
0.00207849
0.00207312
0.00206452
0.00205321
0.00203962
0.00202411
0.002007
0.00198856
0.00196903
0.00194861
0.00192747
0.00190575
0.00188358
0.00186107
0.00183831
0.00181537
0.0017923
0.00176917
0.00174601
0.00172285
0.00169973
0.00167668
0.00165369
0.00163078
0.00160796
0.00158526
0.00156267
0.00154018
0.00151781
0.00149555
0.00147339
0.00145133
0.00142935
0.00140746
0.00138561
0.0013638
0.00134199
0.00132014
0.00129819
0.00127605
0.00125364