/*--------------------------------*- C++ -*----------------------------------*\
| =========                 |                                                 |
| \\      /  F ield         | OpenFOAM: The Open Source CFD Toolbox           |
|  \\    /   O peration     | Version:  2412                                  |
|   \\  /    A nd           | Website:  www.openfoam.com                      |
|    \\/     M anipulation  |                                                 |
\*---------------------------------------------------------------------------*/
FoamFile
{
    version     2.0;
    format      ascii;
    arch        "LSB;label=32;scalar=64";
    class       volScalarField;
    location    "120";
    object      nuTilda;
}
// * * * * * * * * * * * * * * * * * * * * * * * * * * * * * * * * * * * * * //

dimensions      [0 2 -1 0 0 0 0];

internalField   nonuniform List<scalar> 
7423
(
4.94055e-06
5.93476e-06
6.22598e-06
6.15485e-06
5.4637e-06
4.59653e-06
3.93423e-06
2.67806e-06
2.50021e-06
2.35742e-06
2.24088e-06
2.16064e-06
2.10662e-06
2.09026e-06
2.06305e-06
2.05936e-06
2.05844e-06
2.00204e-06
2.04386e-06
2.03975e-06
2.03378e-06
2.02839e-06
2.02315e-06
2.01807e-06
2.0126e-06
2.00668e-06
2.00019e-06
1.99325e-06
1.98578e-06
1.97786e-06
1.96947e-06
1.96065e-06
1.95144e-06
1.94187e-06
1.93193e-06
1.92169e-06
1.91118e-06
1.90041e-06
1.8894e-06
1.87821e-06
1.86689e-06
1.85543e-06
1.84387e-06
1.83226e-06
1.82057e-06
1.80887e-06
1.79718e-06
1.7855e-06
1.77385e-06
1.76224e-06
1.75071e-06
1.73921e-06
1.72776e-06
1.71643e-06
1.7052e-06
1.69402e-06
1.68293e-06
1.67195e-06
1.66108e-06
1.65031e-06
1.63964e-06
1.62912e-06
1.61874e-06
1.60849e-06
1.59844e-06
1.58858e-06
1.57897e-06
1.56963e-06
1.56065e-06
1.55196e-06
1.54357e-06
1.53547e-06
1.52771e-06
1.52024e-06
1.51319e-06
1.50717e-06
1.49554e-05
1.86817e-05
1.98079e-05
1.98218e-05
1.81013e-05
1.5598e-05
1.34269e-05
7.62655e-06
7.24021e-06
6.94996e-06
6.69566e-06
6.5317e-06
6.42451e-06
6.74732e-06
6.37255e-06
6.39112e-06
6.41064e-06
6.34518e-06
6.35773e-06
6.35375e-06
6.35917e-06
6.35748e-06
6.34492e-06
6.32918e-06
6.3112e-06
6.29169e-06
6.27038e-06
6.24775e-06
6.22354e-06
6.198e-06
6.17114e-06
6.14298e-06
6.11365e-06
6.08321e-06
6.05172e-06
6.01929e-06
5.98607e-06
5.95208e-06
5.91739e-06
5.88213e-06
5.8465e-06
5.81045e-06
5.7741e-06
5.73763e-06
5.70092e-06
5.66419e-06
5.62751e-06
5.59085e-06
5.55429e-06
5.51789e-06
5.48172e-06
5.44567e-06
5.40983e-06
5.3743e-06
5.33911e-06
5.30411e-06
5.26937e-06
5.23496e-06
5.20093e-06
5.16722e-06
5.13381e-06
5.10083e-06
5.06832e-06
5.03624e-06
5.00468e-06
4.97374e-06
4.94358e-06
4.91423e-06
4.88588e-06
4.85841e-06
4.83179e-06
4.80597e-06
4.78109e-06
4.757e-06
4.73404e-06
4.71411e-06
2.48865e-05
3.09872e-05
3.32944e-05
3.37055e-05
3.147e-05
2.77022e-05
2.41304e-05
1.41808e-05
1.3095e-05
1.21997e-05
1.15791e-05
1.1253e-05
1.10734e-05
1.23846e-05
1.10429e-05
1.11089e-05
1.11748e-05
1.14811e-05
1.1094e-05
1.11216e-05
1.12147e-05
1.12602e-05
1.12516e-05
1.12256e-05
1.11922e-05
1.11552e-05
1.11151e-05
1.10727e-05
1.10277e-05
1.09807e-05
1.09314e-05
1.08802e-05
1.0827e-05
1.0772e-05
1.07153e-05
1.0657e-05
1.05973e-05
1.05365e-05
1.04745e-05
1.04116e-05
1.0348e-05
1.02838e-05
1.02191e-05
1.01542e-05
1.0089e-05
1.00238e-05
9.95865e-06
9.89358e-06
9.82869e-06
9.76414e-06
9.69999e-06
9.63612e-06
9.57264e-06
9.5097e-06
9.44734e-06
9.3854e-06
9.32393e-06
9.26305e-06
9.20281e-06
9.14316e-06
9.08408e-06
9.02569e-06
8.9681e-06
8.91128e-06
8.85532e-06
8.8004e-06
8.74677e-06
8.69446e-06
8.64372e-06
8.59438e-06
8.54633e-06
8.49936e-06
8.45368e-06
8.40902e-06
8.36583e-06
8.32725e-06
3.43857e-05
4.18926e-05
4.59976e-05
4.72373e-05
4.50914e-05
4.04907e-05
3.5751e-05
2.25202e-05
2.0617e-05
1.90104e-05
1.7774e-05
1.69125e-05
1.63714e-05
1.91621e-05
1.61208e-05
1.62006e-05
1.63106e-05
1.76056e-05
1.62347e-05
1.63431e-05
1.66493e-05
1.68117e-05
1.68254e-05
1.67905e-05
1.67376e-05
1.66778e-05
1.6613e-05
1.65452e-05
1.64741e-05
1.64003e-05
1.63236e-05
1.62443e-05
1.61623e-05
1.60781e-05
1.59915e-05
1.59028e-05
1.58123e-05
1.57201e-05
1.56265e-05
1.55316e-05
1.54357e-05
1.53391e-05
1.52419e-05
1.51444e-05
1.50466e-05
1.49488e-05
1.48512e-05
1.47537e-05
1.46566e-05
1.456e-05
1.44641e-05
1.43687e-05
1.42738e-05
1.41798e-05
1.40867e-05
1.39943e-05
1.39026e-05
1.38118e-05
1.3722e-05
1.3633e-05
1.35449e-05
1.34578e-05
1.33718e-05
1.32869e-05
1.32033e-05
1.31211e-05
1.30406e-05
1.29618e-05
1.28851e-05
1.28101e-05
1.27366e-05
1.26642e-05
1.25929e-05
1.25223e-05
1.24528e-05
1.23888e-05
4.31249e-05
5.12884e-05
5.73702e-05
6.01185e-05
5.8856e-05
5.38863e-05
4.82209e-05
3.30237e-05
3.00409e-05
2.7522e-05
2.55574e-05
2.41006e-05
2.30715e-05
2.70929e-05
2.2062e-05
2.19492e-05
2.19924e-05
2.48181e-05
2.19168e-05
2.21367e-05
2.27739e-05
2.31159e-05
2.31659e-05
2.31202e-05
2.30413e-05
2.29507e-05
2.28536e-05
2.27527e-05
2.26483e-05
2.25407e-05
2.243e-05
2.23162e-05
2.21995e-05
2.20799e-05
2.19577e-05
2.1833e-05
2.1706e-05
2.15772e-05
2.14465e-05
2.13144e-05
2.11812e-05
2.10472e-05
2.09124e-05
2.07774e-05
2.06422e-05
2.05071e-05
2.03723e-05
2.02379e-05
2.0104e-05
1.9971e-05
1.9839e-05
1.97076e-05
1.95772e-05
1.9448e-05
1.932e-05
1.9193e-05
1.90671e-05
1.89425e-05
1.88193e-05
1.86972e-05
1.85763e-05
1.84567e-05
1.83386e-05
1.8222e-05
1.81069e-05
1.79936e-05
1.78823e-05
1.77731e-05
1.76662e-05
1.75611e-05
1.74575e-05
1.73544e-05
1.72518e-05
1.71486e-05
1.70452e-05
1.69466e-05
5.07785e-05
5.97153e-05
6.79671e-05
7.28468e-05
7.2858e-05
6.81351e-05
6.17096e-05
4.62245e-05
4.1845e-05
3.81721e-05
3.5253e-05
3.30453e-05
3.14368e-05
3.61237e-05
2.95645e-05
2.91014e-05
2.88673e-05
3.31282e-05
2.8611e-05
2.88764e-05
2.98234e-05
3.0332e-05
3.0405e-05
3.03351e-05
3.02176e-05
3.00843e-05
2.99439e-05
2.97995e-05
2.9652e-05
2.95014e-05
2.93479e-05
2.91913e-05
2.90317e-05
2.88693e-05
2.8704e-05
2.8536e-05
2.83657e-05
2.81934e-05
2.80192e-05
2.78435e-05
2.76666e-05
2.7489e-05
2.73107e-05
2.71323e-05
2.69538e-05
2.67758e-05
2.65983e-05
2.64215e-05
2.62455e-05
2.60707e-05
2.58974e-05
2.57251e-05
2.55541e-05
2.53848e-05
2.52173e-05
2.50511e-05
2.48863e-05
2.47233e-05
2.45622e-05
2.44026e-05
2.42446e-05
2.40883e-05
2.39339e-05
2.37812e-05
2.36305e-05
2.34817e-05
2.33352e-05
2.31909e-05
2.30489e-05
2.29086e-05
2.27693e-05
2.26296e-05
2.24888e-05
2.23452e-05
2.21987e-05
2.20547e-05
5.70609e-05
6.72149e-05
7.81463e-05
8.5751e-05
8.77898e-05
8.42432e-05
7.71207e-05
6.32044e-05
5.68798e-05
5.16307e-05
4.74431e-05
4.4256e-05
4.18793e-05
4.62396e-05
3.8951e-05
3.81092e-05
3.75684e-05
4.24875e-05
3.69878e-05
3.71688e-05
3.81706e-05
3.86926e-05
3.87266e-05
3.85991e-05
3.84201e-05
3.82251e-05
3.80249e-05
3.78219e-05
3.76172e-05
3.74106e-05
3.72019e-05
3.69908e-05
3.67773e-05
3.65613e-05
3.63429e-05
3.6122e-05
3.5899e-05
3.56742e-05
3.54478e-05
3.52201e-05
3.49914e-05
3.47622e-05
3.45327e-05
3.43034e-05
3.40744e-05
3.38461e-05
3.3619e-05
3.3393e-05
3.31682e-05
3.29451e-05
3.27241e-05
3.25047e-05
3.22871e-05
3.20717e-05
3.18588e-05
3.16477e-05
3.14386e-05
3.12317e-05
3.10273e-05
3.0825e-05
3.06246e-05
3.04265e-05
3.02306e-05
3.0037e-05
2.98454e-05
2.96561e-05
2.9469e-05
2.92841e-05
2.91014e-05
2.89199e-05
2.87384e-05
2.8555e-05
2.83681e-05
2.8175e-05
2.79745e-05
2.77715e-05
6.17286e-05
7.34265e-05
8.75579e-05
9.85353e-05
0.000103434
0.000102194
9.5808e-05
8.41814e-05
7.61231e-05
6.89086e-05
6.3037e-05
5.85118e-05
5.50883e-05
5.76426e-05
5.07511e-05
4.94416e-05
4.85461e-05
5.2895e-05
4.75463e-05
4.75206e-05
4.82086e-05
4.84979e-05
4.83889e-05
4.81483e-05
4.78705e-05
4.75837e-05
4.72978e-05
4.70122e-05
4.67289e-05
4.64462e-05
4.61635e-05
4.58804e-05
4.55964e-05
4.53113e-05
4.50248e-05
4.4737e-05
4.4448e-05
4.41578e-05
4.38669e-05
4.35753e-05
4.32835e-05
4.29918e-05
4.27005e-05
4.24101e-05
4.21206e-05
4.18326e-05
4.15464e-05
4.12621e-05
4.09797e-05
4.06998e-05
4.04228e-05
4.01482e-05
3.98759e-05
3.96068e-05
3.93409e-05
3.90776e-05
3.88169e-05
3.85592e-05
3.83047e-05
3.80529e-05
3.78036e-05
3.75571e-05
3.73134e-05
3.70723e-05
3.68336e-05
3.65973e-05
3.6363e-05
3.61306e-05
3.58998e-05
3.56695e-05
3.54377e-05
3.52019e-05
3.49589e-05
3.47049e-05
3.4437e-05
3.41579e-05
6.45535e-05
7.79245e-05
9.57513e-05
0.000110748
0.0001193
0.000121383
0.000117092
0.000107556
9.87464e-05
9.01055e-05
8.25822e-05
7.65277e-05
7.18166e-05
7.13428e-05
6.56348e-05
6.36951e-05
6.22988e-05
6.4715e-05
6.05455e-05
6.01117e-05
6.02055e-05
6.0077e-05
5.972e-05
5.92959e-05
5.88653e-05
5.84403e-05
5.8028e-05
5.76231e-05
5.72275e-05
5.68378e-05
5.64527e-05
5.6071e-05
5.56919e-05
5.53147e-05
5.49387e-05
5.45636e-05
5.41893e-05
5.38158e-05
5.34431e-05
5.30713e-05
5.27007e-05
5.23316e-05
5.1964e-05
5.15987e-05
5.12354e-05
5.08747e-05
5.05171e-05
5.01624e-05
4.98107e-05
4.94626e-05
4.91185e-05
4.87779e-05
4.84407e-05
4.81076e-05
4.77789e-05
4.74537e-05
4.7132e-05
4.68142e-05
4.65006e-05
4.61905e-05
4.58836e-05
4.55802e-05
4.52801e-05
4.49831e-05
4.46888e-05
4.43967e-05
4.41062e-05
4.38169e-05
4.35282e-05
4.32385e-05
4.29452e-05
4.26447e-05
4.23322e-05
4.20018e-05
4.16486e-05
4.12704e-05
8.02622e-05
0.000102272
0.000121936
0.00013492
0.000141269
0.000140302
0.000133097
0.000124274
0.000114704
0.000105799
9.82647e-05
9.216e-05
8.88932e-05
8.36985e-05
8.08995e-05
7.87804e-05
7.89908e-05
7.58699e-05
7.48959e-05
7.43251e-05
7.37032e-05
7.30148e-05
7.23296e-05
7.16769e-05
7.10518e-05
7.04576e-05
6.9883e-05
6.93296e-05
6.87912e-05
6.82657e-05
6.77507e-05
6.72443e-05
6.67453e-05
6.62524e-05
6.57646e-05
6.52813e-05
6.48021e-05
6.43268e-05
6.38551e-05
6.33871e-05
6.29226e-05
6.2462e-05
6.20054e-05
6.15527e-05
6.11043e-05
6.06606e-05
6.02216e-05
5.97869e-05
5.93572e-05
5.89331e-05
5.85139e-05
5.80994e-05
5.76903e-05
5.72869e-05
5.68883e-05
5.64943e-05
5.61053e-05
5.57215e-05
5.53422e-05
5.49669e-05
5.45957e-05
5.42286e-05
5.38648e-05
5.35036e-05
5.31443e-05
5.27855e-05
5.24265e-05
5.20659e-05
5.17019e-05
5.13308e-05
5.09478e-05
5.05461e-05
5.01172e-05
4.9654e-05
4.91435e-05
0.00010665
0.000131622
0.000149828
0.000161364
0.000164859
0.000160776
0.000152862
0.000142897
0.000132823
0.000123803
0.000116162
0.000110587
0.000104954
0.000101048
9.79818e-05
9.63874e-05
9.35587e-05
9.19423e-05
9.06943e-05
8.95333e-05
8.84337e-05
8.74038e-05
8.64503e-05
8.55532e-05
8.4712e-05
8.39089e-05
8.31444e-05
8.2409e-05
8.16988e-05
8.10102e-05
8.03399e-05
7.96855e-05
7.90447e-05
7.84158e-05
7.77974e-05
7.71884e-05
7.6588e-05
7.59954e-05
7.54102e-05
7.48321e-05
7.42608e-05
7.36963e-05
7.31384e-05
7.2587e-05
7.20427e-05
7.15051e-05
7.09738e-05
7.04492e-05
6.99321e-05
6.94217e-05
6.89173e-05
6.842e-05
6.793e-05
6.7446e-05
6.69678e-05
6.64957e-05
6.60301e-05
6.55699e-05
6.51144e-05
6.46635e-05
6.4217e-05
6.37739e-05
6.33327e-05
6.28922e-05
6.24499e-05
6.20047e-05
6.15538e-05
6.1095e-05
6.06236e-05
6.01333e-05
5.96149e-05
5.90572e-05
5.84512e-05
5.77641e-05
0.000139286
0.000163513
0.000181179
0.000190216
0.00019031
0.000184501
0.000174973
0.000164111
0.000153643
0.000144308
0.000136627
0.00012981
0.000124514
0.000120248
0.000117128
0.000113919
0.000111526
0.000109542
0.000107764
0.000106154
0.000104681
0.000103335
0.000102082
0.000100918
9.98172e-05
9.87787e-05
9.77892e-05
9.68423e-05
9.59323e-05
9.50544e-05
9.42047e-05
9.33795e-05
9.25758e-05
9.17913e-05
9.10238e-05
9.02717e-05
8.95335e-05
8.88081e-05
8.80947e-05
8.73924e-05
8.67009e-05
8.60196e-05
8.53479e-05
8.46864e-05
8.40344e-05
8.33911e-05
8.27568e-05
8.21322e-05
8.15165e-05
8.09087e-05
8.03097e-05
7.97198e-05
7.91374e-05
7.8562e-05
7.79939e-05
7.74335e-05
7.68794e-05
7.63304e-05
7.57862e-05
7.52464e-05
7.47093e-05
7.41729e-05
7.36346e-05
7.30906e-05
7.25387e-05
7.19747e-05
7.13955e-05
7.07951e-05
7.0166e-05
6.94965e-05
6.87725e-05
6.79846e-05
6.70685e-05
0.000144344
0.000175393
0.000200178
0.00021583
0.00022122
0.000218857
0.000210939
0.000200007
0.00018834
0.000177247
0.000167464
0.00015894
0.000151945
0.000146191
0.000141566
0.000137478
0.000134127
0.000131278
0.000128756
0.000126506
0.000124466
0.000122615
0.000120904
0.000119325
0.000117842
0.000116453
0.000115139
0.000113891
0.0001127
0.00011156
0.000110465
0.000109409
0.000108388
0.000107398
0.000106435
0.000105497
0.000104582
0.000103686
0.000102809
0.000101949
0.000101106
0.000100277
9.94621e-05
9.86614e-05
9.7874e-05
9.70983e-05
9.63346e-05
9.55834e-05
9.48438e-05
9.41144e-05
9.33959e-05
9.26885e-05
9.19905e-05
9.13007e-05
9.06197e-05
8.99474e-05
8.92822e-05
8.86225e-05
8.79674e-05
8.73163e-05
8.66665e-05
8.6015e-05
8.5358e-05
8.46895e-05
8.40056e-05
8.33004e-05
8.25693e-05
8.18052e-05
8.09991e-05
8.01375e-05
7.9204e-05
7.81902e-05
7.69881e-05
0.000146159
0.000184797
0.000217738
0.000241124
0.000252948
0.000255367
0.00025045
0.000240559
0.000228289
0.000215587
0.000203682
0.000193093
0.000184091
0.000176538
0.00017025
0.00016489
0.00016035
0.000156451
0.00015301
0.000149955
0.000147199
0.000144705
0.000142413
0.000140305
0.000138337
0.000136502
0.000134777
0.000133148
0.000131604
0.000130134
0.000128731
0.000127387
0.000126095
0.000124849
0.000123645
0.000122478
0.000121344
0.00012024
0.000119163
0.000118111
0.000117083
0.000116075
0.000115087
0.000114118
0.000113168
0.000112233
0.000111314
0.00011041
0.000109522
0.000108647
0.000107785
0.000106937
0.0001061
0.000105273
0.000104456
0.000103649
0.00010285
0.000102056
0.000101267
0.00010048
9.96935e-05
9.89014e-05
9.80986e-05
9.72766e-05
9.64293e-05
9.55482e-05
9.46272e-05
9.36576e-05
9.26296e-05
9.15282e-05
9.03351e-05
8.90456e-05
0.000144075
0.000190964
0.000233128
0.000265436
0.000284884
0.000293378
0.000292902
0.000285453
0.000273593
0.000259772
0.00024587
0.000233019
0.00022174
0.000212081
0.000203877
0.000196896
0.000190899
0.000185713
0.000181138
0.00017708
0.000173427
0.000170126
0.000167102
0.000164328
0.000161751
0.000159355
0.000157113
0.000155006
0.000153018
0.000151136
0.000149348
0.000147645
0.000146015
0.000144453
0.000142949
0.000141499
0.000140096
0.000138736
0.000137415
0.000136128
0.000134873
0.000133648
0.00013245
0.000131277
0.000130128
0.000129
0.000127892
0.000126804
0.000125736
0.000124684
0.000123648
0.000122629
0.000121624
0.00012063
0.000119648
0.000118677
0.000117715
0.000116759
0.000115805
0.000114854
0.000113899
0.000112934
0.000111952
0.000110941
0.000109892
0.000108794
0.000107638
0.000106414
0.000105112
0.000103715
0.000102205
0.000100583
0.00013748
0.000193061
0.000245498
0.000287974
0.000316338
0.000332199
0.000337555
0.00033407
0.000323992
0.000309968
0.000294494
0.000279405
0.000265682
0.000253648
0.000243246
0.000234311
0.000226562
0.000219819
0.000213858
0.000208564
0.000203799
0.000199497
0.000195562
0.000191959
0.000188621
0.000185526
0.00018264
0.000179936
0.000177396
0.000175001
0.000172735
0.000170585
0.000168538
0.000166584
0.000164711
0.000162912
0.000161178
0.000159504
0.000157882
0.000156308
0.000154778
0.000153287
0.000151831
0.00015041
0.00014902
0.000147657
0.00014632
0.000145009
0.000143722
0.000142455
0.000141209
0.000139982
0.000138772
0.000137576
0.000136393
0.000135223
0.000134062
0.000132906
0.000131753
0.000130599
0.000129439
0.000128263
0.000127062
0.000125821
0.000124525
0.000123162
0.000121718
0.000120184
0.000118548
0.000116794
0.000114902
0.000112883
0.000125804
0.000190273
0.000253886
0.000307787
0.000346482
0.000371081
0.000383628
0.000385607
0.000378878
0.000365972
0.000349767
0.000332789
0.000316643
0.000302068
0.000289217
0.00027802
0.000268216
0.000259618
0.000251991
0.000245197
0.000239076
0.000233545
0.00022849
0.000223864
0.000219586
0.000215627
0.000211943
0.000208502
0.000205277
0.000202247
0.00019939
0.000196689
0.000194126
0.000191688
0.000189361
0.000187133
0.000184993
0.000182933
0.000180944
0.000179019
0.000177151
0.000175337
0.000173569
0.000171845
0.000170162
0.000168514
0.000166899
0.000165316
0.000163764
0.000162236
0.000160734
0.000159256
0.000157797
0.000156355
0.000154928
0.000153516
0.000152114
0.000150717
0.000149321
0.000147922
0.000146512
0.00014508
0.000143614
0.000142093
0.0001405
0.000138816
0.000137027
0.000135119
0.000133083
0.000130901
0.000128556
0.000126066
0.000109501
0.00018199
0.000257243
0.000323743
0.000374301
0.000409153
0.000430296
0.000439186
0.000437402
0.000427196
0.000411526
0.000393429
0.00037519
0.000358101
0.000342652
0.000328949
0.000316803
0.000306054
0.000296463
0.000287882
0.000280133
0.000273115
0.0002667
0.000260825
0.000255399
0.00025038
0.000245716
0.000241368
0.000237302
0.000233489
0.000229905
0.000226525
0.000223329
0.000220296
0.00021741
0.000214656
0.000212019
0.000209487
0.000207049
0.000204695
0.000202417
0.000200208
0.000198059
0.000195968
0.000193929
0.000191935
0.000189983
0.000188071
0.000186197
0.000184355
0.000182543
0.00018076
0.000179001
0.000177261
0.000175539
0.000173835
0.000172141
0.000170452
0.000168762
0.000167067
0.000165356
0.000163617
0.000161831
0.000159975
0.000158026
0.000155961
0.00015376
0.00015141
0.000148899
0.000146213
0.000143334
0.000140295
9.01039e-05
0.000168087
0.000254496
0.000334521
0.000398547
0.000445341
0.000476622
0.000493886
0.000498595
0.000492754
0.000479192
0.000461187
0.000441593
0.000422322
0.000404329
0.000387998
0.000373295
0.00036013
0.000348289
0.000337627
0.00032796
0.000319176
0.000311131
0.000303754
0.000296939
0.000290634
0.000284778
0.000279324
0.00027423
0.000269461
0.000264986
0.000260775
0.000256801
0.000253041
0.000249471
0.000246072
0.000242827
0.000239718
0.000236732
0.000233855
0.000231077
0.000228388
0.000225777
0.000223239
0.000220769
0.000218356
0.000215996
0.000213686
0.000211423
0.000209199
0.000207013
0.000204863
0.000202741
0.000200642
0.000198566
0.000196508
0.000194463
0.000192423
0.00019038
0.00018833
0.000186259
0.000184151
0.000181985
0.000179731
0.000177361
0.000174846
0.000172162
0.000169292
0.000166226
0.000162951
0.000159452
0.000155774
7.06349e-05
0.000149041
0.000244615
0.000338631
0.000417721
0.000478311
0.000521464
0.000548679
0.000561423
0.000561588
0.000551837
0.000535471
0.000515696
0.000494978
0.000474804
0.000455944
0.000438613
0.000422855
0.000408527
0.000395516
0.000383647
0.000372808
0.000362852
0.000353696
0.000345226
0.00033738
0.00033009
0.0003233
0.000316961
0.000311031
0.000305472
0.000300248
0.000295327
0.000290678
0.000286274
0.000282089
0.000278101
0.000274289
0.000270635
0.000267122
0.000263735
0.000260463
0.000257291
0.000254212
0.000251219
0.000248298
0.000245445
0.000242654
0.000239921
0.000237238
0.000234601
0.000232007
0.000229449
0.000226919
0.000224416
0.000221935
0.000219469
0.000217008
0.000214544
0.000212069
0.000209569
0.000207024
0.000204407
0.000201684
0.00019882
0.000195778
0.000192531
0.000189058
0.000185348
0.000181393
0.000177179
0.000172765
5.81344e-05
0.000126281
0.000226795
0.0003345
0.000430058
0.000506415
0.000563394
0.000602332
0.000624749
0.000632546
0.000628312
0.000615294
0.000596853
0.000575847
0.000554255
0.000533289
0.000513499
0.000495141
0.000478205
0.000462649
0.000448338
0.00043518
0.000423034
0.000411817
0.000401412
0.000391751
0.00038276
0.000374377
0.000366547
0.000359221
0.000352356
0.000345908
0.000339839
0.000334113
0.000328695
0.000323555
0.000318665
0.000313999
0.000309533
0.000305246
0.000301121
0.000297141
0.000293289
0.000289555
0.000285928
0.000282395
0.000278945
0.000275573
0.000272274
0.000269038
0.000265859
0.000262732
0.00025965
0.000256603
0.000253588
0.0002506
0.000247631
0.000244668
0.000241702
0.000238723
0.000235714
0.000232651
0.000229505
0.000226232
0.000222791
0.000219138
0.000215239
0.000211071
0.000206622
0.000201886
0.000196855
0.000191596
4.9786e-05
0.000101913
0.000200995
0.000320679
0.000433569
0.000527657
0.00060062
0.000653301
0.00068722
0.000704356
0.000707337
0.000699405
0.000683993
0.000664189
0.000642348
0.000620095
0.000598354
0.000577657
0.000558192
0.000540042
0.000523153
0.000507479
0.000492909
0.000479373
0.000466762
0.00045501
0.000444042
0.000433792
0.000424203
0.000415222
0.000406799
0.000398887
0.000391441
0.000384418
0.000377778
0.000371485
0.000365504
0.000359803
0.000354355
0.000349132
0.000344113
0.000339277
0.000334603
0.000330077
0.000325686
0.000321412
0.000317245
0.000313174
0.000309193
0.000305292
0.000301462
0.000297696
0.000293986
0.00029032
0.000286694
0.000283101
0.000279533
0.000275973
0.000272411
0.000268834
0.000265224
0.000261552
0.000257784
0.000253869
0.000249759
0.000245401
0.000240753
0.000235788
0.000230496
0.000224871
0.00021891
0.000212681
4.48453e-05
7.97287e-05
0.000168705
0.000296258
0.000426155
0.000539675
0.000630921
0.000699631
0.000747145
0.00077552
0.000787492
0.00078639
0.000775745
0.00075881
0.000738199
0.000715861
0.000693066
0.000670644
0.000649027
0.00062847
0.00060905
0.000590802
0.000573675
0.000557634
0.000542595
0.000528504
0.000515296
0.00050291
0.00049129
0.000480381
0.000470132
0.000460494
0.000451415
0.00044285
0.000434752
0.000427078
0.000419788
0.000412846
0.000406216
0.000399867
0.000393771
0.000387904
0.00038224
0.00037676
0.000371449
0.000366286
0.000361256
0.000356345
0.000351547
0.000346848
0.000342238
0.000337708
0.000333247
0.000328843
0.000324488
0.000320176
0.000315894
0.000311626
0.000307359
0.000303077
0.000298758
0.000294372
0.000289876
0.000285216
0.000280332
0.000275163
0.00026966
0.000263789
0.000257539
0.000250906
0.000243896
0.000236551
4.26345e-05
6.2757e-05
0.000135414
0.000261759
0.00040592
0.000539794
0.000651605
0.000738869
0.000802376
0.000844167
0.000867101
0.000874662
0.00087055
0.000858207
0.000840464
0.000819517
0.000796917
0.000773761
0.000750728
0.000728276
0.000706644
0.000685989
0.000666352
0.00064776
0.000630178
0.000613581
0.000597929
0.000583174
0.000569272
0.000556174
0.000543832
0.000532198
0.000521221
0.00051085
0.000501036
0.000491731
0.000482891
0.000474472
0.000466434
0.000458741
0.000451359
0.000444259
0.00043741
0.000430789
0.000424377
0.000418149
0.000412086
0.000406171
0.000400396
0.000394744
0.000389203
0.000383762
0.000378407
0.000373124
0.000367903
0.000362736
0.00035761
0.000352505
0.000347404
0.000342292
0.000337142
0.00033192
0.000326577
0.000321053
0.000315277
0.000309181
0.000302704
0.000295807
0.000288476
0.000280709
0.000272521
0.000263885
4.31729e-05
5.30226e-05
0.000105017
0.000219264
0.000371642
0.000525191
0.000659492
0.000767991
0.000850198
0.000907918
0.000944081
0.000962343
0.000966639
0.00096066
0.000947485
0.000929543
0.000908617
0.000886025
0.000862665
0.000839187
0.000816006
0.000793417
0.000771582
0.000750618
0.000730562
0.000711442
0.000693258
0.000675995
0.000659631
0.000644133
0.000629467
0.000615591
0.000602458
0.000590021
0.000578228
0.000567032
0.000556383
0.000546235
0.000536543
0.000527265
0.000518364
0.000509804
0.000501551
0.000493575
0.000485854
0.000478361
0.000471071
0.000463964
0.000457027
0.000450244
0.000443597
0.000437075
0.00043066
0.000424335
0.000418089
0.000411913
0.000405789
0.000399698
0.000393618
0.000387531
0.000381409
0.000375211
0.000368886
0.000362363
0.000355566
0.000348412
0.000340834
0.000332782
0.000324239
0.000315203
0.000305703
0.000295567
4.34927e-05
4.83132e-05
7.96687e-05
0.000171991
0.000323386
0.000493294
0.000651015
0.000783344
0.000887223
0.000963748
0.00101577
0.00104709
0.0010619
0.00106419
0.00105736
0.00104411
0.00102645
0.0010059
0.000983564
0.000960242
0.000936511
0.000912806
0.000889414
0.000866557
0.000844365
0.000822936
0.000802333
0.000782587
0.000763715
0.000745717
0.00072858
0.000712281
0.000696787
0.000682058
0.000668049
0.000654715
0.000642006
0.000629876
0.000618277
0.000607165
0.000596496
0.000586234
0.000576338
0.000566775
0.000557518
0.000548538
0.000539804
0.000531292
0.000522988
0.00051487
0.000506921
0.000499124
0.00049146
0.00048391
0.000476459
0.000469096
0.000461802
0.000454554
0.000447329
0.000440104
0.000432848
0.000425519
0.000418058
0.000410388
0.000402423
0.000394071
0.000385253
0.00037591
0.00036602
0.000355578
0.000344635
0.000332755
4.33767e-05
4.54714e-05
6.24457e-05
0.000126628
0.0002637
0.000442559
0.000622516
0.000780676
0.000909303
0.00100786
0.00107879
0.00112592
0.00115369
0.00116642
0.00116788
0.0011611
0.00114838
0.00113147
0.00111164
0.00108985
0.00106683
0.00104313
0.00101915
0.000995212
0.000971543
0.000948323
0.000925687
0.00090373
0.000882522
0.000862107
0.00084251
0.000823739
0.000805785
0.000788626
0.000772233
0.000756568
0.000741591
0.000727256
0.000713518
0.000700334
0.000687658
0.000675452
0.000663672
0.000652282
0.000641252
0.000630549
0.000620142
0.000609998
0.000600102
0.000590431
0.000580964
0.000571681
0.00056256
0.00055358
0.000544725
0.000535978
0.000527321
0.000518727
0.000510171
0.000501626
0.00049306
0.000484426
0.00047566
0.000466679
0.00045739
0.00044769
0.000437489
0.000426717
0.000415347
0.000403368
0.000390863
4.34962e-05
4.43185e-05
5.21897e-05
9.13226e-05
0.00019928
0.000374014
0.000570972
0.00075535
0.000911508
0.00103555
0.00112885
0.00119501
0.00123862
0.00126435
0.00127634
0.00127803
0.00127206
0.00126046
0.00124472
0.00122597
0.00120508
0.0011827
0.00115934
0.00113542
0.00111124
0.00108707
0.00106311
0.00103952
0.00101643
0.000993946
0.000972138
0.000951055
0.000930724
0.000911157
0.000892345
0.000874271
0.000856908
0.000840224
0.000824181
0.000808739
0.000793856
0.000779496
0.000765616
0.000752177
0.000739148
0.000726495
0.000714185
0.000702182
0.000690467
0.000679017
0.000667809
0.000656818
0.000646023
0.000635398
0.000624924
0.000614584
0.000604357
0.000594215
0.000584128
0.000574069
0.000564001
0.000553875
0.000543624
0.00053316
0.000522381
0.000511179
0.000499451
0.000487118
0.000474148
0.00046052
0.000446357
4.38483e-05
4.4153e-05
4.76219e-05
6.8147e-05
0.000140482
0.000293092
0.000495459
0.000702974
0.000888271
0.00104119
0.00116064
0.00124952
0.00131236
0.0013541
0.00137929
0.0013918
0.00139466
0.00139024
0.0013803
0.00136618
0.00134892
0.0013293
0.00130793
0.00128531
0.00126182
0.0012378
0.00121351
0.00118917
0.00116498
0.00114108
0.0011176
0.00109465
0.00107229
0.00105057
0.00102951
0.00100914
0.000989442
0.000970409
0.000952017
0.000934239
0.000917042
0.000900397
0.000884266
0.000868611
0.000853403
0.000838612
0.000824203
0.000810139
0.000796399
0.00078296
0.000769798
0.000756887
0.000744203
0.000731721
0.000719417
0.000707274
0.000695268
0.00068337
0.00067155
0.000659777
0.000648011
0.000636203
0.000624283
0.00061216
0.000599728
0.000586872
0.000573483
0.000559472
0.000544801
0.000529443
0.000513566
4.4252e-05
4.53674e-05
5.46924e-05
9.6203e-05
0.000210523
0.000399543
0.00062085
0.000833943
0.00101824
0.0011677
0.0012834
0.0013694
0.00143072
0.0014723
0.00149843
0.00151259
0.00151753
0.00151534
0.00150764
0.00149565
0.00148032
0.0014624
0.00144248
0.00142102
0.00139841
0.00137499
0.00135103
0.00132677
0.0013024
0.00127811
0.00125403
0.00123028
0.00120695
0.00118412
0.00116181
0.00114007
0.00111891
0.00109833
0.00107831
0.00105886
0.00103994
0.00102153
0.00100361
0.000986139
0.000969106
0.000952478
0.000936217
0.000920302
0.000904714
0.000889431
0.000874425
0.000859672
0.000845146
0.000830826
0.000816688
0.000802712
0.000788869
0.000775125
0.000761448
0.000747799
0.000734128
0.000720365
0.000706417
0.000692178
0.000677532
0.000662363
0.000646579
0.000630137
0.000613007
0.000595396
4.44797e-05
4.48284e-05
4.84711e-05
6.88535e-05
0.000140144
0.000293815
0.00051066
0.000744209
0.000959854
0.00114253
0.00128931
0.00140286
0.00148794
0.00154969
0.0015928
0.00162123
0.00163815
0.00164605
0.00164683
0.001642
0.00163269
0.00161981
0.00160409
0.00158608
0.00156627
0.00154504
0.00152272
0.0014996
0.00147591
0.00145188
0.00142768
0.00140347
0.00137938
0.00135551
0.00133195
0.00130875
0.00128596
0.00126361
0.00124171
0.00122028
0.00119932
0.00117881
0.00115875
0.0011391
0.00111988
0.00110105
0.00108258
0.00106445
0.00104665
0.00102917
0.00101198
0.000995045
0.000978358
0.000961892
0.000945624
0.000929534
0.000913597
0.000897778
0.000882045
0.000866361
0.000850676
0.000834923
0.000819011
0.000802838
0.000786288
0.000769247
0.000751618
0.000733361
0.000714441
0.0006951
4.46546e-05
4.47607e-05
4.62402e-05
5.47826e-05
9.17579e-05
0.000195748
0.000382353
0.000619113
0.000860257
0.00107701
0.00125861
0.00140435
0.00151789
0.00160423
0.00166835
0.00171464
0.00174673
0.00176752
0.0017793
0.00178385
0.00178258
0.00177659
0.00176676
0.00175379
0.00173826
0.00172064
0.00170132
0.00168065
0.00165892
0.00163637
0.00161323
0.00158968
0.00156589
0.00154199
0.00151809
0.00149429
0.00147066
0.00144725
0.00142412
0.00140129
0.00137878
0.00135661
0.00133478
0.00131329
0.00129214
0.00127133
0.00125083
0.00123063
0.00121073
0.00119113
0.00117179
0.00115271
0.00113386
0.00111523
0.0010968
0.00107854
0.00106045
0.00104248
0.00102461
0.0010068
0.000989014
0.000971179
0.000953213
0.000935022
0.000916494
0.000897521
0.000878006
0.000857907
0.000837189
0.00081611
4.47837e-05
4.48183e-05
4.54911e-05
4.88624e-05
6.50723e-05
0.000122409
0.00025611
0.000467917
0.000718099
0.000964045
0.00118193
0.00136402
0.001511
0.00162693
0.00171677
0.00178521
0.00183631
0.00187343
0.00189926
0.00191593
0.00192514
0.00192824
0.0019263
0.0019202
0.00191065
0.00189822
0.0018834
0.00186661
0.00184818
0.00182844
0.00180762
0.00178597
0.00176367
0.00174089
0.00171777
0.00169443
0.00167097
0.00164746
0.00162399
0.00160059
0.00157731
0.0015542
0.00153126
0.00150852
0.00148599
0.00146368
0.00144159
0.00141971
0.00139806
0.00137663
0.00135541
0.00133439
0.00131357
0.00129293
0.00127247
0.00125215
0.00123198
0.00121192
0.00119196
0.00117206
0.00115218
0.00113226
0.00111224
0.00109202
0.00107151
0.0010506
0.0010292
0.00100726
0.000984745
0.000961908
4.48634e-05
4.48972e-05
4.51944e-05
4.65008e-05
5.30298e-05
7.90209e-05
0.000155898
0.00031326
0.000542448
0.0008013
0.00105096
0.00127117
0.00145602
0.00160685
0.00172772
0.00182332
0.00189804
0.00195564
0.00199923
0.00203136
0.00205405
0.00206893
0.00207733
0.00208032
0.00207876
0.00207339
0.00206479
0.00205349
0.0020399
0.00202439
0.00200729
0.00198885
0.00196933
0.00194891
0.00192778
0.00190607
0.00188391
0.00186141
0.00183865
0.00181572
0.00179266
0.00176954
0.00174639
0.00172324
0.00170013
0.00167709
0.00165411
0.00163121
0.00160841
0.00158573
0.00156314
0.00154067
0.00151832
0.00149607
0.00147393
0.00145188
0.00142992
0.00140804
0.00138622
0.00136442
0.00134264
0.00132081
0.00129887
0.00127676
0.00125438