/*--------------------------------*- C++ -*----------------------------------*\
| =========                 |                                                 |
| \\      /  F ield         | OpenFOAM: The Open Source CFD Toolbox           |
|  \\    /   O peration     | Version:  2412                                  |
|   \\  /    A nd           | Website:  www.openfoam.com                      |
|    \\/     M anipulation  |                                                 |
\*---------------------------------------------------------------------------*/
FoamFile
{
    version     2.0;
    format      ascii;
    arch        "LSB;label=32;scalar=64";
    class       surfaceScalarField;
    location    "120";
    object      phi;
}
// * * * * * * * * * * * * * * * * * * * * * * * * * * * * * * * * * * * * * //

dimensions      [0 3 -1 0 0 0 0];

oriented        oriented;

internalField   nonuniform List<scalar> 
14663
(
2.21854e-05
-2.20368e-06
2.20913e-05
1.16276e-07
2.02606e-05
1.84247e-06
1.72094e-05
3.03871e-06
1.3415e-05
3.79441e-06
1.03415e-05
3.07358e-06
8.26843e-06
2.073e-06
6.66385e-06
1.60457e-06
5.42583e-06
1.23796e-06
4.565e-06
8.60809e-07
3.98889e-06
5.76046e-07
3.6162e-06
3.7263e-07
3.39299e-06
2.23133e-07
3.27302e-06
1.19933e-07
3.2173e-06
5.56238e-08
3.19782e-06
1.94977e-08
3.19709e-06
1.22373e-08
3.20395e-06
-1.8054e-08
3.21161e-06
3.20054e-09
3.21754e-06
-1.67088e-08
3.2204e-06
6.31033e-09
3.21947e-06
-8.30617e-09
3.21493e-06
1.20017e-08
3.20724e-06
1.878e-10
3.19646e-06
1.84991e-08
3.1829e-06
5.7374e-09
3.167e-06
2.28932e-08
3.14887e-06
1.11476e-08
3.12875e-06
2.01331e-08
3.1067e-06
2.20432e-08
3.08298e-06
2.37235e-08
3.05769e-06
2.52738e-08
3.03102e-06
2.66717e-08
3.00307e-06
2.79501e-08
2.97395e-06
2.91197e-08
2.94393e-06
3.00199e-08
2.91301e-06
3.09244e-08
2.88139e-06
3.16178e-08
2.84909e-06
3.23137e-08
2.81642e-06
3.26723e-08
2.78342e-06
3.30064e-08
2.75012e-06
3.33027e-08
2.71674e-06
3.33894e-08
2.68327e-06
3.3478e-08
2.64979e-06
3.34975e-08
2.61647e-06
3.33292e-08
2.58328e-06
3.31903e-08
2.55034e-06
3.29521e-08
2.51761e-06
3.27402e-08
2.48527e-06
3.2351e-08
2.45316e-06
3.21205e-08
2.42138e-06
3.17949e-08
2.38996e-06
3.14369e-08
2.35905e-06
3.09339e-08
2.32846e-06
3.06e-08
2.29826e-06
3.02163e-08
2.26851e-06
2.97572e-08
2.2392e-06
2.9326e-08
2.21037e-06
2.88423e-08
2.18196e-06
2.84296e-08
2.15407e-06
2.79124e-08
2.1268e-06
2.72951e-08
2.10006e-06
2.67636e-08
2.07403e-06
2.60568e-08
2.04875e-06
2.52843e-08
2.02441e-06
2.55134e-08
2.00107e-06
2.22571e-08
1.97896e-06
2.2777e-08
1.95823e-06
2.0116e-08
1.93871e-06
2.02329e-08
1.92067e-06
1.7418e-08
1.90419e-06
1.70488e-08
1.88952e-06
1.42039e-08
1.87679e-06
1.25826e-08
1.8673e-06
1.02148e-08
6.08496e-09
7.56987e-05
-1.03283e-05
7.63844e-05
-5.39919e-07
7.11567e-05
7.0871e-06
6.12002e-05
1.29788e-05
4.8237e-05
1.67576e-05
3.72699e-05
1.40406e-05
2.97879e-05
9.55494e-06
2.4063e-05
7.32947e-06
1.96084e-05
5.69247e-06
1.64873e-05
3.98184e-06
1.4392e-05
2.67125e-06
1.30308e-05
1.73375e-06
1.22059e-05
1.04784e-06
1.17544e-05
5.71381e-07
1.1537e-05
2.72881e-07
1.14492e-05
1.07343e-07
1.14303e-05
4.78597e-08
1.14417e-05
-4.56921e-08
1.1459e-05
1.66504e-09
1.14709e-05
-4.42589e-08
1.14734e-05
1.71235e-08
1.14638e-05
-1.20776e-08
1.14422e-05
4.42972e-08
1.14103e-05
2.12489e-08
1.13684e-05
7.15955e-08
1.13174e-05
4.54252e-08
1.1258e-05
9.23484e-08
1.11912e-05
6.78771e-08
1.11174e-05
9.39608e-08
1.10374e-05
1.0206e-07
1.09518e-05
1.09349e-07
1.08607e-05
1.16328e-07
1.07647e-05
1.22628e-07
1.06644e-05
1.28222e-07
1.05603e-05
1.33261e-07
1.04528e-05
1.3758e-07
1.03425e-05
1.41161e-07
1.02297e-05
1.44468e-07
1.01147e-05
1.47288e-07
9.99829e-06
1.49108e-07
9.88082e-06
1.50489e-07
9.76237e-06
1.51758e-07
9.64349e-06
1.52295e-07
9.52464e-06
1.52336e-07
9.40567e-06
1.52488e-07
9.2873e-06
1.51724e-07
9.16947e-06
1.51026e-07
9.05227e-06
1.5017e-07
8.93624e-06
1.4878e-07
8.82115e-06
1.47467e-07
8.70732e-06
1.45963e-07
8.59453e-06
1.44615e-07
8.48318e-06
1.42817e-07
8.37327e-06
1.40886e-07
8.26493e-06
1.38959e-07
8.15779e-06
1.37377e-07
8.05206e-06
1.35505e-07
7.94803e-06
1.33385e-07
7.84581e-06
1.31082e-07
7.74517e-06
1.29106e-07
7.64615e-06
1.26978e-07
7.5492e-06
1.24296e-07
7.45461e-06
1.21385e-07
7.36213e-06
1.18581e-07
7.27213e-06
1.15299e-07
7.18565e-06
1.13686e-07
7.1029e-06
1.03469e-07
7.02422e-06
1.02435e-07
6.94992e-06
9.35389e-08
6.8803e-06
9.08968e-08
6.81537e-06
8.14594e-08
6.75589e-06
7.7377e-08
6.7025e-06
6.69258e-08
6.65596e-06
5.89677e-08
6.62044e-06
4.68639e-08
3.02031e-08
0.000145841
-2.70314e-05
0.000148866
-3.53443e-06
0.000140505
1.54668e-05
0.000122275
3.11908e-05
9.74314e-05
4.16011e-05
7.56268e-05
3.58453e-05
6.05368e-05
2.46448e-05
4.90522e-05
1.88141e-05
4.0015e-05
1.47296e-05
3.36368e-05
1.036e-05
2.93335e-05
6.97445e-06
2.65266e-05
4.54049e-06
2.48014e-05
2.77297e-06
2.38419e-05
1.53078e-06
2.33683e-05
7.4631e-07
2.31546e-05
3.2108e-07
2.30807e-05
1.40273e-07
2.30762e-05
-5.92054e-08
2.3094e-05
1.2965e-09
2.31003e-05
-6.78415e-08
2.30887e-05
4.33989e-08
2.30567e-05
5.10724e-09
2.30037e-05
1.09198e-07
2.29309e-05
8.21608e-08
2.28398e-05
1.74878e-07
2.27307e-05
1.42104e-07
2.26065e-05
2.27641e-07
2.24682e-05
1.95142e-07
2.23158e-05
2.46306e-07
2.21519e-05
2.65953e-07
2.1977e-05
2.84289e-07
2.17915e-05
3.01832e-07
2.15972e-05
3.16912e-07
2.13945e-05
3.30901e-07
2.11843e-05
3.43436e-07
2.09673e-05
3.54588e-07
2.07447e-05
3.63822e-07
2.05173e-05
3.718e-07
2.02864e-05
3.78206e-07
2.00523e-05
3.83273e-07
1.98157e-05
3.8707e-07
1.95781e-05
3.89327e-07
1.93395e-05
3.90933e-07
1.91006e-05
3.91227e-07
1.88623e-05
3.90797e-07
1.86247e-05
3.89381e-07
1.83884e-05
3.87325e-07
1.81534e-05
3.85182e-07
1.79203e-05
3.81949e-07
1.76899e-05
3.7785e-07
1.74614e-05
3.74457e-07
1.72354e-05
3.70706e-07
1.70122e-05
3.66038e-07
1.67919e-05
3.61238e-07
1.65743e-05
3.56549e-07
1.63598e-05
3.51879e-07
1.61482e-05
3.4715e-07
1.59402e-05
3.41412e-07
1.57349e-05
3.36404e-07
1.55332e-05
3.30815e-07
1.53352e-05
3.2503e-07
1.5141e-05
3.18592e-07
1.49506e-05
3.11745e-07
1.4765e-05
3.04257e-07
1.45851e-05
2.95202e-07
1.44112e-05
2.89401e-07
1.42444e-05
2.68576e-07
1.40857e-05
2.62184e-07
1.39359e-05
2.42397e-07
1.37947e-05
2.3329e-07
1.36624e-05
2.12745e-07
1.35405e-05
2.00194e-07
1.34301e-05
1.7662e-07
1.3333e-05
1.55827e-07
1.32572e-05
1.23931e-07
8.52106e-08
0.000234131
-5.53207e-05
0.000241687
-1.10388e-05
0.000230935
2.62325e-05
0.000203465
5.86492e-05
0.000164269
8.07971e-05
0.00012859
7.15235e-05
0.000103372
4.98626e-05
8.41706e-05
3.8016e-05
6.88524e-05
3.00476e-05
5.79152e-05
2.12971e-05
5.04784e-05
1.44111e-05
4.55943e-05
9.42454e-06
4.2534e-05
5.83304e-06
4.08063e-05
3.25845e-06
3.99422e-05
1.61021e-06
3.95059e-05
7.57453e-07
3.93011e-05
3.6201e-07
3.92403e-05
-1.48388e-08
3.9241e-05
1.64819e-08
3.92139e-05
-5.65539e-08
3.91638e-05
1.06896e-07
3.90836e-05
7.17841e-08
3.89727e-05
2.30902e-07
3.88321e-05
2.11821e-07
3.86623e-05
3.55865e-07
3.84669e-05
3.26169e-07
3.82452e-05
4.59388e-07
3.8002e-05
4.28218e-07
3.77377e-05
5.10689e-07
3.74544e-05
5.49187e-07
3.71529e-05
5.85796e-07
3.68359e-05
6.1885e-07
3.6503e-05
6.49774e-07
3.61573e-05
6.76675e-07
3.57985e-05
7.02198e-07
3.54297e-05
7.23363e-07
3.50519e-05
7.4162e-07
3.46666e-05
7.57192e-07
3.42745e-05
7.70255e-07
3.38778e-05
7.80016e-07
3.34779e-05
7.8695e-07
3.30752e-05
7.9211e-07
3.26716e-05
7.94523e-07
3.22677e-05
7.95078e-07
3.18647e-05
7.93871e-07
3.14633e-05
7.9081e-07
3.10639e-05
7.86699e-07
3.06669e-05
7.82285e-07
3.02735e-05
7.75305e-07
2.98847e-05
7.66672e-07
2.94993e-05
7.59875e-07
2.91173e-05
7.52792e-07
2.87406e-05
7.42786e-07
2.83691e-05
7.32722e-07
2.80027e-05
7.23018e-07
2.76402e-05
7.14358e-07
2.72833e-05
7.04146e-07
2.69319e-05
6.92753e-07
2.65863e-05
6.82116e-07
2.62458e-05
6.71311e-07
2.59113e-05
6.59603e-07
2.55828e-05
6.47116e-07
2.5262e-05
6.32595e-07
2.49485e-05
6.17799e-07
2.46437e-05
6.00023e-07
2.4349e-05
5.85811e-07
2.40664e-05
5.49695e-07
2.37967e-05
5.32864e-07
2.35405e-05
4.97753e-07
2.32986e-05
4.76176e-07
2.30705e-05
4.40017e-07
2.28591e-05
4.12421e-07
2.2665e-05
3.70146e-07
2.24911e-05
3.29596e-07
2.23516e-05
2.64727e-07
1.90933e-07
0.000339527
-9.72248e-05
0.00035296
-2.44788e-05
0.000340365
3.88378e-05
0.000303807
9.51985e-05
0.000249523
0.000135081
0.000198065
0.000122982
0.000160515
8.74126e-05
0.000131649
6.68815e-05
0.000108417
5.32799e-05
9.14975e-05
3.82165e-05
7.9829e-05
2.60795e-05
7.20804e-05
1.7173e-05
6.71081e-05
1.08051e-05
6.42591e-05
6.10738e-06
6.28161e-05
3.0531e-06
6.20106e-05
1.563e-06
6.1547e-05
8.42652e-07
6.13542e-05
1.61067e-07
6.13116e-05
7.51307e-08
6.1199e-05
4.0156e-08
6.10603e-05
2.59066e-07
6.08883e-05
2.30114e-07
6.06794e-05
4.5075e-07
6.04319e-05
4.48274e-07
6.01436e-05
6.5544e-07
5.98183e-05
6.39951e-07
5.94575e-05
8.30381e-07
5.90648e-05
8.10752e-07
5.86408e-05
9.34628e-07
5.81903e-05
9.99709e-07
5.77135e-05
1.0626e-06
5.72124e-05
1.11993e-06
5.66899e-05
1.17224e-06
5.61472e-05
1.21946e-06
5.55876e-05
1.26181e-06
5.50116e-05
1.29927e-06
5.44218e-05
1.3315e-06
5.38218e-05
1.35711e-06
5.32123e-05
1.37986e-06
5.25958e-05
1.39646e-06
5.1974e-05
1.40882e-06
5.13495e-05
1.41661e-06
5.07225e-05
1.4215e-06
5.00958e-05
1.42176e-06
4.94699e-05
1.41981e-06
4.88478e-05
1.41301e-06
4.82287e-05
1.40578e-06
4.76137e-05
1.39728e-06
4.70039e-05
1.3851e-06
4.64004e-05
1.37018e-06
4.5804e-05
1.3563e-06
4.52129e-05
1.34398e-06
4.4629e-05
1.32673e-06
4.40544e-05
1.3073e-06
4.34857e-05
1.29172e-06
4.29243e-05
1.2758e-06
4.2372e-05
1.25649e-06
4.18285e-05
1.23628e-06
4.12931e-05
1.21753e-06
4.07653e-05
1.19917e-06
4.02471e-05
1.17785e-06
3.97392e-05
1.15513e-06
3.92412e-05
1.13063e-06
3.87542e-05
1.10478e-06
3.82801e-05
1.07412e-06
3.78225e-05
1.04515e-06
3.73812e-05
9.89451e-07
3.69593e-05
9.55778e-07
3.65566e-05
8.99548e-07
3.61746e-05
8.59245e-07
3.58127e-05
8.01088e-07
3.54728e-05
7.53075e-07
3.51573e-05
6.8505e-07
3.48706e-05
6.16165e-07
3.46322e-05
5.04485e-07
3.81343e-07
0.000459543
-0.000153461
0.000477708
-4.25443e-05
0.000461506
5.50519e-05
0.000415285
0.000141409
0.000347264
0.000203102
0.000281457
0.000188789
0.000231303
0.000137567
0.000191825
0.000106359
0.000159953
8.51518e-05
0.000136079
6.2091e-05
0.000119237
4.29212e-05
0.000107852
2.85582e-05
0.000100374
1.82832e-05
9.60007e-05
1.04801e-05
9.37265e-05
5.32712e-06
9.23653e-05
2.92426e-06
9.14762e-05
1.7473e-06
9.10453e-05
5.76269e-07
9.08984e-05
2.36694e-07
9.06258e-05
2.98157e-07
9.03293e-05
5.67914e-07
9.00053e-05
5.41476e-07
8.96421e-05
8.24045e-07
8.92307e-05
8.49549e-07
8.87697e-05
1.12672e-06
8.82585e-05
1.1406e-06
8.77029e-05
1.39537e-06
8.71031e-05
1.40104e-06
8.64632e-05
1.57463e-06
8.57855e-05
1.67736e-06
8.50726e-05
1.77546e-06
8.43267e-05
1.86581e-06
8.35521e-05
1.94691e-06
8.27488e-05
2.02276e-06
8.19205e-05
2.09012e-06
8.10712e-05
2.14855e-06
8.02043e-05
2.19841e-06
7.93201e-05
2.24124e-06
7.84242e-05
2.27585e-06
7.75178e-05
2.30286e-06
7.66051e-05
2.32156e-06
7.56878e-05
2.33385e-06
7.47691e-05
2.34023e-06
7.3849e-05
2.34192e-06
7.29322e-05
2.33661e-06
7.20198e-05
2.3255e-06
7.11114e-05
2.3142e-06
7.02094e-05
2.29928e-06
6.93149e-05
2.27964e-06
6.84317e-05
2.25342e-06
6.75556e-05
2.23234e-06
6.66896e-05
2.21002e-06
6.5834e-05
2.18248e-06
6.49902e-05
2.15116e-06
6.41578e-05
2.12409e-06
6.3336e-05
2.09765e-06
6.25252e-05
2.06737e-06
6.17266e-05
2.03488e-06
6.09415e-05
2.00267e-06
6.01681e-05
1.97264e-06
5.94071e-05
1.93884e-06
5.86603e-05
1.9021e-06
5.79287e-05
1.86228e-06
5.72134e-05
1.82015e-06
5.65156e-05
1.77186e-06
5.58388e-05
1.7236e-06
5.51858e-05
1.64108e-06
5.45593e-05
1.58321e-06
5.39603e-05
1.49774e-06
5.33865e-05
1.43402e-06
5.28404e-05
1.34648e-06
5.23211e-05
1.27314e-06
5.18339e-05
1.17175e-06
5.13821e-05
1.0679e-06
5.09946e-05
8.93359e-07
7.04085e-07
0.000593344
-0.000223845
0.000614379
-6.34584e-05
0.000591607
7.78225e-05
0.000533082
0.000199939
0.000450426
0.000285757
0.000371516
0.000267699
0.000310729
0.000198354
0.00026204
0.000155047
0.000222254
0.000124938
0.000191557
9.27873e-05
0.000169304
6.51749e-05
0.000153908
4.39536e-05
0.000143653
2.85388e-05
0.000137457
1.66753e-05
0.000134031
8.75296e-06
0.000131948
5.00752e-06
0.000130546
3.16318e-06
0.000129771
1.33727e-06
0.000129393
6.26635e-07
0.00012888
7.9852e-07
0.000128364
1.09563e-06
0.00012783
1.064e-06
0.000127253
1.40931e-06
0.000126621
1.47267e-06
0.000125927
1.82977e-06
0.000125175
1.88358e-06
0.000124362
2.21653e-06
0.000123498
2.25643e-06
0.000122581
2.4922e-06
0.000121615
2.64332e-06
0.000120603
2.78719e-06
0.00011955
2.91908e-06
0.000118457
3.04003e-06
0.000117326
3.15343e-06
0.000116164
3.25245e-06
0.000114971
3.34074e-06
0.000113755
3.41523e-06
0.000112517
3.47852e-06
0.000111262
3.53065e-06
0.000109995
3.5707e-06
0.000108717
3.59967e-06
0.000107432
3.61797e-06
0.000106145
3.62726e-06
0.00010486
3.62774e-06
0.000103575
3.62156e-06
0.000102296
3.60427e-06
0.000101024
3.58567e-06
9.97614e-05
3.56231e-06
9.85088e-05
3.53226e-06
9.72694e-05
3.49287e-06
9.60431e-05
3.45869e-06
9.48268e-05
3.42636e-06
9.36271e-05
3.38216e-06
9.24435e-05
3.33487e-06
9.12741e-05
3.29348e-06
9.01201e-05
3.25169e-06
8.89822e-05
3.20524e-06
8.78613e-05
3.15589e-06
8.67566e-05
3.10738e-06
8.56689e-05
3.0604e-06
8.45979e-05
3.00981e-06
8.35479e-05
2.95218e-06
8.25162e-05
2.89408e-06
8.15055e-05
2.83093e-06
8.05203e-05
2.75701e-06
7.95627e-05
2.68274e-06
7.86362e-05
2.56623e-06
7.77426e-05
2.47768e-06
7.68843e-05
2.35535e-06
7.60594e-05
2.25983e-06
7.52664e-05
2.13878e-06
7.4507e-05
2.03324e-06
7.37835e-05
1.89472e-06
7.3102e-05
1.74939e-06
7.24993e-05
1.49743e-06
1.22593e-06
0.000742379
-0.000309635
0.000765456
-8.63857e-05
0.000733959
0.000109347
0.000660322
0.000273548
0.000559924
0.000386155
0.00046572
0.000361904
0.000394508
0.000269566
0.000338114
0.00021144
0.000291719
0.000171334
0.000255345
0.000129161
0.0002284
9.21199e-05
0.000209337
6.30158e-05
0.000196612
4.12646e-05
0.000188615
2.4672e-05
0.000183804
1.35636e-05
0.000180961
7.85011e-06
0.000179167
4.96922e-06
0.000178026
2.4662e-06
0.000177237
1.42594e-06
0.000176486
1.53895e-06
0.000175746
1.84509e-06
0.000174982
1.8179e-06
0.000174163
2.23658e-06
0.000173276
2.35132e-06
0.000172318
2.79602e-06
0.000171286
2.90696e-06
0.000170186
3.32445e-06
0.000169019
3.41581e-06
0.000167785
3.72609e-06
0.000166494
3.93397e-06
0.000165144
4.13723e-06
0.00016374
4.32357e-06
0.000162284
4.49582e-06
0.000160783
4.65423e-06
0.000159236
4.7992e-06
0.000157654
4.92352e-06
0.000156037
5.03167e-06
0.000154392
5.12396e-06
0.000152724
5.19883e-06
0.000151037
5.25719e-06
0.000149336
5.30035e-06
0.000147627
5.32787e-06
0.000145914
5.33989e-06
0.000144197
5.3442e-06
0.000142484
5.33503e-06
0.000140778
5.30995e-06
0.000139078
5.28572e-06
0.000137388
5.25296e-06
0.000135711
5.20863e-06
0.000134052
5.15211e-06
0.000132406
5.1045e-06
0.000130778
5.0553e-06
0.000129165
4.99432e-06
0.000127575
4.92504e-06
0.000126005
4.86381e-06
0.000124451
4.80592e-06
0.000122918
4.73813e-06
0.000121408
4.66558e-06
0.00011992
4.59605e-06
0.000118451
4.52928e-06
0.000117005
4.45588e-06
0.000115583
4.37374e-06
0.000114187
4.29077e-06
0.000112819
4.1989e-06
0.00011148
4.09605e-06
0.000110176
3.98774e-06
0.000108911
3.83047e-06
0.000107687
3.70282e-06
0.000106506
3.53533e-06
0.000105364
3.40248e-06
0.000104259
3.24294e-06
0.000103193
3.10082e-06
0.000102164
2.92299e-06
0.000101177
2.73661e-06
0.000100283
2.39201e-06
2.02449e-06
0.000909326
0.000934897
-0.000111802
0.000893421
0.000150836
0.000802183
0.000364776
0.000680607
0.000507731
0.000567589
0.000474922
0.000483592
0.000353563
0.000418551
0.000276481
0.000365479
0.000224406
0.00032402
0.00017062
0.000293228
0.000122912
0.000271289
8.49549e-05
0.000256682
5.58713e-05
0.000247295
3.40593e-05
0.000241389
1.94698e-05
0.000237964
1.12745e-05
0.000235981
6.96014e-06
0.000234588
3.85143e-06
0.000233411
2.61034e-06
0.000232496
2.44613e-06
0.000231607
2.74046e-06
0.000230667
2.75056e-06
0.000229647
3.26265e-06
0.000228542
3.45045e-06
0.00022735
3.99389e-06
0.000226068
4.18269e-06
0.000224701
4.69712e-06
0.000223251
4.86051e-06
0.000221723
5.25397e-06
0.000220117
5.53958e-06
0.000218441
5.81337e-06
0.000216695
6.06925e-06
0.000214885
6.30618e-06
0.000213013
6.52586e-06
0.000211089
6.72363e-06
0.000209111
6.90106e-06
0.00020709
7.05306e-06
0.000205032
7.18208e-06
0.00020294
7.29038e-06
0.000200824
7.37356e-06
0.000198688
7.43645e-06
0.000196535
7.48066e-06
0.000194374
7.50098e-06
0.000192208
7.5108e-06
0.000190042
7.50025e-06
0.00018788
7.47263e-06
0.000185727
7.43877e-06
0.000183581
7.39887e-06
0.000181449
7.34077e-06
0.000179335
7.26597e-06
0.000177237
7.20271e-06
0.000175156
7.13629e-06
0.000173096
7.05432e-06
0.000171061
6.95973e-06
0.000169045
6.87989e-06
0.000167051
6.79954e-06
0.000165082
6.70702e-06
0.000163139
6.60926e-06
0.000161221
6.5139e-06
0.000159326
6.42406e-06
0.00015746
6.32239e-06
0.00015562
6.21314e-06
0.000153812
6.09948e-06
0.000152035
5.97526e-06
0.000150295
5.83624e-06
0.000148595
5.6893e-06
0.000146941
5.4831e-06
0.000145338
5.30658e-06
0.000143783
5.08956e-06
0.000142275
4.91198e-06
0.000140805
4.71154e-06
0.000139374
4.53311e-06
0.000137979
4.3178e-06
0.000136627
4.08769e-06
0.000135373
3.6474e-06
3.17136e-06
0.0011269
0.00107495
0.000202821
0.000963808
0.000475887
0.000817536
0.000654003
0.000681849
0.000610608
0.000581755
0.000453657
0.000505653
0.000352583
0.000444356
0.000285703
0.000396983
0.000217993
0.00036213
0.000157765
0.000337511
0.000109574
0.000321225
7.2157e-05
0.000310866
4.44183e-05
0.00030444
2.58962e-05
0.000300746
1.49679e-05
0.00029869
9.02331e-06
0.000297243
5.29127e-06
0.00029598
3.88004e-06
0.000295041
3.37842e-06
0.000294111
3.67653e-06
0.000293108
3.74699e-06
0.000291997
4.37833e-06
0.000290777
4.66572e-06
0.000289443
5.33354e-06
0.000288001
5.61915e-06
0.000286446
6.25636e-06
0.000284796
6.50633e-06
0.000283041
7.00899e-06
0.000281192
7.38779e-06
0.000279254
7.75215e-06
0.000277228
8.09474e-06
0.000275118
8.41616e-06
0.000272934
8.71003e-06
0.000270676
8.98202e-06
0.000268354
9.22269e-06
0.000265976
9.43151e-06
0.000263545
9.61243e-06
0.000261073
9.76253e-06
0.000258562
9.88493e-06
0.000256021
9.97694e-06
0.000253461
1.00411e-05
0.000250882
1.00799e-05
0.000248292
1.01011e-05
0.000245696
1.00959e-05
0.000243103
1.00654e-05
0.000240512
1.00298e-05
0.000237928
9.9831e-06
0.000235354
9.91443e-06
0.000232799
9.82088e-06
0.00023026
9.7417e-06
0.000227734
9.66324e-06
0.000225231
9.55647e-06
0.000222754
9.43734e-06
0.000220299
9.33504e-06
0.000217865
9.23333e-06
0.000215456
9.11566e-06
0.000213076
8.98937e-06
0.000210723
8.86732e-06
0.000208396
8.75101e-06
0.000206098
8.62043e-06
0.000203833
8.47874e-06
0.0002016
8.33256e-06
0.000199403
8.1723e-06
0.000197247
7.99227e-06
0.000195137
7.80049e-06
0.00019308
7.53877e-06
0.000191078
7.30926e-06
0.000189133
7.03421e-06
0.000187239
6.80602e-06
0.000185386
6.56449e-06
0.000183573
6.34703e-06
0.000181794
6.0964e-06
0.000180048
5.83324e-06
0.000178413
5.28409e-06
4.70185e-06
0.00128355
0.00115038
0.000609034
0.000975654
0.000828728
0.000813182
0.00077308
0.000693269
0.00057357
0.000603182
0.00044267
0.000531495
0.00035739
0.000476613
0.000272874
0.00043662
0.000197759
0.000408685
0.000137509
0.000390365
9.04768e-05
0.000378985
5.57977e-05
0.000372202
3.26793e-05
0.000368391
1.87791e-05
0.000366322
1.1096e-05
0.000364969
6.64103e-06
0.000363865
4.98663e-06
0.000363016
4.22449e-06
0.000362155
4.53984e-06
0.000361192
4.70744e-06
0.000360098
5.47424e-06
0.000358865
5.89645e-06
0.000357488
6.7135e-06
0.000355972
7.13208e-06
0.000354323
7.90804e-06
0.000352546
8.28086e-06
0.000350643
8.91147e-06
0.000348623
9.40771e-06
0.00034649
9.88554e-06
0.000344249
1.03359e-05
0.000341906
1.07587e-05
0.000339465
1.11516e-05
0.000336936
1.1511e-05
0.000334324
1.18342e-05
0.000331638
1.21177e-05
0.000328889
1.23618e-05
0.000326081
1.25701e-05
0.000323226
1.27398e-05
0.000320331
1.28725e-05
0.000317403
1.29683e-05
0.000314452
1.30314e-05
0.000311482
1.30711e-05
0.000308499
1.30786e-05
0.000305514
1.30503e-05
0.000302527
1.30174e-05
0.000299541
1.2969e-05
0.000296565
1.28901e-05
0.000293603
1.27827e-05
0.000290657
1.26883e-05
0.000287724
1.25965e-05
0.00028481
1.24701e-05
0.000281921
1.23262e-05
0.000279057
1.21987e-05
0.00027621
1.20806e-05
0.000273389
1.19366e-05
0.0002706
1.17787e-05
0.000267838
1.16291e-05
0.000265104
1.14852e-05
0.000262398
1.13263e-05
0.000259726
1.11505e-05
0.000257093
1.09664e-05
0.000254498
1.07671e-05
0.000251948
1.05423e-05
0.000249451
1.02982e-05
0.00024701
9.97881e-06
0.000244636
9.68366e-06
0.000242325
9.34522e-06
0.000240074
9.0572e-06
0.00023787
8.76823e-06
0.000235707
8.51004e-06
0.000233577
8.22647e-06
0.000231476
7.9346e-06
0.000229498
7.26329e-06
6.57642e-06
0.00136738
0.00076496
0.00116022
0.00103589
0.000966358
0.000966939
0.000822476
0.000717453
0.000715099
0.000550047
0.000630517
0.000441971
0.000566217
0.000337174
0.000519649
0.000244327
0.000487362
0.000169796
0.000466328
0.000111511
0.00045349
6.86353e-05
0.000446086
4.00836e-05
0.000442044
2.28214e-05
0.000439919
1.32247e-05
0.000438667
7.88907e-06
0.000437762
5.89481e-06
0.00043704
4.94295e-06
0.000436291
5.29258e-06
0.000435422
5.5726e-06
0.000434389
6.50982e-06
0.000433185
7.09799e-06
0.00043181
8.09121e-06
0.000430264
8.67504e-06
0.000428553
9.62196e-06
0.000426686
1.01447e-05
0.000424672
1.09258e-05
0.000422514
1.15651e-05
0.000420215
1.21846e-05
0.000417786
1.27652e-05
0.000415232
1.33124e-05
0.00041256
1.38236e-05
0.000409779
1.42925e-05
0.000406898
1.4715e-05
0.000403928
1.50877e-05
0.000400876
1.54135e-05
0.000397753
1.56934e-05
0.00039457
1.59233e-05
0.000391337
1.61048e-05
0.00038806
1.62456e-05
0.000384752
1.63391e-05
0.00038142
1.64037e-05
0.000378066
1.64318e-05
0.000374706
1.64106e-05
0.000371341
1.63824e-05
0.000367973
1.63371e-05
0.00036461
1.6253e-05
0.000361266
1.61265e-05
0.000357931
1.60234e-05
0.000354606
1.59218e-05
0.000351303
1.57727e-05
0.000348028
1.56017e-05
0.000344771
1.54561e-05
0.000341537
1.53146e-05
0.00033833
1.51431e-05
0.000335153
1.49559e-05
0.000332006
1.47759e-05
0.000328887
1.46046e-05
0.000325802
1.44111e-05
0.000322753
1.41994e-05
0.000319745
1.39746e-05
0.000316781
1.3732e-05
0.000313868
1.34545e-05
0.000311015
1.31529e-05
0.000308233
1.27595e-05
0.000305526
1.2391e-05
0.000302901
1.19701e-05
0.000300345
1.16135e-05
0.000297854
1.12594e-05
0.000295409
1.09555e-05
0.000293007
1.06278e-05
0.000290637
1.03045e-05
0.000288422
9.48027e-06
8.69268e-06
0.00162077
0.000944963
0.001377
0.00127966
0.00114667
0.00119727
0.00097406
0.000890062
0.000845545
0.000678563
0.000745136
0.00054238
0.000669196
0.000413115
0.000614398
0.000299124
0.000576533
0.000207662
0.000551912
0.000136132
0.000536989
8.35584e-05
0.000528505
4.85668e-05
0.000523954
2.73726e-05
0.000521615
1.55656e-05
0.000520352
9.15024e-06
0.000519544
6.70472e-06
0.000518916
5.56949e-06
0.000518243
5.96652e-06
0.000517436
6.37792e-06
0.000516448
7.4986e-06
0.000515262
8.28282e-06
0.000513871
9.48381e-06
0.000512282
1.02629e-05
0.000510501
1.14038e-05
0.000508537
1.21073e-05
0.000506393
1.30703e-05
0.000504079
1.38785e-05
0.000501602
1.46622e-05
0.000498971
1.5396e-05
0.000496189
1.60941e-05
0.000493269
1.67439e-05
0.000490218
1.73437e-05
0.000487047
1.7886e-05
0.000483766
1.83685e-05
0.000480391
1.87885e-05
0.000476932
1.91527e-05
0.000473397
1.94582e-05
0.000469797
1.97041e-05
0.000466149
1.98936e-05
0.000462461
2.00278e-05
0.00045874
2.01245e-05
0.000454998
2.01737e-05
0.00045124
2.01682e-05
0.000447474
2.01484e-05
0.000443706
2.01051e-05
0.000439941
2.00183e-05
0.00043619
1.98779e-05
0.00043245
1.97627e-05
0.000428724
1.96481e-05
0.000425018
1.94792e-05
0.00042134
1.92797e-05
0.000417686
1.91102e-05
0.000414053
1.8947e-05
0.00041045
1.8746e-05
0.000406884
1.8522e-05
0.000403347
1.83132e-05
0.000399845
1.81065e-05
0.000396378
1.78782e-05
0.000392956
1.76218e-05
0.000389581
1.73489e-05
0.000386256
1.70573e-05
0.000382993
1.67173e-05
0.000379805
1.63414e-05
0.000376702
1.58618e-05
0.0003737
1.53939e-05
0.000370794
1.48753e-05
0.000367989
1.4419e-05
0.000365264
1.39844e-05
0.000362615
1.36045e-05
0.000360028
1.32148e-05
0.000357487
1.28454e-05
0.000355158
1.18106e-05
0.00191692
0.00114729
0.00163254
0.00156404
0.00136015
0.00146966
0.00115333
0.00109688
0.000999127
0.000832771
0.000879376
0.000662131
0.000789161
0.000503329
0.000724168
0.000364118
0.00067927
0.00025256
0.00065002
0.000165382
0.000632245
0.000101334
0.000622128
5.86831e-05
0.000616679
3.28219e-05
0.000613869
1.83781e-05
0.000612395
1.06212e-05
0.000611525
7.57777e-06
0.000610868
6.22402e-06
0.000610192
6.64407e-06
0.000609379
7.18924e-06
0.000608368
8.51109e-06
0.000607137
9.51159e-06
0.000605682
1.09409e-05
0.000604
1.19425e-05
0.000602097
1.33085e-05
0.000599984
1.42189e-05
0.000597666
1.53879e-05
0.000595153
1.63914e-05
0.000592452
1.73636e-05
0.000589567
1.82808e-05
0.00058651
1.91516e-05
0.000583291
1.99628e-05
0.000579919
2.07158e-05
0.000576403
2.14013e-05
0.000572764
2.20084e-05
0.000569011
2.25408e-05
0.000565155
2.30087e-05
0.000561212
2.34012e-05
0.000557199
2.37168e-05
0.000553125
2.39685e-05
0.000549
2.41526e-05
0.000544836
2.42881e-05
0.000540645
2.43652e-05
0.000536439
2.43737e-05
0.000532223
2.43651e-05
0.000527997
2.43308e-05
0.000523778
2.4237e-05
0.000519574
2.40816e-05
0.000515385
2.39523e-05
0.000511205
2.38281e-05
0.000507051
2.36334e-05
0.000502927
2.34031e-05
0.000498832
2.32057e-05
0.000494763
2.30161e-05
0.000490727
2.27821e-05
0.000486728
2.25206e-05
0.000482774
2.22675e-05
0.000478854
2.20269e-05
0.000474979
2.17531e-05
0.000471157
2.14441e-05
0.000467389
2.11169e-05
0.000463688
2.07578e-05
0.000460059
2.03462e-05
0.000456525
1.98765e-05
0.000453098
1.92877e-05
0.000449799
1.86937e-05
0.000446636
1.80376e-05
0.000443599
1.74566e-05
0.000440684
1.68994e-05
0.00043788
1.64091e-05
0.000435168
1.59259e-05
0.000432533
1.54806e-05
1.41752e-05
0.00226243
0.00136561
0.00193416
0.00189231
0.00161383
0.00178998
0.00136654
0.00134417
0.00118119
0.00101812
0.00103783
0.000805491
0.000930121
0.000611038
0.000852553
0.000441686
0.000798873
0.00030624
0.000763718
0.000200537
0.000742162
0.00012289
0.000729727
7.11176e-05
0.000722902
3.96468e-05
0.000719281
2.20004e-05
0.000717335
1.25658e-05
0.000716186
8.72738e-06
0.000715345
7.06493e-06
0.000714528
7.46137e-06
0.000713597
8.12001e-06
0.000712462
9.64569e-06
0.000711099
1.0874e-05
0.000709488
1.25528e-05
0.000707631
1.37991e-05
0.000705532
1.54075e-05
0.000703203
1.65473e-05
0.000700636
1.7955e-05
0.000697853
1.91743e-05
0.000694854
2.03628e-05
0.000691648
2.14869e-05
0.000688244
2.25557e-05
0.000684652
2.35549e-05
0.000680886
2.44815e-05
0.000676958
2.53299e-05
0.000672883
2.60833e-05
0.000668676
2.67473e-05
0.000664353
2.73315e-05
0.00065993
2.78249e-05
0.00065542
2.82268e-05
0.000650841
2.8547e-05
0.000646204
2.87898e-05
0.000641522
2.89705e-05
0.000636807
2.90802e-05
0.000632076
2.91043e-05
0.000627328
2.91127e-05
0.000622573
2.90863e-05
0.000617825
2.89848e-05
0.000613097
2.88102e-05
0.000608379
2.86696e-05
0.000603681
2.8526e-05
0.000599009
2.83056e-05
0.000594374
2.8038e-05
0.000589771
2.78089e-05
0.0005852
2.75876e-05
0.000580667
2.73151e-05
0.000576184
2.70032e-05
0.000571744
2.6707e-05
0.000567354
2.64171e-05
0.000563016
2.60912e-05
0.00055874
2.57205e-05
0.000554534
2.53223e-05
0.000550406
2.48856e-05
0.000546374
2.43785e-05
0.000542457
2.37937e-05
0.00053868
2.3065e-05
0.000535063
2.23107e-05
0.000531619
2.14814e-05
0.000528353
2.07224e-05
0.000525253
1.99994e-05
0.000522307
1.93559e-05
0.000519503
1.87298e-05
0.000516811
1.81725e-05
1.65138e-05
0.00266364
0.00158637
0.00228985
0.0022661
0.00191591
0.00216393
0.0016211
0.00163898
0.00139813
0.00124109
0.00122596
0.000977662
0.00109679
0.000740212
0.00100369
0.000534787
0.000939039
0.000370886
0.000896395
0.000243181
0.00086991
0.000149375
0.00085433
8.66973e-05
0.000845522
4.8455e-05
0.000840639
2.68856e-05
0.000837886
1.53172e-05
0.000836189
1.04262e-05
0.000834946
8.30529e-06
0.000833816
8.59371e-06
0.000832605
9.32914e-06
0.000831211
1.10406e-05
0.000829591
1.24927e-05
0.000827715
1.44306e-05
0.000825581
1.59315e-05
0.000823185
1.78047e-05
0.000820535
1.91961e-05
0.000817633
2.08572e-05
0.000814486
2.23212e-05
0.000811102
2.37468e-05
0.000807483
2.51055e-05
0.000803647
2.63915e-05
0.000799594
2.76081e-05
0.000795345
2.87309e-05
0.00079091
2.97651e-05
0.000786309
3.06834e-05
0.000781559
3.14974e-05
0.000776674
3.22164e-05
0.000771676
3.28237e-05
0.000766579
3.33234e-05
0.0007614
3.37261e-05
0.000756157
3.40326e-05
0.000750863
3.42644e-05
0.000745531
3.44126e-05
0.000740177
3.44577e-05
0.000734809
3.4481e-05
0.000729434
3.44612e-05
0.000724066
3.43529e-05
0.000718719
3.41572e-05
0.000713393
3.39962e-05
0.00070808
3.38385e-05
0.000702804
3.35822e-05
0.000697573
3.32689e-05
0.000692376
3.30052e-05
0.000687221
3.27426e-05
0.000682114
3.24221e-05
0.000677062
3.20559e-05
0.000672068
3.17011e-05
0.000667127
3.13582e-05
0.000662253
3.09653e-05
0.000657457
3.05158e-05
0.000652743
3.00367e-05
0.000648126
2.95025e-05
0.000643625
2.88793e-05
0.000639268
2.81518e-05
0.000635085
2.72478e-05
0.000631101
2.62945e-05
0.000627339
2.52428e-05
0.000623808
2.42541e-05
0.000620495
2.33119e-05
0.0006174
2.24512e-05
0.000614496
2.16341e-05
0.000611752
2.09171e-05
1.88383e-05
0.00312629
0.00178821
0.00270778
0.00268461
0.00227582
0.00259589
0.00192591
0.00198889
0.00165769
0.00150931
0.00145039
0.00118496
0.00129485
0.000895753
0.0011825
0.00064713
0.00110414
0.000449244
0.00105199
0.000295336
0.00101911
0.000182254
0.000999323
0.000106484
0.00098776
6.00181e-05
0.000981053
3.35926e-05
0.000977045
1.93248e-05
0.000974461
1.30106e-05
0.00097254
1.02262e-05
0.000970856
1.02779e-05
0.000969169
1.10153e-05
0.000967342
1.28676e-05
0.000965302
1.45322e-05
0.00096302
1.67132e-05
0.000960472
1.84798e-05
0.000957652
2.06249e-05
0.00095456
2.22871e-05
0.000951206
2.42114e-05
0.000947583
2.59445e-05
0.000943698
2.76314e-05
0.000939561
2.92428e-05
0.000935178
3.07745e-05
0.000930561
3.22243e-05
0.000925718
3.35739e-05
0.000920673
3.48101e-05
0.000915439
3.59174e-05
0.000910034
3.69026e-05
0.000904483
3.7768e-05
0.000898799
3.85076e-05
0.000893003
3.91191e-05
0.000887117