/*--------------------------------*- C++ -*----------------------------------*\
| =========                 |                                                 |
| \\      /  F ield         | OpenFOAM: The Open Source CFD Toolbox           |
|  \\    /   O peration     | Version:  2412                                  |
|   \\  /    A nd           | Website:  www.openfoam.com                      |
|    \\/     M anipulation  |                                                 |
\*---------------------------------------------------------------------------*/
FoamFile
{
    version     2.0;
    format      ascii;
    arch        "LSB;label=32;scalar=64";
    class       volVectorField;
    location    "120";
    object      U;
}
// * * * * * * * * * * * * * * * * * * * * * * * * * * * * * * * * * * * * * //

dimensions      [0 1 -1 0 0 0 0];

internalField   nonuniform List<vector> 
8553
(
(-0.133365 -0.541729 0)
(-0.612265 -1.39418 -1.52627e-20)
(-0.190666 -0.259892 3.26899e-20)
(-0.309955 -0.263188 1.18938e-23)
(-0.941669 -0.527232 0)
(0.0797263 0.0203993 -8.94271e-25)
(1.60411 0.17975 8.34454e-25)
(2.15727 -0.0251038 9.00027e-23)
(1.81432 -0.102771 2.0343e-25)
(1.43091 -0.0695735 0)
(1.28349 -0.0496282 3.18674e-21)
(1.19389 -0.0375831 -1.53081e-21)
(1.1548 -0.0318753 0)
(1.15121 -0.031696 0)
(1.15923 -0.0359632 2.92918e-25)
(1.15661 -0.040066 -2.79077e-25)
(1.14664 -0.0426246 -2.17966e-21)
(1.13007 -0.0434364 2.09403e-21)
(1.10909 -0.0424095 2.56142e-25)
(1.09174 -0.0405395 -1.87624e-21)
(1.08063 -0.0392309 -3.49298e-21)
(1.07396 -0.0385826 6.46226e-21)
(1.07052 -0.0386188 1.84629e-25)
(1.0675 -0.0390373 2.76267e-21)
(1.06343 -0.0393207 2.56059e-21)
(1.0587 -0.0394104 -2.37418e-21)
(1.05389 -0.0393151 -2.19646e-21)
(1.04979 -0.0392093 4.05426e-21)
(1.04648 -0.0391936 0)
(1.04366 -0.0392678 0)
(1.04101 -0.0393874 -3.16612e-21)
(1.03844 -0.0395027 8.75839e-26)
(1.03599 -0.0396127 -2.67933e-21)
(1.03369 -0.0397272 4.92408e-21)
(1.0316 -0.0398638 6.59301e-26)
(1.02969 -0.0400244 -6.61083e-26)
(1.02791 -0.0402026 -5.71064e-26)
(1.02621 -0.040394 3.49327e-21)
(1.02462 -0.0405984 9.11522e-28)
(1.02316 -0.0408202 5.86878e-21)
(1.02178 -0.041058 4.02079e-26)
(1.02048 -0.0413118 4.92051e-21)
(1.01924 -0.0415809 0)
(1.01808 -0.0418661 0)
(1.017 -0.0421683 -3.76238e-21)
(1.01598 -0.0424862 2.6216e-26)
(1.01501 -0.0428206 -2.4519e-26)
(1.0141 -0.0431717 5.71854e-21)
(1.01324 -0.0435397 -1.93744e-26)
(1.01242 -0.0439235 2.77579e-28)
(1.01163 -0.0443243 -4.30931e-21)
(1.01089 -0.0447424 0)
(1.01019 -0.0451779 3.54585e-21)
(1.00953 -0.0456296 0)
(1.00889 -0.0460991 -5.7956e-21)
(1.00829 -0.0465853 5.22276e-21)
(1.00772 -0.0470886 -4.69464e-21)
(1.00717 -0.047608 0)
(1.00662 -0.0481434 -6.88871e-27)
(1.00611 -0.0486962 5.42999e-28)
(1.00564 -0.0492673 -2.9604e-21)
(1.00517 -0.0498542 -4.73598e-27)
(1.00474 -0.0504588 -4.56054e-21)
(1.0043 -0.0510798 -3.95696e-21)
(1.0039 -0.0517179 3.45338e-27)
(1.00351 -0.052373 2.88336e-21)
(1.00311 -0.0530437 -5.00167e-27)
(1.00274 -0.0537307 2.05424e-27)
(1.0024 -0.054435 1.32202e-27)
(1.00206 -0.055155 1.17802e-21)
(1.00172 -0.0558912 -3.01106e-28)
(1.0014 -0.056645 -6.25307e-28)
(1.00108 -0.0574149 -4.00984e-22)
(1.00078 -0.0582017 -1.57753e-22)
(1.00048 -0.0590041 1.35277e-21)
(1.0002 -0.059823 1.15888e-21)
(0.999952 -0.0606605 1.60677e-21)
(0.999753 -0.0615182 0)
(0.976332 -0.321438 -2.27325e-24)
(0.96727 -0.322199 -1.95157e-20)
(0.969365 -0.322823 -2.51762e-24)
(1.00208 -0.329411 -1.75238e-25)
(1.07747 -0.345657 -1.05827e-20)
(1.21465 -0.376384 1.87976e-20)
(1.53872 -0.46341 1.29247e-20)
(1.84122 -0.646756 -1.58036e-24)
(1.48849 -0.741978 3.6089e-24)
(0.409642 -0.309529 1.10448e-20)
(-0.41228 0.484077 -1.12864e-24)
(-0.230341 0.405896 0)
(0.0255589 -0.091363 -4.62242e-21)
(-0.0631117 1.22242 1.31148e-21)
(0.252486 1.88828 0)
(-0.424955 -1.53232 0)
(-1.75425 -3.95381 2.51981e-20)
(-0.751535 -1.03485 -5.3734e-20)
(-1.0125 -0.86405 1.49834e-19)
(-2.49716 -1.42573 0)
(0.784386 0.195684 -3.04025e-24)
(5.05097 0.547835 4.39e-22)
(6.37866 -0.0763703 1.57774e-22)
(5.38918 -0.295911 -1.18666e-24)
(4.34406 -0.204451 1.14401e-24)
(3.92809 -0.148944 -2.63788e-21)
(3.67622 -0.114201 -6.09716e-25)
(3.56685 -0.0979592 2.35301e-21)
(3.55509 -0.0979152 2.14112e-21)
(3.57318 -0.110894 -9.79073e-25)
(3.56155 -0.123244 4.63195e-25)
(3.52905 -0.130933 3.61699e-21)
(3.47822 -0.133356 -3.47569e-21)
(3.41637 -0.130308 6.63044e-21)
(3.36561 -0.124743 3.82588e-25)
(3.33276 -0.120852 5.80231e-21)
(3.31273 -0.118935 -5.36914e-21)
(3.30172 -0.119061 -2.99244e-25)
(3.29173 -0.120326 -9.18699e-21)
(3.2788 -0.121178 -8.51775e-21)
(3.26414 -0.12145 3.94963e-21)
(3.24942 -0.121168 2.20271e-25)
(3.23681 -0.120853 6.74833e-21)
(3.22648 -0.120809 1.92596e-25)
(3.21761 -0.121035 1.72348e-25)
(3.20928 -0.1214 5.27425e-21)
(3.20118 -0.121753 0)
(3.19349 -0.122088 0)
(3.18633 -0.122441 0)
(3.17977 -0.12286 -1.19539e-25)
(3.17375 -0.123352 -6.92385e-21)
(3.16812 -0.123897 1.9403e-25)
(3.16278 -0.124483 -9.42224e-26)
(3.1578 -0.125112 1.06918e-20)
(3.15316 -0.125791 -9.79952e-21)
(3.14879 -0.12652 -6.99064e-26)
(3.14469 -0.127299 -1.64415e-20)
(3.14082 -0.128127 -5.62195e-26)
(3.13717 -0.129003 6.88229e-21)
(3.13376 -0.129931 0)
(3.13053 -0.130908 4.37693e-26)
(3.12747 -0.131936 -4.10231e-26)
(3.1246 -0.133015 9.57242e-21)
(3.12186 -0.134145 -3.24488e-26)
(3.11926 -0.135326 -1.58843e-20)
(3.11679 -0.136559 -7.22236e-21)
(3.11447 -0.137845 -2.43267e-26)
(3.11228 -0.139185 1.351e-27)
(3.11017 -0.140575 2.12004e-26)
(3.10817 -0.142019 9.73377e-21)
(3.10627 -0.143515 -8.77741e-21)
(3.10447 -0.145063 7.89556e-21)
(3.10273 -0.146662 -7.08198e-21)
(3.10103 -0.148311 6.33125e-21)
(3.09944 -0.150013 0)
(3.09793 -0.15177 9.99705e-21)
(3.09648 -0.153577 4.40763e-21)
(3.09509 -0.155438 7.7234e-21)
(3.09374 -0.157349 6.7142e-21)
(3.09247 -0.159314 1.17325e-26)
(3.09123 -0.16133 -4.82786e-27)
(3.09 -0.163395 -4.12052e-21)
(3.08885 -0.165512 3.38214e-21)
(3.08775 -0.167679 0)
(3.08667 -0.169896 -4.12931e-21)
(3.08561 -0.172163 0)
(3.08461 -0.174484 0)
(3.08361 -0.176855 0)
(3.08265 -0.179276 4.98128e-28)
(3.08174 -0.181747 -9.07837e-27)
(3.08086 -0.184268 1.27677e-27)
(3.08005 -0.186846 -2.51052e-21)
(3.07943 -0.189488 0)
(3.00766 -0.990127 -3.07007e-20)
(2.98371 -0.993808 -4.18855e-24)
(2.98896 -0.995811 -6.69301e-27)
(3.0788 -1.01343 3.30036e-24)
(3.28902 -1.0579 0)
(3.67131 -1.14394 -3.07739e-20)
(4.55483 -1.38075 -1.05281e-20)
(5.40936 -1.90046 3.77619e-21)
(4.5459 -2.2506 0)
(1.54379 -1.13428 -1.7896e-20)
(-1.00608 1.20898 1.83188e-24)
(-0.685831 1.21295 3.22036e-20)
(-0.00325337 0.0473275 7.515e-21)
(-0.191778 3.54667 0)
(0.645925 5.0239 0)
(-0.774343 -2.36225 3.82094e-23)
(-2.82089 -6.35607 -2.79437e-20)
(-1.51472 -2.11841 0)
(-1.80929 -1.53422 -8.31424e-20)
(-3.73564 -2.16156 -7.23744e-20)
(2.12359 0.50799 0)
(8.8368 0.916557 -9.12862e-22)
(10.6002 -0.128092 -1.73084e-22)
(9.00813 -0.478122 9.28182e-25)
(7.40917 -0.337859 -1.26363e-24)
(6.74994 -0.251092 7.15821e-25)
(6.35291 -0.19487 -6.88046e-25)
(6.18147 -0.168955 -8.19413e-26)
(6.16083 -0.169692 3.8294e-26)
(6.18272 -0.191879 0)
(6.15747 -0.212784 5.16874e-25)
(6.09869 -0.225785 -4.92615e-25)
(6.01125 -0.229862 0)
(5.90847 -0.224787 -7.42169e-21)
(5.8248 -0.215486 0)
(5.77021 -0.208992 6.50279e-21)
(5.73639 -0.205809 9.64463e-27)
(5.71676 -0.206054 3.44315e-25)
(5.69853 -0.208209 1.03116e-20)
(5.67562 -0.209653 9.56375e-21)
(5.65012 -0.210118 -1.2101e-26)
(5.6248 -0.209649 -4.10729e-21)
(5.60304 -0.209124 -1.62766e-26)
(5.58501 -0.20906 6.99462e-21)
(5.56939 -0.20945 -3.99201e-25)
(5.55473 -0.210077 0)
(5.54051 -0.210685 3.28516e-25)
(5.52702 -0.211261 -6.13891e-25)
(5.51448 -0.21187 5.64441e-25)
(5.50299 -0.212596 -8.49369e-21)
(5.49238 -0.213442 7.80021e-21)
(5.48245 -0.214382 -2.22526e-25)
(5.47307 -0.215392 -6.56996e-21)
(5.46428 -0.216477 -1.88061e-25)
(5.45607 -0.217647 -1.10478e-20)
(5.44836 -0.218904 1.51459e-25)
(5.44115 -0.220248 9.27055e-21)
(5.43434 -0.221677 1.32321e-25)
(5.42791 -0.22319 -7.7635e-21)
(5.42187 -0.22479 7.09804e-21)
(5.41616 -0.226478 9.3784e-26)
(5.41078 -0.228252 -1.80827e-25)
(5.40569 -0.230116 -1.08031e-20)
(5.40086 -0.232066 -9.84625e-21)
(5.3963 -0.234107 1.79301e-20)
(5.39196 -0.236238 8.15336e-21)
(5.38785 -0.238459 5.49299e-26)
(5.38397 -0.240772 -3.05079e-27)
(5.38026 -0.243177 -4.7878e-26)
(5.37673 -0.24567 1.0992e-20)
(5.37338 -0.248255 3.65691e-26)
(5.37019 -0.250931 -3.52615e-26)
(5.36713 -0.253694 7.99891e-21)
(5.36416 -0.256545 -7.15144e-21)
(5.36135 -0.259488 0)
(5.3587 -0.262524 -5.64673e-21)
(5.35615 -0.26565 -9.9589e-21)
(5.3537 -0.268865 0)
(5.35133 -0.27217 -7.58597e-21)
(5.34908 -0.275566 -6.53218e-21)
(5.34689 -0.279051 -5.55763e-21)
(5.34475 -0.282622 8.20217e-27)
(5.34272 -0.286282 1.70054e-26)
(5.34076 -0.290028 -6.46035e-27)
(5.33887 -0.293859 4.66653e-21)
(5.33702 -0.297779 -1.66925e-21)
(5.33524 -0.301792 1.05368e-21)
(5.33349 -0.305892 1.86888e-27)
(5.33182 -0.310079 1.51326e-28)
(5.3302 -0.314351 -3.00879e-26)
(5.32863 -0.318708 -1.4431e-27)
(5.3272 -0.323165 0)
(5.32612 -0.327734 0)
(5.20362 -1.71295 6.86608e-20)
(5.16841 -1.72139 3.59421e-20)
(5.17598 -1.7251 0)
(5.31528 -1.75176 -1.96755e-20)
(5.64618 -1.82061 1.93312e-20)
(6.2477 -1.95683 1.70519e-20)
(7.6059 -2.3215 0)
(8.96465 -3.15313 -2.77872e-23)
(7.79739 -3.82654 5.78931e-24)
(3.09274 -2.21534 9.88198e-23)
(-1.34625 1.67739 1.81026e-20)
(-1.14114 1.99765 -2.26169e-23)
(-0.10969 0.502057 -8.34678e-21)
(-0.268623 5.84026 0)
(0.921744 7.68444 0)
(-1.15209 -2.87344 -5.82382e-23)
(-3.76986 -8.46993 4.17774e-23)
(-2.43877 -3.46482 0)
(-2.64718 -2.24219 0)
(-4.54584 -2.69287 1.58668e-19)
(4.10692 0.948648 3.02836e-20)
(12.7808 1.26146 4.69425e-22)
(14.622 -0.174136 -2.54285e-25)
(12.5317 -0.640693 5.26737e-21)
(10.5281 -0.464532 -1.55515e-24)
(9.66842 -0.352543 3.21374e-21)
(9.15456 -0.277214 3.10901e-21)
(8.934 -0.243009 -2.89594e-21)
(8.90435 -0.2452 -2.64205e-21)
(8.92301 -0.27681 2.4691e-21)
(8.8795 -0.306312 -1.25005e-27)
(8.79129 -0.324648 -2.19297e-24)
(8.66629 -0.330407 4.31768e-21)
(8.52442 -0.323414 4.12578e-21)
(8.4099 -0.310488 -1.89244e-24)
(8.33456 -0.30148 7.99064e-25)
(8.28711 -0.297091 6.71196e-21)
(8.25803 -0.297488 -7.68127e-25)
(8.23041 -0.300549 -5.75506e-21)
(8.19664 -0.302597 -5.34038e-21)
(8.15966 -0.303266 -4.95876e-21)
(8.12335 -0.302619 2.65916e-26)
(8.09208 -0.301898 -2.99347e-27)
(8.06589 -0.301822 -7.829e-21)
(8.04302 -0.302388 -7.21517e-21)
(8.02151 -0.30329 0)
(8.00071 -0.304164 6.12359e-21)
(7.98097 -0.304995 1.08676e-26)
(7.96265 -0.305874 3.21746e-25)
(7.94583 -0.306921 -2.86076e-25)
(7.93024 -0.308138 -8.75495e-21)
(7.91564 -0.309488 0)
(7.90187 -0.310943 -7.37918e-21)
(7.88896 -0.312504 -6.76964e-21)
(7.87688 -0.314186 1.24148e-20)
(7.86554 -0.315996 1.13783e-20)
(7.85491 -0.317931 1.04226e-20)
(7.84488 -0.319988 0)
(7.83543 -0.322166 -8.73174e-21)
(7.82651 -0.32447 1.31147e-26)
(7.81809 -0.3269 -1.2769e-26)
(7.81015 -0.329457 -1.33264e-20)
(7.80267 -0.332141 -9.05303e-26)
(7.79556 -0.334951 2.21674e-20)
(7.78883 -0.337892 -2.01861e-20)
(7.78245 -0.340963 0)
(7.7764 -0.344165 -8.33949e-21)
(7.77065 -0.347499 0)
(7.76518 -0.350963 0)
(7.75998 -0.354558 4.05204e-26)
(7.75503 -0.358285 -1.11677e-20)
(7.75032 -0.362141 -1.00473e-20)
(7.74581 -0.366125 0)
(7.74146 -0.370237 0)
(7.73733 -0.374481 7.1781e-21)
(7.73341 -0.378858 2.53976e-26)
(7.72965 -0.383365 -1.10241e-26)
(7.72602 -0.388 9.83619e-21)
(7.72253 -0.392766 0)
(7.71921 -0.397664 7.36437e-21)
(7.71599 -0.40269 1.28032e-26)
(7.71285 -0.407841 0)
(7.70986 -0.41312 -8.61919e-21)
(7.70696 -0.418521 5.86868e-27)
(7.70417 -0.424047 -2.63127e-21)
(7.70146 -0.429702 1.88252e-21)
(7.69884 -0.435489 4.28158e-26)
(7.69629 -0.441403 1.0899e-21)
(7.69382 -0.447443 0)
(7.69141 -0.453603 -1.21189e-21)
(7.68908 -0.459887 5.25244e-27)
(7.68699 -0.466317 3.20086e-21)
(7.68547 -0.472912 0)
(7.51271 -2.473 -3.81242e-20)
(7.47143 -2.48832 -9.74165e-24)
(7.48101 -2.49427 0)
(7.65955 -2.5275 2.17788e-20)
(8.09013 -2.61531 -2.13419e-20)
(8.87277 -2.79361 9.89799e-24)
(10.5918 -3.2565 0)
(12.3678 -4.35907 -4.50536e-21)
(11.1202 -5.41167 2.02244e-20)
(5.05818 -3.53973 1.01925e-20)
(-1.35109 1.82339 7.50631e-24)
(-1.54738 2.6951 -3.98065e-20)
(-0.279764 1.23804 -1.46121e-23)
(-0.298556 7.95546 -2.43183e-21)
(1.06942 9.82568 1.891e-23)
(-1.54186 -2.98457 2.56024e-20)
(-4.55809 -10.1804 -1.15209e-22)
(-3.45669 -4.96762 -6.88685e-20)
(-3.48649 -2.96371 -9.42777e-23)
(-4.80668 -2.98295 4.91915e-23)
(6.68415 1.49 -3.07727e-20)
(16.6713 1.57452 3.46756e-22)
(18.2788 -0.208267 4.12413e-25)
(15.8439 -0.777449 -1.11773e-20)
(13.6013 -0.580054 1.90926e-25)
(12.5974 -0.449888 -6.95865e-21)
(12.0029 -0.358771 -3.38228e-21)
(11.7489 -0.318017 0)
(11.7099 -0.322275 2.89282e-21)
(11.7181 -0.363197 -2.70399e-21)
(11.6521 -0.401065 -1.25676e-24)
(11.5327 -0.424613 -4.92466e-21)
(11.3711 -0.432085 -2.55645e-26)
(11.1941 -0.423413 -4.54262e-21)
(11.0524 -0.407144 -1.03549e-24)
(10.9584 -0.395825 -7.99819e-21)
(10.8981 -0.390343 -7.42064e-21)
(10.859 -0.390927 -8.28958e-25)
(10.8211 -0.394891 7.87735e-25)
(10.776 -0.397538 0)
(10.7274 -0.398428 0)
(10.6801 -0.397629 1.26753e-26)
(10.6393 -0.396736 -1.88689e-20)
(10.6048 -0.39667 -5.24166e-25)
(10.5744 -0.397423 8.03269e-21)
(10.5458 -0.398608 7.40606e-21)
(10.5181 -0.399757 -1.36505e-20)
(10.4919 -0.400851 6.28576e-21)
(10.4675 -0.402009 0)
(10.4452 -0.403384 1.06394e-20)
(10.4244 -0.404982 9.77801e-21)
(10.4049 -0.406751 0)
(10.3865 -0.408658 8.24825e-21)
(10.3692 -0.410706 2.35516e-25)
(10.3531 -0.412911 0)
(10.3379 -0.415284 -1.27327e-20)
(10.3237 -0.41782 -2.33344e-20)
(10.3102 -0.420516 1.59683e-25)
(10.2976 -0.423372 9.7799e-21)
(10.2856 -0.426393 3.34376e-26)
(10.2743 -0.429579 8.1771e-21)
(10.2637 -0.432933 1.4938e-20)
(10.2536 -0.436453 -1.06666e-25)
(10.2441 -0.44014 -1.24294e-20)
(10.235 -0.443996 1.13207e-20)
(10.2265 -0.448026 -1.0299e-20)
(10.2184 -0.452227 9.35725e-21)
(10.2106 -0.456602 8.48922e-21)
(10.2033 -0.461148 -1.21062e-25)
(10.1963 -0.465866 -2.7801e-20)
(10.1897 -0.470756 -9.05115e-26)
(10.1833 -0.475817 1.12822e-20)
(10.1773 -0.481046 1.01226e-20)
(10.1714 -0.486444 0)
(10.1659 -0.492014 7.77556e-26)
(10.1606 -0.497759 0)
(10.1555 -0.503675 6.30626e-21)
(10.1507 -0.509761 -2.21055e-20)
(10.146 -0.516017 -3.87939e-26)
(10.1415 -0.522447 0)
(10.1372 -0.529045 0)
(10.133 -0.535809 5.90147e-21)
(10.1289 -0.542739 4.84465e-21)
(10.1251 -0.549831 0)
(10.1213 -0.557086 0)
(10.1176 -0.56451 0)
(10.1141 -0.572109 -2.67273e-21)
(10.1107 -0.579874 -1.22561e-21)
(10.1074 -0.587803 0)
(10.1041 -0.595891 0)
(10.101 -0.604143 5.90724e-27)
(10.0982 -0.612588 -1.85587e-25)
(10.0963 -0.621255 9.75942e-27)
(9.87451 -3.25048 0)
(9.83353 -3.27492 0)
(9.84579 -3.28394 2.31643e-20)
(10.0519 -3.32106 -4.76108e-20)
(10.5558 -3.42123 -1.04666e-23)
(11.4718 -3.63096 1.06816e-23)
(13.4225 -4.15884 2.09354e-24)
(15.4945 -5.47762 4.62214e-21)
(14.367 -6.93643 -2.11676e-20)
(7.39599 -5.07351 1.00106e-20)
(-0.957046 1.58268 8.58367e-23)
(-1.87229 3.26321 4.41104e-20)
(-0.502835 2.22334 9.97212e-21)
(-0.274556 9.78185 2.54783e-21)
(1.05919 11.2589 0)
(-1.95494 -2.76327 -2.47612e-20)
(-5.18494 -11.4279 0)
(-4.44409 -6.47121 7.1994e-20)
(-4.28484 -3.68779 0)
(-4.45548 -3.00505 -8.74888e-20)
(9.72768 2.08045 -3.04224e-20)
(20.2938 1.83693 -3.35736e-22)
(21.4664 -0.227572 7.05016e-25)
(18.8622 -0.88374 5.82352e-21)
(16.5372 -0.680965 -3.4676e-21)
(15.4519 -0.540057 3.8438e-24)
(14.8158 -0.437095 3.62284e-21)
(14.544 -0.39172 0)
(14.4948 -0.398521 -3.12642e-21)
(14.4857 -0.448314 2.09817e-26)
(14.3944 -0.494059 -1.36049e-24)
(14.2436 -0.522579 5.34965e-21)
(14.049 -0.53183 -5.16217e-21)
(13.843 -0.521853 4.94907e-21)
(13.6793 -0.502685 2.26058e-24)
(13.5696 -0.489363 8.74678e-21)
(13.4977 -0.482955 -3.96906e-24)
(13.4486 -0.483763 1.86492e-24)
(13.4001 -0.488606 0)
(13.3436 -0.491847 -6.51147e-21)
(13.2838 -0.49298 0)
(13.2261 -0.492076 5.62263e-21)
(13.1762 -0.491055 2.08121e-20)
(13.1336 -0.491026 -9.61669e-21)
(13.0957 -0.491981 1.10006e-24)
(13.0599 -0.493456 3.01978e-26)
(13.0255 -0.494888 7.55652e-21)
(12.9928 -0.496253 2.25807e-26)
(12.9624 -0.497696 1.2828e-20)
(12.9345 -0.499406 -1.18045e-20)
(12.9084 -0.501386 -1.08564e-20)
(12.884 -0.503577 0)
(12.861 -0.505937 0)
(12.8393 -0.508469 0)
(12.8191 -0.511197 1.54532e-20)
(12.8 -0.51413 1.41744e-20)
(12.7821 -0.517265 1.29946e-20)
(12.7652 -0.520596 -3.71274e-25)
(12.7492 -0.524127 0)
(12.7342 -0.527861 -9.97488e-21)
(12.72 -0.5318 9.12132e-21)
(12.7065 -0.535945 -1.66682e-20)
(12.6938 -0.540295 -2.26582e-25)
(12.6818 -0.544852 -1.38771e-20)
(12.6704 -0.549619 -1.8794e-25)
(12.6596 -0.5546 1.1505e-20)
(12.6493 -0.559795 1.64239e-25)
(12.6396 -0.565202 -9.48758e-21)
(12.6303 -0.570824 0)
(12.6215 -0.576657 -1.87492e-25)
(12.6131 -0.582704 1.40222e-20)
(12.6051 -0.588961 9.98034e-26)
(12.5974 -0.595427 1.65486e-25)
(12.59 -0.602103 -1.01285e-20)
(12.583 -0.608991 -9.02386e-21)
(12.5763 -0.616094 6.38727e-26)
(12.5699 -0.62341 5.13396e-26)
(12.5637 -0.630937 2.47492e-20)
(12.5578 -0.638675 0)
(12.5521 -0.646626 3.32156e-26)
(12.5466 -0.654786 -3.22354e-26)
(12.5413 -0.663152 2.37628e-25)
(12.5362 -0.671723 0)
(12.5313 -0.680495 4.33155e-21)
(12.5265 -0.689467 -3.31511e-21)
(12.5219 -0.69865 1.07021e-26)
(12.5175 -0.708049 1.49766e-21)
(12.5131 -0.717654 1.37421e-21)
(12.5089 -0.727461 1.17151e-27)
(12.5048 -0.737465 0)
(12.5008 -0.747673 2.82758e-21)
(12.4973 -0.758122 -3.49549e-25)
(12.495 -0.768854 5.15287e-21)
(12.2232 -4.02387 0)
(12.1893 -4.0595 4.76595e-20)
(12.2061 -4.07272 -5.02775e-20)
(12.4283 -4.11133 2.57591e-20)
(12.9764 -4.21691 -2.50302e-23)
(13.9731 -4.44607 1.72526e-23)
(16.0287 -5.00682 -1.72462e-23)
(18.2558 -6.48036 -9.52024e-21)
(17.3867 -8.33206 2.09121e-20)
(10.007 -6.73762 -9.91792e-21)
(-0.101796 0.918328 1.1142e-22)
(-2.08843 3.68016 -8.48875e-23)
(-0.756604 3.39797 -1.048e-20)
(-0.212472 11.2969 0)
(0.861526 11.7844 -4.02796e-23)
(-2.41626 -2.40267 2.32373e-20)
(-5.66777 -12.2587 3.75388e-20)
(-5.25693 -7.76382 -7.48439e-20)
(-4.98779 -4.38555 -4.27842e-22)
(-3.50002 -2.80069 8.61362e-20)
(13.0957 2.69647 2.84955e-20)
(23.4745 2.01331 0)
(24.1489 -0.228885 0)
(21.5395 -0.96147 5.96152e-21)
(19.2604 -0.765104 3.59485e-21)
(18.1551 -0.620652 3.88533e-21)
(17.5132 -0.50997 -1.64652e-24)
(17.237 -0.461868 3.45024e-24)
(17.1761 -0.471509 3.32832e-21)
(17.1448 -0.529446 3.04486e-24)
(17.027 -0.58238 -3.6331e-27)
(16.8476 -0.615561 -2.79462e-24)
(16.6259 -0.626707 5.54634e-21)
(16.3985 -0.61592 2.58756e-24)
(16.2192 -0.594428 -5.0458e-21)
(16.0976 -0.579498 -9.46598e-21)
(16.016 -0.572367 8.81073e-21)
(15.9571 -0.573441 1.97482e-24)
(15.8983 -0.579131 -1.882e-24)
(15.8312 -0.58296 7.09404e-21)
(15.7611 -0.584373 -6.60863e-21)
(15.6942 -0.583431 -1.48057e-24)
(15.6361 -0.582345 -1.13875e-20)
(15.5861 -0.582391 -1.24014e-26)
(15.5411 -0.583568 9.73817e-21)
(15.4986 -0.585343 -8.99587e-21)
(15.4577 -0.587066 -8.30741e-21)
(15.419 -0.588713 -7.66472e-21)
(15.383 -0.590452 -2.8261e-20)
(15.3497 -0.592498 -1.30149e-20)
(15.3187 -0.594859 0)
(15.2895 -0.597469 0)
(15.262 -0.600275 -6.07442e-25)
(15.2361 -0.603285 -9.31014e-21)
(15.2119 -0.606525 -1.71025e-20)
(15.189 -0.610006 -1.56964e-20)
(15.1676 -0.613726 1.43978e-20)
(15.1473 -0.617678 1.32e-20)
(15.1281 -0.621866 -3.77339e-25)
(15.1101 -0.626293 -1.10704e-20)
(15.093 -0.630963 1.23393e-25)
(15.0769 -0.635877 3.95494e-26)
(15.0616 -0.641033 -1.28131e-26)
(15.0471 -0.646436 1.54266e-20)
(15.0334 -0.652087 -1.40603e-20)
(15.0203 -0.657991 0)
(15.008 -0.664148 0)
(14.9962 -0.670558 -1.05617e-20)
(14.985 -0.677221 -9.57029e-21)
(14.9744 -0.684135 -3.36609e-25)
(14.9642 -0.691302 1.56226e-20)
(14.9545 -0.698719 2.14805e-25)
(14.9453 -0.706383 2.90798e-25)
(14.9364 -0.714298 1.1292e-20)
(14.9279 -0.722464 8.0091e-26)
(14.9198 -0.730885 -6.51324e-26)
(14.912 -0.739557 -7.87555e-21)
(14.9046 -0.748479 -1.38072e-20)
(14.8974 -0.757652 -1.20097e-20)
(14.8905 -0.767077 0)
(14.8838 -0.776751 0)
(14.8774 -0.786669 -1.47614e-20)
(14.8712 -0.796829 6.06084e-21)
(14.8652 -0.807229 -4.83732e-21)
(14.8594 -0.817865 3.70273e-21)
(14.8538 -0.828752 -2.3912e-26)
(14.8484 -0.839895 0)
(14.8431 -0.851282 -1.53542e-21)
(14.838 -0.862909 2.62021e-27)
(14.833 -0.874769 0)
(14.8282 -0.886872 -6.26843e-25)
(14.824 -0.899266 -4.51071e-21)
(14.8214 -0.912006 -5.76002e-21)
(14.4925 -4.77154 4.91843e-20)
(14.472 -4.81997 -5.11672e-20)
(14.4963 -4.83873 5.37968e-20)
(14.7248 -4.87711 -9.1305e-25)
(15.2893 -4.98181 -2.72375e-24)
(16.3144 -5.21846 -5.66147e-24)
(18.3655 -5.78512 -1.77837e-23)
(20.6113 -7.35443 3.31587e-22)
(20.0458 -9.54495 -2.10511e-20)
(12.7602 -8.42653 -8.63546e-21)
(1.24375 -0.21143 -2.10826e-20)
(-2.1721 3.97479 -5.43049e-20)
(-1.02392 4.71432 0)
(-0.143063 12.6585 -2.53602e-21)
(0.470601 11.2991 1.30909e-20)
(-2.94764 -2.10649 -2.15825e-20)
(-6.0082 -12.6668 -3.80095e-20)
(-5.83787 -8.76189 1.52557e-19)
(-5.52457 -5.00919 0)
(-1.94779 -2.39329 -8.02424e-20)
(16.6121 3.25714 -1.32647e-23)
(26.0761 2.14124 -1.47959e-22)
(26.3492 -0.213113 2.71959e-22)
(23.8569 -1.01056 -6.01497e-21)
(21.716 -0.831646 0)
(20.6431 -0.690009 0)
(20.0237 -0.575517 -3.98756e-21)
(19.7527 -0.526398 3.78898e-21)
(19.6786 -0.538995 -3.50341e-21)
(19.6227 -0.604142 0)
(19.4801 -0.663456 0)
(19.2773 -0.700976 -2.97799e-24)
(19.0366 -0.714186 3.05792e-24)
(18.7967 -0.703162 0)
(18.6084 -0.680008 1.07701e-20)
(18.4792 -0.663919 -1.01269e-20)
(18.39 -0.656291 -9.45659e-21)
(18.3225 -0.657678 -8.79864e-21)
(18.2543 -0.664181 2.02797e-24)
(18.178 -0.668601 7.65887e-21)
(18.0995 -0.670348 -5.52806e-26)
(18.0251 -0.669454 6.65535e-21)
(17.9601 -0.668382 1.4885e-24)
(17.9037 -0.668556 1.14532e-20)
(17.8526 -0.66998 -1.06032e-20)
(17.8042 -0.67207 9.81171e-21)
(17.7576 -0.674099 9.06856e-21)
(17.7136 -0.676043 -8.3799e-21)
(17.6726 -0.678087 7.87613e-25)
(17.6346 -0.680475 1.42629e-20)
(17.5991 -0.683217 -1.31428e-20)
(17.5657 -0.686239 0)
(17.5341 -0.689484 0)
(17.5045 -0.692961 1.02447e-20)
(17.4766 -0.696697 0)
(17.4503 -0.700708 -1.72985e-20)
(17.4256 -0.70499 -2.43863e-25)
(17.4022 -0.709538 -1.45678e-20)
(17.3801 -0.714355 -3.9891e-25)
(17.3593 -0.719446 5.29221e-25)
(17.3396 -0.724813 -1.41231e-25)
(17.3209 -0.73046 4.09706e-20)
(17.3032 -0.736384 -5.85838e-25)
(17.2865 -0.74259 1.70869e-20)
(17.2706 -0.749081 1.55801e-20)
(17.2555 -0.755862 0)
(17.2411 -0.762933 0)
(17.2275 -0.770294 1.17177e-20)
(17.2145 -0.777945 1.06228e-20)
(17.2021 -0.785885 3.84431e-20)
(17.1903 -0.794114 5.41088e-25)
(17.179 -0.80263 -1.56257e-20)
(17.1682 -0.811429 -1.40294e-20)
(17.1579 -0.820516 1.25547e-20)
(17.148 -0.829892 1.11906e-20)
(17.1386 -0.83956 -1.449e-25)
(17.1295 -0.849515 8.76255e-21)
(17.1208 -0.859758 -1.23496e-25)
(17.1124 -0.87029 1.33681e-20)
(17.1044 -0.881111 -9.35045e-26)
(17.0966 -0.892218 -6.97676e-26)
(17.0891 -0.903604 1.6442e-20)
(17.0818 -0.915269 -6.75168e-21)
(17.0748 -0.927207 5.39069e-21)
(17.0681 -0.939419 3.5814e-26)
(17.0615 -0.951918 0)
(17.0552 -0.96471 0)
(17.049 -0.977784 1.71372e-21)
(17.043 -0.991131 0)
(17.0371 -1.00475 0)
(17.0315 -1.01864 -3.52385e-21)
(17.0267 -1.03288 -2.20926e-26)
(17.0238 -1.04753 2.16019e-26)
(16.6215 -5.4736 4.69698e-23)
(16.6189 -5.53563 -2.65103e-23)
(16.6537 -5.56118 -2.83516e-20)
(16.8817 -5.5985 2.86692e-20)
(17.4391 -5.69755 0)
(18.4465 -5.93141 0)
(20.4095 -6.48435 1.47984e-20)
(22.5661 -8.10256 4.54012e-22)
(22.2573 -10.516 -1.93616e-20)
(15.5074 -10.0613 8.01916e-21)
(3.1196 -1.79666 -5.59968e-23)
(-2.1035 4.12482 8.60847e-23)
(-1.2515 6.09658 -1.16477e-20)
(-0.0937804 13.763 2.57558e-21)
(-0.048842 10.2439 -1.26038e-20)
(-3.55376 -1.94678 0)
(-6.21193 -12.654 1.59222e-22)
(-6.18498 -9.46968 -7.67334e-20)
(-5.85439 -5.54754 -1.27971e-19)
(0.244925 -1.75522 7.16358e-20)
(20.039 3.7246 -1.2514e-23)
(28.0519 2.20056 -2.42424e-22)
(28.1204 -0.182778 -5.6885e-22)
(25.8116 -1.0336 5.97491e-21)
(23.8682 -0.880679 0)
(22.8655 -0.747075 0)
(22.2877 -0.632223 4.08481e-21)
(22.0278 -0.583557 -3.91111e-21)
(21.9405 -0.599107 3.64286e-21)
(21.861 -0.670421 3.43126e-21)
(21.698 -0.735268 -6.42848e-24)
(21.4795 -0.776827 -3.69547e-26)
(21.2292 -0.792304 6.3596e-24)
(20.9856 -0.781641 0)
(20.7952 -0.757521 -1.1378e-20)
(20.6626 -0.740738 2.14663e-20)
(20.5683 -0.732855 -4.96815e-24)
(20.4938 -0.734608 -4.9882e-24)
(20.4181 -0.741898 8.76472e-21)
(20.3349 -0.746928 -3.67893e-24)
(20.2502 -0.749077 -1.83972e-26)
(20.1704 -0.748337 -7.15201e-21)
(20.1006 -0.747373 8.83393e-26)
(20.0393 -0.747737 3.06172e-24)
(19.9835 -0.749444 0)
(19.9303 -0.751871 -1.0622e-20)
(19.8793 -0.754229 -9.845e-21)
(19.831 -0.756489 9.10505e-21)
(19.7861 -0.758855 3.82667e-24)
(19.7443 -0.761594 -1.5545e-20)
(19.7051 -0.764719 1.43397e-20)
(19.6682 -0.768149 1.64389e-24)
(19.6334 -0.771825 0)
(19.6006 -0.775754 -1.12185e-20)
(19.5697 -0.779972 2.06448e-20)
(19.5406 -0.78449 1.89846e-20)
(19.5131 -0.78931 -1.7443e-20)
(19.4871 -0.794424 0)
(19.4626 -0.799837 -8.77952e-25)
(19.4393 -0.805553 2.69488e-20)
(19.4174 -0.811577 -2.4686e-20)
(19.3965 -0.817912 -2.25936e-20)
(19.3768 -0.824556 0)
(19.3581 -0.831514 5.7866e-25)
(19.3403 -0.838791 -1.72176e-20)
(19.3234 -0.84639 -1.56892e-20)
(19.3073 -0.854313 -4.23573e-25)
(19.292 -0.862559 7.92343e-25)
(19.2774 -0.871129 -3.70452e-25)
(19.2635 -0.880022 -4.25919e-20)
(19.2503 -0.889239 -1.92326e-20)
(19.2376 -0.898775 1.7326e-20)
(19.2254 -0.908629 0)
(19.2138 -0.918804 -1.39311e-20)
(19.2027 -0.929302 -1.2422e-20)
(19.192 -0.940126 0)
(19.1818 -0.951272 0)
(19.1719 -0.962741 0)
(19.1624 -0.974531 -1.48594e-20)
(19.1534 -0.986645 9.17867e-26)
(19.1446 -0.999078 1.09065e-20)
(19.1361 -1.01182 1.12481e-24)
(19.1279 -1.02488 -7.51337e-21)
(19.1199 -1.03825 -1.19984e-20)
(19.1122 -1.05192 -3.04708e-26)
(19.1048 -1.06591 -3.28996e-21)
(19.0976 -1.08023 1.17175e-26)
(19.0905 -1.09486 -1.90851e-21)
(19.0837 -1.1098 3.26397e-27)
(19.077 -1.12504 -1.16574e-26)
(19.0707 -1.1406 3.92344e-21)
(19.0654 -1.15655 5.60325e-21)
(19.0624 -1.17297 7.15807e-21)
(18.5579 -6.11309 -5.47515e-20)
(18.5754 -6.1885 -5.54826e-23)
(18.6229 -6.22167 -5.73646e-23)
(18.8462 -6.25791 -2.96857e-20)
(19.3793 -6.34851 5.64315e-23)
(20.3332 -6.57219 3.7573e-23)
(22.1515 -7.09902 -1.48265e-20)
(24.1559 -8.73284 4.1146e-21)
(23.9381 -11.3012 1.91246e-20)
(18.1076 -11.504 5.82318e-21)
(5.43749 -3.7085 -1.82345e-20)
(-1.80863 4.07942 0)
(-1.43075 7.35491 -4.32293e-22)
(-0.0466322 14.2855 -3.83817e-25)
(-0.590081 9.35479 0)
(-4.22151 -1.87202 3.50052e-20)
(-6.2992 -12.296 -1.92873e-22)
(-6.33112 -9.91197 0)
(-5.92673 -5.99424 1.2316e-19)
(3.28898 -0.843551 -2.74016e-22)
(23.1862 4.05826 -2.25647e-20)
(29.4836 2.21728 3.99624e-22)
(29.5115 -0.143246 2.93182e-22)
(27.4099 -1.03449 -5.8731e-21)
(25.6958 -0.912889 -3.28257e-24)
(24.7853 -0.791237 0)
(24.2597 -0.678982 -4.13809e-21)
(24.0147 -0.632027 3.9943e-21)
(23.9163 -0.65048 -3.73539e-21)
(23.8175 -0.726898 -3.75475e-24)
(23.6413 -0.796456 6.63552e-24)
(23.4163 -0.841779 6.55807e-21)
(23.1661 -0.859714 -6.39303e-21)
(22.9271 -0.849983 6.2052e-21)
(22.7406 -0.825579 5.93549e-21)
(22.6087 -0.808561 -8.6338e-25)
(22.5123 -0.800665 0)
(22.4334 -0.802857 -5.45882e-24)
(22.3527 -0.810919 -9.25647e-21)
(22.2653 -0.816592 -8.68599e-21)
(22.1774 -0.819225 8.14592e-21)
(22.095 -0.818754 0)
(22.0224 -0.818005 0)
(21.9582 -0.818631 -3.18626e-24)
(21.8993 -0.820666 3.04875e-24)
(21.8432 -0.823462 2.74945e-24)
(21.7893 -0.826177 -5.44167e-24)
(21.7383 -0.828783 9.83376e-21)
(21.6907 -0.831494 1.82075e-20)
(21.6463 -0.834599 3.36841e-20)
(21.6047 -0.838113 6.59625e-26)
(21.5654 -0.841951 1.78716e-24)
(21.5282 -0.846053 0)
(21.4932 -0.850426 -3.50252e-25)
(21.4602 -0.855108 -2.254e-20)
(21.429 -0.860114 -2.53482e-24)
(21.3996 -0.865446 1.90932e-20)
(21.3717 -0.871096 0)
(21.3453 -0.877069 0)
(21.3203 -0.883372 -1.47925e-20)
(21.2966 -0.890009 1.35637e-20)
(21.2742 -0.896983 0)
(21.2529 -0.904295 0)
(21.2326 -0.911948 -4.15835e-20)
(21.2134 -0.91995 1.89846e-20)
(21.1951 -0.928302 3.4623e-20)
(21.1777 -0.937008 -4.67705e-25)
(21.1611 -0.946066 1.4332e-20)
(21.1453 -0.955478 -3.84948e-25)
(21.1301 -0.965245 -9.80969e-25)
(21.1157 -0.975364 3.14139e-25)
(21.1019 -0.985832 1.91878e-20)
(21.0886 -0.996648 0)
(21.0759 -1.00782 0)
(21.0638 -1.01934 0)
(21.0521 -1.03121 -1.22333e-20)
(21.0409 -1.04344 -1.72998e-25)
(21.0301 -1.05603 -1.89597e-20)
(21.0198 -1.06896 3.30093e-20)
(21.0098 -1.08225 0)
(21.0001 -1.09589 -1.21218e-20)
(20.9908 -1.10987 1.73066e-24)
(20.9817 -1.1242 8.35537e-21)
(20.973 -1.13885 6.67416e-21)
(20.9645 -1.15385 5.11399e-21)
(20.9563 -1.16919 3.6616e-21)
(20.9483 -1.1849 -2.31589e-21)
(20.9406 -1.20095 7.46812e-27)
(20.933 -1.21733 -7.28849e-27)
(20.9256 -1.23405 -2.35492e-21)
(20.9187 -1.25112 -4.37149e-21)
(20.9129 -1.26862 -6.24446e-21)
(20.91 -1.28665 -7.97877e-21)
(20.2977 -6.76421 -5.75757e-23)
(20.3589 -6.80526 5.8897e-23)
(20.5748 -6.84082 3.01799e-20)
(21.073 -6.92208 5.7003e-23)
(21.9499 -7.13161 2.3134e-20)
(23.5916 -7.62726 0)
(25.416 -9.25744 -2.1924e-23)
(25.1091 -11.7608 -1.64159e-20)
(20.4025 -12.7512 -5.31462e-21)
(8.05709 -5.81165 3.18912e-20)
(-1.17358 3.72808 5.08044e-20)
(-1.45419 8.24373 1.14846e-20)
(0.0183393 14.3039 -1.36384e-25)
(-1.24186 8.5423 -6.23144e-23)
(-4.942 -1.82045 -6.24131e-20)
(-6.3501 -11.8068 0)
(-6.28233 -10.1016 0)
(-5.64347 -6.2963 -1.1291e-19)
(7.01798 0.27148 -5.3091e-20)
(25.7945 4.20305 2.02325e-20)
(30.4818 2.21136 9.88058e-22)
(30.5624 -0.0970254 7.22982e-24)
(28.6645 -1.0156 0)
(27.1897 -0.929259 0)
(26.3791 -0.822286 7.9378e-24)
(25.9104 -0.715165 -8.04589e-24)
(25.6835 -0.671021 -4.01043e-21)
(25.5787 -0.692342 0)
(25.4676 -0.772848 -7.1631e-21)
(25.287 -0.84633 -6.88618e-21)
(25.0649 -0.895141 -1.33954e-20)
(24.8236 -0.915666 6.55467e-21)
(24.5963 -0.907361 -7.21642e-24)
(24.4191 -0.883307 0)
(24.2918 -0.866485 -1.16361e-20)
(24.1963 -0.858819 1.09746e-20)
(24.116 -0.861533 -1.10398e-23)
(24.0337 -0.870367 4.78829e-24)
(23.9456 -0.876728 -4.40301e-24)
(23.8576 -0.879934 4.23381e-24)
(23.7753 -0.879854 -8.04043e-21)
(23.7026 -0.879429 -9.98562e-26)
(23.6379 -0.880398 -1.40538e-20)