# Force and moment coefficients
# dragDir     : (1.000000e+00 0.000000e+00 0.000000e+00)
# sideDir     : (0.000000e+00 0.000000e+00 -1.000000e+00)
# liftDir     : (0.000000e+00 1.000000e+00 0.000000e+00)
# rollAxis    : (1.000000e+00 0.000000e+00 0.000000e+00)
# pitchAxis   : (0.000000e+00 0.000000e+00 -1.000000e+00)
# yawAxis     : (0.000000e+00 1.000000e+00 0.000000e+00)
# magUInf     : 1.000000e+00
# lRef        : 1.000000e+00
# Aref        : 1.000000e+00
# CofR        : (0.000000e+00 0.000000e+00 0.000000e+00)
#
# Time        	Cd            	Cd(f)         	Cd(r)         	Cl            	Cl(f)         	Cl(r)         	CmPitch       	CmRoll        	CmYaw         	Cs            	Cs(f)         	Cs(r)         
1             	4.366816e+03	2.183621e+03	2.183195e+03	-4.254859e-01	-1.001532e-01	-3.253327e-01	1.125897e-01	2.127429e-01	2.183408e+03	-7.446440e-18	2.183408e+03	-2.183408e+03
2             	6.456822e+02	3.126721e+02	3.330102e+02	2.033814e+01	1.723328e+02	-1.519946e+02	1.621637e+02	-1.016907e+01	3.228411e+02	2.179868e-18	3.228411e+02	-3.228411e+02
3             	1.781060e+02	1.076465e+02	7.045955e+01	-3.718690e+01	2.516185e+01	-6.234875e+01	4.375530e+01	1.859345e+01	8.905300e+01	-2.214109e-19	8.905300e+01	-8.905300e+01
4             	1.188243e+02	5.936587e+01	5.945842e+01	9.255019e-02	-2.600952e+00	2.693502e+00	-2.647227e+00	-4.627509e-02	5.941215e+01	1.937816e-19	5.941215e+01	-5.941215e+01
5             	1.007190e+02	4.311051e+01	5.760849e+01	1.449798e+01	-1.774388e+00	1.627237e+01	-9.023379e+00	-7.248991e+00	5.035950e+01	4.056840e-19	5.035950e+01	-5.035950e+01
6             	8.906028e+01	3.596802e+01	5.309226e+01	1.712424e+01	-3.048838e-01	1.742913e+01	-8.867006e+00	-8.562122e+00	4.453014e+01	4.305398e-19	4.453014e+01	-4.453014e+01
7             	7.998104e+01	3.158536e+01	4.839569e+01	1.681033e+01	3.294086e-01	1.648092e+01	-8.075757e+00	-8.405166e+00	3.999052e+01	4.148978e-19	3.999052e+01	-3.999052e+01
8             	7.268917e+01	2.811706e+01	4.457212e+01	1.645506e+01	3.676843e-01	1.608737e+01	-7.859845e+00	-8.227529e+00	3.634459e+01	4.112582e-19	3.634459e+01	-3.634459e+01
9             	6.690468e+01	2.541908e+01	4.148560e+01	1.606652e+01	3.036309e-01	1.576289e+01	-7.729629e+00	-8.033260e+00	3.345234e+01	4.166830e-19	3.345234e+01	-3.345234e+01
10            	6.222497e+01	2.326292e+01	3.896205e+01	1.569912e+01	2.469590e-01	1.545216e+01	-7.602602e+00	-7.849561e+00	3.111249e+01	4.224839e-19	3.111249e+01	-3.111249e+01
11            	5.833019e+01	2.148954e+01	3.684065e+01	1.535111e+01	2.113548e-01	1.513976e+01	-7.464201e+00	-7.675556e+00	2.916510e+01	4.252951e-19	2.916510e+01	-2.916510e+01
12            	5.500672e+01	1.999730e+01	3.500942e+01	1.501213e+01	1.962779e-01	1.481585e+01	-7.309785e+00	-7.506063e+00	2.750336e+01	4.257844e-19	2.750336e+01	-2.750336e+01
13            	5.211557e+01	1.871896e+01	3.339662e+01	1.467766e+01	2.015084e-01	1.447616e+01	-7.137324e+00	-7.338832e+00	2.605779e+01	4.258407e-19	2.605779e+01	-2.605779e+01
14            	4.955691e+01	1.759971e+01	3.195720e+01	1.435748e+01	2.304358e-01	1.412705e+01	-6.948306e+00	-7.178742e+00	2.477845e+01	4.267507e-19	2.477845e+01	-2.477845e+01
15            	4.725909e+01	1.661340e+01	3.064570e+01	1.403230e+01	2.795700e-01	1.375273e+01	-6.736579e+00	-7.016149e+00	2.362955e+01	4.287337e-19	2.362955e+01	-2.362955e+01
16            	4.517029e+01	1.573185e+01	2.943844e+01	1.370659e+01	3.504893e-01	1.335610e+01	-6.502805e+00	-6.853294e+00	2.258515e+01	4.315551e-19	2.258515e+01	-2.258515e+01
17            	4.325520e+01	1.493835e+01	2.831685e+01	1.337850e+01	4.422170e-01	1.293628e+01	-6.247032e+00	-6.689249e+00	2.162760e+01	4.342599e-19	2.162760e+01	-2.162760e+01
18            	4.155298e+01	1.472267e+01	2.683031e+01	1.210764e+01	5.846049e-01	1.152303e+01	-5.469214e+00	-6.053818e+00	2.077649e+01	4.345831e-19	2.077649e+01	-2.077649e+01
19            	3.995283e+01	1.421228e+01	2.574054e+01	1.152826e+01	7.362161e-01	1.079204e+01	-5.027912e+00	-5.764128e+00	1.997641e+01	4.349016e-19	1.997641e+01	-1.997641e+01
20            	3.844783e+01	1.368170e+01	2.476614e+01	1.108444e+01	9.177413e-01	1.016670e+01	-4.624479e+00	-5.542220e+00	1.922392e+01	4.356266e-19	1.922392e+01	-1.922392e+01
21            	3.702365e+01	1.318443e+01	2.383922e+01	1.065479e+01	1.116247e+00	9.538546e+00	-4.211150e+00	-5.327396e+00	1.851182e+01	4.372634e-19	1.851182e+01	-1.851182e+01
22            	3.567094e+01	1.273502e+01	2.293592e+01	1.020090e+01	1.321518e+00	8.879381e+00	-3.778931e+00	-5.100449e+00	1.783547e+01	4.399250e-19	1.783547e+01	-1.783547e+01
23            	3.437894e+01	1.232798e+01	2.205095e+01	9.722970e+00	1.532239e+00	8.190731e+00	-3.329246e+00	-4.861485e+00	1.718947e+01	4.426244e-19	1.718947e+01	-1.718947e+01
24            	3.314161e+01	1.195525e+01	2.118636e+01	9.231110e+00	1.747134e+00	7.483976e+00	-2.868421e+00	-4.615555e+00	1.657080e+01	4.442141e-19	1.657080e+01	-1.657080e+01
25            	3.196211e+01	1.161622e+01	2.034589e+01	8.729677e+00	1.962368e+00	6.767309e+00	-2.402471e+00	-4.364839e+00	1.598106e+01	4.445520e-19	1.598106e+01	-1.598106e+01
26            	3.083245e+01	1.130649e+01	1.952597e+01	8.219483e+00	2.173853e+00	6.045630e+00	-1.935889e+00	-4.109741e+00	1.541623e+01	4.437858e-19	1.541623e+01	-1.541623e+01
27            	2.975147e+01	1.102580e+01	1.872567e+01	7.699873e+00	2.378421e+00	5.321452e+00	-1.471516e+00	-3.849937e+00	1.487573e+01	4.424880e-19	1.487573e+01	-1.487573e+01
28            	2.871799e+01	1.076814e+01	1.794985e+01	7.181717e+00	2.571782e+00	4.609935e+00	-1.019076e+00	-3.590858e+00	1.435899e+01	4.411603e-19	1.435899e+01	-1.435899e+01
29            	2.773568e+01	1.053728e+01	1.719840e+01	6.661123e+00	2.753017e+00	3.908106e+00	-5.775442e-01	-3.330562e+00	1.386784e+01	4.401509e-19	1.386784e+01	-1.386784e+01
30            	2.679894e+01	1.032092e+01	1.647802e+01	6.157108e+00	2.916788e+00	3.240319e+00	-1.617655e-01	-3.078554e+00	1.339947e+01	4.395348e-19	1.339947e+01	-1.339947e+01
31            	2.591374e+01	1.012223e+01	1.579151e+01	5.669287e+00	3.062421e+00	2.606866e+00	2.277775e-01	-2.834643e+00	1.295687e+01	4.392283e-19	1.295687e+01	-1.295687e+01
32            	2.507785e+01	9.937597e+00	1.514025e+01	5.202652e+00	3.187943e+00	2.014709e+00	5.866172e-01	-2.601326e+00	1.253892e+01	4.391794e-19	1.253892e+01	-1.253892e+01
33            	2.429239e+01	9.767924e+00	1.452447e+01	4.756543e+00	3.292223e+00	1.464320e+00	9.139515e-01	-2.378272e+00	1.214620e+01	4.392921e-19	1.214620e+01	-1.214620e+01
34            	2.355712e+01	9.603240e+00	1.395388e+01	4.350638e+00	3.372081e+00	9.785572e-01	1.196762e+00	-2.175319e+00	1.177856e+01	4.394621e-19	1.177856e+01	-1.177856e+01
35            	2.287337e+01	9.446752e+00	1.342662e+01	3.979863e+00	3.428169e+00	5.516941e-01	1.438237e+00	-1.989931e+00	1.143668e+01	4.396510e-19	1.143668e+01	-1.143668e+01
36            	2.224098e+01	9.298549e+00	1.294243e+01	3.643885e+00	3.460213e+00	1.836723e-01	1.638270e+00	-1.821943e+00	1.112049e+01	4.397979e-19	1.112049e+01	-1.112049e+01
37            	2.165902e+01	9.155529e+00	1.250349e+01	3.347964e+00	3.467882e+00	-1.199181e-01	1.793900e+00	-1.673982e+00	1.082951e+01	4.398885e-19	1.082951e+01	-1.082951e+01
38            	2.112745e+01	9.018608e+00	1.210884e+01	3.090237e+00	3.452640e+00	-3.624035e-01	1.907522e+00	-1.545118e+00	1.056373e+01	4.399283e-19	1.056373e+01	-1.056373e+01
39            	2.064533e+01	8.884898e+00	1.176043e+01	2.875533e+00	3.414734e+00	-5.392015e-01	1.976968e+00	-1.437766e+00	1.032266e+01	4.399057e-19	1.032266e+01	-1.032266e+01
40            	2.021171e+01	8.758422e+00	1.145328e+01	2.694861e+00	3.356224e+00	-6.613633e-01	2.008794e+00	-1.347431e+00	1.010585e+01	4.398231e-19	1.010585e+01	-1.010585e+01
41            	1.982519e+01	8.638399e+00	1.118679e+01	2.548394e+00	3.280179e+00	-7.317846e-01	2.005982e+00	-1.274197e+00	9.912596e+00	4.397223e-19	9.912596e+00	-9.912596e+00
42            	1.948421e+01	8.526873e+00	1.095733e+01	2.430462e+00	3.190140e+00	-7.596780e-01	1.974909e+00	-1.215231e+00	9.742104e+00	4.396092e-19	9.742104e+00	-9.742104e+00
43            	1.918685e+01	8.425863e+00	1.076098e+01	2.335120e+00	3.088721e+00	-7.536015e-01	1.921161e+00	-1.167560e+00	9.593423e+00	4.394747e-19	9.593423e+00	-9.593423e+00
44            	1.893017e+01	8.336922e+00	1.059325e+01	2.256325e+00	2.979267e+00	-7.229415e-01	1.851104e+00	-1.128163e+00	9.465085e+00	4.393294e-19	9.465085e+00	-9.465085e+00
45            	1.871214e+01	8.262283e+00	1.044986e+01	2.187576e+00	2.865267e+00	-6.776912e-01	1.771479e+00	-1.093788e+00	9.356071e+00	4.391653e-19	9.356071e+00	-9.356071e+00
46            	1.853016e+01	8.200278e+00	1.032988e+01	2.129599e+00	2.749476e+00	-6.198766e-01	1.684676e+00	-1.064800e+00	9.265078e+00	4.389872e-19	9.265078e+00	-9.265078e+00
47            	1.838063e+01	8.152299e+00	1.022833e+01	2.076032e+00	2.634370e+00	-5.583386e-01	1.596355e+00	-1.038016e+00	9.190315e+00	4.388224e-19	9.190315e+00	-9.190315e+00
48            	1.826151e+01	8.118506e+00	1.014300e+01	2.024496e+00	2.521935e+00	-4.974388e-01	1.509687e+00	-1.012248e+00	9.130755e+00	4.386834e-19	9.130755e+00	-9.130755e+00
49            	1.816805e+01	8.096534e+00	1.007152e+01	1.974986e+00	2.412899e+00	-4.379131e-01	1.425406e+00	-9.874930e-01	9.084027e+00	4.385916e-19	9.084027e+00	-9.084027e+00
50            	1.809892e+01	8.088254e+00	1.001067e+01	1.922412e+00	2.308670e+00	-3.862583e-01	1.347464e+00	-9.612060e-01	9.049460e+00	4.385536e-19	9.049460e+00	-9.049460e+00
51            	1.805031e+01	8.088036e+00	9.962274e+00	1.874238e+00	2.209037e+00	-3.347997e-01	1.271919e+00	-9.371188e-01	9.025155e+00	4.385726e-19	9.025155e+00	-9.025155e+00
52            	1.802006e+01	8.096196e+00	9.923862e+00	1.827666e+00	2.114128e+00	-2.864620e-01	1.200295e+00	-9.138329e-01	9.010029e+00	4.386373e-19	9.010029e+00	-9.010029e+00
53            	1.800566e+01	8.109367e+00	9.896291e+00	1.786924e+00	2.023264e+00	-2.363405e-01	1.129802e+00	-8.934620e-01	9.002829e+00	4.387330e-19	9.002829e+00	-9.002829e+00
54            	1.800482e+01	8.124577e+00	9.880247e+00	1.755670e+00	1.935507e+00	-1.798365e-01	1.057672e+00	-8.778351e-01	9.002412e+00	4.388546e-19	9.002412e+00	-9.002412e+00
55            	1.801530e+01	8.138747e+00	9.876550e+00	1.737803e+00	1.849720e+00	-1.119163e-01	9.808180e-01	-8.689016e-01	9.007648e+00	4.390013e-19	9.007648e+00	-9.007648e+00
56            	1.803527e+01	8.149018e+00	9.886249e+00	1.737231e+00	1.764613e+00	-2.738167e-02	8.959972e-01	-8.686155e-01	9.017633e+00	4.391704e-19	9.017633e+00	-9.017633e+00
57            	1.806255e+01	8.153088e+00	9.909464e+00	1.756376e+00	1.679198e+00	7.717862e-02	8.010095e-01	-8.781881e-01	9.031276e+00	4.393597e-19	9.031276e+00	-9.031276e+00
58            	1.809536e+01	8.149083e+00	9.946280e+00	1.797197e+00	1.592682e+00	2.045145e-01	6.940840e-01	-8.985985e-01	9.047681e+00	4.395698e-19	9.047681e+00	-9.047681e+00
59            	1.813250e+01	8.135484e+00	9.997020e+00	1.861536e+00	1.504485e+00	3.570515e-01	5.737168e-01	-9.307682e-01	9.066252e+00	4.397999e-19	9.066252e+00	-9.066252e+00
60            	1.817260e+01	8.111970e+00	1.006063e+01	1.948657e+00	1.414546e+00	5.341107e-01	4.402176e-01	-9.743283e-01	9.086298e+00	4.400485e-19	9.086298e+00	-9.086298e+00
61            	1.821386e+01	8.077907e+00	1.013595e+01	2.058042e+00	1.322952e+00	7.350904e-01	2.939308e-01	-1.029021e+00	9.106928e+00	4.403111e-19	9.106928e+00	-9.106928e+00
62            	1.825532e+01	8.034375e+00	1.022094e+01	2.186566e+00	1.230299e+00	9.562672e-01	1.370160e-01	-1.093283e+00	9.127658e+00	4.405846e-19	9.127658e+00	-9.127658e+00
63            	1.829490e+01	7.981603e+00	1.031330e+01	2.331695e+00	1.137367e+00	1.194329e+00	-2.848097e-02	-1.165848e+00	9.147451e+00	4.408660e-19	9.147451e+00	-9.147451e+00
64            	1.833392e+01	7.922934e+00	1.041099e+01	2.488055e+00	1.045504e+00	1.442551e+00	-1.985236e-01	-1.244027e+00	9.166962e+00	4.411509e-19	9.166962e+00	-9.166962e+00
65            	1.836970e+01	7.858460e+00	1.051124e+01	2.652782e+00	9.553179e-01	1.697464e+00	-3.710732e-01	-1.326391e+00	9.184851e+00	4.414358e-19	9.184851e+00	-9.184851e+00
66            	1.840396e+01	7.791211e+00	1.061275e+01	2.821538e+00	8.679403e-01	1.953597e+00	-5.428285e-01	-1.410769e+00	9.201980e+00	4.417172e-19	9.201980e+00	-9.201980e+00
67            	1.843321e+01	7.721772e+00	1.071143e+01	2.989663e+00	7.844573e-01	2.205206e+00	-7.103741e-01	-1.494831e+00	9.216603e+00	4.419955e-19	9.216603e+00	-9.216603e+00
68            	1.846002e+01	7.653565e+00	1.080646e+01	3.152893e+00	7.060178e-01	2.446875e+00	-8.704285e-01	-1.576446e+00	9.230011e+00	4.422673e-19	9.230011e+00	-9.230011e+00
69            	1.847923e+01	7.585422e+00	1.089380e+01	3.308382e+00	6.332079e-01	2.675174e+00	-1.020983e+00	-1.654191e+00	9.239613e+00	4.425389e-19	9.239613e+00	-9.239613e+00
70            	1.849640e+01	7.522292e+00	1.097411e+01	3.451817e+00	5.668192e-01	2.884998e+00	-1.159089e+00	-1.725909e+00	9.248200e+00	4.427952e-19	9.248200e+00	-9.248200e+00
71            	1.850441e+01	7.461130e+00	1.104328e+01	3.582147e+00	5.070692e-01	3.075078e+00	-1.284004e+00	-1.791074e+00	9.252204e+00	4.430497e-19	9.252204e+00	-9.252204e+00
72            	1.851043e+01	7.407043e+00	1.110339e+01	3.696343e+00	4.543643e-01	3.241979e+00	-1.393807e+00	-1.848172e+00	9.255215e+00	4.432817e-19	9.255215e+00	-9.255215e+00
73            	1.853115e+01	7.474059e+00	1.105709e+01	3.583033e+00	4.510408e-01	3.131992e+00	-1.340476e+00	-1.791516e+00	9.265575e+00	4.432744e-19	9.265575e+00	-9.265575e+00
74            	1.853042e+01	7.441144e+00	1.108928e+01	3.648133e+00	4.161981e-01	3.231935e+00	-1.407869e+00	-1.824067e+00	9.265211e+00	4.434515e-19	9.265211e+00	-9.265211e+00
75            	1.851833e+01	7.390202e+00	1.112813e+01	3.737927e+00	3.801293e-01	3.357798e+00	-1.488834e+00	-1.868964e+00	9.259165e+00	4.436676e-19	9.259165e+00	-9.259165e+00
76            	1.850398e+01	7.343126e+00	1.116086e+01	3.817729e+00	3.488130e-01	3.468916e+00	-1.560051e+00	-1.908864e+00	9.251991e+00	4.438585e-19	9.251991e+00	-9.251991e+00
77            	1.848355e+01	7.300763e+00	1.118279e+01	3.882028e+00	3.228038e-01	3.559224e+00	-1.618210e+00	-1.941014e+00	9.241777e+00	4.440418e-19	9.241777e+00	-9.241777e+00
78            	1.846275e+01	7.265263e+00	1.119749e+01	3.932224e+00	3.014068e-01	3.630817e+00	-1.664705e+00	-1.966112e+00	9.231375e+00	4.441900e-19	9.231375e+00	-9.231375e+00
79            	1.843681e+01	7.233478e+00	1.120333e+01	3.969851e+00	2.841904e-01	3.685661e+00	-1.700735e+00	-1.984926e+00	9.218404e+00	4.443336e-19	9.218404e+00	-9.218404e+00
80            	1.841109e+01	7.207463e+00	1.120362e+01	3.996161e+00	2.705303e-01	3.725631e+00	-1.727550e+00	-1.998080e+00	9.205544e+00	4.444418e-19	9.205544e+00	-9.205544e+00
81            	1.838129e+01	7.184482e+00	1.119680e+01	4.012322e+00	2.601463e-01	3.752176e+00	-1.746015e+00	-2.006161e+00	9.190643e+00	4.445461e-19	9.190643e+00	-9.190643e+00
82            	1.835279e+01	7.166580e+00	1.118621e+01	4.019634e+00	2.524941e-01	3.767139e+00	-1.757323e+00	-2.009817e+00	9.176397e+00	4.446137e-19	9.176397e+00	-9.176397e+00
83            	1.832096e+01	7.150713e+00	1.117025e+01	4.019536e+00	2.473411e-01	3.772195e+00	-1.762427e+00	-2.009768e+00	9.160481e+00	4.446794e-19	9.160481e+00	-9.160481e+00
84            	1.829112e+01	7.139487e+00	1.115163e+01	4.012147e+00	2.443886e-01	3.767758e+00	-1.761685e+00	-2.006073e+00	9.145561e+00	4.447110e-19	9.145561e+00	-9.145561e+00
85            	1.825858e+01	7.130062e+00	1.112852e+01	3.998456e+00	2.435625e-01	3.754894e+00	-1.755666e+00	-1.999228e+00	9.129290e+00	4.447432e-19	9.129290e+00	-9.129290e+00
86            	1.822823e+01	7.124410e+00	1.110382e+01	3.979411e+00	2.444171e-01	3.734994e+00	-1.745288e+00	-1.989705e+00	9.114116e+00	4.447465e-19	9.114116e+00	-9.114116e+00
87            	1.819568e+01	7.120136e+00	1.107554e+01	3.955408e+00	2.470708e-01	3.708337e+00	-1.730633e+00	-1.977704e+00	9.097840e+00	4.447533e-19	9.097840e+00	-9.097840e+00
88            	1.816553e+01	7.119362e+00	1.104617e+01	3.926808e+00	2.511488e-01	3.675659e+00	-1.712255e+00	-1.963404e+00	9.082765e+00	4.447356e-19	9.082765e+00	-9.082765e+00
89            	1.813352e+01	7.119505e+00	1.101402e+01	3.894514e+00	2.566928e-01	3.637821e+00	-1.690564e+00	-1.947257e+00	9.066762e+00	4.447231e-19	9.066762e+00	-9.066762e+00
90            	1.810422e+01	7.123072e+00	1.098114e+01	3.858072e+00	2.634226e-01	3.594649e+00	-1.665613e+00	-1.929036e+00	9.052108e+00	4.446861e-19	9.052108e+00	-9.052108e+00
91            	1.807320e+01	7.127038e+00	1.094617e+01	3.819128e+00	2.713107e-01	3.547817e+00	-1.638253e+00	-1.909564e+00	9.036602e+00	4.446541e-19	9.036602e+00	-9.036602e+00
92            	1.804490e+01	7.133598e+00	1.091130e+01	3.777705e+00	2.800592e-01	3.497646e+00	-1.608793e+00	-1.888852e+00	9.022451e+00	4.445986e-19	9.022451e+00	-9.022451e+00
93            	1.801491e+01	7.140416e+00	1.087449e+01	3.734076e+00	2.897927e-01	3.444283e+00	-1.577245e+00	-1.867038e+00	9.007454e+00	4.445502e-19	9.007454e+00	-9.007454e+00
94            	1.798761e+01	7.149489e+00	1.083812e+01	3.688627e+00	3.001263e-01	3.388501e+00	-1.544187e+00	-1.844314e+00	8.993803e+00	4.444811e-19	8.993803e+00	-8.993803e+00
95            	1.795400e+01	7.138034e+00	1.081596e+01	3.677929e+00	3.051565e-01	3.372772e+00	-1.533808e+00	-1.838964e+00	8.976998e+00	4.444578e-19	8.976998e+00	-8.976998e+00
96            	1.792722e+01	7.148048e+00	1.077917e+01	3.631123e+00	3.172408e-01	3.313883e+00	-1.498321e+00	-1.815562e+00	8.963609e+00	4.443744e-19	8.963609e+00	-8.963609e+00
97            	1.789966e+01	7.161069e+00	1.073859e+01	3.577522e+00	3.308751e-01	3.246647e+00	-1.457886e+00	-1.788761e+00	8.949830e+00	4.442989e-19	8.949830e+00	-8.949830e+00
98            	1.787474e+01	7.175407e+00	1.069933e+01	3.523921e+00	3.444454e-01	3.179475e+00	-1.417515e+00	-1.761960e+00	8.937368e+00	4.442056e-19	8.937368e+00	-8.937368e+00
99            	1.784819e+01	7.188616e+00	1.065957e+01	3.470959e+00	3.579468e-01	3.113012e+00	-1.377533e+00	-1.735479e+00	8.924095e+00	4.441250e-19	8.924095e+00	-8.924095e+00
100           	1.782421e+01	7.202576e+00	1.062164e+01	3.419061e+00	3.710963e-01	3.047965e+00	-1.338434e+00	-1.709531e+00	8.912106e+00	4.440294e-19	8.912106e+00	-8.912106e+00
