# Force and moment coefficients
# dragDir     : (1.000000e+00 0.000000e+00 0.000000e+00)
# sideDir     : (0.000000e+00 0.000000e+00 -1.000000e+00)
# liftDir     : (0.000000e+00 1.000000e+00 0.000000e+00)
# rollAxis    : (1.000000e+00 0.000000e+00 0.000000e+00)
# pitchAxis   : (0.000000e+00 0.000000e+00 -1.000000e+00)
# yawAxis     : (0.000000e+00 1.000000e+00 0.000000e+00)
# magUInf     : 1.000000e+00
# lRef        : 1.000000e+00
# Aref        : 1.000000e+00
# CofR        : (0.000000e+00 0.000000e+00 0.000000e+00)
#
# Time        	Cd            	Cd(f)         	Cd(r)         	Cl            	Cl(f)         	Cl(r)         	CmPitch       	CmRoll        	CmYaw         	Cs            	Cs(f)         	Cs(r)         
1             	8.091285e+03	-7.133476e+03	1.522476e+04	2.235824e+04	-1.045157e+03	2.340340e+04	-1.222428e+04	-1.117912e+04	4.045643e+03	1.790235e-16	4.045643e+03	-4.045643e+03
2             	8.963107e+02	-6.343740e+02	1.530685e+03	2.165059e+03	5.430660e+02	1.621993e+03	-5.394633e+02	-1.082529e+03	4.481554e+02	1.942861e-18	4.481554e+02	-4.481554e+02
3             	1.366492e+02	-8.144494e+01	2.180942e+02	2.995391e+02	2.742858e+02	2.525332e+01	1.245162e+02	-1.497696e+02	6.832461e+01	-3.420547e-18	6.832461e+01	-6.832461e+01
4             	9.106200e+01	-1.126385e+02	2.037005e+02	3.163389e+02	2.055848e+02	1.107541e+02	4.741532e+01	-1.581695e+02	4.553100e+01	-2.159399e-18	4.553100e+01	-4.553100e+01
5             	9.118975e+01	-1.591111e+02	2.503009e+02	4.094120e+02	2.072976e+02	2.021144e+02	2.591589e+00	-2.047060e+02	4.559487e+01	-1.811998e-18	4.559487e+01	-4.559487e+01
6             	9.258780e+01	-1.925529e+02	2.851407e+02	4.776936e+02	2.133992e+02	2.642945e+02	-2.544763e+01	-2.388468e+02	4.629390e+01	-1.522686e-18	4.629390e+01	-4.629390e+01
7             	9.368737e+01	-2.205323e+02	3.142197e+02	5.347520e+02	2.177169e+02	3.170351e+02	-4.965912e+01	-2.673760e+02	4.684369e+01	-1.205766e-18	4.684369e+01	-4.684369e+01
8             	9.474935e+01	-2.455251e+02	3.402744e+02	5.857995e+02	2.209634e+02	3.648361e+02	-7.193635e+01	-2.928998e+02	4.737468e+01	-8.759523e-19	4.737468e+01	-4.737468e+01
9             	9.580035e+01	-2.682149e+02	3.640153e+02	6.322302e+02	2.236270e+02	4.086031e+02	-9.248803e+01	-3.161151e+02	4.790017e+01	-5.564596e-19	4.790017e+01	-4.790017e+01
10            	9.680697e+01	-2.890057e+02	3.858127e+02	6.748184e+02	2.259427e+02	4.488757e+02	-1.114665e+02	-3.374092e+02	4.840349e+01	-2.661023e-19	4.840349e+01	-4.840349e+01
11            	9.770647e+01	-3.081411e+02	4.058476e+02	7.139887e+02	2.280147e+02	4.859739e+02	-1.289796e+02	-3.569943e+02	4.885324e+01	-9.537297e-21	4.885324e+01	-4.885324e+01
12            	9.846398e+01	-3.257881e+02	4.242520e+02	7.500401e+02	2.298853e+02	5.201548e+02	-1.451348e+02	-3.750201e+02	4.923199e+01	2.187548e-19	4.923199e+01	-4.923199e+01
13            	9.906852e+01	-3.420614e+02	4.411300e+02	7.831914e+02	2.315777e+02	5.516137e+02	-1.600180e+02	-3.915957e+02	4.953426e+01	4.262460e-19	4.953426e+01	-4.953426e+01
14            	9.953666e+01	-3.570729e+02	4.566095e+02	8.136824e+02	2.331151e+02	5.805673e+02	-1.737261e+02	-4.068412e+02	4.976833e+01	6.184329e-19	4.976833e+01	-4.976833e+01
15            	9.988019e+01	-3.709388e+02	4.708190e+02	8.417579e+02	2.345259e+02	6.072320e+02	-1.863531e+02	-4.208789e+02	4.994010e+01	7.956880e-19	4.994010e+01	-4.994010e+01
16            	1.001060e+02	-3.837791e+02	4.838851e+02	8.676642e+02	2.358424e+02	6.318219e+02	-1.979898e+02	-4.338321e+02	5.005298e+01	9.552252e-19	5.005298e+01	-5.005298e+01
17            	1.002330e+02	-3.957061e+02	4.959391e+02	8.916452e+02	2.370999e+02	6.545453e+02	-2.087227e+02	-4.458226e+02	5.011652e+01	1.097821e-18	5.011652e+01	-5.011652e+01
18            	1.002832e+02	-4.068074e+02	5.070906e+02	9.138980e+02	2.383285e+02	6.755696e+02	-2.186206e+02	-4.569490e+02	5.014161e+01	1.226474e-18	5.014161e+01	-5.014161e+01
19            	1.004445e+02	-4.168153e+02	5.172597e+02	9.340750e+02	2.399040e+02	6.941710e+02	-2.271335e+02	-4.670375e+02	5.022224e+01	1.353557e-18	5.022224e+01	-5.022224e+01
20            	1.002564e+02	-4.269809e+02	5.272373e+02	9.542182e+02	2.409507e+02	7.132676e+02	-2.361584e+02	-4.771091e+02	5.012818e+01	1.455248e-18	5.012818e+01	-5.012818e+01
21            	1.002987e+02	-4.358784e+02	5.361771e+02	9.720555e+02	2.425208e+02	7.295347e+02	-2.435070e+02	-4.860277e+02	5.014934e+01	1.560806e-18	5.014934e+01	-5.014934e+01
22            	1.000359e+02	-4.449016e+02	5.449375e+02	9.898391e+02	2.437565e+02	7.460826e+02	-2.511630e+02	-4.949195e+02	5.001794e+01	1.646369e-18	5.001794e+01	-5.001794e+01
23            	1.000117e+02	-4.528620e+02	5.528737e+02	1.005736e+03	2.455030e+02	7.602327e+02	-2.573648e+02	-5.028679e+02	5.000585e+01	1.740243e-18	5.000585e+01	-5.000585e+01
24            	9.967649e+01	-4.609370e+02	5.606135e+02	1.021551e+03	2.470284e+02	7.745221e+02	-2.637468e+02	-5.107753e+02	4.983824e+01	1.815696e-18	4.983824e+01	-4.983824e+01
25            	9.940221e+01	-4.683124e+02	5.677146e+02	1.036027e+03	2.488154e+02	7.872116e+02	-2.691981e+02	-5.180135e+02	4.970111e+01	1.895567e-18	4.970111e+01	-4.970111e+01
26            	9.911952e+01	-4.752761e+02	5.743956e+02	1.049672e+03	2.507958e+02	7.988759e+02	-2.740401e+02	-5.248359e+02	4.955976e+01	1.967911e-18	4.955976e+01	-4.955976e+01
27            	9.881151e+01	-4.819015e+02	5.807130e+02	1.062614e+03	2.529537e+02	8.096608e+02	-2.783535e+02	-5.313072e+02	4.940576e+01	2.040900e-18	4.940576e+01	-4.940576e+01
28            	9.846040e+01	-4.882016e+02	5.866620e+02	1.074864e+03	2.552736e+02	8.195899e+02	-2.821582e+02	-5.374318e+02	4.923020e+01	2.108893e-18	4.923020e+01	-4.923020e+01
29            	9.808516e+01	-4.942048e+02	5.922900e+02	1.086495e+03	2.577667e+02	8.287281e+02	-2.854807e+02	-5.432474e+02	4.904258e+01	2.176741e-18	4.904258e+01	-4.904258e+01
30            	9.766570e+01	-4.999147e+02	5.975804e+02	1.097495e+03	2.604146e+02	8.370806e+02	-2.883330e+02	-5.487476e+02	4.883285e+01	2.240265e-18	4.883285e+01	-4.883285e+01
31            	9.721835e+01	-5.053561e+02	6.025745e+02	1.107931e+03	2.632223e+02	8.447084e+02	-2.907430e+02	-5.539653e+02	4.860917e+01	2.303509e-18	4.860917e+01	-4.860917e+01
32            	9.673708e+01	-5.105427e+02	6.072798e+02	1.117822e+03	2.661630e+02	8.516594e+02	-2.927482e+02	-5.589112e+02	4.836854e+01	2.363883e-18	4.836854e+01	-4.836854e+01
33            	9.623221e+01	-5.154982e+02	6.117304e+02	1.127229e+03	2.692431e+02	8.579854e+02	-2.943711e+02	-5.636143e+02	4.811610e+01	2.424447e-18	4.811610e+01	-4.811610e+01
34            	9.569743e+01	-5.202194e+02	6.159168e+02	1.136136e+03	2.724232e+02	8.637130e+02	-2.956449e+02	-5.680681e+02	4.784872e+01	2.482626e-18	4.784872e+01	-4.784872e+01
35            	9.513839e+01	-5.247553e+02	6.198937e+02	1.144649e+03	2.757103e+02	8.689388e+02	-2.966143e+02	-5.723245e+02	4.756919e+01	2.541413e-18	4.756919e+01	-4.756919e+01
36            	9.457019e+01	-5.290955e+02	6.236657e+02	1.152761e+03	2.790547e+02	8.737065e+02	-2.973259e+02	-5.763806e+02	4.728510e+01	2.598104e-18	4.728510e+01	-4.728510e+01
37            	9.396085e+01	-5.333247e+02	6.272855e+02	1.160610e+03	2.824513e+02	8.781589e+02	-2.978538e+02	-5.803051e+02	4.698042e+01	2.655767e-18	4.698042e+01	-4.698042e+01
38            	9.335583e+01	-5.374219e+02	6.307778e+02	1.168200e+03	2.858387e+02	8.823610e+02	-2.982612e+02	-5.840999e+02	4.667791e+01	2.711523e-18	4.667791e+01	-4.667791e+01
39            	9.270264e+01	-5.414686e+02	6.341712e+02	1.175640e+03	2.892281e+02	8.864117e+02	-2.985918e+02	-5.878199e+02	4.635132e+01	2.768032e-18	4.635132e+01	-4.635132e+01
40            	9.205674e+01	-5.454217e+02	6.374785e+02	1.182900e+03	2.925684e+02	8.903318e+02	-2.988817e+02	-5.914501e+02	4.602837e+01	2.823208e-18	4.602837e+01	-4.602837e+01
41            	9.138310e+01	-5.493633e+02	6.407464e+02	1.190110e+03	2.958638e+02	8.942458e+02	-2.991910e+02	-5.950548e+02	4.569155e+01	2.878762e-18	4.569155e+01	-4.569155e+01
42            	9.072984e+01	-5.532542e+02	6.439840e+02	1.197238e+03	2.990642e+02	8.981740e+02	-2.995549e+02	-5.986191e+02	4.536492e+01	2.933463e-18	4.536492e+01	-4.536492e+01
43            	9.004772e+01	-5.571746e+02	6.472223e+02	1.204397e+03	3.021880e+02	9.022089e+02	-3.000104e+02	-6.021984e+02	4.502386e+01	2.988480e-18	4.502386e+01	-4.502386e+01
44            	8.939318e+01	-5.610742e+02	6.504674e+02	1.211542e+03	3.051925e+02	9.063492e+02	-3.005784e+02	-6.057708e+02	4.469659e+01	3.043294e-18	4.469659e+01	-4.469659e+01
45            	8.870840e+01	-5.650122e+02	6.537206e+02	1.218733e+03	3.081112e+02	9.106216e+02	-3.012552e+02	-6.093664e+02	4.435420e+01	3.098040e-18	4.435420e+01	-4.435420e+01
46            	8.828938e+01	-5.693946e+02	6.576840e+02	1.227079e+03	3.108560e+02	9.162226e+02	-3.026833e+02	-6.135393e+02	4.414469e+01	3.165887e-18	4.414469e+01	-4.414469e+01
47            	8.739369e+01	-5.731163e+02	6.605100e+02	1.233626e+03	3.136851e+02	9.199412e+02	-3.031281e+02	-6.168132e+02	4.369685e+01	3.211251e-18	4.369685e+01	-4.369685e+01
48            	8.689815e+01	-5.774284e+02	6.643266e+02	1.241755e+03	3.162292e+02	9.255259e+02	-3.046483e+02	-6.208775e+02	4.344907e+01	3.277840e-18	4.344907e+01	-4.344907e+01
49            	8.622102e+01	-5.815951e+02	6.678161e+02	1.249411e+03	3.188011e+02	9.306101e+02	-3.059045e+02	-6.247056e+02	4.311051e+01	3.334675e-18	4.311051e+01	-4.311051e+01
50            	8.551451e+01	-5.856634e+02	6.711779e+02	1.256841e+03	3.212705e+02	9.355709e+02	-3.071502e+02	-6.284207e+02	4.275725e+01	3.392251e-18	4.275725e+01	-4.275725e+01
51            	8.477903e+01	-5.897262e+02	6.745052e+02	1.264231e+03	3.236719e+02	9.405595e+02	-3.084438e+02	-6.321157e+02	4.238952e+01	3.447565e-18	4.238952e+01	-4.238952e+01
52            	8.404333e+01	-5.937358e+02	6.777792e+02	1.271515e+03	3.259891e+02	9.455259e+02	-3.097684e+02	-6.357575e+02	4.202166e+01	3.504460e-18	4.202166e+01	-4.202166e+01
53            	8.327749e+01	-5.977335e+02	6.810110e+02	1.278745e+03	3.282640e+02	9.504805e+02	-3.111083e+02	-6.393723e+02	4.163875e+01	3.558663e-18	4.163875e+01	-4.163875e+01
54            	8.250825e+01	-6.016683e+02	6.841766e+02	1.285845e+03	3.304732e+02	9.553717e+02	-3.124493e+02	-6.429224e+02	4.125412e+01	3.614887e-18	4.125412e+01	-4.125412e+01
55            	8.171404e+01	-6.055754e+02	6.872894e+02	1.292865e+03	3.326511e+02	9.602137e+02	-3.137813e+02	-6.464324e+02	4.085702e+01	3.667784e-18	4.085702e+01	-4.085702e+01
56            	8.092058e+01	-6.094178e+02	6.903384e+02	1.299756e+03	3.347686e+02	9.649876e+02	-3.151095e+02	-6.498781e+02	4.046029e+01	3.723003e-18	4.046029e+01	-4.046029e+01
57            	8.010590e+01	-6.132280e+02	6.933339e+02	1.306562e+03	3.368547e+02	9.697072e+02	-3.164263e+02	-6.532809e+02	4.005295e+01	3.774423e-18	4.005295e+01	-4.005295e+01
58            	7.929622e+01	-6.169760e+02	6.962722e+02	1.313248e+03	3.388834e+02	9.743649e+02	-3.177408e+02	-6.566241e+02	3.964811e+01	3.828455e-18	3.964811e+01	-3.964811e+01
59            	7.847828e+01	-6.206920e+02	6.991702e+02	1.319862e+03	3.408836e+02	9.789786e+02	-3.190475e+02	-6.599311e+02	3.923914e+01	3.878307e-18	3.923914e+01	-3.923914e+01
60            	7.766711e+01	-6.243407e+02	7.020078e+02	1.326349e+03	3.428232e+02	9.835253e+02	-3.203511e+02	-6.631743e+02	3.883355e+01	3.930872e-18	3.883355e+01	-3.883355e+01
61            	7.685483e+01	-6.279539e+02	7.048088e+02	1.332763e+03	3.447332e+02	9.880295e+02	-3.216481e+02	-6.663813e+02	3.842741e+01	3.978933e-18	3.842741e+01	-3.842741e+01
62            	7.605180e+01	-6.315013e+02	7.075532e+02	1.339054e+03	3.465809e+02	9.924736e+02	-3.229464e+02	-6.695272e+02	3.802590e+01	4.029745e-18	3.802590e+01	-3.802590e+01
63            	7.525706e+01	-6.350146e+02	7.102717e+02	1.345286e+03	3.483966e+02	9.968897e+02	-3.242465e+02	-6.726432e+02	3.762853e+01	4.076016e-18	3.762853e+01	-3.762853e+01
64            	7.447311e+01	-6.384630e+02	7.129361e+02	1.351399e+03	3.501463e+02	1.001253e+03	-3.255532e+02	-6.756995e+02	3.723655e+01	4.124995e-18	3.723655e+01	-3.723655e+01
65            	7.370370e+01	-6.418767e+02	7.155804e+02	1.357457e+03	3.518612e+02	1.005596e+03	-3.268673e+02	-6.787285e+02	3.685185e+01	4.169414e-18	3.685185e+01	-3.685185e+01
66            	7.294612e+01	-6.452245e+02	7.181706e+02	1.363395e+03	3.535076e+02	1.009887e+03	-3.281899e+02	-6.816975e+02	3.647306e+01	4.216495e-18	3.647306e+01	-3.647306e+01
67            	7.220847e+01	-6.485338e+02	7.207422e+02	1.369276e+03	3.551192e+02	1.014157e+03	-3.295188e+02	-6.846380e+02	3.610423e+01	4.258933e-18	3.610423e+01	-3.610423e+01
68            	7.148258e+01	-6.517741e+02	7.232567e+02	1.375031e+03	3.566630e+02	1.018368e+03	-3.308524e+02	-6.875154e+02	3.574129e+01	4.303961e-18	3.574129e+01	-3.574129e+01
69            	7.077948e+01	-6.549693e+02	7.257488e+02	1.380718e+03	3.581761e+02	1.022542e+03	-3.321830e+02	-6.903591e+02	3.538974e+01	4.344355e-18	3.538974e+01	-3.538974e+01
70            	7.008559e+01	-6.580902e+02	7.281758e+02	1.386266e+03	3.596258e+02	1.026640e+03	-3.335072e+02	-6.931330e+02	3.504279e+01	4.387203e-18	3.504279e+01	-3.504279e+01
71            	6.941549e+01	-6.611589e+02	7.305744e+02	1.391733e+03	3.610510e+02	1.030682e+03	-3.348157e+02	-6.958666e+02	3.470774e+01	4.425530e-18	3.470774e+01	-3.470774e+01
72            	6.875529e+01	-6.641430e+02	7.328983e+02	1.397041e+03	3.624178e+02	1.034624e+03	-3.361028e+02	-6.985207e+02	3.437764e+01	4.466036e-18	3.437764e+01	-3.437764e+01
73            	6.811462e+01	-6.670702e+02	7.351848e+02	1.402255e+03	3.637669e+02	1.038488e+03	-3.373606e+02	-7.011275e+02	3.405731e+01	4.502280e-18	3.405731e+01	-3.405731e+01
74            	6.747787e+01	-6.699067e+02	7.373846e+02	1.407291e+03	3.650643e+02	1.042227e+03	-3.385814e+02	-7.036457e+02	3.373893e+01	4.540443e-18	3.373893e+01	-3.373893e+01
75            	6.686274e+01	-6.726783e+02	7.395411e+02	1.412219e+03	3.663511e+02	1.045868e+03	-3.397586e+02	-7.061097e+02	3.343137e+01	4.574418e-18	3.343137e+01	-3.343137e+01
76            	6.624441e+01	-6.753573e+02	7.416017e+02	1.416959e+03	3.675888e+02	1.049370e+03	-3.408906e+02	-7.084795e+02	3.312221e+01	4.610050e-18	3.312221e+01	-3.312221e+01
77            	6.564815e+01	-6.779673e+02	7.436154e+02	1.421583e+03	3.688208e+02	1.052762e+03	-3.419705e+02	-7.107914e+02	3.282407e+01	4.641959e-18	3.282407e+01	-3.282407e+01
78            	6.504532e+01	-6.804821e+02	7.455274e+02	1.426010e+03	3.700073e+02	1.056002e+03	-3.429975e+02	-7.130048e+02	3.252266e+01	4.674812e-18	3.252266e+01	-3.252266e+01
79            	6.446586e+01	-6.829252e+02	7.473910e+02	1.430316e+03	3.711917e+02	1.059124e+03	-3.439663e+02	-7.151581e+02	3.223293e+01	4.704588e-18	3.223293e+01	-3.223293e+01
80            	6.387599e+01	-6.852712e+02	7.491472e+02	1.434418e+03	3.723324e+02	1.062086e+03	-3.448769e+02	-7.172092e+02	3.193799e+01	4.734750e-18	3.193799e+01	-3.193799e+01
81            	6.331066e+01	-6.875444e+02	7.508551e+02	1.438400e+03	3.734732e+02	1.064926e+03	-3.457266e+02	-7.191998e+02	3.165533e+01	4.762399e-18	3.165533e+01	-3.165533e+01
82            	6.273257e+01	-6.897230e+02	7.524555e+02	1.442179e+03	3.745702e+02	1.067608e+03	-3.465190e+02	-7.210893e+02	3.136628e+01	4.789921e-18	3.136628e+01	-3.136628e+01
83            	6.218111e+01	-6.918306e+02	7.540117e+02	1.445842e+03	3.756676e+02	1.070175e+03	-3.472536e+02	-7.229212e+02	3.109055e+01	4.815503e-18	3.109055e+01	-3.109055e+01
84            	6.161520e+01	-6.938486e+02	7.554638e+02	1.449312e+03	3.767196e+02	1.072593e+03	-3.479366e+02	-7.246562e+02	3.080760e+01	4.840493e-18	3.080760e+01	-3.080760e+01
85            	6.107883e+01	-6.958002e+02	7.568790e+02	1.452679e+03	3.777700e+02	1.074909e+03	-3.485695e+02	-7.263396e+02	3.053942e+01	4.864073e-18	3.053942e+01	-3.053942e+01
86            	6.052718e+01	-6.976686e+02	7.581958e+02	1.455864e+03	3.787722e+02	1.077092e+03	-3.491599e+02	-7.279322e+02	3.026359e+01	4.886668e-18	3.026359e+01	-3.026359e+01
87            	5.997626e+01	-6.993838e+02	7.593601e+02	1.458744e+03	3.797801e+02	1.078964e+03	-3.495918e+02	-7.293720e+02	2.998813e+01	4.906497e-18	2.998813e+01	-2.998813e+01
88            	5.944592e+01	-7.010755e+02	7.605215e+02	1.461597e+03	3.807065e+02	1.080890e+03	-3.500920e+02	-7.307985e+02	2.972296e+01	4.926407e-18	2.972296e+01	-2.972296e+01
89            	5.895960e+01	-7.027392e+02	7.616988e+02	1.464438e+03	3.816311e+02	1.082807e+03	-3.505879e+02	-7.322190e+02	2.947980e+01	4.946153e-18	2.947980e+01	-2.947980e+01
90            	5.846054e+01	-7.043406e+02	7.628012e+02	1.467142e+03	3.825032e+02	1.084639e+03	-3.510677e+02	-7.335709e+02	2.923027e+01	4.964327e-18	2.923027e+01	-2.923027e+01
91            	5.799827e+01	-7.059029e+02	7.639011e+02	1.469804e+03	3.833726e+02	1.086431e+03	-3.515294e+02	-7.349020e+02	2.899913e+01	4.982784e-18	2.899913e+01	-2.899913e+01
92            	5.752093e+01	-7.074054e+02	7.649263e+02	1.472332e+03	3.841862e+02	1.088145e+03	-3.519796e+02	-7.361658e+02	2.876046e+01	4.999274e-18	2.876046e+01	-2.876046e+01
93            	5.708357e+01	-7.088736e+02	7.659572e+02	1.474831e+03	3.849965e+02	1.089834e+03	-3.524189e+02	-7.374154e+02	2.854178e+01	5.016607e-18	2.854178e+01	-2.854178e+01
94            	5.663037e+01	-7.102885e+02	7.669188e+02	1.477207e+03	3.857505e+02	1.091457e+03	-3.528532e+02	-7.386037e+02	2.831518e+01	5.031621e-18	2.831518e+01	-2.831518e+01
95            	5.621966e+01	-7.116740e+02	7.678937e+02	1.479568e+03	3.865020e+02	1.093066e+03	-3.532818e+02	-7.397839e+02	2.810983e+01	5.048078e-18	2.810983e+01	-2.810983e+01
96            	5.579160e+01	-7.130120e+02	7.688036e+02	1.481816e+03	3.871982e+02	1.094617e+03	-3.537096e+02	-7.409078e+02	2.789580e+01	5.061810e-18	2.789580e+01	-2.789580e+01
97            	5.540821e+01	-7.143249e+02	7.697331e+02	1.484058e+03	3.878940e+02	1.096164e+03	-3.541350e+02	-7.420290e+02	2.770411e+01	5.077608e-18	2.770411e+01	-2.770411e+01
98            	5.500574e+01	-7.155935e+02	7.705993e+02	1.486193e+03	3.885354e+02	1.097657e+03	-3.545610e+02	-7.430964e+02	2.750287e+01	5.090210e-18	2.750287e+01	-2.750287e+01
99            	5.464948e+01	-7.168396e+02	7.714890e+02	1.488329e+03	3.891791e+02	1.099149e+03	-3.549851e+02	-7.441643e+02	2.732474e+01	5.105521e-18	2.732474e+01	-2.732474e+01
100           	5.427250e+01	-7.180447e+02	7.723172e+02	1.490362e+03	3.897708e+02	1.100591e+03	-3.554101e+02	-7.451809e+02	2.713625e+01	5.117109e-18	2.713625e+01	-2.713625e+01
