/*--------------------------------*- C++ -*----------------------------------*\
| =========                 |                                                 |
| \\      /  F ield         | OpenFOAM: The Open Source CFD Toolbox           |
|  \\    /   O peration     | Version:  2412                                  |
|   \\  /    A nd           | Website:  www.openfoam.com                      |
|    \\/     M anipulation  |                                                 |
\*---------------------------------------------------------------------------*/
FoamFile
{
    version     2.0;
    format      ascii;
    arch        "LSB;label=32;scalar=64";
    class       volVectorField;
    location    "280";
    object      U;
}
// * * * * * * * * * * * * * * * * * * * * * * * * * * * * * * * * * * * * * //

dimensions      [0 1 -1 0 0 0 0];

internalField   nonuniform List<vector> 
8553
(
(-0.0947534 -0.40584 0)
(-0.323912 -0.741896 -7.79315e-21)
(-0.039705 -0.0492094 1.83288e-20)
(0.0393587 0.0371622 1.89089e-24)
(-0.310273 -0.174943 0)
(-0.116802 -0.0381065 -1.52469e-24)
(0.568139 0.0638671 1.12466e-24)
(0.924231 -0.0109876 3.59203e-22)
(0.800991 -0.0454247 3.85327e-25)
(0.633238 -0.0307919 0)
(0.572541 -0.0221367 3.62289e-21)
(0.53214 -0.0167519 -1.74141e-21)
(0.52063 -0.0143795 0)
(0.52894 -0.0145768 0)
(0.542046 -0.0168263 3.61633e-25)
(0.545523 -0.0189024 -3.44531e-25)
(0.542408 -0.0201643 -2.71861e-21)
(0.533452 -0.0205024 2.6149e-21)
(0.520584 -0.019903 3.12345e-25)
(0.510013 -0.0189363 -2.38455e-21)
(0.504054 -0.0182984 -4.51726e-21)
(0.501106 -0.0180028 8.53006e-21)
(0.500501 -0.0180562 2.46228e-25)
(0.499903 -0.0182814 3.79861e-21)
(0.498268 -0.0184237 3.58674e-21)
(0.495978 -0.0184627 -3.38711e-21)
(0.493496 -0.0184095 -3.19501e-21)
(0.491507 -0.0183575 6.0214e-21)
(0.490054 -0.018354 0)
(0.488923 -0.0183958 0)
(0.487845 -0.018458 -5.02658e-21)
(0.486736 -0.0185158 1.4388e-25)
(0.485657 -0.0185699 -4.45509e-21)
(0.484651 -0.0186263 8.38596e-21)
(0.483753 -0.0186936 1.19044e-25)
(0.482943 -0.0187722 -1.1458e-25)
(0.482185 -0.0188588 -1.06091e-25)
(0.48145 -0.018951 6.57641e-21)
(0.480758 -0.019049 3.95797e-28)
(0.480119 -0.019155 1.1641e-20)
(0.479511 -0.0192682 8.29636e-26)
(0.478933 -0.0193886 1.02949e-20)
(0.478377 -0.019516 0)
(0.477852 -0.0196504 0)
(0.477356 -0.0197928 -8.54027e-21)
(0.476879 -0.0199422 6.08919e-26)
(0.476424 -0.0200992 -5.79677e-26)
(0.475997 -0.0202637 1.40997e-20)
(0.475586 -0.0204363 -4.97794e-26)
(0.47519 -0.0206162 7.25082e-28)
(0.474813 -0.0208039 -1.1555e-20)
(0.474461 -0.0209997 0)
(0.474129 -0.0212042 1.00702e-20)
(0.473815 -0.0214159 0)
(0.473524 -0.0216367 -1.74837e-20)
(0.473255 -0.0218654 1.62697e-20)
(0.473009 -0.0221027 -1.51316e-20)
(0.472781 -0.022348 0)
(0.472565 -0.0226017 -2.44986e-26)
(0.472384 -0.0228634 8.73585e-28)
(0.47223 -0.0231352 -1.13364e-20)
(0.472089 -0.0234146 -1.98193e-26)
(0.471974 -0.0237029 -1.97572e-20)
(0.471869 -0.0239998 -1.84994e-20)
(0.471784 -0.0243049 1.68367e-26)
(0.471712 -0.0246186 1.63489e-20)
(0.471635 -0.0249397 -2.99077e-26)
(0.471566 -0.0252684 1.40971e-26)
(0.471512 -0.0256054 1.30128e-26)
(0.471454 -0.0259498 1.31052e-20)
(0.471392 -0.0263016 -2.878e-28)
(0.47134 -0.0266619 -1.14218e-26)
(0.471285 -0.0270297 -2.25521e-20)
(0.471233 -0.0274053 2.14848e-20)
(0.471187 -0.0277886 -4.1016e-20)
(0.471157 -0.0281803 -1.95974e-20)
(0.471161 -0.0285823 -1.87285e-20)
(0.471207 -0.028995 0)
(0.430199 -0.141628 -2.54533e-24)
(0.422027 -0.14057 -2.20461e-20)
(0.418312 -0.139302 -2.92125e-24)
(0.430374 -0.141475 -1.6102e-25)
(0.46421 -0.148917 -1.33252e-20)
(0.52008 -0.161152 2.74567e-20)
(0.65806 -0.198075 2.77799e-20)
(0.743951 -0.260796 2.91569e-24)
(0.479967 -0.238771 -6.43529e-24)
(-0.038473 0.0308049 -3.25569e-20)
(-0.242952 0.283862 -9.35708e-24)
(0.0165019 -0.034362 0)
(0.0113771 -0.0388332 -1.0701e-20)
(-0.0414484 0.659475 -2.09546e-21)
(0.100382 0.747923 0)
(-0.280705 -1.1035 0)
(-0.937393 -2.12876 1.27661e-20)
(-0.171279 -0.255272 -3.00376e-20)
(0.0887279 0.0863161 6.65352e-20)
(-0.890729 -0.501229 0)
(-0.234866 -0.0919583 -4.99464e-24)
(1.80195 0.190286 -4.14874e-21)
(2.77985 -0.0360209 5.87531e-22)
(2.41591 -0.133228 -1.47971e-24)
(1.94503 -0.0916629 1.42244e-24)
(1.76945 -0.0671579 -2.98738e-21)
(1.65467 -0.0514813 -6.98945e-25)
(1.62314 -0.0447918 2.72879e-21)
(1.6476 -0.0456317 2.56596e-21)
(1.68407 -0.0524419 -1.19433e-24)
(1.69265 -0.0586503 5.69425e-25)
(1.68191 -0.0624098 4.49435e-21)
(1.6543 -0.0633851 -4.32487e-21)
(1.61609 -0.0615865 8.29382e-21)
(1.58497 -0.0587145 4.81421e-25)
(1.56733 -0.0568287 7.47792e-21)
(1.55855 -0.055966 -7.06209e-21)
(1.55646 -0.0561418 -4.05876e-25)
(1.55428 -0.0568243 -1.2585e-20)
(1.54907 -0.0572527 -1.18861e-20)
(1.542 -0.057372 5.61302e-21)
(1.53445 -0.0572166 3.22375e-25)
(1.52838 -0.0570655 9.98214e-21)
(1.52389 -0.0570613 2.87863e-25)
(1.52034 -0.0571922 2.69292e-25)
(1.51697 -0.0573854 8.33669e-21)
(1.51351 -0.0575656 0)
(1.51015 -0.0577343 0)
(1.50705 -0.057912 0)
(1.50427 -0.0581229 -2.018e-25)
(1.50174 -0.0583679 -1.23249e-20)
(1.49937 -0.0586372 3.5397e-25)
(1.49709 -0.0589243 -1.69216e-25)
(1.49495 -0.0592306 2.05399e-20)
(1.49296 -0.05956 -1.93228e-20)
(1.49107 -0.0599121 -1.39595e-25)
(1.48928 -0.0602874 -3.41795e-20)
(1.48757 -0.0606842 -1.21603e-25)
(1.48594 -0.0611034 1.50952e-20)
(1.4844 -0.061546 0)
(1.48293 -0.0620114 1.01281e-25)
(1.48153 -0.0625003 -9.62294e-26)
(1.48019 -0.0630125 2.34042e-20)
(1.47891 -0.0635484 -8.26202e-26)
(1.47769 -0.0641079 -4.10253e-20)
(1.47653 -0.0646925 -1.91767e-20)
(1.47543 -0.0653017 -6.73326e-26)
(1.4744 -0.065937 1.96219e-27)
(1.47342 -0.0665966 6.0386e-26)
(1.4725 -0.0672817 2.9006e-20)
(1.47165 -0.0679926 -2.69903e-20)
(1.47086 -0.0687295 2.5101e-20)
(1.47013 -0.0694915 -2.33384e-20)
(1.46945 -0.0702788 2.17027e-20)
(1.46886 -0.0710931 0)
(1.46833 -0.0719351 3.76202e-20)
(1.46787 -0.0728027 1.75469e-20)
(1.46746 -0.0736973 3.27951e-20)
(1.4671 -0.0746177 3.07138e-20)
(1.4668 -0.0755651 5.5914e-26)
(1.46653 -0.0765381 -5.03469e-26)
(1.46627 -0.0775347 -2.56265e-20)
(1.46604 -0.0785562 2.42183e-20)
(1.46584 -0.0796023 0)
(1.46564 -0.0806717 -4.35674e-20)
(1.46544 -0.081765 0)
(1.46527 -0.0828845 0)
(1.46509 -0.0840278 0)
(1.46492 -0.0851948 -3.37114e-26)
(1.46478 -0.0863864 6.31113e-26)
(1.46468 -0.0876039 -3.14281e-26)
(1.46468 -0.0888529 3.11524e-20)
(1.46482 -0.0901358 0)
(1.33844 -0.440539 -3.42316e-20)
(1.31569 -0.438099 -4.69963e-24)
(1.30477 -0.434605 -1.07741e-25)
(1.33896 -0.440727 4.61707e-24)
(1.43656 -0.462038 0)
(1.59913 -0.498186 -4.53877e-20)
(1.99095 -0.602632 -2.2918e-20)
(2.24975 -0.786773 -2.0264e-20)
(1.52435 -0.747391 0)
(-0.0137482 0.0315678 5.36261e-20)
(-0.687986 0.804682 1.54541e-23)
(0.0337076 -0.0799261 3.86829e-20)
(0.0098356 0.0121965 1.75639e-20)
(-0.119893 1.96967 0)
(0.260803 2.0849 0)
(-0.484626 -1.67116 2.15017e-23)
(-1.52098 -3.47067 -1.42311e-20)
(-0.382741 -0.596711 0)
(0.0966125 0.106526 -3.72914e-20)
(-1.43932 -0.806645 -3.44664e-20)
(-0.200224 -0.121634 0)
(3.21264 0.314267 9.21086e-21)
(4.72158 -0.0659894 -6.54808e-22)
(4.11493 -0.220138 9.44503e-25)
(3.36894 -0.153934 -1.59156e-24)
(3.08227 -0.11487 8.19682e-25)
(2.89844 -0.0891858 -7.86067e-25)
(2.85 -0.0786041 -7.34413e-27)
(2.89068 -0.0804381 2.99114e-26)
(2.94792 -0.0920559 0)
(2.95945 -0.102519 6.44821e-25)
(2.93898 -0.108832 -6.14159e-25)
(2.89105 -0.110418 0)
(2.82694 -0.107379 -9.3353e-21)
(2.77521 -0.102573 0)
(2.74575 -0.0994348 8.42242e-21)
(2.73102 -0.098019 2.54735e-27)
(2.72703 -0.0983443 4.59551e-25)
(2.72272 -0.0995111 1.41855e-20)
(2.71341 -0.100239 1.33996e-20)
(2.70111 -0.100445 -6.42495e-27)
(2.68816 -0.10019 -5.97279e-21)
(2.67772 -0.0999442 -7.62128e-27)
(2.66991 -0.099948 1.06083e-20)
(2.66365 -0.10018 -6.11833e-25)
(2.65771 -0.100519 0)
(2.65165 -0.100837 5.38771e-25)
(2.64578 -0.101134 -1.01839e-24)
(2.64038 -0.101449 9.58756e-25)
(2.63553 -0.101821 -1.47872e-20)
(2.6311 -0.102252 1.39185e-20)
(2.62694 -0.102725 -4.01838e-25)
(2.62297 -0.103229 -1.2328e-20)
(2.61923 -0.103767 -3.57187e-25)
(2.61572 -0.104345 -2.18292e-20)
(2.61241 -0.104963 3.11183e-25)
(2.6093 -0.105621 1.93091e-20)
(2.60632 -0.106318 2.79145e-25)
(2.60349 -0.107054 -1.70586e-20)
(2.6008 -0.107829 1.60225e-20)
(2.59823 -0.108646 2.27346e-25)
(2.59578 -0.109503 -4.30597e-25)
(2.59345 -0.110401 -2.64549e-20)
(2.59122 -0.11134 -2.47794e-20)
(2.5891 -0.112323 4.63785e-20)
(2.58707 -0.113348 2.16802e-20)
(2.58515 -0.114416 1.52253e-25)
(2.58334 -0.115528 -4.43709e-27)
(2.58163 -0.116685 -1.36556e-25)
(2.58001 -0.117885 3.27986e-20)
(2.57851 -0.11913 1.14401e-25)
(2.57712 -0.12042 -1.10305e-25)
(2.57583 -0.121755 2.63926e-20)
(2.57463 -0.123134 -2.45437e-20)
(2.57356 -0.124561 0)
(2.57261 -0.126033 -2.1274e-20)
(2.57177 -0.127553 -3.96918e-20)
(2.57103 -0.129119 0)
(2.57036 -0.13073 -3.47399e-20)
(2.5698 -0.132388 -3.26177e-20)
(2.56929 -0.134091 -3.07203e-20)
(2.56882 -0.135836 5.45492e-26)
(2.5684 -0.137625 2.58399e-27)
(2.56802 -0.139456 -5.01741e-26)
(2.56767 -0.141329 4.92846e-20)
(2.56733 -0.143245 -2.33925e-20)
(2.56702 -0.145206 2.2264e-20)
(2.56672 -0.14721 8.09297e-26)
(2.56644 -0.149255 -7.71445e-26)
(2.56619 -0.151343 -6.86565e-27)
(2.56602 -0.153476 3.55557e-26)
(2.56604 -0.155665 0)
(2.56629 -0.157914 0)
(2.34372 -0.771277 7.70349e-20)
(2.30799 -0.768298 4.1092e-20)
(2.28976 -0.762855 0)
(2.34411 -0.77255 -2.35007e-20)
(2.5026 -0.806941 2.47547e-20)
(2.76878 -0.867078 2.54345e-20)
(3.39597 -1.03397 0)
(3.83429 -1.33788 4.71133e-24)
(2.71302 -1.30821 -1.11274e-23)
(0.140868 -0.040116 4.00467e-23)
(-1.10066 1.28603 3.92934e-20)
(0.0239821 -0.0948472 1.12734e-23)
(-0.0195467 0.2168 -1.95789e-20)
(-0.179835 3.29407 0)
(0.374544 3.29336 0)
(-0.693622 -2.0338 -3.69404e-23)
(-2.05486 -4.70699 2.28947e-23)
(-0.681873 -1.09136 0)
(0.048127 0.0801105 0)
(-1.91936 -1.0733 7.72228e-20)
(0.0435002 -0.114925 2.86743e-20)
(4.79766 0.432553 -5.02258e-21)
(6.70694 -0.0998337 -2.61263e-24)
(5.86742 -0.303541 7.25956e-21)
(4.89041 -0.216342 -1.85343e-24)
(4.50188 -0.164626 3.73458e-21)
(4.25843 -0.129606 3.6035e-21)
(4.19752 -0.115739 -3.42711e-21)
(4.25373 -0.11892 -3.22314e-21)
(4.32767 -0.135489 3.07195e-21)
(4.33926 -0.150234 1.01436e-26)
(4.30672 -0.1591 -2.76518e-24)
(4.23717 -0.161266 5.45305e-21)
(4.14747 -0.156993 5.23397e-21)
(4.0758 -0.150282 -2.43145e-24)
(4.0348 -0.145928 1.12294e-24)
(4.01414 -0.143992 8.93472e-21)
(4.00778 -0.144494 -1.03233e-24)
(4.0007 -0.146164 -7.96953e-21)
(3.98679 -0.147202 -7.52943e-21)
(3.96885 -0.147503 -7.11668e-21)
(3.95026 -0.147154 1.04608e-26)
(3.93523 -0.146824 -3.98009e-27)
(3.92385 -0.146848 -1.19357e-20)
(3.91462 -0.147196 -1.12428e-20)
(3.90586 -0.147695 0)
(3.89697 -0.148163 9.97587e-21)
(3.88837 -0.148605 4.57713e-27)
(3.88047 -0.149072 5.42295e-25)
(3.87338 -0.149625 -5.06072e-25)
(3.86686 -0.150259 -1.56827e-20)
(3.86074 -0.150956 0)
(3.85492 -0.151699 -1.38962e-20)
(3.84943 -0.152492 -1.30781e-20)
(3.84428 -0.153342 2.46122e-20)
(3.83943 -0.154252 2.31546e-20)
(3.83486 -0.155221 2.17765e-20)
(3.8305 -0.156246 0)
(3.82634 -0.157329 -1.92422e-20)
(3.82239 -0.15847 2.2218e-27)
(3.81862 -0.159671 -2.15097e-27)
(3.81504 -0.160932 -3.18422e-20)
(3.81163 -0.162253 -2.25214e-25)
(3.80837 -0.163635 5.59288e-20)
(3.80526 -0.165079 -5.2343e-20)
(3.8023 -0.166586 0)
(3.7995 -0.168158 -2.28563e-20)
(3.79684 -0.169793 0)
(3.79432 -0.171492 0)
(3.79196 -0.173258 8.28403e-27)
(3.78974 -0.175088 -3.44587e-20)
(3.78769 -0.176984 -3.20494e-20)
(3.7858 -0.178946 0)
(3.78403 -0.180974 0)
(3.78245 -0.183069 2.57901e-20)
(3.78105 -0.185234 9.3419e-26)
(3.7798 -0.187467 7.76451e-26)
(3.77868 -0.189767 4.18921e-20)
(3.77769 -0.192135 0)
(3.77685 -0.194571 3.68408e-20)
(3.7761 -0.197073 6.71952e-26)
(3.77541 -0.199639 0)
(3.77481 -0.202268 -6.18906e-20)
(3.77425 -0.20496 5.52793e-26)
(3.77375 -0.207713 -2.78371e-20)
(3.77327 -0.210531 2.64259e-20)
(3.77285 -0.213415 -8.36696e-26)
(3.77244 -0.216362 4.79306e-20)
(3.77207 -0.21937 0)
(3.77173 -0.222441 4.35999e-20)
(3.77152 -0.225578 -7.86187e-26)
(3.77158 -0.228798 -3.98194e-20)
(3.77201 -0.232106 0)
(3.43902 -1.13153 -4.31821e-20)
(3.39281 -1.12911 -1.11486e-23)
(3.36748 -1.12213 0)
(3.43865 -1.13471 2.63285e-20)
(3.65172 -1.18053 -2.77022e-20)
(4.01294 -1.26342 1.3917e-23)
(4.84308 -1.48395 0)
(5.45782 -1.90084 2.50883e-20)
(4.03342 -1.91224 -2.4417e-20)
(0.457917 -0.202125 -3.28274e-20)
(-1.45251 1.70302 1.86459e-24)
(-0.0189938 -0.0590433 -4.83224e-20)
(-0.0792041 0.590182 -1.34043e-23)
(-0.220489 4.55257 4.17595e-21)
(0.426128 4.30611 1.26641e-23)
(-0.896103 -2.12599 1.63201e-20)
(-2.51505 -5.76986 -6.31022e-23)
(-1.06183 -1.73232 -3.9805e-20)
(-0.0747978 -0.0115185 -4.46236e-23)
(-2.29116 -1.28616 3.92911e-23)
(0.553218 -0.0613524 -3.09427e-20)
(6.53799 0.540588 -5.40767e-21)
(8.68933 -0.136097 3.0793e-24)
(7.64224 -0.380914 -1.58477e-20)
(6.4913 -0.277723 9.46217e-26)
(6.01587 -0.215731 -8.2512e-21)
(5.72606 -0.172434 -3.99092e-21)
(5.65799 -0.156021 0)
(5.72789 -0.16086 3.57892e-21)
(5.81299 -0.182396 -3.40996e-21)
(5.82112 -0.201351 -1.60474e-24)
(5.77425 -0.212719 -6.29428e-21)
(5.68244 -0.215444 -3.59516e-26)
(5.56852 -0.210007 -5.82846e-21)
(5.47847 -0.201488 -1.355e-24)
(5.42665 -0.195997 -1.05458e-20)
(5.40028 -0.193595 -9.97397e-21)
(5.39104 -0.1943 -1.14769e-24)
(5.3805 -0.196485 1.08932e-24)
(5.3615 -0.197838 0)
(5.33766 -0.198246 0)
(5.31331 -0.197818 7.00471e-27)
(5.29357 -0.19742 -2.83634e-20)
(5.27847 -0.19748 -8.13308e-25)
(5.26604 -0.197958 1.25984e-20)
(5.25422 -0.198632 1.18711e-20)
(5.2423 -0.199267 -2.237e-20)
(5.2308 -0.199868 1.05368e-20)
(5.22023 -0.200505 0)
(5.21072 -0.201254 1.86942e-20)
(5.20197 -0.202112 1.76024e-20)
(5.19374 -0.203052 0)
(5.18592 -0.204055 1.56039e-20)
(5.17856 -0.205124 4.50909e-25)
(5.17165 -0.206271 0)
(5.16514 -0.207497 -2.60162e-20)
(5.15898 -0.208802 -4.89443e-20)
(5.15312 -0.210183 3.4839e-25)
(5.14754 -0.211641 2.16305e-20)
(5.14224 -0.213178 7.19273e-27)
(5.13719 -0.214795 1.90814e-20)
(5.13238 -0.216493 3.58105e-20)
(5.12781 -0.218272 -2.59016e-25)
(5.12343 -0.220132 -3.14564e-20)
(5.11926 -0.222076 2.94428e-20)
(5.1153 -0.224105 -2.75313e-20)
(5.11155 -0.22622 2.57181e-20)
(5.10799 -0.228422 2.4e-20)
(5.10463 -0.23071 -3.46992e-25)
(5.10146 -0.233086 -8.33532e-20)
(5.0985 -0.235549 -2.12724e-26)
(5.09575 -0.238102 3.60777e-20)
(5.09321 -0.240742 3.35494e-20)
(5.09086 -0.243471 0)
(5.08875 -0.246292 1.84278e-26)
(5.08688 -0.249205 0)
(5.0852 -0.25221 2.5238e-20)
(5.08372 -0.255306 -9.43504e-20)
(5.08242 -0.258492 -1.71515e-25)
(5.08131 -0.261771 0)
(5.08034 -0.26514 0)
(5.07946 -0.268594 3.68791e-20)
(5.07869 -0.272135 3.48555e-20)
(5.078 -0.275759 0)
(5.07737 -0.279467 0)
(5.0768 -0.283262 0)
(5.07631 -0.287146 -5.66677e-20)
(5.07585 -0.291116 -5.39956e-20)
(5.07542 -0.295169 0)
(5.07507 -0.299305 0)
(5.07488 -0.303534 -8.85749e-26)
(5.07505 -0.307871 3.97911e-26)
(5.07571 -0.312328 -8.10601e-26)
(4.61434 -1.51804 0)
(4.56111 -1.5175 0)
(4.5295 -1.50961 2.75259e-20)
(4.61314 -1.52417 -5.85046e-20)
(4.87126 -1.57898 -1.48877e-23)
(5.31367 -1.682 1.53582e-23)
(6.30259 -1.9444 1.40387e-23)
(7.0784 -2.46186 -2.75989e-20)
(5.46382 -2.54678 2.63305e-20)
(0.970544 -0.472475 -3.55918e-20)
(-1.72059 2.0284 8.79198e-23)
(-0.103528 0.0482526 5.35879e-20)
(-0.166202 1.13181 2.35226e-20)
(-0.240027 5.69539 -4.5344e-21)
(0.402295 5.05558 0)
(-1.092 -1.94051 -1.66791e-20)
(-2.88657 -6.59988 0)
(-1.49138 -2.48145 4.2355e-20)
(-0.286882 -0.19072 0)
(-2.52096 -1.42828 -4.84718e-20)
(1.38034 0.0472436 -3.26625e-20)
(8.39634 0.631182 5.66597e-21)
(10.6236 -0.172717 6.16796e-24)
(9.41129 -0.450314 8.51241e-21)
(8.15029 -0.336963 -4.42875e-21)
(7.60821 -0.267437 2.77461e-24)
(7.28805 -0.217272 4.36463e-21)
(7.21812 -0.199127 0)
(7.29834 -0.205851 -3.92988e-21)
(7.38789 -0.232223 -2.30135e-27)
(7.38874 -0.255213 -1.77772e-24)
(7.32562 -0.268987 6.93447e-21)
(7.21197 -0.272282 -6.68598e-21)
(7.07645 -0.265828 6.43017e-21)
(6.97045 -0.255674 2.99347e-24)
(6.90903 -0.249172 1.16632e-20)
(6.87735 -0.246375 -5.39026e-24)
(6.86468 -0.247307 2.55479e-24)
(6.85002 -0.250009 0)
(6.82557 -0.251683 -9.33914e-21)
(6.79571 -0.252215 0)
(6.76568 -0.251732 8.35053e-21)
(6.74127 -0.25129 3.15166e-20)
(6.72234 -0.251406 -1.48646e-20)
(6.70656 -0.252031 1.71667e-24)
(6.69151 -0.252895 4.92864e-27)
(6.67641 -0.253712 1.24554e-20)
(6.66188 -0.25449 3.72146e-27)
(6.64853 -0.255313 2.21226e-20)
(6.63649 -0.256276 -2.08416e-20)
(6.62538 -0.257376 -1.96326e-20)
(6.61493 -0.258578 0)
(6.60501 -0.25986 0)
(6.59566 -0.261227 0)
(6.58688 -0.262692 3.08743e-20)
(6.57861 -0.264257 2.90583e-20)
(6.57078 -0.265921 2.7342e-20)
(6.56333 -0.267683 -7.90896e-25)
(6.55626 -0.269543 0)
(6.54953 -0.271503 -2.27187e-20)
(6.54312 -0.273565 2.13367e-20)
(6.53701 -0.275729 -4.00498e-20)
(6.5312 -0.277997 -5.66685e-25)
(6.52564 -0.280368 -3.51912e-20)
(6.52036 -0.282846 -4.96267e-25)
(6.51534 -0.285433 3.08101e-20)
(6.51058 -0.288129 4.45624e-25)
(6.50608 -0.290935 -2.68647e-20)
(6.50184 -0.293852 0)
(6.49784 -0.29688 -4.82569e-26)
(6.4941 -0.300021 4.3432e-20)
(6.49065 -0.303274 3.14013e-25)
(6.48746 -0.30664 4.16336e-26)
(6.48453 -0.310119 -3.49498e-20)
(6.4819 -0.313716 -3.25281e-20)
(6.47957 -0.31743 2.35681e-25)
(6.47751 -0.321261 2.12031e-25)
(6.47569 -0.325209 1.05715e-19)
(6.47412 -0.329273 0)
(6.47279 -0.333454 1.74808e-25)
(6.47164 -0.33775 -1.69623e-25)
(6.47063 -0.342156 6.26509e-26)
(6.46976 -0.346673 0)
(6.46901 -0.351297 3.70388e-20)
(6.46834 -0.356027 -3.51475e-20)
(6.46775 -0.360869 1.28923e-25)
(6.46728 -0.365827 3.17613e-20)
(6.46684 -0.370893 6.05298e-20)
(6.46646 -0.376066 1.11309e-25)
(6.46619 -0.381348 0)
(6.46614 -0.386746 -5.26279e-20)
(6.46652 -0.392284 -9.4658e-26)
(6.46752 -0.397973 -4.81412e-20)
(5.85613 -1.92638 0)
(5.80012 -1.92924 5.66929e-20)
(5.76389 -1.92133 -6.08451e-20)
(5.85523 -1.93693 3.22894e-20)
(6.14636 -1.9977 -3.27355e-23)
(6.65161 -2.11698 3.27749e-23)
(7.74778 -2.40778 -3.34568e-23)
(8.65542 -3.00812 5.99646e-20)
(6.97059 -3.19437 -2.80246e-20)
(1.71017 -0.866673 3.75859e-20)
(-1.87698 2.24053 3.65477e-23)
(-0.239677 0.250138 -1.18949e-22)
(-0.275663 1.8238 -2.50203e-20)
(-0.241339 6.68988 0)
(0.308253 5.52895 -3.11485e-23)
(-1.29548 -1.54571 1.65276e-20)
(-3.16637 -7.17733 2.11441e-20)
(-1.92199 -3.26656 -4.43197e-20)
(-0.59262 -0.470628 -2.1494e-22)
(-2.56849 -1.49505 5.37242e-20)
(2.56496 0.213584 3.33152e-20)
(10.3125 0.701022 0)
(12.4729 -0.207263 0)
(11.1521 -0.510652 8.96892e-21)
(9.84354 -0.393152 4.70744e-21)
(9.2589 -0.318998 4.81957e-21)
(8.92512 -0.263608 -4.11357e-25)
(8.85755 -0.244526 4.37476e-24)
(8.94314 -0.253238 4.24452e-21)
(9.02988 -0.284168 3.97387e-24)
(9.01975 -0.310931 2.67604e-26)
(8.93932 -0.326991 -3.65833e-24)
(8.80559 -0.330916 7.2698e-21)
(8.65229 -0.323674 3.42083e-24)
(8.53359 -0.312131 -6.69425e-21)
(8.46424 -0.304783 -1.27435e-20)
(8.42773 -0.301679 1.20746e-20)
(8.41112 -0.302857 2.78397e-24)
(8.39174 -0.306072 -2.6466e-24)
(8.36164 -0.308072 1.02439e-20)
(8.32592 -0.308753 -9.69916e-21)
(8.29051 -0.30825 -2.23353e-24)
(8.2616 -0.307796 -1.73313e-20)
(8.23889 -0.307993 4.11905e-27)
(8.21967 -0.308783 1.54347e-20)
(8.2013 -0.309852 -1.45593e-20)
(8.18296 -0.310867 -1.37347e-20)
(8.16539 -0.31184 -1.29524e-20)
(8.14923 -0.312868 -4.88452e-20)
(8.13458 -0.314063 -2.30204e-20)
(8.12106 -0.315421 0)
(8.10832 -0.316903 0)
(8.09622 -0.318483 -1.16912e-24)
(8.08482 -0.320166 -1.8142e-20)
(8.07411 -0.321967 -3.41761e-20)
(8.06401 -0.32389 -3.21763e-20)
(8.05446 -0.325936 3.0284e-20)
(8.04537 -0.328099 2.84958e-20)
(8.03673 -0.330383 -8.24601e-25)
(8.02851 -0.332789 -2.51878e-20)
(8.02069 -0.33532 3.3599e-26)
(8.01323 -0.337977 6.06176e-25)
(8.00613 -0.340759 -1.41686e-26)
(7.99936 -0.343669 3.90516e-20)
(7.99292 -0.34671 -3.65659e-20)
(7.98681 -0.349884 0)
(7.98102 -0.353192 0)
(7.97555 -0.356635 -2.98347e-20)
(7.9704 -0.360214 -2.78202e-20)
(7.96556 -0.36393 -9.18626e-26)
(7.96106 -0.367785 4.8255e-20)
(7.95689 -0.371777 6.8534e-25)
(7.95307 -0.375908 6.99113e-26)
(7.94959 -0.38018 3.88452e-20)
(7.94649 -0.384595 2.81249e-25)
(7.94375 -0.389155 -2.52504e-25)
(7.94136 -0.39386 -3.14374e-20)
(7.93928 -0.398707 -5.87728e-20)
(7.93751 -0.403698 -5.50581e-20)
(7.93606 -0.408835 0)
(7.93484 -0.414112 0)
(7.9338 -0.419525 -9.19417e-20)
(7.93294 -0.425074 4.34529e-20)
(7.93224 -0.430757 -4.12011e-20)
(7.93165 -0.43657 3.90998e-20)
(7.93118 -0.442522 -2.86853e-25)
(7.93086 -0.448615 0)
(7.93059 -0.454844 -6.7345e-20)
(7.93041 -0.461205 2.47691e-25)
(7.93037 -0.467699 0)
(7.93061 -0.474338 -4.05972e-25)
(7.93136 -0.481148 5.59667e-20)
(7.93285 -0.488142 5.35679e-20)
(7.14686 -2.35089 5.82699e-20)
(7.09276 -2.35868 -6.19379e-20)
(7.05454 -2.35191 6.64085e-20)
(7.14918 -2.36777 4.93127e-25)
(7.46004 -2.43125 -6.66259e-26)
(8.00675 -2.56205 -7.64773e-25)
(9.15737 -2.86773 -3.56433e-23)
(10.1546 -3.5292 7.0805e-23)
(8.50686 -3.83125 2.88622e-20)
(2.69653 -1.39227 3.88014e-20)
(-1.88059 2.31812 -6.03878e-20)
(-0.428607 0.565252 -6.5452e-20)
(-0.39621 2.62302 0)
(-0.226951 7.48835 5.19928e-21)
(0.155656 5.80246 1.46112e-20)
(-1.53135 -1.0656 -1.59432e-20)
(-3.36837 -7.52547 -2.28432e-20)
(-2.29571 -3.99434 9.12998e-20)
(-0.974371 -0.838926 0)
(-2.37141 -1.47345 -5.76503e-20)
(4.09757 0.433519 -2.81529e-23)
(12.2129 0.74212 -5.79186e-21)
(14.2148 -0.238474 9.47409e-22)
(12.848 -0.561089 -9.25898e-21)
(11.5459 -0.445599 0)
(10.9439 -0.369678 0)
(10.6115 -0.310778 -4.97837e-21)
(10.5485 -0.291449 4.79657e-21)
(10.6333 -0.302109 -4.51549e-21)
(10.7104 -0.337196 0)
(10.6863 -0.367407 0)
(10.5888 -0.385636 -3.94758e-24)
(10.4381 -0.390312 3.77518e-24)
(10.2718 -0.382584 0)
(10.1442 -0.369954 1.43731e-20)
(10.0688 -0.361959 -1.37027e-20)
(10.028 -0.358642 -1.30139e-20)
(10.007 -0.360079 -1.2328e-20)
(9.98249 -0.363797 2.85911e-24)
(9.94681 -0.366132 1.10789e-20)
(9.9056 -0.366994 -6.54842e-27)
(9.86534 -0.366516 9.94288e-21)
(9.83228 -0.36609 2.28862e-24)
(9.80592 -0.366396 1.77656e-20)
(9.7833 -0.367369 -1.67792e-20)
(9.76162 -0.368661 1.5845e-20)
(9.74011 -0.369893 1.49522e-20)
(9.71954 -0.371078 -1.41146e-20)
(9.7006 -0.372328 1.58689e-24)
(9.68338 -0.373771 2.51207e-20)
(9.66743 -0.375403 -2.36897e-20)
(9.65239 -0.37718 0)
(9.63811 -0.379073 0)
(9.62466 -0.381087 1.98448e-20)
(9.61199 -0.38324 0)
(9.60004 -0.385539 -3.52244e-20)
(9.58872 -0.38798 -9.46689e-25)
(9.57796 -0.390562 -3.12199e-20)
(9.56772 -0.393286 -8.88806e-25)
(9.55798 -0.396156 1.62206e-24)
(9.54872 -0.399174 -7.38473e-25)
(9.53989 -0.402341 9.74811e-20)
(9.53148 -0.405658 -1.41114e-24)
(9.52346 -0.409126 4.28721e-20)
(9.51586 -0.412751 4.01529e-20)
(9.50864 -0.416534 0)
(9.50181 -0.420477 0)
(9.49537 -0.424581 3.27826e-20)
(9.48932 -0.428847 3.0578e-20)
(9.48366 -0.433277 1.13969e-19)
(9.47841 -0.437873 1.5865e-25)
(9.47358 -0.442633 -4.93706e-20)
(9.46916 -0.447559 -4.59287e-20)
(9.46519 -0.452655 4.27316e-20)
(9.46167 -0.457921 3.97791e-20)
(9.45862 -0.463362 -5.5566e-25)
(9.45598 -0.468975 3.45958e-20)
(9.45375 -0.47476 -5.0254e-25)
(9.45191 -0.480718 6.06003e-20)
(9.45046 -0.486849 -4.41431e-25)
(9.44931 -0.493149 -4.03441e-25)
(9.44841 -0.499614 1.01222e-19)
(9.44772 -0.506241 -4.7842e-20)
(9.44724 -0.513028 4.53651e-20)
(9.44692 -0.519973 3.32661e-25)
(9.44674 -0.527083 0)
(9.44675 -0.534364 0)
(9.44686 -0.541808 7.41627e-20)
(9.44707 -0.54941 0)
(9.44747 -0.557173 0)
(9.44822 -0.56511 6.44893e-20)
(9.44954 -0.57325 2.32698e-25)
(9.45174 -0.581609 -2.27471e-25)
(8.46546 -2.78472 3.6259e-23)
(8.41778 -2.79884 -3.23214e-23)
(8.38095 -2.79452 -3.56769e-20)
(8.47565 -2.81025 3.75217e-20)
(8.79338 -2.87347 0)
(9.35925 -3.01063 0)
(10.5166 -3.31939 3.76689e-20)
(11.5528 -4.01822 6.90905e-23)
(10.0194 -4.43496 2.94339e-20)
(3.91086 -2.02811 -3.8255e-20)
(-1.68955 2.21738 -1.29582e-22)
(-0.657725 0.988455 1.37173e-22)
(-0.501297 3.44666 -2.71521e-20)
(-0.203854 8.06373 -5.50992e-21)
(-0.0400662 5.98412 -1.46325e-20)
(-1.82103 -0.607126 0)
(-3.49236 -7.59875 1.05e-22)
(-2.58128 -4.62208 -4.62855e-20)
(-1.38905 -1.2711 -6.88717e-20)
(-1.88032 -1.33716 5.92502e-20)
(5.91847 0.673588 -2.67317e-23)
(14.0413 0.75745 -2.93503e-23)
(15.8414 -0.265353 -1.94336e-21)
(14.4867 -0.602642 9.36047e-21)
(13.232 -0.493759 0)
(12.6359 -0.418732 0)
(12.316 -0.357944 5.1542e-21)
(12.2574 -0.338905 -4.99188e-21)
(12.3351 -0.351362 4.71505e-21)
(12.3968 -0.390119 4.51934e-21)
(12.3572 -0.423427 -8.56399e-24)
(12.2441 -0.443729 -8.28223e-26)
(12.0809 -0.449334 7.96872e-24)
(11.9067 -0.441468 0)
(11.774 -0.428089 -1.51773e-20)
(11.6945 -0.419661 2.9003e-20)
(11.65 -0.416223 -6.74853e-24)
(11.6243 -0.417929 -6.51324e-24)
(11.5945 -0.422139 1.24279e-20)
(11.5535 -0.424821 -5.67705e-24)
(11.5075 -0.425904 2.37521e-27)
(11.463 -0.425502 -1.06106e-20)
(11.4263 -0.42515 2.88441e-26)
(11.3966 -0.425595 4.6556e-24)
(11.3707 -0.42677 0)
(11.3458 -0.4283 -1.69814e-20)
(11.3212 -0.429765 -1.6058e-20)
(11.2978 -0.43118 1.51614e-20)
(11.2762 -0.432668 6.9089e-24)
(11.2565 -0.434374 -2.70328e-20)
(11.2382 -0.436293 2.55061e-20)
(11.2209 -0.438376 2.95333e-24)
(11.2045 -0.440592 0)
(11.189 -0.442948 -2.141e-20)
(11.1744 -0.445464 4.037e-20)
(11.1606 -0.448146 3.80522e-20)
(11.1475 -0.450994 -3.58473e-20)
(11.135 -0.454003 0)
(11.1232 -0.457178 -1.92311e-24)
(11.1119 -0.460521 5.9784e-20)
(11.1012 -0.464035 -5.61999e-20)
(11.091 -0.467723 -5.27935e-20)
(11.0813 -0.471584 0)
(11.072 -0.475622 1.80271e-25)
(11.0632 -0.479841 -4.35367e-20)
(11.0549 -0.484245 -4.07463e-20)
(11.047 -0.488834 -1.14573e-24)
(11.0396 -0.493612 2.17162e-24)
(11.0327 -0.498579 -1.02948e-24)
(11.0263 -0.503738 -1.23735e-19)
(11.0203 -0.50909 -5.76138e-20)
(11.0149 -0.514634 5.36227e-20)
(11.0099 -0.520373 0)
(11.0055 -0.52631 -4.64275e-20)
(11.0017 -0.532448 -4.3227e-20)
(10.9984 -0.538789 0)
(10.9957 -0.545333 0)
(10.9935 -0.552079 0)
(10.9917 -0.559028 -6.58855e-20)
(10.9904 -0.56618 4.65351e-25)
(10.9895 -0.57353 5.83073e-20)
(10.9889 -0.581074 3.55479e-25)
(10.9886 -0.588809 -5.20307e-20)
(10.9886 -0.596731 -9.86771e-20)
(10.9888 -0.604838 -3.52898e-25)
(10.9891 -0.613141 -4.446e-20)
(10.9897 -0.621643 3.19347e-25)
(10.9904 -0.630338 -8.06646e-20)
(10.9913 -0.639218 2.96685e-25)
(10.9924 -0.648289 2.77036e-25)
(10.9939 -0.657564 -7.01407e-20)
(10.9961 -0.667074 -6.70356e-20)
(10.9992 -0.67684 -6.41614e-20)
(9.78813 -3.22019 -6.68405e-20)
(9.75078 -3.24171 -6.8589e-23)
(9.71903 -3.2412 -7.45921e-23)
(9.81211 -3.25686 -3.95767e-20)
(10.126 -3.31755 7.90536e-23)
(10.6902 -3.45628 7.70053e-23)
(11.8163 -3.75909 -3.87381e-20)
(12.8406 -4.47279 -3.56163e-20)
(11.4658 -4.98925 -2.91403e-20)
(5.3205 -2.74651 -3.68301e-20)
(-1.27642 1.93223 -6.63824e-20)
(-0.897935 1.4782 0)
(-0.575181 4.21415 -8.16518e-23)
(-0.17414 8.41274 -5.17193e-23)
(-0.260393 6.14459 0)
(-2.17094 -0.207521 2.67182e-20)
(-3.52278 -7.38239 -1.37641e-22)
(-2.76655 -5.12008 0)
(-1.77247 -1.72982 7.20592e-20)
(-1.07831 -1.13013 -1.69364e-22)
(7.9516 0.920349 -2.8889e-20)
(15.7646 0.74225 5.40523e-21)
(17.3548 -0.287596 9.79786e-22)
(16.0587 -0.635394 -9.28716e-21)
(14.8781 -0.537231 -4.74469e-24)
(14.3059 -0.465392 0)
(14.0046 -0.404141 -5.24139e-21)
(13.9485 -0.385783 5.11306e-21)
(14.0135 -0.399822 -4.83254e-21)
(14.0564 -0.441737 -8.08987e-24)
(14.0013 -0.477796 8.74886e-24)
(13.8757 -0.500113 8.67958e-21)
(13.7047 -0.506855 -8.42112e-21)
(13.5276 -0.499212 8.16762e-21)
(13.3932 -0.485428 7.86375e-21)
(13.3114 -0.476777 -2.71238e-25)
(13.2635 -0.473309 0)
(13.233 -0.475292 -6.86983e-24)
(13.198 -0.47998 -1.29788e-20)
(13.1523 -0.483024 -1.23454e-20)
(13.1022 -0.484371 1.17359e-20)
(13.0543 -0.484102 0)
(13.0145 -0.483869 0)
(12.9816 -0.484481 -4.87212e-24)
(12.9526 -0.485877 4.64296e-24)
(12.9248 -0.487659 4.36349e-24)
(12.8974 -0.48937 -8.36181e-24)
(12.8713 -0.49103 1.6049e-20)
(12.8472 -0.49277 3.03329e-20)
(12.8251 -0.494748 5.732e-20)
(12.8045 -0.496961 3.21298e-26)
(12.785 -0.499357 3.13718e-24)
(12.7665 -0.501902 0)
(12.749 -0.504604 -1.11342e-25)
(12.7325 -0.507486 -4.29818e-20)
(12.7168 -0.510554 -4.94839e-24)
(12.702 -0.513809 3.82177e-20)
(12.6879 -0.517248 0)
(12.6744 -0.520873 0)
(12.6616 -0.52469 -3.19135e-20)
(12.6494 -0.528701 3.00154e-20)
(12.6378 -0.532908 0)
(12.6268 -0.537313 0)
(12.6163 -0.54192 -9.94069e-20)
(12.6063 -0.546734 4.6584e-20)
(12.5969 -0.551757 8.72227e-20)
(12.588 -0.556994 -1.2267e-24)
(12.5797 -0.562445 3.81029e-20)
(12.5719 -0.568113 -1.06764e-24)
(12.5647 -0.574001 5.90009e-25)
(12.5581 -0.58011 9.25878e-25)
(12.5521 -0.586441 5.74855e-20)
(12.5467 -0.592995 0)
(12.542 -0.599776 0)
(12.538 -0.606789 0)
(12.5346 -0.614037 -4.3221e-20)
(12.5319 -0.621517 -6.2728e-25)
(12.5298 -0.629231 -7.54541e-20)
(12.5284 -0.637178 1.4141e-19)
(12.5274 -0.64536 0)
(12.527 -0.65377 -6.25827e-20)
(12.527 -0.662404 5.86604e-25)
(12.5273 -0.671256 5.58481e-20)
(12.5279 -0.680326 5.29608e-20)
(12.5288 -0.68961 5.02638e-20)
(12.53 -0.699118 4.77218e-20)
(12.5314 -0.708857 -4.5428e-20)
(12.5331 -0.718817 6.53024e-25)
(12.5349 -0.728994 -6.36831e-25)
(12.537 -0.739389 7.87619e-20)
(12.5396 -0.750021 7.52648e-20)
(12.5429 -0.760921 7.19283e-20)
(12.5474 -0.772112 6.88389e-20)
(11.066 -3.67891 -7.31478e-23)
(11.0429 -3.6834 7.59671e-23)
(11.1342 -3.69949 4.08895e-20)
(11.4367 -3.75642 8.12703e-23)
(11.9821 -3.89291 4.07118e-20)
(13.0501 -4.18382 0)
(14.0201 -4.89374 7.04777e-23)
(12.8196 -5.48668 2.86429e-20)
(6.87409 -3.5101 3.42676e-20)
(-0.626965 1.48287 1.29647e-19)
(-1.09869 1.9803 8.8532e-20)
(-0.608628 4.86789 2.73595e-20)
(-0.135797 8.58158 -4.371e-25)
(-0.513444 6.28536 -5.71892e-23)
(-2.57873 0.144062 -4.71478e-20)
(-3.49058 -6.96592 0)
(-2.84116 -5.44898 0)
(-2.07329 -2.17065 -7.29044e-20)
(-0.00464713 -0.866858 -5.33476e-20)
(10.1018 1.14543 2.59608e-20)
(17.3799 0.706169 5.19132e-21)
(18.7604 -0.305228 2.87003e-23)
(17.5548 -0.660107 0)
(16.4628 -0.575638 0)
(15.9259 -0.508881 1.02361e-23)
(15.6451 -0.448365 -1.02042e-23)
(15.5886 -0.430988 -5.12998e-21)
(15.6374 -0.446407 0)
(15.6603 -0.49099 -9.39525e-21)
(15.5913 -0.52949 -9.07782e-21)
(15.4569 -0.553789 -1.7611e-20)
(15.2829 -0.561878 8.56317e-21)
(15.1071 -0.554792 -8.47336e-24)