/*--------------------------------*- C++ -*----------------------------------*\
| =========                 |                                                 |
| \\      /  F ield         | OpenFOAM: The Open Source CFD Toolbox           |
|  \\    /   O peration     | Version:  2412                                  |
|   \\  /    A nd           | Website:  www.openfoam.com                      |
|    \\/     M anipulation  |                                                 |
\*---------------------------------------------------------------------------*/
FoamFile
{
    version     2.0;
    format      ascii;
    arch        "LSB;label=32;scalar=64";
    class       volScalarField;
    location    "320";
    object      p;
}
// * * * * * * * * * * * * * * * * * * * * * * * * * * * * * * * * * * * * * //

dimensions      [0 2 -2 0 0 0 0];

internalField   nonuniform List<scalar> 
8553
(
104.108
61.4327
72.2875
86.0132
83.8829
63.3315
44.466
51.0615
67.9473
71.4711
74.3917
74.5752
74.0143
72.9262
72.959
73.6073
74.6396
75.8595
76.8547
77.2618
77.3958
77.3045
77.1745
77.1689
77.1813
77.1901
77.0994
76.9041
76.6274
76.2911
75.9075
75.4586
74.9304
74.3101
73.5957
72.7843
71.8714
70.8512
69.7198
68.477
67.1263
65.6751
64.1347
62.5211
60.8549
59.16
57.463
55.7918
54.1706
52.6193
51.1492
49.7813
48.5186
47.327
46.2342
45.2369
44.2687
43.3543
42.5218
41.7039
40.8958
40.1564
39.4468
38.7235
38.0219
37.352
36.6854
36.0115
35.3449
34.6989
34.0624
33.4252
32.791
32.1658
31.5516
30.9549
30.3704
29.7888
72.4955
73.4939
75.0674
76.1966
76.6787
75.4499
73.1605
62.4016
58.4168
68.9094
80.3101
86.7682
70.2053
45.9481
92.4035
103.963
61.5203
72.3019
85.9993
83.8567
63.3758
44.5315
51.0717
67.9344
71.4635
74.3885
74.5736
74.0143
72.9269
72.9594
73.6073
74.6393
75.8589
76.8541
77.2615
77.3956
77.3044
77.1745
77.1689
77.1813
77.19
77.0993
76.904
76.6273
76.2911
75.9075
75.4586
74.9304
74.31
73.5957
72.7843
71.8714
70.8512
69.7197
68.477
67.1263
65.6751
64.1346
62.5211
60.8548
59.16
57.463
55.7918
54.1705
52.6193
51.1492
49.7813
48.5186
47.327
46.2342
45.2369
44.2687
43.3543
42.5218
41.7039
40.8958
40.1564
39.4468
38.7235
38.0219
37.352
36.6854
36.0115
35.3449
34.6989
34.0624
33.4252
32.791
32.1658
31.5516
30.9549
30.3704
29.7888
72.4958
73.4943
75.0672
76.1953
76.676
75.4439
73.151
62.4084
58.461
68.9467
80.3008
86.7334
70.201
46.112
92.2861
103.814
61.6141
72.3812
85.9959
83.8363
63.4279
44.6091
51.0857
67.9204
71.4551
74.3847
74.5718
74.0142
72.9277
72.96
73.6074
74.639
75.8583
76.8535
77.261
77.3954
77.3044
77.1744
77.1688
77.1812
77.1899
77.0993
76.9039
76.6273
76.2911
75.9074
75.4585
74.9303
74.31
73.5957
72.7843
71.8714
70.8512
69.7197
68.477
67.1263
65.6751
64.1346
62.521
60.8548
59.16
57.463
55.7918
54.1705
52.6193
51.1492
49.7813
48.5186
47.327
46.2342
45.2369
44.2687
43.3543
42.5218
41.7039
40.8958
40.1564
39.4468
38.7236
38.0219
37.352
36.6854
36.0115
35.3449
34.6989
34.0624
33.4252
32.791
32.1658
31.5516
30.9549
30.3704
29.7888
72.4961
73.4947
75.067
76.1938
76.673
75.4372
73.1405
62.4181
58.5146
68.9922
80.2931
86.7169
70.1827
46.2905
92.1783
103.638
61.733
72.4916
85.9819
83.8201
63.4956
44.7119
51.1112
67.9063
71.4459
74.3802
74.5696
74.0139
72.9286
72.9609
73.6077
74.6388
75.8577
76.8528
77.2606
77.3952
77.3043
77.1744
77.1688
77.1811
77.1898
77.0992
76.9039
76.6273
76.291
75.9074
75.4585
74.9303
74.31
73.5957
72.7843
71.8714
70.8512
69.7197
68.477
67.1263
65.6751
64.1346
62.521
60.8548
59.16
57.463
55.7918
54.1706
52.6193
51.1492
49.7813
48.5186
47.327
46.2342
45.2369
44.2688
43.3543
42.5218
41.7039
40.8958
40.1564
39.4469
38.7236
38.0219
37.352
36.6854
36.0115
35.3449
34.6989
34.0624
33.4252
32.791
32.1659
31.5516
30.9549
30.3704
29.7888
72.4967
73.4953
75.0667
76.1921
76.6694
75.43
73.1301
62.436
58.5861
69.0472
80.2888
86.695
70.1986
46.4819
92.1147
103.419
61.8749
72.6254
85.9446
83.8161
63.5791
44.8529
51.1584
67.8925
71.435
74.3742
74.5668
74.0136
72.93
72.9623
73.6084
74.6388
75.8572
76.852
77.26
77.3949
77.3042
77.1745
77.1688
77.1811
77.1897
77.0991
76.9038
76.6272
76.291
75.9074
75.4585
74.9303
74.31
73.5957
72.7843
71.8714
70.8512
69.7197
68.477
67.1263
65.6751
64.1346
62.5211
60.8549
59.16
57.463
55.7918
54.1706
52.6193
51.1492
49.7813
48.5186
47.327
46.2343
45.2369
44.2688
43.3543
42.5219
41.7039
40.8958
40.1565
39.4469
38.7236
38.0219
37.3521
36.6854
36.0115
35.3449
34.6989
34.0624
33.4253
32.791
32.1659
31.5516
30.9549
30.3704
29.7888
72.4976
73.4962
75.0663
76.19
76.6649
75.4216
73.1198
62.4696
58.6881
69.1155
80.2953
86.6638
70.2644
46.6899
92.0676
103.142
62.0226
72.8093
85.9045
83.8015
63.6853
45.0477
51.2379
67.8797
71.4212
74.3658
74.5628
74.013
72.9321
72.9647
73.6098
74.6392
75.8566
76.851
77.2592
77.3944
77.3041
77.1745
77.1689
77.1811
77.1897
77.099
76.9038
76.6272
76.291
75.9074
75.4585
74.9303
74.31
73.5957
72.7843
71.8714
70.8512
69.7198
68.477
67.1263
65.6751
64.1347
62.5211
60.8549
59.16
57.463
55.7918
54.1706
52.6193
51.1493
49.7813
48.5186
47.3271
46.2343
45.2369
44.2688
43.3543
42.5219
41.7039
40.8959
40.1565
39.4469
38.7236
38.022
37.3521
36.6855
36.0116
35.3449
34.6989
34.0624
33.4253
32.7911
32.1659
31.5517
30.9549
30.3704
29.7889
72.4991
73.4975
75.0658
76.187
76.6589
75.4115
73.1103
62.5271
58.8246
69.1971
80.2954
86.6321
70.3812
46.9292
91.9079
102.781
62.1394
73.0748
85.9035
83.7529
63.8394
45.3057
51.3601
67.8681
71.4036
74.3539
74.5572
74.0121
72.9356
72.9685
73.6124
74.6402
75.8562
76.8498
77.2582
77.3939
77.304
77.1747
77.1691
77.1812
77.1896
77.099
76.9038
76.6272
76.2911
75.9074
75.4585
74.9303
74.31
73.5957
72.7843
71.8715
70.8513
69.7198
68.477
67.1264
65.6751
64.1347
62.5211
60.8549
59.1601
57.463
55.7919
54.1707
52.6194
51.1493
49.7814
48.5187
47.3271
46.2344
45.237
44.2689
43.3544
42.522
41.704
40.8959
40.1566
39.447
38.7237
38.022
37.3522
36.6855
36.0116
35.345
34.699
34.0625
33.4253
32.7911
32.166
31.5517
30.955
30.3705
29.7889
72.5017
73.4997
75.0651
76.1831
76.6508
75.399
73.102
62.6169
59.0002
69.302
80.2724
86.608
70.5679
47.1684
91.5745
102.284
62.2348
73.3957
85.9526
83.7168
64.0646
45.6293
51.5369
67.8556
71.381
74.3374
74.5493
74.011
72.9409
72.9747
73.6167
74.6422
75.8559
76.8481
77.2569
77.3932
77.3039
77.1751
77.1694
77.1813
77.1896
77.0989
76.9038
76.6273
76.2912
75.9075
75.4586
74.9304
74.3101
73.5958
72.7844
71.8716
70.8514
69.7199
68.4772
67.1265
65.6753
64.1348
62.5212
60.855
59.1602
57.4632
55.792
54.1708
52.6195
51.1494
49.7815
48.5188
47.3272
46.2345
45.2371
44.269
43.3545
42.5221
41.7041
40.896
40.1567
39.4471
38.7238
38.0221
37.3523
36.6856
36.0117
35.3451
34.6991
34.0626
33.4255
32.7912
32.1661
31.5518
30.9551
30.3706
29.789
72.5057
73.5032
75.0643
76.1777
76.64
75.3835
73.0952
62.7472
59.2358
69.4522
80.2557
86.5881
70.8246
47.3622
91.1317
101.593
62.3071
73.7193
86.0636
83.7006
64.3916
46.0285
51.7844
67.8394
71.3525
74.3149
74.5386
74.0096
72.949
72.984
73.6233
74.6455
75.8559
76.846
77.2551
77.3922
77.3039
77.1757
77.1699
77.1817
77.1897
77.0989
76.9038
76.6274
76.2913
75.9077
75.4588
74.9306
74.3103
73.596
72.7846
71.8718
70.8515
69.7201
68.4773
67.1267
65.6754
64.135
62.5214
60.8552
59.1603
57.4633
55.7921
54.1709
52.6197
51.1496
49.7817
48.519
47.3274
46.2346
45.2373
44.2692
43.3547
42.5222
41.7043
40.8962
40.1569
39.4473
38.724
38.0223
37.3524
36.6858
36.0119
35.3453
34.6993
34.0628
33.4256
32.7914
32.1662
31.552
30.9553
30.3708
29.7892
72.5118
73.5085
75.0634
76.1706
76.6258
75.3646
73.0904
62.9275
59.5459
69.674
80.2553
86.5821
71.16
47.4649
90.6346
100.661
62.2756
74.0277
86.2705
83.7289
64.8936
46.5242
52.1194
67.8182
71.3178
74.2852
74.5244
74.0083
72.9608
72.9975
73.6331
74.6506
75.8562
76.8432
77.2527
77.391
77.3039
77.1767
77.1708
77.1822
77.1899
77.0989
76.9039
76.6277
76.2916
75.908
75.4591
74.9308
74.3105
73.5962
72.7849
71.872
70.8518
69.7204
68.4776
67.1269
65.6757
64.1353
62.5217
60.8555
59.1606
57.4636
55.7924
54.1712
52.6199
51.1499
49.7819
48.5192
47.3277
46.2349
45.2375
44.2694
43.3549
42.5225
41.7045
40.8965
40.1571
39.4475
38.7242
38.0226
37.3527
36.6861
36.0122
35.3455
34.6995
34.063
33.4259
32.7917
32.1665
31.5523
30.9555
30.371
29.7894
73.5162
75.0626
76.1615
76.6076
75.3423
73.0886
63.1665
59.9337
69.9936
80.2859
86.6234
71.5804
47.5031
89.9195
99.4361
62.0715
74.3214
86.5742
83.8299
65.5291
47.2064
52.5525
67.7906
71.2773
74.2474
74.5064
74.0071
72.9775
73.0163
73.647
74.658
75.857
76.8397
77.2497
77.3894
77.3041
77.1782
77.1721
77.1831
77.1902
77.0991
76.9042
76.628
76.2921
75.9085
75.4595
74.9312
74.3109
73.5967
72.7853
71.8724
70.8522
69.7208
68.478
67.1273
65.6761
64.1357
62.5221
60.8559
59.161
57.464
55.7928
54.1716
52.6203
51.1503
49.7823
48.5196
47.3281
46.2353
45.2379
44.2698
43.3553
42.5229
41.7049
40.8969
40.1575
39.4479
38.7246
38.0229
37.3531
36.6864
36.0125
35.3459
34.6999
34.0634
33.4262
32.792
32.1669
31.5526
30.9559
30.3714
29.7898
29.215
28.6559
28.1074
73.5273
75.0621
76.1503
76.5851
75.3169
73.0911
63.4718
60.4073
70.4248
80.4096
86.7581
72.0451
47.4616
88.8548
97.8772
61.7118
74.5575
86.9097
83.9201
66.2589
48.112
53.0926
67.7554
71.2325
74.2009
74.4843
74.0064
73.0003
73.0418
73.666
74.6684
75.8587
76.8353
77.2459
77.3875
77.3044
77.1803
77.174
77.1843
77.1907
77.0993
76.9045
76.6286
76.2928
75.9091
75.4601
74.9318
74.3115
73.5972
72.7859
71.873
70.8528
69.7213
68.4786
67.1279
65.6767
64.1362
62.5226
60.8564
59.1615
57.4645
55.7933
54.1721
52.6209
51.1508
49.7829
48.5202
47.3286
46.2358
45.2385
44.2704
43.3559
42.5234
41.7055
40.8974
40.158
39.4484
38.7251
38.0235
37.3536
36.687
36.0131
35.3464
34.7004
34.0639
33.4268
32.7925
32.1674
31.5531
30.9564
30.3719
29.7903
29.2155
28.6564
28.108
73.5426
75.0622
76.1368
76.5581
75.2896
73.1004
63.8506
60.9815
70.9608
80.6769
86.9863
72.4981
47.2595
87.4335
95.9363
61.1264
74.714
87.2319
83.9931
67.1565
49.1855
53.7511
67.7124
71.1856
74.1457
74.4582
74.0067
73.0305
73.0754
73.6912
74.6827
75.8615
76.8303
77.2414
77.3852
77.3051
77.1831
77.1766
77.1861
77.1915
77.0998
76.9051
76.6294
76.2938
75.9101
75.4609
74.9326
74.3123
73.5981
72.7867
71.8738
70.8536
69.7221
68.4794
67.1287
65.6774
64.137
62.5234
60.8572
59.1623
57.4653
55.7941
54.1728
52.6216
51.1515
49.7836
48.5209
47.3294
46.2366
45.2392
44.2711
43.3566
42.5242
41.7062
40.8981
40.1588
39.4492
38.7259
38.0242
37.3543
36.6877
36.0138
35.3471
34.7011
34.0646
33.4275
32.7933
32.1681
31.5538
30.9571
30.3726
29.791
29.2162
28.6571
28.1087
73.5631
75.0634
76.1213
76.527
75.2623
73.1197
64.3089
61.6744
71.5719
80.9678
87.2618
72.8985
46.8655
85.5472
93.5682
60.2256
74.7564
87.5015
84.1733
68.1992
50.4381
54.5372
67.6617
71.1402
74.0823
74.4284
74.0087
73.0694
73.1185
73.724
74.7019
75.8661
76.8246
77.2362
77.3827
77.3061
77.187
77.1801
77.1886
77.1927
77.1005
76.906
76.6306
76.2951
75.9114
75.4621
74.9337
74.3134
73.5992
72.7878
71.875
70.8547
69.7232
68.4805
67.1298
65.6785
64.138
62.5244
60.8582
59.1633
57.4663
55.7951
54.1738
52.6226
51.1525
49.7846
48.5219
47.3304
46.2376
45.2402
44.2721
43.3576
42.5252
41.7072
40.8991
40.1598
39.4502
38.7268
38.0252
37.3553
36.6886
36.0148
35.3481
34.7021
34.0656
33.4284
32.7942
32.169
31.5548
30.958
30.3736
29.792
29.2171
28.658
28.1096
73.5901
75.0665
76.1045
76.4927
75.2378
73.1534
64.8525
62.5019
72.3048
81.2475
87.5393
73.1607
46.2681
83.1744
90.7663
59.0174
74.6006
87.635
84.5231
69.3444
51.8785
55.4558
67.6102
71.1006
74.0122
74.3959
74.0133
73.1188
73.1728
73.7659
74.727
75.8731
76.8186
77.2304
77.38
77.3078
77.1921
77.1848
77.192
77.1945
77.1016
76.9072
76.6322
76.297
75.9131
75.4637
74.9352
74.3149
73.6007
72.7894
71.8765
70.8562
69.7247
68.4819
67.1312
65.6799
64.1394
62.5258
60.8595
59.1646
57.4676
55.7964
54.1752
52.6239
51.1538
49.7859
48.5232
47.3317
46.2389
45.2415
44.2734
43.3589
42.5265
41.7085
40.9004
40.161
39.4514
38.7281
38.0265
37.3566
36.6899
36.016
35.3493
34.7033
34.0668
33.4297
32.7954
32.1703
31.556
30.9593
30.3748
29.7932
29.2184
28.6592
28.1108
73.6249
75.0722
76.087
76.4566
75.2197
73.2068
65.4867
63.4736
73.2389
81.657
87.7641
73.2427
45.3831
80.3347
87.5439
57.4617
74.2166
87.4918
84.921
70.4671
53.4998
56.5052
67.5727
71.0734
73.9376
74.3621
74.0219
73.1802
73.24
73.8184
74.7593
75.8832
76.8126
77.2244
77.3773
77.3103
77.1988
77.1909
77.1965
77.197
77.1032
76.909
76.6344
76.2994
75.9155
75.4659
74.9372
74.3169
73.6027
72.7914
71.8784
70.8581
69.7266
68.4838
67.133
65.6817
64.1412
62.5276
60.8613
59.1664
57.4693
55.7981
54.1768
52.6256
51.1555
49.7876
48.5249
47.3333
46.2406
45.2432
44.2751
43.3606
42.5281
41.7101
40.9021
40.1627
39.4531
38.7297
38.0281
37.3582
36.6915
36.0176
35.351
34.7049
34.0684
33.4313
32.797
32.1719
31.5576
30.9609
30.3764
29.7948
29.22
28.6608
28.1124
73.6688
75.0818
76.0704
76.421
75.2128
73.2866
66.2154
64.5939
74.3735
82.0891
87.8373
73.1814
44.0744
77.1342
83.9662
55.5409
73.6115
86.8312
85.4237
71.5329
55.2825
57.6784
67.5718
71.0634
73.8622
74.3292
74.0364
73.2557
73.3221
73.8833
74.8003
75.8975
76.8072
77.2184
77.375
77.314
77.2075
77.1987
77.2025
77.2005
77.1056
76.9116
76.6374
76.3027
75.9186
75.4688
74.9399
74.3196
73.6053
72.794
71.881
70.8606
69.729
68.4862
67.1354
65.6841
64.1435
62.5298
60.8635
59.1686
57.4715
55.8002
54.179
52.6277
51.1576
49.7897
48.527
47.3354
46.2427
45.2453
44.2772
43.3627
42.5302
41.7122
40.9041
40.1648
39.4551
38.7318
38.0301
37.3603
36.6936
36.0197
35.353
34.707
34.0704
33.4333
32.7991
32.1739
31.5596
30.9629
30.3784
29.7968
29.222
28.6628
28.1145
75.0969
76.0565
76.3887
75.2225
73.4
67.0407
65.8604
75.6678
82.5256
87.6644
72.9032
42.3181
73.7135
79.9868
53.261
72.7369
85.414
86.4225
72.567
57.2016
58.968
67.6431
71.0645
73.7911
74.3004
74.059
73.3473
73.4209
73.9624
74.8515
75.917
76.8031
77.2131
77.3734
77.3193
77.2185
77.2088
77.2103
77.2052
77.109
76.915
76.6414
76.307
75.9227
75.4725
74.9434
74.323
73.6087
72.7973
71.8843
70.8638
69.7322
68.4893
67.1384
65.687
64.1464
62.5327
60.8663
59.1713
57.4742
55.8029
54.1816
52.6303
51.1602
49.7923
48.5296
47.338
46.2453
45.248
44.2798
43.3653
42.5329
41.7148
40.9067
40.1674
39.4577
38.7344
38.0327
37.3628
36.6961
36.0222
35.3555
34.7095
34.073
33.4358
32.8016
32.1764
31.5622
30.9654
30.381
29.7994
29.2245
28.6654
28.117
76.3637
75.2555
73.5554
67.962
67.2595
76.9951
83.003
87.1709
72.3308
40.1199
70.0807
75.547
50.632
71.5055
83.2877
87.7225
73.4246
59.2224
60.3568
67.8062
71.0921
73.7347
74.2793
74.0929
73.4572
73.5385
74.0577
74.9145
75.943
76.8014
77.2091
77.3732
77.3267
77.2323
77.2215
77.2203
77.2116
77.1137
76.9198
76.6466
76.3125
75.9279
75.4773
74.9479
74.3274
73.6131
72.8016
71.8884
70.8678
69.7361
68.4931
67.1422
65.6907
64.1501
62.5362
60.8698
59.1747
57.4776
55.8062
54.1849
52.6336
51.1635
49.7956
48.5329
47.3413
46.2485
45.2512
44.283
43.3685
42.5361
41.718
40.9099
40.1705
39.4609
38.7376
38.0359
37.366
36.6993
36.0254
35.3587
34.7126
34.0761
33.439
32.8047
32.1795
31.5653
30.9686
30.3841
29.8025
29.2276
28.6685
28.1202
76.3515
75.3192
73.762
68.9737
68.785
78.1906
83.4889
85.7837
71.4294
37.5091
66.3327
70.9981
47.6299
69.767
80.9638
88.872
74.2009
61.2901
61.8213
68.0672
71.1822
73.6937
74.2716
74.1415
73.5876
73.6768
74.1713
74.9913
75.9771
76.8033
77.2073
77.3749
77.3368
77.2497
77.2375
77.2331
77.22
77.1201
76.9261
76.6534
76.3196
75.9346
75.4835
74.9537
74.3329
73.6186
72.807
71.8937
70.8729
69.7411
68.498
67.147
65.6954
64.1546
62.5407
60.8741
59.179
57.4817
55.8103
54.189
52.6376
51.1675
49.7995
48.5368
47.3452
46.2525
45.2552
44.2869
43.3724
42.54
41.7219
40.9138
40.1745
39.4648
38.7414
38.0398
37.3699
36.7032
36.0292
35.3625
34.7165
34.08
33.4428
32.8086
32.1834
31.5691
30.9724
30.388
29.8064
29.2315
28.6724
28.1241
76.3582
75.4215
74.0275
70.066
70.3763
79.2204
84.0382
83.3163
70.0477
34.6088
62.6536
66.657
44.2525
67.2757
78.8364
89.6623
75.0452
63.3594
63.3447
68.4494
71.347
73.6666
74.2839
74.2093
73.7409
73.8376
74.305
75.0836
76.0209
76.8103
77.209
77.3797
77.3505
77.2711
77.2572
77.2492
77.2311
77.1286
76.9343
76.6621
76.3286
75.9431
75.4914
74.961
74.34
73.6255
72.8137
71.9002
70.8793
69.7473
68.504
67.1528
65.7011
64.1601
62.5461
60.8794
59.1841
57.4868
55.8153
54.1939
52.6425
51.1723
49.8043
48.5416
47.35
46.2573
45.26
44.2917
43.3772
42.5448
41.7267
40.9185
40.1792
39.4696
38.7462
38.0445
37.3746
36.7079
36.0339
35.3672
34.7212
34.0847
33.4476
32.8133
32.1881
31.5739
30.9772
30.3927
29.8111
29.2363
28.6772
28.1289
76.3906
75.5725
74.3635
71.2259
71.8458
80.2701
84.7245
80.7242
67.9581
31.5615
59.0683
62.5347
40.583
64.0535
77.1016
89.4986
75.9094
65.394
64.9025
68.9761
71.5825
73.6758
74.323
74.301
73.9193
74.0226
74.4608
75.1934
76.0764
76.8245
77.2157
77.3884
77.3687
77.2974
77.2815
77.2692
77.2453
77.1398
76.9451
76.6733
76.3399
75.9538
75.5012
74.9702
74.3489
73.6341
72.8221
71.9083
70.8871
69.7549
68.5114
67.16
65.7081
64.1669
62.5527
60.8859
59.1904
57.4929
55.8213
54.1998
52.6483
51.1781
49.8101
48.5474
47.3557
46.263
45.2657
44.2974
43.3829
42.5506
41.7325
40.9243
40.185
39.4753
38.7519
38.0503
37.3803
36.7137
36.0397
35.373
34.7269
34.0904
33.4533
32.8191
32.1939
31.5796
30.983
30.3986
29.817
29.2421
28.6831
28.1349
72.4107
73.2179
81.3835
85.5913
78.3836
65.2191
28.4707
55.6324
58.8467
36.7936
60.4172
75.7516
88.4765
76.834
67.3709
66.4944
69.6242
71.884
73.7491
74.3965
74.4223
74.1248
74.2332
74.6402
75.3225
76.1459
76.8476
77.2289
77.4026
77.3923
77.3293
77.3111
77.2939
77.2634
77.1544
76.9589
76.6873
76.3541
75.9671
75.5135
74.9816
74.3599
73.6448
72.8325
71.9184
70.8968
69.7642
68.5204
67.1688
65.7166
64.1752
62.5607
60.8936
59.198
57.5003
55.8285
54.2069
52.6554
51.185
49.817
48.5544
47.3626
46.2699
45.2727
44.3043
43.3898
42.5575
41.7394
40.9312
40.1919
39.4823
38.7589
38.0572
37.3873
36.7206
36.0466
35.3799
34.7339
34.0974
33.4603
32.826
32.2009
31.5866
30.99
30.4056
29.824
29.2492
28.6902
28.142
73.6157
74.6907
82.2944
86.5891
76.5547
62.1755
25.5178
52.453
56.1714
32.9288
56.8684
75.1356
87.1827
77.8262
69.2995
68.1223
70.3684
72.2602
73.8959
74.5133
74.5784
74.3593
74.4706
74.8445
75.4725
76.2312
76.8821
77.2508
77.4237
77.4225
77.3678
77.3467
77.3241
77.2861
77.1731
76.9765
76.7049
76.3716
75.9836
75.5288
74.9958
74.3735
73.658
72.8453
71.9306
70.9086
69.7756
68.5315
67.1795
65.7269
64.1852
62.5704
60.903
59.2071
57.5091
55.8372
54.2154
52.6638
51.1933
49.8253
48.5626
47.3708
46.2781
45.281
44.3126
43.398
42.5658
41.7477
40.9394
40.2002
39.4906
38.7672
38.0655
37.3956
36.729
36.055
35.3883
34.7423
34.1058
33.4687
32.8345
32.2093
31.5951
30.9985
30.4141
29.8325
29.2577
28.6988
28.1507
74.8999
76.2013
82.7668
86.982
75.7048
59.2865
22.9672
49.7586
55.2046
29.3343
54.3306
75.6891
85.54
78.7895
71.1783
69.7549
71.2269
72.7244
74.1124
74.6826
74.7747
74.6244
74.7355
75.0746
75.6446
76.3343
76.9315
77.2833
77.4535
77.4607
77.4136
77.3893
77.3606
77.3144
77.1966
76.9984
76.7266
76.393
76.0038
75.5476
75.0134
74.3902
73.6742
72.8609
71.9456
70.923
69.7895
68.5449
67.1924
65.7394
64.1972
62.582
60.9143
59.218
57.5197
55.8475
54.2255
52.6737
51.2031
49.835
48.5724
47.3805
46.2879
45.2908
44.3224
43.4078
42.5757
41.7576
40.9493
40.2102
39.5006
38.7772
38.0755
37.4057
36.739
36.065
35.3983
34.7523
34.1159
33.4788
32.8446
32.2195
31.6053
31.0087
30.4244
29.8428
29.268
28.7091
28.1611
56.875
21.307
48.0841
56.2222
27.3304
53.0857
77.115
84.227
79.6112
72.9955
71.3815
72.1934
73.2822
74.4121
74.9124
75.0171
74.9222
75.029
75.3314
75.8404
76.4574
76.9977
77.329
77.4938
77.5081
77.4678
77.4398
77.4043
77.3491
77.2258
77.0257
76.7533
76.4192
76.0284
75.5705
75.0348
74.4107
73.6939
72.8799
71.9639
70.9405
69.8064
68.5611
67.2081
65.7544
64.2117
62.5959
60.9277
59.2309
57.5322
55.8596
54.2374
52.6854
51.2147
49.8465
48.584
47.392
46.2995
45.3025
44.334
43.4195
42.5876
41.7694
40.9611
40.2221
39.5125
38.7891
38.0875
37.4177
36.7511
36.0771
35.4103
34.7644
34.128
33.491
32.8568
32.2316
31.6175
31.0209
30.4367
29.8551
29.2803
28.7215
28.1736
56.0959
21.7873
48.1187
59.5225
29.0191
55.1261
79.0267
83.4594
80.3309
74.7822
73.0049
73.2291
73.9381
74.8016
75.2113
75.311
75.2551
75.3522
75.6157
76.0613
76.6033
77.084
77.3904
77.5469
77.5663
77.5314
77.4991
77.4561
77.3912
77.2619
77.0591
76.7858
76.4508
76.0581
75.5982
75.0608
74.4355
73.7177
72.9028
71.9859
70.9616
69.8266
68.5806
67.2268
65.7724
64.2289
62.6124
60.9435
59.2462
57.5469
55.8739
54.2513
52.6992
51.2282
49.86
48.5976
47.4055
46.3131
45.3163
44.3478
43.4333
42.6016
41.7835
40.9751
40.2362
39.5268
38.8034
38.1018
37.432
36.7654
36.0914
35.4247
34.7788
34.1425
33.5055
32.8713
32.2462
31.632
31.0355
30.4513
29.8697
29.295
28.7362
28.1884
59.1052
25.6199
51.5394
66.5314
36.2216
61.7332
80.0525
83.5549
81.1296
76.5426
74.6029
74.3356
74.7109
75.2868
75.5872
75.6625
75.6264
75.7071
75.9288
76.3087
76.7742
77.1932
77.4704
77.6152
77.6373
77.6059
77.5686
77.5173
77.442
77.3059
77.0998
76.825
76.4887
76.0939
75.6317
75.0922
74.4655
73.7465
72.9305
72.0124
70.987
69.8509
68.6039
67.2491
65.7937
64.2493
62.6319
60.9622
59.264
57.5641
55.8906
54.2676
52.7152
51.244
49.8757
48.6135
47.4213
46.3291
45.3326
44.3641
43.4496
42.6182
41.8002
40.9917
40.253
39.5436
38.8203
38.1187
37.449
36.7825
36.1085
35.4418
34.796
34.1597
33.5227
32.8885
32.2634
31.6492
31.0528
30.4687
29.8871
29.3123
28.7536
28.2059
66.3003
33.4785
59.6892
78.6594
48.2488
71.0057
80.4168
84.6568
82.1345
78.2855
76.2026
75.5291
75.5677
75.8729
76.0452
76.0765
76.0402
76.0961
76.2724
76.5848
76.973
77.3288
77.5723
77.7016
77.7232
77.6929
77.6496
77.5893
77.5029
77.3592
77.149
76.8722
76.5341
76.1368
75.6719
75.13
74.5014
73.781
72.9636
72.044
71.0173
69.8799
68.6316
67.2755
65.8189
64.2733
62.6547
60.9838
59.2847
57.5839
55.9097
54.2862
52.7336
51.2621
49.8938
48.6319
47.4396
46.3476
45.3517
44.3831
43.4687
42.6377
41.8198
41.0112
40.2729
39.5636
38.8403
38.1388
37.4692
36.8028
36.1288
35.462
34.8162
34.1801
33.5431
32.9089
32.2838
31.6696
31.0732
30.4891
29.9075
29.3328
28.7742
28.2265
76.8778
45.7801
73.0723
95.2126
65.1023
81.9477
82.1723
86.4873
83.4124
80.0471
77.8054
76.7971
76.5146
76.5585
76.5894
76.5577
76.5003
76.5221
76.6485
76.8918
77.2026
77.4939
77.6994
77.8093
77.8264
77.7945
77.7439
77.6736
77.5755
77.4233
77.2082
76.9285
76.5881
76.1878
75.7198
75.1751
74.5445
73.8222
73.003
72.0817
71.0532
69.9142
68.6643
67.3066
65.8484
64.3011
62.681
61.0088
59.3084
57.6065
55.9314
54.3073
52.7544
51.2827
49.9145
48.653
47.4607
46.3691
45.3738
44.4053
43.491
42.6607
41.8429
41.0342
40.2962
39.5872
38.8638
38.1625
37.493
36.8266
36.1526
35.4859
34.8401
34.204
33.5671
32.9329
32.3078
31.6936
31.0972
30.5131
29.9315
29.3567
28.7982
28.2506
87.5698
62.8659
91.6596
114.179
85.766
92.3245
86.5319
88.7033
84.9903
81.8456
79.4259
78.1268
77.5433
77.3402
77.2204
77.1084
77.0103
76.9878
77.0592
77.2318
77.4656
77.6917
77.8551
77.9412
77.9498
77.9128
77.8535
77.7721
77.6614
77.4999
77.2789
76.9956
76.6522
76.2484
75.7769
75.229
74.5957
73.8712
73.0498
72.1264
71.0957
69.9546
68.7026
67.3428
65.8825
64.3332
62.7111
61.037
59.335
57.6317
55.9557
54.3309
52.7778
51.3057
49.9377
48.677
47.4846
46.3937
45.3994
44.4309
43.5169
42.6874
41.8698
41.061
40.3235
39.6147
38.8915
38.1902
37.5208
36.8547
36.1806
35.5138
34.8682
34.2321
33.5951
32.9609
32.3358
31.7215
31.1252
30.5412
29.9595
29.3847
28.8261
28.2786
97.0981
83.28
112.891
133.498
106.673
101.791
92.0682
91.2489
86.9235
83.6916
81.0733
79.5085
78.6472
78.2111
77.9349
77.7282
77.5719
77.4949
77.5058
77.6064
77.7641
77.9245
78.0423
78.1005
78.0958
78.0502
77.9802
77.8865
77.7626
77.5908
77.3628
77.075
76.7279
76.32
75.8444
75.2928
74.6564
73.9292
73.1052
72.1791
71.1457
70.0019
68.7471
67.3847
65.9216
64.3696
62.745
61.0686
59.3645
57.6595
55.9822
54.3566
52.8033
51.331
49.9633
48.7038
47.5115
46.4215
45.4286
44.4603
43.5466
42.7182
41.901
41.092
40.3553
39.6469
38.9237
38.2225
37.5533
36.8873
36.2133
35.5464
34.9008
34.2648
33.6279
32.9936
32.3685
31.7541
31.1577
30.5737
29.9918
29.417
28.8585
28.3111
104.878
104.65
134.066
151.395
124.39
108.282
98.0232
93.9518
89.1286
85.5837
82.7483
80.9295
79.8142
79.1587
78.7247
78.4126
78.1843
78.0432
77.9882
78.016
78.0988
78.1936
78.2631
78.2894
78.2668
78.2089
78.1261
78.0187
77.8807
77.6977
77.4617
77.1684
76.8166
76.404
75.9239
75.368
74.7281
73.9975
73.1702
72.2408
71.2041
70.0568
68.7987
67.4327
65.9661
64.4106
62.7827
61.1032
59.3965
57.6892
56.0105
54.384
52.8305
51.358
49.9909
48.7332
47.5411
46.4523
45.4615
44.4936
43.5803
42.7537
41.9369
41.1277
40.3919
39.684
38.9609
38.26
37.591
36.9252
36.2512
35.5843
34.9387
34.3028
33.6657
33.0314
32.4061
31.7916
31.1952
30.6114
30.0295
29.4544
28.8958
28.3484
110.534
123.437
152.816
162.988
136.888
113.842
103.741
96.7555
91.477
87.5021
84.4396
82.3749
81.0275
80.1669
79.5771
79.1531
78.8424
78.6294
78.5043
78.4588
78.4685
78.4986
78.5179
78.509
78.4643
78.3902
78.2926
78.1701
78.0173
77.8222
77.5772
77.2773
76.9201
76.5022
76.0168
75.4562
74.812
74.0775
73.2463
72.3128
71.2719
70.1204
68.8577
67.4872
66.0161
64.4561
62.8238
61.1404
59.4302
57.7201
56.0396
54.412
52.8585
51.3859
50.0198
48.7646
47.5729
46.4862
45.4982
44.5308
43.6182
42.7938
41.9779
41.1684
40.4338
39.7268
39.0039
38.3032
37.6345
36.969
36.2948
35.6277
34.9822
34.3464
33.7096
33.0752
32.4497
31.8352
31.2392
30.6549
30.0717
29.4965
28.9383
28.3911
115.684
136.335
165.091
166.639
144.767
118.604
108.35
99.5503
93.8251
89.4101
86.1195
83.8219
82.264
81.2144
80.4741
79.9356
79.536
79.2462
79.0484
78.9302
78.8692
78.8363
78.8048
78.7583
78.6879
78.5947
78.4801
78.3414
78.1731
77.9652
77.7103
77.403
77.0396
76.6157
76.1247
75.5587
74.9096
74.1705
73.3346
72.3962
71.3502
70.1932
68.9249
67.5486
66.0715
64.5056
62.8677
61.1792
59.4645
57.7508
56.068
54.4392
52.886
51.4135
50.0489
48.7973
47.6061
46.522
45.5381
44.5717
43.6603
42.8392
42.0243
41.2145
40.4817
39.7756
39.0528
38.3522
37.684
37.0194
36.3454
35.6781
35.0331
34.3974
33.7591
33.1242
32.4991
31.8848
31.2884
30.7028
30.1189
29.5446
28.9862
28.4389
121.153
142.977
170.7
165.807
148.398
122.249
111.688
102.111
96.029
91.2541
87.752
85.243
83.4951
82.2735
81.3915
80.7399
80.2493
79.881
79.6102
79.4214
79.2933
79.2002
79.1187
79.0337
78.9355
78.821
78.6879
78.5321
78.348
78.1269
77.8617
77.5463
77.1761
76.7458
76.2486
75.6767
75.0222
74.2776
73.4362
72.492
71.4395
70.2758
69.0004
67.6166
66.1318
64.5584
62.9132
61.2181
59.4977
57.7792
56.0937
54.4632
52.9103
51.4378
50.0753
48.8292
47.6397
46.56
45.5817
44.6164
43.7059
42.8892
42.0761
41.266
40.5354
39.8312
39.1093
38.4096
37.7422
37.0766
36.4018
35.7351
35.0904
34.4531
33.8139
33.1801
32.5549
31.9401
31.3431
30.757
30.1734
29.5989
29.04
28.4928
125.198
145.18
172.112
163.353
148.188
124.755
113.963
104.285
97.9724
92.9661
89.2905
86.6028
84.6884
83.3134
82.3012
81.5415
80.9613
80.5158
80.1744
79.9188
79.7284
79.5792
79.4503
79.3281
79.2017
79.0648
78.9125
78.7395
78.54
78.306
78.0304
77.7067
77.3294
76.8925
76.3889
75.8108
75.1502
74.3995
73.5516
72.6003
71.5403
70.3682
69.0839
67.6905
66.1959
64.6126
62.958
61.2542
59.5262
57.8017
56.1127
54.4804
52.9289
51.4577
50.0989
48.8595
47.67
46.5948
45.6249
44.6631
43.756
42.9461
42.1347
41.3241
40.5978
39.8945
39.1721
38.4735
37.8055
37.1391
36.4656
35.7995
35.154
34.5162
33.8773
33.2433
32.6174
32.0027
31.4047
30.8178
30.2339
29.6593
29.1
28.5528
126.586
144.412
170.015
158.423
144.957
125.876
115.239
105.953
99.5656
94.4716
90.6802
87.8585
85.8057
84.2995
83.1707
82.3106
81.6458
81.1273
80.7206
80.4039
80.1568
79.9571
79.786
79.63
79.4767
79.318
79.1473
78.958
78.7442
78.4982
78.213
77.8816
77.4975
77.0542
76.5443
75.96
75.293
74.5355
73.6803
72.7207
71.6514
70.4693
69.1738
67.7685
66.2614
64.6655
62.9987
61.2839
59.5463
57.8139
56.1208
54.4862
52.9357
51.4639
50.1081
48.8811
47.6987
46.6342
45.6751
44.7134
43.8062
43.0053
42.1985
41.3906
40.6657
39.9609
39.2424
38.5456
37.8773
37.2109
36.5379
35.8726
35.226
34.587
33.9477
33.3135
32.6873
32.072
31.4731
30.8852
30.3012
29.7263
29.1667
28.6193
126.579
141.317
164.34
151.817
140.215
125.497
115.561
107.02
100.742
95.7027
91.8677
88.9644
86.8069
85.1927
83.9627
83.0133
82.2717
81.687
81.2222
80.8523
80.5562
80.3135
80.1067
79.9217
79.745
79.5672
79.3804
79.1773
78.9516
78.6957
78.4025
78.0647
77.6753
77.2267
76.7112
76.121
75.4477
74.6832
73.8198
72.8507
71.7705
70.5759
69.2668
67.8466
66.3236
64.7114
63.0288
61.2996
59.5493
57.8066
56.1084
54.4706
52.9239
51.4587
50.1155
48.9018
47.7109
46.6523
45.7106
44.7676
43.872
43.0776
42.2665
41.4627
40.7413
40.037
39.3231
38.6282
37.9583
37.2909
36.6187
35.9538
35.3058
34.6656
34.0261
33.3914
32.7646
32.1488
31.5488
30.9599
30.3755
29.8004
29.2403
28.6928
28.1638
125.529
137.414
156.341
144.9
134.934
123.989
115.061
107.457
101.46
96.6032
92.8037
89.875
87.6513
85.955
84.6413
83.6156
82.8071
82.1645
81.6495
81.2353
80.8997
80.6228
80.3875
80.1793
79.9845
79.7924
79.5939
79.3812
79.1474
78.8851
78.587
78.2453
77.8526
77.4009
76.8818
76.2869
75.6078
74.8363
73.9642
72.9845
71.8916
70.6822
69.3561
67.9173
66.3745
64.742
63.0396
61.2925
59.5268
57.7711
56.0679
54.429
52.8892
51.4173
50.0729
48.8798
47.7281
46.7091
45.7754
44.821
43.9222
43.1381
42.3431
41.554
40.8309
40.1257
39.4138
38.7196
38.0485
37.3804
36.7086
36.0438
35.3944
34.7528
34.1126
33.4774
32.85
32.2336
31.6324
31.0424
30.4576
29.8822
29.3217
28.7741
28.2447
123.572
132.786
147.809
138.213
129.636
121.759
113.908
107.298
101.711
97.1348
93.4471
90.5489
88.298
86.5478
85.1709
84.0836
83.2195
82.5286
81.9721
81.5223
81.1562
80.8538
80.598
80.3738
80.167
79.9665
79.7627
79.5463
79.3099
79.0463
78.7476
78.4059
78.0132
77.5612
77.0414
76.4444
75.7611
74.9831
74.1021
73.1108
72.0033
70.7763
69.4298
67.9679
66.4003
64.7423
63.0147
61.2444
59.4585
57.6875
55.9826
54.3399
52.7907
51.3371
50.0556
48.9082
47.7532
46.718
45.7938
44.8763
44.011
43.2251
42.4339
41.6525
40.9292
40.2247
39.5154
38.822
38.1492
37.4798
36.8082
36.1432
35.4923
34.849
34.208
33.5721
32.9441
32.3269
31.7244
31.1332
30.548
29.9725
29.4117
28.8641
28.3345
121.039
128.52
139.613
132.131
124.689
119.076
112.259
106.609
101.511
97.282
93.7711
90.9544
88.7148
86.9393
85.5206
84.3874
83.4796
82.7497
82.1602
81.6828
81.294
80.974
80.7051
80.4719
80.2598
80.0573
79.8542
79.6413
79.4095
79.1506
78.8571
78.5205
78.1324
77.6841
77.1667
76.5709