/*--------------------------------*- C++ -*----------------------------------*\
| =========                 |                                                 |
| \\      /  F ield         | OpenFOAM: The Open Source CFD Toolbox           |
|  \\    /   O peration     | Version:  2412                                  |
|   \\  /    A nd           | Website:  www.openfoam.com                      |
|    \\/     M anipulation  |                                                 |
\*---------------------------------------------------------------------------*/
FoamFile
{
    version     2.0;
    format      ascii;
    arch        "LSB;label=32;scalar=64";
    class       surfaceScalarField;
    location    "320";
    object      phi;
}
// * * * * * * * * * * * * * * * * * * * * * * * * * * * * * * * * * * * * * //

dimensions      [0 3 -1 0 0 0 0];

oriented        oriented;

internalField   nonuniform List<scalar> 
14663
(
2.45918e-05
-2.33021e-06
2.47325e-05
-1.39891e-07
2.30667e-05
1.66596e-06
2.02321e-05
2.83443e-06
1.69503e-05
3.28183e-06
1.45886e-05
2.36166e-06
1.30706e-05
1.51802e-06
1.17291e-05
1.34152e-06
1.04832e-05
1.24587e-06
9.42772e-06
1.05548e-06
8.51015e-06
9.17565e-07
7.68849e-06
8.21651e-07
6.95759e-06
7.30902e-07
6.33007e-06
6.27509e-07
5.8052e-06
5.24865e-07
5.36736e-06
4.37841e-07
5.00514e-06
3.62555e-07
4.70664e-06
2.98176e-07
4.45947e-06
2.48565e-07
4.25152e-06
2.06565e-07
4.07454e-06
1.7692e-07
3.92144e-06
1.53152e-07
3.787e-06
1.34358e-07
3.66742e-06
1.19645e-07
3.55945e-06
1.07931e-07
3.46082e-06
9.86673e-08
3.36999e-06
9.08614e-08
3.28542e-06
8.45326e-08
3.20624e-06
7.9179e-08
3.13143e-06
7.48144e-08
3.06048e-06
7.0948e-08
2.99285e-06
6.76297e-08
2.92816e-06
6.46858e-08
2.86605e-06
6.21189e-08
2.8062e-06
5.98506e-08
2.74849e-06
5.77081e-08
2.69262e-06
5.58699e-08
2.63849e-06
5.41288e-08
2.58585e-06
5.26377e-08
2.53486e-06
5.09899e-08
2.48527e-06
4.95949e-08
2.43695e-06
4.83213e-08
2.39026e-06
4.66873e-08
2.34463e-06
4.56317e-08
2.29964e-06
4.49948e-08
2.25563e-06
4.40029e-08
2.21256e-06
4.30722e-08
2.17051e-06
4.20533e-08
2.12943e-06
4.10783e-08
2.08929e-06
4.01416e-08
2.04981e-06
3.94816e-08
2.01118e-06
3.86365e-08
1.97341e-06
3.77658e-08
1.9364e-06
3.70141e-08
1.89991e-06
3.64942e-08
1.86409e-06
3.5814e-08
1.829e-06
3.50932e-08
1.79444e-06
3.45606e-08
1.76034e-06
3.41039e-08
1.72669e-06
3.3652e-08
1.6936e-06
3.309e-08
1.66102e-06
3.25816e-08
1.62875e-06
3.22722e-08
1.59683e-06
3.19174e-08
1.56516e-06
3.16752e-08
1.53383e-06
3.1534e-08
1.50282e-06
3.08229e-08
1.47213e-06
3.08359e-08
1.44171e-06
3.02686e-08
1.41136e-06
3.04384e-08
1.38118e-06
3.00956e-08
1.35123e-06
3.00469e-08
1.32157e-06
2.95845e-08
1.29211e-06
2.95239e-08
1.26295e-06
2.91681e-08
2.90107e-08
8.38969e-05
-1.09764e-05
8.54594e-05
-1.70104e-06
8.09107e-05
6.21484e-06
7.17776e-05
1.19674e-05
6.06455e-05
1.44139e-05
5.21884e-05
1.08188e-05
4.67382e-05
6.96819e-06
4.2024e-05
6.05569e-06
3.75506e-05
5.71929e-06
3.37408e-05
4.86527e-06
3.04356e-05
4.22273e-06
2.7483e-05
3.77423e-06
2.48431e-05
3.37085e-06
2.25926e-05
2.87803e-06
2.07295e-05
2.38794e-06
1.9159e-05
2.00827e-06
1.78536e-05
1.6685e-06
1.67827e-05
1.36863e-06
1.59023e-05
1.13092e-06
1.51558e-05
9.51086e-07
1.45204e-05
8.12224e-07
1.39711e-05
7.02564e-07
1.34886e-05
6.16678e-07
1.30596e-05
5.48709e-07
1.26727e-05
4.94825e-07
1.23198e-05
4.51662e-07
1.19943e-05
4.16358e-07
1.16916e-05
3.87204e-07
1.1408e-05
3.6276e-07
1.11405e-05
3.42286e-07
1.08871e-05
3.2438e-07
1.06455e-05
3.09198e-07
1.04144e-05
2.95777e-07
1.01927e-05
2.83884e-07
9.97921e-06
2.73313e-07
9.77315e-06
2.63761e-07
9.57411e-06
2.54912e-07
9.38112e-06
2.47124e-07
9.19372e-06
2.40035e-07
9.01182e-06
2.32896e-07
8.83501e-06
2.26403e-07
8.66302e-06
2.20316e-07
8.49669e-06
2.13014e-07
8.33452e-06
2.07808e-07
8.17454e-06
2.04972e-07
8.01801e-06
2.00535e-07
7.86486e-06
1.96224e-07
7.71511e-06
1.91799e-07
7.5692e-06
1.86989e-07
7.42622e-06
1.83123e-07
7.28599e-06
1.79721e-07
7.14863e-06
1.75994e-07
7.0145e-06
1.71903e-07
6.88275e-06
1.68764e-07
6.75321e-06
1.66037e-07
6.62594e-06
1.63082e-07
6.50107e-06
1.59971e-07
6.37822e-06
1.57404e-07
6.2571e-06
1.55226e-07
6.13767e-06
1.53089e-07
6.02006e-06
1.50708e-07
5.90417e-06
1.48474e-07
5.7898e-06
1.46639e-07
5.6764e-06
1.45324e-07
5.56375e-06
1.44324e-07
5.45252e-06
1.43051e-07
5.34264e-06
1.40448e-07
5.23372e-06
1.3996e-07
5.12553e-06
1.38252e-07
5.01794e-06
1.38149e-07
4.91074e-06
1.37185e-07
4.80437e-06
1.36545e-07
4.69904e-06
1.34811e-07
4.59456e-06
1.34105e-07
4.49106e-06
1.32698e-07
1.31854e-07
0.000161481
-2.87299e-05
0.000166181
-6.39922e-06
0.000159239
1.31576e-05
0.000142738
2.84677e-05
0.0001216
3.55524e-05
0.000104838
2.75799e-05
9.39945e-05
1.78121e-05
8.47558e-05
1.52944e-05
7.57813e-05
1.46937e-05
6.80925e-05
1.2554e-05
6.1413e-05
1.09023e-05
5.54558e-05
9.73138e-06
5.00776e-05
8.74902e-06
4.55306e-05
7.42504e-06
4.18173e-05
6.10125e-06
3.86417e-05
5.18386e-06
3.59781e-05
4.33269e-06
3.38075e-05
3.53869e-06
3.20469e-05
2.89377e-06
3.05345e-05
2.46124e-06
2.9245e-05
2.10164e-06
2.81313e-05
1.81628e-06
2.71542e-05
1.59367e-06
2.62847e-05
1.41833e-06
2.55015e-05
1.27795e-06
2.47862e-05
1.16709e-06
2.41278e-05
1.07473e-06
2.35156e-05
9.99357e-07
2.29419e-05
9.36501e-07
2.24013e-05
8.82836e-07
2.18891e-05
8.36614e-07
2.1401e-05
7.97303e-07
2.09349e-05
7.61871e-07
2.04878e-05
7.31027e-07
2.00575e-05
7.03575e-07
1.96421e-05
6.7912e-07
1.92406e-05
6.56479e-07
1.88517e-05
6.36012e-07
1.84746e-05
6.17083e-07
1.81072e-05
6.00342e-07
1.77498e-05
5.83759e-07
1.74043e-05
5.65893e-07
1.70699e-05
5.47335e-07
1.6744e-05
5.338e-07
1.64231e-05
5.2586e-07
1.61083e-05
5.15283e-07
1.58005e-05
5.04018e-07
1.54996e-05
4.92745e-07
1.52059e-05
4.80671e-07
1.49189e-05
4.70133e-07
1.46368e-05
4.61767e-07
1.43609e-05
4.51978e-07
1.40913e-05
4.41448e-07
1.38266e-05
4.33485e-07
1.3566e-05
4.2665e-07
1.33105e-05
4.18579e-07
1.30598e-05
4.1064e-07
1.28135e-05
4.03773e-07
1.25698e-05
3.98857e-07
1.233e-05
3.92941e-07
1.20941e-05
3.86551e-07
1.18615e-05
3.81113e-07
1.16314e-05
3.76781e-07
1.14036e-05
3.7309e-07
1.11781e-05
3.69859e-07
1.09547e-05
3.66733e-07
1.07339e-05
3.60958e-07
1.05152e-05
3.58874e-07
1.02983e-05
3.54911e-07
1.00823e-05
3.54274e-07
9.86721e-06
3.52196e-07
9.65375e-06
3.5015e-07
9.44233e-06
3.46119e-07
9.23286e-06
3.43675e-07
9.02541e-06
3.40187e-07
3.38546e-07
0.000258719
-5.86471e-05
0.000268655
-1.63332e-05
0.000260163
2.16495e-05
0.000235644
5.29869e-05
0.000202716
6.848e-05
0.000175581
5.4715e-05
0.000157662
3.57309e-05
0.000142597
3.03594e-05
0.000127886
2.94052e-05
0.000115134
2.5306e-05
0.00010399
2.20462e-05
9.402e-05
1.97015e-05
8.48879e-05
1.78811e-05
7.72198e-05
1.50931e-05
7.10472e-05
1.22739e-05
6.56647e-05
1.05663e-05
6.10855e-05
8.91244e-06
5.73914e-05
7.23222e-06
5.44449e-05
5.84239e-06
5.18652e-05
5.03891e-06
4.9666e-05
4.30074e-06
4.77636e-05
3.71868e-06
4.60939e-05
3.26331e-06
4.46083e-05
2.904e-06
4.32688e-05
2.61738e-06
4.20488e-05
2.3872e-06
4.09236e-05
2.19997e-06
3.98786e-05
2.04426e-06
3.89008e-05
1.91431e-06
3.79796e-05
1.80406e-06
3.71064e-05
1.70976e-06
3.62763e-05
1.62746e-06
3.54822e-05
1.55593e-06
3.47214e-05
1.49188e-06
3.39887e-05
1.43624e-06
3.32827e-05
1.38516e-06
3.26004e-05
1.33873e-06
3.19399e-05
1.29656e-06
3.12988e-05
1.25817e-06
3.06703e-05
1.22885e-06
3.00602e-05
1.19385e-06
2.94737e-05
1.15232e-06
2.89075e-05
1.11364e-06
2.83563e-05
1.08494e-06
2.78134e-05
1.06874e-06
2.72804e-05
1.04831e-06
2.67587e-05
1.0257e-06
2.62487e-05
1.00283e-06
2.57514e-05
9.77942e-07
2.52653e-05
9.56242e-07
2.47878e-05
9.39276e-07
2.43199e-05
9.19887e-07
2.38633e-05
8.9806e-07
2.34152e-05
8.81535e-07
2.29744e-05
8.67425e-07
2.25413e-05
8.51728e-07
2.21169e-05
8.35066e-07
2.16994e-05
8.21221e-07
2.12875e-05
8.10744e-07
2.08814e-05
7.99116e-07
2.04818e-05
7.86087e-07
2.00876e-05
7.75338e-07
1.96986e-05
7.65819e-07
1.93133e-05
7.58393e-07
1.89312e-05
7.51923e-07
1.85531e-05
7.45174e-07
1.81797e-05
7.34046e-07
1.78099e-05
7.28921e-07
1.74425e-05
7.22035e-07
1.70774e-05
7.19547e-07
1.67134e-05
7.16085e-07
1.63527e-05
7.11009e-07
1.59949e-05
7.03772e-07
1.56401e-05
6.98568e-07
1.52892e-05
6.9116e-07
6.87743e-07
0.000373681
-0.000102591
0.000389692
-3.23436e-05
0.000379794
3.15472e-05
0.000347576
8.52049e-05
0.000303024
0.000113032
0.000264717
9.30222e-05
0.00023807
6.2378e-05
0.000215787
5.26419e-05
0.000194779
5.04128e-05
0.000176267
4.38184e-05
0.000159892
3.84215e-05
0.000145108
3.44851e-05
0.000131376
3.16134e-05
0.000119801
2.66681e-05
0.000110471
2.16039e-05
0.000102232
1.88045e-05
9.51153e-05
1.60301e-05
8.94051e-05
1.29419e-05
8.49143e-05
1.03351e-05
8.09046e-05
9.04668e-06
7.74782e-05
7.72705e-06
7.451e-05
6.68691e-06
7.19027e-05
5.87052e-06
6.9582e-05
5.22477e-06
6.7488e-05
4.71133e-06
6.55787e-05
4.29654e-06
6.38196e-05
3.95915e-06
6.21845e-05
3.67925e-06
6.06538e-05
3.44499e-06
5.92126e-05
3.24528e-06
5.78472e-05
3.07522e-06
5.65475e-05
2.92711e-06
5.53065e-05
2.79697e-06
5.41163e-05
2.68209e-06
5.29726e-05
2.57986e-06
5.18694e-05
2.48842e-06
5.08029e-05
2.40525e-06
4.97715e-05
2.32787e-06
4.87709e-05
2.2588e-06
4.77785e-05
2.22125e-06
4.68153e-05
2.15705e-06
4.59033e-05
2.06432e-06
4.5022e-05
1.99492e-06
4.41671e-05
1.93986e-06
4.33242e-05
1.91165e-06
4.24952e-05
1.87733e-06
4.16831e-05
1.83779e-06
4.08893e-05
1.79659e-06
4.01149e-05
1.75239e-06
3.93572e-05
1.71393e-06
3.86144e-05
1.68205e-06
3.78865e-05
1.64779e-06
3.71753e-05
1.60932e-06
3.64784e-05
1.57839e-06
3.57914e-05
1.55448e-06
3.5117e-05
1.52611e-06
3.44567e-05
1.49538e-06
3.38074e-05
1.47053e-06
3.31663e-05
1.45179e-06
3.25338e-05
1.43165e-06
3.1912e-05
1.40788e-06
3.12994e-05
1.388e-06
3.06935e-05
1.37164e-06
3.00937e-05
1.35828e-06
2.94988e-05
1.3468e-06
2.89111e-05
1.33314e-06
2.83298e-05
1.31508e-06
2.77543e-05
1.30462e-06
2.71826e-05
1.29351e-06
2.66144e-05
1.28792e-06
2.60486e-05
1.28174e-06
2.54869e-05
1.27285e-06
2.49302e-05
1.26035e-06
2.43787e-05
1.25019e-06
2.38327e-05
1.23726e-06
1.2316e-06
0.000502892
-0.000160522
0.000523331
-5.27797e-05
0.000509863
4.50149e-05
0.00046909
0.000125978
0.000413776
0.000168347
0.000365636
0.000141162
0.000330631
9.73827e-05
0.000301046
8.2227e-05
0.000274143
7.73157e-05
0.00025008
6.78814e-05
0.000228494
6.00077e-05
0.000208753
5.42261e-05
0.0001904
4.99665e-05
0.000174544
4.25245e-05
0.000161341
3.48064e-05
0.000149784
3.03619e-05
0.000139719
2.60958e-05
0.000131578
2.10815e-05
0.000125116
1.67989e-05
0.000119335
1.48265e-05
0.000114369
1.26924e-05
0.000110053
1.10032e-05
0.000106251
9.67272e-06
0.000102856
8.61925e-06
9.97905e-05
7.77718e-06
9.6988e-05
7.09911e-06
9.44053e-05
6.54194e-06
9.20005e-05
6.08398e-06
8.97488e-05
5.6967e-06
8.76253e-05
5.36874e-06
8.56128e-05
5.08775e-06
8.36965e-05
4.84341e-06
8.18663e-05
4.62711e-06
8.011e-05
4.43842e-06
7.84202e-05
4.26965e-06
7.67913e-05
4.11737e-06
7.5218e-05
3.97852e-06
7.36933e-05
3.85258e-06
7.22152e-05
3.73687e-06
7.07282e-05
3.70831e-06
6.92868e-05
3.59845e-06
6.79417e-05
3.40937e-06
6.66444e-05
3.29224e-06
6.53878e-05
3.19649e-06
6.41506e-05
3.14887e-06
6.29289e-05
3.09902e-06
6.17305e-05
3.03621e-06
6.0559e-05
2.96805e-06
5.94156e-05
2.89581e-06
5.82986e-05
2.83089e-06
5.72009e-05
2.77981e-06
5.61267e-05
2.72194e-06
5.50767e-05
2.65934e-06
5.40465e-05
2.60861e-06
5.30331e-05
2.56789e-06
5.20381e-05
2.52111e-06
5.10618e-05
2.47165e-06
5.01014e-05
2.43095e-06
4.91546e-05
2.3986e-06
4.82208e-05
2.36544e-06
4.73016e-05
2.32702e-06
4.63955e-05
2.29417e-06
4.55003e-05
2.2668e-06
4.46145e-05
2.24413e-06
4.37357e-05
2.22558e-06
4.28659e-05
2.20325e-06
4.20063e-05
2.17438e-06
4.11554e-05
2.1557e-06
4.03113e-05
2.1375e-06
3.94704e-05
2.12885e-06
3.86343e-05
2.11779e-06
3.7803e-05
2.10423e-06
3.698e-05
2.08324e-06
3.6164e-05
2.06638e-06
3.53563e-05
2.04496e-06
2.03578e-06
0.000645561
-0.00023219
0.000668601
-7.58162e-05
0.000648882
6.47341e-05
0.000597066
0.000177793
0.00052951
0.000235903
0.000471405
0.000199268
0.000429225
0.000139562
0.000393684
0.000117769
0.000361598
0.000109401
0.000332718
9.67618e-05
0.00030658
8.61451e-05
0.000282421
7.83857e-05
0.000260287
7.20997e-05
0.000240408
6.24036e-05
0.000222984
5.22309e-05
0.000208097
4.52484e-05
0.000195267
3.89265e-05
0.000184573
3.17751e-05
0.000175712
2.56615e-05
0.000167971
2.2566e-05
0.000161287
1.93767e-05
0.000155444
1.68457e-05
0.000150271
1.48458e-05
0.000145633
1.32572e-05
0.000141426
1.19839e-05
0.000137572
1.09537e-05
0.000134004
1.01098e-05
0.000130678
9.40974e-06
0.000127554
8.82068e-06
0.000124602
8.32083e-06
0.000121799
7.89115e-06
0.000119126
7.51584e-06
0.000116568
7.18555e-06
0.000114109
6.89687e-06
0.000111742
6.63657e-06
0.000109456
6.4036e-06
0.000107245
6.19008e-06
0.000105102
5.99542e-06
0.000103021
5.81753e-06
0.000100914
5.81509e-06
9.88688e-05
5.64408e-06
9.69704e-05
5.30777e-06
9.51369e-05
5.12571e-06
9.33655e-05
4.96791e-06
9.162e-05
4.89433e-06
8.9895e-05
4.82403e-06
8.82029e-05
4.72826e-06
8.65476e-05
4.62343e-06
8.49311e-05
4.5123e-06
8.33494e-05
4.4126e-06
8.1797e-05
4.33219e-06
8.02739e-05
4.24499e-06
7.87865e-05
4.14683e-06
7.73263e-05
4.06878e-06
7.58882e-05
4.00594e-06
7.44763e-05
3.93305e-06
7.30913e-05
3.85668e-06
7.17284e-05
3.79383e-06
7.03828e-05
3.74425e-06
6.90559e-05
3.69233e-06
6.77491e-05
3.63381e-06
6.64619e-05
3.58135e-06
6.51882e-05
3.54053e-06
6.39268e-05
3.50549e-06
6.2677e-05
3.4754e-06
6.14394e-05
3.44113e-06
6.0216e-05
3.39753e-06
5.90035e-05
3.36847e-06
5.78001e-05
3.34062e-06
5.66029e-05
3.32618e-06
5.54106e-05
3.31007e-06
5.42262e-05
3.28873e-06
5.3052e-05
3.25729e-06
5.18882e-05
3.23029e-06
5.07358e-05
3.19745e-06
3.18385e-06
0.000803685
-0.000318555
0.000828767
-0.000100894
0.000801064
9.24373e-05
0.000735863
0.000242994
0.000653491
0.000318274
0.000583316
0.000269443
0.000533307
0.000189571
0.000491928
0.000159147
0.000454556
0.000146773
0.000421032
0.000130286
0.00039072
0.000116457
0.000362644
0.000106462
0.00033716
9.75837e-05
0.000313818
8.57452e-05
0.000292802
7.32471e-05
0.000274998
6.30524e-05
0.000259928
5.39967e-05
0.000246919
4.47842e-05
0.000235599
3.69827e-05
0.000226009
3.21543e-05
0.000217665
2.77206e-05
0.000210323
2.41879e-05
0.000203782
2.13871e-05
0.000197885
1.91538e-05
0.000192512
1.73572e-05
0.000187562
1.59033e-05
0.000182966
1.47062e-05
0.000178661
1.37148e-05
0.000174601
1.28802e-05
0.000170756
1.21662e-05
0.000167091
1.15563e-05
0.000163585
1.1022e-05
0.000160218
1.05521e-05
0.000156978
1.01372e-05
0.000153846
9.76877e-06
0.000150816
9.43338e-06
0.000147877
9.1286e-06
0.000145022
8.85035e-06
0.000142246
8.59438e-06
0.000139464
8.59716e-06
0.000136753
8.35436e-06
0.000134194
7.86754e-06
0.000131713
7.60651e-06
0.000129303
7.37757e-06
0.000126938
7.25968e-06
0.000124608
7.15339e-06
0.00012232
7.01659e-06
0.000120078
6.86542e-06
0.000117887
6.703e-06
0.000115742
6.55772e-06
0.000113632
6.44223e-06
0.000111563
6.31377e-06
0.000109537
6.17329e-06
0.000107547
6.05826e-06
0.000105588
5.96561e-06
0.000103659
5.86211e-06
0.000101765
5.75025e-06
9.99019e-05
5.65717e-06
9.80608e-05
5.58528e-06
9.62423e-05
5.51085e-06
9.44509e-05
5.42524e-06
9.26832e-05
5.34903e-06
9.09343e-05
5.28948e-06
8.92029e-05
5.23688e-06
8.74835e-05
5.19483e-06
8.57803e-05
5.14452e-06
8.40949e-05
5.08277e-06
8.24238e-05
5.03969e-06
8.0765e-05
4.9993e-06
7.91129e-05
4.97833e-06
7.74668e-05
4.95612e-06
7.58311e-05
4.92455e-06
7.42083e-05
4.87997e-06
7.25972e-05
4.84156e-06
7.10028e-05
4.79193e-06
4.77343e-06
0.000980394
0.0010082
-0.0001287
0.000971584
0.000129057
0.000890899
0.000323679
0.000790931
0.000418242
0.000706083
0.000354292
0.000646304
0.00024935
0.000597777
0.000207674
0.000554143
0.000190407
0.000515272
0.000169157
0.000480329
0.0001514
0.000448102
0.000138689
0.000418822
0.000126863
0.000392139
0.000112428
0.000368234
9.71529e-05
0.000347852
8.34335e-05
0.000330684
7.11649e-05
0.000315701
5.97678e-05
0.000302464
5.022e-05
0.000291294
4.3324e-05
0.000281533
3.7481e-05
0.000272897
3.28237e-05
0.000265162
2.91224e-05
0.000258156
2.61601e-05
0.00025174
2.37726e-05
0.000245804
2.18397e-05
0.000240265
2.02453e-05
0.000235054
1.89256e-05
0.000230125
1.78089e-05
0.000225431
1.686e-05
0.000220945
1.60431e-05
0.000216636
1.53306e-05
0.000212485
1.47031e-05
0.000208473
1.41495e-05
0.000204587
1.36539e-05
0.000200812
1.3209e-05
0.000197139
1.28012e-05
0.000193562
1.24271e-05
0.000190071
1.20854e-05
0.00018666
1.20081e-05
0.000183323
1.16915e-05
0.000180058
1.11326e-05
0.000176869
1.07953e-05
0.00017375
1.04973e-05
0.000170695
1.03141e-05
0.0001677
1.01484e-05
0.000164762
9.95502e-06
0.000161876
9.75136e-06
0.000159049
9.53003e-06
0.000156275
9.3318e-06
0.000153542
9.17497e-06
0.000150856
8.99984e-06
0.000148222
8.80756e-06
0.000145631
8.64897e-06
0.000143071
8.52542e-06
0.00014055
8.38292e-06
0.000138072
8.22911e-06
0.000135627
8.102e-06
0.000133209
8.00344e-06
0.000130816
7.90337e-06
0.000128457
7.78483e-06
0.000126123
7.68226e-06
0.000123813
7.60014e-06
0.000121521
7.52889e-06
0.000119243
7.4724e-06
0.000116982
7.40588e-06
0.000114743
7.32193e-06
0.000112521
7.26121e-06
0.000110311
7.20907e-06
0.000108109
7.18042e-06
0.000105912
7.1532e-06
0.000103724
7.11237e-06
0.000101551
7.05338e-06
9.93949e-05
6.99766e-06
9.72542e-05
6.93277e-06
6.90741e-06
0.0012113
0.00116551
0.000174847
0.00106733
0.000421858
0.000946813
0.000538758
0.00084437
0.000456735
0.00077243
0.00032129
0.000714913
0.000265191
0.0006636
0.000241721
0.000618187
0.00021457
0.000577618
0.000191968
0.000540418
0.00017589
0.000506563
0.000160718
0.000476041
0.000142951
0.000449043
0.00012415
0.000425925
0.000106551
0.000406373
9.07172e-05
0.000389455
7.66857e-05
0.000374661
6.50148e-05
0.000362067
5.59174e-05
0.000351046
4.85016e-05
0.000341287
4.25828e-05
0.000332528
3.78814e-05
0.000324575
3.41128e-05
0.00031727
3.10778e-05
0.000310497
2.86131e-05
0.000304152
2.65899e-05
0.000298173
2.49046e-05
0.000292493
2.34889e-05
0.000287071
2.22818e-05
0.000281871
2.12435e-05
0.000276863
2.0339e-05
0.00027202
1.95455e-05
0.000267329
1.88408e-05
0.000262767
1.82161e-05
0.000258324
1.76511e-05
0.000253991
1.71344e-05
0.000249756
1.66624e-05
0.000245613
1.62281e-05
0.00024163
1.5991e-05
0.000237721
1.5601e-05
0.000233804
1.5049e-05
0.000229951
1.46487e-05
0.000226153
1.42949e-05
0.000222433
1.40346e-05
0.000218799
1.37828e-05
0.000215224
1.35298e-05
0.000211707
1.32685e-05
0.000208251
1.29858e-05
0.000204852
1.27305e-05
0.000201497
1.25303e-05
0.000198186
1.23104e-05
0.000194935
1.20595e-05
0.000191727
1.18565e-05
0.000188553
1.1699e-05
0.000185419
1.15177e-05
0.000182327
1.13202e-05
0.000179273
1.11563e-05
0.000176244
1.10321e-05
0.000173242
1.09054e-05
0.000170273
1.07542e-05
0.000167333
1.06225e-05
0.000164414
1.05194e-05
0.000161512
1.04306e-05
0.000158623
1.03615e-05
0.000155749
1.02797e-05
0.000152897
1.01737e-05
0.00015006
1.00984e-05
0.000147234
1.0035e-05
0.000144413
1.00013e-05
0.000141592
9.97493e-06
0.000138778
9.92567e-06
0.000135979
9.85299e-06
0.000133193
9.78385e-06
0.000130426
9.69951e-06
9.67407e-06
0.00138787
0.00127032
0.000539405
0.00112599
0.000683083
0.00100274
0.000579987
0.000915932
0.0004081
0.00084731
0.000333813
0.000786661
0.00030237
0.000733301
0.000267929
0.00068589
0.00023938
0.000642632
0.000219147
0.000603283
0.000200067
0.000568078
0.000178156
0.000537233
0.000154995
0.00051081
0.000132975
0.000488413
0.000113114
0.000469232
9.58667e-05
0.00045268
8.15668e-05
0.000438507
7.00908e-05
0.00042614
6.08682e-05
0.000415199
5.35236e-05
0.000405399
4.76814e-05
0.000396506
4.30058e-05
0.000388339
3.92448e-05
0.000380761
3.61912e-05
0.000373666
3.36851e-05
0.000366966
3.16046e-05
0.000360598
2.98567e-05
0.000354511
2.83693e-05
0.000348663
2.70917e-05
0.000343022
2.59798e-05
0.000337563
2.50049e-05
0.000332258
2.41449e-05
0.000327096
2.33784e-05
0.000322058
2.26893e-05
0.000317132
2.20607e-05
0.000312311
2.14836e-05
0.000307582
2.09566e-05
0.000303035
2.05382e-05
0.000298565
2.00706e-05
0.000294074
1.95403e-05
0.000289643
1.90795e-05
0.000285263
1.8675e-05
0.000280963
1.83351e-05
0.000276755
1.79904e-05
0.000272608
1.76766e-05
0.000268518
1.73585e-05
0.000264493
1.7011e-05
0.000260522
1.67013e-05
0.000256594
1.64584e-05
0.000252713
1.61919e-05
0.000248887
1.58854e-05
0.000245104
1.56387e-05
0.000241356
1.54473e-05
0.000237641
1.52329e-05
0.00023397
1.49916e-05
0.000230335
1.47906e-05
0.000226723
1.46445e-05
0.000223134
1.44945e-05
0.000219573
1.43147e-05
0.000216039
1.41571e-05
0.000212523
1.40346e-05
0.000209021
1.39334e-05
0.000205524
1.38579e-05
0.000202039
1.37647e-05
0.000198569
1.36442e-05
0.000195111
1.35559e-05
0.000191657
1.34894e-05
0.000188202
1.34566e-05
0.000184739
1.3438e-05
0.000181276
1.33885e-05
0.00017782
1.33088e-05
0.000174373
1.32307e-05
0.000170942
1.31309e-05
1.31126e-05
0.00150532
0.000676691
0.00133366
0.000854744
0.00118591
0.000727736
0.00108116
0.000512845
0.00099904
0.000415934
0.000927164
0.000374246
0.000864269
0.000330824
0.000808631
0.000295019
0.000758089
0.000269689
0.000712197
0.000245958
0.000671315
0.000219038
0.000635687
0.000190623
0.000605202
0.000163459
0.000579366
0.000138951
0.000557393
0.000117839
0.000538601
0.00010036
0.000522483
8.62084e-05
0.000508469
7.48817e-05
0.000496115
6.58778e-05
0.000485069
5.87272e-05
0.000475067
5.30083e-05
0.000465902
4.84092e-05
0.000457408
4.46849e-05
0.000449461
4.16323e-05
0.000441963
3.91031e-05
0.000434844
3.69757e-05
0.00042804
3.51733e-05
0.0004215
3.36315e-05
0.000415192
3.22876e-05
0.000409085
3.11122e-05
0.000403151
3.00784e-05
0.000397371
2.91585e-05
0.000391728
2.83319e-05
0.00038621
2.75792e-05
0.000380802
2.68915e-05
0.000375495
2.6264e-05
0.000370346
2.56863e-05
0.000365287
2.51296e-05
0.00036024
2.45878e-05
0.00035526
2.4059e-05
0.000350339
2.3596e-05
0.000345499
2.31758e-05
0.00034075
2.27394e-05
0.000336064
2.23621e-05
0.000331436
2.19868e-05
0.000326873
2.15743e-05
0.000322371
2.12027e-05
0.000317908
2.09221e-05
0.000313489
2.06103e-05
0.000309131
2.02435e-05
0.000304818
1.99517e-05
0.00030053
1.97349e-05
0.000296281
1.94827e-05
0.000292075
1.91976e-05
0.0002879
1.89648e-05
0.000283745
1.87995e-05
0.000279609
1.86313e-05
0.000275501
1.84221e-05
0.000271415
1.82432e-05
0.000267343
1.8107e-05
0.000263277
1.79995e-05
0.000259211
1.79233e-05
0.000255148
1.78277e-05
0.000251099
1.76936e-05
0.000247052
1.76028e-05
0.000243004
1.75371e-05
0.000238942
1.75184e-05
0.000234867
1.75138e-05
0.000230777
1.7478e-05
0.000226689
1.7397e-05
0.000222602
1.73176e-05
0.000218524
1.72091e-05
1.72092e-05
0.0017782
0.000834735
0.00157545
0.00105749
0.00139911
0.000904084
0.00127288
0.000639067
0.00117446
0.000514356
0.00108914
0.000459571
0.00101485
0.000405107
0.000949429
0.000360444
0.000890233
0.000328886
0.000836587
0.000299604
0.000788917
0.000266708
0.000747481
0.000232059
0.000712075
0.000198865
0.00068209
0.000168936
0.000656693
0.000143237
0.00063507
0.000121983
0.000616554
0.000104724
0.000600487
9.09493e-05
0.000586359
8.00053e-05
0.000573768
7.13188e-05
0.000562394
6.43823e-05
0.000551989
5.88142e-05
0.000542367
5.4307e-05
0.000533381
5.06177e-05
0.000524915
4.75689e-05
0.000516881
4.50097e-05
0.000509211
4.28438e-05
0.000501848
4.09946e-05
0.000494753
3.93829e-05
0.000487884
3.7981e-05
0.000481216
3.67466e-05
0.000474722
3.56525e-05
0.000468383
3.4671e-05
0.000462181
3.37803e-05
0.000456109
3.2964e-05
0.000450151
3.22219e-05
0.000444331
3.15066e-05
0.000438608
3.08523e-05
0.000432945
3.02507e-05
0.00042736
2.96444e-05
0.000421847
2.91093e-05
0.000416425
2.85974e-05
0.000411092
2.80724e-05
0.000405826
2.76281e-05
0.000400626
2.71869e-05
0.000395497
2.67034e-05
0.00039043
2.62695e-05
0.000385407
2.59453e-05
0.000380436
2.55813e-05
0.000375527
2.51524e-05
0.000370665
2.48132e-05
0.000365834
2.45667e-05
0.000361039
2.42778e-05
0.000356289
2.39468e-05
0.000351577
2.36774e-05
0.000346878
2.34985e-05
0.0003422
2.33096e-05
0.000337547
2.30746e-05
0.000332918
2.28725e-05
0.0003283
2.27246e-05
0.000323683
2.26164e-05
0.000319062
2.25447e-05
0.000314442
2.24481e-05
0.000309828
2.23071e-05
0.000305217
2.2214e-05
0.000300593
2.2161e-05
0.000295953
2.21587e-05
0.000291283
2.21832e-05
0.000286598
2.21634e-05
0.000281905
2.20899e-05
0.000277206
2.20166e-05
0.000272513
2.19017e-05
0.00209522
0.0010112
0.00185773
0.00129497
0.00164828
0.00111353
0.00149649
0.000790858
0.00137847
0.000632377
0.00127706
0.000560983
0.00118923
0.000492932
0.00111218
0.000437495
0.00104273
0.000398334
0.000979936
0.000362403
0.000924208
0.000322436
0.000875832
0.000280435
0.000834518
0.00024018
0.000799554
0.0002039
0.000769998
0.000172793
0.000744906
0.000147076
0.000723436
0.000126193
0.000704854
0.000109532
0.000688548
9.63109e-05
0.000674043
8.58232e-05
0.000660968
7.74577e-05
0.000649036
7.07459e-05
0.00063802
6.53233e-05
0.000627747
6.08907e-05
0.000618082
5.72342e-05
0.000608925
5.41661e-05
0.000600194
5.15751e-05
0.000591823
4.93652e-05
0.00058376
4.74466e-05
0.000575963
4.57776e-05
0.0005684
4.43094e-05
0.00056104
4.30127e-05
0.000553857
4.18538e-05
0.000546838
4.07992e-05
0.000539967
3.98356e-05
0.000533224
3.8965e-05
0.000526617
3.81131e-05
0.00052013
3.73397e-05
0.000513733
3.66472e-05
0.000507428
3.59496e-05
0.000501211
3.53257e-05
0.000495096
3.47126e-05
0.000489081
3.40875e-05
0.000483141
3.35684e-05
0.000477271
3.30571e-05
0.000471486
3.24882e-05
0.000465772
3.19838e-05
0.000460108
3.16091e-05
0.000454499
3.11898e-05
0.000448964
3.0687e-05
0.000443482
3.02958e-05
0.000438033
3.00155e-05
0.000432627
2.9684e-05
0.000427272
2.93019e-05
0.000421953
2.89962e-05
0.000416658
2.87935e-05
0.000411379
2.85885e-05
0.000406132
2.83215e-05
0.00040091
2.80948e-05
0.000395697
2.79377e-05
0.000390489
2.78242e-05
0.00038527
2.77637e-05
0.000380052
2.76664e-05
0.000374839
2.75193e-05
0.000369627
2.74267e-05
0.000364404
2.73838e-05
0.000359152
2.74109e-05
0.00035387
2.74653e-05
0.000348566
2.74671e-05
0.000343249
2.74068e-05
0.000337924
2.73415e-05
2.72253e-05
0.00246277
0.00119883
0.00218742
0.00157032
0.00194026
0.0013607
0.00175824
0.000972873
0.00161668
0.000773937
0.00149603
0.000681633
0.00139209
0.000596875
0.00130127
0.000528315
0.00121971
0.000479891
0.00114611
0.000436001
0.00108085
0.000387702
0.0010242
0.00033708
0.000975845
0.000288538
0.000934931
0.000244814
0.000900377
0.000207347
0.000871078
0.000176374
0.000846038
0.000151233
0.000824393
0.000131177
0.000805439
0.000115265
0.000788602
0.00010266
0.000773453
9.26066e-05
0.000759646
8.45532e-05
0.000746921
7.80484e-05
0.000735076
7.27355e-05
0.000723953
6.83574e-05
0.00071342
6.46987e-05
0.000703394
6.16018e-05
0.00069379
5.8969e-05
0.00068455
5.66867e-05
0.000675623
5.47038e-05
0.00066697
5.29631e-05
0.000658557
5.14255e-05
0.000650355
5.00561e-05
0.000642343
4.88111e-05
0.000634503
4.76758e-05
0.000626817
4.6651e-05
0.000619278
4.56515e-05
0.000611875
4.47433e-05
0.000604593
4.39284e-05
0.000597421
4.3122e-05
0.000590356
4.23907e-05
0.000583407
4.16613e-05
0.000576572
4.09228e-05
0.00056982
4.03209e-05
0.000563151
3.97255e-05
0.000556582
3.90576e-05
0.000550096
3.84696e-05
0.000543664
3.80409e-05
0.000537304
3.755e-05
0.000531026
3.69654e-05
0.000524809
3.65125e-05
0.00051863
3.6194e-05
0.000512502
3.58126e-05
0.000506432
3.53717e-05
0.00050041
3.50185e-05
0.000494407
3.47966e-05
0.00048843
3.45653e-05
0.000482488
3.42635e-05
0.000476573
3.40097e-05
0.000470673
3.38379e-05
0.000464774
3.37224e-05
0.000458869
3.36689e-05
0.000452964
3.35721e-05
0.000447068
3.34153e-05
0.00044117
3.3324e-05
0.000435257
3.32967e-05
0.000429319
3.33496e-05
0.000423343
3.34405e-05
0.000417341
3.347e-05
0.000411327
3.34203e-05
0.000405302
3.33661e-05
3.32443e-05
0.00288714
0.00138361
0.00257183
0.00188563
0.00228288
0.00164965
0.00206545
0.0011903
0.0018957
0.000943679
0.00175204
0.000825293
0.0016289
0.000720019
0.00152175
0.000635468
0.00142588
0.000575763
0.00133954
0.000522338
0.001263
0.000464242
0.00119654
0.000403533
0.00113978
0.000345298
0.00109175
0.00029285
0.0010512
0.000247893
0.00101684
0.000210736
0.000987496
0.000180578
0.000962162
0.000156511
0.000939997
0.000137431
0.000920339
0.000122318
0.000902678
0.000110268
0.000886605
0.000100626
0.000871817
9.2837e-05
0.000858068
8.64843e-05
0.000845171
8.12549e-05
0.000832983
7.68866e-05
0.000821388
7.31963e-05
0.000810299
7.00587e-05
0.000799637
6.73484e-05
0.000789353
6.49878e-05
0.000779386
6.29295e-05
0.000769706
6.1106e-05
0.000760274
5.94879e-05
0.000751069
5.8016e-05
0.000742067
5.66776e-05
0.000733246
5.54722e-05
0.000724595
5.43022e-05
0.000716104
5.32346e-05
0.000707759
5.22738e-05
0.000699547
5.13337e-05
0.000691464
5.04734e-05
0.000683515
4.96104e-05
0.000675694
4.87445e-05
0.000667973
4.80416e-05
0.000660352
4.73461e-05
0.000652845
4.65649e-05
0.000645434
4.58803e-05
0.000638093
4.53819e-05
0.000630828
4.48155e-05
0.000623663
4.41307e-05
0.000616571
4.36039e-05
0.000609522
4.3243e-05
0.000602535
4.28002e-05
0.000595618
4.22888e-05
0.000588751
4.18847e-05
0.000581914
4.16335e-05
0.000575103
4.13768e-05
0.000568336
4.10303e-05
0.000561605
4.07407e-05
0.000554887
4.05555e-05
0.000548176
4.04343e-05
0.000541456
4.03885e-05
0.000534738
4.02898e-05
0.000528034
4.01192e-05
0.000521329
4.00298e-05
0.000514608
4.00176e-05
0.000507858
4.00996e-05
0.000501066
4.02322e-05
0.000494252
4.02845e-05
0.000487421
4.02507e-05
0.000480581
4.02064e-05
4.00801e-05
0.00337305
0.00154383
0.00301853
0.00224016
0.00268507
0.00198311
0.00242669
0.00144869
0.00222334
0.00114702
0.00205217
0.000996465
0.00190614
0.000866057
0.00177957
0.000762034
0.00166677
0.00068856
0.00156538
0.000623728
0.00147549
0.00055413
0.00139739
0.000481641
0.00133061
0.000412075
0.00127406
0.000349393
0.00122632
0.000295642
0.00118587
0.000251177
0.00115135
0.000215103
0.00112156
0.000186297
0.00109553
0.00016346
0.00107248
0.000145372
0.00105179
0.00013096
0.00103299
0.000119421
0.00101572
0.000110112
0.00099968
0.000102522
0.000984653
9.6282e-05
0.000970477
9.10623e-05
0.000957003
8.667e-05
0.000944128
8.29339e-05
0.000931768
7.97086e-05
0.000919851
7.69045e-05
0.000908322
7.4459e-05
0.000897125
7.23031e-05
0.00088623
7.03827e-05
0.000875601
6.86447e-05
0.000865211
6.70672e-05
0.000855042
6.56417e-05
0.000845069
6.42751e-05
0.000835284
6.30199e-05
0.000825676
6.18816e-05
0.000816227
6.07822e-05
0.000806932