/*--------------------------------*- C++ -*----------------------------------*\
| =========                 |                                                 |
| \\      /  F ield         | OpenFOAM: The Open Source CFD Toolbox           |
|  \\    /   O peration     | Version:  2412                                  |
|   \\  /    A nd           | Website:  www.openfoam.com                      |
|    \\/     M anipulation  |                                                 |
\*---------------------------------------------------------------------------*/
FoamFile
{
    version     2.0;
    format      ascii;
    arch        "LSB;label=32;scalar=64";
    class       surfaceScalarField;
    location    "460";
    object      phi;
}
// * * * * * * * * * * * * * * * * * * * * * * * * * * * * * * * * * * * * * //

dimensions      [0 3 -1 0 0 0 0];

oriented        oriented;

internalField   nonuniform List<scalar> 
14663
(
2.46793e-05
-2.33114e-06
2.48019e-05
-1.23179e-07
2.31203e-05
1.68118e-06
2.02977e-05
2.8231e-06
1.70331e-05
3.26452e-06
1.47013e-05
2.33182e-06
1.32433e-05
1.45798e-06
1.19751e-05
1.26825e-06
1.08142e-05
1.16085e-06
9.8796e-06
9.3462e-07
9.11619e-06
7.63407e-07
8.46279e-06
6.53395e-07
7.88009e-06
5.82697e-07
7.37132e-06
5.08768e-07
6.92525e-06
4.46068e-07
6.51184e-06
4.13418e-07
6.13044e-06
3.82725e-07
5.78891e-06
3.40304e-07
5.48604e-06
3.06834e-07
5.20932e-06
2.72798e-07
4.9611e-06
2.49552e-07
4.73823e-06
2.2152e-07
4.53767e-06
2.01172e-07
4.35667e-06
1.80371e-07
4.19225e-06
1.64793e-07
4.04206e-06
1.49826e-07
3.90426e-06
1.3799e-07
3.77689e-06
1.27174e-07
3.65869e-06
1.18205e-07
3.54819e-06
1.10503e-07
3.44453e-06
1.03656e-07
3.34684e-06
9.76898e-08
3.25447e-06
9.23735e-08
3.16679e-06
8.76788e-08
3.08329e-06
8.34975e-08
3.00367e-06
7.96189e-08
2.92745e-06
7.62226e-08
2.85438e-06
7.30653e-08
2.7841e-06
7.029e-08
2.71652e-06
6.75782e-08
2.65138e-06
6.5133e-08
2.58852e-06
6.28635e-08
2.52791e-06
6.0613e-08
2.46924e-06
5.867e-08
2.41234e-06
5.68977e-08
2.35721e-06
5.51338e-08
2.30376e-06
5.34492e-08
2.25203e-06
5.17341e-08
2.20176e-06
5.0267e-08
2.15282e-06
4.89386e-08
2.10519e-06
4.7629e-08
2.05899e-06
4.62023e-08
2.01386e-06
4.51372e-08
1.96975e-06
4.41042e-08
1.9267e-06
4.30573e-08
1.88472e-06
4.19784e-08
1.84358e-06
4.11406e-08
1.80316e-06
4.04253e-08
1.76357e-06
3.95859e-08
1.72474e-06
3.88285e-08
1.68656e-06
3.81834e-08
1.64897e-06
3.7596e-08
1.61184e-06
3.71305e-08
1.57526e-06
3.65772e-08
1.53917e-06
3.60916e-08
1.50352e-06
3.56671e-08
1.46818e-06
3.53189e-08
1.43313e-06
3.5176e-08
1.3984e-06
3.46156e-08
1.36394e-06
3.45615e-08
1.32989e-06
3.39601e-08
1.2961e-06
3.39109e-08
1.26252e-06
3.34641e-08
1.22903e-06
3.36102e-08
1.19564e-06
3.32773e-08
3.32245e-08
8.42106e-05
-1.09948e-05
8.57221e-05
-1.63479e-06
8.11273e-05
6.27527e-06
7.20373e-05
1.19138e-05
6.09597e-05
1.43421e-05
5.25988e-05
1.06928e-05
4.73497e-05
6.70708e-06
4.28866e-05
5.73133e-06
3.87128e-05
5.33464e-06
3.53293e-05
4.31808e-06
3.25685e-05
3.52425e-06
3.02109e-05
3.01097e-06
2.80918e-05
2.70178e-06
2.62631e-05
2.33742e-06
2.46858e-05
2.02341e-06
2.32039e-05
1.89527e-06
2.18288e-05
1.75987e-06
2.0607e-05
1.5602e-06
1.95348e-05
1.38489e-06
1.85458e-05
1.25601e-06
1.7659e-05
1.13835e-06
1.68633e-05
1.01524e-06
1.61472e-05
9.1818e-07
1.55011e-05
8.25539e-07
1.49146e-05
7.51861e-07
1.43793e-05
6.84518e-07
1.38877e-05
6.29892e-07
1.34336e-05
5.81031e-07
1.30119e-05
5.39909e-07
1.26181e-05
5.0425e-07
1.2249e-05
4.72814e-07
1.1901e-05
4.45639e-07
1.15719e-05
4.21471e-07
1.12597e-05
3.99917e-07
1.09625e-05
3.80656e-07
1.06789e-05
3.6326e-07
1.04078e-05
3.47308e-07
1.01477e-05
3.33117e-07
9.89784e-06
3.20187e-07
9.65734e-06
3.08085e-07
9.42564e-06
2.96833e-07
9.20212e-06
2.86381e-07
8.98642e-06
2.76314e-07
8.77796e-06
2.67132e-07
8.57572e-06
2.59137e-07
8.37975e-06
2.51102e-07
8.18982e-06
2.43388e-07
8.00576e-06
2.35789e-07
7.82728e-06
2.28751e-07
7.65313e-06
2.23085e-07
7.48401e-06
2.16749e-07
7.31981e-06
2.10404e-07
7.15957e-06
2.05388e-07
7.00269e-06
2.00984e-07
6.84987e-06
1.95874e-07
6.70073e-06
1.91119e-07
6.55443e-06
1.87449e-07
6.4108e-06
1.84056e-07
6.27023e-06
1.8015e-07
6.13243e-06
1.76635e-07
5.99676e-06
1.73855e-07
5.8631e-06
1.71258e-07
5.73151e-06
1.68727e-07
5.60158e-06
1.66504e-07
5.47327e-06
1.64404e-07
5.34674e-06
1.62226e-07
5.2215e-06
1.60527e-07
5.09714e-06
1.59715e-07
4.97365e-06
1.57937e-07
4.8515e-06
1.56862e-07
4.73057e-06
1.54775e-07
4.61059e-06
1.54048e-07
4.49138e-06
1.52517e-07
4.37261e-06
1.52553e-07
4.25412e-06
1.51604e-07
1.50887e-07
0.000162124
-2.88173e-05
0.000166767
-6.27785e-06
0.000159762
1.32796e-05
0.000143349
2.8327e-05
0.000122299
3.53922e-05
0.0001057
2.72915e-05
9.52207e-05
1.71867e-05
8.64544e-05
1.44976e-05
7.80716e-05
1.37175e-05
7.12275e-05
1.11622e-05
6.56286e-05
9.12316e-06
6.08572e-05
7.78234e-06
5.65127e-05
7.04622e-06
5.28146e-05
6.03557e-06
4.96899e-05
5.14808e-06
4.67003e-05
4.88489e-06
4.38954e-05
4.56685e-06
4.14297e-05
4.02394e-06
3.93013e-05
3.51959e-06
3.73086e-05
3.24243e-06
3.55192e-05
2.92988e-06
3.39153e-05
2.617e-06
3.24728e-05
2.36168e-06
3.11703e-05
2.12704e-06
2.9989e-05
1.93373e-06
2.89096e-05
1.76333e-06
2.79195e-05
1.62032e-06
2.70048e-05
1.49539e-06
2.6155e-05
1.38969e-06
2.53621e-05
1.29716e-06
2.46185e-05
1.2164e-06
2.39177e-05
1.14645e-06
2.32557e-05
1.08347e-06
2.26277e-05
1.02794e-06
2.20301e-05
9.78272e-07
2.14595e-05
9.33798e-07
2.09138e-05
8.93026e-07
2.03908e-05
8.5617e-07
1.98887e-05
8.22264e-07
1.94048e-05
7.92019e-07
1.89383e-05
7.6331e-07
1.84896e-05
7.35081e-07
1.80563e-05
7.09584e-07
1.76372e-05
6.86216e-07
1.72314e-05
6.64975e-07
1.68376e-05
6.44864e-07
1.64562e-05
6.24864e-07
1.60865e-05
6.05439e-07
1.57276e-05
5.87693e-07
1.53782e-05
5.72476e-07
1.50383e-05
5.56675e-07
1.47085e-05
5.40196e-07
1.43866e-05
5.27228e-07
1.40716e-05
5.16038e-07
1.37643e-05
5.03148e-07
1.3465e-05
4.90466e-07
1.31714e-05
4.81039e-07
1.28834e-05
4.72065e-07
1.26007e-05
4.62766e-07
1.23241e-05
4.53323e-07
1.2052e-05
4.45869e-07
1.17838e-05
4.39493e-07
1.15191e-05
4.33397e-07
1.12583e-05
4.27379e-07
1.10013e-05
4.21353e-07
1.07473e-05
4.16287e-07
1.04957e-05
4.12034e-07
1.02462e-05
4.0951e-07
9.99862e-06
4.05286e-07
9.75344e-06
4.02207e-07
9.51076e-06
3.97318e-07
9.27005e-06
3.94946e-07
9.03083e-06
3.91552e-07
8.79276e-06
3.90815e-07
8.55531e-06
3.88881e-07
3.87132e-07
0.000259733
-5.88551e-05
0.000269677
-1.62228e-05
0.00026119
2.17657e-05
0.000236829
5.26885e-05
0.000204025
6.8197e-05
0.000177112
5.42045e-05
0.000159712
3.45865e-05
0.000145358
2.88516e-05
0.000131613
2.74621e-05
0.00012025
2.25257e-05
0.000110891
1.84815e-05
0.000102896
1.5778e-05
9.55023e-05
1.44395e-05
8.92794e-05
1.22585e-05
8.4125e-05
1.03024e-05
7.90876e-05
9.9223e-06
7.42875e-05
9.36895e-06
7.0124e-05
8.18554e-06
6.65956e-05
7.05387e-06
6.32257e-05
6.60656e-06
6.01996e-05
5.95787e-06
5.74826e-05
5.332e-06
5.50373e-05
4.80793e-06
5.28287e-05
4.33469e-06
5.08231e-05
3.93984e-06
4.89937e-05
3.59217e-06
4.73122e-05
3.30218e-06
4.57598e-05
3.04748e-06
4.43187e-05
2.83075e-06
4.29737e-05
2.64218e-06
4.17118e-05
2.47829e-06
4.05243e-05
2.33397e-06
3.94008e-05
2.20698e-06
3.83358e-05
2.09299e-06
3.73215e-05
1.99256e-06
3.63543e-05
1.90094e-06
3.54295e-05
1.8179e-06
3.4543e-05
1.74259e-06
3.36913e-05
1.67396e-06
3.28694e-05
1.61392e-06
3.20784e-05
1.55435e-06
3.13182e-05
1.49528e-06
3.05848e-05
1.44295e-06
2.98755e-05
1.39554e-06
2.91883e-05
1.3522e-06
2.85219e-05
1.31128e-06
2.78759e-05
1.27081e-06
2.725e-05
1.23138e-06
2.66427e-05
1.19498e-06
2.60514e-05
1.16375e-06
2.54763e-05
1.13185e-06
2.49175e-05
1.09894e-06
2.43727e-05
1.07203e-06
2.38398e-05
1.04899e-06
2.33202e-05
1.02272e-06
2.2813e-05
9.97672e-07
2.23162e-05
9.7788e-07
2.18284e-05
9.5979e-07
2.13507e-05
9.40512e-07
2.08823e-05
9.21726e-07
2.04217e-05
9.06452e-07
1.99674e-05
8.93786e-07
1.95201e-05
8.80733e-07
1.90789e-05
8.68608e-07
1.86437e-05
8.56489e-07
1.82138e-05
8.46242e-07
1.77886e-05
8.3722e-07
1.73666e-05
8.31672e-07
1.69476e-05
8.24157e-07
1.65331e-05
8.16837e-07
1.61225e-05
8.07743e-07
1.57158e-05
8.01854e-07
1.53112e-05
7.95998e-07
1.49082e-05
7.93985e-07
1.45067e-05
7.90207e-07
7.86139e-07
0.000375004
-0.000102915
0.000391104
-3.23221e-05
0.000381314
3.15557e-05
0.000349287
8.47159e-05
0.000304974
0.00011251
0.000267064
9.2115e-05
0.000241075
6.0575e-05
0.000219735
5.01924e-05
0.000200136
4.70603e-05
0.000183661
3.90007e-05
0.000169927
3.22157e-05
0.000158104
2.76012e-05
0.000147096
2.5448e-05
0.000137781
2.15732e-05
0.000130016
1.80674e-05
0.000122401
1.75369e-05
0.000115059
1.67126e-05
0.000108716
1.45272e-05
0.000103387
1.23885e-05
9.82229e-05
1.1765e-05
9.35733e-05
1.06093e-05
8.93897e-05
9.51373e-06
8.56182e-05
8.58025e-06
8.22073e-05
7.74467e-06
7.91051e-05
7.04265e-06
7.62703e-05
6.42643e-06
7.36642e-05
5.90854e-06
7.12549e-05
5.45653e-06
6.90159e-05
5.06968e-06
6.69259e-05
4.73218e-06
6.49646e-05
4.43958e-06
6.31165e-05
4.18213e-06
6.13695e-05
3.95396e-06
5.97116e-05
3.75091e-06
5.81349e-05
3.56927e-06
5.66296e-05
3.40619e-06
5.51893e-05
3.25822e-06
5.38098e-05
3.12205e-06
5.24845e-05
2.99933e-06
5.12009e-05
2.89752e-06
4.99657e-05
2.78948e-06
4.87859e-05
2.67514e-06
4.7646e-05
2.58278e-06
4.65439e-05
2.49769e-06
4.54752e-05
2.42089e-06
4.44395e-05
2.34698e-06
4.34352e-05
2.27508e-06
4.24623e-05
2.20429e-06
4.15177e-05
2.13955e-06
4.05974e-05
2.08413e-06
3.97034e-05
2.02587e-06
3.88348e-05
1.96754e-06
3.7987e-05
1.91979e-06
3.71587e-05
1.87732e-06
3.63494e-05
1.832e-06
3.55602e-05
1.78689e-06
3.47877e-05
1.75038e-06
3.40294e-05
1.71803e-06
3.32862e-05
1.68378e-06
3.25571e-05
1.65084e-06
3.18406e-05
1.6229e-06
3.11348e-05
1.59959e-06
3.04386e-05
1.57701e-06
2.97518e-05
1.55533e-06
2.90745e-05
1.53379e-06
2.84065e-05
1.51431e-06
2.77448e-05
1.49891e-06
2.70884e-05
1.48818e-06
2.64365e-05
1.47589e-06
2.57916e-05
1.46189e-06
2.51535e-05
1.44575e-06
2.45204e-05
1.43512e-06
2.38911e-05
1.42512e-06
2.32649e-05
1.4204e-06
2.26405e-05
1.41444e-06
1.40716e-06
0.000504513
-0.000160927
0.000525095
-5.29059e-05
0.000511793
4.48571e-05
0.000471187
0.000125322
0.000416213
0.000167484
0.000368651
0.000139677
0.000334476
9.47504e-05
0.000306122
7.85459e-05
0.000281091
7.20915e-05
0.000259746
6.03457e-05
0.000241718
5.02444e-05
0.000226032
4.32871e-05
0.000211685
3.97943e-05
0.00019911
3.41486e-05
0.000188085
2.9092e-05
0.000177611
2.80114e-05
0.000167564
2.67611e-05
0.000158725
2.33645e-05
0.000151107
2.00105e-05
0.000143823
1.90444e-05
0.000137227
1.72068e-05
0.000131265
1.54738e-05
0.000125869
1.39773e-05
0.000120969
1.26446e-05
0.0001165
1.15117e-05
0.000112402
1.05243e-05
0.000108627
9.68314e-06
0.000105128
8.95562e-06
0.000101871
8.32634e-06
9.88238e-05
7.77964e-06
9.59602e-05
7.30319e-06
9.32584e-05
6.88398e-06
9.0702e-05
6.51032e-06
8.82729e-05
6.18003e-06
8.59587e-05
5.88339e-06
8.37495e-05
5.61543e-06
8.1636e-05
5.37178e-06
7.96072e-05
5.15083e-06
7.76585e-05
4.94801e-06
7.57612e-05
4.79479e-06
7.39379e-05
4.61281e-06
7.22047e-05
4.40837e-06
7.05313e-05
4.25617e-06
6.89107e-05
4.11824e-06
6.73404e-05
3.99127e-06
6.58163e-05
3.87106e-06
6.43372e-05
3.75413e-06
6.29041e-05
3.63744e-06
6.15121e-05
3.53149e-06
6.01574e-05
3.4389e-06
5.88381e-05
3.34516e-06
5.75578e-05
3.24783e-06
5.63079e-05
3.1697e-06
5.50849e-05
3.10032e-06
5.3892e-05
3.0249e-06
5.27283e-05
2.95057e-06
5.15874e-05
2.89133e-06
5.04669e-05
2.83852e-06
4.93696e-05
2.78104e-06
4.82937e-05
2.72679e-06
4.72353e-05
2.68126e-06
4.61921e-05
2.64278e-06
4.51638e-05
2.60536e-06
4.41499e-05
2.56918e-06
4.31496e-05
2.53417e-06
4.21613e-05
2.50258e-06
4.11833e-05
2.47687e-06
4.02134e-05
2.45828e-06
3.92509e-05
2.43821e-06
3.82969e-05
2.41605e-06
3.73538e-05
2.38876e-06
3.64173e-05
2.37182e-06
3.54873e-05
2.35494e-06
3.45611e-05
2.34672e-06
3.36381e-05
2.33736e-06
2.32512e-06
0.000647529
-0.000232684
0.000670759
-7.61394e-05
0.000651258
6.43581e-05
0.000599615
0.000176964
0.000532447
0.000234652
0.000475009
0.000197115
0.000433808
0.000135952
0.000399772
0.000112582
0.000369975
0.000101888
0.000344435
8.58857e-05
0.000322712
7.19679e-05
0.00030366
6.23389e-05
0.000286746
5.67081e-05
0.000271219
4.9676e-05
0.000256764
4.3547e-05
0.000243562
4.12133e-05
0.00023125
3.90745e-05
0.000219944
3.46692e-05
0.000209638
3.03201e-05
0.000200148
2.85311e-05
0.000191505
2.58503e-05
0.000183644
2.33335e-05
0.000176485
2.11374e-05
0.000169947
1.91822e-05
0.000163952
1.7507e-05
0.000158431
1.60444e-05
0.000153319
1.47959e-05
0.000148565
1.37092e-05
0.000144121
1.277e-05
0.000139949
1.19521e-05
0.000136015
1.12365e-05
0.000132295
1.06041e-05
0.000128764
1.00418e-05
0.0001254
9.54346e-06
0.000122191
9.09296e-06
0.000119119
8.68758e-06
0.000116173
8.31726e-06
0.000113344
7.97997e-06
0.000110621
7.67094e-06
0.000107963
7.45292e-06
0.000105404
7.17157e-06
0.000102974
6.83807e-06
0.000100626
6.60479e-06
9.83527e-05
6.39133e-06
9.61446e-05
6.19928e-06
9.39999e-05
6.01585e-06
9.19181e-05
5.83593e-06
8.98988e-05
5.65674e-06
8.79363e-05
5.49392e-06
8.60229e-05
5.35229e-06
8.41609e-05
5.20718e-06
8.23493e-05
5.05944e-06
8.05821e-05
4.93697e-06
7.88516e-05
4.83082e-06
7.71611e-05
4.71533e-06
7.55119e-05
4.59982e-06
7.38952e-05
4.50799e-06
7.23068e-05
4.42691e-06
7.07487e-05
4.3392e-06
6.92209e-05
4.25458e-06
6.77174e-05
4.18472e-06
6.62365e-05
4.12368e-06
6.47742e-05
4.06766e-06
6.33313e-05
4.01209e-06
6.19088e-05
3.95666e-06
6.05031e-05
3.90829e-06
5.91117e-05
3.86826e-06
5.77302e-05
3.83995e-06
5.63588e-05
3.80947e-06
5.50003e-05
3.77474e-06
5.36553e-05
3.73358e-06
5.2321e-05
3.70632e-06
5.09947e-05
3.68105e-06
4.96743e-05
3.66726e-06
4.83577e-05
3.65387e-06
3.63525e-06
0.000806045
-0.000319151
0.000831362
-0.000101461
0.000803927
9.17929e-05
0.000738931
0.00024196
0.000657003
0.00031658
0.000587593
0.000266525
0.000538695
0.00018485
0.000499051
0.000152226
0.000464368
0.000136571
0.00043477
0.000115483
0.000409655
9.70829e-05
0.000387621
8.4373e-05
0.000368255
7.60737e-05
0.000350183
6.77484e-05
0.00033299
6.07399e-05
0.00031743
5.67731e-05
0.000303229
5.32764e-05
0.000289756
4.81416e-05
0.00027697
4.31093e-05
0.000265495
4.00022e-05
0.000254975
3.63716e-05
0.000245343
3.29641e-05
0.000236516
2.99658e-05
0.000228405
2.72917e-05
0.000220929
2.49842e-05
0.000214001
2.29712e-05
0.000207558
2.12398e-05
0.000201532
1.9735e-05
0.000195871
1.84308e-05
0.000190536
1.72871e-05
0.000185483
1.62895e-05
0.000180682
1.54048e-05
0.000176107
1.4617e-05
0.000171737
1.39134e-05
0.000167548
1.32825e-05
0.000163528
1.27077e-05
0.00015966
1.21845e-05
0.000155933
1.17069e-05
0.000152337
1.12668e-05
0.000148834
1.09563e-05
0.000145449
1.05566e-05
0.000142206
1.00808e-05
0.000139068
9.74339e-06
0.000136021
9.43778e-06
0.000133062
9.15889e-06
0.000130184
8.8938e-06
0.000127383
8.63686e-06
0.00012466
8.37896e-06
0.000122012
8.14214e-06
0.000119427
7.93739e-06
0.000116905
7.72952e-06
0.000114451
7.5132e-06
0.000112051
7.33728e-06
0.000109699
7.18261e-06
0.0001074
7.01445e-06
0.000105151
6.84864e-06
0.000102945
6.71396e-06
0.000100777
6.59518e-06
9.86475e-05
6.46856e-06
9.65559e-05
6.34613e-06
9.44971e-05
6.24358e-06
9.24655e-05
6.15522e-06
9.04591e-05
6.07409e-06
8.84792e-05
5.99204e-06
8.65229e-05
5.91296e-06
8.45891e-05
5.84208e-06
8.2673e-05
5.78435e-06
8.07698e-05
5.74327e-06
7.88794e-05
5.69974e-06
7.70044e-05
5.64992e-06
7.5147e-05
5.59088e-06
7.33038e-05
5.54964e-06
7.14708e-05
5.51393e-06
6.96431e-05
5.49506e-06
6.78214e-05
5.47552e-06
5.44959e-06
0.000983182
0.00101127
-0.000129553
0.000974964
0.000128097
0.000894531
0.000322394
0.000795078
0.000416033
0.000711118
0.000350485
0.000652612
0.000243356
0.00060608
0.000198758
0.00056558
0.000177071
0.00053128
0.000149783
0.00050237
0.000125993
0.000477134
0.000109609
0.000454867
9.83409e-05
0.000434248
8.83677e-05
0.000414794
8.0194e-05
0.000397025
7.4542e-05
0.000380797
6.95049e-05
0.000365364
6.35741e-05
0.000350671
5.7804e-05
0.000337444
5.32273e-05
0.000325289
4.8527e-05
0.000314119
4.41338e-05
0.000303839
4.02461e-05
0.000294357
3.67727e-05
0.000285579
3.37624e-05
0.000277412
3.11384e-05
0.000269779
2.88727e-05
0.000262609
2.69046e-05
0.000255851
2.51895e-05
0.000249446
2.36915e-05
0.00024336
2.23763e-05
0.000237552
2.12122e-05
0.000231996
2.01734e-05
0.000226664
1.92449e-05
0.00022154
1.84067e-05
0.000216599
1.76489e-05
0.000211829
1.69545e-05
0.000207218
1.63179e-05
0.000202751
1.57332e-05
0.000198424
1.52838e-05
0.000194222
1.47591e-05
0.000190134
1.41685e-05
0.000186163
1.37146e-05
0.0001823
1.33007e-05
0.000178541
1.29174e-05
0.000174876
1.25595e-05
0.000171304
1.22087e-05
0.000167821
1.18614e-05
0.000164424
1.15397e-05
0.000161099
1.12626e-05
0.000157847
1.0981e-05
0.000154675
1.06853e-05
0.000151568
1.04449e-05
0.000148516
1.0234e-05
0.000145523
1.00079e-05
0.000142592
9.77913e-06
0.000139712
9.59411e-06
0.000136874
9.43331e-06
0.000134082
9.26028e-06
0.000131335
9.0934e-06
0.000128627
8.95136e-06
0.000125949
8.83306e-06
0.000123301
8.72227e-06
0.000120682
8.61115e-06
0.000118092
8.5033e-06
0.000115525
8.40827e-06
0.000112981
8.32921e-06
0.000110451
8.273e-06
0.000107933
8.21803e-06
0.000105432
8.15059e-06
0.000102951
8.07171e-06
0.000100485
8.01617e-06
9.80288e-05
7.96974e-06
9.55814e-05
7.9426e-06
9.31342e-05
7.92259e-06
7.88738e-06
0.00121486
0.00116944
0.000173519
0.00107157
0.000420266
0.000951651
0.000535951
0.000850242
0.000451893
0.00077978
0.000313818
0.000724572
0.000253967
0.000676907
0.000224736
0.000636815
0.000189874
0.000603256
0.000159553
0.000574151
0.000138713
0.000548389
0.000124103
0.000524798
0.000111958
0.000502815
0.000102177
0.000482585
9.47719e-05
0.000463969
8.81214e-05
0.000446443
8.11e-05
0.000429947
7.43013e-05
0.000414965
6.82082e-05
0.000401194
6.22981e-05
0.000388546
5.67814e-05
0.000376901
5.18913e-05
0.000366152
4.7522e-05
0.000356183
4.37316e-05
0.000346899
4.0422e-05
0.0003382
3.75714e-05
0.000330021
3.50837e-05
0.000322285
3.29253e-05
0.000314942
3.10348e-05
0.000307943
2.93752e-05
0.000301249
2.79064e-05
0.000294824
2.65984e-05
0.000288645
2.5423e-05
0.000282684
2.43679e-05
0.000276925
2.34085e-05
0.000271349
2.253e-05
0.000265941
2.17261e-05
0.00026069
2.0984e-05
0.00025561
2.0364e-05
0.000250657
1.9712e-05
0.000245798
1.9028e-05
0.000241057
1.84559e-05
0.00023643
1.79272e-05
0.000231916
1.74318e-05
0.000227506
1.69688e-05
0.000223192
1.65226e-05
0.000218976
1.60777e-05
0.000214849
1.56669e-05
0.000210799
1.53127e-05
0.000206828
1.49519e-05
0.000202938
1.45749e-05
0.00019912
1.42628e-05
0.000195359
1.39953e-05
0.000191662
1.37052e-05
0.00018803
1.34104e-05
0.000184451
1.31734e-05
0.000180916
1.29683e-05
0.000177428
1.27479e-05
0.000173989
1.25329e-05
0.000170589
1.23517e-05
0.00016722
1.22017e-05
0.000163879
1.20631e-05
0.000160567
1.19235e-05
0.000157283
1.17869e-05
0.000154024
1.16678e-05
0.000150784
1.15689e-05
0.000147554
1.15028e-05
0.000144333
1.14389e-05
0.000141128
1.13559e-05
0.000137939
1.12605e-05
0.000134765
1.11909e-05
0.000131598
1.11362e-05
0.000128433
1.11083e-05
0.000125265
1.10897e-05
1.10525e-05
0.00139239
0.00127522
0.000537438
0.00113158
0.000679584
0.00100953
0.000573945
0.000924444
0.000398907
0.000858499
0.000319912
0.000802079
0.000281156
0.000754894
0.00023706
0.000715619
0.000198827
0.000681759
0.000172574
0.000651797
0.000154065
0.000624583
0.000139172
0.000599446
0.000127314
0.000576249
0.00011797
0.000554815
0.000109555
0.000534799
0.000101116
0.000516149
9.29521e-05
0.00049912
8.52364e-05
0.000483507
7.7911e-05
0.000469182
7.11059e-05
0.000456024
6.50496e-05
0.000443893
5.96534e-05
0.000432654
5.49699e-05
0.000422192
5.08844e-05
0.000412401
4.7362e-05
0.000403188
4.42969e-05
0.000394478
4.16354e-05
0.000386206
3.93072e-05
0.000378316
3.72646e-05
0.000370765
3.54575e-05
0.000363515
3.38482e-05
0.000356531
3.24076e-05
0.000349789
3.11093e-05
0.000343265
2.99326e-05
0.000336939
2.88563e-05
0.000330797
2.78682e-05
0.000324821
2.696e-05
0.000319032
2.61526e-05
0.00031338
2.5364e-05
0.000307825
2.45832e-05
0.000302396
2.3885e-05
0.000297087
2.32362e-05
0.000291895
2.26238e-05
0.000286813
2.20508e-05
0.00028183
2.15055e-05
0.000276948
2.09599e-05
0.00027216
2.04545e-05
0.000267448
2.0025e-05
0.000262818
1.95821e-05
0.000258275
1.91178e-05
0.0002538
1.87374e-05
0.000249381
1.8414e-05
0.00024503
1.80571e-05
0.00024074
1.76996e-05
0.000236503
1.7411e-05
0.000232308
1.71627e-05
0.000228159
1.6897e-05
0.000224057
1.66355e-05
0.000219989
1.64197e-05
0.000215947
1.6243e-05
0.000211931
1.60794e-05
0.000207938
1.59165e-05
0.000203969
1.57564e-05
0.000200019
1.56175e-05
0.000196079
1.55085e-05
0.000192145
1.54374e-05
0.000188208
1.53756e-05
0.00018428
1.52837e-05
0.000180364
1.51773e-05
0.000176453
1.51019e-05
0.00017254
1.50487e-05
0.000168619
1.50295e-05
0.000164684
1.50241e-05
1.4994e-05
0.00151093
0.000674261
0.00134007
0.000850448
0.0011937
0.00072031
0.00109096
0.000501652
0.00101193
0.000398941
0.000944921
0.000348163
0.000889146
0.000292834
0.000842917
0.000245056
0.000803269
0.000212222
0.000768277
0.000189057
0.000736667
0.000170782
0.000707638
0.000156343
0.000680847
0.00014476
0.00065607
0.000134332
0.000633047
0.000124139
0.000611725
0.000114275
0.000592217
0.000104743
0.000574373
9.57558e-05
0.000558041
8.74367e-05
0.00054306
8.00309e-05
0.000529273
7.34404e-05
0.000516529
6.77141e-05
0.00050468
6.27327e-05
0.000493605
5.84378e-05
0.000483195
5.47068e-05
0.000473368
5.14623e-05
0.000464042
4.86327e-05
0.00045515
4.61567e-05
0.000446645
4.39632e-05
0.00043848
4.20123e-05
0.000430619
4.02688e-05
0.00042303
3.86984e-05
0.000415688
3.72751e-05
0.00040857
3.59743e-05
0.000401655
3.47834e-05
0.000394926
3.36889e-05
0.000388391
3.26876e-05
0.000382014
3.17408e-05
0.000375758
3.08391e-05
0.000369643
3.00003e-05
0.00036366
2.92193e-05
0.000357801
2.84821e-05
0.000352061
2.77909e-05
0.000346431
2.7136e-05
0.000340908
2.64828e-05
0.000335484
2.58787e-05
0.000330145
2.53635e-05
0.000324889
2.48383e-05
0.000319724
2.42828e-05
0.000314633
2.38281e-05
0.0003096
2.34467e-05
0.00030463
2.30274e-05
0.000299731
2.25988e-05
0.000294883
2.22589e-05
0.000290073
2.19727e-05
0.000285308
2.1662e-05
0.000280587
2.13567e-05
0.0002759
2.11063e-05
0.000271234
2.09089e-05
0.000266587
2.07265e-05
0.000261957
2.05464e-05
0.000257347
2.03673e-05
0.000252746
2.0218e-05
0.000248152
2.01024e-05
0.00024355
2.00401e-05
0.000238938
1.99875e-05
0.000234321
1.99004e-05
0.00022971
1.97883e-05
0.00022509
1.97223e-05
0.000220458
1.968e-05
0.000215805
1.96831e-05
0.000211122
1.97068e-05
1.96971e-05
0.00178459
0.000831738
0.00158276
0.00105228
0.001408
0.000895073
0.00128408
0.000625565
0.00118921
0.000493814
0.00110945
0.000427924
0.00104332
0.000358964
0.000988709
0.000299666
0.000942091
0.000258841
0.000901081
0.000230066
0.000864203
0.000207661
0.000830471
0.000190075
0.000799389
0.000175843
0.000770652
0.000163069
0.000744032
0.000150759
0.000719453
0.000138855
0.000696978
0.000127217
0.000676435
0.000116299
0.000657662
0.000106209
0.000640478
9.72149e-05
0.000624691
8.92281e-05
0.000610113
8.22915e-05
0.000596585
7.62614e-05
0.000583959
7.10632e-05
0.000572109
6.65573e-05
0.000560928
6.26427e-05
0.00055033
5.92304e-05
0.000540239
5.6248e-05
0.000530597
5.36056e-05
0.000521346
5.12633e-05
0.000512447
4.91676e-05
0.000503861
4.72841e-05
0.000495558
4.55783e-05
0.00048751
4.40223e-05
0.000479699
4.25948e-05
0.000472102
4.12852e-05
0.000464713
4.0077e-05
0.000457502
3.89512e-05
0.000450452
3.78899e-05
0.000443559
3.68933e-05
0.000436815
3.59624e-05
0.000430218
3.50794e-05
0.000423749
3.426e-05
0.000417403
3.34822e-05
0.000411182
3.27038e-05
0.000405071
3.19897e-05
0.00039905
3.13841e-05
0.000393125
3.07632e-05
0.000387306
3.01027e-05
0.000381564
2.95699e-05
0.000375885
2.91257e-05
0.000370279
2.86336e-05
0.000364747
2.81305e-05
0.00035927
2.77359e-05
0.000353836
2.74061e-05
0.000348446
2.70521e-05
0.000343106
2.6697e-05
0.000337797
2.64151e-05
0.00033251
2.61956e-05
0.000327241
2.5996e-05
0.000321984
2.58028e-05
0.000316744
2.56077e-05
0.000311513
2.54491e-05
0.00030628
2.53353e-05
0.000301035
2.52848e-05
0.000295767
2.52553e-05
0.000290493
2.5175e-05
0.000285211
2.50704e-05
0.000279916
2.5017e-05
0.000274598
2.49979e-05
0.000269246
2.50357e-05
0.000263852
2.51006e-05
0.00210246
0.00100749
0.00186601
0.00128874
0.00165836
0.00110272
0.00150921
0.000774712
0.00139524
0.000607792
0.00130013
0.000523027
0.00122157
0.000437526
0.00115687
0.000364369
0.00110187
0.000313839
0.00105368
0.000278256
0.00101052
0.000250824
0.00097119
0.000229401
0.00093501
0.000212023
0.000901598
0.000196481
0.000870708
0.00018165
0.000842249
0.000167314
0.000816223
0.000153243
0.000792469
0.000140053
0.000770786
0.000127892
0.000750957
0.000117044
0.000732761
0.000107424
0.000715987
9.90651e-05
0.000700436
9.18123e-05
0.000685937
8.55623e-05
0.000672343
8.0152e-05
0.000659534
7.54511e-05
0.000647405
7.13593e-05
0.000635869
6.77845e-05
0.000624849
6.46249e-05
0.00061429
6.18232e-05
0.00060414
5.93174e-05
0.000594354
5.70698e-05
0.000584894
5.50383e-05
0.000575735
5.31818e-05
0.000566848
5.14813e-05
0.000558207
4.99263e-05
0.000549801
4.84834e-05
0.00054161
4.71422e-05
0.000533608
4.58914e-05
0.000525788
4.4713e-05
0.000518142
4.36087e-05
0.000510662
4.25596e-05
0.000503334
4.15875e-05
0.000496149
4.0668e-05
0.000489102
3.97503e-05
0.000482187
3.89052e-05
0.000475375
3.81956e-05
0.000468675
3.74633e-05
0.000462091
3.66863e-05
0.000455601
3.60607e-05
0.00044918
3.5546e-05
0.000442844
3.49699e-05
0.000436594
3.438e-05
0.000430406
3.39243e-05
0.000424263
3.35493e-05
0.000418178
3.31368e-05
0.000412143
3.27319e-05
0.000406147
3.24112e-05
0.000400175
3.21678e-05
0.000394219
3.19524e-05
0.000388282
3.17391e-05
0.000382359
3.15314e-05
0.000376445
3.13624e-05
0.000370528
3.12526e-05
0.000364594
3.12186e-05
0.000358639
3.12107e-05
0.000352666
3.11481e-05
0.000346687
3.10487e-05
0.000340691
3.10135e-05
0.000334662
3.10263e-05
0.000328593
3.11051e-05
3.12239e-05
0.00247092
0.00119422
0.00219674
0.00156292
0.00195161
0.00134784
0.00177261
0.000953721
0.00163562
0.00074478
0.00152206
0.000636579
0.00142856
0.000531027
0.00135174
0.000441193
0.00128669
0.000378888
0.00122992
0.000335025
0.00117928
0.000301469
0.0011333
0.000275382
0.0010911
0.000254217
0.00105219
0.000235394
0.00101627
0.000217572
0.000983215
0.000200367
0.000953001
0.000183457
0.000925439
0.000167615
0.000900306
0.000153025
0.000877337
0.000140013
0.00085628
0.000128481
0.00083688
0.000118466
0.000818912
0.00010978
0.00080218
0.000102295
0.00078651
9.58218e-05
0.00077175
9.02116e-05
0.000757789
8.53196e-05
0.000744519
8.10549e-05
0.000731855
7.72884e-05
0.000719728
7.39507e-05
0.000708077
7.09687e-05
0.000696853
6.82932e-05
0.000686012
6.58795e-05
0.000675519
6.36747e-05
0.000665343
6.16572e-05
0.000655457
5.98126e-05
0.000645841
5.80994e-05
0.000636471
5.65117e-05
0.00062733
5.50325e-05
0.0006184
5.36429e-05
0.000609673
5.23365e-05
0.000601138
5.10941e-05
0.000592782
4.99435e-05
0.000584587
4.88627e-05
0.000576557
4.77804e-05
0.000568679
4.67831e-05
0.000560924
4.59505e-05
0.000553294
4.50935e-05
0.000545807
4.41739e-05
0.000538423
4.34441e-05
0.000531124
4.28457e-05
0.000523921
4.2173e-05
0.000516819
4.1482e-05
0.000509788
4.09551e-05
0.000502815
4.0522e-05
0.000495903
4.00495e-05
0.000489055
3.95792e-05
0.000482251
3.92155e-05
0.000475473
3.89455e-05
0.000468719
3.87071e-05
0.000461984
3.84739e-05
0.00045527
3.82452e-05
0.000448567
3.80655e-05
0.000441862
3.79571e-05
0.000435138
3.79426e-05
0.000428386
3.79627e-05
0.000421623
3.79116e-05
0.000414852
3.78197e-05
0.000408057
3.7808e-05
0.000401231
3.7853e-05
0.000394356
3.79801e-05
3.8157e-05
0.00289628
0.00137783
0.00258222
0.00187698
0.0022956
0.00163446
0.00208156
0.00116776
0.00191695
0.000909391
0.00178122
0.000772313
0.00166975
0.000642493
0.00157835
0.000532594
0.00150123
0.000456013
0.0014342
0.00040205
0.00137465
0.000361019
0.00132079
0.000329245
0.00127148
0.000303521
0.00122608
0.000280796
0.00118424
0.000259412
0.00114578
0.000238829
0.00111063
0.000218606
0.00107858
0.000199661
0.00104937
0.000182241
0.00102269
0.000166695
0.000998243
0.000152925
0.000975738
0.000140971
0.000954913
0.000130605
0.000935531
0.000121677
0.000917389
0.000113964
0.000900322
0.000107278
0.000884186
0.000101456
0.000868862
9.63792e-05
0.000854244
9.19057e-05
0.000840261
8.79346e-05
0.000826828
8.4401e-05
0.000813897
8.12244e-05
0.000801412
7.83644e-05
0.000789336
7.57507e-05
0.000777631
7.33629e-05
0.000766261
7.11816e-05
0.000755208
6.91528e-05
0.000744443
6.72764e-05
0.000733943
6.55327e-05
0.000723693
6.38929e-05
0.000713679
6.23502e-05
0.00070389
6.08837e-05
0.000694305
5.95281e-05
0.000684913
5.82552e-05
0.000675714
5.69794e-05
0.00066669
5.58069e-05
0.000657809
5.48318e-05
0.000649079
5.38235e-05
0.000640506
5.27463e-05
0.000632061
5.18895e-05
0.000623715
5.11915e-05
0.000615479
5.04091e-05
0.000607364
4.95972e-05
0.000599334
4.8985e-05
0.000591367
4.84884e-05
0.000583477
4.79395e-05
0.000575658
4.73981e-05
0.000567894
4.69797e-05
0.000560166
4.66741e-05
0.00055246
4.64125e-05
0.000544782
4.61525e-05
0.000537128
4.58988e-05
0.00052949
4.57037e-05
0.000521853
4.55941e-05
0.000514194
4.56016e-05
0.000506506
4.56508e-05
0.000498806
4.56117e-05
0.000491098
4.55274e-05
0.000483372
4.55336e-05
0.000475607
4.56188e-05
0.000467789
4.57977e-05
4.60411e-05
0.00338319
0.00153659
0.00303008
0.0022301
0.00269925
0.00196529
0.00244467
0.00142234
0.00224705
0.00110702
0.00208466
0.000934699
0.00195158
0.00077557
0.00184261
0.000641566
0.00175097
0.000547653
0.00167164
0.000481375
0.00160146
0.000431202
0.00153823
0.000392477
0.00148052
0.000361232
0.00142748
0.000333831
0.00137866
0.000308236
0.00133384
0.000283652
0.00129288
0.000259568
0.00125554
0.000236999
0.00122151
0.000216266
0.00119045
0.000197753
0.00116201
0.000181372
0.00113584
0.000167136
0.00111164
0.000154807
0.00108913
0.000144188
0.00106807
0.000135022
0.00104828
0.000127068
0.00102958
0.000120159
0.00101182
0.000114133
0.000994903
0.000108825
0.00097872
0.000104118
0.000963193
9.99283e-05
0.000948244
9.61729e-05
0.000933825
9.27838e-05
0.00091988
8.96954e-05
0.000906367
8.68766e-05
0.000893252
8.42959e-05
0.000880503
8.19025e-05
0.000868089
7.96899e-05
0.000855988
7.76334e-05
0.000844179
7.5702e-05
0.000832645
7.3884e-05