/*--------------------------------*- C++ -*----------------------------------*\
| =========                 |                                                 |
| \\      /  F ield         | OpenFOAM: The Open Source CFD Toolbox           |
|  \\    /   O peration     | Version:  2412                                  |
|   \\  /    A nd           | Website:  www.openfoam.com                      |
|    \\/     M anipulation  |                                                 |
\*---------------------------------------------------------------------------*/
FoamFile
{
    version     2.0;
    format      ascii;
    arch        "LSB;label=32;scalar=64";
    class       volScalarField;
    location    "240";
    object      nut;
}
// * * * * * * * * * * * * * * * * * * * * * * * * * * * * * * * * * * * * * //

dimensions      [0 2 -1 0 0 0 0];

internalField   nonuniform List<scalar> 
8702
(
7.47477e-12
7.47366e-12
7.47224e-12
7.47175e-12
7.47169e-12
7.47224e-12
7.47361e-12
7.47401e-12
7.47352e-12
7.47315e-12
7.47266e-12
7.47163e-12
7.47017e-12
7.46886e-12
7.46724e-12
7.4659e-12
7.46412e-12
7.46231e-12
7.46117e-12
7.45912e-12
7.45673e-12
7.45457e-12
7.45199e-12
7.44922e-12
7.44682e-12
7.44412e-12
7.44103e-12
7.43819e-12
7.43526e-12
7.43187e-12
7.42874e-12
7.42573e-12
7.42212e-12
7.41881e-12
7.41544e-12
7.41115e-12
7.40736e-12
7.40364e-12
7.39973e-12
7.39606e-12
7.39212e-12
7.38811e-12
7.38383e-12
7.37931e-12
7.37536e-12
7.37136e-12
7.36723e-12
7.36276e-12
7.35822e-12
7.35333e-12
7.34817e-12
7.34352e-12
7.33877e-12
7.33402e-12
7.32932e-12
7.32504e-12
7.32057e-12
7.31595e-12
7.31164e-12
7.30831e-12
7.30519e-12
7.30198e-12
7.2998e-12
7.29897e-12
7.29997e-12
7.30184e-12
7.30503e-12
7.30837e-12
7.31215e-12
7.32124e-12
7.34038e-12
7.36922e-12
7.39825e-12
7.41913e-12
7.42589e-12
7.43275e-12
7.47281e-12
7.566e-12
7.73896e-12
7.9667e-12
8.16752e-12
8.29682e-12
6.75073e-10
6.75034e-10
6.74931e-10
6.74915e-10
6.74954e-10
6.75031e-10
6.75161e-10
6.75247e-10
6.75252e-10
6.75238e-10
6.75201e-10
6.75126e-10
6.75021e-10
6.74911e-10
6.74782e-10
6.74674e-10
6.74539e-10
6.74389e-10
6.74257e-10
6.74087e-10
6.73902e-10
6.73702e-10
6.73484e-10
6.73243e-10
6.73022e-10
6.72777e-10
6.72498e-10
6.72236e-10
6.71953e-10
6.71648e-10
6.71347e-10
6.71046e-10
6.70715e-10
6.70376e-10
6.70046e-10
6.69676e-10
6.6931e-10
6.68949e-10
6.68579e-10
6.6822e-10
6.67841e-10
6.67445e-10
6.6703e-10
6.6661e-10
6.66217e-10
6.65801e-10
6.65376e-10
6.64928e-10
6.6448e-10
6.64026e-10
6.63554e-10
6.63084e-10
6.62605e-10
6.62139e-10
6.61677e-10
6.61222e-10
6.60762e-10
6.60324e-10
6.59911e-10
6.59549e-10
6.59223e-10
6.58906e-10
6.58664e-10
6.5854e-10
6.58563e-10
6.58696e-10
6.58936e-10
6.59181e-10
6.59499e-10
6.60263e-10
6.6185e-10
6.64248e-10
6.66727e-10
6.68607e-10
6.69347e-10
6.70043e-10
6.73385e-10
6.81113e-10
6.9538e-10
7.14262e-10
7.31351e-10
7.42848e-10
5.94875e-09
5.94936e-09
5.94898e-09
5.94909e-09
5.94978e-09
5.95082e-09
5.95232e-09
5.95361e-09
5.95422e-09
5.95445e-09
5.95439e-09
5.95403e-09
5.95339e-09
5.95264e-09
5.95165e-09
5.95075e-09
5.94979e-09
5.9486e-09
5.94738e-09
5.94604e-09
5.94453e-09
5.94276e-09
5.9409e-09
5.93884e-09
5.93678e-09
5.93454e-09
5.93207e-09
5.92957e-09
5.92689e-09
5.92416e-09
5.92127e-09
5.91828e-09
5.9152e-09
5.91197e-09
5.90871e-09
5.90529e-09
5.90176e-09
5.89815e-09
5.89455e-09
5.89099e-09
5.88723e-09
5.88329e-09
5.87921e-09
5.87514e-09
5.87109e-09
5.86686e-09
5.86255e-09
5.85803e-09
5.85347e-09
5.84889e-09
5.84422e-09
5.83945e-09
5.83459e-09
5.82987e-09
5.82517e-09
5.82042e-09
5.81568e-09
5.81117e-09
5.80692e-09
5.80298e-09
5.79936e-09
5.79593e-09
5.79306e-09
5.79115e-09
5.79047e-09
5.79089e-09
5.79212e-09
5.79358e-09
5.79588e-09
5.80157e-09
5.81351e-09
5.83185e-09
5.85163e-09
5.8676e-09
5.87532e-09
5.88241e-09
5.90837e-09
5.96716e-09
6.07464e-09
6.21809e-09
6.35332e-09
6.45059e-09
2.53804e-08
2.53889e-08
2.53905e-08
2.53924e-08
2.53971e-08
2.54038e-08
2.54125e-08
2.54207e-08
2.54261e-08
2.54294e-08
2.5431e-08
2.54312e-08
2.54299e-08
2.54278e-08
2.54248e-08
2.54217e-08
2.54182e-08
2.54139e-08
2.54094e-08
2.54041e-08
2.53978e-08
2.53903e-08
2.53824e-08
2.53738e-08
2.53645e-08
2.53543e-08
2.53433e-08
2.53316e-08
2.53193e-08
2.53067e-08
2.52931e-08
2.5279e-08
2.52645e-08
2.52491e-08
2.52333e-08
2.5217e-08
2.52001e-08
2.51826e-08
2.51651e-08
2.51473e-08
2.51286e-08
2.51092e-08
2.50892e-08
2.50689e-08
2.50484e-08
2.50272e-08
2.50054e-08
2.49826e-08
2.49596e-08
2.49361e-08
2.49123e-08
2.48881e-08
2.48635e-08
2.48391e-08
2.48145e-08
2.47899e-08
2.47654e-08
2.47415e-08
2.47186e-08
2.46968e-08
2.46762e-08
2.46568e-08
2.46395e-08
2.46256e-08
2.46164e-08
2.4612e-08
2.46111e-08
2.46119e-08
2.46164e-08
2.46329e-08
2.46715e-08
2.47339e-08
2.48048e-08
2.48654e-08
2.49004e-08
2.49327e-08
2.50249e-08
2.52292e-08
2.55977e-08
2.60942e-08
2.65857e-08
2.69668e-08
7.47086e-08
7.47545e-08
7.47722e-08
7.47841e-08
7.48045e-08
7.48324e-08
7.48669e-08
7.49001e-08
7.49251e-08
7.49431e-08
7.49553e-08
7.49617e-08
7.49627e-08
7.4961e-08
7.49567e-08
7.49509e-08
7.49429e-08
7.49331e-08
7.49219e-08
7.49075e-08
7.48894e-08
7.48682e-08
7.48448e-08
7.48186e-08
7.47897e-08
7.47577e-08
7.47228e-08
7.46855e-08
7.4646e-08
7.46046e-08
7.45604e-08
7.4514e-08
7.44652e-08
7.44141e-08
7.43612e-08
7.43058e-08
7.42485e-08
7.41897e-08
7.41294e-08
7.40676e-08
7.40029e-08
7.39358e-08
7.38667e-08
7.37957e-08
7.37231e-08
7.36481e-08
7.35703e-08
7.34902e-08
7.34087e-08
7.33251e-08
7.32398e-08
7.31531e-08
7.30647e-08
7.29759e-08
7.28864e-08
7.27963e-08
7.2706e-08
7.2617e-08
7.25297e-08
7.2445e-08
7.23636e-08
7.22856e-08
7.22127e-08
7.21482e-08
7.20955e-08
7.2056e-08
7.2027e-08
7.20042e-08
7.19916e-08
7.20071e-08
7.20747e-08
7.22008e-08
7.23554e-08
7.24974e-08
7.25918e-08
7.26809e-08
7.28899e-08
7.33451e-08
7.41562e-08
7.52591e-08
7.64121e-08
7.73826e-08
1.74375e-07
1.74541e-07
1.7462e-07
1.74669e-07
1.74736e-07
1.74823e-07
1.74927e-07
1.75029e-07
1.75113e-07
1.75177e-07
1.75225e-07
1.75256e-07
1.75274e-07
1.75284e-07
1.75286e-07
1.75281e-07
1.75271e-07
1.75254e-07
1.75233e-07
1.75203e-07
1.75163e-07
1.75115e-07
1.75059e-07
1.74995e-07
1.74923e-07
1.74843e-07
1.74754e-07
1.74659e-07
1.74557e-07
1.74448e-07
1.74333e-07
1.7421e-07
1.74081e-07
1.73945e-07
1.73803e-07
1.73654e-07
1.73499e-07
1.73339e-07
1.73173e-07
1.73002e-07
1.72824e-07
1.7264e-07
1.72449e-07
1.72251e-07
1.72048e-07
1.71837e-07
1.71619e-07
1.71394e-07
1.71163e-07
1.70927e-07
1.70684e-07
1.70436e-07
1.70183e-07
1.69927e-07
1.69668e-07
1.69406e-07
1.69141e-07
1.68877e-07
1.68615e-07
1.68357e-07
1.68105e-07
1.67858e-07
1.67621e-07
1.674e-07
1.67201e-07
1.67028e-07
1.66878e-07
1.66745e-07
1.66633e-07
1.66572e-07
1.66601e-07
1.66737e-07
1.66944e-07
1.67156e-07
1.67315e-07
1.67475e-07
1.67803e-07
1.68521e-07
1.69791e-07
1.71537e-07
1.73488e-07
1.75293e-07
3.46016e-07
3.46476e-07
3.46726e-07
3.46879e-07
3.4706e-07
3.47283e-07
3.47544e-07
3.47803e-07
3.48026e-07
3.48206e-07
3.48346e-07
3.4845e-07
3.48523e-07
3.48572e-07
3.48601e-07
3.48614e-07
3.48613e-07
3.48596e-07
3.48566e-07
3.48515e-07
3.48441e-07
3.48344e-07
3.4823e-07
3.48097e-07
3.47944e-07
3.4777e-07
3.47578e-07
3.47369e-07
3.47142e-07
3.46899e-07
3.4664e-07
3.46364e-07
3.4607e-07
3.4576e-07
3.45435e-07
3.45094e-07
3.44738e-07
3.44367e-07
3.43981e-07
3.43581e-07
3.43165e-07
3.42734e-07
3.42285e-07
3.4182e-07
3.41338e-07
3.40838e-07
3.4032e-07
3.39784e-07
3.39233e-07
3.38666e-07
3.38083e-07
3.37486e-07
3.36873e-07
3.3625e-07
3.35617e-07
3.34972e-07
3.34318e-07
3.3366e-07
3.33e-07
3.32342e-07
3.3169e-07
3.31045e-07
3.30412e-07
3.298e-07
3.2922e-07
3.28681e-07
3.28184e-07
3.2772e-07
3.27295e-07
3.26939e-07
3.26705e-07
3.26624e-07
3.26676e-07
3.26792e-07
3.26906e-07
3.27054e-07
3.27361e-07
3.2811e-07
3.29463e-07
3.31361e-07
3.33721e-07
3.36221e-07
6.07457e-07
6.0853e-07
6.09171e-07
6.0957e-07
6.09991e-07
6.10488e-07
6.11055e-07
6.11626e-07
6.12129e-07
6.12549e-07
6.12891e-07
6.13159e-07
6.13362e-07
6.13513e-07
6.1362e-07
6.1369e-07
6.13725e-07
6.13726e-07
6.13694e-07
6.13619e-07
6.13497e-07
6.13328e-07
6.1312e-07
6.1287e-07
6.1258e-07
6.12244e-07
6.11869e-07
6.11458e-07
6.1101e-07
6.10527e-07
6.1001e-07
6.09455e-07
6.08863e-07
6.08236e-07
6.07577e-07
6.06885e-07
6.0616e-07
6.05403e-07
6.04611e-07
6.03787e-07
6.0293e-07
6.02038e-07
6.0111e-07
6.00145e-07
5.99143e-07
5.98101e-07
5.97019e-07
5.95898e-07
5.94741e-07
5.93548e-07
5.92318e-07
5.91052e-07
5.89752e-07
5.88423e-07
5.87064e-07
5.85678e-07
5.84267e-07
5.82835e-07
5.81388e-07
5.79932e-07
5.7847e-07
5.77012e-07
5.75562e-07
5.74131e-07
5.72732e-07
5.71381e-07
5.7009e-07
5.68856e-07
5.67678e-07
5.66573e-07
5.65587e-07
5.64766e-07
5.64149e-07
5.63709e-07
5.63415e-07
5.63241e-07
5.63119e-07
5.63274e-07
5.63744e-07
5.64517e-07
5.6603e-07
5.68305e-07
9.67187e-07
9.69377e-07
9.70784e-07
9.71687e-07
9.7257e-07
9.73562e-07
9.74667e-07
9.75782e-07
9.7679e-07
9.77653e-07
9.78373e-07
9.78959e-07
9.79423e-07
9.79783e-07
9.80056e-07
9.80253e-07
9.80379e-07
9.80432e-07
9.80416e-07
9.8032e-07
9.80135e-07
9.79863e-07
9.7951e-07
9.79076e-07
9.78564e-07
9.77969e-07
9.77301e-07
9.7656e-07
9.75747e-07
9.74869e-07
9.73925e-07
9.7291e-07
9.71825e-07
9.70674e-07
9.69461e-07
9.68184e-07
9.66842e-07
9.6544e-07
9.63972e-07
9.62441e-07
9.60843e-07
9.59179e-07
9.57444e-07
9.55636e-07
9.53754e-07
9.51796e-07
9.49759e-07
9.47647e-07
9.45459e-07
9.43196e-07
9.40858e-07
9.38446e-07
9.35964e-07
9.33416e-07
9.30802e-07
9.28127e-07
9.25392e-07
9.22604e-07
9.19768e-07
9.16892e-07
9.13987e-07
9.11061e-07
9.08124e-07
9.05184e-07
9.02256e-07
8.99364e-07
8.96537e-07
8.93788e-07
8.91105e-07
8.88468e-07
8.85884e-07
8.83403e-07
8.81173e-07
8.79286e-07
8.7781e-07
8.76618e-07
8.7526e-07
8.73694e-07
8.71654e-07
8.69179e-07
8.67563e-07
8.67631e-07
1.41963e-06
1.42365e-06
1.42639e-06
1.42822e-06
1.42991e-06
1.43172e-06
1.43369e-06
1.43568e-06
1.43751e-06
1.4391e-06
1.44046e-06
1.44159e-06
1.44251e-06
1.44324e-06
1.44381e-06
1.44424e-06
1.44454e-06
1.4447e-06
1.44473e-06
1.44461e-06
1.44434e-06
1.44392e-06
1.44335e-06
1.44264e-06
1.44179e-06
1.4408e-06
1.43968e-06
1.43843e-06
1.43706e-06
1.43557e-06
1.43397e-06
1.43225e-06
1.4304e-06
1.42844e-06
1.42638e-06
1.4242e-06
1.42191e-06
1.41951e-06
1.417e-06
1.41438e-06
1.41164e-06
1.40878e-06
1.4058e-06
1.40269e-06
1.39945e-06
1.39608e-06
1.39256e-06
1.3889e-06
1.38511e-06
1.38118e-06
1.37711e-06
1.3729e-06
1.36856e-06
1.36409e-06
1.3595e-06
1.35478e-06
1.34994e-06
1.34499e-06
1.33993e-06
1.33478e-06
1.32954e-06
1.32422e-06
1.31885e-06
1.31343e-06
1.30796e-06
1.30247e-06
1.29703e-06
1.29167e-06
1.28637e-06
1.28104e-06
1.27561e-06
1.27012e-06
1.26486e-06
1.26013e-06
1.25616e-06
1.25273e-06
1.24884e-06
1.2439e-06
1.23716e-06
1.22868e-06
1.22083e-06
1.21568e-06
1.21283e-06
1.9427e-06
1.94946e-06
1.95432e-06
1.95767e-06
1.96065e-06
1.96373e-06
1.96699e-06
1.97026e-06
1.97332e-06
1.97602e-06
1.97836e-06
1.98033e-06
1.98196e-06
1.98328e-06
1.98433e-06
1.98512e-06
1.98569e-06
1.98602e-06
1.98612e-06
1.98597e-06
1.98558e-06
1.98493e-06
1.98404e-06
1.98292e-06
1.98158e-06
1.98e-06
1.97822e-06
1.97623e-06
1.97403e-06
1.97164e-06
1.96908e-06
1.96632e-06
1.96338e-06
1.96024e-06
1.95694e-06
1.95346e-06
1.94981e-06
1.94598e-06
1.94198e-06
1.93779e-06
1.93341e-06
1.92884e-06
1.92407e-06
1.9191e-06
1.91391e-06
1.90849e-06
1.90284e-06
1.89697e-06
1.89086e-06
1.88452e-06
1.87795e-06
1.87114e-06
1.86411e-06
1.85686e-06
1.84938e-06
1.84168e-06
1.83377e-06
1.82565e-06
1.81733e-06
1.80881e-06
1.80011e-06
1.79126e-06
1.78226e-06
1.77312e-06
1.76381e-06
1.7544e-06
1.74496e-06
1.73557e-06
1.7262e-06
1.71667e-06
1.70679e-06
1.69657e-06
1.68647e-06
1.67704e-06
1.66877e-06
1.66132e-06
1.65307e-06
1.64268e-06
1.62873e-06
1.61131e-06
1.59388e-06
1.57996e-06
1.57027e-06
2.49875e-06
2.50931e-06
2.51722e-06
2.52286e-06
2.52778e-06
2.53268e-06
2.53772e-06
2.54276e-06
2.54751e-06
2.55176e-06
2.55546e-06
2.55862e-06
2.56126e-06
2.56342e-06
2.56514e-06
2.56645e-06
2.56738e-06
2.56793e-06
2.56809e-06
2.56788e-06
2.56729e-06
2.56629e-06
2.56493e-06
2.56319e-06
2.56112e-06
2.5587e-06
2.55596e-06
2.55291e-06
2.54954e-06
2.54589e-06
2.54198e-06
2.53778e-06
2.53331e-06
2.52857e-06
2.52356e-06
2.51831e-06
2.5128e-06
2.50704e-06
2.50101e-06
2.49471e-06
2.48812e-06
2.48125e-06
2.47409e-06
2.46662e-06
2.4588e-06
2.45065e-06
2.44214e-06
2.43328e-06
2.42406e-06
2.41448e-06
2.40454e-06
2.39424e-06
2.38358e-06
2.37256e-06
2.36118e-06
2.34945e-06
2.33737e-06
2.32495e-06
2.31219e-06
2.29909e-06
2.28569e-06
2.27199e-06
2.25803e-06
2.24376e-06
2.22919e-06
2.21434e-06
2.19934e-06
2.18431e-06
2.16921e-06
2.15377e-06
2.13765e-06
2.12082e-06
2.10387e-06
2.08766e-06
2.07294e-06
2.05927e-06
2.04447e-06
2.02635e-06
2.00276e-06
1.97386e-06
1.94401e-06
1.91808e-06
1.89843e-06
3.03911e-06
3.05451e-06
3.06648e-06
3.0753e-06
3.08286e-06
3.09019e-06
3.09755e-06
3.10484e-06
3.11175e-06
3.11797e-06
3.12345e-06
3.12815e-06
3.1321e-06
3.13534e-06
3.13791e-06
3.13985e-06
3.14122e-06
3.14199e-06
3.14217e-06
3.14178e-06
3.14082e-06
3.13928e-06
3.13719e-06
3.13457e-06
3.13145e-06
3.12783e-06
3.12376e-06
3.11924e-06
3.11426e-06
3.10888e-06
3.10314e-06
3.09702e-06
3.09052e-06
3.08364e-06
3.07642e-06
3.06886e-06
3.06096e-06
3.05271e-06
3.04409e-06
3.03509e-06
3.0257e-06
3.01591e-06
3.00571e-06
2.99507e-06
2.98396e-06
2.97234e-06
2.96023e-06
2.94761e-06
2.93447e-06
2.9208e-06
2.90661e-06
2.89189e-06
2.87665e-06
2.86087e-06
2.84457e-06
2.82775e-06
2.8104e-06
2.79255e-06
2.77418e-06
2.7553e-06
2.73594e-06
2.71612e-06
2.69585e-06
2.67512e-06
2.65386e-06
2.63213e-06
2.61007e-06
2.58784e-06
2.56538e-06
2.54236e-06
2.51831e-06
2.49313e-06
2.46752e-06
2.44258e-06
2.41932e-06
2.39721e-06
2.37361e-06
2.34562e-06
2.31046e-06
2.26846e-06
2.22462e-06
2.18472e-06
2.15276e-06
3.51161e-06
3.53271e-06
3.54963e-06
3.56244e-06
3.57331e-06
3.58361e-06
3.59374e-06
3.60369e-06
3.61312e-06
3.62168e-06
3.62925e-06
3.63579e-06
3.6413e-06
3.6458e-06
3.64934e-06
3.65197e-06
3.65374e-06
3.65465e-06
3.65469e-06
3.65392e-06
3.65234e-06
3.64994e-06
3.64678e-06
3.64287e-06
3.63827e-06
3.633e-06
3.6271e-06
3.6206e-06
3.6135e-06
3.60584e-06
3.5977e-06
3.58908e-06
3.57998e-06
3.57041e-06
3.5604e-06
3.54997e-06
3.53912e-06
3.52783e-06
3.51606e-06
3.5038e-06
3.49102e-06
3.47772e-06
3.46388e-06
3.44945e-06
3.43439e-06
3.41866e-06
3.40225e-06
3.38515e-06
3.36734e-06
3.34883e-06
3.32959e-06
3.30964e-06
3.28897e-06
3.26757e-06
3.24545e-06
3.22261e-06
3.19905e-06
3.17479e-06
3.14982e-06
3.12414e-06
3.09778e-06
3.07078e-06
3.04314e-06
3.01483e-06
2.98579e-06
2.95605e-06
2.92576e-06
2.89513e-06
2.8641e-06
2.83225e-06
2.79904e-06
2.76431e-06
2.72884e-06
2.6939e-06
2.66061e-06
2.62834e-06
2.59424e-06
2.55489e-06
2.50721e-06
2.45185e-06
2.39415e-06
2.34023e-06
2.29527e-06
3.87009e-06
3.89726e-06
3.91959e-06
3.93685e-06
3.95139e-06
3.96492e-06
3.97802e-06
3.99076e-06
4.00285e-06
4.01391e-06
4.02374e-06
4.03226e-06
4.03942e-06
4.04524e-06
4.04975e-06
4.053e-06
4.05505e-06
4.05589e-06
4.05552e-06
4.05401e-06
4.05142e-06
4.04774e-06
4.04303e-06
4.03733e-06
4.03072e-06
4.02324e-06
4.01494e-06
4.00589e-06
3.99607e-06
3.98552e-06
3.97435e-06
3.96261e-06
3.95032e-06
3.93747e-06
3.92411e-06
3.91027e-06
3.89594e-06
3.88108e-06
3.86565e-06
3.84962e-06
3.83295e-06
3.81562e-06
3.79762e-06
3.77888e-06
3.75934e-06
3.73895e-06
3.71769e-06
3.69555e-06
3.67252e-06
3.64857e-06
3.6237e-06
3.59792e-06
3.57121e-06
3.54358e-06
3.51502e-06
3.48554e-06
3.45515e-06
3.42384e-06
3.39164e-06
3.35854e-06
3.32457e-06
3.28977e-06
3.25416e-06
3.21771e-06
3.18034e-06
3.14207e-06
3.10308e-06
3.06356e-06
3.02348e-06
2.98239e-06
2.93967e-06
2.89518e-06
2.84973e-06
2.80463e-06
2.76102e-06
2.7181e-06
2.67298e-06
2.62211e-06
2.56242e-06
2.49511e-06
2.42556e-06
2.35972e-06
2.3032e-06
4.08459e-06
4.11729e-06
4.14462e-06
4.16599e-06
4.18375e-06
4.20011e-06
4.21582e-06
4.23104e-06
4.24553e-06
4.25888e-06
4.27082e-06
4.2812e-06
4.28992e-06
4.29694e-06
4.30226e-06
4.3059e-06
4.30793e-06
4.30835e-06
4.30717e-06
4.3045e-06
4.30041e-06
4.29494e-06
4.28816e-06
4.28014e-06
4.27096e-06
4.2607e-06
4.24943e-06
4.23726e-06
4.22414e-06
4.21011e-06
4.19531e-06
4.17984e-06
4.16376e-06
4.14708e-06
4.12985e-06
4.11209e-06
4.09382e-06
4.07495e-06
4.05542e-06
4.03519e-06
4.01421e-06
3.99244e-06
3.96987e-06
3.94643e-06
3.92203e-06
3.89661e-06
3.87016e-06
3.84264e-06
3.81405e-06
3.78437e-06
3.75359e-06
3.7217e-06
3.68872e-06
3.65463e-06
3.61944e-06
3.58316e-06
3.54579e-06
3.50733e-06
3.46781e-06
3.42725e-06
3.38567e-06
3.34313e-06
3.29965e-06
3.25521e-06
3.20976e-06
3.1633e-06
3.116e-06
3.06809e-06
3.01955e-06
2.96989e-06
2.91853e-06
2.86539e-06
2.81124e-06
2.75737e-06
2.70477e-06
2.65245e-06
2.59764e-06
2.53699e-06
2.46778e-06
2.3918e-06
2.31427e-06
2.24052e-06
2.17586e-06
4.15076e-06
4.18748e-06
4.21794e-06
4.24152e-06
4.26063e-06
4.27815e-06
4.29513e-06
4.31171e-06
4.32767e-06
4.34257e-06
4.35602e-06
4.36778e-06
4.37766e-06
4.38552e-06
4.3913e-06
4.39498e-06
4.39658e-06
4.39616e-06
4.39375e-06
4.3895e-06
4.38352e-06
4.37588e-06
4.36667e-06
4.35596e-06
4.34384e-06
4.33043e-06
4.31576e-06
4.30005e-06
4.28323e-06
4.26527e-06
4.24633e-06
4.2266e-06
4.20622e-06
4.1852e-06
4.16361e-06
4.14148e-06
4.11883e-06
4.09553e-06
4.0715e-06
4.04669e-06
4.02102e-06
3.99445e-06
3.96698e-06
3.93855e-06
3.90904e-06
3.8784e-06
3.84659e-06
3.81359e-06
3.7794e-06
3.74399e-06
3.70735e-06
3.66951e-06
3.63044e-06
3.59017e-06
3.54869e-06
3.506e-06
3.46213e-06
3.41707e-06
3.37084e-06
3.3235e-06
3.27509e-06
3.22565e-06
3.17523e-06
3.12383e-06
3.07142e-06
3.01801e-06
2.9638e-06
2.90899e-06
2.85363e-06
2.7973e-06
2.73942e-06
2.68002e-06
2.61989e-06
2.56018e-06
2.50166e-06
2.44316e-06
2.38211e-06
2.31561e-06
2.24149e-06
2.16204e-06
2.082e-06
2.00576e-06
1.93781e-06
1.87406e-06
4.13762e-06
4.16634e-06
4.18756e-06
4.20361e-06
4.21861e-06
4.23391e-06
4.24952e-06
4.26507e-06
4.27996e-06
4.29369e-06
4.30585e-06
4.31609e-06
4.32418e-06
4.32991e-06
4.33321e-06
4.33409e-06
4.33263e-06
4.32892e-06
4.32314e-06
4.31541e-06
4.30582e-06
4.29439e-06
4.2812e-06
4.26628e-06
4.24978e-06
4.23168e-06
4.21235e-06
4.19166e-06
4.16951e-06
4.14608e-06
4.12163e-06
4.09643e-06
4.07054e-06
4.04402e-06
4.01695e-06
3.98934e-06
3.96105e-06
3.93197e-06
3.90205e-06
3.87121e-06
3.83938e-06
3.80658e-06
3.7728e-06
3.73791e-06
3.70186e-06
3.66462e-06
3.62617e-06
3.58651e-06
3.54562e-06
3.5035e-06
3.46016e-06
3.41563e-06
3.3699e-06
3.32297e-06
3.27487e-06
3.22559e-06
3.17514e-06
3.12355e-06
3.07087e-06
3.01718e-06
2.96252e-06
2.90695e-06
2.85046e-06
2.79306e-06
2.7348e-06
2.67586e-06
2.61646e-06
2.55669e-06
2.49632e-06
2.43482e-06
2.37233e-06
2.30972e-06
2.24802e-06
2.18782e-06
2.1278e-06
2.06567e-06
1.99903e-06
1.92635e-06
1.85001e-06
1.77397e-06
1.70139e-06
1.63565e-06
1.57506e-06
1.5101e-06
1.43646e-06
4.04155e-06
4.05821e-06
4.06797e-06
4.07257e-06
4.07828e-06
4.08662e-06
4.09708e-06
4.10883e-06
4.121e-06
4.1328e-06
4.1436e-06
4.15286e-06
4.1602e-06
4.16537e-06
4.16828e-06
4.16893e-06
4.16732e-06
4.16354e-06
4.15767e-06
4.14974e-06
4.1397e-06
4.12743e-06
4.11294e-06
4.09617e-06
4.07727e-06
4.05616e-06
4.03337e-06
4.00876e-06
3.9822e-06
3.95385e-06
3.92405e-06
3.89322e-06
3.8615e-06
3.82904e-06
3.79593e-06
3.76225e-06
3.72782e-06
3.69258e-06
3.65648e-06
3.61945e-06
3.5814e-06
3.54239e-06
3.50247e-06
3.46156e-06
3.41961e-06
3.37658e-06
3.3325e-06
3.28736e-06
3.24117e-06
3.19391e-06
3.14563e-06
3.09634e-06
3.04606e-06
2.9948e-06
2.94257e-06
2.88937e-06
2.83519e-06
2.78006e-06
2.72405e-06
2.66723e-06
2.60965e-06
2.55136e-06
2.49234e-06
2.43258e-06
2.37214e-06
2.31116e-06
2.24986e-06
2.18835e-06
2.12653e-06
2.06417e-06
2.00131e-06
1.93898e-06
1.87839e-06
1.8202e-06
1.76335e-06
1.70568e-06
1.64517e-06
1.58073e-06
1.51432e-06
1.44871e-06
1.38574e-06
1.32756e-06
1.27353e-06
1.21661e-06
1.15308e-06
4.03129e-06
4.01714e-06
3.99842e-06
3.97667e-06
3.96148e-06
3.95371e-06
3.95165e-06
3.95357e-06
3.95808e-06
3.96393e-06
3.9701e-06
3.97603e-06
3.98147e-06
3.98652e-06
3.99127e-06
3.99522e-06
3.99762e-06
3.99806e-06
3.99624e-06
3.9919e-06
3.98466e-06
3.97421e-06
3.96046e-06
3.94324e-06
3.92276e-06
3.8989e-06
3.8724e-06
3.8432e-06
3.81125e-06
3.77673e-06
3.74e-06
3.70164e-06
3.66197e-06
3.62122e-06
3.57962e-06
3.53732e-06
3.49422e-06
3.4503e-06
3.40557e-06
3.36002e-06
3.31354e-06
3.2662e-06
3.21815e-06
3.1694e-06
3.11994e-06
3.06976e-06
3.01889e-06
2.96736e-06
2.91519e-06
2.86239e-06
2.80898e-06
2.75501e-06
2.70052e-06
2.64552e-06
2.59002e-06
2.53403e-06
2.47751e-06
2.42047e-06
2.36297e-06
2.30511e-06
2.24691e-06
2.1884e-06
2.12953e-06
2.07025e-06
2.01052e-06
1.9504e-06
1.88999e-06
1.82933e-06
1.76832e-06
1.70684e-06
1.64479e-06
1.58307e-06
1.52336e-06
1.4671e-06
1.41471e-06
1.36506e-06
1.31559e-06
1.26488e-06
1.21379e-06
1.16357e-06
1.11484e-06
1.06882e-06
1.02571e-06
9.81401e-07
9.35107e-07
4.38706e-06
4.29593e-06
4.20984e-06
4.12941e-06
4.0686e-06
4.02484e-06
3.9938e-06
3.97226e-06
3.95777e-06
3.94811e-06
3.9417e-06
3.93891e-06
3.94058e-06
3.94889e-06
3.96377e-06
3.98171e-06
3.99857e-06
4.01238e-06
4.02217e-06
4.02728e-06
4.02714e-06
4.02137e-06
4.00992e-06
3.99272e-06
3.97009e-06
3.94208e-06
3.90959e-06
3.87286e-06
3.83213e-06
3.78771e-06
3.73992e-06
3.68943e-06
3.6368e-06
3.58248e-06
3.52687e-06
3.47029e-06
3.41281e-06
3.35454e-06
3.2956e-06
3.23611e-06
3.17597e-06
3.11521e-06
3.05409e-06
2.99279e-06
2.93137e-06
2.86986e-06
2.80832e-06
2.74683e-06
2.68543e-06
2.62416e-06
2.56304e-06
2.50214e-06
2.44151e-06
2.3812e-06
2.32122e-06
2.26157e-06
2.20222e-06
2.14315e-06
2.0844e-06
2.02605e-06
1.96813e-06
1.91064e-06
1.85355e-06
1.79673e-06
1.74005e-06
1.68342e-06
1.62672e-06
1.56973e-06
1.51209e-06
1.45316e-06
1.39215e-06
1.3286e-06
1.26424e-06
1.20147e-06
1.14421e-06
1.10134e-06
1.0654e-06
1.03187e-06
9.99931e-07
9.68744e-07
9.3839e-07
9.09109e-07
8.81364e-07
8.56229e-07
8.36374e-07
6.26244e-06
6.01658e-06
5.79706e-06
5.60273e-06
5.45466e-06
5.34065e-06
5.25192e-06
5.18389e-06
5.13156e-06
5.09143e-06
5.06103e-06
5.03861e-06
5.02257e-06
5.01156e-06
5.00375e-06
4.99677e-06
4.98871e-06
4.97803e-06
4.96369e-06
4.94488e-06
4.92085e-06
4.89101e-06
4.85499e-06
4.81243e-06
4.76342e-06
4.70795e-06
4.64675e-06
4.58005e-06
4.50861e-06
4.43313e-06
4.35384e-06
4.27125e-06
4.1859e-06
4.09835e-06
4.00916e-06
3.91887e-06
3.82774e-06
3.73606e-06
3.64412e-06
3.55231e-06
3.46085e-06
3.36974e-06
3.27914e-06
3.18938e-06
3.10069e-06
3.01319e-06
2.92703e-06
2.84234e-06
2.75922e-06
2.67776e-06
2.59801e-06
2.52001e-06
2.44383e-06
2.36951e-06
2.29707e-06
2.22652e-06
2.15783e-06
2.09098e-06
2.026e-06
1.96293e-06
1.9018e-06
1.84256e-06
1.78513e-06
1.72958e-06
1.67588e-06
1.62393e-06
1.57358e-06
1.52462e-06
1.47671e-06
1.42902e-06
1.38064e-06
1.33233e-06
1.28563e-06
1.24205e-06
1.20303e-06
1.16924e-06
1.14029e-06
1.11471e-06
1.09123e-06
1.06852e-06
1.0461e-06
1.02341e-06
1.00232e-06
9.88486e-07
9.8927e-07
1.01244e-06
1.0519e-06
1.09823e-06
1.07223e-05
1.01864e-05
9.73412e-06
9.33966e-06
9.03328e-06
8.78363e-06
8.5781e-06
8.40849e-06
8.26929e-06
8.15658e-06
8.06733e-06
7.99848e-06
7.94641e-06
7.90737e-06
7.87716e-06
7.85147e-06
7.82662e-06
7.79972e-06
7.76859e-06
7.73157e-06
7.68727e-06
7.63455e-06
7.57241e-06
7.49991e-06
7.4166e-06
7.32221e-06
7.21731e-06
7.10223e-06
6.97806e-06
6.84589e-06
6.70658e-06
6.56095e-06
6.40978e-06
6.25393e-06
6.0944e-06
5.93223e-06
5.76819e-06
5.60298e-06
5.43728e-06
5.27191e-06
5.10764e-06
4.94486e-06
4.78381e-06
4.62487e-06
4.46847e-06
4.315e-06
4.16484e-06
4.01828e-06
3.87559e-06
3.73699e-06
3.6026e-06
3.47251e-06
3.34681e-06
3.22554e-06
3.10873e-06
2.9964e-06
2.88853e-06
2.7851e-06
2.6861e-06
2.59158e-06
2.50157e-06
2.41616e-06
2.33546e-06
2.25962e-06
2.18882e-06
2.12335e-06
2.06361e-06
2.01062e-06
1.96611e-06
1.92988e-06
1.88746e-06
1.83951e-06
1.79025e-06
1.7415e-06
1.69542e-06
1.65342e-06
1.61736e-06
1.58716e-06
1.56063e-06
1.5346e-06
1.50761e-06
1.47875e-06
1.45025e-06
1.4294e-06
1.42285e-06
1.43446e-06
1.4666e-06
1.5101e-06
1.70694e-05
1.6488e-05
1.59826e-05
1.55447e-05
1.5166e-05
1.48416e-05
1.45684e-05
1.4344e-05
1.41657e-05
1.40286e-05
1.3926e-05
1.38499e-05
1.37924e-05
1.37461e-05
1.3705e-05
1.36637e-05
1.36177e-05
1.35634e-05
1.34976e-05
1.34172e-05
1.33194e-05
1.32022e-05
1.30642e-05
1.2905e-05
1.27248e-05
1.25248e-05
1.23067e-05
1.20725e-05
1.18235e-05
1.15612e-05
1.12868e-05
1.1002e-05
1.07088e-05
1.04089e-05
1.01039e-05
9.79547e-06
9.48544e-06
9.17576e-06
8.86775e-06
8.56192e-06
8.25896e-06
7.95981e-06
7.66547e-06
7.37681e-06
7.0946e-06
6.8195e-06
6.55213e-06
6.29294e-06
6.04221e-06
5.80014e-06
5.56686e-06
5.3425e-06
5.12711e-06
4.92073e-06
4.72332e-06
4.53482e-06
4.35518e-06
4.18432e-06
4.02214e-06
3.86857e-06
3.72343e-06
3.58645e-06
3.4572e-06
3.33521e-06
3.22024e-06
3.11202e-06
3.00948e-06
2.91062e-06
2.81492e-06
2.72247e-06
2.63353e-06
2.55027e-06
2.47437e-06
2.40688e-06
2.34875e-06
2.29643e-06
2.24589e-06
2.19486e-06
2.14174e-06
2.08873e-06
2.04406e-06
2.01512e-06
2.00563e-06
2.0179e-06
2.04075e-06
2.75725e-05
2.66912e-05
2.58933e-05
2.51771e-05
2.4539e-05
2.39776e-05
2.34937e-05
2.30884e-05
2.27611e-05
2.25075e-05
2.23186e-05
2.21824e-05
2.20855e-05
2.20159e-05
2.19629e-05
2.19174e-05
2.18715e-05
2.18186e-05
2.17525e-05
2.16674e-05
2.15576e-05
2.14183e-05
2.12462e-05
2.10394e-05
2.07974e-05
2.05208e-05
2.02119e-05
1.9873e-05
1.95062e-05
1.91135e-05
1.86967e-05
1.82583e-05
1.78008e-05
1.73273e-05
1.68406e-05
1.63437e-05
1.58397e-05
1.53321e-05
1.48234e-05
1.43151e-05
1.38085e-05
1.33054e-05
1.28076e-05
1.23167e-05
1.18342e-05
1.13616e-05
1.09002e-05
1.04509e-05
1.00147e-05
9.59193e-06
9.18317e-06
8.78875e-06
8.40894e-06
8.04393e-06
7.6938e-06
7.3585e-06
7.03792e-06
6.73186e-06
6.44009e-06
6.16238e-06
5.89838e-06
5.64754e-06
5.40913e-06
5.18252e-06
4.96751e-06
4.76418e-06
4.57236e-06
4.39109e-06
4.21876e-06
4.05426e-06
3.89718e-06
3.75005e-06
3.61542e-06
3.49235e-06
3.38245e-06
3.28127e-06
3.18408e-06
3.08823e-06
2.992e-06
2.89734e-06
2.81316e-06
2.74645e-06
2.7002e-06
2.67499e-06
2.65831e-06
2.55611e-06
2.16907e-06
1.54397e-06
1.2093e-06
2.09361e-06
4.02241e-05
3.90373e-05
3.79272e-05
3.68975e-05
3.59513e-05
3.50936e-05
3.43314e-05
3.36727e-05
3.31231e-05
3.26824e-05
3.23429e-05
3.20908e-05
3.19096e-05
3.17831e-05
3.16967e-05
3.16376e-05
3.1594e-05
3.15553e-05
3.15109e-05
3.14505e-05
3.13638e-05
3.12412e-05
3.10755e-05
3.08619e-05
3.05979e-05
3.02823e-05
2.9917e-05
2.95045e-05
2.90471e-05
2.85469e-05
2.8006e-05
2.74268e-05
2.68126e-05
2.6167e-05
2.5494e-05
2.4798e-05
2.40837e-05
2.33565e-05
2.26208e-05
2.18792e-05
2.1134e-05
2.0388e-05
1.9644e-05
1.89049e-05
1.81732e-05
1.74515e-05
1.67421e-05
1.60471e-05
1.53681e-05
1.47066e-05
1.40636e-05
1.344e-05
1.28367e-05
1.22543e-05
1.16932e-05
1.11538e-05
1.0636e-05
1.01399e-05
9.6653e-06
9.21203e-06
8.77983e-06
8.36809e-06
7.97606e-06
7.60308e-06
7.2491e-06
6.91432e-06
6.59865e-06
6.30077e-06
6.01835e-06
5.7496e-06
5.49377e-06
5.25363e-06
5.03202e-06
4.82759e-06
4.64052e-06
4.46606e-06
4.29939e-06
4.1379e-06
3.98003e-06
3.82693e-06
3.68762e-06
3.56727e-06
3.4675e-06
3.38697e-06
3.31358e-06
3.16739e-06
2.7268e-06
1.97795e-06
1.39473e-06
1.912e-06
5.41793e-05
5.27066e-05
5.12908e-05
4.99385e-05
4.86585e-05
4.74619e-05
4.63634e-05
4.53798e-05
4.45263e-05
4.38115e-05
4.32338e-05
4.27824e-05
4.2441e-05
4.21922e-05
4.20199e-05
4.1909e-05
4.18445e-05
4.18118e-05
4.17954e-05
4.1779e-05
4.17455e-05
4.16786e-05
4.15649e-05
4.13947e-05
4.11612e-05
4.0861e-05
4.04941e-05
4.00622e-05
3.95674e-05
3.90111e-05
3.83947e-05
3.77199e-05
3.69897e-05
3.62077e-05
3.53786e-05
3.45076e-05
3.3601e-05
3.26662e-05
3.171e-05
3.07364e-05
2.97489e-05
2.87513e-05
2.77478e-05
2.67422e-05
2.57386e-05
2.47408e-05
2.37525e-05
2.27775e-05
2.18186e-05
2.08785e-05
1.99592e-05
1.90628e-05
1.81911e-05
1.73453e-05
1.6527e-05
1.57368e-05
1.49756e-05
1.42437e-05
1.35413e-05
1.28687e-05
1.22258e-05
1.16122e-05
1.10271e-05
1.04701e-05
9.94096e-06
9.44003e-06
8.967e-06
8.52023e-06
8.09683e-06
7.69463e-06
7.31257e-06
6.95343e-06
6.61997e-06
6.31135e-06
6.02474e-06
5.75572e-06
5.50008e-06
5.25556e-06
5.02088e-06
4.79561e-06
4.58834e-06
4.40126e-06
4.2343e-06
4.08485e-06
3.9434e-06
3.7484e-06
3.27693e-06
2.46419e-06
1.66937e-06
1.81349e-06
6.85113e-05
6.67984e-05
6.51123e-05
6.34598e-05
6.18527e-05
6.0306e-05
5.88402e-05
5.74805e-05
5.62531e-05
5.51787e-05
5.42667e-05
5.35147e-05
5.29119e-05
5.24446e-05
5.20991e-05
5.18615e-05
5.17166e-05
5.16473e-05
5.1634e-05
5.16538e-05
5.16817e-05
5.16925e-05
5.1664e-05
5.15787e-05
5.14242e-05
5.11935e-05
5.08835e-05
5.04939e-05
5.00252e-05
4.94776e-05
4.88507e-05
4.81445e-05
4.73603e-05
4.65008e-05
4.55704e-05
4.45748e-05
4.3521e-05
4.24185e-05
4.12766e-05
4.01011e-05
3.88967e-05
3.76683e-05
3.64212e-05
3.51604e-05
3.38913e-05
3.2619e-05
3.1349e-05
3.00866e-05
2.88366e-05
2.76031e-05
2.63897e-05
2.51998e-05
2.40365e-05
2.29026e-05
2.18004e-05
2.07319e-05
1.96989e-05
1.87024e-05
1.77434e-05
1.68227e-05
1.59408e-05
1.50975e-05
1.42925e-05
1.35253e-05
1.2796e-05
1.21049e-05
1.14514e-05
1.08338e-05
1.02489e-05
9.69421e-06
9.16853e-06
8.67421e-06
8.21359e-06
7.78699e-06
7.38693e-06
7.01068e-06
6.65505e-06
6.31828e-06
5.99909e-06
5.69506e-06
5.41375e-06
5.15362e-06
4.91315e-06
4.68946e-06
4.47791e-06
4.23612e-06
3.75976e-06
2.94791e-06
2.01223e-06
1.82042e-06
8.23074e-05
8.04209e-05
7.85241e-05
7.66232e-05
7.47299e-05
7.28597e-05
7.10345e-05
6.92846e-05
6.7645e-05
6.61488e-05
6.48193e-05
6.36671e-05
6.26924e-05
6.18906e-05
6.12559e-05
6.07813e-05
6.04564e-05
6.02661e-05
6.01892e-05
6.0198e-05
6.02593e-05
6.03379e-05
6.04001e-05
6.0418e-05
6.03724e-05
6.02504e-05
6.00444e-05
5.9751e-05
5.93683e-05
5.88937e-05
5.83239e-05
5.76555e-05
5.6887e-05
5.60191e-05
5.50547e-05
5.39989e-05
5.2859e-05
5.16461e-05
5.03719e-05
4.90443e-05
4.76693e-05
4.62531e-05
4.48017e-05
4.33214e-05
4.18184e-05
4.02992e-05
3.87706e-05
3.724e-05
3.57138e-05
3.4198e-05
3.26982e-05
3.12194e-05
2.97665e-05
2.83438e-05
2.69553e-05
2.56043e-05
2.42939e-05
2.30263e-05
2.18035e-05
2.06271e-05
1.94982e-05
1.84174e-05
1.73849e-05
1.64005e-05
1.54646e-05
1.45772e-05
1.37379e-05
1.29449e-05
1.21949e-05
1.14855e-05
1.0815e-05
1.01852e-05
9.59743e-06
9.05151e-06
8.53955e-06
8.05791e-06
7.60485e-06
7.17923e-06
6.77949e-06
6.40139e-06
6.05057e-06
5.72177e-06
5.41254e-06
5.12106e-06