/*--------------------------------*- C++ -*----------------------------------*\
| =========                 |                                                 |
| \\      /  F ield         | OpenFOAM: The Open Source CFD Toolbox           |
|  \\    /   O peration     | Version:  2412                                  |
|   \\  /    A nd           | Website:  www.openfoam.com                      |
|    \\/     M anipulation  |                                                 |
\*---------------------------------------------------------------------------*/
FoamFile
{
    version     2.0;
    format      ascii;
    arch        "LSB;label=32;scalar=64";
    class       volScalarField;
    location    "240";
    object      nuTilda;
}
// * * * * * * * * * * * * * * * * * * * * * * * * * * * * * * * * * * * * * //

dimensions      [0 2 -1 0 0 0 0];

internalField   nonuniform List<scalar> 
8702
(
1.71609e-06
1.71603e-06
1.71594e-06
1.71592e-06
1.71591e-06
1.71594e-06
1.71602e-06
1.71605e-06
1.71602e-06
1.716e-06
1.71597e-06
1.71591e-06
1.71583e-06
1.71575e-06
1.71566e-06
1.71558e-06
1.71548e-06
1.71537e-06
1.71531e-06
1.71519e-06
1.71505e-06
1.71493e-06
1.71478e-06
1.71462e-06
1.71448e-06
1.71433e-06
1.71415e-06
1.71399e-06
1.71382e-06
1.71362e-06
1.71344e-06
1.71327e-06
1.71306e-06
1.71287e-06
1.71267e-06
1.71243e-06
1.71221e-06
1.71199e-06
1.71177e-06
1.71155e-06
1.71133e-06
1.71109e-06
1.71085e-06
1.71058e-06
1.71035e-06
1.71012e-06
1.70988e-06
1.70962e-06
1.70936e-06
1.70908e-06
1.70878e-06
1.70851e-06
1.70823e-06
1.70795e-06
1.70768e-06
1.70743e-06
1.70717e-06
1.7069e-06
1.70665e-06
1.70645e-06
1.70627e-06
1.70608e-06
1.70596e-06
1.70591e-06
1.70597e-06
1.70608e-06
1.70626e-06
1.70646e-06
1.70668e-06
1.70721e-06
1.70832e-06
1.71e-06
1.71168e-06
1.71289e-06
1.71328e-06
1.71367e-06
1.71598e-06
1.7213e-06
1.73106e-06
1.74365e-06
1.75454e-06
1.76144e-06
5.29044e-06
5.29036e-06
5.29016e-06
5.29013e-06
5.2902e-06
5.29036e-06
5.29061e-06
5.29078e-06
5.29079e-06
5.29076e-06
5.29069e-06
5.29054e-06
5.29034e-06
5.29012e-06
5.28987e-06
5.28966e-06
5.28939e-06
5.2891e-06
5.28884e-06
5.2885e-06
5.28814e-06
5.28775e-06
5.28732e-06
5.28685e-06
5.28641e-06
5.28593e-06
5.28539e-06
5.28487e-06
5.28431e-06
5.28371e-06
5.28312e-06
5.28253e-06
5.28188e-06
5.28121e-06
5.28056e-06
5.27983e-06
5.27911e-06
5.2784e-06
5.27767e-06
5.27696e-06
5.27621e-06
5.27543e-06
5.27461e-06
5.27378e-06
5.273e-06
5.27218e-06
5.27133e-06
5.27045e-06
5.26956e-06
5.26866e-06
5.26772e-06
5.26679e-06
5.26584e-06
5.26491e-06
5.26399e-06
5.26309e-06
5.26217e-06
5.2613e-06
5.26047e-06
5.25975e-06
5.2591e-06
5.25847e-06
5.25799e-06
5.25774e-06
5.25779e-06
5.25805e-06
5.25853e-06
5.25902e-06
5.25965e-06
5.26118e-06
5.26434e-06
5.2691e-06
5.27401e-06
5.27772e-06
5.27918e-06
5.28055e-06
5.28713e-06
5.30223e-06
5.32979e-06
5.36561e-06
5.39742e-06
5.41851e-06
9.11628e-06
9.11651e-06
9.11636e-06
9.1164e-06
9.11667e-06
9.11707e-06
9.11764e-06
9.11814e-06
9.11837e-06
9.11846e-06
9.11843e-06
9.1183e-06
9.11805e-06
9.11776e-06
9.11739e-06
9.11704e-06
9.11667e-06
9.11622e-06
9.11575e-06
9.11524e-06
9.11465e-06
9.11398e-06
9.11326e-06
9.11247e-06
9.11168e-06
9.11082e-06
9.10988e-06
9.10891e-06
9.10788e-06
9.10683e-06
9.10572e-06
9.10457e-06
9.10339e-06
9.10214e-06
9.10089e-06
9.09957e-06
9.09821e-06
9.09682e-06
9.09543e-06
9.09405e-06
9.0926e-06
9.09108e-06
9.0895e-06
9.08793e-06
9.08636e-06
9.08472e-06
9.08305e-06
9.0813e-06
9.07953e-06
9.07775e-06
9.07594e-06
9.07409e-06
9.0722e-06
9.07036e-06
9.06853e-06
9.06668e-06
9.06483e-06
9.06308e-06
9.06142e-06
9.05988e-06
9.05846e-06
9.05713e-06
9.056e-06
9.05526e-06
9.05499e-06
9.05515e-06
9.05564e-06
9.05621e-06
9.05711e-06
9.05933e-06
9.06399e-06
9.07113e-06
9.07882e-06
9.08501e-06
9.088e-06
9.09074e-06
9.10075e-06
9.12332e-06
9.16415e-06
9.21781e-06
9.26754e-06
9.30283e-06
1.31062e-05
1.31072e-05
1.31075e-05
1.31077e-05
1.31083e-05
1.31092e-05
1.31103e-05
1.31114e-05
1.31121e-05
1.31125e-05
1.31127e-05
1.31127e-05
1.31125e-05
1.31123e-05
1.31119e-05
1.31115e-05
1.3111e-05
1.31105e-05
1.31099e-05
1.31092e-05
1.31084e-05
1.31074e-05
1.31064e-05
1.31053e-05
1.31041e-05
1.31028e-05
1.31014e-05
1.30998e-05
1.30982e-05
1.30966e-05
1.30948e-05
1.3093e-05
1.30911e-05
1.30891e-05
1.30871e-05
1.3085e-05
1.30828e-05
1.30805e-05
1.30782e-05
1.30759e-05
1.30735e-05
1.30709e-05
1.30683e-05
1.30657e-05
1.3063e-05
1.30603e-05
1.30574e-05
1.30544e-05
1.30514e-05
1.30483e-05
1.30452e-05
1.3042e-05
1.30388e-05
1.30356e-05
1.30324e-05
1.30291e-05
1.30259e-05
1.30228e-05
1.30197e-05
1.30169e-05
1.30141e-05
1.30116e-05
1.30093e-05
1.30075e-05
1.30062e-05
1.30057e-05
1.30055e-05
1.30057e-05
1.30062e-05
1.30084e-05
1.30135e-05
1.30218e-05
1.30311e-05
1.30391e-05
1.30437e-05
1.30479e-05
1.30599e-05
1.30866e-05
1.31342e-05
1.31975e-05
1.32593e-05
1.33066e-05
1.71773e-05
1.718e-05
1.7181e-05
1.71817e-05
1.71829e-05
1.71845e-05
1.71865e-05
1.71884e-05
1.71898e-05
1.71908e-05
1.71916e-05
1.71919e-05
1.7192e-05
1.71919e-05
1.71916e-05
1.71913e-05
1.71908e-05
1.71903e-05
1.71896e-05
1.71888e-05
1.71878e-05
1.71865e-05
1.71852e-05
1.71837e-05
1.7182e-05
1.71802e-05
1.71782e-05
1.7176e-05
1.71737e-05
1.71713e-05
1.71688e-05
1.71661e-05
1.71633e-05
1.71603e-05
1.71573e-05
1.71541e-05
1.71507e-05
1.71473e-05
1.71438e-05
1.71403e-05
1.71365e-05
1.71326e-05
1.71286e-05
1.71245e-05
1.71202e-05
1.71159e-05
1.71113e-05
1.71066e-05
1.71019e-05
1.7097e-05
1.7092e-05
1.70869e-05
1.70817e-05
1.70765e-05
1.70713e-05
1.7066e-05
1.70607e-05
1.70554e-05
1.70503e-05
1.70453e-05
1.70405e-05
1.70359e-05
1.70316e-05
1.70278e-05
1.70246e-05
1.70223e-05
1.70206e-05
1.70192e-05
1.70185e-05
1.70194e-05
1.70234e-05
1.70309e-05
1.704e-05
1.70484e-05
1.7054e-05
1.70592e-05
1.70715e-05
1.70982e-05
1.71454e-05
1.7209e-05
1.72748e-05
1.73295e-05
2.12523e-05
2.12574e-05
2.12598e-05
2.12613e-05
2.12633e-05
2.1266e-05
2.12692e-05
2.12723e-05
2.12749e-05
2.12768e-05
2.12783e-05
2.12793e-05
2.12798e-05
2.12801e-05
2.12801e-05
2.128e-05
2.12797e-05
2.12792e-05
2.12786e-05
2.12776e-05
2.12764e-05
2.12749e-05
2.12732e-05
2.12713e-05
2.12691e-05
2.12666e-05
2.12639e-05
2.1261e-05
2.12579e-05
2.12545e-05
2.1251e-05
2.12472e-05
2.12433e-05
2.12391e-05
2.12347e-05
2.12301e-05
2.12254e-05
2.12205e-05
2.12153e-05
2.12101e-05
2.12046e-05
2.11989e-05
2.1193e-05
2.11869e-05
2.11806e-05
2.1174e-05
2.11673e-05
2.11603e-05
2.11531e-05
2.11458e-05
2.11382e-05
2.11305e-05
2.11226e-05
2.11146e-05
2.11065e-05
2.10983e-05
2.109e-05
2.10817e-05
2.10735e-05
2.10654e-05
2.10574e-05
2.10497e-05
2.10422e-05
2.10352e-05
2.10289e-05
2.10234e-05
2.10187e-05
2.10144e-05
2.10109e-05
2.1009e-05
2.10099e-05
2.10142e-05
2.10208e-05
2.10275e-05
2.10325e-05
2.10376e-05
2.10479e-05
2.10705e-05
2.11103e-05
2.11647e-05
2.1225e-05
2.12804e-05
2.52587e-05
2.52672e-05
2.52718e-05
2.52746e-05
2.5278e-05
2.52821e-05
2.52869e-05
2.52916e-05
2.52957e-05
2.5299e-05
2.53016e-05
2.53035e-05
2.53048e-05
2.53058e-05
2.53063e-05
2.53065e-05
2.53065e-05
2.53062e-05
2.53056e-05
2.53047e-05
2.53033e-05
2.53016e-05
2.52995e-05
2.5297e-05
2.52942e-05
2.5291e-05
2.52875e-05
2.52836e-05
2.52795e-05
2.5275e-05
2.52702e-05
2.52652e-05
2.52597e-05
2.5254e-05
2.5248e-05
2.52417e-05
2.52351e-05
2.52283e-05
2.52211e-05
2.52137e-05
2.5206e-05
2.5198e-05
2.51897e-05
2.5181e-05
2.5172e-05
2.51627e-05
2.51531e-05
2.51431e-05
2.51328e-05
2.51221e-05
2.51112e-05
2.51e-05
2.50885e-05
2.50768e-05
2.50648e-05
2.50527e-05
2.50403e-05
2.50278e-05
2.50153e-05
2.50028e-05
2.49904e-05
2.49782e-05
2.49661e-05
2.49544e-05
2.49433e-05
2.4933e-05
2.49235e-05
2.49146e-05
2.49064e-05
2.48996e-05
2.48951e-05
2.48935e-05
2.48945e-05
2.48967e-05
2.48989e-05
2.49018e-05
2.49077e-05
2.49221e-05
2.4948e-05
2.49842e-05
2.5029e-05
2.50762e-05
2.91278e-05
2.91408e-05
2.91486e-05
2.91535e-05
2.91586e-05
2.91646e-05
2.91715e-05
2.91784e-05
2.91845e-05
2.91896e-05
2.91937e-05
2.9197e-05
2.91994e-05
2.92012e-05
2.92025e-05
2.92034e-05
2.92038e-05
2.92038e-05
2.92034e-05
2.92025e-05
2.92011e-05
2.9199e-05
2.91965e-05
2.91935e-05
2.919e-05
2.91859e-05
2.91814e-05
2.91764e-05
2.91709e-05
2.91651e-05
2.91588e-05
2.91521e-05
2.91449e-05
2.91373e-05
2.91292e-05
2.91208e-05
2.9112e-05
2.91027e-05
2.9093e-05
2.9083e-05
2.90725e-05
2.90616e-05
2.90502e-05
2.90383e-05
2.9026e-05
2.90132e-05
2.89998e-05
2.8986e-05
2.89717e-05
2.89569e-05
2.89417e-05
2.8926e-05
2.89098e-05
2.88933e-05
2.88763e-05
2.8859e-05
2.88413e-05
2.88233e-05
2.88052e-05
2.87868e-05
2.87684e-05
2.875e-05
2.87316e-05
2.87135e-05
2.86957e-05
2.86785e-05
2.8662e-05
2.86463e-05
2.86312e-05
2.86171e-05
2.86044e-05
2.85939e-05
2.85859e-05
2.85803e-05
2.85765e-05
2.85743e-05
2.85727e-05
2.85747e-05
2.85807e-05
2.85907e-05
2.86101e-05
2.86392e-05
3.2792e-05
3.2811e-05
3.28232e-05
3.2831e-05
3.28386e-05
3.28471e-05
3.28567e-05
3.28663e-05
3.2875e-05
3.28824e-05
3.28886e-05
3.28936e-05
3.28976e-05
3.29007e-05
3.2903e-05
3.29047e-05
3.29058e-05
3.29063e-05
3.29061e-05
3.29053e-05
3.29037e-05
3.29014e-05
3.28983e-05
3.28946e-05
3.28902e-05
3.28851e-05
3.28794e-05
3.2873e-05
3.2866e-05
3.28584e-05
3.28503e-05
3.28415e-05
3.28322e-05
3.28222e-05
3.28117e-05
3.28007e-05
3.2789e-05
3.27769e-05
3.27641e-05
3.27508e-05
3.27369e-05
3.27224e-05
3.27073e-05
3.26915e-05
3.2675e-05
3.26578e-05
3.264e-05
3.26214e-05
3.26021e-05
3.25822e-05
3.25615e-05
3.25402e-05
3.25181e-05
3.24955e-05
3.24722e-05
3.24484e-05
3.24239e-05
3.23989e-05
3.23734e-05
3.23476e-05
3.23214e-05
3.22949e-05
3.22683e-05
3.22416e-05
3.22149e-05
3.21885e-05
3.21626e-05
3.21374e-05
3.21128e-05
3.20885e-05
3.20646e-05
3.20417e-05
3.2021e-05
3.20035e-05
3.19898e-05
3.19787e-05
3.1966e-05
3.19514e-05
3.19324e-05
3.19092e-05
3.1894e-05
3.18947e-05
3.6185e-05
3.62114e-05
3.62294e-05
3.62413e-05
3.62523e-05
3.62642e-05
3.6277e-05
3.629e-05
3.63019e-05
3.63123e-05
3.63211e-05
3.63284e-05
3.63344e-05
3.63391e-05
3.63429e-05
3.63456e-05
3.63476e-05
3.63486e-05
3.63488e-05
3.6348e-05
3.63463e-05
3.63435e-05
3.63399e-05
3.63352e-05
3.63297e-05
3.63233e-05
3.6316e-05
3.63079e-05
3.6299e-05
3.62893e-05
3.62789e-05
3.62676e-05
3.62556e-05
3.62428e-05
3.62293e-05
3.6215e-05
3.62e-05
3.61843e-05
3.61678e-05
3.61505e-05
3.61325e-05
3.61136e-05
3.6094e-05
3.60734e-05
3.60519e-05
3.60295e-05
3.60061e-05
3.59817e-05
3.59564e-05
3.59301e-05
3.59028e-05
3.58745e-05
3.58453e-05
3.58152e-05
3.57841e-05
3.57521e-05
3.57192e-05
3.56855e-05
3.56509e-05
3.56155e-05
3.55795e-05
3.55429e-05
3.55058e-05
3.54682e-05
3.54301e-05
3.53918e-05
3.53538e-05
3.53162e-05
3.52789e-05
3.52412e-05
3.52028e-05
3.51638e-05
3.51263e-05
3.50925e-05
3.50641e-05
3.50395e-05
3.50114e-05
3.49759e-05
3.4927e-05
3.48654e-05
3.48081e-05
3.47703e-05
3.47494e-05
3.92423e-05
3.92777e-05
3.93031e-05
3.93205e-05
3.93361e-05
3.93522e-05
3.93691e-05
3.93861e-05
3.9402e-05
3.9416e-05
3.94281e-05
3.94383e-05
3.94467e-05
3.94535e-05
3.94589e-05
3.94631e-05
3.9466e-05
3.94677e-05
3.94682e-05
3.94675e-05
3.94654e-05
3.94621e-05
3.94575e-05
3.94517e-05
3.94447e-05
3.94366e-05
3.94273e-05
3.9417e-05
3.94056e-05
3.93933e-05
3.93799e-05
3.93656e-05
3.93503e-05
3.9334e-05
3.93168e-05
3.92986e-05
3.92795e-05
3.92595e-05
3.92385e-05
3.92165e-05
3.91934e-05
3.91694e-05
3.91442e-05
3.9118e-05
3.90905e-05
3.90617e-05
3.90317e-05
3.90004e-05
3.89677e-05
3.89338e-05
3.88985e-05
3.88619e-05
3.8824e-05
3.87848e-05
3.87442e-05
3.87023e-05
3.86592e-05
3.86147e-05
3.8569e-05
3.85221e-05
3.8474e-05
3.84249e-05
3.83748e-05
3.83237e-05
3.82715e-05
3.82185e-05
3.81652e-05
3.81119e-05
3.80586e-05
3.80041e-05
3.79474e-05
3.78885e-05
3.783e-05
3.77751e-05
3.77269e-05
3.76833e-05
3.76348e-05
3.75735e-05
3.74908e-05
3.73868e-05
3.72819e-05
3.71975e-05
3.71385e-05
4.19031e-05
4.19494e-05
4.1984e-05
4.20086e-05
4.203e-05
4.20513e-05
4.20732e-05
4.20951e-05
4.21157e-05
4.2134e-05
4.215e-05
4.21637e-05
4.21751e-05
4.21844e-05
4.21918e-05
4.21974e-05
4.22014e-05
4.22038e-05
4.22045e-05
4.22036e-05
4.2201e-05
4.21968e-05
4.21909e-05
4.21834e-05
4.21745e-05
4.2164e-05
4.21522e-05
4.2139e-05
4.21244e-05
4.21086e-05
4.20917e-05
4.20735e-05
4.20541e-05
4.20334e-05
4.20116e-05
4.19887e-05
4.19647e-05
4.19395e-05
4.1913e-05
4.18854e-05
4.18564e-05
4.18261e-05
4.17945e-05
4.17614e-05
4.17268e-05
4.16906e-05
4.16527e-05
4.16131e-05
4.15718e-05
4.15288e-05
4.14841e-05
4.14375e-05
4.13892e-05
4.13392e-05
4.12873e-05
4.12336e-05
4.11781e-05
4.11209e-05
4.10619e-05
4.1001e-05
4.09385e-05
4.08744e-05
4.08087e-05
4.07413e-05
4.06721e-05
4.06013e-05
4.05295e-05
4.04571e-05
4.03841e-05
4.0309e-05
4.02302e-05
4.01475e-05
4.00637e-05
3.99832e-05
3.99096e-05
3.9841e-05
3.97663e-05
3.96744e-05
3.95539e-05
3.94047e-05
3.92491e-05
3.91126e-05
3.90082e-05
4.4114e-05
4.41728e-05
4.42184e-05
4.42519e-05
4.42806e-05
4.43083e-05
4.43362e-05
4.43637e-05
4.43897e-05
4.44131e-05
4.44337e-05
4.44513e-05
4.44661e-05
4.44783e-05
4.44879e-05
4.44952e-05
4.45003e-05
4.45031e-05
4.45038e-05
4.45024e-05
4.44988e-05
4.4493e-05
4.44852e-05
4.44754e-05
4.44637e-05
4.44501e-05
4.44348e-05
4.44179e-05
4.43992e-05
4.43789e-05
4.43573e-05
4.43342e-05
4.43096e-05
4.42836e-05
4.42562e-05
4.42275e-05
4.41974e-05
4.4166e-05
4.41331e-05
4.40986e-05
4.40626e-05
4.4025e-05
4.39857e-05
4.39447e-05
4.39016e-05
4.38566e-05
4.38094e-05
4.37601e-05
4.37087e-05
4.3655e-05
4.35991e-05
4.35409e-05
4.34804e-05
4.34176e-05
4.33524e-05
4.32848e-05
4.32149e-05
4.31426e-05
4.30678e-05
4.29907e-05
4.29111e-05
4.28293e-05
4.27452e-05
4.26587e-05
4.25695e-05
4.24778e-05
4.23842e-05
4.22893e-05
4.21928e-05
4.20933e-05
4.19887e-05
4.18784e-05
4.17654e-05
4.16546e-05
4.15506e-05
4.14509e-05
4.13439e-05
4.1216e-05
4.10539e-05
4.08578e-05
4.06504e-05
4.04591e-05
4.03041e-05
4.58323e-05
4.59052e-05
4.59634e-05
4.60074e-05
4.60446e-05
4.60798e-05
4.61143e-05
4.61482e-05
4.61802e-05
4.62093e-05
4.62349e-05
4.6257e-05
4.62756e-05
4.62908e-05
4.63027e-05
4.63116e-05
4.63176e-05
4.63207e-05
4.63208e-05
4.63182e-05
4.63129e-05
4.63048e-05
4.62941e-05
4.62809e-05
4.62654e-05
4.62476e-05
4.62276e-05
4.62056e-05
4.61815e-05
4.61555e-05
4.61278e-05
4.60984e-05
4.60674e-05
4.60347e-05
4.60004e-05
4.59646e-05
4.59273e-05
4.58883e-05
4.58477e-05
4.58052e-05
4.57609e-05
4.57146e-05
4.56663e-05
4.56158e-05
4.55629e-05
4.55075e-05
4.54495e-05
4.53889e-05
4.53256e-05
4.52595e-05
4.51905e-05
4.51187e-05
4.5044e-05
4.49663e-05
4.48856e-05
4.48019e-05
4.47152e-05
4.46253e-05
4.45324e-05
4.44363e-05
4.4337e-05
4.42348e-05
4.41294e-05
4.40208e-05
4.39087e-05
4.37931e-05
4.36745e-05
4.35537e-05
4.34304e-05
4.33029e-05
4.31689e-05
4.30275e-05
4.28818e-05
4.2737e-05
4.25979e-05
4.24618e-05
4.23167e-05
4.21476e-05
4.19402e-05
4.16959e-05
4.14371e-05
4.11913e-05
4.09832e-05
4.7032e-05
4.71198e-05
4.71916e-05
4.72469e-05
4.72934e-05
4.73365e-05
4.73782e-05
4.74186e-05
4.74569e-05
4.74919e-05
4.75229e-05
4.75497e-05
4.75723e-05
4.75906e-05
4.76047e-05
4.76149e-05
4.76214e-05
4.7624e-05
4.76228e-05
4.76181e-05
4.761e-05
4.75984e-05
4.75836e-05
4.75657e-05
4.75449e-05
4.75213e-05
4.74952e-05
4.74666e-05
4.74355e-05
4.7402e-05
4.73665e-05
4.73292e-05
4.729e-05
4.72489e-05
4.72061e-05
4.71616e-05
4.71155e-05
4.70676e-05
4.70176e-05
4.69656e-05
4.69113e-05
4.68548e-05
4.67958e-05
4.67342e-05
4.66698e-05
4.66023e-05
4.65317e-05
4.64579e-05
4.63807e-05
4.63002e-05
4.62161e-05
4.61286e-05
4.60374e-05
4.59426e-05
4.58441e-05
4.57418e-05
4.56357e-05
4.55258e-05
4.54119e-05
4.52942e-05
4.51725e-05
4.50469e-05
4.49175e-05
4.47839e-05
4.46459e-05
4.45035e-05
4.4357e-05
4.42073e-05
4.40541e-05
4.38955e-05
4.37291e-05
4.35539e-05
4.3373e-05
4.31915e-05
4.30141e-05
4.28375e-05
4.26497e-05
4.24354e-05
4.21801e-05
4.18871e-05
4.15785e-05
4.12806e-05
4.10201e-05
4.77138e-05
4.78155e-05
4.79002e-05
4.79661e-05
4.80207e-05
4.80709e-05
4.81189e-05
4.81653e-05
4.82094e-05
4.825e-05
4.82861e-05
4.83175e-05
4.83439e-05
4.83651e-05
4.83811e-05
4.83921e-05
4.83982e-05
4.83994e-05
4.83959e-05
4.83878e-05
4.83755e-05
4.8359e-05
4.83386e-05
4.83143e-05
4.82866e-05
4.82555e-05
4.82213e-05
4.81843e-05
4.81443e-05
4.81015e-05
4.80561e-05
4.80087e-05
4.79592e-05
4.79078e-05
4.78545e-05
4.77994e-05
4.77425e-05
4.76837e-05
4.76225e-05
4.7559e-05
4.74928e-05
4.7424e-05
4.73523e-05
4.72775e-05
4.71994e-05
4.71177e-05
4.70322e-05
4.69429e-05
4.68497e-05
4.67523e-05
4.66508e-05
4.65451e-05
4.6435e-05
4.63206e-05
4.62017e-05
4.60782e-05
4.59502e-05
4.58175e-05
4.568e-05
4.55378e-05
4.53908e-05
4.52391e-05
4.50827e-05
4.49213e-05
4.47547e-05
4.45826e-05
4.44057e-05
4.42246e-05
4.4039e-05
4.3847e-05
4.36461e-05
4.34356e-05
4.32183e-05
4.29991e-05
4.27822e-05
4.25635e-05
4.23312e-05
4.20701e-05
4.17666e-05
4.14265e-05
4.10715e-05
4.07259e-05
4.04163e-05
4.79191e-05
4.80321e-05
4.81254e-05
4.81972e-05
4.82553e-05
4.83083e-05
4.83596e-05
4.84095e-05
4.84575e-05
4.85021e-05
4.85423e-05
4.85774e-05
4.86069e-05
4.86303e-05
4.86474e-05
4.86584e-05
4.86631e-05
4.86619e-05
4.86547e-05
4.86421e-05
4.86243e-05
4.86016e-05
4.85741e-05
4.85422e-05
4.85059e-05
4.84657e-05
4.84217e-05
4.83744e-05
4.83237e-05
4.82693e-05
4.82118e-05
4.81518e-05
4.80896e-05
4.80252e-05
4.79588e-05
4.78905e-05
4.78203e-05
4.77479e-05
4.76729e-05
4.75951e-05
4.75143e-05
4.74303e-05
4.73431e-05
4.72523e-05
4.71577e-05
4.70589e-05
4.69557e-05
4.68481e-05
4.6736e-05
4.6619e-05
4.64973e-05
4.63706e-05
4.62389e-05
4.61022e-05
4.59602e-05
4.58128e-05
4.56601e-05
4.55019e-05
4.53381e-05
4.51686e-05
4.49936e-05
4.48131e-05
4.4627e-05
4.44351e-05
4.42372e-05
4.40331e-05
4.38233e-05
4.36085e-05
4.33886e-05
4.31618e-05
4.29254e-05
4.26791e-05
4.24259e-05
4.21704e-05
4.19159e-05
4.16572e-05
4.13826e-05
4.10777e-05
4.07305e-05
4.03492e-05
3.9955e-05
3.95692e-05
3.92166e-05
3.88776e-05
4.78786e-05
4.79672e-05
4.80324e-05
4.80816e-05
4.81274e-05
4.81741e-05
4.82216e-05
4.82687e-05
4.83138e-05
4.83553e-05
4.83919e-05
4.84227e-05
4.8447e-05
4.84642e-05
4.84741e-05
4.84767e-05
4.84723e-05
4.84612e-05
4.84439e-05
4.84207e-05
4.83918e-05
4.83574e-05
4.83175e-05
4.82724e-05
4.82223e-05
4.81673e-05
4.81083e-05
4.8045e-05
4.79769e-05
4.79047e-05
4.7829e-05
4.77507e-05
4.76699e-05
4.75867e-05
4.75015e-05
4.74141e-05
4.73242e-05
4.72313e-05
4.71352e-05
4.70356e-05
4.69323e-05
4.68252e-05
4.67142e-05
4.65989e-05
4.6479e-05
4.63542e-05
4.62245e-05
4.60897e-05
4.59496e-05
4.58042e-05
4.56533e-05
4.54968e-05
4.53347e-05
4.51667e-05
4.49929e-05
4.48129e-05
4.46266e-05
4.44341e-05
4.42351e-05
4.40299e-05
4.38183e-05
4.36004e-05
4.3376e-05
4.31446e-05
4.29064e-05
4.26618e-05
4.24114e-05
4.21553e-05
4.18925e-05
4.162e-05
4.13381e-05
4.10504e-05
4.07614e-05
4.0474e-05
4.01819e-05
3.98732e-05
3.95347e-05
3.91562e-05
3.87477e-05
3.83285e-05
3.79163e-05
3.75319e-05
3.71677e-05
3.67659e-05
3.62951e-05
4.7579e-05
4.76313e-05
4.76618e-05
4.76762e-05
4.76941e-05
4.77201e-05
4.77527e-05
4.77893e-05
4.78271e-05
4.78636e-05
4.7897e-05
4.79256e-05
4.79483e-05
4.79642e-05
4.79732e-05
4.79751e-05
4.79702e-05
4.79586e-05
4.79405e-05
4.7916e-05
4.7885e-05
4.7847e-05
4.78021e-05
4.77499e-05
4.76909e-05
4.76248e-05
4.75533e-05
4.74756e-05
4.73915e-05
4.73013e-05
4.72059e-05
4.71067e-05
4.70042e-05
4.68986e-05
4.67903e-05
4.66794e-05
4.65654e-05
4.6448e-05
4.63268e-05
4.62017e-05
4.60722e-05
4.59385e-05
4.58006e-05
4.56581e-05
4.55108e-05
4.53585e-05
4.5201e-05
4.50382e-05
4.487e-05
4.46962e-05
4.45167e-05
4.43316e-05
4.41406e-05
4.39436e-05
4.37404e-05
4.35309e-05
4.33147e-05
4.30918e-05
4.28621e-05
4.26256e-05
4.23824e-05
4.21323e-05
4.18749e-05
4.161e-05
4.13373e-05
4.10571e-05
4.07701e-05
4.04766e-05
4.01756e-05
3.98656e-05
3.95464e-05
3.92228e-05
3.89009e-05
3.85848e-05
3.82689e-05
3.7941e-05
3.75883e-05
3.72022e-05
3.67923e-05
3.63746e-05
3.59606e-05
3.55659e-05
3.5188e-05
3.47772e-05
3.43019e-05
4.75467e-05
4.75021e-05
4.74429e-05
4.73739e-05
4.73256e-05
4.73008e-05
4.72942e-05
4.73004e-05
4.73147e-05
4.73334e-05
4.7353e-05
4.73719e-05
4.73891e-05
4.74052e-05
4.74203e-05
4.74328e-05
4.74404e-05
4.74418e-05
4.7436e-05
4.74223e-05
4.73993e-05
4.73661e-05
4.73223e-05
4.72673e-05
4.72018e-05
4.71251e-05
4.70395e-05
4.69447e-05
4.68405e-05
4.67272e-05
4.66058e-05
4.64782e-05
4.63453e-05
4.62077e-05
4.60662e-05
4.5921e-05
4.5772e-05
4.56187e-05
4.54613e-05
4.52995e-05
4.51328e-05
4.49613e-05
4.47855e-05
4.46053e-05
4.44205e-05
4.42309e-05
4.40365e-05
4.38372e-05
4.36329e-05
4.34236e-05
4.32091e-05
4.29894e-05
4.27646e-05
4.25344e-05
4.22986e-05
4.20572e-05
4.18096e-05
4.15557e-05
4.12955e-05
4.1029e-05
4.07562e-05
4.04768e-05
4.01904e-05
3.98962e-05
3.95936e-05
3.92826e-05
3.89631e-05
3.86349e-05
3.82969e-05
3.79477e-05
3.7586e-05
3.72164e-05
3.68489e-05
3.6493e-05
3.61527e-05
3.58217e-05
3.54831e-05
3.51264e-05
3.47564e-05
3.43816e-05
3.40065e-05
3.36412e-05
3.32885e-05
3.29146e-05
3.25105e-05
4.86348e-05
4.8362e-05
4.81006e-05
4.78531e-05
4.76638e-05
4.75264e-05
4.74283e-05
4.73599e-05
4.73137e-05
4.72829e-05
4.72624e-05
4.72535e-05
4.72588e-05
4.72854e-05
4.73329e-05
4.73899e-05
4.74434e-05
4.74871e-05
4.7518e-05
4.75341e-05
4.75336e-05
4.75155e-05
4.74793e-05
4.74248e-05
4.7353e-05
4.72637e-05
4.71595e-05
4.7041e-05
4.69087e-05
4.67633e-05
4.66056e-05
4.64374e-05
4.62604e-05
4.60759e-05
4.5885e-05
4.56886e-05
4.54869e-05
4.52799e-05
4.5068e-05
4.48514e-05
4.46297e-05
4.44027e-05
4.41713e-05
4.39358e-05
4.36965e-05
4.34534e-05
4.32064e-05
4.29559e-05
4.27017e-05
4.24441e-05
4.21828e-05
4.1918e-05
4.16499e-05
4.13784e-05
4.11037e-05
4.08254e-05
4.05433e-05
4.02571e-05
3.99669e-05
3.96729e-05
3.9375e-05
3.90731e-05
3.87668e-05
3.84553e-05
3.81374e-05
3.78123e-05
3.74788e-05
3.71352e-05
3.67784e-05
3.64033e-05
3.60034e-05
3.55731e-05
3.51219e-05
3.46656e-05
3.4234e-05
3.39005e-05
3.36136e-05
3.33396e-05
3.30724e-05
3.28055e-05
3.25397e-05
3.22772e-05
3.20228e-05
3.17872e-05
3.15975e-05
5.35583e-05
5.29745e-05
5.24398e-05
5.19552e-05
5.15784e-05
5.12836e-05
5.10513e-05
5.08713e-05
5.07319e-05
5.06242e-05
5.05424e-05
5.04817e-05
5.04383e-05
5.04084e-05
5.03871e-05
5.03681e-05
5.03462e-05
5.03171e-05
5.02779e-05
5.02264e-05
5.01604e-05
5.00781e-05
4.99784e-05
4.98599e-05
4.97226e-05
4.9566e-05
4.93918e-05
4.92002e-05
4.89928e-05
4.87713e-05
4.85358e-05
4.82874e-05
4.80273e-05
4.77567e-05
4.74769e-05
4.71893e-05
4.68944e-05
4.65928e-05
4.62851e-05
4.59726e-05
4.56557e-05
4.53341e-05
4.50084e-05
4.46794e-05
4.4348e-05
4.40145e-05
4.36795e-05
4.33434e-05
4.30067e-05
4.26697e-05
4.23328e-05
4.19961e-05
4.16602e-05
4.13252e-05
4.09916e-05
4.06594e-05
4.03288e-05
3.99997e-05
3.96726e-05
3.9348e-05
3.90262e-05
3.87071e-05
3.83908e-05
3.80779e-05
3.77684e-05
3.74622e-05
3.71587e-05
3.68568e-05
3.65545e-05
3.62465e-05
3.59265e-05
3.55988e-05
3.52736e-05
3.49625e-05
3.46771e-05
3.44245e-05
3.42039e-05
3.40055e-05
3.38205e-05
3.36388e-05
3.34567e-05
3.32694e-05
3.30926e-05
3.29752e-05
3.29819e-05
3.31778e-05
3.3504e-05
3.38759e-05
6.22633e-05
6.13559e-05
6.05671e-05
5.98605e-05
5.92987e-05
5.88321e-05
5.84417e-05
5.8115e-05
5.78438e-05
5.7622e-05
5.74451e-05
5.73077e-05
5.72033e-05
5.71248e-05
5.70638e-05
5.70119e-05
5.69615e-05
5.69069e-05
5.68435e-05
5.67679e-05
5.66772e-05
5.65688e-05
5.64404e-05
5.62897e-05
5.61154e-05
5.59164e-05
5.56933e-05
5.54461e-05
5.51765e-05
5.48861e-05
5.45759e-05
5.42472e-05
5.3901e-05
5.35383e-05
5.3161e-05
5.27706e-05
5.23685e-05
5.19558e-05
5.15337e-05
5.11038e-05
5.06678e-05
5.02263e-05
4.97798e-05
4.93291e-05
4.88753e-05
4.84194e-05
4.79625e-05
4.75057e-05
4.70498e-05
4.65958e-05
4.61445e-05
4.56964e-05
4.52523e-05
4.48127e-05
4.43783e-05
4.39498e-05
4.35276e-05
4.31123e-05
4.27045e-05
4.23053e-05
4.19155e-05
4.15364e-05
4.11694e-05
4.08162e-05
4.04789e-05
4.01599e-05
3.98628e-05
3.95941e-05
3.93645e-05
3.91749e-05
3.89496e-05
3.86905e-05
3.84193e-05
3.81456e-05
3.78818e-05
3.76369e-05
3.7423e-05
3.72412e-05
3.70795e-05
3.69189e-05
3.67503e-05
3.65675e-05
3.63845e-05
3.6249e-05
3.62062e-05
3.62821e-05
3.64898e-05
3.67659e-05
7.14243e-05
7.06763e-05
7.00142e-05
6.94311e-05
6.89195e-05
6.84754e-05
6.8097e-05
6.77834e-05
6.75321e-05
6.73377e-05
6.71914e-05
6.70826e-05
6.7e-05
6.69335e-05
6.68743e-05
6.68147e-05
6.67483e-05
6.66697e-05
6.6574e-05
6.64569e-05
6.6314e-05
6.61418e-05
6.59378e-05
6.5701e-05
6.5431e-05
6.51285e-05
6.47956e-05
6.44339e-05
6.40451e-05
6.363e-05
6.31897e-05
6.2726e-05
6.22408e-05
6.17361e-05
6.12137e-05
6.06754e-05
6.01238e-05
5.95614e-05
5.89903e-05
5.84107e-05
5.78235e-05
5.72302e-05
5.66324e-05
5.60317e-05
5.54296e-05
5.48276e-05
5.42272e-05
5.36297e-05
5.30361e-05
5.24474e-05
5.18645e-05
5.12884e-05
5.07199e-05
5.016e-05
4.96095e-05
4.90691e-05
4.85398e-05
4.80224e-05
4.75179e-05
4.70271e-05
4.65508e-05
4.60895e-05
4.56429e-05
4.52107e-05
4.47932e-05
4.43907e-05
4.40003e-05
4.36149e-05
4.32331e-05
4.28555e-05
4.24837e-05
4.21276e-05
4.17958e-05
4.14946e-05
4.12304e-05
4.09886e-05
4.07514e-05
4.05079e-05
4.02503e-05
3.99885e-05
3.97643e-05
3.96171e-05
3.95686e-05
3.96313e-05
3.97475e-05
8.31735e-05
8.22825e-05
8.14642e-05
8.07197e-05
8.00481e-05
7.94503e-05
7.89296e-05
7.84895e-05
7.81314e-05
7.78522e-05
7.76432e-05
7.74919e-05
7.73841e-05
7.73064e-05
7.72472e-05
7.71963e-05
7.7145e-05
7.70856e-05
7.70115e-05
7.69158e-05
7.67921e-05
7.66348e-05
7.64395e-05
7.6204e-05
7.59268e-05
7.56081e-05
7.52494e-05
7.48526e-05
7.44193e-05
7.39506e-05
7.34477e-05
7.29121e-05
7.2346e-05
7.17518e-05
7.11317e-05
7.04885e-05
6.9825e-05
6.91447e-05
6.84503e-05
6.77428e-05
6.70232e-05
6.62934e-05
6.55553e-05
6.48108e-05
6.40619e-05
6.33104e-05
6.25583e-05
6.18074e-05
6.1059e-05
6.03145e-05
5.9575e-05
5.88418e-05
5.81159e-05
5.73985e-05
5.66906e-05
5.59931e-05
5.53069e-05
5.46325e-05
5.39708e-05
5.33226e-05
5.26882e-05
5.20679e-05
5.14612e-05
5.08677e-05
5.02883e-05
4.97247e-05
4.9178e-05
4.86468e-05
4.81279e-05
4.76189e-05
4.71195e-05
4.66391e-05
4.6188e-05
4.57655e-05
4.53793e-05
4.50161e-05
4.46598e-05
4.43009e-05
4.39328e-05
4.35625e-05
4.3226e-05
4.29543e-05
4.27633e-05
4.26581e-05
4.25882e-05
4.21528e-05
4.03834e-05
3.69769e-05
3.47234e-05
4.00128e-05
9.48747e-05
9.38434e-05
9.28688e-05
9.19556e-05
9.11083e-05
9.0333e-05
8.96379e-05
8.90324e-05
8.85236e-05
8.81132e-05
8.77955e-05
8.75588e-05
8.73881e-05
8.72687e-05
8.71871e-05
8.71312e-05
8.709e-05
8.70532e-05
8.70112e-05
8.6954e-05
8.68716e-05
8.67552e-05
8.65974e-05
8.63935e-05
8.61406e-05
8.58372e-05
8.54843e-05
8.50835e-05
8.46364e-05
8.41439e-05
8.3607e-05
8.3027e-05
8.2406e-05
8.17462e-05
8.10504e-05
8.03217e-05
7.95638e-05
7.87811e-05
7.79771e-05
7.71535e-05
7.63119e-05
7.54541e-05
7.45826e-05
7.36996e-05
7.28074e-05
7.19084e-05
7.1005e-05
7.00993e-05
6.91934e-05
6.82889e-05
6.73873e-05
6.64902e-05
6.55989e-05
6.4715e-05
6.38396e-05
6.2974e-05
6.21191e-05
6.12758e-05
6.04451e-05
5.96279e-05
5.88249e-05
5.80366e-05
5.72628e-05
5.65039e-05
5.57611e-05
5.50369e-05
5.43328e-05
5.3648e-05
5.29788e-05
5.23225e-05
5.16786e-05
5.10558e-05
5.04639e-05
4.99022e-05
4.9374e-05
4.88682e-05
4.83724e-05
4.78794e-05
4.73846e-05
4.68917e-05
4.64313e-05
4.60239e-05
4.56789e-05
4.53954e-05
4.51329e-05
4.45978e-05
4.28734e-05
3.9426e-05
3.60205e-05
3.90803e-05
0.000106387
0.000105213
0.000104078
0.000102986
0.000101945
0.000100966
0.00010006
9.92444e-05
9.85323e-05
9.79326e-05
9.74458e-05
9.7064e-05
9.67743e-05
9.65627e-05
9.6416e-05
9.63214e-05
9.62665e-05
9.62385e-05
9.62246e-05
9.62105e-05
9.61819e-05
9.61248e-05
9.60276e-05
9.58819e-05
9.56818e-05
9.54239e-05
9.51079e-05
9.47347e-05
9.43053e-05
9.38205e-05
9.32804e-05
9.26857e-05
9.20378e-05
9.13388e-05
9.05914e-05
8.97991e-05
8.89662e-05
8.80981e-05
8.71996e-05
8.62734e-05
8.53213e-05
8.43456e-05
8.33491e-05
8.23344e-05
8.13042e-05
8.02614e-05
7.92088e-05
7.81494e-05
7.70857e-05
7.60199e-05
7.49539e-05
7.38898e-05
7.28294e-05
7.17745e-05
7.07269e-05
6.96881e-05
6.86594e-05
6.76422e-05
6.66376e-05
6.56468e-05
6.46711e-05
6.37111e-05
6.27671e-05
6.18397e-05
6.09306e-05
6.0042e-05
5.91756e-05
5.83307e-05
5.75037e-05
5.66923e-05
5.5896e-05
5.51226e-05
5.4381e-05
5.36726e-05
5.29941e-05
5.23376e-05
5.16947e-05
5.10608e-05
5.04337e-05
4.98129e-05
4.92241e-05
4.8677e-05
4.81753e-05
4.77146e-05
4.72679e-05
4.66336e-05
4.50003e-05
4.17507e-05
3.77304e-05
3.85479e-05
0.000117506
0.000116198
0.000114907
0.000113637
0.000112396
0.000111197
0.000110055
0.000108992
0.000108027
0.000107179
0.000106456
0.000105858
0.000105377
0.000105004
0.000104727
0.000104536
0.00010442
0.000104364
0.000104354
0.00010437
0.000104392
0.000104401
0.000104378
0.000104309
0.000104185
0.000103999
0.00010375
0.000103435
0.000103056
0.000102612
0.000102102
0.000101525
0.000100882
0.000100174
9.9403e-05
9.85728e-05
9.7688e-05
9.67552e-05
9.57807e-05
9.47684e-05
9.37205e-05
9.26401e-05
9.15301e-05
9.03936e-05
8.92338e-05
8.8054e-05
8.68576e-05
8.56484e-05
8.44296e-05
8.32041e-05
8.19746e-05
8.07435e-05
7.95133e-05
7.82865e-05
7.70652e-05
7.58516e-05
7.46475e-05
7.34545e-05
7.22744e-05
7.11087e-05
6.99589e-05
6.88261e-05
6.77109e-05
6.66143e-05
6.5538e-05
6.44842e-05
6.34546e-05
6.24485e-05
6.14631e-05
6.04965e-05
5.95482e-05
5.8625e-05
5.77345e-05
5.6881e-05
5.6053e-05
5.52476e-05
5.44602e-05
5.36888e-05
5.29324e-05
5.21868e-05
5.14731e-05
5.07908e-05
5.01392e-05
4.95135e-05
4.8903e-05
4.81808e-05
4.66712e-05
4.37613e-05
3.96024e-05
3.8586e-05
0.000127925
0.000126508
0.000125081
0.00012365
0.000122221
0.000120807
0.000119424
0.000118094
0.000116845
0.000115701
0.000114682
0.000113796
0.000113045
0.000112425
0.000111934
0.000111566
0.000111314
0.000111166
0.000111106
0.000111113
0.000111161
0.000111222
0.00011127
0.000111284
0.000111249
0.000111154
0.000110994
0.000110765
0.000110467
0.000110097
0.000109652
0.000109129
0.000108526
0.000107843
0.000107081
0.000106243
0.000105335
0.000104363
0.000103337
0.00010226
0.000101136
9.99691e-05
9.87625e-05
9.75197e-05
9.62442e-05
9.49396e-05
9.36102e-05
9.22604e-05
9.08943e-05
8.95157e-05
8.8128e-05
8.67344e-05
8.53384e-05
8.39429e-05
8.25508e-05
8.1165e-05
7.97879e-05
7.84217e-05
7.70687e-05
7.57308e-05
7.44098e-05
7.31073e-05
7.18245e-05
7.05626e-05
6.93235e-05
6.81093e-05
6.69217e-05
6.57605e-05
6.46234e-05
6.35091e-05
6.24174e-05
6.13538e-05
6.03243e-05
5.93325e-05
5.83678e-05
5.74263e-05
5.65075e-05
5.56118e-05
5.47388e-05
5.38816e-05
5.30562e-05
5.22534e-05
5.147e-05
5.07037e-05