/*--------------------------------*- C++ -*----------------------------------*\
| =========                 |                                                 |
| \\      /  F ield         | OpenFOAM: The Open Source CFD Toolbox           |
|  \\    /   O peration     | Version:  2412                                  |
|   \\  /    A nd           | Website:  www.openfoam.com                      |
|    \\/     M anipulation  |                                                 |
\*---------------------------------------------------------------------------*/
FoamFile
{
    version     2.0;
    format      ascii;
    arch        "LSB;label=32;scalar=64";
    class       volScalarField;
    location    "40";
    object      nuTilda;
}
// * * * * * * * * * * * * * * * * * * * * * * * * * * * * * * * * * * * * * //

dimensions      [0 2 -1 0 0 0 0];

internalField   nonuniform List<scalar> 
8702
(
3.14268e-06
3.14197e-06
3.14131e-06
3.14098e-06
3.14014e-06
3.13956e-06
3.13901e-06
3.13845e-06
3.13787e-06
3.13736e-06
3.13686e-06
3.13636e-06
3.13586e-06
3.1354e-06
3.13495e-06
3.13453e-06
3.13406e-06
3.13363e-06
3.13328e-06
3.13287e-06
3.13244e-06
3.13208e-06
3.13168e-06
3.13131e-06
3.13097e-06
3.13067e-06
3.13029e-06
3.13002e-06
3.12975e-06
3.12946e-06
3.12923e-06
3.12902e-06
3.12878e-06
3.12859e-06
3.12843e-06
3.12819e-06
3.12805e-06
3.12788e-06
3.12778e-06
3.12767e-06
3.12762e-06
3.12752e-06
3.12749e-06
3.12743e-06
3.12748e-06
3.12755e-06
3.12764e-06
3.12773e-06
3.12785e-06
3.12793e-06
3.12808e-06
3.12826e-06
3.12851e-06
3.12873e-06
3.12906e-06
3.12943e-06
3.12982e-06
3.13021e-06
3.13065e-06
3.13119e-06
3.13176e-06
3.13228e-06
3.13295e-06
3.13365e-06
3.13448e-06
3.13528e-06
3.13616e-06
3.13708e-06
3.13793e-06
3.13892e-06
3.14028e-06
3.14191e-06
3.14349e-06
3.14468e-06
3.14532e-06
3.1458e-06
3.14707e-06
3.14985e-06
3.15496e-06
3.16156e-06
3.16691e-06
3.16982e-06
8.91325e-06
8.91167e-06
8.90978e-06
8.90898e-06
8.90679e-06
8.9052e-06
8.9036e-06
8.90214e-06
8.90065e-06
8.89924e-06
8.89783e-06
8.89646e-06
8.89512e-06
8.89385e-06
8.89263e-06
8.8915e-06
8.89024e-06
8.88909e-06
8.88801e-06
8.88689e-06
8.88581e-06
8.88477e-06
8.8837e-06
8.88272e-06
8.88176e-06
8.88091e-06
8.87986e-06
8.8791e-06
8.87829e-06
8.87748e-06
8.87677e-06
8.87609e-06
8.87542e-06
8.87477e-06
8.87424e-06
8.87364e-06
8.87315e-06
8.87261e-06
8.87227e-06
8.87189e-06
8.87165e-06
8.87128e-06
8.87109e-06
8.87088e-06
8.87089e-06
8.87089e-06
8.87095e-06
8.87103e-06
8.8712e-06
8.87137e-06
8.87171e-06
8.87201e-06
8.87248e-06
8.87292e-06
8.87362e-06
8.87434e-06
8.87513e-06
8.87604e-06
8.87705e-06
8.87822e-06
8.87947e-06
8.88069e-06
8.88218e-06
8.88377e-06
8.8856e-06
8.88749e-06
8.88952e-06
8.89156e-06
8.8935e-06
8.89574e-06
8.89881e-06
8.90259e-06
8.90637e-06
8.90937e-06
8.91093e-06
8.91166e-06
8.9139e-06
8.91975e-06
8.93143e-06
8.94765e-06
8.96213e-06
8.97118e-06
1.37728e-05
1.37713e-05
1.37685e-05
1.37674e-05
1.37643e-05
1.37619e-05
1.37595e-05
1.37575e-05
1.37554e-05
1.37534e-05
1.37513e-05
1.37493e-05
1.37474e-05
1.37456e-05
1.37438e-05
1.37421e-05
1.37403e-05
1.37386e-05
1.37369e-05
1.37353e-05
1.37337e-05
1.37321e-05
1.37306e-05
1.37291e-05
1.37276e-05
1.37263e-05
1.37247e-05
1.37235e-05
1.37222e-05
1.3721e-05
1.37198e-05
1.37186e-05
1.37176e-05
1.37165e-05
1.37156e-05
1.37146e-05
1.37137e-05
1.37127e-05
1.37121e-05
1.37113e-05
1.37107e-05
1.371e-05
1.37095e-05
1.3709e-05
1.37087e-05
1.37084e-05
1.37082e-05
1.3708e-05
1.37079e-05
1.37079e-05
1.3708e-05
1.37081e-05
1.37084e-05
1.37087e-05
1.37092e-05
1.37098e-05
1.37104e-05
1.37113e-05
1.37123e-05
1.37134e-05
1.37146e-05
1.37158e-05
1.37172e-05
1.37188e-05
1.37207e-05
1.37227e-05
1.37248e-05
1.37269e-05
1.37289e-05
1.37311e-05
1.37344e-05
1.37387e-05
1.37432e-05
1.37468e-05
1.37484e-05
1.37482e-05
1.37494e-05
1.3755e-05
1.37686e-05
1.37895e-05
1.38105e-05
1.38252e-05
1.75601e-05
1.75602e-05
1.75568e-05
1.75555e-05
1.75518e-05
1.75488e-05
1.75459e-05
1.75435e-05
1.75412e-05
1.75388e-05
1.75363e-05
1.75339e-05
1.75316e-05
1.75294e-05
1.75273e-05
1.75252e-05
1.7523e-05
1.75209e-05
1.75189e-05
1.75169e-05
1.75149e-05
1.7513e-05
1.7511e-05
1.75093e-05
1.75074e-05
1.75056e-05
1.75037e-05
1.7502e-05
1.75003e-05
1.74987e-05
1.74971e-05
1.74955e-05
1.7494e-05
1.74925e-05
1.74911e-05
1.74897e-05
1.74884e-05
1.7487e-05
1.74859e-05
1.74847e-05
1.74836e-05
1.74824e-05
1.74814e-05
1.74805e-05
1.74797e-05
1.7479e-05
1.74783e-05
1.74776e-05
1.74769e-05
1.74763e-05
1.74759e-05
1.74755e-05
1.74752e-05
1.74749e-05
1.74748e-05
1.74748e-05
1.74748e-05
1.7475e-05
1.74753e-05
1.74757e-05
1.74762e-05
1.74766e-05
1.74773e-05
1.74781e-05
1.7479e-05
1.74803e-05
1.74815e-05
1.74827e-05
1.74836e-05
1.74847e-05
1.74867e-05
1.749e-05
1.74939e-05
1.7497e-05
1.74976e-05
1.74957e-05
1.74941e-05
1.7497e-05
1.75086e-05
1.75302e-05
1.75549e-05
1.75746e-05
2.0295e-05
2.02986e-05
2.0295e-05
2.02932e-05
2.02892e-05
2.02858e-05
2.02826e-05
2.028e-05
2.02776e-05
2.02751e-05
2.02724e-05
2.02698e-05
2.02673e-05
2.02648e-05
2.02626e-05
2.02604e-05
2.02578e-05
2.02556e-05
2.02533e-05
2.02511e-05
2.02488e-05
2.02466e-05
2.02444e-05
2.02424e-05
2.02402e-05
2.02381e-05
2.02358e-05
2.02337e-05
2.02316e-05
2.02297e-05
2.02277e-05
2.02257e-05
2.02238e-05
2.02219e-05
2.022e-05
2.02182e-05
2.02164e-05
2.02145e-05
2.02128e-05
2.02111e-05
2.02095e-05
2.02077e-05
2.02061e-05
2.02045e-05
2.02031e-05
2.02017e-05
2.02002e-05
2.01988e-05
2.01974e-05
2.0196e-05
2.01947e-05
2.01935e-05
2.01922e-05
2.01909e-05
2.01898e-05
2.01888e-05
2.01877e-05
2.01868e-05
2.01859e-05
2.01851e-05
2.01843e-05
2.01834e-05
2.01825e-05
2.01818e-05
2.01811e-05
2.01808e-05
2.01804e-05
2.01797e-05
2.01787e-05
2.01776e-05
2.01773e-05
2.01785e-05
2.01805e-05
2.01822e-05
2.01813e-05
2.01768e-05
2.01713e-05
2.01695e-05
2.01762e-05
2.0195e-05
2.0221e-05
2.02447e-05
2.20922e-05
2.21014e-05
2.20984e-05
2.20958e-05
2.20916e-05
2.20878e-05
2.20844e-05
2.20818e-05
2.20794e-05
2.2077e-05
2.20742e-05
2.20716e-05
2.2069e-05
2.20664e-05
2.20642e-05
2.20619e-05
2.20592e-05
2.20568e-05
2.20544e-05
2.20521e-05
2.20496e-05
2.20473e-05
2.20448e-05
2.20426e-05
2.20402e-05
2.20378e-05
2.20352e-05
2.20328e-05
2.20304e-05
2.20281e-05
2.20258e-05
2.20234e-05
2.20211e-05
2.20187e-05
2.20164e-05
2.20141e-05
2.20117e-05
2.20094e-05
2.2007e-05
2.20048e-05
2.20024e-05
2.20001e-05
2.19978e-05
2.19955e-05
2.19932e-05
2.1991e-05
2.19887e-05
2.19864e-05
2.1984e-05
2.19817e-05
2.19793e-05
2.19771e-05
2.19746e-05
2.19723e-05
2.19698e-05
2.19676e-05
2.19651e-05
2.19627e-05
2.19604e-05
2.1958e-05
2.19555e-05
2.19529e-05
2.19501e-05
2.19476e-05
2.19448e-05
2.19424e-05
2.19399e-05
2.1937e-05
2.19336e-05
2.19299e-05
2.19266e-05
2.1925e-05
2.19246e-05
2.19243e-05
2.19218e-05
2.19148e-05
2.19053e-05
2.18977e-05
2.18978e-05
2.19113e-05
2.19366e-05
2.19634e-05
2.3127e-05
2.31444e-05
2.31432e-05
2.31392e-05
2.31345e-05
2.31303e-05
2.31267e-05
2.31241e-05
2.31219e-05
2.31196e-05
2.3117e-05
2.31144e-05
2.31118e-05
2.31093e-05
2.3107e-05
2.31048e-05
2.31021e-05
2.30997e-05
2.30972e-05
2.30948e-05
2.30923e-05
2.30898e-05
2.30872e-05
2.30848e-05
2.30823e-05
2.30796e-05
2.30769e-05
2.30741e-05
2.30715e-05
2.30688e-05
2.30662e-05
2.30635e-05
2.30607e-05
2.3058e-05
2.30553e-05
2.30525e-05
2.30496e-05
2.30469e-05
2.30438e-05
2.30411e-05
2.3038e-05
2.30351e-05
2.3032e-05
2.3029e-05
2.3026e-05
2.3023e-05
2.30198e-05
2.30167e-05
2.30133e-05
2.30101e-05
2.30066e-05
2.30034e-05
2.29997e-05
2.29963e-05
2.29925e-05
2.2989e-05
2.29852e-05
2.29814e-05
2.29775e-05
2.29736e-05
2.29695e-05
2.29653e-05
2.29606e-05
2.29563e-05
2.29516e-05
2.29472e-05
2.29428e-05
2.2938e-05
2.29324e-05
2.29264e-05
2.29204e-05
2.29161e-05
2.29135e-05
2.29118e-05
2.29084e-05
2.29002e-05
2.28877e-05
2.28753e-05
2.28688e-05
2.2876e-05
2.28993e-05
2.29289e-05
2.36005e-05
2.36281e-05
2.36307e-05
2.36249e-05
2.36193e-05
2.36143e-05
2.36105e-05
2.36078e-05
2.36059e-05
2.36039e-05
2.36014e-05
2.35989e-05
2.35964e-05
2.3594e-05
2.35918e-05
2.35898e-05
2.35872e-05
2.35847e-05
2.35823e-05
2.35799e-05
2.35773e-05
2.35748e-05
2.35722e-05
2.35697e-05
2.35671e-05
2.35643e-05
2.35614e-05
2.35584e-05
2.35555e-05
2.35526e-05
2.35498e-05
2.35468e-05
2.35438e-05
2.35407e-05
2.35376e-05
2.35346e-05
2.35313e-05
2.35282e-05
2.35246e-05
2.35215e-05
2.35179e-05
2.35145e-05
2.35108e-05
2.35073e-05
2.35036e-05
2.35e-05
2.34962e-05
2.34924e-05
2.34884e-05
2.34844e-05
2.34801e-05
2.34762e-05
2.34717e-05
2.34675e-05
2.34627e-05
2.34583e-05
2.34536e-05
2.34488e-05
2.34439e-05
2.34389e-05
2.34338e-05
2.34286e-05
2.34227e-05
2.34173e-05
2.34115e-05
2.34059e-05
2.34006e-05
2.33948e-05
2.33883e-05
2.33812e-05
2.33737e-05
2.33679e-05
2.33643e-05
2.33625e-05
2.33601e-05
2.33529e-05
2.33402e-05
2.33257e-05
2.33149e-05
2.3317e-05
2.33384e-05
2.33708e-05
2.37074e-05
2.3745e-05
2.37548e-05
2.37472e-05
2.37398e-05
2.37337e-05
2.37295e-05
2.37266e-05
2.37248e-05
2.37232e-05
2.37211e-05
2.37187e-05
2.37164e-05
2.37141e-05
2.37121e-05
2.37103e-05
2.37079e-05
2.37055e-05
2.37031e-05
2.37008e-05
2.36983e-05
2.36958e-05
2.36933e-05
2.36907e-05
2.36883e-05
2.36854e-05
2.36826e-05
2.36794e-05
2.36764e-05
2.36735e-05
2.36705e-05
2.36675e-05
2.36643e-05
2.36612e-05
2.3658e-05
2.36548e-05
2.36513e-05
2.36482e-05
2.36444e-05
2.36412e-05
2.36374e-05
2.3634e-05
2.36301e-05
2.36265e-05
2.36226e-05
2.36188e-05
2.3615e-05
2.3611e-05
2.36069e-05
2.3603e-05
2.35984e-05
2.35945e-05
2.35901e-05
2.3586e-05
2.35813e-05
2.3577e-05
2.35725e-05
2.35679e-05
2.35633e-05
2.35585e-05
2.35537e-05
2.35489e-05
2.35434e-05
2.35384e-05
2.35331e-05
2.35282e-05
2.35237e-05
2.3519e-05
2.35136e-05
2.35075e-05
2.35009e-05
2.34957e-05
2.34931e-05
2.34933e-05
2.34945e-05
2.34915e-05
2.34822e-05
2.34696e-05
2.34583e-05
2.34576e-05
2.34779e-05
2.35136e-05
2.36161e-05
2.36598e-05
2.36813e-05
2.36739e-05
2.36637e-05
2.36556e-05
2.36507e-05
2.36473e-05
2.36455e-05
2.36443e-05
2.36426e-05
2.36405e-05
2.36384e-05
2.36362e-05
2.36343e-05
2.36328e-05
2.36308e-05
2.36285e-05
2.36262e-05
2.36241e-05
2.36217e-05
2.36193e-05
2.36169e-05
2.36144e-05
2.36122e-05
2.36093e-05
2.36067e-05
2.36034e-05
2.36005e-05
2.35975e-05
2.35946e-05
2.35917e-05
2.35886e-05
2.35855e-05
2.35824e-05
2.35793e-05
2.3576e-05
2.3573e-05
2.35694e-05
2.35664e-05
2.35628e-05
2.35597e-05
2.3556e-05
2.35527e-05
2.35492e-05
2.35458e-05
2.35424e-05
2.3539e-05
2.35356e-05
2.35324e-05
2.35287e-05
2.35257e-05
2.35224e-05
2.35198e-05
2.35165e-05
2.35137e-05
2.35111e-05
2.35086e-05
2.35062e-05
2.35039e-05
2.35019e-05
2.35004e-05
2.34985e-05
2.34973e-05
2.34962e-05
2.34957e-05
2.3496e-05
2.34964e-05
2.34963e-05
2.34956e-05
2.34944e-05
2.34943e-05
2.34968e-05
2.35028e-05
2.35112e-05
2.35166e-05
2.35157e-05
2.35103e-05
2.35035e-05
2.35034e-05
2.35234e-05
2.35635e-05
2.36545e-05
2.34704e-05
2.35115e-05
2.35479e-05
2.35445e-05
2.35313e-05
2.35204e-05
2.35146e-05
2.35106e-05
2.35085e-05
2.35076e-05
2.35065e-05
2.35048e-05
2.3503e-05
2.35011e-05
2.34994e-05
2.34983e-05
2.34968e-05
2.34947e-05
2.34927e-05
2.34908e-05
2.34887e-05
2.34866e-05
2.34844e-05
2.34821e-05
2.34801e-05
2.34776e-05
2.34753e-05
2.34722e-05
2.34693e-05
2.34666e-05
2.34638e-05
2.34613e-05
2.34584e-05
2.34555e-05
2.34527e-05
2.34499e-05
2.3447e-05
2.34445e-05
2.34412e-05
2.34387e-05
2.34356e-05
2.34332e-05
2.343e-05
2.34273e-05
2.34246e-05
2.3422e-05
2.34195e-05
2.34172e-05
2.34152e-05
2.34136e-05
2.34117e-05
2.34107e-05
2.34099e-05
2.34103e-05
2.34105e-05
2.34115e-05
2.34135e-05
2.34164e-05
2.34205e-05
2.34261e-05
2.34338e-05
2.34439e-05
2.34559e-05
2.34704e-05
2.3487e-05
2.35058e-05
2.35267e-05
2.35492e-05
2.3573e-05
2.35978e-05
2.36239e-05
2.36521e-05
2.36832e-05
2.37177e-05
2.3755e-05
2.37927e-05
2.38295e-05
2.3869e-05
2.39125e-05
2.39599e-05
2.40115e-05
2.40675e-05
2.41636e-05
2.36312e-05
2.36525e-05
2.36594e-05
2.36562e-05
2.36488e-05
2.36433e-05
2.36415e-05
2.36413e-05
2.3642e-05
2.36432e-05
2.36442e-05
2.36452e-05
2.36461e-05
2.36472e-05
2.36486e-05
2.36503e-05
2.36519e-05
2.36534e-05
2.36551e-05
2.3657e-05
2.36588e-05
2.3661e-05
2.36632e-05
2.36655e-05
2.36681e-05
2.36708e-05
2.36737e-05
2.36765e-05
2.36796e-05
2.36831e-05
2.36868e-05
2.36908e-05
2.3695e-05
2.36995e-05
2.37043e-05
2.37095e-05
2.3715e-05
2.3721e-05
2.37272e-05
2.3734e-05
2.37411e-05
2.37489e-05
2.3757e-05
2.37658e-05
2.37754e-05
2.37855e-05
2.37963e-05
2.38079e-05
2.38203e-05
2.38336e-05
2.38476e-05
2.38628e-05
2.38789e-05
2.38966e-05
2.39153e-05
2.39354e-05
2.39569e-05
2.39799e-05
2.40044e-05
2.40304e-05
2.40583e-05
2.40881e-05
2.41196e-05
2.41533e-05
2.41891e-05
2.4227e-05
2.42674e-05
2.43099e-05
2.43544e-05
2.44011e-05
2.445e-05
2.45014e-05
2.45558e-05
2.46133e-05
2.46738e-05
2.47362e-05
2.48003e-05
2.4871e-05
2.49486e-05
2.50277e-05
2.51035e-05
2.51733e-05
2.52707e-05
2.42899e-05
2.43023e-05
2.42887e-05
2.42849e-05
2.42803e-05
2.42774e-05
2.4278e-05
2.42805e-05
2.42835e-05
2.42863e-05
2.4289e-05
2.42918e-05
2.42947e-05
2.42978e-05
2.43013e-05
2.4305e-05
2.43087e-05
2.43127e-05
2.43169e-05
2.43214e-05
2.4326e-05
2.4331e-05
2.43362e-05
2.43417e-05
2.43475e-05
2.43536e-05
2.43599e-05
2.43666e-05
2.43737e-05
2.43812e-05
2.43891e-05
2.43975e-05
2.44063e-05
2.44155e-05
2.44253e-05
2.44355e-05
2.44464e-05
2.44579e-05
2.44699e-05
2.44825e-05
2.44959e-05
2.45102e-05
2.4525e-05
2.45408e-05
2.45576e-05
2.45753e-05
2.45939e-05
2.46136e-05
2.46345e-05
2.46566e-05
2.46798e-05
2.47044e-05
2.47304e-05
2.4758e-05
2.47871e-05
2.48178e-05
2.48504e-05
2.48848e-05
2.49211e-05
2.49594e-05
2.49998e-05
2.50424e-05
2.50873e-05
2.51346e-05
2.51843e-05
2.52366e-05
2.52916e-05
2.53493e-05
2.54095e-05
2.54723e-05
2.55377e-05
2.5606e-05
2.56776e-05
2.57529e-05
2.58311e-05
2.59114e-05
2.5994e-05
2.60844e-05
2.61827e-05
2.62831e-05
2.63781e-05
2.64648e-05
2.65646e-05
2.50887e-05
2.51027e-05
2.50728e-05
2.50671e-05
2.50639e-05
2.5061e-05
2.50625e-05
2.50672e-05
2.50724e-05
2.50771e-05
2.50812e-05
2.50853e-05
2.50896e-05
2.50943e-05
2.50994e-05
2.51047e-05
2.511e-05
2.51158e-05
2.51218e-05
2.51283e-05
2.5135e-05
2.51422e-05
2.51496e-05
2.51576e-05
2.51658e-05
2.51744e-05
2.51834e-05
2.51929e-05
2.5203e-05
2.52136e-05
2.52248e-05
2.52364e-05
2.52487e-05
2.52616e-05
2.52752e-05
2.52893e-05
2.53044e-05
2.53201e-05
2.53365e-05
2.53539e-05
2.53722e-05
2.53914e-05
2.54116e-05
2.54328e-05
2.54553e-05
2.54789e-05
2.55038e-05
2.55298e-05
2.55574e-05
2.55864e-05
2.56168e-05
2.56489e-05
2.56827e-05
2.57183e-05
2.57558e-05
2.57952e-05
2.58369e-05
2.58807e-05
2.59267e-05
2.59751e-05
2.60258e-05
2.6079e-05
2.61349e-05
2.61934e-05
2.62548e-05
2.63191e-05
2.63864e-05
2.64567e-05
2.65298e-05
2.6606e-05
2.66852e-05
2.67675e-05
2.68534e-05
2.69424e-05
2.70348e-05
2.71293e-05
2.72267e-05
2.73321e-05
2.74466e-05
2.75639e-05
2.76757e-05
2.77789e-05
2.78836e-05
2.58845e-05
2.59092e-05
2.5873e-05
2.58584e-05
2.58502e-05
2.58454e-05
2.58467e-05
2.58534e-05
2.58616e-05
2.58692e-05
2.58753e-05
2.58809e-05
2.58866e-05
2.58927e-05
2.58994e-05
2.59064e-05
2.59133e-05
2.59208e-05
2.59287e-05
2.59372e-05
2.5946e-05
2.59554e-05
2.5965e-05
2.59754e-05
2.5986e-05
2.59973e-05
2.60088e-05
2.60212e-05
2.60342e-05
2.60479e-05
2.60624e-05
2.60774e-05
2.60931e-05
2.61096e-05
2.61269e-05
2.6145e-05
2.61641e-05
2.61839e-05
2.62048e-05
2.62266e-05
2.62496e-05
2.62736e-05
2.62988e-05
2.63253e-05
2.63532e-05
2.63825e-05
2.64131e-05
2.64453e-05
2.6479e-05
2.65144e-05
2.65515e-05
2.65905e-05
2.66315e-05
2.66744e-05
2.67195e-05
2.67668e-05
2.68165e-05
2.68687e-05
2.69233e-05
2.69805e-05
2.70405e-05
2.71033e-05
2.7169e-05
2.72376e-05
2.73095e-05
2.73845e-05
2.74628e-05
2.75445e-05
2.76293e-05
2.77175e-05
2.7809e-05
2.79041e-05
2.80025e-05
2.81041e-05
2.82088e-05
2.83164e-05
2.84272e-05
2.85458e-05
2.86744e-05
2.88065e-05
2.89336e-05
2.90518e-05
2.91663e-05
2.66366e-05
2.66691e-05
2.66364e-05
2.66165e-05
2.66008e-05
2.65908e-05
2.65896e-05
2.65968e-05
2.6608e-05
2.6619e-05
2.66278e-05
2.66353e-05
2.66424e-05
2.66499e-05
2.66582e-05
2.66669e-05
2.66754e-05
2.66845e-05
2.66942e-05
2.67046e-05
2.67154e-05
2.67269e-05
2.67388e-05
2.67514e-05
2.67645e-05
2.67782e-05
2.67923e-05
2.68073e-05
2.68231e-05
2.68398e-05
2.68574e-05
2.68756e-05
2.68946e-05
2.69145e-05
2.69355e-05
2.69573e-05
2.69802e-05
2.7004e-05
2.70291e-05
2.70552e-05
2.70827e-05
2.71114e-05
2.71415e-05
2.7173e-05
2.72061e-05
2.72408e-05
2.72771e-05
2.7315e-05
2.73549e-05
2.73965e-05
2.74401e-05
2.74858e-05
2.75337e-05
2.75839e-05
2.76365e-05
2.76915e-05
2.77493e-05
2.78098e-05
2.7873e-05
2.79391e-05
2.80083e-05
2.80805e-05
2.81559e-05
2.82346e-05
2.83167e-05
2.84023e-05
2.84915e-05
2.85842e-05
2.86805e-05
2.87804e-05
2.88839e-05
2.8991e-05
2.91016e-05
2.92156e-05
2.93329e-05
2.94533e-05
2.95773e-05
2.9709e-05
2.98512e-05
2.99977e-05
3.01399e-05
3.02732e-05
3.04001e-05
2.7337e-05
2.7365e-05
2.73404e-05
2.73228e-05
2.73019e-05
2.72844e-05
2.72772e-05
2.72819e-05
2.72942e-05
2.73085e-05
2.73209e-05
2.73312e-05
2.73403e-05
2.73494e-05
2.73593e-05
2.73698e-05
2.73802e-05
2.73911e-05
2.74027e-05
2.7415e-05
2.74279e-05
2.74416e-05
2.74558e-05
2.74709e-05
2.74865e-05
2.75028e-05
2.75196e-05
2.75374e-05
2.75561e-05
2.75758e-05
2.75966e-05
2.76182e-05
2.76408e-05
2.76643e-05
2.7689e-05
2.77147e-05
2.77417e-05
2.77698e-05
2.77992e-05
2.78299e-05
2.78621e-05
2.78957e-05
2.79309e-05
2.79676e-05
2.80063e-05
2.80466e-05
2.80889e-05
2.8133e-05
2.81792e-05
2.82275e-05
2.82779e-05
2.83307e-05
2.8386e-05
2.84438e-05
2.85042e-05
2.85674e-05
2.86335e-05
2.87027e-05
2.87749e-05
2.88503e-05
2.8929e-05
2.9011e-05
2.90965e-05
2.91855e-05
2.92782e-05
2.93747e-05
2.94749e-05
2.9579e-05
2.96869e-05
2.97986e-05
2.99142e-05
3.00335e-05
3.01565e-05
3.02831e-05
3.0413e-05
3.05465e-05
3.06838e-05
3.08289e-05
3.09851e-05
3.11463e-05
3.1304e-05
3.14534e-05
3.15946e-05
3.17741e-05
2.80009e-05
2.79874e-05
2.79808e-05
2.79618e-05
2.79377e-05
2.79212e-05
2.79184e-05
2.79275e-05
2.79433e-05
2.79595e-05
2.79736e-05
2.79857e-05
2.79971e-05
2.8009e-05
2.80216e-05
2.8034e-05
2.80469e-05
2.80604e-05
2.80749e-05
2.809e-05
2.8106e-05
2.81227e-05
2.81405e-05
2.81588e-05
2.8178e-05
2.81977e-05
2.82185e-05
2.82404e-05
2.82634e-05
2.82876e-05
2.83129e-05
2.83392e-05
2.83667e-05
2.83955e-05
2.84255e-05
2.84569e-05
2.84896e-05
2.85237e-05
2.85593e-05
2.85967e-05
2.86356e-05
2.86763e-05
2.87188e-05
2.87634e-05
2.88099e-05
2.88586e-05
2.89094e-05
2.89625e-05
2.90179e-05
2.90757e-05
2.91361e-05
2.91992e-05
2.92652e-05
2.9334e-05
2.94059e-05
2.94809e-05
2.95593e-05
2.9641e-05
2.97261e-05
2.98147e-05
2.9907e-05
3.0003e-05
3.01027e-05
3.02064e-05
3.0314e-05
3.04255e-05
3.05412e-05
3.06609e-05
3.07847e-05
3.09125e-05
3.10443e-05
3.118e-05
3.13194e-05
3.14623e-05
3.16091e-05
3.17601e-05
3.19192e-05
3.20901e-05
3.22669e-05
3.24413e-05
3.26081e-05
3.27663e-05
3.29387e-05
3.31418e-05
3.3374e-05
2.85877e-05
2.85897e-05
2.86043e-05
2.86061e-05
2.85828e-05
2.85537e-05
2.85343e-05
2.85298e-05
2.85397e-05
2.8557e-05
2.8575e-05
2.85914e-05
2.8607e-05
2.86227e-05
2.86381e-05
2.86529e-05
2.86678e-05
2.86833e-05
2.86997e-05
2.8717e-05
2.87354e-05
2.87546e-05
2.87749e-05
2.87961e-05
2.88184e-05
2.88412e-05
2.88652e-05
2.88903e-05
2.89168e-05
2.89446e-05
2.89738e-05
2.90042e-05
2.9036e-05
2.90691e-05
2.91037e-05
2.91399e-05
2.91776e-05
2.92169e-05
2.92579e-05
2.93008e-05
2.93455e-05
2.93922e-05
2.9441e-05
2.94919e-05
2.95452e-05
2.96007e-05
2.96587e-05
2.97192e-05
2.97823e-05
2.98481e-05
2.99167e-05
2.99881e-05
3.00627e-05
3.01404e-05
3.02214e-05
3.03059e-05
3.03938e-05
3.04854e-05
3.05806e-05
3.06796e-05
3.07825e-05
3.08892e-05
3.1e-05
3.11148e-05
3.12337e-05
3.13568e-05
3.14841e-05
3.16158e-05
3.17517e-05
3.18919e-05
3.20364e-05
3.2185e-05
3.23376e-05
3.24939e-05
3.26546e-05
3.28202e-05
3.29943e-05
3.31813e-05
3.33754e-05
3.35686e-05
3.37557e-05
3.39345e-05
3.41199e-05
3.4325e-05
3.45811e-05
2.91664e-05
2.91737e-05
2.92295e-05
2.93085e-05
2.93074e-05
2.92564e-05
2.91936e-05
2.91476e-05
2.91287e-05
2.91347e-05
2.91526e-05
2.91748e-05
2.92009e-05
2.92274e-05
2.9249e-05
2.92665e-05
2.92828e-05
2.92992e-05
2.93165e-05
2.93348e-05
2.93543e-05
2.9375e-05
2.93971e-05
2.94204e-05
2.94451e-05
2.94707e-05
2.94974e-05
2.95255e-05
2.95549e-05
2.9586e-05
2.96186e-05
2.96529e-05
2.96888e-05
2.97264e-05
2.97656e-05
2.98067e-05
2.98495e-05
2.98942e-05
2.99408e-05
2.99895e-05
3.00403e-05
3.00933e-05
3.01486e-05
3.02064e-05
3.02667e-05
3.03296e-05
3.03951e-05
3.04635e-05
3.05347e-05
3.06089e-05
3.0686e-05
3.07663e-05
3.08499e-05
3.09369e-05
3.10274e-05
3.11215e-05
3.12193e-05
3.1321e-05
3.14265e-05
3.1536e-05
3.16495e-05
3.17671e-05
3.18889e-05
3.20149e-05
3.21451e-05
3.22797e-05
3.24187e-05
3.25622e-05
3.27103e-05
3.28631e-05
3.30206e-05
3.31825e-05
3.33489e-05
3.35197e-05
3.36955e-05
3.38772e-05
3.40685e-05
3.42742e-05
3.44891e-05
3.47052e-05
3.49174e-05
3.51228e-05
3.53336e-05
3.55624e-05
3.58487e-05
2.98339e-05
2.98118e-05
2.99467e-05
3.02487e-05
3.03259e-05
3.02364e-05
3.00591e-05
2.99056e-05
2.97905e-05
2.97399e-05
2.97393e-05
2.97706e-05
2.98319e-05
2.98945e-05
2.99349e-05
2.99572e-05
2.99722e-05
2.99857e-05
2.99994e-05
3.00138e-05
3.00294e-05
3.00465e-05
3.00658e-05
3.00871e-05
3.01105e-05
3.01354e-05
3.01617e-05
3.01891e-05
3.02179e-05
3.02484e-05
3.0281e-05
3.0316e-05
3.03535e-05
3.03932e-05
3.0435e-05
3.04792e-05
3.05256e-05
3.05745e-05
3.06257e-05
3.06795e-05
3.07358e-05
3.07946e-05
3.08562e-05
3.09206e-05
3.09878e-05
3.10579e-05
3.1131e-05
3.12074e-05
3.12868e-05
3.13696e-05
3.14555e-05
3.15449e-05
3.16377e-05
3.17341e-05
3.18342e-05
3.1938e-05
3.20458e-05
3.21575e-05
3.22733e-05
3.23931e-05
3.25172e-05
3.26454e-05
3.2778e-05
3.29149e-05
3.30563e-05
3.32022e-05
3.33528e-05
3.35082e-05
3.36686e-05
3.38343e-05
3.40054e-05
3.41818e-05
3.43636e-05
3.45508e-05
3.47444e-05
3.49457e-05
3.51584e-05
3.53881e-05
3.56299e-05
3.58762e-05
3.61217e-05
3.63632e-05
3.66118e-05
3.68814e-05
3.72146e-05
3.08361e-05
3.06936e-05
3.09143e-05
3.1298e-05
3.14972e-05
3.15241e-05
3.13846e-05
3.10926e-05
3.07404e-05
3.05045e-05
3.04262e-05
3.04669e-05
3.06329e-05
3.07975e-05
3.08895e-05
3.09248e-05
3.09342e-05
3.09359e-05
3.09355e-05
3.0934e-05
3.09325e-05
3.09327e-05
3.0936e-05
3.09428e-05
3.0953e-05
3.0966e-05
3.09806e-05
3.09955e-05
3.10104e-05
3.10265e-05
3.10453e-05
3.10683e-05
3.10956e-05
3.11271e-05
3.1162e-05
3.12005e-05
3.12427e-05
3.12889e-05
3.13391e-05
3.13931e-05
3.14509e-05
3.15126e-05
3.15781e-05
3.16476e-05
3.17209e-05
3.17976e-05
3.18779e-05
3.19616e-05
3.20487e-05
3.21395e-05
3.22339e-05
3.2332e-05
3.24339e-05
3.25396e-05
3.26491e-05
3.27625e-05
3.288e-05
3.30014e-05
3.3127e-05
3.32568e-05
3.33909e-05
3.35294e-05
3.36723e-05
3.38198e-05
3.39721e-05
3.41292e-05
3.42915e-05
3.44592e-05
3.46328e-05
3.48127e-05
3.49992e-05
3.51926e-05
3.53931e-05
3.56012e-05
3.5818e-05
3.60456e-05
3.62875e-05
3.65505e-05
3.68301e-05
3.71185e-05
3.74099e-05
3.7701e-05
3.80027e-05
3.83311e-05
3.87305e-05
3.92499e-05
3.99104e-05
4.06984e-05
3.20833e-05
3.18981e-05
3.19946e-05
3.23128e-05
3.25692e-05
3.27093e-05
3.26759e-05
3.24385e-05
3.2066e-05
3.16913e-05
3.14426e-05
3.1413e-05
3.15862e-05
3.17946e-05
3.19308e-05
3.19916e-05
3.20086e-05
3.20081e-05
3.2002e-05
3.19936e-05
3.19839e-05
3.19747e-05
3.19678e-05
3.1964e-05
3.19639e-05
3.1967e-05
3.19723e-05
3.19779e-05
3.19826e-05
3.19866e-05
3.19913e-05
3.19986e-05
3.20099e-05
3.20252e-05
3.20438e-05
3.20654e-05
3.20899e-05
3.21181e-05
3.21507e-05
3.2188e-05
3.22303e-05
3.22789e-05
3.23354e-05
3.24006e-05
3.24742e-05
3.25546e-05
3.26406e-05
3.27313e-05
3.28259e-05
3.29245e-05
3.30269e-05
3.31332e-05
3.32435e-05
3.33579e-05
3.34764e-05
3.35988e-05
3.37253e-05
3.38559e-05
3.39906e-05
3.41297e-05
3.42732e-05
3.44213e-05
3.45741e-05
3.47319e-05
3.48951e-05
3.50639e-05
3.52388e-05
3.54204e-05
3.56094e-05
3.58067e-05
3.6013e-05
3.62289e-05
3.64551e-05
3.66923e-05
3.69425e-05
3.72081e-05
3.7493e-05
3.78047e-05
3.81384e-05
3.84859e-05
3.88412e-05
3.92006e-05
3.95727e-05
3.9976e-05
4.04544e-05
4.10349e-05
4.17124e-05
4.24251e-05
3.3274e-05
3.3515e-05
3.37247e-05
3.38082e-05
3.36851e-05
3.33704e-05
3.29691e-05
3.26208e-05
3.24571e-05
3.2532e-05
3.27207e-05
3.28835e-05
3.29756e-05
3.30109e-05
3.30159e-05
3.30085e-05
3.29962e-05
3.29816e-05
3.29662e-05
3.29518e-05
3.294e-05
3.29316e-05
3.29267e-05
3.29247e-05
3.2924e-05
3.29228e-05
3.29206e-05
3.29179e-05
3.29165e-05
3.29181e-05
3.29235e-05
3.29325e-05
3.29448e-05
3.296e-05
3.29787e-05
3.30016e-05
3.30289e-05
3.3061e-05
3.30985e-05
3.31426e-05
3.31956e-05
3.32594e-05
3.33351e-05
3.34222e-05
3.35177e-05
3.36191e-05
3.37252e-05
3.38354e-05
3.39496e-05
3.40679e-05
3.41903e-05
3.4317e-05
3.44476e-05
3.45822e-05
3.4721e-05
3.4864e-05
3.50116e-05
3.51638e-05
3.5321e-05
3.54836e-05
3.56522e-05
3.58273e-05
3.60095e-05
3.61998e-05
3.63993e-05
3.66091e-05
3.68308e-05
3.70657e-05
3.7315e-05
3.75798e-05
3.78611e-05
3.81614e-05
3.84843e-05
3.88343e-05
3.92182e-05
3.96274e-05
4.00526e-05
4.04933e-05
4.09527e-05
4.14228e-05
4.18943e-05
4.23778e-05
4.28779e-05
4.33931e-05
4.38929e-05
3.41603e-05
3.43405e-05
3.45593e-05
3.47254e-05
3.47285e-05
3.45268e-05
3.41751e-05
3.37924e-05
3.3517e-05
3.34512e-05
3.35556e-05
3.37067e-05
3.3822e-05
3.38826e-05
3.39023e-05
3.38999e-05
3.38873e-05
3.38702e-05
3.38511e-05
3.38319e-05
3.38142e-05
3.37993e-05
3.37878e-05
3.37796e-05
3.37738e-05
3.37688e-05
3.37633e-05
3.37571e-05
3.37514e-05
3.37475e-05
3.37469e-05
3.37501e-05
3.3757e-05
3.37674e-05
3.37818e-05
3.38006e-05
3.38246e-05
3.38542e-05
3.38899e-05
3.39327e-05
3.39847e-05
3.40485e-05
3.41259e-05
3.42171e-05
3.43187e-05
3.44272e-05
3.45405e-05
3.46581e-05
3.47798e-05
3.49054e-05
3.50352e-05
3.5169e-05
3.53066e-05
3.54483e-05
3.55942e-05
3.57446e-05
3.58999e-05
3.60606e-05
3.62273e-05
3.64008e-05
3.65821e-05
3.67723e-05
3.69728e-05
3.71852e-05
3.74112e-05
3.76531e-05
3.79129e-05
3.81927e-05
3.84944e-05
3.88205e-05
3.91712e-05
3.95473e-05
3.99542e-05
4.04039e-05
4.09015e-05
4.14094e-05
4.18917e-05
4.23356e-05
4.27415e-05
4.31141e-05
4.34676e-05
4.3816e-05
4.41629e-05
4.45066e-05
4.48274e-05
4.50131e-05
4.49463e-05
4.44065e-05
4.33381e-05
4.18626e-05
3.4951e-05
3.5052e-05
3.52286e-05
3.54202e-05
3.55201e-05
3.54473e-05
3.51998e-05
3.48523e-05
3.45236e-05
3.4332e-05
3.43135e-05
3.4404e-05
3.45158e-05
3.45974e-05
3.46383e-05
3.46487e-05
3.46415e-05
3.46257e-05
3.46059e-05
3.45846e-05
3.45636e-05
3.45446e-05
3.45285e-05
3.45159e-05
3.45065e-05
3.44992e-05
3.44927e-05
3.44861e-05
3.44798e-05
3.44749e-05
3.44726e-05
3.44739e-05
3.44795e-05
3.44896e-05
3.45044e-05
3.45246e-05
3.45513e-05
3.45855e-05
3.4628e-05
3.46803e-05
3.47446e-05
3.48232e-05
3.49164e-05
3.50206e-05
3.51317e-05
3.52478e-05
3.53681e-05
3.54924e-05
3.56206e-05
3.57526e-05
3.58884e-05
3.60279e-05
3.61713e-05
3.63188e-05
3.64709e-05
3.66282e-05
3.67913e-05
3.69614e-05
3.71396e-05
3.73276e-05
3.75272e-05
3.77405e-05
3.797e-05
3.82181e-05
3.84879e-05
3.8783e-05
3.91066e-05
3.94596e-05
3.9844e-05
4.02692e-05
4.07374e-05
4.12235e-05
4.17012e-05
4.21597e-05
4.25974e-05
4.30053e-05
4.33762e-05
4.37087e-05
4.40059e-05
4.42725e-05
4.45206e-05
4.47595e-05
4.49916e-05
4.52152e-05
4.54175e-05
4.55348e-05
4.54989e-05
4.51328e-05
4.42812e-05
4.29381e-05
3.5621e-05
3.56503e-05
3.5758e-05
3.59224e-05
3.60661e-05
3.60985e-05
3.5974e-05
3.57154e-05
3.54026e-05
3.51407e-05
3.50056e-05
3.50004e-05
3.50706e-05
3.51537e-05
3.52137e-05
3.52428e-05
3.5248e-05
3.52389e-05
3.52224e-05
3.52025e-05
3.51817e-05
3.51618e-05
3.51442e-05
3.51297e-05
3.5119e-05
3.51115e-05
3.51064e-05
3.51027e-05
3.51e-05
3.50987e-05
3.51e-05
3.5105e-05
3.51149e-05
3.51307e-05
3.51532e-05
3.51835e-05
3.52232e-05
3.52742e-05
3.53389e-05
3.54189e-05
3.55122e-05
3.56148e-05
3.57238e-05
3.58379e-05
3.59563e-05
3.60785e-05
3.62046e-05
3.63341e-05
3.64671e-05
3.66034e-05
3.67433e-05
3.6887e-05
3.70348e-05
3.71873e-05
3.73454e-05
3.75102e-05
3.76832e-05
3.78664e-05
3.80622e-05
3.82735e-05
3.85037e-05
3.87565e-05
3.90362e-05
3.93475e-05
3.96922e-05
4.0078e-05
4.05148e-05
4.09887e-05
4.1467e-05
4.19294e-05
4.23671e-05
4.27766e-05
4.31568e-05
4.35083e-05
4.38323e-05
4.41273e-05
4.43917e-05
4.46269e-05
4.48361e-05
4.50227e-05
4.51948e-05
4.53581e-05
4.55139e-05
4.56607e-05
4.57901e-05
4.58681e-05
4.58479e-05
4.5602e-05
4.49593e-05
4.38222e-05
3.6157e-05
3.6137e-05
3.61747e-05
3.62806e-05
3.64167e-05
3.65086e-05
3.64905e-05
3.63422e-05
3.6099e-05
3.58345e-05
3.56276e-05
3.55249e-05
3.55226e-05
3.55778e-05
3.56428e-05
3.56898e-05
3.57125e-05
3.57161e-05
3.57081e-05
3.56941e-05
3.56776e-05
3.5661e-05
3.56457e-05
3.56332e-05
3.56244e-05
3.56199e-05
3.56195e-05
3.56226e-05
3.56286e-05
3.56378e-05
3.56509e-05
3.56693e-05
3.56949e-05
3.57304e-05
3.57792e-05
3.58442e-05
3.59238e-05
3.60133e-05
3.61095e-05
3.62116e-05
3.63187e-05
3.64304e-05
3.65459e-05
3.66651e-05
3.67876e-05
3.69135e-05
3.70425e-05
3.71747e-05
3.73102e-05
3.74489e-05
3.75914e-05
3.7738e-05
3.78896e-05
3.80473e-05
3.82129e-05
3.83887e-05
3.85775e-05
3.8783e-05
3.90097e-05
3.92628e-05
3.95489e-05
3.98729e-05
4.02438e-05
4.06717e-05
4.11372e-05
4.16068e-05
4.20616e-05
4.24922e-05
4.28929e-05
4.32611e-05
4.35967e-05
4.39019e-05
4.41795e-05
4.4432e-05
4.46614e-05
4.48686e-05
4.50538e-05
4.52188e-05
4.53659e-05
4.54974e-05
4.56185e-05
4.57324e-05
4.58395e-05
4.59389e-05
4.60245e-05
4.6083e-05
4.60744e-05
4.59091e-05
4.54362e-05
4.45196e-05
3.65715e-05
3.65285e-05
3.65124e-05
3.65524e-05
3.66469e-05
3.67518e-05
3.68028e-05
3.67549e-05
3.66053e-05
3.63917e-05
3.6173e-05
3.60059e-05
3.59237e-05
3.59234e-05
3.59699e-05
3.60237e-05
3.60632e-05
3.60837e-05
3.60896e-05
3.60868e-05
3.60798e-05
3.60721e-05
3.60655e-05
3.60613e-05
3.6061e-05
3.60659e-05
3.60774e-05
3.60968e-05
3.61261e-05
3.6168e-05
3.62242e-05
3.62913e-05
3.63655e-05
3.64456e-05
3.65313e-05
3.66223e-05
3.67179e-05
3.68176e-05
3.69211e-05
3.70282e-05
3.71388e-05
3.72528e-05
3.73701e-05
3.74907e-05
3.76144e-05
3.77411e-05
3.78708e-05
3.80036e-05
3.81395e-05
3.82791e-05
3.84229e-05
3.85722e-05
3.87285e-05
3.88942e-05
3.90727e-05
3.92681e-05
3.94859e-05
3.97328e-05
4.00171e-05
4.03479e-05
4.07392e-05
4.11852e-05
4.16475e-05
4.20991e-05
4.2527e-05
4.2925e-05
4.32907e-05
4.36239e-05
4.39254e-05
4.41968e-05
4.44404e-05
4.46593e-05
4.48567e-05
4.50354e-05
4.51972e-05
4.53434e-05
4.54747e-05
4.55928e-05
4.56985e-05
4.57935e-05
4.58815e-05
4.59634e-05