/*--------------------------------*- C++ -*----------------------------------*\
| =========                 |                                                 |
| \\      /  F ield         | OpenFOAM: The Open Source CFD Toolbox           |
|  \\    /   O peration     | Version:  2412                                  |
|   \\  /    A nd           | Website:  www.openfoam.com                      |
|    \\/     M anipulation  |                                                 |
\*---------------------------------------------------------------------------*/
FoamFile
{
    version     2.0;
    format      ascii;
    arch        "LSB;label=32;scalar=64";
    class       volScalarField;
    location    "40";
    object      p;
}
// * * * * * * * * * * * * * * * * * * * * * * * * * * * * * * * * * * * * * //

dimensions      [0 2 -2 0 0 0 0];

internalField   nonuniform List<scalar> 
8702
(
-56.3764
-52.7474
-49.1343
-45.5666
-42.0739
-38.6317
-35.2347
-31.8869
-28.5823
-25.3208
-22.1036
-18.9297
-15.799
-12.7078
-9.65412
-6.63668
-3.65491
-0.707479
2.20621
5.08722
7.93624
10.7537
13.5395
16.2937
19.0173
21.7117
24.3766
27.0122
29.6183
32.1944
34.7416
37.2599
39.7494
42.21
44.6413
47.0432
49.4156
51.7578
54.0701
56.3517
58.6026
60.8224
63.0107
65.1677
67.2925
69.3847
71.4439
73.4695
75.4611
77.4174
79.3385
81.2234
83.0718
84.8826
86.6549
88.3883
90.0816
91.7341
93.3441
94.9098
96.43
97.9043
99.3335
100.713
102.035
103.291
104.487
105.639
106.76
107.816
108.75
109.502
110.089
110.666
111.311
112.167
112.9
113.133
112.615
110.79
108.395
106.216
-56.3764
-52.7474
-49.1343
-45.5666
-42.0739
-38.6317
-35.2347
-31.8869
-28.5823
-25.3208
-22.1036
-18.9297
-15.7989
-12.7078
-9.6541
-6.63666
-3.65489
-0.707469
2.20621
5.08725
7.93626
10.7537
13.5396
16.2937
19.0174
21.7117
24.3767
27.0122
29.6183
32.1944
34.7416
37.26
39.7494
42.21
44.6414
47.0432
49.4156
51.7579
54.0701
56.3517
58.6026
60.8224
63.0107
65.1677
67.2925
69.3848
71.4439
73.4695
75.4612
77.4175
79.3385
81.2234
83.0718
84.8826
86.6549
88.3883
90.0816
91.7341
93.3441
94.9098
96.43
97.9043
99.3335
100.713
102.035
103.291
104.487
105.639
106.76
107.816
108.749
109.502
110.089
110.666
111.311
112.167
112.9
113.132
112.614
110.79
108.395
106.217
-56.3763
-52.7473
-49.1342
-45.5665
-42.0738
-38.6317
-35.2347
-31.8868
-28.5822
-25.3207
-22.1035
-18.9296
-15.7989
-12.7077
-9.65404
-6.63659
-3.65482
-0.707402
2.20629
5.08731
7.93633
10.7538
13.5396
16.2938
19.0174
21.7117
24.3767
27.0123
29.6183
32.1945
34.7416
37.26
39.7495
42.2101
44.6414
47.0433
49.4157
51.7579
54.0702
56.3518
58.6027
60.8225
63.0108
65.1678
67.2925
69.3848
71.444
73.4696
75.4612
77.4175
79.3386
81.2235
83.0719
84.8827
86.6549
88.3884
90.0816
91.7341
93.3442
94.9099
96.43
97.9043
99.3336
100.714
102.035
103.291
104.487
105.639
106.76
107.816
108.749
109.502
110.089
110.666
111.312
112.167
112.899
113.131
112.613
110.79
108.397
106.22
-56.3761
-52.7471
-49.134
-45.5663
-42.0736
-38.6315
-35.2345
-31.8866
-28.582
-25.3205
-22.1033
-18.9295
-15.7987
-12.7076
-9.65385
-6.63642
-3.65465
-0.70722
2.20646
5.08749
7.9365
10.754
13.5398
16.2939
19.0176
21.7119
24.3769
27.0124
29.6185
32.1946
34.7418
37.2602
39.7497
42.2103
44.6416
47.0435
49.4159
51.7581
54.0704
56.352
58.6029
60.8227
63.011
65.1679
67.2927
69.385
71.4442
73.4698
75.4614
77.4177
79.3388
81.2237
83.0721
84.8829
86.6551
88.3886
90.0818
91.7343
93.3444
94.9101
96.4302
97.9045
99.3338
100.714
102.035
103.291
104.487
105.639
106.76
107.816
108.749
109.502
110.09
110.667
111.312
112.167
112.898
113.129
112.61
110.791
108.402
106.229
-56.3758
-52.7468
-49.1336
-45.566
-42.0733
-38.6311
-35.2341
-31.8863
-28.5817
-25.3202
-22.103
-18.9291
-15.7984
-12.7072
-9.65352
-6.63608
-3.65431
-0.706888
2.2068
5.08782
7.93684
10.7543
13.5402
16.2943
19.0179
21.7123
24.3773
27.0128
29.6189
32.195
34.7422
37.2606
39.75
42.2106
44.642
47.0438
49.4162
51.7585
54.0708
56.3524
58.6033
60.823
63.0113
65.1683
67.2931
69.3854
71.4446
73.4702
75.4618
77.4181
79.3392
81.2241
83.0725
84.8833
86.6555
88.389
90.0822
91.7347
93.3448
94.9105
96.4306
97.9049
99.3342
100.714
102.036
103.291
104.488
105.639
106.761
107.816
108.749
109.502
110.091
110.668
111.314
112.166
112.895
113.124
112.606
110.792
108.411
106.245
-56.3752
-52.7462
-49.1331
-45.5654
-42.0727
-38.6306
-35.2336
-31.8857
-28.5811
-25.3196
-22.1024
-18.9286
-15.7978
-12.7067
-9.65299
-6.63555
-3.65378
-0.706355
2.20734
5.08836
7.93738
10.7548
13.5407
16.2948
19.0185
21.7128
24.3778
27.0134
29.6194
32.1956
34.7427
37.2611
39.7506
42.2112
44.6426
47.0444
49.4168
51.7591
54.0713
56.3529
58.6039
60.8236
63.012
65.1689
67.2937
69.386
71.4452
73.4708
75.4624
77.4187
79.3398
81.2247
83.0731
84.8839
86.6562
88.3896
90.0829
91.7354
93.3454
94.9111
96.4313
97.9056
99.3348
100.715
102.036
103.292
104.488
105.64
106.761
107.816
108.75
109.503
110.093
110.671
111.316
112.166
112.892
113.118
112.6
110.795
108.426
106.27
-56.3743
-52.7453
-49.1322
-45.5646
-42.0719
-38.6298
-35.2328
-31.8849
-28.5803
-25.3189
-22.1017
-18.9278
-15.7971
-12.7059
-9.65222
-6.63478
-3.65301
-0.705585
2.2081
5.08913
7.93815
10.7556
13.5415
16.2956
19.0193
21.7136
24.3786
27.0141
29.6202
32.1964
34.7436
37.262
39.7514
42.212
44.6434
47.0453
49.4177
51.7599
54.0722
56.3538
58.6047
60.8245
63.0128
65.1698
67.2946
69.3869
71.4461
73.4717
75.4633
77.4197
79.3407
81.2256
83.074
84.8848
86.6571
88.3906
90.0838
91.7363
93.3464
94.9121
96.4323
97.9066
99.3358
100.716
102.037
103.293
104.49
105.641
106.762
107.817
108.75
109.504
110.095
110.674
111.32
112.166
112.887
113.109
112.591
110.799
108.448
106.307
-56.3732
-52.7442
-49.1312
-45.5635
-42.0708
-38.6287
-35.2317
-31.8839
-28.5793
-25.3178
-22.1007
-18.9268
-15.796
-12.7049
-9.65121
-6.63377
-3.652
-0.704573
2.20912
5.09015
7.93917
10.7566
13.5425
16.2966
19.0203
21.7147
24.3796
27.0152
29.6213
32.1974
34.7446
37.263
39.7525
42.2131
44.6445
47.0464
49.4188
51.761
54.0733
56.3549
58.6059
60.8257
63.014
65.171
67.2958
69.3881
71.4473
73.4729
75.4645
77.4209
79.3419
81.2268
83.0753
84.8861
86.6583
88.3918
90.0851
91.7376
93.3476
94.9134
96.4336
97.9079
99.3371
100.717
102.039
103.294
104.491
105.643
106.764
107.817
108.751
109.505
110.098
110.679
111.325
112.166
112.88
113.098
112.58
110.806
108.476
106.355
-56.3718
-52.7428
-49.1298
-45.5622
-42.0695
-38.6274
-35.2304
-31.8826
-28.578
-25.3165
-22.0994
-18.9255
-15.7948
-12.7036
-9.64994
-6.6325
-3.65073
-0.703304
2.2104
5.09142
7.94045
10.7579
13.5438
16.2979
19.0216
21.716
24.381
27.0165
29.6226
32.1988
34.746
37.2644
39.7539
42.2145
44.6459
47.0477
49.4202
51.7624
54.0747
56.3563
58.6073
60.8271
63.0154
65.1724
67.2972
69.3895
71.4488
73.4744
75.466
77.4224
79.3434
81.2284
83.0768
84.8876
86.6599
88.3934
90.0867
91.7392
93.3492
94.915
96.4352
97.9096
99.3388
100.719
102.04
103.296
104.493
105.645
106.765
107.818
108.751
109.507
110.103
110.685
111.331
112.166
112.873
113.085
112.567
110.813
108.511
106.413
-56.3701
-52.7412
-49.1281
-45.5605
-42.0679
-38.6258
-35.2288
-31.881
-28.5765
-25.315
-22.0978
-18.924
-15.7932
-12.7021
-9.64841
-6.63097
-3.6492
-0.70177
2.21193
5.09296
7.94199
10.7595
13.5453
16.2995
19.0232
21.7175
24.3825
27.0181
29.6242
32.2004
34.7476
37.266
39.7555
42.2161
44.6475
47.0494
49.4218
51.7641
54.0764
56.3581
58.609
60.8288
63.0172
65.1742
67.299
69.3913
71.4506
73.4762
75.4678
77.4242
79.3453
81.2302
83.0787
84.8895
86.6618
88.3953
90.0886
91.7411
93.3512
94.9169
96.4372
97.9116
99.3408
100.721
102.042
103.298
104.495
105.648
106.767
107.82
108.752
109.509
110.108
110.692
111.338
112.165
112.864
113.069
112.552
110.823
108.553
106.483
104.882
-56.3681
-52.7392
-49.1262
-45.5586
-42.066
-38.6239
-35.227
-31.8792
-28.5746
-25.3132
-22.096
-18.9222
-15.7914
-12.7003
-9.6466
-6.62917
-3.6474
-0.699964
2.21374
5.09478
7.94382
10.7613
13.5472
16.3013
19.025
21.7194
24.3844
27.02
29.6261
32.2023
34.7495
37.268
39.7575
42.2181
44.6495
47.0514
49.4238
51.7661
54.0785
56.3601
58.6111
60.8309
63.0193
65.1763
67.3011
69.3935
71.4527
73.4783
75.47
77.4264
79.3474
81.2324
83.0809
84.8917
86.664
88.3975
90.0908
91.7433
93.3534
94.9192
96.4395
97.9139
99.3431
100.723
102.045
103.301
104.498
105.65
106.77
107.821
108.754
109.512
110.114
110.701
111.346
112.165
112.854
113.052
112.536
110.835
108.601
106.562
104.983
-56.3658
-52.7369
-49.1239
-45.5564
-42.0638
-38.6217
-35.2248
-31.877
-28.5725
-25.311
-22.0939
-18.9201
-15.7893
-12.6982
-9.64452
-6.62708
-3.64531
-0.697876
2.21583
5.09688
7.94592
10.7634
13.5493
16.3035
19.0272
21.7215
24.3866
27.0222
29.6283
32.2045
34.7517
37.2702
39.7597
42.2203
44.6517
47.0536
49.4261
51.7684
54.0807
56.3623
58.6133
60.8331
63.0215
65.1785
67.3033
69.3956
71.4549
73.4805
75.4722
77.4286
79.3497
81.2347
83.0831
84.894
86.6663
88.3999
90.0932
91.7458
93.3559
94.9217
96.4421
97.9166
99.3458
100.726
102.047
103.304
104.501
105.654
106.772
107.823
108.755
109.515
110.12
110.71
111.356
112.166
112.843
113.033
112.518
110.849
108.656
106.652
105.096
-56.3631
-52.7344
-49.1217
-45.554
-42.0612
-38.6192
-35.2224
-31.8746
-28.57
-25.3086
-22.0915
-18.9177
-15.7869
-12.6958
-9.64213
-6.6247
-3.64292
-0.695488
2.21822
5.09927
7.94832
10.7658
13.5517
16.3059
19.0296
21.724
24.389
27.0246
29.6307
32.2069
34.7542
37.2726
39.7622
42.2228
44.6542
47.0561
49.4285
51.7708
54.0831
56.3648
58.6158
60.8356
63.0239
65.1809
67.3058
69.3981
71.4573
73.483
75.4747
77.4311
79.3522
81.2372
83.0857
84.8966
86.669
88.4025
90.0959
91.7485
93.3587
94.9246
96.445
97.9196
99.3489
100.729
102.05
103.307
104.505
105.657
106.776
107.826
108.757
109.518
110.127
110.721
111.366
112.169
112.83
113.011
112.498
110.864
108.718
106.757
105.221
-56.36
-52.7314
-49.119
-45.5513
-42.0583
-38.6164
-35.2195
-31.8718
-28.5673
-25.3059
-22.0888
-18.9149
-15.7842
-12.6931
-9.63941
-6.62198
-3.6402
-0.692763
2.22096
5.10201
7.95106
10.7686
13.5545
16.3087
19.0324
21.7268
24.3918
27.0274
29.6336
32.2098
34.7571
37.2756
39.7651
42.2258
44.6572
47.0591
49.4316
51.7739
54.0863
56.368
58.619
60.8388
63.0272
65.1843
67.3091
69.4015
71.4607
73.4864
75.4781
77.4345
79.3556
81.2407
83.0892
84.9
86.6724
88.406
90.0994
91.752
93.3622
94.9281
96.4486
97.9231
99.3523
100.732
102.054
103.311
104.509
105.661
106.779
107.828
108.759
109.523
110.136
110.733
111.376
112.171
112.816
112.989
112.478
110.881
108.791
106.872
105.361
-56.3565
-52.7279
-49.1151
-45.548
-42.0549
-38.6132
-35.2164
-31.8686
-28.5641
-25.3027
-22.0856
-18.9118
-15.7811
-12.69
-9.63632
-6.61889
-3.63711
-0.689674
2.22405
5.10511
7.95417
10.7717
13.5576
16.3118
19.0356
21.73
24.395
27.0306
29.6368
32.213
34.7603
37.2789
39.7684
42.2291
44.6606
47.0625
49.435
51.7774
54.0898
56.3715
58.6225
60.8424
63.0309
65.1879
67.3128
69.4052
71.4645
73.4902
75.4819
77.4383
79.3595
81.2446
83.0931
84.9039
86.6763
88.4099
90.1033
91.7559
93.3661
94.932
96.4525
97.9271
99.3562
100.736
102.058
103.315
104.514
105.666
106.783
107.831
108.761
109.527
110.146
110.746
111.389
112.171
112.801
112.964
112.457
110.902
108.872
106.997
105.519
-56.3526
-52.724
-49.1111
-45.5443
-42.0512
-38.6095
-35.2127
-31.865
-28.5606
-25.2992
-22.0821
-18.9083
-15.7776
-12.6865
-9.63283
-6.61541
-3.63363
-0.686188
2.22754
5.10861
7.95768
10.7752
13.5611
16.3153
19.0391
21.7335
24.3986
27.0342
29.6404
32.2167
34.764
37.2825
39.7721
42.2328
44.6643
47.0663
49.4388
51.7812
54.0935
56.3753
58.6264
60.8462
63.0347
65.1918
67.3167
69.4091
71.4684
73.4941
75.4859
77.4423
79.3635
81.2486
83.0971
84.908
86.6804
88.414
90.1074
91.7601
93.3703
94.9363
96.4568
97.9314
99.3605
100.74
102.062
103.32
104.519
105.671
106.787
107.834
108.764
109.533
110.157
110.761
111.403
112.172
112.786
112.939
112.435
110.928
108.961
107.138
105.693
-56.3481
-52.7197
-49.107
-45.5402
-42.047
-38.6054
-35.2086
-31.861
-28.5565
-25.2952
-22.0781
-18.9044
-15.7737
-12.6826
-9.62889
-6.61147
-3.62969
-0.682242
2.2315
5.11257
7.96165
10.7792
13.5651
16.3194
19.0431
21.7376
24.4027
27.0383
29.6445
32.2208
34.7681
37.2867
39.7763
42.237
44.6685
47.0705
49.443
51.7855
54.0979
56.3796
58.6307
60.8506
63.0391
65.1962
67.3212
69.4136
71.4729
73.4986
75.4904
77.4468
79.368
81.2531
83.1017
84.9126
86.6851
88.4187
90.1121
91.7648
93.375
94.941
96.4616
97.9363
99.3654
100.745
102.067
103.325
104.525
105.677
106.792
107.837
108.767
109.538
110.169
110.777
111.419
112.173
112.77
112.912
112.415
110.96
109.061
107.294
105.885
105.108
-52.7148
-49.1023
-45.5354
-42.0423
-38.6007
-35.204
-31.8564
-28.552
-25.2907
-22.0736
-18.8999
-15.7692
-12.6781
-9.62444
-6.60702
-3.62524
-0.677791
2.23595
5.11704
7.96613
10.7837
13.5696
16.3239
19.0477
21.7421
24.4073
27.0429
29.6491
32.2254
34.7728
37.2914
39.781
42.2417
44.6733
47.0753
49.4479
51.7903
54.1027
56.3845
58.6356
60.8556
63.0441
65.2012
67.3262
69.4186
71.478
73.5037
75.4954
77.4519
79.3732
81.2583
83.1068
84.9178
86.6903
88.4239
90.1174
91.7701
93.3803
94.9464
96.467
97.9417
99.3708
100.75
102.072
103.331
104.531
105.684
106.797
107.841
108.77
109.545
110.182
110.795
111.437
112.174
112.753
112.884
112.395
110.998
109.173
107.467
106.097
105.274
104.876
102.474
-52.7092
-49.0969
-45.5301
-42.037
-38.5955
-35.1988
-31.8512
-28.5468
-25.2856
-22.0686
-18.8948
-15.7642
-12.6731
-9.61942
-6.60201
-3.62023
-0.672774
2.24098
5.12208
7.97117
10.7887
13.5747
16.329
19.0528
21.7473
24.4124
27.0481
29.6543
32.2307
34.7781
37.2967
39.7863
42.2471
44.6786
47.0807
49.4533
51.7957
54.1082
56.39
58.6411
60.8611
63.0496
65.2068
67.3318
69.4243
71.4836
73.5094
75.5012
77.4577
79.3789
81.2641
83.1126
84.9236
86.6961
88.4298
90.1233
91.776
93.3863
94.9524
96.4731
97.9479
99.3769
100.756
102.078
103.337
104.538
105.691
106.804
107.846
108.775
109.553
110.197
110.815
111.456
112.177
112.736
112.857
112.377
111.043
109.299
107.66
106.331
105.464
104.901
102.399
-52.703
-49.0908
-45.5242
-42.0311
-38.5895
-35.193
-31.8454
-28.541
-25.2798
-22.0629
-18.8892
-15.7585
-12.6674
-9.61377
-6.59636
-3.61457
-0.667121
2.24664
5.12775
7.97686
10.7944
13.5804
16.3347
19.0586
21.7531
24.4182
27.0539
29.6602
32.2366
34.784
37.3026
39.7923
42.2531
44.6847
47.0868
49.4594
51.8019
54.1143
56.3962
58.6474
60.8674
63.0559
65.2131
67.3381
69.4306
71.49
73.5158
75.5076
77.4641
79.3854
81.2706
83.1191
84.9302
86.7027
88.4364
90.1299
91.7826
93.3929
94.9591
96.4799
97.9548
99.3838
100.763
102.085
103.345
104.546
105.699
106.811
107.851
108.78
109.562
110.214
110.838
111.477
112.18
112.72
112.831
112.364
111.098
109.441
107.874
106.588
105.683
104.955
102.367
-52.6959
-49.0839
-45.5175
-42.0244
-38.5829
-35.1864
-31.8388
-28.5345
-25.2733
-22.0564
-18.8827
-15.7521
-12.661
-9.60739
-6.59
-3.60821
-0.660753
2.25302
5.13414
7.98326
10.8008
13.5868
16.3412
19.0651
21.7596
24.4248
27.0605
29.6668
32.2432
34.7907
37.3093
39.799
42.2599
44.6915
47.0936
49.4662
51.8088
54.1213
56.4031
58.6543
60.8744
63.063
65.2202
67.3452
69.4378
71.4972
73.523
75.5148
77.4714
79.3927
81.2779
83.1265
84.9375
86.7101
88.4438
90.1374
91.7901
93.4004
94.9666
96.4875
97.9625
99.3915
100.771
102.093
103.353
104.555
105.709
106.819
107.858
108.786
109.573
110.233
110.862
111.501
112.186
112.704
112.807
112.355
111.163
109.6
108.111
106.872
105.932
105.052
102.41
-52.6878
-49.0762
-45.5099
-42.0169
-38.5754
-35.1789
-31.8314
-28.5272
-25.266
-22.0491
-18.8755
-15.7449
-12.6538
-9.60022
-6.58283
-3.60105
-0.653586
2.2602
5.14134
7.99047
10.8081
13.5941
16.3484
19.0724
21.7669
24.4321
27.0679
29.6742
32.2507
34.7982
37.3169
39.8066
42.2675
44.6991
47.1013
49.4739
51.8165
54.1291
56.411
58.6622
60.8823
63.0709
65.2282
67.3532
69.4458
71.5053
73.5311
75.5229
77.4795
79.4008
81.2861
83.1347
84.9458
86.7184
88.4522
90.1458
91.7985
93.4089
94.9752
96.4962
97.9712
99.4002
100.779
102.102
103.362
104.566
105.719
106.828
107.865
108.794
109.585
110.255
110.89
111.527
112.193
112.691
112.787
112.354
111.241
109.78
108.375
107.186
106.217
105.203
102.545
96.9145
87.0303
72.3919
-52.6788
-49.0675
-45.5014
-42.0085
-38.567
-35.1706
-31.8232
-28.5189
-25.2578
-22.041
-18.8673
-15.7368
-12.6458
-9.59215
-6.57477
-3.59299
-0.645522
2.26828
5.14943
7.99858
10.8162
13.6022
16.3566
19.0806
21.7752
24.4404
27.0762
29.6826
32.2591
34.8066
37.3253
39.8151
42.276
44.7077
47.1099
49.4826
51.8252
54.1378
56.4198
58.6711
60.8912
63.0799
65.2371
67.3622
69.4548
71.5143
73.5402
75.532
77.4887
79.41
81.2953
83.144
84.9551
86.7277
88.4615
90.1552
91.808
93.4184
94.9847
96.5059
97.981
99.41
100.789
102.112
103.373
104.577
105.731
106.839
107.874
108.803
109.6
110.279
110.921
111.556
112.203
112.681
112.772
112.364
111.335
109.982
108.667
107.533
106.547
105.424
102.791
97.4876
88.5671
76.0154
-41.999
-38.5575
-35.1612
-31.8138
-28.5097
-25.2486
-22.0318
-18.8582
-15.7276
-12.6366
-9.58306
-6.5657
-3.58392
-0.63645
2.27737
5.15853
8.0077
10.8253
13.6114
16.3658
19.0898
21.7845
24.4497
27.0856
29.692
32.2685
34.8161
37.3349
39.8247
42.2857
44.7174
47.1196
49.4924
51.835
54.1477
56.4297
58.681
60.9012
63.0899
65.2472
67.3724
69.465
71.5245
73.5504
75.5423
77.499
79.4204
81.3057
83.1544
84.9655
86.7382
88.4721
90.1658
91.8186
93.4291
94.9955
96.5168
97.9921
99.421
100.8
102.123
103.385
104.59
105.745
106.851
107.885
108.814
109.617
110.306
110.955
111.589
112.218
112.676
112.765
112.386
111.448
110.209
108.993
107.92
106.93
105.732
103.177
98.2783
90.4284
80.0201
-41.9883
-38.5469
-35.1506
-31.8034
-28.4993
-25.2382
-22.0214
-18.8479
-15.7173
-12.6264
-9.57283
-6.55549
-3.57372
-0.626246
2.28758
5.16877
8.01797
10.8356
13.6217
16.3762
19.1003
21.7949
24.4602
27.0961
29.7025
32.2791
34.8268
37.3456
39.8355
42.2965
44.7283
47.1306
49.5034
51.8461
54.1588
56.4408
58.6922
60.9124
63.1012
65.2586
67.3838
69.4764
71.536
73.5619
75.5538
77.5106
79.432
81.3174
83.1661
84.9773
86.7501
88.484
90.1777
91.8306
93.4412
95.0077
96.5291
98.0046
99.4336
100.813
102.136
103.399
104.605
105.76
106.865
107.898
108.828
109.637
110.337
110.993
111.627
112.237
112.677
112.769
112.426
111.584
110.466
109.355
108.352
107.377
106.146
103.727
99.3272
92.6545
84.4636
79.2858
86.1213
113.594
161.426
214.288
-41.9762
-38.535
-35.1388
-31.7916
-28.4876
-25.2266
-22.0098
-18.8363
-15.7057
-12.6148
-9.5613
-6.544
-3.56224
-0.614763
2.29908
5.18029
8.02951
10.8472
13.6333
16.3879
19.112
21.8067
24.472
27.1079
29.7144
32.2911
34.8388
37.3577
39.8477
42.3087
44.7405
47.1429
49.5157
51.8585
54.1712
56.4534
58.7048
60.9251
63.1139
65.2714
67.3966
69.4893
71.5489
73.5749
75.5668
77.5236
79.4451
81.3305
83.1793
84.9906
86.7634
88.4974
90.1912
91.8442
93.4548
95.0215
96.5431
98.0188
99.4478
100.827
102.151
103.415
104.622
105.777
106.881
107.913
108.845
109.661
110.372
111.036
111.669
112.263
112.688
112.786
112.485
111.745
110.756
109.758
108.837
107.9
106.686
104.471
100.657
95.2365
89.2308
87.267
96.6466
123.703
167.619
216.067
-41.9627
-38.5215
-35.1254
-31.7784
-28.4744
-25.2135
-21.9968
-18.8232
-15.6927
-12.6018
-9.54831
-6.53104
-3.5493
-0.601834
2.31203
5.19326
8.0425
10.8602
13.6464
16.401
19.1251
21.8199
24.4853
27.1213
29.7278
32.3046
34.8523
37.3713
39.8613
42.3224
44.7543
47.1568
49.5297
51.8725
54.1853
56.4675
58.719
60.9394
63.1283
65.2858
67.4111
69.5038
71.5635
73.5895
75.5815
77.5384
79.4599
81.3454
83.1942
85.0056
86.7785
88.5125
90.2065
91.8595
93.4702
95.0371
96.5589
98.0348
99.464
100.843
102.167
103.432
104.641
105.797
106.9
107.931
108.865
109.689
110.413
111.084
111.717
112.297
112.711
112.821
112.57
111.937
111.082
110.207
109.381
108.512
107.37
105.428
102.281
98.158
94.2755
95.1228
106.516
132.929
173.001
217.092
-41.9475
-38.5063
-35.1104
-31.7634
-28.4596
-25.1988
-21.9822
-18.8086
-15.6781
-12.5872
-9.53369
-6.51645
-3.53473
-0.587265
2.32661
5.20786
8.05714
10.8749
13.6611
16.4157
19.14
21.8348
24.5003
27.1363
29.7429
32.3197
34.8676
37.3866
39.8768
42.3379
44.7699
47.1724
49.5454
51.8883
54.2012
56.4834
58.735
60.9555
63.1445
65.302
67.4274
69.5202
71.5799
73.606
75.5981
77.555
79.4766
81.3622
83.2111
85.0225
86.7955
88.5296
90.2237
91.8768
93.4877
95.0547
96.5768
98.053
99.4823
100.862
102.186
103.453
104.663
105.82
106.922
107.953
108.89
109.721
110.458
111.139
111.773
112.342
112.748
112.878
112.684
112.164
111.449
110.707
109.993
109.224
108.214
106.613
104.198
101.381
99.491
102.71
115.542
140.973
177.315
217.214
-41.9303
-38.4893
-35.0934
-31.7466
-28.443
-25.1823
-21.9657
-18.7921
-15.6616
-12.5707
-9.5172
-6.49999
-3.51828
-0.570831
2.34305
5.22433
8.07364
10.8914
13.6777
16.4324
19.1567
21.8516
24.5172
27.1532
29.7599
32.3369
34.8848
37.4039
39.8941
42.3554
44.7875
47.19
49.5631
51.9061
54.2191
56.5014
58.7531
60.9736
63.1627
65.3203
67.4458
69.5387
71.5985
73.6247
75.6168
77.5738
79.4955
81.3811
83.2301
85.0416
86.8148
88.549
90.2432
91.8964
93.5075
95.0747
96.5971
98.0736
99.5032
100.883
102.208
103.476
104.688
105.846
106.948
107.979
108.919
109.76
110.51
111.2
111.837
112.399
112.804
112.96
112.832
112.429
111.862
111.263
110.681
110.048
109.228
108.028
106.387
104.841
104.769
109.883
123.615
147.763
180.489
216.367
-41.911
-38.47
-35.0743
-31.7277
-28.4242
-25.1637
-21.9472
-18.7736
-15.643
-12.5521
-9.49861
-6.48142
-3.49973
-0.552281
2.36162
5.24292
8.09226
10.9101
13.6964
16.4512
19.1756
21.8706
24.5362
27.1724
29.7791
32.3562
34.9042
37.4235
39.9138
42.3751
44.8073
47.21
49.5831
51.9262
54.2393
56.5217
58.7735
60.9942
63.1834
65.3411
67.4666
69.5596
71.6195
73.6458
75.6379
77.5951
79.5168
81.4026
83.2517
85.0633
86.8366
88.5709
90.2652
91.9187
93.5299
95.0974
96.6202
98.097
99.5269
100.907
102.233
103.503
104.716
105.875
106.978
108.009
108.954
109.804
110.568
111.27
111.911
112.47
112.882
113.071
113.017
112.738
112.323
111.879
111.449
110.988
110.411
109.657
108.804
108.452
109.973
116.518
130.655
153.282
182.528
214.539
-41.8891
-38.4483
-35.0528
-31.7063
-28.403
-25.1426
-21.9262
-18.7527
-15.6221
-12.5312
-9.47764
-6.46044
-3.47876
-0.531314
2.3826
5.26393
8.11331
10.9312
13.7175
16.4725
19.197
21.892
24.5577
27.194
29.8009
32.378
34.9262
37.4456
39.936
42.3974
44.8297
47.2325
49.6058
51.949
54.2621
56.5447
58.7966
61.0174
63.2067
65.3645
67.4902
69.5833
71.6433
73.6696
75.6619
77.6191
79.541
81.4269
83.2761
85.0878
86.8612
88.5957
90.2902
91.9438
93.5552
95.1231
96.6462
98.1235
99.5538
100.934
102.262
103.533
104.748
105.909
107.012
108.045
108.995
109.856
110.634
111.348
111.997
112.559
112.984
113.216
113.243
113.091
112.834
112.557
112.299
112.043
111.752
111.469
111.382
112.108
114.947
122.493
136.59
157.51
183.421
211.723
-41.8644
-38.4238
-35.0284
-31.6821
-28.379
-25.1189
-21.9024
-18.729
-15.5985
-12.5075
-9.45393
-6.43674
-3.45505
-0.507603
2.40633
5.28769
8.13711
10.955
13.7415
16.4965
19.2211
21.9163
24.5821
27.2184
29.8254
32.4027
34.951
37.4705
39.9611
42.4227
44.8551
47.258
49.6314
51.9747
54.288
56.5708
58.8228
61.0437
63.2331
65.3911
67.5169
69.6101
71.6702
73.6966
75.689
77.6464
79.5684
81.4544
83.3037
85.1156
86.8891
88.6238
90.3185
91.9723
93.5839
95.1521
96.6757
98.1534
99.5841
100.965
102.294
103.566
104.784
105.947
107.051
108.086
109.042
109.914
110.708
111.435
112.094
112.667
113.113
113.396
113.511
113.49
113.394
113.292
113.225
113.2
113.225
113.413
114.029
115.685
119.544
127.691
141.375
160.45
183.183
207.943
-41.8364
-38.396
-35.0008
-31.6546
-28.3518
-25.0921
-21.8755
-18.7023
-15.5717
-12.4807
-9.42712
-6.40991
-3.42821
-0.480746
2.43322
5.31461
8.16408
10.982
13.7686
16.5237
19.2485
21.9437
24.6097
27.2461
29.8533
32.4307
34.9792
37.4988
39.9895
42.4513
44.8838
47.2869
49.6604
52.0039
54.3173
56.6002
58.8524
61.0735
63.2631
65.4212
67.5471
69.6404
71.7007
73.7272
75.7197
77.6772
79.5994
81.4855
83.335
85.147
86.9207
88.6555
90.3504
92.0044
93.6163
95.1848
96.7088
98.187
99.6182
101
102.329
103.604
104.824
105.988
107.094
108.133
109.096
109.98
110.789
111.531
112.205
112.794
113.27
113.611
113.82
113.931
113.998
114.076
114.212
114.434
114.786
115.425
116.653
119.059
123.632
132.016
144.982
162.132
181.856
203.255
-41.8047
-38.3644
-34.9695
-31.6235
-28.321
-25.0614
-21.8451
-18.672
-15.5414
-12.4503
-9.3967
-6.3795
-3.39779
-0.450313
2.46369
5.34513
8.19465
11.0127
13.7993
16.5546
19.2795
21.9749
24.6409
27.2776
29.8848
32.4625
35.0111
37.5309
40.0218
42.4837
44.9164
47.3196
49.6933
52.037
54.3506
56.6337
58.886
61.1072
63.297
65.4553
67.5813
69.6748
71.7352
73.7619
75.7545
77.7122
79.6345
81.5207
83.3703
85.1825
86.9564
88.6913
90.3864
92.0405
93.6527
95.2215
96.7458
98.2245
99.6561
101.038
102.369
103.645
104.867
106.034
107.142
108.185
109.155
110.052
110.877
111.636
112.327
112.938
113.451
113.856
114.163
114.405
114.632
114.892
115.233
115.704
116.372
117.42
119.156
122.114
127.112
135.412
147.425
162.615
179.506
197.73
-41.7686
-38.3286
-34.934
-31.5882
-28.2859
-25.0267
-21.8106
-18.6376
-15.5071
-12.4158
-9.36221
-6.34501
-3.36327
-0.415765
2.49828
5.37978
8.22936
11.0475
13.8342
16.5896
19.3147
22.0102
24.6764
27.3132
29.9206
32.4985
35.0473
37.5673
40.0584
42.5205
44.9534
47.3568
49.7307
52.0745
54.3883
56.6716
58.9241
61.1455
63.3355
65.4939
67.6202
69.7138
71.7743
73.8012
75.7939
77.7517
79.6741
81.5605
83.4102
85.2225
86.9965
88.7315
90.4267
92.081
93.6932
95.2622
96.7868
98.2657
99.6975
101.08
102.412
103.69
104.914
106.082
107.193
108.24
109.218
110.127
110.969
111.746
112.458
113.096
113.651
114.123
114.527
114.896
115.275
115.708
116.248
116.952
117.905
119.296
121.417
124.731
129.893
137.843
148.736
161.975
176.222
191.467
-41.7276
-38.2879
-34.8936
-31.5481
-28.2461
-24.9871
-21.7713
-18.5985
-15.4679
-12.3767
-9.32306
-6.30585
-3.32408
-0.37654
2.53756
5.41912
8.26878
11.087
13.8738
16.6294
19.3547
22.0504
24.7167
27.3537
29.9613
32.5394
35.0884
37.6086
40.0999
42.5622
44.9953
47.399
49.7731
52.1172
54.4311
56.7146
58.9673
61.189
63.3792
65.5378
67.6642
69.758
71.8187
73.8457
75.8385
77.7964
79.7189
81.6054
83.4551
85.2674
87.0415
88.7765
90.4716
92.1258
93.738
95.307
96.8315
98.3103
99.742
101.125
102.457
103.736
104.961
106.132
107.244
108.296
109.282
110.203
111.06
111.856
112.59
113.258
113.859
114.398
114.893
115.379
115.896
116.486
117.203
118.109
119.296
120.944
123.32
126.807
131.907
139.307
148.974
160.304
172.11
184.59
-41.6809
-38.2416
-34.8476
-31.5024
-28.2008
-24.9422
-21.7266
-18.554
-15.4234
-12.3322
-9.27856
-6.26133
-3.27951
-0.331926
2.58224
5.46387
8.31362
11.1319
13.9189
16.6747
19.4001
22.096
24.7626
27.3997
30.0075
32.5859
35.1352
37.6556
40.1471
42.6097
45.043
47.4469
49.8212
52.1655
54.4797
56.7634
59.0164
61.2383
63.4287
65.5874
67.714
69.808
71.8688
73.8959
75.8888
77.8468
79.7693
81.6557
83.5054
85.3176
87.0915
88.8264
90.5212
92.1751
93.7869
95.3553
96.8792
98.3573
99.7884
101.171
102.502
103.782
105.008
106.179
107.293
108.348
109.341
110.272
111.143
111.956
112.712
113.411
114.055
114.655
115.232
115.819
116.452
117.173
118.033
119.097
120.454
122.267
124.764
128.258
133.115
139.818
148.208
157.705
167.288
177.235
-41.6276
-38.1887
-34.7952
-31.4504
-28.1492
-24.8909
-21.6757
-18.5032
-15.3727
-12.2815
-9.22787
-6.21063
-3.22879
-0.28117
2.63306
5.51478
8.36462
11.183
13.9701
16.7261
19.4518
22.1479
24.8147
27.452
30.0601
32.6387
35.1883
37.709
40.2008
42.6636
45.0972
47.5013
49.8759
52.2205
54.5349
56.8189
59.0721
61.2941
63.4848
65.6437
67.7704
69.8645
71.9254
73.9525
75.9454
77.9033
79.8257
81.712
83.5615
85.3733
87.1468
88.8811
90.5753
92.2282
93.8389
95.4061
96.9286
98.4053
99.8347
101.215
102.545
103.823
105.048
106.219
107.333
108.389
109.385
110.324
111.205
112.033
112.808
113.533
114.214
114.865
115.507
116.172
116.894
117.711
118.671
119.838
121.291
123.176
125.673
129.03
133.503
139.41
146.515
154.286
161.872
169.519
-41.5669
-38.1284
-34.7355
-31.391
-28.0903
-24.8325
-21.6176
-18.4453
-15.3149
-12.2237
-9.17014
-6.1529
-3.17102
-0.223339
2.69097
5.57278
8.42273
11.2412
14.0285
16.7847
19.5107
22.207
24.874
27.5116
30.1199
32.6988
35.2487
37.7697
40.2618
42.7249
45.1588
47.5632
49.938
52.2828
54.5975
56.8817
59.1351
61.3574
63.5482
65.7073
67.8341
69.9282
71.989
74.0161
76.0088
77.9665
79.8886
81.7744
83.6233
85.4344
87.207
88.9402
90.6329
92.2841
93.8928
95.4576
96.9776
98.4513
99.8774
101.254
102.581
103.855
105.076
106.243
107.354
108.407
109.403
110.344
111.231
112.066
112.853
113.596
114.302
114.987
115.672
116.387
117.163
118.034
119.046
120.254
121.73
123.596
125.991
129.096
133.082
138.139
143.991
150.161
155.976
161.548
-41.4974
-38.0595
-34.6672
-31.3232
-28.023
-24.7657
-21.5512
-18.3792
-15.2489
-12.1578
-9.10425
-6.08703
-3.10513
-0.15742
2.75696
5.63887
8.48894
11.3076
14.095
16.8515
19.5777
22.2743
24.9416
27.5794
30.188
32.7672
35.3174
37.8388
40.3312
42.7945
45.2287
47.6334
50.0085
52.3536
54.6685
56.9529
59.2065
61.429
63.6199
65.779
67.9058
69.9998
72.0605
74.0872
76.0795
78.0367
79.9581
81.843
83.6908
85.5005
87.2715
89.0025
90.6927
92.3409
93.9461
95.5071
97.0225
98.4911
99.9115
101.282
102.602
103.869
105.082
106.24
107.342
108.387
109.377
110.312
111.195
112.029
112.817
113.563
114.278
114.976
115.677
116.41
117.201
118.082
119.093
120.283
121.711
123.477
125.684
128.453
131.884
136.075
140.734
145.448
149.712
153.439
-41.4179
-37.9807
-34.5892
-31.2457
-27.9462
-24.6894
-21.4754
-18.3037
-15.1736
-12.0826
-9.02906
-6.01187
-3.02996
-0.0822015
2.83226
5.71428
8.56447
11.3833
14.1709
16.9276
19.6541
22.351
25.0185
27.6567
30.2656
32.8451
35.3957
37.9173
40.4101
42.8737
45.3081
47.7131
50.0884
52.4338
54.7489
57.0335
59.2872
61.5097
63.7006
65.8596
67.9862
70.0798
72.14
74.1662
76.1576
78.1138
80.0339
81.9172
83.7631
85.5705
87.3385
89.066
90.752
92.3955
93.9952
95.5497
97.0579
98.5182
99.9292
101.29
102.598
103.852
105.05
106.193
107.279
108.309
109.283
110.203
111.07
111.889
112.661
113.394
114.096
114.783
115.471
116.187
116.955
117.801
118.761
119.876
121.195
122.793
124.744
127.119
129.959
133.301
136.847
140.267
143.165
145.28
-41.3269
-37.8906
-34.4999
-31.157
-27.8582
-24.6021
-21.3886
-18.2174
-15.0874
-11.9965
-8.94312
-5.926
-2.9441
0.00366256
2.91818
5.80029
8.65061
11.4696
14.2574
17.0144
19.7412
22.4384
25.1062
27.7446
30.3538
32.9337
35.4846
38.0066
40.4996
42.9636
45.3982
47.8035
50.179
52.5245
54.8397
57.1244
59.3781
61.6005
63.7912
65.9498
68.0759
70.1688
72.2281
74.253
76.243
78.1974
80.1153
81.996
83.8387
85.6421
87.4053
89.1273
90.807
92.443
94.034
95.5787
97.0755
98.523
99.9196
101.264
102.553
103.786