/*--------------------------------*- C++ -*----------------------------------*\
| =========                 |                                                 |
| \\      /  F ield         | OpenFOAM: The Open Source CFD Toolbox           |
|  \\    /   O peration     | Version:  2412                                  |
|   \\  /    A nd           | Website:  www.openfoam.com                      |
|    \\/     M anipulation  |                                                 |
\*---------------------------------------------------------------------------*/
FoamFile
{
    version     2.0;
    format      ascii;
    arch        "LSB;label=32;scalar=64";
    class       volVectorField;
    location    "40";
    object      U;
}
// * * * * * * * * * * * * * * * * * * * * * * * * * * * * * * * * * * * * * //

dimensions      [0 1 -1 0 0 0 0];

internalField   nonuniform List<vector> 
7387
(
(0.779295 -0.223875 9.47842e-19)
(0.778357 -0.22463 5.74345e-24)
(0.777361 -0.225337 -8.84269e-19)
(0.776605 -0.226093 0)
(0.775984 -0.226863 -8.20034e-19)
(0.77542 -0.227626 -3.88016e-25)
(0.774848 -0.228365 0)
(0.774268 -0.229082 0)
(0.773674 -0.229772 -1.37269e-18)
(0.773073 -0.230439 -6.50921e-19)
(0.772459 -0.23108 2.79675e-25)
(0.771872 -0.23171 -2.88149e-25)
(0.771235 -0.23231 -2.68451e-19)
(0.770586 -0.23288 0)
(0.769942 -0.233432 2.25985e-19)
(0.769288 -0.233961 -2.03018e-19)
(0.768599 -0.234461 0)
(0.767889 -0.234934 1.5278e-19)
(0.767165 -0.235382 3.16498e-26)
(0.766449 -0.235811 1.07187e-25)
(0.765723 -0.236218 0)
(0.764977 -0.236598 0)
(0.764239 -0.236959 0)
(0.763481 -0.237295 -2.37539e-20)
(0.762713 -0.237606 4.54557e-20)
(0.761951 -0.237899 6.90255e-20)
(0.761153 -0.238163 -9.46793e-20)
(0.760335 -0.238399 4.49269e-26)
(0.759506 -0.238611 -1.53126e-19)
(0.758662 -0.2388 3.80839e-25)
(0.757813 -0.238967 -1.11433e-19)
(0.756941 -0.239107 1.31371e-19)
(0.756068 -0.239226 3.06424e-19)
(0.755181 -0.239326 -7.06618e-25)
(0.754292 -0.239403 7.45223e-25)
(0.753387 -0.23946 -4.64562e-19)
(0.752482 -0.239497 -2.6396e-19)
(0.751575 -0.239518 0)
(0.750673 -0.239523 -1.65139e-24)
(0.749777 -0.239518 -1.48837e-24)
(0.748897 -0.239497 1.58019e-24)
(0.748098 -0.239482 0)
(0.747385 -0.239482 0)
(0.746702 -0.239491 1.48298e-19)
(0.745977 -0.239491 -2.5745e-24)
(0.745291 -0.239475 1.83599e-19)
(0.744956 -0.239511 2.03865e-19)
(0.745293 -0.239705 -3.50867e-24)
(0.746171 -0.240106 -1.24891e-19)
(0.74678 -0.240565 -1.37812e-19)
(0.746482 -0.240857 0)
(0.745265 -0.240846 5.1901e-24)
(0.745348 -0.240859 -5.55255e-24)
(0.74912 -0.241649 1.01349e-19)
(0.757828 -0.243689 -6.21426e-25)
(0.771279 -0.247441 1.20148e-19)
(0.7833 -0.251877 1.29379e-19)
(0.789216 -0.255447 0)
(0.78911 -0.257962 0)
(0.780111 -0.258013 -8.10515e-20)
(0.772412 -0.256525 1.08865e-23)
(0.786615 -0.259363 9.5588e-20)
(0.832106 -0.269764 0)
(0.916483 -0.289709 5.32831e-20)
(1.07769 -0.329776 0)
(1.34354 -0.417885 -1.29071e-23)
(1.35276 -0.510962 3.9817e-20)
(0.778158 -0.400739 2.30799e-24)
(-0.16932 0.127727 -6.35306e-20)
(-0.599514 0.643548 0)
(0.206597 -0.355943 -5.44658e-23)
(0.214299 -0.582752 3.69381e-23)
(2.41761 -0.69494 -1.56116e-18)
(2.41477 -0.697292 3.01243e-18)
(2.41174 -0.69951 1.4514e-18)
(2.40943 -0.701863 -6.86782e-25)
(2.40756 -0.704266 0)
(2.40585 -0.70665 -5.91355e-25)
(2.4041 -0.708951 4.25027e-26)
(2.40233 -0.711182 4.27665e-26)
(2.40052 -0.713336 2.22262e-18)
(2.3987 -0.715417 1.05095e-18)
(2.39681 -0.717415 0)
(2.39496 -0.719366 0)
(2.39302 -0.721229 0)
(2.39106 -0.723019 0)
(2.38907 -0.724739 0)
(2.38705 -0.726384 2.79938e-25)
(2.38493 -0.727941 -5.30312e-25)
(2.38276 -0.729416 -2.35304e-19)
(2.38055 -0.730822 0)
(2.37834 -0.732159 -1.06811e-25)
(2.37611 -0.733431 5.51512e-26)
(2.37382 -0.734618 5.80365e-26)
(2.37155 -0.735747 -5.81921e-26)
(2.36923 -0.736799 -4.76093e-20)
(2.36688 -0.737777 -8.32006e-20)
(2.36452 -0.738692 1.21885e-19)
(2.36207 -0.739517 1.63876e-19)
(2.35958 -0.740267 3.64313e-25)
(2.35705 -0.740944 2.59517e-19)
(2.35448 -0.741544 -1.57005e-19)
(2.35191 -0.742084 1.86763e-19)
(2.34928 -0.742544 -2.19296e-19)
(2.34663 -0.742938 -2.54941e-19)
(2.34395 -0.743268 0)
(2.34127 -0.743539 0)
(2.33855 -0.743742 -2.60311e-23)
(2.33585 -0.743896 2.1767e-19)
(2.33315 -0.743998 -1.9377e-24)
(2.33046 -0.744056 2.77035e-19)
(2.32781 -0.74408 0)
(2.32523 -0.744068 3.48672e-19)
(2.32288 -0.744067 3.89839e-19)
(2.32081 -0.744113 0)
(2.31886 -0.744201 2.42232e-19)
(2.31682 -0.744267 2.69378e-19)
(2.31489 -0.744293 2.99188e-19)
(2.314 -0.744456 -3.31822e-19)
(2.31511 -0.745087 1.83681e-19)
(2.31785 -0.746343 -6.09377e-24)
(2.31994 -0.747829 6.92818e-24)
(2.31945 -0.748873 -2.46257e-19)
(2.31628 -0.749044 8.15994e-24)
(2.31673 -0.749177 -1.49253e-19)
(2.32778 -0.75147 0)
(2.35323 -0.757368 1.78747e-19)
(2.39269 -0.76832 -1.9372e-19)
(2.42886 -0.781687 0)
(2.44802 -0.792942 1.12073e-19)
(2.44966 -0.801272 -1.48384e-23)
(2.42577 -0.802706 3.18831e-23)
(2.40438 -0.799143 -1.70983e-23)
(2.4436 -0.80691 0)
(2.57216 -0.835919 0)
(2.8121 -0.892459 -8.53402e-20)
(3.26525 -1.00529 1.66481e-24)
(4.0084 -1.2512 -8.02271e-20)
(4.08717 -1.53934 -6.49871e-20)
(2.52838 -1.28298 1.6959e-23)
(-0.284894 0.249189 -5.52867e-23)
(-1.65319 1.76028 5.86229e-23)
(0.551469 -0.958643 -1.69989e-19)
(0.462558 -1.14975 7.52184e-23)
(4.22303 -1.21378 3.52885e-18)
(4.21823 -1.21793 -1.7023e-18)
(4.21307 -1.22185 0)
(4.20914 -1.22599 1.57778e-18)
(4.20595 -1.23021 -1.51499e-18)
(4.20305 -1.2344 -1.45166e-18)
(4.20008 -1.23845 6.85607e-25)
(4.19705 -1.24236 1.32234e-18)
(4.19396 -1.24614 -1.25584e-18)
(4.19083 -1.2498 5.41546e-25)
(4.18756 -1.2533 -1.06517e-24)
(4.18433 -1.25671 5.23081e-25)
(4.18098 -1.25997 4.84477e-19)
(4.17759 -1.26311 -3.98207e-25)
(4.17413 -1.26612 -4.03758e-19)
(4.17059 -1.26899 3.1625e-25)
(4.1669 -1.27171 -3.14422e-19)
(4.16313 -1.2743 2.65746e-19)
(4.1593 -1.27676 -2.13922e-19)
(4.15543 -1.2791 1.58564e-19)
(4.15151 -1.28131 0)
(4.14752 -1.28339 1.02345e-27)
(4.14353 -1.28535 -6.68606e-26)
(4.13948 -1.28719 -3.71007e-23)
(4.13536 -1.28889 -9.40472e-20)
(4.1312 -1.29048 4.07854e-23)
(4.12692 -1.29192 3.93282e-25)
(4.12259 -1.29323 -4.11504e-25)
(4.11817 -1.29441 2.93148e-19)
(4.11368 -1.29546 -2.50012e-23)
(4.10919 -1.29641 -2.10874e-19)
(4.10461 -1.29722 9.9541e-25)
(4.1 -1.29791 -2.87865e-19)
(4.09536 -1.2985 0)
(4.09071 -1.29898 0)
(4.086 -1.29935 -3.66858e-23)
(4.08135 -1.29964 2.45678e-19)
(4.0767 -1.29984 0)
(4.07208 -1.29997 2.45749e-24)
(4.06754 -1.30003 1.49109e-25)
(4.06314 -1.30005 -3.93296e-19)
(4.05913 -1.30008 -4.39657e-19)
(4.05563 -1.30019 0)
(4.05235 -1.30039 -2.73097e-19)
(4.04896 -1.30056 6.44178e-24)
(4.0458 -1.30067 -3.37181e-19)
(4.04434 -1.30099 -3.73909e-19)
(4.04622 -1.30209 -4.1383e-19)
(4.0509 -1.30425 4.40801e-25)
(4.05469 -1.30688 -1.5143e-23)
(4.05437 -1.30887 5.54351e-19)
(4.04965 -1.30943 -1.89038e-23)
(4.05062 -1.30976 1.33414e-23)
(4.06876 -1.31349 0)
(4.11071 -1.3231 -2.00923e-19)
(4.17604 -1.34115 1.31905e-23)
(4.23734 -1.36383 -2.86904e-23)
(4.2719 -1.38369 -1.25742e-19)
(4.27763 -1.39896 0)
(4.24191 -1.4033 3.60819e-23)
(4.20817 -1.3986 8.48266e-25)
(4.26919 -1.41057 -4.14958e-23)
(4.47427 -1.45625 0)
(4.85973 -1.5468 0)
(5.5801 -1.72651 0)
(6.75416 -2.11543 0)
(6.9601 -2.61136 3.56812e-23)
(4.56971 -2.28105 -3.72493e-23)
(-0.146331 0.229219 1.12225e-19)
(-2.59068 2.73819 0)
(0.819856 -1.47163 0)
(0.553412 -1.12388 -7.16366e-20)
(6.17906 -1.776 -1.9876e-18)
(6.1724 -1.78218 -1.91744e-18)
(6.16516 -1.788 1.81542e-24)
(6.15964 -1.79412 -1.77726e-18)
(6.15516 -1.80036 1.70649e-18)
(6.15107 -1.80653 3.27012e-18)
(6.1469 -1.81251 0)
(6.14263 -1.81829 -1.09796e-22)
(6.13822 -1.82386 -1.40338e-24)
(6.13372 -1.82923 1.21972e-24)
(6.12902 -1.83438 6.29029e-19)
(6.12437 -1.83939 -5.88078e-19)
(6.11952 -1.84418 -1.09112e-18)
(6.11459 -1.84879 -8.96725e-25)
(6.10954 -1.8532 6.93217e-23)
(6.10436 -1.8574 -4.05643e-19)
(6.09898 -1.86138 3.54032e-19)
(6.09345 -1.86517 -2.99213e-19)
(6.08784 -1.86877 8.02412e-23)
(6.08212 -1.87218 -1.78517e-19)
(6.07632 -1.87539 0)
(6.07045 -1.87842 0)
(6.06453 -1.88127 0)
(6.05853 -1.88394 6.05741e-20)
(6.05242 -1.88641 2.11758e-19)
(6.04626 -1.88871 -1.5498e-19)
(6.03993 -1.8908 -2.08433e-19)
(6.03351 -1.8927 -2.66561e-19)
(6.02698 -1.8944 -6.59776e-19)
(6.02034 -1.89592 1.99499e-19)
(6.01368 -1.89727 2.37303e-19)
(6.00693 -1.89844 -2.23977e-24)
(6.00012 -1.89944 -3.68442e-23)
(5.99327 -1.90027 0)
(5.98642 -1.90097 0)
(5.9795 -1.9015 4.87103e-19)
(5.97265 -1.9019 -5.52418e-19)
(5.96584 -1.90219 -3.12046e-19)
(5.95909 -1.90238 -3.51357e-19)
(5.95247 -1.90249 0)
(5.94606 -1.90252 0)
(5.94022 -1.90257 0)
(5.93511 -1.90274 2.75445e-19)
(5.93038 -1.90305 3.06648e-19)
(5.92555 -1.90335 2.0932e-23)
(5.92105 -1.90355 -1.17804e-23)
(5.91894 -1.90404 1.63763e-24)
(5.92145 -1.90558 2.32018e-19)
(5.92797 -1.90865 0)
(5.93357 -1.91251 0)
(5.93378 -1.91561 1.62947e-23)
(5.92796 -1.91678 2.11643e-23)
(5.92951 -1.91739 1.87849e-19)
(5.95416 -1.92238 0)
(6.01149 -1.93534 2.24505e-19)
(6.10133 -1.96002 0)
(6.18781 -1.9921 0)
(6.23967 -2.02135 3.4421e-23)
(6.25222 -2.0447 4.56052e-25)
(6.20895 -2.05376 -1.62681e-19)
(6.16514 -2.04919 -1.76549e-19)
(6.24303 -2.06426 0)
(6.51281 -2.12334 0)
(7.02422 -2.2429 1.05054e-19)
(7.96901 -2.47898 0)
(9.4948 -2.98648 0)
(9.8759 -3.69202 3.89103e-23)
(6.88228 -3.37742 8.34674e-20)
(0.345402 0.00789025 -1.21236e-19)
(-3.33132 3.49808 1.46009e-22)
(0.938162 -1.80067 0)
(0.470323 -0.4519 7.62666e-20)
(8.26135 -2.37452 -2.06142e-24)
(8.25311 -2.38296 2.14592e-18)
(8.24401 -2.39091 2.03154e-24)
(8.23707 -2.39923 1.83651e-24)
(8.23145 -2.40768 -1.90932e-18)
(8.22627 -2.41602 -1.82949e-18)
(8.22099 -2.4241 1.72784e-24)
(8.21554 -2.4319 -1.66624e-18)
(8.20988 -2.43942 0)
(8.20404 -2.44666 1.36441e-24)
(8.19793 -2.4536 -7.03695e-19)
(8.19181 -2.46033 6.57848e-19)
(8.18544 -2.46678 7.93156e-23)
(8.17891 -2.47296 5.60439e-19)
(8.17219 -2.47886 5.08452e-19)
(8.16526 -2.48449 4.53688e-19)
(8.15806 -2.48982 0)
(8.15066 -2.49488 0)
(8.14311 -2.49968 2.69248e-19)
(8.13539 -2.50421 3.03334e-25)
(8.12756 -2.50849 -3.15079e-25)
(8.11959 -2.51251 0)
(8.11152 -2.51628 2.1079e-20)
(8.10335 -2.5198 6.78358e-20)
(8.09502 -2.52306 -1.1839e-19)
(8.08661 -2.52607 7.5796e-25)
(8.07798 -2.52881 2.32967e-19)
(8.06922 -2.5313 5.95895e-19)
(8.06032 -2.53352 7.37453e-19)
(8.05126 -2.53549 1.81708e-24)
(8.04216 -2.53724 -5.30312e-19)
(8.03295 -2.53875 0)
(8.02369 -2.54003 3.61721e-19)
(8.01434 -2.54109 -6.36993e-24)
(8.005 -2.54196 4.77579e-19)
(7.99558 -2.54262 4.00161e-24)
(7.98627 -2.54311 -3.0316e-23)
(7.97704 -2.54345 3.48267e-19)
(7.96791 -2.54367 3.92057e-19)
(7.95894 -2.54378 -4.40149e-19)
(7.95029 -2.54379 -7.72258e-24)
(7.94238 -2.54383 -5.50731e-19)
(7.93542 -2.54402 -3.07024e-19)
(7.92902 -2.54441 -3.4169e-19)
(7.92259 -2.54481 -7.59374e-19)
(7.91662 -2.54511 0)
(7.91365 -2.54573 9.33728e-19)
(7.9165 -2.54765 1.54879e-23)
(7.92458 -2.55156 0)
(7.93194 -2.55667 -3.13483e-19)
(7.93294 -2.56101 -3.44814e-19)
(7.9265 -2.56301 -3.79125e-19)
(7.92861 -2.56394 0)
(7.95877 -2.5699 -2.8161e-23)
(8.02944 -2.58559 -2.48488e-19)
(8.14104 -2.61606 -3.2933e-23)
(8.25144 -2.65718 3.5075e-23)
(8.32187 -2.69633 -1.54772e-19)
(8.34404 -2.72882 4.03834e-23)
(8.29841 -2.74456 1.79001e-19)
(8.24789 -2.74167 1.94211e-19)
(8.33697 -2.75858 0)
(8.65535 -2.82665 2.21598e-19)
(9.26505 -2.96797 4.82401e-23)
(10.3781 -3.24619 1.13077e-19)
(12.1532 -3.8413 0)
(12.7323 -4.74468 0)
(9.41236 -4.54089 -8.71694e-20)
(1.27577 -0.468751 1.27291e-19)
(-3.80334 3.98489 1.9884e-22)
(0.876316 -1.86035 -3.93367e-22)
(0.228855 0.816589 -7.92047e-20)
(10.4341 -2.99904 0)
(10.4248 -3.01 -2.19985e-24)
(10.4142 -3.02031 -2.28909e-18)
(10.4061 -3.03102 -2.20155e-18)
(10.3996 -3.04187 2.11369e-18)
(10.3936 -3.05255 1.86427e-24)
(10.3874 -3.0629 -1.91232e-24)
(10.3809 -3.07288 0)
(10.3741 -3.08249 0)
(10.3671 -3.09173 1.50969e-24)
(10.3596 -3.10059 -1.5538e-24)
(10.3521 -3.10916 0)
(10.3442 -3.11736 6.75045e-19)
(10.3361 -3.1252 -6.20013e-19)
(10.3277 -3.13269 5.62277e-19)
(10.319 -3.13981 0)
(10.3099 -3.14657 4.37663e-19)
(10.3006 -3.15296 3.69797e-19)
(10.2909 -3.159 0)
(10.2811 -3.1647 0)
(10.2711 -3.17007 0)
(10.2609 -3.1751 0)
(10.2505 -3.17981 -4.66836e-20)
(10.2399 -3.18419 -1.50079e-19)
(10.2292 -3.18823 -8.02494e-25)
(10.2183 -3.19196 0)
(10.2071 -3.19534 0)
(10.1958 -3.19839 8.59108e-23)
(10.1843 -3.20112 -4.07569e-19)
(10.1725 -3.20351 0)
(10.1607 -3.20562 2.93018e-19)
(10.1488 -3.20743 0)
(10.1368 -3.20896 0)
(10.1247 -3.2102 0)
(10.1126 -3.2112 -5.27401e-19)
(10.1004 -3.21194 -8.8376e-24)
(10.0884 -3.21248 3.40405e-19)
(10.0764 -3.21282 -3.84436e-19)
(10.0646 -3.21301 -7.83091e-25)
(10.0531 -3.21307 4.85517e-19)
(10.0419 -3.21301 0)
(10.0316 -3.21297 -4.84594e-23)
(10.0226 -3.21313 0)
(10.0143 -3.21355 3.76377e-19)
(10.006 -3.21402 -4.73224e-24)
(9.9984 -3.21437 -2.88701e-23)
(9.99429 -3.21506 -5.13399e-19)
(9.99704 -3.21724 1.18719e-24)
(10.0062 -3.22185 1.20685e-24)
(10.015 -3.22816 6.88061e-19)
(10.017 -3.23382 4.55155e-23)
(10.0104 -3.23685 4.15392e-19)
(10.013 -3.23812 -2.28149e-19)
(10.0473 -3.24469 -1.41699e-24)
(10.1284 -3.26226 5.42693e-19)
(10.2577 -3.29727 0)
(10.3891 -3.34658 0)
(10.4782 -3.39569 1.68208e-19)
(10.5125 -3.43812 0)
(10.4701 -3.46246 0)
(10.4172 -3.463 0)
(10.512 -3.48062 1.10706e-22)
(10.8604 -3.55272 -2.38044e-19)
(11.5351 -3.70706 -1.22204e-19)
(12.7529 -4.01114 -1.19582e-19)
(14.6658 -4.66074 2.08582e-22)
(15.4297 -5.73493 8.84781e-20)
(12.0715 -5.72905 8.91406e-20)
(2.70671 -1.23889 -2.57936e-19)
(-3.95184 4.14404 -2.22377e-22)
(0.607888 -1.57361 -2.46095e-19)
(-0.134274 2.55322 7.96236e-20)
(12.6492 -3.63573 2.68921e-18)
(12.6393 -3.64941 -2.89383e-25)
(12.6277 -3.66228 2.49808e-18)
(12.619 -3.67556 2.40207e-18)
(12.6119 -3.68896 -2.30547e-18)
(12.6053 -3.70212 -4.06645e-24)
(12.5984 -3.71487 2.1101e-18)
(12.5912 -3.72716 -2.01029e-18)
(12.5835 -3.73898 0)
(12.5754 -3.75033 0)
(12.5668 -3.7612 -3.0847e-24)
(12.558 -3.7717 -7.93001e-19)
(12.5488 -3.78173 -2.64902e-24)
(12.5391 -3.79131 5.15048e-24)
(12.5291 -3.80045 -1.14663e-22)
(12.5187 -3.80912 0)
(12.5078 -3.81734 -1.20418e-22)
(12.4965 -3.82511 -4.02852e-19)
(12.4848 -3.83244 -1.41128e-24)
(12.4728 -3.83934 0)
(12.4605 -3.84581 3.80116e-25)
(12.448 -3.85186 -3.99359e-25)
(12.4352 -3.85751 2.54588e-20)
(12.4221 -3.86275 8.17607e-20)
(12.4088 -3.86757 -1.42782e-19)
(12.3953 -3.872 -2.08876e-19)
(12.3815 -3.876 -2.38433e-24)
(12.3674 -3.87961 -7.17514e-19)
(12.3531 -3.8828 0)
(12.3385 -3.8856 4.37361e-24)
(12.3238 -3.88804 -4.58936e-24)
(12.309 -3.89011 0)
(12.294 -3.89184 0)
(12.279 -3.89323 -7.98787e-24)
(12.2639 -3.89432 8.4178e-24)
(12.2488 -3.89509 6.53396e-19)
(12.2338 -3.89562 0)
(12.2189 -3.89591 4.17938e-19)
(12.2043 -3.89603 4.70287e-19)
(12.1899 -3.89599 -3.22237e-23)
(12.176 -3.89581 1.75578e-23)
(12.1632 -3.89564 6.59164e-19)
(12.1518 -3.8957 -2.19052e-23)
(12.1413 -3.89608 -8.16544e-19)
(12.1311 -3.89658 4.53174e-19)
(12.1216 -3.89694 0)
(12.1161 -3.89762 -5.55966e-19)
(12.1182 -3.89992 0)
(12.1278 -3.90505 -4.19304e-23)
(12.1377 -3.91242 6.89616e-23)
(12.1406 -3.91942 -4.07931e-19)
(12.1343 -3.92362 -5.38973e-23)
(12.1374 -3.92526 4.9099e-19)
(12.1742 -3.93204 -2.68184e-19)
(12.2622 -3.9505 -2.90922e-19)
(12.4039 -3.98852 -7.60421e-23)
(12.552 -4.04464 -8.2298e-23)
(12.6584 -4.10321 -8.09753e-25)
(12.7063 -4.15595 1.92437e-19)
(12.6722 -4.19043 1.00071e-22)
(12.6219 -4.19621 0)
(12.7182 -4.21385 0)
(13.0783 -4.28523 0)
(13.783 -4.44357 0)
(15.0429 -4.75746 1.2358e-19)
(16.9895 -5.43139 0)
(17.8902 -6.63772 -1.83447e-19)
(14.7422 -6.88435 3.16007e-22)
(4.6774 -2.31575 1.25994e-19)
(-3.6971 3.91328 -2.29052e-19)
(0.118433 -0.905485 5.29527e-19)
(-0.544496 4.56227 1.05561e-22)
(14.8494 -4.26812 -2.88823e-18)
(14.8393 -4.28464 0)
(14.8274 -4.30023 0)
(14.8184 -4.3162 2.57666e-18)
(14.8111 -4.33223 2.47264e-18)
(14.8042 -4.34796 2.36763e-18)
(14.7971 -4.36318 -2.26191e-18)
(14.7893 -4.37785 4.30865e-18)
(14.781 -4.39194 0)
(14.7722 -4.40547 -1.93253e-18)
(14.7627 -4.41842 6.93077e-24)
(14.7528 -4.43088 8.4924e-19)
(14.7424 -4.4428 -7.8738e-19)
(14.7314 -4.45416 -7.23003e-19)
(14.7199 -4.46498 -6.55744e-19)
(14.7079 -4.47525 5.84813e-19)
(14.6953 -4.48497 -5.10222e-19)
(14.6822 -4.49414 0)
(14.6686 -4.50278 3.46616e-19)
(14.6545 -4.51088 -2.56657e-19)
(14.64 -4.51847 0)
(14.6252 -4.52556 0)
(14.61 -4.53215 -4.29716e-25)
(14.5945 -4.53824 4.47625e-25)
(14.5787 -4.54384 -9.23453e-23)
(14.5625 -4.54897 2.23483e-19)
(14.546 -4.55358 2.0424e-24)
(14.5292 -4.55772 3.83876e-19)
(14.512 -4.56138 0)
(14.4946 -4.56457 2.87154e-19)
(14.477 -4.56732 3.41359e-19)
(14.4592 -4.56964 6.44009e-24)
(14.4413 -4.57154 4.65309e-19)
(14.4232 -4.57306 8.54281e-24)
(14.4051 -4.57421 -9.00119e-24)
(14.387 -4.575 -6.9846e-19)
(14.369 -4.5755 -3.95734e-19)
(14.3512 -4.57572 -1.32089e-23)
(14.3336 -4.57574 -1.00469e-18)
(14.3163 -4.57557 -1.67274e-23)
(14.2997 -4.57524 0)
(14.2842 -4.57491 7.0337e-19)
(14.2703 -4.57482 0)
(14.2575 -4.57513 8.7033e-19)
(14.2452 -4.5756 -4.82722e-19)
(14.2338 -4.57594 5.34691e-19)
(14.2266 -4.57654 1.18268e-18)
(14.2276 -4.57882 -3.91417e-23)
(14.2369 -4.58426 0)
(14.2473 -4.5925 -3.941e-19)
(14.251 -4.60078 4.32252e-19)
(14.2454 -4.60626 -5.70191e-23)
(14.2488 -4.6083 -2.59245e-19)
(14.2866 -4.61489 2.82625e-19)
(14.3779 -4.63328 0)
(14.5263 -4.67267 0)
(14.6856 -4.73391 -3.51933e-19)
(14.8063 -4.80084 -1.87917e-19)
(14.8681 -4.86367 2.99985e-23)
(14.8463 -4.90921 0)
(14.8032 -4.92179 0)
(14.8986 -4.93928 2.47167e-19)
(15.2547 -5.00627 -1.2531e-22)
(15.9579 -5.16076 1.24263e-22)
(17.2051 -5.4708 -1.25129e-19)
(19.1031 -6.14569 0)
(20.0713 -7.44015 9.33409e-20)
(17.2809 -7.94286 -8.47854e-20)
(7.08837 -3.61872 -1.17275e-19)
(-2.89662 3.22649 2.40115e-19)
(-0.518111 0.0792003 -5.71642e-19)
(-0.90235 6.52408 0)
(16.9763 -4.87947 3.05344e-18)
(16.9665 -4.89883 1.15513e-23)
(16.9547 -4.91719 0)
(16.9458 -4.93586 -2.71979e-18)
(16.9387 -4.95454 -9.62168e-24)
(16.9319 -4.97284 -2.49694e-18)
(16.9246 -4.99054 0)
(16.9167 -5.00758 -2.27026e-18)
(16.9081 -5.02396 -7.88107e-24)
(16.8988 -5.03966 2.03542e-18)
(16.8886 -5.0547 9.56647e-19)
(16.878 -5.06914 0)
(16.8666 -5.08294 8.28727e-19)
(16.8545 -5.09609 7.60838e-19)
(16.8418 -5.1086 -4.8959e-24)
(16.8284 -5.12046 -1.33631e-22)
(16.8144 -5.13169 -5.36434e-19)
(16.7996 -5.14227 4.53075e-19)
(16.7843 -5.15223 -7.2896e-19)
(16.7683 -5.16155 1.61146e-22)
(16.7519 -5.17027 0)
(16.735 -5.17839 -6.80284e-27)
(16.7176 -5.18593 7.07912e-27)
(16.6999 -5.19288 0)
(16.6816 -5.19926 1.60757e-19)
(16.6631 -5.20509 -2.35228e-19)
(16.644 -5.21033 0)
(16.6246 -5.21501 0)
(16.6048 -5.21914 0)
(16.5847 -5.22273 -3.01965e-19)
(16.5643 -5.2258 -7.17941e-19)
(16.5437 -5.22837 -1.21973e-23)
(16.523 -5.23047 -4.89232e-19)
(16.502 -5.23211 0)
(16.4811 -5.23334 -6.45122e-19)
(16.46 -5.23416 -4.48545e-23)
(16.4392 -5.23463 8.31753e-19)
(16.4185 -5.23479 -4.6926e-19)
(16.3981 -5.23472 5.27635e-19)
(16.3781 -5.23443 -3.51259e-23)
(16.3587 -5.23396 0)
(16.3406 -5.23346 -7.37796e-19)
(16.3242 -5.23321 0)
(16.3092 -5.23342 -9.11954e-19)
(16.2948 -5.23386 1.01094e-18)
(16.2815 -5.23417 4.07638e-23)
(16.2724 -5.23464 -6.18136e-19)
(16.272 -5.23679 -8.46068e-23)
(16.2804 -5.24235 -2.88974e-24)
(16.2907 -5.25127 4.1063e-19)
(16.295 -5.2607 -4.49546e-19)
(16.2902 -5.26748 -2.40484e-22)
(16.2939 -5.26995 -3.57644e-24)
(16.3314 -5.27607 2.92967e-19)
(16.4227 -5.29355 3.16101e-19)
(16.5724 -5.33285 -1.85116e-24)
(16.7371 -5.39736 3.6243e-19)
(16.868 -5.47115 1.92801e-19)
(16.9424 -5.54326 -2.06147e-19)
(16.9349 -5.59995 2.20058e-19)
(16.9026 -5.62038 0)
(16.9963 -5.63809 -2.50998e-19)
(17.3377 -5.69854 -2.59378e-19)
(18.0148 -5.8436 -6.95461e-24)
(19.2076 -6.14002 -2.47451e-22)
(21.001 -6.80053 0)
(21.9671 -8.14165 -9.50347e-20)
(19.5817 -8.86428 8.14687e-20)
(9.80774 -5.0646 1.06217e-19)
(-1.58242 2.13745 -2.29046e-19)
(-1.14078 1.15345 6.28146e-19)
(-1.15595 8.20389 -4.07683e-22)
(18.9804 -5.45552 -3.19026e-18)
(18.9711 -5.47762 3.0711e-18)
(18.9598 -5.4987 2.95267e-18)
(18.9514 -5.52002 0)
(18.9446 -5.54126 -2.71692e-18)
(18.9381 -5.56205 0)
(18.931 -5.58215 -2.48063e-18)
(18.9232 -5.60151 0)
(18.9144 -5.6201 2.23903e-18)
(18.9049 -5.63793 2.11478e-18)
(18.8944 -5.655 -1.98753e-18)
(18.8832 -5.67137 0)
(18.8711 -5.68703 -6.1963e-24)
(18.8582 -5.70192 6.39004e-24)
(18.8446 -5.7161 -7.156e-19)
(18.8302 -5.72952 -6.38229e-19)
(18.815 -5.74224 1.11286e-18)
(18.7989 -5.75421 -4.69966e-19)
(18.7821 -5.76547 3.77957e-19)
(18.7646 -5.776 5.59384e-19)
(18.7465 -5.78584 -1.76539e-24)
(18.7278 -5.795 0)
(18.7086 -5.80349 -9.40143e-25)
(18.6888 -5.81132 -9.57932e-20)
(18.6685 -5.81849 0)
(18.6478 -5.82502 4.87981e-19)
(18.6266 -5.8309 -4.45816e-24)
(18.6049 -5.83615 4.18997e-19)
(18.5827 -5.84077 -8.52865e-24)
(18.5602 -5.84478 1.91494e-23)
(18.5374 -5.8482 3.72293e-19)
(18.5143 -5.85106 1.40487e-23)
(18.4909 -5.85337 -1.47698e-23)
(18.4675 -5.85518 0)
(18.4439 -5.85653 6.68817e-19)
(18.4203 -5.8574 2.2399e-23)
(18.3968 -5.85788 7.64036e-23)
(18.3735 -5.85802 4.86176e-19)
(18.3506 -5.85789 5.46597e-19)
(18.328 -5.85753 -6.12602e-19)
(18.3062 -5.85694 -2.18613e-24)
(18.2857 -5.8563 7.63442e-19)
(18.267 -5.85591 -1.03701e-22)
(18.2498 -5.85603 9.42276e-19)
(18.2334 -5.85645 -5.21791e-19)
(18.2183 -5.85673 4.23573e-23)
(18.2074 -5.85706 0)
(18.2052 -5.859 0)
(18.2122 -5.86452 -9.55025e-23)
(18.2219 -5.87391 -8.4338e-19)
(18.2266 -5.88434 7.60073e-23)
(18.2226 -5.89237 -1.24893e-22)
(18.2266 -5.89528 1.3239e-22)
(18.2628 -5.90078 -5.97053e-19)
(18.3514 -5.91678 -3.21888e-19)
(18.498 -5.95482 -1.88652e-24)
(18.6626 -6.02092 1.78417e-22)
(18.7991 -6.09982 1.95021e-19)
(18.8836 -6.1799 2.02248e-22)
(18.8904 -6.24705 -1.62916e-22)
(18.871 -6.27575 2.29527e-22)
(18.9633 -6.29431 2.50783e-19)
(19.2838 -6.3476 5.16049e-19)
(19.919 -6.48034 2.45454e-22)
(21.0304 -6.75774 -1.80562e-23)
(22.6869 -7.39542 -1.10677e-19)
(23.5969 -8.75008 9.4112e-20)
(21.598 -9.63871 6.87976e-22)
(12.6813 -6.54888 1.90382e-19)
(0.197529 0.785835 -1.35665e-21)
(-1.60986 2.19502 -7.05746e-19)
(-1.2355 9.50754 0)
(20.8274 -5.98643 1.29994e-23)
(20.8187 -6.01109 -2.29358e-22)
(20.8083 -6.03479 -3.05957e-18)
(20.8005 -6.05862 -1.15478e-23)
(20.7942 -6.08229 2.81038e-18)
(20.7882 -6.10543 0)
(20.7815 -6.12781 2.56241e-18)
(20.7739 -6.14936 0)
(20.7653 -6.17006 -2.61958e-22)
(20.7558 -6.18991 -2.18086e-18)
(20.7452 -6.20892 1.02429e-18)
(20.7337 -6.22714 0)
(20.7212 -6.24456 -8.85793e-19)
(20.7078 -6.26113 -7.61346e-25)
(20.6935 -6.2769 7.36594e-19)
(20.6783 -6.29184 -6.56477e-19)
(20.6622 -6.30599 -5.72415e-19)
(20.6451 -6.3193 0)
(20.6273 -6.33183 2.53114e-24)
(20.6085 -6.34355 -2.8755e-19)
(20.5891 -6.35449 -9.06895e-25)
(20.569 -6.36468 9.42678e-25)
(20.5482 -6.37411 0)
(20.5268 -6.3828 9.84905e-20)
(20.5048 -6.39075 0)
(20.4823 -6.39801 1.17237e-22)
(20.4592 -6.40453 0)
(20.4356 -6.41037 -4.3077e-19)
(20.4115 -6.41549 0)
(20.3869 -6.41994 0)
(20.362 -6.42375 -3.82886e-19)
(20.3367 -6.42692 0)
(20.3112 -6.42949 5.21701e-19)
(20.2855 -6.43151 -6.00933e-19)
(20.2597 -6.433 4.20019e-23)
(20.2339 -6.43398 1.7492e-24)
(20.2081 -6.43452 2.51299e-23)
(20.1826 -6.43467 3.14703e-23)
(20.1574 -6.43453 -1.12232e-18)
(20.1326 -6.43412 6.28566e-19)
(20.1086 -6.43347 7.02304e-19)
(20.086 -6.43273 -7.82452e-19)
(20.0651 -6.43222 -1.06235e-22)
(20.046 -6.43226 9.65504e-23)
(20.0278 -6.43265 0)
(20.0109 -6.43291 -5.89712e-19)
(19.9983 -6.4331 -2.93615e-24)
(19.9942 -6.43477 8.58076e-23)
(19.9995 -6.44013 0)
(20.008 -6.4498 8.57412e-19)
(20.0126 -6.46104 4.68188e-19)
(20.0094 -6.47019 -1.26554e-22)
(20.0136 -6.47354 1.33875e-22)
(20.0479 -6.47836 3.0108e-19)
(20.1319 -6.49257 0)
(20.2721 -6.52858 -3.45944e-19)
(20.4322 -6.59485 1.80195e-22)
(20.5695 -6.67713 4.64573e-23)
(20.6608 -6.76352 -2.01878e-22)
(20.6802 -6.83981 -2.20911e-19)
(20.6738 -6.87653 2.35925e-19)
(20.7654 -6.89659 -2.47328e-19)
(21.0626 -6.94329 -5.74157e-22)
(21.648 -7.06317 2.46146e-22)
(22.6635 -7.31998 -1.17673e-19)
(24.168 -7.9312 1.06747e-19)
(24.9899 -9.27594 -3.72246e-22)
(23.3225 -10.2714 -7.18942e-20)
(15.5601 -7.98458 -3.36592e-19)
(2.26394 -0.743677 1.70759e-19)
(-1.87485 3.0441 3.56526e-19)
(-1.18554 10.4137 5.32393e-22)
(22.4996 -6.46708 0)
(22.4916 -6.49411 -3.30307e-18)
(22.4824 -6.52032 0)
(22.4755 -6.54651 3.03534e-18)
(22.4699 -6.57243 -2.90405e-18)
(22.4645 -6.59775 -2.18927e-23)
(22.4583 -6.62224 -1.94335e-23)
(22.4511 -6.64584 2.5123e-18)
(22.4429 -6.66851 -2.38002e-18)
(22.4335 -6.69025 -1.63816e-23)
(22.423 -6.71108 -1.05379e-18)
(22.4114 -6.73103 -9.83322e-19)
(22.3988 -6.75011 1.5013e-22)
(22.3851 -6.76827 1.19535e-23)
(22.3705 -6.78554 -7.56403e-19)
(22.3548 -6.80191 6.74172e-19)
(22.3381 -6.81742 8.12175e-24)
(22.3203 -6.83202 -1.70373e-24)
(22.3016 -6.84576 3.98345e-19)
(22.282 -6.85861 0)
(22.2615 -6.87061 0)
(22.2403 -6.88177 -5.73108e-27)
(22.2183 -6.89211 -1.98302e-24)
(22.1956 -6.90164 2.07158e-24)
(22.1722 -6.91037 -1.76181e-19)
(22.1483 -6.91833 -2.57343e-19)
(22.1237 -6.92549 -9.40506e-24)
(22.0985 -6.9319 0)
(22.0727 -6.93754 5.46444e-19)
(22.0465 -6.94244 -2.15254e-23)
(22.0198 -6.94664 3.92427e-19)
(21.9927 -6.95014 -2.66609e-23)
(21.9654 -6.95299 -5.34456e-19)
(21.9378 -6.95523 -1.65811e-22)
(21.9101 -6.95689 8.60391e-23)
(21.8823 -6.958 -9.7853e-23)
(21.8546 -6.95863 1.63804e-22)
(21.8271 -6.95882 -6.04471e-23)
(21.8 -6.95869 5.73936e-19)
(21.7733 -6.95826 6.4249e-19)
(21.7473 -6.95756 -1.4347e-18)
(21.7227 -6.95673 -7.9881e-19)
(21.7 -6.95611 0)
(21.679 -6.95606 -4.91577e-19)
(21.659 -6.95642 -5.49945e-24)
(21.6406 -6.95663 1.43575e-22)
(21.6262 -6.95667 -1.64245e-22)
(21.6201 -6.95803 1.74047e-22)
(21.6233 -6.96311 0)
(21.6302 -6.97287 -4.33355e-19)
(21.6342 -6.98467 -2.34191e-22)
(21.6314 -6.99475 -5.14297e-19)
(21.6355 -6.99848 -2.78787e-19)
(21.6675 -7.00263 -2.91055e-22)
(21.7458 -7.01495 3.23343e-19)
(21.8773 -7.04849 3.45073e-19)
(22.0295 -7.11385 0)
(22.1635 -7.19792 -1.93636e-19)
(22.2576 -7.28885 -4.04905e-22)
(22.2868 -7.37252 -2.18584e-19)
(22.292 -7.41646 -4.64367e-19)
(22.3828 -7.43849 0)
(22.6568 -7.47975 -2.47677e-19)
(23.1899 -7.58788 1.21747e-19)
(24.105 -7.82531 2.25859e-19)
(25.4528 -8.40942 0)
(26.1733 -9.72801 9.31084e-20)
(24.7744 -10.7847 0)
(18.2926 -9.27864 2.99645e-19)
(4.93018 -2.61634 -2.82057e-19)
(-1.76392 3.55103 -2.20418e-21)
(-0.987707 10.9 4.81253e-22)
(23.992 -6.89607 0)
(23.9852 -6.92539 -2.549e-23)
(23.9777 -6.95397 2.59158e-23)
(23.9718 -6.98236 -3.15462e-18)
(23.9671 -7.01037 2.81307e-22)
(23.9624 -7.0377 0)
(23.957 -7.06415 0)
(23.9504 -7.08964 -2.60068e-18)
(23.9426 -7.11414 2.46125e-18)
(23.9336 -7.13763 1.69301e-23)
(23.9234 -7.16014 1.31926e-22)
(23.912 -7.18171 1.01502e-18)
(23.8995 -7.20233 1.87855e-18)
(23.8857 -7.22196 1.39363e-23)
(23.8709 -7.24063 7.79541e-19)
(23.8549 -7.25834 -1.67397e-24)
(23.8379 -7.27511 -1.00717e-23)
(23.8196 -7.29092 0)
(23.8004 -7.30579 -4.09909e-19)
(23.7801 -7.3197 -3.68123e-24)
(23.7589 -7.33269 3.82081e-24)
(23.7368 -7.34478 0)
(23.7139 -7.35598 0)
(23.6902 -7.3663 0)
(23.6657 -7.37575 1.81038e-19)
(23.6406 -7.38437 -6.94575e-24)
(23.6147 -7.39215 0)
(23.5882 -7.3991 0)
(23.5611 -7.40522 -5.61064e-19)
(23.5334 -7.41056 0)
(23.5053 -7.41512 -4.02887e-19)
(23.4767 -7.41895 5.77426e-23)
(23.4477 -7.42206 -3.19254e-23)
(23.4185 -7.42451 1.26263e-18)
(23.3891 -7.42635 -4.58496e-23)
(23.3597 -7.42758 4.83013e-23)
(23.3302 -7.42828 -4.64214e-19)
(23.301 -7.4285 0)
(23.2721 -7.42837 5.87193e-19)
(23.2436 -7.42792 -6.5696e-19)
(23.2158 -7.42715 7.3277e-19)
(23.1894 -7.42622 8.15105e-19)
(23.1648 -7.42546 0)
(23.142 -7.42529 1.24922e-22)
(23.1204 -7.42555 -1.32189e-22)
(23.1003 -7.42566 -1.51654e-22)
(23.0841 -7.4255 1.60496e-22)
(23.0758 -7.42648 0)
(23.0765 -7.43116 0)
(23.0813 -7.44079 0)
(23.0841 -7.45289 4.7548e-19)
(23.0811 -7.46363 2.1487e-22)
(23.0848 -7.46761 2.79719e-19)
(23.1139 -7.47109 -2.90601e-22)
(23.1858 -7.48155 -9.69045e-24)
(23.3072 -7.51242 0)
(23.449 -7.57609 -3.61511e-19)
(23.5763 -7.66059 -3.75392e-22)
(23.6695 -7.75429 -2.02312e-19)
(23.7048 -7.84337 2.15331e-19)
(23.7189 -7.89335 2.26706e-19)
(23.8081 -7.9175 -6.03333e-24)
(24.0593 -7.95465 4.66279e-22)
(24.5411 -8.05299 -6.22728e-23)
(25.3571 -8.27382 -1.08025e-19)
(26.5496 -8.83159 -3.48372e-22)
(27.1662 -10.113 2.16291e-21)
(25.9797 -11.2008 5.8822e-22)
(20.7465 -10.3402 -2.6928e-19)
(7.89303 -4.57841 2.27277e-19)
(-1.14854 3.6022 0)
(-0.641686 10.9946 -2.59113e-22)
(25.298 -7.23789 -2.92256e-23)
(25.3081 -7.27436 -3.77658e-18)
(25.3033 -7.30597 2.67889e-23)
(25.2978 -7.33684 -2.71946e-23)
(25.2934 -7.3673 2.44193e-23)
(25.2897 -7.39725 3.15489e-18)
(25.286 -7.42643 -3.00643e-18)
(25.2814 -7.45468 0)
(25.2756 -7.48192 0)
(25.2685 -7.5081 -2.5653e-18)
(25.2601 -7.53321 2.41595e-18)
(25.2504 -7.55728 1.13246e-18)
(25.2393 -7.58034 0)
(25.227 -7.60238 -1.95149e-18)
(25.2134 -7.62337 0)
(25.1986 -7.64333 0)
(25.1826 -7.66227 -1.01053e-23)
(25.1654 -7.68021 1.90998e-23)
(25.1469 -7.69712 -5.28209e-19)
(25.1273 -7.71304 0)
(25.1065 -7.72793 -3.80716e-24)
(25.0848 -7.74183 3.9499e-24)
(25.062 -7.75477 0)
(25.0384 -7.76675 0)
(25.0138 -7.77779 -1.07751e-19)
(24.9884 -7.78791 -1.87289e-19)
(24.9623 -7.79713 2.73456e-19)
(24.9354 -7.80544 -3.66953e-19)
(24.9078 -7.81288 -1.30306e-23)
(24.8795 -7.81945 1.90585e-23)
(24.8505 -7.82516 3.49731e-19)
(24.8211 -7.83005 -6.08606e-23)
(24.7911 -7.83414 3.1311e-23)
(24.7607 -7.83748 -3.28853e-23)
(24.73 -7.8401 -6.49886e-19)
(24.6991 -7.84206 7.4273e-19)
(24.6681 -7.84338 -5.34355e-23)
(24.637 -7.84411 4.77061e-19)
(24.6061 -7.84433 0)
(24.5755 -7.84415 -6.02133e-19)
(24.5453 -7.84362 0)
(24.5158 -7.84274 0)
(24.4875 -7.84163 0)
(24.461 -7.84068 4.61834e-19)
(24.4363 -7.84029 5.10114e-19)
(24.4128 -7.84036 0)
(24.3909 -7.84027 0)
(24.3728 -7.83981 -1.68904e-22)
(24.3619 -7.84031 1.78364e-22)
(24.3597 -7.84444 2.00942e-22)
(24.3618 -7.8537 6.42661e-24)
(24.3627 -7.86578 -4.78256e-19)
(24.3587 -7.87683 -5.07928e-23)
(24.3612 -7.88088 5.45822e-22)
(24.387 -7.88363 -3.00293e-19)
(24.4519 -7.89229 -3.28862e-22)
(24.5621 -7.92045 3.27829e-22)
(24.6919 -7.98185 3.55798e-19)
(24.8098 -8.06565 -3.59214e-24)