/*--------------------------------*- C++ -*----------------------------------*\
| =========                 |                                                 |
| \\      /  F ield         | OpenFOAM: The Open Source CFD Toolbox           |
|  \\    /   O peration     | Version:  2412                                  |
|   \\  /    A nd           | Website:  www.openfoam.com                      |
|    \\/     M anipulation  |                                                 |
\*---------------------------------------------------------------------------*/
FoamFile
{
    version     2.0;
    format      ascii;
    arch        "LSB;label=32;scalar=64";
    class       volScalarField;
    location    "280";
    object      nuTilda;
}
// * * * * * * * * * * * * * * * * * * * * * * * * * * * * * * * * * * * * * //

dimensions      [0 2 -1 0 0 0 0];

internalField   nonuniform List<scalar> 
8637
(
1.69934e-06
1.69926e-06
1.69917e-06
1.69914e-06
1.69924e-06
1.69934e-06
1.69945e-06
1.69958e-06
1.6997e-06
1.69985e-06
1.70005e-06
1.70029e-06
1.70054e-06
1.70076e-06
1.70106e-06
1.7014e-06
1.70177e-06
1.70217e-06
1.7026e-06
1.70311e-06
1.70366e-06
1.70428e-06
1.70493e-06
1.70565e-06
1.70646e-06
1.70735e-06
1.70833e-06
1.70938e-06
1.71053e-06
1.71177e-06
1.71313e-06
1.71458e-06
1.71619e-06
1.71789e-06
1.71972e-06
1.72168e-06
1.72374e-06
1.72595e-06
1.72826e-06
1.73071e-06
1.73329e-06
1.73596e-06
1.73871e-06
1.74157e-06
1.74451e-06
1.7475e-06
1.75053e-06
1.7536e-06
1.75665e-06
1.75966e-06
1.76265e-06
1.76557e-06
1.76843e-06
1.77116e-06
1.77373e-06
1.77618e-06
1.77844e-06
1.78054e-06
1.78244e-06
1.78411e-06
1.78554e-06
1.78677e-06
1.78774e-06
1.7884e-06
1.78876e-06
1.78897e-06
1.78879e-06
1.78819e-06
1.78732e-06
1.78617e-06
1.78447e-06
1.78224e-06
1.77974e-06
1.77654e-06
1.77249e-06
1.76804e-06
1.76257e-06
1.75575e-06
1.748e-06
1.73839e-06
1.72706e-06
1.71325e-06
1.69578e-06
1.67439e-06
1.64644e-06
1.61054e-06
1.56244e-06
1.49533e-06
5.26428e-06
5.26419e-06
5.26405e-06
5.26411e-06
5.2645e-06
5.26493e-06
5.2654e-06
5.26594e-06
5.26648e-06
5.26713e-06
5.2679e-06
5.26877e-06
5.26968e-06
5.27064e-06
5.27175e-06
5.27298e-06
5.27434e-06
5.27584e-06
5.27747e-06
5.27927e-06
5.28128e-06
5.28349e-06
5.28589e-06
5.28851e-06
5.29138e-06
5.29456e-06
5.29802e-06
5.30177e-06
5.30585e-06
5.31028e-06
5.31507e-06
5.32022e-06
5.32581e-06
5.33175e-06
5.33815e-06
5.34495e-06
5.35217e-06
5.35981e-06
5.36777e-06
5.37618e-06
5.38498e-06
5.39407e-06
5.40346e-06
5.4131e-06
5.42297e-06
5.43296e-06
5.44302e-06
5.45313e-06
5.46316e-06
5.473e-06
5.48267e-06
5.49206e-06
5.50112e-06
5.50971e-06
5.51779e-06
5.52531e-06
5.53218e-06
5.53848e-06
5.54406e-06
5.54876e-06
5.55263e-06
5.55585e-06
5.5582e-06
5.55944e-06
5.55963e-06
5.55931e-06
5.55772e-06
5.55465e-06
5.55068e-06
5.54582e-06
5.53909e-06
5.53051e-06
5.52115e-06
5.50938e-06
5.4948e-06
5.47891e-06
5.45952e-06
5.43573e-06
5.40891e-06
5.37595e-06
5.33732e-06
5.29056e-06
5.23195e-06
5.16063e-06
5.06815e-06
4.9502e-06
4.79348e-06
4.57698e-06
9.14666e-06
9.1469e-06
9.14704e-06
9.14762e-06
9.14864e-06
9.14974e-06
9.15093e-06
9.15223e-06
9.15362e-06
9.1552e-06
9.15697e-06
9.1589e-06
9.16096e-06
9.16321e-06
9.16573e-06
9.16848e-06
9.17147e-06
9.17477e-06
9.17839e-06
9.18233e-06
9.18668e-06
9.19145e-06
9.19662e-06
9.20225e-06
9.20843e-06
9.21519e-06
9.22249e-06
9.23043e-06
9.23907e-06
9.24838e-06
9.25841e-06
9.26922e-06
9.28079e-06
9.29316e-06
9.30639e-06
9.32039e-06
9.3352e-06
9.35077e-06
9.36705e-06
9.3841e-06
9.40178e-06
9.42002e-06
9.43875e-06
9.45785e-06
9.47725e-06
9.4968e-06
9.51633e-06
9.53577e-06
9.55491e-06
9.57354e-06
9.59162e-06
9.609e-06
9.62545e-06
9.64093e-06
9.65524e-06
9.66824e-06
9.67984e-06
9.69019e-06
9.699e-06
9.70598e-06
9.71117e-06
9.7151e-06
9.71724e-06
9.71703e-06
9.71475e-06
9.71141e-06
9.7056e-06
9.69678e-06
9.68618e-06
9.67388e-06
9.6578e-06
9.63812e-06
9.61694e-06
9.59099e-06
9.55963e-06
9.5257e-06
9.48497e-06
9.4358e-06
9.38084e-06
9.31414e-06
9.23668e-06
9.14394e-06
9.02901e-06
8.89058e-06
8.71323e-06
8.48971e-06
8.19693e-06
7.79899e-06
1.32982e-05
1.32993e-05
1.33003e-05
1.33023e-05
1.33046e-05
1.33069e-05
1.33094e-05
1.33121e-05
1.33151e-05
1.33183e-05
1.33219e-05
1.33257e-05
1.33298e-05
1.33342e-05
1.33391e-05
1.33445e-05
1.33503e-05
1.33566e-05
1.33635e-05
1.3371e-05
1.33792e-05
1.33881e-05
1.33979e-05
1.34084e-05
1.342e-05
1.34325e-05
1.3446e-05
1.34606e-05
1.34765e-05
1.34935e-05
1.35118e-05
1.35314e-05
1.35524e-05
1.35747e-05
1.35984e-05
1.36234e-05
1.36497e-05
1.36772e-05
1.37059e-05
1.37358e-05
1.37665e-05
1.37981e-05
1.38303e-05
1.38629e-05
1.38957e-05
1.39285e-05
1.3961e-05
1.3993e-05
1.40242e-05
1.40542e-05
1.4083e-05
1.41101e-05
1.41355e-05
1.41588e-05
1.41799e-05
1.41984e-05
1.42143e-05
1.42279e-05
1.42387e-05
1.42461e-05
1.42502e-05
1.42523e-05
1.42512e-05
1.42459e-05
1.42369e-05
1.42264e-05
1.42115e-05
1.41913e-05
1.41682e-05
1.41423e-05
1.411e-05
1.40715e-05
1.40306e-05
1.39818e-05
1.39239e-05
1.38619e-05
1.37886e-05
1.37015e-05
1.36051e-05
1.34897e-05
1.3357e-05
1.32001e-05
1.30081e-05
1.27798e-05
1.24913e-05
1.21331e-05
1.16719e-05
1.10569e-05
1.76683e-05
1.76711e-05
1.7674e-05
1.76788e-05
1.76831e-05
1.76876e-05
1.76924e-05
1.76976e-05
1.77031e-05
1.77092e-05
1.77156e-05
1.77226e-05
1.77301e-05
1.77382e-05
1.77471e-05
1.77566e-05
1.7767e-05
1.77782e-05
1.77904e-05
1.78037e-05
1.78181e-05
1.78337e-05
1.78507e-05
1.78691e-05
1.7889e-05
1.79106e-05
1.79338e-05
1.79589e-05
1.7986e-05
1.8015e-05
1.8046e-05
1.80791e-05
1.81143e-05
1.81516e-05
1.8191e-05
1.82324e-05
1.82758e-05
1.8321e-05
1.83678e-05
1.84161e-05
1.84657e-05
1.85162e-05
1.85673e-05
1.86187e-05
1.86699e-05
1.87207e-05
1.87705e-05
1.8819e-05
1.88656e-05
1.891e-05
1.89518e-05
1.89905e-05
1.90258e-05
1.90576e-05
1.90854e-05
1.91085e-05
1.91271e-05
1.91419e-05
1.91521e-05
1.91564e-05
1.91554e-05
1.91512e-05
1.91419e-05
1.91256e-05
1.91036e-05
1.90792e-05
1.90479e-05
1.90083e-05
1.8964e-05
1.89156e-05
1.88571e-05
1.8789e-05
1.87176e-05
1.86338e-05
1.85361e-05
1.84324e-05
1.83117e-05
1.81703e-05
1.80151e-05
1.78322e-05
1.7624e-05
1.73807e-05
1.70871e-05
1.67425e-05
1.63137e-05
1.57894e-05
1.51261e-05
1.42595e-05
2.22029e-05
2.22086e-05
2.22149e-05
2.22244e-05
2.2232e-05
2.224e-05
2.22485e-05
2.22577e-05
2.22674e-05
2.22778e-05
2.2289e-05
2.2301e-05
2.23139e-05
2.23277e-05
2.23427e-05
2.23589e-05
2.23763e-05
2.23952e-05
2.24156e-05
2.24378e-05
2.24617e-05
2.24876e-05
2.25156e-05
2.25459e-05
2.25787e-05
2.2614e-05
2.26519e-05
2.26927e-05
2.27364e-05
2.27832e-05
2.28329e-05
2.28858e-05
2.29419e-05
2.3001e-05
2.30631e-05
2.3128e-05
2.31957e-05
2.32657e-05
2.33379e-05
2.34119e-05
2.34872e-05
2.35634e-05
2.364e-05
2.37163e-05
2.37917e-05
2.38657e-05
2.39375e-05
2.40064e-05
2.40718e-05
2.41332e-05
2.41898e-05
2.42409e-05
2.42863e-05
2.43259e-05
2.43589e-05
2.43842e-05
2.44022e-05
2.44144e-05
2.44193e-05
2.44149e-05
2.44023e-05
2.43853e-05
2.43604e-05
2.43248e-05
2.42804e-05
2.42331e-05
2.41754e-05
2.41051e-05
2.40281e-05
2.39454e-05
2.38478e-05
2.37362e-05
2.36201e-05
2.34862e-05
2.33325e-05
2.31703e-05
2.29842e-05
2.27692e-05
2.25351e-05
2.22628e-05
2.1956e-05
2.16019e-05
2.11803e-05
2.06915e-05
2.00923e-05
1.93706e-05
1.84729e-05
1.73231e-05
2.68458e-05
2.68563e-05
2.68679e-05
2.68847e-05
2.68974e-05
2.69108e-05
2.6925e-05
2.69401e-05
2.69561e-05
2.69733e-05
2.69916e-05
2.70111e-05
2.70321e-05
2.70546e-05
2.70788e-05
2.71049e-05
2.71329e-05
2.71632e-05
2.71959e-05
2.72312e-05
2.72692e-05
2.73103e-05
2.73546e-05
2.74024e-05
2.74538e-05
2.7509e-05
2.75681e-05
2.76315e-05
2.76991e-05
2.77711e-05
2.78474e-05
2.79281e-05
2.80132e-05
2.81025e-05
2.81957e-05
2.82928e-05
2.83931e-05
2.84965e-05
2.86023e-05
2.871e-05
2.88188e-05
2.89281e-05
2.90369e-05
2.91443e-05
2.92495e-05
2.93515e-05
2.94492e-05
2.95417e-05
2.96282e-05
2.97078e-05
2.97795e-05
2.98423e-05
2.98959e-05
2.99408e-05
2.99754e-05
2.99981e-05
3.00098e-05
3.00133e-05
3.00059e-05
2.99845e-05
2.99512e-05
2.99121e-05
2.98618e-05
2.97955e-05
2.9717e-05
2.9635e-05
2.95381e-05
2.94234e-05
2.92995e-05
2.91682e-05
2.9016e-05
2.88445e-05
2.86671e-05
2.84656e-05
2.8237e-05
2.79974e-05
2.77259e-05
2.74158e-05
2.70809e-05
2.66961e-05
2.62662e-05
2.57758e-05
2.51991e-05
2.45381e-05
2.37391e-05
2.279e-05
2.16276e-05
2.01672e-05
3.15403e-05
3.15578e-05
3.15774e-05
3.1605e-05
3.1625e-05
3.16463e-05
3.16688e-05
3.16926e-05
3.17179e-05
3.17448e-05
3.17735e-05
3.18041e-05
3.18368e-05
3.18719e-05
3.19095e-05
3.19499e-05
3.19934e-05
3.20401e-05
3.20904e-05
3.21445e-05
3.22028e-05
3.22655e-05
3.23329e-05
3.24053e-05
3.24829e-05
3.25659e-05
3.26546e-05
3.2749e-05
3.28494e-05
3.29557e-05
3.3068e-05
3.3186e-05
3.33097e-05
3.34388e-05
3.35728e-05
3.37113e-05
3.38536e-05
3.39992e-05
3.41471e-05
3.42964e-05
3.44462e-05
3.45952e-05
3.47421e-05
3.48858e-05
3.50248e-05
3.5158e-05
3.52838e-05
3.54008e-05
3.55082e-05
3.5605e-05
3.56895e-05
3.57603e-05
3.58177e-05
3.58627e-05
3.58925e-05
3.59048e-05
3.59016e-05
3.58875e-05
3.58581e-05
3.58087e-05
3.57429e-05
3.56703e-05
3.55821e-05
3.54718e-05
3.53448e-05
3.52142e-05
3.50635e-05
3.48885e-05
3.47015e-05
3.45054e-05
3.42814e-05
3.40318e-05
3.3775e-05
3.34868e-05
3.31635e-05
3.28261e-05
3.2448e-05
3.20208e-05
3.15621e-05
3.1041e-05
3.04634e-05
2.98109e-05
2.90525e-05
2.81917e-05
2.71646e-05
2.59595e-05
2.45052e-05
2.27122e-05
3.62292e-05
3.62568e-05
3.62877e-05
3.63305e-05
3.63611e-05
3.63935e-05
3.64278e-05
3.64641e-05
3.65025e-05
3.65433e-05
3.65868e-05
3.6633e-05
3.66824e-05
3.67352e-05
3.67918e-05
3.68524e-05
3.69174e-05
3.69872e-05
3.70621e-05
3.71426e-05
3.72288e-05
3.73214e-05
3.74205e-05
3.75265e-05
3.76397e-05
3.77603e-05
3.78885e-05
3.80243e-05
3.81679e-05
3.83192e-05
3.84779e-05
3.86439e-05
3.88166e-05
3.89957e-05
3.91803e-05
3.93698e-05
3.95631e-05
3.97591e-05
3.99566e-05
4.01543e-05
4.03507e-05
4.05442e-05
4.07329e-05
4.09153e-05
4.10896e-05
4.12541e-05
4.14068e-05
4.1546e-05
4.16709e-05
4.17803e-05
4.18717e-05
4.19436e-05
4.19967e-05
4.20331e-05
4.20487e-05
4.20396e-05
4.20099e-05
4.19668e-05
4.19032e-05
4.18124e-05
4.17001e-05
4.15801e-05
4.144e-05
4.12704e-05
4.10791e-05
4.08844e-05
4.06638e-05
4.04115e-05
4.01442e-05
3.98657e-05
3.95519e-05
3.92053e-05
3.88501e-05
3.84555e-05
3.8017e-05
3.75609e-05
3.70546e-05
3.64878e-05
3.58824e-05
3.52013e-05
3.44512e-05
3.36112e-05
3.26449e-05
3.15575e-05
3.0276e-05
2.87887e-05
2.70197e-05
2.48799e-05
4.08552e-05
4.08966e-05
4.09431e-05
4.10073e-05
4.10525e-05
4.11005e-05
4.11512e-05
4.12047e-05
4.12614e-05
4.13215e-05
4.13854e-05
4.14534e-05
4.15258e-05
4.16032e-05
4.16859e-05
4.17744e-05
4.1869e-05
4.19704e-05
4.20789e-05
4.2195e-05
4.23191e-05
4.24517e-05
4.25932e-05
4.27438e-05
4.29038e-05
4.30735e-05
4.32527e-05
4.34417e-05
4.36402e-05
4.38479e-05
4.40644e-05
4.42892e-05
4.45215e-05
4.47604e-05
4.50049e-05
4.52536e-05
4.55053e-05
4.57582e-05
4.60106e-05
4.62608e-05
4.65066e-05
4.67461e-05
4.69768e-05
4.71967e-05
4.74037e-05
4.75956e-05
4.77699e-05
4.79247e-05
4.80595e-05
4.81729e-05
4.82615e-05
4.83232e-05
4.83604e-05
4.83766e-05
4.83651e-05
4.83207e-05
4.82501e-05
4.81641e-05
4.80519e-05
4.79043e-05
4.77295e-05
4.7547e-05
4.73394e-05
4.7094e-05
4.68216e-05
4.65464e-05
4.62389e-05
4.58919e-05
4.55262e-05
4.51476e-05
4.47254e-05
4.42627e-05
4.37897e-05
4.32688e-05
4.26947e-05
4.20988e-05
4.14428e-05
4.07143e-05
3.99392e-05
3.90748e-05
3.8128e-05
3.70756e-05
3.58768e-05
3.45374e-05
3.29779e-05
3.1186e-05
2.90866e-05
2.65973e-05
4.55826e-05
4.56479e-05
4.57172e-05
4.57902e-05
4.58674e-05
4.5949e-05
4.60354e-05
4.61272e-05
4.62247e-05
4.63286e-05
4.64393e-05
4.65574e-05
4.66834e-05
4.68179e-05
4.69615e-05
4.71147e-05
4.7278e-05
4.7452e-05
4.7637e-05
4.78333e-05
4.80413e-05
4.8261e-05
4.84925e-05
4.87356e-05
4.89902e-05
4.92557e-05
4.95315e-05
4.98169e-05
5.01108e-05
5.0412e-05
5.07191e-05
5.10306e-05
5.13447e-05
5.16593e-05
5.19723e-05
5.22814e-05
5.25843e-05
5.28784e-05
5.3161e-05
5.34293e-05
5.36809e-05
5.39134e-05
5.41242e-05
5.43101e-05
5.44693e-05
5.4602e-05
5.47069e-05
5.47786e-05
5.48152e-05
5.48213e-05
5.48025e-05
5.47483e-05
5.46519e-05
5.45237e-05
5.43788e-05
5.4202e-05
5.39806e-05
5.37261e-05
5.34647e-05
5.31731e-05
5.2835e-05
5.2464e-05
5.20911e-05
5.16796e-05
5.122e-05
5.0738e-05
5.02409e-05
4.96918e-05
4.90942e-05
4.84838e-05
4.78171e-05
4.70871e-05
4.63306e-05
4.55037e-05
4.4592e-05
4.36247e-05
4.25544e-05
4.13879e-05
4.00994e-05
3.86454e-05
3.70312e-05
3.51748e-05
3.30615e-05
3.06279e-05
2.78023e-05
5.00079e-05
5.01002e-05
5.01981e-05
5.03012e-05
5.04101e-05
5.05252e-05
5.06471e-05
5.07763e-05
5.09135e-05
5.10593e-05
5.12145e-05
5.13796e-05
5.15553e-05
5.17423e-05
5.19412e-05
5.21525e-05
5.23769e-05
5.26146e-05
5.28662e-05
5.31316e-05
5.34111e-05
5.37044e-05
5.40113e-05
5.43314e-05
5.46639e-05
5.5008e-05
5.53626e-05
5.57262e-05
5.60975e-05
5.64745e-05
5.68553e-05
5.72377e-05
5.76193e-05
5.79975e-05
5.83696e-05
5.87325e-05
5.90836e-05
5.94197e-05
5.97376e-05
6.0034e-05
6.03065e-05
6.05526e-05
6.07688e-05
6.09515e-05
6.10996e-05
6.12142e-05
6.12941e-05
6.13313e-05
6.13244e-05
6.12812e-05
6.12101e-05
6.10952e-05
6.09279e-05
6.07233e-05
6.05022e-05
6.02433e-05
5.993e-05
5.95778e-05
5.92201e-05
5.88273e-05
5.83789e-05
5.78916e-05
5.74035e-05
5.68704e-05
5.62807e-05
5.56643e-05
5.50306e-05
5.43362e-05
5.3585e-05
5.28181e-05
5.19861e-05
5.10807e-05
5.0143e-05
4.91247e-05
4.80091e-05
4.6828e-05
4.55304e-05
4.41228e-05
4.25766e-05
4.08481e-05
3.89409e-05
3.67753e-05
3.43337e-05
3.15793e-05
2.8453e-05
5.42417e-05
5.43701e-05
5.45061e-05
5.46493e-05
5.48004e-05
5.49601e-05
5.51289e-05
5.53076e-05
5.54971e-05
5.56982e-05
5.59116e-05
5.6138e-05
5.63781e-05
5.66328e-05
5.69025e-05
5.71877e-05
5.74888e-05
5.78061e-05
5.81397e-05
5.84895e-05
5.88552e-05
5.92362e-05
5.96317e-05
6.00408e-05
6.04624e-05
6.08947e-05
6.13362e-05
6.17848e-05
6.22383e-05
6.26943e-05
6.315e-05
6.36027e-05
6.40493e-05
6.44866e-05
6.49114e-05
6.53201e-05
6.57096e-05
6.60762e-05
6.64162e-05
6.67261e-05
6.70036e-05
6.72465e-05
6.74502e-05
6.76107e-05
6.77277e-05
6.78048e-05
6.78398e-05
6.78217e-05
6.77498e-05
6.76366e-05
6.74937e-05
6.72983e-05
6.70393e-05
6.67381e-05
6.64219e-05
6.60624e-05
6.56385e-05
6.51698e-05
6.46975e-05
6.41858e-05
6.36093e-05
6.2988e-05
6.23667e-05
6.16943e-05
6.09568e-05
6.01881e-05
5.93995e-05
5.85416e-05
5.76185e-05
5.66761e-05
5.56597e-05
5.45601e-05
5.34213e-05
5.21916e-05
5.08527e-05
4.94375e-05
4.7893e-05
4.62258e-05
4.44035e-05
4.23856e-05
4.01756e-05
3.76977e-05
3.49378e-05
3.19014e-05
2.85393e-05
5.82543e-05
5.84304e-05
5.86166e-05
5.88125e-05
5.90191e-05
5.92372e-05
5.94676e-05
5.9711e-05
5.99685e-05
6.02411e-05
6.05295e-05
6.08343e-05
6.11563e-05
6.14962e-05
6.18542e-05
6.22308e-05
6.26259e-05
6.30395e-05
6.34713e-05
6.39207e-05
6.43867e-05
6.48682e-05
6.53639e-05
6.5872e-05
6.63907e-05
6.69177e-05
6.74504e-05
6.79863e-05
6.85223e-05
6.90553e-05
6.9582e-05
7.00989e-05
7.06024e-05
7.10888e-05
7.15543e-05
7.19951e-05
7.24076e-05
7.27877e-05
7.31314e-05
7.34351e-05
7.36973e-05
7.39158e-05
7.40847e-05
7.41995e-05
7.4262e-05
7.42789e-05
7.42467e-05
7.41495e-05
7.39884e-05
7.37821e-05
7.35463e-05
7.32489e-05
7.28761e-05
7.24568e-05
7.20254e-05
7.15459e-05
7.09919e-05
7.03873e-05
6.97814e-05
6.91323e-05
6.84097e-05
6.76365e-05
6.68638e-05
6.6034e-05
6.51308e-05
6.4192e-05
6.32302e-05
6.21907e-05
6.10778e-05
5.9941e-05
5.87218e-05
5.74098e-05
5.60507e-05
5.45906e-05
5.3011e-05
5.13437e-05
4.9535e-05
4.75943e-05
4.54837e-05
4.31684e-05
4.06598e-05
3.78795e-05
3.48404e-05
3.15943e-05
2.8099e-05
6.2031e-05
6.22695e-05
6.25212e-05
6.27859e-05
6.30648e-05
6.33586e-05
6.36684e-05
6.39951e-05
6.43397e-05
6.47032e-05
6.50861e-05
6.54892e-05
6.59128e-05
6.63574e-05
6.6823e-05
6.73093e-05
6.78161e-05
6.83426e-05
6.88878e-05
6.94504e-05
7.00289e-05
7.06212e-05
7.12252e-05
7.18384e-05
7.2458e-05
7.3081e-05
7.37042e-05
7.43241e-05
7.4937e-05
7.55392e-05
7.61269e-05
7.66959e-05
7.72422e-05
7.77615e-05
7.82498e-05
7.87032e-05
7.91179e-05
7.94893e-05
7.98129e-05
8.00858e-05
8.03076e-05
8.04766e-05
8.05843e-05
8.06263e-05
8.06074e-05
8.05386e-05
8.0414e-05
8.02115e-05
7.99346e-05
7.96102e-05
7.92589e-05
7.88367e-05
7.8327e-05
7.77669e-05
7.7199e-05
7.65792e-05
7.58751e-05
7.51151e-05
7.43561e-05
7.35504e-05
7.26631e-05
7.172e-05
7.07774e-05
6.9772e-05
6.86854e-05
6.75587e-05
6.64054e-05
6.51664e-05
6.38463e-05
6.24967e-05
6.10565e-05
5.95154e-05
5.79185e-05
5.62105e-05
5.43751e-05
5.24422e-05
5.03567e-05
4.81351e-05
4.57352e-05
4.31243e-05
4.03462e-05
3.72903e-05
3.40594e-05
3.07175e-05
2.72395e-05
6.55759e-05
6.58952e-05
6.62317e-05
6.65852e-05
6.69568e-05
6.73475e-05
6.77584e-05
6.81903e-05
6.86442e-05
6.91209e-05
6.96206e-05
7.01437e-05
7.06902e-05
7.12599e-05
7.18523e-05
7.24665e-05
7.31014e-05
7.37554e-05
7.44267e-05
7.51131e-05
7.58121e-05
7.65209e-05
7.72363e-05
7.7955e-05
7.86734e-05
7.93877e-05
8.00939e-05
8.0788e-05
8.14656e-05
8.21225e-05
8.27543e-05
8.33566e-05
8.3925e-05
8.44548e-05
8.49419e-05
8.53825e-05
8.57729e-05
8.61078e-05
8.63825e-05
8.65949e-05
8.67473e-05
8.68378e-05
8.6854e-05
8.67922e-05
8.66615e-05
8.64792e-05
8.62352e-05
8.58989e-05
8.54776e-05
8.50085e-05
8.45174e-05
8.39469e-05
8.32765e-05
8.25525e-05
8.18259e-05
8.10445e-05
8.01702e-05
7.92351e-05
7.83031e-05
7.73213e-05
7.62507e-05
7.51199e-05
7.39888e-05
7.27895e-05
7.1502e-05
7.01697e-05
6.88069e-05
6.73512e-05
6.58076e-05
6.42274e-05
6.25493e-05
6.07646e-05
5.89155e-05
5.6945e-05
5.4843e-05
5.26393e-05
5.02732e-05
4.77729e-05
4.51036e-05
4.22137e-05
3.92333e-05
3.59519e-05
3.26923e-05
2.94163e-05
2.61966e-05
6.89152e-05
6.93383e-05
6.97831e-05
7.02493e-05
7.07382e-05
7.12509e-05
7.17879e-05
7.23502e-05
7.29383e-05
7.35524e-05
7.41925e-05
7.48581e-05
7.55486e-05
7.62631e-05
7.7e-05
7.77575e-05
7.85336e-05
7.93257e-05
8.0131e-05
8.09462e-05
8.17679e-05
8.25923e-05
8.34152e-05
8.42327e-05
8.50403e-05
8.58335e-05
8.66078e-05
8.73585e-05
8.80809e-05
8.87704e-05
8.94225e-05
9.00322e-05
9.0595e-05
9.11061e-05
9.15616e-05
9.19582e-05
9.22922e-05
9.25572e-05
9.27487e-05
9.28664e-05
9.29163e-05
9.28959e-05
9.27866e-05
9.25863e-05
9.23109e-05
9.19852e-05
9.15931e-05
9.10931e-05
9.04974e-05
8.98556e-05
8.91996e-05
8.84566e-05
8.76019e-05
8.66909e-05
8.57827e-05
8.48182e-05
8.37535e-05
8.26243e-05
8.14997e-05
8.03224e-05
7.90498e-05
7.77137e-05
7.63762e-05
7.49654e-05
7.34602e-05
7.19055e-05
7.03154e-05
6.86271e-05
6.68462e-05
6.50201e-05
6.30889e-05
6.10495e-05
5.89403e-05
5.66996e-05
5.43269e-05
5.18614e-05
4.92284e-05
4.64651e-05
4.35818e-05
4.04556e-05
3.7393e-05
3.39765e-05
3.09543e-05
2.80044e-05
2.62684e-05
7.21009e-05
7.26553e-05
7.32361e-05
7.38433e-05
7.44778e-05
7.51404e-05
7.58314e-05
7.6551e-05
7.72993e-05
7.80756e-05
7.8879e-05
7.97082e-05
8.05615e-05
8.14368e-05
8.23316e-05
8.3243e-05
8.41676e-05
8.51019e-05
8.60418e-05
8.69832e-05
8.79216e-05
8.88522e-05
8.97703e-05
9.0671e-05
9.15493e-05
9.24003e-05
9.3219e-05
9.40002e-05
9.47392e-05
9.54313e-05
9.60718e-05
9.66556e-05
9.71778e-05
9.76342e-05
9.80211e-05
9.83366e-05
9.85765e-05
9.8733e-05
9.88019e-05
9.87861e-05
9.86971e-05
9.85305e-05
9.82587e-05
9.78825e-05
9.74269e-05
9.69262e-05
9.63568e-05
9.56628e-05
9.48624e-05
9.40193e-05
9.31723e-05
9.22328e-05
9.11711e-05
9.00512e-05
8.8939e-05
8.77697e-05
8.64947e-05
8.51535e-05
8.38178e-05
8.24263e-05
8.09339e-05
7.93759e-05
7.78144e-05
7.61757e-05
7.44382e-05
7.26463e-05
7.08129e-05
6.88778e-05
6.68498e-05
6.4768e-05
6.25738e-05
6.02739e-05
5.79085e-05
5.54049e-05
5.27696e-05
5.00724e-05
4.72206e-05
4.42288e-05
4.12418e-05
3.79774e-05
3.50069e-05
3.16332e-05
2.93442e-05
2.78385e-05
2.73702e-05
7.52133e-05
7.59306e-05
7.66791e-05
7.74586e-05
7.82694e-05
7.91117e-05
7.99851e-05
8.08888e-05
8.18219e-05
8.27828e-05
8.37692e-05
8.47785e-05
8.5808e-05
8.68541e-05
8.79131e-05
8.89807e-05
9.00526e-05
9.11239e-05
9.21896e-05
9.32446e-05
9.42835e-05
9.53009e-05
9.62914e-05
9.72496e-05
9.81702e-05
9.90481e-05
9.98779e-05
0.000100654
0.000101373
0.000102029
0.000102618
0.000103135
0.000103574
0.000103933
0.000104208
0.0001044
0.000104503
0.000104507
0.00010441
0.000104218
0.000103951
0.000103601
0.000103128
0.000102536
0.000101863
0.000101156
0.00010038
9.94625e-05
9.84282e-05
9.7356e-05
9.62918e-05
9.5132e-05
9.38424e-05
9.2494e-05
9.1157e-05
8.9762e-05
8.82579e-05
8.66881e-05
8.51244e-05
8.35021e-05
8.17743e-05
7.99795e-05
7.81777e-05
7.62966e-05
7.43163e-05
7.22771e-05
7.01876e-05
6.79953e-05
6.57168e-05
6.33818e-05
6.09261e-05
5.83694e-05
5.57694e-05
5.30415e-05
5.01767e-05
4.73001e-05
4.43426e-05
4.11953e-05
3.82771e-05
3.50931e-05
3.24592e-05
3.01776e-05
2.9105e-05
2.88011e-05
2.88561e-05
7.83628e-05
7.92775e-05
8.02273e-05
8.12114e-05
8.22294e-05
8.328e-05
8.43619e-05
8.54732e-05
8.66113e-05
8.77732e-05
8.89553e-05
9.01536e-05
9.13638e-05
9.25809e-05
9.37999e-05
9.50155e-05
9.62219e-05
9.74134e-05
9.85842e-05
9.97283e-05
0.00010084
0.000101913
0.000102941
0.00010392
0.000104844
0.000105707
0.000106505
0.000107232
0.000107884
0.000108457
0.000108947
0.000109348
0.000109655
0.000109867
0.000109981
0.000110003
0.000109922
0.000109726
0.000109414
0.000109
0.000108517
0.000107947
0.000107232
0.000106385
0.000105458
0.000104511
0.000103501
0.000102334
0.00010104
9.97129e-05
9.84056e-05
9.70026e-05
9.54667e-05
9.3874e-05
9.22948e-05
9.06554e-05
8.8905e-05
8.70918e-05
8.52854e-05
8.34189e-05
8.14448e-05
7.94021e-05
7.73462e-05
7.52109e-05
7.29829e-05
7.06964e-05
6.83477e-05
6.58954e-05
6.33711e-05
6.08087e-05
5.81199e-05
5.53296e-05
5.25342e-05
4.96828e-05
4.66745e-05
4.36693e-05
4.084e-05
3.76979e-05
3.50941e-05
3.28153e-05
3.13669e-05
3.00988e-05
3.00444e-05
2.99417e-05
2.98333e-05
8.16883e-05
8.2835e-05
8.40188e-05
8.52377e-05
8.64898e-05
8.77727e-05
8.90832e-05
9.04178e-05
9.17723e-05
9.31421e-05
9.4522e-05
9.59063e-05
9.72892e-05
9.86647e-05
0.000100026
0.000101368
0.000102682
0.000103963
0.000105205
0.0001064
0.000107543
0.000108627
0.000109647
0.000110597
0.000111473
0.00011227
0.000112982
0.000113604
0.000114136
0.000114571
0.000114906
0.000115136
0.000115256
0.000115265
0.000115166
0.000114968
0.000114654
0.000114207
0.000113631
0.000112949
0.00011221
0.000111386
0.000110393
0.000109252
0.000108035
0.000106817
0.000105547
0.000104109
0.000102535
0.000100933
9.93591e-05
9.76913e-05
9.5893e-05
9.40447e-05
9.2211e-05
9.03136e-05
8.83038e-05
8.6235e-05
8.41729e-05
8.20529e-05
7.98301e-05
7.75372e-05
7.52203e-05
7.28239e-05
7.03502e-05
6.7836e-05
6.52481e-05
6.25517e-05
5.97963e-05
5.70676e-05
5.42319e-05
5.1277e-05
4.83172e-05
4.55522e-05
4.25979e-05
3.94477e-05
3.72563e-05
3.50019e-05
3.34577e-05
3.21228e-05
3.16033e-05
3.10606e-05
3.08773e-05
3.061e-05
3.02635e-05
8.53512e-05
8.67608e-05
8.82059e-05
8.9683e-05
9.11884e-05
9.27178e-05
9.42661e-05
9.58279e-05
9.73973e-05
9.89678e-05
0.000100533
0.000102085
0.000103617
0.000105122
0.000106592
0.000108021
0.000109401
0.000110726
0.000111987
0.000113181
0.000114299
0.000115337
0.000116288
0.000117149
0.000117916
0.000118583
0.000119146
0.000119602
0.00011995
0.000120185
0.000120306
0.000120305
0.000120177
0.000119925
0.000119558
0.000119092
0.000118496
0.000117748
0.000116857
0.000115861
0.000114831
0.000113725
0.000112422
0.000110955
0.000109415
0.000107895
0.000106342
0.000104618
0.000102754
0.000100865
9.90057e-05
9.70541e-05
9.49798e-05
9.28679e-05
9.07746e-05
8.86151e-05
8.63414e-05
8.40107e-05
8.1683e-05
7.93037e-05
7.68425e-05
7.43172e-05
7.17503e-05
6.90989e-05
6.63878e-05
6.36939e-05
6.09399e-05
5.80628e-05
5.51138e-05
5.22959e-05
4.95155e-05
4.65711e-05
4.33944e-05
4.11332e-05
3.88599e-05
3.67925e-05
3.53916e-05
3.39838e-05
3.32328e-05
3.26743e-05
3.22292e-05
3.16593e-05
3.12521e-05
3.07998e-05
3.02888e-05
8.95254e-05
9.12196e-05
9.2943e-05
9.46898e-05
9.64542e-05
9.82298e-05
0.00010001
0.000101786
0.000103551
0.000105297
0.000107016
0.000108698
0.000110337
0.000111924
0.000113451
0.000114911
0.000116296
0.000117599
0.000118815
0.000119938
0.000120962
0.000121881
0.000122692
0.000123392
0.000123978
0.000124444
0.000124786
0.000125006
0.000125104
0.000125075
0.000124917
0.000124622
0.000124185
0.000123613
0.000122923
0.000122149
0.000121226
0.000120129
0.000118877
0.000117525
0.000116172
0.000114764
0.000113132
0.000111318
0.000109431
0.000107583
0.000105722
0.000103702
0.000101552
9.93773e-05
9.72249e-05
9.49774e-05
9.26165e-05
9.02342e-05
8.78814e-05
8.54724e-05
8.29495e-05
8.03659e-05
7.77719e-05
7.51304e-05
7.245e-05
6.97536e-05
6.69941e-05
6.41338e-05
6.12082e-05
5.83835e-05
5.56455e-05
5.27665e-05
4.97266e-05
4.68117e-05
4.45459e-05
4.22364e-05
4.0094e-05
3.85291e-05
3.70117e-05
3.57129e-05
3.50726e-05
3.42644e-05
3.36371e-05
3.29881e-05
3.24164e-05
3.17727e-05
3.12216e-05
3.0692e-05
3.01663e-05
9.43808e-05
9.63669e-05
9.83694e-05
0.00010038
0.000102391
0.000104393
0.000106377
0.000108334
0.000110254
0.000112128
0.000113946
0.0001157
0.000117381
0.000118981
0.000120491
0.000121905
0.000123215
0.000124417
0.000125505
0.000126474
0.000127318
0.000128034
0.000128623
0.000129083
0.000129408
0.000129595
0.000129642
0.000129555
0.000129335
0.000128976
0.00012848
0.000127831
0.000127027
0.000126078
0.000125017
0.000123907
0.000122623
0.00012114
0.000119488
0.000117741
0.000116038
0.000114324
0.000112363
0.000110198
0.000107955
0.000105757
0.000103564
0.000101239
9.88185e-05
9.63834e-05
9.39512e-05
9.14136e-05
8.87663e-05
8.61058e-05
8.34886e-05
8.08646e-05
7.81481e-05
7.5361e-05
7.2535e-05
6.96433e-05
6.67417e-05
6.40006e-05
6.12112e-05
5.82987e-05
5.52355e-05
5.21994e-05
4.98891e-05
4.75235e-05
4.51957e-05
4.32222e-05
4.15906e-05
3.99637e-05
3.85352e-05
3.75456e-05
3.6745e-05
3.5813e-05
3.5099e-05
3.42875e-05
3.35798e-05
3.28578e-05
3.22062e-05
3.15616e-05
3.10158e-05
3.05771e-05
3.02412e-05
0.000100064
0.000102329
0.00010459
0.000106835
0.000109055
0.000111239
0.000113375
0.000115452
0.00011746
0.000119388
0.000121227
0.000122968
0.000124602
0.000126122
0.000127521
0.000128792
0.00012993
0.000130932
0.000131795
0.000132514
0.000133084
0.000133505
0.000133786
0.000133922
0.000133906
0.000133736
0.000133412
0.000132954
0.000132354
0.00013161
0.000130725
0.000129672
0.000128451
0.000127076
0.000125606
0.000124158
0.000122499
0.000120611
0.000118536
0.000116364
0.000114282
0.000112269
0.000110009
0.000107524
0.000104946
0.000102395
9.98446e-05
9.71942e-05
9.45176e-05
9.18796e-05
8.92223e-05
8.6444e-05
8.35474e-05
8.06165e-05
7.77125e-05
7.48903e-05
7.21165e-05
6.92696e-05
6.63511e-05
6.32969e-05
6.00603e-05
5.74608e-05
5.50482e-05
5.26008e-05
5.02078e-05
4.8108e-05
4.63278e-05
4.45596e-05
4.28586e-05
4.14455e-05
4.03973e-05
3.93786e-05
3.82869e-05
3.73548e-05
3.64304e-05
3.55157e-05
3.46981e-05
3.38758e-05
3.31382e-05
3.24424e-05
3.18419e-05
3.13235e-05
3.09606e-05
3.08736e-05
3.11472e-05
0.000106674
0.000109178
0.000111648
0.000114071
0.000116433
0.000118723
0.000120926
0.000123033
0.000125031
0.000126911
0.000128663
0.00013028
0.000131754
0.00013308
0.000134252
0.000135265
0.000136118
0.000136812
0.000137345
0.00013771
0.000137906
0.000137941
0.000137835
0.000137569
0.000137138
0.00013654
0.000135783
0.000134909
0.000133879
0.000132716
0.000131414
0.000129926
0.000128261
0.00012642
0.000124515
0.000122767
0.000120761
0.00011848
0.000115985
0.000113374
0.000110874
0.00010856
0.000106077
0.000103362
0.000100527
9.76701e-05
9.47625e-05
9.17474e-05
8.87688e-05
8.6009e-05
8.32564e-05
8.03791e-05
7.73744e-05
7.42752e-05
7.10516e-05
6.78664e-05
6.53369e-05
6.2796e-05
6.0257e-05
5.77446e-05
5.53768e-05
5.33694e-05
5.1418e-05
4.94503e-05
4.75989e-05
4.59948e-05
4.46569e-05
4.34931e-05
4.21584e-05
4.09261e-05
3.98245e-05
3.87042e-05
3.76244e-05
3.66357e-05
3.56762e-05
3.47839e-05
3.39762e-05
3.3235e-05
3.25965e-05
3.20571e-05
3.16642e-05
3.14428e-05
3.15936e-05
3.19994e-05
3.2652e-05
0.000114228
0.000116898
0.000119494
0.000122
0.000124401
0.000126685
0.000128838
0.000130848
0.000132707
0.000134405
0.000135936
0.000137292
0.000138472
0.000139472
0.000140288
0.000140917
0.000141367
0.000141646
0.000141745
0.000141658
0.000141386
0.00014096
0.000140413
0.000139683
0.000138783
0.000137708
0.000136479
0.000135185
0.000133696
0.000132124
0.000130417
0.000128502
0.000126404
0.000124074
0.000121707
0.000119759
0.000117505
0.000114908
0.000112053
0.000109026
0.000106056
0.00010335
0.000100772
9.80007e-05
9.50979e-05
9.21083e-05
8.89673e-05
8.55853e-05
8.20571e-05
7.92027e-05
7.66327e-05
7.40025e-05
7.13315e-05
6.86833e-05
6.6118e-05
6.37624e-05
6.15381e-05
5.92881e-05
5.70859e-05
5.49877e-05
5.30736e-05
5.13959e-05
4.99387e-05
4.83158e-05
4.66932e-05
4.51872e-05
4.37922e-05
4.24277e-05
4.10786e-05
3.9823e-05
3.86518e-05
3.75258e-05
3.64859e-05
3.55398e-05
3.46743e-05
3.39128e-05
3.32591e-05
3.27225e-05
3.23246e-05
3.20883e-05
3.21589e-05
3.24359e-05
3.29427e-05
3.36166e-05
3.44344e-05
0.000122621
0.000125342
0.000127937
0.000130391
0.000132687
0.000134814
0.00013676
0.000138516
0.000140076
0.000141433
0.000142584
0.000143529
0.000144271
0.000144808
0.000145135
0.000145257
0.000145202
0.000144978
0.00014456
0.000143942
0.000143129
0.000142219
0.000141226
0.000140005
0.00013863
0.000137067
0.000135378
0.000133729
0.000131774
0.00012989
0.000127863
0.000125588
0.000123146
0.000120332
0.000117429
0.000115444
0.000113182
0.000110472
0.000107438
0.000104144
0.000100683
9.72041e-05
9.46816e-05
9.21715e-05
8.96075e-05
8.69912e-05
8.42829e-05
8.1449e-05
7.86901e-05
7.61913e-05
7.37312e-05
7.12549e-05
6.88094e-05
6.64606e-05
6.42683e-05
6.22974e-05
6.03801e-05
5.82682e-05
5.61491e-05
5.41048e-05
5.21721e-05
5.03447e-05
4.85749e-05
4.68141e-05
4.51379e-05
4.35677e-05
4.20914e-05
4.06883e-05
3.93788e-05
3.81794e-05
3.70851e-05
3.60927e-05
3.52175e-05
3.44603e-05
3.38216e-05
3.33153e-05
3.29444e-05
3.27444e-05
3.2794e-05
3.30215e-05
3.34321e-05
3.39786e-05
3.46492e-05
3.54127e-05
3.62485e-05
0.000131568
0.000134178
0.0001366
0.00013882
0.000140826
0.000142608
0.000144159
0.000145477
0.000146559
0.000147403
0.000148012
0.000148398
0.000148573
0.000148525
0.00014825
0.000147769
0.000147166
0.000146406
0.000145435
0.00014425
0.000142863
0.000141581
0.000140205
0.000138533
0.000136769
0.000134771
0.00013273
0.000130891
0.000128471
0.000126538
0.000124404
0.000121935
0.000119403
0.000116217
0.000112505
0.000110661