/*--------------------------------*- C++ -*----------------------------------*\
| =========                 |                                                 |
| \\      /  F ield         | OpenFOAM: The Open Source CFD Toolbox           |
|  \\    /   O peration     | Version:  2412                                  |
|   \\  /    A nd           | Website:  www.openfoam.com                      |
|    \\/     M anipulation  |                                                 |
\*---------------------------------------------------------------------------*/
FoamFile
{
    version     2.0;
    format      ascii;
    arch        "LSB;label=32;scalar=64";
    class       volScalarField;
    location    "20";
    object      nut;
}
// * * * * * * * * * * * * * * * * * * * * * * * * * * * * * * * * * * * * * //

dimensions      [0 2 -1 0 0 0 0];

internalField   nonuniform List<scalar> 
7448
(
6.54594e-11
6.52452e-11
6.50467e-11
6.48503e-11
6.46456e-11
6.44341e-11
6.42123e-11
6.3972e-11
6.37186e-11
6.34445e-11
6.31809e-11
6.29803e-11
6.28094e-11
6.26433e-11
6.24539e-11
6.22519e-11
6.20477e-11
6.18367e-11
6.16161e-11
6.13995e-11
6.11886e-11
6.09955e-11
6.08081e-11
6.06275e-11
6.04553e-11
6.02958e-11
6.01452e-11
6.0005e-11
5.98708e-11
5.97484e-11
5.96327e-11
5.95227e-11
5.94182e-11
5.9323e-11
5.92346e-11
5.91544e-11
5.90754e-11
5.90085e-11
5.89343e-11
5.88738e-11
5.88014e-11
5.87527e-11
5.86977e-11
5.86418e-11
5.85875e-11
5.85414e-11
5.84922e-11
5.84434e-11
5.83921e-11
5.83484e-11
5.83061e-11
5.82622e-11
5.82222e-11
5.81786e-11
5.81401e-11
5.81056e-11
5.80684e-11
5.80314e-11
5.79988e-11
5.79694e-11
5.79389e-11
5.79137e-11
5.78776e-11
5.78547e-11
5.7826e-11
5.78083e-11
5.77809e-11
5.77605e-11
5.77414e-11
5.77251e-11
5.77045e-11
5.76898e-11
5.76791e-11
5.76728e-11
5.76748e-11
5.76732e-11
5.76743e-11
5.76787e-11
5.76851e-11
5.76992e-11
5.77103e-11
5.44132e-09
5.4272e-09
5.4134e-09
5.39978e-09
5.38575e-09
5.37136e-09
5.35628e-09
5.3399e-09
5.3225e-09
5.30374e-09
5.2857e-09
5.27215e-09
5.26112e-09
5.25059e-09
5.23801e-09
5.22385e-09
5.20923e-09
5.19349e-09
5.17641e-09
5.15914e-09
5.14211e-09
5.12658e-09
5.11146e-09
5.09682e-09
5.08285e-09
5.06986e-09
5.05758e-09
5.04617e-09
5.03532e-09
5.02529e-09
5.01584e-09
5.007e-09
4.99868e-09
4.99105e-09
4.98388e-09
4.97756e-09
4.9714e-09
4.96603e-09
4.9602e-09
4.95553e-09
4.95008e-09
4.94612e-09
4.94188e-09
4.93764e-09
4.93336e-09
4.92967e-09
4.92581e-09
4.92197e-09
4.91804e-09
4.9145e-09
4.91099e-09
4.90748e-09
4.90419e-09
4.90077e-09
4.89765e-09
4.8947e-09
4.89161e-09
4.88859e-09
4.88584e-09
4.88332e-09
4.88051e-09
4.87823e-09
4.87537e-09
4.87329e-09
4.87073e-09
4.86882e-09
4.8664e-09
4.86462e-09
4.86283e-09
4.86115e-09
4.85926e-09
4.85776e-09
4.85646e-09
4.8555e-09
4.85502e-09
4.85443e-09
4.85422e-09
4.85419e-09
4.85435e-09
4.85508e-09
4.85556e-09
4.19811e-08
4.19152e-08
4.18402e-08
4.17645e-08
4.16896e-08
4.16154e-08
4.15383e-08
4.14539e-08
4.13635e-08
4.1265e-08
4.1172e-08
4.11056e-08
4.10587e-08
4.10162e-08
4.0958e-08
4.08818e-08
4.07968e-08
4.0698e-08
4.05815e-08
4.0457e-08
4.03318e-08
4.02174e-08
4.01069e-08
3.99983e-08
3.98941e-08
3.97967e-08
3.9705e-08
3.96192e-08
3.95386e-08
3.9464e-08
3.93947e-08
3.93297e-08
3.92688e-08
3.92138e-08
3.91625e-08
3.91167e-08
3.90733e-08
3.90354e-08
3.89957e-08
3.89627e-08
3.89265e-08
3.88979e-08
3.88696e-08
3.88414e-08
3.88119e-08
3.87854e-08
3.87586e-08
3.8732e-08
3.87044e-08
3.86784e-08
3.86526e-08
3.86267e-08
3.86015e-08
3.85755e-08
3.85512e-08
3.85283e-08
3.85045e-08
3.84809e-08
3.84587e-08
3.84379e-08
3.8415e-08
3.8395e-08
3.83722e-08
3.83527e-08
3.83303e-08
3.83114e-08
3.82908e-08
3.82738e-08
3.82564e-08
3.82392e-08
3.82217e-08
3.82055e-08
3.81899e-08
3.81765e-08
3.8166e-08
3.81559e-08
3.81484e-08
3.8142e-08
3.8137e-08
3.81355e-08
3.81325e-08
1.52614e-07
1.52552e-07
1.52406e-07
1.52248e-07
1.52109e-07
1.51988e-07
1.51866e-07
1.51727e-07
1.51577e-07
1.51412e-07
1.51262e-07
1.51177e-07
1.51165e-07
1.51177e-07
1.5113e-07
1.50997e-07
1.50814e-07
1.50553e-07
1.50199e-07
1.49786e-07
1.49359e-07
1.4897e-07
1.48595e-07
1.48222e-07
1.47857e-07
1.47513e-07
1.47193e-07
1.46894e-07
1.46612e-07
1.46352e-07
1.46115e-07
1.45893e-07
1.45686e-07
1.455e-07
1.4533e-07
1.45177e-07
1.45036e-07
1.44914e-07
1.44791e-07
1.44683e-07
1.44575e-07
1.44481e-07
1.44396e-07
1.44313e-07
1.44223e-07
1.44138e-07
1.44052e-07
1.43966e-07
1.43877e-07
1.43789e-07
1.43701e-07
1.43612e-07
1.43522e-07
1.43429e-07
1.43338e-07
1.43252e-07
1.43166e-07
1.43079e-07
1.4299e-07
1.42906e-07
1.4282e-07
1.42735e-07
1.42645e-07
1.42557e-07
1.42464e-07
1.42378e-07
1.4229e-07
1.42209e-07
1.42128e-07
1.42048e-07
1.41967e-07
1.41884e-07
1.418e-07
1.41722e-07
1.41654e-07
1.4159e-07
1.41531e-07
1.41476e-07
1.41426e-07
1.41385e-07
1.41338e-07
3.77132e-07
3.7743e-07
3.77384e-07
3.77284e-07
3.77277e-07
3.77356e-07
3.77455e-07
3.77537e-07
3.77615e-07
3.77697e-07
3.77809e-07
3.78003e-07
3.78382e-07
3.78851e-07
3.79183e-07
3.79259e-07
3.79163e-07
3.78791e-07
3.78113e-07
3.77208e-07
3.76236e-07
3.75353e-07
3.74501e-07
3.73637e-07
3.72775e-07
3.71951e-07
3.71191e-07
3.70484e-07
3.69815e-07
3.69197e-07
3.68645e-07
3.68137e-07
3.67659e-07
3.6723e-07
3.66854e-07
3.66515e-07
3.66209e-07
3.6594e-07
3.6569e-07
3.65457e-07
3.65252e-07
3.65045e-07
3.64881e-07
3.64726e-07
3.64553e-07
3.64374e-07
3.64193e-07
3.64011e-07
3.63815e-07
3.63617e-07
3.63413e-07
3.63204e-07
3.62991e-07
3.62764e-07
3.62527e-07
3.62304e-07
3.62087e-07
3.61862e-07
3.61622e-07
3.61391e-07
3.61161e-07
3.60914e-07
3.60665e-07
3.60399e-07
3.60137e-07
3.59866e-07
3.59603e-07
3.59345e-07
3.59088e-07
3.58838e-07
3.58578e-07
3.58303e-07
3.58016e-07
3.57731e-07
3.57467e-07
3.57219e-07
3.56978e-07
3.5674e-07
3.56514e-07
3.56299e-07
3.5607e-07
7.32285e-07
7.3375e-07
7.34253e-07
7.34611e-07
7.35258e-07
7.36155e-07
7.37128e-07
7.3811e-07
7.3913e-07
7.40248e-07
7.41409e-07
7.42589e-07
7.4414e-07
7.45946e-07
7.47534e-07
7.48558e-07
7.49158e-07
7.49048e-07
7.48169e-07
7.46667e-07
7.44959e-07
7.43419e-07
7.41922e-07
7.40359e-07
7.38763e-07
7.37207e-07
7.35776e-07
7.34456e-07
7.33207e-07
7.32047e-07
7.31028e-07
7.30104e-07
7.29242e-07
7.28463e-07
7.27809e-07
7.27221e-07
7.26704e-07
7.26247e-07
7.25861e-07
7.25468e-07
7.25188e-07
7.24846e-07
7.24614e-07
7.24416e-07
7.2418e-07
7.23894e-07
7.23608e-07
7.23311e-07
7.22983e-07
7.22633e-07
7.22264e-07
7.21883e-07
7.2148e-07
7.2104e-07
7.20552e-07
7.20085e-07
7.19639e-07
7.19174e-07
7.18657e-07
7.18149e-07
7.17655e-07
7.17083e-07
7.16529e-07
7.15901e-07
7.15302e-07
7.14645e-07
7.14019e-07
7.13378e-07
7.1274e-07
7.12116e-07
7.11471e-07
7.10775e-07
7.10023e-07
7.09253e-07
7.08512e-07
7.07808e-07
7.07104e-07
7.06396e-07
7.05705e-07
7.05016e-07
7.04291e-07
1.20093e-06
1.20477e-06
1.20651e-06
1.20796e-06
1.21012e-06
1.21282e-06
1.21568e-06
1.21861e-06
1.22167e-06
1.22505e-06
1.2285e-06
1.23178e-06
1.23569e-06
1.24018e-06
1.24446e-06
1.24774e-06
1.2502e-06
1.25118e-06
1.25056e-06
1.24857e-06
1.24611e-06
1.24391e-06
1.24173e-06
1.23936e-06
1.23685e-06
1.23434e-06
1.23203e-06
1.22992e-06
1.22792e-06
1.22606e-06
1.22444e-06
1.223e-06
1.22166e-06
1.22045e-06
1.21948e-06
1.21862e-06
1.21787e-06
1.21721e-06
1.21673e-06
1.21617e-06
1.2159e-06
1.21543e-06
1.21519e-06
1.21503e-06
1.21481e-06
1.21445e-06
1.2141e-06
1.2137e-06
1.21324e-06
1.21272e-06
1.21216e-06
1.21156e-06
1.21091e-06
1.21018e-06
1.20932e-06
1.20847e-06
1.20767e-06
1.20684e-06
1.20588e-06
1.2049e-06
1.20398e-06
1.20286e-06
1.20179e-06
1.20054e-06
1.19936e-06
1.19801e-06
1.19674e-06
1.19541e-06
1.19407e-06
1.19276e-06
1.1914e-06
1.18992e-06
1.1883e-06
1.18661e-06
1.18494e-06
1.18332e-06
1.18168e-06
1.18002e-06
1.17836e-06
1.17667e-06
1.17491e-06
1.73405e-06
1.74152e-06
1.74522e-06
1.74852e-06
1.75322e-06
1.75885e-06
1.76473e-06
1.77077e-06
1.7771e-06
1.78411e-06
1.79127e-06
1.79795e-06
1.8056e-06
1.81439e-06
1.82315e-06
1.83049e-06
1.83648e-06
1.83983e-06
1.84032e-06
1.83824e-06
1.83522e-06
1.83259e-06
1.82989e-06
1.82673e-06
1.82321e-06
1.81958e-06
1.81622e-06
1.81315e-06
1.81027e-06
1.80755e-06
1.80522e-06
1.80318e-06
1.80131e-06
1.79959e-06
1.79828e-06
1.79711e-06
1.79615e-06
1.79527e-06
1.79475e-06
1.79403e-06
1.79389e-06
1.79334e-06
1.79316e-06
1.79315e-06
1.79309e-06
1.79274e-06
1.79237e-06
1.79192e-06
1.79137e-06
1.79069e-06
1.7899e-06
1.78907e-06
1.78811e-06
1.78702e-06
1.78566e-06
1.78428e-06
1.78297e-06
1.78161e-06
1.78001e-06
1.77833e-06
1.77676e-06
1.7748e-06
1.77294e-06
1.77073e-06
1.76864e-06
1.76622e-06
1.76392e-06
1.76149e-06
1.75903e-06
1.75659e-06
1.75408e-06
1.75134e-06
1.74833e-06
1.74513e-06
1.74189e-06
1.73873e-06
1.73549e-06
1.73217e-06
1.72884e-06
1.72539e-06
1.7218e-06
2.26381e-06
2.27568e-06
2.28173e-06
2.28754e-06
2.29571e-06
2.30519e-06
2.31495e-06
2.32493e-06
2.33539e-06
2.34711e-06
2.35917e-06
2.37043e-06
2.38298e-06
2.39751e-06
2.41257e-06
2.42593e-06
2.4374e-06
2.44471e-06
2.44744e-06
2.44594e-06
2.44284e-06
2.44025e-06
2.43734e-06
2.43352e-06
2.429e-06
2.4241e-06
2.41951e-06
2.41533e-06
2.41141e-06
2.40767e-06
2.40449e-06
2.40172e-06
2.39922e-06
2.39691e-06
2.39519e-06
2.39366e-06
2.39244e-06
2.39128e-06
2.39073e-06
2.38984e-06
2.3899e-06
2.38931e-06
2.38926e-06
2.38951e-06
2.38973e-06
2.38949e-06
2.38919e-06
2.38873e-06
2.38813e-06
2.38731e-06
2.38631e-06
2.3852e-06
2.3839e-06
2.38237e-06
2.3804e-06
2.3783e-06
2.37628e-06
2.37421e-06
2.37174e-06
2.36907e-06
2.36659e-06
2.36348e-06
2.3605e-06
2.35692e-06
2.35353e-06
2.34961e-06
2.34582e-06
2.34181e-06
2.33772e-06
2.33365e-06
2.32945e-06
2.32489e-06
2.31986e-06
2.31447e-06
2.30894e-06
2.30346e-06
2.29782e-06
2.29202e-06
2.28613e-06
2.27999e-06
2.27362e-06
2.72173e-06
2.73754e-06
2.74564e-06
2.7543e-06
2.76643e-06
2.78005e-06
2.79377e-06
2.8077e-06
2.82233e-06
2.83905e-06
2.85656e-06
2.87301e-06
2.89104e-06
2.91209e-06
2.93472e-06
2.95579e-06
2.97457e-06
2.98749e-06
2.99374e-06
2.99366e-06
2.99121e-06
2.98934e-06
2.98668e-06
2.98242e-06
2.97689e-06
2.97059e-06
2.96455e-06
2.95902e-06
2.95384e-06
2.94886e-06
2.94458e-06
2.94089e-06
2.93758e-06
2.93447e-06
2.93217e-06
2.93014e-06
2.92851e-06
2.9269e-06
2.92621e-06
2.92504e-06
2.92527e-06
2.92464e-06
2.9247e-06
2.92521e-06
2.92579e-06
2.92575e-06
2.92559e-06
2.92516e-06
2.92452e-06
2.9236e-06
2.92236e-06
2.92096e-06
2.91925e-06
2.91722e-06
2.91451e-06
2.91152e-06
2.90857e-06
2.90557e-06
2.90201e-06
2.89806e-06
2.89434e-06
2.88974e-06
2.88525e-06
2.87991e-06
2.87478e-06
2.86892e-06
2.86316e-06
2.85708e-06
2.85084e-06
2.84458e-06
2.83812e-06
2.83117e-06
2.8235e-06
2.81526e-06
2.80669e-06
2.79811e-06
2.78926e-06
2.78012e-06
2.77075e-06
2.76097e-06
2.75084e-06
3.05542e-06
3.0727e-06
3.08144e-06
3.09289e-06
3.10871e-06
3.12571e-06
3.14229e-06
3.15891e-06
3.17645e-06
3.19736e-06
3.21987e-06
3.24127e-06
3.26436e-06
3.29163e-06
3.32203e-06
3.35167e-06
3.37903e-06
3.39888e-06
3.40978e-06
3.41207e-06
3.41122e-06
3.41096e-06
3.40909e-06
3.4046e-06
3.39807e-06
3.3902e-06
3.38239e-06
3.37517e-06
3.36843e-06
3.36188e-06
3.35616e-06
3.35117e-06
3.34673e-06
3.34251e-06
3.33928e-06
3.33642e-06
3.33407e-06
3.33171e-06
3.33058e-06
3.32888e-06
3.32905e-06
3.32828e-06
3.32829e-06
3.32895e-06
3.32986e-06
3.33003e-06
3.33004e-06
3.32962e-06
3.32895e-06
3.32791e-06
3.32644e-06
3.3247e-06
3.32253e-06
3.31992e-06
3.31639e-06
3.31235e-06
3.30826e-06
3.30409e-06
3.29921e-06
3.2937e-06
3.28842e-06
3.28203e-06
3.27567e-06
3.26818e-06
3.26089e-06
3.25272e-06
3.24456e-06
3.23597e-06
3.22711e-06
3.21814e-06
3.20891e-06
3.19902e-06
3.18818e-06
3.17654e-06
3.16437e-06
3.15204e-06
3.13931e-06
3.12613e-06
3.11254e-06
3.09833e-06
3.08362e-06
3.23995e-06
3.25354e-06
3.26002e-06
3.27366e-06
3.29187e-06
3.31007e-06
3.32687e-06
3.34335e-06
3.36096e-06
3.38396e-06
3.40996e-06
3.435e-06
3.46153e-06
3.49328e-06
3.53013e-06
3.56783e-06
3.60394e-06
3.6313e-06
3.64757e-06
3.65315e-06
3.65509e-06
3.65746e-06
3.65698e-06
3.65248e-06
3.64489e-06
3.63521e-06
3.62526e-06
3.61591e-06
3.60722e-06
3.59873e-06
3.5911e-06
3.58431e-06
3.57823e-06
3.5724e-06
3.56771e-06
3.5635e-06
3.55991e-06
3.55629e-06
3.5542e-06
3.55157e-06
3.55124e-06
3.55006e-06
3.54972e-06
3.55023e-06
3.55126e-06
3.55159e-06
3.55171e-06
3.55127e-06
3.55051e-06
3.54934e-06
3.54762e-06
3.54551e-06
3.54284e-06
3.53959e-06
3.5352e-06
3.53002e-06
3.52462e-06
3.51908e-06
3.51271e-06
3.50545e-06
3.49833e-06
3.48994e-06
3.48139e-06
3.47148e-06
3.4617e-06
3.45097e-06
3.44013e-06
3.42874e-06
3.41694e-06
3.4049e-06
3.39249e-06
3.37928e-06
3.3649e-06
3.34957e-06
3.33353e-06
3.31713e-06
3.30019e-06
3.28264e-06
3.26446e-06
3.24543e-06
3.22572e-06
3.28296e-06
3.2843e-06
3.28375e-06
3.29841e-06
3.31638e-06
3.33187e-06
3.34444e-06
3.35613e-06
3.36923e-06
3.39098e-06
3.41797e-06
3.44426e-06
3.47135e-06
3.50427e-06
3.54444e-06
3.58789e-06
3.6313e-06
3.66555e-06
3.68714e-06
3.6967e-06
3.7028e-06
3.70892e-06
3.71047e-06
3.70614e-06
3.6974e-06
3.68567e-06
3.67313e-06
3.6612e-06
3.65018e-06
3.63936e-06
3.62931e-06
3.6201e-06
3.61174e-06
3.60366e-06
3.59679e-06
3.59048e-06
3.58492e-06
3.57938e-06
3.57563e-06
3.57151e-06
3.57001e-06
3.56797e-06
3.56682e-06
3.56673e-06
3.56749e-06
3.56778e-06
3.56791e-06
3.56738e-06
3.56647e-06
3.56514e-06
3.56319e-06
3.56072e-06
3.55754e-06
3.55364e-06
3.54844e-06
3.54214e-06
3.53538e-06
3.52836e-06
3.52043e-06
3.51139e-06
3.50229e-06
3.49181e-06
3.48095e-06
3.46853e-06
3.45612e-06
3.44277e-06
3.4292e-06
3.41496e-06
3.40014e-06
3.38493e-06
3.36919e-06
3.35249e-06
3.33445e-06
3.31548e-06
3.29572e-06
3.27545e-06
3.25449e-06
3.23278e-06
3.21023e-06
3.18662e-06
3.16214e-06
3.2246e-06
3.20071e-06
3.18611e-06
3.20003e-06
3.21334e-06
3.22005e-06
3.22183e-06
3.22213e-06
3.22438e-06
3.24057e-06
3.26532e-06
3.28943e-06
3.31303e-06
3.34238e-06
3.38089e-06
3.4257e-06
3.47296e-06
3.5118e-06
3.5374e-06
3.55113e-06
3.56284e-06
3.57384e-06
3.57799e-06
3.574e-06
3.56396e-06
3.5499e-06
3.53439e-06
3.51952e-06
3.50592e-06
3.4925e-06
3.47959e-06
3.46737e-06
3.45602e-06
3.44498e-06
3.43507e-06
3.42577e-06
3.41734e-06
3.40909e-06
3.40286e-06
3.39659e-06
3.39313e-06
3.3896e-06
3.38706e-06
3.38576e-06
3.38571e-06
3.38563e-06
3.38558e-06
3.38487e-06
3.38379e-06
3.38233e-06
3.38023e-06
3.37747e-06
3.37385e-06
3.36938e-06
3.36349e-06
3.35628e-06
3.34831e-06
3.3399e-06
3.33052e-06
3.31985e-06
3.30888e-06
3.29646e-06
3.2834e-06
3.26863e-06
3.25373e-06
3.238e-06
3.22193e-06
3.20511e-06
3.18755e-06
3.16939e-06
3.15051e-06
3.13047e-06
3.10897e-06
3.08681e-06
3.064e-06
3.04065e-06
3.01653e-06
2.99157e-06
2.96561e-06
2.93844e-06
2.91021e-06
3.13555e-06
3.06685e-06
3.02832e-06
3.03916e-06
3.04056e-06
3.02944e-06
3.01121e-06
2.99121e-06
2.97434e-06
2.98008e-06
2.99908e-06
3.01668e-06
3.03174e-06
3.05159e-06
3.0819e-06
3.12166e-06
3.16709e-06
3.20614e-06
3.23276e-06
3.24997e-06
3.2685e-06
3.28523e-06
3.29235e-06
3.28871e-06
3.27714e-06
3.26047e-06
3.24168e-06
3.22372e-06
3.20758e-06
3.19154e-06
3.17555e-06
3.15988e-06
3.14491e-06
3.1302e-06
3.11641e-06
3.10317e-06
3.09089e-06
3.07915e-06
3.06965e-06
3.06057e-06
3.05436e-06
3.04862e-06
3.04403e-06
3.04089e-06
3.03939e-06
3.03847e-06
3.03797e-06
3.03701e-06
3.03579e-06
3.03432e-06
3.03225e-06
3.02941e-06
3.02556e-06
3.02072e-06
3.01443e-06
3.00666e-06
2.99787e-06
2.98842e-06
2.97795e-06
2.96609e-06
2.95364e-06
2.93974e-06
2.9249e-06
2.90827e-06
2.89136e-06
2.87378e-06
2.85581e-06
2.83701e-06
2.81734e-06
2.79683e-06
2.77537e-06
2.7525e-06
2.72805e-06
2.70357e-06
2.67891e-06
2.65384e-06
2.62806e-06
2.60145e-06
2.57379e-06
2.54486e-06
2.51473e-06
3.12141e-06
2.97506e-06
2.89782e-06
2.90238e-06
2.87918e-06
2.836e-06
2.78425e-06
2.7316e-06
2.68475e-06
2.67499e-06
2.68493e-06
2.69059e-06
2.69104e-06
2.69455e-06
2.70899e-06
2.73567e-06
2.77149e-06
2.8041e-06
2.82665e-06
2.84539e-06
2.8714e-06
2.89396e-06
2.90383e-06
2.90016e-06
2.88657e-06
2.86687e-06
2.84449e-06
2.82354e-06
2.80534e-06
2.78702e-06
2.76805e-06
2.74878e-06
2.72982e-06
2.7109e-06
2.69251e-06
2.67444e-06
2.65744e-06
2.64152e-06
2.62818e-06
2.61579e-06
2.60622e-06
2.59761e-06
2.59037e-06
2.58478e-06
2.58122e-06
2.57897e-06
2.5777e-06
2.57641e-06
2.5752e-06
2.57398e-06
2.57226e-06
2.5697e-06
2.56599e-06
2.56115e-06
2.55486e-06
2.54708e-06
2.5381e-06
2.52826e-06
2.51733e-06
2.50498e-06
2.49178e-06
2.47713e-06
2.4613e-06
2.4436e-06
2.42552e-06
2.40692e-06
2.38791e-06
2.36802e-06
2.34714e-06
2.32519e-06
2.30202e-06
2.27706e-06
2.25042e-06
2.22486e-06
2.19992e-06
2.17493e-06
2.14946e-06
2.12333e-06
2.09621e-06
2.06788e-06
2.03832e-06
3.37851e-06
3.07401e-06
2.92607e-06
2.91659e-06
2.84188e-06
2.74031e-06
2.63194e-06
2.52685e-06
2.43378e-06
2.40333e-06
2.40128e-06
2.38738e-06
2.36527e-06
2.34434e-06
2.33427e-06
2.33859e-06
2.35527e-06
2.37256e-06
2.38358e-06
2.40042e-06
2.43371e-06
2.46084e-06
2.47197e-06
2.46697e-06
2.4502e-06
2.42661e-06
2.40015e-06
2.37651e-06
2.35717e-06
2.33731e-06
2.31581e-06
2.29314e-06
2.27012e-06
2.24672e-06
2.22323e-06
2.19967e-06
2.17726e-06
2.15677e-06
2.13938e-06
2.12352e-06
2.11036e-06
2.09847e-06
2.08814e-06
2.07973e-06
2.0737e-06
2.06974e-06
2.06744e-06
2.0658e-06
2.06487e-06
2.06429e-06
2.06337e-06
2.06158e-06
2.05853e-06
2.05421e-06
2.04848e-06
2.04132e-06
2.03296e-06
2.02359e-06
2.01309e-06
2.00116e-06
1.98818e-06
1.97375e-06
1.95794e-06
1.94025e-06
1.92206e-06
1.90344e-06
1.88439e-06
1.8644e-06
1.84331e-06
1.82089e-06
1.79695e-06
1.77071e-06
1.74266e-06
1.71748e-06
1.69402e-06
1.67107e-06
1.648e-06
1.62459e-06
1.60041e-06
1.57519e-06
1.54884e-06
4.79216e-06
4.17659e-06
3.74135e-06
3.45929e-06
3.18935e-06
2.93553e-06
2.70471e-06
2.49877e-06
2.32433e-06
2.26422e-06
2.2458e-06
2.19771e-06
2.13963e-06
2.08226e-06
2.03629e-06
2.00678e-06
1.99241e-06
1.98283e-06
1.97188e-06
1.98185e-06
2.02136e-06
2.04955e-06
2.05824e-06
2.04878e-06
2.02622e-06
1.99683e-06
1.96509e-06
1.93898e-06
1.91976e-06
1.89933e-06
1.87595e-06
1.85032e-06
1.82346e-06
1.79553e-06
1.76667e-06
1.73714e-06
1.70894e-06
1.68386e-06
1.66269e-06
1.64368e-06
1.62718e-06
1.612e-06
1.59853e-06
1.58724e-06
1.57869e-06
1.57294e-06
1.56957e-06
1.56776e-06
1.56754e-06
1.56815e-06
1.5686e-06
1.56817e-06
1.5664e-06
1.56322e-06
1.55864e-06
1.55279e-06
1.54587e-06
1.53795e-06
1.52886e-06
1.51834e-06
1.50662e-06
1.49347e-06
1.4788e-06
1.46226e-06
1.44509e-06
1.42744e-06
1.40925e-06
1.39001e-06
1.36947e-06
1.34732e-06
1.32327e-06
1.2962e-06
1.26721e-06
1.24398e-06
1.22376e-06
1.2046e-06
1.1858e-06
1.16709e-06
1.14794e-06
1.12798e-06
1.10711e-06
8.24767e-06
7.00592e-06
6.04312e-06
5.30886e-06
4.6775e-06
4.13054e-06
3.65877e-06
3.25273e-06
2.90819e-06
2.67516e-06
2.50086e-06
2.3379e-06
2.18754e-06
2.053e-06
1.93928e-06
1.84856e-06
1.77805e-06
1.7191e-06
1.66647e-06
1.66059e-06
1.70411e-06
1.72556e-06
1.7237e-06
1.70277e-06
1.66859e-06
1.62904e-06
1.58903e-06
1.56001e-06
1.54228e-06
1.52212e-06
1.4973e-06
1.46903e-06
1.43849e-06
1.40592e-06
1.37136e-06
1.33538e-06
1.30115e-06
1.27184e-06
1.24773e-06
1.2264e-06
1.20734e-06
1.18938e-06
1.17315e-06
1.1594e-06
1.14876e-06
1.14165e-06
1.13764e-06
1.13617e-06
1.13743e-06
1.14007e-06
1.14262e-06
1.14428e-06
1.1445e-06
1.14316e-06
1.14037e-06
1.1365e-06
1.13182e-06
1.12629e-06
1.1196e-06
1.11145e-06
1.102e-06
1.09109e-06
1.07858e-06
1.06426e-06
1.04909e-06
1.0332e-06
1.01647e-06
9.98429e-07
9.78771e-07
9.5708e-07
9.33025e-07
9.04857e-07
8.74819e-07
8.55488e-07
8.40364e-07
8.26585e-07
8.13802e-07
8.01699e-07
7.89585e-07
7.77017e-07
7.63859e-07
1.5436e-05
1.30607e-05
1.11251e-05
9.55485e-06
8.2253e-06
7.09336e-06
6.13077e-06
5.31306e-06
4.62344e-06
4.08555e-06
3.65093e-06
3.27582e-06
2.95028e-06
2.66912e-06
2.43065e-06
2.23265e-06
2.06912e-06
1.93016e-06
1.80602e-06
1.7158e-06
1.6686e-06
1.62137e-06
1.56682e-06
1.50569e-06
1.4401e-06
1.37704e-06
1.31957e-06
1.28438e-06
1.26873e-06
1.24849e-06
1.22151e-06
1.19e-06
1.15521e-06
1.11727e-06
1.07606e-06
1.03263e-06
9.92104e-07
9.59586e-07
9.34293e-07
9.12394e-07
8.92483e-07
8.73255e-07
8.55772e-07
8.41219e-07
8.30317e-07
8.23946e-07
8.21512e-07
8.22771e-07
8.28171e-07
8.35585e-07
8.42866e-07
8.49197e-07
8.53822e-07
8.56577e-07
8.5772e-07
8.57967e-07
8.57822e-07
8.57172e-07
8.55517e-07
8.5247e-07
8.48076e-07
8.42271e-07
8.3472e-07
8.25332e-07
8.15164e-07
8.04616e-07
7.93656e-07
7.82073e-07
7.69743e-07
7.56478e-07
7.42091e-07
7.25821e-07
7.08315e-07
6.94528e-07
6.83163e-07
6.73114e-07
6.64104e-07
6.55758e-07
6.47714e-07
6.39405e-07
6.30731e-07
2.86503e-05
2.45294e-05
2.10333e-05
1.80739e-05
1.5531e-05
1.33425e-05
1.14639e-05
9.85579e-06
8.48707e-06
7.35882e-06
6.42031e-06
5.62168e-06
4.93979e-06
4.35762e-06
3.8637e-06
3.4489e-06
3.10045e-06
2.80292e-06
2.54238e-06
2.32462e-06
2.1529e-06
1.99983e-06
1.85778e-06
1.72461e-06
1.60019e-06
1.48798e-06
1.38912e-06
1.31251e-06
1.25701e-06
1.20861e-06
1.16345e-06
1.12096e-06
1.08053e-06
1.04113e-06
1.00165e-06
9.61901e-07
9.24134e-07
8.90924e-07
8.62486e-07
8.36562e-07
8.12099e-07
7.88456e-07
7.66553e-07
7.47677e-07
7.3365e-07
7.26133e-07
7.24293e-07
7.28735e-07
7.40189e-07
7.54371e-07
7.67891e-07
7.80163e-07
7.90089e-07
7.97413e-07
8.02662e-07
8.0729e-07
8.12232e-07
8.17135e-07
8.20942e-07
8.22949e-07
8.23192e-07
8.21652e-07
8.18102e-07
8.12471e-07
8.05369e-07
7.97405e-07
7.88791e-07
7.79608e-07
7.69897e-07
7.5962e-07
7.48664e-07
7.36656e-07
7.23739e-07
7.12036e-07
7.01812e-07
6.92843e-07
6.85022e-07
6.77913e-07
6.71016e-07
6.63906e-07
6.56854e-07
4.99287e-05
4.36493e-05
3.81093e-05
3.32294e-05
2.89123e-05
2.50975e-05
2.17422e-05
1.88064e-05
1.62551e-05
1.40756e-05
1.22164e-05
1.06207e-05
9.25101e-06
8.07575e-06
7.07049e-06
6.21817e-06
5.49453e-06
4.87416e-06
4.33473e-06
3.86948e-06
3.47419e-06
3.12562e-06
2.81435e-06
2.53614e-06
2.287e-06
2.07097e-06
1.88505e-06
1.73391e-06
1.61612e-06
1.51997e-06
1.43952e-06
1.37123e-06
1.31165e-06
1.25778e-06
1.20695e-06
1.15769e-06
1.11072e-06
1.06722e-06
1.028e-06
9.90801e-07
9.54301e-07
9.18035e-07
8.83403e-07
8.52469e-07
8.28671e-07
8.14664e-07
8.0981e-07
8.18014e-07
8.40757e-07
8.66651e-07
8.8983e-07
9.11474e-07
9.29495e-07
9.43428e-07
9.54505e-07
9.66199e-07
9.80347e-07
9.95562e-07
1.00909e-06
1.01939e-06
1.02671e-06
1.03106e-06
1.03224e-06
1.03029e-06
1.02539e-06
1.01847e-06
1.00999e-06
1.00042e-06
9.90018e-07
9.78947e-07
9.67196e-07
9.5459e-07
9.41111e-07
9.27755e-07
9.14929e-07
9.02753e-07
8.9132e-07
8.80461e-07
8.69847e-07
8.59111e-07
8.48343e-07
7.98025e-05
7.14282e-05
6.37862e-05
5.68087e-05
5.04272e-05
4.46e-05
3.93083e-05
3.45343e-05
3.02634e-05
2.64885e-05
2.31719e-05
2.02629e-05
1.7718e-05
1.54966e-05
1.35623e-05
1.1898e-05
1.04642e-05
9.22143e-06
8.13564e-06
7.186e-06
6.35879e-06
5.628e-06
4.98143e-06
4.4122e-06
3.91272e-06
3.48233e-06
3.1164e-06
2.81505e-06
2.5734e-06
2.38033e-06
2.22604e-06
2.10182e-06
1.99863e-06
1.90958e-06
1.8289e-06
1.75259e-06
1.68034e-06
1.61163e-06
1.54624e-06
1.4822e-06
1.41715e-06
1.35032e-06
1.28415e-06
1.22273e-06
1.17201e-06
1.13687e-06
1.11863e-06
1.13338e-06
1.18323e-06
1.23077e-06
1.26825e-06
1.30562e-06
1.33663e-06
1.35977e-06
1.37671e-06
1.39304e-06
1.409e-06
1.42289e-06
1.43333e-06
1.44002e-06
1.44383e-06
1.44494e-06
1.44262e-06
1.43647e-06
1.4265e-06
1.41358e-06
1.39849e-06
1.38207e-06
1.36484e-06
1.34711e-06
1.32889e-06
1.31004e-06
1.2904e-06
1.27038e-06
1.25026e-06
1.23024e-06
1.21054e-06
1.19116e-06
1.17201e-06
1.15284e-06
1.1338e-06
0.00011717
0.000107092
9.76908e-05
8.88836e-05
8.06034e-05
7.28184e-05
6.55299e-05
5.87458e-05
5.24864e-05
4.67658e-05
4.15744e-05
3.68858e-05
3.26697e-05
2.88916e-05
2.5524e-05
2.25521e-05
1.99296e-05
1.76207e-05
1.55705e-05
1.37493e-05
1.21363e-05
1.06975e-05
9.41864e-06
8.29236e-06
7.30641e-06
6.45586e-06
5.733e-06
5.13485e-06
4.6501e-06
4.26663e-06
3.96559e-06
3.72717e-06
3.53444e-06
3.37309e-06
3.23092e-06
3.09882e-06
2.97235e-06
2.84904e-06
2.72805e-06
2.60693e-06
2.48025e-06
2.34608e-06
2.20901e-06
2.07784e-06
1.96149e-06
1.86551e-06
1.79635e-06
1.76252e-06
1.80889e-06
1.85516e-06
1.88675e-06
1.9365e-06
1.97614e-06
2.00166e-06
2.01709e-06
2.03634e-06
2.05342e-06
2.06357e-06
2.06695e-06
2.06553e-06
2.06243e-06
2.0577e-06
2.04899e-06
2.0349e-06
2.01521e-06
1.9911e-06
1.96393e-06
1.9352e-06
1.9059e-06
1.87651e-06
1.84689e-06
1.81677e-06
1.78582e-06
1.7541e-06
1.72174e-06
1.68895e-06
1.656e-06
1.62306e-06
1.59022e-06
1.55746e-06
1.52506e-06
0.000160541
0.000149046
0.000138227
0.000127963
0.000118159
0.000108768
9.97879e-05
9.12329e-05
8.31495e-05
7.55619e-05
6.84786e-05
6.18983e-05
5.58102e-05
5.02006e-05
4.50596e-05
4.03867e-05
3.6152e-05
3.23204e-05
2.88271e-05
2.56519e-05
2.27846e-05
2.01753e-05
1.78253e-05
1.57305e-05
1.3882e-05
1.22741e-05
1.08999e-05
9.7497e-06
8.81419e-06
8.07715e-06
7.49785e-06
7.04407e-06
6.68379e-06
6.38888e-06
6.13482e-06
5.9023e-06
5.67902e-06
5.45717e-06
5.2316e-06
4.99727e-06
4.74521e-06
4.47005e-06
4.18356e-06
3.90544e-06
3.65141e-06
3.4269e-06
3.23421e-06
3.07728e-06
2.98098e-06
2.9139e-06
2.86653e-06
2.92546e-06
2.95818e-06
2.96207e-06
2.95239e-06
2.97176e-06
2.98674e-06
2.98428e-06
2.96907e-06
2.94832e-06
2.93188e-06
2.9179e-06
2.89858e-06
2.87035e-06
2.83318e-06
2.78931e-06
2.74152e-06
2.69254e-06
2.64439e-06
2.59739e-06
2.55074e-06
2.50359e-06
2.4553e-06
2.40568e-06
2.3548e-06
2.30293e-06
2.25043e-06
2.19765e-06
2.14488e-06
2.09231e-06
2.04043e-06
0.000209248
0.000196332
0.000184179
0.000172615
0.000161511
0.000150796
0.00014045
0.00013048
0.000120917
0.000111786
0.000103103
9.48723e-05
8.70882e-05
7.97467e-05
7.28522e-05
6.6419e-05
6.04412e-05
5.48989e-05
4.97176e-05
4.48698e-05
4.03514e-05
3.61466e-05
3.22704e-05
2.87373e-05
2.55579e-05
2.27409e-05
2.02938e-05
1.8223e-05
1.65253e-05
1.51806e-05
1.41336e-05
1.33227e-05
1.26881e-05
1.21778e-05
1.17466e-05
1.13567e-05
1.09817e-05
1.06034e-05
1.02079e-05
9.78489e-06
9.31657e-06
8.78632e-06
8.20802e-06
7.64028e-06
7.12097e-06
6.64933e-06
6.22198e-06
5.82852e-06
5.48249e-06
5.179e-06
4.92213e-06
4.75434e-06
4.60797e-06
4.47164e-06
4.3513e-06
4.37304e-06
4.37183e-06
4.32519e-06
4.25724e-06
4.18672e-06
4.14552e-06
4.11871e-06
4.08044e-06
4.02464e-06
3.9538e-06
3.87334e-06
3.7893e-06
3.70698e-06
3.63077e-06
3.55927e-06
3.4891e-06
3.41787e-06
3.34439e-06
3.26844e-06
3.1903e-06
3.11053e-06
3.02976e-06
2.9486e-06
2.86759e-06
2.78713e-06
2.70798e-06
0.000263916
0.000249307
0.000235605
0.000222586
0.000210081
0.000198002
0.000186318
0.00017503
0.000164158
0.000153714
0.000143708
0.000134135
0.000124977
0.000116221
0.000107871
9.99426e-05
9.243e-05
8.53045e-05
7.84971e-05
7.1969e-05
6.57159e-05
5.9747e-05
5.4097e-05
4.88086e-05
4.39263e-05
3.94952e-05
3.55654e-05
3.21861e-05
2.9392e-05
2.7179e-05
2.54745e-05
2.41727e-05
2.31691e-05
2.2375e-05
2.17147e-05
2.1123e-05
2.055e-05
1.99604e-05
1.9325e-05
1.86261e-05
1.78285e-05
1.689e-05
1.58192e-05
1.4767e-05
1.38243e-05
1.29564e-05
1.21288e-05
1.13119e-05
1.05159e-05
9.7788e-06
9.13709e-06
8.60795e-06
8.14036e-06
7.70497e-06
7.3003e-06
6.98998e-06
6.71762e-06
6.4561e-06
6.21163e-06
5.99546e-06
5.91552e-06
5.87603e-06
5.79308e-06
5.67199e-06
5.52743e-06
5.37244e-06
5.2193e-06
5.07917e-06
4.96387e-06
4.86123e-06
4.75941e-06
4.65329e-06
4.54169e-06
4.42529e-06
4.30535e-06
4.18326e-06
4.06029e-06
3.93745e-06
3.81562e-06
3.69543e-06
3.57783e-06
0.000323944
0.000308209
0.000293136
0.000278596
0.000264507
0.000250841
0.000237605
0.000224822
0.000212514
0.000200692
0.000189356
0.000178489
0.000168058
0.000158037
0.00014842
0.000139219
0.00013042
0.000121976
0.000113802
0.000105834
9.8051e-05
9.04635e-05
8.3114e-05
7.60647e-05
6.93897e-05
6.31784e-05
5.75422e-05
5.2612e-05
4.85052e-05
4.5269e-05
4.28192e-05
4.09858e-05
3.95991e-05
3.85212e-05
3.76403e-05
3.68617e-05
3.61062e-05
3.53105e-05
3.44199e-05
3.33904e-05
3.21642e-05
3.06619e-05
2.88503e-05
2.70831e-05
2.55847e-05
2.41847e-05
2.28011e-05
2.1354e-05
1.98443e-05
1.84132e-05
1.71641e-05
1.60697e-05
1.50716e-05
1.41199e-05
1.32037e-05
1.23735e-05
1.16415e-05
1.09845e-05
1.0387e-05
9.84279e-06
9.39152e-06
9.0028e-06
8.63439e-06
8.27438e-06
7.9241e-06
7.58975e-06
7.28221e-06
7.03086e-06
6.87505e-06
6.73864e-06
6.58813e-06
6.4208e-06
6.24079e-06
6.05294e-06
5.86117e-06
5.66851e-06
5.47717e-06
5.28865e-06
5.10407e-06
4.92412e-06
4.74979e-06
0.000383157
0.000366967
0.000351268
0.00033598
0.000321048
0.000306456
0.000292215
0.000278348
0.000264883
0.000251847
0.000239261
0.000227131
0.000215436
0.000204156
0.000193292
0.000182865
0.00017287
0.000163249
0.000153891
0.000144688
0.000135581
0.000126564
0.000117678
0.000108994
0.000100602
9.26148e-05
8.5184e-05
7.84989e-05
7.27442e-05
6.80361e-05
6.43688e-05
6.16099e-05
5.95678e-05
5.80491e-05
5.68816e-05
5.59206e-05
5.50494e-05
5.41773e-05
5.32339e-05
5.21677e-05
5.09312e-05
4.94717e-05
4.77405e-05
4.58623e-05
4.39828e-05
4.20664e-05
4.00413e-05
3.77909e-05
3.52486e-05
3.28314e-05
3.0826e-05
2.90239e-05
2.7327e-05
2.56429e-05
2.39453e-05
2.23145e-05
2.08635e-05
1.95746e-05
1.84042e-05
1.73213e-05
1.63237e-05
1.53988e-05
1.45405e-05
1.37433e-05
1.30054e-05
1.23239e-05
1.16956e-05
1.11278e-05
1.06323e-05
1.01873e-05
9.77172e-06
9.37539e-06
8.99415e-06
8.62712e-06
8.27443e-06
7.93639e-06
7.61315e-06
7.30447e-06
7.01005e-06
6.72935e-06
6.46247e-06
0.000440321
0.000424058
0.000408116
0.000392457
0.000377053
0.000361898
0.000347008
0.000332406
0.000318121
0.000304184
0.000290624
0.000277459
0.000264684
0.000252284
0.000240266
0.000228661
0.000217484
0.000206688
0.000196162
0.000185773
0.000175415
0.000165038
0.000154654
0.000144328
0.000134164
0.000124317
0.000114997
0.000106464
9.89774e-05
9.27228e-05
8.77626e-05
8.40168e-05
8.12813e-05
7.93093e-05
7.7863e-05
7.67411e-05
7.57851e-05
7.48773e-05
7.39315e-05
7.28886e-05
7.17027e-05
7.03365e-05
6.87537e-05
6.69893e-05
6.51149e-05
6.31464e-05
6.10662e-05
5.88249e-05
5.63635e-05
5.38133e-05
5.13384e-05
4.89139e-05
4.64744e-05
4.39147e-05
4.11509e-05
3.83854e-05
3.60496e-05
3.39952e-05
3.21023e-05
3.0312e-05
2.85793e-05
2.68914e-05
2.52679e-05
2.37695e-05
2.24085e-05
2.11673e-05
2.00248e-05
1.89695e-05
1.79948e-05
1.70888e-05
1.62397e-05
1.54438e-05
1.46958e-05
1.39937e-05
1.33355e-05
1.27188e-05
1.21407e-05
1.15978e-05
1.10876e-05
1.06071e-05
1.01551e-05
0.000494505
0.000478644
0.000462888
0.000447243
0.000431713
0.000416311
0.000401063
0.000386002
0.00037116
0.000356574
0.000342283
0.000328311
0.000314666
0.000301342
0.000288346
0.000275709
0.000263455
0.00025156
0.000239932