/*--------------------------------*- C++ -*----------------------------------*\
| =========                 |                                                 |
| \\      /  F ield         | OpenFOAM: The Open Source CFD Toolbox           |
|  \\    /   O peration     | Version:  2412                                  |
|   \\  /    A nd           | Website:  www.openfoam.com                      |
|    \\/     M anipulation  |                                                 |
\*---------------------------------------------------------------------------*/
FoamFile
{
    version     2.0;
    format      ascii;
    arch        "LSB;label=32;scalar=64";
    class       volScalarField;
    location    "20";
    object      nut;
}
// * * * * * * * * * * * * * * * * * * * * * * * * * * * * * * * * * * * * * //

dimensions      [0 2 -1 0 0 0 0];

internalField   nonuniform List<scalar> 
7423
(
5.8786e-11
1.03268e-10
1.06151e-10
9.54889e-11
7.58629e-11
5.97412e-11
5.0115e-11
4.96867e-11
5.11198e-11
5.28598e-11
5.47332e-11
5.65729e-11
5.78678e-11
5.85773e-11
5.91918e-11
5.95767e-11
5.96109e-11
5.95583e-11
5.94715e-11
5.9425e-11
5.93559e-11
5.92414e-11
5.90372e-11
5.87224e-11
5.82794e-11
5.79283e-11
5.7559e-11
5.71995e-11
5.68444e-11
5.65213e-11
5.62304e-11
5.59515e-11
5.56922e-11
5.54489e-11
5.52275e-11
5.50085e-11
5.48047e-11
5.46051e-11
5.44222e-11
5.42394e-11
5.40733e-11
5.39023e-11
5.37423e-11
5.35893e-11
5.34438e-11
5.33051e-11
5.31608e-11
5.30275e-11
5.28968e-11
5.2777e-11
5.2658e-11
5.25498e-11
5.2443e-11
5.23472e-11
5.22473e-11
5.21533e-11
5.20617e-11
5.19753e-11
5.18893e-11
5.18117e-11
5.17355e-11
5.16672e-11
5.15956e-11
5.15263e-11
5.1457e-11
5.13843e-11
5.13235e-11
5.12642e-11
5.1204e-11
5.11454e-11
5.10905e-11
5.10437e-11
5.09702e-11
5.09585e-11
5.07738e-11
5.0896e-11
5.14856e-09
9.03301e-09
9.74527e-09
8.87988e-09
6.90662e-09
5.17484e-09
4.06182e-09
3.97145e-09
4.10096e-09
4.25926e-09
4.42869e-09
4.59532e-09
4.71083e-09
4.77337e-09
4.83358e-09
4.87342e-09
4.88303e-09
4.88907e-09
4.89449e-09
4.90128e-09
4.90522e-09
4.90591e-09
4.89972e-09
4.88051e-09
4.84784e-09
4.82285e-09
4.79572e-09
4.76749e-09
4.73937e-09
4.71449e-09
4.69234e-09
4.6711e-09
4.65114e-09
4.63251e-09
4.61563e-09
4.59905e-09
4.58359e-09
4.56848e-09
4.55469e-09
4.54097e-09
4.52834e-09
4.51533e-09
4.50298e-09
4.49129e-09
4.48011e-09
4.46948e-09
4.45844e-09
4.44798e-09
4.4378e-09
4.42833e-09
4.41902e-09
4.41055e-09
4.40225e-09
4.39472e-09
4.38707e-09
4.37983e-09
4.37263e-09
4.36574e-09
4.35897e-09
4.3529e-09
4.34692e-09
4.34143e-09
4.33588e-09
4.33045e-09
4.32489e-09
4.31902e-09
4.31415e-09
4.30948e-09
4.30454e-09
4.29976e-09
4.29523e-09
4.29137e-09
4.28535e-09
4.28424e-09
4.26993e-09
4.27657e-09
4.41414e-08
7.70973e-08
8.83259e-08
8.21314e-08
6.19666e-08
4.24973e-08
3.03059e-08
2.91062e-08
3.02131e-08
3.15603e-08
3.29789e-08
3.439e-08
3.53523e-08
3.5855e-08
3.63967e-08
3.67803e-08
3.692e-08
3.70657e-08
3.72419e-08
3.74131e-08
3.75493e-08
3.76633e-08
3.77383e-08
3.76698e-08
3.74642e-08
3.73167e-08
3.71485e-08
3.69507e-08
3.67503e-08
3.65813e-08
3.64328e-08
3.62919e-08
3.61575e-08
3.60336e-08
3.59221e-08
3.58143e-08
3.57122e-08
3.56136e-08
3.55245e-08
3.54364e-08
3.53528e-08
3.52673e-08
3.51845e-08
3.51061e-08
3.50315e-08
3.49603e-08
3.48864e-08
3.48141e-08
3.4743e-08
3.46768e-08
3.46118e-08
3.45525e-08
3.44949e-08
3.44423e-08
3.43903e-08
3.4341e-08
3.42913e-08
3.42429e-08
3.41949e-08
3.41516e-08
3.41102e-08
3.40711e-08
3.40319e-08
3.39931e-08
3.39537e-08
3.39119e-08
3.38754e-08
3.38412e-08
3.38048e-08
3.37694e-08
3.37346e-08
3.37055e-08
3.36607e-08
3.36504e-08
3.3553e-08
3.35616e-08
1.87332e-07
3.23131e-07
3.97065e-07
3.80345e-07
2.75819e-07
1.68774e-07
1.07012e-07
1.0016e-07
1.04477e-07
1.09844e-07
1.1544e-07
1.21003e-07
1.24689e-07
1.26569e-07
1.28809e-07
1.3043e-07
1.3114e-07
1.32055e-07
1.33189e-07
1.34248e-07
1.35163e-07
1.36029e-07
1.36807e-07
1.36899e-07
1.36362e-07
1.36039e-07
1.35604e-07
1.34975e-07
1.34325e-07
1.33818e-07
1.33381e-07
1.32971e-07
1.3257e-07
1.32207e-07
1.31883e-07
1.3158e-07
1.3129e-07
1.31012e-07
1.30764e-07
1.30524e-07
1.30286e-07
1.30041e-07
1.29797e-07
1.29568e-07
1.29347e-07
1.29139e-07
1.28921e-07
1.28698e-07
1.28477e-07
1.28268e-07
1.28066e-07
1.27878e-07
1.27698e-07
1.27534e-07
1.2738e-07
1.2723e-07
1.27077e-07
1.26924e-07
1.26771e-07
1.26631e-07
1.265e-07
1.26374e-07
1.2625e-07
1.26123e-07
1.25997e-07
1.25861e-07
1.25733e-07
1.25616e-07
1.25493e-07
1.25371e-07
1.25246e-07
1.25145e-07
1.24992e-07
1.24945e-07
1.24649e-07
1.24498e-07
5.58836e-07
9.46456e-07
1.25281e-06
1.25552e-06
8.74427e-07
4.70805e-07
2.59598e-07
2.34025e-07
2.45101e-07
2.59625e-07
2.74665e-07
2.89361e-07
2.98638e-07
3.03385e-07
3.0948e-07
3.13796e-07
3.15895e-07
3.19099e-07
3.23017e-07
3.26608e-07
3.29901e-07
3.3325e-07
3.36496e-07
3.37642e-07
3.36954e-07
3.36797e-07
3.36221e-07
3.34925e-07
3.33546e-07
3.32614e-07
3.31836e-07
3.31107e-07
3.30361e-07
3.29703e-07
3.29129e-07
3.2863e-07
3.28144e-07
3.27688e-07
3.27297e-07
3.26929e-07
3.26536e-07
3.26124e-07
3.25688e-07
3.25288e-07
3.24886e-07
3.24515e-07
3.24129e-07
3.23702e-07
3.23272e-07
3.22849e-07
3.22455e-07
3.22078e-07
3.2172e-07
3.21396e-07
3.21124e-07
3.2084e-07
3.2055e-07
3.2024e-07
3.1993e-07
3.19641e-07
3.19372e-07
3.19109e-07
3.18858e-07
3.18591e-07
3.18327e-07
3.18039e-07
3.17742e-07
3.17474e-07
3.17194e-07
3.16912e-07
3.16608e-07
3.16374e-07
3.16025e-07
3.15881e-07
3.15322e-07
3.14455e-07
1.33945e-06
2.21846e-06
3.1433e-06
3.35383e-06
2.26991e-06
1.07561e-06
5.03022e-07
4.29505e-07
4.51074e-07
4.82166e-07
5.141e-07
5.44152e-07
5.61726e-07
5.71124e-07
5.83658e-07
5.91926e-07
5.96343e-07
6.04272e-07
6.13683e-07
6.22227e-07
6.30599e-07
6.39597e-07
6.48573e-07
6.52703e-07
6.52882e-07
6.54086e-07
6.54053e-07
6.52108e-07
6.49944e-07
6.48877e-07
6.4804e-07
6.47239e-07
6.46318e-07
6.45551e-07
6.44918e-07
6.44486e-07
6.44057e-07
6.43683e-07
6.43418e-07
6.4321e-07
6.42887e-07
6.42525e-07
6.42068e-07
6.41667e-07
6.41224e-07
6.40832e-07
6.40432e-07
6.39898e-07
6.39338e-07
6.38742e-07
6.38216e-07
6.37697e-07
6.37214e-07
6.36775e-07
6.36489e-07
6.36157e-07
6.35799e-07
6.35362e-07
6.34916e-07
6.3449e-07
6.341e-07
6.337e-07
6.33343e-07
6.3293e-07
6.32531e-07
6.32084e-07
6.31555e-07
6.31076e-07
6.30591e-07
6.30087e-07
6.2951e-07
6.29077e-07
6.28467e-07
6.28123e-07
6.27423e-07
6.24707e-07
2.75212e-06
4.44458e-06
6.61364e-06
7.56961e-06
5.12466e-06
2.18145e-06
8.43807e-07
6.6685e-07
7.00775e-07
7.57722e-07
8.15471e-07
8.66452e-07
8.92786e-07
9.08504e-07
9.29136e-07
9.40833e-07
9.48066e-07
9.63384e-07
9.8087e-07
9.96709e-07
1.01362e-06
1.03263e-06
1.05179e-06
1.06183e-06
1.06517e-06
1.07013e-06
1.07205e-06
1.0699e-06
1.06733e-06
1.06703e-06
1.06693e-06
1.06672e-06
1.06616e-06
1.06581e-06
1.06563e-06
1.06589e-06
1.06614e-06
1.06649e-06
1.06699e-06
1.06761e-06
1.06793e-06
1.06818e-06
1.06818e-06
1.06826e-06
1.06819e-06
1.06819e-06
1.06822e-06
1.06794e-06
1.06758e-06
1.06707e-06
1.06669e-06
1.06626e-06
1.0659e-06
1.06556e-06
1.06556e-06
1.06545e-06
1.06529e-06
1.06491e-06
1.06449e-06
1.06406e-06
1.06367e-06
1.06323e-06
1.06289e-06
1.06242e-06
1.06199e-06
1.06148e-06
1.06072e-06
1.06e-06
1.05931e-06
1.05856e-06
1.05764e-06
1.05696e-06
1.05609e-06
1.05538e-06
1.05496e-06
1.04866e-06
5.03514e-06
7.88963e-06
1.20286e-05
1.46316e-05
1.02881e-05
4.11657e-06
1.29244e-06
9.17288e-07
9.61154e-07
1.05477e-06
1.14774e-06
1.222e-06
1.25268e-06
1.27582e-06
1.30321e-06
1.31386e-06
1.3233e-06
1.3475e-06
1.37368e-06
1.39764e-06
1.42653e-06
1.46003e-06
1.49385e-06
1.51313e-06
1.52339e-06
1.53568e-06
1.54157e-06
1.54006e-06
1.53807e-06
1.54011e-06
1.54204e-06
1.54348e-06
1.54413e-06
1.54501e-06
1.5461e-06
1.54799e-06
1.5499e-06
1.55199e-06
1.55427e-06
1.55677e-06
1.55867e-06
1.56046e-06
1.56177e-06
1.56315e-06
1.56421e-06
1.56531e-06
1.56656e-06
1.56724e-06
1.56773e-06
1.56784e-06
1.56813e-06
1.5683e-06
1.56853e-06
1.56871e-06
1.56952e-06
1.57015e-06
1.57065e-06
1.57072e-06
1.57067e-06
1.57051e-06
1.57039e-06
1.57011e-06
1.57003e-06
1.5697e-06
1.56944e-06
1.56909e-06
1.56819e-06
1.56727e-06
1.56642e-06
1.56546e-06
1.56416e-06
1.56319e-06
1.56215e-06
1.56088e-06
1.56143e-06
1.54939e-06
8.39344e-06
1.26977e-05
1.93916e-05
2.46587e-05
1.85034e-05
7.42054e-06
1.88497e-06
1.15863e-06
1.20411e-06
1.347e-06
1.48409e-06
1.5779e-06
1.60079e-06
1.63159e-06
1.65877e-06
1.65758e-06
1.66697e-06
1.69848e-06
1.72982e-06
1.75954e-06
1.80271e-06
1.8536e-06
1.90472e-06
1.9357e-06
1.95797e-06
1.9818e-06
1.99382e-06
1.99397e-06
1.99415e-06
2.00062e-06
2.00616e-06
2.01041e-06
2.01323e-06
2.01624e-06
2.01949e-06
2.02409e-06
2.02885e-06
2.03394e-06
2.03929e-06
2.04499e-06
2.04969e-06
2.05425e-06
2.05802e-06
2.0618e-06
2.06504e-06
2.06825e-06
2.07178e-06
2.07446e-06
2.07677e-06
2.07833e-06
2.0801e-06
2.08158e-06
2.0831e-06
2.08442e-06
2.08674e-06
2.0888e-06
2.09064e-06
2.09174e-06
2.09255e-06
2.09309e-06
2.09359e-06
2.09378e-06
2.09426e-06
2.09438e-06
2.09459e-06
2.09472e-06
2.09387e-06
2.09283e-06
2.0919e-06
2.09081e-06
2.08913e-06
2.08785e-06
2.08676e-06
2.08469e-06
2.08704e-06
2.06704e-06
1.88343e-05
2.8345e-05
3.7127e-05
3.0045e-05
1.29041e-05
2.71397e-06
1.39177e-06
1.42567e-06
1.63409e-06
1.82248e-06
1.92289e-06
1.91446e-06
1.9523e-06
1.96354e-06
1.93101e-06
1.93624e-06
1.96833e-06
1.99515e-06
2.02361e-06
2.08119e-06
2.14869e-06
2.21566e-06
2.25837e-06
2.29836e-06
2.33761e-06
2.35728e-06
2.35977e-06
2.36435e-06
2.37742e-06
2.38794e-06
2.39587e-06
2.40158e-06
2.40737e-06
2.41348e-06
2.42167e-06
2.43044e-06
2.43987e-06
2.44966e-06
2.45994e-06
2.46877e-06
2.47746e-06
2.48502e-06
2.49246e-06
2.4991e-06
2.50559e-06
2.51266e-06
2.51862e-06
2.52394e-06
2.52801e-06
2.53223e-06
2.53592e-06
2.53958e-06
2.54276e-06
2.54733e-06
2.55162e-06
2.55559e-06
2.55842e-06
2.56068e-06
2.5624e-06
2.56393e-06
2.5649e-06
2.56628e-06
2.56717e-06
2.56817e-06
2.56913e-06
2.5686e-06
2.56754e-06
2.56662e-06
2.56547e-06
2.56346e-06
2.56181e-06
2.5608e-06
2.55767e-06
2.56253e-06
2.5325e-06
3.83018e-05
5.11312e-05
4.45769e-05
2.15646e-05
3.97638e-06
1.65797e-06
1.671e-06
1.97221e-06
2.21394e-06
2.29155e-06
2.2085e-06
2.25184e-06
2.21748e-06
2.12224e-06
2.11778e-06
2.13621e-06
2.14113e-06
2.15582e-06
2.22502e-06
2.30276e-06
2.37805e-06
2.42816e-06
2.4911e-06
2.54789e-06
2.57511e-06
2.57965e-06
2.59127e-06
2.61262e-06
2.62876e-06
2.64043e-06
2.64909e-06
2.65768e-06
2.66681e-06
2.67894e-06
2.69263e-06
2.70758e-06
2.72304e-06
2.73911e-06
2.7533e-06
2.76741e-06
2.78007e-06
2.79242e-06
2.80375e-06
2.81472e-06
2.82655e-06
2.83711e-06
2.84674e-06
2.85452e-06
2.86221e-06
2.86904e-06
2.87564e-06
2.88141e-06
2.88887e-06
2.89614e-06
2.90299e-06
2.90825e-06
2.91255e-06
2.91592e-06
2.91883e-06
2.92087e-06
2.92338e-06
2.92532e-06
2.92737e-06
2.92946e-06
2.92953e-06
2.92857e-06
2.92769e-06
2.9265e-06
2.92417e-06
2.92204e-06
2.92117e-06
2.91675e-06
2.92441e-06
2.88245e-06
6.56764e-05
6.12971e-05
3.42174e-05
6.06568e-06
2.09207e-06
2.17555e-06
2.69935e-06
2.94001e-06
2.84831e-06
2.57111e-06
2.60859e-06
2.47079e-06
2.26096e-06
2.24066e-06
2.21978e-06
2.176e-06
2.15864e-06
2.23373e-06
2.30831e-06
2.37694e-06
2.42416e-06
2.51319e-06
2.58613e-06
2.61807e-06
2.62263e-06
2.64409e-06
2.67427e-06
2.69535e-06
2.70963e-06
2.72023e-06
2.73066e-06
2.74211e-06
2.75772e-06
2.77671e-06
2.79803e-06
2.81998e-06
2.84264e-06
2.8631e-06
2.88363e-06
2.90251e-06
2.92082e-06
2.93796e-06
2.9545e-06
2.97209e-06
2.98844e-06
3.00355e-06
3.01615e-06
3.02825e-06
3.03902e-06
3.04927e-06
3.05821e-06
3.06897e-06
3.07971e-06
3.09001e-06
3.0983e-06
3.1051e-06
3.11048e-06
3.11502e-06
3.11829e-06
3.12203e-06
3.12515e-06
3.12834e-06
3.13169e-06
3.13257e-06
3.13179e-06
3.1309e-06
3.12959e-06
3.12691e-06
3.12412e-06
3.12329e-06
3.11741e-06
3.1275e-06
3.07167e-06
7.98448e-05
7.91935e-05
5.09796e-05
9.87825e-06
3.41476e-06
3.50865e-06
4.48074e-06
4.79786e-06
4.44536e-06
3.81327e-06
3.37696e-06
2.89652e-06
2.44347e-06
2.39367e-06
2.2846e-06
2.15019e-06
2.07542e-06
2.14848e-06
2.19818e-06
2.23716e-06
2.26432e-06
2.37918e-06
2.46138e-06
2.49126e-06
2.49125e-06
2.52506e-06
2.56293e-06
2.58649e-06
2.60072e-06
2.6109e-06
2.62101e-06
2.63296e-06
2.65053e-06
2.67451e-06
2.70253e-06
2.73119e-06
2.7606e-06
2.78769e-06
2.81517e-06
2.84099e-06
2.86592e-06
2.88968e-06
2.91256e-06
2.93651e-06
2.95941e-06
2.98084e-06
2.99917e-06
3.01639e-06
3.03169e-06
3.04599e-06
3.05847e-06
3.07263e-06
3.08699e-06
3.10099e-06
3.11264e-06
3.12223e-06
3.1298e-06
3.13602e-06
3.14055e-06
3.14539e-06
3.14961e-06
3.15381e-06
3.15829e-06
3.16003e-06
3.15943e-06
3.15835e-06
3.1567e-06
3.15353e-06
3.14983e-06
3.14869e-06
3.14124e-06
3.15268e-06
3.08091e-06
9.28256e-05
9.72429e-05
7.10986e-05
1.84872e-05
6.54222e-06
6.39684e-06
8.18057e-06
8.67965e-06
7.87277e-06
6.59097e-06
5.39699e-06
4.31204e-06
3.3962e-06
2.90421e-06
2.50622e-06
2.17574e-06
1.99583e-06
2.05526e-06
2.04584e-06
2.02236e-06
2.00444e-06
2.1414e-06
2.21872e-06
2.2345e-06
2.22182e-06
2.26983e-06
2.31195e-06
2.33327e-06
2.3431e-06
2.34906e-06
2.35533e-06
2.36478e-06
2.38175e-06
2.40965e-06
2.44409e-06
2.47889e-06
2.51444e-06
2.54783e-06
2.58217e-06
2.61512e-06
2.64684e-06
2.67756e-06
2.70711e-06
2.73747e-06
2.76707e-06
2.79512e-06
2.81966e-06
2.8424e-06
2.86248e-06
2.88097e-06
2.89707e-06
2.91441e-06
2.93214e-06
2.94967e-06
2.9647e-06
2.97706e-06
2.98676e-06
2.99451e-06
3.00012e-06
3.00574e-06
3.0107e-06
3.01551e-06
3.02065e-06
3.023e-06
3.02242e-06
3.02085e-06
3.01846e-06
3.01447e-06
3.00948e-06
3.00745e-06
2.99834e-06
3.00937e-06
0.000103892
0.000114493
9.32886e-05
3.49421e-05
1.33451e-05
1.21375e-05
1.51915e-05
1.60394e-05
1.45132e-05
1.21271e-05
9.63509e-06
7.45709e-06
5.65762e-06
4.45007e-06
3.54474e-06
2.85565e-06
2.39737e-06
2.18885e-06
2.0012e-06
1.84256e-06
1.73511e-06
1.88726e-06
1.93533e-06
1.91734e-06
1.87887e-06
1.94206e-06
1.98205e-06
1.99358e-06
1.99284e-06
1.9893e-06
1.98693e-06
1.98984e-06
2.00281e-06
2.03305e-06
2.07309e-06
2.11269e-06
2.15299e-06
2.19169e-06
2.23225e-06
2.272e-06
2.31016e-06
2.34768e-06
2.38379e-06
2.42003e-06
2.45584e-06
2.49016e-06
2.52086e-06
2.54914e-06
2.57392e-06
2.5964e-06
2.61594e-06
2.63597e-06
2.65645e-06
2.67695e-06
2.69496e-06
2.70976e-06
2.72126e-06
2.73015e-06
2.73644e-06
2.74227e-06
2.74734e-06
2.75204e-06
2.757e-06
2.75932e-06
2.75834e-06
2.75576e-06
2.75203e-06
2.74665e-06
2.73984e-06
2.73606e-06
2.72512e-06
2.73352e-06
0.000112341
0.000130045
0.000116174
6.17783e-05
2.66798e-05
2.26958e-05
2.73092e-05
2.86277e-05
2.60861e-05
2.21206e-05
1.76449e-05
1.36898e-05
1.03448e-05
7.86835e-06
6.01474e-06
4.62276e-06
3.64328e-06
3.02334e-06
2.53705e-06
2.15629e-06
1.88028e-06
1.82128e-06
1.74359e-06
1.64113e-06
1.54984e-06
1.62723e-06
1.65377e-06
1.64364e-06
1.62348e-06
1.60323e-06
1.58606e-06
1.5775e-06
1.58259e-06
1.6135e-06
1.65823e-06
1.70082e-06
1.74411e-06
1.78679e-06
1.83264e-06
1.87857e-06
1.92257e-06
1.96649e-06
2.00875e-06
2.05e-06
2.09103e-06
2.13072e-06
2.16704e-06
2.20057e-06
2.2297e-06
2.25573e-06
2.27833e-06
2.30043e-06
2.32281e-06
2.34542e-06
2.36567e-06
2.38223e-06
2.39488e-06
2.40425e-06
2.41054e-06
2.41579e-06
2.42003e-06
2.42358e-06
2.42715e-06
2.42829e-06
2.42603e-06
2.42163e-06
2.41563e-06
2.40794e-06
2.39849e-06
2.39183e-06
2.37862e-06
2.38196e-06
0.000117423
0.000142992
0.000138506
9.76794e-05
4.94051e-05
4.03929e-05
4.62644e-05
4.79476e-05
4.41649e-05
3.83339e-05
3.12913e-05
2.48623e-05
1.91558e-05
1.46152e-05
1.11141e-05
8.42135e-06
6.44691e-06
5.06407e-06
4.0049e-06
3.19073e-06
2.59576e-06
2.26733e-06
2.00903e-06
1.78596e-06
1.60262e-06
1.54207e-06
1.46834e-06
1.39253e-06
1.32838e-06
1.27565e-06
1.2327e-06
1.20529e-06
1.19765e-06
1.228e-06
1.27713e-06
1.32103e-06
1.36589e-06
1.41169e-06
1.46238e-06
1.51434e-06
1.56402e-06
1.61437e-06
1.66267e-06
1.70817e-06
1.75341e-06
1.79745e-06
1.83866e-06
1.8771e-06
1.9102e-06
1.93927e-06
1.96445e-06
1.98799e-06
2.01137e-06
2.03508e-06
2.05652e-06
2.07378e-06
2.08648e-06
2.09521e-06
2.10039e-06
2.10383e-06
2.10581e-06
2.10665e-06
2.10704e-06
2.10516e-06
2.1e-06
2.09227e-06
2.08249e-06
2.07093e-06
2.05744e-06
2.04625e-06
2.02973e-06
2.02543e-06
0.000118252
0.000152352
0.000159142
0.000133084
8.24144e-05
6.69658e-05
7.28447e-05
7.44296e-05
6.94486e-05
6.18727e-05
5.21179e-05
4.2878e-05
3.41731e-05
2.67472e-05
2.07298e-05
1.58703e-05
1.21286e-05
9.33637e-06
7.17171e-06
5.49907e-06
4.26662e-06
3.46843e-06
2.89066e-06
2.45984e-06
2.112e-06
1.89077e-06
1.68811e-06
1.51493e-06
1.38323e-06
1.27896e-06
1.19454e-06
1.13795e-06
1.10915e-06
1.11242e-06
1.13633e-06
1.16726e-06
1.20537e-06
1.24865e-06
1.30227e-06
1.35912e-06
1.41278e-06
1.469e-06
1.52301e-06
1.57104e-06
1.61782e-06
1.66195e-06
1.70303e-06
1.74158e-06
1.77377e-06
1.80075e-06
1.8237e-06
1.84401e-06
1.86369e-06
1.88379e-06
1.90144e-06
1.91424e-06
1.92194e-06
1.92519e-06
1.92464e-06
1.92184e-06
1.91714e-06
1.91083e-06
1.90344e-06
1.89375e-06
1.88123e-06
1.86601e-06
1.84849e-06
1.82911e-06
1.80805e-06
1.78869e-06
1.76596e-06
1.74987e-06
0.000113661
0.000157044
0.000176934
0.000165784
0.000124496
0.000102534
0.00010689
0.000107486
0.000101339
9.24802e-05
8.05175e-05
6.88292e-05
5.70513e-05
4.63307e-05
3.71211e-05
2.91925e-05
2.27203e-05
1.75864e-05
1.34607e-05
1.01811e-05
7.69484e-06
5.9729e-06
4.76673e-06
3.96016e-06
3.31377e-06
2.84834e-06
2.43593e-06
2.09778e-06
1.85374e-06
1.65615e-06
1.49461e-06
1.38356e-06
1.31917e-06
1.29299e-06
1.29584e-06
1.31802e-06
1.35694e-06
1.40884e-06
1.48029e-06
1.55827e-06
1.63135e-06
1.71078e-06
1.78674e-06
1.85103e-06
1.9129e-06
1.97051e-06
2.02514e-06
2.07872e-06
2.12355e-06
2.16067e-06
2.19259e-06
2.21973e-06
2.24502e-06
2.26961e-06
2.29005e-06
2.30329e-06
2.30929e-06
2.30883e-06
2.30276e-06
2.29274e-06
2.2793e-06
2.26295e-06
2.24422e-06
2.22222e-06
2.19708e-06
2.16834e-06
2.13636e-06
2.10179e-06
2.06531e-06
2.02955e-06
1.99145e-06
1.95546e-06
0.000102526
0.000155933
0.000190609
0.000195436
0.000174059
0.000145934
0.000148319
0.000146919
0.000139272
0.000129394
0.000115757
0.000102301
8.80221e-05
7.436e-05
6.18866e-05
5.04304e-05
4.05002e-05
3.21051e-05
2.49896e-05
1.90568e-05
1.43306e-05
1.08351e-05
8.34193e-06
6.81349e-06
5.63601e-06
4.80181e-06
4.05148e-06
3.42545e-06
2.9916e-06
2.62013e-06
2.30456e-06
2.08586e-06
1.95262e-06
1.87455e-06
1.84362e-06
1.85114e-06
1.895e-06
1.96918e-06
2.08039e-06
2.20371e-06
2.31958e-06
2.45122e-06
2.57671e-06
2.67816e-06
2.77613e-06
2.86909e-06
2.96168e-06
3.06002e-06
3.14624e-06
3.22047e-06
3.28681e-06
3.34274e-06
3.39299e-06
3.43984e-06
3.47818e-06
3.50366e-06
3.51666e-06
3.51861e-06
3.51025e-06
3.49324e-06
3.46873e-06
3.43795e-06
3.40174e-06
3.3594e-06
3.31086e-06
3.2557e-06
3.19472e-06
3.12908e-06
3.06038e-06
2.99134e-06
2.92024e-06
2.845e-06
8.45718e-05
0.000147942
0.00019871
0.000221281
0.000219423
0.000195844
0.000197342
0.000193347
0.000183736
0.000172564
0.000157231
0.000142344
0.00012606
0.000110081
9.49112e-05
8.02215e-05
6.68055e-05
5.47926e-05
4.39847e-05
3.44319e-05
2.63447e-05
1.99203e-05
1.50663e-05
1.16898e-05
9.22857e-06
7.76234e-06
6.47152e-06
5.37979e-06
4.69379e-06
4.06621e-06
3.51187e-06
3.13494e-06
2.903e-06
2.74352e-06
2.65515e-06
2.63324e-06
2.68466e-06
2.79958e-06
2.98591e-06
3.19987e-06
3.4084e-06
3.67206e-06
3.94065e-06
4.17335e-06
4.41991e-06
4.65483e-06
4.87323e-06
5.09631e-06
5.29363e-06
5.46959e-06
5.62961e-06
5.76439e-06
5.88309e-06
5.99124e-06
6.08061e-06
6.14503e-06
6.18612e-06
6.20602e-06
6.20463e-06
6.18388e-06
6.14632e-06
6.09474e-06
6.03075e-06
5.95367e-06
5.86336e-06
5.75934e-06
5.64329e-06
5.51739e-06
5.38521e-06
5.25037e-06
5.11311e-06
4.95871e-06
6.13663e-05
0.000132222
0.000199585
0.000241967
0.000259295
0.000252303
0.000254667
0.000247598
0.000235659
0.000222696
0.00020512
0.000188558
0.000170241
0.000152206
0.000134823
0.000117505
0.000101197
8.59514e-05
7.15229e-05
5.80509e-05
4.5925e-05
3.5591e-05
2.72367e-05
2.08934e-05
1.60997e-05
1.27647e-05
1.01518e-05
8.1662e-06
7.14046e-06
6.11789e-06
5.18643e-06
4.58276e-06
4.20967e-06
3.91171e-06
3.71192e-06
3.61529e-06
3.65615e-06
3.81364e-06
4.08449e-06
4.40202e-06
4.72071e-06
5.16913e-06
5.63957e-06
6.05558e-06
6.52534e-06
6.97844e-06
7.39252e-06
7.82125e-06
8.20643e-06
8.5593e-06
8.88786e-06
9.16914e-06
9.4209e-06
9.65313e-06
9.85175e-06
1.00092e-05
1.013e-05
1.02166e-05
1.02662e-05
1.02808e-05
1.02646e-05
1.02221e-05
1.01557e-05
1.00652e-05
9.95084e-06
9.81207e-06
9.65106e-06
9.47074e-06
9.27565e-06
9.07119e-06
8.85871e-06
8.60229e-06
3.74702e-05
0.000108275
0.00019137
0.000255585
0.000293661
0.00030611
0.000320404
0.000310855
0.000296618
0.000281111
0.000260414
0.000241579
0.000220705
0.000200332
0.000180705
0.000160982
0.000142294
0.000124378
0.000106906
8.99735e-05
7.39874e-05
5.95135e-05
4.70074e-05
3.67508e-05
2.85532e-05
2.23326e-05
1.74774e-05
1.37325e-05
1.12214e-05
9.20923e-06
7.56698e-06
6.61399e-06
6.02123e-06
5.46851e-06
5.05193e-06
4.79195e-06
4.7873e-06
4.97516e-06
5.30861e-06
5.70719e-06
6.12164e-06
6.79977e-06
7.51467e-06
8.1449e-06
8.90974e-06
9.6514e-06
1.03208e-05
1.10389e-05
1.16902e-05
1.22992e-05
1.28784e-05
1.33797e-05
1.38374e-05
1.42656e-05
1.46393e-05
1.49524e-05
1.52146e-05
1.5427e-05
1.55822e-05
1.56823e-05
1.57336e-05
1.57419e-05
1.57095e-05
1.5637e-05
1.55253e-05
1.53742e-05
1.51863e-05
1.49651e-05
1.47156e-05
1.4445e-05
1.4156e-05
1.37739e-05
1.88949e-05
7.74251e-05
0.000172196
0.000259809
0.000321184
0.000354593
0.000381627
0.000383607
0.000367811
0.000349532
0.000325144
0.000303195
0.000278874
0.000255441
0.000233026
0.000210524
0.000189357
0.000168887
0.000148734
0.000128909
0.000109719
9.16504e-05
7.52226e-05
6.08672e-05
4.86778e-05
3.87168e-05
3.06326e-05
2.41627e-05
1.93174e-05
1.55532e-05
1.25722e-05
1.04608e-05
8.95281e-06
7.76665e-06
6.88707e-06
6.28178e-06
6.18009e-06
6.3654e-06
6.67489e-06
7.0697e-06
7.51135e-06
8.45543e-06
9.41803e-06
1.02462e-05
1.13661e-05
1.24418e-05
1.33925e-05
1.44752e-05
1.54544e-05
1.63864e-05
1.72908e-05
1.80758e-05
1.88089e-05
1.95038e-05
2.01159e-05
2.06475e-05
2.11162e-05
2.15183e-05
2.18395e-05
2.20838e-05
2.22601e-05
2.2374e-05
2.24263e-05
2.24177e-05
2.23509e-05
2.22264e-05
2.20472e-05
2.18169e-05
2.15412e-05
2.12273e-05
2.08803e-05
2.03621e-05
9.04419e-06
4.59154e-05
0.000140707
0.000252176
0.000339429
0.000397164
0.000437729
0.000452029
0.000446119
0.000429102
0.000400459
0.000374962
0.000346456
0.000319199
0.000293229
0.000267155
0.000242898
0.000219405
0.000196339
0.00017366
0.000151592
0.000130486
0.000110782
9.28774e-05
7.69591e-05
6.31652e-05
5.14079e-05
4.15526e-05
3.36014e-05
2.72096e-05
2.2052e-05
1.80672e-05
1.50147e-05
1.26436e-05
1.08627e-05
9.56791e-06
8.84564e-06
8.53933e-06
8.50328e-06
8.66115e-06
8.95625e-06
1.02085e-05
1.13375e-05
1.22589e-05
1.37809e-05
1.51826e-05
1.63735e-05
1.78817e-05
1.92089e-05
2.04969e-05
2.17759e-05
2.28761e-05
2.39343e-05
2.495e-05
2.58442e-05
2.66435e-05
2.73746e-05
2.80209e-05
2.8561e-05
2.90052e-05
2.93648e-05
2.96419e-05
2.98343e-05
2.99431e-05
2.99725e-05
2.99242e-05
2.98012e-05
2.96075e-05
2.93488e-05
2.90319e-05
2.86632e-05
2.80134e-05
5.48897e-06
2.29703e-05
0.000102319
0.000231259
0.000345361
0.000429702
0.000487644
0.000515229
0.000519537
0.000509025
0.000485965
0.000458553
0.000425052
0.000393133
0.00036278
0.000332185
0.000304033
0.000276727
0.000250086
0.000224057
0.000198852
0.000174731
0.000152071
0.000131183
0.00011217
9.51012e-05
7.99762e-05
6.67303e-05
5.54246e-05
4.59385e-05
3.7987e-05
3.14596e-05
2.61476e-05
2.18773e-05
1.85189e-05
1.59469e-05
1.41752e-05
1.30701e-05
1.24557e-05
1.2227e-05
1.22571e-05
1.29312e-05
1.36835e-05
1.43677e-05
1.63309e-05
1.79346e-05
1.9201e-05
2.11927e-05
2.28059e-05
2.44257e-05
2.60855e-05
2.74702e-05
2.88668e-05
3.02223e-05
3.14006e-05
3.24884e-05
3.35143e-05
3.44342e-05
3.52231e-05
3.59067e-05
3.64957e-05
3.69832e-05
3.73634e-05
3.76387e-05
3.7815e-05
3.78938e-05
3.78778e-05
3.77709e-05
3.75791e-05
3.73083e-05
3.69643e-05
3.61997e-05
4.49486e-06
1.14487e-05
6.46647e-05
0.000197813
0.00033616
0.000448958
0.00052848
0.000571843
0.000587571
0.000584772
0.000567931
0.000543619
0.000512561
0.000479098
0.000443675
0.000407516
0.000374583
0.000342483
0.000311342
0.000281104
0.000252032
0.000224339
0.00019844
0.000174598
0.000152763
0.000132887
0.000114925
9.87737e-05
8.44897e-05
7.21276e-05
6.1401e-05
5.21125e-05
4.40698e-05
3.72967e-05
3.16811e-05
2.71198e-05
2.36809e-05
2.12946e-05
1.97456e-05
1.88487e-05
1.84194e-05
1.8546e-05
1.88891e-05
1.93039e-05
2.03777e-05
2.13278e-05
2.21907e-05
2.47597e-05
2.64154e-05
2.82555e-05
3.02418e-05
3.17692e-05
3.34694e-05
3.51248e-05
3.65148e-05
3.7868e-05
3.91818e-05
4.03585e-05
4.1385e-05
4.23174e-05
4.31554e-05
4.3874e-05
4.44666e-05
4.49406e-05
4.53023e-05
4.55496e-05
4.56834e-05
4.57075e-05
4.56286e-05
4.54514e-05
4.51795e-05
4.19334e-06
6.91338e-06
3.52306e-05
0.000154266
0.000310094
0.000450863
0.000555945
0.000618879
0.000648453
0.000655149
0.000645348
0.000625399
0.000597695
0.00056577
0.000530766
0.000493717
0.000456602
0.000418708
0.000382018
0.000346526
0.000312597
0.000280417
0.000250554
0.000223274
0.000198344
0.000175646
0.00015504
0.000136316
0.000119387
0.000104258
9.08518e-05
7.92839e-05
6.90927e-05
5.99159e-05
5.17513e-05
4.46369e-05
3.88685e-05
3.46194e-05
3.16522e-05
2.97187e-05
2.85754e-05
2.81122e-05
2.80466e-05
2.81656e-05
2.85876e-05
2.89074e-05
2.91633e-05
3.0167e-05
3.08301e-05
3.26005e-05
3.47587e-05
3.60713e-05
3.7998e-05
3.98165e-05
4.12166e-05
4.27597e-05
4.42938e-05
4.56309e-05
4.68206e-05
4.79668e-05
4.90281e-05
4.99494e-05
5.07374e-05
5.14104e-05
5.19697e-05
5.24035e-05
5.2708e-05
5.28881e-05
5.29523e-05
5.29034e-05
5.27415e-05
4.06537e-06
5.20246e-06
1.76556e-05
0.000103468
0.000266899
0.000431382
0.000564626
0.000651674
0.000698716
0.000717638
0.000716662
0.000702614
0.000679158
0.000649815
0.000616383
0.000580166
0.000542676
0.000503779
0.000463856
0.00042233
0.000382423
0.000344635
0.000309853
0.000278347
0.000249633
0.000223644
0.000200122
0.000178749
0.000159315
0.000141754
0.000125871
0.000111658
9.88735e-05
8.73658e-05
7.71794e-05
6.81546e-05
6.03263e-05
5.39661e-05
4.91452e-05
4.576e-05
4.35977e-05
4.24246e-05
4.19563e-05
4.18383e-05
4.18258e-05
4.16745e-05
4.14074e-05
4.12858e-05
4.08903e-05
4.09369e-05
4.12506e-05
4.13085e-05
4.33722e-05
4.50125e-05
4.5984e-05
4.76153e-05
4.9206e-05
5.04697e-05
5.16644e-05
5.29336e-05
5.41193e-05
5.51303e-05
5.60326e-05
5.68573e-05
5.75826e-05
5.81765e-05
5.86302e-05
5.89549e-05
5.91623e-05
5.92496e-05
5.92129e-05
4.30966e-06
9.42851e-06
5.80704e-05
0.000209659
0.000388162
0.000548588
0.000663773
0.000733078
0.000768043
0.000778709
0.000772843
0.000755267
0.000729858
0.000699022
0.000664452
0.000627701
0.000589218
0.000549272
0.000507248
0.000463403
0.000418853
0.000378109
0.000341445
0.000307996
0.000277981
0.000250923
0.000226435
0.000204201
0.000184142
0.000165891
0.000149366
0.00013433
0.000120611
0.000108166
9.69232e-05
8.69242e-05
7.84154e-05
7.16321e-05
6.66583e-05
6.33948e-05
6.15762e-05
6.07922e-05
6.05028e-05
6.02348e-05
5.98846e-05
5.93826e-05
5.85721e-05
5.73266e-05
5.60833e-05
5.4851e-05
5.34463e-05
5.28868e-05
5.24507e-05
5.19329e-05
5.36374e-05
5.49084e-05
5.56102e-05
5.65805e-05
5.78279e-05
5.89151e-05
5.97618e-05
6.062e-05
6.14913e-05
6.22834e-05
6.29344e-05
6.34419e-05
6.38413e-05
6.41451e-05
6.4334e-05
6.4398e-05
4.10378e-06
6.14654e-06
2.80342e-05
0.000144816
0.000322691
0.000502904
0.000647609
0.000744285
0.000800246
0.000826503
0.000832021
0.000822819
0.000803378
0.000776729
0.000745022
0.000710034
0.000672711
0.000633582
0.000592493
0.000549438
0.000504186
0.000457189
0.00041435
0.000375017
0.000340177
0.000308747
0.000280461
0.000254848
0.000231832
0.000210911
0.000191985
0.000174727
0.000158917
0.000144456
0.000131252
0.000119271
0.000108641
9.95861e-05
9.23677e-05
8.71961e-05
8.41316e-05
8.28265e-05
8.26041e-05
8.27892e-05
8.29044e-05
8.25365e-05
8.13907e-05
7.96878e-05
7.7731e-05
7.54274e-05
7.28159e-05
7.04092e-05
6.81286e-05
6.58637e-05
6.4549e-05
6.34735e-05
6.2448e-05
6.30157e-05
6.40152e-05
6.45237e-05
6.47173e-05
6.53482e-05
6.61146e-05
6.67685e-05
6.72436e-05
6.75939e-05
6.79274e-05
6.82253e-05
6.84199e-05
6.84969e-05
4.00556e-06
4.81264e-06
1.34769e-05
8.15224e-05
0.000240907
0.000426278
0.000596107
0.000723283
0.000805928
0.00085293
0.000874139
0.000876796
0.000866197
0.000846075
0.000819115
0.000787427
0.000752407
0.000714927
0.000675285
0.000633696
0.000590196
0.000544832
0.000498759
0.000452199
0.00041188
0.000375067
0.000342225
0.00031246
0.000285844
0.000261662
0.000239936
0.000220152
0.000202039
0.000185484
0.00017035
0.000156509
0.000143988
0.000132916
0.000123521
0.000116094
0.000110891
0.000108039
0.00010717
0.000107487
0.000108157
0.000108493
0.000108048
0.000106736
0.000104574
0.000101596
9.82233e-05
9.47661e-05
9.11899e-05
8.7539e-05
8.41961e-05
8.11234e-05
7.82161e-05
7.60291e-05
7.43256e-05
7.28185e-05
7.1418e-05
7.19059e-05
7.23372e-05
7.24212e-05
7.22595e-05
7.20992e-05
7.22127e-05
7.23638e-05
7.23862e-05
7.22914e-05
3.90183e-06
4.28944e-06
7.68619e-06
3.70999e-05
0.000153694
0.000324751
0.000505724
0.000661149
0.000774635
0.000848425
0.000890858
0.000910022
0.000912154
0.000901795
0.000882267
0.000856119
0.000825196
0.00079076
0.000753523
0.000713982
0.000672492
0.00062938
0.000585345
0.000540099
0.000494779
0.000451201
0.000413205
0.000378308
0.000347473
0.00031917
0.000294044
0.000271245
0.000250419
0.000231466
0.000214138
0.000198264
0.000183837
0.000170897
0.000159561
0.000150051
0.000142655
0.000137731
0.000135204
0.000134883
0.000135657
0.000136416
0.000136534
0.000135787
0.000134112
0.000131498
0.000128103
0.000124094
0.00011966
0.00011511
0.000110619
0.000106211
0.000101909
9.79078e-05
9.42127e-05
9.08076e-05
8.7626e-05
8.52284e-05
8.31928e-05
8.13689e-05
7.96572e-05
7.85402e-05
7.85479e-05
7.83684e-05
7.78806e-05
7.72652e-05
3.81037e-06
4.08284e-06
5.36628e-06
1.5663e-05
7.45569e-05
0.00021134
0.000381296
0.000552553
0.000696028
0.00080122
0.000871139
0.00091273
0.000932681
0.000936398
0.000927951
0.000910432
0.000886187
0.000856913
0.000823741
0.000787485
0.000748782
0.000708207
0.000666464
0.000623775
0.000580821
0.000537814
0.000494852
0.00045342
0.000418019
0.000384598
0.000355435
0.000328831
0.000304636
0.000282886
0.000263062
0.000244805
0.000228185