/*--------------------------------*- C++ -*----------------------------------*\
| =========                 |                                                 |
| \\      /  F ield         | OpenFOAM: The Open Source CFD Toolbox           |
|  \\    /   O peration     | Version:  2412                                  |
|   \\  /    A nd           | Website:  www.openfoam.com                      |
|    \\/     M anipulation  |                                                 |
\*---------------------------------------------------------------------------*/
FoamFile
{
    version     2.0;
    format      ascii;
    arch        "LSB;label=32;scalar=64";
    class       volScalarField;
    location    "20";
    object      nuTilda;
}
// * * * * * * * * * * * * * * * * * * * * * * * * * * * * * * * * * * * * * //

dimensions      [0 2 -1 0 0 0 0];

internalField   nonuniform List<scalar> 
7423
(
2.87383e-06
3.30852e-06
3.33139e-06
3.24438e-06
3.06302e-06
2.88543e-06
2.76143e-06
2.75551e-06
2.77517e-06
2.79849e-06
2.82296e-06
2.84639e-06
2.86254e-06
2.87127e-06
2.87877e-06
2.88344e-06
2.88386e-06
2.88322e-06
2.88217e-06
2.88161e-06
2.88077e-06
2.87938e-06
2.87689e-06
2.87305e-06
2.86762e-06
2.86329e-06
2.85871e-06
2.85424e-06
2.8498e-06
2.84574e-06
2.84207e-06
2.83854e-06
2.83525e-06
2.83214e-06
2.82931e-06
2.8265e-06
2.82388e-06
2.82131e-06
2.81894e-06
2.81657e-06
2.81441e-06
2.81219e-06
2.8101e-06
2.80809e-06
2.80619e-06
2.80436e-06
2.80246e-06
2.8007e-06
2.79898e-06
2.79739e-06
2.79581e-06
2.79438e-06
2.79296e-06
2.79168e-06
2.79035e-06
2.78909e-06
2.78787e-06
2.78671e-06
2.78555e-06
2.78451e-06
2.78349e-06
2.78257e-06
2.7816e-06
2.78067e-06
2.77973e-06
2.77875e-06
2.77793e-06
2.77713e-06
2.77631e-06
2.77552e-06
2.77477e-06
2.77414e-06
2.77314e-06
2.77298e-06
2.77046e-06
2.77213e-06
8.79276e-06
1.01203e-05
1.03143e-05
1.00771e-05
9.46315e-06
8.80396e-06
8.28654e-06
8.24005e-06
8.30644e-06
8.3855e-06
8.4677e-06
8.54628e-06
8.59952e-06
8.62793e-06
8.65502e-06
8.67281e-06
8.67708e-06
8.67976e-06
8.68217e-06
8.68518e-06
8.68692e-06
8.68723e-06
8.68449e-06
8.67596e-06
8.6614e-06
8.65021e-06
8.63801e-06
8.62527e-06
8.61251e-06
8.60119e-06
8.59106e-06
8.58132e-06
8.57213e-06
8.56353e-06
8.55572e-06
8.54802e-06
8.54082e-06
8.53377e-06
8.52732e-06
8.52089e-06
8.51496e-06
8.50883e-06
8.50301e-06
8.49748e-06
8.49219e-06
8.48714e-06
8.48189e-06
8.47691e-06
8.47206e-06
8.46753e-06
8.46308e-06
8.45902e-06
8.45503e-06
8.45141e-06
8.44773e-06
8.44424e-06
8.44077e-06
8.43744e-06
8.43417e-06
8.43123e-06
8.42833e-06
8.42566e-06
8.42297e-06
8.42033e-06
8.41762e-06
8.41477e-06
8.41239e-06
8.41012e-06
8.4077e-06
8.40537e-06
8.40315e-06
8.40126e-06
8.39831e-06
8.39777e-06
8.39074e-06
8.39401e-06
1.50546e-05
1.73135e-05
1.79143e-05
1.75904e-05
1.63904e-05
1.49122e-05
1.37013e-05
1.35634e-05
1.36908e-05
1.38412e-05
1.39944e-05
1.41421e-05
1.42401e-05
1.42906e-05
1.43444e-05
1.43821e-05
1.43957e-05
1.441e-05
1.44271e-05
1.44437e-05
1.44568e-05
1.44678e-05
1.4475e-05
1.44684e-05
1.44486e-05
1.44343e-05
1.4418e-05
1.43987e-05
1.43791e-05
1.43626e-05
1.43479e-05
1.4334e-05
1.43207e-05
1.43084e-05
1.42973e-05
1.42865e-05
1.42763e-05
1.42664e-05
1.42575e-05
1.42486e-05
1.42402e-05
1.42316e-05
1.42232e-05
1.42152e-05
1.42077e-05
1.42004e-05
1.41929e-05
1.41855e-05
1.41783e-05
1.41715e-05
1.41648e-05
1.41588e-05
1.41528e-05
1.41474e-05
1.41421e-05
1.4137e-05
1.41319e-05
1.41269e-05
1.41219e-05
1.41174e-05
1.41131e-05
1.41091e-05
1.4105e-05
1.4101e-05
1.40969e-05
1.40926e-05
1.40887e-05
1.40852e-05
1.40814e-05
1.40777e-05
1.40741e-05
1.4071e-05
1.40663e-05
1.40653e-05
1.4055e-05
1.4056e-05
2.1639e-05
2.4826e-05
2.61527e-05
2.58698e-05
2.38539e-05
2.10785e-05
1.87983e-05
1.84886e-05
1.86855e-05
1.8922e-05
1.91596e-05
1.93874e-05
1.9534e-05
1.96076e-05
1.96942e-05
1.97562e-05
1.97832e-05
1.98178e-05
1.98604e-05
1.99e-05
1.9934e-05
1.9966e-05
1.99946e-05
1.9998e-05
1.99782e-05
1.99663e-05
1.99503e-05
1.9927e-05
1.99028e-05
1.98839e-05
1.98676e-05
1.98522e-05
1.98372e-05
1.98235e-05
1.98113e-05
1.97998e-05
1.97889e-05
1.97783e-05
1.97689e-05
1.97598e-05
1.97507e-05
1.97414e-05
1.97321e-05
1.97233e-05
1.97149e-05
1.97069e-05
1.96985e-05
1.969e-05
1.96815e-05
1.96734e-05
1.96656e-05
1.96584e-05
1.96514e-05
1.96451e-05
1.96391e-05
1.96333e-05
1.96274e-05
1.96214e-05
1.96155e-05
1.96101e-05
1.9605e-05
1.96e-05
1.95952e-05
1.95903e-05
1.95853e-05
1.958e-05
1.9575e-05
1.95704e-05
1.95656e-05
1.95608e-05
1.95559e-05
1.9552e-05
1.9546e-05
1.95441e-05
1.95325e-05
1.95265e-05
2.85174e-05
3.26109e-05
3.504e-05
3.50595e-05
3.19583e-05
2.73048e-05
2.34921e-05
2.28861e-05
2.31543e-05
2.34927e-05
2.38287e-05
2.4144e-05
2.4337e-05
2.4434e-05
2.4557e-05
2.4643e-05
2.46845e-05
2.47475e-05
2.48238e-05
2.48932e-05
2.49563e-05
2.50201e-05
2.50814e-05
2.51029e-05
2.509e-05
2.5087e-05
2.50762e-05
2.50518e-05
2.50257e-05
2.5008e-05
2.49932e-05
2.49793e-05
2.49651e-05
2.49525e-05
2.49416e-05
2.4932e-05
2.49227e-05
2.4914e-05
2.49065e-05
2.48994e-05
2.48918e-05
2.48839e-05
2.48755e-05
2.48678e-05
2.486e-05
2.48528e-05
2.48454e-05
2.48371e-05
2.48288e-05
2.48205e-05
2.48129e-05
2.48056e-05
2.47986e-05
2.47923e-05
2.4787e-05
2.47815e-05
2.47758e-05
2.47698e-05
2.47637e-05
2.47581e-05
2.47528e-05
2.47477e-05
2.47427e-05
2.47375e-05
2.47323e-05
2.47267e-05
2.47208e-05
2.47156e-05
2.47101e-05
2.47045e-05
2.46986e-05
2.46939e-05
2.4687e-05
2.46842e-05
2.46732e-05
2.4656e-05
3.56475e-05
4.0621e-05
4.4508e-05
4.52774e-05
4.08646e-05
3.36958e-05
2.77665e-05
2.66775e-05
2.70104e-05
2.74702e-05
2.79203e-05
2.83254e-05
2.85547e-05
2.86752e-05
2.88337e-05
2.89368e-05
2.89915e-05
2.90889e-05
2.92033e-05
2.9306e-05
2.94057e-05
2.95118e-05
2.96165e-05
2.96643e-05
2.96664e-05
2.96803e-05
2.96799e-05
2.96575e-05
2.96324e-05
2.962e-05
2.96103e-05
2.9601e-05
2.95903e-05
2.95814e-05
2.9574e-05
2.9569e-05
2.9564e-05
2.95596e-05
2.95565e-05
2.95541e-05
2.95503e-05
2.95461e-05
2.95407e-05
2.9536e-05
2.95308e-05
2.95263e-05
2.95216e-05
2.95153e-05
2.95088e-05
2.95018e-05
2.94956e-05
2.94895e-05
2.94838e-05
2.94786e-05
2.94753e-05
2.94714e-05
2.94672e-05
2.9462e-05
2.94568e-05
2.94517e-05
2.94471e-05
2.94424e-05
2.94382e-05
2.94333e-05
2.94286e-05
2.94233e-05
2.94171e-05
2.94114e-05
2.94056e-05
2.93997e-05
2.93928e-05
2.93877e-05
2.93804e-05
2.93764e-05
2.9368e-05
2.93357e-05
4.29776e-05
4.88051e-05
5.43667e-05
5.64346e-05
5.07134e-05
4.04433e-05
3.16689e-05
2.98265e-05
3.02053e-05
3.08121e-05
3.13942e-05
3.18836e-05
3.21282e-05
3.22717e-05
3.24574e-05
3.25613e-05
3.26251e-05
3.2759e-05
3.291e-05
3.30451e-05
3.31877e-05
3.33458e-05
3.35031e-05
3.35848e-05
3.36117e-05
3.36518e-05
3.36672e-05
3.36499e-05
3.36292e-05
3.36268e-05
3.36259e-05
3.36243e-05
3.36198e-05
3.36169e-05
3.36155e-05
3.36176e-05
3.36196e-05
3.36224e-05
3.36265e-05
3.36315e-05
3.3634e-05
3.3636e-05
3.36361e-05
3.36367e-05
3.36362e-05
3.36361e-05
3.36364e-05
3.36341e-05
3.36312e-05
3.36271e-05
3.3624e-05
3.36206e-05
3.36176e-05
3.36149e-05
3.36149e-05
3.36141e-05
3.36127e-05
3.36097e-05
3.36063e-05
3.36028e-05
3.35997e-05
3.35961e-05
3.35933e-05
3.35895e-05
3.3586e-05
3.35819e-05
3.35757e-05
3.35699e-05
3.35643e-05
3.35582e-05
3.35507e-05
3.35452e-05
3.35381e-05
3.35324e-05
3.3529e-05
3.34776e-05
5.04723e-05
5.7089e-05
6.43657e-05
6.81849e-05
6.15303e-05
4.78133e-05
3.53216e-05
3.23511e-05
3.27396e-05
3.35274e-05
3.42611e-05
3.48166e-05
3.50391e-05
3.52043e-05
3.5397e-05
3.54711e-05
3.55365e-05
3.57026e-05
3.58798e-05
3.60399e-05
3.62303e-05
3.64476e-05
3.66635e-05
3.67849e-05
3.68491e-05
3.69256e-05
3.69621e-05
3.69527e-05
3.69404e-05
3.6953e-05
3.6965e-05
3.69739e-05
3.69779e-05
3.69833e-05
3.69901e-05
3.70017e-05
3.70135e-05
3.70264e-05
3.70404e-05
3.70558e-05
3.70674e-05
3.70784e-05
3.70865e-05
3.70949e-05
3.71014e-05
3.71082e-05
3.71158e-05
3.712e-05
3.7123e-05
3.71236e-05
3.71254e-05
3.71264e-05
3.71278e-05
3.71289e-05
3.71339e-05
3.71377e-05
3.71408e-05
3.71412e-05
3.71409e-05
3.714e-05
3.71392e-05
3.71375e-05
3.7137e-05
3.7135e-05
3.71334e-05
3.71313e-05
3.71258e-05
3.71202e-05
3.71149e-05
3.71091e-05
3.71011e-05
3.70952e-05
3.70888e-05
3.7081e-05
3.70844e-05
3.70103e-05
5.80858e-05
6.53902e-05
7.4283e-05
8.01747e-05
7.32124e-05
5.61237e-05
3.89362e-05
3.43441e-05
3.46851e-05
3.56991e-05
3.66015e-05
3.7185e-05
3.73236e-05
3.75078e-05
3.76683e-05
3.76613e-05
3.77164e-05
3.78995e-05
3.80792e-05
3.82475e-05
3.84884e-05
3.87671e-05
3.90416e-05
3.92055e-05
3.93221e-05
3.94459e-05
3.95079e-05
3.95087e-05
3.95096e-05
3.95429e-05
3.95713e-05
3.95931e-05
3.96075e-05
3.96229e-05
3.96395e-05
3.96629e-05
3.96871e-05
3.9713e-05
3.97402e-05
3.9769e-05
3.97927e-05
3.98157e-05
3.98347e-05
3.98537e-05
3.987e-05
3.98861e-05
3.99038e-05
3.99173e-05
3.99288e-05
3.99366e-05
3.99455e-05
3.99528e-05
3.99605e-05
3.9967e-05
3.99786e-05
3.99889e-05
3.9998e-05
4.00035e-05
4.00075e-05
4.00102e-05
4.00127e-05
4.00136e-05
4.0016e-05
4.00166e-05
4.00177e-05
4.00183e-05
4.00141e-05
4.00089e-05
4.00043e-05
3.99989e-05
3.99905e-05
3.99842e-05
3.99787e-05
3.99684e-05
3.99801e-05
3.98801e-05
7.36143e-05
8.3944e-05
9.216e-05
8.56081e-05
6.56996e-05
4.28204e-05
3.60009e-05
3.62246e-05
3.75226e-05
3.85974e-05
3.9138e-05
3.90934e-05
3.92925e-05
3.93511e-05
3.91808e-05
3.92083e-05
3.9376e-05
3.95148e-05
3.96605e-05
3.99509e-05
4.02842e-05
4.06076e-05
4.08103e-05
4.09976e-05
4.11792e-05
4.12694e-05
4.12808e-05
4.13017e-05
4.13613e-05
4.1409e-05
4.14449e-05
4.14707e-05
4.14968e-05
4.15243e-05
4.15611e-05
4.16004e-05
4.16425e-05
4.16862e-05
4.17318e-05
4.1771e-05
4.18094e-05
4.18427e-05
4.18755e-05
4.19047e-05
4.19331e-05
4.1964e-05
4.19901e-05
4.20133e-05
4.2031e-05
4.20494e-05
4.20654e-05
4.20813e-05
4.20951e-05
4.21148e-05
4.21334e-05
4.21506e-05
4.21628e-05
4.21726e-05
4.218e-05
4.21866e-05
4.21908e-05
4.21967e-05
4.22005e-05
4.22049e-05
4.2209e-05
4.22067e-05
4.22021e-05
4.21982e-05
4.21932e-05
4.21845e-05
4.21774e-05
4.21731e-05
4.21596e-05
4.21806e-05
4.20505e-05
9.31988e-05
0.000103949
9.85746e-05
7.68e-05
4.7373e-05
3.76636e-05
3.77399e-05
3.93962e-05
4.05994e-05
4.09659e-05
4.05734e-05
4.07795e-05
4.06163e-05
4.01545e-05
4.01325e-05
4.02231e-05
4.02472e-05
4.0319e-05
4.06523e-05
4.10181e-05
4.13641e-05
4.15902e-05
4.18695e-05
4.21173e-05
4.22347e-05
4.22542e-05
4.2304e-05
4.2395e-05
4.24636e-05
4.25129e-05
4.25494e-05
4.25855e-05
4.26239e-05
4.26747e-05
4.27318e-05
4.27939e-05
4.28579e-05
4.29241e-05
4.29824e-05
4.30402e-05
4.30918e-05
4.3142e-05
4.3188e-05
4.32323e-05
4.328e-05
4.33225e-05
4.33611e-05
4.33922e-05
4.34229e-05
4.34501e-05
4.34764e-05
4.34993e-05
4.35289e-05
4.35577e-05
4.35848e-05
4.36056e-05
4.36225e-05
4.36358e-05
4.36473e-05
4.36553e-05
4.36652e-05
4.36728e-05
4.36808e-05
4.36891e-05
4.36893e-05
4.36856e-05
4.36821e-05
4.36774e-05
4.36683e-05
4.36599e-05
4.36565e-05
4.36391e-05
4.36692e-05
4.35035e-05
0.00011534
0.000111966
8.95335e-05
5.30923e-05
4.00052e-05
4.04148e-05
4.27597e-05
4.37304e-05
4.33673e-05
4.22175e-05
4.23779e-05
4.17799e-05
4.08225e-05
4.07266e-05
4.06273e-05
4.04169e-05
4.03327e-05
4.06937e-05
4.10439e-05
4.13591e-05
4.15723e-05
4.19663e-05
4.2282e-05
4.24182e-05
4.24375e-05
4.25283e-05
4.26551e-05
4.27431e-05
4.28024e-05
4.28463e-05
4.28894e-05
4.29365e-05
4.30005e-05
4.30781e-05
4.31648e-05
4.32535e-05
4.33446e-05
4.34265e-05
4.35082e-05
4.35829e-05
4.36551e-05
4.37224e-05
4.3787e-05
4.38556e-05
4.3919e-05
4.39774e-05
4.40259e-05
4.40724e-05
4.41137e-05
4.41528e-05
4.41869e-05
4.42279e-05
4.42687e-05
4.43077e-05
4.4339e-05
4.43647e-05
4.43849e-05
4.4402e-05
4.44143e-05
4.44283e-05
4.44401e-05
4.4452e-05
4.44646e-05
4.44679e-05
4.4465e-05
4.44616e-05
4.44567e-05
4.44467e-05
4.44362e-05
4.44331e-05
4.4411e-05
4.44489e-05
4.42381e-05
0.000126075
0.000125585
0.000103827
6.08209e-05
4.54938e-05
4.5822e-05
4.89113e-05
4.98192e-05
4.88074e-05
4.68471e-05
4.53598e-05
4.35592e-05
4.16586e-05
4.14349e-05
4.09334e-05
4.02915e-05
3.99221e-05
4.02832e-05
4.05239e-05
4.071e-05
4.08383e-05
4.13693e-05
4.17382e-05
4.18702e-05
4.18702e-05
4.20182e-05
4.21823e-05
4.22835e-05
4.23443e-05
4.23877e-05
4.24307e-05
4.24813e-05
4.25555e-05
4.26561e-05
4.27729e-05
4.28915e-05
4.30124e-05
4.31228e-05
4.32341e-05
4.3338e-05
4.34377e-05
4.35322e-05
4.36226e-05
4.37167e-05
4.38062e-05
4.38895e-05
4.39605e-05
4.40269e-05
4.40856e-05
4.41403e-05
4.41879e-05
4.42418e-05
4.42963e-05
4.43492e-05
4.43931e-05
4.44291e-05
4.44575e-05
4.44808e-05
4.44978e-05
4.45159e-05
4.45316e-05
4.45473e-05
4.4564e-05
4.45705e-05
4.45682e-05
4.45642e-05
4.45581e-05
4.45462e-05
4.45324e-05
4.45282e-05
4.45003e-05
4.45431e-05
4.42732e-05
0.000135816
0.000139134
0.000119473
7.31925e-05
5.42046e-05
5.38711e-05
5.76694e-05
5.86353e-05
5.70549e-05
5.43154e-05
5.14298e-05
4.84105e-05
4.54281e-05
4.35896e-05
4.19359e-05
4.04157e-05
3.95183e-05
3.98208e-05
3.97733e-05
3.96541e-05
3.95625e-05
4.02485e-05
4.06223e-05
4.06974e-05
4.0637e-05
4.08642e-05
4.10607e-05
4.11593e-05
4.12045e-05
4.12318e-05
4.12605e-05
4.13037e-05
4.13809e-05
4.15071e-05
4.16614e-05
4.18157e-05
4.19718e-05
4.2117e-05
4.2265e-05
4.24057e-05
4.25399e-05
4.26689e-05
4.2792e-05
4.29174e-05
4.30388e-05
4.3153e-05
4.32522e-05
4.33437e-05
4.3424e-05
4.34976e-05
4.35614e-05
4.36299e-05
4.36996e-05
4.37682e-05
4.38268e-05
4.38749e-05
4.39125e-05
4.39425e-05
4.39641e-05
4.39858e-05
4.40049e-05
4.40235e-05
4.40432e-05
4.40523e-05
4.405e-05
4.4044e-05
4.40348e-05
4.40195e-05
4.40003e-05
4.39924e-05
4.39573e-05
4.39998e-05
0.000144142
0.000152183
0.000136164
9.01953e-05
6.63515e-05
6.45347e-05
6.89541e-05
7.00892e-05
6.80201e-05
6.45187e-05
6.03914e-05
5.62003e-05
5.20932e-05
4.88212e-05
4.59466e-05
4.33967e-05
4.14517e-05
4.0479e-05
3.95458e-05
3.87071e-05
3.81093e-05
3.89485e-05
3.92035e-05
3.91086e-05
3.89035e-05
3.92389e-05
3.94472e-05
3.95067e-05
3.95029e-05
3.94846e-05
3.94724e-05
3.94874e-05
3.95541e-05
3.97085e-05
3.99104e-05
4.01074e-05
4.03052e-05
4.04927e-05
4.06867e-05
4.08744e-05
4.10524e-05
4.12255e-05
4.13902e-05
4.15537e-05
4.17137e-05
4.18654e-05
4.19998e-05
4.21227e-05
4.22296e-05
4.23259e-05
4.24092e-05
4.24941e-05
4.25804e-05
4.26663e-05
4.27415e-05
4.28029e-05
4.28505e-05
4.28873e-05
4.29131e-05
4.29372e-05
4.2958e-05
4.29773e-05
4.29976e-05
4.30071e-05
4.30031e-05
4.29925e-05
4.29772e-05
4.29551e-05
4.29271e-05
4.29116e-05
4.28665e-05
4.29011e-05
0.000150545
0.000164155
0.000153467
0.000112339
8.22709e-05
7.80596e-05
8.29087e-05
8.42237e-05
8.16629e-05
7.74232e-05
7.21513e-05
6.68524e-05
6.16271e-05
5.7046e-05
5.29701e-05
4.93231e-05
4.62823e-05
4.40536e-05
4.20703e-05
4.03213e-05
3.89111e-05
3.85907e-05
3.81574e-05
3.75643e-05
3.70131e-05
3.74819e-05
3.76389e-05
3.75792e-05
3.74595e-05
3.73383e-05
3.72346e-05
3.71825e-05
3.72135e-05
3.73999e-05
3.76652e-05
3.7913e-05
3.81604e-05
3.84001e-05
3.8653e-05
3.89019e-05
3.91363e-05
3.93665e-05
3.95846e-05
3.97943e-05
3.99999e-05
4.01962e-05
4.03735e-05
4.05354e-05
4.06746e-05
4.07978e-05
4.09041e-05
4.10073e-05
4.1111e-05
4.12151e-05
4.13077e-05
4.13831e-05
4.14404e-05
4.14827e-05
4.15111e-05
4.15347e-05
4.15537e-05
4.15697e-05
4.15856e-05
4.15908e-05
4.15806e-05
4.15609e-05
4.1534e-05
4.14994e-05
4.14567e-05
4.14266e-05
4.13667e-05
4.13819e-05
0.000154422
0.000174315
0.000170773
0.000139462
0.000102553
9.50205e-05
9.99785e-05
0.000101364
9.82295e-05
9.3227e-05
8.68028e-05
8.03894e-05
7.40013e-05
6.81622e-05
6.29094e-05
5.81399e-05
5.39865e-05
5.05505e-05
4.74634e-05
4.46844e-05
4.23231e-05
4.08525e-05
3.9586e-05
3.83954e-05
3.73346e-05
3.69651e-05
3.6501e-05
3.60059e-05
3.55716e-05
3.5203e-05
3.48947e-05
3.46938e-05
3.46372e-05
3.48604e-05
3.52135e-05
3.55208e-05
3.58273e-05
3.61328e-05
3.64627e-05
3.67925e-05
3.71003e-05
3.74051e-05
3.76912e-05
3.79553e-05
3.82129e-05
3.84593e-05
3.86859e-05
3.8894e-05
3.90708e-05
3.92243e-05
3.93559e-05
3.94778e-05
3.9598e-05
3.97188e-05
3.98272e-05
3.99138e-05
3.99773e-05
4.00208e-05
4.00465e-05
4.00635e-05
4.00734e-05
4.00775e-05
4.00795e-05
4.00701e-05
4.00445e-05
4.00062e-05
3.99574e-05
3.98996e-05
3.98318e-05
3.97753e-05
3.96916e-05
3.96698e-05
0.000155057
0.00018178
0.000187261
0.000166523
0.000128005
0.000116326
0.000120796
0.000121994
0.000118219
0.000112412
0.000104742
9.71449e-05
8.94928e-05
8.23395e-05
7.58491e-05
6.98655e-05
6.4521e-05
5.98545e-05
5.55957e-05
5.16921e-05
4.82734e-05
4.56822e-05
4.3536e-05
4.17314e-05
4.0104e-05
3.89673e-05
3.78395e-05
3.67962e-05
3.59438e-05
3.52265e-05
3.46141e-05
3.41859e-05
3.3962e-05
3.39876e-05
3.41733e-05
3.44095e-05
3.46944e-05
3.50101e-05
3.53904e-05
3.57815e-05
3.614e-05
3.65052e-05
3.68467e-05
3.71432e-05
3.74258e-05
3.7687e-05
3.79257e-05
3.81461e-05
3.83274e-05
3.84775e-05
3.8604e-05
3.8715e-05
3.88217e-05
3.89299e-05
3.90242e-05
3.90922e-05
3.9133e-05
3.91501e-05
3.91472e-05
3.91324e-05
3.91076e-05
3.90741e-05
3.90349e-05
3.89832e-05
3.89162e-05
3.88343e-05
3.87394e-05
3.86337e-05
3.85179e-05
3.84106e-05
3.82836e-05
3.8193e-05
0.000151549
0.000185562
0.000201884
0.000192676
0.000159857
0.000143118
0.000146408
0.00014686
0.000142216
0.000135557
0.00012658
0.000117748
0.000108655
0.000100033
9.21547e-05
8.47789e-05
7.80866e-05
7.2078e-05
6.65204e-05
6.13468e-05
5.66927e-05
5.28692e-05
4.97319e-05
4.73214e-05
4.51336e-05
4.33675e-05
4.1625e-05
4.00335e-05
3.87679e-05
3.76529e-05
3.66683e-05
3.59461e-05
3.55079e-05
3.53254e-05
3.53455e-05
3.55e-05
3.57668e-05
3.6114e-05
3.65773e-05
3.7065e-05
3.75064e-05
3.79703e-05
3.83998e-05
3.87532e-05
3.90851e-05
3.93874e-05
3.96683e-05
3.99385e-05
4.01609e-05
4.03426e-05
4.0497e-05
4.06271e-05
4.07473e-05
4.08632e-05
4.09589e-05
4.10206e-05
4.10484e-05
4.10463e-05
4.10181e-05
4.09714e-05
4.09086e-05
4.08319e-05
4.07435e-05
4.06389e-05
4.05186e-05
4.03799e-05
4.02239e-05
4.00534e-05
3.98714e-05
3.96907e-05
3.94957e-05
3.9309e-05
0.000143111
0.000184664
0.000213374
0.000217481
0.000199495
0.000176651
0.000178551
0.000177435
0.000171377
0.000163649
0.000153148
0.000142942
0.000132213
0.000121942
0.000112422
0.000103384
9.51132e-05
8.75722e-05
8.05232e-05
7.38825e-05
6.77646e-05
6.24507e-05
5.79857e-05
5.48143e-05
5.2039e-05
4.98302e-05
4.76102e-05
4.55314e-05
4.39312e-05
4.24269e-05
4.10264e-05
3.99742e-05
3.92942e-05
3.88803e-05
3.87129e-05
3.87538e-05
3.89899e-05
3.93805e-05
3.99469e-05
4.05504e-05
4.10961e-05
4.16931e-05
4.22416e-05
4.26714e-05
4.30758e-05
4.34503e-05
4.38151e-05
4.41939e-05
4.4519e-05
4.47941e-05
4.50362e-05
4.52377e-05
4.54167e-05
4.55821e-05
4.57162e-05
4.58047e-05
4.58497e-05
4.58565e-05
4.58276e-05
4.57685e-05
4.56832e-05
4.55754e-05
4.54477e-05
4.52973e-05
4.51231e-05
4.49231e-05
4.46992e-05
4.44548e-05
4.41952e-05
4.39302e-05
4.36528e-05
4.33541e-05
0.000129625
0.00017825
0.00022028
0.000239881
0.000238249
0.000217829
0.000219109
0.0002157
0.000207572
0.000198257
0.000185713
0.000173802
0.000161065
0.000148827
0.000137382
0.000126358
0.000116204
0.000106873
9.80782e-05
8.97299e-05
8.19285e-05
7.49083e-05
6.87835e-05
6.38342e-05
5.96582e-05
5.68308e-05
5.40431e-05
5.13853e-05
4.95258e-05
4.76563e-05
4.58332e-05
4.44768e-05
4.35849e-05
4.29423e-05
4.25749e-05
4.24825e-05
4.26985e-05
4.31711e-05
4.39092e-05
4.47182e-05
4.54713e-05
4.63792e-05
4.72591e-05
4.79887e-05
4.87322e-05
4.94149e-05
5.00289e-05
5.06374e-05
5.11608e-05
5.16167e-05
5.20229e-05
5.23591e-05
5.26509e-05
5.29135e-05
5.3128e-05
5.32814e-05
5.33787e-05
5.34257e-05
5.34224e-05
5.33734e-05
5.32845e-05
5.31618e-05
5.30086e-05
5.28226e-05
5.26027e-05
5.23466e-05
5.20572e-05
5.17389e-05
5.13993e-05
5.10472e-05
5.06824e-05
5.02642e-05
0.00011202
0.000165851
0.000221031
0.000258264
0.000273931
0.000267583
0.000269725
0.000263331
0.00025262
0.000241127
0.000225795
0.000211638
0.000196339
0.000181663
0.000167883
0.000154485
0.00014211
0.00013066
0.000119795
0.000109439
9.96973e-05
9.07835e-05
8.28355e-05
7.6037e-05
7.01686e-05
6.54909e-05
6.12963e-05
5.7641e-05
5.55285e-05
5.32169e-05
5.08781e-05
4.9208e-05
4.81001e-05
4.71663e-05
4.65125e-05
4.61876e-05
4.63257e-05
4.68483e-05
4.77135e-05
4.86793e-05
4.96021e-05
5.08321e-05
5.20479e-05
5.30681e-05
5.41662e-05
5.51773e-05
5.60648e-05
5.69506e-05
5.77204e-05
5.84057e-05
5.90279e-05
5.95493e-05
6.00075e-05
6.04235e-05
6.07744e-05
6.10495e-05
6.12588e-05
6.14078e-05
6.14929e-05
6.15179e-05
6.14902e-05
6.14172e-05
6.1303e-05
6.11467e-05
6.09479e-05
6.07047e-05
6.04198e-05
6.00973e-05
5.97441e-05
5.93689e-05
5.89733e-05
5.84879e-05
9.24647e-05
0.000147458
0.00021402
0.000270558
0.000305599
0.000317234
0.000330685
0.00032169
0.000308356
0.000293952
0.00027495
0.000257917
0.000239374
0.000221671
0.000205031
0.000188756
0.000173762
0.000159766
0.00014642
0.000133676
0.00012166
0.00011058
0.000100592
9.18248e-05
8.41502e-05
7.76587e-05
7.19411e-05
6.6914e-05
6.30838e-05
5.96228e-05
5.64291e-05
5.43675e-05
5.29857e-05
5.16139e-05
5.05178e-05
4.98026e-05
4.97896e-05
5.03092e-05
5.12e-05
5.22171e-05
5.32259e-05
5.47838e-05
5.63205e-05
5.7599e-05
5.90688e-05
6.04204e-05
6.15861e-05
6.27863e-05
6.38348e-05
6.47841e-05
6.56613e-05
6.64021e-05
6.70647e-05
6.76731e-05
6.81956e-05
6.86276e-05
6.89855e-05
6.92729e-05
6.94815e-05
6.96154e-05
6.96838e-05
6.96948e-05
6.96517e-05
6.95548e-05
6.94051e-05
6.92017e-05
6.89471e-05
6.8645e-05
6.83014e-05
6.79249e-05
6.75183e-05
6.69734e-05
7.36875e-05
0.000124254
0.000197953
0.000274399
0.000331421
0.000363181
0.000389141
0.00039105
0.000375849
0.000358345
0.000335163
0.000314504
0.000291885
0.000270428
0.000250273
0.000230476
0.000212314
0.000195223
0.000178882
0.000163273
0.000148552
0.000134934
0.000122593
0.000111633
0.000101961
9.35631e-05
8.6174e-05
7.96481e-05
7.41947e-05
6.94425e-05
6.52005e-05
6.18241e-05
5.91492e-05
5.68396e-05
5.49769e-05
5.36036e-05
5.33645e-05
5.37983e-05
5.45048e-05
5.53758e-05
5.63136e-05
5.82058e-05
6.00023e-05
6.14585e-05
6.33176e-05
6.50022e-05
6.64208e-05
6.79672e-05
6.93098e-05
7.05442e-05
7.17056e-05
7.26872e-05
7.35837e-05
7.44165e-05
7.51374e-05
7.57543e-05
7.62916e-05
7.67477e-05
7.71091e-05
7.73821e-05
7.75783e-05
7.77045e-05
7.77624e-05
7.77529e-05
7.76789e-05
7.75408e-05
7.73413e-05
7.70838e-05
7.67736e-05
7.64181e-05
7.60219e-05
7.54241e-05
5.93189e-05
9.96894e-05
0.000172508
0.000267467
0.000348717
0.000404145
0.000443549
0.000457506
0.000451734
0.000435144
0.000407334
0.000382723
0.00035541
0.000329547
0.000305197
0.000281109
0.000259101
0.000238233
0.000218252
0.000199165
0.000181171
0.000164499
0.000149359
0.000135855
0.000123903
0.00011341
0.000104172
9.60171e-05
8.89666e-05
8.28082e-05
7.73467e-05
7.26766e-05
6.87129e-05
6.53085e-05
6.24964e-05
6.02716e-05
5.89488e-05
5.83674e-05
5.82981e-05
5.86001e-05
5.91556e-05
6.13939e-05
6.32716e-05
6.47221e-05
6.69835e-05
6.8942e-05
7.05274e-05
7.24467e-05
7.40649e-05
7.55804e-05
7.70378e-05
7.82576e-05
7.94039e-05
8.04817e-05
8.14135e-05
8.22339e-05
8.29745e-05
8.36219e-05
8.41578e-05
8.45953e-05
8.49473e-05
8.52173e-05
8.54042e-05
8.55096e-05
8.55381e-05
8.54912e-05
8.5372e-05
8.51838e-05
8.49317e-05
8.46215e-05
8.42588e-05
8.36144e-05
5.16663e-05
7.83606e-05
0.000142955
0.000248702
0.000354366
0.000435729
0.000492383
0.000519493
0.000523733
0.00051339
0.000490736
0.000463883
0.000431203
0.000400247
0.000371022
0.000341834
0.000315288
0.000289905
0.000265577
0.000242326
0.000220402
0.000200053
0.000181555
0.000165041
0.000150414
0.000137525
0.000126173
0.000116146
0.000107373
9.97085e-05
9.29216e-05
8.69626e-05
8.17263e-05
7.71514e-05
7.32313e-05
6.99671e-05
6.75455e-05
6.59466e-05
6.50234e-05
6.46729e-05
6.47193e-05
6.57402e-05
6.68433e-05
6.78166e-05
7.04718e-05
7.25123e-05
7.40554e-05
7.63787e-05
7.81805e-05
7.99279e-05
8.16624e-05
8.30707e-05
8.44593e-05
8.57794e-05
8.69066e-05
8.79318e-05
8.88861e-05
8.9732e-05
9.04505e-05
9.10681e-05
9.15968e-05
9.2032e-05
9.23699e-05
9.26139e-05
9.27698e-05
9.28393e-05
9.28252e-05
9.27308e-05
9.25611e-05
9.2321e-05
9.20152e-05
9.13315e-05
4.89526e-05
6.34502e-05
0.000114563
0.000219512
0.000345608
0.000454507
0.00053254
0.000575328
0.000590875
0.000588107
0.000571462
0.000547463
0.000516868
0.000484001
0.000449349
0.000414172
0.000382358
0.000351623
0.000322148
0.000293946
0.000267337
0.000242575
0.000220049
0.000199942
0.000182111
0.00016637
0.000152513
0.000140285
0.000129563
0.000120253
0.000112047
0.000104738
9.81497e-05
9.23108e-05
8.71723e-05
8.27174e-05
7.91317e-05
7.64946e-05
7.47027e-05
7.36318e-05
7.31098e-05
7.32643e-05
7.36806e-05
7.41785e-05
7.54422e-05
7.65322e-05
7.75012e-05
8.02813e-05
8.20009e-05
8.38552e-05
8.57982e-05
8.72556e-05
8.88446e-05
9.03613e-05
9.16139e-05
9.28166e-05
9.39696e-05
9.49909e-05
9.58736e-05
9.66692e-05
9.73795e-05
9.79851e-05
9.84823e-05
9.88785e-05
9.918e-05
9.93857e-05
9.94968e-05
9.95168e-05
9.94513e-05
9.9304e-05
9.90777e-05
4.80501e-05
5.50348e-05
9.04574e-05
0.00018332
0.000320974
0.000456367
0.000559625
0.000621865
0.000651177
0.00065782
0.000648099
0.000628324
0.000600891
0.000569327
0.000534793
0.000498346
0.000461975
0.000425035
0.000389518
0.000355477
0.000323327
0.000293311
0.000266
0.000241636
0.000219967
0.000200813
0.000183943
0.000169053
0.000155926
0.000144419
0.000134335
0.000125653
0.000117948
0.000110894
0.000104448
9.86248e-05
9.36958e-05
8.99013e-05
8.7145e-05
8.52919e-05
8.41721e-05
8.37128e-05
8.36475e-05
8.37659e-05
8.41841e-05
8.44992e-05
8.47503e-05
8.5726e-05
8.63631e-05
8.80367e-05
9.00283e-05
9.12163e-05
9.29313e-05
9.45217e-05
9.57293e-05
9.70447e-05
9.83375e-05
9.94532e-05
0.000100438
0.00010138
0.000102246
0.000102995
0.000103632
0.000104174
0.000104623
0.000104971
0.000105214
0.000105358
0.00010541
0.00010537
0.000105241
4.76537e-05
5.09206e-05
7.21646e-05
0.000143822
0.000280875
0.000437365
0.000568197
0.000654373
0.000701069
0.00071987
0.0007189
0.000704941
0.000681646
0.000652529
0.000619393
0.000583554
0.000546533
0.000508232
0.000469071
0.000428556
0.000389908
0.000353674
0.000320748
0.000291399
0.000265168
0.000241962
0.000221491
0.000203397
0.000187402
0.000173335
0.000160919
0.000150025
0.00014036
0.000131721
0.000124069
0.000117234
0.000111213
0.000106217
0.000102342
9.95604e-05
9.77526e-05
9.67604e-05
9.63618e-05
9.62611e-05
9.62504e-05
9.61213e-05
9.58928e-05
9.57886e-05
9.54491e-05
9.54892e-05
9.57585e-05
9.58081e-05
9.75625e-05
9.89384e-05
9.97462e-05
0.000101092
0.000102391
0.000103416
0.000104378
0.000105395
0.000106339
0.000107141
0.000107853
0.000108502
0.000109072
0.000109537
0.000109891
0.000110145
0.000110307
0.000110375
0.000110346
4.84034e-05
6.00212e-05
0.000109454
0.000229725
0.000395445
0.000552365
0.000666376
0.000735218
0.000769995
0.000780609
0.000774771
0.000757285
0.000732017
0.000701372
0.000667049
0.000630605
0.000592505
0.00055304
0.000511642
0.000468627
0.000425176
0.000385752
0.000350635
0.000319004
0.000291062
0.000266334
0.000244426
0.000225001
0.000207914
0.000192764
0.000179388
0.000167497
0.000156866
0.000147374
0.000138894
0.000131389
0.000124999
0.000119877
0.000116091
0.000113587
0.000112182
0.000111575
0.00011135
0.000111142
0.000110869
0.000110478
0.000109846
0.000108871
0.000107893
0.000106919
0.000105804
0.000105357
0.000105009
0.000104594
0.000105956
0.000106965
0.00010752
0.000108285
0.000109264
0.000110114
0.000110774
0.000111441
0.000112116
0.000112729
0.000113232
0.000113623
0.00011393
0.000114164
0.000114309
0.000114359
4.77736e-05
5.3285e-05
8.36352e-05
0.000175762
0.000332844
0.000507371
0.000650341
0.000746362
0.000802046
0.000828191
0.000833687
0.000824522
0.000805164
0.000778638
0.000747095
0.000712313
0.000675246
0.000636433
0.000595744
0.000553203
0.000508632
0.000462549
0.000420802
0.000382775
0.000349428
0.00031971
0.000293351
0.000269889
0.000249211
0.000230812
0.000214542
0.00020005
0.000187079
0.000175476
0.000165095
0.000155838
0.000147735
0.000140896
0.000135473
0.000131593
0.000129294
0.000128315
0.000128148
0.000128287
0.000128373
0.000128097
0.000127237
0.000125957
0.000124484
0.000122748
0.000120774
0.000118949
0.000117214
0.000115483
0.000114475
0.000113647
0.000112856
0.000113294
0.000114064
0.000114455
0.000114604
0.000115088
0.000115675
0.000116175
0.000116539
0.000116806
0.00011706
0.000117288
0.000117436
0.000117495
4.74655e-05
4.98605e-05
6.65439e-05
0.000127335
0.000257314
0.000432396
0.00059932
0.000725481
0.000807702
0.000854516
0.00087565
0.000878297
0.000867735
0.000847687
0.000820833
0.000789286
0.00075444
0.000717176
0.000677801
0.000636547
0.000593472
0.000548659
0.000503299
0.000457672
0.000418404
0.000382824
0.000351378
0.000323199
0.000298334
0.000276089
0.000256444
0.000238889
0.000223138
0.000209043
0.000196428
0.00018513
0.000175105
0.000166392
0.000159105
0.000153405
0.000149442
0.000147278
0.000146621
0.00014686
0.000147368
0.000147623
0.000147285
0.000146292
0.000144658
0.000142411
0.000139871
0.000137273
0.000134589
0.000131851
0.000129343
0.000127036
0.000124849
0.000123202
0.000121916
0.000120776
0.000119715
0.000120085
0.000120412
0.000120475
0.000120353
0.000120231
0.000120317
0.000120432
0.000120449
0.000120377
4.71345e-05
4.83424e-05
5.6675e-05
9.21359e-05
0.000182859
0.000334792
0.000510143
0.000663772
0.000776554
0.000850028
0.000892313
0.000911416
0.000913542
0.000903215
0.00088375
0.000857693
0.000826889
0.000792603
0.00075555
0.000716237
0.000675029
0.000632269
0.000588674
0.000543991
0.000499389
0.000456697
0.00041969
0.000385944
0.00035638
0.00032952
0.000305957
0.000284861
0.000265878
0.000248886
0.000233623
0.000219898
0.000207658
0.00019688
0.000187601
0.000179936
0.000174048
0.000170164
0.000168182
0.00016793
0.000168536
0.000169131
0.000169224
0.000168638
0.000167327
0.000165286
0.000162647
0.000159547
0.000156135
0.000152654
0.000149236
0.000145895
0.000142646
0.000139634
0.000136857
0.000134302
0.000131916
0.000130117
0.00012859
0.00012722
0.000125934
0.000125093
0.000125099
0.000124964
0.000124597
0.000124133
4.68376e-05
4.77083e-05
5.13502e-05
6.95895e-05
0.000122091
0.000231185
0.000388822
0.000556277
0.000698399
0.000803015
0.00087266
0.000914117
0.000934009
0.000937716
0.000929292
0.000911825
0.000887657
0.000858485
0.00082544
0.000789343
0.000750835
0.000710498
0.000669046
0.000626715
0.000584201
0.000541738
0.00049946
0.000458865
0.000424365
0.000392006
0.000363987
0.000338654
0.000315853
0.000295594
0.000277366
0.000260814
0.000245975
0.000232874
0.00022144