/*--------------------------------*- C++ -*----------------------------------*\
| =========                 |                                                 |
| \\      /  F ield         | OpenFOAM: The Open Source CFD Toolbox           |
|  \\    /   O peration     | Version:  2412                                  |
|   \\  /    A nd           | Website:  www.openfoam.com                      |
|    \\/     M anipulation  |                                                 |
\*---------------------------------------------------------------------------*/
FoamFile
{
    version     2.0;
    format      ascii;
    arch        "LSB;label=32;scalar=64";
    class       volVectorField;
    location    "20";
    object      U;
}
// * * * * * * * * * * * * * * * * * * * * * * * * * * * * * * * * * * * * * //

dimensions      [0 1 -1 0 0 0 0];

internalField   nonuniform List<vector> 
8553
(
(0.036911 0.202241 0)
(0.256762 0.592187 -2.62263e-20)
(0.6935 0.924836 1.33882e-20)
(1.42726 1.25897 -1.27891e-23)
(2.6 1.47898 0)
(4.18509 1.32226 1.3561e-23)
(5.33974 0.625259 -1.02552e-23)
(5.45787 -0.057881 -2.29528e-21)
(4.98037 -0.282523 -1.76697e-24)
(4.52842 -0.221222 0)
(4.36028 -0.169177 -6.9518e-21)
(4.26375 -0.134562 3.01002e-21)
(4.21301 -0.116385 0)
(4.19681 -0.115448 0)
(4.19218 -0.129935 -5.3822e-25)
(4.183 -0.144838 5.12906e-25)
(4.16892 -0.15496 3.63324e-21)
(4.15092 -0.159587 -3.22587e-21)
(4.12954 -0.157969 -3.44943e-25)
(4.11069 -0.15269 2.61984e-21)
(4.09656 -0.148746 4.80869e-21)
(4.08594 -0.146796 -8.89262e-21)
(4.07812 -0.14711 -2.54561e-25)
(4.07119 -0.148875 -3.80959e-21)
(4.06396 -0.150266 -3.51903e-21)
(4.05656 -0.151009 3.25278e-21)
(4.04928 -0.151061 3.0153e-21)
(4.04277 -0.150998 -5.60842e-21)
(4.03707 -0.151202 0)
(4.03199 -0.151703 0)
(4.0272 -0.152371 4.56211e-21)
(4.0227 -0.153026 -1.29493e-25)
(4.01852 -0.153654 4.00042e-21)
(4.01454 -0.154287 -7.50939e-21)
(4.01085 -0.15499 -1.08538e-25)
(4.00755 -0.155775 1.01055e-25)
(4.00451 -0.15662 9.51888e-26)
(4.0016 -0.15751 -5.90968e-21)
(3.9989 -0.158448 6.53607e-29)
(3.99648 -0.159444 -1.05662e-20)
(3.99419 -0.160497 -7.61569e-26)
(3.99205 -0.161608 -9.49225e-21)
(3.99001 -0.162775 0)
(3.98817 -0.164003 0)
(3.98649 -0.165291 8.15234e-21)
(3.9849 -0.166639 -6.05622e-26)
(3.98341 -0.168049 5.66069e-26)
(3.9821 -0.169523 -1.41393e-20)
(3.98088 -0.171059 5.1467e-26)
(3.97968 -0.172656 2.78913e-27)
(3.97857 -0.174319 1.23713e-20)
(3.97759 -0.176048 0)
(3.97666 -0.177842 -1.13698e-20)
(3.97581 -0.179702 0)
(3.97505 -0.181629 2.0971e-20)
(3.97434 -0.183621 -2.0164e-20)
(3.9737 -0.18568 1.94036e-20)
(3.97307 -0.187802 0)
(3.97245 -0.189988 3.43192e-26)
(3.97194 -0.192243 -5.90049e-29)
(3.97151 -0.194567 1.67648e-20)
(3.97105 -0.196954 3.08585e-26)
(3.9707 -0.199411 3.13017e-20)
(3.97035 -0.201934 3.02747e-20)
(3.97004 -0.204524 -2.79685e-26)
(3.9698 -0.207182 -2.83764e-20)
(3.9695 -0.209902 6.03533e-26)
(3.96925 -0.212687 -2.54522e-26)
(3.9691 -0.215541 -2.46487e-26)
(3.96895 -0.218457 -2.51161e-20)
(3.96878 -0.221439 4.57925e-29)
(3.96866 -0.22449 2.26388e-26)
(3.96854 -0.227608 4.61257e-20)
(3.96847 -0.230792 -4.48834e-20)
(3.9684 -0.234038 8.73985e-20)
(3.9684 -0.237352 4.25709e-20)
(3.96838 -0.240735 4.14947e-20)
(3.9684 -0.244189 0)
(3.56641 -1.17426 -4.53026e-24)
(3.54783 -1.18185 -3.8899e-20)
(3.53982 -1.17872 -5.02635e-24)
(3.5569 -1.16888 -2.64183e-25)
(3.60208 -1.15491 -2.17752e-20)
(3.69586 -1.14417 4.15013e-20)
(3.97728 -1.1967 3.41644e-20)
(4.20573 -1.47951 -4.48769e-25)
(3.79216 -1.90378 2.24165e-24)
(2.71461 -2.09213 1.28017e-20)
(1.51632 -1.78084 -1.05393e-24)
(0.678543 -1.24785 0)
(0.241653 -0.797453 -3.13462e-20)
(0.0169477 -0.303479 -9.49717e-21)
(0.0167675 0.136086 0)
(0.184825 0.812384 0)
(0.963059 2.1141 4.31022e-20)
(2.4393 3.18357 -2.29448e-20)
(4.73615 4.1242 -1.15353e-19)
(8.14183 4.58099 0)
(12.2732 3.85176 4.23674e-23)
(14.9964 1.73414 4.01733e-20)
(15.1017 -0.163876 -3.59802e-21)
(13.8538 -0.776208 3.89394e-24)
(12.7472 -0.614609 -3.76063e-24)
(12.3241 -0.474535 5.52366e-21)
(12.08 -0.379263 1.13715e-24)
(11.9512 -0.329318 -4.3308e-21)
(11.9074 -0.32746 -3.98836e-21)
(11.8893 -0.368552 1.76968e-24)
(11.8596 -0.41057 -8.21557e-25)
(11.8176 -0.439061 -5.82501e-21)
(11.766 -0.452033 5.17774e-21)
(11.7072 -0.44747 -9.2679e-21)
(11.6559 -0.432655 -5.26638e-25)
(11.617 -0.421602 -7.74329e-21)
(11.5873 -0.41616 7.16798e-21)
(11.5647 -0.417086 4.01014e-25)
(11.5442 -0.422068 1.23096e-20)
(11.523 -0.425987 1.13826e-20)
(11.5017 -0.428079 -5.26536e-21)
(11.4809 -0.428227 -2.95506e-25)
(11.4622 -0.42805 -9.0951e-21)
(11.4456 -0.428624 -2.61193e-25)
(11.4307 -0.430036 -2.40337e-25)
(11.4167 -0.431919 -7.4168e-21)
(11.4036 -0.433766 0)
(11.3913 -0.435533 0)
(11.3798 -0.437321 0)
(11.369 -0.439308 1.83451e-25)
(11.3593 -0.44152 1.08401e-20)
(11.3502 -0.443903 -3.12067e-25)
(11.3417 -0.446415 1.58381e-25)
(11.3338 -0.449065 -1.82523e-20)
(11.3265 -0.451874 1.72775e-20)
(11.3197 -0.454847 1.25304e-25)
(11.3134 -0.457986 3.10735e-20)
(11.3074 -0.461285 1.12352e-25)
(11.3019 -0.464754 -1.4035e-20)
(11.2968 -0.468393 0)
(11.292 -0.472205 -1.1645e-25)
(11.2876 -0.476189 9.2841e-26)
(11.2835 -0.480352 -2.31996e-20)
(11.2797 -0.484689 8.44807e-26)
(11.276 -0.489205 4.24347e-20)
(11.2727 -0.493906 2.03191e-20)
(11.2696 -0.498793 7.42152e-26)
(11.2668 -0.503867 -1.55019e-28)
(11.2641 -0.509125 -6.85133e-26)
(11.2616 -0.514571 -3.44818e-20)
(11.2593 -0.520203 3.31631e-20)
(11.2572 -0.526022 -3.192e-20)
(11.2552 -0.532021 3.07471e-20)
(11.2533 -0.538206 -2.96394e-20)
(11.2515 -0.54458 0)
(11.25 -0.551147 -5.52053e-20)
(11.2485 -0.557898 -2.66656e-20)
(11.2472 -0.564842 -5.15561e-20)
(11.2459 -0.571972 -4.98727e-20)
(11.2447 -0.579295 -9.21592e-26)
(11.2437 -0.586805 1.67235e-25)
(11.2426 -0.594496 4.53197e-20)
(11.2417 -0.602372 -4.39508e-20)
(11.2409 -0.610435 0)
(11.2401 -0.618676 8.2821e-20)
(11.2393 -0.627104 0)
(11.2387 -0.635728 0)
(11.238 -0.644536 0)
(11.2375 -0.653531 7.0533e-26)
(11.237 -0.662707 -2.55121e-25)
(11.2366 -0.672069 6.70529e-26)
(11.2361 -0.681622 -6.84646e-20)
(11.2358 -0.691378 0)
(10.1503 -3.34165 -5.98149e-20)
(10.1027 -3.36498 -9.77024e-24)
(10.0789 -3.35624 -3.81361e-26)
(10.1192 -3.32621 5.85624e-24)
(10.2333 -3.28292 0)
(10.4682 -3.24594 -6.62354e-20)
(11.1692 -3.36745 -2.70652e-20)
(11.7725 -4.13652 -7.2838e-21)
(10.7899 -5.39659 0)
(7.98071 -6.1122 -2.08553e-20)
(4.65044 -5.41095 1.53425e-24)
(2.17748 -3.93173 6.19255e-20)
(0.798585 -2.52053 5.07567e-20)
(0.0899042 -0.965287 0)
(0.0679013 0.413116 0)
(0.36835 1.50921 5.90279e-23)
(1.75545 3.76107 -4.71468e-20)
(4.32934 5.58134 0)
(8.21372 7.07984 6.14107e-20)
(13.6764 7.61941 1.34753e-19)
(19.7326 6.1327 0)
(23.3538 2.67475 -8.51626e-20)
(23.2271 -0.243747 3.84248e-21)
(21.3608 -1.17788 -1.18568e-24)
(19.8124 -0.943365 4.05446e-24)
(19.2108 -0.734392 -1.39253e-24)
(18.8608 -0.589294 1.3407e-24)
(18.6773 -0.513397 -3.5192e-25)
(18.6124 -0.511515 4.03686e-25)
(18.5791 -0.575714 0)
(18.5282 -0.64107 -8.4433e-25)
(18.4598 -0.685333 8.06273e-25)
(18.3778 -0.705435 0)
(18.2877 -0.698374 1.01882e-20)
(18.2104 -0.675466 0)
(18.1516 -0.658402 -8.53501e-21)
(18.1064 -0.650048 -1.19335e-26)
(18.0714 -0.651569 -4.53926e-25)
(18.0392 -0.65936 -1.36162e-20)
(18.0058 -0.66548 -1.26035e-20)
(17.9725 -0.668758 1.1053e-26)
(17.9403 -0.669018 5.42053e-21)
(17.9114 -0.668773 3.17578e-27)
(17.8856 -0.669693 -9.43267e-21)
(17.8623 -0.671913 5.42567e-25)
(17.8405 -0.674867 0)
(17.8199 -0.677763 -4.69438e-25)
(17.8007 -0.680528 8.86731e-25)
(17.7828 -0.683335 -8.33359e-25)
(17.7661 -0.68645 1.28461e-20)
(17.7509 -0.689911 -1.21062e-20)
(17.7366 -0.693636 3.50103e-25)
(17.7233 -0.697566 1.07909e-20)
(17.7109 -0.701708 3.57139e-25)
(17.6993 -0.706094 1.93329e-20)
(17.6886 -0.710739 -2.78966e-25)
(17.6786 -0.715643 -1.73989e-20)
(17.6692 -0.720801 -2.52927e-25)
(17.6605 -0.726218 1.57289e-20)
(17.6524 -0.7319 -1.49787e-20)
(17.6448 -0.737852 -2.84116e-25)
(17.6377 -0.744073 4.15879e-25)
(17.6312 -0.750569 2.60311e-20)
(17.625 -0.75734 2.48889e-20)
(17.6192 -0.764393 -4.76386e-20)
(17.6138 -0.771732 -2.28164e-20)
(17.6087 -0.779358 -1.6671e-25)
(17.604 -0.787276 3.48289e-28)
(17.5996 -0.795482 1.53963e-25)
(17.5955 -0.80398 -3.8751e-20)
(17.5917 -0.812767 -1.42066e-25)
(17.5881 -0.821847 1.37016e-25)
(17.5847 -0.831208 -3.45711e-20)
(17.5815 -0.840861 3.33308e-20)
(17.5785 -0.850804 0)
(17.5757 -0.861049 3.10492e-20)
(17.5731 -0.871585 5.99976e-20)
(17.5707 -0.882415 0)
(17.5683 -0.893538 5.61204e-20)
(17.5662 -0.904957 5.43293e-20)
(17.5641 -0.916669 5.26289e-20)
(17.5621 -0.928666 -9.72139e-26)
(17.5603 -0.940951 2.22263e-25)
(17.5586 -0.95352 9.16664e-26)
(17.557 -0.96637 -9.32498e-20)
(17.5554 -0.979513 4.53015e-20)
(17.5539 -0.992958 -4.40406e-20)
(17.5525 -1.00669 -1.63417e-25)
(17.5511 -1.02072 1.59044e-25)
(17.5499 -1.03502 -3.56457e-25)
(17.5488 -1.04961 -7.55286e-26)
(17.5475 -1.0645 0)
(17.5466 -1.0797 0)
(15.9116 -5.23808 1.31131e-19)
(15.8424 -5.27626 6.85703e-20)
(15.8018 -5.26202 0)
(15.8528 -5.21196 -3.76839e-20)
(16.0139 -5.13999 3.79871e-20)
(16.3429 -5.07509 3.59488e-20)
(17.3277 -5.23714 0)
(18.2401 -6.41025 -1.54076e-22)
(16.9617 -8.45464 1.63294e-24)
(12.8961 -9.81379 4.48899e-22)
(7.7522 -8.93374 1.82273e-20)
(3.73132 -6.64019 1.74078e-22)
(1.39177 -4.26393 -5.55258e-20)
(0.188139 -1.65462 0)
(0.129949 0.639383 0)
(0.559993 2.11225 -1.02919e-22)
(2.4924 5.18032 5.84753e-23)
(6.02816 7.65061 0)
(11.3131 9.63534 0)
(18.4417 10.1705 -2.7649e-19)
(25.7342 7.92534 -1.91897e-19)
(29.6994 3.38182 4.44734e-20)
(29.2113 -0.286573 1.85093e-23)
(26.8813 -1.45183 -2.00688e-20)
(25.0775 -1.17717 3.52903e-24)
(24.3718 -0.924218 -6.43094e-21)
(23.9553 -0.74446 -5.61313e-21)
(23.7417 -0.650835 5.09241e-21)
(23.6645 -0.649723 4.70809e-21)
(23.6182 -0.731337 -4.30262e-21)
(23.5492 -0.814053 1.18711e-25)
(23.4589 -0.870026 3.39525e-24)
(23.3529 -0.895409 -6.19669e-21)
(23.2401 -0.886561 -5.56396e-21)
(23.1454 -0.857798 2.48653e-24)
(23.0739 -0.836425 -1.55342e-24)
(23.0192 -0.826047 -8.67972e-21)
(22.9765 -0.828126 9.97318e-25)
(22.9365 -0.838091 7.4892e-21)
(22.8951 -0.845917 6.93997e-21)
(22.8538 -0.850139 6.43634e-21)
(22.8142 -0.850549 -2.38799e-26)
(22.7787 -0.850321 2.43532e-26)
(22.7471 -0.851563 1.04342e-20)
(22.7185 -0.854446 9.76661e-21)
(22.6917 -0.858255 0)
(22.6665 -0.861987 -8.58195e-21)
(22.6429 -0.865548 -5.73252e-27)
(22.6209 -0.869162 -4.65379e-25)
(22.6005 -0.873166 4.33923e-25)
(22.5817 -0.877602 1.34685e-20)
(22.5642 -0.882372 0)
(22.5478 -0.887402 1.20212e-20)
(22.5325 -0.892697 1.13772e-20)
(22.5183 -0.8983 -2.15607e-20)
(22.505 -0.904231 -2.0453e-20)
(22.4927 -0.910489 -1.94228e-20)
(22.4811 -0.917069 0)
(22.4703 -0.923977 1.75736e-20)
(22.4602 -0.931217 1.4803e-25)
(22.4507 -0.9388 -1.41108e-25)
(22.4419 -0.946725 3.04828e-20)
(22.4336 -0.954999 2.21902e-25)
(22.4259 -0.96362 -5.57162e-20)
(22.4186 -0.972599 5.33369e-20)
(22.4118 -0.98194 0)
(22.4053 -0.991645 2.45049e-20)
(22.3993 -1.00172 0)
(22.3936 -1.01216 0)
(22.3883 -1.02297 3.77255e-25)
(22.3833 -1.03414 4.17959e-20)
(22.3786 -1.04569 4.02439e-20)
(22.3741 -1.05759 0)
(22.3698 -1.06987 0)
(22.3658 -1.08251 -3.60849e-20)
(22.3621 -1.09553 -1.33042e-25)
(22.3584 -1.10892 -4.12153e-25)
(22.355 -1.12269 -6.51204e-20)
(22.3518 -1.13683 0)
(22.3487 -1.15134 -6.10088e-20)
(22.3457 -1.16622 -1.12835e-25)
(22.3428 -1.18146 0)
(22.3401 -1.19707 1.11159e-19)
(22.3375 -1.21304 -1.02796e-25)
(22.335 -1.22936 5.23875e-20)
(22.3326 -1.24606 -5.09055e-20)
(22.3303 -1.26313 5.89398e-25)
(22.3279 -1.28058 -9.62931e-20)
(22.3257 -1.29839 0)
(22.3236 -1.31655 -9.12735e-20)
(22.3216 -1.33507 1.69451e-25)
(22.3194 -1.35398 8.67063e-20)
(22.3176 -1.37328 0)
(20.2812 -6.67607 -7.13565e-20)
(20.197 -6.72573 -1.81948e-23)
(20.1389 -6.70608 0)
(20.1873 -6.63818 4.08458e-20)
(20.3714 -6.54195 -4.11152e-20)
(20.7452 -6.45256 1.97552e-23)
(21.8797 -6.63351 0)
(23.0268 -8.10179 8.52648e-21)
(21.7009 -10.7864 1.41934e-20)
(16.9397 -12.8098 1.10234e-20)
(10.4592 -11.9273 5.74056e-22)
(5.15094 -9.0127 -7.08599e-20)
(1.96101 -5.7964 -1.67809e-23)
(0.319405 -2.29585 1.85654e-20)
(0.201651 0.748735 3.4079e-23)
(0.738828 2.51802 4.07603e-20)
(3.09031 6.19874 -1.29214e-22)
(7.37328 9.17951 -2.78762e-20)
(13.7683 11.561 1.03994e-22)
(22.1192 12.0536 1.36013e-21)
(30.0532 9.16786 1.95182e-19)
(34.0024 3.85827 4.55919e-20)
(33.1182 -0.291539 -2.00327e-23)
(30.4631 -1.60349 4.20157e-20)
(28.5384 -1.31718 8.41974e-25)
(27.7842 -1.04369 1.37217e-20)
(27.3305 -0.844027 6.00931e-21)
(27.1052 -0.740784 0)
(27.0235 -0.74101 -5.06931e-21)
(26.9679 -0.83419 4.63928e-21)
(26.8848 -0.928194 1.982e-24)
(26.778 -0.991758 7.51761e-21)
(26.6545 -1.02055 2.85946e-25)
(26.5267 -1.01064 6.04637e-21)
(26.4221 -0.97826 1.32661e-24)
(26.3445 -0.954285 1.01972e-20)
(26.2859 -0.942769 9.48103e-21)
(26.2402 -0.945356 1.06502e-24)
(26.1968 -0.956841 -1.01476e-24)
(26.1515 -0.965867 0)
(26.1064 -0.970789 0)
(26.0633 -0.97138 -2.86365e-26)
(26.0251 -0.971253 2.45883e-20)
(25.9911 -0.972791 6.97149e-25)
(25.9604 -0.97619 -1.07828e-20)
(25.9317 -0.980634 -1.01118e-20)
(25.9046 -0.984982 1.8986e-20)
(25.8793 -0.989132 -8.92351e-21)
(25.8557 -0.993338 0)
(25.8339 -0.997988 -1.58397e-20)
(25.8138 -1.00312 -1.49485e-20)
(25.795 -1.00863 0)
(25.7775 -1.01444 -1.33611e-20)
(25.7611 -1.02055 -3.87564e-25)
(25.7459 -1.027 0)
(25.7317 -1.03383 2.27756e-20)
(25.7184 -1.04102 4.32807e-20)
(25.7059 -1.04858 -3.13399e-25)
(25.6943 -1.05651 -1.95993e-20)
(25.6834 -1.06482 2.4881e-25)
(25.6732 -1.07352 -1.78228e-20)
(25.6636 -1.08261 -3.40423e-20)
(25.6546 -1.0921 2.48668e-25)
(25.6462 -1.10197 3.11338e-20)
(25.6382 -1.11226 -2.98145e-20)
(25.6307 -1.12296 2.85758e-20)
(25.6237 -1.13407 -2.74131e-20)
(25.617 -1.1456 -2.6319e-20)
(25.6107 -1.15755 3.86294e-25)
(25.6048 -1.16992 9.7274e-20)
(25.5991 -1.18271 -6.01509e-25)
(25.5938 -1.19592 -4.50795e-20)
(25.5886 -1.20953 -4.34473e-20)
(25.5838 -1.22357 0)
(25.5791 -1.23803 5.09872e-25)
(25.5748 -1.25292 0)
(25.5705 -1.26823 -3.77564e-20)
(25.5664 -1.28396 1.46061e-19)
(25.5626 -1.30012 2.69837e-25)
(25.5588 -1.31671 0)
(25.5552 -1.33372 0)
(25.5517 -1.35114 -6.42966e-20)
(25.5483 -1.36897 -6.23764e-20)
(25.545 -1.38722 0)
(25.5418 -1.40587 0)
(25.5386 -1.42494 0)
(25.5356 -1.44444 1.11144e-19)
(25.5325 -1.46437 1.08131e-19)
(25.5296 -1.48471 0)
(25.5266 -1.50545 0)
(25.5239 -1.5266 1.90337e-25)
(25.5209 -1.54819 -1.33577e-24)
(25.5183 -1.57023 1.81031e-25)
(23.1898 -7.63295 0)
(23.0954 -7.68982 0)
(23.0205 -7.66519 4.24182e-20)
(23.056 -7.58283 -8.79456e-20)
(23.2431 -7.46825 -2.05666e-23)
(23.6222 -7.36082 2.10941e-23)
(24.8013 -7.5475 1.021e-23)
(26.1024 -9.20365 -9.80463e-21)
(24.8767 -12.3358 -1.48742e-20)
(19.9296 -14.9764 9.19247e-21)
(12.6062 -14.2014 9.50384e-22)
(6.34919 -10.8873 7.39313e-20)
(2.47555 -7.02159 6.2799e-20)
(0.477872 -2.85683 -1.98122e-20)
(0.279249 0.7184 0)
(0.901157 2.70174 -4.28659e-20)
(3.54118 6.79428 0)
(8.36529 10.1653 2.828e-20)
(15.5613 12.842 0)
(24.7719 13.3192 1.36456e-19)
(32.9334 9.94314 1.91553e-19)
(36.6888 4.15673 -4.72639e-20)
(35.4407 -0.26014 -3.92887e-23)
(32.5729 -1.65762 -2.17751e-20)
(30.6027 -1.3841 8.71172e-21)
(29.8282 -1.10783 3.44548e-24)
(29.3528 -0.899776 -6.39746e-21)
(29.1254 -0.792973 0)
(29.0424 -0.795213 5.43041e-21)
(28.9792 -0.895159 -1.31107e-25)
(28.8844 -0.995578 1.99263e-24)
(28.7638 -1.06342 -8.10391e-21)
(28.6265 -1.09409 7.25311e-21)
(28.4882 -1.08366 -6.53959e-21)
(28.3781 -1.04942 -2.87578e-24)
(28.298 -1.02417 -1.10757e-20)
(28.2388 -1.01218 5.04226e-24)
(28.1928 -1.0152 -2.37802e-24)
(28.1484 -1.02764 0)
(28.1016 -1.03742 8.32398e-21)
(28.055 -1.04282 0)
(28.0108 -1.04359 -7.21834e-21)
(27.972 -1.0436 -2.69894e-20)
(27.9378 -1.04538 1.2647e-20)
(27.907 -1.04915 -1.45979e-24)
(27.8781 -1.05403 2.28269e-25)
(27.8509 -1.0588 -1.04717e-20)
(27.8254 -1.06335 1.70452e-25)
(27.8018 -1.06796 -1.85721e-20)
(27.7801 -1.07304 1.7524e-20)
(27.76 -1.07864 1.65538e-20)
(27.7412 -1.08464 0)
(27.7237 -1.09095 0)
(27.7074 -1.09757 0)
(27.6922 -1.10457 -2.66521e-20)
(27.678 -1.11196 -2.53142e-20)
(27.6647 -1.11975 -2.40695e-20)
(27.6523 -1.12793 7.00841e-25)
(27.6407 -1.1365 0)
(27.6297 -1.14548 2.08116e-20)
(27.6195 -1.15487 -1.9866e-20)
(27.6099 -1.16468 3.79622e-20)
(27.6009 -1.17492 5.53149e-25)
(27.5923 -1.18557 3.47481e-20)
(27.5843 -1.19666 5.07335e-25)
(27.5767 -1.2082 -3.19199e-20)
(27.5695 -1.22017 -4.67961e-25)
(27.5627 -1.2326 2.94188e-20)
(27.5562 -1.24547 0)
(27.5501 -1.2588 -9.22055e-25)
(27.5442 -1.27256 -5.2367e-20)
(27.5387 -1.28678 -3.8525e-25)
(27.5333 -1.30144 8.11941e-25)
(27.5283 -1.31656 4.69188e-20)
(27.5233 -1.33212 4.52976e-20)
(27.5187 -1.34814 -3.34143e-25)
(27.5141 -1.36462 -3.22474e-25)
(27.5097 -1.38155 -1.63679e-19)
(27.5055 -1.39894 0)
(27.5014 -1.41678 -2.92433e-25)
(27.4974 -1.43507 2.83892e-25)
(27.4934 -1.45381 1.15276e-24)
(27.4896 -1.473 0)
(27.4859 -1.49261 -6.79186e-20)
(27.4822 -1.51267 6.59762e-20)
(27.4786 -1.53317 -2.44856e-25)
(27.475 -1.55415 -6.23623e-20)
(27.4715 -1.57558 -1.21356e-19)
(27.468 -1.59744 -2.25577e-25)
(27.4645 -1.61974 0)
(27.4612 -1.64247 1.12154e-19)
(27.4576 -1.66567 -1.68994e-24)
(27.4544 -1.68937 1.06696e-19)
(24.9065 -8.19718 0)
(24.8056 -8.25766 8.66602e-20)
(24.7168 -8.22902 -9.11818e-20)
(24.735 -8.13626 4.72242e-20)
(24.9128 -8.00942 -4.67132e-23)
(25.2758 -7.8924 3.81889e-23)
(26.4385 -8.07661 -3.84101e-23)
(27.8079 -9.84018 2.11959e-20)
(26.704 -13.2229 1.30117e-20)
(21.9972 -16.3857 -9.35681e-21)
(14.1867 -15.7664 1.30104e-21)
(7.32351 -12.2726 4.38138e-22)
(2.93601 -7.9413 -6.42967e-20)
(0.662699 -3.33357 0)
(0.364287 0.558317 -9.02705e-23)
(1.04894 2.69014 4.45403e-20)
(3.88032 7.04543 5.51929e-20)
(9.0934 10.7436 -2.90628e-20)
(16.8318 13.5864 2.27517e-22)
(26.6451 14.1199 -1.2913e-19)
(34.8059 10.3904 -1.89965e-19)
(38.3039 4.34108 0)
(36.7575 -0.199899 0)
(33.7625 -1.64912 -2.22931e-20)
(31.7774 -1.40266 -9.04657e-21)
(30.9886 -1.1353 -7.62798e-21)
(30.4959 -0.926553 -5.13795e-24)
(30.2678 -0.82011 -5.93e-24)
(30.1819 -0.8251 -5.75542e-21)
(30.1102 -0.928411 -5.0217e-24)
(30.003 -1.03191 2.92475e-25)
(29.8686 -1.10175 4.37183e-24)
(29.718 -1.13327 -7.77043e-21)
(29.5703 -1.12261 -3.35557e-24)
(29.4553 -1.0877 6.44691e-21)
(29.3733 -1.06202 1.19512e-20)
(29.3138 -1.04996 -1.1149e-20)
(29.2678 -1.05329 -2.51346e-24)
(29.2225 -1.06626 2.40295e-24)
(29.1744 -1.07645 -9.04665e-21)
(29.1265 -1.08211 8.42611e-21)
(29.0816 -1.08302 1.90373e-24)
(29.0425 -1.08316 1.47392e-20)
(29.0084 -1.08513 -3.12294e-25)
(28.9777 -1.08913 -1.29959e-20)
(28.949 -1.09427 1.22173e-20)
(28.9219 -1.0993 1.14984e-20)
(28.8965 -1.10409 1.08337e-20)
(28.8731 -1.10895 4.0883e-20)
(28.8517 -1.11429 1.93083e-20)
(28.8319 -1.12016 0)
(28.8134 -1.12644 0)
(28.7962 -1.13304 9.96122e-25)
(28.7801 -1.13997 1.55324e-20)
(28.7651 -1.14729 2.95032e-20)
(28.7512 -1.15501 2.8043e-20)
(28.7381 -1.16313 -2.6681e-20)
(28.7259 -1.17166 -2.54136e-20)
(28.7145 -1.1806 7.41035e-25)
(28.7037 -1.18996 2.31171e-20)
(28.6937 -1.19975 4.74384e-25)
(28.6842 -1.20997 -1.54668e-24)
(28.6753 -1.22062 1.90135e-27)
(28.6669 -1.23171 -3.8681e-20)
(28.6589 -1.24326 3.70742e-20)
(28.6514 -1.25526 0)
(28.6442 -1.26772 0)
(28.6374 -1.28064 3.28042e-20)
(28.631 -1.29403 3.15413e-20)
(28.6249 -1.30789 -1.25801e-24)
(28.6189 -1.3222 -5.84547e-20)
(28.6134 -1.33699 -8.59578e-25)
(28.6079 -1.35223 1.109e-24)
(28.6028 -1.36794 -5.24222e-20)
(28.5977 -1.38411 -3.86558e-25)
(28.593 -1.40076 3.72904e-25)
(28.5883 -1.41789 4.72991e-20)
(28.5837 -1.43548 9.15311e-20)
(28.5793 -1.45354 8.86151e-20)
(28.575 -1.47208 0)
(28.5708 -1.49108 0)
(28.5666 -1.51055 1.61414e-19)
(28.5626 -1.53048 -7.83205e-20)
(28.5586 -1.55086 7.6051e-20)
(28.5546 -1.57169 -7.38891e-20)
(28.5507 -1.59299 5.48519e-25)
(28.5468 -1.61477 0)
(28.543 -1.63702 1.35972e-19)
(28.5391 -1.65973 -5.05546e-25)
(28.5353 -1.68288 0)
(28.5316 -1.70649 -1.8944e-24)
(28.5277 -1.73058 -1.22593e-19)
(28.524 -1.75518 -1.19617e-19)
(25.8089 -8.49315 8.91853e-20)
(25.7047 -8.55493 -9.24921e-20)
(25.6064 -8.52373 9.71551e-20)
(25.6087 -8.42478 -8.73951e-25)
(25.7732 -8.29127 -2.98551e-24)
(26.1171 -8.17417 -6.85444e-24)
(27.2302 -8.37368 -3.99402e-23)
(28.5997 -10.1513 8.25065e-22)
(27.6259 -13.6523 -1.34249e-20)
(23.3116 -17.2521 -5.64559e-21)
(15.2929 -16.7076 -2.20394e-20)
(8.10538 -13.2292 -7.49438e-20)
(3.35709 -8.60651 0)
(0.873097 -3.74054 2.11396e-20)
(0.460052 0.298864 5.02448e-20)
(1.19512 2.53534 -4.52968e-20)
(4.15624 7.05887 -5.42885e-20)
(9.66052 11.0162 5.70237e-20)
(17.7973 14.0024 0)
(28.0173 14.5803 1.23512e-19)
(36.0615 10.6331 1.72251e-22)
(39.2883 4.46238 4.71716e-20)
(37.5208 -0.116797 -4.30929e-21)
(34.4635 -1.6016 2.24638e-20)
(32.4725 -1.39244 0)
(31.6646 -1.14112 0)
(31.1538 -0.936097 7.04763e-21)
(30.9218 -0.83449 -6.48985e-21)
(30.8286 -0.840294 6.05482e-21)
(30.7455 -0.945762 0)
(30.6232 -1.05032 0)
(30.4731 -1.12072 4.32761e-24)
(30.308 -1.15252 -3.46468e-24)
(30.1499 -1.14193 0)
(30.0289 -1.10697 -1.3751e-20)
(29.9436 -1.08135 1.27753e-20)
(29.8824 -1.06942 1.19519e-20)
(29.8347 -1.07296 1.11928e-20)
(29.7872 -1.08615 -2.58592e-24)
(29.7366 -1.09649 -9.75421e-21)
(29.6863 -1.10226 -2.44075e-25)
(29.6396 -1.10325 -8.51705e-21)
(29.5993 -1.10347 -1.93539e-24)
(29.5643 -1.10554 -1.50216e-20)
(29.5329 -1.10967 1.41382e-20)
(29.5035 -1.11494 -1.33142e-20)
(29.4757 -1.12009 -1.25436e-20)
(29.4498 -1.125 1.18372e-20)
(29.426 -1.12998 -1.94086e-24)
(29.4042 -1.13545 -2.11523e-20)
(29.3841 -1.14146 2.00249e-20)
(29.3654 -1.14788 0)
(29.3479 -1.15464 0)
(29.3317 -1.16172 -1.7093e-20)
(29.3165 -1.16919 0)
(29.3024 -1.17707 3.09123e-20)
(29.2893 -1.18537 1.65462e-24)
(29.277 -1.19407 2.80611e-20)
(29.2655 -1.2032 8.15363e-25)
(29.2546 -1.21275 -2.20865e-24)
(29.2445 -1.22273 1.3645e-24)
(29.2349 -1.23315 -9.3495e-20)
(29.226 -1.24402 1.36808e-24)
(29.2175 -1.25534 -4.28848e-20)
(29.2094 -1.26711 -4.11273e-20)
(29.2018 -1.27935 0)
(29.1946 -1.29205 0)
(29.1877 -1.30523 -3.64429e-20)
(29.1812 -1.31888 -3.50588e-20)
(29.175 -1.333 -1.34994e-19)
(29.1689 -1.34759 1.57621e-24)
(29.1632 -1.36266 6.26838e-20)
(29.1577 -1.3782 6.04729e-20)
(29.1524 -1.39421 -5.83757e-20)
(29.1472 -1.41069 -5.63891e-20)
(29.1424 -1.42767 8.31022e-25)
(29.1375 -1.44512 -5.2722e-20)
(29.1328 -1.46304 7.79216e-25)
(29.1283 -1.48145 -9.88253e-20)
(29.1238 -1.50034 7.31209e-25)
(29.1194 -1.51971 7.07726e-25)
(29.115 -1.53955 -1.80137e-19)
(29.1108 -1.55985 8.74263e-20)
(29.1066 -1.58061 -8.49058e-20)
(29.1025 -1.60184 -6.30083e-25)
(29.0983 -1.62354 0)
(29.0942 -1.64573 0)
(29.0901 -1.6684 -1.51913e-19)
(29.0861 -1.69153 0)
(29.082 -1.71512 0)
(29.078 -1.73917 -1.40514e-19)
(29.0738 -1.76371 -5.2223e-25)
(29.0699 -1.78876 5.10745e-25)
(26.2293 -8.63028 9.77377e-23)
(26.1245 -8.69173 -4.77965e-23)
(26.0213 -8.65987 -5.11984e-20)
(26.0131 -8.5588 5.26798e-20)
(26.1657 -8.42351 0)
(26.4993 -8.31509 0)
(27.5392 -8.52024 3.72556e-20)
(28.8843 -10.2998 9.85681e-22)
(27.9878 -13.8245 -1.00153e-20)
(24.0992 -17.6853 5.56988e-21)
(16.0836 -17.2427 -8.91467e-23)
(8.75147 -13.8565 9.91783e-23)
(3.75836 -9.08632 -6.38873e-20)
(1.10832 -4.09491 -2.13005e-20)
(0.569499 -0.0272199 -5.18389e-20)
(1.35382 2.29796 0)
(4.42242 6.94516 1.37155e-22)
(10.1726 11.136 -2.75199e-20)
(18.6463 14.2506 4.87265e-20)
(29.1112 14.846 -1.11349e-19)
(36.9584 10.7541 1.63264e-22)
(39.916 4.55297 -1.03805e-21)
(38.0057 -0.0161924 8.45562e-21)
(34.938 -1.52728 -2.22874e-20)
(32.9464 -1.36526 0)
(32.113 -1.13476 0)
(31.5829 -0.936918 -7.25816e-21)
(31.3424 -0.84074 6.70698e-21)
(31.2364 -0.848796 -6.28779e-21)
(31.1385 -0.954868 -5.78933e-21)
(30.9982 -1.05937 1.00044e-23)
(30.8302 -1.12975 -6.20405e-25)
(30.6492 -1.16136 -7.98471e-24)
(30.4796 -1.15105 0)
(30.3508 -1.11649 1.45318e-20)
(30.2605 -1.09122 -2.70749e-20)
(30.1955 -1.07953 6.27915e-24)
(30.1442 -1.08319 4.63758e-24)
(30.0925 -1.09639 -1.1154e-20)
(30.0377 -1.10672 5.74359e-24)
(29.9834 -1.1125 -4.18386e-25)
(29.9334 -1.11351 9.14372e-21)
(29.8905 -1.11377 -7.42358e-26)
(29.8533 -1.11589 -3.9871e-24)
(29.8199 -1.12005 0)
(29.7886 -1.12536 1.43984e-20)
(29.759 -1.13054 1.36022e-20)
(29.7315 -1.13548 -1.28484e-20)
(29.7062 -1.1405 -6.64963e-24)
(29.6832 -1.14602 2.30301e-20)
(29.6619 -1.15207 -2.1829e-20)
(29.6421 -1.15854 -2.53975e-24)
(29.6237 -1.16534 0)
(29.6065 -1.17247 1.87025e-20)
(29.5905 -1.18 -3.5593e-20)
(29.5757 -1.18794 -3.39049e-20)
(29.5618 -1.19631 3.23185e-20)
(29.5488 -1.20508 0)
(29.5367 -1.21428 1.79368e-24)
(29.5253 -1.2239 -5.62894e-20)
(29.5146 -1.23397 5.3842e-20)
(29.5046 -1.24448 5.15456e-20)
(29.4951 -1.25543 0)
(29.4862 -1.26684 1.36157e-24)
(29.4778 -1.27871 4.54425e-20)
(29.4698 -1.29105 4.36411e-20)
(29.4621 -1.30386 1.2786e-24)
(29.4549 -1.31715 -2.4623e-24)
(29.4481 -1.33091 1.18616e-24)
(29.4416 -1.34516 1.49584e-19)
(29.4352 -1.35988 7.20854e-20)
(29.4292 -1.37507 -6.95251e-20)
(29.4234 -1.39074 0)
(29.4179 -1.40689 6.48003e-20)
(29.4125 -1.42352 6.26204e-20)
(29.4073 -1.44063 0)
(29.4022 -1.45823 0)
(29.3973 -1.47631 0)
(29.3925 -1.49488 1.09891e-19)
(29.3878 -1.51393 -8.11972e-25)
(29.3832 -1.53346 -1.03301e-19)
(29.3786 -1.55347 2.6513e-24)
(29.3742 -1.57395 9.73269e-20)
(29.3697 -1.59489 1.89095e-19)
(29.3654 -1.6163 7.00475e-25)
(29.361 -1.63819 8.93696e-20)
(29.3567 -1.66057 -6.62794e-25)
(29.3524 -1.68343 1.69315e-19)
(29.3481 -1.70676 -6.29738e-25)
(29.3438 -1.73055 -6.124e-25)
(29.3396 -1.75481 1.56689e-19)
(29.3352 -1.77956 1.52854e-19)
(29.3311 -1.80483 1.49184e-19)
(26.3976 -8.68392 -9.91407e-20)
(26.2931 -8.74511 -1.00084e-22)
(26.1887 -8.71289 -1.04302e-22)
(26.1766 -8.61358 -5.49961e-20)
(26.3222 -8.48055 1.07624e-22)
(26.6475 -8.38536 8.58934e-23)
(27.6219 -8.60148 -3.78901e-20)
(28.8854 -10.3594 -1.36953e-20)
(28.0605 -13.855 1.01993e-20)
(24.5495 -17.852 1.0295e-21)
(16.6952 -17.5279 -2.60435e-20)
(9.32822 -14.286 0)
(4.1613 -9.45071 -5.977e-23)
(1.36907 -4.41524 -1.52188e-22)
(0.696131 -0.390049 0)
(1.53915 2.03306 8.91051e-20)
(4.72404 6.79587 -2.30617e-22)
(10.7195 11.208 0)
(19.4789 14.4039 -4.49684e-20)
(30.0526 14.9878 3.01229e-21)
(37.6313 10.7975 1.57634e-19)
(40.328 4.6289 -4.65161e-20)
(38.3498 0.102781 -4.0846e-21)
(35.3156 -1.43456 2.17651e-20)
(33.3319 -1.32658 1.02932e-23)
(32.4695 -1.12069 0)
(31.9202 -0.932475 7.36473e-21)
(31.6668 -0.842849 -6.85933e-21)
(31.544 -0.853932 6.45194e-21)
(31.4279 -0.959769 1.6905e-23)
(31.2673 -1.06364 -1.09643e-23)
(31.0802 -1.13369 -9.88962e-21)
(30.8829 -1.16518 8.96431e-21)
(30.7011 -1.15528 -8.1906e-21)
(30.5636 -1.12146 -7.58403e-21)
(30.4668 -1.09672 -1.63403e-24)
(30.3963 -1.08532 0)
(30.3394 -1.08907 4.72742e-24)
(30.2818 -1.10215 1.17694e-20)
(30.2212 -1.11238 1.10403e-20)
(30.1617 -1.11812 -1.03522e-20)
(30.1072 -1.11913 0)
(30.0604 -1.11941 0)
(30.0197 -1.12154 4.19556e-24)
(29.9831 -1.12569 -4.0244e-24)
(29.9487 -1.13097 -3.75029e-24)
(29.9163 -1.13612 6.61672e-24)
(29.8862 -1.14105 -1.385e-20)
(29.8585 -1.14605 -2.62502e-20)
(29.8333 -1.15155 -4.98082e-20)
(29.81 -1.15759 -2.54136e-26)
(29.7883 -1.16405 -2.75572e-24)
(29.7681 -1.17084 0)
(29.7493 -1.17797 -6.87246e-25)
(29.7318 -1.18549 3.87882e-20)
(29.7155 -1.19344 4.51651e-24)
(29.7003 -1.2018 -3.53076e-20)
(29.6861 -1.21058 0)
(29.6728 -1.21979 0)
(29.6604 -1.22943 3.0844e-20)
(29.6487 -1.23951 -2.95328e-20)
(29.6377 -1.25003 0)
(29.6274 -1.26101 0)
(29.6177 -1.27244 1.04181e-19)
(29.6085 -1.28433 -5.00294e-20)
(29.5997 -1.2967 -9.61593e-20)
(29.5914 -1.30954 1.40965e-24)
(29.5836 -1.32287 -4.45059e-20)
(29.5761 -1.33667 1.30679e-24)
(29.569 -1.35095 -3.9062e-24)
(29.5622 -1.36571 -1.21464e-24)
(29.5557 -1.38096 -7.6884e-20)
(29.5494 -1.39667 0)
(29.5434 -1.41287 0)
(29.5375 -1.42955 0)
(29.532 -1.44672 6.70921e-20)
(29.5265 -1.46438 9.91834e-25)
(29.5212 -1.48252 1.25804e-19)
(29.5161 -1.50115 -2.43836e-19)
(29.511 -1.52026 0)
(29.506 -1.53986 1.14694e-19)
(29.5012 -1.55994 3.35701e-24)
(29.4964 -1.58049 -1.08128e-19)
(29.4917 -1.60151 -1.05073e-19)
(29.4871 -1.62299 -1.02156e-19)
(29.4824 -1.64495 -9.93739e-20)
(29.4778 -1.66741 9.6716e-20)
(29.4733 -1.69036 -1.4356e-24)
(29.4687 -1.71377 1.40149e-24)
(29.4642 -1.73765 -1.78866e-19)
(29.4598 -1.76199 -1.74438e-19)
(29.4552 -1.78683 -1.70206e-19)
(29.4508 -1.81219 -1.6615e-19)
(26.3419 -8.7582 -1.03993e-22)
(26.2383 -8.72658 1.07513e-22)
(26.2292 -8.63168 5.64993e-20)
(26.3716 -8.50402 1.10304e-22)
(26.6934 -8.42567 4.98432e-20)
(27.6109 -8.66233 0)
(28.7565 -10.379 8.37147e-24)
(27.9798 -13.8162 -5.45015e-21)
(24.7649 -17.8315 -9.76035e-22)
(17.2006 -17.6551 5.12393e-20)
(9.88507 -14.6054 6.86237e-20)
(4.58424 -9.75469 5.85816e-20)
(1.65623 -4.71442 -1.23776e-24)
(0.843926 -0.764817 -1.9286e-22)
(1.76662 1.78738 -1.69587e-19)
(5.10127 6.67898 0)
(11.3581 11.2962 0)
(20.3386 14.5032 3.62604e-20)
(30.8882 15.0326 9.26921e-20)
(38.1361 10.7833 -1.49408e-19)
(40.5896 4.69739 -4.36259e-20)
(38.6125 0.239458 -1.37233e-22)
(35.6498 -1.32537 0)
(33.6854 -1.27949 0)
(32.7937 -1.10068 -1.50792e-23)
(32.2265 -0.924578 1.52114e-23)
(31.9571 -0.84265 6.88943e-21)
(31.8144 -0.856533 0)
(31.6777 -0.962159 1.20628e-20)
(31.4959 -1.06513 1.1044e-20)
(31.2899 -1.1348 2.02018e-20)
(31.0769 -1.16627 -9.19308e-21)
(30.8834 -1.15714 6.97958e-24)
(30.7368 -1.12433 0)
(30.6325 -1.10031 1.46727e-20)
(30.5552 -1.0893 -1.38454e-20)
(30.4914 -1.09304 1.12048e-23)
(30.4268 -1.106 -6.08441e-24)
(30.3594 -1.11609 5.57928e-24)
(30.2938 -1.12177 -5.37859e-24)
(30.2339 -1.12279 1.02452e-20)
(30.1823 -1.1231 8.37132e-26)
(30.1373 -1.12521 1.8337e-20)
(30.0966 -1.12932 1.73642e-20)
(30.0583 -1.13455 3.99096e-24)
(30.0222 -1.13964 -1.56031e-20)
(29.9887 -1.14453 1.48058e-20)
(29.958 -1.14949 -2.81226e-20)
(29.9299 -1.15495 1.03861e-24)
(29.9038 -1.16095 0)
(29.8796 -1.16736 2.94529e-24)
(29.857 -1.17411 -2.82824e-24)
(29.8359 -1.1812 1.83445e-24)
(29.8164 -1.18869 -2.5723e-24)
(29.7982 -1.1966 0)
(29.7812 -1.20493 -3.20834e-24)
(29.7653 -1.21369 -3.66701e-20)
(29.7504 -1.22287 -4.29592e-24)
(29.7364 -1.23248 0)
(29.7233 -1.24254 3.22381e-20)
(29.7111 -1.25305 3.78245e-24)
(29.6995 -1.26401 -5.9385e-20)
(29.6886 -1.27542 -2.12339e-24)