/*--------------------------------*- C++ -*----------------------------------*\
| =========                 |                                                 |
| \\      /  F ield         | OpenFOAM: The Open Source CFD Toolbox           |
|  \\    /   O peration     | Version:  2412                                  |
|   \\  /    A nd           | Website:  www.openfoam.com                      |
|    \\/     M anipulation  |                                                 |
\*---------------------------------------------------------------------------*/
FoamFile
{
    version     2.0;
    format      ascii;
    arch        "LSB;label=32;scalar=64";
    class       volScalarField;
    location    "180";
    object      nuTilda;
}
// * * * * * * * * * * * * * * * * * * * * * * * * * * * * * * * * * * * * * //

dimensions      [0 2 -1 0 0 0 0];

internalField   nonuniform List<scalar> 
8553
(
1.44341e-06
1.4046e-06
1.34276e-06
8.51566e-07
9.97622e-07
1.19702e-06
2.22198e-06
2.55351e-06
2.42347e-06
2.26102e-06
2.18362e-06
2.13915e-06
2.1234e-06
2.12749e-06
2.13481e-06
2.1329e-06
2.12443e-06
2.11082e-06
2.09468e-06
2.08165e-06
2.07355e-06
2.0688e-06
2.06616e-06
2.06348e-06
2.0598e-06
2.05554e-06
2.05128e-06
2.04766e-06
2.0447e-06
2.04212e-06
2.03961e-06
2.03713e-06
2.03478e-06
2.03253e-06
2.03044e-06
2.02854e-06
2.02676e-06
2.02501e-06
2.02336e-06
2.02185e-06
2.0204e-06
2.01902e-06
2.01768e-06
2.01642e-06
2.01525e-06
2.01411e-06
2.01303e-06
2.01203e-06
2.01106e-06
2.01011e-06
2.0092e-06
2.00835e-06
2.00754e-06
2.00675e-06
2.006e-06
2.00529e-06
2.00461e-06
2.00394e-06
2.00325e-06
2.00263e-06
2.00206e-06
2.00148e-06
2.00094e-06
2.0004e-06
1.9999e-06
1.99942e-06
1.99891e-06
1.99843e-06
1.99801e-06
1.99758e-06
1.99715e-06
1.99675e-06
1.99634e-06
1.99596e-06
1.9956e-06
1.99529e-06
1.99506e-06
1.99492e-06
2.00791e-06
2.00752e-06
2.0125e-06
2.03785e-06
2.09334e-06
2.18949e-06
2.37687e-06
2.54653e-06
2.40158e-06
1.54284e-06
1.06988e-06
9.48739e-07
7.36429e-07
1.68149e-06
2.04959e-06
4.27925e-06
4.03898e-06
3.97326e-06
2.62697e-06
2.92286e-06
3.92049e-06
6.74833e-06
7.57813e-06
7.25877e-06
6.85981e-06
6.65546e-06
6.54041e-06
6.49991e-06
6.50943e-06
6.52491e-06
6.51619e-06
6.48991e-06
6.45039e-06
6.40541e-06
6.36928e-06
6.34649e-06
6.33282e-06
6.32461e-06
6.31612e-06
6.30494e-06
6.29234e-06
6.27992e-06
6.26928e-06
6.26045e-06
6.25266e-06
6.24511e-06
6.23767e-06
6.23061e-06
6.22394e-06
6.21774e-06
6.21201e-06
6.20661e-06
6.20138e-06
6.19647e-06
6.19188e-06
6.1875e-06
6.18337e-06
6.17939e-06
6.17562e-06
6.17207e-06
6.16867e-06
6.16544e-06
6.16237e-06
6.15941e-06
6.15658e-06
6.15387e-06
6.1513e-06
6.14888e-06
6.14651e-06
6.14423e-06
6.14207e-06
6.14002e-06
6.138e-06
6.13599e-06
6.13413e-06
6.13236e-06
6.13063e-06
6.12899e-06
6.12736e-06
6.12586e-06
6.12436e-06
6.12284e-06
6.12142e-06
6.12009e-06
6.11878e-06
6.11748e-06
6.11625e-06
6.115e-06
6.11383e-06
6.11274e-06
6.11176e-06
6.11104e-06
6.11059e-06
6.12838e-06
6.13186e-06
6.14823e-06
6.21664e-06
6.36408e-06
6.61895e-06
7.08587e-06
7.509e-06
7.22662e-06
4.94903e-06
3.13375e-06
2.88311e-06
2.22041e-06
4.97224e-06
5.72301e-06
7.00948e-06
6.48406e-06
6.47853e-06
4.76401e-06
4.74599e-06
7.49097e-06
1.12891e-05
1.24065e-05
1.20226e-05
1.15374e-05
1.12617e-05
1.11124e-05
1.10593e-05
1.10675e-05
1.10788e-05
1.10583e-05
1.10139e-05
1.0953e-05
1.08873e-05
1.0835e-05
1.08013e-05
1.07802e-05
1.0766e-05
1.07512e-05
1.07327e-05
1.07125e-05
1.0693e-05
1.06762e-05
1.06619e-05
1.06492e-05
1.06368e-05
1.06248e-05
1.06133e-05
1.06025e-05
1.05925e-05
1.05831e-05
1.05743e-05
1.05658e-05
1.05578e-05
1.05502e-05
1.05431e-05
1.05363e-05
1.05299e-05
1.05237e-05
1.05179e-05
1.05123e-05
1.0507e-05
1.0502e-05
1.04971e-05
1.04925e-05
1.04881e-05
1.04839e-05
1.04799e-05
1.0476e-05
1.04722e-05
1.04687e-05
1.04653e-05
1.0462e-05
1.04587e-05
1.04556e-05
1.04527e-05
1.04499e-05
1.04471e-05
1.04444e-05
1.04419e-05
1.04394e-05
1.04369e-05
1.04345e-05
1.04322e-05
1.043e-05
1.04279e-05
1.04258e-05
1.04237e-05
1.04217e-05
1.04199e-05
1.04182e-05
1.0417e-05
1.04162e-05
1.03831e-05
1.03987e-05
1.04294e-05
1.05261e-05
1.07277e-05
1.10765e-05
1.16655e-05
1.21972e-05
1.19416e-05
9.04262e-06
5.13477e-06
4.88549e-06
3.94594e-06
8.05689e-06
8.86241e-06
9.57341e-06
8.72509e-06
8.75499e-06
7.17276e-06
6.40188e-06
1.18494e-05
1.55661e-05
1.68732e-05
1.65486e-05
1.61129e-05
1.58256e-05
1.56786e-05
1.56238e-05
1.56233e-05
1.56199e-05
1.5585e-05
1.55255e-05
1.54511e-05
1.53757e-05
1.5316e-05
1.52764e-05
1.52502e-05
1.52305e-05
1.52098e-05
1.51853e-05
1.51595e-05
1.5135e-05
1.51137e-05
1.50953e-05
1.50785e-05
1.50624e-05
1.50466e-05
1.50317e-05
1.50177e-05
1.50047e-05
1.49924e-05
1.49808e-05
1.49697e-05
1.49592e-05
1.49493e-05
1.49399e-05
1.49311e-05
1.49226e-05
1.49145e-05
1.49068e-05
1.48995e-05
1.48925e-05
1.48859e-05
1.48795e-05
1.48734e-05
1.48676e-05
1.4862e-05
1.48566e-05
1.48515e-05
1.48465e-05
1.48417e-05
1.48372e-05
1.48328e-05
1.48285e-05
1.48243e-05
1.48204e-05
1.48166e-05
1.48128e-05
1.48092e-05
1.48058e-05
1.48023e-05
1.4799e-05
1.47958e-05
1.47926e-05
1.47896e-05
1.47867e-05
1.47838e-05
1.4781e-05
1.47782e-05
1.47756e-05
1.47733e-05
1.47716e-05
1.47704e-05
1.46078e-05
1.46418e-05
1.46894e-05
1.47998e-05
1.50164e-05
1.53907e-05
1.5959e-05
1.64576e-05
1.62768e-05
1.3489e-05
7.08124e-06
6.93557e-06
6.21401e-06
1.07887e-05
1.14514e-05
1.23908e-05
1.09948e-05
1.07902e-05
9.61856e-06
7.89201e-06
1.6465e-05
1.93868e-05
2.08992e-05
2.0739e-05
2.04526e-05
2.02069e-05
2.00908e-05
2.00412e-05
2.00263e-05
2.0003e-05
1.99551e-05
1.98865e-05
1.98089e-05
1.97352e-05
1.96772e-05
1.96372e-05
1.96089e-05
1.95854e-05
1.95604e-05
1.95324e-05
1.95038e-05
1.9477e-05
1.94536e-05
1.94331e-05
1.94141e-05
1.93958e-05
1.9378e-05
1.93612e-05
1.93454e-05
1.93307e-05
1.93168e-05
1.93036e-05
1.92911e-05
1.92792e-05
1.9268e-05
1.92573e-05
1.92472e-05
1.92375e-05
1.92283e-05
1.92195e-05
1.92111e-05
1.92032e-05
1.91956e-05
1.91883e-05
1.91812e-05
1.91746e-05
1.91681e-05
1.91619e-05
1.9156e-05
1.91502e-05
1.91447e-05
1.91394e-05
1.91342e-05
1.91291e-05
1.91243e-05
1.91196e-05
1.91151e-05
1.91107e-05
1.91064e-05
1.91022e-05
1.90982e-05
1.90942e-05
1.90903e-05
1.90865e-05
1.90828e-05
1.90792e-05
1.90757e-05
1.90722e-05
1.90688e-05
1.90657e-05
1.90628e-05
1.90608e-05
1.90592e-05
1.86737e-05
1.87288e-05
1.87946e-05
1.89072e-05
1.91064e-05
1.94459e-05
1.98841e-05
2.02304e-05
2.00771e-05
1.78098e-05
9.33841e-06
9.04326e-06
9.09637e-06
1.30808e-05
1.35015e-05
1.59788e-05
1.43314e-05
1.26345e-05
1.18902e-05
1.00055e-05
2.08974e-05
2.26075e-05
2.4444e-05
2.45247e-05
2.44514e-05
2.42909e-05
2.42252e-05
2.41852e-05
2.41533e-05
2.41101e-05
2.4054e-05
2.39853e-05
2.39159e-05
2.38552e-05
2.38075e-05
2.37728e-05
2.3746e-05
2.37211e-05
2.36947e-05
2.36666e-05
2.36388e-05
2.36133e-05
2.35909e-05
2.35709e-05
2.35521e-05
2.35339e-05
2.35163e-05
2.34997e-05
2.34842e-05
2.34697e-05
2.34559e-05
2.34429e-05
2.34305e-05
2.34187e-05
2.34075e-05
2.33969e-05
2.33868e-05
2.33772e-05
2.3368e-05
2.33592e-05
2.33508e-05
2.33428e-05
2.33351e-05
2.33277e-05
2.33207e-05
2.33139e-05
2.33073e-05
2.33011e-05
2.3295e-05
2.3289e-05
2.32833e-05
2.32778e-05
2.32724e-05
2.32672e-05
2.32621e-05
2.32572e-05
2.32524e-05
2.32477e-05
2.32431e-05
2.32386e-05
2.32342e-05
2.32298e-05
2.32256e-05
2.32214e-05
2.32173e-05
2.32134e-05
2.32095e-05
2.32056e-05
2.32018e-05
2.31983e-05
2.31951e-05
2.31928e-05
2.31907e-05
2.24763e-05
2.25511e-05
2.26342e-05
2.27403e-05
2.2897e-05
2.31516e-05
2.3384e-05
2.34928e-05
2.3232e-05
2.17341e-05
1.24529e-05
1.12241e-05
1.20386e-05
1.48939e-05
1.50424e-05
2.01923e-05
1.84425e-05
1.43322e-05
1.38984e-05
1.2831e-05
2.49139e-05
2.53107e-05
2.74889e-05
2.78479e-05
2.80193e-05
2.79768e-05
2.79729e-05
2.79457e-05
2.78977e-05
2.78397e-05
2.77834e-05
2.77255e-05
2.76763e-05
2.76392e-05
2.761e-05
2.75865e-05
2.75654e-05
2.75428e-05
2.75189e-05
2.74949e-05
2.74724e-05
2.74524e-05
2.74346e-05
2.74184e-05
2.74028e-05
2.73876e-05
2.73731e-05
2.73595e-05
2.73468e-05
2.73348e-05
2.73235e-05
2.73128e-05
2.73025e-05
2.72927e-05
2.72835e-05
2.72747e-05
2.72663e-05
2.72583e-05
2.72506e-05
2.72433e-05
2.72362e-05
2.72295e-05
2.7223e-05
2.72167e-05
2.72107e-05
2.72048e-05
2.71992e-05
2.71937e-05
2.71884e-05
2.71832e-05
2.71781e-05
2.71732e-05
2.71683e-05
2.71636e-05
2.71589e-05
2.71544e-05
2.71499e-05
2.71455e-05
2.71411e-05
2.71369e-05
2.71326e-05
2.71284e-05
2.71242e-05
2.712e-05
2.7116e-05
2.7112e-05
2.7108e-05
2.71041e-05
2.71002e-05
2.70966e-05
2.70935e-05
2.70911e-05
2.70883e-05
2.59231e-05
2.60125e-05
2.61091e-05
2.62014e-05
2.62975e-05
2.6428e-05
2.64114e-05
2.62374e-05
2.56611e-05
2.51033e-05
1.633e-05
1.34737e-05
1.48375e-05
1.64101e-05
1.74574e-05
2.48321e-05
2.30737e-05
1.59452e-05
1.56616e-05
1.64374e-05
2.83825e-05
2.75828e-05
3.00257e-05
3.06552e-05
3.10743e-05
3.11705e-05
3.12336e-05
3.12224e-05
3.11639e-05
3.11005e-05
3.10546e-05
3.10199e-05
3.10028e-05
3.0999e-05
3.09959e-05
3.09893e-05
3.09787e-05
3.09633e-05
3.09468e-05
3.09322e-05
3.092e-05
3.09101e-05
3.09013e-05
3.08928e-05
3.08841e-05
3.08756e-05
3.08677e-05
3.08603e-05
3.08535e-05
3.08471e-05
3.0841e-05
3.08352e-05
3.08296e-05
3.08244e-05
3.08194e-05
3.08146e-05
3.081e-05
3.08056e-05
3.08014e-05
3.07972e-05
3.07933e-05
3.07894e-05
3.07857e-05
3.0782e-05
3.07784e-05
3.07749e-05
3.07715e-05
3.07681e-05
3.07647e-05
3.07613e-05
3.07579e-05
3.07545e-05
3.07512e-05
3.07478e-05
3.07445e-05
3.07411e-05
3.07378e-05
3.07344e-05
3.0731e-05
3.07276e-05
3.07241e-05
3.07206e-05
3.07171e-05
3.07135e-05
3.071e-05
3.07065e-05
3.07029e-05
3.06994e-05
3.06959e-05
3.06926e-05
3.06899e-05
3.06876e-05
3.0684e-05
2.89289e-05
2.90238e-05
2.91266e-05
2.91976e-05
2.9221e-05
2.92005e-05
2.89202e-05
2.84653e-05
2.74831e-05
2.78061e-05
2.09242e-05
1.58137e-05
1.74269e-05
1.77464e-05
2.09615e-05
2.97321e-05
2.80852e-05
1.82894e-05
1.73296e-05
2.09839e-05
3.1217e-05
2.94706e-05
3.20441e-05
3.28923e-05
3.35413e-05
3.37845e-05
3.39157e-05
3.39259e-05
3.38673e-05
3.38118e-05
3.37885e-05
3.37894e-05
3.3815e-05
3.38526e-05
3.38823e-05
3.38987e-05
3.3904e-05
3.39016e-05
3.38987e-05
3.38993e-05
3.3903e-05
3.39085e-05
3.39134e-05
3.39171e-05
3.39198e-05
3.39222e-05
3.39248e-05
3.39276e-05
3.39305e-05
3.39331e-05
3.39356e-05
3.39379e-05
3.39402e-05
3.39423e-05
3.39444e-05
3.39463e-05
3.3948e-05
3.39497e-05
3.39512e-05
3.39526e-05
3.39538e-05
3.39549e-05
3.39558e-05
3.39566e-05
3.39572e-05
3.39577e-05
3.39581e-05
3.39582e-05
3.39582e-05
3.39581e-05
3.39577e-05
3.39572e-05
3.39566e-05
3.39558e-05
3.39548e-05
3.39537e-05
3.39525e-05
3.39511e-05
3.39496e-05
3.39479e-05
3.3946e-05
3.3944e-05
3.39419e-05
3.39397e-05
3.39374e-05
3.3935e-05
3.39325e-05
3.393e-05
3.39274e-05
3.39251e-05
3.39232e-05
3.39213e-05
3.39167e-05
3.14164e-05
3.15037e-05
3.16014e-05
3.16427e-05
3.15857e-05
3.14003e-05
3.08642e-05
3.01716e-05
2.88052e-05
2.98173e-05
2.62947e-05
1.81471e-05
1.98496e-05
1.95049e-05
2.5314e-05
3.47566e-05
3.3481e-05
2.13506e-05
1.88997e-05
2.57542e-05
3.33762e-05
3.09663e-05
3.35227e-05
3.45052e-05
3.53543e-05
3.57418e-05
3.5941e-05
3.59814e-05
3.59377e-05
3.59055e-05
3.59173e-05
3.5965e-05
3.60415e-05
3.61266e-05
3.61949e-05
3.62402e-05
3.62677e-05
3.6285e-05
3.63023e-05
3.63245e-05
3.63502e-05
3.63765e-05
3.64004e-05
3.64214e-05
3.64404e-05
3.64584e-05
3.64762e-05
3.64936e-05
3.65102e-05
3.65259e-05
3.65409e-05
3.65551e-05
3.65687e-05
3.65817e-05
3.6594e-05
3.66058e-05
3.66169e-05
3.66275e-05
3.66375e-05
3.6647e-05
3.66559e-05
3.66644e-05
3.66723e-05
3.66798e-05
3.66868e-05
3.66933e-05
3.66993e-05
3.6705e-05
3.67101e-05
3.67149e-05
3.67192e-05
3.67231e-05
3.67267e-05
3.67298e-05
3.67327e-05
3.67351e-05
3.67372e-05
3.6739e-05
3.67405e-05
3.67416e-05
3.67424e-05
3.6743e-05
3.67432e-05
3.67432e-05
3.6743e-05
3.67426e-05
3.6742e-05
3.67412e-05
3.67403e-05
3.67396e-05
3.67391e-05
3.67381e-05
3.67324e-05
3.33839e-05
3.34615e-05
3.34623e-05
3.33199e-05
3.29674e-05
3.21999e-05
3.13374e-05
2.97032e-05
3.11805e-05
3.08663e-05
2.053e-05
2.23179e-05
2.20761e-05
3.03535e-05
3.97771e-05
3.93386e-05
2.5121e-05
2.07242e-05
3.02469e-05
3.48585e-05
3.20552e-05
3.44277e-05
3.54482e-05
3.64617e-05
3.69832e-05
3.72515e-05
3.7334e-05
3.73229e-05
3.73295e-05
3.7387e-05
3.74897e-05
3.76224e-05
3.77589e-05
3.78707e-05
3.79506e-05
3.80072e-05
3.80514e-05
3.8096e-05
3.81463e-05
3.81998e-05
3.82526e-05
3.8301e-05
3.83448e-05
3.83853e-05
3.84242e-05
3.84621e-05
3.84988e-05
3.85338e-05
3.85671e-05
3.85988e-05
3.8629e-05
3.86579e-05
3.86856e-05
3.8712e-05
3.87371e-05
3.8761e-05
3.87838e-05
3.88055e-05
3.88261e-05
3.88457e-05
3.88643e-05
3.88819e-05
3.88987e-05
3.89145e-05
3.89294e-05
3.89435e-05
3.89568e-05
3.89692e-05
3.89809e-05
3.89918e-05
3.9002e-05
3.90115e-05
3.90204e-05
3.90286e-05
3.90362e-05
3.90431e-05
3.90495e-05
3.90554e-05
3.90607e-05
3.90654e-05
3.90697e-05
3.90734e-05
3.90768e-05
3.90798e-05
3.90824e-05
3.90846e-05
3.90866e-05
3.90883e-05
3.90901e-05
3.90917e-05
3.90919e-05
3.90854e-05
3.90414e-05
3.90408e-05
3.90458e-05
3.46154e-05
3.46542e-05
3.46014e-05
3.43703e-05
3.38588e-05
3.2896e-05
3.19358e-05
3.02087e-05
3.19627e-05
3.43869e-05
2.30882e-05
2.46527e-05
2.54378e-05
3.61203e-05
4.46586e-05
4.5706e-05
2.9684e-05
2.37865e-05
3.41172e-05
3.56819e-05
3.27044e-05
3.4722e-05
3.56963e-05
3.6835e-05
3.74757e-05
3.78158e-05
3.79538e-05
3.79925e-05
3.80499e-05
3.81607e-05
3.83226e-05
3.85132e-05
3.87031e-05
3.88621e-05
3.89823e-05
3.90746e-05
3.9153e-05
3.92316e-05
3.9316e-05
3.9403e-05
3.94876e-05
3.9566e-05
3.96381e-05
3.97056e-05
3.97706e-05
3.98338e-05
3.98947e-05
3.9953e-05
4.00085e-05
4.00614e-05
4.01121e-05
4.01607e-05
4.02071e-05
4.02515e-05
4.02938e-05
4.03343e-05
4.03729e-05
4.04098e-05
4.04449e-05
4.04784e-05
4.05103e-05
4.05406e-05
4.05695e-05
4.0597e-05
4.0623e-05
4.06477e-05
4.06711e-05
4.06933e-05
4.07142e-05
4.07339e-05
4.07525e-05
4.07701e-05
4.07866e-05
4.08021e-05
4.08167e-05
4.08303e-05
4.0843e-05
4.08548e-05
4.08658e-05
4.0876e-05
4.08854e-05
4.08941e-05
4.09022e-05
4.09096e-05
4.09165e-05
4.09229e-05
4.09287e-05
4.09343e-05
4.09395e-05
4.09441e-05
4.09462e-05
4.09396e-05
4.09015e-05
4.09052e-05
4.09162e-05
3.51701e-05
3.51532e-05
3.50335e-05
3.47117e-05
3.40584e-05
3.29454e-05
3.19496e-05
3.03203e-05
3.2223e-05
3.68273e-05
2.60028e-05
2.69404e-05
2.96168e-05
4.2964e-05
4.92632e-05
5.25453e-05
3.51754e-05
2.81516e-05
3.71138e-05
3.5847e-05
3.28719e-05
3.43854e-05
3.52566e-05
3.64795e-05
3.72207e-05
3.76346e-05
3.78392e-05
3.79403e-05
3.80551e-05
3.82222e-05
3.84428e-05
3.86899e-05
3.89329e-05
3.91416e-05
3.93068e-05
3.94409e-05
3.95597e-05
3.9678e-05
3.98016e-05
3.99268e-05
4.00481e-05
4.01615e-05
4.02669e-05
4.03666e-05
4.04628e-05
4.0556e-05
4.06461e-05
4.07323e-05
4.08146e-05
4.08933e-05
4.09689e-05
4.10414e-05
4.11108e-05
4.11773e-05
4.1241e-05
4.13019e-05
4.13601e-05
4.14158e-05
4.1469e-05
4.15199e-05
4.15684e-05
4.16147e-05
4.16589e-05
4.1701e-05
4.17412e-05
4.17793e-05
4.18156e-05
4.18501e-05
4.18829e-05
4.19139e-05
4.19433e-05
4.19713e-05
4.19977e-05
4.20226e-05
4.20462e-05
4.20684e-05
4.20894e-05
4.21091e-05
4.21276e-05
4.2145e-05
4.21613e-05
4.21766e-05
4.21909e-05
4.22044e-05
4.22171e-05
4.22289e-05
4.22401e-05
4.22507e-05
4.22607e-05
4.22693e-05
4.22742e-05
4.22689e-05
4.22381e-05
4.22479e-05
4.22662e-05
3.50488e-05
3.49644e-05
3.47687e-05
3.43582e-05
3.35901e-05
3.23799e-05
3.13906e-05
3.00996e-05
3.19804e-05
3.81355e-05
3.0161e-05
2.92806e-05
3.47814e-05
5.06381e-05
5.34047e-05
5.97458e-05
4.1757e-05
3.27755e-05
3.9075e-05
3.52962e-05
3.25237e-05
3.34359e-05
3.41785e-05
3.54428e-05
3.62605e-05
3.67454e-05
3.70209e-05
3.71892e-05
3.73611e-05
3.75821e-05
3.78564e-05
3.81552e-05
3.84491e-05
3.87079e-05
3.89209e-05
3.91008e-05
3.92642e-05
3.94258e-05
3.95919e-05
3.97585e-05
3.992e-05
4.00722e-05
4.02152e-05
4.03513e-05
4.04828e-05
4.06103e-05
4.07335e-05
4.08518e-05
4.09651e-05
4.10738e-05
4.11783e-05
4.12788e-05
4.13753e-05
4.14678e-05
4.15566e-05
4.16417e-05
4.17233e-05
4.18015e-05
4.18763e-05
4.1948e-05
4.20166e-05
4.20822e-05
4.21449e-05
4.22049e-05
4.22622e-05
4.23168e-05
4.23689e-05
4.24185e-05
4.24658e-05
4.25108e-05
4.25536e-05
4.25944e-05
4.26331e-05
4.26699e-05
4.27048e-05
4.27378e-05
4.27692e-05
4.27988e-05
4.28269e-05
4.28534e-05
4.28785e-05
4.29022e-05
4.29247e-05
4.29459e-05
4.29661e-05
4.29852e-05
4.30033e-05
4.30205e-05
4.30366e-05
4.30507e-05
4.30598e-05
4.30579e-05
4.30373e-05
4.30551e-05
4.30823e-05
3.42886e-05
3.41333e-05
3.38613e-05
3.33731e-05
3.25286e-05
3.12864e-05
3.0325e-05
2.96061e-05
3.13469e-05
3.83992e-05
3.40422e-05
3.21037e-05
4.13415e-05
5.81708e-05
5.68754e-05
6.72006e-05
4.85386e-05
3.72718e-05
3.99636e-05
3.42475e-05
3.16494e-05
3.19456e-05
3.25598e-05
3.38186e-05
3.46817e-05
3.52254e-05
3.55658e-05
3.57963e-05
3.60184e-05
3.62855e-05
3.66043e-05
3.69469e-05
3.7286e-05
3.75921e-05
3.78522e-05
3.80786e-05
3.82875e-05
3.84931e-05
3.87023e-05
3.89113e-05
3.91143e-05
3.93073e-05
3.94901e-05
3.96651e-05
3.98344e-05
3.99989e-05
4.0158e-05
4.03113e-05
4.04587e-05
4.06006e-05
4.07372e-05
4.08689e-05
4.09957e-05
4.11176e-05
4.12348e-05
4.13474e-05
4.14556e-05
4.15595e-05
4.16592e-05
4.17549e-05
4.18466e-05
4.19346e-05
4.2019e-05
4.20998e-05
4.21771e-05
4.22511e-05
4.23218e-05
4.23894e-05
4.2454e-05
4.25156e-05
4.25744e-05
4.26305e-05
4.26841e-05
4.27351e-05
4.27836e-05
4.28298e-05
4.28738e-05
4.29156e-05
4.29553e-05
4.29931e-05
4.30291e-05
4.30633e-05
4.30959e-05
4.31269e-05
4.31565e-05
4.31847e-05
4.32116e-05
4.32373e-05
4.32613e-05
4.32823e-05
4.32976e-05
4.33024e-05
4.3295e-05
4.33231e-05
4.33606e-05
3.29726e-05
3.27534e-05
3.24182e-05
3.18772e-05
3.10089e-05
2.98173e-05
2.88798e-05
2.8673e-05
3.04115e-05
3.77721e-05
3.7347e-05
3.61003e-05
4.81883e-05
6.51279e-05
5.94699e-05
7.31816e-05
5.50169e-05
4.11424e-05
3.98729e-05
3.28704e-05
3.02991e-05
3.00435e-05
3.05459e-05
3.17452e-05
3.26146e-05
3.31929e-05
3.35808e-05
3.38592e-05
3.41191e-05
3.44195e-05
3.47697e-05
3.51443e-05
3.5519e-05
3.58647e-05
3.61665e-05
3.64352e-05
3.6686e-05
3.69324e-05
3.71817e-05
3.74306e-05
3.76734e-05
3.79059e-05
3.81279e-05
3.83414e-05
3.85486e-05
3.87503e-05
3.89461e-05
3.91353e-05
3.9318e-05
3.94943e-05
3.96647e-05
3.98294e-05
3.99883e-05
4.01415e-05
4.02892e-05
4.04316e-05
4.05686e-05
4.07006e-05
4.08275e-05
4.09496e-05
4.1067e-05
4.11799e-05
4.12884e-05
4.13925e-05
4.14924e-05
4.15883e-05
4.16801e-05
4.1768e-05
4.18523e-05
4.19329e-05
4.20101e-05
4.2084e-05
4.21547e-05
4.22222e-05
4.22867e-05
4.23483e-05
4.24072e-05
4.24633e-05
4.2517e-05
4.25682e-05
4.26172e-05
4.2664e-05
4.27088e-05
4.27517e-05
4.27929e-05
4.28323e-05
4.28701e-05
4.29062e-05
4.29402e-05
4.29706e-05
4.29948e-05
4.301e-05
4.30194e-05
4.30603e-05
4.31097e-05
3.1241e-05
3.09737e-05
3.06061e-05
3.0055e-05
2.92295e-05
2.81846e-05
2.72242e-05
2.73459e-05
2.92306e-05
3.64396e-05
4.00194e-05
4.12868e-05
5.50545e-05
7.14297e-05
6.10941e-05
7.7703e-05
6.10192e-05
4.3759e-05
3.89815e-05
3.12477e-05
2.85634e-05
2.78915e-05
2.83215e-05
2.94022e-05
3.02278e-05
3.08056e-05
3.12141e-05
3.15196e-05
3.18009e-05
3.21185e-05
3.24831e-05
3.28734e-05
3.32684e-05
3.36401e-05
3.39722e-05
3.42735e-05
3.45575e-05
3.48368e-05
3.51188e-05
3.54007e-05
3.56772e-05
3.5944e-05
3.62004e-05
3.64484e-05
3.669e-05
3.69259e-05
3.71558e-05
3.73789e-05
3.75952e-05
3.78048e-05
3.8008e-05
3.8205e-05
3.83957e-05
3.85802e-05
3.87586e-05
3.8931e-05
3.90975e-05
3.92582e-05
3.94133e-05
3.95628e-05
3.97071e-05
3.98461e-05
3.998e-05
4.0109e-05
4.0233e-05
4.03523e-05
4.04669e-05
4.05769e-05
4.06827e-05
4.07841e-05
4.08816e-05
4.09751e-05
4.10648e-05
4.11507e-05
4.12331e-05
4.13121e-05
4.13877e-05
4.14603e-05
4.15298e-05
4.15965e-05
4.16606e-05
4.17221e-05
4.17813e-05
4.18383e-05
4.18932e-05
4.19462e-05
4.19973e-05
4.20464e-05
4.20929e-05
4.21355e-05
4.21724e-05
4.22027e-05
4.22323e-05
4.22888e-05
4.23528e-05
2.90133e-05
2.86593e-05
2.81581e-05
2.74492e-05
2.66611e-05
2.58652e-05
2.58936e-05
2.79135e-05
3.47139e-05
4.15308e-05
4.61405e-05
6.17982e-05
7.7174e-05
6.19974e-05
8.12039e-05
6.61033e-05
4.50015e-05
3.74768e-05
2.9445e-05
2.65681e-05
2.55073e-05
2.60934e-05
2.69899e-05
2.77178e-05
2.82533e-05
2.86508e-05
2.89601e-05
2.92445e-05
2.95604e-05
2.99185e-05
3.03033e-05
3.06982e-05
3.10768e-05
3.14223e-05
3.17411e-05
3.20444e-05
3.23435e-05
3.26458e-05
3.29489e-05
3.3248e-05
3.35388e-05
3.38203e-05
3.40942e-05
3.43623e-05
3.46253e-05
3.48827e-05
3.51339e-05
3.53784e-05
3.56165e-05
3.58482e-05
3.60737e-05
3.62928e-05
3.65056e-05
3.6712e-05
3.69121e-05
3.71061e-05
3.72939e-05
3.74757e-05
3.76516e-05
3.78218e-05
3.79864e-05
3.81455e-05
3.8299e-05
3.84472e-05
3.85901e-05
3.87277e-05
3.88604e-05
3.89881e-05
3.91112e-05
3.92296e-05
3.93437e-05
3.94534e-05
3.95589e-05
3.96604e-05
3.97581e-05
3.9852e-05
3.99424e-05
4.00295e-05
4.01134e-05
4.01943e-05
4.02725e-05
4.03482e-05
4.04214e-05
4.04925e-05
4.05615e-05
4.06285e-05
4.06934e-05
4.07558e-05
4.08146e-05
4.08688e-05
4.09194e-05
4.09731e-05
4.1049e-05
4.11308e-05
2.65213e-05
2.5974e-05
2.56293e-05
2.53108e-05
2.52105e-05
2.67505e-05
3.28113e-05
4.15705e-05
5.04372e-05
6.84484e-05
8.25317e-05
6.28225e-05
8.39421e-05
6.9683e-05
4.51417e-05
3.55454e-05
2.7595e-05
2.46969e-05
2.37231e-05
2.40752e-05
2.47185e-05
2.52965e-05
2.5748e-05
2.61024e-05
2.63926e-05
2.6661e-05
2.69541e-05
2.72809e-05
2.7636e-05
2.80068e-05
2.83701e-05
2.87084e-05
2.90253e-05
2.93294e-05
2.96304e-05
2.99355e-05
3.0243e-05
3.05488e-05
3.08487e-05
3.11413e-05
3.1428e-05
3.17103e-05
3.19888e-05
3.22629e-05
3.25317e-05
3.27949e-05
3.30525e-05
3.33044e-05
3.35507e-05
3.37911e-05
3.40255e-05
3.42538e-05
3.44761e-05
3.46922e-05
3.49023e-05
3.51065e-05
3.53049e-05
3.54975e-05
3.56845e-05
3.58658e-05
3.60415e-05
3.62116e-05
3.63762e-05
3.65353e-05
3.6689e-05
3.68377e-05
3.69813e-05
3.71201e-05
3.72542e-05
3.73837e-05
3.75087e-05
3.76294e-05
3.7746e-05
3.78587e-05
3.79677e-05
3.80732e-05
3.81755e-05
3.82747e-05
3.83711e-05
3.84651e-05
3.85568e-05
3.86465e-05
3.87344e-05
3.88206e-05
3.89051e-05
3.89875e-05
3.90675e-05
3.91449e-05
3.92215e-05
3.93038e-05
3.94036e-05
3.95084e-05
2.56633e-05
2.57091e-05
2.59123e-05
2.592e-05
2.5637e-05
2.60741e-05
3.1006e-05
4.05753e-05
5.3862e-05
7.52633e-05
8.76122e-05
6.39854e-05
8.59626e-05
7.13912e-05
4.42444e-05
3.32958e-05
2.58806e-05
2.31911e-05
2.23951e-05
2.25146e-05
2.28164e-05
2.32149e-05
2.35345e-05
2.38054e-05
2.4045e-05
2.42689e-05
2.45149e-05
2.47858e-05
2.50897e-05
2.54139e-05
2.57406e-05
2.6049e-05
2.63405e-05
2.66221e-05
2.69022e-05
2.71883e-05
2.74804e-05
2.77748e-05
2.80661e-05
2.83527e-05
2.86355e-05
2.89158e-05
2.91939e-05
2.94693e-05
2.97414e-05
3.00097e-05
3.02739e-05
3.05339e-05
3.07894e-05
3.10401e-05
3.12856e-05
3.15257e-05
3.17604e-05
3.19897e-05
3.22137e-05
3.24325e-05
3.2646e-05
3.28544e-05
3.30577e-05
3.32556e-05
3.34482e-05
3.36353e-05
3.3817e-05
3.39933e-05
3.41644e-05
3.43304e-05
3.44916e-05
3.4648e-05
3.47997e-05
3.4947e-05
3.50898e-05
3.52284e-05
3.5363e-05
3.54939e-05
3.56211e-05
3.57451e-05
3.58661e-05
3.59844e-05
3.61004e-05
3.62145e-05
3.6327e-05
3.64383e-05
3.65486e-05
3.66582e-05
3.67672e-05
3.68754e-05
3.69829e-05
3.70902e-05
3.71996e-05
3.73161e-05
3.74463e-05
3.7581e-05
2.64823e-05
2.6905e-05
2.74178e-05
2.7574e-05
2.69446e-05
2.63545e-05
2.96289e-05
3.89086e-05
5.6201e-05
8.18366e-05
9.23055e-05
6.4925e-05
8.69784e-05
7.09874e-05
4.2541e-05
3.10043e-05
2.45489e-05
2.24253e-05
2.1975e-05
2.1944e-05
2.18834e-05
2.19109e-05
2.19829e-05
2.2074e-05
2.2171e-05
2.22779e-05
2.243e-05
2.26611e-05
2.29061e-05
2.31613e-05
2.3426e-05
2.36722e-05
2.39052e-05
2.41323e-05
2.43617e-05
2.46072e-05
2.487e-05
2.51391e-05
2.54053e-05
2.56669e-05
2.5926e-05
2.6184e-05
2.6442e-05
2.67005e-05
2.69589e-05
2.72164e-05
2.7472e-05
2.77251e-05
2.7975e-05
2.82213e-05
2.84635e-05
2.87014e-05
2.89352e-05
2.9165e-05
2.9391e-05
2.96133e-05
2.98319e-05
3.00465e-05
3.02569e-05
3.04628e-05
3.0664e-05
3.08603e-05
3.10516e-05
3.12382e-05
3.14201e-05
3.15976e-05
3.17708e-05
3.19399e-05
3.2105e-05
3.22661e-05
3.24234e-05
3.2577e-05
3.27272e-05
3.28743e-05
3.30185e-05
3.31602e-05
3.32998e-05
3.34379e-05
3.3575e-05
3.37115e-05
3.3848e-05
3.3985e-05
3.41228e-05
3.42616e-05
3.44017e-05
3.45431e-05
3.46862e-05
3.48319e-05
3.4982e-05
3.51402e-05
3.53095e-05
3.54837e-05
2.8456e-05
2.88121e-05
2.92751e-05
2.94033e-05
2.86191e-05
2.72803e-05
2.87882e-05
3.69571e-05
5.68083e-05
8.76833e-05
9.62348e-05
6.54409e-05
8.62335e-05
6.88068e-05
4.0322e-05
2.89874e-05
2.37665e-05
2.24674e-05
2.23124e-05
2.21948e-05
2.19092e-05
2.17132e-05
2.15965e-05
2.15297e-05
2.14929e-05
2.1471e-05
2.14692e-05
2.14905e-05
2.15355e-05
2.1605e-05
2.16958e-05
2.17995e-05
2.1909e-05
2.20268e-05
2.21679e-05
2.23778e-05
2.26293e-05
2.28699e-05
2.30916e-05
2.33025e-05
2.35101e-05
2.37197e-05
2.39371e-05
2.41626e-05
2.43928e-05
2.46245e-05
2.48555e-05
2.50846e-05
2.5311e-05
2.55345e-05
2.5755e-05
2.5973e-05
2.61895e-05
2.64053e-05
2.66201e-05
2.68336e-05
2.70452e-05
2.72544e-05
2.74605e-05
2.76632e-05
2.7862e-05
2.80567e-05
2.82475e-05
2.84346e-05
2.86183e-05
2.87991e-05
2.89771e-05
2.91524e-05
2.9325e-05
2.94948e-05
2.96619e-05
2.98264e-05
2.99888e-05
3.01494e-05
3.03087e-05
3.04673e-05
3.06259e-05
3.07852e-05
3.0946e-05
3.11091e-05
3.12751e-05
3.14443e-05
3.16172e-05
3.17938e-05
3.19743e-05
3.21589e-05
3.23478e-05
3.2542e-05
3.27429e-05
3.29527e-05
3.31725e-05
3.33987e-05
3.12076e-05
3.03852e-05
2.8614e-05
2.86119e-05
3.51554e-05
5.52572e-05
9.25847e-05
9.89894e-05
6.55142e-05
8.34606e-05
6.52438e-05
3.79268e-05
2.74535e-05
2.35862e-05
2.31386e-05
2.31932e-05
2.30264e-05
2.26175e-05
2.22907e-05
2.20528e-05
2.18768e-05
2.17402e-05
2.16188e-05
2.15066e-05
2.13987e-05
2.13033e-05
2.12254e-05
2.11686e-05
2.11321e-05
2.11122e-05
2.11077e-05
2.11212e-05
2.11583e-05
2.12184e-05
2.12936e-05
2.13778e-05
2.14696e-05
2.15723e-05
2.17e-05
2.1873e-05
2.20666e-05
2.22614e-05
2.2452e-05
2.26379e-05
2.28198e-05
2.29984e-05
2.31746e-05
2.33502e-05
2.35295e-05
2.37153e-05
2.39058e-05
2.40988e-05
2.42924e-05
2.4485e-05
2.46758e-05
2.48641e-05
2.50495e-05
2.52318e-05
2.54111e-05
2.55883e-05
2.57645e-05
2.59404e-05
2.61162e-05
2.62916e-05
2.64664e-05
2.66402e-05
2.68129e-05
2.69846e-05
2.71555e-05
2.73263e-05
2.7498e-05
2.76716e-05
2.7848e-05
2.80282e-05
2.82133e-05
2.84044e-05
2.86024e-05
2.88076e-05
2.902e-05
2.92397e-05
2.94664e-05
2.96999e-05
2.99402e-05
3.01876e-05
3.04427e-05
3.07066e-05
3.09804e-05
3.12645e-05
3.1557e-05
3.2865e-05
3.20689e-05
3.01451e-05
2.89837e-05
3.35814e-05
5.23226e-05
9.53515e-05
0.000100283
6.49135e-05
7.91592e-05
6.0645e-05
3.53997e-05
2.65144e-05
2.40516e-05
2.42126e-05
2.44413e-05
2.42475e-05
2.37747e-05
2.33753e-05
2.30673e-05
2.28242e-05
2.26227e-05
2.24349e-05
2.22498e-05
2.20618e-05
2.1878e-05
2.1705e-05
2.15492e-05
2.14147e-05
2.12976e-05
2.11946e-05
2.11038e-05
2.10259e-05
2.09615e-05
2.09105e-05
2.08722e-05
2.08456e-05
2.08311e-05
2.08314e-05
2.08503e-05
2.0887e-05
2.09376e-05
2.09985e-05
2.10674e-05
2.11428e-05
2.12234e-05
2.13097e-05
2.14095e-05
2.15439e-05
2.17052e-05
2.18721e-05
2.2037e-05
2.21982e-05
2.23555e-05
2.25096e-05
2.26608e-05
2.28095e-05
2.29563e-05
2.31031e-05
2.32544e-05
2.3412e-05
2.35748e-05
2.3741e-05
2.3909e-05
2.4078e-05
2.42475e-05
2.44174e-05
2.45882e-05
2.4761e-05
2.49383e-05
2.5122e-05
2.53134e-05
2.55134e-05
2.57236e-05
2.59457e-05
2.61809e-05
2.64293e-05
2.66902e-05
2.69625e-05
2.72453e-05
2.75378e-05
2.78394e-05
2.815e-05
2.84697e-05
2.87991e-05
2.91389e-05
2.94899e-05
2.98526e-05
3.02262e-05
3.43059e-05
3.35691e-05
3.17006e-05
2.97963e-05
3.24814e-05
4.9187e-05
9.47771e-05
0.000100424
6.35763e-05
7.35892e-05
5.56365e-05
3.31781e-05
2.61847e-05
2.50074e-05
2.56255e-05
2.59563e-05
2.5748e-05
2.52409e-05
2.47945e-05
2.44367e-05
2.41475e-05
2.3904e-05
2.36755e-05
2.34478e-05
2.32131e-05
2.29777e-05
2.27483e-05
2.25335e-05
2.23383e-05
2.21598e-05
2.1992e-05
2.18334e-05
2.16832e-05
2.15425e-05
2.14115e-05
2.12904e-05
2.11793e-05
2.10781e-05
2.09871e-05
2.09071e-05
2.08384e-05
2.07812e-05
2.07351e-05
2.0699e-05
2.0672e-05
2.06531e-05
2.06421e-05
2.06407e-05
2.06527e-05
2.06798e-05
2.07198e-05
2.07697e-05
2.08271e-05
2.08908e-05
2.09595e-05
2.10321e-05
2.11079e-05
2.11887e-05
2.12842e-05
2.14126e-05
2.15633e-05
2.17202e-05
2.18775e-05
2.20339e-05
2.21899e-05
2.23463e-05
2.25044e-05
2.26667e-05
2.28391e-05
2.30283e-05
2.32344e-05
2.34564e-05
2.3695e-05
2.39539e-05
2.42357e-05
2.45397e-05
2.4863e-05
2.52024e-05
2.55551e-05
2.59192e-05
2.62934e-05
2.66772e-05
2.70707e-05
2.74743e-05
2.78888e-05
2.83151e-05
2.87542e-05
2.92067e-05
2.96732e-05
4.58266e-05
9.04431e-05
0.000100102
6.15987e-05
6.62842e-05
5.07528e-05
3.15312e-05
2.64295e-05
2.63522e-05
2.72961e-05
2.76903e-05
2.74781e-05
2.69596e-05
2.64866e-05
2.60968e-05
2.57752e-05
2.55003e-05
2.52405e-05
2.49807e-05
2.47123e-05
2.4441e-05
2.41739e-05
2.39202e-05
2.36861e-05
2.34684e-05
2.326e-05
2.30592e-05
2.28646e-05
2.26767e-05
2.24962e-05
2.23238e-05
2.21598e-05
2.20039e-05
2.18559e-05
2.1716e-05
2.15842e-05
2.14609e-05
2.1346e-05
2.12395e-05
2.1141e-05
2.10502e-05
2.09671e-05
2.08917e-05
2.0825e-05
2.07675e-05
2.07199e-05
2.06824e-05
2.06541e-05
2.06344e-05
2.06222e-05
2.06171e-05
2.06188e-05
2.06279e-05
2.06472e-05
2.068e-05
2.07277e-05
2.07888e-05
2.08616e-05
2.09455e-05
2.10401e-05
2.11451e-05
2.12615e-05
2.13965e-05
2.15748e-05
2.18047e-05
2.20604e-05
2.23346e-05
2.26354e-05
2.29756e-05
2.33542e-05
2.37614e-05
2.41877e-05
2.46269e-05
2.50755e-05
2.55318e-05
2.59958e-05
2.64677e-05
2.69487e-05
2.74399e-05
2.79428e-05
2.8459e-05
2.89898e-05
2.95366e-05
3.01005e-05
4.27126e-05
8.31228e-05
9.83416e-05
5.95209e-05
5.87609e-05
4.64139e-05
3.05169e-05
2.71803e-05
2.80019e-05
2.91714e-05
2.96112e-05
2.94054e-05
2.88936e-05
2.84097e-05
2.8001e-05
2.76577e-05
2.73597e-05
2.70768e-05
2.6792e-05
2.64985e-05
2.62006e-05
2.59058e-05
2.5624e-05
2.53618e-05
2.51138e-05
2.48757e-05
2.46449e-05
2.44195e-05
2.42001e-05
2.39872e-05
2.37819e-05
2.35843e-05
2.3394e-05
2.32106e-05
2.30339e-05
2.28642e-05
2.27015e-05
2.25459e-05
2.23975e-05
2.22561e-05
2.21217e-05
2.19943e-05
2.18741e-05
2.17611e-05
2.16556e-05
2.1558e-05
2.14686e-05
2.13873e-05
2.13143e-05
2.12494e-05
2.11927e-05
2.11443e-05
2.11051e-05
2.10759e-05
2.10575e-05
2.1051e-05