/*--------------------------------*- C++ -*----------------------------------*\
| =========                 |                                                 |
| \\      /  F ield         | OpenFOAM: The Open Source CFD Toolbox           |
|  \\    /   O peration     | Version:  2412                                  |
|   \\  /    A nd           | Website:  www.openfoam.com                      |
|    \\/     M anipulation  |                                                 |
\*---------------------------------------------------------------------------*/
FoamFile
{
    version     2.0;
    format      ascii;
    arch        "LSB;label=32;scalar=64";
    class       volScalarField;
    location    "180";
    object      p;
}
// * * * * * * * * * * * * * * * * * * * * * * * * * * * * * * * * * * * * * //

dimensions      [0 2 -2 0 0 0 0];

internalField   nonuniform List<scalar> 
7423
(
-2305.29
-3201.09
-3744.11
-3774.85
-3549.45
-3132.08
-2842.42
-2637.11
-2443.3
-2271.48
-2127.24
-2002.63
-1892.22
-1793.35
-1704.15
-1622.93
-1548.55
-1480.11
-1416.87
-1358.25
-1303.66
-1252.68
-1204.87
-1159.89
-1117.43
-1077.23
-1039.06
-1002.74
-968.073
-934.937
-903.193
-872.73
-843.45
-815.27
-788.109
-761.906
-736.595
-712.129
-688.458
-665.538
-643.332
-621.805
-600.925
-580.665
-560.993
-541.893
-523.319
-505.294
-487.756
-470.693
-454.095
-437.96
-422.236
-406.928
-392.014
-377.498
-363.337
-349.531
-336.061
-322.93
-310.11
-297.594
-285.359
-273.408
-261.73
-250.309
-239.14
-228.204
-217.486
-206.992
-196.716
-186.648
-176.777
-167.104
-157.593
-148.237
-2305.25
-3201.09
-3744.08
-3774.82
-3549.43
-3132.07
-2842.42
-2637.11
-2443.3
-2271.48
-2127.24
-2002.63
-1892.22
-1793.35
-1704.15
-1622.93
-1548.55
-1480.11
-1416.87
-1358.25
-1303.66
-1252.68
-1204.87
-1159.89
-1117.43
-1077.23
-1039.06
-1002.74
-968.073
-934.937
-903.193
-872.73
-843.45
-815.27
-788.109
-761.906
-736.595
-712.129
-688.458
-665.538
-643.332
-621.805
-600.925
-580.664
-560.993
-541.893
-523.319
-505.294
-487.756
-470.693
-454.095
-437.96
-422.236
-406.928
-392.014
-377.498
-363.337
-349.531
-336.061
-322.93
-310.11
-297.594
-285.359
-273.408
-261.73
-250.309
-239.14
-228.204
-217.486
-206.992
-196.716
-186.647
-176.777
-167.104
-157.593
-148.237
-2305.13
-3200.94
-3743.94
-3774.74
-3549.39
-3132.06
-2842.41
-2637.1
-2443.29
-2271.47
-2127.24
-2002.63
-1892.21
-1793.35
-1704.15
-1622.92
-1548.55
-1480.11
-1416.87
-1358.25
-1303.66
-1252.68
-1204.87
-1159.89
-1117.43
-1077.23
-1039.06
-1002.74
-968.073
-934.936
-903.193
-872.73
-843.45
-815.27
-788.109
-761.906
-736.595
-712.129
-688.458
-665.538
-643.332
-621.804
-600.925
-580.664
-560.993
-541.893
-523.319
-505.294
-487.756
-470.693
-454.095
-437.96
-422.236
-406.928
-392.014
-377.498
-363.337
-349.531
-336.061
-322.93
-310.11
-297.594
-285.359
-273.408
-261.73
-250.309
-239.14
-228.204
-217.486
-206.992
-196.716
-186.647
-176.777
-167.104
-157.593
-148.237
-2304.81
-3200.54
-3743.59
-3774.54
-3549.29
-3132.02
-2842.39
-2637.09
-2443.28
-2271.47
-2127.24
-2002.63
-1892.21
-1793.35
-1704.15
-1622.92
-1548.55
-1480.11
-1416.87
-1358.25
-1303.66
-1252.68
-1204.87
-1159.89
-1117.43
-1077.23
-1039.06
-1002.74
-968.073
-934.936
-903.193
-872.729
-843.45
-815.27
-788.109
-761.906
-736.595
-712.129
-688.458
-665.538
-643.332
-621.804
-600.925
-580.664
-560.993
-541.893
-523.319
-505.294
-487.756
-470.693
-454.095
-437.96
-422.236
-406.928
-392.013
-377.498
-363.337
-349.531
-336.061
-322.93
-310.11
-297.594
-285.359
-273.408
-261.73
-250.309
-239.14
-228.204
-217.486
-206.991
-196.716
-186.647
-176.777
-167.104
-157.593
-148.237
-2304.17
-3199.76
-3742.93
-3774.15
-3549.08
-3131.93
-2842.34
-2637.06
-2443.27
-2271.46
-2127.23
-2002.63
-1892.21
-1793.35
-1704.15
-1622.92
-1548.55
-1480.11
-1416.87
-1358.25
-1303.66
-1252.68
-1204.87
-1159.89
-1117.43
-1077.23
-1039.06
-1002.74
-968.073
-934.936
-903.193
-872.729
-843.45
-815.27
-788.109
-761.906
-736.595
-712.129
-688.457
-665.538
-643.332
-621.804
-600.925
-580.664
-560.993
-541.893
-523.319
-505.294
-487.756
-470.693
-454.095
-437.96
-422.236
-406.928
-392.013
-377.498
-363.337
-349.531
-336.061
-322.929
-310.11
-297.594
-285.359
-273.408
-261.73
-250.309
-239.14
-228.204
-217.486
-206.991
-196.716
-186.647
-176.777
-167.104
-157.593
-148.237
-2303.08
-3198.47
-3741.83
-3773.47
-3548.72
-3131.75
-2842.25
-2637
-2443.24
-2271.44
-2127.22
-2002.62
-1892.21
-1793.34
-1704.15
-1622.92
-1548.55
-1480.1
-1416.87
-1358.24
-1303.66
-1252.68
-1204.87
-1159.89
-1117.43
-1077.23
-1039.06
-1002.74
-968.072
-934.936
-903.193
-872.729
-843.449
-815.269
-788.109
-761.906
-736.594
-712.129
-688.457
-665.538
-643.331
-621.804
-600.925
-580.664
-560.993
-541.893
-523.319
-505.294
-487.756
-470.693
-454.095
-437.96
-422.236
-406.928
-392.013
-377.498
-363.337
-349.531
-336.061
-322.929
-310.11
-297.594
-285.359
-273.408
-261.73
-250.309
-239.14
-228.204
-217.485
-206.991
-196.716
-186.647
-176.777
-167.104
-157.593
-148.237
-2301.4
-3196.52
-3740.18
-3772.44
-3548.15
-3131.47
-2842.09
-2636.9
-2443.18
-2271.41
-2127.2
-2002.6
-1892.2
-1793.34
-1704.14
-1622.92
-1548.54
-1480.1
-1416.87
-1358.24
-1303.66
-1252.68
-1204.87
-1159.88
-1117.43
-1077.23
-1039.06
-1002.74
-968.072
-934.935
-903.192
-872.728
-843.449
-815.269
-788.108
-761.906
-736.594
-712.128
-688.457
-665.537
-643.331
-621.804
-600.924
-580.664
-560.992
-541.892
-523.318
-505.293
-487.756
-470.693
-454.094
-437.96
-422.236
-406.928
-392.013
-377.498
-363.337
-349.531
-336.061
-322.929
-310.11
-297.594
-285.359
-273.408
-261.73
-250.309
-239.14
-228.204
-217.485
-206.991
-196.716
-186.647
-176.777
-167.103
-157.593
-148.237
-2299.02
-3193.78
-3737.87
-3771.01
-3547.36
-3131.06
-2841.85
-2636.75
-2443.09
-2271.35
-2127.17
-2002.58
-1892.18
-1793.33
-1704.13
-1622.91
-1548.54
-1480.1
-1416.87
-1358.24
-1303.66
-1252.68
-1204.87
-1159.88
-1117.43
-1077.23
-1039.06
-1002.73
-968.07
-934.934
-903.191
-872.727
-843.448
-815.268
-788.108
-761.905
-736.593
-712.128
-688.456
-665.537
-643.331
-621.803
-600.924
-580.664
-560.992
-541.892
-523.318
-505.293
-487.756
-470.693
-454.094
-437.959
-422.236
-406.927
-392.013
-377.497
-363.337
-349.531
-336.061
-322.929
-310.11
-297.594
-285.359
-273.408
-261.73
-250.309
-239.14
-228.204
-217.485
-206.991
-196.716
-186.647
-176.777
-167.103
-157.593
-148.237
-2295.81
-3190.13
-3734.82
-3769.13
-3546.33
-3130.51
-2841.53
-2636.54
-2442.96
-2271.27
-2127.11
-2002.55
-1892.16
-1793.31
-1704.12
-1622.9
-1548.53
-1480.09
-1416.86
-1358.23
-1303.65
-1252.68
-1204.86
-1159.88
-1117.42
-1077.22
-1039.06
-1002.73
-968.068
-934.932
-903.189
-872.726
-843.447
-815.267
-788.106
-761.904
-736.592
-712.127
-688.455
-665.536
-643.33
-621.803
-600.923
-580.663
-560.991
-541.892
-523.318
-505.293
-487.755
-470.692
-454.094
-437.959
-422.235
-406.927
-392.013
-377.497
-363.337
-349.53
-336.06
-322.929
-310.109
-297.593
-285.359
-273.408
-261.73
-250.309
-239.14
-228.204
-217.485
-206.991
-196.716
-186.647
-176.777
-167.103
-157.593
-148.237
-3185.43
-3730.92
-3766.73
-3545.01
-3129.81
-2841.13
-2636.28
-2442.78
-2271.16
-2127.04
-2002.49
-1892.12
-1793.28
-1704.1
-1622.89
-1548.52
-1480.08
-1416.85
-1358.23
-1303.65
-1252.67
-1204.86
-1159.87
-1117.42
-1077.22
-1039.06
-1002.73
-968.065
-934.929
-903.187
-872.724
-843.444
-815.265
-788.104
-761.902
-736.591
-712.125
-688.454
-665.535
-643.329
-621.802
-600.922
-580.662
-560.99
-541.891
-523.317
-505.292
-487.754
-470.692
-454.093
-437.958
-422.235
-406.926
-392.012
-377.497
-363.336
-349.53
-336.06
-322.929
-310.109
-297.593
-285.359
-273.408
-261.73
-250.308
-239.14
-228.204
-217.485
-206.991
-196.715
-186.647
-176.777
-167.103
-157.592
-148.237
-3726.03
-3763.71
-3543.37
-3128.95
-2840.62
-2635.95
-2442.57
-2271.01
-2126.94
-2002.43
-1892.08
-1793.25
-1704.07
-1622.86
-1548.5
-1480.07
-1416.84
-1358.22
-1303.64
-1252.66
-1204.85
-1159.87
-1117.41
-1077.21
-1039.05
-1002.72
-968.061
-934.925
-903.183
-872.72
-843.441
-815.262
-788.102
-761.899
-736.588
-712.123
-688.452
-665.533
-643.327
-621.8
-600.921
-580.66
-560.989
-541.889
-523.316
-505.291
-487.753
-470.691
-454.092
-437.957
-422.234
-406.926
-392.011
-377.496
-363.336
-349.529
-336.059
-322.928
-310.108
-297.593
-285.358
-273.407
-261.729
-250.308
-239.139
-228.203
-217.485
-206.99
-196.715
-186.646
-176.776
-167.103
-157.592
-148.236
-3759.96
-3541.34
-3127.88
-2840
-2635.56
-2442.31
-2270.84
-2126.82
-2002.34
-1892.01
-1793.2
-1704.04
-1622.84
-1548.48
-1480.05
-1416.82
-1358.2
-1303.63
-1252.65
-1204.84
-1159.86
-1117.4
-1077.21
-1039.04
-1002.72
-968.055
-934.92
-903.178
-872.716
-843.437
-815.258
-788.098
-761.896
-736.585
-712.12
-688.449
-665.53
-643.324
-621.798
-600.918
-580.658
-560.987
-541.888
-523.314
-505.289
-487.752
-470.689
-454.091
-437.956
-422.233
-406.925
-392.01
-377.495
-363.335
-349.528
-336.059
-322.927
-310.108
-297.592
-285.357
-273.406
-261.728
-250.307
-239.139
-228.203
-217.484
-206.99
-196.715
-186.646
-176.776
-167.102
-157.592
-148.236
-3755.33
-3538.84
-3126.57
-2839.25
-2635.08
-2441.99
-2270.63
-2126.68
-2002.24
-1891.94
-1793.15
-1704
-1622.8
-1548.45
-1480.03
-1416.8
-1358.19
-1303.61
-1252.64
-1204.83
-1159.85
-1117.39
-1077.2
-1039.04
-1002.71
-968.048
-934.913
-903.172
-872.71
-843.432
-815.253
-788.093
-761.892
-736.581
-712.116
-688.446
-665.527
-643.321
-621.795
-600.916
-580.656
-560.985
-541.885
-523.312
-505.287
-487.75
-470.687
-454.089
-437.954
-422.231
-406.923
-392.009
-377.493
-363.333
-349.527
-336.057
-322.926
-310.107
-297.591
-285.356
-273.405
-261.728
-250.306
-239.138
-228.202
-217.483
-206.989
-196.714
-186.645
-176.775
-167.101
-157.591
-148.235
-3749.63
-3535.78
-3124.96
-2838.33
-2634.5
-2441.62
-2270.38
-2126.5
-2002.12
-1891.85
-1793.08
-1703.94
-1622.76
-1548.42
-1480
-1416.78
-1358.16
-1303.59
-1252.62
-1204.82
-1159.83
-1117.38
-1077.19
-1039.02
-1002.7
-968.039
-934.905
-903.164
-872.703
-843.425
-815.247
-788.087
-761.886
-736.576
-712.111
-688.441
-665.522
-643.317
-621.791
-600.912
-580.652
-560.982
-541.882
-523.309
-505.284
-487.747
-470.685
-454.087
-437.952
-422.229
-406.921
-392.007
-377.492
-363.332
-349.526
-336.056
-322.925
-310.105
-297.589
-285.355
-273.404
-261.726
-250.305
-239.137
-228.201
-217.482
-206.988
-196.713
-186.644
-176.774
-167.101
-157.59
-3742.59
-3532.03
-3122.99
-2837.21
-2633.81
-2441.17
-2270.08
-2126.3
-2001.97
-1891.74
-1793
-1703.88
-1622.71
-1548.38
-1479.96
-1416.75
-1358.14
-1303.57
-1252.6
-1204.8
-1159.82
-1117.37
-1077.17
-1039.01
-1002.69
-968.028
-934.895
-903.155
-872.694
-843.417
-815.239
-788.08
-761.879
-736.569
-712.105
-688.435
-665.517
-643.312
-621.786
-600.908
-580.648
-560.978
-541.879
-523.305
-505.281
-487.744
-470.682
-454.084
-437.95
-422.227
-406.919
-392.005
-377.49
-363.33
-349.524
-336.054
-322.923
-310.103
-297.588
-285.353
-273.403
-261.725
-250.304
-239.135
-228.199
-217.481
-206.987
-196.712
-186.643
-176.773
-167.099
-157.589
-3734.04
-3527.4
-3120.59
-2835.85
-2632.96
-2440.62
-2269.71
-2126.05
-2001.79
-1891.61
-1792.9
-1703.8
-1622.65
-1548.33
-1479.92
-1416.71
-1358.11
-1303.54
-1252.58
-1204.77
-1159.8
-1117.35
-1077.16
-1039
-1002.67
-968.015
-934.883
-903.143
-872.683
-843.407
-815.23
-788.072
-761.871
-736.562
-712.098
-688.429
-665.511
-643.306
-621.781
-600.902
-580.643
-560.973
-541.874
-523.301
-505.277
-487.74
-470.678
-454.081
-437.946
-422.224
-406.916
-392.002
-377.487
-363.327
-349.521
-336.052
-322.92
-310.101
-297.586
-285.351
-273.401
-261.723
-250.302
-239.133
-228.198
-217.479
-206.985
-196.71
-186.642
-176.771
-167.098
-157.588
-3724.12
-3521.52
-3117.66
-2834.18
-2631.94
-2439.97
-2269.28
-2125.74
-2001.57
-1891.45
-1792.78
-1703.71
-1622.58
-1548.27
-1479.87
-1416.67
-1358.07
-1303.51
-1252.55
-1204.75
-1159.77
-1117.33
-1077.14
-1038.98
-1002.66
-967.999
-934.868
-903.13
-872.67
-843.395
-815.218
-788.061
-761.861
-736.553
-712.09
-688.421
-665.503
-643.299
-621.774
-600.896
-580.637
-560.967
-541.869
-523.296
-505.272
-487.736
-470.674
-454.077
-437.942
-422.22
-406.912
-391.999
-377.484
-363.324
-349.518
-336.049
-322.918
-310.099
-297.583
-285.349
-273.398
-261.721
-250.3
-239.131
-228.196
-217.477
-206.983
-196.708
-186.64
-176.77
-167.096
-157.586
-3713.27
-3513.92
-3114.05
-2832.13
-2630.69
-2439.17
-2268.75
-2125.38
-2001.31
-1891.26
-1792.63
-1703.6
-1622.49
-1548.2
-1479.81
-1416.62
-1358.03
-1303.47
-1252.51
-1204.72
-1159.75
-1117.3
-1077.11
-1038.96
-1002.64
-967.98
-934.85
-903.113
-872.655
-843.381
-815.205
-788.049
-761.85
-736.542
-712.079
-688.411
-665.494
-643.291
-621.766
-600.888
-580.63
-560.961
-541.862
-523.29
-505.267
-487.73
-470.669
-454.072
-437.938
-422.216
-406.908
-391.995
-377.48
-363.32
-349.515
-336.045
-322.915
-310.096
-297.58
-285.346
-273.396
-261.718
-250.297
-239.129
-228.193
-217.475
-206.981
-196.706
-186.637
-176.767
-167.094
-157.584
-3701.19
-3504.53
-3109.62
-2829.62
-2629.17
-2438.2
-2268.1
-2124.94
-2001
-1891.03
-1792.46
-1703.46
-1622.38
-1548.11
-1479.74
-1416.56
-1357.97
-1303.42
-1252.47
-1204.68
-1159.71
-1117.27
-1077.08
-1038.93
-1002.61
-967.958
-934.83
-903.094
-872.637
-843.364
-815.189
-788.034
-761.836
-736.529
-712.067
-688.4
-665.484
-643.28
-621.756
-600.879
-580.622
-560.953
-541.855
-523.283
-505.26
-487.724
-470.663
-454.066
-437.932
-422.21
-406.903
-391.99
-377.475
-363.316
-349.511
-336.042
-322.911
-310.092
-297.577
-285.343
-273.392
-261.715
-250.294
-239.126
-228.19
-217.472
-206.978
-196.703
-186.635
-176.765
-167.092
-157.581
-3686.82
-3493.88
-3104.2
-2826.51
-2627.3
-2437.01
-2267.32
-2124.4
-2000.61
-1890.74
-1792.24
-1703.3
-1622.25
-1548
-1479.65
-1416.48
-1357.91
-1303.36
-1252.42
-1204.63
-1159.67
-1117.23
-1077.05
-1038.9
-1002.58
-967.931
-934.805
-903.071
-872.616
-843.344
-815.171
-788.017
-761.82
-736.514
-712.053
-688.386
-665.471
-643.269
-621.745
-600.869
-580.612
-560.943
-541.846
-523.275
-505.252
-487.717
-470.656
-454.059
-437.926
-422.204
-406.897
-391.984
-377.47
-363.311
-349.506
-336.037
-322.906
-310.088
-297.573
-285.339
-273.388
-261.711
-250.29
-239.122
-228.187
-217.469
-206.975
-196.7
-186.632
-176.762
-167.089
-157.579
-3669.6
-3482.29
-3097.58
-2822.7
-2624.99
-2435.56
-2266.36
-2123.74
-2000.14
-1890.4
-1791.98
-1703.1
-1622.09
-1547.87
-1479.54
-1416.39
-1357.83
-1303.29
-1252.36
-1204.58
-1159.62
-1117.19
-1077.01
-1038.86
-1002.55
-967.899
-934.775
-903.043
-872.59
-843.32
-815.149
-787.996
-761.8
-736.495
-712.036
-688.37
-665.456
-643.254
-621.732
-600.856
-580.6
-560.932
-541.835
-523.265
-505.242
-487.708
-470.647
-454.051
-437.918
-422.197
-406.891
-391.978
-377.464
-363.305
-349.5
-336.031
-322.901
-310.083
-297.568
-285.334
-273.384
-261.707
-250.286
-239.118
-228.183
-217.465
-206.971
-196.696
-186.628
-176.759
-167.085
-157.575
-3649.76
-3469.92
-3089.29
-2818.05
-2622.16
-2433.77
-2265.17
-2122.93
-1999.57
-1889.98
-1791.66
-1702.85
-1621.89
-1547.71
-1479.41
-1416.28
-1357.73
-1303.21
-1252.28
-1204.51
-1159.56
-1117.13
-1076.96
-1038.81
-1002.51
-967.861
-934.74
-903.011
-872.56
-843.292
-815.122
-787.971
-761.777
-736.474
-712.016
-688.351
-665.438
-643.238
-621.716
-600.842
-580.586
-560.919
-541.823
-523.253
-505.231
-487.697
-470.637
-454.042
-437.91
-422.189
-406.882
-391.97
-377.457
-363.298
-349.493
-336.025
-322.895
-310.077
-297.562
-285.329
-273.379
-261.702
-250.281
-239.113
-228.178
-217.46
-206.967
-196.692
-186.624
-176.755
-167.081
-157.571
-3627.43
-3456.71
-3078.97
-2812.4
-2618.66
-2431.56
-2263.71
-2121.93
-1998.86
-1889.46
-1791.27
-1702.54
-1621.65
-1547.52
-1479.25
-1416.14
-1357.61
-1303.11
-1252.19
-1204.43
-1159.49
-1117.07
-1076.9
-1038.76
-1002.46
-967.815
-934.698
-902.972
-872.524
-843.258
-815.091
-787.942
-761.75
-736.448
-711.992
-688.329
-665.417
-643.218
-621.698
-600.824
-580.57
-560.903
-541.808
-523.239
-505.218
-487.685
-470.626
-454.031
-437.899
-422.179
-406.873
-391.961
-377.448
-363.29
-349.486
-336.018
-322.888
-310.07
-297.555
-285.322
-273.373
-261.696
-250.276
-239.108
-228.173
-217.455
-206.962
-196.687
-186.619
-176.75
-167.077
-157.567
-3602.37
-3441.97
-3066.99
-2805.53
-2614.37
-2428.83
-2261.91
-2120.7
-1997.99
-1888.82
-1790.79
-1702.17
-1621.36
-1547.28
-1479.05
-1415.97
-1357.47
-1302.99
-1252.08
-1204.33
-1159.4
-1116.99
-1076.83
-1038.7
-1002.4
-967.761
-934.647
-902.925
-872.481
-843.218
-815.054
-787.907
-761.718
-736.418
-711.963
-688.302
-665.392
-643.195
-621.676
-600.803
-580.55
-560.885
-541.791
-523.223
-505.203
-487.67
-470.612
-454.018
-437.887
-422.167
-406.862
-391.951
-377.438
-363.28
-349.476
-336.009
-322.879
-310.062
-297.548
-285.315
-273.365
-261.689
-250.269
-239.101
-228.166
-217.449
-206.956
-196.681
-186.614
-176.744
-167.071
-157.562
-3574.37
-3424.67
-3054.15
-2797.36
-2609.14
-2425.43
-2259.66
-2119.16
-1996.91
-1888.03
-1790.2
-1701.71
-1621
-1546.99
-1478.81
-1415.77
-1357.3
-1302.84
-1251.95
-1204.22
-1159.3
-1116.89
-1076.74
-1038.62
-1002.33
-967.696
-934.588
-902.87
-872.429
-843.171
-815.01
-787.866
-761.679
-736.382
-711.93
-688.271
-665.363
-643.167
-621.65
-600.779
-580.527
-560.863
-541.771
-523.204
-505.185
-487.653
-470.596
-454.002
-437.872
-422.153
-406.849
-391.938
-377.426
-363.269
-349.465
-335.998
-322.869
-310.052
-297.538
-285.306
-273.357
-261.681
-250.261
-239.094
-228.159
-217.442
-206.949
-196.675
-186.607
-176.738
-167.065
-157.555
-3543.18
-3404.75
-3040.37
-2787.73
-2602.97
-2421.26
-2256.87
-2117.26
-1995.57
-1887.05
-1789.46
-1701.15
-1620.55
-1546.63
-1478.51
-1415.52
-1357.09
-1302.65
-1251.79
-1204.08
-1159.17
-1116.78
-1076.64
-1038.53
-1002.24
-967.618
-934.516
-902.804
-872.369
-843.114
-814.957
-787.817
-761.634
-736.34
-711.89
-688.234
-665.328
-643.134
-621.619
-600.75
-580.5
-560.838
-541.747
-523.181
-505.163
-487.633
-470.577
-453.984
-437.855
-422.137
-406.833
-391.923
-377.412
-363.255
-349.453
-335.986
-322.858
-310.041
-297.528
-285.295
-273.347
-261.671
-250.251
-239.084
-228.15
-217.433
-206.94
-196.666
-186.599
-176.73
-167.058
-157.548
-3508.18
-3382.65
-3025.02
-2776.59
-2595.74
-2416.23
-2253.4
-2114.88
-1993.9
-1885.83
-1788.55
-1700.44
-1620
-1546.18
-1478.15
-1415.22
-1356.83
-1302.43
-1251.6
-1203.91
-1159.02
-1116.65
-1076.52
-1038.41
-1002.14
-967.526
-934.431
-902.726
-872.296
-843.047
-814.895
-787.759
-761.58
-736.289
-711.843
-688.19
-665.287
-643.096
-621.583
-600.716
-580.468
-560.808
-541.718
-523.154
-505.138
-487.609
-470.554
-453.963
-437.835
-422.117
-406.815
-391.906
-377.395
-363.24
-349.438
-335.972
-322.844
-310.028
-297.515
-285.283
-273.335
-261.659
-250.24
-239.074
-228.14
-217.423
-206.931
-196.657
-186.59
-176.721
-167.049
-3468.75
-3358.1
-3007.76
-2764.02
-2587.22
-2410.26
-2249.14
-2111.9
-1991.8
-1884.31
-1787.41
-1699.57
-1619.31
-1545.63
-1477.7
-1414.85
-1356.51
-1302.16
-1251.36
-1203.7
-1158.84
-1116.48
-1076.37
-1038.28
-1002.02
-967.415
-934.329
-902.632
-872.21
-842.967
-814.821
-787.691
-761.516
-736.23
-711.787
-688.138
-665.238
-643.05
-621.54
-600.676
-580.43
-560.772
-541.685
-523.122
-505.108
-487.581
-470.527
-453.938
-437.811
-422.095
-406.793
-391.885
-377.376
-363.221
-349.42
-335.955
-322.827
-310.012
-297.5
-285.269
-273.321
-261.646
-250.227
-239.061
-228.128
-217.411
-206.919
-196.646
-186.579
-176.71
-167.038
-3424.65
-3331.06
-2988.26
-2749.94
-2577.39
-2403.26
-2243.98
-2108.21
-1989.18
-1882.4
-1785.98
-1698.48
-1618.46
-1544.95
-1477.14
-1414.39
-1356.12
-1301.83
-1251.07
-1203.45
-1158.61
-1116.28
-1076.19
-1038.12
-1001.87
-967.282
-934.208
-902.52
-872.107
-842.872
-814.733
-787.609
-761.44
-736.159
-711.721
-688.076
-665.18
-642.996
-621.489
-600.628
-580.385
-560.73
-541.645
-523.085
-505.073
-487.547
-470.496
-453.908
-437.782
-422.068
-406.768
-391.861
-377.353
-363.199
-349.399
-335.934
-322.808
-309.994
-297.482
-285.252
-273.304
-261.63
-250.212
-239.046
-228.113
-217.397
-206.906
-196.632
-186.566
-176.698
-167.026
-3301.44
-2966.23
-2734.18
-2566.24
-2395.15
-2237.86
-2103.69
-1985.9
-1880.01
-1784.19
-1697.11
-1617.39
-1544.1
-1476.45
-1413.82
-1355.64
-1301.42
-1250.72
-1203.14
-1158.34
-1116.04
-1075.98
-1037.93
-1001.7
-967.122
-934.062
-902.386
-871.984
-842.758
-814.628
-787.512
-761.349
-736.075
-711.643
-688.003
-665.112
-642.932
-621.429
-600.572
-580.333
-560.68
-541.598
-523.041
-505.031
-487.508
-470.459
-453.873
-437.749
-422.036
-406.738
-391.833
-377.326
-363.173
-349.374
-335.911
-322.786
-309.972
-297.461
-285.232
-273.285
-261.611
-250.194
-239.029
-228.096
-217.381
-206.889
-196.617
-186.551
-176.683
-167.011
-3268.19
-2941.43
-2716.67
-2553.65
-2385.88
-2230.75
-2098.26
-1981.85
-1877.01
-1781.95
-1695.4
-1616.06
-1543.04
-1475.59
-1413.11
-1355.05
-1300.92
-1250.29
-1202.76
-1158.01
-1115.75
-1075.72
-1037.69
-1001.49
-966.93
-933.886
-902.226
-871.836
-842.623
-814.502
-787.396
-761.242
-735.975
-711.55
-687.916
-665.031
-642.856
-621.358
-600.505
-580.27
-560.622
-541.543
-522.989
-504.982
-487.462
-470.415
-453.831
-437.71
-421.999
-406.702
-391.799
-377.294
-363.143
-349.345
-335.883
-322.759
-309.946
-297.437
-285.208
-273.262
-261.589
-250.173
-239.008
-228.076
-217.361
-206.871
-196.598
-186.533
-176.665
-166.994
-3230.77
-2913.59
-2697.23
-2539.42
-2375.37
-2222.61
-2091.89
-1976.94
-1873.28
-1779.13
-1693.24
-1614.38
-1541.71
-1474.52
-1412.23
-1354.32
-1300.29
-1249.76
-1202.3
-1157.61
-1115.39
-1075.4
-1037.41
-1001.23
-966.698
-933.675
-902.033
-871.66
-842.461
-814.353
-787.257
-761.114
-735.856
-711.439
-687.813
-664.935
-642.766
-621.274
-600.427
-580.196
-560.552
-541.478
-522.928
-504.925
-487.407
-470.363
-453.783
-437.664
-421.956
-406.661
-391.76
-377.256
-363.107
-349.311
-335.85
-322.728
-309.916
-297.408
-285.18
-273.236
-261.564
-250.148
-238.984
-228.053
-217.338
-206.848
-196.577
-186.512
-176.645
-166.974
-3188.74
-2882.54
-2675.51
-2523.38
-2363.48
-2213.37
-2084.55
-1971.13
-1868.73
-1775.61
-1690.53
-1612.27
-1540.04
-1473.18
-1411.13
-1353.4
-1299.52
-1249.1
-1201.73
-1157.11
-1114.96
-1075.01
-1037.06
-1000.92
-966.417
-933.421
-901.801
-871.448
-842.266
-814.174
-787.092
-760.961
-735.714
-711.308
-687.69
-664.82
-642.66
-621.175
-600.334
-580.109
-560.47
-541.401
-522.855
-504.856
-487.343
-470.303
-453.725
-437.609
-421.904
-406.612
-391.713
-377.212
-363.064
-349.27
-335.812
-322.691
-309.881
-297.374
-285.147
-273.204
-261.533
-250.118
-238.955
-228.025
-217.311
-206.822
-196.551
-186.487
-176.62
-166.95
-3141.66
-2848.15
-2651.17
-2505.33
-2350.03
-2202.92
-2076.19
-1964.41
-1863.32
-1771.31
-1687.14
-1609.61
-1537.94
-1471.49
-1409.75
-1352.26
-1298.56
-1248.28
-1201.03
-1156.5
-1114.42
-1074.54
-1036.64
-1000.54
-966.076
-933.113
-901.521
-871.192
-842.032
-813.959
-786.894
-760.778
-735.545
-711.151
-687.545
-664.685
-642.533
-621.056
-600.223
-580.005
-560.373
-541.31
-522.769
-504.776
-487.267
-470.231
-453.657
-437.545
-421.843
-406.554
-391.658
-377.16
-363.015
-349.223
-335.766
-322.647
-309.839
-297.334
-285.109
-273.167
-261.497
-250.084
-238.922
-227.992
-217.28
-206.791
-196.521
-186.457
-176.592
-166.922
-3088.98
-2810.15
-2623.94
-2485.02
-2334.83
-2191.11
-2066.72
-1956.73
-1857.04
-1766.17
-1682.99
-1606.3
-1535.3
-1469.36
-1408.02
-1350.83
-1297.36
-1247.26
-1200.16
-1155.74
-1113.76
-1073.95
-1036.12
-1000.08
-965.662
-932.738
-901.182
-870.883
-841.75
-813.7
-786.656
-760.559
-735.343
-710.963
-687.371
-664.523
-642.383
-620.916
-600.092
-579.883
-560.258
-541.202
-522.668
-504.681
-487.177
-470.146
-453.577
-437.47
-421.772
-406.486
-391.594
-377.098
-362.957
-349.167
-335.713
-322.596
-309.79
-297.287
-285.064
-273.123
-261.455
-250.043
-238.883
-227.954
-217.242
-206.755
-196.486
-186.423
-176.558
-166.889
-3030.18
-2768.22
-2593.56
-2462.15
-2317.67
-2177.78
-2056.02
-1948.03
-1849.87
-1760.2
-1678.05
-1602.25
-1532.01
-1466.7
-1405.84
-1349.04
-1295.87
-1245.99
-1199.07
-1154.81
-1112.94
-1073.24
-1035.49
-999.513
-965.155
-932.282
-900.769
-870.508
-841.408
-813.387
-786.37
-760.295
-735.1
-710.739
-687.163
-664.33
-642.203
-620.749
-599.936
-579.737
-560.122
-541.074
-522.548
-504.568
-487.071
-470.046
-453.483
-437.381
-421.688
-406.406
-391.518
-377.026
-362.888
-349.102
-335.651
-322.537
-309.733
-297.232
-285.011
-273.072
-261.406
-249.996
-238.837
-227.91
-217.199
-206.713
-196.445
-186.383
-176.519
-166.85
-2964.7
-2722.1
-2559.76
-2436.46
-2298.32
-2162.75
-2043.93
-1938.18
-1841.72
-1753.39
-1672.31
-1597.44
-1528.01
-1463.4
-1403.12
-1346.78
-1293.99
-1244.41
-1197.72
-1153.64
-1111.93
-1072.35
-1034.7
-998.817
-964.533
-931.723
-900.265
-870.052
-840.993
-813.009
-786.023
-759.977
-734.807
-710.468
-686.913
-664.099
-641.988
-620.549
-599.75
-579.564
-559.96
-540.922
-522.406
-504.435
-486.946
-469.928
-453.372
-437.276
-421.588
-406.312
-391.429
-376.942
-362.808
-349.025
-335.577
-322.467
-309.666
-297.168
-284.949
-273.013
-261.349
-249.94
-238.783
-227.858
-217.148
-206.663
-196.397
-186.336
-176.473
-166.805
-2892
-2671.49
-2522.24
-2407.67
-2276.52
-2145.8
-2030.27
-1927.03
-1832.49
-1745.64
-1665.75
-1591.87
-1523.27
-1459.4
-1399.77
-1343.98
-1291.63
-1242.42
-1196.02
-1152.18
-1110.67
-1071.24
-1033.73
-997.957
-963.767
-931.037
-899.648
-869.494
-840.487
-812.548
-785.602
-759.591
-734.453
-710.143
-686.612
-663.82
-641.731
-620.31
-599.528
-579.356
-559.767
-540.742
-522.237
-504.276
-486.797
-469.788
-453.24
-437.152
-421.471
-406.201
-391.323
-376.842
-362.713
-348.935
-335.491
-322.384
-309.588
-297.092
-284.876
-272.943
-261.282
-249.875
-238.721
-227.797
-217.089
-206.606
-196.341
-186.282
-176.42
-166.753
-2811.59
-2616.12
-2480.66
-2375.52
-2252.05
-2126.73
-2014.87
-1914.42
-1822.04
-1736.86
-1658.29
-1585.5
-1517.8
-1454.7
-1395.74
-1340.54
-1288.71
-1239.94
-1193.91
-1150.37
-1109.09
-1069.87
-1032.53
-996.892
-962.821
-930.192
-898.889
-868.81
-839.867
-811.985
-785.09
-759.123
-734.023
-709.748
-686.248
-663.485
-641.42
-620.022
-599.26
-579.108
-559.535
-540.526
-522.035
-504.087
-486.62
-469.622
-453.083
-437.005
-421.332
-406.07
-391.199
-376.725
-362.601
-348.828
-335.39
-322.288
-309.496
-297.004
-284.792
-272.862
-261.203
-249.8
-238.648
-227.726
-217.021
-206.539
-196.276
-186.219
-176.359
-166.693
-2723.18
-2555.85
-2434.76
-2339.5
-2224.51
-2105.25
-1997.51
-1900.19
-1810.23
-1726.92
-1649.84
-1578.26
-1511.56
-1449.3
-1391.05
-1336.47
-1285.18
-1236.89
-1191.28
-1148.1
-1107.13
-1068.16
-1031.03
-995.57
-961.648
-929.146
-897.952
-867.967
-839.107
-811.296
-784.463
-758.551
-733.5
-709.268
-685.807
-663.078
-641.045
-619.675
-598.939
-578.809
-559.257
-540.266
-521.793
-503.862
-486.408
-469.423
-452.897
-436.829
-421.167
-405.914
-391.052
-376.585
-362.469
-348.703
-335.27
-322.174
-309.387
-296.9
-284.692
-272.766
-261.112
-249.712
-238.563
-227.644
-216.941
-206.462
-196.201
-186.146
-176.288
-166.624
-2626.17
-2490.87
-2384.77
-2299.56
-2193.7
-2081.13
-1977.96
-1884.12
-1796.88
-1715.67
-1640.27
-1570.04
-1504.47
-1443.13
-1385.67
-1331.75
-1281.04
-1233.25
-1188.09
-1145.31
-1104.69
-1066.03
-1029.16
-993.926
-960.192
-927.85
-896.793
-866.927
-838.169
-810.447
-783.693
-757.85
-732.86
-708.682
-685.27
-662.584
-640.589
-619.254
-598.549
-578.448
-558.922
-539.955
-521.502
-503.591
-486.155
-469.185
-452.674
-436.621
-420.971
-405.728
-390.877
-376.42
-362.313
-348.555
-335.129
-322.04
-309.26
-296.779
-284.575
-272.655
-261.005
-249.609
-238.464
-227.549
-216.848
-206.372
-196.114
-186.061
-176.206
-166.544
-2518.99
-2419.75
-2329.67
-2255.12
-2159.31
-2054.16
-1956.02
-1866.02
-1781.81
-1702.96
-1629.43
-1560.74
-1496.43
-1436.13
-1379.54
-1326.35
-1276.27
-1229.02
-1184.34
-1141.98
-1101.74
-1063.42
-1026.85
-991.884
-958.384
-926.243
-895.358
-865.639
-837.01
-809.401
-782.744
-756.988
-732.075
-707.964
-684.612
-661.98
-640.034
-618.742
-598.076
-578.01
-558.516
-539.578
-521.151
-503.264
-485.85
-468.9
-452.407
-436.371
-420.736
-405.507
-390.668
-376.224
-362.127
-348.379
-334.962
-321.882
-309.109
-296.635
-284.438
-272.523
-260.879
-249.488
-238.348
-227.437
-216.74
-206.267
-196.013
-185.963
-176.112
-166.451
-2405.55
-2344.22
-2269.59
-2205.7
-2120.77
-2023.88
-1931.38
-1845.66
-1764.82
-1688.62
-1617.2
-1550.22
-1487.32
-1428.19
-1372.58
-1320.21
-1270.82
-1224.17
-1180
-1138.1
-1098.26
-1060.3
-1024.06
-989.383
-956.15
-924.249
-893.578
-864.045
-835.577
-808.107
-781.574
-755.925
-731.108
-707.082
-683.806
-661.241
-639.355
-618.117
-597.5
-577.478
-558.023
-539.12
-520.726
-502.869
-485.482
-468.556
-452.085
-436.07
-420.454
-405.241
-390.418
-375.99
-361.906
-348.169
-334.763
-321.693
-308.931
-296.465
-284.276
-272.368
-260.731
-249.346
-238.213
-227.307
-216.614
-206.146
-195.895
-185.85
-176.003
-166.345
97.9131
-331.293
-813.196
-1302.86
-1743.65
-2062.22
-2285.93
-2264.69
-2205.31
-2151.66
-2077.99
-1990.04
-1903.73
-1822.72
-1745.65
-1672.42
-1603.36
-1538.32
-1477.01
-1419.2
-1364.68
-1313.24
-1264.64
-1218.65
-1175.05
-1133.65
-1094.25
-1056.68
-1020.78
-986.42
-953.469
-921.825
-891.389
-862.073
-833.802
-806.508
-780.128
-754.615
-729.917
-705.996
-682.814
-660.333
-638.522
-617.351
-596.795
-576.827
-557.422
-538.564
-520.209
-502.39
-485.036
-468.14
-451.697
-435.708
-420.114
-404.922
-390.118
-375.708
-361.641
-347.918
-334.526
-321.469
-308.719
-296.264
-284.083
-272.185
-260.556
-249.18
-238.054
-227.155
-216.466
-206.004
-195.758
-185.718
-175.877
-166.223
117.715
-282.899
-732.705
-1193.75
-1617.49
-1935.69
-2158.27
-2175.83
-2134.9
-2092.38
-2030.55
-1952.31
-1872.81
-1796.96
-1724.04
-1654.11
-1587.7
-1524.83
-1465.31
-1408.99
-1355.72
-1305.32
-1257.6
-1212.37
-1169.42
-1128.57
-1089.65
-1052.51
-1016.99
-982.974
-950.332
-918.968
-888.785
-859.699
-831.638
-804.54
-778.342
-752.995
-728.446
-704.658
-681.592
-659.215
-637.497
-616.411
-595.929
-576.03
-556.686
-537.883
-519.578
-501.807
-484.493
-467.634
-451.225
-435.269
-419.704
-404.537
-389.757
-375.37
-361.323
-347.618
-334.242
-321.202
-308.466
-296.024
-283.855
-271.968
-260.35
-248.983
-237.867
-226.975
-216.294
-205.837
-195.599
-185.565
-175.731
-166.083
135.677
-237.331
-655.37
-1086.95
-1490.64
-1804.53
-2027.42
-2080.01
-2059.75
-2028.63
-1978.64
-1910.66
-1838.52
-1768.25
-1699.86
-1633.57