/*--------------------------------*- C++ -*----------------------------------*\
| =========                 |                                                 |
| \\      /  F ield         | OpenFOAM: The Open Source CFD Toolbox           |
|  \\    /   O peration     | Version:  2412                                  |
|   \\  /    A nd           | Website:  www.openfoam.com                      |
|    \\/     M anipulation  |                                                 |
\*---------------------------------------------------------------------------*/
FoamFile
{
    version     2.0;
    format      ascii;
    arch        "LSB;label=32;scalar=64";
    class       volVectorField;
    location    "180";
    object      U;
}
// * * * * * * * * * * * * * * * * * * * * * * * * * * * * * * * * * * * * * //

dimensions      [0 1 -1 0 0 0 0];

internalField   nonuniform List<vector> 
7423
(
(0.732202 4.15318 -5.37672e-18)
(1.84365 4.01634 7.66051e-24)
(2.62827 3.3159 -2.73349e-23)
(2.88738 2.46559 5.90821e-17)
(2.68295 1.68707 -2.59283e-23)
(2.31653 1.12551 -4.41285e-17)
(2.03887 0.78904 0)
(1.76153 0.552358 -3.37088e-17)
(1.46834 0.376227 -1.48098e-23)
(1.23006 0.258307 0)
(1.05349 0.180701 5.9675e-18)
(0.921872 0.128038 5.39906e-18)
(0.824896 0.0912065 0)
(0.755418 0.0647214 -4.48861e-18)
(0.70676 0.0448926 4.11973e-18)
(0.672794 0.0293228 -9.49343e-25)
(0.648747 0.0164948 8.56936e-25)
(0.631316 0.00557373 4.06727e-19)
(0.617891 -0.00401221 -3.78296e-19)
(0.607221 -0.0125729 -1.41128e-18)
(0.598141 -0.0203078 0)
(0.590101 -0.0273671 0)
(0.58262 -0.033817 -2.32371e-18)
(0.575535 -0.0397398 2.18728e-18)
(0.568652 -0.0451897 -1.96863e-24)
(0.562299 -0.0502404 9.46817e-25)
(0.555697 -0.0548572 -8.64214e-25)
(0.548919 -0.059094 1.66809e-24)
(0.542114 -0.0629725 -3.3187e-18)
(0.535293 -0.0665363 -3.15449e-18)
(0.528439 -0.0697903 6.0045e-18)
(0.521558 -0.072755 5.72164e-18)
(0.514655 -0.0754507 0)
(0.507732 -0.0778934 5.21278e-18)
(0.500793 -0.0800968 -1.16847e-24)
(0.493849 -0.0820691 4.76865e-18)
(0.486905 -0.0838363 0)
(0.479973 -0.0853963 4.37849e-18)
(0.473053 -0.0867731 -3.38991e-26)
(0.466162 -0.0879665 4.0336e-18)
(0.459314 -0.0889986 -7.75198e-18)
(0.452509 -0.0898761 3.7272e-18)
(0.44576 -0.090605 -8.69998e-25)
(0.439077 -0.0912059 0)
(0.432454 -0.0916761 6.65509e-18)
(0.42591 -0.0920308 -1.53011e-24)
(0.419455 -0.0922815 9.22178e-25)
(0.413088 -0.0924297 5.97362e-18)
(0.406788 -0.0924881 1.1537e-17)
(0.400595 -0.0924575 6.76385e-25)
(0.394515 -0.0923615 -2.3955e-25)
(0.388504 -0.0921839 5.20878e-18)
(0.382574 -0.0919399 0)
(0.376757 -0.0916356 -4.87588e-18)
(0.371051 -0.0912874 0)
(0.365421 -0.0908807 -4.5704e-18)
(0.359872 -0.0904246 8.85329e-18)
(0.354417 -0.0899308 -4.28831e-18)
(0.349063 -0.089401 -4.15496e-18)
(0.343793 -0.0888378 4.02642e-18)
(0.338593 -0.0882366 -3.9021e-18)
(0.333473 -0.087607 3.78176e-18)
(0.328441 -0.0869588 0)
(0.323497 -0.0862838 -8.2851e-25)
(0.318627 -0.08559 6.88151e-18)
(0.313835 -0.0848805 8.12616e-25)
(0.309113 -0.0841544 0)
(0.304455 -0.0834091 -7.27113e-25)
(0.299902 -0.0826602 3.51387e-26)
(0.295441 -0.0819124 1.46062e-18)
(0.291069 -0.0811558 0)
(0.286777 -0.0803982 -1.36193e-18)
(0.282566 -0.0796378 6.4349e-25)
(0.27839 -0.0788658 0)
(0.274276 -0.0780866 1.21595e-18)
(0.27036 -0.0773468 1.167e-18)
(2.20246 12.48 4.36323e-23)
(5.60836 12.1964 -2.32356e-17)
(8.10789 10.2193 -5.12306e-17)
(9.02514 7.70682 -4.88502e-17)
(8.47619 5.33149 0)
(7.35857 3.57797 7.31118e-17)
(6.46183 2.50203 3.17108e-23)
(5.60124 1.757 9.35344e-23)
(4.67405 1.19835 -2.45025e-23)
(3.9155 0.822676 0)
(3.35117 0.57521 -9.16769e-24)
(2.9306 0.407229 1.71305e-23)
(2.62043 0.289915 -8.00747e-24)
(2.396 0.205432 7.45764e-18)
(2.24093 0.142438 -6.84331e-18)
(2.13103 0.0929255 -6.30555e-18)
(2.05278 0.0522577 -1.42386e-24)
(1.99507 0.0176475 -6.75987e-19)
(1.95158 -0.0126475 5.49011e-25)
(1.91638 -0.0396662 1.1728e-18)
(1.88641 -0.0640228 2.19338e-18)
(1.85993 -0.0862346 -4.11194e-18)
(1.83537 -0.10652 7.72556e-18)
(1.8122 -0.125114 0)
(1.78979 -0.142216 1.60618e-24)
(1.76915 -0.158039 -1.57419e-24)
(1.74782 -0.172531 -6.13322e-18)
(1.72602 -0.185802 2.7246e-24)
(1.7042 -0.197956 5.51849e-18)
(1.68239 -0.209107 5.24561e-18)
(1.66054 -0.219289 9.98531e-18)
(1.63863 -0.22857 -9.51527e-18)
(1.61669 -0.237008 -7.37501e-26)
(1.59472 -0.244645 -8.66961e-18)
(1.57272 -0.251531 0)
(1.55073 -0.257702 -7.93147e-18)
(1.52877 -0.263212 0)
(1.50686 -0.268093 -7.28294e-18)
(1.48501 -0.272388 -6.98769e-18)
(1.46326 -0.276116 -6.70972e-18)
(1.44166 -0.279333 1.56386e-24)
(1.42021 -0.28207 -6.20036e-18)
(1.39893 -0.284343 2.89463e-24)
(1.37788 -0.286205 0)
(1.35703 -0.287671 -1.10719e-17)
(1.33643 -0.288768 2.58991e-24)
(1.31612 -0.289542 1.0297e-17)
(1.29608 -0.289999 -9.93883e-18)
(1.27627 -0.290162 -2.72997e-24)
(1.25678 -0.290067 2.2508e-24)
(1.23766 -0.289745 -1.7925e-17)
(1.21877 -0.289183 -8.6669e-18)
(1.20014 -0.288407 -8.38401e-18)
(1.18185 -0.287451 8.11329e-18)
(1.16392 -0.286343 -7.85377e-18)
(1.14624 -0.285066 7.60518e-18)
(1.12881 -0.283631 -7.36603e-18)
(1.11167 -0.282074 -7.1359e-18)
(1.09485 -0.280403 -6.91407e-18)
(1.07831 -0.278632 -1.34005e-17)
(1.06198 -0.276747 6.49347e-18)
(1.0459 -0.274768 0)
(1.03011 -0.272723 0)
(1.01459 -0.27061 0)
(0.999303 -0.268434 -5.72579e-18)
(0.984262 -0.266199 -1.2926e-24)
(0.96945 -0.263918 1.31014e-24)
(0.95484 -0.261584 1.21e-24)
(0.940547 -0.259237 -1.2282e-24)
(0.92655 -0.256882 -1.35877e-24)
(0.912833 -0.254512 2.34807e-18)
(0.899359 -0.252133 4.53264e-18)
(0.886146 -0.249746 -1.07079e-24)
(0.873048 -0.247322 9.74584e-25)
(0.860147 -0.244882 -5.77749e-26)
(0.847871 -0.242556 -9.54884e-25)
(3.73924 21.178 0)
(9.61671 20.8791 0)
(14.0605 17.7124 3.35122e-21)
(15.8305 13.5214 1.02608e-22)
(15.0209 9.45256 0)
(13.1261 6.38586 -8.14552e-17)
(11.5219 4.46333 6.50142e-23)
(10.0389 3.15045 3.04898e-17)
(8.39431 2.15335 0)
(7.03664 1.47924 2.452e-17)
(6.02086 1.03405 -1.10746e-17)
(5.26306 0.731727 -1.00545e-17)
(4.70319 0.520639 1.75193e-23)
(4.29192 0.368222 -4.2152e-25)
(4.01479 0.255342 -7.54785e-24)
(3.81399 0.166409 3.55377e-18)
(3.67022 0.0935389 7.66646e-25)
(3.56129 0.0315648 -8.3421e-25)
(3.48293 -0.022513 8.6478e-26)
(3.41746 -0.07069 1.23725e-24)
(3.36169 -0.114082 -2.47585e-18)
(3.31246 -0.15354 4.64218e-18)
(3.26701 -0.189571 -4.36152e-18)
(3.22427 -0.222579 4.10619e-18)
(3.18309 -0.252883 3.62799e-24)
(3.14516 -0.280933 -3.55603e-24)
(3.10606 -0.306579 2.46891e-25)
(3.06648 -0.330074 0)
(3.02701 -0.351602 0)
(2.98764 -0.371319 0)
(2.94828 -0.389326 -2.25688e-17)
(2.90891 -0.405747 2.52121e-24)
(2.86953 -0.420654 1.02601e-17)
(2.83014 -0.434155 5.42547e-24)
(2.79078 -0.446315 -4.54496e-24)
(2.75145 -0.457229 -8.9663e-18)
(2.7122 -0.46695 0)
(2.67308 -0.475569 -3.8613e-24)
(2.63411 -0.483138 7.90072e-18)
(2.59534 -0.489726 -7.58685e-18)
(2.55683 -0.495397 0)
(2.51863 -0.50021 7.01158e-18)
(2.48075 -0.504221 0)
(2.44329 -0.507489 0)
(2.4062 -0.510064 0)
(2.36956 -0.511991 0)
(2.33345 -0.513337 1.1647e-17)
(2.29782 -0.514131 1.12422e-17)
(2.26261 -0.514396 -1.08567e-17)
(2.22798 -0.514213 1.04894e-17)
(2.19401 -0.513619 -2.03818e-24)
(2.16045 -0.512608 0)
(2.12736 -0.511216 5.37647e-25)
(2.09488 -0.509514 -6.96778e-25)
(2.06304 -0.507528 4.99004e-25)
(2.03164 -0.505249 -1.72096e-17)
(2.00069 -0.502701 -1.9492e-24)
(1.97027 -0.499925 8.07431e-18)
(1.94042 -0.496957 1.5647e-17)
(1.91106 -0.493802 7.58172e-18)
(1.8821 -0.490455 1.71636e-24)
(1.85356 -0.48694 -1.73343e-24)
(1.82554 -0.483303 0)
(1.798 -0.479553 0)
(1.77087 -0.475685 1.51096e-24)
(1.74419 -0.471718 6.27655e-18)
(1.71792 -0.467667 2.8984e-24)
(1.692 -0.463527 -1.43596e-24)
(1.66664 -0.45936 1.32381e-24)
(1.64181 -0.455174 -5.50173e-18)
(1.61747 -0.45097 1.05943e-24)
(1.59355 -0.446743 -2.56499e-18)
(1.5701 -0.442502 0)
(1.54687 -0.438196 0)
(1.524 -0.433872 -2.29005e-18)
(1.50222 -0.42974 -2.19786e-18)
(5.28904 29.9393 8.79621e-23)
(13.715 29.7562 -8.89005e-23)
(20.2715 25.5325 1.18309e-16)
(23.0655 19.7076 2.06975e-22)
(22.1395 13.9394 5.09045e-17)
(19.5269 9.50498 4.35169e-17)
(17.1816 6.65872 0)
(15.0553 4.72694 -3.15101e-17)
(12.6551 3.2481 0)
(10.6397 2.23802 -2.64376e-17)
(9.11411 1.56617 -2.22445e-23)
(7.97005 1.10873 1.10792e-17)
(7.12107 0.788769 0)
(6.48329 0.55653 8.79548e-24)
(6.06926 0.386222 -8.60197e-18)
(5.75965 0.251465 3.70328e-24)
(5.53649 0.141218 -5.31131e-24)
(5.36029 0.0475845 1.67801e-24)
(5.24329 -0.0338226 -7.95585e-19)
(5.14025 -0.106251 1.38851e-24)
(5.05244 -0.171422 -2.78004e-18)
(4.97499 -0.230553 5.21491e-18)
(4.90375 -0.284493 0)
(4.83698 -0.333881 -4.6162e-18)
(4.77293 -0.379151 8.31343e-24)
(4.71377 -0.421019 -3.99985e-24)
(4.65264 -0.459205 6.62793e-25)
(4.59187 -0.494233 -3.46673e-24)
(4.53158 -0.526339 9.99377e-24)
(4.47161 -0.555725 6.67769e-18)
(4.41178 -0.582564 2.54286e-17)
(4.35206 -0.607016 5.68223e-24)
(4.29243 -0.629217 -1.15637e-17)
(4.23289 -0.649311 1.42645e-24)
(4.17346 -0.667419 5.12388e-24)
(4.11414 -0.683654 1.01098e-17)
(4.055 -0.698116 0)
(3.99612 -0.710931 4.35488e-24)
(3.9375 -0.722177 -8.50175e-24)
(3.87923 -0.73197 8.55875e-18)
(3.82139 -0.740392 7.84726e-24)
(3.76403 -0.747531 -7.91164e-18)
(3.70719 -0.753476 3.56981e-24)
(3.65099 -0.75832 -3.55798e-24)
(3.59537 -0.762119 -1.41342e-17)
(3.54046 -0.764971 0)
(3.48633 -0.766943 -1.19532e-24)
(3.43295 -0.768095 -2.97374e-24)
(3.38019 -0.768462 1.2259e-17)
(3.32834 -0.768149 -1.18453e-17)
(3.27747 -0.767244 1.14506e-17)
(3.22722 -0.765705 -2.59281e-24)
(3.17769 -0.763598 1.07138e-17)
(3.12908 -0.761033 -1.0369e-17)
(3.0814 -0.758042 1.00384e-17)
(3.03443 -0.754615 9.72158e-18)
(2.98812 -0.750788 4.5775e-24)
(2.94261 -0.746622 0)
(2.89795 -0.742176 -8.84072e-18)
(2.85403 -0.73744 0)
(2.81071 -0.732423 8.30427e-18)
(2.76803 -0.727162 0)
(2.7261 -0.721711 3.64129e-24)
(2.68491 -0.716089 -3.68298e-24)
(2.64434 -0.710291 0)
(2.60444 -0.70436 -1.41906e-17)
(2.56514 -0.698291 3.20089e-24)
(2.52638 -0.692092 6.65087e-18)
(2.48844 -0.685848 0)
(2.45128 -0.679579 3.11023e-18)
(2.41486 -0.673282 -6.00955e-18)
(2.37908 -0.666945 2.90031e-18)
(2.344 -0.660594 2.59332e-24)
(2.30924 -0.654143 -2.69324e-18)
(2.27503 -0.647669 2.58968e-18)
(2.24243 -0.641479 2.48551e-18)
(6.76417 38.2644 0)
(17.6041 38.1832 0)
(26.1799 32.9748 -5.46697e-17)
(30.0273 25.6648 5.00535e-17)
(29.2568 18.4304 -4.64761e-17)
(26.1445 12.7339 -4.1112e-17)
(23.1677 8.98317 0)
(20.3731 6.40001 2.96192e-17)
(17.3064 4.44458 -2.82085e-17)
(14.6614 3.08586 -2.66919e-17)
(12.6154 2.16919 1.22906e-22)
(11.0608 1.53963 -2.30376e-23)
(9.89538 1.09673 0)
(8.99721 0.772763 -9.74165e-24)
(8.43286 0.536968 3.4111e-23)
(7.99672 0.34936 -4.34644e-18)
(7.67979 0.196049 1.88463e-24)
(7.41744 0.0659763 -2.09739e-24)
(7.25916 -0.0467385 8.77866e-19)
(7.11036 -0.146911 0)
(6.98335 -0.236844 1.34134e-24)
(6.87136 -0.318382 -5.77971e-18)
(6.76865 -0.39264 5.43824e-18)
(6.6727 -0.460538 -5.12653e-18)
(6.58098 -0.522755 0)
(6.4957 -0.580115 0)
(6.40688 -0.63232 -5.76459e-24)
(6.32102 -0.680311 8.02077e-24)
(6.23637 -0.72431 7.35504e-24)
(6.1524 -0.764572 -7.46242e-18)
(6.06884 -0.801343 -1.42139e-17)
(5.9856 -0.834817 1.35529e-17)
(5.90263 -0.865226 6.27672e-24)
(5.81993 -0.892725 1.23626e-17)
(5.73748 -0.917508 0)
(5.6553 -0.939719 -1.13223e-17)
(5.57346 -0.959508 0)
(5.49203 -0.977027 4.88032e-24)
(5.41106 -0.992418 -9.99008e-18)
(5.33061 -1.0058 -1.08619e-23)
(5.25079 -1.01731 8.95157e-24)
(5.17169 -1.02707 -8.87672e-18)
(5.09334 -1.03518 -1.63046e-23)
(5.01589 -1.04178 7.98833e-24)
(4.93928 -1.04697 1.5871e-17)
(4.86365 -1.05084 1.53076e-17)
(4.78913 -1.05351 -2.95438e-17)
(4.71565 -1.05506 -6.68322e-24)
(4.64306 -1.05554 -1.37786e-17)
(4.5717 -1.05508 -1.33166e-17)
(4.5017 -1.05381 6.25169e-24)
(4.43259 -1.05168 5.83222e-24)
(4.36446 -1.04876 -5.85375e-24)
(4.2976 -1.0452 -1.16666e-17)
(4.23204 -1.04108 -5.2867e-24)
(4.16743 -1.03636 5.31766e-24)
(4.10375 -1.03108 -1.0601e-17)
(4.04119 -1.02534 -1.9116e-25)
(3.97978 -1.01921 9.95579e-18)
(3.91938 -1.01269 -4.69476e-24)
(3.85982 -1.00578 -9.3546e-18)
(3.80114 -0.99854 -9.06823e-18)
(3.74349 -0.991033 4.28074e-24)
(3.68685 -0.983295 0)
(3.63106 -0.975315 0)
(3.57619 -0.967145 1.32007e-24)
(3.52215 -0.958791 -3.60871e-24)
(3.46886 -0.950257 -7.49917e-18)
(3.41665 -0.94166 -3.37557e-24)
(3.36553 -0.933013 3.42939e-24)
(3.31541 -0.92434 3.38917e-18)
(3.26617 -0.915603 -6.63987e-24)
(3.21787 -0.906852 6.01772e-24)
(3.17003 -0.897962 3.03868e-18)
(3.12297 -0.889043 2.92212e-18)
(3.07808 -0.880504 0)
(8.08948 45.7197 0)
(21.0068 45.5526 0)
(31.1936 39.2898 1.76069e-22)
(35.8377 30.6392 -3.96627e-17)
(35.3105 22.2544 -1.23572e-23)
(32.0304 15.61 3.25451e-17)
(28.782 11.1666 0)
(25.4377 7.99575 0)
(21.9388 5.63802 2.48664e-17)
(18.8291 3.96579 2.45175e-17)
(16.3532 2.81384 4.54781e-23)
(14.4303 2.01005 2.39282e-23)
(12.9634 1.43774 -1.0944e-17)
(11.8147 1.01545 -1.11647e-17)
(11.0842 0.706234 3.1439e-23)
(10.5131 0.459635 4.54971e-18)
(10.0938 0.257943 -8.32412e-24)
(9.73563 0.0867734 0)
(9.53041 -0.0612316 9.35342e-19)
(9.32934 -0.19263 0)
(9.15724 -0.310483 3.3014e-18)
(9.00527 -0.417183 -6.05202e-24)
(8.8661 -0.514237 -5.86494e-18)
(8.73631 -0.602891 5.54095e-18)
(8.61259 -0.684065 -1.04861e-17)
(8.49608 -0.758714 0)
(8.37411 -0.826399 1.90343e-17)
(8.25961 -0.888905 9.0465e-18)
(8.14731 -0.946201 0)
(8.03621 -0.998626 -8.18963e-18)
(7.92589 -1.0465 0)
(7.81618 -1.09009 -1.49005e-17)
(7.70705 -1.12967 1.33508e-23)
(7.59841 -1.16549 -1.32098e-23)
(7.49024 -1.19775 0)
(7.38256 -1.22668 5.17912e-24)
(7.2754 -1.25247 0)
(7.16888 -1.2753 1.07824e-23)
(7.06302 -1.29535 2.20876e-17)
(6.95792 -1.3128 -3.76966e-24)
(6.85368 -1.32781 9.57826e-24)
(6.75041 -1.34055 1.96661e-17)
(6.64817 -1.35115 0)
(6.5471 -1.35978 -8.56073e-24)
(6.44717 -1.36655 -1.7614e-17)
(6.34854 -1.37162 -1.69987e-17)
(6.25134 -1.37514 1.64132e-17)
(6.15553 -1.37718 -1.58569e-17)
(6.06088 -1.37782 2.59249e-25)
(5.96783 -1.37725 1.48201e-17)
(5.87655 -1.37561 0)
(5.78645 -1.37285 -1.3875e-17)
(5.69763 -1.36908 -6.52426e-24)
(5.61044 -1.36446 2.83632e-24)
(5.52493 -1.3591 -5.89757e-24)
(5.44068 -1.35296 5.9347e-24)
(5.35764 -1.34608 2.36721e-17)
(5.27604 -1.33861 5.5789e-24)
(5.19594 -1.33063 -1.11245e-17)
(5.11715 -1.32214 0)
(5.03945 -1.31314 1.04606e-17)
(4.9629 -1.30369 1.0144e-17)
(4.88767 -1.2939 -9.8361e-18)
(4.81374 -1.28381 0)
(4.74093 -1.2734 4.31129e-24)
(4.66929 -1.26273 8.95901e-18)
(4.59874 -1.25182 -8.27816e-24)
(4.52914 -1.24068 4.10318e-24)
(4.46092 -1.22944 -3.78441e-24)
(4.3941 -1.21813 3.84582e-24)
(4.32858 -1.20678 3.532e-24)
(4.2642 -1.19535 -3.6709e-18)
(4.20103 -1.18389 0)
(4.13846 -1.17225 -3.41114e-18)
(4.07693 -1.16059 -6.56214e-18)
(4.01816 -1.14939 -3.15004e-18)
(9.24151 52.1679 1.85227e-22)
(23.88 51.7696 3.81763e-23)
(35.2766 44.4331 -1.35631e-22)
(40.4196 34.5652 0)
(39.9776 25.2069 2.69394e-17)
(36.597 17.8455 2.37676e-17)
(33.2588 12.9109 2.29478e-17)
(29.7038 9.34254 7.27321e-23)
(26.0298 6.69418 1.99597e-17)
(22.6963 4.78397 0)
(19.9732 3.43937 1.7169e-22)
(17.8068 2.48227 -4.04369e-23)
(16.118 1.78901 2.01451e-17)
(14.8083 1.27372 4.88786e-23)
(13.8973 0.886161 9.33574e-18)
(13.2054 0.577844 -4.43698e-18)
(12.6914 0.324688 0)
(12.2598 0.109551 -5.05838e-25)
(11.9907 -0.0768434 -2.41678e-24)
(11.7375 -0.24217 0)
(11.52 -0.390448 3.35355e-18)
(11.3273 -0.524619 1.21176e-23)
(11.1507 -0.646622 6.01396e-18)
(10.9859 -0.758035 0)
(10.8288 -0.859995 1.08366e-17)
(10.6788 -0.953549 -1.03219e-17)
(10.5236 -1.03844 -1.00045e-17)
(10.3792 -1.11694 -9.54036e-18)
(10.2378 -1.1889 0)
(10.0981 -1.25478 8.67273e-18)
(9.95961 -1.31495 0)
(9.82209 -1.36978 0)
(9.68544 -1.41958 0)
(9.54954 -1.4647 1.45239e-17)
(9.41433 -1.50536 0)
(9.2798 -1.54187 1.3367e-17)
(9.14601 -1.57442 0)
(9.01307 -1.6033 1.23434e-17)
(8.88098 -1.6287 -2.37503e-17)
(8.74987 -1.65085 -3.42985e-17)
(8.61983 -1.66993 0)
(8.49102 -1.68615 9.95681e-24)
(8.36348 -1.6997 -1.95424e-23)
(8.2374 -1.71078 1.88622e-23)
(8.11272 -1.71953 1.90955e-17)
(7.98962 -1.72613 0)
(7.8683 -1.73077 1.78371e-17)
(7.74868 -1.73356 8.10684e-24)
(7.6305 -1.7346 -1.66943e-17)
(7.51426 -1.73408 1.61608e-17)
(7.4002 -1.73222 0)
(7.2876 -1.72896 1.5162e-17)
(7.17656 -1.7244 1.46935e-17)
(7.06751 -1.71877 5.97995e-24)
(6.96053 -1.7122 1.38115e-17)
(6.85512 -1.70464 2.55557e-23)
(6.75119 -1.69616 -1.78089e-23)
(6.64901 -1.68691 0)
(6.54867 -1.677 -1.14395e-23)
(6.44995 -1.66645 -1.18739e-17)
(6.35258 -1.65525 -4.31111e-24)
(6.2566 -1.64349 0)
(6.16224 -1.63127 1.08521e-17)
(6.06948 -1.61866 9.8257e-24)
(5.97809 -1.60565 -9.95694e-24)
(5.88815 -1.59231 0)
(5.79953 -1.57865 8.94718e-24)
(5.71209 -1.56468 -1.77495e-23)
(5.62631 -1.55057 -4.50563e-18)
(5.54223 -1.53637 8.10866e-24)
(5.45976 -1.5221 4.21666e-18)
(5.37869 -1.50773 -1.55412e-23)
(5.2991 -1.49329 7.70666e-24)
(5.22028 -1.47864 3.78981e-18)
(5.14277 -1.46396 7.29439e-18)
(5.06863 -1.44983 3.50331e-18)
(10.2353 57.6947 3.01541e-23)
(26.3205 57.0476 3.43813e-22)
(38.6817 48.7267 2.02866e-23)
(44.1643 37.7798 -1.96194e-22)
(43.6909 27.5623 -4.26501e-17)
(40.1322 19.5812 -1.80473e-17)
(36.6396 14.232 -1.67667e-17)
(33.0201 10.3927 -1.51896e-17)
(29.2741 7.53436 -1.51911e-17)
(25.8777 5.45908 -5.76901e-23)
(23.0831 3.97826 1.61809e-17)
(20.8283 2.90595 3.26729e-23)
(19.0392 2.11506 -7.44488e-23)
(17.6832 1.52232 7.2232e-23)
(16.6276 1.06122 -8.16813e-18)
(15.857 0.694556 7.91072e-18)
(15.2778 0.391362 3.88498e-24)
(14.8267 0.13287 3.48184e-24)
(14.4766 -0.0924565 -8.7013e-19)
(14.1828 -0.292384 -1.6581e-18)
(13.9292 -0.471894 -3.16016e-18)
(13.7034 -0.634481 6.02395e-18)
(13.496 -0.782457 -5.74407e-18)
(13.3018 -0.917685 5.48104e-18)
(13.1165 -1.04154 0)
(12.9378 -1.15512 2.00832e-17)
(12.7594 -1.25894 9.85397e-18)
(12.5888 -1.3546 -1.83384e-23)
(12.4211 -1.44234 0)
(12.2554 -1.52274 -8.64798e-18)
(12.0912 -1.59628 -1.65768e-17)
(11.9282 -1.66338 -1.59026e-17)
(11.7662 -1.72446 0)
(11.605 -1.77987 -1.46746e-17)
(11.4447 -1.82993 1.32379e-23)
(11.2851 -1.87497 -1.31809e-23)
(11.1264 -1.91525 0)
(10.9686 -1.95107 -1.26167e-17)
(10.8117 -1.9827 1.21708e-17)
(10.6559 -2.01038 2.34967e-17)
(10.5013 -2.03435 -1.13476e-17)
(10.3481 -2.05484 2.12807e-23)
(10.1963 -2.07209 -2.12097e-17)
(10.0461 -2.08633 2.05205e-17)
(9.89742 -2.09773 1.98634e-17)
(9.75056 -2.1065 0)
(9.6057 -2.11287 -3.7275e-17)
(9.46277 -2.11697 1.39882e-23)
(9.32146 -2.11891 3.5035e-17)
(9.18234 -2.11896 -1.69923e-17)
(9.04571 -2.11732 -1.6488e-17)
(8.91076 -2.11398 0)
(8.77758 -2.10902 -1.04288e-23)
(8.64665 -2.10274 1.50913e-17)
(8.5181 -2.09527 -2.93187e-17)
(8.39138 -2.08659 -1.42431e-17)
(8.26634 -2.07675 -2.7681e-17)
(8.14329 -2.06596 -1.3451e-17)
(8.02237 -2.05433 1.30732e-17)
(7.90332 -2.04189 2.54139e-17)
(7.78583 -2.02864 -1.23508e-17)
(7.66994 -2.01467 1.2004e-17)
(7.55589 -2.00014 -1.16652e-17)
(7.44369 -1.98509 -1.05767e-23)
(7.33309 -1.96952 4.63463e-25)
(7.22415 -1.95353 -1.06915e-17)
(7.11675 -1.93713 0)
(7.01067 -1.92033 -1.00695e-17)
(6.9065 -1.90332 1.21366e-23)
(6.80431 -1.88617 -4.73013e-18)
(6.70399 -1.86891 -4.57954e-18)
(6.60532 -1.8515 0)
(6.50837 -1.834 0)
(6.41231 -1.81622 0)
(6.31783 -1.79838 -1.01105e-23)
(6.22729 -1.78119 3.82535e-18)
(11.0963 62.4464 0)
(28.4383 61.6238 2.06267e-17)
(41.6369 52.4596 0)
(47.3983 40.5632 0)
(46.8474 29.5716 1.81926e-17)
(43.0592 21.024 0)
(39.3407 15.2918 0)
(35.6108 11.2167 2.39857e-17)
(31.7681 8.18337 4.28788e-23)
(28.3234 5.98049 -1.17363e-17)
(25.5125 4.40101 -6.05466e-18)
(23.2507 3.24695 0)
(21.4512 2.38518 -6.42344e-18)
(20.096 1.73166 1.10484e-22)
(19.0021 1.21395 6.51694e-18)
(18.2081 0.798386 -2.53437e-23)
(17.6062 0.451637 -1.57346e-18)
(17.1656 0.154325 8.32378e-19)
(16.7636 -0.106669 7.3922e-19)
(16.4503 -0.338802 1.42385e-18)
(16.1785 -0.54782 2.73952e-18)
(15.9352 -0.737577 -5.26656e-18)
(15.7105 -0.910642 0)
(15.4994 -1.0691 -9.72582e-18)
(15.2972 -1.21451 0)
(15.1017 -1.34816 -2.32356e-23)
(14.9137 -1.47133 -2.16429e-23)
(14.7262 -1.58444 0)
(14.5408 -1.68832 0)
(14.3572 -1.78374 7.94485e-18)
(14.175 -1.87124 3.06122e-17)
(13.9938 -1.95131 2.95101e-17)
(13.8136 -2.02439 0)
(13.634 -2.09092 -2.57761e-23)
(13.4551 -2.15125 2.57598e-23)
(13.2768 -2.20574 1.28337e-17)
(13.0991 -2.2547 0)
(12.9223 -2.29848 1.20167e-17)
(12.7462 -2.33735 0)
(12.5712 -2.37159 -1.12783e-17)
(12.3972 -2.4015 1.09353e-17)
(12.2244 -2.42733 -1.06081e-17)
(12.0531 -2.44933 9.62167e-24)
(11.8833 -2.46777 -1.99938e-17)
(11.7151 -2.48286 -1.94219e-17)
(11.5486 -2.49483 -1.88743e-17)
(11.3841 -2.50394 3.66965e-17)
(11.2216 -2.51035 1.78441e-17)
(11.0607 -2.51417 -3.4718e-17)
(10.9021 -2.51571 0)
(10.7461 -2.51523 3.28837e-17)
(10.5918 -2.51267 1.60083e-17)
(10.4393 -2.50819 -2.45934e-24)
(10.2892 -2.50208 -1.47527e-23)
(10.1415 -2.49451 2.89131e-23)
(9.99585 -2.48546 1.43459e-23)
(9.85191 -2.47501 1.35508e-23)
(9.71007 -2.46335 2.73684e-17)
(9.57048 -2.45067 -2.66695e-17)
(9.43289 -2.43698 -1.29944e-17)
(9.29695 -2.42228 1.18304e-23)
(9.16267 -2.40669 -1.23367e-17)
(9.03035 -2.39036 2.40348e-17)
(8.90002 -2.37337 1.09218e-23)
(8.77139 -2.35573 -1.11085e-23)
(8.64453 -2.33753 1.10909e-17)
(8.5193 -2.31881 -1.05288e-23)
(8.39547 -2.29956 2.09832e-17)
(8.27367 -2.28 5.09725e-18)
(8.15403 -2.26023 4.91365e-24)
(8.03642 -2.24027 0)
(7.92061 -2.22009 0)
(7.80668 -2.19976 -8.35471e-24)
(7.6937 -2.17907 8.54507e-24)
(7.58249 -2.15829 -4.20341e-18)
(7.4757 -2.13818 -8.09794e-18)
(30.3153 65.663 -2.16686e-17)
(44.2923 55.8191 3.06853e-17)
(50.325 43.0899 0)
(49.6898 31.3883 2.37775e-22)
(45.6533 22.3088 1.30007e-17)
(41.6713 16.2109 -8.95544e-23)
(37.7673 11.9066 -9.99795e-18)
(33.7812 8.71065 0)
(30.2446 6.39281 9.14522e-18)
(27.389 4.72961 0)
(25.1137 3.51071 -4.69888e-18)
(23.3166 2.59521 3.7723e-23)
(21.9573 1.89395 5.03871e-18)
(20.8885 1.33586 -1.93032e-23)
(20.1046 0.882529 -2.46104e-18)
(19.5104 0.50119 1.2183e-18)
(19.0753 0.172062 -6.27476e-19)
(18.6765 -0.118374 -5.85346e-19)
(18.3644 -0.377864 0)
(18.0925 -0.612318 -4.42232e-18)
(17.8479 -0.825827 -8.02002e-24)
(17.6209 -1.02113 -4.14862e-18)
(17.4065 -1.20041 4.01407e-18)
(17.2002 -1.36538 0)
(17.0003 -1.51744 -7.53656e-18)
(16.8096 -1.65818 -2.77461e-23)
(16.6165 -1.78763 0)
(16.4246 -1.90686 -6.94894e-18)
(16.234 -2.01673 0)
(16.0443 -2.11783 -2.60603e-17)
(15.8552 -2.21068 -2.52549e-17)
(15.6665 -2.29578 -2.29664e-23)
(15.4782 -2.37358 4.53362e-23)
(15.2901 -2.44447 -4.40109e-23)
(15.1022 -2.50885 -1.12021e-17)
(14.9146 -2.56704 2.04221e-23)
(14.7275 -2.61942 -1.05867e-17)
(14.5409 -2.66629 -1.99845e-23)
(14.3549 -2.70796 3.00775e-17)
(14.1698 -2.74473 -1.8312e-23)
(13.9856 -2.77688 1.90255e-17)
(13.8025 -2.80469 1.85445e-17)
(13.6208 -2.82845 -1.80828e-17)
(13.4403 -2.84837 -1.76391e-17)
(13.2615 -2.86473 3.44257e-17)
(13.0844 -2.87779 -1.68016e-17)
(12.9092 -2.88773 0)
(12.7354 -2.8947 3.20475e-17)
(12.5637 -2.899 2.93315e-23)
(12.3945 -2.90092 -1.52966e-17)
(12.2269 -2.90044 -1.49505e-17)
(12.0609 -2.89768 -1.46145e-17)
(11.8972 -2.89299 0)
(11.736 -2.88658 1.39706e-17)
(11.5766 -2.87838 1.36616e-17)
(11.4188 -2.86852 1.33597e-17)
(11.2631 -2.85722 -1.3065e-17)
(11.1095 -2.84464 2.55524e-17)
(10.9579 -2.83085 -2.33539e-23)
(10.8079 -2.81583 1.22153e-17)
(10.6594 -2.7997 -2.32538e-23)
(10.5129 -2.78266 -1.16717e-17)
(10.3682 -2.76478 0)
(10.2253 -2.74608 1.11401e-17)
(10.084 -2.72667 0)
(9.94438 -2.70657 0)
(9.80606 -2.6858 -1.03546e-17)
(9.66972 -2.66459 -1.97212e-23)
(9.53555 -2.64306 4.91482e-18)
(9.40343 -2.62122 4.78245e-18)
(9.27311 -2.59907 0)
(9.14469 -2.57667 0)
(9.01717 -2.55379 0)
(8.89148 -2.53076 0)
(8.77057 -2.50841 7.05291e-24)
(46.741 58.9138 -4.64449e-20)
(53.067 45.465 -2.12077e-17)
(52.3619 33.1039 -1.57634e-17)
(48.0779 23.5157 -1.20597e-17)
(43.8168 17.0617 0)
(39.699 12.5285 0)
(35.5366 9.17384 0)
(31.8685 6.7441 0)
(28.9288 5.00141 0)
(26.6067 3.72375 3.68798e-18)
(24.7878 2.76207 -3.70755e-18)
(23.4089 2.02142 0)
(22.358 1.43147 0)
(21.5838 0.948612 1.87401e-18)
(21.0013 0.540298 -3.80018e-24)
(20.5659 0.186138 -4.68485e-19)
(20.1899 -0.127448 3.37489e-24)
(19.8874 -0.408788 -3.4455e-24)
(19.6237 -0.663796 1.38893e-23)
(19.386 -0.896691 0)
(19.1647 -1.11031 6.544e-18)
(18.955 -1.30695 -3.18121e-18)
(18.7525 -1.48837 -1.202e-23)
(18.555 -1.65598 0)
(18.3647 -1.81137 -5.89213e-18)
(18.1733 -1.95489 0)
(17.9825 -2.08754 5.56836e-18)
(17.7926 -2.21016 5.41348e-18)
(17.6031 -2.32339 8.98677e-24)
(17.4136 -2.42778 1.02466e-17)
(17.2242 -2.52385 -1.87107e-23)
(17.0346 -2.61208 1.88549e-23)
(16.8449 -2.69287 -9.46907e-18)
(16.6551 -2.76664 9.23283e-18)
(16.4651 -2.83372 0)
(16.2753 -2.89452 3.29811e-23)
(16.0856 -2.94935 -3.33143e-23)
(15.8963 -2.99854 -1.6775e-17)
(15.7074 -3.04239 0)
(15.5192 -3.08121 -8.01696e-18)
(15.3318 -3.11528 1.56857e-17)
(15.1456 -3.14491 3.07025e-17)
(14.9603 -3.17032 1.50295e-17)
(14.7764 -3.19181 -1.472e-17)
(14.594 -3.20964 9.61969e-25)
(14.4132 -3.22401 5.39252e-23)
(14.2336 -3.23508 -1.38541e-17)
(14.0559 -3.24316 0)
(13.8805 -3.24856 1.33225e-17)
(13.7064 -3.25126 -9.06699e-25)
(13.5339 -3.2514 -1.28218e-17)
(13.3633 -3.24934 1.25816e-17)
(13.1951 -3.24529 -2.31127e-23)
(13.0285 -3.23922 2.35562e-23)
(12.8633 -3.23124 -1.18935e-17)
(12.7 -3.22158 -1.16736e-17)
(12.5387 -3.21043 -1.14574e-17)
(12.3791 -3.19785 1.12444e-17)
(12.221 -3.18384 -2.20684e-17)
(12.0642 -3.16853 2.02231e-23)
(11.9092 -3.15211 -2.06883e-23)
(11.756 -3.13468 -1.94379e-23)
(11.6042 -3.11626 -1.02103e-17)
(11.4541 -3.09696 -3.81722e-23)
(11.3053 -3.07682 8.64182e-25)
(11.1577 -3.05584 1.87344e-23)
(11.0119 -3.03429 -4.69261e-18)
(10.8681 -3.01226 -4.58689e-18)
(10.7263 -2.98983 -4.47957e-18)
(10.5862 -2.96694 4.37005e-18)
(10.4478 -2.94369 0)
(10.3102 -2.91984 0)
(10.1743 -2.89573 -4.02427e-18)
(10.0435 -2.87231 3.90161e-18)
(55.6975 47.7514 2.17411e-17)
(54.9516 34.7744 3.12468e-17)
(50.4327 24.6942 -1.8967e-22)
(45.8889 17.8881 0)
(41.5365 13.124 0)
(37.1771 9.61002 -5.30559e-23)
(33.3499 7.06728 -6.61814e-18)
(30.2955 5.2448 4.97603e-23)
(27.8976 3.90959 3.07093e-18)
(26.0304 2.90429 3.0293e-18)
(24.6161 2.12835 0)
(23.5576 1.51019 2.989e-18)
(22.7785 1.00247 -2.77934e-23)
(22.1969 0.57202 0)
(21.7572 0.197645 3.64165e-19)
(21.3954 -0.134475 2.65659e-24)
(21.0994 -0.433242 -2.715e-24)
(20.8422 -0.704616 1.36177e-18)
(20.6107 -0.952993 2.02993e-23)
(20.3952 -1.18128 -2.59161e-18)
(20.1907 -1.39186 2.52476e-18)
(19.9931 -1.58656 0)
(19.7994 -1.76679 1.79483e-23)
(19.6107 -1.93402 -4.67602e-18)
(19.4228 -2.08905 1.76923e-23)
(19.2354 -2.23274 -4.43594e-18)
(19.0485 -2.36593 -8.64373e-18)
(18.8617 -2.48928 8.42477e-18)
(18.6746 -2.60335 -3.08154e-23)
(18.4872 -2.70869 3.11062e-23)
(18.2994 -2.8058 0)
(18.1112 -2.89508 7.63893e-18)
(17.9226 -2.97698 -7.46363e-18)
(17.7337 -3.05184 0)
(17.5447 -3.12006 -2.67706e-23)
(17.3556 -3.18199 9.01562e-25)
(17.1666 -3.23796 -6.83618e-18)
(16.9779 -3.28827 -8.68417e-25)
(16.7897 -3.33325 6.56166e-18)
(16.6022 -3.37318 -2.57317e-17)
(16.4155 -3.4084 -1.26189e-17)
(16.2297 -3.43912 0)
(16.045 -3.46564 1.21535e-17)
(15.8618 -3.48826 -2.23699e-23)
(15.68 -3.50717 -1.17222e-17)
(15.4992 -3.52252 0)
(15.3201 -3.53466 0)
(15.1432 -3.5439 -1.11296e-17)
(14.9676 -3.55021 -1.09444e-17)
(14.7932 -3.55375 1.07646e-17)
(14.6207 -3.55489 -3.37294e-23)
(14.4504 -3.55384 0)
(14.2815 -3.55058 1.02532e-17)
(14.114 -3.54522 3.08467e-23)
(13.9481 -3.538 9.9309e-18)
(13.7841 -3.52913 -9.77394e-18)
(13.6218 -3.51867 -1.92387e-17)
(13.4607 -3.50661 2.7325e-23)
(13.3008 -3.4931 -1.8139e-23)
(13.1424 -3.47833 -9.16462e-18)
(12.9857 -3.4624 3.36486e-23)
(12.8304 -3.44535 -3.45646e-23)
(12.6765 -3.42728 -8.7134e-18)
(12.5237 -3.40824 0)
(12.372 -3.38824 0)
(12.222 -3.36754 4.12594e-18)
(12.0739 -3.34626 4.04646e-18)
(11.9275 -3.32445 -2.94699e-23)
(11.7827 -3.30209 1.77343e-23)
(11.6395 -3.27925 0)
(11.4968 -3.2557 0)
(11.3557 -3.23178 1.28467e-23)
(11.2201 -3.20862 0)
(58.2556 49.9829 2.30383e-17)
(57.5124 36.4346 -3.19293e-17)
(52.781 25.8757 -1.68919e-22)
(47.9588 18.7182 2.83907e-22)
(43.3611 13.719 -2.37845e-22)
(38.7908 10.0422 -6.74535e-18)
(34.7842 7.38274 6.06103e-18)
(31.5918 5.47767 0)
(29.0952 4.08363 -2.69483e-18)
(27.1591 3.03472 0)
(25.6943 2.22479 0)
(24.607 1.57973 -2.51331e-18)
(23.8079 1.04937 -2.47309e-18)
(23.2143 0.599386 -6.0792e-19)
(22.7641 0.207648 -4.66921e-24)
(22.4032 -0.140141 0)
(22.1065 -0.453386 5.71616e-19)
(21.8498 -0.738231 0)
(21.6196 -0.999248 2.17721e-18)
(21.4059 -1.23947 2.12161e-18)
(21.2036 -1.46135 -2.06648e-18)
(21.0081 -1.66679 1.56468e-23)
(20.8163 -1.85723 0)
(20.6285 -2.03411 3.43764e-23)
(20.4426 -2.19846 0)
(20.2573 -2.35108 3.01751e-23)
(20.0724 -2.49283 3.53155e-18)
(19.8874 -2.62438 0)
(19.702 -2.74632 0)
(19.5163 -2.85921 -2.45968e-23)
(19.33 -2.96356 2.48485e-23)
(19.1433 -3.0598 2.3467e-23)
(18.956 -3.14837 -7.88767e-25)
(18.7683 -3.22962 -2.32055e-23)
(18.5804 -3.30399 0)
(18.3923 -3.37181 0)
(18.2042 -3.43343 5.61151e-18)
(18.0164 -3.48916 0)
(17.829 -3.53933 5.392e-18)
(17.6421 -3.58424 2.11576e-17)
(17.4561 -3.62422 3.89348e-23)
(17.2709 -3.65952 -3.95678e-23)
(17.0868 -3.69042 -1.00129e-17)
(16.904 -3.71722 -7.50865e-23)
(16.7226 -3.74013 8.27358e-23)
(16.5421 -3.75932 3.56488e-23)
(16.3634 -3.77513 -1.27658e-24)
(16.1867 -3.78788 -9.20752e-18)
(16.0113 -3.79755 1.81263e-17)
(15.837 -3.80429 -3.34217e-23)
(15.6647 -3.80849 -8.78829e-18)
(15.4944 -3.81038 3.24099e-23)
(15.3256 -3.80991 -8.52883e-18)
(15.1579 -3.80722 -3.02212e-23)
(14.992 -3.80255 3.22154e-23)
(14.8278 -3.79612 6.30902e-23)
(14.6652 -3.78798 -2.94603e-23)
(14.5038 -3.77813 1.58582e-17)
(14.3435 -3.76672 -3.04345e-23)
(14.1847 -3.75396 1.74458e-24)
(14.0276 -3.73996 1.2512e-24)
(13.8716 -3.72473 -7.47496e-18)
(13.717 -3.7084 7.36151e-18)
(13.5636 -3.69101 0)
(13.4111 -3.67258 -7.13174e-18)
(13.2602 -3.65337 2.74125e-23)
(13.1112 -3.63352 0)
(12.9638 -3.61307 0)
(12.818 -3.592 -3.3224e-18)
(12.6736 -3.57037 -2.41594e-23)
(12.5297 -3.54796 2.5022e-23)
(12.3872 -3.5251 3.11528e-18)
(12.2508 -3.50313 2.3931e-23)
(60.752 52.1679 -5.066e-17)
(60.0736 38.1034 3.35092e-17)
(55.164 27.0815 3.44783e-22)
(50.0743 19.5715 -9.22028e-18)
(45.226 14.3309 -7.6405e-18)
(40.4342 10.4854 6.51125e-18)
(36.2315 7.70355 0)