/*--------------------------------*- C++ -*----------------------------------*\
| =========                 |                                                 |
| \\      /  F ield         | OpenFOAM: The Open Source CFD Toolbox           |
|  \\    /   O peration     | Version:  2412                                  |
|   \\  /    A nd           | Website:  www.openfoam.com                      |
|    \\/     M anipulation  |                                                 |
\*---------------------------------------------------------------------------*/
FoamFile
{
    version     2.0;
    format      ascii;
    arch        "LSB;label=32;scalar=64";
    class       volScalarField;
    location    "260";
    object      nut;
}
// * * * * * * * * * * * * * * * * * * * * * * * * * * * * * * * * * * * * * //

dimensions      [0 2 -1 0 0 0 0];

internalField   nonuniform List<scalar> 
8553
(
1.81993e-12
4.38678e-12
6.46809e-13
1.40331e-13
5.04459e-13
9.06336e-13
1.17393e-11
2.16719e-11
1.76779e-11
1.31102e-11
1.13526e-11
1.03693e-11
1.00823e-11
1.02233e-11
1.04239e-11
1.04079e-11
1.0234e-11
9.9394e-12
9.59123e-12
9.3165e-12
9.15415e-12
9.06541e-12
9.02408e-12
8.98163e-12
8.91801e-12
8.84238e-12
8.76698e-12
8.70537e-12
8.658e-12
8.61879e-12
8.581e-12
8.5439e-12
8.50913e-12
8.47646e-12
8.44712e-12
8.42108e-12
8.39715e-12
8.37374e-12
8.35203e-12
8.33262e-12
8.31403e-12
8.29657e-12
8.27964e-12
8.26396e-12
8.24942e-12
8.23535e-12
8.22197e-12
8.20972e-12
8.19789e-12
8.18614e-12
8.17491e-12
8.16445e-12
8.15445e-12
8.14471e-12
8.13554e-12
8.12674e-12
8.11844e-12
8.1102e-12
8.10159e-12
8.09409e-12
8.08726e-12
8.08032e-12
8.07417e-12
8.06793e-12
8.06237e-12
8.05717e-12
8.05159e-12
8.04663e-12
8.04261e-12
8.0387e-12
8.03487e-12
8.03163e-12
8.02843e-12
8.02586e-12
8.02372e-12
8.0224e-12
8.02236e-12
8.02319e-12
7.13802e-12
7.04008e-12
6.99024e-12
7.22174e-12
7.89424e-12
9.19089e-12
1.22501e-11
1.49629e-11
9.54014e-12
1.061e-12
4.07705e-13
9.0411e-14
4.53796e-13
5.08713e-12
3.3015e-12
1.40128e-10
3.34493e-10
6.72351e-11
1.31548e-11
3.99868e-11
8.59558e-11
1.05133e-09
1.78933e-09
1.50223e-09
1.16261e-09
1.02023e-09
9.41725e-10
9.18817e-10
9.2971e-10
9.44183e-10
9.41217e-10
9.25322e-10
8.99783e-10
8.70476e-10
8.47402e-10
8.33592e-10
8.25953e-10
8.22136e-10
8.18167e-10
8.12456e-10
8.05823e-10
7.99281e-10
7.93911e-10
7.89727e-10
7.86221e-10
7.82882e-10
7.79598e-10
7.76522e-10
7.73679e-10
7.71115e-10
7.68815e-10
7.66683e-10
7.6464e-10
7.62754e-10
7.61022e-10
7.59388e-10
7.57868e-10
7.56412e-10
7.55042e-10
7.53765e-10
7.52547e-10
7.51392e-10
7.50302e-10
7.49245e-10
7.48234e-10
7.47268e-10
7.46353e-10
7.45495e-10
7.44652e-10
7.4384e-10
7.43074e-10
7.4235e-10
7.41634e-10
7.40917e-10
7.40266e-10
7.39657e-10
7.39071e-10
7.38524e-10
7.37987e-10
7.37514e-10
7.37048e-10
7.36581e-10
7.36171e-10
7.35812e-10
7.35477e-10
7.35157e-10
7.34888e-10
7.34622e-10
7.34404e-10
7.34242e-10
7.34141e-10
7.34142e-10
7.34223e-10
6.43885e-10
6.36902e-10
6.33211e-10
6.51821e-10
7.05736e-10
8.0976e-10
1.03779e-09
1.23383e-09
8.29246e-10
1.13619e-10
3.24161e-11
8.2134e-12
4.59904e-11
3.72288e-10
2.41909e-10
1.08603e-09
2.41281e-09
7.24504e-10
1.38448e-10
3.03562e-10
1.0144e-09
8.95817e-09
1.39514e-08
1.22018e-08
9.98397e-09
8.93173e-09
8.36831e-09
8.20093e-09
8.26951e-09
8.35125e-09
8.30774e-09
8.16819e-09
7.96063e-09
7.73222e-09
7.55296e-09
7.44361e-09
7.38145e-09
7.34689e-09
7.31071e-09
7.26163e-09
7.20627e-09
7.15264e-09
7.10837e-09
7.07328e-09
7.04351e-09
7.01535e-09
6.98786e-09
6.96204e-09
6.93849e-09
6.91729e-09
6.89807e-09
6.88026e-09
6.8634e-09
6.84778e-09
6.83332e-09
6.81981e-09
6.80733e-09
6.79549e-09
6.78423e-09
6.7737e-09
6.7637e-09
6.75424e-09
6.74529e-09
6.7367e-09
6.72855e-09
6.7207e-09
6.71319e-09
6.70613e-09
6.69927e-09
6.69263e-09
6.68634e-09
6.68038e-09
6.6746e-09
6.66885e-09
6.66351e-09
6.65857e-09
6.65388e-09
6.64939e-09
6.64507e-09
6.64117e-09
6.63735e-09
6.63369e-09
6.63046e-09
6.62748e-09
6.62486e-09
6.62244e-09
6.62037e-09
6.61845e-09
6.61691e-09
6.61579e-09
6.61517e-09
6.61544e-09
6.61632e-09
5.661e-09
5.62238e-09
5.60145e-09
5.73746e-09
6.12702e-09
6.88436e-09
8.3823e-09
9.60274e-09
6.81327e-09
1.35068e-09
2.4947e-10
8.22371e-11
5.26264e-10
2.56809e-09
1.679e-09
4.4057e-09
8.41016e-09
3.63108e-09
7.96762e-10
1.11683e-09
6.84169e-09
3.57122e-08
5.21681e-08
4.78099e-08
4.14015e-08
3.78437e-08
3.60213e-08
3.54478e-08
3.55996e-08
3.57486e-08
3.55007e-08
3.49306e-08
3.41508e-08
3.33319e-08
3.26898e-08
3.22878e-08
3.20501e-08
3.19015e-08
3.17458e-08
3.15482e-08
3.13319e-08
3.11263e-08
3.09559e-08
3.08186e-08
3.07007e-08
3.05895e-08
3.04819e-08
3.03814e-08
3.02902e-08
3.02083e-08
3.01336e-08
3.00647e-08
3.00001e-08
2.99401e-08
2.98849e-08
2.98336e-08
2.9786e-08
2.97412e-08
2.96988e-08
2.96589e-08
2.96212e-08
2.95856e-08
2.95522e-08
2.95202e-08
2.94896e-08
2.94604e-08
2.94325e-08
2.94058e-08
2.93801e-08
2.93554e-08
2.93317e-08
2.93093e-08
2.92877e-08
2.92665e-08
2.92467e-08
2.92284e-08
2.92109e-08
2.91941e-08
2.91784e-08
2.91641e-08
2.91504e-08
2.91375e-08
2.91261e-08
2.91158e-08
2.91069e-08
2.90992e-08
2.90929e-08
2.90874e-08
2.90834e-08
2.9081e-08
2.90808e-08
2.90842e-08
2.90894e-08
2.40502e-08
2.39854e-08
2.39578e-08
2.44208e-08
2.56997e-08
2.82244e-08
3.26206e-08
3.58594e-08
2.64172e-08
7.92157e-09
9.43329e-10
4.7074e-10
2.9321e-09
8.62769e-09
6.81354e-09
1.37308e-08
2.03698e-08
1.16302e-08
3.29524e-09
2.88115e-09
3.17649e-08
9.53466e-08
1.34909e-07
1.29794e-07
1.18377e-07
1.10565e-07
1.06787e-07
1.05424e-07
1.0544e-07
1.05371e-07
1.0454e-07
1.03025e-07
1.01122e-07
9.92179e-08
9.77177e-08
9.67447e-08
9.61401e-08
9.5715e-08
9.52744e-08
9.47504e-08
9.41958e-08
9.36782e-08
9.32475e-08
9.28959e-08
9.25902e-08
9.2303e-08
9.20284e-08
9.17732e-08
9.15433e-08
9.13378e-08
9.11512e-08
9.09795e-08
9.082e-08
9.06731e-08
9.05384e-08
9.04142e-08
9.0299e-08
9.01909e-08
9.00897e-08
8.99948e-08
8.99055e-08
8.98218e-08
8.9743e-08
8.96676e-08
8.95955e-08
8.95275e-08
8.94624e-08
8.94001e-08
8.93402e-08
8.92824e-08
8.92268e-08
8.91745e-08
8.91243e-08
8.90752e-08
8.90294e-08
8.89869e-08
8.89471e-08
8.89096e-08
8.88745e-08
8.88433e-08
8.88143e-08
8.87877e-08
8.8765e-08
8.87458e-08
8.87303e-08
8.87189e-08
8.87118e-08
8.87073e-08
8.87072e-08
8.87123e-08
8.87237e-08
8.87432e-08
8.87647e-08
7.03121e-08
7.03736e-08
7.04843e-08
7.15567e-08
7.42779e-08
7.97611e-08
8.7853e-08
9.25609e-08
6.93368e-08
2.99892e-08
2.55551e-09
2.06208e-09
1.00766e-08
2.05048e-08
2.10516e-08
4.37512e-08
3.9669e-08
2.78782e-08
1.06164e-08
6.11298e-09
1.00719e-07
1.97104e-07
2.79182e-07
2.81566e-07
2.68417e-07
2.55832e-07
2.5014e-07
2.4748e-07
2.46599e-07
2.45575e-07
2.43642e-07
2.40692e-07
2.37308e-07
2.34093e-07
2.31517e-07
2.29764e-07
2.28604e-07
2.27694e-07
2.26771e-07
2.25743e-07
2.24695e-07
2.23738e-07
2.22938e-07
2.22278e-07
2.21699e-07
2.2116e-07
2.20652e-07
2.20186e-07
2.19771e-07
2.19404e-07
2.19075e-07
2.18775e-07
2.185e-07
2.18251e-07
2.18025e-07
2.1782e-07
2.17632e-07
2.17457e-07
2.17296e-07
2.17148e-07
2.17009e-07
2.1688e-07
2.16758e-07
2.16643e-07
2.16534e-07
2.16431e-07
2.16333e-07
2.1624e-07
2.1615e-07
2.16063e-07
2.1598e-07
2.15902e-07
2.15828e-07
2.15757e-07
2.15691e-07
2.15631e-07
2.15578e-07
2.15528e-07
2.15484e-07
2.15448e-07
2.15417e-07
2.15392e-07
2.15375e-07
2.15367e-07
2.15368e-07
2.15379e-07
2.15401e-07
2.15429e-07
2.15469e-07
2.15521e-07
2.15588e-07
2.15667e-07
2.15739e-07
1.62541e-07
1.63107e-07
1.63774e-07
1.65755e-07
1.70023e-07
1.7879e-07
1.88839e-07
1.90853e-07
1.42133e-07
8.24255e-08
6.14482e-09
7.49896e-09
2.49621e-08
4.0112e-08
6.26523e-08
1.29333e-07
6.70398e-08
5.49525e-08
2.6214e-08
1.48164e-08
2.39807e-07
3.43561e-07
4.97616e-07
5.23623e-07
5.17339e-07
5.02137e-07
4.9574e-07
4.91142e-07
4.87982e-07
4.84979e-07
4.81653e-07
4.77332e-07
4.72901e-07
4.68943e-07
4.65637e-07
4.63216e-07
4.61472e-07
4.59958e-07
4.58479e-07
4.56953e-07
4.55469e-07
4.54156e-07
4.53059e-07
4.52148e-07
4.51351e-07
4.5062e-07
4.49951e-07
4.49358e-07
4.48847e-07
4.48406e-07
4.48025e-07
4.47692e-07
4.47396e-07
4.47142e-07
4.46923e-07
4.46734e-07
4.46572e-07
4.4643e-07
4.46304e-07
4.46194e-07
4.46098e-07
4.46012e-07
4.45935e-07
4.45865e-07
4.45801e-07
4.45742e-07
4.45687e-07
4.45638e-07
4.4559e-07
4.45544e-07
4.45501e-07
4.45464e-07
4.45431e-07
4.45403e-07
4.45383e-07
4.45371e-07
4.45367e-07
4.45371e-07
4.45386e-07
4.45415e-07
4.45453e-07
4.45503e-07
4.45571e-07
4.45656e-07
4.4576e-07
4.45885e-07
4.46033e-07
4.46197e-07
4.46384e-07
4.46599e-07
4.4684e-07
4.47093e-07
4.47302e-07
3.18509e-07
3.20082e-07
3.22033e-07
3.25184e-07
3.303e-07
3.40847e-07
3.47651e-07
3.38069e-07
2.48133e-07
1.79948e-07
1.64879e-08
2.01692e-08
5.02477e-08
6.93851e-08
1.67504e-07
3.43556e-07
1.04485e-07
9.47116e-08
5.2522e-08
3.77487e-08
4.66624e-07
5.3646e-07
7.96556e-07
8.67631e-07
8.8124e-07
8.68999e-07
8.64276e-07
8.57158e-07
8.50128e-07
8.4448e-07
8.40351e-07
8.35991e-07
8.32387e-07
8.29542e-07
8.26801e-07
8.2444e-07
8.22495e-07
8.20605e-07
8.18899e-07
8.17349e-07
8.15979e-07
8.14853e-07
8.13935e-07
8.13191e-07
8.12563e-07
8.12032e-07
8.11601e-07
8.11279e-07
8.11054e-07
8.10913e-07
8.10843e-07
8.10831e-07
8.10868e-07
8.1095e-07
8.11072e-07
8.11223e-07
8.11401e-07
8.11596e-07
8.11804e-07
8.12022e-07
8.12248e-07
8.12477e-07
8.12706e-07
8.12933e-07
8.13159e-07
8.13381e-07
8.13599e-07
8.13812e-07
8.14019e-07
8.14221e-07
8.14422e-07
8.14623e-07
8.14824e-07
8.15029e-07
8.15243e-07
8.15464e-07
8.15695e-07
8.15941e-07
8.16203e-07
8.16487e-07
8.16788e-07
8.17113e-07
8.17466e-07
8.17854e-07
8.1828e-07
8.18744e-07
8.19251e-07
8.19796e-07
8.20385e-07
8.21025e-07
8.21704e-07
8.22377e-07
8.22915e-07
5.50547e-07
5.5339e-07
5.57434e-07
5.61872e-07
5.66228e-07
5.74724e-07
5.70094e-07
5.36383e-07
3.88761e-07
3.31354e-07
4.47982e-08
4.31085e-08
8.89336e-08
1.22452e-07
3.94619e-07
8.28192e-07
1.97603e-07
1.50437e-07
9.18118e-08
9.65778e-08
7.81137e-07
7.78324e-07
1.17382e-06
1.31015e-06
1.35827e-06
1.35759e-06
1.35783e-06
1.34827e-06
1.33662e-06
1.32904e-06
1.32631e-06
1.32513e-06
1.32606e-06
1.32771e-06
1.32802e-06
1.32735e-06
1.32631e-06
1.32498e-06
1.32414e-06
1.32384e-06
1.32392e-06
1.32427e-06
1.32466e-06
1.32511e-06
1.32562e-06
1.32624e-06
1.32699e-06
1.32786e-06
1.3288e-06
1.32981e-06
1.33087e-06
1.33197e-06
1.33311e-06
1.33427e-06
1.33546e-06
1.33665e-06
1.33784e-06
1.33902e-06
1.34019e-06
1.34135e-06
1.34248e-06
1.34359e-06
1.34467e-06
1.34573e-06
1.34676e-06
1.34775e-06
1.34872e-06
1.34966e-06
1.35057e-06
1.35146e-06
1.35233e-06
1.35318e-06
1.35403e-06
1.35487e-06
1.35571e-06
1.35656e-06
1.35742e-06
1.3583e-06
1.35921e-06
1.36014e-06
1.3611e-06
1.36211e-06
1.36317e-06
1.36429e-06
1.36548e-06
1.36674e-06
1.36808e-06
1.36948e-06
1.37098e-06
1.37256e-06
1.37419e-06
1.37576e-06
1.37701e-06
8.60446e-07
8.6396e-07
8.70439e-07
8.75847e-07
8.77059e-07
8.77635e-07
8.52107e-07
7.8189e-07
5.63151e-07
5.35728e-07
1.17196e-07
7.84136e-08
1.45587e-07
2.40981e-07
8.22991e-07
1.82144e-06
4.09184e-07
2.27072e-07
1.46749e-07
2.40615e-07
1.16806e-06
1.07354e-06
1.61484e-06
1.82694e-06
1.92264e-06
1.94372e-06
1.95305e-06
1.94283e-06
1.92805e-06
1.9216e-06
1.92455e-06
1.93177e-06
1.94263e-06
1.95351e-06
1.96055e-06
1.9643e-06
1.96631e-06
1.96758e-06
1.9698e-06
1.97309e-06
1.97698e-06
1.98101e-06
1.98474e-06
1.98824e-06
1.99165e-06
1.99515e-06
1.99878e-06
2.00247e-06
2.00616e-06
2.00982e-06
2.01345e-06
2.01706e-06
2.02065e-06
2.0242e-06
2.02769e-06
2.03113e-06
2.0345e-06
2.0378e-06
2.04102e-06
2.04416e-06
2.04721e-06
2.05018e-06
2.05306e-06
2.05586e-06
2.05856e-06
2.06119e-06
2.06373e-06
2.06619e-06
2.06859e-06
2.07093e-06
2.07321e-06
2.07545e-06
2.07766e-06
2.07984e-06
2.08202e-06
2.08419e-06
2.08638e-06
2.08859e-06
2.09084e-06
2.09313e-06
2.09548e-06
2.0979e-06
2.1004e-06
2.10301e-06
2.10574e-06
2.10859e-06
2.11158e-06
2.1147e-06
2.11797e-06
2.12138e-06
2.12486e-06
2.12818e-06
2.13087e-06
1.23793e-06
1.24592e-06
1.25103e-06
1.24611e-06
1.23186e-06
1.17685e-06
1.06318e-06
7.67269e-07
7.80415e-07
2.9312e-07
1.3069e-07
2.26759e-07
4.80713e-07
1.54135e-06
3.6705e-06
8.60948e-07
3.29346e-07
2.22503e-07
5.76774e-07
1.59946e-06
1.42404e-06
2.08878e-06
2.37119e-06
2.52368e-06
2.57661e-06
2.60026e-06
2.59402e-06
2.5809e-06
2.58132e-06
2.59599e-06
2.61824e-06
2.64534e-06
2.67096e-06
2.68937e-06
2.70139e-06
2.70986e-06
2.71709e-06
2.72579e-06
2.73618e-06
2.74731e-06
2.75824e-06
2.7683e-06
2.77765e-06
2.78668e-06
2.79569e-06
2.80475e-06
2.81373e-06
2.82252e-06
2.83109e-06
2.83948e-06
2.8477e-06
2.85577e-06
2.86365e-06
2.87135e-06
2.87884e-06
2.88614e-06
2.89324e-06
2.90014e-06
2.90683e-06
2.91332e-06
2.91961e-06
2.92571e-06
2.93161e-06
2.93732e-06
2.94286e-06
2.94822e-06
2.95344e-06
2.95851e-06
2.96345e-06
2.96829e-06
2.97304e-06
2.97772e-06
2.98235e-06
2.98695e-06
2.99154e-06
2.99615e-06
3.00079e-06
3.00548e-06
3.01025e-06
3.01511e-06
3.02009e-06
3.02521e-06
3.03052e-06
3.03603e-06
3.04175e-06
3.0477e-06
3.05388e-06
3.06032e-06
3.06698e-06
3.07373e-06
3.08017e-06
3.08556e-06
3.08636e-06
3.09545e-06
3.10621e-06
1.64614e-06
1.65279e-06
1.65479e-06
1.64014e-06
1.60439e-06
1.51397e-06
1.35941e-06
9.93061e-07
1.04171e-06
6.16597e-07
2.01764e-07
3.41411e-07
9.2661e-07
2.64043e-06
6.77417e-06
1.77016e-06
4.84797e-07
3.10919e-07
1.12885e-06
2.04048e-06
1.80879e-06
2.54746e-06
2.87825e-06
3.09163e-06
3.1851e-06
3.22982e-06
3.2354e-06
3.23199e-06
3.24684e-06
3.27993e-06
3.32393e-06
3.37333e-06
3.41915e-06
3.4541e-06
3.47921e-06
3.49875e-06
3.51654e-06
3.53628e-06
3.55822e-06
3.58087e-06
3.60278e-06
3.62304e-06
3.64196e-06
3.66019e-06
3.67821e-06
3.69607e-06
3.71359e-06
3.73061e-06
3.7471e-06
3.76313e-06
3.77877e-06
3.79401e-06
3.80884e-06
3.82324e-06
3.83721e-06
3.85077e-06
3.86393e-06
3.87668e-06
3.88903e-06
3.90098e-06
3.91256e-06
3.92377e-06
3.93463e-06
3.94515e-06
3.95534e-06
3.96524e-06
3.97487e-06
3.98425e-06
3.9934e-06
4.00238e-06
4.0112e-06
4.01991e-06
4.02854e-06
4.0371e-06
4.04566e-06
4.05423e-06
4.06287e-06
4.07159e-06
4.08044e-06
4.08945e-06
4.09866e-06
4.10813e-06
4.1179e-06
4.12799e-06
4.13845e-06
4.1493e-06
4.16054e-06
4.1722e-06
4.18422e-06
4.19635e-06
4.20802e-06
4.21817e-06
4.22395e-06
4.24053e-06
4.25981e-06
2.0472e-06
2.04773e-06
2.04202e-06
2.01341e-06
1.9508e-06
1.82268e-06
1.63951e-06
1.22584e-06
1.29519e-06
1.07586e-06
2.90188e-07
5.14577e-07
1.70233e-06
4.21372e-06
1.14094e-05
3.49629e-06
8.02134e-07
4.1848e-07
1.86927e-06
2.45197e-06
2.18873e-06
2.92996e-06
3.27707e-06
3.54979e-06
3.69017e-06
3.76383e-06
3.79118e-06
3.80713e-06
3.84395e-06
3.90116e-06
3.97214e-06
4.04846e-06
4.11914e-06
4.17574e-06
4.21929e-06
4.25532e-06
4.28907e-06
4.32498e-06
4.36337e-06
4.40224e-06
4.43967e-06
4.47458e-06
4.50741e-06
4.53906e-06
4.57016e-06
4.60078e-06
4.63067e-06
4.6596e-06
4.68759e-06
4.71473e-06
4.74113e-06
4.76677e-06
4.79166e-06
4.81578e-06
4.83916e-06
4.8618e-06
4.88374e-06
4.90498e-06
4.92554e-06
4.94545e-06
4.96472e-06
4.98338e-06
5.00148e-06
5.01902e-06
5.03605e-06
5.0526e-06
5.06874e-06
5.08448e-06
5.0999e-06
5.11503e-06
5.12995e-06
5.14469e-06
5.15932e-06
5.17388e-06
5.18843e-06
5.20303e-06
5.21774e-06
5.23261e-06
5.2477e-06
5.26308e-06
5.27881e-06
5.29495e-06
5.31159e-06
5.32877e-06
5.34654e-06
5.36494e-06
5.38401e-06
5.40376e-06
5.42408e-06
5.44459e-06
5.46452e-06
5.48265e-06
5.49721e-06
5.52542e-06
5.5576e-06
2.39346e-06
2.38221e-06
2.36305e-06
2.31593e-06
2.22321e-06
2.05918e-06
1.86507e-06
1.44245e-06
1.52016e-06
1.59308e-06
4.08527e-07
8.5481e-07
2.99741e-06
6.37388e-06
1.74647e-05
6.61055e-06
1.42708e-06
6.1757e-07
2.70582e-06
2.791e-06
2.51219e-06
3.17413e-06
3.50538e-06
3.82997e-06
4.02006e-06
4.12985e-06
4.1884e-06
4.23211e-06
4.29595e-06
4.38055e-06
4.48098e-06
4.58656e-06
4.68527e-06
4.76792e-06
4.83503e-06
4.89294e-06
4.94792e-06
5.0049e-06
5.06434e-06
5.12391e-06
5.18131e-06
5.23533e-06
5.2865e-06
5.33592e-06
5.38435e-06
5.43185e-06
5.4781e-06
5.52286e-06
5.56614e-06
5.6081e-06
5.64884e-06
5.68839e-06
5.72672e-06
5.76385e-06
5.79981e-06
5.83464e-06
5.86837e-06
5.90103e-06
5.93265e-06
5.96328e-06
5.99296e-06
6.02173e-06
6.04965e-06
6.07676e-06
6.10313e-06
6.12882e-06
6.15391e-06
6.17846e-06
6.20255e-06
6.22627e-06
6.2497e-06
6.27292e-06
6.29601e-06
6.31904e-06
6.34211e-06
6.36531e-06
6.38872e-06
6.41242e-06
6.4365e-06
6.46108e-06
6.48623e-06
6.51207e-06
6.53871e-06
6.56622e-06
6.59469e-06
6.62418e-06
6.65475e-06
6.68639e-06
6.71896e-06
6.75194e-06
6.78439e-06
6.81514e-06
6.84412e-06
6.88949e-06
6.94027e-06
2.63905e-06
2.61109e-06
2.57327e-06
2.50395e-06
2.3809e-06
2.18686e-06
1.99869e-06
1.61343e-06
1.7001e-06
2.07175e-06
6.56594e-07
1.49825e-06
5.1248e-06
9.24314e-06
2.4217e-05
1.19821e-05
2.66912e-06
1.02657e-06
3.48668e-06
3.00871e-06
2.7231e-06
3.23256e-06
3.52412e-06
3.88706e-06
4.12414e-06
4.27353e-06
4.3687e-06
4.44441e-06
4.53608e-06
4.64786e-06
4.77678e-06
4.9112e-06
5.03898e-06
5.1504e-06
5.24483e-06
5.32879e-06
5.40904e-06
5.49073e-06
5.57465e-06
5.65835e-06
5.7393e-06
5.81619e-06
5.88954e-06
5.96055e-06
6.03003e-06
6.09808e-06
6.16432e-06
6.2285e-06
6.29062e-06
6.35087e-06
6.40937e-06
6.46616e-06
6.52122e-06
6.57457e-06
6.62626e-06
6.67635e-06
6.72488e-06
6.77191e-06
6.8175e-06
6.8617e-06
6.90459e-06
6.94623e-06
6.98672e-06
7.02612e-06
7.06452e-06
7.10204e-06
7.13876e-06
7.17481e-06
7.2103e-06
7.24534e-06
7.28005e-06
7.31455e-06
7.34897e-06
7.38339e-06
7.41796e-06
7.45281e-06
7.48805e-06
7.52382e-06
7.56025e-06
7.59748e-06
7.63567e-06
7.67496e-06
7.71552e-06
7.75747e-06
7.80092e-06
7.84598e-06
7.89275e-06
7.94121e-06
7.99118e-06
8.04201e-06
8.09274e-06
8.14257e-06
8.19339e-06
8.26306e-06
8.33976e-06
2.74844e-06
2.70136e-06
2.64232e-06
2.54986e-06
2.40044e-06
2.18649e-06
2.01646e-06
1.70824e-06
1.81502e-06
2.44224e-06
1.14681e-06
2.70928e-06
8.62743e-06
1.29056e-05
3.03806e-05
2.08055e-05
5.18476e-06
1.85763e-06
4.07925e-06
3.04614e-06
2.77273e-06
3.08746e-06
3.32736e-06
3.70919e-06
3.98292e-06
4.16848e-06
4.29891e-06
4.40487e-06
4.52052e-06
4.65522e-06
4.80813e-06
4.96785e-06
5.12285e-06
5.26294e-06
5.38575e-06
5.49732e-06
5.60436e-06
5.71207e-06
5.82176e-06
5.93108e-06
6.03742e-06
6.13933e-06
6.23719e-06
6.3322e-06
6.42519e-06
6.51627e-06
6.60505e-06
6.69126e-06
6.77487e-06
6.85609e-06
6.93503e-06
7.01173e-06
7.08619e-06
7.15843e-06
7.22852e-06
7.29653e-06
7.36251e-06
7.42656e-06
7.48874e-06
7.54915e-06
7.60788e-06
7.66505e-06
7.72075e-06
7.77511e-06
7.82825e-06
7.88032e-06
7.93147e-06
7.98184e-06
8.03159e-06
8.08088e-06
8.12989e-06
8.17877e-06
8.22767e-06
8.27675e-06
8.3262e-06
8.37619e-06
8.4269e-06
8.4785e-06
8.5312e-06
8.58521e-06
8.64073e-06
8.69799e-06
8.75722e-06
8.8186e-06
8.88232e-06
8.94853e-06
9.0174e-06
9.08892e-06
9.16284e-06
9.23851e-06
9.31509e-06
9.39252e-06
9.47459e-06
9.57766e-06
9.68955e-06
2.70454e-06
2.63915e-06
2.56108e-06
2.44904e-06
2.2825e-06
2.06281e-06
1.91693e-06
1.70249e-06
1.83954e-06
2.66143e-06
1.79316e-06
5.01559e-06
1.44609e-05
1.7346e-05
3.4389e-05
3.20705e-05
9.05308e-06
3.02766e-06
4.38295e-06
2.92482e-06
2.6334e-06
2.75882e-06
2.94547e-06
3.32124e-06
3.61341e-06
3.8232e-06
3.97979e-06
4.10807e-06
4.23973e-06
4.3895e-06
4.55851e-06
4.73658e-06
4.91321e-06
5.07778e-06
5.22599e-06
5.36284e-06
5.49457e-06
5.62631e-06
5.75999e-06
5.89352e-06
6.02434e-06
6.1508e-06
6.27304e-06
6.39213e-06
6.50891e-06
6.62348e-06
6.73547e-06
6.84455e-06
6.95067e-06
7.054e-06
7.15465e-06
7.25265e-06
7.34799e-06
7.4407e-06
7.53085e-06
7.61852e-06
7.70378e-06
7.78674e-06
7.86749e-06
7.94615e-06
8.02285e-06
8.09773e-06
8.17093e-06
8.24261e-06
8.31295e-06
8.38212e-06
8.45033e-06
8.51777e-06
8.58464e-06
8.65117e-06
8.71756e-06
8.78402e-06
8.85078e-06
8.91803e-06
8.98602e-06
9.055e-06
9.12519e-06
9.19687e-06
9.2703e-06
9.34579e-06
9.42364e-06
9.50416e-06
9.58767e-06
9.67447e-06
9.76482e-06
9.85899e-06
9.9572e-06
1.00595e-05
1.01656e-05
1.0275e-05
1.03872e-05
1.05031e-05
1.06281e-05
1.0776e-05
1.09349e-05
2.43644e-06
2.3455e-06
2.22203e-06
2.05327e-06
1.8452e-06
1.72219e-06
1.61841e-06
1.77661e-06
2.70414e-06
2.51922e-06
8.4522e-06
2.21036e-05
2.24424e-05
3.54573e-05
4.2929e-05
1.41399e-05
4.35608e-06
4.37441e-06
2.67393e-06
2.32252e-06
2.30148e-06
2.44018e-06
2.78285e-06
3.06873e-06
3.28385e-06
3.45119e-06
3.58927e-06
3.72618e-06
3.88043e-06
4.05475e-06
4.24067e-06
4.42902e-06
4.60909e-06
4.77482e-06
4.92997e-06
5.07997e-06
5.22977e-06
5.38186e-06
5.53451e-06
5.68525e-06
5.83225e-06
5.97532e-06
6.11536e-06
6.25313e-06
6.38877e-06
6.52187e-06
6.65208e-06
6.77927e-06
6.90356e-06
7.02502e-06
7.14368e-06
7.2595e-06
7.37251e-06
7.48276e-06
7.59033e-06
7.69531e-06
7.79782e-06
7.89796e-06
7.99587e-06
8.09172e-06
8.18566e-06
8.27789e-06
8.36859e-06
8.45799e-06
8.54632e-06
8.6338e-06
8.7207e-06
8.80727e-06
8.89378e-06
8.9805e-06
9.06769e-06
9.15563e-06
9.2446e-06
9.33491e-06
9.42689e-06
9.52086e-06
9.61718e-06
9.71623e-06
9.81843e-06
9.92421e-06
1.0034e-05
1.01483e-05
1.02675e-05
1.0392e-05
1.05223e-05
1.06586e-05
1.08011e-05
1.09496e-05
1.11039e-05
1.1264e-05
1.1432e-05
1.16141e-05
1.18211e-05
1.20421e-05
1.91435e-06
1.76062e-06
1.58113e-06
1.47619e-06
1.45943e-06
1.6436e-06
2.58987e-06
3.16419e-06
1.26515e-05
3.03964e-05
2.81283e-05
3.43035e-05
5.22712e-05
1.99308e-05
5.40596e-06
4.09084e-06
2.3236e-06
1.90218e-06
1.79077e-06
1.88951e-06
2.17613e-06
2.43013e-06
2.62955e-06
2.7896e-06
2.92319e-06
3.05368e-06
3.20054e-06
3.36746e-06
3.54792e-06
3.73433e-06
3.91647e-06
4.08732e-06
4.24933e-06
4.40701e-06
4.56489e-06
4.72584e-06
4.88848e-06
5.05052e-06
5.20999e-06
5.36639e-06
5.5204e-06
5.67268e-06
5.82338e-06
5.97207e-06
6.11834e-06
6.26199e-06
6.40304e-06
6.54155e-06
6.67749e-06
6.81082e-06
6.94152e-06
7.06963e-06
7.19521e-06
7.31837e-06
7.4392e-06
7.55782e-06
7.6744e-06
7.7891e-06
7.90212e-06
8.01367e-06
8.12397e-06
8.23328e-06
8.34187e-06
8.45001e-06
8.55802e-06
8.66618e-06
8.77484e-06
8.8843e-06
8.99492e-06
9.10703e-06
9.221e-06
9.33723e-06
9.45613e-06
9.57816e-06
9.70379e-06
9.83356e-06
9.96804e-06
1.01078e-05
1.02536e-05
1.0406e-05
1.05656e-05
1.0733e-05
1.0909e-05
1.10938e-05
1.12879e-05
1.14913e-05
1.17042e-05
1.19276e-05
1.21642e-05
1.24207e-05
1.27049e-05
1.30072e-05
1.58774e-06
1.46336e-06
1.32537e-06
1.22987e-06
1.25728e-06
1.463e-06
2.36737e-06
3.55574e-06
1.67945e-05
3.87819e-05
3.26655e-05
3.21951e-05
5.9816e-05
2.52702e-05
5.93577e-06
3.59931e-06
1.91334e-06
1.45236e-06
1.30276e-06
1.36953e-06
1.58723e-06
1.79047e-06
1.95688e-06
2.09397e-06
2.21042e-06
2.32411e-06
2.45247e-06
2.59947e-06
2.76055e-06
2.92987e-06
3.09854e-06
3.25957e-06
3.41436e-06
3.56636e-06
3.71952e-06
3.87673e-06
4.03694e-06
4.19815e-06
4.35838e-06
4.51695e-06
4.6743e-06
4.83097e-06
4.98708e-06
5.14223e-06
5.29594e-06
5.44794e-06
5.59819e-06
5.74668e-06
5.89336e-06
6.03815e-06
6.181e-06
6.32191e-06
6.46095e-06
6.59818e-06
6.7337e-06
6.86764e-06
7.00014e-06
7.13139e-06
7.26158e-06
7.39094e-06
7.51973e-06
7.64822e-06
7.77671e-06
7.90552e-06
8.03498e-06
8.16545e-06
8.29731e-06
8.43095e-06
8.56677e-06
8.7052e-06
8.84672e-06
8.99182e-06
9.14106e-06
9.29504e-06
9.45439e-06
9.61986e-06
9.79224e-06
9.97239e-06
1.01612e-05
1.03596e-05
1.05686e-05
1.0789e-05
1.10216e-05
1.12673e-05
1.15265e-05
1.17999e-05
1.20883e-05
1.23934e-05
1.27189e-05
1.3071e-05
1.34551e-05
1.38636e-05
1.29866e-06
1.21798e-06
1.13039e-06
1.03908e-06
1.07232e-06
1.27174e-06
2.08929e-06
3.6941e-06
1.98426e-05
4.71658e-05
3.69037e-05
3.01072e-05
6.56637e-05
2.88859e-05
5.9476e-06
2.96033e-06
1.48801e-06
1.03805e-06
8.93378e-07
9.35817e-07
1.08507e-06
1.23084e-06
1.35503e-06
1.46018e-06
1.55152e-06
1.64151e-06
1.74359e-06
1.86136e-06
1.99205e-06
2.13163e-06
2.27314e-06
2.41061e-06
2.5447e-06
2.67788e-06
2.81331e-06
2.95356e-06
3.09793e-06
3.24481e-06
3.39243e-06
3.54006e-06
3.68795e-06
3.83655e-06
3.98593e-06
4.13573e-06
4.28549e-06
4.4349e-06
4.58387e-06
4.73235e-06
4.88029e-06
5.02756e-06
5.17412e-06
5.31995e-06
5.46508e-06
5.60956e-06
5.75349e-06
5.89697e-06
6.04014e-06
6.18318e-06
6.32629e-06
6.4697e-06
6.61366e-06
6.75848e-06
6.90446e-06
7.05196e-06
7.20134e-06
7.35303e-06
7.50744e-06
7.66504e-06
7.82633e-06
7.99183e-06
8.16214e-06
8.33791e-06
8.51983e-06
8.70872e-06
8.90548e-06
9.11111e-06
9.32672e-06
9.55349e-06
9.79272e-06
1.00457e-05
1.03138e-05
1.05982e-05
1.09002e-05
1.1221e-05
1.15615e-05
1.1923e-05
1.23072e-05
1.27166e-05
1.31554e-05
1.36295e-05
1.41424e-05
1.46888e-05
1.11022e-06
1.08755e-06
1.07693e-06
1.02957e-06
9.97021e-07
1.12695e-06
1.80173e-06
3.58599e-06
2.11219e-05
5.5558e-05
4.12802e-05
2.84946e-05
6.97581e-05
2.99911e-05
5.45534e-06
2.27381e-06
1.09164e-06
7.02122e-07
5.86564e-07
6.12695e-07
7.04935e-07
7.98601e-07
8.81528e-07
9.53847e-07
1.01815e-06
1.08252e-06
1.15584e-06
1.24099e-06
1.33653e-06
1.44001e-06
1.54669e-06
1.65212e-06
1.75658e-06
1.86167e-06
1.96974e-06
2.08285e-06
2.20059e-06
2.32182e-06
2.44519e-06
2.57005e-06
2.69658e-06
2.82511e-06
2.95574e-06
3.08818e-06
3.22206e-06
3.35712e-06
3.49328e-06
3.6305e-06
3.76874e-06
3.90791e-06
4.04798e-06
4.18892e-06
4.33077e-06
4.47359e-06
4.61745e-06
4.76247e-06
4.90877e-06
5.05652e-06
5.20593e-06
5.35722e-06
5.51067e-06
5.66657e-06
5.82528e-06
5.98716e-06
6.15265e-06
6.32221e-06
6.49634e-06
6.67559e-06
6.86057e-06
7.05195e-06
7.25048e-06
7.45699e-06
7.67243e-06
7.89791e-06
8.13466e-06
8.38405e-06
8.64761e-06
8.927e-06
9.22403e-06
9.54054e-06
9.87837e-06
1.02393e-05
1.06252e-05
1.10378e-05
1.14788e-05
1.19504e-05
1.24552e-05
1.29965e-05
1.3579e-05
1.42082e-05
1.48868e-05
1.56121e-05
1.27087e-06
1.13321e-06
1.08477e-06
1.56385e-06
3.30538e-06
2.03668e-05
6.36303e-05
4.58836e-05
2.74121e-05
7.1829e-05
2.81259e-05
4.61296e-06
1.66124e-06
7.61525e-07
4.62564e-07
3.82691e-07
3.96098e-07
4.47589e-07
5.01574e-07
5.51276e-07
5.95902e-07
6.36731e-07
6.78291e-07
7.25813e-07
7.81264e-07
8.44037e-07
9.12842e-07
9.84874e-07
1.05722e-06
1.13005e-06
1.20435e-06
1.28171e-06
1.36361e-06
1.44989e-06
1.53989e-06
1.63271e-06
1.72791e-06
1.82565e-06
1.92622e-06
2.02974e-06
2.13608e-06
2.24503e-06
2.35646e-06
2.47035e-06
2.58676e-06
2.7057e-06
2.82716e-06
2.95116e-06
3.07774e-06
3.20697e-06
3.33893e-06
3.47372e-06
3.61147e-06
3.75233e-06
3.89647e-06
4.04413e-06
4.19557e-06
4.35107e-06
4.51098e-06
4.6757e-06
4.84566e-06
5.02137e-06
5.20337e-06
5.39229e-06
5.58881e-06
5.7937e-06
6.00782e-06
6.23213e-06
6.46778e-06
6.7161e-06
6.97856e-06
7.25684e-06
7.55284e-06
7.86866e-06
8.20664e-06
8.56926e-06
8.95911e-06
9.37877e-06
9.8308e-06
1.03178e-05
1.08426e-05
1.14078e-05
1.20166e-05
1.26729e-05
1.33809e-05
1.41456e-05
1.49724e-05
1.58643e-05
1.6821e-05
1.8254e-06
1.53052e-06
1.21439e-06
1.43072e-06
2.94172e-06
1.81501e-05
6.94521e-05
5.10323e-05
2.66915e-05
7.10437e-05
2.38323e-05
3.63998e-06
1.17125e-06
5.17313e-07
3.0966e-07
2.61286e-07
2.65235e-07
2.91011e-07
3.18288e-07
3.44742e-07
3.69546e-07
3.93012e-07
4.17507e-07
4.45781e-07
4.78693e-07
5.15978e-07
5.57143e-07
6.00758e-07
6.45266e-07
6.90797e-07
7.37984e-07
7.87813e-07
8.41225e-07
8.98198e-07
9.584e-07
1.02134e-06
1.08683e-06
1.15502e-06
1.2262e-06
1.30058e-06
1.37817e-06
1.45897e-06
1.54299e-06
1.63037e-06
1.72124e-06
1.81574e-06
1.91397e-06
2.01604e-06
2.12207e-06
2.23219e-06
2.34656e-06
2.46533e-06
2.58868e-06
2.71684e-06
2.85003e-06
2.98856e-06
3.13275e-06
3.28298e-06
3.43969e-06
3.60337e-06
3.77459e-06
3.95398e-06
4.14225e-06
4.34019e-06
4.54872e-06
4.76882e-06
5.00167e-06
5.24868e-06
5.51137e-06
5.79153e-06
6.09118e-06
6.41264e-06
6.75854e-06
7.13181e-06
7.53566e-06
7.97356e-06
8.4491e-06
8.96589e-06
9.52761e-06
1.01381e-05
1.08014e-05
1.15215e-05
1.23031e-05
1.31511e-05
1.40707e-05
1.50677e-05
1.61477e-05
1.73141e-05
1.85683e-05
2.58681e-06
2.1356e-06
1.53251e-06
1.41146e-06
2.59497e-06
1.55048e-05
7.07784e-05
5.63433e-05
2.6201e-05
6.58668e-05
1.89866e-05
2.70559e-06
8.13517e-07
3.6e-07
2.29256e-07
2.00373e-07
2.00482e-07
2.07901e-07
2.17462e-07
2.28388e-07
2.40013e-07
2.51331e-07
2.64687e-07
2.81618e-07
3.00605e-07
3.20874e-07
3.42895e-07
3.66448e-07
3.91002e-07
4.16845e-07
4.44344e-07
4.73944e-07
5.0606e-07
5.40646e-07
5.77575e-07
6.1667e-07
6.57949e-07
7.01652e-07
7.48069e-07
7.97447e-07
8.49938e-07
9.05688e-07
9.64882e-07
1.02776e-06
1.09456e-06
1.16552e-06
1.24084e-06
1.32071e-06
1.40534e-06
1.49495e-06
1.58977e-06
1.69004e-06
1.79605e-06
1.90811e-06
2.02658e-06
2.15188e-06
2.28446e-06
2.42487e-06
2.5737e-06
2.73163e-06
2.89941e-06
3.07793e-06
3.26814e-06
3.47109e-06
3.68807e-06
3.92055e-06
4.17014e-06
4.43871e-06
4.72838e-06
5.04164e-06
5.38128e-06
5.75054e-06
6.15306e-06
6.59289e-06
7.07449e-06
7.60265e-06
8.18234e-06
8.81865e-06
9.51685e-06
1.02824e-05
1.1121e-05
1.20384e-05
1.30409e-05
1.41347e-05
1.53259e-05
1.66209e-05
1.80256e-05
1.95433e-05
2.11762e-05
1.27428e-05
6.7465e-05
6.09694e-05
2.55767e-05
5.75345e-05
1.42025e-05
1.89927e-06
5.74664e-07
2.75019e-07
2.0107e-07
1.87871e-07
1.86483e-07
1.85224e-07
1.85421e-07
1.87202e-07
1.90169e-07
1.94009e-07
1.98544e-07
2.04118e-07
2.10714e-07
2.18387e-07
2.27241e-07
2.37343e-07
2.49349e-07
2.63842e-07
2.79992e-07
2.97427e-07
3.16135e-07
3.36084e-07
3.57419e-07
3.80311e-07
4.05086e-07
4.32082e-07
4.61478e-07
4.93462e-07
5.28248e-07
5.66113e-07
6.07374e-07
6.52344e-07
7.01315e-07
7.54553e-07
8.12309e-07
8.74831e-07
9.42385e-07
1.01526e-06
1.09377e-06
1.17829e-06
1.2692e-06
1.36696e-06
1.4721e-06
1.5852e-06
1.70692e-06
1.83801e-06
1.97932e-06
2.13178e-06
2.29643e-06
2.47451e-06
2.66741e-06
2.87667e-06
3.10403e-06
3.35148e-06
3.62131e-06
3.91612e-06
4.2389e-06
4.59308e-06
4.9826e-06
5.41191e-06
5.88605e-06
6.41064e-06
6.99179e-06
7.63606e-06
8.3503e-06
9.14159e-06
1.00172e-05
1.09848e-05
1.2052e-05
1.32266e-05
1.45163e-05
1.59285e-05
1.747e-05
1.9147e-05
2.09645e-05
2.29248e-05
2.50282e-05
1.02191e-05
5.96232e-05
6.32653e-05
2.4915e-05
4.4373e-05
1.00361e-05
1.31252e-06
4.30014e-07
2.42862e-07
2.08445e-07
2.07618e-07
2.05708e-07
1.99573e-07
1.9443e-07
1.91168e-07
1.8946e-07
1.8885e-07
1.88792e-07
1.89262e-07
1.90137e-07
1.91574e-07
1.93726e-07
1.96757e-07
2.0079e-07
2.05858e-07
2.11967e-07
2.19118e-07
2.27354e-07
2.36746e-07
2.47481e-07
2.60116e-07
2.75676e-07
2.93988e-07
3.1425e-07
3.36632e-07
3.61557e-07
3.89586e-07
4.21143e-07
4.56501e-07
4.95883e-07
5.39508e-07
5.87616e-07
6.40479e-07
6.98413e-07
7.61782e-07
8.31008e-07
9.06572e-07
9.89027e-07
1.079e-06
1.17721e-06
1.28447e-06
1.40167e-06
1.52987e-06