/*--------------------------------*- C++ -*----------------------------------*\
| =========                 |                                                 |
| \\      /  F ield         | OpenFOAM: The Open Source CFD Toolbox           |
|  \\    /   O peration     | Version:  2412                                  |
|   \\  /    A nd           | Website:  www.openfoam.com                      |
|    \\/     M anipulation  |                                                 |
\*---------------------------------------------------------------------------*/
FoamFile
{
    version     2.0;
    format      ascii;
    arch        "LSB;label=32;scalar=64";
    class       surfaceScalarField;
    location    "260";
    object      phi;
}
// * * * * * * * * * * * * * * * * * * * * * * * * * * * * * * * * * * * * * //

dimensions      [0 3 -1 0 0 0 0];

oriented        oriented;

internalField   nonuniform List<scalar> 
14663
(
2.44237e-05
-2.31757e-06
2.45499e-05
-1.23988e-07
2.28732e-05
1.6782e-06
2.00288e-05
2.84277e-06
1.67292e-05
3.29958e-06
1.433e-05
2.39921e-06
1.27373e-05
1.59276e-06
1.12729e-05
1.46439e-06
9.85977e-06
1.41309e-06
8.62566e-06
1.23411e-06
7.57136e-06
1.0543e-06
6.68662e-06
8.84733e-07
5.9649e-06
7.21707e-07
5.39405e-06
5.70849e-07
4.94968e-06
4.44359e-07
4.60223e-06
3.47449e-07
4.32933e-06
2.72987e-07
4.11314e-06
2.16099e-07
3.93905e-06
1.75123e-07
3.79532e-06
1.42704e-07
3.674e-06
1.21674e-07
3.56904e-06
1.04599e-07
3.4763e-06
9.31503e-08
3.393e-06
8.28788e-08
3.3168e-06
7.67009e-08
3.24615e-06
7.01457e-08
3.18011e-06
6.65785e-08
3.11762e-06
6.1953e-08
3.05822e-06
5.9397e-08
3.00126e-06
5.69626e-08
2.94647e-06
5.4793e-08
2.89348e-06
5.29836e-08
2.8421e-06
5.13798e-08
2.79211e-06
4.99913e-08
2.74336e-06
4.87541e-08
2.69588e-06
4.74844e-08
2.64966e-06
4.62151e-08
2.60499e-06
4.4667e-08
2.56087e-06
4.41297e-08
2.51689e-06
4.398e-08
2.47358e-06
4.33122e-08
2.43101e-06
4.2568e-08
2.38927e-06
4.17382e-08
2.34826e-06
4.10075e-08
2.30798e-06
4.0284e-08
2.26841e-06
3.95769e-08
2.22956e-06
3.88441e-08
2.19156e-06
3.80021e-08
2.15411e-06
3.74574e-08
2.11725e-06
3.68582e-08
2.08107e-06
3.61835e-08
2.04564e-06
3.54271e-08
2.01069e-06
3.49504e-08
1.97628e-06
3.44142e-08
1.94244e-06
3.38412e-08
1.90924e-06
3.32059e-08
1.8765e-06
3.27364e-08
1.84413e-06
3.23754e-08
1.81226e-06
3.18691e-08
1.78088e-06
3.13879e-08
1.74992e-06
3.09612e-08
1.71934e-06
3.05779e-08
1.689e-06
3.03437e-08
1.65903e-06
2.99782e-08
1.62941e-06
2.96165e-08
1.60014e-06
2.94956e-08
1.5711e-06
2.88279e-08
1.5423e-06
2.89445e-08
1.51373e-06
2.84323e-08
1.48532e-06
2.8559e-08
1.45729e-06
2.79008e-08
1.42955e-06
2.78598e-08
1.40206e-06
2.73873e-08
1.3747e-06
2.74286e-08
1.34767e-06
2.70383e-08
2.68747e-08
8.33233e-05
-1.09144e-05
8.48319e-05
-1.62957e-06
8.02388e-05
6.2735e-06
7.10665e-05
1.20129e-05
5.98715e-05
1.44946e-05
5.1284e-05
1.09868e-05
4.55689e-05
7.30783e-06
4.0418e-05
6.61522e-06
3.53535e-05
6.4776e-06
3.09109e-05
5.67671e-06
2.71193e-05
4.84587e-06
2.39404e-05
4.06368e-06
2.13361e-05
3.32598e-06
1.92844e-05
2.62251e-06
1.7699e-05
2.02975e-06
1.6448e-05
1.59849e-06
1.54607e-05
1.26038e-06
1.46811e-05
9.95617e-07
1.4057e-05
8.00671e-07
1.35378e-05
6.60407e-07
1.30995e-05
5.60477e-07
1.27206e-05
4.82962e-07
1.23859e-05
4.28487e-07
1.20854e-05
3.82727e-07
1.1811e-05
3.51851e-07
1.15572e-05
3.23256e-07
1.13195e-05
3.04973e-07
1.10951e-05
2.85662e-07
1.08816e-05
2.72859e-07
1.06774e-05
2.61169e-07
1.04812e-05
2.50971e-07
1.02916e-05
2.42638e-07
1.01077e-05
2.35298e-07
9.92889e-06
2.28762e-07
9.75476e-06
2.22883e-07
9.58493e-06
2.17308e-07
9.42004e-06
2.11113e-07
9.26056e-06
2.04146e-07
9.10336e-06
2.01335e-07
8.94651e-06
2.0083e-07
8.79218e-06
1.9764e-07
8.6406e-06
1.9415e-07
8.49183e-06
1.90508e-07
8.34599e-06
1.86852e-07
8.20264e-06
1.83634e-07
8.06183e-06
1.80395e-07
7.92368e-06
1.76997e-07
7.7883e-06
1.73378e-07
7.65526e-06
1.70507e-07
7.52395e-06
1.68167e-07
7.39542e-06
1.64719e-07
7.26944e-06
1.61412e-07
7.14532e-06
1.59069e-07
7.02282e-06
1.56924e-07
6.90269e-06
1.53969e-07
6.78467e-06
1.51227e-07
6.66817e-06
1.4924e-07
6.5531e-06
1.47453e-07
6.43991e-06
1.4506e-07
6.3285e-06
1.42799e-07
6.21845e-06
1.41018e-07
6.10968e-06
1.39357e-07
6.00217e-06
1.37857e-07
5.89565e-06
1.36501e-07
5.79029e-06
1.34979e-07
5.68637e-06
1.33733e-07
5.58348e-06
1.31427e-07
5.48127e-06
1.31357e-07
5.37961e-06
1.29895e-07
5.2789e-06
1.29476e-07
5.17927e-06
1.27349e-07
5.08075e-06
1.26555e-07
4.98309e-06
1.24903e-07
4.88606e-06
1.24567e-07
4.79011e-06
1.2302e-07
1.22142e-07
0.00016039
-2.85696e-05
0.000164983
-6.22016e-06
0.000157948
1.33116e-05
0.000141362
2.85963e-05
0.000120095
3.57614e-05
0.000103077
2.80046e-05
9.17081e-05
1.8677e-05
8.16003e-05
1.6723e-05
7.14484e-05
1.66295e-05
6.24928e-05
1.46322e-05
5.48315e-05
1.25071e-05
4.8407e-05
1.04882e-05
4.31008e-05
8.63216e-06
3.89412e-05
6.78215e-06
3.57603e-05
5.21056e-06
3.32186e-05
4.14025e-06
3.1195e-05
3.28412e-06
2.96056e-05
2.5849e-06
2.83495e-05
2.05841e-06
2.72911e-05
1.71709e-06
2.63957e-05
1.45646e-06
2.56229e-05
1.2552e-06
2.49411e-05
1.11089e-06
2.43288e-05
9.94406e-07
2.37707e-05
9.1069e-07
2.32538e-05
8.39381e-07
2.27713e-05
7.88337e-07
2.23158e-05
7.40338e-07
2.18825e-05
7.06149e-07
2.14687e-05
6.74999e-07
2.10711e-05
6.48495e-07
2.06871e-05
6.26718e-07
2.03155e-05
6.06878e-07
1.99545e-05
5.89757e-07
1.9603e-05
5.74336e-07
1.92602e-05
5.60118e-07
1.89269e-05
5.44465e-07
1.86049e-05
5.26083e-07
1.82882e-05
5.18107e-07
1.79719e-05
5.17074e-07
1.76608e-05
5.08793e-07
1.73561e-05
4.98838e-07
1.70569e-05
4.8971e-07
1.67633e-05
4.80481e-07
1.64754e-05
4.7154e-07
1.61921e-05
4.63659e-07
1.59144e-05
4.54713e-07
1.56423e-05
4.4549e-07
1.53744e-05
4.38364e-07
1.51109e-05
4.31708e-07
1.48523e-05
4.23297e-07
1.45991e-05
4.14588e-07
1.43497e-05
4.08469e-07
1.41036e-05
4.03071e-07
1.38619e-05
3.95708e-07
1.36249e-05
3.88173e-07
1.33911e-05
3.8307e-07
1.31603e-05
3.78203e-07
1.29326e-05
3.72797e-07
1.27088e-05
3.66565e-07
1.24882e-05
3.61668e-07
1.22699e-05
3.57703e-07
1.20534e-05
3.54265e-07
1.18395e-05
3.50461e-07
1.16286e-05
3.45898e-07
1.14199e-05
3.42805e-07
1.12131e-05
3.37888e-07
1.10078e-05
3.3681e-07
1.08041e-05
3.33451e-07
1.06018e-05
3.31934e-07
1.04018e-05
3.27156e-07
1.02041e-05
3.2452e-07
1.0008e-05
3.2082e-07
9.81346e-06
3.19207e-07
9.62114e-06
3.15373e-07
3.137e-07
0.000257022
-5.8336e-05
0.000266794
-1.59878e-05
0.000258149
2.19583e-05
0.000233481
5.32637e-05
0.000200332
6.89103e-05
0.000172771
5.55651e-05
0.000154012
3.7436e-05
0.000137538
3.31969e-05
0.000120871
3.32968e-05
0.000105993
2.95103e-05
9.31692e-05
2.53308e-05
8.23587e-05
2.12988e-05
7.33093e-05
1.76815e-05
6.62439e-05
1.38475e-05
6.09085e-05
1.0546e-05
5.65674e-05
8.48131e-06
5.30622e-05
6.7895e-06
5.03354e-05
5.31154e-06
4.82171e-05
4.1783e-06
4.63968e-05
3.53582e-06
4.48578e-05
2.99603e-06
4.35273e-05
2.58512e-06
4.23537e-05
2.28511e-06
4.13004e-05
2.04709e-06
4.03397e-05
1.87211e-06
3.94535e-05
1.72486e-06
3.86244e-05
1.61821e-06
3.78433e-05
1.52059e-06
3.71022e-05
1.44733e-06
3.63945e-05
1.38265e-06
3.57148e-05
1.32822e-06
3.506e-05
1.28147e-06
3.44254e-05
1.24147e-06
3.38099e-05
1.20525e-06
3.32103e-05
1.17402e-06
3.26265e-05
1.14384e-06
3.20589e-05
1.11208e-06
3.15104e-05
1.07456e-06
3.09696e-05
1.05892e-06
3.04311e-05
1.05558e-06
2.99034e-05
1.03649e-06
2.93859e-05
1.0164e-06
2.88785e-05
9.97112e-07
2.83806e-05
9.78338e-07
2.78922e-05
9.59922e-07
2.74122e-05
9.43683e-07
2.69414e-05
9.2559e-07
2.648e-05
9.06825e-07
2.60265e-05
8.91888e-07
2.55802e-05
8.78056e-07
2.51423e-05
8.61139e-07
2.4713e-05
8.4393e-07
2.42905e-05
8.30915e-07
2.3874e-05
8.19633e-07
2.34651e-05
8.04567e-07
2.30633e-05
7.89953e-07
2.26675e-05
7.78946e-07
2.22765e-05
7.69188e-07
2.18915e-05
7.57799e-07
2.15125e-05
7.45553e-07
2.11387e-05
7.35485e-07
2.07687e-05
7.27728e-07
2.04029e-05
7.20036e-07
2.0041e-05
7.12422e-07
1.96836e-05
7.03311e-07
1.93301e-05
6.96542e-07
1.89805e-05
6.87241e-07
1.86334e-05
6.84081e-07
1.82882e-05
6.78441e-07
1.79463e-05
6.74088e-07
1.76077e-05
6.65532e-07
1.72735e-05
6.58977e-07
1.69416e-05
6.5256e-07
1.6612e-05
6.4892e-07
1.62866e-05
6.40814e-07
6.37384e-07
0.00037136
-0.000102093
0.000387178
-3.18055e-05
0.000377093
3.20439e-05
0.000344667
8.56887e-05
0.000299749
0.000113829
0.000260778
9.45354e-05
0.000232968
6.52466e-05
0.000208696
5.74687e-05
0.000184798
5.71947e-05
0.000163084
5.12248e-05
0.000144091
4.43233e-05
0.000127885
3.75051e-05
0.000114089
3.14772e-05
0.000103279
2.46571e-05
9.51306e-05
1.86948e-05
8.84016e-05
1.52103e-05
8.28792e-05
1.2312e-05
7.86122e-05
9.5784e-06
7.53561e-05
7.4359e-06
7.24942e-05
6.39617e-06
7.00698e-05
5.42095e-06
6.79724e-05
4.68206e-06
6.61222e-05
4.13588e-06
6.44624e-05
3.70623e-06
6.29486e-05
3.38669e-06
6.15514e-05
3.12127e-06
6.0247e-05
2.92341e-06
5.90178e-05
2.74902e-06
5.78514e-05
2.61375e-06
5.67392e-05
2.49482e-06
5.5672e-05
2.39544e-06
5.46431e-05
2.31037e-06
5.36483e-05
2.23625e-06
5.26827e-05
2.17083e-06
5.17446e-05
2.11212e-06
5.08303e-05
2.05814e-06
4.99403e-05
2.00209e-06
4.90795e-05
1.93536e-06
4.82292e-05
1.90927e-06
4.73854e-05
1.89938e-06
4.65616e-05
1.86029e-06
4.5756e-05
1.82205e-06
4.49649e-05
1.78813e-06
4.41893e-05
1.75401e-06
4.34279e-05
1.72134e-06
4.26805e-05
1.69106e-06
4.19472e-05
1.65889e-06
4.12291e-05
1.62487e-06
4.05228e-05
1.59821e-06
3.9827e-05
1.57384e-06
3.91459e-05
1.5423e-06
3.8478e-05
1.51186e-06
3.782e-05
1.48887e-06
3.71723e-05
1.46739e-06
3.65348e-05
1.44204e-06
3.59092e-05
1.41553e-06
3.52935e-05
1.39471e-06
3.46855e-05
1.37721e-06
3.40862e-05
1.35704e-06
3.3496e-05
1.33582e-06
3.29143e-05
1.31719e-06
3.23394e-05
1.30261e-06
3.17698e-05
1.28962e-06
3.12062e-05
1.27603e-06
3.06496e-05
1.25994e-06
3.01004e-05
1.24606e-06
2.9556e-05
1.23136e-06
2.90159e-05
1.22432e-06
2.84787e-05
1.21549e-06
2.79464e-05
1.20659e-06
2.742e-05
1.19173e-06
2.68993e-05
1.17992e-06
2.63827e-05
1.16895e-06
2.58704e-05
1.1614e-06
2.5364e-05
1.14729e-06
1.14178e-06
0.000499981
-0.000159855
0.000520231
-5.2047e-05
0.000506571
4.57055e-05
0.000465556
0.000126702
0.000409751
0.000169634
0.000360734
0.000143552
0.000324233
0.000101747
0.000292047
8.96549e-05
0.000261302
8.79399e-05
0.000232888
7.96391e-05
0.000207595
6.96163e-05
0.000185639
5.94609e-05
0.000166752
5.03638e-05
0.000151655
3.97545e-05
0.000139995
3.03543e-05
0.000130377
2.48292e-05
0.000122391
2.02974e-05
0.0001162
1.57699e-05
0.000111467
1.21701e-05
0.000107276
1.05859e-05
0.00010371
8.98705e-06
0.000100618
7.77382e-06
9.78854e-05
6.86895e-06
9.54289e-05
6.16222e-06
9.31889e-05
5.62734e-06
9.11178e-05
5.19165e-06
8.91861e-05
4.85584e-06
8.73639e-05
4.57052e-06
8.56361e-05
4.34149e-06
8.3987e-05
4.14393e-06
8.24053e-05
3.97719e-06
8.08808e-05
3.83488e-06
7.94076e-05
3.70945e-06
7.79774e-05
3.60104e-06
7.65864e-05
3.50314e-06
7.52322e-05
3.41233e-06
7.39148e-05
3.3195e-06
7.2632e-05
3.21812e-06
7.13627e-05
3.1786e-06
7.0109e-05
3.15301e-06
6.88929e-05
3.07643e-06
6.77039e-05
3.0111e-06
6.65381e-05
2.95393e-06
6.53929e-05
2.89914e-06
6.42706e-05
2.84369e-06
6.31678e-05
2.79386e-06
6.2085e-05
2.74162e-06
6.1025e-05
2.6849e-06
5.99822e-05
2.641e-06
5.89567e-05
2.59935e-06
5.79497e-05
2.54931e-06
5.69641e-05
2.49748e-06
5.59931e-05
2.45988e-06
5.50355e-05
2.42494e-06
5.40954e-05
2.38222e-06
5.31726e-05
2.33835e-06
5.22624e-05
2.30487e-06
5.13632e-05
2.27641e-06
5.04782e-05
2.24202e-06
4.9607e-05
2.20706e-06
4.87473e-05
2.17689e-06
4.78972e-05
2.15273e-06
4.70558e-05
2.13099e-06
4.62237e-05
2.10815e-06
4.54014e-05
2.0822e-06
4.45885e-05
2.05929e-06
4.37836e-05
2.03598e-06
4.29853e-05
2.02282e-06
4.21922e-05
2.00842e-06
4.14044e-05
1.99461e-06
4.06262e-05
1.96974e-06
3.98553e-05
1.95101e-06
3.90916e-05
1.9325e-06
3.83334e-05
1.91974e-06
3.75843e-05
1.89643e-06
1.88779e-06
0.000642074
-0.000231368
0.000664931
-7.48932e-05
0.000644996
6.56399e-05
0.000592887
0.000178812
0.000524744
0.000237777
0.000465609
0.000202687
0.000421624
0.000145733
0.000382908
0.000128371
0.000346146
0.000124701
0.00031189
0.000113896
0.000281016
0.00010049
0.000253812
8.6665e-05
0.0002305
7.36761e-05
0.000211204
5.90499e-05
0.000195569
4.59892e-05
0.00018291
3.74882e-05
0.000172457
3.07504e-05
0.000164147
2.408e-05
0.000157558
1.87603e-05
0.000151836
1.63065e-05
0.000146948
1.38752e-05
0.000142692
1.20299e-05
0.000138916
1.06455e-05
0.000135511
9.56664e-06
0.000132396
8.74251e-06
0.000129514
8.07361e-06
0.000126815
7.55509e-06
0.00012427
7.11493e-06
0.000121851
6.76045e-06
0.00011954
6.45551e-06
0.00011732
6.1969e-06
0.00011518
5.97473e-06
0.000113108
5.78106e-06
0.000111096
5.61343e-06
0.000109139
5.46038e-06
0.00010723
5.32108e-06
0.00010537
5.18004e-06
0.00010355
5.0374e-06
0.000101746
4.98281e-06
9.99753e-05
4.92374e-06
9.82603e-05
4.7915e-06
9.65834e-05
4.68798e-06
9.49379e-05
4.59937e-06
9.33239e-05
4.51321e-06
9.1738e-05
4.42957e-06
9.01795e-05
4.3524e-06
8.86501e-05
4.27097e-06
8.71519e-05
4.18315e-06
8.56779e-05
4.11497e-06
8.42258e-05
4.05146e-06
8.28018e-05
3.97331e-06
8.14043e-05
3.89502e-06
8.00294e-05
3.83474e-06
7.86729e-05
3.78151e-06
7.73389e-05
3.7162e-06
7.60298e-05
3.64748e-06
7.47393e-05
3.59529e-06
7.34641e-05
3.55164e-06
7.22067e-05
3.49948e-06
7.09691e-05
3.44465e-06
6.97475e-05
3.39851e-06
6.85408e-05
3.35942e-06
6.73442e-05
3.32755e-06
6.61597e-05
3.29265e-06
6.49907e-05
3.25128e-06
6.38345e-05
3.21571e-06
6.26896e-05
3.18062e-06
6.15525e-05
3.1601e-06
6.04225e-05
3.1383e-06
5.9301e-05
3.11627e-06
5.81912e-05
3.07941e-06
5.7093e-05
3.04939e-06
5.60037e-05
3.02166e-06
5.49228e-05
3.00072e-06
5.38543e-05
2.96505e-06
2.95282e-06
0.000799598
-0.00031761
0.000824488
-9.97698e-05
0.000796521
9.361e-05
0.000730949
0.000244381
0.000647875
0.000320852
0.000576496
0.000274066
0.000524367
0.000197862
0.000479256
0.000173481
0.000436413
0.000167545
0.00039661
0.000153699
0.000360738
0.000136362
0.000329005
0.000118398
0.000302008
0.000100673
0.000279114
8.19437e-05
0.000259903
6.5201e-05
0.000244504
5.28863e-05
0.000232027
4.32274e-05
0.000221727
3.438e-05
0.000213089
2.73999e-05
0.00020587
2.35248e-05
0.00019966
2.00856e-05
0.00019422
1.74693e-05
0.000189369
1.54968e-05
0.000184975
1.39597e-05
0.000180942
1.27761e-05
0.000177193
1.18224e-05
0.000173676
1.10728e-05
0.000170345
1.04449e-05
0.00016717
9.9356e-06
0.000164132
9.49382e-06
0.000161206
9.12312e-06
0.000158377
8.80368e-06
0.000155632
8.52587e-06
0.000152963
8.28181e-06
0.000150359
8.06515e-06
0.000147816
7.86333e-06
0.000145331
7.66502e-06
0.00014289
7.47849e-06
0.000140477
7.39613e-06
0.000138113
7.28775e-06
0.000135812
7.09271e-06
0.000133556
6.94337e-06
0.000131343
6.81297e-06
0.000129165
6.69068e-06
0.000127026
6.56854e-06
0.000124923
6.45594e-06
0.000122854
6.34002e-06
0.000120824
6.21298e-06
0.000118827
6.11218e-06
0.000116858
6.02027e-06
0.000114922
5.90889e-06
0.000113025
5.79258e-06
0.000111153
5.7066e-06
0.000109306
5.62859e-06
0.000107489
5.53306e-06
0.000105702
5.43508e-06
0.000103939
5.35792e-06
0.000102197
5.29342e-06
0.000100478
5.21847e-06
9.87833e-05
5.1395e-06
9.71104e-05
5.07143e-06
9.5455e-05
5.01482e-06
9.38138e-05
4.96871e-06
9.21897e-05
4.91685e-06
9.05825e-05
4.85842e-06
8.89931e-05
4.80545e-06
8.74174e-05
4.75603e-06
8.58522e-05
4.72546e-06
8.42961e-05
4.69425e-06
8.27498e-05
4.66279e-06
8.12185e-05
4.61058e-06
7.97029e-05
4.56513e-06
7.81988e-05
4.52564e-06
7.67038e-05
4.49584e-06
7.5227e-05
4.442e-06
4.4264e-06
0.000975659
0.00100325
-0.000127352
0.000966303
0.000130563
0.000885146
0.000325537
0.000784335
0.000421663
0.000698072
0.000360329
0.000635812
0.000260122
0.000582922
0.000226371
0.00053291
0.000217557
0.000486781
0.000199828
0.000445489
0.000177654
0.000409154
0.000154733
0.000378309
0.000131517
0.000352177
0.000108076
0.000330222
8.71558e-05
0.000312528
7.05805e-05
0.000298317
5.74384e-05
0.000286361
4.63358e-05
0.000276061
3.77007e-05
0.000267561
3.20239e-05
0.000260217
2.74293e-05
0.000253749
2.39379e-05
0.000247949
2.12964e-05
0.000242673
1.92353e-05
0.000237809
1.76408e-05
0.000233268
1.63627e-05
0.00022899
1.53512e-05
0.000224923
1.45115e-05
0.000221037
1.38219e-05
0.000217299
1.32319e-05
0.000213691
1.27312e-05
0.000210191
1.23034e-05
0.000206786
1.19311e-05
0.000203463
1.16052e-05
0.000200215
1.13123e-05
0.000197032
1.10469e-05
0.000193911
1.07862e-05
0.000190845
1.05439e-05
0.00018783
1.04113e-05
0.000184867
1.02506e-05
0.000181952
1.00082e-05
0.000179081
9.81465e-06
0.000176255
9.63856e-06
0.000173472
9.47315e-06
0.000170735
9.30636e-06
0.000168033
9.15724e-06
0.000165376
8.99734e-06
0.000162762
8.82652e-06
0.000160185
8.68932e-06
0.00015764
8.56582e-06
0.000155133
8.41521e-06
0.000152671
8.25539e-06
0.00015024
8.13773e-06
0.000147837
8.03161e-06
0.000145465
7.90467e-06
0.000143131
7.76865e-06
0.000140827
7.66227e-06
0.000138545
7.57568e-06
0.00013629
7.47351e-06
0.000134063
7.36631e-06
0.000131863
7.27134e-06
0.000129682
7.19614e-06
0.000127517
7.13312e-06
0.000125371
7.06353e-06
0.000123245
6.98388e-06
0.000121138
6.91238e-06
0.000119049
6.84523e-06
0.000116973
6.80193e-06
0.000114904
6.7631e-06
0.000112846
6.72043e-06
0.000110806
6.6512e-06
0.000108782
6.58906e-06
0.000106771
6.53644e-06
0.000104775
6.49204e-06
0.000102796
6.42127e-06
6.40102e-06
0.00120561
0.0011594
0.000176772
0.00106063
0.000424301
0.000939111
0.000543185
0.000835004
0.000464436
0.000760169
0.000334956
0.000697566
0.000288974
0.000638814
0.000276308
0.00058497
0.000253672
0.0005371
0.000225525
0.000495277
0.000196557
0.000459812
0.000166982
0.000430098
0.00013779
0.000405458
0.000111797
0.000385511
9.05268e-05
0.000369442
7.35077e-05
0.000356002
5.97754e-05
0.000344504
4.91991e-05
0.00033494
4.15878e-05
0.000326655
3.57149e-05
0.000319344
3.12487e-05
0.000312771
2.78697e-05
0.000306772
2.52334e-05
0.00030122
2.31932e-05
0.000296026
2.15566e-05
0.00029111
2.02671e-05
0.000286429
1.9192e-05
0.000281935
1.83162e-05
0.000277603
1.75643e-05
0.000273406
1.69276e-05
0.000269324
1.63853e-05
0.000265338
1.59173e-05
0.00026144
1.55034e-05
0.000257614
1.51382e-05
0.000253857
1.48039e-05
0.000250163
1.44803e-05
0.000246532
1.41752e-05
0.000242974
1.3969e-05
0.000239459
1.37661e-05
0.000235969
1.3498e-05
0.000232523
1.32607e-05
0.000229119
1.30419e-05
0.00022576
1.28326e-05
0.000222444
1.26219e-05
0.000219169
1.24323e-05
0.000215935
1.22317e-05
0.000212749
1.2013e-05
0.000209598
1.184e-05
0.000206479
1.16843e-05
0.000203403
1.1492e-05
0.000200368
1.12899e-05
0.000197369
1.11366e-05
0.000194397
1.10044e-05
0.000191459
1.08422e-05
0.00018856
1.06675e-05
0.000185691
1.05318e-05
0.000182844
1.04224e-05
0.000180024
1.02937e-05
0.000177234
1.01557e-05
0.000174471
1.00345e-05
0.000171728
9.93905e-06
0.000169
9.86158e-06
0.000166288
9.77534e-06
0.000163598
9.67417e-06
0.000160927
9.58339e-06
0.000158273
9.49891e-06
0.000155629
9.44666e-06
0.00015299
9.4014e-06
0.000150362
9.34917e-06
0.000147747
9.26547e-06
0.000145152
9.18437e-06
0.00014257
9.11863e-06
0.000139998
9.06364e-06
0.000137449
8.97037e-06
8.95331e-06
0.00138084
0.00126257
0.000542567
0.00111706
0.000688703
0.000991862
0.000589631
0.000901694
0.000425124
0.00082718
0.000363488
0.000757886
0.000345602
0.000694712
0.000316847
0.00063882
0.000281417
0.000590252
0.000245124
0.00054915
0.000208083
0.000515028
0.000171912
0.000487055
0.00013977
0.00046442
0.000113161
0.000446144
9.17842e-05
0.000431038
7.4881e-05
0.000418316
6.19217e-05
0.000407648
5.22548e-05
0.000398433
4.49308e-05
0.000390302
3.93794e-05
0.000383002
3.51693e-05
0.000376339
3.18967e-05
0.000370168
2.93647e-05
0.000364384
2.73397e-05
0.000358911
2.57409e-05
0.000353683
2.44199e-05
0.000348658
2.33409e-05
0.000343804
2.24183e-05
0.000339092
2.16392e-05
0.0003345
2.09774e-05
0.00033001
2.04074e-05
0.000325604
1.99092e-05
0.000321276
1.94662e-05
0.000317015
1.90653e-05
0.000312813
1.86822e-05
0.000308676
1.83123e-05
0.000304612
1.80326e-05
0.000300595
1.77833e-05
0.000296599
1.74941e-05
0.000292642
1.72178e-05
0.000288727
1.69561e-05
0.000284855
1.67046e-05
0.000281025
1.64527e-05
0.000277232
1.62249e-05
0.000273479
1.59851e-05
0.000269772
1.57197e-05
0.000266101
1.55106e-05
0.000262458
1.53281e-05
0.000258856
1.5094e-05
0.000255299
1.48468e-05
0.000251772
1.46637e-05
0.000248268
1.45079e-05
0.000244801
1.43094e-05
0.000241368
1.41003e-05
0.000237963
1.39366e-05
0.00023458
1.38059e-05
0.00023122
1.36531e-05
0.00022789
1.34858e-05
0.000224582
1.33423e-05
0.000221291
1.32304e-05
0.000218012
1.31404e-05
0.000214746
1.30419e-05
0.000211497
1.29227e-05
0.000208266
1.28145e-05
0.000205045
1.272e-05
0.000201831
1.26603e-05
0.000198616
1.26168e-05
0.000195406
1.25594e-05
0.000192207
1.2464e-05
0.000189023
1.23683e-05
0.000185847
1.22948e-05
0.000182678
1.22329e-05
0.000179529
1.21191e-05
1.21127e-05
0.00149642
0.000680736
0.00132336
0.000861763
0.00117335
0.000739635
0.00106475
0.000533729
0.000975856
0.000452378
0.000893996
0.000427462
0.000819695
0.000391148
0.000754159
0.000346953
0.000697412
0.000301871
0.000649494
0.000256001
0.000609926
0.00021148
0.000577713
0.000171983
0.000551705
0.000139169
0.000530715
0.000112775
0.000513523
9.20725e-05
0.000499214
7.62314e-05
0.000487186
6.42827e-05
0.000476837
5.52794e-05
0.000467743
4.84736e-05
0.000459592
4.33206e-05
0.000452165
3.93237e-05
0.0004453
3.62291e-05
0.000438871
3.37686e-05
0.000432786
3.18259e-05
0.000426975
3.02307e-05
0.000421394
2.89223e-05
0.000416
2.78121e-05
0.000410758
2.68811e-05
0.000405647
2.60892e-05
0.000400644
2.54103e-05
0.000395733
2.48204e-05
0.000390901
2.42975e-05
0.000386141
2.38255e-05
0.000381444
2.33789e-05
0.000376804
2.29526e-05
0.000372232
2.26043e-05
0.000367715
2.23002e-05
0.000363232
2.19773e-05
0.000358786
2.16635e-05
0.000354385
2.13569e-05
0.000350028
2.10625e-05
0.000345709
2.07712e-05
0.000341428
2.05059e-05
0.000337188
2.02247e-05
0.000332995
1.99131e-05
0.000328834
1.96712e-05
0.000324705
1.94578e-05
0.000320613
1.9186e-05
0.000316565
1.88947e-05
0.000312548
1.86803e-05
0.000308554
1.8502e-05
0.000304589
1.82742e-05
0.000300664
1.80251e-05
0.000296766
1.7835e-05
0.000292882
1.76897e-05
0.000289021
1.75142e-05
0.000285186
1.73209e-05
0.000281374
1.71544e-05
0.000277573
1.70312e-05
0.000273779
1.69345e-05
0.000269992
1.68288e-05
0.000266221
1.66942e-05
0.00026246
1.65753e-05
0.000258709
1.64712e-05
0.000254955
1.64144e-05
0.000251195
1.63759e-05
0.00024743
1.63245e-05
0.000243676
1.62188e-05
0.000239926
1.61185e-05
0.000236179
1.60408e-05
0.000232434
1.59785e-05
0.000228706
1.58473e-05
1.58628e-05
0.00176804
0.000839851
0.00156367
0.00106613
0.00138472
0.000918584
0.00125409
0.000664354
0.00114797
0.000558505
0.0010512
0.000524229
0.000963719
0.000478629
0.000886723
0.000423949
0.000820193
0.000368401
0.000764091
0.000312103
0.0007179
0.000257671
0.000680426
0.000209457
0.00065024
0.000169355
0.000625907
0.000137108
0.000606089
0.000111891
0.000589699
9.26217e-05
0.000575949
7.80325e-05
0.000564149
6.70791e-05
0.000553814
5.88086e-05
0.000544586
5.25486e-05
0.000536201
4.77082e-05
0.000528464
4.39666e-05
0.000521233
4.09988e-05
0.000514403
3.86564e-05
0.000507888
3.67456e-05
0.00050163
3.51806e-05
0.000495587
3.38554e-05
0.00048972
3.27482e-05
0.000484002
3.18072e-05
0.000478403
3.10088e-05
0.00047291
3.03139e-05
0.000467505
2.97023e-05
0.000462178
2.91525e-05
0.000456918
2.86393e-05
0.000451716
2.81538e-05
0.000446583
2.77374e-05
0.000441513
2.737e-05
0.000436487
2.70037e-05
0.000431509
2.66415e-05
0.000426577
2.62886e-05
0.000421691
2.59485e-05
0.000416852
2.56103e-05
0.000412049
2.53095e-05
0.000407289
2.49842e-05
0.000402583
2.46189e-05
0.000397911
2.43436e-05
0.000393266
2.41029e-05
0.000388665
2.37871e-05
0.000384115
2.34451e-05
0.000379593
2.3202e-05
0.000375093
2.30018e-05
0.000370628
2.27394e-05
0.000366202
2.2451e-05
0.000361802
2.22348e-05
0.00035742
2.20723e-05
0.000353055
2.18787e-05
0.000348721
2.16552e-05
0.000344405
2.147e-05
0.000340102
2.13348e-05
0.000335803
2.12337e-05
0.000331506
2.11256e-05
0.000327222
2.09778e-05
0.00032295
2.08478e-05
0.00031868
2.07408e-05
0.000314407
2.06872e-05
0.000310117
2.06657e-05
0.000305822
2.06199e-05
0.000301527
2.05143e-05
0.000297238
2.04075e-05
0.000292945
2.03331e-05
0.000288647
2.02767e-05
0.000284368
2.01262e-05
0.0020837
0.00101762
0.00184434
0.00130549
0.0016319
0.00113102
0.00147513
0.000821128
0.00134842
0.000685217
0.001234
0.000638646
0.00113098
0.000581646
0.00104042
0.000514517
0.000962235
0.000446581
0.000896358
0.000377981
0.000842182
0.000311847
0.000798312
0.000253327
0.000763011
0.000204655
0.000734589
0.000165531
0.000711504
0.000134975
0.000692488
0.000111638
0.000676555
9.3966e-05
0.00066293
8.07037e-05
0.00065103
7.07085e-05
0.000640433
6.31461e-05
0.000630829
5.73119e-05
0.000621994
5.28019e-05
0.000613753
4.92393e-05
0.00060598
4.64295e-05
0.000598577
4.41485e-05
0.00059148
4.22786e-05
0.000584633
4.07014e-05
0.000577995
3.93863e-05
0.000571526
3.82766e-05
0.000565199
3.73356e-05
0.000558995
3.65182e-05
0.000552893
3.58037e-05
0.000546879
3.51665e-05
0.000540945
3.45733e-05
0.000535075
3.40236e-05
0.000529275
3.35377e-05
0.000523551
3.30939e-05
0.000517889
3.26657e-05
0.00051228
3.22505e-05
0.000506723
3.1846e-05
0.000501217
3.14543e-05
0.000495763
3.10647e-05
0.000490353
3.07187e-05
0.000484994
3.03437e-05
0.00047969
2.99228e-05
0.000474428
2.96056e-05
0.000469196
2.93346e-05
0.000464016
2.89679e-05
0.000458888
2.85729e-05
0.000453795
2.82948e-05
0.000448725
2.80717e-05
0.000443695
2.77698e-05
0.00043871
2.74358e-05
0.000433753
2.7192e-05
0.00042881
2.70153e-05
0.000423896
2.67926e-05
0.000419009
2.65423e-05
0.000414146
2.63332e-05
0.000409294
2.61863e-05
0.000404443
2.60849e-05
0.0003996
2.59687e-05
0.000394766
2.58118e-05
0.000389944
2.56696e-05
0.000385124
2.55612e-05
0.000380297
2.55141e-05
0.000375456
2.5507e-05
0.000370598
2.54779e-05
0.000365744
2.53681e-05
0.000360894
2.5257e-05
0.000356037
2.51906e-05
0.000351171
2.51421e-05
2.49749e-05
0.0024498
0.00120689
0.00217233
0.00158297
0.00192174
0.00138161
0.00173412
0.00100874
0.00158285
0.000836491
0.00144754
0.000773956
0.00132621
0.000702973
0.00121963
0.000621098
0.00112762
0.000538587
0.00105008
0.000455524
0.000986312
0.000375615
0.000934696
0.000304944
0.000893193
0.000246158
0.000859796
0.000198927
0.000832709
0.000162063
0.000810437
0.00013391
0.000791805
0.000112598
0.000775904
9.66046e-05
0.000762056
8.45566e-05
0.00074975
7.54526e-05
0.000738627
6.8435e-05
0.000728411
6.30176e-05
0.000718905
5.87448e-05
0.00070996
5.53744e-05
0.000701461
5.26478e-05
0.000693316
5.04235e-05
0.000685476
4.85416e-05
0.000677881
4.69809e-05
0.00067049
4.5668e-05
0.000663268
4.45574e-05
0.00065619
4.35968e-05
0.000649236
4.27574e-05
0.000642388
4.20145e-05
0.000635632
4.13289e-05
0.000628952
4.07035e-05
0.000622357
4.01334e-05
0.00061585
3.9601e-05
0.000609413
3.91025e-05
0.000603043
3.86206e-05
0.000596733
3.8156e-05
0.000590483
3.77038e-05
0.000584293
3.72544e-05
0.000578157
3.68547e-05
0.000572076
3.64254e-05
0.000566061
3.59375e-05
0.000560095
3.55716e-05
0.000554166
3.52635e-05
0.000548292
3.48425e-05
0.000542485
3.4379e-05
0.000536716
3.40642e-05
0.000530974
3.38133e-05
0.000525277
3.34668e-05
0.000519633
3.308e-05
0.000514021
3.28044e-05
0.00050843
3.2606e-05
0.000502865
3.23581e-05
0.000497337
3.20694e-05
0.000491835
3.18354e-05
0.000486345
3.16766e-05
0.000480859
3.15705e-05
0.000475379
3.14492e-05
0.000469915
3.12759e-05
0.000464463
3.11214e-05
0.000459015
3.10088e-05
0.000453559
3.09705e-05
0.000448082
3.09841e-05
0.000442594
3.09656e-05
0.000437109
3.08531e-05
0.000431626
3.07401e-05
0.000426138
3.06788e-05
0.000420638
3.06418e-05
3.04506e-05
0.00287264
0.00139365
0.00255497
0.00190063
0.00226208
0.00167451
0.00203839
0.00123244
0.00185788
0.001017
0.00169783
0.000934001
0.00155493
0.000845881
0.00142945
0.000746577
0.00132104
0.000646994
0.00122958
0.000546983
0.0011543
0.000450892
0.00109335
0.0003659
0.00104433
0.000295178
0.00100488
0.000238377
0.000972907
0.000194032
0.000946642
0.000160176
0.000924695
0.000134545
0.000905999
0.000115301
0.000889739
0.000100816
0.000875324
8.98679e-05
0.000862324
8.14352e-05
0.000850411
7.49307e-05
0.000839351
6.98039e-05
0.000828963
6.57634e-05
0.000819106
6.25044e-05
0.000809685
5.98442e-05
0.000800625
5.76016e-05
0.000791865
5.57412e-05
0.000783347
5.41859e-05
0.000775039
5.28651e-05
0.0007669
5.17363e-05
0.000758912
5.07455e-05
0.000751051
4.98755e-05
0.000743303
4.9077e-05
0.000735649
4.8357e-05
0.000728095
4.76878e-05
0.000720645
4.7051e-05
0.00071328
4.64674e-05
0.000705991
4.59092e-05
0.000698778
4.53694e-05
0.000691637
4.48449e-05
0.000684566
4.43257e-05
0.000677555
4.38653e-05
0.000670612
4.3368e-05
0.00066375
4.27999e-05
0.000656943
4.23789e-05
0.000650178
4.20282e-05
0.000643483
4.1538e-05
0.000636859
4.10027e-05
0.000630284
4.06396e-05
0.000623743
4.03542e-05
0.000617251
3.99585e-05
0.000610824
3.95071e-05
0.000604436
3.91923e-05
0.000598069
3.89731e-05
0.000591738
3.86894e-05
0.000585445
3.83616e-05
0.000579187
3.80941e-05
0.000572946
3.79174e-05
0.000566706
3.78099e-05
0.000560476
3.76795e-05
0.000554265
3.74871e-05
0.00054807
3.73162e-05
0.000541882
3.71965e-05
0.000535684
3.71687e-05
0.000529465
3.72037e-05
0.000523233
3.71968e-05
0.000517005
3.70811e-05
0.000510789
3.6957e-05
0.000504562
3.69054e-05
0.000498324
3.68794e-05
3.66642e-05
0.00335702
0.00155627
0.00299986
0.0022578
0.00266187
0.0020125
0.00239653
0.00149778
0.00218135
0.00123217
0.00199203
0.00112333
0.00182367
0.00101423
0.00167588
0.000894368
0.00154803
0.000774841
0.00143996
0.00065506
0.00135085
0.000540005
0.0012786
0.000438146
0.00122046
0.000353318
0.00117366
0.000285175
0.00113572
0.000231969
0.00110458
0.000191316
0.00107858
0.00016055
0.00105645
0.000137429
0.00103724
0.000120025
0.00102025
0.000106864
0.00100494
9.67388e-05
0.000990956
8.89162e-05
0.000977995
8.27648e-05
0.000965845
7.79133e-05
0.000954338
7.40117e-05
0.000943366
7.08165e-05
0.000932827
6.81406e-05
0.000922649
6.59187e-05
0.000912773
6.40624e-05
0.000903147
6.24912e-05
0.000893735
6.11483e-05
0.0008845
5.99802e-05
0.000875427
5.8949e-05
0.000866488
5.80158e-05
0.000857666
5.71792e-05
0.000848969
5.63841e-05
0.000840392
5.56283e-05
0.000831916
5.49435e-05
0.000823535
5.42902e-05
0.000815244
5.36606e-05
0.000807039
5.30501e-05
0.000798919