/*--------------------------------*- C++ -*----------------------------------*\
| =========                 |                                                 |
| \\      /  F ield         | OpenFOAM: The Open Source CFD Toolbox           |
|  \\    /   O peration     | Version:  2412                                  |
|   \\  /    A nd           | Website:  www.openfoam.com                      |
|    \\/     M anipulation  |                                                 |
\*---------------------------------------------------------------------------*/
FoamFile
{
    version     2.0;
    format      ascii;
    arch        "LSB;label=32;scalar=64";
    class       volScalarField;
    location    "260";
    object      p;
}
// * * * * * * * * * * * * * * * * * * * * * * * * * * * * * * * * * * * * * //

dimensions      [0 2 -2 0 0 0 0];

internalField   nonuniform List<scalar> 
8637
(
27.891
27.1836
26.4812
25.8473
25.2267
24.62
24.0496
23.4819
22.9267
22.4042
21.8881
21.3786
20.8972
20.4334
19.9751
19.5321
19.1163
18.7183
18.3302
17.962
17.6216
17.3071
17.0074
16.7281
16.4796
16.2664
16.0797
15.9149
15.7858
15.6991
15.6519
15.6387
15.6683
15.7444
15.8748
16.0585
16.2945
16.5949
16.9627
17.4004
17.9099
18.5
19.1823
19.9595
20.8317
21.8053
22.8921
24.1037
25.4472
26.9233
28.5401
30.3122
32.2515
34.3662
36.6627
39.1524
41.8531
44.7753
47.9279
51.3275
54.9905
58.9332
63.1678
67.7135
72.5972
77.8305
83.4369
89.4461
95.8794
102.772
110.144
118.042
126.5
135.555
145.271
155.68
166.857
178.86
191.766
205.662
220.628
236.773
254.203
273.012
293.304
315.135
338.497
363.169
27.891
27.1836
26.4812
25.8473
25.2267
24.62
24.0496
23.4819
22.9267
22.4042
21.8881
21.3786
20.8972
20.4334
19.9751
19.5321
19.1163
18.7183
18.3302
17.962
17.6216
17.3071
17.0074
16.7281
16.4796
16.2664
16.0797
15.9149
15.7859
15.6991
15.6519
15.6387
15.6683
15.7444
15.8748
16.0585
16.2945
16.5949
16.9627
17.4004
17.9099
18.5
19.1823
19.9595
20.8317
21.8053
22.8921
24.1037
25.4473
26.9233
28.5401
30.3122
32.2515
34.3662
36.6627
39.1524
41.8531
44.7753
47.9279
51.3275
54.9905
58.9332
63.1679
67.7135
72.5972
77.8305
83.4369
89.4461
95.8794
102.772
110.144
118.042
126.5
135.555
145.271
155.68
166.857
178.86
191.766
205.662
220.628
236.773
254.203
273.012
293.304
315.135
338.497
363.169
27.891
27.1836
26.4812
25.8473
25.2267
24.62
24.0496
23.4819
22.9268
22.4042
21.8881
21.3786
20.8973
20.4335
19.9751
19.5321
19.1163
18.7183
18.3302
17.962
17.6216
17.3071
17.0074
16.7281
16.4796
16.2664
16.0797
15.9149
15.7859
15.6991
15.6519
15.6387
15.6683
15.7445
15.8749
16.0585
16.2945
16.595
16.9627
17.4004
17.9099
18.5
19.1823
19.9595
20.8317
21.8053
22.8921
24.1037
25.4473
26.9233
28.5402
30.3122
32.2515
34.3663
36.6627
39.1524
41.8532
44.7753
47.9279
51.3276
54.9905
58.9332
63.1679
67.7135
72.5972
77.8305
83.437
89.4462
95.8794
102.772
110.144
118.042
126.5
135.555
145.271
155.68
166.857
178.86
191.766
205.662
220.628
236.773
254.203
273.012
293.304
315.136
338.497
363.169
27.891
27.1837
26.4813
25.8473
25.2267
24.62
24.0497
23.482
22.9268
22.4042
21.8881
21.3787
20.8973
20.4335
19.9751
19.5321
19.1163
18.7184
18.3303
17.962
17.6216
17.3071
17.0074
16.7281
16.4796
16.2664
16.0797
15.9149
15.7859
15.6991
15.652
15.6387
15.6683
15.7445
15.8749
16.0585
16.2945
16.595
16.9627
17.4004
17.91
18.5
19.1823
19.9595
20.8317
21.8053
22.8921
24.1037
25.4473
26.9234
28.5402
30.3123
32.2515
34.3663
36.6628
39.1525
41.8532
44.7753
47.9279
51.3276
54.9906
58.9333
63.1679
67.7136
72.5973
77.8306
83.437
89.4462
95.8795
102.772
110.144
118.042
126.5
135.556
145.272
155.68
166.858
178.86
191.766
205.662
220.628
236.773
254.203
273.012
293.304
315.136
338.498
363.169
27.891
27.1837
26.4813
25.8474
25.2268
24.62
24.0497
23.482
22.9268
22.4042
21.8881
21.3787
20.8973
20.4335
19.9752
19.5321
19.1164
18.7184
18.3303
17.9621
17.6217
17.3072
17.0074
16.7281
16.4797
16.2664
16.0798
15.915
15.7859
15.6992
15.652
15.6388
15.6683
15.7445
15.8749
16.0586
16.2946
16.595
16.9628
17.4004
17.91
18.5001
19.1824
19.9596
20.8318
21.8054
22.8922
24.1038
25.4474
26.9234
28.5403
30.3124
32.2516
34.3664
36.6629
39.1526
41.8533
44.7754
47.9281
51.3277
54.9907
58.9334
63.1681
67.7137
72.5975
77.8308
83.4372
89.4464
95.8797
102.772
110.144
118.042
126.501
135.556
145.272
155.681
166.858
178.861
191.766
205.663
220.628
236.774
254.204
273.013
293.305
315.137
338.499
363.17
27.891
27.1837
26.4813
25.8474
25.2268
24.6201
24.0497
23.482
22.9268
22.4043
21.8881
21.3787
20.8973
20.4335
19.9752
19.5322
19.1164
18.7184
18.3303
17.9621
17.6217
17.3072
17.0075
16.7282
16.4797
16.2665
16.0798
15.915
15.786
15.6993
15.6521
15.6388
15.6684
15.7446
15.875
16.0586
16.2946
16.5951
16.9629
17.4005
17.9101
18.5002
19.1825
19.9597
20.8319
21.8055
22.8923
24.1039
25.4475
26.9236
28.5404
30.3125
32.2518
34.3666
36.663
39.1528
41.8535
44.7756
47.9283
51.328
54.991
58.9336
63.1684
67.714
72.5978
77.8311
83.4375
89.4468
95.8801
102.772
110.145
118.043
126.501
135.556
145.273
155.681
166.859
178.861
191.767
205.664
220.629
236.775
254.205
273.014
293.306
315.138
338.5
363.172
27.8911
27.1838
26.4814
25.8475
25.2269
24.6201
24.0498
23.4821
22.9269
22.4043
21.8882
21.3788
20.8974
20.4336
19.9753
19.5323
19.1165
18.7185
18.3304
17.9622
17.6218
17.3073
17.0076
16.7283
16.4798
16.2666
16.0799
15.9151
15.7861
15.6994
15.6522
15.6389
15.6685
15.7447
15.8751
16.0588
16.2948
16.5953
16.963
17.4007
17.9103
18.5003
19.1827
19.9599
20.8321
21.8057
22.8925
24.1041
25.4477
26.9238
28.5407
30.3128
32.2521
34.3669
36.6634
39.1531
41.8539
44.776
47.9287
51.3284
54.9914
58.9341
63.1688
67.7145
72.5983
77.8317
83.4381
89.4474
95.8807
102.773
110.146
118.044
126.502
135.557
145.274
155.682
166.86
178.863
191.769
205.665
220.631
236.777
254.207
273.016
293.309
315.141
338.504
363.176
27.8913
27.1839
26.4815
25.8476
25.227
24.6203
24.0499
23.4822
22.9271
22.4045
21.8884
21.3789
20.8976
20.4338
19.9754
19.5324
19.1166
18.7187
18.3306
17.9624
17.622
17.3075
17.0077
16.7285
16.48
16.2668
16.0801
15.9153
15.7863
15.6996
15.6524
15.6392
15.6687
15.7449
15.8754
16.059
16.295
16.5955
16.9633
17.401
17.9106
18.5006
19.183
19.9602
20.8324
21.8061
22.8929
24.1045
25.4482
26.9242
28.5411
30.3133
32.2525
34.3674
36.6639
39.1537
41.8545
44.7766
47.9293
51.3291
54.9921
58.9349
63.1696
67.7153
72.5992
77.8326
83.4391
89.4485
95.8819
102.774
110.147
118.045
126.503
135.559
145.275
155.684
166.862
178.865
191.771
205.668
220.634
236.78
254.211
273.02
293.313
315.146
338.509
363.182
27.8915
27.1841
26.4817
25.8478
25.2272
24.6205
24.0502
23.4825
22.9273
22.4047
21.8886
21.3792
20.8978
20.434
19.9757
19.5327
19.1169
18.7189
18.3308
17.9626
17.6222
17.3077
17.008
16.7287
16.4803
16.267
16.0804
15.9156
15.7866
15.6999
15.6527
15.6395
15.6691
15.7453
15.8757
16.0594
16.2954
16.5959
16.9637
17.4014
17.911
18.5011
19.1835
19.9607
20.833
21.8066
22.8935
24.1051
25.4488
26.9249
28.5418
30.314
32.2533
34.3682
36.6647
39.1546
41.8554
44.7776
47.9303
51.3301
54.9933
58.936
63.1709
67.7167
72.6006
77.8341
83.4407
89.4501
95.8836
102.776
110.149
118.047
126.506
135.561
145.278
155.687
166.865
178.868
191.774
205.672
220.638
236.784
254.216
273.026
293.32
315.153
338.517
363.19
27.8918
27.1845
26.4821
25.8481
25.2276
24.6208
24.0505
23.4828
22.9276
22.405
21.8889
21.3795
20.8981
20.4343
19.976
19.533
19.1172
18.7192
18.3312
17.963
17.6226
17.3081
17.0084
16.7291
16.4807
16.2674
16.0808
15.916
15.787
15.7003
15.6532
15.64
15.6696
15.7458
15.8762
16.0599
16.296
16.5965
16.9643
17.4021
17.9117
18.5018
19.1842
19.9615
20.8338
21.8075
22.8944
24.106
25.4497
26.9259
28.5429
30.3151
32.2545
34.3694
36.666
39.1559
41.8568
44.7791
47.9319
51.3318
54.995
58.9379
63.1728
67.7187
72.6027
77.8363
83.4431
89.4526
95.8863
102.779
110.152
118.05
126.509
135.565
145.282
155.691
166.869
178.873
191.78
205.678
220.644
236.791
254.223
273.034
293.329
315.163
338.528
363.203
25.8486
25.228
24.6213
24.0509
23.4832
22.928
22.4055
21.8894
21.38
20.8986
20.4348
19.9765
19.5335
19.1177
18.7197
18.3317
17.9635
17.6231
17.3086
17.0089
16.7297
16.4812
16.268
16.0814
15.9166
15.7876
15.701
15.6538
15.6407
15.6703
15.7465
15.877
16.0607
16.2968
16.5974
16.9652
17.403
17.9127
18.5028
19.1853
19.9626
20.8349
21.8087
22.8956
24.1074
25.4511
26.9274
28.5444
30.3167
32.2562
34.3712
36.6679
39.1579
41.8588
44.7813
47.9342
51.3341
54.9975
58.9405
63.1756
67.7216
72.6058
77.8396
83.4465
89.4563
95.8901
102.783
110.156
118.055
126.514
135.57
145.287
155.697
166.876
178.88
191.787
205.686
220.653
236.801
254.234
273.046
293.342
315.178
338.544
363.219
25.8492
25.2286
24.6219
24.0516
23.4839
22.9287
22.4061
21.89
21.3806
20.8992
20.4355
19.9771
19.5342
19.1184
18.7204
18.3324
17.9642
17.6238
17.3094
17.0097
16.7304
16.482
16.2688
16.0822
15.9175
15.7885
15.7019
15.6548
15.6416
15.6713
15.7476
15.8781
16.0619
16.298
16.5986
16.9665
17.4043
17.914
18.5043
19.1868
19.9641
20.8366
21.8104
22.8974
24.1093
25.4531
26.9295
28.5466
30.319
32.2586
34.3737
36.6705
39.1606
41.8617
44.7843
47.9374
51.3375
55.001
58.9442
63.1795
67.7257
72.6101
77.8441
83.4513
89.4614
95.8955
102.789
110.162
118.061
126.521
135.578
145.295
155.706
166.885
178.89
191.798
205.697
220.666
236.815
254.249
273.063
293.36
315.197
338.565
363.242
25.8501
25.2295
24.6228
24.0524
23.4847
22.9296
22.407
21.8909
21.3815
20.9001
20.4364
19.978
19.5351
19.1193
18.7214
18.3333
17.9652
17.6248
17.3104
17.0107
16.7315
16.4831
16.2699
16.0834
15.9187
15.7897
15.7031
15.6561
15.643
15.6727
15.749
15.8796
16.0634
16.2996
16.6003
16.9682
17.4061
17.9159
18.5062
19.1888
19.9663
20.8388
21.8128
22.8999
24.1119
25.4558
26.9323
28.5496
30.3221
32.2618
34.3771
36.6741
39.1644
41.8657
44.7884
47.9417
51.3421
55.0058
58.9492
63.1848
67.7313
72.616
77.8503
83.4579
89.4682
95.9028
102.797
110.17
118.07
126.53
135.587
145.306
155.717
166.897
178.903
191.812
205.713
220.682
236.833
254.269
273.084
293.384
315.223
338.592
363.27
25.8512
25.2306
24.6239
24.0536
23.4859
22.9307
22.4082
21.8921
21.3827
20.9013
20.4375
19.9793
19.5363
19.1206
18.7226
18.3346
17.9665
17.6261
17.3117
17.0121
16.7329
16.4845
16.2714
16.0849
15.9202
15.7913
15.7048
15.6578
15.6447
15.6745
15.7509
15.8816
16.0655
16.3017
16.6025
16.9705
17.4085
17.9185
18.5089
19.1916
19.9692
20.8419
21.8159
22.9032
24.1153
25.4595
26.9361
28.5535
30.3263
32.2662
34.3817
36.6789
39.1694
41.871
44.794
47.9475
51.3482
55.0122
58.9559
63.1918
67.7387
72.6238
77.8585
83.4665
89.4774
95.9124
102.807
110.181
118.081
126.542
135.6
145.32
155.732
166.913
178.92
191.83
205.732
220.704
236.856
254.295
273.112
293.414
315.255
338.627
363.305
25.8527
25.2321
24.6254
24.0551
23.4874
22.9322
22.4097
21.8936
21.3842
20.9028
20.4391
19.9808
19.5379
19.1222
18.7243
18.3363
17.9682
17.6278
17.3135
17.0139
16.7347
16.4864
16.2734
16.0869
15.9223
15.7935
15.707
15.66
15.6471
15.6769
15.7534
15.8842
16.0682
16.3045
16.6054
16.9736
17.4117
17.9218
18.5123
19.1952
19.973
20.8458
21.8201
22.9076
24.1199
25.4642
26.9411
28.5588
30.3317
32.2719
34.3877
36.6851
39.176
41.8778
44.8011
47.955
51.356
55.0205
58.9646
63.2009
67.7483
72.6338
77.8691
83.4776
89.4891
95.9248
102.82
110.195
118.096
126.558
135.617
145.337
155.751
166.933
178.942
191.854
205.758
220.732
236.886
254.327
273.147
293.451
315.295
338.668
363.348
25.8546
25.234
24.6273
24.0569
23.4893
22.9341
22.4116
21.8955
21.3861
20.9048
20.4411
19.9828
19.5399
19.1242
18.7263
18.3384
17.9703
17.63
17.3157
17.0161
16.7371
16.4888
16.2758
16.0894
15.9249
15.7962
15.7098
15.6629
15.65
15.68
15.7566
15.8875
16.0716
16.3082
16.6092
16.9775
17.4158
17.9261
18.5168
19.1999
19.9779
20.8509
21.8254
22.9131
24.1257
25.4703
26.9474
28.5654
30.3387
32.2792
34.3953
36.6931
39.1843
41.8866
44.8103
47.9646
51.3661
55.031
58.9756
63.2125
67.7604
72.6466
77.8825
83.4918
89.504
95.9406
102.836
110.213
118.115
126.578
135.638
145.36
155.775
166.959
178.969
191.884
205.79
220.766
236.923
254.367
273.19
293.497
315.343
338.718
363.397
25.857
25.2364
24.6296
24.0593
23.4916
22.9365
22.414
21.8979
21.3886
20.9072
20.4435
19.9853
19.5424
19.1268
18.729
18.341
17.973
17.6328
17.3185
17.019
16.74
16.4919
16.2789
16.0926
15.9282
15.7996
15.7133
15.6666
15.6538
15.684
15.7607
15.8917
16.076
16.3127
16.614
16.9825
17.421
17.9315
18.5225
19.2058
19.984
20.8574
21.8322
22.9202
24.133
25.478
26.9555
28.5738
30.3475
32.2884
34.4049
36.7032
39.1948
41.8975
44.8218
47.9766
51.3787
55.0442
58.9894
63.2269
67.7756
72.6625
77.8993
83.5094
89.5226
95.9602
102.857
110.235
118.138
126.602
135.664
145.388
155.805
166.991
179.003
191.92
205.829
220.808
236.968
254.415
273.241
293.551
315.399
338.775
363.452
25.8599
25.2393
24.6326
24.0623
23.4946
22.9394
22.417
21.9009
21.3916
20.9103
20.4466
19.9884
19.5456
19.13
18.7322
18.3444
17.9764
17.6363
17.3221
17.0227
16.7438
16.4957
16.2829
16.0967
15.9324
15.8039
15.7177
15.6712
15.6586
15.6889
15.7658
15.8971
16.0816
16.3185
16.62
16.9888
17.4275
17.9383
18.5296
19.2132
19.9918
20.8654
21.8406
22.929
24.1422
25.4876
26.9655
28.5843
30.3584
32.2998
34.4168
36.7156
39.2078
41.9111
44.8359
47.9915
51.3942
55.0604
59.0064
63.2448
67.7943
72.6822
77.9199
83.5311
89.5454
95.9842
102.882
110.261
118.166
126.632
135.696
145.422
155.841
167.029
179.044
191.964
205.876
220.858
237.021
254.471
273.3
293.613
315.464
338.839
363.514
25.8635
25.2429
24.6362
24.0659
23.4982
22.9431
22.4206
21.9046
21.3953
20.9141
20.4504
19.9923
19.5495
19.134
18.7363
18.3485
17.9806
17.6405
17.3264
17.0271
16.7483
16.5004
16.2877
16.1017
15.9375
15.8092
15.7232
15.6769
15.6645
15.695
15.7722
15.9037
16.0885
16.3257
16.6274
16.9965
17.4356
17.9467
18.5383
19.2223
20.0013
20.8754
21.8509
22.9398
24.1535
25.4993
26.9778
28.5971
30.3718
32.3137
34.4313
36.7308
39.2237
41.9277
44.8533
48.0096
51.4131
55.0802
59.0272
63.2665
67.8171
72.706
77.945
83.5575
89.5731
96.0134
102.913
110.294
118.201
126.669
135.735
145.462
155.884
167.075
179.093
192.016
205.931
220.917
237.084
254.534
273.37
293.684
315.536
338.911
363.582
25.8679
25.2473
24.6405
24.0703
23.5026
22.9475
22.4251
21.9091
21.3999
20.9186
20.4551
19.997
19.5543
19.1388
18.7412
18.3535
17.9857
17.6458
17.3318
17.0326
16.754
16.5062
16.2937
16.1078
15.9439
15.8158
15.73
15.6839
15.6718
15.7026
15.78
15.9118
16.0969
16.3344
16.6366
17.006
17.4455
17.957
18.5491
19.2335
20.0129
20.8875
21.8636
22.953
24.1672
25.5137
26.9927
28.6127
30.388
32.3307
34.449
36.7492
39.2429
41.9478
44.8742
48.0314
51.436
55.1041
59.0522
63.2926
67.8445
72.7348
77.9751
83.5891
89.6064
96.0484
102.95
110.333
118.242
126.712
135.781
145.511
155.935
167.13
179.151
192.077
205.995
220.985
237.155
254.609
273.449
293.764
315.616
338.99
363.656
25.8732
25.2526
24.6458
24.0756
23.508
22.9529
22.4305
21.9146
21.4054
20.9242
20.4607
20.0027
19.5601
19.1447
18.7472
18.3596
17.992
17.6522
17.3383
17.0393
16.7609
16.5133
16.301
16.1153
15.9516
15.8238
15.7383
15.6924
15.6806
15.7118
15.7896
15.9217
16.1072
16.3451
16.6477
17.0176
17.4575
17.9695
18.5621
19.2471
20.027
20.9022
21.8789
22.9689
24.1838
25.5309
27.0107
28.6314
30.4075
32.351
34.4702
36.7713
39.266
41.9718
44.8992
48.0576
51.4633
55.1327
59.082
63.3239
67.8772
72.769
78.011
83.6268
89.6459
96.0899
102.994
110.379
118.29
126.763
135.834
145.567
155.995
167.192
179.217
192.147
206.069
221.062
237.235
254.694
273.535
293.852
315.705
339.076
363.736
25.8795
25.2589
24.6522
24.082
23.5144
22.9594
22.4371
21.9212
21.412
20.931
20.4676
20.0097
19.5671
19.1519
18.7545
18.3671
17.9996
17.6599
17.3463
17.0475
16.7692
16.5219
16.3098
16.1245
15.961
15.8335
15.7483
15.7028
15.6914
15.7229
15.8011
15.9337
16.1196
16.358
16.6611
17.0315
17.472
17.9845
18.5777
19.2633
20.0439
20.9198
21.8972
22.9879
24.2036
25.5515
27.0321
28.6537
30.4308
32.3752
34.4954
36.7975
39.2934
42.0003
44.929
48.0886
51.4957
55.1665
59.1173
63.3607
67.9158
72.8093
78.0532
83.671
89.6923
96.1386
103.045
110.432
118.346
126.822
135.896
145.632
156.063
167.264
179.292
192.226
206.151
221.148
237.324
254.786
273.631
293.949
315.802
339.171
363.824
25.8871
25.2665
24.6599
24.0897
23.5221
22.9672
22.4449
21.9291
21.42
20.9391
20.4758
20.018
19.5756
19.1605
18.7633
18.376
18.0087
17.6693
17.3559
17.0573
16.7793
16.5323
16.3205
16.1354
15.9724
15.8452
15.7604
15.7153
15.7043
15.7363
15.815
15.9481
16.1345
16.3734
16.6771
17.0481
17.4892
18.0025
18.5964
19.2827
20.064
20.9407
21.9189
23.0105
24.2271
25.5759
27.0575
28.6802
30.4583
32.4038
34.5251
36.8285
39.3256
42.0339
44.964
48.1251
51.5337
55.2062
59.1587
63.4039
67.961
72.8565
78.1024
83.7225
89.7461
96.1949
103.104
110.494
118.411
126.889
135.967
145.706
156.141
167.345
179.377
192.314
206.243
221.244
237.424
254.889
273.737
294.057
315.91
339.276
363.921
25.8962
25.2756
24.669
24.0988
23.5313
22.9764
22.4543
21.9386
21.4296
20.9487
20.4856
20.028
19.5857
19.1708
18.7738
18.3868
18.0197
17.6805
17.3674
17.0691
16.7914
16.5447
16.3333
16.1486
15.986
15.8592
15.7749
15.7303
15.7197
15.7522
15.8315
15.9652
16.1522
16.3918
16.6961
17.0679
17.5097
18.0237
18.6184
19.3055
20.0878
20.9653
21.9445
23.0372
24.2548
25.6046
27.0873
28.7112
30.4906
32.4373
34.5599
36.8647
39.3633
42.0732
45.0048
48.1676
51.578
55.2523
59.2067
63.454
68.0132
72.9109
78.1591
83.7817
89.8078
96.2593
103.171
110.564
118.484
126.966
136.047
145.789
156.227
167.436
179.472
192.413
206.346
221.351
237.535
255.004
273.855
294.177
316.029
339.391
364.027
25.9069
25.2863
24.6798
24.1097
23.5423
22.9875
22.4654
21.9499
21.441
20.9603
20.4973
20.0399
19.5978
19.1831
18.7864
18.3996
18.0328
17.6939
17.3811
17.0832
16.8059
16.5595
16.3486
16.1643
16.0021
15.8758
15.792
15.748
15.738
15.7711
15.851
15.9854
16.1731
16.4134
16.7185
17.0911
17.5338
18.0487
18.6443
19.3324
20.1156
20.9942
21.9745
23.0683
24.2871
25.6381
27.1221
28.7473
30.5281
32.4763
34.6003
36.9067
39.407
42.1186
45.052
48.2166
51.629
55.3053
59.2618
63.5113
68.0729
72.9729
78.2237
83.8489
89.8777
96.332
103.246
110.643
118.566
127.051
136.136
145.882
156.324
167.537
179.577
192.523
206.46
221.47
237.659
255.131
273.985
294.309
316.161
339.519
364.143
25.9196
25.2991
24.6926
24.1226
23.5553
23.0006
22.4787
21.9633
21.4546
20.974
20.5113
20.0541
19.6122
19.1978
18.8013
18.4148
18.0483
17.7098
17.3974
17.0998
16.823
16.5771
16.3666
16.1828
16.0212
15.8955
15.8123
15.7688
15.7595
15.7933
15.874
16.0091
16.1976
16.4388
16.7448
17.1183
17.5619
18.0778
18.6745
19.3637
20.148
21.0278
22.0093
23.1044
24.3245
25.6768
27.1622
28.789
30.5714
32.5212
34.6469
36.955
39.4571
42.1706
45.1059
48.2726
51.6871
55.3656
59.3244
63.5763
68.1403
73.0429
78.2964
83.9244
89.9561
96.4136
103.331
110.731
118.658
127.147
136.235
145.986
156.433
167.649
179.694
192.645
206.588
221.603
237.796
255.273
274.131
294.456
316.307
339.659
364.271
25.9345
25.3141
24.7077
24.1379
23.5707
23.0161
22.4944
21.9792
21.4706
20.9903
20.5278
20.0708
19.6293
19.2151
18.819
18.4328
18.0667
17.7286
17.4166
17.1195
16.8431
16.5977
16.3878
16.2046
16.0436
15.9185
15.836
15.7932
15.7847
15.8193
15.9008
16.0368
16.2262
16.4683
16.7753
17.1498
17.5945
18.1116
18.7095
19.3998
20.1854
21.0665
22.0494
23.1459
24.3675
25.7213
27.2082
28.8367
30.6208
32.5723
34.6998
37.0098
39.514
42.2295
45.1669
48.3358
51.7526
55.4335
59.3948
63.6492
68.216
73.1214
78.3778
84.009
90.0439
96.5048
103.426
110.83
118.76
127.253
136.347
146.102
156.553
167.775
179.826
192.782
206.731
221.751
237.95
255.432
274.293
294.62
316.469
339.814
364.41
25.9521
25.3318
24.7255
24.1558
23.5888
23.0344
22.5129
21.9979
21.4895
21.0095
20.5472
20.0906
19.6493
19.2355
18.8398
18.454
18.0883
17.7507
17.4391
17.1426
16.8667
16.6219
16.4126
16.23
16.0697
15.9454
15.8636
15.8217
15.814
15.8495
15.9319
16.0688
16.2595
16.5025
16.8106
17.1862
17.6321
18.1504
18.7496
19.4413
20.2281
21.1106
22.0951
23.1932
24.4163
25.7717
27.2604
28.8907
30.6766
32.6301
34.7595
37.0716
39.5779
42.2957
45.2354
48.4068
51.8261
55.5096
59.4736
63.7309
68.3008
73.2092
78.4689
84.1036
90.1421
96.6069
103.532
110.94
118.875
127.373
136.471
146.231
156.689
167.916
179.973
192.935
206.89
221.917
238.121
255.608
274.473
294.802
316.649
339.985
364.561
25.9728
25.3525
24.7464
24.1769
23.61
23.0558
22.5346
22.0199
21.5118
21.032
20.5701
20.1138
19.6729
19.2595
18.8641
18.4788
18.1136
17.7765
17.4655
17.1695
16.8943
16.6501
16.4414
16.2596
16.1
15.9765
15.8956
15.8547
15.8478
15.8843
15.9677
16.106
16.2974
16.5415
16.8509
17.2277
17.675
18.1944
18.7951
19.4882
20.2765
21.1606
22.1466
23.2465
24.4713
25.8285
27.319
28.9513
30.7393
32.6949
34.8265
37.1408
39.6496
42.3698
45.312
48.4861
51.9083
55.5947
59.5617
63.8223
68.3955
73.3074
78.5708
84.2094
90.252
96.7211
103.651
111.063
119.004
127.507
136.611
146.377
156.84
168.075
180.138
193.107
207.068
222.102
238.313
255.805
274.674
295.003
316.846
340.171
364.724
25.9969
25.3768
24.7709
24.2016
23.635
23.081
22.5601
22.0456
21.5378
21.0583
20.5968
20.1409
19.7004
19.2874
18.8925
18.5077
18.1431
17.8064
17.496
17.2006
16.9261
16.6827
16.4749
16.2939
16.135
16.0124
15.9327
15.8925
15.8864
15.924
16.0086
16.1482
16.3401
16.5858
16.8965
17.2746
17.7232
18.2441
18.8464
19.541
20.3309
21.2166
22.2045
23.3062
24.533
25.892
27.3846
29.0191
30.8095
32.7674
34.9014
37.2183
39.7297
42.4527
45.3978
48.5749
52.0002
55.69
59.6604
63.9245
68.5017
73.4175
78.685
84.3281
90.3753
96.8493
103.784
111.202
119.148
127.657
136.768
146.54
157.01
168.252
180.322
193.299
207.268
222.309
238.526
256.024
274.896
295.226
317.064
340.374
364.9
26.0251
25.4051
24.7995
24.2305
23.664
23.1104
22.5898
22.0757
21.5681
21.089
20.6279
20.1724
19.7323
19.3198
18.9254
18.5412
18.1771
17.841
17.5315
17.2368
16.9629
16.7204
16.5136
16.3328
16.1748
16.0534
15.9748
15.9347
15.9301
15.9689
16.0546
16.1954
16.3884
16.6357
16.9478
17.3273
17.7773
18.2998
18.9038
19.6001
20.3918
21.2793
22.2692
23.373
24.6019
25.9631
27.458
29.095
30.8879
32.8484
34.9851
37.3048
39.8193
42.5454
45.4937
48.6742
52.1032
55.7967
59.7709
64.0392
68.6207
73.541
78.8133
84.4614
90.5138
96.9934
103.934
111.358
119.31
127.826
136.944
146.723
157.201
168.45
180.529
193.514
207.491
222.539
238.764
256.267
275.143
295.472
317.302
340.595
365.086
26.058
25.4382
24.8328
24.2641
23.6979
23.1445
22.6243
22.1106
21.6034
21.1247
20.664
20.2089
19.7692
19.3572
18.9636
18.58
18.2164
17.8814
17.5722
17.2776
17.0047
16.7633
16.557
16.3764
16.2199
16.0995
16.0218
15.9826
15.9795
16.0193
16.1064
16.2483
16.4427
16.6914
17.005
17.3861
17.8377
18.362
18.9679
19.6661
20.4596
21.3493
22.3414
23.4476
24.6789
26.0424
27.5399
29.1796
30.9754
32.9389
35.0786
37.4016
39.9196
42.6492
45.6012
48.7856
52.2187
55.9164
59.8952
64.1681
68.7546
73.6799
78.9576
84.6114
90.6696
97.1553
104.102
111.533
119.493
128.015
137.141
146.928
157.415
168.673
180.76
193.754
207.74
222.797
239.029
256.537
275.415
295.742
317.562
340.832
365.282
26.0961
25.4765
24.8714
24.3031
23.7373
23.1841
22.6644
22.151
21.644
21.1657
20.7057
20.2512
19.812
19.4009
19.0073
18.6237
18.261
17.9269
17.6174
17.3236
17.0519
16.8112
16.6055
16.426
16.2707
16.1512
16.0745
16.0364
16.0345
16.0756
16.164
16.3074
16.5032
16.7536
17.0688
17.4516
17.905
18.4313
19.0393
19.7396
20.5353
21.4272
22.4219
23.5307
24.7647
26.1309
27.6313
29.2742
31.0733
33.0402
35.1834
37.5101
40.0321
42.7657
45.722
48.9109
52.3486
56.0512
60.0349
64.3132
68.9053
73.8363
79.1199
84.78
90.8448
97.3374
104.291
111.73
119.697
128.228
137.363
147.159
157.655
168.922
181.019
194.023
208.017
223.083
239.322
256.836
275.715
296.037
317.844
341.086
365.484
26.1402
25.5209
24.9162
24.3482
23.7826
23.2297
22.7105
22.1978
21.6912
21.2137
20.7538
20.2989
19.8604
19.4499
19.0558
18.6731
18.3113
17.9775
17.6686
17.3759
17.1049
16.865
16.66
16.4814
16.3272
16.2089
16.1331
16.0962
16.0956
16.1382
16.2281
16.3729
16.5704
16.8226
17.1397
17.5244
17.9799
18.5084
19.1187
19.8214
20.6195
21.5141
22.5117
23.6235
24.8605
26.2299
27.7337
29.3803
31.1832
33.1539
35.3012
37.6321
40.1586
42.8969
45.8579
49.0519
52.4949
56.203
60.1923
64.4765
69.0748
74.0122
79.3025
84.9697
91.0418
97.5421
104.504
111.951
119.927
128.467
137.611
147.417
157.923
169.2
181.308
194.322
208.326
223.4
239.647
257.165
276.044
296.359
318.148
341.353
365.689
26.1912
25.5721
24.9676
24.4003
23.8353
23.2829
22.7644
22.2508
21.7445
21.2677
20.807
20.3523
19.915
19.5045
19.1108
18.7291
18.3678
18.0343
17.7259
17.4339
17.1638
16.9247
16.7205
16.5428
16.3898
16.2728
16.1981
16.1625
16.1634
16.2075
16.2992
16.4457
16.645
16.8992
17.2184
17.6053
18.0631
18.5941
19.2072
19.9126
20.7135
21.6111
22.612
23.7274
24.968
26.341
27.8487
29.4995
31.3067
33.2819
35.4338
37.7696
40.3011
43.0447
46.0111
49.2107
52.6596
56.3738
60.3695
64.6603
69.2657
74.2101
79.5079
85.1831
91.2632
97.7721
104.742
112.199
120.185
128.735
137.889
147.705
158.223
169.511
181.63
194.655
208.669
223.752
240.006
257.527
276.404
296.708
318.472
341.632
365.892
26.2499
25.6315
25.0278
24.4606
23.8945
23.3429
22.8242
22.3095
21.8046
21.3278
20.8671
20.4133
19.9762
19.5657
19.1723
18.7911
18.4303
18.0972
17.7892
17.4982
17.229
16.9908
16.7874
16.6107
16.4591
16.3434
16.27
16.2358
16.2384
16.2843
16.3779
16.5263
16.7277
16.9843
17.3058
17.6953
18.1557
18.6898
19.306
20.0146
20.8188
21.72
22.7248
23.8442
25.0889
26.4661
27.9782
29.6338
31.4459
33.4261
35.5832
37.9244
40.4618
43.2112
46.1836
49.3897
52.8452
56.5663
60.569
64.8673
69.4804
74.4328
79.7389
85.4228
91.512
98.0304
105.01
112.477
120.474
129.034
138.2
148.028
158.557
169.858
181.988
195.024
209.049
224.141
240.401
257.923
276.795
297.083
318.815
341.918
366.083
26.3178
25.6984
25.0952
24.527
23.9604
23.4103
22.8909
22.3768
21.8724
21.395
20.9342
20.4806
20.0439
19.6332
19.2401
18.8596
18.4993
18.1667
17.8591
17.5689
17.3008
17.0637
16.8611
16.6855
16.5355
16.4214
16.3495
16.3168
16.3214
16.3693
16.4653
16.6159
16.8197
17.0791
17.4035
17.7959
18.2596
18.7971
19.417
20.1293
20.9373
21.8426
22.8518
23.9758
25.2252
26.6071
28.1242
29.7852
31.6029
33.5887
35.7516
38.099
40.6428
43.3988
46.378
49.5912
53.0541
56.7829
60.7935
65.1
69.7219
74.6831
79.9985
85.6921
91.7913
98.3202
105.311
112.789
120.797
129.37
138.548
148.388
158.93
170.243
182.386
195.434
209.468
224.569
240.833
258.354
277.217
297.482
319.172
342.204
366.253
26.3924
25.7725
25.1708
24.6019
24.0361
23.4859
22.9654
22.4511
21.947
21.4691
21.008
20.5548
20.1184
19.7076
19.3146
18.9348
18.5752
18.243
17.936
17.6469
17.3799
17.144
16.9424
16.7682
16.6199
16.5077
16.4375
16.4068
16.4137
16.4642
16.5628
16.7161
16.9228
17.1855
17.5132
17.9091
18.3764
18.9179
19.5421
20.2586
21.0708
21.9808
22.995
24.1242
25.3789
26.7661
28.2889
29.9558
31.7798
33.772
35.9414
38.2956
40.8466
43.61
46.5968
49.818
53.2892
57.0265
61.046
65.3617
69.9933
74.9642
80.29
85.9944
92.1046
98.645
105.647
113.138
121.159
129.744
138.936
148.789
159.345
170.671
182.827
195.886
209.931
225.038
241.304
258.821
277.668
297.903
319.539
342.48
366.388
25.8576
25.2554
24.685
24.119
23.5688
23.0473
22.5329
22.0291
21.5505
21.089
20.6362
20.2001
19.7893
19.3965
19.0174
18.6585
18.327
18.0206
17.7326
17.4672
17.2327
17.0325
16.8599
16.7139
16.604
16.5359
16.5076
16.5172
16.5706
16.6724
16.8288
17.0389
17.3053
17.6369
18.0367
18.5082
19.0542
19.6831
20.4044
21.2215
22.1367
23.1565
24.2915
25.5521
26.9453
28.4744
30.1482
31.9791
33.9784
36.1551
38.5171
41.0762
43.8479
46.8431
50.0732
53.5537
57.3005
61.3298
65.6558
70.2981
75.2799
80.617
86.3333
92.4556
99.0087
106.024
113.528
121.563
130.162
139.369
149.236
159.806
171.145
183.314
196.385
210.437
225.55
241.815
259.322
278.147
298.341
319.907
342.735
366.47
25.9505
25.348
24.7764
24.2103
23.66
23.1371
22.6224
22.1188
21.6397
21.1778
20.7253
20.2897
19.8789
19.4865
19.1082
18.7504
18.4198
18.1145
17.828
17.5644
17.3318
17.1332
16.9627
16.8192
16.712
16.6465
16.6209
16.6337
16.6905
16.7959
16.9559
17.1698
17.4405
17.7763
18.1807
18.6568
19.2079
19.8422
20.5688
21.3914
22.3125
23.3386
24.4802
25.7474
27.1473
28.6836
30.3649
32.2037
34.211
36.3959
38.7664
41.3346
44.1154
47.1202
50.3602
53.8509
57.6084
61.6485
65.9859
70.6401
75.6339
80.9835
86.7129
92.8486
99.4155
106.445
113.964
122.013
130.627
139.849
149.731
160.316
171.669
183.85
196.931
210.991
226.105
242.365
259.856
278.649
298.788
320.264
342.952
366.474
26.0527
25.4498
24.8764
24.31
23.7595
23.2354
22.7205
22.2173
21.7377
21.2756
20.8236
20.3887
19.9782
19.5864
19.2094
18.853
18.5236
18.2195
17.9348
17.6735
17.4431
17.2465
17.0783
16.9379
16.8338
16.7713
16.7487
16.7651
16.8258
16.9352
17.0993
17.3175
17.593
17.9337
18.343
18.8245
19.3813
20.0216
20.7542
21.583
22.5107
23.5439
24.6928
25.9674
27.3749
28.9192
30.609
32.4565
34.4727
36.6668
39.0469
41.6252
44.4163
47.4316
50.6826
54.1848
57.954
62.0062
66.3562
71.0234
76.0305
81.3939
87.1376
93.2878
99.8697
106.914
114.449
122.514
131.144
140.382
150.279
160.879
172.245
184.438
197.528
211.591
226.704
242.953
260.418
279.167
299.233
320.595
343.109
366.373
26.1646
25.5613
24.9864
24.4198
23.8693
23.3441
22.829
22.3263
21.8465
21.3843
20.9331
20.4992
20.0893
19.6983
19.3228
18.9681
18.6403
18.3376
18.0552
17.7964
17.5686
17.3743
17.2088
17.0718
16.9712
16.912
16.893
16.9135
16.9784
17.0925
17.261
17.4842
17.765
18.1111
18.5261
19.0136
19.5768
20.2238
20.9632
21.7989
22.734
23.7751
24.9322
26.2152
27.6312
29.1844
30.8837
32.7409
34.7672
36.9715
39.3623
41.9518
44.7543
47.7813
51.0446
54.5594
58.3416
62.4072
66.771
71.4527
76.4742
81.8527
87.6119
93.7779
100.376
107.437
114.988
123.07
131.717
140.971
150.883
161.498
172.877
185.079
198.175
212.239
227.344
243.573
261.002
279.691
299.662
320.88
343.179
366.129
26.2886
25.6849
25.1084
24.5417
23.9913
23.4651
22.9501
22.448
21.9682
21.5061
21.056
20.6233
20.2142
19.8243
19.4505
19.0979
18.7718
18.4709
18.1909
17.935
17.7101
17.5185
17.3561
17.2228
17.1262
17.0707
17.0558
17.0808
17.1506
17.2698
17.4435
17.6721
17.9589
18.3112
18.7326
19.2267
19.7971
20.4516
21.1986
22.0421
22.9856
24.0356
25.2018
26.4941
27.9196
29.4828
31.1927
33.0608
35.0981
37.3139
39.7167
42.3185
45.1337
48.1738
51.4506
54.9794
58.7759
62.8561
67.2352
71.9326
76.9699
82.3648
88.1409
94.3239
100.939
108.017
115.587
123.685
132.349
141.62
151.547
162.176
173.566
185.776
198.874
212.932
228.021
244.22
261.598
280.207
300.056
321.092
343.127
365.697
26.4269
25.8227
25.2449
24.6781
24.1278
23.6008
23.086
22.5847
22.1051
21.6433