/*--------------------------------*- C++ -*----------------------------------*\
| =========                 |                                                 |
| \\      /  F ield         | OpenFOAM: The Open Source CFD Toolbox           |
|  \\    /   O peration     | Version:  2412                                  |
|   \\  /    A nd           | Website:  www.openfoam.com                      |
|    \\/     M anipulation  |                                                 |
\*---------------------------------------------------------------------------*/
FoamFile
{
    version     2.0;
    format      ascii;
    arch        "LSB;label=32;scalar=64";
    class       surfaceScalarField;
    location    "260";
    object      phi;
}
// * * * * * * * * * * * * * * * * * * * * * * * * * * * * * * * * * * * * * //

dimensions      [0 3 -1 0 0 0 0];

oriented        oriented;

internalField   nonuniform List<scalar> 
14564
(
-3.14389e-06
4.00172e-10
-3.14435e-06
5.47496e-10
-3.14474e-06
2.83818e-10
-3.14484e-06
1.37086e-10
-3.14473e-06
-1.78487e-10
-3.14443e-06
-3.06276e-10
-3.14392e-06
-5.1239e-10
-3.14313e-06
-8.03723e-10
-3.1422e-06
-9.32782e-10
-3.14109e-06
-1.12287e-09
-3.13964e-06
-1.45341e-09
-3.1379e-06
-1.75368e-09
-3.13579e-06
-2.1141e-09
-3.13345e-06
-2.35215e-09
-3.13074e-06
-2.71376e-09
-3.1276e-06
-3.14824e-09
-3.12402e-06
-3.59515e-09
-3.11994e-06
-4.08448e-09
-3.11543e-06
-4.52141e-09
-3.11044e-06
-4.99918e-09
-3.1047e-06
-5.74489e-09
-3.09825e-06
-6.45909e-09
-3.09115e-06
-7.11032e-09
-3.08335e-06
-7.81073e-09
-3.07467e-06
-8.69121e-09
-3.065e-06
-9.68288e-09
-3.0543e-06
-1.0713e-08
-3.04256e-06
-1.17422e-08
-3.02957e-06
-1.30032e-08
-3.01529e-06
-1.42907e-08
-2.9997e-06
-1.56062e-08
-2.98242e-06
-1.72945e-08
-2.96345e-06
-1.89797e-08
-2.94281e-06
-2.06591e-08
-2.92019e-06
-2.26273e-08
-2.89538e-06
-2.48233e-08
-2.8683e-06
-2.70987e-08
-2.83876e-06
-2.95532e-08
-2.80644e-06
-3.23391e-08
-2.77116e-06
-3.52939e-08
-2.7325e-06
-3.86768e-08
-2.69031e-06
-4.22063e-08
-2.64408e-06
-4.62362e-08
-2.59352e-06
-5.05801e-08
-2.53799e-06
-5.55393e-08
-2.47702e-06
-6.09885e-08
-2.41029e-06
-6.67428e-08
-2.33746e-06
-7.28302e-08
-2.2588e-06
-7.86688e-08
-2.17532e-06
-8.34861e-08
-2.08863e-06
-8.67006e-08
-2.00155e-06
-8.7093e-08
-1.91702e-06
-8.45315e-08
-1.83644e-06
-8.05897e-08
-1.75866e-06
-7.77877e-08
-1.67797e-06
-8.07019e-08
-1.58314e-06
-9.48342e-08
-1.45615e-06
-1.26998e-07
-1.26904e-06
-1.87109e-07
-9.77344e-07
-2.91696e-07
-5.05576e-07
-4.71767e-07
2.37574e-07
-7.43142e-07
1.4173e-06
-1.17972e-06
3.39947e-06
-1.98214e-06
6.55512e-06
-3.15563e-06
1.13958e-05
-4.84067e-06
1.7382e-05
-5.98614e-06
-4.72621e-06
-1.11433e-05
2.04526e-09
-1.11449e-05
2.33523e-09
-1.11455e-05
7.12959e-10
-1.11457e-05
3.86888e-10
-1.11457e-05
-3.06201e-10
-1.11443e-05
-1.66717e-09
-1.1142e-05
-2.83099e-09
-1.11395e-05
-3.33318e-09
-1.11359e-05
-4.54489e-09
-1.11314e-05
-5.65495e-09
-1.1126e-05
-6.88807e-09
-1.11199e-05
-7.8596e-09
-1.11125e-05
-9.48391e-09
-1.11035e-05
-1.13846e-08
-1.10934e-05
-1.28514e-08
-1.10821e-05
-1.44558e-08
-1.10691e-05
-1.65917e-08
-1.10543e-05
-1.88625e-08
-1.10378e-05
-2.10601e-08
-1.10195e-05
-2.33012e-08
-1.0999e-05
-2.63037e-08
-1.09757e-05
-2.97275e-08
-1.09501e-05
-3.2746e-08
-1.09218e-05
-3.61582e-08
-1.08906e-05
-3.99262e-08
-1.08555e-05
-4.47287e-08
-1.08171e-05
-4.91577e-08
-1.07747e-05
-5.41431e-08
-1.07277e-05
-6.00341e-08
-1.06763e-05
-6.57627e-08
-1.062e-05
-7.18928e-08
-1.05581e-05
-7.91781e-08
-1.04901e-05
-8.70737e-08
-1.04157e-05
-9.50982e-08
-1.03345e-05
-1.03846e-07
-1.02455e-05
-1.13783e-07
-1.01484e-05
-1.24264e-07
-1.00422e-05
-1.35767e-07
-9.9261e-06
-1.48464e-07
-9.79943e-06
-1.61998e-07
-9.66095e-06
-1.77177e-07
-9.5095e-06
-1.93681e-07
-9.34367e-06
-2.12085e-07
-9.16184e-06
-2.32434e-07
-8.9626e-06
-2.54807e-07
-8.7439e-06
-2.79705e-07
-8.50453e-06
-3.06135e-07
-8.24323e-06
-3.34139e-07
-7.96109e-06
-3.60823e-07
-7.66168e-06
-3.82919e-07
-7.35042e-06
-3.97969e-07
-7.03731e-06
-4.00215e-07
-6.73284e-06
-3.8901e-07
-6.44225e-06
-3.71194e-07
-6.16113e-06
-3.58928e-07
-5.86979e-06
-3.72053e-07
-5.52925e-06
-4.35384e-07
-5.0768e-06
-5.79462e-07
-4.4153e-06
-8.48615e-07
-3.39246e-06
-1.31454e-06
-1.75024e-06
-2.11398e-06
8.16469e-07
-3.30984e-06
4.86293e-06
-5.22617e-06
1.16032e-05
-8.72235e-06
2.22438e-05
-1.37962e-05
3.8463e-05
-2.10598e-05
5.84291e-05
-2.59523e-05
-2.10267e-05
-2.23197e-05
4.62579e-09
-2.23226e-05
5.31327e-09
-2.23242e-05
2.18737e-09
-2.23244e-05
6.62975e-10
-2.23227e-05
-2.12464e-09
-2.23206e-05
-3.78612e-09
-2.23165e-05
-6.92391e-09
-2.23103e-05
-9.59353e-09
-2.23025e-05
-1.23057e-08
-2.22933e-05
-1.49342e-08
-2.22829e-05
-1.72819e-08
-2.22689e-05
-2.19131e-08
-2.22535e-05
-2.48231e-08
-2.22354e-05
-2.95812e-08
-2.22148e-05
-3.33894e-08
-2.21917e-05
-3.75649e-08
-2.21649e-05
-4.34183e-08
-2.21349e-05
-4.89059e-08
-2.21012e-05
-5.47537e-08
-2.20635e-05
-6.10021e-08
-2.20214e-05
-6.8455e-08
-2.19743e-05
-7.68041e-08
-2.19218e-05
-8.53486e-08
-2.18641e-05
-9.38057e-08
-2.17998e-05
-1.04234e-07
-2.17291e-05
-1.15449e-07
-2.16508e-05
-1.2752e-07
-2.15644e-05
-1.40553e-07
-2.14694e-05
-1.55052e-07
-2.13653e-05
-1.69913e-07
-2.12506e-05
-1.86562e-07
-2.11248e-05
-2.04986e-07
-2.0987e-05
-2.24964e-07
-2.08365e-05
-2.45597e-07
-2.06711e-05
-2.69228e-07
-2.04909e-05
-2.94003e-07
-2.02936e-05
-3.21603e-07
-2.00789e-05
-3.50521e-07
-1.98439e-05
-3.83503e-07
-1.95873e-05
-4.18643e-07
-1.93069e-05
-4.57581e-07
-1.9e-05
-5.00556e-07
-1.86639e-05
-5.48297e-07
-1.82961e-05
-6.0021e-07
-1.78919e-05
-6.59043e-07
-1.7449e-05
-7.22617e-07
-1.69637e-05
-7.91503e-07
-1.64344e-05
-8.6345e-07
-1.58636e-05
-9.31636e-07
-1.52565e-05
-9.90012e-07
-1.46253e-05
-1.02917e-06
-1.39903e-05
-1.03518e-06
-1.33714e-05
-1.00801e-06
-1.27797e-05
-9.62866e-07
-1.2207e-05
-9.31624e-07
-1.16138e-05
-9.65321e-07
-1.09233e-05
-1.12591e-06
-1.00121e-05
-1.49067e-06
-8.69085e-06
-2.16982e-06
-6.66246e-06
-3.34294e-06
-3.42991e-06
-5.34652e-06
1.58616e-06
-8.3259e-06
9.4371e-06
-1.30771e-05
2.24041e-05
-2.16893e-05
4.27082e-05
-3.41002e-05
7.34105e-05
-5.17621e-05
0.000111126
-6.36675e-05
-5.26387e-05
-3.76566e-05
9.304e-09
-3.7661e-05
9.82177e-09
-3.7663e-05
4.03844e-09
-3.76632e-05
8.50152e-10
-3.76611e-05
-4.309e-09
-3.76556e-05
-9.28044e-09
-3.76476e-05
-1.49573e-08
-3.76378e-05
-1.93761e-08
-3.76246e-05
-2.55809e-08
-3.76082e-05
-3.12865e-08
-3.75884e-05
-3.71202e-08
-3.7566e-05
-4.43082e-08
-3.75385e-05
-5.23907e-08
-3.75075e-05
-6.05553e-08
-3.74714e-05
-6.94917e-08
-3.74313e-05
-7.77404e-08
-3.73854e-05
-8.93014e-08
-3.73336e-05
-1.00771e-07
-3.72758e-05
-1.12558e-07
-3.7211e-05
-1.25808e-07
-3.71385e-05
-1.40965e-07
-3.70577e-05
-1.57618e-07
-3.69681e-05
-1.74994e-07
-3.68693e-05
-1.92618e-07
-3.67593e-05
-2.1427e-07
-3.66373e-05
-2.37471e-07
-3.65039e-05
-2.60879e-07
-3.63566e-05
-2.87878e-07
-3.61944e-05
-3.17287e-07
-3.6016e-05
-3.48386e-07
-3.58201e-05
-3.82481e-07
-3.56053e-05
-4.19757e-07
-3.53703e-05
-4.60057e-07
-3.51125e-05
-5.03399e-07
-3.48319e-05
-5.49874e-07
-3.45233e-05
-6.02589e-07
-3.41878e-05
-6.57129e-07
-3.38203e-05
-7.18122e-07
-3.34197e-05
-7.84085e-07
-3.29816e-05
-8.56796e-07
-3.25029e-05
-9.36361e-07
-3.19795e-05
-1.02396e-06
-3.14071e-05
-1.12075e-06
-3.07784e-05
-1.22893e-06
-3.00898e-05
-1.34762e-06
-2.93341e-05
-1.4784e-06
-2.85059e-05
-1.61964e-06
-2.76026e-05
-1.76681e-06
-2.66268e-05
-1.90749e-06
-2.55898e-05
-2.02701e-06
-2.45114e-05
-2.10753e-06
-2.34243e-05
-2.1223e-06
-2.23639e-05
-2.06847e-06
-2.13479e-05
-1.97882e-06
-2.03626e-05
-1.91696e-06
-1.9344e-05
-1.98398e-06
-1.81634e-05
-2.30656e-06
-1.6617e-05
-3.03708e-06
-1.4393e-05
-4.3938e-06
-1.10063e-05
-6.72959e-06
-5.65311e-06
-1.06997e-05
2.58795e-06
-1.65669e-05
1.5377e-05
-2.58661e-05
3.62915e-05
-4.26037e-05
6.8726e-05
-6.65347e-05
0.000117206
-0.000100243
0.000176522
-0.000122983
-0.000103378
-5.83629e-05
1.62549e-08
-5.837e-05
1.71282e-08
-5.83721e-05
5.8993e-09
-5.83705e-05
-7.20421e-10
-5.83663e-05
-8.56748e-09
-5.8359e-05
-1.66296e-08
-5.83463e-05
-2.76377e-08
-5.83282e-05
-3.75322e-08
-5.83067e-05
-4.70107e-08
-5.8282e-05
-5.60397e-08
-5.82505e-05
-6.86683e-08
-5.82127e-05
-8.20705e-08
-5.81693e-05
-9.57945e-08
-5.81202e-05
-1.09749e-07
-5.80655e-05
-1.24161e-07
-5.80007e-05
-1.42593e-07
-5.79283e-05
-1.61696e-07
-5.78469e-05
-1.82153e-07
-5.77549e-05
-2.04615e-07
-5.76538e-05
-2.26902e-07
-5.754e-05
-2.54854e-07
-5.74125e-05
-2.85093e-07
-5.72721e-05
-3.15396e-07
-5.71165e-05
-3.48264e-07
-5.69447e-05
-3.86069e-07
-5.6755e-05
-4.27172e-07
-5.65451e-05
-4.70792e-07
-5.63143e-05
-5.18752e-07
-5.606e-05
-5.71567e-07
-5.57807e-05
-6.27731e-07
-5.54749e-05
-6.88346e-07
-5.51383e-05
-7.56382e-07
-5.47711e-05
-8.27258e-07
-5.43682e-05
-9.06339e-07
-5.39271e-05
-9.91006e-07
-5.34464e-05
-1.08335e-06
-5.29206e-05
-1.1829e-06
-5.2347e-05
-1.29179e-06
-5.17199e-05
-1.41117e-06
-5.10344e-05
-1.54236e-06
-5.02858e-05
-1.68501e-06
-4.94664e-05
-1.84333e-06
-4.85688e-05
-2.01836e-06
-4.75848e-05
-2.21302e-06
-4.65054e-05
-2.42699e-06
-4.53199e-05
-2.664e-06
-4.40212e-05
-2.9183e-06
-4.26046e-05
-3.18345e-06
-4.10741e-05
-3.43805e-06
-3.94462e-05
-3.65492e-06
-3.77506e-05
-3.80311e-06
-3.604e-05
-3.83288e-06
-3.4367e-05
-3.7415e-06
-3.27614e-05
-3.58445e-06
-3.12027e-05
-3.4757e-06
-2.95917e-05
-3.59497e-06
-2.77339e-05
-4.16439e-06
-2.53188e-05
-5.45216e-06
-2.1877e-05
-7.8356e-06
-1.66821e-05
-1.19245e-05
-8.54507e-06
-1.88368e-05
3.86925e-06
-2.89813e-05
2.29436e-05
-4.49405e-05
5.3773e-05
-7.3433e-05
0.000101016
-0.000113777
0.000170528
-0.000169755
0.000254859
-0.000207314
-0.000176123
-8.58189e-05
2.37308e-08
-8.58271e-05
2.53567e-08
-8.58306e-05
9.27693e-09
-8.58289e-05
-2.37784e-09
-8.58222e-05
-1.53307e-08
-8.58077e-05
-3.11669e-08
-8.57888e-05
-4.65462e-08
-8.57632e-05
-6.32015e-08
-8.57309e-05
-7.93355e-08
-8.5691e-05
-9.59461e-08
-8.56449e-05
-1.14804e-07
-8.55898e-05
-1.3714e-07
-8.55255e-05
-1.6012e-07
-8.54512e-05
-1.84037e-07
-8.53673e-05
-2.08097e-07
-8.52729e-05
-2.3708e-07
-8.51648e-05
-2.69734e-07
-8.50428e-05
-3.042e-07
-8.49082e-05
-3.3929e-07
-8.47571e-05
-3.7802e-07
-8.45886e-05
-4.23351e-07
-8.44007e-05
-4.72964e-07
-8.4193e-05
-5.23125e-07
-8.39633e-05
-5.78037e-07
-8.37083e-05
-6.41066e-07
-8.34273e-05
-7.0826e-07
-8.31176e-05
-7.80476e-07
-8.27762e-05
-8.60219e-07
-8.24009e-05
-9.46862e-07
-8.19895e-05
-1.03919e-06
-8.15364e-05
-1.14141e-06
-8.10413e-05
-1.25151e-06
-8.04967e-05
-1.37195e-06
-7.99026e-05
-1.50043e-06
-7.92528e-05
-1.64086e-06
-7.85427e-05
-1.79349e-06
-7.77651e-05
-1.96053e-06
-7.69171e-05
-2.13986e-06
-7.59902e-05
-2.3381e-06
-7.49771e-05
-2.55542e-06
-7.38684e-05
-2.79379e-06
-7.2656e-05
-3.05575e-06
-7.13256e-05
-3.34879e-06
-6.98678e-05
-3.67085e-06
-6.82661e-05
-4.02877e-06
-6.65077e-05
-4.42243e-06
-6.45784e-05
-4.84757e-06
-6.24722e-05
-5.28973e-06
-6.01946e-05
-5.71567e-06
-5.77671e-05
-6.08241e-06
-5.5239e-05
-6.33124e-06
-5.26817e-05
-6.39023e-06
-5.01752e-05
-6.24792e-06
-4.77631e-05
-5.9966e-06
-4.54174e-05
-5.82145e-06
-4.29942e-05
-6.01815e-06
-4.02127e-05
-6.94593e-06
-3.66257e-05
-9.0392e-06
-3.15612e-05
-1.29001e-05
-2.39889e-05
-1.94969e-05
-1.22489e-05
-3.05767e-05
5.48095e-06
-4.67111e-05
3.24095e-05
-7.1869e-05
7.53344e-05
-0.000116358
0.000140166
-0.000178609
0.000233719
-0.000263307
0.00034587
-0.000319466
-0.000272489
-0.00012137
3.45827e-08
-0.000121383
3.77209e-08
-0.000121385
1.09835e-08
-0.000121381
-6.23046e-09
-0.000121369
-2.7307e-08
-0.000121351
-4.93195e-08
-0.000121322
-7.50476e-08
-0.000121283
-1.02374e-07
-0.000121237
-1.25299e-07
-0.000121181
-1.52232e-07
-0.000121115
-1.8101e-07
-0.000121036
-2.15636e-07
-0.000120944
-2.5229e-07
-0.000120839
-2.88973e-07
-0.000120721
-3.26227e-07
-0.000120588
-3.6986e-07
-0.000120436
-4.2212e-07
-0.000120264
-4.76006e-07
-0.000120073
-5.29787e-07
-0.000119862
-5.89969e-07
-0.000119624
-6.61195e-07
-0.000119359
-7.37634e-07
-0.000119067
-8.15076e-07
-0.000118743
-9.02048e-07
-0.000118387
-9.9732e-07
-0.000117991
-1.10445e-06
-0.000117556
-1.21569e-06
-0.000117076
-1.3394e-06
-0.00011655
-1.47328e-06
-0.00011597
-1.61896e-06
-0.000115335
-1.77626e-06
-0.000114637
-1.94979e-06
-0.000113874
-2.13534e-06
-0.000113039
-2.33565e-06
-0.000112124
-2.55599e-06
-0.000111125
-2.79244e-06
-0.000110031
-3.05428e-06
-0.000108836
-3.33529e-06
-0.000107529
-3.64439e-06
-0.0001061
-3.98473e-06
-0.000104535
-4.35905e-06
-0.000102819
-4.77105e-06
-0.000100939
-5.22945e-06
-9.88719e-05
-5.73784e-06
-9.66e-05
-6.3007e-06
-9.4101e-05
-6.92143e-06
-9.1355e-05
-7.59364e-06
-8.83521e-05
-8.29263e-06
-8.51001e-05
-8.96766e-06
-8.16306e-05
-9.55197e-06
-7.80037e-05
-9.95817e-06
-7.43264e-05
-1.00675e-05
-7.07097e-05
-9.86463e-06
-6.72174e-05
-9.48887e-06
-6.38114e-05
-9.22745e-06
-6.0295e-05
-9.5346e-06
-5.62722e-05
-1.09687e-05
-5.11241e-05
-1.41873e-05
-4.39237e-05
-2.01005e-05
-3.32641e-05
-3.01564e-05
-1.69225e-05
-4.69184e-05
7.47518e-06
-7.11087e-05
4.40429e-05
-0.000108437
0.000101398
-0.000173713
0.000186592
-0.000263803
0.00030685
-0.000383565
0.000449246
-0.000461861
-0.000393814
-0.000165902
4.70779e-08
-0.000165916
5.15167e-08
-0.00016592
1.45442e-08
-0.000165913
-1.32128e-08
-0.000165896
-4.42146e-08
-0.000165866
-7.89429e-08
-0.000165827
-1.14017e-07
-0.000165776
-1.5361e-07
-0.000165713
-1.88323e-07
-0.000165638
-2.27274e-07
-0.000165547
-2.71627e-07
-0.000165441
-3.22278e-07
-0.000165318
-3.75522e-07
-0.000165179
-4.27409e-07
-0.000165019
-4.8606e-07
-0.000164838
-5.51072e-07
-0.000164636
-6.24065e-07
-0.000164407
-7.0548e-07
-0.000164152
-7.84128e-07
-0.000163868
-8.74964e-07
-0.000163551
-9.77286e-07
-0.000163198
-1.09065e-06
-0.00016281
-1.20368e-06
-0.000162379
-1.3331e-06
-0.000161901
-1.47568e-06
-0.000161375
-1.62997e-06
-0.000160792
-1.79827e-06
-0.000160155
-1.97734e-06
-0.000159453
-2.17529e-06
-0.00015868
-2.39197e-06
-0.000157833
-2.62333e-06
-0.000156903
-2.87955e-06
-0.000155884
-3.15399e-06
-0.000154766
-3.4539e-06
-0.000153546
-3.77637e-06
-0.000152205
-4.13269e-06
-0.000150743
-4.51704e-06
-0.000149141
-4.93729e-06
-0.000147387
-5.39784e-06
-0.000145465
-5.90688e-06
-0.00014336
-6.46408e-06
-0.000141048
-7.0831e-06
-0.000138506
-7.77141e-06
-0.00013571
-8.53386e-06
-0.000132627
-9.38355e-06
-0.000129229
-1.03199e-05
-0.000125486
-1.1337e-05
-0.000121379
-1.23992e-05
-0.000116918
-1.34288e-05
-0.000112138
-1.43316e-05
-0.000107127
-1.49697e-05
-0.000102023
-1.51715e-05
-9.69772e-05
-1.49103e-05
-9.20816e-05
-1.43845e-05
-8.72885e-05
-1.40206e-05
-8.23299e-05
-1.44932e-05
-7.66717e-05
-1.6627e-05
-6.94751e-05
-2.13839e-05
-5.94979e-05
-3.00777e-05
-4.48764e-05
-4.47779e-05
-2.27338e-05
-6.9061e-05
9.90196e-06
-0.000103744
5.8084e-05
-0.000156619
0.000132282
-0.000247911
0.000240514
-0.000372035
0.00038987
-0.00053292
0.000564933
-0.000636925
-0.000542258
-0.000219379
6.22241e-08
-0.000219392
6.5431e-08
-0.000219394
1.60197e-08
-0.000219386
-2.11893e-08
-0.000219362
-6.86069e-08
-0.000219327
-1.13826e-07
-0.000219276
-1.64911e-07
-0.00021921
-2.19699e-07
-0.000219128
-2.70249e-07
-0.000219032
-3.22747e-07
-0.000218918
-3.86265e-07
-0.000218783
-4.56724e-07
-0.000218626
-5.33081e-07
-0.000218448
-6.0531e-07
-0.00021825
-6.84317e-07
-0.000218022
-7.78796e-07
-0.000217763
-8.8339e-07
-0.000217474
-9.94206e-07
-0.000217152
-1.10626e-06
-0.000216796
-1.23052e-06
-0.000216396
-1.37803e-06
-0.000215952
-1.53399e-06
-0.000215457
-1.69896e-06
-0.000214916
-1.87405e-06
-0.000214316
-2.07575e-06
-0.000213652
-2.29366e-06
-0.000212923
-2.52762e-06
-0.000212118
-2.78246e-06
-0.000211231
-3.062e-06
-0.00021026
-3.36323e-06
-0.000209191
-3.69192e-06
-0.000208018
-4.05248e-06
-0.000206732
-4.44059e-06
-0.000205324
-4.86156e-06
-0.000203778
-5.32246e-06
-0.000202087
-5.82398e-06
-0.000200233
-6.37139e-06
-0.000198202
-6.96834e-06
-0.000195973
-7.62611e-06
-0.00019353
-8.34983e-06
-0.000190843
-9.15112e-06
-0.00018789
-1.00366e-05
-0.000184633
-1.10284e-05
-0.000181038
-1.21293e-05
-0.000177061
-1.336e-05
-0.000172661
-1.47205e-05
-0.000167794
-1.62041e-05
-0.00016243
-1.77626e-05
-0.000156572
-1.92869e-05
-0.000150265
-2.06384e-05
-0.000143609
-2.16257e-05
-0.000136785
-2.1996e-05
-0.00012999
-2.17053e-05
-0.000123349
-2.10252e-05
-0.000116803
-2.05667e-05
-0.000110001
-2.12954e-05
-0.000102235
-2.43928e-05
-9.23973e-05
-3.12219e-05
-7.88575e-05
-4.36176e-05
-5.92114e-05
-6.4424e-05
-2.98514e-05
-9.8421e-05
1.28053e-05
-0.000146401
7.47264e-05
-0.00021854
0.000168164
-0.000341349
0.000301961
-0.000505831
0.00048259
-0.00071355
0.000693045
-0.00084738
-0.00072132
-0.000280932
8.07702e-08
-0.000280949
8.32345e-08
-0.000280949
1.5275e-08
-0.000280938
-3.17254e-08
-0.000280911
-9.54027e-08
-0.000280867
-1.58408e-07
-0.000280805
-2.26807e-07
-0.000280726
-2.99073e-07
-0.000280627
-3.68448e-07
-0.00028051
-4.39901e-07
-0.000280373
-5.24042e-07
-0.00028021
-6.1938e-07
-0.000280022
-7.21386e-07
-0.000279808
-8.18665e-07
-0.000279566
-9.26357e-07
-0.000279294
-1.0508e-06
-0.000278986
-1.19153e-06
-0.000278643
-1.33734e-06
-0.000278258
-1.4911e-06
-0.000277829
-1.65994e-06
-0.000277353
-1.85377e-06
-0.000276821
-2.06631e-06
-0.000276237
-2.28306e-06
-0.000275587
-2.52333e-06
-0.00027487
-2.7936e-06
-0.000274081
-3.08207e-06
-0.00027321
-3.39935e-06
-0.000272249
-3.74348e-06
-0.000271194
-4.11661e-06
-0.000270036
-4.52159e-06
-0.000268759
-4.96856e-06
-0.000267362
-5.44925e-06
-0.000265826
-5.97638e-06
-0.000264143
-6.545e-06
-0.000262299
-7.16662e-06
-0.000260273
-7.8503e-06
-0.000258055
-8.58861e-06
-0.00025562
-9.4042e-06
-0.000252946
-1.03001e-05
-0.000250006
-1.12891e-05
-0.000246771
-1.23866e-05
-0.000243198
-1.36093e-05
-0.000239254
-1.49732e-05
-0.000234879
-1.65045e-05
-0.000230023
-1.82161e-05
-0.000224621
-2.0122e-05
-0.000218613
-2.2212e-05
-0.000211951
-2.44246e-05
-0.000204629
-2.66089e-05
-0.000196681
-2.85863e-05
-0.000188225
-3.00824e-05
-0.000179473
-3.07471e-05
-0.000170674
-3.05047e-05
-0.000161979
-2.97203e-05
-0.000153318
-2.92278e-05
-0.000144239
-3.03746e-05
-0.000133825
-3.48068e-05
-0.000120638
-4.44088e-05
-0.000102588
-6.16677e-05
-7.66485e-05
-9.03633e-05
-3.84321e-05
-0.000136637
1.62186e-05
-0.000201052
9.40846e-05
-0.000296406
0.000209058
-0.000456322
0.00037076
-0.000667534
0.000584706
-0.000927496
0.000833462
-0.00109614
0.00104772
-0.000935591
-0.000546573
-0.000349758
1.02983e-07
-0.00034978
1.04684e-07
-0.000349784
1.9685e-08
-0.000349766
-4.94779e-08
-0.000349735
-1.2653e-07
-0.000349685
-2.09297e-07
-0.000349614
-2.97135e-07
-0.000349522
-3.91042e-07
-0.00034941
-4.81143e-07
-0.000349277
-5.72427e-07
-0.000349116
-6.85272e-07
-0.000348928
-8.06853e-07
-0.000348715
-9.35189e-07
-0.00034847
-1.06301e-06
-0.00034819
-1.20624e-06
-0.000347877
-1.36389e-06
-0.000347523
-1.54599e-06
-0.000347125
-1.73546e-06
-0.000346683
-1.93277e-06
-0.000346193
-2.14959e-06
-0.000345646
-2.40163e-06
-0.000345036
-2.67617e-06
-0.000344364
-2.95455e-06
-0.000343621
-3.26611e-06
-0.000342803
-3.61248e-06
-0.000341894
-3.9902e-06
-0.000340898
-4.39534e-06
-0.000339803
-4.83949e-06
-0.000338597
-5.32228e-06
-0.00033727
-5.84893e-06
-0.000335814
-6.42414e-06
-0.000334214
-7.04875e-06
-0.000332462
-7.72906e-06
-0.000330539
-8.46797e-06
-0.000328429
-9.27669e-06
-0.000326119
-1.016e-05
-0.00032358
-1.11275e-05
-0.000320795
-1.21895e-05
-0.000317735
-1.33603e-05
-0.000314366
-1.46583e-05
-0.000310651
-1.61012e-05
-0.000306545
-1.77158e-05
-0.000301991
-1.95264e-05
-0.000296931
-2.15645e-05
-0.00029129
-2.38579e-05
-0.000284981
-2.64306e-05
-0.000277925
-2.92683e-05
-0.000270052
-3.22977e-05
-0.000261325
-3.5336e-05
-0.000251772
-3.8139e-05
-0.000241507
-4.03477e-05
-0.000230764
-4.14894e-05
-0.00021982
-4.14492e-05
-0.000208852
-4.06884e-05
-0.000197761
-4.0319e-05
-0.000185969
-4.21659e-05
-0.000172308
-4.84678e-05
-0.000154946
-6.17716e-05
-0.000131254
-8.5359e-05
-9.75291e-05
-0.000124088
-4.86025e-05
-0.000185564
2.01618e-05
-0.000269816
0.000116185
-0.000392429
0.0002548
-0.000594937
0.000446524
-0.000859257
0.000695765
-0.00117674
0.000985541
-0.00138591
0.00124184
-0.0011919
0.00139632
-0.000701049
-0.000197926
-0.000425955
1.27092e-07
-0.000425985
1.3469e-07
-0.000425987
2.19748e-08
-0.000425978
-5.88129e-08
-0.000425941
-1.63054e-07
-0.000425887
-2.63326e-07
-0.000425807
-3.7693e-07
-0.000425706
-4.9252e-07
-0.000425579
-6.07773e-07
-0.00042543
-7.22058e-07
-0.000425252
-8.63188e-07
-0.000425041
-1.01722e-06
-0.000424798
-1.17889e-06
-0.000424521
-1.3394e-06
-0.000424214
-1.51397e-06
-0.000423861
-1.71625e-06
-0.000423462
-1.94489e-06
-0.000423017
-2.1806e-06
-0.00042252
-2.42951e-06
-0.000421968
-2.70197e-06
-0.000421356
-3.014e-06
-0.000420673
-3.35852e-06
-0.00041992
-3.70776e-06
-0.000419092
-4.09474e-06
-0.000418173
-4.53095e-06
-0.000417161
-5.00239e-06
-0.000416046
-5.51037e-06
-0.000414822
-6.06323e-06
-0.000413475
-6.66976e-06
-0.000411996
-7.32723e-06
-0.000410377
-8.04354e-06
-0.000408598
-8.82787e-06
-0.000406647
-9.67994e-06
-0.000404509
-1.0606e-05
-0.000402168
-1.16177e-05
-0.0003996
-1.27282e-05
-0.000396786
-1.39416e-05
-0.000393698
-1.52777e-05
-0.000390305
-1.6753e-05
-0.000386567
-1.83964e-05
-0.000382442
-2.0226e-05
-0.000377883
-2.2275e-05
-0.00037282
-2.45893e-05
-0.000367177
-2.72076e-05
-0.000360864
-3.01708e-05
-0.000353781
-3.35138e-05
-0.000345815
-3.72341e-05
-0.000336868
-4.1245e-05
-0.000326884
-4.532e-05
-0.000315867
-4.91563e-05
-0.000303906
-5.23089e-05
-0.00029124
-5.41551e-05
-0.000278148
-5.45415e-05
-0.000264799
-5.40367e-05
-0.000251033
-5.40856e-05
-0.000236105
-5.70933e-05
-0.000218535
-6.60383e-05
-0.000196029
-8.42779e-05
-0.000165359
-0.000116029
-0.000122119
-0.000167328
-6.04395e-05
-0.000247244
2.46389e-05
-0.000354894
0.000140952
-0.000508742
0.000305108
-0.000759093
0.000528702
-0.00108285
0.000815359
-0.00146339
0.00114822
-0.00171877
0.00145473
-0.00149841
0.00164613
-0.00089245
0.00169638
-0.000248168
0.000292158
-0.000510592
1.6386e-07
-0.000510628
1.70072e-07
-0.000510638
3.24381e-08
-0.000510626
-7.10183e-08
-0.000510596
-1.93387e-07
-0.000510539
-3.19725e-07
-0.000510453
-4.62987e-07
-0.00051034
-6.05309e-07
-0.000510205
-7.42809e-07
-0.00051004
-8.87013e-07
-0.000509846
-1.05804e-06
-0.00050961
-1.25239e-06
-0.000509342
-1.44734e-06
-0.000509038
-1.64374e-06
-0.000508693
-1.8585e-06
-0.000508303
-2.10667e-06
-0.000507861
-2.38611e-06
-0.000507364
-2.67779e-06
-0.000506816
-2.97824e-06
-0.000506207
-3.31067e-06
-0.000505527
-3.69356e-06
-0.000504769
-4.11658e-06
-0.000503936
-4.54081e-06
-0.00050302
-5.01136e-06
-0.000502003
-5.54756e-06
-0.000500883
-6.12256e-06
-0.000499653
-6.73977e-06
-0.000498301
-7.41528e-06
-0.00049682
-8.15145e-06
-0.000495194
-8.95287e-06
-0.000493405
-9.83242e-06
-0.000491449
-1.07844e-05
-0.000489311
-1.18178e-05
-0.000486968
-1.29492e-05
-0.000484401
-1.41843e-05
-0.000481593
-1.55363e-05
-0.000478519
-1.70159e-05
-0.000475147
-1.86492e-05
-0.000471449
-2.04513e-05
-0.000467381
-2.24644e-05
-0.000462895
-2.47123e-05
-0.00045793
-2.72393e-05
-0.000452415
-3.01043e-05
-0.000446265
-3.33583e-05
-0.000439371
-3.70639e-05
-0.00043161
-4.12755e-05
-0.00042285
-4.59942e-05
-0.000412971
-5.1124e-05
-0.000401883
-5.64077e-05
-0.000389554
-6.14851e-05
-0.000376064
-6.57993e-05
-0.000361615
-6.86037e-05
-0.000346459
-6.96982e-05
-0.000330702
-6.97932e-05
-0.000314064
-7.07239e-05
-0.000295558
-7.55989e-05
-0.000273317
-8.82792e-05
-0.00024451
-0.000113085
-0.000205276
-0.000155263
-0.000150565
-0.00022204
-7.39522e-05
-0.000323856
2.96415e-05
-0.000458488
0.00016824
-0.000647341
0.000359665
-0.000950518
0.00061685
-0.00134003
0.00094331
-0.00178985
0.0013209
-0.00209636
0.00168649
-0.00186401
0.00192324
-0.0011292
0.0019891
-0.000314032
0.000354107
-0.000605369
2.05766e-07
-0.000605415
2.15715e-07
-0.000605436
5.41577e-08
-0.000605432
-7.56532e-08
-0.000605403
-2.22104e-07
-0.000605343
-3.79582e-07
-0.000605256
-5.5058e-07
-0.000605137
-7.23656e-07
-0.000604988
-8.92212e-07
-0.000604811
-1.06404e-06
-0.000604594
-1.27454e-06
-0.000604344
-1.50285e-06
-0.000604048
-1.74329e-06
-0.000603711
-1.98027e-06
-0.000603332
-2.23779e-06
-0.000602901
-2.53804e-06
-0.000602415
-2.87209e-06
-0.000601871
-3.22155e-06
-0.000601264
-3.58547e-06
-0.000600592
-3.98273e-06
-0.000599838
-4.44777e-06
-0.000599009
-4.94568e-06
-0.000598086
-5.46378e-06
-0.00059707
-6.02715e-06
-0.000595953
-6.6647e-06
-0.000594724
-7.35108e-06
-0.000593371
-8.09305e-06
-0.000591887
-8.89901e-06
-0.000590256
-9.7824e-06
-0.000588472
-1.0737e-05
-0.000586522
-1.1783e-05
-0.000584381
-1.2925e-05
-0.00058204
-1.41587e-05
-0.000579488
-1.55014e-05
-0.000576695
-1.69775e-05
-0.000573642
-1.8589e-05
-0.000570306
-2.03522e-05
-0.000566656
-2.22994e-05
-0.000562654
-2.44527e-05
-0.000558261
-2.68582e-05
-0.000553422
-2.95513e-05
-0.000548074
-3.25867e-05
-0.000542136
-3.60427e-05
-0.000535508
-3.99864e-05
-0.000528071
-4.4501e-05
-0.000519688
-4.9658e-05
-0.000510203
-5.54798e-05
-0.000499471
-6.18557e-05
-0.00048738
-6.84988e-05
-0.000473875
-7.49897e-05
-0.000458995
-8.06791e-05
-0.000442908
-8.46914e-05
-0.000425786
-8.68199e-05
-0.00040761
-8.79691e-05
-0.000387878
-9.04562e-05
-0.000365265
-9.82118e-05
-0.000337409
-0.000116135
-0.000300883
-0.000149612
-0.00025122
-0.000204926
-0.000182863
-0.000290396
-8.90772e-05
-0.000417642
3.51548e-05
-0.00058272
0.000197893
-0.000810079
0.000418317
-0.00117094
0.000711019
-0.00163274
0.00108031
-0.00215914
0.00150508
-0.00252114
0.00193653
-0.00229547
0.0022254
-0.00141806
0.00231349
-0.00040212
0.000406121
-0.000712356
2.66973e-07
-0.000712421
2.81041e-07
-0.00071245
8.2733e-08
-0.000712455
-7.02065e-08
-0.00071243
-2.47963e-07
-0.000712373
-4.35867e-07
-0.000712284
-6.40195e-07
-0.000712159
-8.48389e-07
-0.000712003
-1.0485e-06
-0.000711808
-1.25883e-06
-0.00071158
-1.50233e-06
-0.000711301
-1.78174e-06
-0.000710983
-2.06182e-06
-0.000710617
-2.34647e-06
-0.0007102
-2.65459e-06
-0.00070973
-3.008e-06
-0.000709194
-3.40784e-06
-0.000708592
-3.82379e-06
-0.000707926
-4.25152e-06
-0.000707184
-4.72411e-06
-0.000706358
-5.27466e-06
-0.000705442
-5.86088e-06
-0.000704433
-6.47267e-06
-0.000703319
-7.14179e-06
-0.00070209
-7.8939e-06
-0.000700736
-8.70468e-06
-0.000699252
-9.57673e-06
-0.000697622
-1.05294e-05
-0.000695839
-1.15654e-05
-0.000693884
-1.26922e-05
-0.000691748
-1.39191e-05
-0.000689413
-1.52598e-05
-0.000686863
-1.67091e-05
-0.00068408
-1.82841e-05
-0.000681045
-2.00128e-05
-0.000677734
-2.18994e-05
-0.000674123
-2.39637e-05
-0.000670179
-2.62436e-05
-0.000665864
-2.87671e-05
-0.000661134
-3.15888e-05
-0.000655936
-3.47487e-05
-0.000650193
-3.833e-05
-0.000643823
-4.24126e-05
-0.00063672
-4.70889e-05
-0.000628749
-5.24722e-05
-0.000619752
-5.86557e-05
-0.000609559
-6.56725e-05
-0.000598003
-7.34121e-05
-0.00058496
-8.15409e-05
-0.000570346
-8.9604e-05
-0.000554167
-9.68583e-05
-0.000536529
-0.000102329
-0.000517488
-0.000105861
-0.000496808
-0.000108649
-0.000473649
-0.000113615
-0.00044619
-0.000125671
-0.000411465
-0.00015086
-0.000365438
-0.000195639
-0.000303169
-0.000267194
-0.000218855
-0.000374711
-0.000105691
-0.000530806
4.11704e-05
-0.000729582
0.000229834
-0.000998743
0.000481263
-0.00142237
0.000812094
-0.00196357
0.00122828
-0.00257533
0.00170513
-0.00299799
0.00220591
-0.00279626
0.00255038
-0.00176252
0.00266847
-0.000520205
0.000435522
-0.000833884
3.44006e-07
-0.00083397
3.67048e-07
-0.000834013
1.25838e-07
-0.000834032
-5.16439e-08
-0.000834017
-2.62835e-07
-0.000833966
-4.86645e-07
-0.000833878
-7.28834e-07
-0.000833746
-9.80335e-07
-0.000833581
-1.21332e-06
-0.000833382
-1.45796e-06
-0.00083313
-1.75386e-06
-0.000832836
-2.07608e-06
-0.000832485
-2.4125e-06
-0.000832083
-2.74831e-06
-0.000831633
-3.10526e-06
-0.000831118
-3.52303e-06
-0.000830532
-3.99319e-06
-0.000829876
-4.48042e-06
-0.000829145
-4.98249e-06
-0.000828331
-5.53756e-06
-0.000827427
-6.17941e-06
-0.000826418
-6.8695e-06
-0.000825308
-7.58277e-06
-0.000824088
-8.36203e-06
-0.000822738
-9.24323e-06
-0.000821253
-1.01904e-05
-0.000819627
-1.12027e-05
-0.000817843
-1.23134e-05
-0.000815888
-1.35198e-05
-0.000813752
-1.4828e-05
-0.000811417
-1.62547e-05
-0.000808868
-1.78086e-05
-0.000806091
-1.94865e-05
-0.000803064
-2.13107e-05
-0.000799767
-2.33095e-05
-0.000796182
-2.54851e-05
-0.000792269
-2.78765e-05
-0.000788011
-3.05014e-05
-0.00078336
-3.34181e-05
-0.000778272
-3.66768e-05
-0.000772687
-4.03333e-05
-0.000766533
-4.44843e-05
-0.000759711
-4.92343e-05
-0.000752106
-5.46941e-05
-0.000743576
-6.10026e-05
-0.000733942
-6.82897e-05
-0.000723024
-7.65907e-05
-0.000710637
-8.57994e-05
-0.000696636
-9.55411e-05
-0.000680927
-0.000105314
-0.000663473
-0.000114312
-0.000644296
-0.000121506
-0.000623282
-0.000126876
-0.000599858
-0.000132074
-0.000572676
-0.000140796
-0.000539254
-0.000159094
-0.000495939
-0.000194175
-0.000438194
-0.000253384
-0.000360886
-0.000344501
-0.000258275
-0.000477322
-0.000123663
-0.000665418
4.76996e-05
-0.000900944
0.000264193
-0.00121524
0.000549228
-0.00170741
0.000921865
-0.0023362
0.00139032
-0.00304379
0.00192674
-0.00353441
0.00249813
-0.00336765
0.00289827
-0.00216265
0.00305442
-0.000676361
0.000430544
-0.000972534
4.36285e-07
-0.000972646
4.79046e-07
-0.000972714
1.9393e-07
-0.00097275
-1.51881e-08
-0.000972748
-2.65043e-07
-0.000972705
-5.29532e-07
-0.000972619
-8.15138e-07
-0.000972494
-1.10521e-06
-0.000972322
-1.38602e-06
-0.000972108
-1.67134e-06
-0.000971851
-2.01112e-06
-0.000971528
-2.39855e-06
-0.000971157
-2.78361e-06
-0.000970728
-3.17807e-06
-0.000970236
-3.59664e-06
-0.000969677
-4.0823e-06
-0.000969042
-4.62809e-06
-0.000968327
-5.19592e-06
-0.000967526
-5.78333e-06
-0.000966641
-6.422e-06
-0.00096565
-7.17068e-06
-0.000964546
-7.97325e-06
-0.000963333
-8.7959e-06
-0.000961995
-9.70023e-06
-0.000960518
-1.07204e-05
-0.000958894
-1.18143e-05
-0.000957113
-1.29834e-05
-0.000955163
-1.42641e-05
-0.000953028
-1.56544e-05
-0.000950694
-1.71615e-05
-0.000948148
-1.88017e-05
-0.000945374
-2.05818e-05
-0.000942349
-2.25114e-05
-0.000939057
-2.46027e-05
-0.000935484
-2.68833e-05
-0.000931591
-2.93778e-05
-0.000927363
-3.2104e-05
-0.000922764
-3.51006e-05
-0.000917754
-3.84283e-05
-0.000912282
-4.21485e-05