/*--------------------------------*- C++ -*----------------------------------*\
| =========                 |                                                 |
| \\      /  F ield         | OpenFOAM: The Open Source CFD Toolbox           |
|  \\    /   O peration     | Version:  2412                                  |
|   \\  /    A nd           | Website:  www.openfoam.com                      |
|    \\/     M anipulation  |                                                 |
\*---------------------------------------------------------------------------*/
FoamFile
{
    version     2.0;
    format      ascii;
    arch        "LSB;label=32;scalar=64";
    class       volScalarField;
    location    "180";
    object      nut;
}
// * * * * * * * * * * * * * * * * * * * * * * * * * * * * * * * * * * * * * //

dimensions      [0 2 -1 0 0 0 0];

internalField   nonuniform List<scalar> 
8659
(
8.75895e-12
7.07511e-12
4.9943e-12
2.76466e-12
9.24852e-13
1.48585e-13
4.58739e-12
2.21422e-11
4.83381e-11
6.38337e-11
5.80296e-11
4.07378e-11
2.6465e-11
1.92209e-11
1.55431e-11
1.34901e-11
1.2196e-11
1.13029e-11
1.07307e-11
1.04206e-11
1.02952e-11
1.0297e-11
1.0384e-11
1.05255e-11
1.07007e-11
1.0894e-11
1.10897e-11
1.12776e-11
1.14519e-11
1.16115e-11
1.17648e-11
1.19016e-11
1.20006e-11
1.20861e-11
1.2141e-11
1.21748e-11
1.21939e-11
1.22081e-11
1.22296e-11
1.22336e-11
1.22222e-11
1.22103e-11
1.21986e-11
1.21874e-11
1.21785e-11
1.21726e-11
1.21631e-11
1.21504e-11
1.21369e-11
1.21232e-11
1.21096e-11
1.2096e-11
1.20818e-11
1.20676e-11
1.2054e-11
1.20399e-11
1.20264e-11
1.20129e-11
1.19991e-11
1.19855e-11
1.1972e-11
1.19585e-11
1.19463e-11
1.19343e-11
1.19222e-11
1.19104e-11
1.18993e-11
1.18883e-11
1.18776e-11
1.1867e-11
1.18562e-11
1.18467e-11
1.1837e-11
1.18271e-11
1.18184e-11
1.18093e-11
1.18008e-11
1.17927e-11
1.17844e-11
1.17765e-11
1.17692e-11
1.17616e-11
1.17543e-11
1.17474e-11
1.174e-11
1.1734e-11
7.45685e-10
5.95427e-10
4.14998e-10
2.28124e-10
7.69787e-11
1.51352e-11
4.30593e-10
1.94693e-09
4.23081e-09
5.75008e-09
5.44503e-09
3.943e-09
2.60107e-09
1.87689e-09
1.49479e-09
1.27465e-09
1.13281e-09
1.03289e-09
9.65976e-10
9.26231e-10
9.06091e-10
8.99769e-10
9.02922e-10
9.1239e-10
9.26051e-10
9.42207e-10
9.59252e-10
9.76037e-10
9.91927e-10
1.00674e-09
1.02108e-09
1.03406e-09
1.0436e-09
1.05196e-09
1.05749e-09
1.06099e-09
1.06307e-09
1.06483e-09
1.06729e-09
1.06796e-09
1.0671e-09
1.0662e-09
1.06531e-09
1.06445e-09
1.06388e-09
1.06365e-09
1.06304e-09
1.06207e-09
1.061e-09
1.05993e-09
1.05885e-09
1.05776e-09
1.05665e-09
1.05553e-09
1.05445e-09
1.05335e-09
1.05228e-09
1.0512e-09
1.0501e-09
1.04901e-09
1.04794e-09
1.04686e-09
1.04585e-09
1.04487e-09
1.04391e-09
1.04297e-09
1.04205e-09
1.04119e-09
1.04031e-09
1.03943e-09
1.03859e-09
1.03778e-09
1.037e-09
1.0362e-09
1.03547e-09
1.03473e-09
1.03403e-09
1.03335e-09
1.03267e-09
1.03203e-09
1.03141e-09
1.03082e-09
1.03022e-09
1.02964e-09
1.02904e-09
1.02855e-09
5.99268e-09
4.71242e-09
3.23398e-09
1.76772e-09
6.08314e-10
1.74604e-10
3.98717e-09
1.65718e-08
3.57654e-08
5.0698e-08
5.06776e-08
3.86353e-08
2.61784e-08
1.87603e-08
1.46091e-08
1.21154e-08
1.04644e-08
9.28521e-09
8.47249e-09
7.95928e-09
7.6646e-09
7.52431e-09
7.49147e-09
7.53184e-09
7.62304e-09
7.74697e-09
7.88711e-09
8.0309e-09
8.17071e-09
8.30385e-09
8.43536e-09
8.55648e-09
8.64716e-09
8.72816e-09
8.78294e-09
8.81902e-09
8.84144e-09
8.86217e-09
8.89001e-09
8.89964e-09
8.89386e-09
8.8877e-09
8.88183e-09
8.87626e-09
8.87415e-09
8.87578e-09
8.87321e-09
8.86685e-09
8.85944e-09
8.85194e-09
8.84445e-09
8.83685e-09
8.82906e-09
8.82129e-09
8.8138e-09
8.80627e-09
8.79865e-09
8.79089e-09
8.78305e-09
8.77524e-09
8.76741e-09
8.75969e-09
8.75228e-09
8.7451e-09
8.73809e-09
8.73126e-09
8.72454e-09
8.71816e-09
8.71178e-09
8.70536e-09
8.69917e-09
8.69309e-09
8.68717e-09
8.68136e-09
8.67575e-09
8.67029e-09
8.66496e-09
8.65977e-09
8.6547e-09
8.64988e-09
8.6452e-09
8.64063e-09
8.6361e-09
8.63174e-09
8.62708e-09
8.62332e-09
2.28558e-08
1.7659e-08
1.1912e-08
6.47379e-09
2.27946e-09
1.12869e-09
1.83458e-08
6.88873e-08
1.46807e-07
2.18148e-07
2.33274e-07
1.89961e-07
1.33498e-07
9.51456e-08
7.20942e-08
5.7684e-08
4.79966e-08
4.1092e-08
3.62965e-08
3.31775e-08
3.12707e-08
3.02107e-08
2.97384e-08
2.9672e-08
2.98933e-08
3.03086e-08
3.08368e-08
3.14135e-08
3.19962e-08
3.2567e-08
3.31442e-08
3.36878e-08
3.41029e-08
3.44813e-08
3.47437e-08
3.49234e-08
3.50406e-08
3.51562e-08
3.53061e-08
3.53661e-08
3.53502e-08
3.5333e-08
3.53177e-08
3.5304e-08
3.53106e-08
3.53366e-08
3.53395e-08
3.53226e-08
3.53005e-08
3.52784e-08
3.52562e-08
3.52339e-08
3.52105e-08
3.51872e-08
3.51661e-08
3.51444e-08
3.51216e-08
3.50978e-08
3.50732e-08
3.50487e-08
3.50239e-08
3.49992e-08
3.49754e-08
3.49522e-08
3.49293e-08
3.49076e-08
3.48863e-08
3.48654e-08
3.48446e-08
3.48239e-08
3.48034e-08
3.47833e-08
3.47634e-08
3.4744e-08
3.47249e-08
3.47064e-08
3.46882e-08
3.46703e-08
3.46529e-08
3.46364e-08
3.46202e-08
3.46044e-08
3.45882e-08
3.45729e-08
3.45564e-08
3.45432e-08
5.93433e-08
4.49773e-08
2.98013e-08
1.61227e-08
5.85363e-09
5.48802e-09
5.92228e-08
1.98823e-07
4.15324e-07
6.47043e-07
7.45593e-07
6.56722e-07
4.84914e-07
3.46221e-07
2.55391e-07
1.96431e-07
1.56611e-07
1.28625e-07
1.0932e-07
9.66385e-08
8.86369e-08
8.38431e-08
8.12514e-08
8.01828e-08
8.0202e-08
8.09771e-08
8.22314e-08
8.3746e-08
8.53646e-08
8.70133e-08
8.87299e-08
9.03863e-08
9.16798e-08
9.28814e-08
9.37392e-08
9.43506e-08
9.47656e-08
9.51968e-08
9.57356e-08
9.5973e-08
9.59566e-08
9.59365e-08
9.59219e-08
9.59132e-08
9.59842e-08
9.61237e-08
9.61762e-08
9.61564e-08
9.61194e-08
9.60838e-08
9.60484e-08
9.60133e-08
9.59746e-08
9.59375e-08
9.59099e-08
9.58798e-08
9.58427e-08
9.58019e-08
9.57579e-08
9.57133e-08
9.56668e-08
9.56203e-08
9.55743e-08
9.55304e-08
9.5486e-08
9.54448e-08
9.54048e-08
9.53648e-08
9.53238e-08
9.5283e-08
9.52415e-08
9.52006e-08
9.5159e-08
9.51191e-08
9.50785e-08
9.50392e-08
9.49999e-08
9.49619e-08
9.49234e-08
9.4887e-08
9.48509e-08
9.48163e-08
9.47792e-08
9.47447e-08
9.47065e-08
9.46765e-08
1.20845e-07
8.97177e-08
5.84064e-08
3.15764e-08
1.20784e-08
2.14581e-08
1.52304e-07
4.55423e-07
9.25871e-07
1.50766e-06
1.87058e-06
1.79317e-06
1.41099e-06
1.02347e-06
7.40795e-07
5.49271e-07
4.19537e-07
3.29873e-07
2.6876e-07
2.28564e-07
2.02785e-07
1.86691e-07
1.77149e-07
1.72112e-07
1.70287e-07
1.70731e-07
1.72693e-07
1.75586e-07
1.78974e-07
1.82626e-07
1.86581e-07
1.90508e-07
1.93658e-07
1.96639e-07
1.98834e-07
2.00464e-07
2.01612e-07
2.02849e-07
2.0434e-07
2.05045e-07
2.05087e-07
2.05116e-07
2.05157e-07
2.05212e-07
2.05513e-07
2.05997e-07
2.06223e-07
2.06243e-07
2.06217e-07
2.062e-07
2.06184e-07
2.06172e-07
2.06152e-07
2.06139e-07
2.06162e-07
2.06175e-07
2.06161e-07
2.06134e-07
2.06098e-07
2.0606e-07
2.06014e-07
2.05967e-07
2.05918e-07
2.05874e-07
2.05827e-07
2.05785e-07
2.05745e-07
2.05704e-07
2.05658e-07
2.05611e-07
2.05559e-07
2.05508e-07
2.05452e-07
2.054e-07
2.05343e-07
2.05287e-07
2.0523e-07
2.05176e-07
2.05117e-07
2.05063e-07
2.05006e-07
2.04954e-07
2.04894e-07
2.04839e-07
2.04774e-07
2.04724e-07
2.06889e-07
1.50289e-07
9.63224e-08
5.24815e-08
2.24972e-08
6.82268e-08
3.30917e-07
8.82347e-07
1.73469e-06
2.94204e-06
3.90397e-06
4.05674e-06
3.42912e-06
2.57289e-06
1.8575e-06
1.34319e-06
9.89786e-07
7.4745e-07
5.83565e-07
4.75742e-07
4.05947e-07
3.61307e-07
3.33445e-07
3.17002e-07
3.08629e-07
3.05984e-07
3.07299e-07
3.11229e-07
3.16762e-07
3.2331e-07
3.30818e-07
3.38552e-07
3.44969e-07
3.51163e-07
3.55884e-07
3.59534e-07
3.62191e-07
3.65138e-07
3.68563e-07
3.70272e-07
3.70531e-07
3.70749e-07
3.70979e-07
3.7124e-07
3.72137e-07
3.73434e-07
3.74087e-07
3.74239e-07
3.74297e-07
3.7438e-07
3.74473e-07
3.74578e-07
3.74668e-07
3.74791e-07
3.75022e-07
3.75219e-07
3.75338e-07
3.75419e-07
3.75477e-07
3.75528e-07
3.75563e-07
3.75593e-07
3.75614e-07
3.75643e-07
3.75661e-07
3.75687e-07
3.75715e-07
3.75739e-07
3.75747e-07
3.75753e-07
3.75743e-07
3.7573e-07
3.75704e-07
3.75682e-07
3.75645e-07
3.75611e-07
3.75565e-07
3.75526e-07
3.75473e-07
3.75426e-07
3.75371e-07
3.75322e-07
3.75256e-07
3.75198e-07
3.75119e-07
3.75062e-07
3.09538e-07
2.19982e-07
1.39529e-07
7.79112e-08
4.79563e-08
1.78502e-07
6.26683e-07
1.49634e-06
2.82823e-06
4.98769e-06
7.0207e-06
7.83084e-06
7.09939e-06
5.58815e-06
4.10832e-06
2.95369e-06
2.13072e-06
1.56007e-06
1.17247e-06
9.16036e-07
7.48689e-07
6.40017e-07
5.70109e-07
5.26291e-07
5.00665e-07
4.8789e-07
4.84151e-07
4.86651e-07
4.93312e-07
5.02841e-07
5.14872e-07
5.27948e-07
5.39261e-07
5.50461e-07
5.59334e-07
5.66481e-07
5.71858e-07
5.77932e-07
5.84747e-07
5.88304e-07
5.89096e-07
5.8976e-07
5.90418e-07
5.9115e-07
5.93326e-07
5.96232e-07
5.97721e-07
5.98151e-07
5.98408e-07
5.9873e-07
5.99081e-07
5.99468e-07
5.99834e-07
6.00308e-07
6.01075e-07
6.01735e-07
6.02196e-07
6.02561e-07
6.02881e-07
6.03189e-07
6.03466e-07
6.03732e-07
6.03977e-07
6.04232e-07
6.04463e-07
6.04703e-07
6.04941e-07
6.0517e-07
6.05363e-07
6.05548e-07
6.05697e-07
6.05833e-07
6.05938e-07
6.06043e-07
6.06116e-07
6.06187e-07
6.06231e-07
6.06282e-07
6.06302e-07
6.06329e-07
6.06333e-07
6.06347e-07
6.06326e-07
6.06312e-07
6.06263e-07
6.06235e-07
4.1454e-07
2.8884e-07
1.83282e-07
1.08566e-07
1.12161e-07
3.92277e-07
1.05322e-06
2.26585e-06
4.09198e-06
7.5215e-06
1.11578e-05
1.32264e-05
1.27814e-05
1.06239e-05
8.0916e-06
5.90568e-06
4.25091e-06
3.06363e-06
2.23943e-06
1.68517e-06
1.31889e-06
1.07803e-06
9.20134e-07
8.17699e-07
7.53379e-07
7.15692e-07
6.96786e-07
6.91158e-07
6.94831e-07
7.05257e-07
7.2135e-07
7.40487e-07
7.58028e-07
7.76016e-07
7.90922e-07
8.03452e-07
8.13191e-07
8.24312e-07
8.36379e-07
8.4293e-07
8.4476e-07
8.46262e-07
8.47696e-07
8.49325e-07
8.53881e-07
8.59556e-07
8.62436e-07
8.63303e-07
8.63889e-07
8.64616e-07
8.6541e-07
8.66291e-07
8.67154e-07
8.68323e-07
8.7019e-07
8.71763e-07
8.72879e-07
8.73783e-07
8.74612e-07
8.75429e-07
8.76201e-07
8.76955e-07
8.77671e-07
8.784e-07
8.79085e-07
8.79778e-07
8.80461e-07
8.81125e-07
8.81724e-07
8.823e-07
8.82808e-07
8.83284e-07
8.83696e-07
8.84098e-07
8.84437e-07
8.84761e-07
8.85032e-07
8.85307e-07
8.85524e-07
8.8574e-07
8.85911e-07
8.86096e-07
8.86214e-07
8.86333e-07
8.86398e-07
8.86467e-07
5.0553e-07
3.47715e-07
2.254e-07
1.63209e-07
2.67637e-07
7.40487e-07
1.58788e-06
3.10062e-06
5.30548e-06
1.02561e-05
1.59854e-05
1.99898e-05
2.04463e-05
1.79602e-05
1.43164e-05
1.07847e-05
7.8931e-06
5.70148e-06
4.11685e-06
3.01751e-06
2.27456e-06
1.77804e-06
1.44759e-06
1.22862e-06
1.08562e-06
9.9504e-07
9.41189e-07
9.13456e-07
9.04472e-07
9.09495e-07
9.2607e-07
9.49833e-07
9.73691e-07
9.99547e-07
1.02219e-06
1.04212e-06
1.05815e-06
1.07654e-06
1.09589e-06
1.10678e-06
1.11034e-06
1.11317e-06
1.11581e-06
1.11899e-06
1.1275e-06
1.1374e-06
1.14228e-06
1.14368e-06
1.14467e-06
1.14592e-06
1.1473e-06
1.14886e-06
1.15042e-06
1.15277e-06
1.1566e-06
1.15969e-06
1.16183e-06
1.16355e-06
1.16517e-06
1.1668e-06
1.16838e-06
1.16995e-06
1.17146e-06
1.17299e-06
1.17446e-06
1.17593e-06
1.17738e-06
1.1788e-06
1.18012e-06
1.18139e-06
1.18255e-06
1.18364e-06
1.18461e-06
1.18556e-06
1.18639e-06
1.18719e-06
1.18789e-06
1.18858e-06
1.18918e-06
1.18976e-06
1.19026e-06
1.19077e-06
1.19117e-06
1.19155e-06
1.19185e-06
1.19212e-06
5.70334e-07
3.93603e-07
2.72131e-07
2.90124e-07
5.84095e-07
1.22289e-06
2.16119e-06
3.8608e-06
6.16913e-06
1.27903e-05
2.1027e-05
2.75589e-05
2.96603e-05
2.74604e-05
2.29902e-05
1.80536e-05
1.3633e-05
1.00415e-05
7.292e-06
5.29231e-06
3.89125e-06
2.93043e-06
2.27885e-06
1.83969e-06
1.54598e-06
1.35209e-06
1.2275e-06
1.1519e-06
1.11161e-06
1.09793e-06
1.10593e-06
1.12879e-06
1.15637e-06
1.1894e-06
1.22052e-06
1.24947e-06
1.27368e-06
1.30147e-06
1.32992e-06
1.34648e-06
1.35257e-06
1.35723e-06
1.3616e-06
1.36729e-06
1.38174e-06
1.3974e-06
1.40478e-06
1.40666e-06
1.40796e-06
1.40967e-06
1.41159e-06
1.41383e-06
1.41614e-06
1.42028e-06
1.42726e-06
1.43257e-06
1.43601e-06
1.43872e-06
1.44135e-06
1.44405e-06
1.44675e-06
1.44945e-06
1.4521e-06
1.4548e-06
1.45743e-06
1.46004e-06
1.46264e-06
1.46523e-06
1.46766e-06
1.47001e-06
1.47218e-06
1.47423e-06
1.4761e-06
1.47789e-06
1.47951e-06
1.48106e-06
1.48245e-06
1.48382e-06
1.48503e-06
1.48619e-06
1.48723e-06
1.48826e-06
1.48912e-06
1.48994e-06
1.49063e-06
1.49123e-06
6.07743e-07
4.3609e-07
4.03971e-07
5.60666e-07
1.06209e-06
1.78997e-06
2.66347e-06
4.38686e-06
6.43716e-06
1.46924e-05
2.55995e-05
3.51923e-05
3.97125e-05
3.86065e-05
3.39171e-05
2.78664e-05
2.18987e-05
1.66617e-05
1.23711e-05
9.05545e-06
6.61147e-06
4.86837e-06
3.65158e-06
2.81377e-06
2.2424e-06
1.85578e-06
1.59725e-06
1.42856e-06
1.32408e-06
1.26751e-06
1.24924e-06
1.25898e-06
1.28295e-06
1.31917e-06
1.35743e-06
1.39572e-06
1.42936e-06
1.46802e-06
1.50672e-06
1.53003e-06
1.53941e-06
1.54638e-06
1.55319e-06
1.56288e-06
1.58535e-06
1.608e-06
1.61809e-06
1.6201e-06
1.62128e-06
1.62303e-06
1.62508e-06
1.62764e-06
1.63037e-06
1.63707e-06
1.64867e-06
1.65677e-06
1.66148e-06
1.66507e-06
1.66868e-06
1.67253e-06
1.67649e-06
1.68053e-06
1.68458e-06
1.68874e-06
1.69284e-06
1.69694e-06
1.70108e-06
1.70527e-06
1.70928e-06
1.71315e-06
1.71674e-06
1.72014e-06
1.72326e-06
1.72626e-06
1.72901e-06
1.73162e-06
1.73401e-06
1.73633e-06
1.73843e-06
1.74043e-06
1.74224e-06
1.744e-06
1.74553e-06
1.74694e-06
1.74819e-06
1.74925e-06
6.34567e-07
5.82171e-07
6.93243e-07
1.07444e-06
1.6492e-06
2.34125e-06
2.97262e-06
4.54433e-06
6.30115e-06
1.5567e-05
2.9035e-05
4.20843e-05
4.97693e-05
5.06452e-05
4.6553e-05
3.9993e-05
3.28033e-05
2.59676e-05
1.99478e-05
1.49661e-05
1.10581e-05
8.11921e-06
5.9787e-06
4.45597e-06
3.39122e-06
2.65501e-06
2.15058e-06
1.80925e-06
1.58355e-06
1.44245e-06
1.36701e-06
1.34104e-06
1.34644e-06
1.37657e-06
1.41689e-06
1.4623e-06
1.50516e-06
1.5549e-06
1.60397e-06
1.6346e-06
1.64796e-06
1.65784e-06
1.66837e-06
1.68414e-06
1.71636e-06
1.74645e-06
1.75892e-06
1.76033e-06
1.76052e-06
1.76134e-06
1.76247e-06
1.76435e-06
1.76654e-06
1.77684e-06
1.79456e-06
1.80558e-06
1.81093e-06
1.81475e-06
1.81884e-06
1.82351e-06
1.82851e-06
1.83379e-06
1.83922e-06
1.84488e-06
1.85057e-06
1.85633e-06
1.86238e-06
1.86868e-06
1.87475e-06
1.88056e-06
1.88598e-06
1.89111e-06
1.89587e-06
1.90041e-06
1.90463e-06
1.90863e-06
1.91233e-06
1.91589e-06
1.91915e-06
1.92224e-06
1.92505e-06
1.92773e-06
1.9301e-06
1.93226e-06
1.93417e-06
1.93579e-06
8.12189e-07
9.23453e-07
1.25849e-06
1.7273e-06
2.23029e-06
2.74843e-06
3.00218e-06
4.27356e-06
5.8062e-06
1.51034e-05
3.0698e-05
4.7423e-05
5.89745e-05
6.27333e-05
6.01438e-05
5.38773e-05
4.60836e-05
3.80315e-05
3.04077e-05
2.36385e-05
1.79544e-05
1.34022e-05
9.89809e-06
7.28707e-06
5.39154e-06
4.04198e-06
3.09477e-06
2.43818e-06
1.98939e-06
1.69084e-06
1.50511e-06
1.4044e-06
1.36402e-06
1.37054e-06
1.40198e-06
1.448e-06
1.49715e-06
1.55625e-06
1.61468e-06
1.65277e-06
1.67096e-06
1.68521e-06
1.702e-06
1.72646e-06
1.76902e-06
1.80583e-06
1.8197e-06
1.81936e-06
1.81706e-06
1.8152e-06
1.81356e-06
1.81284e-06
1.81261e-06
1.82804e-06
1.85303e-06
1.8662e-06
1.87063e-06
1.87321e-06
1.87656e-06
1.88101e-06
1.88623e-06
1.89205e-06
1.89833e-06
1.90509e-06
1.91206e-06
1.91932e-06
1.92765e-06
1.93663e-06
1.94523e-06
1.95332e-06
1.96087e-06
1.96803e-06
1.97471e-06
1.98109e-06
1.98706e-06
1.99273e-06
1.99801e-06
2.00305e-06
2.0077e-06
2.01207e-06
2.01604e-06
2.01977e-06
2.02307e-06
2.02601e-06
2.02861e-06
2.03079e-06
1.23923e-06
1.58421e-06
1.99405e-06
2.38055e-06
2.65535e-06
2.90011e-06
2.75846e-06
3.62903e-06
4.86832e-06
1.32135e-05
3.00673e-05
5.041e-05
6.64851e-05
7.40214e-05
7.3855e-05
6.87666e-05
6.11622e-05
5.25426e-05
4.37692e-05
3.54263e-05
2.79267e-05
2.15064e-05
1.62408e-05
1.2083e-05
8.90648e-06
6.54504e-06
4.82898e-06
3.6053e-06
2.74695e-06
2.1564e-06
1.76409e-06
1.51933e-06
1.38428e-06
1.33579e-06
1.33879e-06
1.3721e-06
1.41993e-06
1.48394e-06
1.54966e-06
1.5955e-06
1.6208e-06
1.64338e-06
1.67081e-06
1.70647e-06
1.75837e-06
1.79982e-06
1.81347e-06
1.80976e-06
1.80275e-06
1.79551e-06
1.78816e-06
1.78173e-06
1.77618e-06
1.79932e-06
1.8316e-06
1.84476e-06
1.84558e-06
1.84445e-06
1.84483e-06
1.84707e-06
1.85069e-06
1.85549e-06
1.86128e-06
1.86793e-06
1.87515e-06
1.88324e-06
1.89451e-06
1.90686e-06
1.91827e-06
1.92871e-06
1.93841e-06
1.94763e-06
1.95634e-06
1.96468e-06
1.97256e-06
1.98006e-06
1.98706e-06
1.99373e-06
1.99988e-06
2.0056e-06
2.01077e-06
2.01553e-06
2.01971e-06
2.02336e-06
2.02651e-06
2.0291e-06
2.05471e-06
2.43007e-06
2.71779e-06
2.85963e-06
2.79521e-06
2.75217e-06
2.31665e-06
2.77856e-06
3.60136e-06
1.02237e-05
2.68927e-05
5.02741e-05
7.14688e-05
8.36731e-05
8.68428e-05
8.38315e-05
7.72737e-05
6.88784e-05
5.96468e-05
5.02637e-05
4.12639e-05
3.30412e-05
2.58449e-05
1.97891e-05
1.48732e-05
1.10088e-05
8.05712e-06
5.86167e-06
4.26632e-06
3.13255e-06
2.34833e-06
1.82591e-06
1.5017e-06
1.33778e-06
1.27957e-06
1.27713e-06
1.30802e-06
1.36746e-06
1.43691e-06
1.49257e-06
1.53188e-06
1.57118e-06
1.61503e-06
1.66344e-06
1.72202e-06
1.76497e-06
1.77615e-06
1.76684e-06
1.75184e-06
1.73524e-06
1.71792e-06
1.70108e-06
1.68664e-06
1.72206e-06
1.75957e-06
1.76893e-06
1.76226e-06
1.75377e-06
1.74768e-06
1.7444e-06
1.74331e-06
1.74427e-06
1.747e-06
1.7512e-06
1.75654e-06
1.7643e-06
1.77997e-06
1.79639e-06
1.81029e-06
1.82247e-06
1.83377e-06
1.84465e-06
1.8551e-06
1.86522e-06
1.87489e-06
1.88415e-06
1.89286e-06
1.90109e-06
1.90868e-06
1.91566e-06
1.9219e-06
1.92752e-06
1.93235e-06
1.93643e-06
1.9398e-06
1.94248e-06
3.01884e-06
3.2223e-06
3.22605e-06
3.01863e-06
2.60315e-06
2.35789e-06
1.80786e-06
1.95014e-06
2.37806e-06
6.85626e-06
2.14467e-05
4.63217e-05
7.31087e-05
9.0842e-05
9.82604e-05
9.82277e-05
9.35813e-05
8.624e-05
7.73462e-05
6.76571e-05
5.77711e-05
4.81752e-05
3.92451e-05
3.12447e-05
2.43266e-05
1.85376e-05
1.38411e-05
1.01435e-05
7.31522e-06
5.2102e-06
3.68727e-06
2.61969e-06
1.90755e-06
1.49307e-06
1.30998e-06
1.23444e-06
1.22003e-06
1.25628e-06
1.32277e-06
1.39417e-06
1.46349e-06
1.53343e-06
1.59994e-06
1.66138e-06
1.72323e-06
1.76387e-06
1.76923e-06
1.75046e-06
1.72202e-06
1.6897e-06
1.65591e-06
1.62159e-06
1.59676e-06
1.65132e-06
1.68879e-06
1.68881e-06
1.66951e-06
1.6485e-06
1.63074e-06
1.61683e-06
1.60611e-06
1.59866e-06
1.5941e-06
1.59182e-06
1.59152e-06
1.5978e-06
1.62095e-06
1.64145e-06
1.65599e-06
1.66803e-06
1.67941e-06
1.69076e-06
1.70204e-06
1.71325e-06
1.7242e-06
1.73483e-06
1.74491e-06
1.75443e-06
1.76319e-06
1.77114e-06
1.77815e-06
1.78427e-06
1.78937e-06
1.79345e-06
1.79655e-06
1.7988e-06
3.85195e-06
3.72746e-06
3.3599e-06
2.80894e-06
2.14986e-06
1.85597e-06
1.43089e-06
1.47923e-06
1.69512e-06
3.88602e-06
1.48246e-05
3.81433e-05
7.06996e-05
9.4636e-05
0.000107223
0.000111097
0.000109232
0.000103768
9.60157e-05
8.68164e-05
7.68111e-05
6.65303e-05
5.64139e-05
4.68183e-05
3.80145e-05
3.01823e-05
2.34163e-05
1.77408e-05
1.31172e-05
9.45896e-06
6.64933e-06
4.55496e-06
3.05075e-06
2.06062e-06
1.60905e-06
1.43499e-06
1.37638e-06
1.39961e-06
1.47372e-06
1.56814e-06
1.65941e-06
1.73795e-06
1.80331e-06
1.857e-06
1.90524e-06
1.92785e-06
1.9119e-06
1.86841e-06
1.811e-06
1.74831e-06
1.68486e-06
1.62003e-06
1.59097e-06
1.67322e-06
1.70094e-06
1.68342e-06
1.64355e-06
1.60163e-06
1.56366e-06
1.53075e-06
1.50227e-06
1.47893e-06
1.46004e-06
1.44452e-06
1.43227e-06
1.43797e-06
1.47345e-06
1.49517e-06
1.5055e-06
1.51352e-06
1.52197e-06
1.53145e-06
1.54172e-06
1.55255e-06
1.56361e-06
1.57469e-06
1.58544e-06
1.59567e-06
1.60509e-06
1.61356e-06
1.62091e-06
1.62711e-06
1.63201e-06
1.6356e-06
1.63785e-06
1.63902e-06
1.62702e-06
4.29806e-06
3.7841e-06
3.08079e-06
2.31433e-06
1.60704e-06
1.45239e-06
1.25458e-06
1.27096e-06
1.36641e-06
2.40871e-06
8.79619e-06
2.80215e-05
6.37226e-05
9.4069e-05
0.000112757
0.000121527
0.000123349
0.00012059
0.000114764
0.000106831
9.74884e-05
8.73018e-05
7.6741e-05
6.62038e-05
5.60221e-05
4.64584e-05
3.77072e-05
2.99061e-05
2.31327e-05
1.7405e-05
1.26919e-05
8.9194e-06
5.98528e-06
3.81486e-06
2.715e-06
2.21915e-06
1.98581e-06
1.92823e-06
1.9869e-06
2.12267e-06
2.29598e-06
2.45149e-06
2.5656e-06
2.64639e-06
2.70506e-06
2.72329e-06
2.68834e-06
2.61429e-06
2.51703e-06
2.40652e-06
2.29001e-06
2.16967e-06
2.06276e-06
2.0452e-06
2.00674e-06
1.93078e-06
1.83901e-06
1.74977e-06
1.66907e-06
1.59729e-06
1.53296e-06
1.47804e-06
1.43044e-06
1.38835e-06
1.35203e-06
1.36312e-06
1.41649e-06
1.42905e-06
1.42516e-06
1.42214e-06
1.42224e-06
1.42546e-06
1.43113e-06
1.43863e-06
1.44745e-06
1.45712e-06
1.46712e-06
1.47699e-06
1.48626e-06
1.49463e-06
1.5018e-06
1.50762e-06
1.51187e-06
1.51444e-06
1.51524e-06
1.51457e-06
1.50427e-06
4.21242e-06
3.38197e-06
2.50166e-06
1.72909e-06
1.28346e-06
1.27337e-06
1.22577e-06
1.23973e-06
1.26806e-06
1.78439e-06
4.55802e-06
1.7819e-05
5.1973e-05
8.80776e-05
0.000113767
0.000128491
0.000134978
0.000135798
0.000132693
0.000126777
0.00011884
0.000109499
9.92569e-05
8.85389e-05
7.77048e-05
6.70534e-05
5.68269e-05
4.72265e-05
3.84107e-05
3.0492e-05
2.35378e-05
1.75667e-05
1.25663e-05
8.51272e-06
5.69796e-06
4.26202e-06
3.49221e-06
3.13849e-06
3.06271e-06
3.1957e-06
3.49943e-06
3.86548e-06
4.13665e-06
4.32823e-06
4.4584e-06
4.51205e-06
4.47801e-06
4.37737e-06
4.23265e-06
4.05814e-06
3.86966e-06
3.66857e-06
3.46666e-06
3.32935e-06
3.1894e-06
3.01557e-06
2.82953e-06
2.65189e-06
2.48777e-06
2.33743e-06
2.19934e-06
2.07435e-06
1.9611e-06
1.85766e-06
1.76286e-06
1.69135e-06
1.65099e-06
1.59777e-06
1.54897e-06
1.51393e-06
1.48996e-06
1.4745e-06
1.46543e-06
1.46136e-06
1.46132e-06
1.46441e-06
1.46964e-06
1.47606e-06
1.48292e-06
1.48951e-06
1.49517e-06
1.49949e-06
1.50204e-06
1.5025e-06
1.50061e-06
1.49654e-06
1.48559e-06
3.63696e-06
2.68132e-06
1.85065e-06
1.37517e-06
1.13429e-06
1.25692e-06
1.31033e-06
1.33252e-06
1.32315e-06
1.65075e-06
2.71227e-06
9.70575e-06
3.65828e-05
7.58497e-05
0.000109068
0.000130809
0.000143027
0.000148388
0.000148853
0.000145727
0.000139921
0.000132128
0.000122909
0.000112728
0.000101978
9.09833e-05
8.00065e-05
6.92715e-05
5.89688e-05
4.9256e-05
4.02612e-05
3.20775e-05
2.47757e-05
1.84274e-05
1.31424e-05
9.28139e-06
7.0532e-06
5.79278e-06
5.20801e-06
5.09998e-06
5.43746e-06
6.22617e-06
6.83336e-06
7.24221e-06
7.53587e-06
7.72099e-06
7.78301e-06
7.74557e-06
7.62515e-06
7.43467e-06
7.20346e-06
6.92337e-06
6.60956e-06
6.32771e-06
6.04219e-06
5.71479e-06
5.36411e-06
5.02011e-06
4.68935e-06
4.37499e-06
4.07884e-06
3.80214e-06
3.54329e-06
3.29947e-06
3.06695e-06
2.84497e-06
2.6336e-06
2.44468e-06
2.30901e-06
2.21162e-06
2.13875e-06
2.08423e-06
2.04407e-06
2.01577e-06
1.99778e-06
1.98812e-06
1.98488e-06
1.9861e-06
1.98998e-06
1.99504e-06
2.0001e-06
2.00418e-06
2.00629e-06
2.0055e-06
2.00108e-06
1.99278e-06
1.97821e-06
2.79588e-06
1.95559e-06
1.46246e-06
1.20288e-06
1.11928e-06
1.36382e-06
1.48225e-06
1.51157e-06
1.4811e-06
1.77755e-06
2.05165e-06
4.89376e-06
2.02022e-05
5.78755e-05
9.75919e-05
0.000127128
0.000146206
0.000157178
0.000162168
0.000162682
0.000159774
0.000154236
0.000146706
0.000137711
0.000127697
0.00011703
0.000106005
9.48626e-05
8.38048e-05
7.30012e-05
6.25988e-05
5.27191e-05
4.34742e-05
3.49769e-05
2.73329e-05
2.07031e-05
1.51462e-05
1.17105e-05
9.67461e-06
8.62962e-06
8.42155e-06
9.07533e-06
1.00532e-05
1.0777e-05
1.13229e-05
1.17348e-05
1.199e-05
1.21172e-05
1.21273e-05
1.20131e-05
1.18376e-05
1.15655e-05
1.12076e-05
1.08389e-05
1.04425e-05
9.9804e-06
9.4697e-06
8.94903e-06
8.4269e-06
7.91228e-06
7.41389e-06
6.93828e-06
6.48469e-06
6.05207e-06
5.64178e-06
5.25705e-06
4.90084e-06
4.57025e-06
4.28856e-06
4.06094e-06
3.87723e-06
3.72972e-06
3.61265e-06
3.52175e-06
3.45412e-06
3.40689e-06
3.37662e-06
3.35946e-06
3.35168e-06
3.35011e-06
3.35218e-06
3.35564e-06
3.35803e-06
3.35689e-06
3.35018e-06
3.33643e-06
3.31365e-06
2.01668e-06
1.53597e-06
1.27629e-06
1.16975e-06
1.20798e-06
1.56572e-06
1.7154e-06
1.74331e-06
1.70102e-06
1.98599e-06
1.9204e-06
2.94115e-06
9.36033e-06
3.69669e-05
7.86618e-05
0.000116012
0.000143019
0.000160759
0.000171348
0.000176471
0.000177329
0.000174828
0.00016969
0.000162521
0.000153841
0.000144083
0.000133595
0.000122658
0.000111497
0.000100295
8.92074e-05
7.83602e-05
6.78715e-05
5.78519e-05
4.83995e-05
3.96056e-05
3.1651e-05
2.43376e-05
1.91714e-05
1.57146e-05
1.38658e-05
1.32357e-05
1.37003e-05
1.47322e-05
1.55757e-05
1.62825e-05
1.6793e-05
1.71739e-05
1.74256e-05
1.74816e-05
1.74746e-05
1.73284e-05
1.70273e-05
1.6678e-05
1.62646e-05
1.57465e-05
1.51394e-05
1.44912e-05
1.38083e-05
1.31053e-05
1.23993e-05
1.1708e-05
1.10301e-05
1.03634e-05
9.7155e-06
9.09878e-06
8.52271e-06
7.98529e-06
7.49965e-06
7.07846e-06
6.71984e-06
6.41873e-06
6.16993e-06
5.96906e-06
5.81304e-06
5.69857e-06
5.62086e-06
5.57373e-06
5.55093e-06
5.54698e-06
5.55723e-06
5.57745e-06
5.60257e-06
5.62707e-06
5.64599e-06
5.65592e-06
5.65319e-06
1.58409e-06
1.34269e-06
1.24152e-06
1.24347e-06
1.37353e-06
1.83628e-06
1.98072e-06
1.9955e-06
1.94615e-06
2.23027e-06
2.02682e-06
2.27282e-06
4.68776e-06
1.79157e-05
5.37055e-05
9.64408e-05
0.000131833
0.000157464
0.000174831
0.000185662
0.000191293
0.000192737
0.000190805
0.000186185
0.000179475
0.000171193
0.000161764
0.000151534
0.000140775
0.000129707
0.000118507
0.000107313
9.62469e-05
8.54127e-05
7.48925e-05
6.47557e-05
5.51162e-05
4.59404e-05
3.77245e-05
2.97494e-05
2.47746e-05
2.13552e-05
1.96605e-05
1.93224e-05
2.03006e-05
2.12235e-05
2.19109e-05
2.2571e-05
2.31202e-05
2.34017e-05
2.3643e-05
2.37367e-05
2.35853e-05
2.33745e-05
2.30681e-05
2.26099e-05
2.2015e-05
2.13424e-05
2.05907e-05
1.97759e-05
1.89185e-05
1.80576e-05
1.71879e-05
1.62982e-05
1.54003e-05
1.45205e-05
1.36801e-05
1.28832e-05
1.21384e-05
1.14604e-05
1.08554e-05
1.0325e-05
9.86813e-06
9.48373e-06
9.17123e-06
8.92907e-06
8.75246e-06
8.63356e-06
8.56372e-06
8.53514e-06
8.54118e-06
8.57557e-06
8.62993e-06
8.69409e-06
8.75825e-06
8.81534e-06
8.85848e-06
8.86511e-06
8.86633e-06
8.84623e-06
1.3989e-06
1.31323e-06
1.31952e-06
1.39621e-06
1.58818e-06
2.14906e-06
2.24856e-06
2.23985e-06
2.18616e-06
2.46768e-06
2.22825e-06
2.14705e-06
2.95849e-06
7.85413e-06
2.92589e-05
6.90519e-05
0.000111188
0.000145438
0.000170768
0.000188512
0.000200057
0.000206508
0.000208754
0.000207551
0.000203576
0.00019743
0.000189628
0.000180597
0.000170684
0.000160164
0.000149261
0.000138147
0.000126967
0.000115835
0.000104836
9.40348e-05
8.34956e-05
7.3263e-05
6.34255e-05
5.40105e-05
4.53497e-05
3.71201e-05
3.18735e-05
2.83452e-05
2.65934e-05
2.69837e-05
2.74102e-05
2.82311e-05
2.89592e-05
2.94387e-05
2.9892e-05
3.02911e-05
3.03171e-05
3.03272e-05
3.02321e-05
2.99399e-05
2.94692e-05
2.889e-05
2.81924e-05
2.73856e-05
2.64791e-05
2.5548e-05
2.45824e-05
2.35471e-05
2.24512e-05
2.1338e-05
2.02485e-05
1.91911e-05
1.81715e-05
1.72048e-05
1.63042e-05
1.54794e-05
1.47382e-05
1.40871e-05
1.35328e-05
1.30794e-05
1.27254e-05
1.24638e-05
1.22851e-05
1.21807e-05
1.21434e-05
1.21662e-05
1.22379e-05
1.23429e-05
1.24648e-05
1.25909e-05
1.27096e-05
1.28e-05
1.28756e-05
1.29243e-05
1.38584e-06
1.40097e-06
1.47763e-06
1.60009e-06
1.82384e-06
2.47959e-06
2.49295e-06
2.45598e-06
2.40058e-06
2.677e-06
2.44788e-06
2.24851e-06
2.42237e-06
4.23178e-06
1.25331e-05
3.89223e-05
8.10841e-05
0.000122985
0.000157106
0.000182955
0.000201648
0.000214309
0.000221871
0.000225138
0.000224845
0.000221666
0.000216204
0.000208975
0.000200411
0.000190864
0.000180623
0.000169916
0.000158932
0.000147821
0.000136694
0.000125635
0.000114704
0.000103954
9.33988e-05
8.31319e-05
7.30722e-05
6.35415e-05
5.45155e-05
4.58229e-05
4.03216e-05
3.64115e-05
3.43844e-05
3.48424e-05
3.51684e-05
3.57054e-05
3.60703e-05
3.67455e-05
3.68368e-05
3.70527e-05
3.7196e-05
3.71062e-05
3.68256e-05
3.64166e-05
3.58763e-05
3.51972e-05
3.43497e-05
3.34616e-05
3.25284e-05
3.14694e-05
3.02788e-05
2.90158e-05
2.77558e-05
2.65052e-05
2.52606e-05
2.40334e-05
2.28406e-05
2.16996e-05
2.06284e-05
1.96458e-05
1.87706e-05
1.80176e-05
1.73937e-05
1.68963e-05
1.65185e-05
1.62542e-05
1.6099e-05
1.60487e-05
1.60918e-05
1.62083e-05
1.63746e-05
1.65717e-05
1.67822e-05
1.69843e-05
1.71762e-05
1.73422e-05
1.49032e-06
1.56771e-06
1.68452e-06
1.82723e-06
2.05609e-06
2.77408e-06
2.6946e-06
2.63335e-06
2.58001e-06
2.84392e-06
2.64688e-06
2.43085e-06
2.35168e-06
2.88877e-06
5.63654e-06
1.71042e-05
4.68516e-05
8.99532e-05
0.000131968
0.000166719
0.00019375
0.000213895
0.000228048
0.000237015
0.000241555
0.000242391
0.000240192
0.000235562
0.000229019
0.000221001
0.000211875
0.000201941
0.00019145
0.000180609
0.000169577
0.000158478
0.000147401
0.000136415
0.00012555
0.000114858
0.000104293
9.40461e-05
8.38815e-05
7.42497e-05
6.52065e-05
5.56181e-05
4.99378e-05
4.52396e-05
4.30324e-05
4.32886e-05
4.2687e-05
4.3464e-05
4.32626e-05
4.34733e-05
4.37393e-05
4.37494e-05
4.36225e-05
4.33562e-05
4.29964e-05
4.25083e-05
4.17873e-05
4.10115e-05
4.02197e-05
3.92575e-05
3.80904e-05
3.67779e-05
3.54639e-05
3.41424e-05
3.27847e-05
3.13917e-05
2.99781e-05
2.85648e-05
2.71774e-05
2.58481e-05
2.46113e-05
2.34969e-05
2.25243e-05
2.16992e-05
2.10214e-05
2.04915e-05
2.01131e-05
1.989e-05
1.9816e-05
1.98708e-05
2.00259e-05
2.02565e-05
2.05403e-05
2.08535e-05
2.11841e-05
2.15059e-05
1.66893e-06
1.77874e-06
1.91074e-06
2.05336e-06
2.26798e-06
2.93405e-06
2.84566e-06
2.77087e-06
2.72417e-06
2.97184e-06
2.8124e-06
2.62239e-06
2.4608e-06
2.57682e-06
3.51607e-06
7.24858e-06
2.04144e-05
5.15835e-05
9.50911e-05
0.000137761
0.000173856
0.000202665
0.000224726
0.000240747
0.000251451
0.000257565
0.000259794
0.000258802
0.000255188
0.000249472
0.000242106
0.00023347
0.000223888
0.000213638
0.000202946
0.000191992
0.000180917
0.000169828
0.000158795
0.000147868
0.000137063
0.000126451
0.000115941
0.000105787
9.57176e-05
8.58866e-05
7.71481e-05
6.70214e-05
6.0492e-05
5.57257e-05
5.15155e-05
5.19584e-05
5.06623e-05
5.02013e-05
5.03182e-05
5.00982e-05
4.99084e-05
4.95855e-05
4.92776e-05
4.89128e-05
4.82997e-05
4.75904e-05
4.69657e-05
4.61603e-05
4.51023e-05
4.37949e-05
4.25327e-05
4.12768e-05
3.99486e-05
3.85259e-05
3.70152e-05
3.54373e-05
3.38178e-05
3.2196e-05
3.06222e-05
2.91429e-05
2.77925e-05
2.65861e-05
2.55313e-05
2.46384e-05
2.39245e-05
2.34077e-05
2.30944e-05
2.29714e-05
2.30109e-05
2.31856e-05
2.34718e-05
2.38473e-05
2.42976e-05
2.47828e-05
1.88445e-06
2.00364e-06
2.13232e-06
2.26148e-06
2.45104e-06
3.00817e-06
2.9596e-06
2.87416e-06
2.83838e-06
3.06448e-06
2.94559e-06
2.79421e-06
2.62668e-06