/*--------------------------------*- C++ -*----------------------------------*\
| =========                 |                                                 |
| \\      /  F ield         | OpenFOAM: The Open Source CFD Toolbox           |
|  \\    /   O peration     | Version:  2412                                  |
|   \\  /    A nd           | Website:  www.openfoam.com                      |
|    \\/     M anipulation  |                                                 |
\*---------------------------------------------------------------------------*/
FoamFile
{
    version     2.0;
    format      ascii;
    arch        "LSB;label=32;scalar=64";
    class       volScalarField;
    location    "180";
    object      p;
}
// * * * * * * * * * * * * * * * * * * * * * * * * * * * * * * * * * * * * * //

dimensions      [0 2 -2 0 0 0 0];

internalField   nonuniform List<scalar> 
7418
(
136.923
116.012
115.571
118.942
115.233
98.324
74.8989
71.7334
93.9542
104.034
108.27
109.483
108.639
106.536
104.561
104.143
104.431
105.251
106.261
106.545
106.155
105.362
104.346
103.541
102.849
102.203
101.44
100.537
99.5447
98.5277
97.5014
96.4495
95.3538
94.2193
93.0564
91.874
90.6731
89.455
88.2229
86.9814
85.7345
84.4853
83.237
81.9931
80.7572
79.5325
78.3224
77.1302
75.9589
74.8115
73.6906
72.5986
71.5384
70.5126
69.5233
68.573
67.6643
66.7992
65.9797
65.2058
64.4791
63.8016
63.1764
62.6046
62.0857
61.6195
61.2083
60.854
60.5579
60.3198
60.1393
60.0201
59.9708
59.9663
60.0156
60.1314
60.3143
60.5634
60.8744
61.2465
61.677
115.212
131.057
136.851
116.039
115.59
118.934
115.224
98.3504
74.9523
71.7592
93.9462
104.026
108.266
109.481
108.639
106.537
104.562
104.144
104.431
105.251
106.26
106.545
106.155
105.362
104.346
103.541
102.849
102.203
101.44
100.537
99.5448
98.5277
97.5014
96.4495
95.3538
94.2193
93.0565
91.874
90.6732
89.455
88.223
86.9814
85.7345
84.4854
83.237
81.9932
80.7572
79.5325
78.3224
77.1302
75.9589
74.8116
73.6906
72.5986
71.5384
70.5126
69.5233
68.573
67.6643
66.7992
65.9797
65.2058
64.4791
63.8016
63.1764
62.6046
62.0857
61.6195
61.2083
60.854
60.5579
60.3198
60.1393
60.0201
59.9708
59.9663
60.0156
60.1314
60.3143
60.5634
60.8744
61.2465
61.677
115.259
131.01
136.766
116.076
115.621
118.928
115.218
98.3833
75.0247
71.7961
93.9375
104.017
108.261
109.479
108.638
106.537
104.563
104.145
104.431
105.251
106.26
106.544
106.155
105.362
104.346
103.541
102.849
102.203
101.441
100.537
99.5448
98.5277
97.5015
96.4496
95.3538
94.2194
93.0565
91.874
90.6732
89.455
88.223
86.9814
85.7345
84.4854
83.237
81.9932
80.7572
79.5325
78.3224
77.1302
75.9589
74.8116
73.6906
72.5986
71.5384
70.5126
69.5233
68.5731
67.6643
66.7992
65.9797
65.2058
64.4791
63.8016
63.1764
62.6046
62.0857
61.6195
61.2083
60.8541
60.5579
60.3198
60.1393
60.0201
59.9708
59.9663
60.0156
60.1314
60.3143
60.5634
60.8744
61.2465
61.677
115.323
130.972
136.67
116.131
115.67
118.927
115.219
98.4275
75.1175
71.8516
93.9305
104.007
108.256
109.476
108.637
106.538
104.564
104.146
104.432
105.251
106.26
106.544
106.154
105.362
104.346
103.541
102.849
102.203
101.441
100.537
99.5449
98.5278
97.5015
96.4496
95.3539
94.2194
93.0565
91.8741
90.6732
89.4551
88.223
86.9815
85.7346
84.4854
83.2371
81.9932
80.7572
79.5325
78.3225
77.1302
75.9589
74.8116
73.6907
72.5986
71.5384
70.5126
69.5234
68.5731
67.6643
66.7992
65.9797
65.2058
64.4791
63.8016
63.1765
62.6046
62.0857
61.6195
61.2083
60.8541
60.5579
60.3198
60.1394
60.0202
59.9708
59.9663
60.0156
60.1314
60.3144
60.5634
60.8744
61.2465
61.677
115.404
130.95
136.566
116.21
115.748
118.939
115.223
98.4862
75.2469
71.9425
93.9259
103.995
108.248
109.471
108.635
106.538
104.566
104.147
104.433
105.251
106.259
106.544
106.154
105.362
104.346
103.542
102.849
102.203
101.441
100.537
99.5449
98.5279
97.5016
96.4497
95.354
94.2195
93.0566
91.8741
90.6733
89.4552
88.2231
86.9816
85.7346
84.4855
83.2371
81.9933
80.7573
79.5326
78.3225
77.1303
75.959
74.8117
73.6907
72.5987
71.5385
70.5127
69.5234
68.5731
67.6644
66.7993
65.9798
65.2059
64.4792
63.8016
63.1765
62.6046
62.0858
61.6196
61.2084
60.8541
60.558
60.3198
60.1394
60.0202
59.9709
59.9664
60.0157
60.1315
60.3144
60.5635
60.8744
61.2465
61.677
115.492
130.917
136.449
116.312
115.876
118.964
115.22
98.559
75.4355
72.0936
93.9267
103.98
108.236
109.464
108.632
106.539
104.57
104.15
104.435
105.252
106.259
106.543
106.154
105.362
104.347
103.542
102.85
102.203
101.441
100.537
99.5451
98.528
97.5017
96.4498
95.3541
94.2196
93.0567
91.8743
90.6734
89.4553
88.2232
86.9817
85.7347
84.4856
83.2373
81.9934
80.7574
79.5327
78.3226
77.1304
75.9591
74.8118
73.6908
72.5988
71.5386
70.5128
69.5235
68.5732
67.6645
66.7994
65.9799
65.2059
64.4792
63.8017
63.1766
62.6047
62.0859
61.6197
61.2084
60.8542
60.558
60.3199
60.1395
60.0203
59.9709
59.9665
60.0158
60.1316
60.3145
60.5636
60.8745
61.2466
61.6771
115.579
130.833
136.304
116.408
116.072
119.013
115.211
98.6556
75.7146
72.3362
93.936
103.959
108.218
109.453
108.627
106.54
104.575
104.156
104.438
105.253
106.258
106.541
106.153
105.362
104.347
103.542
102.85
102.204
101.441
100.537
99.5453
98.5283
97.5019
96.45
95.3543
94.2198
93.0569
91.8745
90.6736
89.4555
88.2234
86.9819
85.7349
84.4858
83.2375
81.9936
80.7576
79.5329
78.3228
77.1306
75.9593
74.812
73.691
72.599
71.5387
70.513
69.5237
68.5734
67.6646
66.7996
65.9801
65.2061
64.4794
63.8019
63.1768
62.6049
62.086
61.6198
61.2086
60.8544
60.5582
60.3201
60.1397
60.0204
59.9711
59.9666
60.0159
60.1317
60.3146
60.5637
60.8747
61.2468
61.6773
115.665
130.705
136.108
116.485
116.33
119.114
115.206
98.8046
76.1251
72.7053
93.953
103.928
108.189
109.435
108.619
106.542
104.585
104.164
104.444
105.256
106.257
106.539
106.152
105.362
104.348
103.543
102.851
102.204
101.441
100.537
99.5456
98.5287
97.5023
96.4504
95.3546
94.2202
93.0573
91.8748
90.674
89.4558
88.2238
86.9822
85.7353
84.4861
83.2378
81.9939
80.7579
79.5332
78.3231
77.1309
75.9596
74.8123
73.6913
72.5993
71.539
70.5133
69.524
68.5737
67.6649
66.7999
65.9803
65.2064
64.4797
63.8022
63.177
62.6052
62.0863
61.6201
61.2089
60.8546
60.5585
60.3203
60.1399
60.0207
59.9714
59.9669
60.0162
60.132
60.3149
60.564
60.8749
61.247
61.6776
115.749
130.55
135.833
116.572
116.61
119.277
115.218
99.0578
76.6819
73.2378
93.9725
103.881
108.145
109.406
108.607
106.546
104.6
104.178
104.453
105.259
106.255
106.536
106.15
105.362
104.349
103.545
102.852
102.204
101.441
100.538
99.5462
98.5293
97.5029
96.4509
95.3552
94.2207
93.0579
91.8754
90.6745
89.4564
88.2243
86.9828
85.7358
84.4867
83.2383
81.9944
80.7584
79.5337
78.3236
77.1314
75.9601
74.8128
73.6918
72.5998
71.5395
70.5137
69.5245
68.5742
67.6654
66.8003
65.9808
65.2068
64.4801
63.8026
63.1775
62.6056
62.0868
61.6205
61.2093
60.8551
60.5589
60.3208
60.1404
60.0211
59.9718
59.9673
60.0166
60.1324
60.3153
60.5644
60.8754
61.2475
61.678
115.819
130.36
135.451
116.673
116.883
119.489
115.267
99.4944
77.3654
73.9644
93.986
103.815
108.083
109.366
108.59
106.553
104.623
104.198
104.466
105.264
106.252
106.531
106.147
105.361
104.351
103.547
102.853
102.205
101.442
100.538
99.5471
98.5302
97.5038
96.4518
95.356
94.2216
93.0587
91.8762
90.6753
89.4572
88.2251
86.9836
85.7366
84.4874
83.2391
81.9952
80.7592
79.5345
78.3244
77.1322
75.9608
74.8135
73.6925
72.6005
71.5402
70.5144
69.5252
68.5749
67.6661
66.801
65.9815
65.2075
64.4808
63.8033
63.1781
62.6063
62.0874
61.6212
61.2099
60.8557
60.5595
60.3214
60.141
60.0218
59.9724
59.9679
60.0172
60.1331
60.316
60.5651
60.876
61.2481
61.6787
115.865
130.09
134.928
116.731
117.159
119.731
115.38
100.243
78.1926
74.898
93.9866
103.727
108
109.313
108.568
106.563
104.654
104.226
104.483
105.271
106.248
106.525
106.143
105.361
104.354
103.55
102.855
102.206
101.443
100.539
99.5483
98.5316
97.5051
96.453
95.3572
94.2228
93.0599
91.8774
90.6765
89.4584
88.2263
86.9847
85.7377
84.4886
83.2402
81.9963
80.7603
79.5356
78.3255
77.1332
75.9619
74.8145
73.6936
72.6015
71.5412
70.5154
69.5262
68.5758
67.667
66.8019
65.9824
65.2085
64.4817
63.8042
63.179
62.6072
62.0883
61.6221
61.2108
60.8566
60.5604
60.3223
60.1419
60.0227
59.9733
59.9688
60.0181
60.1339
60.3169
60.566
60.8769
61.249
61.6796
115.88
129.677
134.233
116.696
117.435
119.988
115.595
101.294
79.2704
76.0205
93.9854
103.622
107.9
109.248
108.542
106.577
104.695
104.261
104.505
105.28
106.243
106.516
106.138
105.36
104.357
103.554
102.858
102.208
101.444
100.541
99.55
98.5334
97.5069
96.4546
95.3588
94.2244
93.0615
91.879
90.6781
89.4599
88.2278
86.9862
85.7393
84.4901
83.2417
81.9978
80.7617
79.537
78.3269
77.1346
75.9633
74.8159
73.6949
72.6029
71.5426
70.5168
69.5275
68.5771
67.6683
66.8032
65.9837
65.2097
64.483
63.8054
63.1803
62.6084
62.0895
61.6233
61.212
60.8578
60.5616
60.3235
60.143
60.0238
59.9745
59.97
60.0193
60.1351
60.318
60.5671
60.8781
61.2502
61.6808
115.851
129.095
133.351
116.552
117.68
120.227
115.992
102.543
80.6464
77.2971
94.0082
103.512
107.787
109.172
108.512
106.594
104.744
104.304
104.533
105.291
106.237
106.506
106.132
105.359
104.361
103.559
102.862
102.21
101.445
100.542
99.5522
98.5358
97.5091
96.4567
95.3609
94.2265
93.0636
91.8811
90.6802
89.4619
88.2298
86.9882
85.7412
84.492
83.2436
81.9997
80.7636
79.5389
78.3287
77.1365
75.9651
74.8177
73.6967
72.6046
71.5443
70.5185
69.5292
68.5788
67.67
66.8049
65.9853
65.2113
64.4846
63.807
63.1818
62.6099
62.091
61.6248
61.2136
60.8593
60.5631
60.325
60.1446
60.0253
59.976
59.9715
60.0208
60.1366
60.3196
60.5687
60.8796
61.2518
61.6823
115.766
128.345
132.299
116.285
117.867
120.462
116.649
104.034
82.2265
78.7067
94.0769
103.406
107.664
109.087
108.477
106.614
104.802
104.356
104.567
105.305
106.231
106.495
106.126
105.359
104.367
103.565
102.866
102.212
101.447
100.544
99.5549
98.5387
97.5119
96.4594
95.3634
94.2291
93.0662
91.8837
90.6827
89.4645
88.2323
86.9907
85.7437
84.4944
83.246
82.0021
80.766
79.5412
78.331
77.1387
75.9673
74.8199
73.6989
72.6068
71.5465
70.5206
69.5313
68.5809
67.6721
66.8069
65.9873
65.2133
64.4866
63.809
63.1838
62.6119
62.093
61.6267
61.2155
60.8612
60.565
60.3269
60.1464
60.0272
59.9779
59.9734
60.0227
60.1385
60.3215
60.5706
60.8816
61.2537
61.6843
115.614
127.438
131.101
115.887
118.013
120.793
117.561
105.695
83.967
80.2389
94.2163
103.31
107.535
108.992
108.437
106.636
104.87
104.416
104.608
105.323
106.225
106.483
106.118
105.358
104.373
103.572
102.872
102.215
101.449
100.547
99.5582
98.5422
97.5153
96.4626
95.3666
94.2322
93.0694
91.8868
90.6858
89.4675
88.2354
86.9937
85.7467
84.4974
83.2489
82.005
80.7688
79.544
78.3338
77.1415
75.9701
74.8226
73.7016
72.6094
71.5491
70.5232
69.5339
68.5835
67.6746
66.8094
65.9898
65.2158
64.489
63.8114
63.1862
62.6143
62.0953
61.6291
61.2178
60.8635
60.5673
60.3292
60.1488
60.0296
59.9802
59.9757
60.025
60.1408
60.3238
60.5729
60.8839
61.2561
61.6867
115.371
126.404
129.79
115.351
118.167
121.212
118.655
107.315
85.8592
81.8912
94.4544
103.227
107.403
108.89
108.394
106.662
104.948
104.487
104.656
105.345
106.22
106.47
106.11
105.358
104.381
103.581
102.878
102.219
101.452
100.55
99.5621
98.5464
97.5194
96.4664
95.3703
94.236
93.0732
91.8906
90.6895
89.4712
88.239
86.9973
85.7502
84.5009
83.2524
82.0084
80.7723
79.5474
78.3372
77.1448
75.9734
74.8259
73.7048
72.6126
71.5523
70.5264
69.537
68.5866
67.6777
66.8125
65.9928
65.2188
64.492
63.8144
63.1891
62.6171
62.0982
61.6319
61.2206
60.8663
60.5701
60.332
60.1516
60.0324
59.983
59.9785
60.0278
60.1437
60.3266
60.5758
60.8868
61.259
61.6896
115.017
125.282
128.425
114.686
118.344
121.545
120.035
108.733
87.881
83.6638
94.8117
103.16
107.272
108.781
108.346
106.692
105.036
104.569
104.714
105.374
106.216
106.456
106.101
105.357
104.39
103.591
102.886
102.224
101.455
100.554
99.5667
98.5514
97.5241
96.4708
95.3747
94.2404
93.0776
91.895
90.6939
89.4755
88.2433
87.0016
85.7544
84.5051
83.2566
82.0125
80.7763
79.5515
78.3412
77.1488
75.9773
74.8298
73.7087
72.6165
71.5561
70.5301
69.5407
68.5902
67.6813
66.8161
65.9964
65.2223
64.4955
63.8179
63.1926
62.6206
62.1016
61.6353
61.2241
60.8697
60.5735
60.3354
60.155
60.0358
59.9864
59.9819
60.0312
60.1471
60.33
60.5792
60.8902
61.2625
61.6932
114.554
124.114
127.057
113.921
118.544
121.774
121.857
109.943
89.9976
85.5559
95.3017
103.116
107.146
108.667
108.295
106.726
105.137
104.663
104.782
105.408
106.214
106.441
106.092
105.357
104.4
103.602
102.895
102.229
101.459
100.558
99.5721
98.5571
97.5297
96.4761
95.3798
94.2456
93.0828
91.9001
90.699
89.4806
88.2483
87.0066
85.7594
84.51
83.2614
82.0174
80.7812
79.5562
78.3459
77.1535
75.9819
74.8344
73.7132
72.621
71.5606
70.5346
69.5451
68.5946
67.6857
66.8204
66.0007
65.2266
64.4997
63.8221
63.1968
62.6247
62.1057
61.6394
61.2281
60.8738
60.5776
60.3394
60.159
60.0398
59.9905
59.9859
60.0352
60.1511
60.3341
60.5833
60.8944
61.2666
61.6974
114.003
122.966
125.715
113.116
118.614
122.1
123.915
111.045
92.1713
87.5621
95.9383
103.096
107.042
108.551
108.244
106.766
105.251
104.77
104.861
105.45
106.213
106.426
106.081
105.356
104.411
103.616
102.906
102.236
101.464
100.564
99.5784
98.5638
97.5361
96.4822
95.3858
94.2516
93.0889
91.9062
90.7049
89.4865
88.2542
87.0124
85.7652
84.5158
83.2672
82.023
80.7868
79.5618
78.3515
77.159
75.9874
74.8398
73.7186
72.6263
71.5659
70.5398
69.5503
68.5998
67.6908
66.8255
66.0057
65.2316
64.5047
63.827
63.2017
62.6296
62.1106
61.6443
61.2329
60.8786
60.5824
60.3442
60.1638
60.0446
59.9953
59.9907
60.04
60.156
60.339
60.5882
60.8993
61.2716
61.7024
113.417
121.912
124.378
112.343
118.394
122.722
125.75
112.175
94.3838
89.6675
96.7344
103.117
106.964
108.438
108.194
106.814
105.379
104.893
104.954
105.501
106.216
106.41
106.071
105.356
104.425
103.631
102.918
102.244
101.469
100.57
99.5857
98.5716
97.5436
96.4892
95.3928
94.2586
93.0959
91.9131
90.7118
89.4933
88.261
87.0192
85.772
84.5225
83.2738
82.0297
80.7934
79.5684
78.358
77.1655
75.9938
74.8462
73.7249
72.6326
71.5721
70.546
69.5565
68.6059
67.6969
66.8315
66.0117
65.2375
64.5106
63.8329
63.2075
62.6354
62.1164
61.65
61.2387
60.8843
60.5881
60.3499
60.1695
60.0503
60.001
59.9964
60.0457
60.1617
60.3447
60.594
60.9052
61.2775
61.7084
112.868
121.004
123.247
111.673
117.981
123.513
126.892
113.326
96.6414
91.8517
97.6852
103.228
106.905
108.335
108.15
106.872
105.522
105.032
105.061
105.561
106.222
106.396
106.06
105.357
104.44
103.649
102.933
102.253
101.476
100.577
99.5941
98.5806
97.5523
96.4974
95.4008
94.2667
93.1041
91.9212
90.7199
89.5013
88.269
87.0271
85.7798
84.5303
83.2816
82.0374
80.8011
79.5761
78.3656
77.173
76.0014
74.8537
73.7324
72.64
71.5794
70.5533
69.5637
68.6131
67.704
66.8386
66.0187
65.2445
64.5175
63.8398
63.2144
62.6422
62.1231
61.6568
61.2454
60.891
60.5948
60.3566
60.1762
60.057
60.0077
112.434
120.291
122.656
111.219
117.517
124.33
127.522
114.447
98.9539
94.1105
98.757
103.471
106.867
108.25
108.115
106.943
105.683
105.189
105.183
105.632
106.233
106.383
106.049
105.358
104.457
103.669
102.95
102.264
101.484
100.585
99.6038
98.591
97.5624
96.5069
95.4101
94.276
93.1135
91.9306
90.7292
89.5106
88.2782
87.0363
85.789
84.5394
83.2907
82.0465
80.8101
79.585
78.3745
77.1819
76.0102
74.8624
73.7411
72.6486
71.588
70.5618
69.5722
68.6215
67.7124
66.8469
66.027
65.2527
64.5257
63.8479
63.2224
62.6503
62.1311
61.6647
61.2533
60.8989
60.6027
60.3645
60.1841
60.065
60.0156
112.209
119.85
122.781
111.052
117.229
125.66
128.027
115.528
101.319
96.4426
99.9273
103.864
106.864
108.193
108.098
107.03
105.863
105.365
105.323
105.715
106.25
106.372
106.04
105.36
104.478
103.692
102.969
102.276
101.493
100.595
99.6151
98.6029
97.574
96.5179
95.4209
94.2869
93.1244
91.9415
90.74
89.5213
88.2889
87.047
85.7997
84.55
83.3013
82.057
80.8206
79.5955
78.3849
77.1922
76.0204
74.8726
73.7512
72.6587
71.598
70.5718
69.5821
68.6314
67.7222
66.8567
66.0367
65.2623
64.5353
63.8574
63.2319
62.6597
62.1405
61.6741
61.2627
60.9082
60.612
60.3738
60.1934
60.0743
60.0249
112.316
119.796
123.703
111.301
117.543
127.682
128.397
116.621
103.718
98.8254
101.2
104.391
106.936
108.176
108.104
107.138
106.063
105.562
105.483
105.812
106.275
106.365
106.032
105.365
104.501
103.718
102.992
102.291
101.504
100.606
99.6282
98.6168
97.5874
96.5307
95.4334
94.2994
93.137
91.9541
90.7525
89.5338
88.3013
87.0594
85.812
84.5624
83.3136
82.0692
80.8328
79.6076
78.397
77.2043
76.0324
74.8845
73.7631
72.6705
71.6098
70.5835
69.5937
68.6429
67.7337
66.8681
66.048
65.2736
64.5465
63.8686
63.243
62.6707
62.1515
61.685
61.2736
60.9192
60.6229
60.3847
60.2043
60.0852
60.0357
112.981
120.365
125.489
112.351
118.865
129.711
128.664
117.747
106.128
101.236
102.585
105.026
107.122
108.211
108.144
107.272
106.286
105.782
105.663
105.925
106.31
106.363
106.028
105.372
104.527
103.748
103.017
102.309
101.517
100.619
99.6433
98.6327
97.6029
96.5454
95.4478
94.3139
93.1516
91.9687
90.7669
89.5482
88.3157
87.0738
85.8263
84.5766
83.3278
82.0834
80.847
79.6217
78.4111
77.2183
76.0464
74.8984
73.7769
72.6843
71.6235
70.5971
69.6073
68.6564
67.7471
66.8814
66.0613
65.2868
64.5596
63.8817
63.256
62.6837
62.1644
61.6979
61.2864
60.932
60.6356
60.3975
60.2171
60.098
60.0485
114.451
121.914
128.328
114.735
121.25
131.41
129.093
118.927
108.529
103.656
104.087
105.778
107.427
108.314
108.23
107.439
106.534
106.027
105.866
106.056
106.358
106.37
106.028
105.383
104.558
103.782
103.047
102.33
101.533
100.635
99.6608
98.651
97.6207
96.5623
95.4645
94.3306
93.1684
91.9854
90.7836
89.5648
88.3324
87.0904
85.8429
84.5932
83.3443
82.0999
80.8634
79.6381
78.4275
77.2346
76.0626
74.9146
73.793
72.7003
71.6394
70.613
69.6231
68.6721
67.7627
66.897
66.0767
65.3022
64.5749
63.8969
63.2712
62.6988
62.1794
61.7129
61.3014
60.9469
60.6506
60.4125
60.2321
60.113
60.0634
117.047
124.746
132.376
118.844
124.574
133.074
129.628
120.209
110.902
106.065
105.696
106.666
107.847
108.502
108.374
107.646
106.812
106.299
106.094
106.207
106.421
106.386
106.034
105.399
104.593
103.821
103.081
102.354
101.552
100.654
99.6811
98.6721
97.6413
96.5819
95.4837
94.3499
93.1878
92.0048
90.8029
89.5841
88.3516
87.1096
85.8621
84.6124
83.3635
82.1191
80.8825
79.6572
78.4465
77.2535
76.0815
74.9334
73.8117
72.7189
71.658
70.6314
69.6415
68.6905
67.7809
66.9151
66.0948
65.3201
64.5928
63.9147
63.289
62.7164
62.197
61.7305
61.3189
60.9644
60.6681
60.4299
60.2496
60.1305
60.0808
121.098
129.024
137.705
124.757
129.072
134.95
130.211
121.658
113.24
108.449
107.397
107.692
108.393
108.79
108.589
107.902
107.124
106.601
106.349
106.381
106.502
106.416
106.049
105.421
104.634
103.866
103.12
102.383
101.575
100.676
99.7046
98.6964
97.6649
96.6045
95.5059
94.3721
93.2102
92.0271
90.8251
89.6062
88.3738
87.1318
85.8843
84.6345
83.3856
82.1412
80.9046
79.6793
78.4685
77.2755
76.1034
74.9552
73.8334
72.7406
71.6796
70.6529
69.6629
68.7118
67.8022
66.9362
66.1158
65.341
64.6136
63.9355
63.3096
62.737
62.2175
61.7509
61.3394
60.9848
60.6885
60.4503
60.27
60.1509
60.1011
126.676
134.851
144.118
132.232
134.635
137.047
131.102
123.287
115.541
110.799
109.172
108.85
109.073
109.191
108.889
108.216
107.474
106.936
106.633
106.579
106.605
106.462
106.076
105.452
104.682
103.916
103.165
102.417
101.602
100.701
99.7318
98.7243
97.6921
96.6306
95.5315
94.3977
93.2359
92.0528
90.8507
89.6318
88.3993
87.1574
85.9099
84.6601
83.4112
82.1668
80.9302
79.7048
78.494
77.301
76.1288
74.9805
73.8587
72.7658
71.7046
70.6779
69.6878
68.7366
67.8269
66.9608
66.1403
65.3654
64.6379
63.9597
63.3337
62.761
62.2414
61.7748
61.3632
61.0086
60.7122
60.4741
60.2938
60.1747
60.1248
133.587
142.212
151.463
140.539
140.511
139.238
132.414
125.069
117.812
113.108
111
110.128
109.891
109.715
109.285
108.598
107.87
107.307
106.949
106.806
106.734
106.529
106.117
105.494
104.737
103.974
103.217
102.456
101.634
100.732
99.7633
98.7565
97.7234
96.6606
95.5609
94.4271
93.2655
92.0823
90.8802
89.6612
88.4288
87.1869
85.9395
84.6897
83.4408
82.1964
80.9598
79.7344
78.5236
77.3305
76.1583
75.0099
73.888
72.795
71.7338
70.707
69.7167
68.7654
67.8556
66.9894
66.1687
65.3937
64.6661
63.9879
63.3618
62.789
62.2693
61.8026
61.391
61.0363
60.7399
60.5018
60.3215
60.2025
60.1525
141.363
150.599
159.728
149.009
146.365
141.575
134.087
126.965
120.054
115.371
112.865
111.511
110.843
110.369
109.787
109.055
108.317
107.72
107.3
107.064
106.893
106.621
106.176
105.549
104.803
104.04
103.276
102.503
101.672
100.767
99.7998
98.7934
97.7594
96.6951
95.5948
94.461
93.2994
92.1162
90.914
89.6951
88.4627
87.2209
85.9735
84.7238
83.4749
82.2305
80.994
79.7686
78.5578
77.3646
76.1924
75.0439
73.9219
72.8288
71.7675
70.7406
69.7503
68.7989
67.8889
67.0226
66.2018
65.4267
64.699
64.0206
63.3944
62.8215
62.3017
61.8349
61.4233
61.0686
60.7722
60.5341
60.3538
60.2348
60.1847
149.378
159.369
167.852
157.21
151.764
144.08
136.012
128.936
122.265
117.581
114.746
112.979
111.919
111.151
110.4
109.596
108.822
108.177
107.688
107.356
107.085
106.741
106.258
105.622
104.881
104.116
103.343
102.557
101.718
100.81
99.8422
98.8358
97.8006
96.7349
95.6338
94.4999
93.3384
92.1552
90.9529
89.734
88.5017
87.26
86.0127
84.763
83.5143
82.2699
81.0334
79.8081
78.5973
77.4041
76.2318
75.0833
73.9612
72.868
71.8067
70.7797
69.7892
68.8377
67.9276
67.0612
66.2401
65.4649
64.7371
64.0586
63.4323
62.8592
62.3393
61.8725
61.4608
61.1061
60.8097
60.5716
60.3914
60.2724
60.2222
156.685
167.564
174.018
164.007
156.372
146.551
138.094
130.94
124.436
119.73
116.625
114.511
113.101
112.054
111.122
110.221
109.389
108.683
108.116
107.686
107.314
106.893
106.366
105.714
104.973
104.204
103.421
102.621
101.771
100.859
99.8913
98.8846
97.848
96.7805
95.6786
94.5444
93.3831
92.1998
90.9975
89.7787
88.5465
87.305
86.0578
84.8082
83.5596
82.3154
81.0789
79.8537
78.6429
77.4497
76.2774
75.1288
74.0067
72.9134
71.852
70.8248
69.8343
68.8826
67.9724
67.1059
66.2847
65.5093
64.7813
64.1027
63.4763
62.9031
62.383
61.9162
61.5044
61.1497
60.8533
60.6153
60.435
60.316
162.599
174.045
177.525
168.844
159.848
148.795
140.201
132.928
126.548
121.806
118.482
116.079
114.367
113.062
111.947
110.931
110.02
109.238
108.586
108.055
107.582
107.082
106.505
105.83
105.082
104.305
103.511
102.696
101.835
100.917
99.948
98.9404
97.9022
96.8329
95.73
94.5955
93.4342
92.2509
91.0486
89.8298
88.5979
87.3565
86.1095
84.8601
83.6117
82.3676
81.1313
79.9062
78.6954
77.5023
76.33
75.1814
74.0592
72.9659
71.9044
70.8771
69.8865
68.9347
68.0244
67.1576
66.3362
65.5607
64.8326
64.1539
63.5273
62.9539
62.4338
61.9669
61.5551
61.2003
60.9039
60.6659
60.4857
60.3668
166.861
178.398
178.992
171.96
161.923
150.754
142.2
134.843
128.566
123.791
120.294
117.656
115.688
114.152
112.859
111.718
110.712
109.843
109.099
108.466
107.892
107.31
106.677
105.973
105.212
104.422
103.614
102.783
101.91
100.986
100.014
99.0044
97.9642
96.8929
95.7888
94.6539
93.4926
92.3093
91.107
89.8883
88.6566
87.4156
86.1688
84.9197
83.6715
82.4277
81.1916
79.9666
78.756
77.563
76.3906
75.2421
74.1198
73.0265
71.9649
70.9376
69.9468
68.995
68.0845
67.2176
66.396
65.6203
64.8921
64.2133
63.5865
63.0129
62.4927
62.0257
61.6139
61.259
60.9626
60.7247
60.5445
60.4256
169.473
180.774
179.465
173.76
162.983
152.426
143.972
136.627
130.458
125.663
122.036
119.214
117.035
115.297
113.837
112.567
111.457
110.492
109.651
108.916
108.243
107.578
106.885
106.145
105.363
104.557
103.732
102.883
101.997
101.065
100.089
99.0775
98.0347
96.9612
95.8558
94.7205
93.5591
92.3758
91.1735
89.9551
88.7237
87.4831
86.2367
84.9879
83.74
82.4965
81.2608
80.036
78.8256
77.6327
76.4605
75.312
74.1897
73.0964
72.0348
71.0074
70.0165
69.0646
68.154
67.2869
66.4651
65.6892
64.9609
64.2819
63.655
63.0813
62.5608
62.0938
61.682
61.3271
61.0307
60.7929
60.6127
60.4939
170.679
181.35
178.892
174.318
163.397
153.675
145.427
138.218
132.182
127.394
123.678
120.72
118.373
116.465
114.855
113.46
112.242
111.178
110.239
109.403
108.634
107.886
107.13
106.348
105.539
104.711
103.867
102.999
102.098
101.157
100.176
99.1606
98.1149
97.0388
95.9319
94.796
93.6346
92.4513
91.2492
90.0311
88.8002
87.56
86.3141
85.0658
83.8185
82.5754
81.3401
80.1157
78.9056
77.7129
76.5409
75.3924
74.2702
73.177
72.1153
71.0879
70.097
69.145
68.2342
67.367
66.545
65.769
65.0405
64.3614
63.7343
63.1604
62.6398
62.1727
61.7609
61.4059
61.1096
60.8719
60.6918
60.573
170.884
180.293
177.278
173.65
163.279
154.417
146.523
139.562
133.696
128.953
125.191
122.139
119.664
117.618
115.879
114.369
113.048
111.886
110.85
109.918
109.057
108.229
107.409
106.581
105.739
104.886
104.019
103.131
102.214
101.262
100.274
99.2548
98.2054
97.1265
96.0179
94.8814
93.7198
92.5367
91.3349
90.1173
88.887
87.6475
86.4023
85.1547
83.908
82.6656
81.4308
80.2069
78.9972
77.8049
76.6331
75.4848
74.3628
73.2696
72.2081
71.1807
70.1897
69.2376
68.3268
67.4594
66.6372
65.861
65.1324
64.4532
63.8259
63.2518
62.7311
62.264
61.8521
61.4972
61.2009
60.9633
60.7833
60.6646
170.382
178.262
175.033
172.133
162.697
154.686
147.243
140.615
134.965
130.309
126.544
123.437
120.871
118.719
116.873
115.264
113.849
112.595
111.47
110.449
109.502
108.599
107.717
106.841
105.963
105.081
104.188
103.279
102.345
101.381
100.385
99.3603
98.3068
97.2248
96.1144
94.9771
93.8155
92.6327
91.4314
90.2145
88.985
87.7465
86.5022
85.2555
84.0097
82.7682
81.5342
80.311
79.1019
77.9101
76.7387
75.5907
74.469
73.376
72.3146
71.2873
70.2963
69.3442
68.4333
67.5658
66.7435
65.9671
65.2383
64.559
63.9316
63.3573
62.8364
62.3693
61.9575
61.6026
61.3064
61.069
60.8891
60.7705
169.303
175.981
172.424
170.153
161.666
154.523
147.582
141.35
135.957
131.431
127.702
124.577
121.956
119.729
117.802
116.112
114.616
113.283
112.078
110.978
109.956
108.984
108.044
107.122
106.206
105.292
104.372
103.441
102.489
101.512
100.508
99.4771
98.419
97.3338
96.2215
95.0835
93.922
92.7397
91.5393
90.3235
89.0952
87.858
86.615
85.3696
84.125
82.8846
81.6517
80.4295
79.2212
78.0301
76.8593
75.7118
74.5905
73.4978
72.4367
71.4095
70.4187
69.4667
68.5558
67.6882
66.8657
66.0892
65.3603
64.681
64.0534
63.4789
62.9579
62.4908
62.079
61.7241
61.4281
61.1908
61.0111
60.8926
167.712
173.417
169.715
167.939
160.28
153.964
147.548
141.752
136.649
132.292
128.634
125.528
122.885
120.612
118.628
116.877
115.319
113.921
112.65
111.484
110.398
109.367
108.376
107.41
106.458
105.513
104.567
103.613
102.644
101.654
100.641
99.6039
98.5411
97.4527
96.3387
95.2002
94.039
92.8577
91.6586
90.4444
89.218
87.9825
86.7413
85.4977
84.2548
83.016
81.7845
80.5637
79.3566
78.1665
76.9965
75.8497
74.729
73.6368
72.5761
71.5493
70.5587
69.6068
68.696
67.8284
67.0058
66.2293
65.5003
64.8208
64.1931
63.6185
63.0974
62.6304
62.2186
61.8637
61.5678
61.3309
61.1513
61.033
165.74
170.574
167.132
165.494
158.657
153.048
147.156
141.813
137.024
132.867
129.313
126.257
123.624
121.333
119.317
117.528
115.926
114.479
113.158
111.941
110.804
109.726
108.692
107.689
106.706
105.734
104.764
103.789
102.803
101.801
100.78
99.7366
98.67
97.5789
96.4638
95.3254
94.1653
92.9856
91.7887
90.5769
89.3531
88.1202
86.8815
85.6403
84.3997
83.1632
81.9337
80.7147
79.5092
78.3205
77.1517
76.006
74.8861
73.7948
72.7347
71.7084
70.7182
69.7667
68.856
67.9885
67.1659
66.3894
65.6604
64.9809
64.3531
63.7784
63.2573
62.7904
62.3787
62.0237
61.7281
61.4916
61.3124
61.1942
163.522
167.754
164.611
162.811
156.835
151.808
146.433
141.539
137.08
133.146
129.722
126.746
124.151
121.867
119.842
118.032
116.404
114.927
113.573
112.32
111.148
110.036
108.971
107.939
106.931
105.936
104.947
103.956
102.957
101.945
100.917
99.8694
98.8005
97.7086
96.5935
95.4564
94.2984
93.1216
91.9279
90.7197
89.4997
88.2706
87.0354
85.7975
84.5602
83.3266
82.0998
80.8833
79.68
78.4932
77.3261
76.1818
75.0632
73.973
72.9138
71.8883
70.8987
69.9476
69.0373
68.1701
67.3475
66.571
65.8421
65.1626
64.5348
63.96
63.4389
62.972
62.5603
62.2054
61.9101
61.6741
61.4952
61.3767
161.041
164.9
161.976
159.933
154.792
150.275
145.409
140.945
136.812
133.111
129.839
126.966
124.43
122.178
120.167
118.361
116.728
115.239
113.87
112.599
111.406
110.271
109.183
108.132
107.107
106.099
105.098
104.097
103.09
102.072
101.04
99.9911
98.9226
97.8324
96.7202
95.5862
94.4323
93.2603
92.0718
90.869
89.6542
88.4304
87.2004
85.9672
84.7342
83.5046
82.2817
81.0685
79.8684
78.6844
77.5197
76.3776
75.2609
74.1723
73.1145
72.09
71.1014
70.1511
69.2414
68.3745
67.5523
66.776
66.0472
65.3679
64.7401
64.1653
63.6441
63.1773
62.7655
62.4107
62.1158
61.8803
61.7012
61.5821
158.521
161.774
159.217
156.916
152.536
148.491
144.118
140.054
136.241
132.785
129.69
126.943
124.49
122.289
120.308
118.519
116.892
115.402
114.028
112.748
111.546
110.404
109.31
108.251
107.218
106.203
105.196
104.192
103.183
102.164
101.134
100.087
99.0228
97.9389
96.8336
95.7071
94.5609
93.3968
92.2163
91.0214
89.8145
88.5981
87.3753
86.1488
84.9219
83.6978
82.48
81.2714
80.0755
78.8953
77.734
76.5948
75.4806
74.3942
73.3383
72.3154
71.3281
70.3788
69.47
68.6038
67.7819
67.006
66.2775
65.5984
64.9707
64.3959
63.8748
63.408
62.9964
62.6418
62.3474
62.1123
61.9333
61.8135
156.179
158.574
156.384
153.839
150.135
146.509
142.593
138.897
135.399
132.203
129.307
126.704
124.354
122.221
120.285
118.524
116.912
115.43
114.056
112.775
111.569
110.425
109.329
108.269
107.236
106.222
105.218
104.218
103.215
102.205
101.182
100.144
99.0898
98.0168
96.9239
95.81
94.676
93.5237
92.3549
91.1713
89.9752
88.7692
87.5562
86.3389
85.1204
83.9039
82.6929
81.4906
80.3003
79.1252
77.9685
76.8333
75.7225
74.6391
73.5858
72.5652
71.5798
70.6321
69.7246
68.8594
68.0383
67.263
66.535
65.8564
65.2291
64.6545
64.1336
63.667
63.2556
62.9015
62.6076
62.3731
62.1942
62.0737
153.824
155.459
153.468
150.784
147.647
144.373
140.861
137.501
134.315
131.384
128.695
126.244
124.006
121.955
120.077
118.355
116.771
115.305
113.942
112.666
111.464
110.323
109.23
108.175
107.148
106.141
105.147
104.158
103.169
102.173
101.166
100.144
99.1067
98.0511
96.9763
95.8811
94.7653
93.6302
92.4777
91.3099
90.129
88.9372
87.7374
86.5326
85.3256
84.1197
82.918
81.7243
80.5416
79.3734
78.2228
77.0931
75.9871
74.9079
73.8582
72.8407
71.8581
70.9127
70.0071
69.1435
68.3237
67.5495
66.8225
66.1447
65.518
64.944
64.4235
63.9573
63.5464
63.193
62.9
62.6662
62.4875
62.3664
151.387
152.33
150.499
147.729
145.077
142.109
138.949
135.903
133.018
130.341
127.858
125.561
123.441
121.481
119.673
118.002
116.455
115.017
113.674
112.413
111.222