/*--------------------------------*- C++ -*----------------------------------*\
| =========                 |                                                 |
| \\      /  F ield         | OpenFOAM: The Open Source CFD Toolbox           |
|  \\    /   O peration     | Version:  2412                                  |
|   \\  /    A nd           | Website:  www.openfoam.com                      |
|    \\/     M anipulation  |                                                 |
\*---------------------------------------------------------------------------*/
FoamFile
{
    version     2.0;
    format      ascii;
    arch        "LSB;label=32;scalar=64";
    class       volScalarField;
    location    "420";
    object      nuTilda;
}
// * * * * * * * * * * * * * * * * * * * * * * * * * * * * * * * * * * * * * //

dimensions      [0 2 -1 0 0 0 0];

internalField   nonuniform List<scalar> 
8637
(
1.54967e-06
1.5535e-06
1.55741e-06
1.5617e-06
1.56576e-06
1.56987e-06
1.57402e-06
1.57822e-06
1.58243e-06
1.58667e-06
1.59098e-06
1.59532e-06
1.59966e-06
1.60396e-06
1.6083e-06
1.61266e-06
1.61701e-06
1.62132e-06
1.62561e-06
1.62988e-06
1.63413e-06
1.63832e-06
1.64244e-06
1.6465e-06
1.65049e-06
1.65441e-06
1.65823e-06
1.66192e-06
1.66549e-06
1.66893e-06
1.67223e-06
1.67536e-06
1.67836e-06
1.68113e-06
1.68368e-06
1.68602e-06
1.68813e-06
1.69002e-06
1.69165e-06
1.69297e-06
1.69399e-06
1.6947e-06
1.69515e-06
1.69534e-06
1.69519e-06
1.69463e-06
1.69373e-06
1.69259e-06
1.69117e-06
1.68936e-06
1.68716e-06
1.68463e-06
1.68191e-06
1.67892e-06
1.6755e-06
1.67173e-06
1.66774e-06
1.66355e-06
1.65901e-06
1.65411e-06
1.64899e-06
1.64367e-06
1.638e-06
1.63199e-06
1.62573e-06
1.61929e-06
1.61245e-06
1.60527e-06
1.59787e-06
1.59015e-06
1.58201e-06
1.57354e-06
1.56472e-06
1.55543e-06
1.54562e-06
1.53532e-06
1.52432e-06
1.51243e-06
1.49956e-06
1.4853e-06
1.46923e-06
1.45068e-06
1.42862e-06
1.40165e-06
1.36737e-06
1.32234e-06
1.26083e-06
1.17369e-06
4.85082e-06
4.8635e-06
4.87639e-06
4.89054e-06
4.9038e-06
4.91721e-06
4.93073e-06
4.94437e-06
4.95803e-06
4.9718e-06
4.98567e-06
4.99961e-06
5.01351e-06
5.02736e-06
5.04124e-06
5.05509e-06
5.06887e-06
5.08257e-06
5.09614e-06
5.10957e-06
5.12288e-06
5.136e-06
5.14888e-06
5.1615e-06
5.17386e-06
5.18593e-06
5.19764e-06
5.20894e-06
5.21981e-06
5.23024e-06
5.24019e-06
5.2496e-06
5.25846e-06
5.26657e-06
5.27402e-06
5.28073e-06
5.28676e-06
5.29206e-06
5.29645e-06
5.29988e-06
5.30233e-06
5.30381e-06
5.30447e-06
5.30428e-06
5.30299e-06
5.3004e-06
5.29675e-06
5.29231e-06
5.28703e-06
5.28053e-06
5.27274e-06
5.26397e-06
5.25456e-06
5.2443e-06
5.23273e-06
5.22004e-06
5.20666e-06
5.19269e-06
5.17759e-06
5.16131e-06
5.14433e-06
5.12674e-06
5.10805e-06
5.08825e-06
5.06766e-06
5.04643e-06
5.02398e-06
5.00043e-06
4.97613e-06
4.95082e-06
4.92418e-06
4.89641e-06
4.86754e-06
4.83714e-06
4.80509e-06
4.77137e-06
4.73531e-06
4.69644e-06
4.65436e-06
4.60777e-06
4.55528e-06
4.49473e-06
4.42293e-06
4.3353e-06
4.22427e-06
4.07906e-06
3.88177e-06
3.60453e-06
8.57805e-06
8.60235e-06
8.62693e-06
8.65398e-06
8.67905e-06
8.70432e-06
8.72972e-06
8.75522e-06
8.78075e-06
8.80637e-06
8.83205e-06
8.85771e-06
8.88324e-06
8.90864e-06
8.93399e-06
8.95914e-06
8.98406e-06
9.00874e-06
9.03312e-06
9.05712e-06
9.08076e-06
9.10396e-06
9.12665e-06
9.14876e-06
9.1703e-06
9.19118e-06
9.21128e-06
9.23056e-06
9.24901e-06
9.26654e-06
9.28308e-06
9.29861e-06
9.31296e-06
9.32597e-06
9.33766e-06
9.34794e-06
9.35692e-06
9.36451e-06
9.3705e-06
9.37464e-06
9.37691e-06
9.37746e-06
9.37652e-06
9.37399e-06
9.36944e-06
9.36258e-06
9.3538e-06
9.34359e-06
9.33187e-06
9.318e-06
9.30179e-06
9.28388e-06
9.26474e-06
9.24414e-06
9.2212e-06
9.19628e-06
9.17015e-06
9.14286e-06
9.11355e-06
9.0822e-06
9.04953e-06
9.01572e-06
8.97991e-06
8.94207e-06
8.9028e-06
8.8622e-06
8.81946e-06
8.7747e-06
8.72845e-06
8.68029e-06
8.62967e-06
8.57693e-06
8.52203e-06
8.46424e-06
8.40338e-06
8.33924e-06
8.2707e-06
8.19689e-06
8.11691e-06
8.02842e-06
7.92883e-06
7.8142e-06
7.6787e-06
7.51398e-06
7.30663e-06
7.03762e-06
6.67613e-06
6.17546e-06
1.27837e-05
1.28235e-05
1.28637e-05
1.29082e-05
1.29487e-05
1.29894e-05
1.30302e-05
1.30709e-05
1.31115e-05
1.31521e-05
1.31925e-05
1.32327e-05
1.32725e-05
1.3312e-05
1.33512e-05
1.33899e-05
1.3428e-05
1.34655e-05
1.35023e-05
1.35384e-05
1.35736e-05
1.3608e-05
1.36414e-05
1.36738e-05
1.37051e-05
1.37351e-05
1.37637e-05
1.37909e-05
1.38166e-05
1.38407e-05
1.38631e-05
1.38838e-05
1.39025e-05
1.39191e-05
1.39333e-05
1.39453e-05
1.39552e-05
1.39629e-05
1.39681e-05
1.39703e-05
1.39695e-05
1.39661e-05
1.39604e-05
1.39522e-05
1.39408e-05
1.3926e-05
1.39082e-05
1.38883e-05
1.38661e-05
1.38406e-05
1.38116e-05
1.37801e-05
1.37467e-05
1.37111e-05
1.3672e-05
1.36299e-05
1.3586e-05
1.35402e-05
1.34914e-05
1.34396e-05
1.33857e-05
1.33299e-05
1.3271e-05
1.32091e-05
1.31448e-05
1.30784e-05
1.30086e-05
1.29356e-05
1.28601e-05
1.27816e-05
1.26991e-05
1.26132e-05
1.25237e-05
1.24295e-05
1.23304e-05
1.22259e-05
1.21142e-05
1.1994e-05
1.18637e-05
1.17197e-05
1.1558e-05
1.13723e-05
1.11538e-05
1.08898e-05
1.05603e-05
1.01376e-05
9.57771e-06
8.81642e-06
1.75289e-05
1.75895e-05
1.76504e-05
1.77183e-05
1.77791e-05
1.78397e-05
1.79001e-05
1.79602e-05
1.80199e-05
1.80792e-05
1.81379e-05
1.8196e-05
1.82533e-05
1.83097e-05
1.83653e-05
1.84199e-05
1.84733e-05
1.85254e-05
1.85763e-05
1.86258e-05
1.86738e-05
1.87202e-05
1.87649e-05
1.88078e-05
1.88487e-05
1.88875e-05
1.89241e-05
1.89583e-05
1.89901e-05
1.90194e-05
1.9046e-05
1.90698e-05
1.90907e-05
1.91081e-05
1.91221e-05
1.91327e-05
1.91401e-05
1.91443e-05
1.91448e-05
1.91408e-05
1.91326e-05
1.91207e-05
1.91054e-05
1.90866e-05
1.90633e-05
1.90351e-05
1.90028e-05
1.89676e-05
1.89291e-05
1.88861e-05
1.88383e-05
1.8787e-05
1.87332e-05
1.86761e-05
1.86143e-05
1.85485e-05
1.848e-05
1.84088e-05
1.83334e-05
1.82538e-05
1.81711e-05
1.80857e-05
1.79959e-05
1.79017e-05
1.78041e-05
1.77031e-05
1.75973e-05
1.74868e-05
1.73724e-05
1.72533e-05
1.71286e-05
1.69986e-05
1.68631e-05
1.67206e-05
1.65706e-05
1.64123e-05
1.62433e-05
1.60617e-05
1.58648e-05
1.56477e-05
1.54044e-05
1.51261e-05
1.48006e-05
1.44102e-05
1.39281e-05
1.33178e-05
1.25227e-05
1.14633e-05
2.28811e-05
2.29689e-05
2.30568e-05
2.31558e-05
2.32424e-05
2.33284e-05
2.34136e-05
2.3498e-05
2.35814e-05
2.36636e-05
2.37446e-05
2.38242e-05
2.39022e-05
2.39785e-05
2.40532e-05
2.41259e-05
2.41966e-05
2.42651e-05
2.43313e-05
2.43951e-05
2.44563e-05
2.4515e-05
2.45708e-05
2.46237e-05
2.46734e-05
2.47198e-05
2.47628e-05
2.4802e-05
2.48375e-05
2.48692e-05
2.48969e-05
2.49206e-05
2.49398e-05
2.4954e-05
2.49633e-05
2.49676e-05
2.49676e-05
2.4963e-05
2.49531e-05
2.4937e-05
2.49151e-05
2.48881e-05
2.48567e-05
2.48204e-05
2.47781e-05
2.47292e-05
2.4675e-05
2.46168e-05
2.45544e-05
2.4486e-05
2.44114e-05
2.43323e-05
2.42498e-05
2.4163e-05
2.407e-05
2.39719e-05
2.38701e-05
2.37645e-05
2.36535e-05
2.35368e-05
2.3416e-05
2.3291e-05
2.31602e-05
2.30236e-05
2.28819e-05
2.27352e-05
2.2582e-05
2.24223e-05
2.22567e-05
2.20843e-05
2.19041e-05
2.17163e-05
2.15202e-05
2.13144e-05
2.10977e-05
2.08689e-05
2.06251e-05
2.03634e-05
2.00799e-05
1.97681e-05
1.94198e-05
1.90235e-05
1.85632e-05
1.8016e-05
1.73482e-05
1.65149e-05
1.54474e-05
1.40545e-05
2.89054e-05
2.90279e-05
2.91502e-05
2.92899e-05
2.94088e-05
2.95263e-05
2.96421e-05
2.97561e-05
2.98681e-05
2.99778e-05
3.00853e-05
3.01901e-05
3.02922e-05
3.03915e-05
3.04878e-05
3.05807e-05
3.06703e-05
3.07563e-05
3.08385e-05
3.09167e-05
3.0991e-05
3.10613e-05
3.11272e-05
3.11884e-05
3.1245e-05
3.12965e-05
3.13428e-05
3.13837e-05
3.14191e-05
3.1449e-05
3.14731e-05
3.14915e-05
3.15035e-05
3.15085e-05
3.15065e-05
3.14979e-05
3.14832e-05
3.14623e-05
3.14343e-05
3.1398e-05
3.13539e-05
3.13032e-05
3.12466e-05
3.11838e-05
3.11131e-05
3.1034e-05
3.09483e-05
3.08574e-05
3.07611e-05
3.06574e-05
3.05459e-05
3.04287e-05
3.03072e-05
3.01802e-05
3.00456e-05
2.99044e-05
2.97585e-05
2.96076e-05
2.94497e-05
2.92847e-05
2.9114e-05
2.89376e-05
2.87537e-05
2.8562e-05
2.83634e-05
2.81577e-05
2.79433e-05
2.77201e-05
2.74886e-05
2.72477e-05
2.69962e-05
2.6734e-05
2.64603e-05
2.61731e-05
2.58711e-05
2.55522e-05
2.5213e-05
2.48494e-05
2.44563e-05
2.40253e-05
2.35459e-05
2.30034e-05
2.23783e-05
2.16419e-05
2.07542e-05
1.96622e-05
1.82868e-05
1.65281e-05
3.56474e-05
3.58131e-05
3.59777e-05
3.61699e-05
3.63281e-05
3.64836e-05
3.66362e-05
3.67855e-05
3.69313e-05
3.70733e-05
3.72114e-05
3.73454e-05
3.74749e-05
3.75998e-05
3.77199e-05
3.78349e-05
3.79444e-05
3.80485e-05
3.81468e-05
3.82392e-05
3.83256e-05
3.84058e-05
3.84797e-05
3.85467e-05
3.86068e-05
3.86597e-05
3.87049e-05
3.87424e-05
3.87722e-05
3.87942e-05
3.88083e-05
3.88143e-05
3.88115e-05
3.87991e-05
3.87773e-05
3.87465e-05
3.87077e-05
3.86607e-05
3.86043e-05
3.85371e-05
3.84599e-05
3.83742e-05
3.82811e-05
3.81802e-05
3.80693e-05
3.79481e-05
3.78188e-05
3.76831e-05
3.75407e-05
3.73894e-05
3.72287e-05
3.70612e-05
3.68883e-05
3.67086e-05
3.65198e-05
3.63232e-05
3.61205e-05
3.59114e-05
3.56937e-05
3.54672e-05
3.52334e-05
3.49918e-05
3.47408e-05
3.44799e-05
3.42097e-05
3.39299e-05
3.36389e-05
3.33364e-05
3.30224e-05
3.26959e-05
3.23555e-05
3.20005e-05
3.16301e-05
3.12419e-05
3.08338e-05
3.04033e-05
2.99461e-05
2.94571e-05
2.89295e-05
2.83529e-05
2.77145e-05
2.6996e-05
2.6175e-05
2.52163e-05
2.40746e-05
2.2689e-05
2.09718e-05
1.88198e-05
4.31081e-05
4.33249e-05
4.35397e-05
4.37975e-05
4.40016e-05
4.42014e-05
4.43964e-05
4.45862e-05
4.47707e-05
4.49493e-05
4.5122e-05
4.52884e-05
4.54481e-05
4.5601e-05
4.57467e-05
4.58848e-05
4.60149e-05
4.61371e-05
4.62509e-05
4.63561e-05
4.64527e-05
4.65406e-05
4.66193e-05
4.66883e-05
4.67475e-05
4.67967e-05
4.68353e-05
4.68631e-05
4.68803e-05
4.68867e-05
4.68823e-05
4.68672e-05
4.68402e-05
4.68004e-05
4.6748e-05
4.6684e-05
4.66095e-05
4.65245e-05
4.64274e-05
4.63166e-05
4.61932e-05
4.60593e-05
4.59163e-05
4.57637e-05
4.55991e-05
4.54219e-05
4.52351e-05
4.50408e-05
4.48387e-05
4.4626e-05
4.44025e-05
4.4171e-05
4.3933e-05
4.36871e-05
4.34308e-05
4.31652e-05
4.28921e-05
4.26112e-05
4.232e-05
4.20184e-05
4.17074e-05
4.13865e-05
4.1054e-05
4.07092e-05
4.03524e-05
3.99831e-05
3.95997e-05
3.92014e-05
3.87881e-05
3.83585e-05
3.79111e-05
3.74447e-05
3.69579e-05
3.64483e-05
3.59131e-05
3.53487e-05
3.47503e-05
3.41116e-05
3.34237e-05
3.26745e-05
3.18484e-05
3.09237e-05
2.98751e-05
2.86606e-05
2.72312e-05
2.55185e-05
2.3429e-05
2.08626e-05
5.12254e-05
5.1499e-05
5.17692e-05
5.2105e-05
5.23591e-05
5.26068e-05
5.28477e-05
5.30811e-05
5.33067e-05
5.35242e-05
5.37331e-05
5.39332e-05
5.41241e-05
5.43055e-05
5.44768e-05
5.46374e-05
5.47872e-05
5.49259e-05
5.50531e-05
5.51686e-05
5.52723e-05
5.53642e-05
5.54436e-05
5.55098e-05
5.55628e-05
5.56023e-05
5.56275e-05
5.56384e-05
5.56351e-05
5.56175e-05
5.55858e-05
5.55399e-05
5.54786e-05
5.54007e-05
5.53066e-05
5.51977e-05
5.50756e-05
5.49402e-05
5.47898e-05
5.46224e-05
5.44397e-05
5.42442e-05
5.40378e-05
5.382e-05
5.35881e-05
5.33416e-05
5.30838e-05
5.28175e-05
5.25422e-05
5.22552e-05
5.19559e-05
5.16475e-05
5.13316e-05
5.10068e-05
5.06705e-05
5.03234e-05
4.99674e-05
4.96022e-05
4.92252e-05
4.88359e-05
4.84348e-05
4.80218e-05
4.75947e-05
4.71526e-05
4.66953e-05
4.62224e-05
4.5732e-05
4.52229e-05
4.46945e-05
4.41455e-05
4.3574e-05
4.29782e-05
4.23565e-05
4.17059e-05
4.10227e-05
4.03029e-05
3.95403e-05
3.87274e-05
3.78536e-05
3.69042e-05
3.58615e-05
3.46997e-05
3.33916e-05
3.18878e-05
3.01382e-05
2.80673e-05
2.55797e-05
2.25878e-05
6.09734e-05
6.12777e-05
6.15732e-05
6.18592e-05
6.21353e-05
6.24009e-05
6.26556e-05
6.28989e-05
6.31305e-05
6.33501e-05
6.35572e-05
6.3751e-05
6.39308e-05
6.40964e-05
6.42475e-05
6.43837e-05
6.45048e-05
6.46107e-05
6.47012e-05
6.47755e-05
6.48327e-05
6.48729e-05
6.48957e-05
6.49004e-05
6.48866e-05
6.48546e-05
6.48046e-05
6.47366e-05
6.46507e-05
6.45456e-05
6.44196e-05
6.42736e-05
6.41094e-05
6.39287e-05
6.37321e-05
6.35173e-05
6.32821e-05
6.30286e-05
6.27601e-05
6.24789e-05
6.21847e-05
6.18743e-05
6.15471e-05
6.12073e-05
6.08579e-05
6.04987e-05
6.01267e-05
5.97412e-05
5.93454e-05
5.89413e-05
5.85277e-05
5.81013e-05
5.76628e-05
5.72139e-05
5.67543e-05
5.62816e-05
5.57944e-05
5.52929e-05
5.47771e-05
5.42448e-05
5.36944e-05
5.31251e-05
5.25365e-05
5.19267e-05
5.12937e-05
5.06363e-05
4.99534e-05
4.92425e-05
4.85011e-05
4.77271e-05
4.6917e-05
4.60661e-05
4.51697e-05
4.42205e-05
4.32092e-05
4.21238e-05
4.09464e-05
3.96577e-05
3.82278e-05
3.66282e-05
3.48025e-05
3.27024e-05
3.02459e-05
2.73425e-05
2.39287e-05
7.02844e-05
7.06355e-05
7.09752e-05
7.13026e-05
7.16171e-05
7.19182e-05
7.22053e-05
7.2478e-05
7.2736e-05
7.29789e-05
7.32061e-05
7.34166e-05
7.36094e-05
7.37844e-05
7.39416e-05
7.40801e-05
7.41998e-05
7.43007e-05
7.43826e-05
7.44442e-05
7.44847e-05
7.45042e-05
7.45023e-05
7.44779e-05
7.44309e-05
7.43615e-05
7.427e-05
7.41566e-05
7.40215e-05
7.38632e-05
7.36796e-05
7.34719e-05
7.32425e-05
7.29937e-05
7.27259e-05
7.2437e-05
7.21243e-05
7.17905e-05
7.14393e-05
7.10738e-05
7.06937e-05
7.02957e-05
6.9879e-05
6.94482e-05
6.9007e-05
6.85554e-05
6.80902e-05
6.76103e-05
6.7119e-05
6.66188e-05
6.61085e-05
6.55845e-05
6.50468e-05
6.44971e-05
6.39355e-05
6.33592e-05
6.2766e-05
6.2156e-05
6.15289e-05
6.08826e-05
6.02146e-05
5.95237e-05
5.88094e-05
5.80695e-05
5.73011e-05
5.65026e-05
5.56728e-05
5.48085e-05
5.39062e-05
5.29636e-05
5.19764e-05
5.09386e-05
4.98449e-05
4.86867e-05
4.74528e-05
4.61296e-05
4.4696e-05
4.31314e-05
4.14022e-05
3.94796e-05
3.73009e-05
3.48242e-05
3.19618e-05
2.86372e-05
2.48267e-05
7.99508e-05
8.03436e-05
8.07221e-05
8.10851e-05
8.14319e-05
8.17622e-05
8.20751e-05
8.23703e-05
8.26476e-05
8.29066e-05
8.31465e-05
8.33658e-05
8.35636e-05
8.37399e-05
8.38946e-05
8.40269e-05
8.41366e-05
8.42236e-05
8.42877e-05
8.43276e-05
8.43419e-05
8.4331e-05
8.42947e-05
8.42315e-05
8.41412e-05
8.40244e-05
8.38814e-05
8.37124e-05
8.35178e-05
8.32959e-05
8.30445e-05
8.27651e-05
8.24604e-05
8.21334e-05
8.17847e-05
8.14119e-05
8.10123e-05
8.05889e-05
8.01461e-05
7.96874e-05
7.92129e-05
7.87189e-05
7.82046e-05
7.76751e-05
7.71344e-05
7.65831e-05
7.60175e-05
7.54363e-05
7.48427e-05
7.42396e-05
7.36259e-05
7.29976e-05
7.23541e-05
7.1697e-05
7.10266e-05
7.03397e-05
6.96336e-05
6.89075e-05
6.81616e-05
6.73934e-05
6.65995e-05
6.5778e-05
6.49286e-05
6.40485e-05
6.31338e-05
6.21825e-05
6.11932e-05
6.01616e-05
5.90835e-05
5.7956e-05
5.67739e-05
5.55297e-05
5.42176e-05
5.28274e-05
5.13456e-05
4.97578e-05
4.80391e-05
4.6168e-05
4.41088e-05
4.18327e-05
3.92739e-05
3.64017e-05
3.31242e-05
2.93922e-05
2.52404e-05
8.99185e-05
9.03466e-05
9.07571e-05
9.11484e-05
9.15202e-05
9.18718e-05
9.22024e-05
9.25118e-05
9.27998e-05
9.30661e-05
9.33096e-05
9.35284e-05
9.37214e-05
9.3889e-05
9.40311e-05
9.41469e-05
9.42359e-05
9.42985e-05
9.4334e-05
9.43409e-05
9.43177e-05
9.42651e-05
9.41828e-05
9.40692e-05
9.39241e-05
9.37482e-05
9.35418e-05
9.33054e-05
9.30397e-05
9.27427e-05
9.24121e-05
9.20497e-05
9.16589e-05
9.12428e-05
9.08026e-05
9.03357e-05
8.98394e-05
8.93168e-05
8.87732e-05
8.82125e-05
8.76349e-05
8.70368e-05
8.64172e-05
8.57813e-05
8.5134e-05
8.44758e-05
8.38031e-05
8.31138e-05
8.24115e-05
8.16989e-05
8.09755e-05
8.02365e-05
7.94807e-05
7.87096e-05
7.79237e-05
7.71194e-05
7.6293e-05
7.54434e-05
7.45709e-05
7.36725e-05
7.27438e-05
7.17823e-05
7.07878e-05
6.97568e-05
6.86843e-05
6.75677e-05
6.64053e-05
6.51919e-05
6.39219e-05
6.25921e-05
6.1196e-05
5.97246e-05
5.81714e-05
5.65246e-05
5.47682e-05
5.28872e-05
5.08536e-05
4.86448e-05
4.62264e-05
4.35692e-05
4.06111e-05
3.73361e-05
3.36524e-05
2.95545e-05
2.51591e-05
0.000100153
0.000100609
0.000101043
0.000101454
0.000101841
0.000102205
0.000102543
0.000102857
0.000103145
0.000103408
0.000103644
0.000103851
0.000104027
0.000104174
0.000104292
0.000104379
0.000104435
0.00010446
0.000104454
0.000104415
0.000104341
0.000104233
0.000104091
0.000103914
0.0001037
0.000103452
0.000103169
0.000102852
0.000102502
0.000102117
0.000101694
0.000101236
0.000100747
0.000100231
9.96877e-05
9.91159e-05
9.85125e-05
9.78811e-05
9.72273e-05
9.65556e-05
9.58665e-05
9.51562e-05
9.44234e-05
9.3674e-05
9.29128e-05
9.21409e-05
9.13544e-05
9.05507e-05
8.9733e-05
8.89046e-05
8.8065e-05
8.72088e-05
8.6334e-05
8.54419e-05
8.45334e-05
8.36042e-05
8.26497e-05
8.16683e-05
8.06604e-05
7.96224e-05
7.85489e-05
7.74369e-05
7.6286e-05
7.50917e-05
7.3848e-05
7.2552e-05
7.12011e-05
6.9789e-05
6.83088e-05
6.67568e-05
6.51252e-05
6.34033e-05
6.15836e-05
5.96535e-05
5.75935e-05
5.5389e-05
5.301e-05
5.04327e-05
4.763e-05
4.45704e-05
4.12078e-05
3.75424e-05
3.34885e-05
2.9106e-05
2.46194e-05
0.000110625
0.000111098
0.000111545
0.000111965
0.000112357
0.00011272
0.000113055
0.00011336
0.000113636
0.000113883
0.000114098
0.000114279
0.000114425
0.000114538
0.000114616
0.000114659
0.000114667
0.000114641
0.000114578
0.000114477
0.000114337
0.000114159
0.000113942
0.000113685
0.000113388
0.000113052
0.000112677
0.000112265
0.000111816
0.000111328
0.0001108
0.000110234
0.000109635
0.000109005
0.000108348
0.00010766
0.000106939
0.000106189
0.000105416
0.000104625
0.000103816
0.000102986
0.000102133
0.000101263
0.000100381
9.9489e-05
9.85824e-05
9.76579e-05
9.67187e-05
9.57682e-05
9.48059e-05
9.38258e-05
9.28249e-05
9.18046e-05
9.07657e-05
8.97033e-05
8.86118e-05
8.74893e-05
8.6336e-05
8.51477e-05
8.39177e-05
8.26428e-05
8.13219e-05
7.99498e-05
7.85195e-05
7.7027e-05
7.54693e-05
7.38387e-05
7.21271e-05
7.03297e-05
6.84377e-05
6.64387e-05
6.43237e-05
6.20807e-05
5.9686e-05
5.7126e-05
5.43726e-05
5.13986e-05
4.81959e-05
4.47249e-05
4.09779e-05
3.69645e-05
3.26162e-05
2.80828e-05
2.3726e-05
0.000121298
0.000121776
0.000122222
0.000122637
0.000123019
0.000123368
0.000123683
0.000123965
0.000124214
0.000124429
0.000124608
0.000124747
0.000124846
0.000124907
0.000124929
0.000124912
0.000124855
0.000124759
0.000124623
0.000124443
0.000124219
0.000123953
0.000123644
0.000123291
0.000122893
0.000122452
0.000121969
0.000121446
0.000120883
0.000120279
0.000119631
0.000118943
0.00011822
0.000117466
0.000116683
0.000115869
0.000115021
0.000114143
0.000113242
0.000112323
0.000111387
0.00011043
0.00010945
0.000108454
0.000107445
0.000106427
0.000105395
0.000104344
0.000103277
0.000102199
0.000101107
9.99962e-05
9.88619e-05
9.77057e-05
9.6528e-05
9.53233e-05
9.40848e-05
9.28105e-05
9.15003e-05
9.01489e-05
8.87489e-05
8.72963e-05
8.57897e-05
8.42224e-05
8.25867e-05
8.08777e-05
7.90913e-05
7.72187e-05
7.52507e-05
7.31807e-05
7.09992e-05
6.8693e-05
6.62507e-05
6.36624e-05
6.09011e-05
5.7954e-05
5.48023e-05
5.14118e-05
4.78124e-05
4.39436e-05
3.98742e-05
3.55997e-05
3.10856e-05
2.66021e-05
2.26876e-05
0.000132115
0.000132581
0.000133011
0.000133403
0.000133758
0.000134075
0.000134354
0.000134595
0.000134798
0.000134964
0.000135087
0.000135166
0.000135199
0.000135189
0.000135136
0.00013504
0.000134899
0.000134714
0.000134484
0.000134206
0.000133879
0.000133506
0.000133087
0.000132619
0.000132102
0.000131539
0.000130932
0.000130281
0.000129588
0.000128852
0.000128071
0.000127248
0.000126389
0.000125499
0.00012458
0.00012363
0.000122646
0.000121632
0.000120596
0.000119543
0.000118474
0.000117384
0.000116273
0.000115144
0.000114005
0.000112856
0.000111693
0.00011051
0.00010931
0.000108098
0.000106871
0.000105622
0.000104346
0.000103046
0.00010172
0.000100363
9.8966e-05
9.75277e-05
9.6047e-05
9.45178e-05
9.29316e-05
9.12841e-05
8.95726e-05
8.77895e-05
8.59262e-05
8.3977e-05
8.19358e-05
7.97933e-05
7.75397e-05
7.51653e-05
7.26611e-05
7.00147e-05
6.72107e-05
6.4244e-05
6.10869e-05
5.77263e-05
5.41665e-05
5.03574e-05
4.63997e-05
4.21837e-05
3.79197e-05
3.35299e-05
2.90422e-05
2.49049e-05
2.26014e-05
0.000142995
0.000143431
0.000143823
0.000144174
0.000144481
0.000144746
0.000144968
0.000145147
0.000145285
0.000145379
0.000145427
0.000145423
0.000145368
0.000145266
0.000145117
0.000144919
0.000144673
0.000144378
0.000144034
0.000143637
0.000143187
0.000142686
0.000142136
0.000141534
0.000140881
0.000140179
0.000139429
0.000138634
0.000137797
0.000136915
0.000135988
0.000135018
0.000134013
0.000132976
0.000131912
0.000130818
0.000129691
0.000128536
0.00012736
0.000126167
0.000124961
0.000123734
0.000122487
0.000121223
0.000119949
0.000118665
0.000117367
0.000116047
0.00011471
0.000113358
0.000111989
0.000110594
0.000109169
0.000107715
0.000106231
0.000104709
0.000103141
0.000101524
9.98572e-05
9.81325e-05
9.6341e-05
9.44778e-05
9.2539e-05
9.05153e-05
8.8398e-05
8.61803e-05
8.38537e-05
8.14087e-05
7.88359e-05
7.61216e-05
7.32577e-05
7.02374e-05
6.70384e-05
6.36637e-05
6.00932e-05
5.63075e-05
5.2359e-05
4.81635e-05
4.39449e-05
3.94849e-05
3.52484e-05
3.09605e-05
2.67716e-05
2.41625e-05
2.34641e-05
0.000153827
0.000154208
0.000154541
0.000154826
0.000155064
0.000155253
0.000155394
0.000155489
0.000155537
0.000155537
0.000155484
0.000155375
0.000155209
0.000154992
0.000154723
0.000154401
0.000154027
0.0001536
0.000153118
0.00015258
0.000151985
0.000151337
0.000150637
0.000149882
0.000149074
0.000148215
0.000147307
0.000146354
0.000145358
0.000144318
0.000143233
0.000142107
0.000140946
0.000139756
0.000138541
0.000137297
0.000136022
0.000134721
0.000133401
0.000132067
0.00013072
0.000129355
0.000127969
0.000126568
0.000125156
0.000123735
0.000122297
0.000120837
0.000119357
0.000117859
0.000116341
0.000114792
0.000113208
0.00011159
0.000109935
0.000108234
0.000106479
0.000104667
0.000102794
0.000100853
9.88334e-05
9.67299e-05
9.45367e-05
9.22431e-05
8.98404e-05
8.73214e-05
8.4674e-05
8.18894e-05
7.89604e-05
7.58684e-05
7.26079e-05
6.91842e-05
6.55662e-05
6.17668e-05
5.77934e-05
5.36049e-05
4.93404e-05
4.48469e-05
4.05525e-05
3.60129e-05
3.21568e-05
2.82951e-05
2.56403e-05
2.4469e-05
2.47001e-05
0.000164462
0.000164763
0.00016501
0.000165204
0.000165345
0.000165433
0.000165469
0.000165453
0.000165386
0.000165266
0.000165088
0.000164847
0.000164545
0.000164188
0.000163775
0.000163305
0.000162779
0.000162196
0.000161555
0.000160854
0.000160094
0.000159278
0.000158408
0.000157483
0.000156503
0.000155471
0.000154392
0.000153268
0.000152102
0.000150894
0.000149643
0.000148353
0.000147032
0.000145684
0.000144313
0.000142917
0.000141493
0.000140045
0.00013858
0.000137104
0.000135617
0.000134112
0.000132587
0.000131047
0.000129496
0.000127935
0.000126354
0.000124749
0.000123119
0.000121469
0.000119792
0.00011808
0.000116325
0.000114529
0.000112688
0.000110791
0.00010883
0.000106802
0.000104701
0.000102518
0.000100242
9.78685e-05
9.53893e-05
9.27912e-05
9.00668e-05
8.72087e-05
8.42018e-05
8.10379e-05
7.77144e-05
7.42112e-05
7.05248e-05
6.66839e-05
6.26491e-05
5.84392e-05
5.41328e-05
4.96266e-05
4.52026e-05
4.05803e-05
3.651e-05
3.21208e-05
2.92773e-05
2.69489e-05
2.5654e-05
2.55289e-05
2.57545e-05
0.000174712
0.000174906
0.000175038
0.000175112
0.000175129
0.000175088
0.000174991
0.000174837
0.000174629
0.000174362
0.000174032
0.000173633
0.000173169
0.000172646
0.000172064
0.000171423
0.000170721
0.00016996
0.000169138
0.000168253
0.000167307
0.000166305
0.000165249
0.000164137
0.000162971
0.000161755
0.000160493
0.000159189
0.000157846
0.000156463
0.000155041
0.000153585
0.0001521
0.000150594
0.000149068
0.000147519
0.000145947
0.000144354
0.000142747
0.00014113
0.000139503
0.000137859
0.000136195
0.000134516
0.000132824
0.000131119
0.000129391
0.000127634
0.00012585
0.000124037
0.000122192
0.000120302
0.000118362
0.000116372
0.000114325
0.000112211
0.000110021
0.00010775
0.000105393
0.000102937
0.000100373
9.76938e-05
9.48916e-05
9.19501e-05
8.88632e-05
8.56252e-05
8.22212e-05
7.86409e-05
7.48912e-05
7.09624e-05
6.68475e-05
6.26125e-05
5.82215e-05
5.36717e-05
4.92109e-05
4.4572e-05
4.02554e-05
3.57846e-05
3.24193e-05
2.94573e-05
2.78768e-05
2.68629e-05
2.64734e-05
2.64532e-05
2.6605e-05
0.000184349
0.000184404
0.000184392
0.000184317
0.000184181
0.000183983
0.000183724
0.000183405
0.000183027
0.000182586
0.000182075
0.000181493
0.000180842
0.000180128
0.000179353
0.000178516
0.000177617
0.000176656
0.000175632
0.000174545
0.000173397
0.000172194
0.000170937
0.000169626
0.000168265
0.000166856
0.000165405
0.000163916
0.000162393
0.000160834
0.000159242
0.00015762
0.000155975
0.000154313
0.000152635
0.000150938
0.000149221
0.000147487
0.000145741
0.000143987
0.000142222
0.00014044
0.000138637
0.000136817
0.000134983
0.000133129
0.000131248
0.000129331
0.000127381
0.000125395
0.000123365
0.000121281
0.000119137
0.000116931
0.000114655
0.000112296
0.000109848
0.000107304
0.000104657
0.000101892
9.89999e-05
9.59753e-05
9.28092e-05
8.9484e-05
8.59931e-05
8.23369e-05
7.85113e-05
7.4495e-05
7.03109e-05
6.59952e-05
6.15127e-05
5.69764e-05
5.24013e-05
4.76569e-05
4.33902e-05
3.89453e-05
3.51698e-05
3.20279e-05
2.99485e-05
2.83209e-05
2.78202e-05
2.74138e-05
2.72311e-05
2.72223e-05
2.73696e-05
0.0001931
0.000192986
0.000192799
0.000192546
0.000192227
0.000191843
0.000191394
0.000190882
0.000190307
0.000189664
0.000188947
0.000188155
0.000187292
0.000186365
0.000185376
0.000184322
0.000183206
0.000182027
0.000180785
0.000179481
0.000178118
0.000176702
0.000175236
0.000173721
0.000172158
0.000170555
0.000168914
0.000167241
0.00016554
0.000163809
0.000162051
0.00016027
0.000158471
0.00015666
0.000154837
0.000152999
0.000151143
0.000149274
0.000147394
0.000145506
0.000143605
0.000141686
0.000139743
0.00013778
0.000135796
0.000133787
0.000131741
0.000129654
0.000127523
0.000125346
0.000123112
0.000120812
0.000118439
0.000115989
0.000113453
0.000110819
0.000108076
0.000105221
0.000102243
9.91307e-05
9.58687e-05
9.24556e-05
8.88856e-05
8.51452e-05
8.12205e-05
7.71257e-05
7.28964e-05
6.84754e-05
6.39054e-05
5.93584e-05
5.46905e-05
5.00362e-05
4.56401e-05
4.09048e-05
3.74458e-05
3.4256e-05
3.18595e-05
3.00526e-05
2.9055e-05
2.84357e-05
2.81916e-05
2.7995e-05
2.79378e-05
2.7996e-05
2.84735e-05
0.000200653
0.000200337
0.000199947
0.000199486
0.000198957
0.000198359
0.000197693
0.000196962
0.000196163
0.000195293
0.000194346
0.000193322
0.000192226
0.000191065
0.000189842
0.000188555
0.000187207
0.000185796
0.000184325
0.000182794
0.00018121
0.000179578
0.0001779
0.00017618
0.000174419
0.000172624
0.000170799
0.00016895
0.00016708
0.000165187
0.000163272
0.000161342
0.0001594
0.00015745
0.000155491
0.00015352
0.000151534
0.000149534
0.000147525
0.000145505
0.000143469
0.000141409
0.000139322
0.000137209
0.000135067
0.000132889
0.000130664
0.000128388
0.000126056
0.000123664
0.0001212
0.000118655
0.000116021
0.000113293
0.000110461
0.000107512
0.000104436
0.000101226
9.78762e-05
9.4377e-05
9.07091e-05
8.68734e-05
8.28742e-05
7.87233e-05
7.43784e-05
6.98801e-05
6.5365e-05
6.06877e-05
5.58734e-05
5.14533e-05
4.69741e-05
4.24111e-05
3.90038e-05
3.5738e-05
3.34808e-05
3.15863e-05
3.03305e-05
2.9627e-05
2.91332e-05
2.88082e-05
2.86931e-05
2.86538e-05
2.88606e-05
2.93532e-05
3.01246e-05
0.000206654
0.000206109
0.000205487
0.000204792
0.000204026
0.00020319
0.000202283
0.000201308
0.000200263
0.000199144
0.000197946
0.00019667
0.000195325
0.000193916
0.000192446
0.000190915
0.000189324
0.000187676
0.000185971
0.000184213
0.000182408
0.000180563
0.00017868
0.000176761
0.000174812
0.000172837
0.000170842
0.00016883
0.000166804
0.000164762
0.000162707
0.000160641
0.000158568
0.000156491
0.000154407
0.00015231
0.0001502
0.000148075
0.000145938
0.000143784
0.000141608
0.000139402
0.000137161
0.000134885
0.000132568
0.000130202
0.000127776
0.000125285
0.000122725
0.000120087
0.000117361
0.000114534
0.000111601
0.000108554
0.000105385
0.000102083
9.86333e-05
9.50295e-05
9.1274e-05
8.73681e-05
8.32911e-05
7.90374e-05
7.4634e-05
7.01775e-05
6.55445e-05
6.08019e-05
5.62875e-05
5.17266e-05
4.68895e-05
4.32076e-05
3.98474e-05
3.68391e-05
3.46291e-05
3.27295e-05
3.15229e-05
3.0714e-05
3.01051e-05
2.97156e-05
2.94775e-05
2.93658e-05
2.94751e-05
2.98413e-05
3.03961e-05
3.11531e-05
3.20786e-05
0.000210722
0.000209923
0.000209045
0.000208093
0.000207069
0.000205972
0.000204804
0.000203566
0.000202256
0.00020087
0.000199406
0.000197867
0.000196262
0.000194597
0.000192874
0.000191095
0.000189262
0.000187377
0.000185443
0.000183466
0.000181451
0.000179404
0.000177329
0.000175229
0.000173109
0.000170972
0.000168824
0.000166669
0.000164505
0.000162333
0.000160152
0.000157966
0.000155777
0.000153583
0.00015138
0.000149165
0.000146932
0.000144682
0.000142412
0.000140118
0.000137791
0.000135424
0.000133012
0.000130551
0.000128036
0.000125456
0.000122799
0.000120061
0.000117236
0.000114315
0.000111287
0.000108143
0.00010487
0.000101464
9.79221e-05
9.42384e-05
9.04004e-05
8.63948e-05
8.22418e-05
7.79661e-05
7.35805e-05
6.90275e-05
6.4365e-05
5.99061e-05
5.53721e-05
5.07374e-05
4.66309e-05
4.31217e-05
3.98217e-05
3.73908e-05
3.52968e-05
3.36059e-05
3.25031e-05
3.16335e-05
3.10179e-05
3.0579e-05
3.02962e-05
3.01451e-05
3.01976e-05
3.04799e-05
3.09282e-05
3.15461e-05
3.22883e-05
3.31523e-05
3.41113e-05
0.000212458
0.000211384
0.000210231
0.000209004
0.000207704
0.000206332
0.000204887
0.000203372
0.000201784
0.000200122
0.000198385
0.000196578
0.000194711
0.00019279
0.000190817
0.000188796
0.000186729
0.00018462
0.000182473
0.000180292
0.000178086
0.000175859
0.000173615
0.000171356
0.000169088
0.000166814
0.000164537
0.000162258
0.000159977
0.000157693
0.000155404
0.00015311
0.000150813
0.000148508
0.000146191
0.000143855
0.000141496
0.000139113
0.000136699
0.000134248
0.000131751
0.0001292
0.00012659
0.000123916
0.000121171
0.000118343
0.000115421
0.000112398
0.000109269
0.000106026
0.000102664
9.91753e-05
9.55427e-05
9.1763e-05
8.78444e-05
8.37959e-05
7.96451e-05
7.53397e-05
7.0918e-05
6.64253e-05
6.20824e-05
5.76102e-05
5.30218e-05
4.90304e-05
4.55297e-05
4.22778e-05
3.96478e-05
3.74158e-05
3.5514e-05
3.4183e-05
3.32129e-05
3.23958e-05
3.18163e-05
3.13757e-05
3.1097e-05
3.09434e-05
3.1005e-05
3.12432e-05
3.16241e-05
3.21463e-05
3.27728e-05
3.34956e-05
3.42911e-05
3.51508e-05
3.6056e-05
0.000211468
0.000210105
0.000208664
0.00020715
0.000205564
0.000203905
0.000202176
0.000200376
0.000198506
0.000196566
0.000194557
0.000192488
0.000190366
0.000188199
0.00018599
0.000183744
0.000181462
0.000179151
0.000176813
0.000174456
0.000172085
0.000169705
0.00016732
0.000164931
0.000162542
0.000160156
0.000157773
0.000155392
0.000153012
0.000150629
0.000148242
0.000145848
0.000143446
0.000141029
0.000138591