/*--------------------------------*- C++ -*----------------------------------*\
| =========                 |                                                 |
| \\      /  F ield         | OpenFOAM: The Open Source CFD Toolbox           |
|  \\    /   O peration     | Version:  2412                                  |
|   \\  /    A nd           | Website:  www.openfoam.com                      |
|    \\/     M anipulation  |                                                 |
\*---------------------------------------------------------------------------*/
FoamFile
{
    version     2.0;
    format      ascii;
    arch        "LSB;label=32;scalar=64";
    class       surfaceScalarField;
    location    "420";
    object      phi;
}
// * * * * * * * * * * * * * * * * * * * * * * * * * * * * * * * * * * * * * //

dimensions      [0 3 -1 0 0 0 0];

oriented        oriented;

internalField   nonuniform List<scalar> 
14564
(
-2.76986e-06
3.1996e-09
-2.77313e-06
3.31566e-09
-2.77649e-06
3.30143e-09
-2.77973e-06
3.25624e-09
-2.78296e-06
3.19684e-09
-2.78617e-06
3.20543e-09
-2.78933e-06
3.15856e-09
-2.79239e-06
3.04901e-09
-2.79553e-06
3.13333e-09
-2.79873e-06
3.19496e-09
-2.80183e-06
3.09556e-09
-2.80482e-06
2.98682e-09
-2.80768e-06
2.86132e-09
-2.81063e-06
2.93528e-09
-2.81351e-06
2.87495e-09
-2.81617e-06
2.66103e-09
-2.81866e-06
2.48223e-09
-2.82102e-06
2.35447e-09
-2.82329e-06
2.25993e-09
-2.82532e-06
2.02946e-09
-2.8269e-06
1.57556e-09
-2.82819e-06
1.28124e-09
-2.82919e-06
9.96787e-10
-2.82976e-06
5.56408e-10
-2.8298e-06
3.35081e-11
-2.82922e-06
-5.80536e-10
-2.82794e-06
-1.28839e-09
-2.82595e-06
-2.00064e-09
-2.82302e-06
-2.9384e-09
-2.81909e-06
-3.93512e-09
-2.81411e-06
-4.98794e-09
-2.80769e-06
-6.43495e-09
-2.79976e-06
-7.93771e-09
-2.79027e-06
-9.50112e-09
-2.77886e-06
-1.14196e-08
-2.76522e-06
-1.3652e-08
-2.74915e-06
-1.60743e-08
-2.73037e-06
-1.87953e-08
-2.7084e-06
-2.19757e-08
-2.68295e-06
-2.54635e-08
-2.65346e-06
-2.95061e-08
-2.61965e-06
-3.38197e-08
-2.58093e-06
-3.87288e-08
-2.53692e-06
-4.40151e-08
-2.48699e-06
-4.99423e-08
-2.43068e-06
-5.63138e-08
-2.36782e-06
-6.28773e-08
-2.29817e-06
-6.96565e-08
-2.22208e-06
-7.60874e-08
-2.14062e-06
-8.14678e-08
-2.05544e-06
-8.51907e-08
-1.96942e-06
-8.60202e-08
-1.88555e-06
-8.38754e-08
-1.80534e-06
-8.02162e-08
-1.72779e-06
-7.75624e-08
-1.64698e-06
-8.08144e-08
-1.55136e-06
-9.56274e-08
-1.42265e-06
-1.28709e-07
-1.23251e-06
-1.90148e-07
-9.35829e-07
-2.96681e-07
-4.56784e-07
-4.79045e-07
2.98123e-07
-7.54906e-07
1.4938e-06
-1.19568e-06
3.49595e-06
-2.00214e-06
6.67967e-06
-3.18372e-06
1.15567e-05
-4.87701e-06
1.75823e-05
-6.02553e-06
-4.75484e-06
-9.82073e-06
1.47469e-08
-9.83237e-06
1.50144e-08
-9.84357e-06
1.44126e-08
-9.85494e-06
1.46456e-08
-9.8667e-06
1.49185e-08
-9.87783e-06
1.43209e-08
-9.88858e-06
1.39063e-08
-9.89968e-06
1.41382e-08
-9.91052e-06
1.39662e-08
-9.92135e-06
1.40206e-08
-9.93207e-06
1.38036e-08
-9.94276e-06
1.36627e-08
-9.95301e-06
1.31105e-08
-9.96279e-06
1.27021e-08
-9.9725e-06
1.25729e-08
-9.98178e-06
1.19386e-08
-9.99035e-06
1.10345e-08
-9.99841e-06
1.04052e-08
-1.00059e-05
9.76591e-09
-1.00126e-05
8.65405e-09
-1.00179e-05
6.95197e-09
-1.00221e-05
5.43918e-09
-1.00252e-05
4.0699e-09
-1.00265e-05
1.86816e-09
-1.00262e-05
-3.03216e-10
-1.00234e-05
-3.38038e-09
-1.00183e-05
-6.37496e-09
-1.00104e-05
-9.90181e-09
-9.99907e-06
-1.4326e-08
-9.98426e-06
-1.87538e-08
-9.96557e-06
-2.36941e-08
-9.9421e-06
-2.99218e-08
-9.91307e-06
-3.6987e-08
-9.87811e-06
-4.44779e-08
-9.83652e-06
-5.3026e-08
-9.78705e-06
-6.31446e-08
-9.72884e-06
-7.43021e-08
-9.66063e-06
-8.70183e-08
-9.58111e-06
-1.0152e-07
-9.48911e-06
-1.17483e-07
-9.38296e-06
-1.35672e-07
-9.26107e-06
-1.55728e-07
-9.1217e-06
-1.78122e-07
-8.96298e-06
-2.02745e-07
-8.78343e-06
-2.29509e-07
-8.58118e-06
-2.58577e-07
-8.35541e-06
-2.88668e-07
-8.10529e-06
-3.19786e-07
-7.83222e-06
-3.49157e-07
-7.53991e-06
-3.73794e-07
-7.23398e-06
-3.91134e-07
-6.92465e-06
-3.95354e-07
-6.62251e-06
-3.86022e-07
-6.33326e-06
-3.69476e-07
-6.05298e-06
-3.57859e-07
-5.76132e-06
-3.72481e-07
-5.41812e-06
-4.38842e-07
-4.95984e-06
-5.87001e-07
-4.28796e-06
-8.62035e-07
-3.24812e-06
-1.33652e-06
-1.58118e-06
-2.14598e-06
1.02552e-06
-3.36161e-06
5.12573e-06
-5.29588e-06
1.19326e-05
-8.80904e-06
2.26659e-05
-1.3917e-05
3.90042e-05
-2.12153e-05
5.91011e-05
-2.61223e-05
-2.11601e-05
-1.96804e-05
3.72717e-08
-1.97033e-05
3.79844e-08
-1.97261e-05
3.71763e-08
-1.97488e-05
3.73133e-08
-1.97709e-05
3.69899e-08
-1.97937e-05
3.71305e-08
-1.98157e-05
3.59304e-08
-1.98369e-05
3.52997e-08
-1.98582e-05
3.52037e-08
-1.98797e-05
3.55182e-08
-1.99015e-05
3.56768e-08
-1.99213e-05
3.34061e-08
-1.99413e-05
3.31176e-08
-1.99608e-05
3.21472e-08
-1.99799e-05
3.17422e-08
-1.99981e-05
3.00663e-08
-2.00145e-05
2.7412e-08
-2.00302e-05
2.60819e-08
-2.00446e-05
2.4205e-08
-2.00569e-05
2.08895e-08
-2.00667e-05
1.6765e-08
-2.00745e-05
1.32408e-08
-2.00794e-05
8.94338e-09
-2.00811e-05
3.56965e-09
-2.00787e-05
-2.72678e-09
-2.00724e-05
-9.64632e-09
-2.00608e-05
-1.80135e-08
-2.00434e-05
-2.73091e-08
-2.00196e-05
-3.81287e-08
-1.99887e-05
-4.96753e-08
-1.99492e-05
-6.3251e-08
-1.99001e-05
-7.90243e-08
-1.98402e-05
-9.69297e-08
-1.97684e-05
-1.16232e-07
-1.96821e-05
-1.39334e-07
-1.95806e-05
-1.64657e-07
-1.9461e-05
-1.94e-07
-1.93219e-05
-2.26094e-07
-1.91597e-05
-2.63716e-07
-1.89721e-05
-3.05093e-07
-1.87561e-05
-3.51762e-07
-1.8508e-05
-4.03823e-07
-1.82244e-05
-4.61762e-07
-1.79025e-05
-5.24625e-07
-1.75374e-05
-5.94634e-07
-1.71271e-05
-6.68845e-07
-1.66688e-05
-7.47043e-07
-1.61617e-05
-8.26908e-07
-1.56089e-05
-9.01953e-07
-1.50159e-05
-9.66773e-07
-1.43953e-05
-1.01175e-06
-1.37679e-05
-1.02279e-06
-1.31535e-05
-1.00036e-06
-1.25646e-05
-9.58423e-07
-1.19937e-05
-9.28795e-07
-1.13999e-05
-9.66227e-07
-1.07044e-05
-1.13442e-06
-9.782e-06
-1.50939e-06
-8.4408e-06
-2.20324e-06
-6.37973e-06
-3.39761e-06
-3.09979e-06
-5.42592e-06
1.99295e-06
-8.45435e-06
9.94615e-06
-1.32491e-05
2.30385e-05
-2.19014e-05
4.35149e-05
-3.43933e-05
7.44364e-05
-5.21368e-05
0.000112393
-6.40789e-05
-5.29829e-05
-3.32301e-05
7.56108e-08
-3.32684e-05
7.63686e-08
-3.33063e-05
7.5011e-08
-3.33444e-05
7.53767e-08
-3.33825e-05
7.49998e-08
-3.34193e-05
7.39225e-08
-3.34554e-05
7.20913e-08
-3.34918e-05
7.17027e-08
-3.35275e-05
7.08736e-08
-3.35631e-05
7.11407e-08
-3.3598e-05
7.04762e-08
-3.36324e-05
6.78445e-08
-3.36646e-05
6.53207e-08
-3.36971e-05
6.46317e-08
-3.3728e-05
6.26551e-08
-3.37574e-05
5.94574e-08
-3.37844e-05
5.43627e-08
-3.38096e-05
5.13133e-08
-3.38329e-05
4.74824e-08
-3.38523e-05
4.02132e-08
-3.38674e-05
3.18355e-08
-3.3879e-05
2.48653e-08
-3.38861e-05
1.60063e-08
-3.38872e-05
4.66886e-09
-3.38813e-05
-8.61341e-09
-3.38678e-05
-2.31625e-08
-3.38466e-05
-3.92045e-08
-3.38153e-05
-5.86355e-08
-3.37728e-05
-8.06689e-08
-3.37174e-05
-1.05063e-07
-3.36477e-05
-1.32996e-07
-3.35617e-05
-1.65005e-07
-3.34575e-05
-2.01216e-07
-3.33318e-05
-2.41888e-07
-3.31837e-05
-2.87475e-07
-3.30071e-05
-3.41296e-07
-3.28016e-05
-3.99543e-07
-3.25607e-05
-4.66987e-07
-3.2282e-05
-5.42488e-07
-3.19592e-05
-6.27867e-07
-3.15879e-05
-7.23138e-07
-3.11625e-05
-8.2916e-07
-3.06777e-05
-9.46609e-07
-3.01255e-05
-1.07688e-06
-2.9502e-05
-1.21814e-06
-2.88005e-05
-1.37032e-06
-2.80173e-05
-1.53028e-06
-2.71509e-05
-1.69334e-06
-2.6205e-05
-1.84781e-06
-2.51916e-05
-1.98028e-06
-2.41308e-05
-2.07249e-06
-2.30563e-05
-2.09737e-06
-2.20036e-05
-2.05303e-06
-2.09923e-05
-1.96976e-06
-2.001e-05
-1.91104e-06
-1.89908e-05
-1.98544e-06
-1.78022e-05
-2.32305e-06
-1.62379e-05
-3.07373e-06
-1.39818e-05
-4.45938e-06
-1.05426e-05
-6.83675e-06
-5.11357e-06
-1.0855e-05
3.25012e-06
-1.6818e-05
1.62014e-05
-2.62004e-05
3.73117e-05
-4.30117e-05
7.00111e-05
-6.70928e-05
0.000118821
-0.000100947
0.000178496
-0.000123754
-0.000104047
-5.15684e-05
1.34788e-07
-5.16281e-05
1.36176e-07
-5.16859e-05
1.32717e-07
-5.17433e-05
1.3272e-07
-5.18014e-05
1.33056e-07
-5.18593e-05
1.31895e-07
-5.19151e-05
1.2783e-07
-5.19687e-05
1.25351e-07
-5.20231e-05
1.25263e-07
-5.20787e-05
1.26688e-07
-5.21317e-05
1.23454e-07
-5.21821e-05
1.18235e-07
-5.22312e-05
1.14368e-07
-5.22801e-05
1.13582e-07
-5.23288e-05
1.11298e-07
-5.23716e-05
1.02237e-07
-5.24117e-05
9.45278e-08
-5.24494e-05
8.89871e-08
-5.24826e-05
8.06698e-08
-5.25113e-05
6.88766e-08
-5.25326e-05
5.31279e-08
-5.25478e-05
4.0047e-08
-5.25565e-05
2.46714e-08
-5.25549e-05
3.09597e-09
-5.25436e-05
-1.99625e-08
-5.25209e-05
-4.58365e-08
-5.24838e-05
-7.63118e-08
-5.24315e-05
-1.1093e-07
-5.23615e-05
-1.50749e-07
-5.22715e-05
-1.95085e-07
-5.21596e-05
-2.44916e-07
-5.20209e-05
-3.03679e-07
-5.18546e-05
-3.67536e-07
-5.16545e-05
-4.41988e-07
-5.14168e-05
-5.25225e-07
-5.11383e-05
-6.19855e-07
-5.08117e-05
-7.26147e-07
-5.0432e-05
-8.46753e-07
-4.99912e-05
-9.83256e-07
-4.9482e-05
-1.13713e-06
-4.88973e-05
-1.30785e-06
-4.82275e-05
-1.499e-06
-4.74633e-05
-1.71075e-06
-4.65956e-05
-1.94465e-06
-4.56152e-05
-2.1986e-06
-4.45121e-05
-2.47338e-06
-4.32817e-05
-2.76071e-06
-4.19212e-05
-3.05387e-06
-4.04362e-05
-3.33281e-06
-3.88439e-05
-3.57253e-06
-3.71751e-05
-3.7413e-06
-3.54836e-05
-3.78891e-06
-3.38224e-05
-3.71421e-06
-3.2224e-05
-3.56827e-06
-3.06701e-05
-3.46492e-06
-2.90586e-05
-3.5969e-06
-2.71893e-05
-4.19237e-06
-2.47481e-05
-5.51502e-06
-2.12591e-05
-7.94834e-06
-1.59874e-05
-1.21084e-05
-7.73996e-06
-1.91025e-05
4.85279e-06
-2.94108e-05
2.41609e-05
-4.55085e-05
5.52667e-05
-7.41174e-05
0.000102875
-0.000114701
0.000172826
-0.000170898
0.000257622
-0.00020855
-0.000177196
-7.5987e-05
2.19127e-07
-7.60724e-05
2.21636e-07
-7.61576e-05
2.17782e-07
-7.62421e-05
2.17255e-07
-7.63266e-05
2.17501e-07
-7.6408e-05
2.13289e-07
-7.64891e-05
2.08968e-07
-7.65683e-05
2.04531e-07
-7.66469e-05
2.03821e-07
-7.67246e-05
2.04409e-07
-7.68018e-05
2.0064e-07
-7.68753e-05
1.91748e-07
-7.6946e-05
1.85004e-07
-7.7015e-05
1.82609e-07
-7.7082e-05
1.78235e-07
-7.71442e-05
1.64469e-07
-7.72004e-05
1.50636e-07
-7.72519e-05
1.40523e-07
-7.72994e-05
1.28155e-07
-7.73373e-05
1.06728e-07
-7.73655e-05
8.13896e-08
-7.73852e-05
5.96367e-08
-7.73941e-05
3.36304e-08
-7.73883e-05
-2.78148e-09
-7.73665e-05
-4.17674e-08
-7.7328e-05
-8.43397e-08
-7.72691e-05
-1.35196e-07
-7.71868e-05
-1.93261e-07
-7.70787e-05
-2.58926e-07
-7.69416e-05
-3.32167e-07
-7.67696e-05
-4.16887e-07
-7.65611e-05
-5.12265e-07
-7.63073e-05
-6.21356e-07
-7.60066e-05
-7.4274e-07
-7.56506e-05
-8.81175e-07
-7.52326e-05
-1.03793e-06
-7.47425e-05
-1.21628e-06
-7.41741e-05
-1.41519e-06
-7.35156e-05
-1.64176e-06
-7.27563e-05
-1.89648e-06
-7.18832e-05
-2.18092e-06
-7.08855e-05
-2.4967e-06
-6.97466e-05
-2.84974e-06
-6.84554e-05
-3.23588e-06
-6.69952e-05
-3.65882e-06
-6.53548e-05
-4.11382e-06
-6.3523e-05
-4.59245e-06
-6.1497e-05
-5.07994e-06
-5.92844e-05
-5.54537e-06
-5.69079e-05
-5.9491e-06
-5.44179e-05
-6.23132e-06
-5.18876e-05
-6.31923e-06
-4.9398e-05
-6.20383e-06
-4.6996e-05
-5.97028e-06
-4.46573e-05
-5.80356e-06
-4.22339e-05
-6.02036e-06
-3.94367e-05
-6.98958e-06
-3.58135e-05
-9.13825e-06
-3.06838e-05
-1.30781e-05
-2.30058e-05
-1.97864e-05
-1.11146e-05
-3.09936e-05
6.85923e-06
-4.73846e-05
3.41038e-05
-7.27531e-05
7.73925e-05
-0.000117406
0.000142689
-0.000179997
0.000236778
-0.000264986
0.000349472
-0.000321245
-0.000273993
-0.00010783
3.3739e-07
-0.00010795
3.41859e-07
-0.000108066
3.33885e-07
-0.000108183
3.33897e-07
-0.000108298
3.32979e-07
-0.000108414
3.2859e-07
-0.000108525
3.20047e-07
-0.000108632
3.11719e-07
-0.00010874
3.12277e-07
-0.000108848
3.1175e-07
-0.000108953
3.05976e-07
-0.000109053
2.92038e-07
-0.000109149
2.80536e-07
-0.000109243
2.76701e-07
-0.000109334
2.69388e-07
-0.000109419
2.4902e-07
-0.000109494
2.25927e-07
-0.000109563
2.09298e-07
-0.000109625
1.89975e-07
-0.000109674
1.56298e-07
-0.000109709
1.15988e-07
-0.000109731
8.1999e-08
-0.000109739
4.11773e-08
-0.000109724
-1.73265e-08
-0.00010969
-7.60792e-08
-0.000109629
-1.45567e-07
-0.00010954
-2.24318e-07
-0.000109418
-3.15054e-07
-0.00010926
-4.17143e-07
-0.000109058
-5.33735e-07
-0.00010881
-6.64687e-07
-0.000108507
-8.15928e-07
-0.000108143
-9.84644e-07
-0.000107712
-1.17455e-06
-0.0001072
-1.39231e-06
-0.000106603
-1.63574e-06
-0.000105904
-1.91547e-06
-0.000105092
-2.22707e-06
-0.000104153
-2.58023e-06
-0.000103071
-2.97842e-06
-0.000101828
-3.4238e-06
-0.000100407
-3.91863e-06
-9.87871e-05
-4.46921e-06
-9.69471e-05
-5.07582e-06
-9.48679e-05
-5.73813e-06
-9.25293e-05
-6.45239e-06
-8.99158e-05
-7.206e-06
-8.70218e-05
-7.97392e-06
-8.3858e-05
-8.70916e-06
-8.04573e-05
-9.34986e-06
-7.68817e-05
-9.80688e-06
-7.32406e-05
-9.96039e-06
-6.96461e-05
-9.7983e-06
-6.61672e-05
-9.44921e-06
-6.27707e-05
-9.20009e-06
-5.9254e-05
-9.53706e-06
-5.52104e-05
-1.10331e-05
-5.00142e-05
-1.43345e-05
-4.27272e-05
-2.0365e-05
-3.19284e-05
-3.05852e-05
-1.5389e-05
-4.7533e-05
9.3271e-06
-7.21008e-05
4.63016e-05
-0.000109728
0.00010411
-0.000175214
0.00018986
-0.000265748
0.000310733
-0.000385859
0.000453726
-0.000464238
-0.000395748
-0.000148148
4.93103e-07
-0.000148306
4.99501e-07
-0.000148462
4.89402e-07
-0.000148615
4.8721e-07
-0.000148767
4.85324e-07
-0.000148915
4.76504e-07
-0.000149061
4.66152e-07
-0.000149204
4.54262e-07
-0.000149345
4.5387e-07
-0.000149487
4.53124e-07
-0.000149623
4.42274e-07
-0.000149753
4.2175e-07
-0.000149878
4.05222e-07
-0.000150002
4.00756e-07
-0.000150118
3.85646e-07
-0.000150223
3.54565e-07
-0.000150321
3.23835e-07
-0.000150409
2.966e-07
-0.000150486
2.67548e-07
-0.000150545
2.15346e-07
-0.000150587
1.57994e-07
-0.000150611
1.06107e-07
-0.000150616
4.56917e-08
-0.000150591
-4.2324e-08
-0.000150535
-1.31866e-07
-0.000150449
-2.32101e-07
-0.00015032
-3.53157e-07
-0.00015015
-4.84851e-07
-0.00014993
-6.36956e-07
-0.000149652
-8.11656e-07
-0.000149312
-1.00521e-06
-0.000148898
-1.22953e-06
-0.000148403
-1.48003e-06
-0.000147812
-1.76524e-06
-0.00014712
-2.08477e-06
-0.000146304
-2.45169e-06
-0.000145357
-2.86293e-06
-0.000144255
-3.32829e-06
-0.000142982
-3.85362e-06
-0.000141513
-4.44745e-06
-0.000139828
-5.10867e-06
-0.000137898
-5.8486e-06
-0.000135696
-6.67134e-06
-0.000133195
-7.57685e-06
-0.000130362
-8.571e-06
-0.000127172
-9.64297e-06
-0.0001236
-1.07779e-05
-0.000119634
-1.19397e-05
-0.000115287
-1.30567e-05
-0.000110595
-1.40413e-05
-0.000105649
-1.47532e-05
-0.00010059
-1.50191e-05
-9.55717e-05
-1.48168e-05
-9.06918e-05
-1.43291e-05
-8.59098e-05
-1.39821e-05
-8.09502e-05
-1.44967e-05
-7.52646e-05
-1.67188e-05
-6.80055e-05
-2.15936e-05
-5.79169e-05
-3.04536e-05
-4.31184e-05
-4.53838e-05
-2.07268e-05
-6.99246e-05
1.23089e-05
-0.000105137
6.09935e-05
-0.000158412
0.000135731
-0.000249952
0.000244595
-0.000374612
0.000394626
-0.00053589
0.000570335
-0.000639946
-0.000544618
-0.00019722
6.88915e-07
-0.000197415
6.95133e-07
-0.000197608
6.82567e-07
-0.000197802
6.80906e-07
-0.000197991
6.74012e-07
-0.000198179
6.64383e-07
-0.00019836
6.47754e-07
-0.000198538
6.31458e-07
-0.000198712
6.2877e-07
-0.000198888
6.28888e-07
-0.000199058
6.11738e-07
-0.000199219
5.83051e-07
-0.000199372
5.57998e-07
-0.000199522
5.51309e-07
-0.000199669
5.31954e-07
-0.000199799
4.84801e-07
-0.000199914
4.39215e-07
-0.000200021
4.03034e-07
-0.000200113
3.59325e-07
-0.000200185
2.88246e-07
-0.000200231
2.03653e-07
-0.000200257
1.32358e-07
-0.000200252
4.01407e-08
-0.000200216
-7.81097e-08
-0.000200142
-2.06374e-07
-0.000200024
-3.49704e-07
-0.000199859
-5.18552e-07
-0.000199636
-7.07803e-07
-0.000199349
-9.24064e-07
-0.000198993
-1.16757e-06
-0.000198554
-1.444e-06
-0.000198023
-1.7607e-06
-0.000197387
-2.11587e-06
-0.000196635
-2.51693e-06
-0.000195746
-2.97396e-06
-0.000194707
-3.49072e-06
-0.000193494
-4.07581e-06
-0.000192087
-4.73589e-06
-0.000190456
-5.48405e-06
-0.000188578
-6.3261e-06
-0.000186414
-7.2723e-06
-0.000183936
-8.32635e-06
-0.000181102
-9.50538e-06
-0.000177874
-1.08054e-05
-0.000174208
-1.2237e-05
-0.000170065
-1.37856e-05
-0.00016541
-1.54325e-05
-0.000160221
-1.71292e-05
-0.000154502
-1.87751e-05
-0.000148303
-2.02406e-05
-0.000141725
-2.13308e-05
-0.000134954
-2.17907e-05
-0.000128189
-2.1582e-05
-0.000121564
-2.09539e-05
-0.000115029
-2.05175e-05
-0.000108223
-2.13027e-05
-0.00010042
-2.45211e-05
-9.05024e-05
-3.15116e-05
-7.68227e-05
-4.41334e-05
-5.6958e-05
-6.52485e-05
-2.72949e-05
-9.95876e-05
1.5847e-05
-0.000148278
7.83669e-05
-0.000220932
0.000172421
-0.000344006
0.000306908
-0.000509099
0.000488266
-0.000717248
0.000699424
-0.000851104
-0.000724113
-0.000254374
9.23525e-07
-0.000254609
9.30145e-07
-0.000254837
9.11219e-07
-0.000255068
9.11465e-07
-0.000255295
9.01448e-07
-0.000255517
8.85945e-07
-0.000255733
8.63324e-07
-0.000255943
8.4229e-07
-0.000256151
8.36839e-07
-0.000256358
8.35304e-07
-0.000256559
8.12508e-07
-0.000256748
7.72825e-07
-0.00025693
7.39295e-07
-0.000257108
7.29123e-07
-0.000257276
7.00475e-07
-0.00025743
6.38784e-07
-0.000257568
5.76854e-07
-0.000257695
5.29978e-07
-0.000257802
4.66877e-07
-0.000257883
3.68824e-07
-0.000257938
2.58766e-07
-0.000257965
1.58885e-07
-0.000257962
3.80837e-08
-0.000257914
-1.26146e-07
-0.000257822
-2.98732e-07
-0.000257683
-4.88413e-07
-0.000257483
-7.18818e-07
-0.000257216
-9.75502e-07
-0.000256875
-1.26449e-06
-0.00025645
-1.59242e-06
-0.000255925
-1.96935e-06
-0.000255294
-2.39156e-06
-0.000254536
-2.87426e-06
-0.000253637
-3.41592e-06
-0.000252579
-4.03197e-06
-0.000251334
-4.73535e-06
-0.000249886
-5.52363e-06
-0.000248199
-6.42294e-06
-0.000246244
-7.43925e-06
-0.000243984
-8.5861e-06
-0.000241379
-9.87718e-06
-0.00023838
-1.13252e-05
-0.000234946
-1.29399e-05
-0.000231013
-1.4738e-05
-0.000226532
-1.67186e-05
-0.000221441
-1.88765e-05
-0.000215689
-2.1185e-05
-0.000209235
-2.35828e-05
-0.000202079
-2.59309e-05
-0.000194258
-2.80622e-05
-0.000185891
-2.96973e-05
-0.000177198
-3.04836e-05
-0.000168428
-3.03517e-05
-0.000159746
-2.96364e-05
-0.000151092
-2.91717e-05
-0.000142002
-3.03923e-05
-0.000131539
-3.49844e-05
-0.000118251
-4.47999e-05
-0.000100028
-6.23557e-05
-7.38268e-05
-9.14501e-05
-3.5253e-05
-0.000138161
1.9968e-05
-0.000203499
9.8524e-05
-0.000299488
0.00021418
-0.000459662
0.000376612
-0.000671531
0.00059134
-0.000931975
0.00084088
-0.00110064
0.00105559
-0.000938831
-0.000548565
-0.000318641
1.19445e-06
-0.000318912
1.2016e-06
-0.00031918
1.17933e-06
-0.000319441
1.17192e-06
-0.000319703
1.16316e-06
-0.000319958
1.14156e-06
-0.000320207
1.11253e-06
-0.00032045
1.08473e-06
-0.00032069
1.07709e-06
-0.00032093
1.07558e-06
-0.00032116
1.04179e-06
-0.000321379
9.9174e-07
-0.000321591
9.51584e-07
-0.000321798
9.36071e-07
-0.000321992
8.94562e-07
-0.000322171
8.17485e-07
-0.000322331
7.37238e-07
-0.000322476
6.75292e-07
-0.000322604
5.9429e-07
-0.000322704
4.6861e-07
-0.00032277
3.25142e-07
-0.000322807
1.95793e-07
-0.00032281
4.07504e-08
-0.000322763
-1.72271e-07
-0.00032267
-3.92432e-07
-0.000322516
-6.4221e-07
-0.0003223
-9.34987e-07
-0.00032201
-1.2656e-06
-0.000321635
-1.63894e-06
-0.000321163
-2.06491e-06
-0.000320584
-2.54853e-06
-0.000319879
-3.09602e-06
-0.000319036
-3.71731e-06
-0.000318033
-4.41939e-06
-0.000316846
-5.2188e-06
-0.000315456
-6.12564e-06
-0.000313824
-7.1554e-06
-0.000311923
-8.3238e-06
-0.000309714
-9.64875e-06
-0.00030715
-1.11497e-05
-0.000304185
-1.28426e-05
-0.000300761
-1.47489e-05
-0.000296816
-1.68849e-05
-0.000292284
-1.92697e-05
-0.00028709
-2.19131e-05
-0.000281153
-2.48135e-05
-0.000274402
-2.79359e-05
-0.000266777
-3.12073e-05
-0.000258248
-3.44608e-05
-0.000248843
-3.74667e-05
-0.000238681
-3.98594e-05
-0.000228002
-4.11628e-05
-0.000217085
-4.12688e-05
-0.000206123
-4.05985e-05
-0.00019503
-4.02642e-05
-0.000183218
-4.22048e-05
-0.00016949
-4.87122e-05
-0.000152
-6.22897e-05
-0.000128102
-8.62543e-05
-9.40704e-05
-0.000125481
-4.47351e-05
-0.000187497
2.46794e-05
-0.000272914
0.000121474
-0.000396283
0.000260825
-0.000599012
0.000453305
-0.00086401
0.000703406
-0.00118208
0.000994063
-0.0013913
0.00125086
-0.00119563
0.00140555
-0.000703257
-0.000201105
-0.000389739
1.50013e-06
-0.000390051
1.51394e-06
-0.000390352
1.48048e-06
-0.000390657
1.4769e-06
-0.000390953
1.45872e-06
-0.000391246
1.43485e-06
-0.000391529
1.39531e-06
-0.000391807
1.36273e-06
-0.000392081
1.35143e-06
-0.000392355
1.34982e-06
-0.000392621
1.30778e-06
-0.000392874
1.2438e-06
-0.000393115
1.19336e-06
-0.000393353
1.17417e-06
-0.000393586
1.12689e-06
-0.000393795
1.02637e-06
-0.000393984
9.26321e-07
-0.00039416
8.51169e-07
-0.000394314
7.48581e-07
-0.000394436
5.91129e-07
-0.000394528
4.16331e-07
-0.000394587
2.55013e-07
-0.000394608
6.13987e-08
-0.000394579
-2.00575e-07
-0.000394495
-4.76547e-07
-0.000394352
-7.8588e-07
-0.000394136
-1.15072e-06
-0.000393843
-1.55878e-06
-0.000393456
-2.02512e-06
-0.000392968
-2.5532e-06
-0.000392365
-3.15126e-06
-0.000391627
-3.83489e-06
-0.000390735
-4.60878e-06
-0.00038967
-5.48425e-06
-0.000388409
-6.48008e-06
-0.000386919
-7.61578e-06
-0.000385171
-8.90364e-06
-0.000383124
-1.03702e-05
-0.000380736
-1.20367e-05
-0.000377952
-1.3934e-05
-0.000374717
-1.6078e-05
-0.00037097
-1.84957e-05
-0.000366632
-2.12225e-05
-0.000361621
-2.42813e-05
-0.000355844
-2.76898e-05
-0.000349207
-3.14503e-05
-0.000341609
-3.55338e-05
-0.000332962
-3.98547e-05
-0.000323216
-4.42071e-05
-0.000312376
-4.83063e-05
-0.000300537
-5.16985e-05
-0.000287943
-5.37568e-05
-0.000274877
-5.43344e-05
-0.000261528
-5.39482e-05
-0.000247749
-5.4043e-05
-0.000232785
-5.71688e-05
-0.000215126
-6.63715e-05
-0.000192463
-8.49524e-05
-0.000161549
-0.000117168
-0.000117963
-0.000169067
-5.58306e-05
-0.00024963
2.99682e-05
-0.000358713
0.000147122
-0.000513437
0.000312057
-0.000763947
0.000536429
-0.00108838
0.00082402
-0.00146967
0.00115789
-0.00172517
0.00146495
-0.0015027
0.00165659
-0.000894893
0.00170743
-0.000251947
0.00028717
-0.000468429
1.8541e-06
-0.000468783
1.86778e-06
-0.00046913
1.82792e-06
-0.000469474
1.82022e-06
-0.000469818
1.80321e-06
-0.000470155
1.77129e-06
-0.000470479
1.71972e-06
-0.000470796
1.68009e-06
-0.000471116
1.67085e-06
-0.000471432
1.66602e-06
-0.000471741
1.61703e-06
-0.000472032
1.53443e-06
-0.000472316
1.47713e-06
-0.000472597
1.45561e-06
-0.000472868
1.39812e-06
-0.000473118
1.27605e-06
-0.000473348
1.15626e-06
-0.000473561
1.06387e-06
-0.000473756
9.443e-07
-0.00047392
7.54749e-07
-0.000474047
5.43013e-07
-0.000474139
3.47697e-07
-0.000474195
1.16891e-07
-0.000474198
-1.97096e-07
-0.000474142
-5.32689e-07
-0.000474023
-9.04994e-07
-0.000473832
-1.3424e-06
-0.000473555
-1.83524e-06
-0.000473186
-2.39427e-06
-0.000472708
-3.03111e-06
-0.0004721
-3.75894e-06
-0.000471354
-4.58086e-06
-0.000470452
-5.51154e-06
-0.000469362
-6.57361e-06
-0.00046806
-7.78199e-06
-0.000466518
-9.15853e-06
-0.000464697
-1.0724e-05
-0.000462555
-1.25129e-05
-0.000460044
-1.45474e-05
-0.000457106
-1.68718e-05
-0.000453676
-1.95079e-05
-0.00044968
-2.24925e-05
-0.000445031
-2.58715e-05
-0.000439636
-2.96761e-05
-0.000433387
-3.39388e-05
-0.000426164
-3.86732e-05
-0.00041785
-4.38479e-05
-0.000408336
-4.93687e-05
-0.000397538
-5.50045e-05
-0.000385428
-6.04168e-05
-0.000372088
-6.50387e-05
-0.000357727
-6.81177e-05
-0.000342601
-6.94601e-05
-0.000326838
-6.97107e-05
-0.000310176
-7.07051e-05
-0.000291616
-7.57289e-05
-0.000269262
-8.87259e-05
-0.000240268
-0.000113946
-0.000200757
-0.000156679
-0.000145665
-0.000224159
-6.85651e-05
-0.00032673
3.58073e-05
-0.000463085
0.000175304
-0.000652934
0.000367548
-0.00095619
0.000625539
-0.00134637
0.000953007
-0.00179714
0.00133173
-0.00210389
0.001698
-0.00186897
0.00193502
-0.00113191
0.00200157
-0.000318493
0.000347887
-0.000556229
2.25606e-06
-0.000556635
2.27381e-06
-0.000557039
2.23118e-06
-0.000557437
2.21851e-06
-0.000557834
2.19989e-06
-0.00055822
2.15768e-06
-0.000558599
2.09829e-06
-0.000558969
2.05079e-06
-0.000559338
2.03909e-06
-0.000559708
2.03696e-06
-0.000560067
1.97545e-06
-0.000560416
1.88324e-06
-0.00056075
1.81181e-06
-0.000561083
1.78866e-06
-0.000561408
1.72302e-06
-0.00056171
1.57728e-06
-0.000561992
1.43905e-06
-0.000562262
1.33373e-06
-0.000562509
1.19137e-06
-0.000562724
9.69592e-07
-0.000562897
7.1585e-07
-0.000563046
4.96999e-07
-0.000563147
2.17479e-07
-0.000563192
-1.51698e-07
-0.000563184
-5.41356e-07
-0.000563112
-9.76996e-07
-0.000562959
-1.495e-06
-0.000562721
-2.07298e-06
-0.000562381
-2.73432e-06
-0.000561931
-3.48173e-06
-0.000561354
-4.3354e-06
-0.000560625
-5.31039e-06
-0.000559726
-6.40995e-06
-0.000558641
-7.65911e-06
-0.00055733
-9.0932e-06
-0.000555763
-1.07255e-05
-0.000553902
-1.25849e-05
-0.0005517
-1.47148e-05
-0.000549101
-1.7146e-05
-0.000546045
-1.99281e-05
-0.000542459
-2.30942e-05
-0.000538261
-2.66905e-05
-0.000533353
-3.07789e-05
-0.000527628
-3.54018e-05
-0.000520962
-4.06042e-05
-0.000513228
-4.64073e-05
-0.000504282
-5.2794e-05
-0.000493994
-5.96566e-05
-0.000482259
-6.674e-05
-0.000469024
-7.36518e-05
-0.000454332
-7.97303e-05
-0.000438357
-8.40926e-05
-0.000421279
-8.65385e-05
-0.000403098
-8.78916e-05
-0.000383334
-9.04694e-05
-0.00036065
-9.84131e-05
-0.000332657
-0.000116719
-0.000295916
-0.000150687
-0.000245949
-0.000206646
-0.00017719
-0.000292918
-8.28919e-05
-0.000421028
4.21668e-05
-0.000588144
0.000205855
-0.000816622
0.000427146
-0.00117748
0.000720703
-0.00163993
0.00109109
-0.00216752
0.00151715
-0.00252995
0.00194941
-0.00230124
0.00223858
-0.00142106
0.00232742
-0.000407341
0.000398453
-0.000655099
2.72772e-06
-0.000655574
2.74886e-06
-0.000656038
2.69483e-06
-0.000656502
2.68313e-06
-0.000656962
2.65941e-06
-0.000657415
2.61049e-06
-0.000657857
2.54102e-06
-0.000658292
2.48501e-06
-0.000658727
2.47462e-06
-0.00065916
2.46959e-06
-0.00065959
2.40541e-06
-0.000659998
2.29141e-06
-0.000660402
2.21606e-06
-0.000660804
2.19063e-06
-0.000661196
2.11467e-06
-0.000661567
1.94861e-06
-0.000661915
1.78725e-06
-0.000662249
1.66782e-06
-0.000662567
1.50857e-06
-0.000662847
1.24998e-06
-0.000663089
9.576e-07
-0.000663303
7.10891e-07
-0.000663475
3.90035e-07
-0.000663587
-4.00211e-08
-0.00066364
-4.88176e-07
-0.000663626
-9.91306e-07
-0.000663534
-1.58715e-06
-0.000663349
-2.25753e-06
-0.000663065
-3.01809e-06
-0.000662661
-3.88593e-06
-0.000662125
-4.87134e-06
-0.000661435
-6.00019e-06
-0.000660569
-7.27657e-06
-0.000659501
-8.72707e-06
-0.000658201
-1.03935e-05
-0.000656632
-1.22942e-05
-0.000654752
-1.44645e-05
-0.000652511
-1.69566e-05
-0.000649847
-1.98093e-05
-0.000646693
-2.30823e-05
-0.000642974
-2.68135e-05
-0.000638589
-3.10755e-05
-0.000633439
-3.59287e-05
-0.000627406
-4.14343e-05
-0.000620353
-4.76577e-05
-0.00061213
-5.46306e-05
-0.000602584
-6.2339e-05
-0.000591564
-7.06772e-05
-0.000578954
-7.935e-05
-0.000564671
-8.79345e-05
-0.000548728
-9.56735e-05
-0.000531237
-0.000101583
-0.00051226
-0.000105515
-0.000491585
-0.000108567
-0.000468392
-0.000113662
-0.000440849
-0.000125956
-0.000405971
-0.000151598
-0.000359711
-0.000196946
-0.000297123
-0.000269234
-0.000212394
-0.000377647
-9.86998e-05
-0.000534723
4.90336e-05
-0.000735877
0.000238708
-0.0010063
0.000491075
-0.00142985
0.000822842
-0.0019717
0.00124026
-0.00258494
0.00171858
-0.00300827
0.00222027
-0.00280294
0.00256511
-0.0017659
0.002684
-0.000526228
0.000426274
-0.000767272
3.27649e-06
-0.000767827
3.30361e-06
-0.000768368
3.23627e-06
-0.000768913
3.22771e-06
-0.000769454
3.20063e-06
-0.000769987
3.14335e-06
-0.000770509
3.06304e-06
-0.000771019
2.99497e-06
-0.000771534
2.98963e-06
-0.000772055
2.9907e-06
-0.00077256
2.91035e-06
-0.000773055
2.78664e-06
-0.000773536
2.69751e-06
-0.000774019
2.67338e-06
-0.000774499
2.59468e-06
-0.000774954
2.40298e-06
-0.000775387
2.22101e-06
-0.000775811
2.09104e-06
-0.000776214
1.91217e-06
-0.00077658
1.61617e-06
-0.00077691
1.2874e-06
-0.000777207
1.00777e-06
-0.000777464
6.46538e-07
-0.000777663
1.58937e-07
-0.000777799
-3.52195e-07
-0.000777865
-9.24797e-07
-0.000777853
-1.59912e-06
-0.000777747
-2.36337e-06
-0.000777535
-3.23068e-06
-0.000777202
-4.21849e-06
-0.000776729
-5.34474e-06
-0.000776096
-6.633e-06
-0.000775282
-8.0909e-06
-0.000774256
-9.75292e-06
-0.000772985
-1.16641e-05
-0.000771435
-1.38443e-05
-0.000769548
-1.63515e-05
-0.000767283
-1.92217e-05
-0.000764566
-2.25265e-05
-0.000761325
-2.6323e-05
-0.000757474
-3.06649e-05
-0.000752913
-3.56363e-05
-0.000747524
-4.13178e-05
-0.000741177
-4.77813e-05
-0.000733728
-5.51066e-05
-0.00072501
-6.33487e-05
-0.000714861
-7.24882e-05
-0.000703113
-8.24252e-05
-0.000689632
-9.28312e-05
-0.000674325
-0.000103242
-0.000657163
-0.000112835
-0.000638176
-0.00012057
-0.000617257
-0.000126434
-0.000593857
-0.000131968
-0.000566649
-0.00014087
-0.000533142
-0.000159463
-0.000489668
-0.000195071
-0.000431685
-0.000254929
-0.000354054
-0.000346866
-0.000251022
-0.000480678
-0.000115858
-0.000669887
5.64316e-05
-0.000908167
0.000274019
-0.00122388
0.000560102
-0.00171593
0.000933799
-0.0023454
0.00140365
-0.00305479
0.00194177
-0.00354639
0.00251408
-0.00337526
0.0029146
-0.00216641
0.00307162
-0.000683252
0.00041958
-0.000895223
3.91515e-06
-0.000895874
3.95448e-06
-0.000896515
3.87724e-06
-0.000897157
3.86932e-06
-0.000897794
3.83837e-06
-0.000898423
3.77232e-06
-0.00089904
3.68006e-06
-0.000899654
3.60901e-06
-0.000900265
3.60061e-06
-0.000900882
3.60783e-06
-0.000901497
3.52439e-06
-0.000902085
3.37534e-06
-0.000902674
3.2862e-06
-0.000903265
3.2643e-06
-0.000903848
3.17774e-06
-0.000904408
2.96307e-06
-0.00090495
2.76343e-06
-0.000905483
2.6234e-06
-0.000905993
2.42278e-06
-0.000906473
2.09542e-06
-0.00090691
1.72464e-06
-0.000907317
1.41497e-06
-0.000907686
1.01537e-06
-0.000907992
4.64678e-07
-0.000908236
-1.08176e-07
-0.000908411
-7.49246e-07
-0.000908503
-1.50754e-06
-0.0009085
-2.36661e-06
-0.000908387
-3.34299e-06
-0.000908149
-4.45726e-06
-0.000907766
-5.72739e-06
-0.000907221
-7.17835e-06
-0.000906479
-8.83215e-06
-0.000905516
-1.07163e-05
-0.000904301
-1.28791e-05
-0.000902779
-1.53664e-05
-0.000900911
-1.82197e-05
-0.000898632
-2.15e-05
-0.000895874
-2.52844e-05
-0.000892554
-2.96434e-05
-0.000888571
-3.46477e-05
-0.000883828
-4.03796e-05
-0.000878189
-4.69571e-05
-0.000871513
-5.44572e-05
-0.000863638
-6.29815e-05
-0.0008544
-7.25869e-05
-0.000843608
-8.32799e-05
-0.000831096
-9.49367e-05
-0.000816718
-0.00010721
-0.000800356
-0.000119604
-0.000781933
-0.000131258
-0.000761376
-0.000141126