/*--------------------------------*- C++ -*----------------------------------*\
| =========                 |                                                 |
| \\      /  F ield         | OpenFOAM: The Open Source CFD Toolbox           |
|  \\    /   O peration     | Version:  2412                                  |
|   \\  /    A nd           | Website:  www.openfoam.com                      |
|    \\/     M anipulation  |                                                 |
\*---------------------------------------------------------------------------*/
FoamFile
{
    version     2.0;
    format      ascii;
    arch        "LSB;label=32;scalar=64";
    class       surfaceScalarField;
    location    "420";
    object      phi;
}
// * * * * * * * * * * * * * * * * * * * * * * * * * * * * * * * * * * * * * //

dimensions      [0 3 -1 0 0 0 0];

oriented        oriented;

internalField   nonuniform List<scalar> 
17078
(
-1.97072e-06
7.07471e-09
-1.97787e-06
7.08337e-09
-1.98548e-06
7.72159e-09
-1.9933e-06
7.74142e-09
-2.00133e-06
8.03882e-09
-2.00947e-06
8.1479e-09
-2.01786e-06
8.40711e-09
-2.02644e-06
8.58141e-09
-2.03511e-06
8.68679e-09
-2.04409e-06
8.9853e-09
-2.05329e-06
9.21163e-09
-2.06271e-06
9.43502e-09
-2.07215e-06
9.45238e-09
-2.08172e-06
9.57408e-09
-2.0916e-06
9.89141e-09
-2.10155e-06
9.95534e-09
-2.11164e-06
1.00997e-08
-2.12175e-06
1.02073e-08
-2.13206e-06
1.02365e-08
-2.14241e-06
1.04373e-08
-2.15286e-06
1.03754e-08
-2.16329e-06
1.05093e-08
-2.17368e-06
1.03359e-08
-2.18412e-06
1.05236e-08
-2.19454e-06
1.03467e-08
-2.20489e-06
1.04434e-08
-2.21513e-06
1.01728e-08
-2.22518e-06
1.01448e-08
-2.23509e-06
9.82075e-09
-2.24479e-06
9.7822e-09
-2.25427e-06
9.41318e-09
-2.26344e-06
9.25891e-09
-2.27239e-06
8.87633e-09
-2.28081e-06
8.50882e-09
-2.28891e-06
8.01052e-09
-2.29648e-06
7.62756e-09
-2.3036e-06
7.07279e-09
-2.31024e-06
6.72112e-09
-2.31624e-06
5.92404e-09
-2.32156e-06
5.38976e-09
-2.32621e-06
4.58054e-09
-2.33014e-06
4.01414e-09
-2.33347e-06
3.25252e-09
-2.33605e-06
2.6536e-09
-2.33781e-06
1.67436e-09
-2.33858e-06
8.12067e-10
-2.33865e-06
1.05755e-11
-2.33812e-06
-4.79154e-10
-2.33669e-06
-1.4804e-09
-2.33431e-06
-2.35528e-09
-2.33106e-06
-3.29605e-09
-2.32712e-06
-3.91412e-09
-2.32271e-06
-4.44979e-09
-2.31738e-06
-5.32246e-09
-2.31109e-06
-6.32454e-09
-2.30415e-06
-6.92063e-09
-2.29674e-06
-7.43801e-09
-2.28877e-06
-7.96682e-09
-2.27991e-06
-8.88411e-09
-2.27046e-06
-9.43357e-09
-2.26062e-06
-9.8716e-09
-2.25026e-06
-1.03438e-08
-2.23915e-06
-1.1141e-08
-2.22753e-06
-1.16055e-08
-2.21559e-06
-1.19672e-08
-2.20323e-06
-1.23521e-08
-2.19014e-06
-1.31138e-08
-2.17675e-06
-1.3385e-08
-2.16307e-06
-1.36956e-08
-2.14884e-06
-1.42319e-08
-2.13417e-06
-1.46913e-08
-2.11921e-06
-1.49647e-08
-2.10382e-06
-1.53983e-08
-2.088e-06
-1.58335e-08
-2.07165e-06
-1.63474e-08
-2.05492e-06
-1.67393e-08
-2.0374e-06
-1.75236e-08
-2.019e-06
-1.84097e-08
-1.99955e-06
-1.94639e-08
-1.97844e-06
-2.11188e-08
-1.95505e-06
-2.34063e-08
-1.92822e-06
-2.68419e-08
-1.89632e-06
-3.19121e-08
-1.85675e-06
-3.95824e-08
-1.80542e-06
-5.13335e-08
-1.73576e-06
-6.96734e-08
-1.63637e-06
-9.93923e-08
-1.47669e-07
-6.98367e-06
3.28176e-08
-7.00997e-06
3.33157e-08
-7.03768e-06
3.55619e-08
-7.0662e-06
3.61678e-08
-7.09519e-06
3.70444e-08
-7.1249e-06
3.78716e-08
-7.15544e-06
3.8973e-08
-7.18636e-06
3.95087e-08
-7.21821e-06
4.05599e-08
-7.25069e-06
4.14736e-08
-7.28383e-06
4.23702e-08
-7.31742e-06
4.30481e-08
-7.35162e-06
4.36639e-08
-7.38646e-06
4.44244e-08
-7.4215e-06
4.49514e-08
-7.45723e-06
4.56985e-08
-7.49324e-06
4.6117e-08
-7.52988e-06
4.69701e-08
-7.5664e-06
4.66712e-08
-7.6033e-06
4.74521e-08
-7.64035e-06
4.73252e-08
-7.67744e-06
4.77092e-08
-7.71466e-06
4.74812e-08
-7.7514e-06
4.73746e-08
-7.78825e-06
4.71054e-08
-7.82468e-06
4.69957e-08
-7.86065e-06
4.60575e-08
-7.89611e-06
4.57264e-08
-7.93093e-06
4.45346e-08
-7.96502e-06
4.39681e-08
-7.9981e-06
4.24144e-08
-8.03029e-06
4.1557e-08
-8.06072e-06
3.92207e-08
-8.09027e-06
3.81662e-08
-8.11806e-06
3.56842e-08
-8.14409e-06
3.37343e-08
-8.16892e-06
3.18374e-08
-8.19115e-06
2.90653e-08
-8.21152e-06
2.62019e-08
-8.22934e-06
2.32962e-08
-8.24449e-06
1.96334e-08
-8.2575e-06
1.71431e-08
-8.2682e-06
1.38524e-08
-8.2763e-06
1.08346e-08
-8.28094e-06
6.20567e-09
-8.28256e-06
2.48243e-09
-8.28129e-06
-1.33109e-09
-8.27796e-06
-3.74551e-09
-8.27173e-06
-7.78515e-09
-8.26193e-06
-1.21149e-08
-8.24882e-06
-1.64674e-08
-8.23357e-06
-1.91293e-08
-8.216e-06
-2.2076e-08
-8.19588e-06
-2.54265e-08
-8.17223e-06
-3.00216e-08
-8.14597e-06
-3.316e-08
-8.11835e-06
-3.50972e-08
-8.08862e-06
-3.76959e-08
-8.05563e-06
-4.19108e-08
-8.02034e-06
-4.47026e-08
-7.9838e-06
-4.6446e-08
-7.94549e-06
-4.86487e-08
-7.90458e-06
-5.20853e-08
-7.86144e-06
-5.47273e-08
-7.81742e-06
-5.60239e-08
-7.77154e-06
-5.82311e-08
-7.72358e-06
-6.11043e-08
-7.67397e-06
-6.29882e-08
-7.6234e-06
-6.42898e-08
-7.5712e-06
-6.6435e-08
-7.51691e-06
-6.90082e-08
-7.46172e-06
-7.01658e-08
-7.40512e-06
-7.2013e-08
-7.34653e-06
-7.44322e-08
-7.28657e-06
-7.63212e-08
-7.22434e-06
-7.89749e-08
-7.15924e-06
-8.26333e-08
-7.09132e-06
-8.63485e-08
-7.01932e-06
-9.14761e-08
-6.94118e-06
-9.928e-08
-6.85478e-06
-1.09825e-07
-6.75601e-06
-1.25631e-07
-6.6394e-06
-1.48535e-07
-6.49526e-06
-1.83745e-07
-6.30981e-06
-2.36798e-07
-6.05955e-06
-3.19949e-07
-5.70522e-06
-4.53723e-07
-6.69903e-07
-1.39873e-05
8.63203e-08
-1.40426e-05
8.85264e-08
-1.40999e-05
9.30191e-08
-1.41596e-05
9.5806e-08
-1.422e-05
9.74199e-08
-1.42817e-05
9.95716e-08
-1.43442e-05
1.01564e-07
-1.44086e-05
1.03913e-07
-1.4474e-05
1.05924e-07
-1.45407e-05
1.08199e-07
-1.46087e-05
1.1042e-07
-1.46777e-05
1.12043e-07
-1.47474e-05
1.13356e-07
-1.48184e-05
1.15427e-07
-1.48905e-05
1.17123e-07
-1.4963e-05
1.18217e-07
-1.50362e-05
1.19261e-07
-1.51099e-05
1.20815e-07
-1.51843e-05
1.20999e-07
-1.52588e-05
1.22083e-07
-1.53335e-05
1.21875e-07
-1.54081e-05
1.22458e-07
-1.54821e-05
1.21412e-07
-1.55565e-05
1.21871e-07
-1.56299e-05
1.20418e-07
-1.57025e-05
1.19741e-07
-1.57736e-05
1.1706e-07
-1.58442e-05
1.16447e-07
-1.59129e-05
1.13156e-07
-1.59798e-05
1.10901e-07
-1.60449e-05
1.07458e-07
-1.61076e-05
1.0436e-07
-1.61678e-05
9.93816e-08
-1.62247e-05
9.5112e-08
-1.62783e-05
8.91778e-08
-1.63285e-05
8.40461e-08
-1.63747e-05
7.79813e-08
-1.64178e-05
7.22777e-08
-1.64559e-05
6.41786e-08
-1.64886e-05
5.61362e-08
-1.65164e-05
4.72809e-08
-1.65392e-05
4.00844e-08
-1.65572e-05
3.17901e-08
-1.65699e-05
2.35994e-08
-1.65764e-05
1.25814e-08
-1.6576e-05
2.11361e-09
-1.65704e-05
-6.99166e-09
-1.65599e-05
-1.41738e-08
-1.6544e-05
-2.3801e-08
-1.65205e-05
-3.55074e-08
-1.64911e-05
-4.59914e-08
-1.64564e-05
-5.38079e-08
-1.64182e-05
-6.02826e-08
-1.63735e-05
-7.00789e-08
-1.63224e-05
-8.12568e-08
-1.62664e-05
-8.90553e-08
-1.62071e-05
-9.44899e-08
-1.61431e-05
-1.01695e-07
-1.60737e-05
-1.11369e-07
-1.59994e-05
-1.18966e-07
-1.59223e-05
-1.23525e-07
-1.58414e-05
-1.29528e-07
-1.57553e-05
-1.38273e-07
-1.56653e-05
-1.44678e-07
-1.55725e-05
-1.48843e-07
-1.54766e-05
-1.54176e-07
-1.5376e-05
-1.6169e-07
-1.52728e-05
-1.66251e-07
-1.5167e-05
-1.70061e-07
-1.50574e-05
-1.76084e-07
-1.49444e-05
-1.82003e-07
-1.4829e-05
-1.85577e-07
-1.47102e-05
-1.90783e-07
-1.4588e-05
-1.96692e-07
-1.44622e-05
-2.021e-07
-1.43328e-05
-2.08421e-07
-1.41971e-05
-2.1833e-07
-1.40551e-05
-2.28324e-07
-1.39048e-05
-2.41826e-07
-1.3742e-05
-2.62093e-07
-1.35626e-05
-2.893e-07
-1.33582e-05
-3.30008e-07
-1.31171e-05
-3.89692e-07
-1.28216e-05
-4.79265e-07
-1.24428e-05
-6.15593e-07
-1.19354e-05
-8.2733e-07
-1.1222e-05
-1.16714e-06
-1.71488e-06
-2.36078e-05
1.81673e-07
-2.37056e-05
1.86191e-07
-2.38087e-05
1.96327e-07
-2.39152e-05
2.02225e-07
-2.40215e-05
2.03749e-07
-2.41307e-05
2.08798e-07
-2.42413e-05
2.12169e-07
-2.43538e-05
2.16429e-07
-2.44688e-05
2.20896e-07
-2.45858e-05
2.25253e-07
-2.47043e-05
2.28887e-07
-2.48242e-05
2.31981e-07
-2.49456e-05
2.34823e-07
-2.50685e-05
2.3832e-07
-2.51923e-05
2.40984e-07
-2.53175e-05
2.43414e-07
-2.54435e-05
2.45239e-07
-2.55695e-05
2.46953e-07
-2.56963e-05
2.47686e-07
-2.58236e-05
2.49503e-07
-2.59497e-05
2.47934e-07
-2.60758e-05
2.48668e-07
-2.6202e-05
2.47558e-07
-2.63266e-05
2.46586e-07
-2.64496e-05
2.43303e-07
-2.65708e-05
2.41002e-07
-2.66901e-05
2.36358e-07
-2.68065e-05
2.32889e-07
-2.69207e-05
2.27317e-07
-2.70306e-05
2.20888e-07
-2.71376e-05
2.14404e-07
-2.72395e-05
2.0632e-07
-2.73368e-05
1.96613e-07
-2.74286e-05
1.87068e-07
-2.75139e-05
1.74349e-07
-2.75933e-05
1.63477e-07
-2.76666e-05
1.51226e-07
-2.77327e-05
1.38451e-07
-2.77906e-05
1.22047e-07
-2.78393e-05
1.04859e-07
-2.78793e-05
8.72479e-08
-2.79112e-05
7.20391e-08
-2.79346e-05
5.51494e-08
-2.7949e-05
3.80356e-08
-2.79513e-05
1.478e-08
-2.79429e-05
-6.17725e-09
-2.79254e-05
-2.45661e-08
-2.79001e-05
-3.94692e-08
-2.78646e-05
-5.93073e-08
-2.78177e-05
-8.24321e-08
-2.77592e-05
-1.04573e-07
-2.76933e-05
-1.19633e-07
-2.76205e-05
-1.33151e-07
-2.75376e-05
-1.52962e-07
-2.74429e-05
-1.75975e-07
-2.73401e-05
-1.91839e-07
-2.7232e-05
-2.02649e-07
-2.71164e-05
-2.17334e-07
-2.69904e-05
-2.37358e-07
-2.68564e-05
-2.52967e-07
-2.67179e-05
-2.62084e-07
-2.65734e-05
-2.74049e-07
-2.64194e-05
-2.92232e-07
-2.62587e-05
-3.05449e-07
-2.60942e-05
-3.13358e-07
-2.59235e-05
-3.24866e-07
-2.57449e-05
-3.40369e-07
-2.5561e-05
-3.50121e-07
-2.5373e-05
-3.58056e-07
-2.51792e-05
-3.69895e-07
-2.4979e-05
-3.82229e-07
-2.47746e-05
-3.90001e-07
-2.4565e-05
-4.00346e-07
-2.43483e-05
-4.13483e-07
-2.41268e-05
-4.2359e-07
-2.38974e-05
-4.37822e-07
-2.36576e-05
-4.58175e-07
-2.34074e-05
-4.78509e-07
-2.31421e-05
-5.07136e-07
-2.28566e-05
-5.47659e-07
-2.25414e-05
-6.04529e-07
-2.21836e-05
-6.87814e-07
-2.17645e-05
-8.08763e-07
-2.12525e-05
-9.91359e-07
-2.06005e-05
-1.2676e-06
-1.97326e-05
-1.69525e-06
-1.85206e-05
-2.37918e-06
-3.47774e-06
-3.66493e-05
3.3902e-07
-3.68123e-05
3.49071e-07
-3.69832e-05
3.67406e-07
-3.71589e-05
3.77819e-07
-3.7334e-05
3.78885e-07
-3.75108e-05
3.8561e-07
-3.76924e-05
3.93811e-07
-3.78765e-05
4.00561e-07
-3.80627e-05
4.07071e-07
-3.82507e-05
4.13292e-07
-3.8442e-05
4.20185e-07
-3.86352e-05
4.25228e-07
-3.8829e-05
4.28659e-07
-3.90255e-05
4.34778e-07
-3.92226e-05
4.38155e-07
-3.9421e-05
4.41821e-07
-3.96191e-05
4.4334e-07
-3.98185e-05
4.46496e-07
-4.00176e-05
4.4671e-07
-4.02157e-05
4.47645e-07
-4.04133e-05
4.45434e-07
-4.06092e-05
4.44677e-07
-4.08029e-05
4.41258e-07
-4.09946e-05
4.38358e-07
-4.11833e-05
4.31951e-07
-4.13691e-05
4.26909e-07
-4.15503e-05
4.17474e-07
-4.1726e-05
4.08687e-07
-4.18961e-05
3.9732e-07
-4.20619e-05
3.8679e-07
-4.22195e-05
3.71908e-07
-4.23708e-05
3.57748e-07
-4.25129e-05
3.38607e-07
-4.26456e-05
3.199e-07
-4.27681e-05
2.9677e-07
-4.28807e-05
2.76128e-07
-4.29832e-05
2.53643e-07
-4.30743e-05
2.29622e-07
-4.31516e-05
1.99258e-07
-4.32136e-05
1.67031e-07
-4.3262e-05
1.35475e-07
-4.32971e-05
1.0729e-07
-4.33198e-05
7.77805e-08
-4.33267e-05
4.49912e-08
-4.33165e-05
4.51912e-09
-4.32885e-05
-3.4154e-08
-4.32461e-05
-6.70689e-08
-4.31912e-05
-9.43035e-08
-4.31216e-05
-1.2893e-07
-4.3033e-05
-1.71009e-07
-4.2927e-05
-2.10635e-07
-4.28095e-05
-2.37096e-07
-4.26808e-05
-2.61934e-07
-4.25371e-05
-2.96628e-07
-4.23751e-05
-3.38069e-07
-4.22008e-05
-3.6615e-07
-4.20176e-05
-3.85821e-07
-4.18227e-05
-4.12229e-07
-4.16127e-05
-4.47433e-07
-4.13899e-05
-4.75714e-07
-4.11601e-05
-4.91974e-07
-4.09198e-05
-5.14352e-07
-4.06662e-05
-5.4581e-07
-4.0402e-05
-5.69657e-07
-4.01301e-05
-5.85276e-07
-3.98494e-05
-6.05609e-07
-3.95568e-05
-6.33007e-07
-3.92556e-05
-6.51313e-07
-3.89481e-05
-6.65568e-07
-3.86305e-05
-6.87495e-07
-3.83024e-05
-7.10311e-07
-3.79685e-05
-7.23911e-07
-3.76271e-05
-7.41828e-07
-3.72738e-05
-7.66764e-07
-3.69112e-05
-7.86159e-07
-3.65372e-05
-8.11856e-07
-3.61476e-05
-8.47758e-07
-3.57406e-05
-8.85557e-07
-3.53107e-05
-9.37036e-07
-3.48472e-05
-1.01118e-06
-3.43387e-05
-1.1131e-06
-3.37633e-05
-1.26326e-06
-3.30909e-05
-1.4811e-06
-3.22751e-05
-1.80723e-06
-3.12425e-05
-2.30022e-06
-2.98759e-05
-3.06182e-06
-2.79807e-05
-4.27445e-06
-6.21463e-06
-5.41276e-05
5.86988e-07
-5.43856e-05
6.07063e-07
-5.46563e-05
6.38183e-07
-5.49323e-05
6.53778e-07
-5.52063e-05
6.52871e-07
-5.54836e-05
6.62984e-07
-5.57642e-05
6.74369e-07
-5.60485e-05
6.84866e-07
-5.63355e-05
6.94186e-07
-5.6626e-05
7.03786e-07
-5.6918e-05
7.12157e-07
-5.72116e-05
7.18886e-07
-5.7508e-05
7.25109e-07
-5.78041e-05
7.30868e-07
-5.81016e-05
7.35664e-07
-5.83982e-05
7.38469e-07
-5.8697e-05
7.42185e-07
-5.89928e-05
7.42415e-07
-5.92872e-05
7.41044e-07
-5.95799e-05
7.4046e-07
-5.98693e-05
7.34725e-07
-6.01568e-05
7.32314e-07
-6.04394e-05
7.23784e-07
-6.07167e-05
7.15787e-07
-6.09893e-05
7.04427e-07
-6.12541e-05
6.91874e-07
-6.15115e-05
6.74799e-07
-6.17615e-05
6.5879e-07
-6.20015e-05
6.37208e-07
-6.22318e-05
6.17201e-07
-6.24509e-05
5.90931e-07
-6.26583e-05
5.65247e-07
-6.28515e-05
5.31693e-07
-6.30292e-05
4.97693e-07
-6.31907e-05
4.58192e-07
-6.33369e-05
4.22445e-07
-6.34665e-05
3.83152e-07
-6.35792e-05
3.42416e-07
-6.36705e-05
2.90437e-07
-6.37395e-05
2.36105e-07
-6.37866e-05
1.82538e-07
-6.38135e-05
1.34287e-07
-6.38217e-05
8.58853e-08
-6.38081e-05
3.1504e-08
-6.37667e-05
-3.69941e-08
-6.36995e-05
-1.01297e-07
-6.36115e-05
-1.55229e-07
-6.35052e-05
-2.00484e-07
-6.33769e-05
-2.57343e-07
-6.32208e-05
-3.27029e-07
-6.3039e-05
-3.92504e-07
-6.28405e-05
-4.35599e-07
-6.26256e-05
-4.76877e-07
-6.23879e-05
-5.34292e-07
-6.21257e-05
-6.00341e-07
-6.18435e-05
-6.48321e-07
-6.15499e-05
-6.79501e-07
-6.12383e-05
-7.23828e-07
-6.09034e-05
-7.82389e-07
-6.0551e-05
-8.28107e-07
-6.0188e-05
-8.55016e-07
-5.9809e-05
-8.93375e-07
-5.94105e-05
-9.44309e-07
-5.89951e-05
-9.85006e-07
-5.85703e-05
-1.01017e-06
-5.81313e-05
-1.04456e-06
-5.76739e-05
-1.09046e-06
-5.72045e-05
-1.12072e-06
-5.67246e-05
-1.14554e-06
-5.62296e-05
-1.18247e-06
-5.57205e-05
-1.21947e-06
-5.52012e-05
-1.24323e-06
-5.46684e-05
-1.27457e-06
-5.41201e-05
-1.31513e-06
-5.35581e-05
-1.34812e-06
-5.29791e-05
-1.39093e-06
-5.23758e-05
-1.45103e-06
-5.17474e-05
-1.51399e-06
-5.10834e-05
-1.60108e-06
-5.03703e-05
-1.72427e-06
-4.95883e-05
-1.89516e-06
-4.87084e-05
-2.14323e-06
-4.76845e-05
-2.50496e-06
-4.64474e-05
-3.04439e-06
-4.48903e-05
-3.85731e-06
-4.28433e-05
-5.10889e-06
-4.00233e-05
-7.09447e-06
-1.02585e-05
-7.7267e-05
9.6475e-07
-7.76593e-05
9.99314e-07
-7.80704e-05
1.04933e-06
-7.84874e-05
1.07069e-06
-7.88974e-05
1.06293e-06
-7.93129e-05
1.07854e-06
-7.97321e-05
1.09361e-06
-8.01519e-05
1.10461e-06
-8.05767e-05
1.11904e-06
-8.10019e-05
1.12902e-06
-8.14305e-05
1.14071e-06
-8.18586e-05
1.14704e-06
-8.22871e-05
1.15362e-06
-8.27158e-05
1.15957e-06
-8.31449e-05
1.16481e-06
-8.35716e-05
1.16516e-06
-8.39945e-05
1.1651e-06
-8.44152e-05
1.16328e-06
-8.48314e-05
1.15716e-06
-8.52419e-05
1.1511e-06
-8.56487e-05
1.14145e-06
-8.60461e-05
1.12974e-06
-8.64367e-05
1.11431e-06
-8.68195e-05
1.09878e-06
-8.71921e-05
1.07686e-06
-8.75518e-05
1.05173e-06
-8.78998e-05
1.02278e-06
-8.82323e-05
9.91339e-07
-8.85528e-05
9.57634e-07
-8.88547e-05
9.19158e-07
-8.91415e-05
8.77704e-07
-8.94069e-05
8.30731e-07
-8.96529e-05
7.77596e-07
-8.98737e-05
7.18602e-07
-9.00719e-05
6.56265e-07
-9.02448e-05
5.95426e-07
-9.03951e-05
5.33392e-07
-9.05197e-05
4.67089e-07
-9.06127e-05
3.83445e-07
-9.06735e-05
2.96966e-07
-9.07018e-05
2.1071e-07
-9.0703e-05
1.35598e-07
-9.06763e-05
5.91496e-08
-9.06172e-05
-2.75254e-08
-9.05195e-05
-1.34793e-07
-9.03855e-05
-2.3525e-07
-9.0223e-05
-3.17817e-07
-9.00329e-05
-3.90552e-07
-8.98119e-05
-4.7837e-07
-8.95528e-05
-5.86108e-07
-8.92591e-05
-6.8633e-07
-8.89392e-05
-7.55436e-07
-8.85988e-05
-8.17276e-07
-8.82255e-05
-9.07589e-07
-8.7816e-05
-1.00995e-06
-8.73819e-05
-1.08241e-06
-8.69291e-05
-1.13234e-06
-8.64512e-05
-1.20169e-06
-8.5942e-05
-1.29165e-06
-8.54073e-05
-1.36282e-06
-8.48562e-05
-1.40613e-06
-8.42842e-05
-1.46533e-06
-8.36823e-05
-1.54625e-06
-8.30582e-05
-1.60913e-06
-8.24175e-05
-1.65086e-06
-8.1757e-05
-1.70511e-06
-8.10704e-05
-1.77705e-06
-8.03659e-05
-1.82525e-06
-7.96464e-05
-1.86504e-06
-7.8906e-05
-1.92294e-06
-7.8143e-05
-1.9825e-06
-7.73658e-05
-2.0204e-06
-7.6568e-05
-2.07236e-06
-7.57495e-05
-2.13364e-06
-7.49098e-05
-2.18785e-06
-7.40446e-05
-2.25612e-06
-7.31457e-05
-2.35003e-06
-7.22088e-05
-2.45091e-06
-7.1222e-05
-2.58785e-06
-7.01623e-05
-2.78405e-06
-6.90057e-05
-3.05179e-06
-6.77056e-05
-3.4433e-06
-6.61999e-05
-4.01068e-06
-6.43884e-05
-4.856e-06
-6.21214e-05
-6.12425e-06
-5.91565e-05
-8.0738e-06
-5.5099e-05
-1.11521e-05
-1.60359e-05
-0.000107414
1.51458e-06
-0.000107984
1.56966e-06
-0.000108579
1.64382e-06
-0.000109183
1.67457e-06
-0.000109771
1.65097e-06
-0.000110362
1.66963e-06
-0.000110955
1.68689e-06
-0.000111552
1.7016e-06
-0.000112148
1.71471e-06
-0.000112745
1.72678e-06
-0.000113343
1.73854e-06
-0.00011394
1.7434e-06
-0.000114532
1.74587e-06
-0.000115122
1.74971e-06
-0.000115708
1.75125e-06
-0.000116288
1.74496e-06
-0.000116863
1.7398e-06
-0.00011743
1.73056e-06
-0.000117989
1.71626e-06
-0.000118539
1.70122e-06
-0.000119077
1.67925e-06
-0.000119605
1.65734e-06
-0.000120118
1.62729e-06
-0.000120616
1.59779e-06
-0.000121098
1.55788e-06
-0.000121563
1.51718e-06
-0.000122005
1.46461e-06
-0.000122429
1.41571e-06
-0.000122827
1.35555e-06
-0.000123205
1.29695e-06
-0.000123554
1.22682e-06
-0.000123878
1.15502e-06
-0.000124169
1.0685e-06
-0.000124427
9.76553e-07
-0.00012465
8.78953e-07
-0.00012484
7.85788e-07
-0.000124997
6.89952e-07
-0.000125116
5.86853e-07
-0.000125193
4.6003e-07
-0.000125223
3.27418e-07
-0.000125212
1.99093e-07
-0.000125161
8.49701e-08
-0.000125072
-2.97791e-08
-0.000124938
-1.61496e-07
-0.000124754
-3.18883e-07
-0.00012452
-4.69821e-07
-0.000124246
-5.91888e-07
-0.000123937
-6.99304e-07
-0.000123586
-8.29291e-07
-0.000123181
-9.90624e-07
-0.000122731
-1.1371e-06
-0.000122249
-1.23688e-06
-0.000121734
-1.33245e-06
-0.000121177
-1.46432e-06
-0.000120572
-1.61539e-06
-0.000119933
-1.72146e-06
-0.000119268
-1.7969e-06
-0.000118568
-1.90235e-06
-0.000117824
-2.03497e-06
-0.000117049
-2.13789e-06
-0.000116249
-2.20695e-06
-0.000115417
-2.29699e-06
-0.000114546
-2.41709e-06
-0.000113643
-2.51183e-06
-0.000112717
-2.57704e-06
-0.000111761
-2.66092e-06
-0.000110772
-2.76704e-06
-0.000109754
-2.84299e-06
-0.000108713
-2.90585e-06
-0.000107642
-2.99387e-06
-0.000106543
-3.08205e-06
-0.000105418
-3.14517e-06
-0.000104268
-3.22253e-06
-0.000103084
-3.31715e-06
-0.000101871
-3.40095e-06
-0.000100621
-3.50605e-06
-9.93247e-05
-3.64658e-06
-9.79747e-05
-3.8009e-06
-9.6552e-05
-4.0106e-06
-9.50291e-05
-4.30697e-06
-9.33661e-05
-4.71486e-06
-9.15045e-05
-5.30486e-06
-8.93521e-05
-6.16316e-06
-8.67727e-05
-7.43543e-06
-8.35561e-05
-9.34088e-06
-7.93696e-05
-1.22603e-05
-7.36744e-05
-1.68473e-05
-2.40901e-05
-0.000145818
2.2748e-06
-0.000146602
2.35458e-06
-0.000147417
2.4587e-06
-0.000148233
2.49051e-06
-0.00014903
2.44785e-06
-0.000149828
2.46778e-06
-0.000150625
2.48398e-06
-0.00015142
2.49653e-06
-0.000152215
2.50965e-06
-0.000153006
2.51813e-06
-0.000153792
2.52429e-06
-0.000154572
2.52371e-06
-0.000155348
2.52132e-06
-0.000156113
2.51499e-06
-0.000156871
2.50953e-06
-0.000157619
2.49207e-06
-0.000158354
2.47512e-06
-0.000159077
2.45386e-06
-0.000159787
2.42597e-06
-0.000160479
2.39383e-06
-0.000161154
2.35424e-06
-0.000161812
2.31503e-06
-0.00016245
2.26548e-06
-0.000163065
2.21251e-06
-0.000163655
2.14835e-06
-0.000164221
2.08325e-06
-0.000164757
2.00056e-06
-0.000165262
1.92071e-06
-0.000165739
1.83246e-06
-0.000166179
1.7363e-06
-0.000166588
1.63586e-06
-0.000166957
1.5241e-06
-0.000167282
1.39387e-06
-0.000167562
1.25658e-06
-0.000167796
1.11331e-06
-0.000167987
9.76307e-07
-0.000168133
8.3635e-07
-0.000168231
6.84443e-07
-0.000168273
5.02528e-07
-0.000168252
3.06096e-07
-0.000168176
1.23425e-07
-0.000168052
-3.95143e-08
-0.000167876
-2.05356e-07
-0.000167645
-3.93117e-07
-0.000167345
-6.18426e-07
-0.000166981
-8.33577e-07
-0.000166567
-1.00591e-06
-0.000166108
-1.15828e-06
-0.000165592
-1.34536e-06
-0.000165009
-1.57418e-06
-0.000164369
-1.77742e-06
-0.000163682
-1.92363e-06
-0.000162957
-2.05779e-06
-0.000162173
-2.24817e-06
-0.000161329
-2.45959e-06
-0.000160438
-2.61233e-06
-0.000159512
-2.72309e-06
-0.000158541
-2.87284e-06
-0.000157512
-3.06387e-06
-0.000156438
-3.21175e-06
-0.00015533
-3.3151e-06
-0.000154179
-3.44826e-06
-0.000152975
-3.62103e-06
-0.000151727
-3.75961e-06
-0.000150446
-3.85821e-06
-0.000149122
-3.98504e-06
-0.000147749
-4.13966e-06
-0.000146339
-4.25352e-06
-0.000144895
-4.34984e-06
-0.000143406
-4.48241e-06
-0.000141876
-4.61237e-06
-0.000140313
-4.7083e-06
-0.000138709
-4.82652e-06
-0.000137059
-4.96683e-06
-0.000135367
-5.09302e-06
-0.000133625
-5.24842e-06
-0.000131814
-5.45792e-06
-0.000129928
-5.68689e-06
-0.000127941
-5.99768e-06
-0.000125812
-6.43572e-06
-0.000123491
-7.03617e-06
-0.000120891
-7.90432e-06
-0.000117892
-9.16266e-06
-0.000114303
-1.10243e-05
-0.000109839
-1.38051e-05
-0.000104047
-1.80515e-05
-9.62078e-05
-2.4687e-05
-3.51028e-05
-0.000193349
-0.000194357
-0.000195389
-0.000196426
3.52735e-06
-0.000197437
3.45866e-06
-0.000198442
3.47272e-06
-0.000199444
3.48639e-06
-0.000200438
3.49076e-06
-0.000201425
3.49618e-06
-0.000202403
3.49664e-06
-0.000203374
3.49532e-06
-0.000204334
3.48355e-06
-0.000205281
3.46816e-06
-0.000206215
3.44913e-06
-0.000207132
3.42711e-06
-0.000208038
3.39801e-06
-0.000208923
3.35941e-06
-0.000209789
3.32011e-06
-0.000210633
3.27027e-06
-0.000211458
3.21848e-06
-0.00021226
3.15644e-06
-0.000213034
3.0896e-06
-0.000213783
3.01378e-06
-0.000214502
2.93155e-06
-0.00021519
2.83691e-06
-0.00021584
2.73343e-06
-0.000216458
2.61763e-06
-0.000217037
2.49977e-06
-0.000217573
2.36912e-06
-0.000218069
2.23234e-06
-0.000218519
2.08577e-06
-0.000218922
1.92693e-06
-0.000219274
1.74588e-06
-0.000219566
1.54853e-06
-0.000219803
1.3502e-06
-0.000219983
1.15661e-06
-0.000220109
9.61916e-07
-0.000220176
7.51505e-07
-0.000220169
4.96161e-07
-0.000220092
2.28697e-07
-0.000219945
-2.36682e-08
-0.000219735
-2.4961e-07
-0.000219466
-4.74666e-07
-0.000219125
-7.34055e-07
-0.000218699
-1.04441e-06
-0.000218197
-1.33546e-06
-0.000217633
-1.5699e-06
-0.000217008
-1.78263e-06
-0.000216313
-2.04067e-06
-0.000215538
-2.34914e-06
-0.000214689
-2.62653e-06
-0.000213784
-2.8289e-06
-0.000212825
-3.01642e-06
-0.000211796
-3.27707e-06
-0.000210689
-3.56701e-06
-0.000209524
-3.77773e-06
-0.000208311
-3.9356e-06
-0.000207036
-4.14837e-06
-0.00020569
-4.40988e-06
-0.000204283
-4.61841e-06
-0.000202829
-4.76912e-06
-0.000201316
-4.96162e-06
-0.000199733
-5.20323e-06
-0.000198091
-5.40209e-06
-0.0001964
-5.54972e-06
-0.000194648
-5.73633e-06
-0.000192833
-5.95464e-06
-0.000190964
-6.12284e-06
-0.000189043
-6.27133e-06
-0.00018706
-6.46467e-06
-0.00018502
-6.65263e-06
-0.000182929
-6.79898e-06
-0.000180778
-6.97809e-06
-0.000178565
-7.17952e-06
-0.000176289
-7.36894e-06
-0.000173938
-7.59944e-06
-0.000171495
-7.90124e-06
-0.000168945
-8.237e-06
-0.000166253
-8.68943e-06
-0.000163366
-9.32346e-06
-0.000160209
-1.01926e-05
-0.000156673
-1.14402e-05
-0.000152587
-1.32486e-05
-0.000147697
-1.59149e-05
-0.000141616
-1.9886e-05
-0.000133741
-2.59265e-05
-0.000123122
-3.53054e-05
-4.9926e-05
-0.000254053
4.74295e-06
-0.00025525
4.65507e-06
-0.000256436
4.65905e-06
-0.000257613
4.66335e-06
-0.000258777
4.65522e-06
-0.000259931
4.64943e-06
-0.000261071
4.63669e-06
-0.000262196
4.62043e-06
-0.000263303
4.59126e-06
-0.000264392
4.55707e-06
-0.000265466
4.52272e-06
-0.000266518
4.47886e-06
-0.000267548
4.42807e-06
-0.000268555
4.36718e-06
-0.000269537
4.30134e-06
-0.000270495
4.22836e-06
-0.000271426
4.14944e-06
-0.000272326
4.05727e-06
-0.000273198
3.9613e-06
-0.000274035
3.85102e-06
-0.000274838
3.73396e-06
-0.000275603
3.60177e-06
-0.000276328
3.45921e-06
-0.000277006
3.29547e-06
-0.000277641
3.13467e-06
-0.000278228
2.95607e-06
-0.000278768
2.77258e-06
-0.000279256
2.57356e-06
-0.000279687
2.35819e-06
-0.000280054
2.11278e-06
-0.000280357
1.85145e-06
-0.000280594
1.58677e-06
-0.000280765
1.3279e-06
-0.000280873
1.06957e-06
-0.00028091
7.88956e-07
-0.000280864
4.50507e-07
-0.000280732
9.58431e-08
-0.00028052
-2.34765e-07
-0.000280237
-5.3293e-07
-0.000279879
-8.32319e-07
-0.000279436
-1.17745e-06
-0.000278898
-1.58259e-06
-0.000278269
-1.96429e-06
-0.000277561
-2.27797e-06
-0.000276787
-2.55709e-06
-0.000275925
-2.90213e-06
-0.000274967
-3.30744e-06
-0.000273917
-3.67608e-06
-0.000272804
-3.94223e-06
-0.000271622
-4.19803e-06
-0.000270351
-4.54824e-06
-0.000268988
-4.92997e-06
-0.000267551
-5.2151e-06
-0.00026605
-5.43699e-06
-0.000264473
-5.72476e-06
-0.000262803
-6.0798e-06
-0.000261057
-6.36501e-06
-0.000259246
-6.58013e-06
-0.000257358
-6.84917e-06
-0.000255379
-7.1819e-06
-0.000253321
-7.46021e-06
-0.000251195
-7.67594e-06
-0.000248987
-7.94424e-06
-0.000246693
-8.24909e-06
-0.000244321
-8.49419e-06
-0.000241877
-8.71607e-06
-0.000239348
-8.99382e-06
-0.000236738
-9.2618e-06
-0.000234049
-9.48816e-06
-0.000231283
-9.74475e-06
-0.000228422
-1.00398e-05
-0.00022547
-1.03211e-05
-0.000222412
-1.06576e-05
-0.000219226
-1.10876e-05
-0.000215888
-1.1575e-05
-0.000212349
-1.22285e-05
-0.00020854
-1.31323e-05
-0.000204362
-1.43709e-05
-0.000199661
-1.61405e-05
-0.00019421
-1.86999e-05
-0.000187664
-2.24611e-05
-0.000179511
-2.80386e-05
-0.000168953
-3.64849e-05
-0.000154763
-4.94952e-05
-6.96054e-05
-0.000321279
6.09198e-06
-0.000322625
6.00114e-06
-0.000323957
5.99186e-06
-0.000325269
5.97474e-06
-0.000326567
5.9535e-06
-0.000327844
5.92647e-06
-0.000329107
5.89929e-06
-0.000330348
5.86184e-06
-0.000331569
5.81194e-06
-0.000332769
5.75783e-06
-0.000333946
5.69926e-06
-0.0003351
5.63324e-06
-0.000336223
5.55077e-06
-0.000337323
5.46756e-06
-0.000338397
5.3753e-06
-0.000339439
5.26972e-06
-0.000340449
5.16035e-06
-0.000341426
5.03429e-06
-0.00034237
4.90468e-06
-0.000343278
4.75943e-06
-0.000344148
4.60364e-06
-0.000344973
4.42699e-06
-0.000345752
4.23817e-06
-0.000346485
4.02824e-06
-0.000347165
3.81529e-06
-0.000347797
3.58751e-06
-0.00034837
3.34594e-06
-0.000348888
3.09117e-06
-0.000349345
2.81536e-06
-0.000349731
2.49859e-06
-0.000350043
2.16396e-06
-0.000350282
1.82516e-06
-0.000350451
1.49714e-06
-0.00035055
1.16846e-06
-0.000350566
8.05283e-07
-0.000350491
3.75081e-07
-0.000350323
-7.20824e-08
-0.00035006
-4.97638e-07
-0.000349718
-8.75059e-07
-0.000349292
-1.25839e-06
-0.00034877
-1.69887e-06
-0.000348136
-2.21661e-06
-0.000347397
-2.70355e-06
-0.000346576
-3.0985e-06
-0.00034567
-3.46385e-06
-0.000344666
-3.90618e-06
-0.000343547
-4.4257e-06
-0.000342329
-4.89476e-06
-0.000341028
-5.2434e-06
-0.000339645
-5.58016e-06
-0.000338157
-6.03721e-06
-0.000336556
-6.53031e-06
-0.00033487
-6.90114e-06
-0.000333105
-7.20225e-06
-0.00033124
-7.59009e-06
-0.000329267
-8.05267e-06
-0.000327196
-8.43554e-06
-0.000325043
-8.73359e-06
-0.000322789
-9.10342e-06
-0.00032042
-9.5504e-06
-0.000317951
-9.9289e-06
-0.000315388
-1.02393e-05
-0.000312722
-1.061e-05
-0.000309939
-1.10327e-05
-0.000307053
-1.13799e-05
-0.000304065
-1.17038e-05
-0.000300964
-1.20956e-05
-0.000297748
-1.24775e-05
-0.000294428
-1.28078e-05
-0.00029099
-1.31832e-05
-0.000287424
-1.36061e-05
-0.000283729
-1.40162e-05
-0.000279882
-1.45037e-05
-0.000275854
-1.5116e-05
-0.000271613
-1.58159e-05
-0.000267093
-1.67485e-05
-0.000262195
-1.80303e-05
-0.000256789
-1.97775e-05
-0.000250666
-2.22629e-05
-0.000243518
-2.58482e-05
-0.00023489
-3.10889e-05
-0.000224097
-3.88318e-05
-0.000210105
-5.0477e-05
-0.000191357
-6.82436e-05
-9.54113e-05
-0.000398627
7.54728e-06
-0.000400087
7.4612e-06
-0.000401526
7.43117e-06
-0.000402946
7.39405e-06
-0.000404343
7.35125e-06
-0.000405721
7.30352e-06
-0.000407074
7.25277e-06
-0.000408402
7.18989e-06
-0.000409711
7.12119e-06
-0.000410993
7.03929e-06
-0.000412247
6.95382e-06
-0.000413475
6.86113e-06
-0.000414676
6.75155e-06
-0.000415846
6.63789e-06
-0.000416985
6.51438e-06
-0.000418095
6.37944e-06
-0.000419167
6.23193e-06
-0.000420206
6.07326e-06
-0.00042121
5.90937e-06
-0.000422171
5.72014e-06
-0.000423087
5.51985e-06
-0.000423963
5.3029e-06
-0.00042479
5.06489e-06
-0.000425564
4.80279e-06
-0.000426285
4.53639e-06
-0.000426949
4.25126e-06
-0.000427556
3.95306e-06
-0.000428101
3.63581e-06
-0.000428579
3.2934e-06
-0.000428984
2.90394e-06
-0.000429307
2.48622e-06
-0.000429551
2.06989e-06
-0.000429719
1.66525e-06
-0.000429808
1.2572e-06
-0.000429815
8.12421e-07
-0.000429719
2.78864e-07
-0.000429514
-2.76665e-07
-0.000429217
-7.94804e-07
-0.00042883
-1.26199e-06
-0.000428349
-1.74008e-06
-0.00042776
-2.28739e-06
-0.000427048
-2.92882e-06
-0.000426227
-3.52419e-06
-0.000425306
-4.01943e-06
-0.000424292
-4.47831e-06
-0.000423162
-5.03579e-06
-0.000421906
-5.68202e-06
-0.000420539
-6.26132e-06
-0.000419078
-6.70497e-06
-0.000417517
-7.14156e-06
-0.000415834
-7.72016e-06
-0.000414025
-8.33844e-06
-0.000412113
-8.81404e-06
-0.000410102
-9.2124e-06
-0.000407975
-9.71802e-06
-0.000405719
-1.03078e-05
-0.000403349
-1.08064e-05
-0.000400871
-1.12113e-05
-0.00039827
-1.1704e-05
-0.000395532
-1.2289e-05
-0.000392668
-1.27926e-05
-0.000389684
-1.32236e-05
-0.000386562
-1.37311e-05
-0.0003833
-1.42956e-05
-0.000379901
-1.47787e-05
-0.000376369
-1.52357e-05
-0.000372685
-1.57794e-05
-0.000368854
-1.63089e-05
-0.000364878
-1.67837e-05
-0.00036074
-1.73215e-05
-0.00035643
-1.79153e-05
-0.000351941
-1.8506e-05
-0.000347238
-1.92068e-05
-0.000342285
-2.00685e-05
-0.000337033
-2.10678e-05
-0.000331393
-2.23885e-05
-0.000325229
-2.41941e-05
-0.000318364
-2.66433e-05
-0.000310514
-3.01123e-05
-0.000301266
-3.50969e-05
-0.00029001
-4.23445e-05
-0.000275857
-5.29851e-05
-0.000257485
-6.88489e-05
-0.000232962
-9.27671e-05
-0.000128852
-0.000487167
9.09459e-06
-0.000488723
9.01726e-06
-0.000490253
8.96035e-06
-0.000491756
8.89743e-06
-0.000493235
8.83024e-06
-0.000494691
8.75942e-06
-0.000496124
8.68591e-06
-0.000497529
8.59511e-06
-0.000498903
8.49527e-06
-0.000500253
8.38874e-06
-0.000501577
8.27837e-06
-0.000502868
8.15225e-06
-0.00050413
8.013e-06
-0.000505354
7.86271e-06
-0.000506552
7.71244e-06
-0.000507712
7.53895e-06
-0.000508841
7.36126e-06
-0.000509931
7.1631e-06
-0.000510977
6.95533e-06
-0.000511984
6.72741e-06
-0.000512949
6.4843e-06
-0.00051386
6.2146e-06