/*--------------------------------*- C++ -*----------------------------------*\
| =========                 |                                                 |
| \\      /  F ield         | OpenFOAM: The Open Source CFD Toolbox           |
|  \\    /   O peration     | Version:  2412                                  |
|   \\  /    A nd           | Website:  www.openfoam.com                      |
|    \\/     M anipulation  |                                                 |
\*---------------------------------------------------------------------------*/
FoamFile
{
    version     2.0;
    format      ascii;
    arch        "LSB;label=32;scalar=64";
    class       volVectorField;
    location    "420";
    object      U;
}
// * * * * * * * * * * * * * * * * * * * * * * * * * * * * * * * * * * * * * //

dimensions      [0 1 -1 0 0 0 0];

internalField   nonuniform List<vector> 
7373
(
(0.500097 -0.0401505 0)
(0.500631 -0.0409755 5.43539e-26)
(0.501157 -0.0418274 -2.26161e-19)
(0.501678 -0.0427074 -2.26108e-19)
(0.50219 -0.0436172 0)
(0.502696 -0.0445598 0)
(0.503192 -0.0455364 -5.49112e-26)
(0.503666 -0.0465481 -2.29898e-19)
(0.504128 -0.0475985 -1.05303e-27)
(0.5046 -0.0486914 2.34322e-19)
(0.505066 -0.0498287 -2.37204e-19)
(0.505504 -0.0510103 -2.40615e-19)
(0.50591 -0.0522382 4.89109e-19)
(0.5063 -0.0535182 5.8653e-26)
(0.506694 -0.0548539 -5.0799e-19)
(0.507052 -0.0562451 5.19253e-19)
(0.507357 -0.0576924 -5.31911e-19)
(0.507624 -0.0592 0)
(0.507865 -0.0607743 0)
(0.508062 -0.0624146 2.9709e-27)
(0.508177 -0.0641193 -5.97549e-19)
(0.508211 -0.0658934 -1.45158e-25)
(0.50819 -0.0677416 -1.55797e-25)
(0.508077 -0.0696634 1.55977e-25)
(0.50785 -0.0716575 -1.59501e-26)
(0.507509 -0.0737283 7.24358e-19)
(0.507028 -0.0758726 -7.57517e-19)
(0.506394 -0.0780934 7.93876e-19)
(0.505589 -0.0803886 1.66735e-18)
(0.504584 -0.0827557 -8.77247e-19)
(0.503364 -0.0851959 0)
(0.501892 -0.0877007 2.13053e-26)
(0.500127 -0.0902678 -1.03437e-18)
(0.498054 -0.092893 -2.55262e-25)
(0.49563 -0.0955674 1.16557e-18)
(0.492799 -0.098279 -1.2407e-18)
(0.489515 -0.101019 -1.32304e-18)
(0.485728 -0.103772 -1.41333e-18)
(0.481373 -0.10652 -1.95524e-26)
(0.476379 -0.109242 3.24225e-18)
(0.47067 -0.111908 0)
(0.46417 -0.114499 0)
(0.456801 -0.116974 -4.03267e-18)
(0.448473 -0.119301 -1.00893e-24)
(0.439103 -0.121429 2.35085e-18)
(0.428596 -0.123315 -7.04931e-26)
(0.416892 -0.124914 2.75818e-18)
(0.403956 -0.126182 1.38781e-24)
(0.389789 -0.127079 0)
(0.374525 -0.127615 0)
(0.35836 -0.127823 0)
(0.341696 -0.127814 4.22675e-18)
(0.325096 -0.127804 -4.62473e-18)
(0.308959 -0.127967 -5.06767e-18)
(0.293379 -0.128418 -5.56031e-18)
(0.277819 -0.128981 -6.10752e-18)
(0.260833 -0.128999 6.71296e-18)
(0.240111 -0.127194 -7.37816e-18)
(0.212286 -0.121293 0)
(0.172446 -0.10719 -8.86204e-18)
(0.113392 -0.0775719 -9.62667e-18)
(0.0238643 -0.0181875 -1.0309e-17)
(-0.101661 0.0891335 1.08601e-23)
(-0.279558 0.289742 5.25079e-18)
(-0.525654 0.680149 -3.07082e-24)
(-0.761407 1.35596 2.16638e-18)
(-0.823691 2.50453 2.58965e-18)
(-0.298096 3.71328 1.51092e-18)
(1.56591 -0.12572 0)
(1.56759 -0.128304 3.76785e-19)
(1.56921 -0.130969 3.7608e-19)
(1.57082 -0.133723 -3.75989e-19)
(1.57242 -0.136572 0)
(1.574 -0.139522 0)
(1.57553 -0.142578 3.79641e-19)
(1.577 -0.145746 3.8229e-19)
(1.57844 -0.149033 -9.10929e-26)
(1.5799 -0.152452 -3.89642e-19)
(1.58133 -0.156011 3.94431e-19)
(1.58269 -0.15971 4.001e-19)
(1.58395 -0.163553 6.0011e-26)
(1.58515 -0.167557 0)
(1.58635 -0.171736 0)
(1.58744 -0.176088 -8.63393e-19)
(1.58837 -0.180617 8.84434e-19)
(1.58918 -0.185333 6.49716e-27)
(1.5899 -0.190257 -4.45374e-25)
(1.59047 -0.195386 1.92389e-18)
(1.59079 -0.200719 9.93518e-19)
(1.59086 -0.206267 -1.96009e-25)
(1.59075 -0.212047 -1.06613e-18)
(1.59034 -0.218053 1.10801e-18)
(1.58957 -0.224289 1.15396e-18)
(1.58844 -0.230759 -2.815e-25)
(1.58687 -0.237462 -3.06801e-25)
(1.58481 -0.2444 6.29841e-25)
(1.5822 -0.251567 -1.38591e-18)
(1.57896 -0.25896 1.45831e-18)
(1.57504 -0.266578 0)
(1.57033 -0.2744 -1.62439e-18)
(1.5647 -0.28241 0)
(1.55808 -0.290596 0)
(1.55035 -0.298937 -1.09295e-25)
(1.54134 -0.307388 2.06219e-18)
(1.5309 -0.315924 -1.02205e-24)
(1.51887 -0.32449 6.49713e-27)
(1.50504 -0.333034 2.51355e-18)
(1.48919 -0.341489 -2.69419e-18)
(1.47109 -0.349768 -2.89263e-18)
(1.4505 -0.357791 -2.97012e-24)
(1.42715 -0.365445 3.35073e-18)
(1.40077 -0.372609 0)
(1.3711 -0.379151 -7.81261e-18)
(1.33785 -0.384911 0)
(1.30082 -0.389754 -4.58282e-18)
(1.2599 -0.39353 2.44544e-24)
(1.21509 -0.396121 -2.50695e-24)
(1.1668 -0.397557 0)
(1.11565 -0.397917 0)
(1.0629 -0.397557 -7.0217e-18)
(1.01029 -0.397144 0)
(0.959105 -0.397225 -8.41797e-18)
(0.909645 -0.398134 9.23588e-18)
(0.860252 -0.399345 1.01443e-17)
(0.806478 -0.39882 0)
(0.741207 -0.392607 1.22535e-17)
(0.654136 -0.373669 1.34509e-17)
(0.530272 -0.329524 2.94332e-17)
(0.34789 -0.237832 1.54263e-23)
(0.0733406 -0.0556845 -1.71175e-17)
(-0.308944 0.271156 3.55404e-17)
(-0.846303 0.877328 -6.70784e-23)
(-1.58281 2.04726 0)
(-2.28191 4.05858 0)
(-2.45975 7.45123 -6.42202e-18)
(-0.895427 11.0659 -7.46943e-18)
(2.7714 -0.222505 0)
(2.77436 -0.227077 -8.52324e-19)
(2.77721 -0.231792 0)
(2.78003 -0.236663 4.2526e-19)
(2.78285 -0.241705 2.98229e-27)
(2.78564 -0.246925 -2.02161e-25)
(2.78833 -0.252331 -4.29382e-19)
(2.79092 -0.257936 0)
(2.79344 -0.263751 4.36164e-19)
(2.79598 -0.269799 0)
(2.79849 -0.276094 4.46096e-19)
(2.80086 -0.282636 2.18296e-25)
(2.80306 -0.289436 -9.908e-26)
(2.80516 -0.296517 -2.26151e-25)
(2.80722 -0.303906 2.24894e-25)
(2.80912 -0.311605 9.76425e-19)
(2.81072 -0.319613 1.00021e-18)
(2.81211 -0.327954 0)
(2.81333 -0.33666 -1.05566e-18)
(2.81427 -0.345727 -2.17563e-18)
(2.81476 -0.355155 1.1235e-18)
(2.81483 -0.364964 -1.16265e-18)
(2.81455 -0.375179 -4.65186e-25)
(2.81373 -0.385794 -1.25291e-18)
(2.81227 -0.396811 1.30482e-18)
(2.81017 -0.408243 -1.36167e-18)
(2.80727 -0.420085 0)
(2.80351 -0.432337 1.49224e-18)
(2.79875 -0.444994 0)
(2.79287 -0.458049 1.64881e-18)
(2.78577 -0.471492 0)
(2.77725 -0.485296 -1.83647e-18)
(2.76711 -0.499428 -9.05093e-25)
(2.75519 -0.513865 2.0614e-18)
(2.74128 -0.528563 -2.19017e-18)
(2.72509 -0.543459 0)
(2.70635 -0.558485 -1.21781e-24)
(2.68476 -0.573564 2.65533e-18)
(2.65997 -0.588586 -2.84128e-18)
(2.63157 -0.60344 1.41393e-24)
(2.59917 -0.617973 3.26965e-18)
(2.56232 -0.632024 0)
(2.52055 -0.645405 0)
(2.47337 -0.657899 0)
(2.42031 -0.669259 -1.53152e-25)
(2.36088 -0.679218 4.77837e-18)
(2.29471 -0.68751 0)
(2.22159 -0.693876 0)
(2.14154 -0.698118 -6.01171e-24)
(2.05528 -0.700241 -3.77595e-25)
(1.96388 -0.700399 6.73036e-24)
(1.86957 -0.69923 0)
(1.77544 -0.697857 8.53953e-24)
(1.68375 -0.697298 9.51359e-18)
(1.59511 -0.698091 -1.04378e-17)
(1.50661 -0.699318 1.14641e-17)
(1.41047 -0.697431 0)
(1.29433 -0.685499 -1.35756e-23)
(1.14031 -0.651246 -1.51998e-17)
(0.92258 -0.573115 -5.77789e-24)
(0.603958 -0.412554 0)
(0.127581 -0.0963677 1.93402e-17)
(-0.53132 0.467097 -4.01436e-17)
(-1.45002 1.50426 -5.63623e-23)
(-2.69752 3.48943 1.14821e-23)
(-3.87008 6.87761 4.03143e-18)
(-4.15289 12.5432 4.78536e-18)
(-1.52368 18.6324 5.51483e-18)
(4.13274 -0.331803 4.8257e-19)
(4.13712 -0.338619 -1.62504e-25)
(4.14135 -0.345647 -2.30355e-25)
(4.14555 -0.352911 -4.79796e-19)
(4.14972 -0.360425 0)
(4.15384 -0.368207 2.31717e-25)
(4.15783 -0.376266 4.84433e-19)
(4.16167 -0.384622 0)
(4.16541 -0.39329 -4.92074e-19)
(4.16915 -0.402304 -2.34771e-25)
(4.17285 -0.411689 1.60004e-25)
(4.17634 -0.421438 5.10485e-19)
(4.17957 -0.431572 6.03274e-25)
(4.18266 -0.442125 -1.05652e-18)
(4.18568 -0.453137 -1.07763e-18)
(4.18844 -0.464609 2.59139e-25)
(4.19076 -0.476541 -1.12828e-18)
(4.19277 -0.48897 5.44172e-25)
(4.19451 -0.501941 1.19079e-18)
(4.1958 -0.515446 1.22704e-18)
(4.19644 -0.529488 -1.26726e-18)
(4.19644 -0.544101 1.3114e-18)
(4.19592 -0.559313 -1.18632e-24)
(4.19456 -0.57512 0)
(4.19223 -0.591521 1.3277e-24)
(4.18893 -0.608541 -1.29122e-24)
(4.18445 -0.626167 -7.82486e-25)
(4.17865 -0.6444 2.27863e-24)
(4.17137 -0.663236 -8.24674e-25)
(4.16239 -0.682657 -1.85951e-18)
(4.15155 -0.702646 4.37661e-26)
(4.13858 -0.72317 4.14219e-18)
(4.12318 -0.744176 1.02072e-24)
(4.1051 -0.765628 7.36154e-25)
(4.08401 -0.787455 0)
(4.05949 -0.809565 -1.28741e-24)
(4.03114 -0.831858 1.30296e-24)
(3.9985 -0.854212 1.46765e-24)
(3.96104 -0.876468 -1.48822e-24)
(3.91816 -0.898447 -3.43463e-18)
(3.86925 -0.919925 -3.61851e-24)
(3.81367 -0.940659 -3.96575e-18)
(3.75069 -0.960367 4.27183e-18)
(3.67958 -0.978714 4.60895e-18)
(3.59963 -0.995321 4.98058e-18)
(3.51009 -1.00981 -5.39078e-18)
(3.41044 -1.02174 -5.74339e-24)
(3.30031 -1.03074 -6.34526e-18)
(3.17975 -1.03651 6.90048e-18)
(3.04983 -1.03901 0)
(2.91211 -1.03851 -8.06343e-24)
(2.76994 -1.03591 8.95851e-18)
(2.62791 -1.03285 0)
(2.48942 -1.03087 0)
(2.3554 -1.03075 1.17865e-17)
(2.22163 -1.03112 -2.5893e-17)
(2.0767 -1.02675 0)
(1.90245 -1.00742 0)
(1.67285 -0.955183 1.717e-17)
(1.3505 -0.838596 -3.75734e-17)
(0.881928 -0.601893 0)
(0.186724 -0.140173 0)
(-0.767618 0.676285 2.26627e-17)
(-2.08586 2.16628 -1.10921e-17)
(-3.85571 4.99071 -9.36373e-18)
(-5.49571 9.76801 -9.01317e-18)
(-5.85188 17.6575 2.64373e-18)
(-2.14599 26.1647 5.97049e-18)
(5.66406 -0.454751 -5.41059e-19)
(5.67004 -0.464089 5.39089e-19)
(5.6758 -0.473719 -3.27872e-27)
(5.68151 -0.48367 5.3792e-19)
(5.68719 -0.493965 0)
(5.69279 -0.504625 0)
(5.69821 -0.515667 -1.08618e-18)
(5.70343 -0.527113 0)
(5.7085 -0.538989 5.51627e-19)
(5.71358 -0.551338 -5.57327e-19)
(5.71859 -0.56419 4.20958e-25)
(5.72329 -0.577544 -5.72226e-19)
(5.72764 -0.591422 -1.16312e-18)
(5.73179 -0.605878 1.18424e-18)
(5.73587 -0.62096 1.20788e-18)
(5.73954 -0.636669 0)
(5.74263 -0.653008 -1.26458e-18)
(5.74528 -0.670029 -1.85784e-26)
(5.74754 -0.687788 6.2678e-25)
(5.74919 -0.706277 -1.37516e-18)
(5.74991 -0.7255 6.89149e-25)
(5.74977 -0.745503 1.21197e-24)
(5.7489 -0.766325 1.52383e-18)
(5.74686 -0.787957 -7.70044e-25)
(5.74347 -0.810399 1.32129e-24)
(5.73874 -0.833684 1.72099e-18)
(5.73237 -0.857799 1.79965e-18)
(5.72419 -0.882739 -1.88591e-18)
(5.71394 -0.908496 1.98035e-18)
(5.70135 -0.935049 1.98899e-24)
(5.68617 -0.962374 -2.09712e-24)
(5.66803 -0.990417 -4.64192e-18)
(5.64656 -1.01912 0)
(5.62138 -1.04841 -5.21078e-18)
(5.59201 -1.07821 -2.76829e-18)
(5.55792 -1.10837 2.74035e-24)
(5.51853 -1.13878 3.1425e-18)
(5.47322 -1.16924 3.35717e-18)
(5.42123 -1.19955 1.85784e-25)
(5.36177 -1.22944 3.85153e-18)
(5.29397 -1.25863 -4.05842e-24)
(5.21695 -1.28675 4.44874e-18)
(5.12973 -1.31344 -4.79314e-18)
(5.03127 -1.33819 -5.17269e-18)
(4.92058 -1.36053 0)
(4.79666 -1.37987 6.05378e-18)
(4.65873 -1.39565 -6.56497e-18)
(4.5063 -1.40732 -1.07689e-23)
(4.33943 -1.41443 -7.75801e-18)
(4.1595 -1.41696 -8.45353e-18)
(3.9687 -1.4152 -8.54842e-24)
(3.77159 -1.41039 -1.00852e-17)
(3.57443 -1.40476 -2.10865e-23)
(3.38192 -1.40034 -1.21033e-17)
(3.19545 -1.39823 -1.32854e-17)
(3.00935 -1.39661 1.45984e-17)
(2.80826 -1.38829 0)
(2.56775 -1.35951 0)
(2.25299 -1.28612 -3.87646e-17)
(1.81437 -1.12615 2.1214e-17)
(1.18156 -0.80556 2.30467e-17)
(0.250776 -0.186922 0)
(-1.01592 0.897347 2.55727e-17)
(-2.74661 2.85655 -4.29017e-23)
(-5.03801 6.52782 2.09937e-17)
(-7.12068 12.6665 5.00043e-18)
(-7.49943 22.6338 -5.76565e-18)
(-2.73179 33.3439 -3.15276e-18)
(7.37099 -0.591799 -5.67649e-25)
(7.37868 -0.603944 5.71965e-25)
(7.3861 -0.616469 -5.94925e-19)
(7.39343 -0.629411 0)
(7.40074 -0.6428 0)
(7.40793 -0.656664 -5.74383e-25)
(7.41489 -0.671023 6.00371e-19)
(7.42158 -0.685908 6.0451e-19)
(7.42808 -0.701352 -6.09754e-19)
(7.4346 -0.717412 6.16022e-19)
(7.44099 -0.734124 -6.23534e-19)
(7.44698 -0.751485 -5.96552e-25)
(7.45252 -0.769531 0)
(7.4578 -0.788328 1.30872e-18)
(7.46296 -0.807938 0)
(7.4676 -0.828358 0)
(7.47145 -0.849599 2.79463e-18)
(7.47474 -0.871725 0)
(7.47751 -0.894809 1.47453e-18)
(7.47945 -0.918839 -2.32497e-24)
(7.48021 -0.943822 -1.56905e-18)
(7.47983 -0.969819 -1.62363e-18)
(7.47847 -0.996877 8.18046e-25)
(7.47559 -1.02498 -1.7495e-18)
(7.47093 -1.05414 2.88074e-24)
(7.46452 -1.08439 -1.90127e-18)
(7.45597 -1.11572 -1.98821e-18)
(7.44502 -1.14811 -2.08357e-18)
(7.43137 -1.18156 -2.18801e-18)
(7.41466 -1.21604 2.30242e-18)
(7.39456 -1.25151 -2.26318e-24)
(7.37058 -1.28791 2.56501e-18)
(7.34224 -1.32515 2.65552e-24)
(7.30905 -1.36315 2.88018e-18)
(7.27037 -1.4018 3.06085e-18)
(7.22552 -1.44091 3.03068e-24)
(7.17374 -1.48032 -3.47637e-18)
(7.11419 -1.51978 -3.71502e-18)
(7.04593 -1.55901 3.69433e-24)
(6.96787 -1.59768 0)
(6.87891 -1.6354 -4.49677e-24)
(6.77788 -1.67171 -4.93195e-18)
(6.66347 -1.70608 -5.31707e-18)
(6.53434 -1.73791 -5.74211e-18)
(6.38918 -1.76652 6.10214e-24)
(6.22665 -1.79115 -1.34625e-17)
(6.04569 -1.81105 1.46131e-17)
(5.84564 -1.82549 7.94452e-18)
(5.62655 -1.83385 0)
(5.39011 -1.83604 9.43946e-18)
(5.13917 -1.83242 1.91139e-23)
(4.87963 -1.82458 -2.22048e-23)
(4.61958 -1.81533 -1.23726e-17)
(4.36522 -1.80732 -1.24379e-23)
(4.11848 -1.80196 1.49218e-17)
(3.87221 -1.79686 0)
(3.60678 -1.78282 3.54754e-23)
(3.291 -1.74214 -3.69006e-23)
(2.88069 -1.64399 2.18546e-17)
(2.31346 -1.43521 -2.39381e-17)
(1.5018 -1.02269 -5.20316e-17)
(0.319581 -0.236274 5.25166e-23)
(-1.27337 1.12812 -2.8831e-17)
(-3.42228 3.56537 5.5422e-23)
(-6.21994 8.06999 -1.1717e-17)
(-8.70133 15.4969 -3.29427e-23)
(-9.03311 27.3093 3.25748e-23)
(-3.25756 39.8956 3.27216e-18)
(9.23778 -0.741685 6.17619e-25)
(9.24721 -0.756889 -6.41562e-19)
(9.2563 -0.772568 6.40258e-19)
(9.2653 -0.78877 6.40001e-19)
(9.27425 -0.805532 -6.15755e-25)
(9.28305 -0.822885 6.08288e-25)
(9.29156 -0.840861 0)
(9.29973 -0.859493 -6.50275e-19)
(9.30768 -0.878826 0)
(9.31562 -0.898928 6.62543e-19)
(9.32339 -0.919845 -6.70561e-19)
(9.33066 -0.941575 6.80072e-19)
(9.33738 -0.964162 -6.67149e-25)
(9.34376 -0.987687 -1.40706e-18)
(9.34997 -1.01223 -1.43496e-18)
(9.35552 -1.03778 0)
(9.36011 -1.06437 3.96258e-24)
(9.36398 -1.09205 0)
(9.36718 -1.12094 -1.58478e-18)
(9.36933 -1.15101 1.63285e-18)
(9.37 -1.18227 1.68624e-18)
(9.36928 -1.2148 -1.69444e-24)
(9.3673 -1.24866 1.80915e-18)
(9.3634 -1.28382 1.88013e-18)
(9.3573 -1.32031 -1.95802e-18)
(9.349 -1.35815 2.04339e-18)
(9.33801 -1.39734 1.99689e-24)
(9.32403 -1.43787 2.23976e-18)
(9.30668 -1.47972 2.35238e-18)
(9.28551 -1.52286 -2.47583e-18)
(9.26008 -1.56723 0)
(9.22982 -1.61277 2.75962e-18)
(9.19411 -1.65937 -2.92241e-18)
(9.15233 -1.70692 3.101e-18)
(9.10369 -1.75526 3.29709e-18)
(9.04734 -1.8042 -3.51245e-18)
(8.98233 -1.85349 -3.74915e-18)
(8.90758 -1.90285 -4.0095e-18)
(8.82193 -1.95194 -4.29612e-18)
(8.72402 -2.00031 4.612e-18)
(8.61245 -2.04747 0)
(8.48571 -2.09286 5.34525e-18)
(8.34217 -2.13581 1.15416e-17)
(8.18012 -2.17554 6.24199e-18)
(7.99785 -2.21118 -6.76435e-18)
(7.79365 -2.2418 -2.96743e-23)
(7.5661 -2.26636 -7.98904e-18)
(7.31429 -2.28395 3.32567e-23)
(7.03819 -2.29376 9.50636e-18)
(6.73975 -2.29556 0)
(6.42246 -2.28978 2.24085e-23)
(6.09363 -2.27828 -1.25031e-17)
(5.76329 -2.26454 -4.99446e-23)
(5.43935 -2.2518 3.02407e-17)
(5.12443 -2.24185 1.66559e-17)
(4.80986 -2.23169 0)
(4.47149 -2.20992 0)
(4.07094 -2.15457 -4.37993e-23)
(3.55415 -2.02768 2.45996e-17)
(2.84556 -1.76428 2.69837e-17)
(1.84056 -1.25168 2.93464e-17)
(0.392755 -0.287665 0)
(-1.53604 1.36559 -3.24625e-17)
(-4.10001 4.28001 0)
(-7.37246 9.58065 0)
(-10.1924 18.1806 6.01602e-18)
(-10.412 31.5462 -3.32433e-18)
(-3.71501 45.6716 -3.39358e-18)
(11.2091 -0.899965 0)
(11.2201 -0.918378 -2.45391e-24)
(11.2307 -0.937367 6.58391e-19)
(11.2412 -0.956989 -6.58021e-19)
(11.2516 -0.977287 -1.26599e-24)
(11.2618 -0.998301 1.25044e-24)
(11.2717 -1.02007 0)
(11.2812 -1.04263 6.68175e-19)
(11.2904 -1.06605 0)
(11.2996 -1.09039 -1.36115e-18)
(11.3086 -1.11571 6.88711e-19)
(11.317 -1.14203 -6.98383e-19)
(11.3247 -1.16938 2.70788e-24)
(11.3321 -1.19787 -2.75635e-24)
(11.3392 -1.22758 1.47303e-18)
(11.3454 -1.25853 1.50524e-18)
(11.3506 -1.29072 -1.54151e-18)
(11.3549 -1.32425 0)
(11.3584 -1.35923 0)
(11.3606 -1.39564 1.6755e-18)
(11.3611 -1.4335 1.62294e-24)
(11.3599 -1.4729 0)
(11.3572 -1.51391 -3.71283e-18)
(11.3522 -1.55651 -1.92937e-18)
(11.3446 -1.60071 -2.00952e-18)
(11.3344 -1.64657 2.09746e-18)
(11.3209 -1.69406 0)
(11.3039 -1.74319 2.30008e-18)
(11.2829 -1.79393 -2.41651e-18)
(11.2574 -1.84624 0)
(11.2268 -1.90008 0)
(11.1904 -1.95534 -5.67809e-18)
(11.1476 -2.01191 3.00861e-18)
(11.0975 -2.06966 -3.19507e-18)
(11.0392 -2.12842 9.04865e-24)
(10.9718 -2.18793 -9.83918e-24)
(10.894 -2.24792 7.75146e-18)
(10.8045 -2.30803 8.30184e-18)
(10.702 -2.36787 4.45506e-18)
(10.5849 -2.42691 1.1442e-23)
(10.4513 -2.48455 9.58892e-24)
(10.2995 -2.5401 -5.57907e-18)
(10.1274 -2.59276 -6.03964e-18)
(9.93287 -2.64156 0)
(9.71382 -2.68546 7.12512e-18)
(9.46802 -2.72325 -1.38705e-23)
(9.1936 -2.75367 -8.48138e-18)
(8.88925 -2.77552 0)
(8.55472 -2.78775 3.39098e-23)
(8.19207 -2.78995 0)
(7.8053 -2.78249 0)
(7.40304 -2.76752 -4.024e-23)
(6.99726 -2.74906 -1.02064e-22)
(6.59773 -2.73101 -1.66342e-17)
(6.20788 -2.71548 -3.68258e-17)
(5.81762 -2.6989 2.03911e-17)
(5.39812 -2.66741 2.25846e-17)
(4.90343 -2.59455 9.80454e-23)
(4.26923 -2.43473 -5.52466e-17)
(3.40658 -2.11069 -3.0373e-17)
(2.19448 -1.49002 1.23775e-22)
(0.469626 -0.340259 0)
(-1.79886 1.60579 3.64856e-17)
(-4.76419 4.98504 1.20821e-22)
(-8.46389 11.0199 -1.22642e-22)
(-11.5529 20.6463 -1.30829e-17)
(-11.6198 35.2557 7.12008e-18)
(-4.0975 50.6369 -7.10753e-18)
(13.1787 -1.05812 1.21337e-24)
(13.1909 -1.0797 6.36772e-19)
(13.2026 -1.10196 -6.3524e-19)
(13.2142 -1.12497 -1.20269e-24)
(13.2257 -1.14876 1.22096e-24)
(13.2369 -1.17339 -1.20571e-24)
(13.2478 -1.19891 0)
(13.2582 -1.22536 2.69688e-24)
(13.2684 -1.25281 6.4933e-19)
(13.2785 -1.28135 6.55716e-19)
(13.2883 -1.31104 6.63441e-19)
(13.2974 -1.34189 1.29798e-24)
(13.3058 -1.37396 -1.36665e-18)
(13.3138 -1.40736 0)
(13.3215 -1.4422 0)
(13.3283 -1.47848 -2.89789e-18)
(13.3337 -1.51624 -1.48373e-18)
(13.3383 -1.55556 1.47438e-24)
(13.3419 -1.59659 4.66744e-26)
(13.344 -1.63931 8.21749e-24)
(13.3442 -1.68373 -5.41267e-26)
(13.3426 -1.72998 1.72325e-18)
(13.3392 -1.77811 1.78699e-18)
(13.3332 -1.82813 -1.34117e-23)
(13.3243 -1.88004 -1.40835e-23)
(13.3124 -1.93393 -2.02051e-18)
(13.2969 -1.98975 2.11436e-18)
(13.2775 -2.04752 1.19201e-23)
(13.2535 -2.10723 2.33137e-18)
(13.2245 -2.16883 2.13944e-25)
(13.1897 -2.23227 -4.83683e-24)
(13.1484 -2.29745 2.74608e-18)
(13.0999 -2.36424 0)
(13.0432 -2.4325 -3.09839e-18)
(12.9773 -2.50205 -3.30264e-18)
(12.9009 -2.57259 3.5287e-18)
(12.8129 -2.64383 -3.77924e-18)
(12.7117 -2.71538 2.80559e-23)
(12.5956 -2.78676 8.11192e-24)
(12.4628 -2.8574 -4.71105e-18)
(12.3113 -2.92661 0)
(12.1387 -2.99359 5.52615e-18)
(11.9428 -3.0574 0)
(11.7209 -3.11692 -1.28691e-23)
(11.4704 -3.17088 1.32861e-23)
(11.1885 -3.21787 7.85441e-18)
(10.8727 -3.25632 1.72737e-17)
(10.5211 -3.28473 0)
(10.133 -3.30171 -1.05329e-17)
(9.7102 -3.30658 -1.1679e-17)
(9.25694 -3.29956 0)
(8.78282 -3.28288 2.89133e-17)
(8.30149 -3.26098 3.22443e-17)
(7.82447 -3.23832 0)
(7.35619 -3.21729 -9.03118e-23)
(6.88519 -3.19363 -2.24174e-17)
(6.37797 -3.15095 -5.00047e-17)
(5.78081 -3.05793 2.78487e-17)
(5.01889 -2.86098 6.18525e-17)
(3.9901 -2.47025 3.41246e-17)
(2.55862 -1.73406 3.72107e-17)
(0.549146 -0.392891 1.50086e-22)
(-2.05572 1.84384 0)
(-5.39711 5.66279 0)
(-9.4625 12.348 0)
(-12.75 22.8363 7.09291e-18)
(-12.6211 38.3999 -7.64157e-18)
(-4.40599 54.805 3.81233e-18)
(15.0124 -1.20536 0)
(15.0252 -1.22985 -5.73457e-19)
(15.0374 -1.25512 -5.71959e-19)
(15.0496 -1.28123 1.09755e-24)
(15.0617 -1.30825 -1.08284e-24)
(15.0735 -1.33621 -1.10221e-24)
(15.0849 -1.36517 -1.86398e-26)
(15.0958 -1.39521 -5.79283e-19)
(15.1064 -1.42637 -5.83953e-19)
(15.1169 -1.45877 -1.11369e-24)
(15.1272 -1.49248 -5.96453e-19)
(15.1367 -1.52751 6.04651e-19)
(15.1454 -1.56392 1.22836e-18)
(15.1537 -1.60186 0)
(15.1617 -1.64143 0)
(15.1687 -1.68265 1.30202e-18)
(15.1743 -1.72554 1.33325e-18)
(15.1789 -1.77024 -2.64974e-24)
(15.1825 -1.81687 -8.38874e-26)
(15.1846 -1.86543 2.03736e-23)
(15.1846 -1.91595 -1.49682e-18)
(15.1827 -1.96857 -1.54926e-18)
(15.1789 -2.02335 1.60704e-18)
(15.1724 -2.0803 1.67106e-18)
(15.1627 -2.13945 1.74165e-18)
(15.15 -2.20088 0)
(15.1334 -2.26456 -1.90511e-18)
(15.1126 -2.33052 -1.99976e-18)
(15.0871 -2.39875 -4.20829e-18)
(15.0562 -2.46922 -8.47391e-24)
(15.0192 -2.54188 4.37547e-24)
(14.9753 -2.61664 -2.48772e-18)
(14.9237 -2.69337 0)
(14.8635 -2.77194 5.63368e-18)
(14.7934 -2.85216 5.59912e-24)
(14.7122 -2.93372 -3.22317e-18)
(14.6186 -3.01634 6.43597e-24)
(14.5107 -3.09959 -7.45719e-18)
(14.387 -3.18299 0)
(14.2451 -3.26591 4.36342e-18)
(14.0828 -3.34761 -4.74188e-18)
(13.8977 -3.42722 0)
(13.687 -3.50371 0)
(13.4474 -3.57583 -2.43811e-23)
(13.176 -3.64213 5.22201e-23)
(12.8693 -3.70099 7.55763e-18)
(12.5241 -3.75058 -8.38686e-18)
(12.1376 -3.78904 3.67359e-23)
(11.7085 -3.81463 -3.87285e-23)
(11.2378 -3.82626 1.17253e-17)
(10.7293 -3.82382 0)
(10.193 -3.8094 -1.49053e-17)
(9.64359 -3.78756 -3.37105e-17)
(9.09382 -3.76303 -1.90715e-17)
(8.54892 -3.73827 2.15673e-17)
(7.99619 -3.70821 -2.43558e-17)
(7.39754 -3.65376 -1.84006e-22)
(6.69153 -3.5385 -3.08523e-17)
(5.79287 -3.30045 -6.90157e-17)
(4.5871 -2.83716 -2.97821e-22)
(2.92635 -1.97896 -8.35794e-17)
(0.629858 -0.44404 6.75793e-22)
(-2.29961 2.07416 -4.57059e-17)
(-5.98008 6.29463 2.16651e-17)
(-10.3395 13.5284 4.86067e-22)
(-13.758 24.7102 -7.69142e-18)
(-13.4141 40.96 1.21863e-20)
(-4.64273 58.1817 8.28839e-18)
(12.2021 68.5596 0)
(16.6085 -1.33353 0)
(16.6215 -1.36054 4.89768e-19)
(16.634 -1.3884 4.88424e-19)
(16.6464 -1.41719 0)
(16.6586 -1.44697 0)
(16.6706 -1.4778 0)
(16.6822 -1.50975 1.89096e-24)
(16.6933 -1.54287 -1.86957e-24)
(16.7041 -1.57724 -4.98372e-19)
(16.7148 -1.61298 -1.90081e-24)
(16.7253 -1.65016 -1.96312e-24)
(16.735 -1.68881 1.06497e-23)
(16.7439 -1.72899 4.75797e-26)
(16.7523 -1.77086 -4.07065e-24)
(16.7605 -1.81453 2.04823e-24)
(16.7676 -1.86003 2.14966e-24)
(16.7734 -1.90739 -2.14029e-24)
(16.7782 -1.95676 2.26196e-24)
(16.782 -2.00828 -2.25597e-24)
(16.7842 -2.06195 -1.23764e-18)
(16.7844 -2.11781 1.27869e-18)
(16.7826 -2.17601 0)
(16.7789 -2.23664 2.00172e-23)
(16.7725 -2.2997 2.78029e-24)
(16.763 -2.36525 -2.7894e-24)
(16.7504 -2.43337 -1.55839e-18)
(16.734 -2.50406 -1.63316e-18)
(16.7133 -2.57734 -1.71592e-18)
(16.6878 -2.65324 -2.35241e-23)
(16.6569 -2.73173 -3.56103e-24)
(16.62 -2.81278 0)
(16.5761 -2.89632 -3.21089e-23)
(16.5245 -2.98224 0)
(16.4641 -3.0704 -2.44014e-18)
(16.3938 -3.16066 0)
(16.3123 -3.25271 2.80676e-18)
(16.218 -3.34629 -3.02416e-18)
(16.1094 -3.44098 3.26879e-18)
(15.9844 -3.53629 3.5451e-18)
(15.8408 -3.63162 -3.85817e-18)
(15.6762 -3.7262 4.21429e-18)
(15.4878 -3.81914 -1.8143e-23)
(15.2725 -3.90938 5.08725e-18)
(15.0269 -3.99557 2.08675e-23)
(14.7474 -4.07619 6.24581e-18)
(14.43 -4.14946 -1.39372e-17)
(14.0707 -4.21332 7.81335e-18)
(13.666 -4.26567 3.46212e-23)
(13.2134 -4.30437 -3.69744e-23)
(12.7129 -4.32789 0)
(12.1675 -4.33566 0)
(11.5863 -4.32932 0)
(10.9838 -4.31314 1.718e-17)
(10.3733 -4.29162 1.97957e-17)
(9.75985 -4.2669 2.27835e-17)
(9.12936 -4.23273 5.22954e-17)
(8.43922 -4.16707 5.9785e-17)
(7.62041 -4.02807 2.66669e-22)
(6.57763 -3.74521 3.83732e-17)
(5.18575 -3.20381 3.18787e-22)
(3.28923 -2.21861 4.68104e-17)
(0.709856 -0.491803 0)
(-2.52306 2.29076 1.01691e-16)
(-6.49498 6.86245 -2.38364e-17)
(-11.0717 14.5322 -1.88019e-17)
(-14.561 26.2368 8.2945e-18)
(-14.004 42.9419 4.42222e-18)
(-4.80172 60.7424 -4.57667e-18)
(12.863 72.1172 -4.72195e-22)
(32.8362 71.1167 1.13905e-21)
(17.9413 -1.44056 0)
(17.9544 -1.46966 0)
(17.9669 -1.49968 0)
(17.9794 -1.5307 4.07378e-19)
(17.9918 -1.56279 0)
(18.0039 -1.59601 0)
(18.0156 -1.63044 0)
(18.0268 -1.66613 0)
(18.0377 -1.70319 4.16189e-19)
(18.0486 -1.74171 0)
(18.0593 -1.7818 -4.25125e-19)
(18.0692 -1.82346 -8.6199e-19)
(18.0783 -1.8668 0)
(18.087 -1.91197 0)
(18.0955 -1.95908 1.75691e-24)
(18.1029 -2.00817 -3.54498e-24)
(18.1091 -2.0593 9.5143e-19)
(18.1143 -2.1126 -3.72742e-24)
(18.1186 -2.16824 1.88726e-24)
(18.1213 -2.22622 -1.03576e-18)
(18.122 -2.28661 1.07055e-18)
(18.1209 -2.34955 0)
(18.118 -2.41515 -1.15145e-18)
(18.1125 -2.48343 4.48875e-24)
(18.1039 -2.55444 0)
(18.0923 -2.62831 1.30875e-18)
(18.0771 -2.70503 1.37274e-18)
(18.0577 -2.78465 -2.86323e-23)
(18.0337 -2.86721 1.52253e-18)
(18.0045 -2.9527 -6.00699e-24)
(17.9694 -3.04113 0)
(17.9276 -3.13242 -3.61983e-23)
(17.8782 -3.2265 -1.93696e-18)
(17.8204 -3.32328 -7.7161e-24)
(17.7529 -3.42261 0)
(17.6744 -3.52424 -9.38488e-24)
(17.5835 -3.62793 2.58868e-18)
(17.4784 -3.73329 0)
(17.3572 -3.83987 -3.05592e-18)
(17.2176 -3.9471 -3.33974e-18)
(17.057 -4.05424 -3.66507e-18)
(16.8727 -4.16041 0)
(16.6612 -4.26458 8.31556e-23)
(16.419 -4.36541 0)
(16.1422 -4.46133 -5.57151e-18)
(15.8262 -4.55051 1.25397e-17)
(15.4665 -4.6308 -7.09878e-18)
(15.059 -4.6999 -8.08998e-18)
(14.6001 -4.75544 7.3007e-23)
(14.0887 -4.79551 -7.95027e-23)
(13.5263 -4.819 0)
(12.9206 -4.82698 -1.45992e-17)
(12.2846 -4.82295 -1.34992e-22)
(11.6303 -4.81064 -2.01968e-17)
(10.9615 -4.79111 -2.37447e-17)
(10.2615 -4.75633 1.95263e-22)
(9.48292 -4.68083 -6.46787e-17)
(8.5494 -4.51696 0)
(7.35659 -4.18558 -4.25448e-17)
(5.77157 -3.56092 -3.71238e-22)
(3.63725 -2.44579 5.22569e-17)
(0.786864 -0.533972 -5.56666e-17)
(-2.71881 2.4878 -1.12491e-16)
(-6.92649 7.3509 0)
(-11.6445 15.341 2.02749e-17)
(-15.153 27.3992 0)
(-14.4052 44.3762 0)
(-4.8739 62.457 1.50272e-17)
(13.4389 75.1498 9.11612e-23)
(34.2679 74.2435 0)
(50.3592 63.4938 3.53371e-17)
(19.0444 -1.52916 1.3235e-24)
(19.0576 -1.55999 -1.30284e-24)
(19.0704 -1.5918 -3.42565e-19)
(19.083 -1.62467 -3.42214e-19)
(19.0955 -1.65868 -1.29707e-24)
(19.1078 -1.6939 0)
(19.1197 -1.73039 0)
(19.1312 -1.76823 0)
(19.1424 -1.80752 3.49856e-19)
(19.1536 -1.84837 1.33468e-24)
(19.1646 -1.89088 7.14971e-19)
(19.1749 -1.93507 3.6249e-19)
(19.1844 -1.98104 -7.36675e-19)
(19.1936 -2.02896 0)
(19.2026 -2.07896 0)
(19.2106 -2.13107 -7.82001e-19)
(19.2174 -2.18535 -8.01263e-19)
(19.2233 -2.24195 0)
(19.2284 -2.30107 0)
(19.232 -2.36269 8.73301e-19)
(19.2337 -2.42689 -9.03052e-19)
(19.2337 -2.49384 -3.50962e-24)
(19.232 -2.56365 3.78001e-24)
(19.2278 -2.63636 1.47214e-25)
(19.2208 -2.71204 -3.95854e-24)
(19.2109 -2.79081 0)
(19.1975 -2.87269 4.53175e-24)
(19.1802 -2.95775 2.4478e-18)
(19.1586 -3.04605 4.82326e-24)
(19.132 -3.1376 5.34156e-24)
(19.0998 -3.23242 -1.45237e-18)
(19.0613 -3.33048 1.54677e-18)
(19.0156 -3.43173 -4.23329e-23)
(18.9618 -3.53609 0)
(18.8988 -3.64347 1.90491e-18)
(18.8253 -3.75366 7.64725e-24)
(18.7399 -3.86643 1.74555e-23)
(18.6409 -3.98147 -3.69893e-23)
(18.5263 -4.09837 4.03865e-23)
(18.3939 -4.21659 5.79805e-18)
(18.241 -4.33546 3.19343e-18)
(18.0649 -4.45416 0)
(17.8622 -4.57171 -3.93339e-18)
(17.6291 -4.6868 0)
(17.3615 -4.79794 0)
(17.0548 -4.9033 -5.61606e-18)
(16.704 -5.00075 -6.41106e-18)
(16.3045 -5.08796 -1.69304e-22)
(15.852 -5.16245 6.73186e-23)
(15.3445 -5.22207 -7.42886e-23)
(14.7819 -5.26535 1.18424e-17)
(14.1701 -5.29272 2.82278e-17)
(13.5197 -5.30667 1.69376e-17)
(12.8396 -5.30954 2.03987e-17)
(12.1302 -5.30053 2.45532e-17)
(11.3707 -5.26885 -2.93926e-17)
(10.5082 -5.18481 3.48679e-17)
(9.4587 -4.99451 -4.08524e-17)
(8.11069 -4.61044 -7.55463e-22)
(6.32792 -3.8978 -8.24969e-22)
(3.95943 -2.65255 -1.16157e-16)
(0.858409 -0.568181 6.17001e-17)
(-2.88065 2.66032 6.17805e-17)
(-7.2642 7.74981 -2.81724e-17)
(-12.0549 15.9517 -2.16502e-17)
(-15.5344 28.2108 -9.45258e-18)
(-14.6275 45.3197 -4.91501e-18)
(-4.86863 63.3675 -1.62016e-17)
(13.9213 77.6423 0)
(35.4271 76.7555 -3.62245e-17)
(52.4756 66.2084 0)
(19.9719 -1.60366 2.25078e-24)
(19.9854 -1.63596 0)
(19.9984 -1.66929 2.94523e-19)
(20.0113 -1.70374 0)
(20.0242 -1.73938 0)
(20.0368 -1.77628 0)
(20.0491 -1.81453 2.96678e-19)
(20.061 -1.8542 -2.98627e-19)
(20.0726 -1.89538 7.99932e-24)
(20.0843 -1.93821 2.34472e-24)
(20.0958 -1.98278 -6.15685e-19)
(20.1066 -2.02913 3.12239e-19)
(20.1168 -2.07735 -1.51917e-23)
(20.1267 -2.12762 6.46347e-19)
(20.1364 -2.18008 0)
(20.1452 -2.23477 -1.943e-23)
(20.1529 -2.29175 6.9124e-19)
(20.1598 -2.35119 0)
(20.1659 -2.41329 7.30995e-19)
(20.1707 -2.47803 7.54296e-19)
(20.1737 -2.54551 2.92781e-24)
(20.175 -2.61592 3.14322e-24)
(20.1749 -2.68936 -3.152e-24)
(20.1724 -2.76589 -3.41027e-24)
(20.1673 -2.84559 3.42833e-24)
(20.1594 -2.92861 0)
(20.1484 -3.01497 0)
(20.1336 -3.10476 -1.06233e-18)
(20.1148 -3.19806 1.12246e-18)
(20.0913 -3.29491 8.87564e-24)
(20.0626 -3.39534 1.26427e-18)
(20.0279 -3.49934 0)
(19.9865 -3.6069 1.442e-18)
(19.9374 -3.71797 0)
(19.8796 -3.8325 -3.33415e-18)
(19.8119 -3.9503 1.80223e-18)
(19.7329 -4.07121 7.86154e-25)
(19.6409 -4.19494 2.13102e-18)
(19.5341 -4.32116 1.82933e-23)
(19.4101 -4.44938 -5.12697e-18)
(19.2666 -4.57898 0)
(19.1005 -4.70924 0)
(18.9086 -4.83922 0)
(18.6872 -4.96772 0)
(18.432 -5.09331 0)
(18.1383 -5.21429 3.99711e-23)
(17.8012 -5.32859 1.16836e-17)
(17.4156 -5.43397 6.77282e-18)
(16.9771 -5.52799 6.23857e-23)
(16.4828 -5.60846 -6.96256e-23)
(15.9315 -5.67371 5.0271e-22)
(15.3271 -5.72362 -1.36402e-17)
(14.6772 -5.75963 -1.67005e-17)
(13.9862 -5.78222 -2.05785e-17)
(13.2493 -5.78785 -2.53731e-17)
(12.4392 -5.76187 -3.10893e-17)
(11.4956 -5.66933 5.91033e-22)
(10.3276 -5.44957 4.4727e-17)
(8.81912 -5.0076 5.19488e-17)
(6.83698 -4.20301 5.86339e-17)
(4.24481 -2.83097 6.4189e-17)
(0.922189 -0.592204 -6.7927e-17)
(-3.00436 2.80512 0)
(-7.50514 8.0565 3.0162e-17)
(-12.3137 16.3788 2.28125e-17)
(-15.7307 28.7162 1.96909e-17)
(-14.7037 45.8617 5.06978e-18)
(-4.79664 63.6658 -5.56814e-18)
(14.2938 79.4385 0)
(36.2582 78.5475 -4.5236e-17)
(54.3718 68.647 0)
(20.7736 -1.66807 0)
(20.7875 -1.70166 0)
(20.8009 -1.73631 2.60922e-19)
(20.8143 -1.77214 1.97621e-24)
(20.8276 -1.8092 2.00658e-24)
(20.8407 -1.84758 -1.98195e-24)
(20.8536 -1.88736 -2.6303e-19)
(20.866 -1.92863 2.64817e-19)
(20.8782 -1.97148 -2.67106e-19)
(20.8906 -2.01605 -2.08034e-24)
(20.9027 -2.06243 2.73199e-19)
(20.9143 -2.11066 1.14713e-23)
(20.9253 -2.16087 5.63574e-19)
(20.936 -2.21321 1.98054e-23)
(20.9466 -2.26784 0)
(20.9564 -2.32479 1.19875e-18)
(20.9652 -2.38415 -6.14567e-19)
(20.9732 -2.4461 -2.37426e-24)