/*--------------------------------*- C++ -*----------------------------------*\
| =========                 |                                                 |
| \\      /  F ield         | OpenFOAM: The Open Source CFD Toolbox           |
|  \\    /   O peration     | Version:  2412                                  |
|   \\  /    A nd           | Website:  www.openfoam.com                      |
|    \\/     M anipulation  |                                                 |
\*---------------------------------------------------------------------------*/
FoamFile
{
    version     2.0;
    format      ascii;
    arch        "LSB;label=32;scalar=64";
    class       surfaceScalarField;
    location    "460";
    object      phi;
}
// * * * * * * * * * * * * * * * * * * * * * * * * * * * * * * * * * * * * * //

dimensions      [0 3 -1 0 0 0 0];

oriented        oriented;

internalField   nonuniform List<scalar> 
17125
(
-1.09998e-06
-2.39129e-07
-7.13524e-07
-3.86485e-07
-8.51988e-08
-6.28278e-07
9.49385e-07
-1.03466e-06
2.56164e-06
-1.61219e-06
5.06426e-06
-2.50274e-06
8.21299e-06
-3.15025e-06
1.07959e-05
-2.58132e-06
1.19404e-05
-1.14536e-06
1.1483e-05
4.58204e-07
9.93903e-06
1.54467e-06
8.22714e-06
1.71132e-06
6.77065e-06
1.45939e-06
5.64491e-06
1.12273e-06
4.84279e-06
8.0465e-07
4.28367e-06
5.56671e-07
3.88938e-06
3.96492e-07
3.60981e-06
2.77417e-07
3.39921e-06
2.12617e-07
3.22841e-06
1.68814e-07
3.08417e-06
1.44238e-07
2.95876e-06
1.25405e-07
2.84722e-06
1.11536e-07
2.74629e-06
1.00941e-07
2.65387e-06
9.24311e-08
2.56856e-06
8.53127e-08
2.48908e-06
7.94832e-08
2.41469e-06
7.43918e-08
2.34458e-06
7.01249e-08
2.27823e-06
6.63557e-08
2.21542e-06
6.28302e-08
2.15536e-06
6.00735e-08
2.09797e-06
5.74041e-08
2.04289e-06
5.51005e-08
1.98995e-06
5.29499e-08
1.9391e-06
5.16209e-08
1.8901e-06
4.8276e-08
1.84301e-06
4.76871e-08
1.79784e-06
4.46291e-08
1.75435e-06
4.40921e-08
1.71267e-06
4.1101e-08
1.67272e-06
4.03946e-08
1.63464e-06
3.76662e-08
1.59842e-06
3.67149e-08
1.56409e-06
3.38767e-08
1.53164e-06
3.29077e-08
1.50102e-06
3.02351e-08
1.47222e-06
2.93283e-08
1.44531e-06
2.64052e-08
1.42031e-06
2.54743e-08
1.39729e-06
2.2601e-08
1.37619e-06
2.15726e-08
1.35703e-06
1.8715e-08
1.33989e-06
1.75314e-08
1.32461e-06
1.49373e-08
1.31111e-06
1.38979e-08
1.29935e-06
1.13908e-08
1.28921e-06
1.04403e-08
1.28066e-06
8.2957e-09
1.27366e-06
7.29356e-09
1.26812e-06
5.27104e-09
1.26398e-06
4.48897e-09
1.26118e-06
2.51856e-09
1.25957e-06
1.95057e-09
1.25909e-06
1.62856e-10
1.25965e-06
-3.60097e-10
1.26107e-06
-1.58857e-09
1.26312e-06
-1.77925e-09
1.26574e-06
-2.8705e-09
1.2687e-06
-2.71206e-09
1.27201e-06
-3.52012e-09
1.27556e-06
-3.39122e-09
1.27917e-06
-3.77537e-09
1.28291e-06
-3.55762e-09
1.28665e-06
-3.8872e-09
1.29034e-06
-3.57302e-09
1.29403e-06
-3.79638e-09
1.29766e-06
-3.49835e-09
1.30123e-06
-3.67748e-09
1.30482e-06
-3.52015e-09
1.30831e-06
-3.54193e-09
1.3117e-06
-3.31574e-09
1.31494e-06
-3.29102e-09
1.31803e-06
-3.05877e-09
1.32094e-06
-2.91988e-09
-2.799e-09
-3.82348e-06
-1.07753e-06
-2.47869e-06
-1.73132e-06
-3.08891e-07
-2.79802e-06
3.23621e-06
-4.57985e-06
8.72175e-06
-7.09767e-06
1.71802e-05
-1.09614e-05
2.77996e-05
-1.37716e-05
3.66808e-05
-1.14605e-05
4.08875e-05
-5.35307e-06
3.98225e-05
1.52425e-06
3.50155e-05
6.35261e-06
2.9346e-05
7.37996e-06
2.43017e-05
6.50755e-06
2.03015e-05
5.11894e-06
1.74143e-05
3.69516e-06
1.53939e-05
2.57382e-06
1.39651e-05
1.82814e-06
1.29469e-05
1.2929e-06
1.21787e-05
9.8339e-07
1.15562e-05
7.88718e-07
1.1031e-05
6.69515e-07
1.05756e-05
5.80763e-07
1.01711e-05
5.1607e-07
9.80619e-06
4.65822e-07
9.47279e-06
4.25853e-07
9.16561e-06
3.92495e-07
8.8798e-06
3.653e-07
8.61248e-06
3.41722e-07
8.36134e-06
3.21284e-07
8.12399e-06
3.03721e-07
7.89867e-06
2.8817e-07
7.68394e-06
2.74829e-07
7.47854e-06
2.62828e-07
7.28181e-06
2.51857e-07
7.09283e-06
2.41943e-07
6.91091e-06
2.34498e-07
6.73601e-06
2.22292e-07
6.56793e-06
2.16511e-07
6.40623e-06
2.05661e-07
6.2509e-06
2.00171e-07
6.10165e-06
1.89633e-07
5.95873e-06
1.83875e-07
5.82201e-06
1.73877e-07
5.69188e-06
1.67463e-07
5.56838e-06
1.56824e-07
5.45154e-06
1.50323e-07
5.34104e-06
1.40256e-07
5.23681e-06
1.34219e-07
5.13914e-06
1.23455e-07
5.04831e-06
1.16905e-07
4.9642e-06
1.06196e-07
4.88694e-06
9.94179e-08
4.81672e-06
8.83915e-08
4.75331e-06
8.14329e-08
4.69666e-06
7.11612e-08
4.64642e-06
6.46399e-08
4.60222e-06
5.51432e-08
4.56391e-06
4.91213e-08
4.53138e-06
4.05193e-08
4.50439e-06
3.4647e-08
4.4828e-06
2.65332e-08
4.46615e-06
2.15709e-08
4.45436e-06
1.39717e-08
4.44705e-06
9.68546e-09
4.44406e-06
2.77247e-09
4.44465e-06
-7.05132e-10
4.44848e-06
-5.6338e-09
4.45505e-06
-8.00232e-09
4.4633e-06
-1.14321e-08
4.4734e-06
-1.24977e-08
4.48466e-06
-1.50432e-08
4.49673e-06
-1.52617e-08
4.50963e-06
-1.68648e-08
4.52264e-06
-1.63382e-08
4.53585e-06
-1.72812e-08
4.54898e-06
-1.65486e-08
4.56204e-06
-1.7001e-08
4.57492e-06
-1.62122e-08
4.5878e-06
-1.66753e-08
4.60052e-06
-1.61643e-08
4.61309e-06
-1.61705e-08
4.62532e-06
-1.54547e-08
4.63691e-06
-1.49369e-08
4.64798e-06
-1.40794e-08
4.65854e-06
-1.34951e-08
-1.28149e-08
-7.49132e-06
-2.74141e-06
-4.84125e-06
-4.38141e-06
-5.97325e-07
-7.04189e-06
6.28334e-06
-1.14606e-05
1.68596e-05
-1.76739e-05
3.30495e-05
-2.71514e-05
5.33484e-05
-3.40725e-05
7.06057e-05
-2.87158e-05
7.92652e-05
-1.40135e-05
7.81061e-05
2.68442e-06
6.96841e-05
1.47754e-05
5.90942e-05
1.79691e-05
4.92423e-05
1.63633e-05
4.12255e-05
1.31316e-05
3.53624e-05
9.56176e-06
3.12392e-05
6.69361e-06
2.83156e-05
4.75481e-06
2.62241e-05
3.38138e-06
2.46436e-05
2.56673e-06
2.33651e-05
2.06451e-06
2.22887e-05
1.74588e-06
2.13563e-05
1.51315e-06
2.05312e-05
1.34112e-06
1.97874e-05
1.20968e-06
1.91092e-05
1.10406e-06
1.84856e-05
1.0161e-06
1.79063e-05
9.44577e-07
1.73653e-05
8.82743e-07
1.6857e-05
8.29594e-07
1.63769e-05
7.83905e-07
1.59224e-05
7.42641e-07
1.5489e-05
7.08302e-07
1.50751e-05
6.76687e-07
1.46783e-05
6.48728e-07
1.42969e-05
6.2335e-07
1.39304e-05
6.01973e-07
1.35775e-05
5.74231e-07
1.3238e-05
5.56849e-07
1.29115e-05
5.31467e-07
1.25973e-05
5.15152e-07
1.22955e-05
4.90634e-07
1.20055e-05
4.74506e-07
1.17281e-05
4.50717e-07
1.14635e-05
4.32715e-07
1.12117e-05
4.08024e-07
1.09727e-05
3.89915e-07
1.07461e-05
3.66412e-07
1.05321e-05
3.4886e-07
1.0331e-05
3.23883e-07
1.01428e-05
3.05766e-07
9.96825e-06
2.80209e-07
9.8072e-06
2.6111e-07
9.65971e-06
2.35293e-07
9.52624e-06
2.15429e-07
9.40603e-06
1.90917e-07
9.29857e-06
1.72632e-07
9.20336e-06
1.49861e-07
9.12015e-06
1.32731e-07
9.04873e-06
1.11607e-07
8.98871e-06
9.50611e-08
8.93955e-06
7.53308e-08
8.90112e-06
6.04706e-08
8.87258e-06
4.21483e-08
8.85344e-06
2.92757e-08
8.84316e-06
1.26493e-08
8.84092e-06
1.80106e-09
8.84554e-06
-1.0491e-08
8.85566e-06
-1.77485e-08
8.87057e-06
-2.66777e-08
8.88891e-06
-3.05014e-08
8.91019e-06
-3.66062e-08
8.93373e-06
-3.85929e-08
8.95858e-06
-4.19199e-08
8.98451e-06
-4.20217e-08
9.0107e-06
-4.36681e-08
9.03734e-06
-4.30271e-08
9.06359e-06
-4.33953e-08
9.08978e-06
-4.22314e-08
9.11595e-06
-4.29794e-08
9.1419e-06
-4.20276e-08
9.16741e-06
-4.17406e-08
9.19194e-06
-3.98944e-08
9.21577e-06
-3.88255e-08
9.23835e-06
-3.66097e-08
9.25966e-06
-3.48139e-08
-3.35628e-08
-1.2297e-05
-5.52539e-06
-7.89772e-06
-8.78076e-06
-9.12571e-07
-1.4027e-05
1.03131e-05
-2.26864e-05
2.74404e-05
-3.48011e-05
5.34142e-05
-5.31253e-05
8.59126e-05
-6.65728e-05
0.000113961
-5.6762e-05
0.000128825
-2.88784e-05
0.00012847
3.03984e-06
0.000116412
2.68342e-05
0.000100052
3.43289e-05
8.40232e-05
3.23957e-05
7.0569e-05
2.65817e-05
6.05636e-05
1.95706e-05
5.34761e-05
1.37778e-05
4.84329e-05
9.80105e-06
4.48085e-05
7.00289e-06
4.20662e-05
5.31167e-06
3.98519e-05
4.27615e-06
3.79915e-05
3.60634e-06
3.6384e-05
3.12061e-06
3.49632e-05
2.76194e-06
3.3687e-05
2.48589e-06
3.25254e-05
2.26565e-06
3.14577e-05
2.0838e-06
3.04689e-05
1.93344e-06
2.95457e-05
1.8059e-06
2.86801e-05
1.69523e-06
2.78631e-05
1.60089e-06
2.7089e-05
1.51678e-06
2.63526e-05
1.44477e-06
2.56486e-05
1.38067e-06
2.49745e-05
1.3229e-06
2.43265e-05
1.27131e-06
2.37032e-05
1.22628e-06
2.31033e-05
1.17323e-06
2.25256e-05
1.13532e-06
2.19693e-05
1.08714e-06
2.14331e-05
1.05205e-06
2.09168e-05
1.00628e-06
2.04204e-05
9.71406e-07
1.99443e-05
9.26305e-07
1.94886e-05
8.89055e-07
1.90543e-05
8.41844e-07
1.86404e-05
8.04412e-07
1.82468e-05
7.59476e-07
1.78732e-05
7.23107e-07
1.75206e-05
6.75912e-07
1.71895e-05
6.37438e-07
1.68804e-05
5.88792e-07
1.65936e-05
5.48579e-07
1.63293e-05
4.99053e-07
1.60879e-05
4.57327e-07
1.5869e-05
4.09319e-07
1.56717e-05
3.70509e-07
1.54954e-05
3.25726e-07
1.53393e-05
2.89134e-07
1.52035e-05
2.47158e-07
1.50876e-05
2.11273e-07
1.49912e-05
1.71411e-07
1.49128e-05
1.39321e-07
1.48524e-05
1.0227e-07
1.48087e-05
7.34056e-08
1.47811e-05
3.9858e-08
1.47684e-05
1.47694e-08
1.47681e-05
-1.04516e-08
1.47784e-05
-2.7711e-08
1.47978e-05
-4.63705e-08
1.48244e-05
-5.68006e-08
1.48571e-05
-6.95169e-08
1.48943e-05
-7.56217e-08
1.4935e-05
-8.27856e-08
1.49778e-05
-8.45751e-08
1.50218e-05
-8.78365e-08
1.50665e-05
-8.76232e-08
1.51111e-05
-8.81022e-08
1.5156e-05
-8.6936e-08
1.52007e-05
-8.78318e-08
1.52454e-05
-8.6613e-08
1.52894e-05
-8.58632e-08
1.53321e-05
-8.24922e-08
1.53726e-05
-7.93728e-08
1.54118e-05
-7.56925e-08
1.5449e-05
-7.20083e-08
-6.90374e-08
-1.84479e-05
-9.80945e-06
-1.1737e-05
-1.54916e-05
-1.18543e-06
-2.45785e-05
1.55987e-05
-3.94706e-05
4.09884e-05
-6.01908e-05
7.90388e-05
-9.11759e-05
0.000126449
-0.000113985
0.000167888
-9.81992e-05
0.000190897
-5.18885e-05
0.000192491
1.44733e-06
0.000177129
4.21964e-05
0.00015449
5.69669e-05
0.000131068
5.5821e-05
0.000110696
4.69503e-05
9.52074e-05
3.50625e-05
8.41024e-05
2.48797e-05
7.61492e-05
1.7757e-05
7.03987e-05
1.27507e-05
6.60392e-05
9.67374e-06
6.25229e-05
7.78985e-06
5.95725e-05
6.55675e-06
5.70285e-05
5.66466e-06
5.47868e-05
5.00364e-06
5.27754e-05
4.49723e-06
5.09479e-05
4.09323e-06
4.92729e-05
3.7588e-06
4.77217e-05
3.48465e-06
4.62766e-05
3.25097e-06
4.49218e-05
3.05011e-06
4.36452e-05
2.8775e-06
4.24373e-05
2.72471e-06
4.12872e-05
2.59483e-06
4.01874e-05
2.48054e-06
3.91349e-05
2.37542e-06
3.81241e-05
2.28209e-06
3.71509e-05
2.20055e-06
3.62127e-05
2.1105e-06
3.53089e-05
2.03992e-06
3.44368e-05
1.95853e-06
3.35953e-05
1.8943e-06
3.27842e-05
1.81667e-06
3.20015e-05
1.75467e-06
3.12485e-05
1.67883e-06
3.05264e-05
1.61177e-06
2.98345e-05
1.53314e-06
2.91733e-05
1.46619e-06
2.85411e-05
1.39124e-06
2.7939e-05
1.32587e-06
2.73676e-05
1.24669e-06
2.68277e-05
1.17794e-06
2.63206e-05
1.09541e-06
2.58463e-05
1.02344e-06
2.54064e-05
9.38436e-07
2.5001e-05
8.63154e-07
2.46297e-05
7.80259e-07
2.42915e-05
7.09186e-07
2.39857e-05
6.31136e-07
2.37123e-05
5.62857e-07
2.34709e-05
4.88242e-07
2.32611e-05
4.2146e-07
2.30819e-05
3.5025e-07
2.29334e-05
2.88231e-07
2.28139e-05
2.21485e-07
2.27226e-05
1.65159e-07
2.26579e-05
1.04196e-07
2.26183e-05
5.4589e-08
2.26006e-05
7.06282e-09
2.26019e-05
-2.87161e-08
2.26193e-05
-6.40761e-08
2.26505e-05
-8.7652e-08
2.26932e-05
-1.12498e-07
2.27452e-05
-1.27433e-07
2.28041e-05
-1.41809e-07
2.2868e-05
-1.48254e-07
2.29349e-05
-1.54964e-07
2.30037e-05
-1.56288e-07
2.30744e-05
-1.58919e-07
2.31449e-05
-1.57264e-07
2.32158e-05
-1.58767e-07
2.32863e-05
-1.57079e-07
2.33563e-05
-1.55946e-07
2.3424e-05
-1.50126e-07
2.34897e-05
-1.45036e-07
2.3552e-05
-1.37981e-07
2.36112e-05
-1.31237e-07
-1.26274e-07
-2.61564e-05
-1.60794e-05
-1.64293e-05
-2.52188e-05
-1.3062e-06
-3.97016e-05
2.24655e-05
-6.32425e-05
5.80691e-05
-9.57943e-05
0.000110653
-0.00014376
0.000175724
-0.000179057
0.000233148
-0.000155622
0.000266162
-8.49027e-05
0.00027063
-3.02033e-06
0.000252147
6.06801e-05
0.000222938
8.61755e-05
0.000191477
8.72849e-05
0.000163221
7.52034e-05
0.000141158
5.71281e-05
0.000125043
4.09922e-05
0.000113358
2.9444e-05
0.000104829
2.12777e-05
9.83283e-05
1.61766e-05
9.30806e-05
1.30351e-05
8.86794e-05
1.09579e-05
8.48875e-05
9.4566e-06
8.1549e-05
8.34215e-06
7.8558e-05
7.48823e-06
7.58458e-05
6.80542e-06
7.33606e-05
6.24403e-06
7.10628e-05
5.78245e-06
6.89224e-05
5.39139e-06
6.69183e-05
5.05426e-06
6.50296e-05
4.76616e-06
6.32433e-05
4.51108e-06
6.15438e-05
4.29442e-06
5.99204e-05
4.10389e-06
5.83649e-05
3.93104e-06
5.68695e-05
3.77746e-06
5.54298e-05
3.64117e-06
5.40407e-05
3.49875e-06
5.27002e-05
3.38123e-06
5.14053e-05
3.25272e-06
5.0153e-05
3.14742e-06
4.89422e-05
3.0267e-06
4.77725e-05
2.92498e-06
4.66429e-05
2.80793e-06
4.55553e-05
2.69993e-06
4.45089e-05
2.57906e-06
4.35038e-05
2.47189e-06
4.25393e-05
2.35524e-06
4.16152e-05
2.25065e-06
4.07322e-05
2.12905e-06
3.98935e-05
2.01723e-06
3.9099e-05
1.88946e-06
3.83515e-05
1.77152e-06
3.76509e-05
1.63849e-06
3.69993e-05
1.5153e-06
3.63968e-05
1.38236e-06
3.58419e-05
1.26457e-06
3.53343e-05
1.13835e-06
3.48744e-05
1.02305e-06
3.44623e-05
9.00069e-07
3.40981e-05
7.86013e-07
3.37815e-05
6.66547e-07
3.35106e-05
5.59579e-07
3.3286e-05
4.45792e-07
3.31058e-05
3.45776e-07
3.29686e-05
2.41038e-07
3.28716e-05
1.51815e-07
3.28115e-05
6.69605e-08
3.27836e-05
-3.96479e-10
3.27841e-05
-6.48635e-08
3.28091e-05
-1.1236e-07
3.28557e-05
-1.59318e-07
3.29195e-05
-1.91112e-07
3.29975e-05
-2.19928e-07
3.3085e-05
-2.35566e-07
3.31802e-05
-2.50272e-07
3.32803e-05
-2.56295e-07
3.33835e-05
-2.62251e-07
3.34887e-05
-2.62273e-07
3.35956e-05
-2.65746e-07
3.3703e-05
-2.64447e-07
3.38089e-05
-2.61881e-07
3.39126e-05
-2.53741e-07
3.40123e-05
-2.44732e-07
3.41074e-05
-2.32989e-07
3.41981e-05
-2.22024e-07
-2.13791e-07
-3.56263e-05
-2.49501e-05
-2.20129e-05
-3.88322e-05
-1.11479e-06
-6.05997e-05
3.12873e-05
-9.56447e-05
7.92647e-05
-0.000143772
0.000148896
-0.000213391
0.000234269
-0.000264432
0.000310181
-0.000231532
0.000354861
-0.000129583
0.000362556
-1.07143e-05
0.000340267
8.2969e-05
0.000303603
0.00012284
0.000263671
0.000127219
0.000227425
0.000111447
0.000198582
8.59729e-05
0.000177063
6.25095e-05
0.000161175
4.53334e-05
0.000149397
3.30543e-05
0.000140333
2.52427e-05
0.00013298
2.0386e-05
0.000126793
1.71449e-05
0.000121455
1.47943e-05
0.000116751
1.30464e-05
0.000112536
1.17025e-05
0.00010871
1.06318e-05
0.000105207
9.74708e-06
0.000101965
9.0242e-06
9.89473e-05
8.40927e-06
9.61191e-05
7.88246e-06
9.34543e-05
7.43104e-06
9.09327e-05
7.03267e-06
8.85316e-05
6.69555e-06
8.62391e-05
6.39638e-06
8.40399e-05
6.13032e-06
8.1925e-05
5.89234e-06
7.9885e-05
5.68209e-06
7.79148e-05
5.4681e-06
7.6011e-05
5.28577e-06
7.41687e-05
5.09436e-06
7.23828e-05
4.93407e-06
7.06523e-05
4.75651e-06
6.8974e-05
4.60384e-06
6.73484e-05
4.43306e-06
6.57751e-05
4.27373e-06
6.4256e-05
4.09775e-06
6.27896e-05
3.93879e-06
6.13737e-05
3.77077e-06
6.00093e-05
3.61557e-06
5.8699e-05
3.43884e-06
5.74439e-05
3.27288e-06
5.62469e-05
3.086e-06
5.51095e-05
2.90947e-06
5.40349e-05
2.71262e-06
5.30254e-05
2.52524e-06
5.20808e-05
2.32657e-06
5.12015e-05
2.14431e-06
5.03883e-05
1.95118e-06
4.96415e-05
1.77025e-06
4.89628e-05
1.57852e-06
4.83525e-05
1.39662e-06
4.78113e-05
1.20747e-06
4.73391e-05
1.0322e-06
4.69353e-05
8.49306e-07
4.65987e-05
6.82729e-07
4.63287e-05
5.10673e-07
4.61215e-05
3.59314e-07
4.59733e-05
2.14997e-07
4.58775e-05
9.56235e-08
4.58301e-05
-1.7721e-08
4.5826e-05
-1.07962e-07
4.5859e-05
-1.92521e-07
4.59246e-05
-2.56505e-07
4.60154e-05
-3.109e-07
4.61267e-05
-3.46651e-07
4.62528e-05
-3.76462e-07
4.63903e-05
-3.9377e-07
4.6535e-05
-4.07035e-07
4.6686e-05
-4.13146e-07
4.68397e-05
-4.19467e-07
4.69963e-05
-4.20998e-07
4.71521e-05
-4.17738e-07
4.73044e-05
-4.05922e-07
4.74519e-05
-3.92282e-07
4.7594e-05
-3.75085e-07
4.77283e-05
-3.56253e-07
-3.44641e-07
-4.70355e-05
-3.71895e-05
-2.84772e-05
-5.73904e-05
-3.92231e-07
-8.86847e-05
4.2474e-05
-0.000138511
0.00010513
-0.000206428
0.000194261
-0.000302522
0.000302391
-0.000372564
0.000399309
-0.000328448
0.000457344
-0.000187619
0.000468239
-2.16085e-05
0.000440662
0.000110546
0.00039463
0.000168872
0.000344963
0.000176887
0.000300442
0.000155966
0.000265147
0.000121269
0.000238613
8.9042e-05
0.000218743
6.52057e-05
0.000203771
4.80236e-05
0.000192096
3.692e-05
0.000182537
2.99428e-05
0.000174439
2.52436e-05
0.000167411
2.18221e-05
0.000161194
1.9263e-05
0.000155604
1.72926e-05
0.00015052
1.57157e-05
0.00014585
1.44174e-05
0.000141523
1.33506e-05
0.000137486
1.24469e-05
0.000133697
1.16716e-05
0.000130122
1.10062e-05
0.000126733
1.04211e-05
0.000123504
9.92523e-06
0.000120411
9.4886e-06
0.000117445
9.09709e-06
0.000114585
8.75245e-06
0.000111823
8.44455e-06
0.000109151
8.13901e-06
0.000106563
7.87456e-06
0.000104051
7.60589e-06
0.000101611
7.37492e-06
9.9239e-05
7.12782e-06
9.69311e-05
6.91228e-06
9.46867e-05
6.67704e-06
9.2506e-05
6.45495e-06
9.03886e-05
6.21467e-06
8.83331e-05
5.99483e-06
8.63386e-05
5.76494e-06
8.44048e-05
5.54998e-06
8.25325e-05
5.3106e-06
8.07262e-05
5.07966e-06
7.89906e-05
4.82125e-06
7.73262e-05
4.57436e-06
7.57387e-05
4.29962e-06
7.42311e-05
4.03337e-06
7.28058e-05
3.75148e-06
7.14639e-05
3.48671e-06
7.02065e-05
3.2082e-06
6.90374e-05
2.93965e-06
6.79588e-05
2.65687e-06
6.69748e-05
2.38097e-06
6.60858e-05
2.09617e-06
6.5294e-05
1.82448e-06
6.45997e-05
1.54327e-06
6.40038e-05
1.27906e-06
6.35049e-05
1.00928e-06
6.31021e-05
7.62352e-07
6.27888e-05
5.28088e-07
6.25598e-05
3.24971e-07
6.24079e-05
1.33851e-07
6.23283e-05
-2.79835e-08
6.23129e-05
-1.77389e-07
6.23535e-05
-2.96916e-07
6.244e-05
-3.97565e-07
6.25636e-05
-4.70017e-07
6.27176e-05
-5.3059e-07
6.28939e-05
-5.69914e-07
6.30882e-05
-6.01455e-07
6.32939e-05
-6.18644e-07
6.351e-05
-6.35727e-07
6.37301e-05
-6.40979e-07
6.39528e-05
-6.40456e-07
6.41717e-05
-6.24786e-07
6.43849e-05
-6.05506e-07
6.45897e-05
-5.79847e-07
6.47862e-05
-5.52682e-07
-5.33251e-07
-6.0511e-05
-5.37442e-05
-3.57443e-05
-8.21572e-05
1.14327e-06
-0.000125572
5.64524e-05
-0.00019382
0.000136156
-0.000286132
0.000247068
-0.000413434
0.000380195
-0.000505693
0.000500918
-0.00044917
0.000574455
-0.000261156
0.000588683
-3.58366e-05
0.000554221
0.000145008
0.000496442
0.000226651
0.000434836
0.000238494
0.000380614
0.000210188
0.000338377
0.000163508
0.000306985
0.000120433
0.000283533
8.8659e-05
0.000265769
6.57862e-05
0.000251811
5.08789e-05
0.00024029
4.14628e-05
0.000230454
3.50794e-05
0.000221861
3.04154e-05
0.000214213
2.69106e-05
0.000207304
2.42016e-05
0.000200986
2.20335e-05
0.000195162
2.02419e-05
0.000189743
1.87692e-05
0.00018467
1.75199e-05
0.000179895
1.6447e-05
0.000175371
1.55304e-05
0.000171073
1.47185e-05
0.000166966
1.40322e-05
0.000163025
1.34294e-05
0.000159232
1.28908e-05
0.000155568
1.24158e-05
0.000152022
1.19917e-05
0.000148579
1.15809e-05
0.000145236
1.12183e-05
0.000141983
1.08586e-05
0.000138812
1.05464e-05
0.000135718
1.02214e-05
0.000132697
9.93348e-06
0.000129747
9.62681e-06
0.000126867
9.33516e-06
0.000124057
9.02472e-06
0.000121314
8.73852e-06
0.000118635
8.44281e-06
0.00011602
8.16557e-06
0.000113473
7.85749e-06
0.000110996
7.55708e-06
0.000108592
7.22459e-06
0.000106269
6.89799e-06
0.000104029
6.5389e-06
0.000101881
6.18243e-06
9.98255e-05
5.80648e-06
9.78677e-05
5.4449e-06
9.60109e-05
5.06463e-06
9.42604e-05
4.69052e-06
9.26231e-05
4.29388e-06
9.11046e-05
3.89984e-06
8.97089e-05
3.49159e-06
8.84414e-05
3.09236e-06
8.7306e-05
2.67848e-06
8.63046e-05
2.28076e-06
8.54408e-05
1.87284e-06
8.47127e-05
1.49064e-06
8.41164e-05
1.1242e-06
8.36465e-05
7.95176e-07
8.32977e-05
4.82454e-07
8.30621e-05
2.07814e-07
8.29327e-05
-4.81003e-08
8.28965e-05
-2.60595e-07
8.29404e-05
-4.41566e-07
8.30503e-05
-5.79752e-07
8.3214e-05
-6.94367e-07
8.34229e-05
-7.78711e-07
8.36651e-05
-8.4372e-07
8.3934e-05
-8.87408e-07
8.4222e-05
-9.23848e-07
8.45235e-05
-9.42424e-07
8.48316e-05
-9.48586e-07
8.51386e-05
-9.31702e-07
8.54381e-05
-9.05038e-07
8.57295e-05
-8.71194e-07
8.60088e-05
-8.31967e-07
-8.03466e-07
-7.61023e-05
-7.57603e-05
-4.36526e-05
-0.000114607
3.83218e-06
-0.000173057
7.36337e-05
-0.000263622
0.000172709
-0.000385207
0.000307444
-0.000548169
0.000467611
-0.000665861
0.000615484
-0.000597041
0.000707535
-0.000353208
0.000725832
-5.41322e-05
0.000683314
0.000187527
0.000611461
0.000298503
0.000535304
0.000314652
0.000469135
0.000276355
0.000418418
0.000214226
0.000381372
0.000157478
0.000354063
0.000115969
0.000333538
8.63094e-05
0.000317456
6.69619e-05
0.000304182
5.47366e-05
0.000292825
4.64359e-05
0.000282874
4.03666e-05
0.000273987
3.57974e-05
0.000265928
3.2261e-05
0.000258536
2.94256e-05
0.000251693
2.70842e-05
0.000245306
2.51568e-05
0.000239306
2.35202e-05
0.000233637
2.21156e-05
0.000228254
2.0914e-05
0.00022312
1.98521e-05
0.000218199
1.89531e-05
0.000213466
1.81622e-05
0.000208894
1.74629e-05
0.000204466
1.68443e-05
0.000200168
1.62903e-05
0.000195984
1.5764e-05
0.000191908
1.52953e-05
0.000187928
1.48376e-05
0.000184039
1.4436e-05
0.000180232
1.40281e-05
0.000176501
1.36651e-05
0.000172842
1.32855e-05
0.000169256
1.2922e-05
0.000165738
1.25417e-05
0.000162287
1.21898e-05
0.000158898
1.1832e-05
0.00015557
1.14936e-05
0.000152305
1.11221e-05
0.000149106
1.07572e-05
0.000145977
1.03529e-05
0.000142923
9.9523e-06
0.000139952
9.50977e-06
0.000137068
9.0664e-06
0.000134279
8.5959e-06
0.000131588
8.13586e-06
0.000129004
7.64815e-06
0.000126534
7.16066e-06
0.000124188
6.63977e-06
0.000121977
6.11177e-06
0.000119909
5.5593e-06
0.000117993
5.00822e-06
0.000116241
4.43075e-06
0.000114658
3.86339e-06
0.000113252
3.27923e-06
0.000112027
2.71532e-06
0.000110984
2.16691e-06
0.000110121
1.65911e-06
0.000109433
1.1699e-06
0.000108917
7.23859e-07
0.000108564
3.04719e-07
0.000108361
-5.66142e-08
0.000108287
-3.67704e-07
0.000108325
-6.17721e-07
0.000108459
-8.28478e-07
0.000108672
-9.91736e-07
0.000108949
-1.12067e-06
0.000109276
-1.21454e-06
0.000109643
-1.29083e-06
0.000110039
-1.3389e-06
0.00011045
-1.35959e-06
0.000110867
-1.3486e-06
0.000111281
-1.31853e-06
0.000111684
-1.27417e-06
0.000112073
-1.22135e-06
-1.18052e-06
-9.37501e-05
-0.000104601
-5.19473e-05
-0.00015641
8.05557e-06
-0.00023306
9.43723e-05
-0.000349939
0.000214983
-0.000505819
0.000375316
-0.000708502
0.000564356
-0.000854902
0.000743496
-0.000776181
0.000858175
-0.000467887
0.000882077
-7.80343e-05
0.000831148
0.000238456
0.000743134
0.000386517
0.000649643
0.000408143
0.00056888
0.000357117
0.000507586
0.000275521
0.000463411
0.000201652
0.000431305
0.000148076
0.000407452
0.000110162
0.000388928
8.54868e-05
0.000373735
6.99286e-05
0.000360786
5.93852e-05
0.000349467
5.16856e-05
0.000339365
4.58988e-05
0.000330208
4.14181e-05
0.000321805
3.7829e-05
0.000314022
3.48667e-05
0.000306755
3.24248e-05
0.000299916
3.03584e-05
0.000293448
2.85842e-05
0.000287298
2.70638e-05
0.000281426
2.57238e-05
0.000275788
2.45916e-05
0.00027035
2.36001e-05
0.000265097
2.27152e-05
0.000259996
2.1946e-05
0.000255036
2.12506e-05
0.000250201
2.05987e-05
0.000245481
2.00152e-05
0.000240865
1.94536e-05
0.000236344
1.89576e-05
0.000231908
1.84638e-05
0.000227552
1.80214e-05
0.000223269
1.75675e-05
0.000219059
1.7133e-05
0.000214919
1.66814e-05
0.000210842
1.62671e-05
0.000206823
1.58507e-05
0.000202856
1.54603e-05
0.000198946
1.50326e-05
0.00019509
1.46129e-05
0.000191294
1.4149e-05
0.00018756
1.36863e-05
0.000183893
1.31764e-05
0.000180301
1.26588e-05
0.000176789
1.21076e-05
0.00017336
1.15653e-05
0.000170023
1.09848e-05
0.000166787
1.03967e-05
0.000163667
9.75963e-06
0.000160674
9.10547e-06
0.000157823
8.4096e-06
0.000155131
7.70118e-06
0.000152612
6.94922e-06
0.000150281
6.1943e-06
0.000148156
5.40437e-06
0.000146248
4.62379e-06
0.000144567
3.84786e-06
0.000143116
3.11021e-06
0.000141903
2.38216e-06
0.000140931
1.69595e-06
0.000140195
1.04083e-06
0.000139681
4.57922e-07
0.000139368
-5.54476e-08
0.000139234
-4.83212e-07
0.000139256
-8.5081e-07
0.000139413
-1.1485e-06
0.000139684
-1.39116e-06
0.000140046
-1.57639e-06
0.000140483
-1.72794e-06
0.000140974
-1.83019e-06
0.000141504
-1.88949e-06
0.000142051
-1.89584e-06
0.000142602
-1.86959e-06
0.000143148
-1.81955e-06
0.000143678
-1.75163e-06
-1.69768e-06
-0.000113266
-0.000141842
-6.02864e-05
-0.00020939
1.41977e-05
-0.000307544
0.000118921
-0.000454662
0.000262975
-0.000649872
0.000450435
-0.000895963
0.000669948
-0.00107442
0.00088543
-0.000991662
0.00102773
-0.000610186
0.00105957
-0.000109878
0.00100135
0.000296683
0.00089549
0.000492373
0.000781722
0.000521912
0.000683405
0.000455433
0.00060907
0.000349857
0.00055591
0.000254811
0.000517682
0.000186304
0.000489568
0.000138275
0.000467946
0.00010711
0.000450356
8.7518e-05
0.000435461
7.42804e-05
0.000422496
6.46501e-05
0.000410977
5.74181e-05
0.000400563
5.1832e-05
0.000391029
4.7363e-05
0.000382218
4.3678e-05
0.000373997
4.06453e-05
0.000366276
3.80797e-05
0.000358981
3.58793e-05
0.000352048
3.39966e-05
0.000345432
3.23396e-05
0.000339087
3.09369e-05
0.000332972
2.97152e-05
0.000327059
2.86282e-05
0.000321326
2.76794e-05
0.000315749
2.68278e-05
0.000310314
2.60331e-05
0.000305009
2.53202e-05
0.000299824
2.46385e-05
0.000294742
2.40401e-05
0.000289761
2.34444e-05
0.000284868
2.29151e-05
0.00028006
2.23754e-05
0.000275331
2.18622e-05
0.000270677
2.13346e-05
0.000266095
2.08502e-05
0.000261572
2.03732e-05
0.000257104
1.99286e-05
0.000252686
1.94501e-05
0.00024832
1.89795e-05
0.000244006
1.84629e-05
0.000239742
1.79501e-05
0.000235531
1.73873e-05
0.000231377
1.68131e-05
0.00022728
1.62042e-05
0.000223242
1.56037e-05
0.000219267
1.49596e-05
0.000215365
1.4299e-05
0.000211543
1.35815e-05
0.00020782
1.28293e-05
0.000204208
1.20207e-05
0.000200726
1.1184e-05
0.000197397
1.02779e-05
0.000194243
9.34862e-06
0.000191287
8.35967e-06
0.000188553
7.35807e-06
0.000186066
6.33553e-06
0.000183844
5.33229e-06
0.000181905
4.32065e-06
0.00018027
3.33089e-06
0.000178948
2.36322e-06
0.000177931
1.47467e-06
0.000177202
6.73515e-07
0.000176738
-1.90387e-08
0.000176515
-6.27692e-07
0.000176508
-1.14166e-06
0.000176688
-1.57053e-06
0.000177025
-1.91368e-06
0.000177492
-2.19448e-06
0.000178062
-2.40075e-06
0.000178705
-2.53264e-06
0.000179393
-2.58349e-06
0.000180103
-2.57966e-06
0.000180817
-2.53321e-06
0.000181522
-2.45663e-06
-2.39069e-06
-0.00013433
-0.00018924
-6.8273e-05
-0.000275447
2.25861e-05
-0.000398403
0.00014739
-0.000579466
0.000316494
-0.000818976
0.000532465
-0.00111193
0.000783975
-0.00132593
0.00104141
-0.0012491
0.00121603
-0.000784803
0.00125928
-0.000153126
0.00119769
0.000358269
0.00107302
0.000617038
0.000935902
0.000659034
0.000816686
0.000574648
0.000726455
0.000440088
0.000662116
0.00031915
0.000616151
0.00023227
0.000582608
0.000171818
0.000557025
0.000132694
0.000536378
0.000108165
0.000519014
9.1644e-05
0.000503991
7.96731e-05
0.000490698
7.07116e-05
0.00047873
6.38e-05
0.000467809
5.82836e-05
0.000457748
5.3739e-05
0.000448386
5.0007e-05
0.000439616
4.68504e-05
0.000431347
4.41483e-05
0.000423507
4.18361e-05
0.000416039
3.98078e-05
0.000408888
3.80873e-05
0.000402014
3.65901e-05
0.000395376
3.52658e-05
0.00038895
3.41053e-05
0.000382714
3.30639e-05
0.000376644
3.2103e-05
0.000370735
3.12299e-05
0.000364965
3.04081e-05
0.000359327
2.9678e-05
0.000353808
2.89628e-05
0.000348398
2.83253e-05
0.000343094
2.76796e-05
0.00033789
2.70666e-05
0.000332781
2.64427e-05
0.00032776
2.58717e-05
0.000322815
2.53181e-05
0.000317937
2.48063e-05
0.000313123
2.4264e-05
0.000308366
2.37368e-05
0.000303666
2.31634e-05
0.000299018
2.25978e-05
0.000294421
2.19843e-05
0.000289873
2.1361e-05
0.000285371
2.07066e-05
0.00028091
2.00645e-05
0.000276488
1.93812e-05
0.000272105
1.86826e-05
0.00026777
1.79164e-05
0.000263488
1.71111e-05
0.000259273
1.62361e-05
0.000255138
1.53183e-05
0.000251107
1.43091e-05
0.0002472
1.32563e-05
0.000243445
1.21146e-05
0.000239875
1.09279e-05
0.000236523
9.6871e-06
0.000233421
8.43467e-06
0.000230613
7.12822e-06
0.000228138
5.8064e-06
0.000226027
4.47452e-06
0.000224292
3.20896e-06
0.000222928
2.03733e-06
0.000221926
9.83412e-07
0.000221268
3.08748e-08
0.000220927
-8.00599e-07
0.000220873
-1.51726e-06
0.000221072
-2.11212e-06
0.000221487
-2.60932e-06
0.000222077
-2.99147e-06
0.000222804
-3.2591e-06
0.000223623
-3.40301e-06
0.000224498
-3.45397e-06
0.000225399
-3.43478e-06
0.000226305
-3.36229e-06
-3.29271e-06
-0.000156517
-0.000248656
-7.55283e-05
-0.000356436
3.34134e-05
-0.000507345
0.000179725
-0.000725778
0.000375238
-0.00101449
0.000621199
-0.00135789
0.000906692
-0.00161142
0.00120976
-0.00155217
0.00141979
-0.000994834
0.00148108
-0.000214417
0.00142391
0.00041544
0.00128063
0.000760322
0.00111708
0.000822588
0.000973222
0.000718502
0.000863768
0.000549542
0.000785626
0.000397292
0.000729982
0.000287914
0.000689596
0.000212203
0.000659
0.000163289
0.000634498
0.000132667
0.000614032
0.00011211
0.000596419
9.7286e-05
0.000580919
8.62119e-05
0.00056702
7.76987e-05
0.000554384
7.09195e-05
0.000542778
6.53451e-05
0.000532015
6.07707e-05
0.000521956
5.69087e-05
0.0005125
5.36046e-05
0.000503556
5.07801e-05
0.000495057
4.83068e-05
0.00048694
4.62039e-05
0.000479152
4.43787e-05
0.000471655
4.27628e-05
0.000464412
4.13482e-05
0.000457399
4.00772e-05
0.000450593
3.89084e-05
0.000443978
3.78453e-05
0.000437546
3.68403e-05
0.000431272
3.59523e-05
0.000425152
3.5082e-05
0.000419173
3.43044e-05
0.000413327
3.35261e-05
0.000407613
3.27804e-05
0.000402024
3.20321e-05
0.000396551
3.13443e-05
0.00039118
3.06894e-05
0.000385901
3.00849e-05
0.000380706
2.94587e-05
0.000375592
2.88517e-05
0.000370554
2.82013e-05
0.000365583
2.75691e-05
0.000360676
2.68902e-05
0.000355829
2.62089e-05
0.000351033
2.55024e-05
0.000346276
2.48213e-05
0.000341553
2.41046e-05
0.000336857
2.33787e-05
0.000332185
2.25877e-05
0.000327543
2.17541e-05
0.000322926
2.0852e-05
0.000318349
1.98962e-05
0.000313821
1.88371e-05
0.000309356
1.77216e-05
0.000304976
1.64945e-05
0.00030071
1.51933e-05
0.000296593
1.38038e-05
0.000292668
1.23607e-05
0.000288981
1.08148e-05
0.000285597
9.19015e-06
0.000282574
7.49791e-06
0.000279951
5.83189e-06
0.000277751
4.23694e-06
0.000275986
2.74947e-06
0.000274659
1.35765e-06
0.000273763
9.5327e-08
0.000273273
-1.02758e-06
0.000273159
-1.99754e-06
0.000273376
-2.82705e-06
0.00027388
-3.49521e-06
0.000274611
-3.99019e-06
0.000275511
-4.3028e-06
0.000276527
-4.46937e-06
0.000277616
-4.5237e-06
0.000278738
-4.48423e-06
-4.43267e-06
-0.000179393
-0.000321929
-8.18006e-05
-0.000454029
4.66624e-05
-0.000635808
0.000215724
-0.00089484
0.000438965
-0.00123773
0.000716876
-0.00163581
0.00103951
-0.00193406
0.0013873
-0.00189995
0.00163494