/*--------------------------------*- C++ -*----------------------------------*\
| =========                 |                                                 |
| \\      /  F ield         | OpenFOAM: The Open Source CFD Toolbox           |
|  \\    /   O peration     | Version:  2412                                  |
|   \\  /    A nd           | Website:  www.openfoam.com                      |
|    \\/     M anipulation  |                                                 |
\*---------------------------------------------------------------------------*/
FoamFile
{
    version     2.0;
    format      ascii;
    arch        "LSB;label=32;scalar=64";
    class       volScalarField;
    location    "100";
    object      nut;
}
// * * * * * * * * * * * * * * * * * * * * * * * * * * * * * * * * * * * * * //

dimensions      [0 2 -1 0 0 0 0];

internalField   nonuniform List<scalar> 
32591
(
4.74561e-11
8.23331e-11
4.18248e-11
8.90136e-12
6.32068e-12
1.51691e-11
3.51724e-11
3.03097e-10
4.21195e-10
4.33119e-10
3.83566e-10
3.52024e-10
3.35397e-10
3.31067e-10
3.37402e-10
3.47678e-10
3.5403e-10
3.56133e-10
3.55633e-10
3.53625e-10
3.53392e-10
3.57128e-10
3.56579e-10
7.47726e-11
7.53259e-11
7.57533e-11
7.61457e-11
7.6622e-11
7.71854e-11
7.77864e-11
7.83828e-11
7.89813e-11
7.95963e-11
8.02285e-11
8.08727e-11
8.15267e-11
8.21856e-11
8.28514e-11
8.35219e-11
8.41947e-11
8.48676e-11
8.55393e-11
8.62122e-11
8.68831e-11
8.75474e-11
8.82058e-11
8.8859e-11
8.95117e-11
9.01596e-11
9.0795e-11
9.14224e-11
9.20412e-11
9.26463e-11
9.32434e-11
9.38297e-11
9.44008e-11
9.49621e-11
9.55111e-11
9.60443e-11
9.65659e-11
9.70761e-11
9.75764e-11
9.80624e-11
9.85329e-11
9.89913e-11
9.94394e-11
9.98739e-11
1.00297e-10
1.0071e-10
1.0111e-10
1.01499e-10
1.01867e-10
1.02157e-10
7.89279e-10
1.0286e-10
8.14743e-10
8.26671e-10
8.38745e-10
8.51073e-10
8.63697e-10
8.76578e-10
8.89774e-10
9.03262e-10
9.17101e-10
9.31338e-10
9.45942e-10
9.60954e-10
9.76374e-10
9.92251e-10
1.00863e-09
1.02547e-09
1.04279e-09
1.06065e-09
1.07905e-09
1.09799e-09
1.11746e-09
1.13746e-09
1.158e-09
1.17914e-09
1.20084e-09
1.22312e-09
1.24596e-09
1.26934e-09
1.29324e-09
1.31768e-09
1.34268e-09
1.36822e-09
1.39427e-09
1.42081e-09
1.44777e-09
1.47507e-09
1.50254e-09
1.53006e-09
1.55761e-09
1.58506e-09
1.61231e-09
1.63926e-09
1.66569e-09
1.69156e-09
1.71679e-09
1.7414e-09
1.75714e-09
1.11846e-10
1.11958e-10
1.12077e-10
1.12206e-10
1.12346e-10
1.12498e-10
1.12666e-10
1.12864e-10
1.13078e-10
1.13367e-10
1.99886e-09
2.04216e-09
2.0965e-09
1.15878e-10
1.17146e-10
1.18592e-10
1.19994e-10
1.21512e-10
1.24247e-10
1.30487e-10
1.42726e-10
1.61776e-09
1.96254e-10
6.83876e-10
5.5137e-10
2.71518e-10
4.07904e-11
4.61187e-14
4.33694e-11
2.79335e-10
5.6081e-10
6.92697e-10
1.95566e-10
1.58459e-10
1.84863e-09
2.14596e-09
1.24829e-10
1.21314e-10
1.19675e-10
1.17879e-10
1.16046e-10
1.14463e-10
1.90944e-09
1.85843e-09
1.81614e-09
1.12354e-10
1.11751e-10
1.11604e-10
1.11483e-10
1.11391e-10
1.1132e-10
1.1127e-10
1.11228e-10
1.11186e-10
1.11143e-10
1.63193e-09
1.62765e-09
1.61101e-09
1.59349e-09
1.57511e-09
1.5559e-09
1.53593e-09
1.51541e-09
1.4944e-09
1.473e-09
1.45133e-09
1.4294e-09
1.40736e-09
1.38536e-09
1.36349e-09
1.34179e-09
1.32032e-09
1.29913e-09
1.27827e-09
1.25771e-09
1.23745e-09
1.21751e-09
1.19794e-09
1.17877e-09
1.16e-09
1.14169e-09
1.12384e-09
1.10647e-09
1.08957e-09
1.07312e-09
1.05713e-09
1.04162e-09
1.02651e-09
1.01176e-09
9.974e-10
9.83375e-10
9.69634e-10
9.56177e-10
9.42956e-10
9.30001e-10
9.17268e-10
9.04701e-10
8.92328e-10
8.80106e-10
8.68055e-10
1.0473e-10
1.04275e-10
1.03951e-10
1.03607e-10
1.03253e-10
1.02908e-10
1.0255e-10
1.0218e-10
1.01796e-10
1.014e-10
1.00993e-10
1.00574e-10
1.00141e-10
9.96969e-11
9.92407e-11
9.87684e-11
9.82815e-11
9.77841e-11
9.7275e-11
9.67528e-11
9.62154e-11
9.56633e-11
9.51021e-11
9.45234e-11
9.39335e-11
9.33338e-11
9.27192e-11
9.20948e-11
9.14612e-11
9.08134e-11
9.01569e-11
8.94921e-11
8.88265e-11
8.81551e-11
8.74756e-11
8.67922e-11
8.61078e-11
8.54197e-11
8.4729e-11
8.40385e-11
8.33502e-11
8.26664e-11
8.19851e-11
8.13113e-11
8.06471e-11
7.99982e-11
7.93636e-11
7.87293e-11
7.80888e-11
7.74845e-11
7.69654e-11
7.65286e-11
7.60545e-11
7.54444e-11
7.4688e-11
7.41243e-11
7.40419e-11
7.46281e-11
7.55703e-11
7.58605e-11
7.5168e-11
7.33714e-11
7.06695e-11
6.94178e-11
7.10266e-11
7.60015e-11
8.41021e-11
1.10539e-10
1.50177e-10
3.03006e-10
4.20211e-11
1.43559e-11
1.03017e-11
1.41058e-11
3.76171e-11
7.44477e-11
4.72279e-11
3.86073e-09
5.20918e-09
3.18774e-09
9.37547e-10
5.86795e-10
1.18336e-09
6.23311e-09
3.31151e-08
3.91092e-08
4.30955e-08
4.15005e-08
3.93991e-08
3.8449e-08
3.82965e-08
3.8737e-08
3.93302e-08
3.96951e-08
3.98109e-08
3.98404e-08
3.98455e-08
3.999e-08
4.04235e-08
3.94954e-08
4.45229e-09
4.47566e-09
4.50099e-09
4.52844e-09
4.55878e-09
4.59143e-09
4.62554e-09
4.66071e-09
4.69725e-09
4.73532e-09
4.77466e-09
4.81519e-09
4.85695e-09
4.89972e-09
4.94348e-09
4.98822e-09
5.03379e-09
5.08009e-09
5.12707e-09
5.1748e-09
5.22314e-09
5.27189e-09
5.32102e-09
5.37056e-09
5.42054e-09
5.47075e-09
5.52106e-09
5.57162e-09
5.62232e-09
5.67292e-09
5.72365e-09
5.77441e-09
5.82494e-09
5.87551e-09
5.92592e-09
5.97604e-09
6.02602e-09
6.07598e-09
6.12585e-09
6.17543e-09
6.22471e-09
6.27385e-09
6.32287e-09
6.37169e-09
6.42036e-09
6.469e-09
6.51759e-09
6.56604e-09
6.61446e-09
6.67635e-09
8.21528e-08
6.77376e-09
8.46937e-08
8.57673e-08
8.68536e-08
8.79588e-08
8.90843e-08
9.02301e-08
9.13991e-08
9.25905e-08
9.38081e-08
9.50544e-08
9.63296e-08
9.7635e-08
9.89711e-08
1.00343e-07
1.0175e-07
1.03193e-07
1.04673e-07
1.06191e-07
1.07749e-07
1.09346e-07
1.10983e-07
1.12658e-07
1.14372e-07
1.16129e-07
1.17927e-07
1.19765e-07
1.21641e-07
1.23556e-07
1.25509e-07
1.27499e-07
1.29526e-07
1.31589e-07
1.33687e-07
1.35819e-07
1.37979e-07
1.40158e-07
1.42344e-07
1.44531e-07
1.46712e-07
1.4888e-07
1.51027e-07
1.53144e-07
1.55218e-07
1.57243e-07
1.59214e-07
1.61131e-07
1.61865e-07
1.00258e-08
1.00854e-08
1.01431e-08
1.01988e-08
1.02523e-08
1.03045e-08
1.03559e-08
1.04078e-08
1.04606e-08
1.05505e-08
1.8084e-07
1.84042e-07
1.87126e-07
1.10999e-08
1.13893e-08
1.16203e-08
1.1649e-08
1.14305e-08
1.09841e-08
1.03409e-08
1.00015e-08
1.35205e-07
1.12756e-08
5.04644e-08
3.62899e-08
1.57465e-08
2.29774e-09
4.26542e-12
2.43332e-09
1.62004e-08
3.69567e-08
5.11559e-08
1.12234e-08
9.9749e-09
1.56256e-07
1.81384e-07
1.11419e-08
1.15019e-08
1.16834e-08
1.15303e-08
1.11226e-08
1.07198e-08
1.73408e-07
1.70303e-07
1.6707e-07
1.01027e-08
1.00066e-08
9.95367e-09
9.90776e-09
9.86751e-09
9.82993e-09
9.79352e-09
9.75671e-09
9.71829e-09
9.6779e-09
1.52157e-07
1.52244e-07
1.50928e-07
1.4954e-07
1.48082e-07
1.46556e-07
1.44971e-07
1.43338e-07
1.41662e-07
1.39953e-07
1.38217e-07
1.36459e-07
1.34687e-07
1.32914e-07
1.31146e-07
1.29389e-07
1.27647e-07
1.25922e-07
1.24217e-07
1.22531e-07
1.20867e-07
1.19225e-07
1.17608e-07
1.16017e-07
1.14456e-07
1.12927e-07
1.11432e-07
1.09972e-07
1.08547e-07
1.07155e-07
1.05798e-07
1.04475e-07
1.03184e-07
1.01919e-07
1.00683e-07
9.94726e-08
9.82832e-08
9.71141e-08
9.59633e-08
9.48306e-08
9.37134e-08
9.26081e-08
9.1516e-08
9.0435e-08
8.93642e-08
6.98706e-09
6.92263e-09
6.87227e-09
6.82181e-09
6.77137e-09
6.72361e-09
6.67567e-09
6.62761e-09
6.57927e-09
6.53077e-09
6.48216e-09
6.43333e-09
6.38427e-09
6.33504e-09
6.28562e-09
6.23587e-09
6.18579e-09
6.13559e-09
6.08532e-09
6.03489e-09
5.98409e-09
5.9331e-09
5.88207e-09
5.83077e-09
5.77943e-09
5.72815e-09
5.67668e-09
5.62528e-09
5.57407e-09
5.52287e-09
5.47179e-09
5.421e-09
5.37057e-09
5.32045e-09
5.27071e-09
5.2215e-09
5.17296e-09
5.125e-09
5.07768e-09
5.03109e-09
4.98542e-09
4.94067e-09
4.89685e-09
4.8542e-09
4.8127e-09
4.7724e-09
4.73363e-09
4.6962e-09
4.65984e-09
4.6249e-09
4.59219e-09
4.56231e-09
4.53466e-09
4.50774e-09
4.48033e-09
4.4542e-09
4.43328e-09
4.42415e-09
4.42301e-09
4.42213e-09
4.4189e-09
4.40408e-09
4.38275e-09
4.37223e-09
4.39177e-09
4.45468e-09
4.61101e-09
5.42503e-09
8.21607e-09
3.16564e-08
7.11073e-09
1.14996e-09
8.86798e-10
1.33094e-09
2.90711e-09
4.8426e-09
3.91314e-09
4.86584e-08
3.45074e-08
2.22774e-08
9.2946e-09
5.38642e-09
1.05695e-08
1.00449e-07
2.75256e-07
3.05231e-07
3.45969e-07
3.49101e-07
3.39936e-07
3.36829e-07
3.36945e-07
3.38767e-07
3.40846e-07
3.42283e-07
3.4288e-07
3.43719e-07
3.44973e-07
3.47038e-07
3.50508e-07
3.37459e-07
5.18888e-08
5.21305e-08
5.2434e-08
5.27784e-08
5.31487e-08
5.35354e-08
5.39363e-08
5.43549e-08
5.4794e-08
5.52525e-08
5.5727e-08
5.62168e-08
5.67222e-08
5.72413e-08
5.77737e-08
5.83191e-08
5.88759e-08
5.9443e-08
6.00198e-08
6.06066e-08
6.12018e-08
6.18041e-08
6.24127e-08
6.30277e-08
6.36485e-08
6.4273e-08
6.49011e-08
6.55334e-08
6.61686e-08
6.68045e-08
6.74428e-08
6.80825e-08
6.8722e-08
6.93629e-08
7.00027e-08
7.06413e-08
7.12796e-08
7.19191e-08
7.25577e-08
7.31941e-08
7.38296e-08
7.44648e-08
7.5099e-08
7.57331e-08
7.63669e-08
7.70006e-08
7.76359e-08
7.82721e-08
7.89111e-08
7.98945e-08
6.61745e-07
8.11831e-08
6.81243e-07
6.88838e-07
6.96527e-07
7.04324e-07
7.12236e-07
7.20277e-07
7.28463e-07
7.36788e-07
7.45268e-07
7.53925e-07
7.62761e-07
7.71784e-07
7.80998e-07
7.90429e-07
8.00081e-07
8.09945e-07
8.20034e-07
8.30359e-07
8.40922e-07
8.5172e-07
8.62753e-07
8.74017e-07
8.85512e-07
8.97255e-07
9.09238e-07
9.21451e-07
9.33889e-07
9.46545e-07
9.59414e-07
9.72491e-07
9.85765e-07
9.99236e-07
1.0129e-06
1.02674e-06
1.04073e-06
1.05478e-06
1.06885e-06
1.08289e-06
1.09684e-06
1.11068e-06
1.12434e-06
1.13777e-06
1.15091e-06
1.1637e-06
1.17611e-06
1.18812e-06
1.19009e-06
1.29214e-07
1.30145e-07
1.31047e-07
1.31913e-07
1.32746e-07
1.33551e-07
1.34343e-07
1.35133e-07
1.35939e-07
1.37569e-07
1.309e-06
1.32772e-06
1.34052e-06
1.45818e-07
1.50549e-07
1.54251e-07
1.54242e-07
1.49764e-07
1.41168e-07
1.29023e-07
1.23857e-07
8.83582e-07
1.49954e-07
3.30669e-07
2.08835e-07
8.12783e-08
1.19973e-08
3.99796e-11
1.2649e-08
8.3562e-08
2.12884e-07
3.35489e-07
1.49136e-07
1.26183e-07
1.05298e-06
1.23093e-06
1.43878e-07
1.51015e-07
1.5496e-07
1.52899e-07
1.46234e-07
1.39883e-07
1.26063e-06
1.24588e-06
1.22612e-06
1.30744e-07
1.29093e-07
1.28265e-07
1.27546e-07
1.26908e-07
1.26309e-07
1.25723e-07
1.25132e-07
1.24519e-07
1.23874e-07
1.12933e-06
1.13212e-06
1.12374e-06
1.11485e-06
1.10549e-06
1.09569e-06
1.0855e-06
1.07497e-06
1.06416e-06
1.05312e-06
1.04187e-06
1.03046e-06
1.01895e-06
1.00738e-06
9.95834e-07
9.84328e-07
9.72895e-07
9.61544e-07
9.5029e-07
9.39144e-07
9.28112e-07
9.17198e-07
9.06426e-07
8.95807e-07
8.85356e-07
8.75092e-07
8.6503e-07
8.55177e-07
8.45537e-07
8.36101e-07
8.26875e-07
8.17855e-07
8.0903e-07
8.00371e-07
7.91882e-07
7.83551e-07
7.7535e-07
7.67273e-07
7.59307e-07
7.51449e-07
7.43677e-07
7.35975e-07
7.28351e-07
7.20795e-07
7.13295e-07
8.3975e-08
8.29609e-08
8.2267e-08
8.15759e-08
8.08867e-08
8.02542e-08
7.96217e-08
7.89891e-08
7.83557e-08
7.77221e-08
7.70877e-08
7.6452e-08
7.58154e-08
7.51774e-08
7.45385e-08
7.38983e-08
7.32555e-08
7.26113e-08
7.19677e-08
7.13238e-08
7.06773e-08
7.00299e-08
6.93824e-08
6.87347e-08
6.80874e-08
6.74416e-08
6.67957e-08
6.61518e-08
6.55112e-08
6.48735e-08
6.42382e-08
6.36077e-08
6.29822e-08
6.23621e-08
6.1749e-08
6.11438e-08
6.05475e-08
5.99599e-08
5.93816e-08
5.88136e-08
5.8258e-08
5.77148e-08
5.71847e-08
5.66697e-08
5.61696e-08
5.5685e-08
5.52197e-08
5.47749e-08
5.43481e-08
5.39351e-08
5.35378e-08
5.31664e-08
5.28364e-08
5.25479e-08
5.22854e-08
5.20056e-08
5.16998e-08
5.14233e-08
5.11776e-08
5.10687e-08
5.11658e-08
5.13485e-08
5.16217e-08
5.17864e-08
5.18097e-08
5.17364e-08
5.20489e-08
5.21526e-08
6.36725e-08
2.49561e-07
1.05524e-07
1.04422e-08
7.53828e-09
1.1916e-08
2.0821e-08
3.27153e-08
4.91836e-08
3.32818e-07
1.31971e-07
7.64604e-08
4.19007e-08
2.44773e-08
7.53591e-08
5.86277e-07
1.04788e-06
1.15124e-06
1.31517e-06
1.36888e-06
1.36039e-06
1.3629e-06
1.3666e-06
1.36697e-06
1.36605e-06
1.36681e-06
1.36843e-06
1.37375e-06
1.38226e-06
1.39257e-06
1.40448e-06
1.34256e-06
3.1368e-07
3.15073e-07
3.16993e-07
3.19229e-07
3.21599e-07
3.24036e-07
3.26555e-07
3.29207e-07
3.32004e-07
3.34932e-07
3.37965e-07
3.41102e-07
3.44342e-07
3.47681e-07
3.51114e-07
3.54639e-07
3.58243e-07
3.6192e-07
3.6567e-07
3.69488e-07
3.7337e-07
3.77305e-07
3.81291e-07
3.85327e-07
3.89408e-07
3.93521e-07
3.97666e-07
4.01841e-07
4.06044e-07
4.10263e-07
4.14503e-07
4.18759e-07
4.23022e-07
4.27299e-07
4.31578e-07
4.35861e-07
4.40149e-07
4.44444e-07
4.48741e-07
4.53034e-07
4.57326e-07
4.61622e-07
4.65923e-07
4.70228e-07
4.74537e-07
4.78853e-07
4.83186e-07
4.87533e-07
4.91927e-07
4.98999e-07
2.46557e-06
5.07865e-07
2.53287e-06
2.55768e-06
2.5828e-06
2.60822e-06
2.63397e-06
2.66008e-06
2.68659e-06
2.71349e-06
2.74086e-06
2.76873e-06
2.7971e-06
2.82602e-06
2.85549e-06
2.88557e-06
2.91629e-06
2.94762e-06
2.97958e-06
3.01219e-06
3.04549e-06
3.07945e-06
3.11405e-06
3.14929e-06
3.18517e-06
3.22173e-06
3.25893e-06
3.29676e-06
3.33518e-06
3.37417e-06
3.41372e-06
3.45379e-06
3.49436e-06
3.53542e-06
3.57695e-06
3.61889e-06
3.66113e-06
3.70346e-06
3.74572e-06
3.78774e-06
3.82942e-06
3.87065e-06
3.91125e-06
3.95104e-06
3.98988e-06
4.02761e-06
4.06413e-06
4.09914e-06
4.09993e-06
8.22523e-07
8.28725e-07
8.34713e-07
8.40475e-07
8.46006e-07
8.51352e-07
8.56601e-07
8.61831e-07
8.6724e-07
8.79724e-07
4.44279e-06
4.49152e-06
4.5108e-06
9.37063e-07
9.74645e-07
1.00668e-06
1.01113e-06
9.8194e-07
9.22262e-07
8.382e-07
8.23483e-07
2.56642e-06
8.81332e-07
9.96934e-07
5.59964e-07
1.98847e-07
3.01692e-08
1.91712e-10
3.16622e-08
2.04203e-07
5.71196e-07
1.012e-06
8.86117e-07
8.91926e-07
3.24122e-06
3.85262e-06
9.42086e-07
9.90523e-07
1.01563e-06
9.95149e-07
9.41113e-07
8.94368e-07
4.30363e-06
4.27159e-06
4.21615e-06
8.34681e-07
8.22275e-07
8.167e-07
8.11886e-07
8.07599e-07
8.03564e-07
7.99604e-07
7.95618e-07
7.91496e-07
7.87163e-07
3.92354e-06
3.93556e-06
3.91048e-06
3.88365e-06
3.85542e-06
3.82585e-06
3.7951e-06
3.76332e-06
3.73063e-06
3.69719e-06
3.6631e-06
3.62845e-06
3.59342e-06
3.55816e-06
3.52287e-06
3.48764e-06
3.45255e-06
3.41765e-06
3.38297e-06
3.34854e-06
3.3144e-06
3.28056e-06
3.24709e-06
3.21402e-06
3.1814e-06
3.14929e-06
3.11775e-06
3.08677e-06
3.05639e-06
3.0266e-06
2.99742e-06
2.96881e-06
2.94075e-06
2.91317e-06
2.8861e-06
2.85947e-06
2.83321e-06
2.80732e-06
2.78173e-06
2.75644e-06
2.73141e-06
2.70656e-06
2.68192e-06
2.65745e-06
2.63316e-06
5.25758e-07
5.18415e-07
5.13919e-07
5.09459e-07
5.05012e-07
5.00668e-07
4.96335e-07
4.92007e-07
4.87684e-07
4.83363e-07
4.79045e-07
4.74723e-07
4.704e-07
4.66079e-07
4.61757e-07
4.57431e-07
4.53099e-07
4.48764e-07
4.44434e-07
4.40107e-07
4.35775e-07
4.31447e-07
4.27123e-07
4.22805e-07
4.18497e-07
4.14205e-07
4.09922e-07
4.05661e-07
4.01425e-07
3.97216e-07
3.93031e-07
3.88886e-07
3.8478e-07
3.80718e-07
3.76712e-07
3.72766e-07
3.68882e-07
3.65063e-07
3.61312e-07
3.57633e-07
3.54042e-07
3.50541e-07
3.47134e-07
3.43828e-07
3.40622e-07
3.37519e-07
3.34547e-07
3.31722e-07
3.2903e-07
3.26417e-07
3.23869e-07
3.21454e-07
3.19356e-07
3.17646e-07
3.16216e-07
3.14555e-07
3.12391e-07
3.10001e-07
3.0763e-07
3.06624e-07
3.07717e-07
3.10167e-07
3.13801e-07
3.15968e-07
3.1516e-07
3.1134e-07
3.07235e-07
2.90298e-07
3.09182e-07
9.0394e-07
5.91798e-07
7.43677e-08
3.18908e-08
4.95545e-08
7.36455e-08
1.28003e-07
3.37079e-07
1.47402e-06
5.38237e-07
1.96362e-07
1.26505e-07
7.98544e-08
4.02565e-07
1.95751e-06
2.70223e-06
3.02341e-06
3.47653e-06
3.69527e-06
3.72602e-06
3.75685e-06
3.76772e-06
3.75256e-06
3.73212e-06
3.7255e-06
3.73024e-06
3.74968e-06
3.77941e-06
3.81008e-06
3.83574e-06
3.67096e-06
1.34282e-06
1.34838e-06
1.35657e-06
1.36639e-06
1.37676e-06
1.38734e-06
1.39825e-06
1.40977e-06
1.42197e-06
1.43476e-06
1.44801e-06
1.46173e-06
1.47592e-06
1.49055e-06
1.50561e-06
1.52109e-06
1.53692e-06
1.55309e-06
1.56959e-06
1.5864e-06
1.60348e-06
1.62083e-06
1.63841e-06
1.65622e-06
1.67423e-06
1.6924e-06
1.71072e-06
1.72919e-06
1.74778e-06
1.76646e-06
1.78523e-06
1.80408e-06
1.82297e-06
1.84193e-06
1.86091e-06
1.87993e-06
1.89897e-06
1.91804e-06
1.93712e-06
1.95621e-06
1.9753e-06
1.9944e-06
2.01355e-06
2.03271e-06
2.0519e-06
2.07113e-06
2.09046e-06
2.10985e-06
2.12956e-06
2.16202e-06
6.29056e-06
2.20169e-06
6.44356e-06
6.49919e-06
6.55555e-06
6.61249e-06
6.67007e-06
6.72835e-06
6.78742e-06
6.84727e-06
6.90803e-06
6.96979e-06
7.03256e-06
7.09641e-06
7.16135e-06
7.22752e-06
7.29493e-06
7.36356e-06
7.43342e-06
7.50457e-06
7.57705e-06
7.65085e-06
7.72586e-06
7.80212e-06
7.8796e-06
7.95836e-06
8.03836e-06
8.11951e-06
8.20175e-06
8.28503e-06
8.36933e-06
8.45455e-06
8.54063e-06
8.62754e-06
8.71524e-06
8.80354e-06
8.89219e-06
8.98082e-06
9.06907e-06
9.15662e-06
9.2433e-06
9.32883e-06
9.41286e-06
9.49507e-06
9.57516e-06
9.65282e-06
9.7279e-06
9.7992e-06
9.8014e-06
3.59797e-06
3.62568e-06
3.65241e-06
3.67811e-06
3.70281e-06
3.72672e-06
3.75028e-06
3.77388e-06
3.79883e-06
3.85792e-06
1.04725e-05
1.0552e-05
1.05549e-05
4.15339e-06
4.37616e-06
4.59124e-06
4.66946e-06
4.57206e-06
4.31676e-06
3.9145e-06
3.52052e-06
5.11203e-06
2.49515e-06
1.99973e-06
1.00709e-06
3.29573e-07
5.2396e-08
6.81157e-10
5.47192e-08
3.37915e-07
1.02782e-06
2.03047e-06
2.51877e-06
3.11164e-06
6.71504e-06
8.11147e-06
4.40787e-06
4.61203e-06
4.68343e-06
4.51287e-06
4.18169e-06
3.92919e-06
1.02197e-05
1.01694e-05
1.00649e-05
3.6517e-06
3.59465e-06
3.56952e-06
3.54808e-06
3.52902e-06
3.51112e-06
3.49356e-06
3.47591e-06
3.45766e-06
3.43842e-06
9.45008e-06
9.47103e-06
9.41778e-06
9.3605e-06
9.30039e-06
9.23757e-06
9.17233e-06
9.10493e-06
9.03562e-06
8.9647e-06
8.8924e-06
8.81889e-06
8.74447e-06
8.66949e-06
8.59429e-06
8.51908e-06
8.44407e-06
8.36932e-06
8.29496e-06
8.22101e-06
8.1476e-06
8.07473e-06
8.00253e-06
7.93106e-06
7.86048e-06
7.79084e-06
7.72229e-06
7.65485e-06
7.58857e-06
7.52344e-06
7.45953e-06
7.39675e-06
7.33509e-06
7.2744e-06
7.21471e-06
7.15592e-06
7.0979e-06
7.0406e-06
6.98394e-06
6.92788e-06
6.87231e-06
6.81714e-06
6.76233e-06
6.70785e-06
6.65387e-06
2.28075e-06
2.2468e-06
2.22683e-06
2.20715e-06
2.18753e-06
2.1681e-06
2.14874e-06
2.12941e-06
2.11009e-06
2.0908e-06
2.07153e-06
2.05226e-06
2.03298e-06
2.01372e-06
1.99446e-06
1.97518e-06
1.95589e-06
1.93661e-06
1.91733e-06
1.89807e-06
1.87881e-06
1.85958e-06
1.84037e-06
1.8212e-06
1.80207e-06
1.78302e-06
1.76402e-06
1.74512e-06
1.72634e-06
1.70769e-06
1.68916e-06
1.67081e-06
1.65263e-06
1.63465e-06
1.61696e-06
1.59953e-06
1.58238e-06
1.56553e-06
1.54899e-06
1.53277e-06
1.51695e-06
1.50152e-06
1.48652e-06
1.47198e-06
1.45788e-06
1.44423e-06
1.43117e-06
1.41878e-06
1.40701e-06
1.39555e-06
1.38428e-06
1.37356e-06
1.36442e-06
1.35728e-06
1.3515e-06
1.34423e-06
1.33389e-06
1.32162e-06
1.30971e-06
1.30576e-06
1.31281e-06
1.32739e-06
1.34747e-06
1.35764e-06
1.34788e-06
1.3184e-06
1.27953e-06
1.165e-06
1.18434e-06
2.32131e-06
1.94906e-06
3.96461e-07
1.00385e-07
1.41356e-07
1.95114e-07
5.26953e-07
1.49934e-06
4.76001e-06
1.86996e-06
5.39905e-07
2.95402e-07
2.47369e-07
1.68002e-06
4.73173e-06
5.62683e-06
6.40427e-06
7.40748e-06
7.96003e-06
8.0825e-06
8.15639e-06
8.15829e-06
8.09433e-06
8.0273e-06
8.00632e-06
8.0239e-06
8.07787e-06
8.15083e-06
8.21619e-06
8.25642e-06
7.966e-06
4.66483e-06
4.68314e-06
4.71161e-06
4.74632e-06
4.78321e-06
4.82069e-06
4.85918e-06
4.89982e-06
4.94291e-06
4.98816e-06
5.03508e-06
5.08361e-06
5.13381e-06
5.18559e-06
5.23887e-06
5.29357e-06
5.34953e-06
5.40668e-06
5.46498e-06
5.52435e-06
5.58467e-06
5.64585e-06
5.70782e-06
5.7705e-06
5.83389e-06
5.89778e-06
5.96216e-06
6.02701e-06
6.09224e-06
6.15774e-06
6.22353e-06
6.28954e-06
6.35564e-06
6.42195e-06
6.48829e-06
6.55474e-06
6.62122e-06
6.68773e-06
6.75424e-06
6.82073e-06
6.88719e-06
6.9537e-06
7.02025e-06
7.08681e-06
7.15346e-06
7.22023e-06
7.28723e-06
7.35447e-06
7.42306e-06
7.52996e-06
1.27925e-05
7.66731e-06
1.30605e-05
1.31615e-05
1.32643e-05
1.33679e-05
1.34727e-05
1.35786e-05
1.36857e-05
1.37942e-05
1.39041e-05
1.40157e-05
1.4129e-05
1.42441e-05
1.4361e-05
1.44799e-05
1.46008e-05
1.47237e-05
1.48487e-05
1.49758e-05
1.51051e-05
1.52365e-05
1.53699e-05
1.55053e-05
1.56427e-05
1.57823e-05
1.59238e-05
1.6067e-05
1.62121e-05
1.63587e-05
1.6507e-05
1.66566e-05
1.68075e-05
1.69597e-05
1.71129e-05
1.72668e-05
1.7421e-05
1.75748e-05
1.77278e-05
1.78794e-05
1.80293e-05
1.8177e-05
1.8322e-05
1.84638e-05
1.86018e-05
1.87357e-05
1.88651e-05
1.89877e-05
1.90186e-05
1.22863e-05
1.23723e-05
1.24545e-05
1.25329e-05
1.26073e-05
1.26781e-05
1.27463e-05
1.28122e-05
1.28782e-05
1.30147e-05
2.0075e-05
2.01664e-05
2.01357e-05
1.35031e-05
1.36703e-05
1.36379e-05
1.32504e-05
1.25071e-05
1.14392e-05
1.00288e-05
8.43841e-06
8.38576e-06
4.73043e-06
3.0829e-06
1.39294e-06
4.2386e-07
7.26087e-08
2.06253e-09
7.54269e-08
4.33651e-07
1.42241e-06
3.13071e-06
4.78176e-06
6.6985e-06
1.13214e-05
1.39236e-05
1.16046e-05
1.26081e-05
1.33558e-05
1.36511e-05
1.34816e-05
1.31511e-05
1.97476e-05
1.96723e-05
1.95198e-05
1.24649e-05
1.23077e-05
1.22286e-05
1.21601e-05
1.20981e-05
1.20394e-05
1.19815e-05
1.19231e-05
1.18628e-05
1.17993e-05
1.84498e-05
1.84516e-05
1.83542e-05
1.825e-05
1.81413e-05
1.80283e-05
1.79114e-05
1.7791e-05
1.76676e-05
1.75414e-05
1.74131e-05
1.72827e-05
1.71508e-05
1.70179e-05
1.68845e-05
1.6751e-05
1.66177e-05
1.64849e-05
1.63527e-05
1.62211e-05
1.60905e-05
1.59608e-05
1.58322e-05
1.57048e-05
1.55788e-05
1.54544e-05
1.53317e-05
1.52109e-05
1.5092e-05
1.4975e-05
1.486e-05
1.47468e-05
1.46356e-05
1.45261e-05
1.44182e-05
1.43119e-05
1.4207e-05
1.41033e-05
1.40008e-05
1.38993e-05
1.37987e-05
1.36988e-05
1.35996e-05
1.35009e-05
1.34038e-05
7.93722e-06
7.82654e-06
7.7577e-06
7.6901e-06
7.62263e-06
7.55547e-06
7.48852e-06
7.4216e-06
7.35472e-06
7.28782e-06
7.22095e-06
7.15404e-06
7.08705e-06
7.02002e-06
6.95297e-06
6.88584e-06
6.81861e-06
6.75133e-06
6.68401e-06
6.61669e-06
6.54932e-06
6.48202e-06
6.41471e-06
6.34752e-06
6.28042e-06
6.2135e-06
6.14675e-06
6.08028e-06
6.01417e-06
5.94846e-06
5.88311e-06
5.81839e-06
5.75416e-06
5.69064e-06
5.62793e-06
5.56605e-06
5.50512e-06
5.4452e-06
5.38638e-06
5.32867e-06
5.27229e-06
5.21729e-06
5.16378e-06
5.11185e-06
5.06145e-06
5.01262e-06
4.96592e-06
4.92165e-06
4.8795e-06
4.83827e-06
4.79754e-06
4.75896e-06
4.72669e-06
4.70209e-06
4.68202e-06
4.65443e-06
4.61366e-06
4.56422e-06
4.52011e-06
4.51165e-06
4.54579e-06
4.61033e-06
4.69241e-06
4.71952e-06
4.64868e-06
4.48948e-06
4.2743e-06
3.78082e-06
3.68942e-06
5.01994e-06
4.70302e-06
1.65622e-06
3.20698e-07
3.336e-07
5.65139e-07
1.8443e-06
4.86584e-06
1.2026e-05
5.34931e-06
1.51792e-06
6.09427e-07
7.55763e-07
5.69319e-06
9.2929e-06
1.02996e-05
1.19639e-05
1.38066e-05
1.48949e-05
1.51465e-05
1.52517e-05
1.52024e-05
1.50439e-05
1.49027e-05
1.48648e-05
1.49116e-05
1.50278e-05
1.51691e-05
1.52829e-05
1.53432e-05
1.50089e-05
1.19558e-05
1.20059e-05
1.20758e-05
1.21563e-05
1.2239e-05
1.23222e-05
1.24082e-05
1.24994e-05
1.25959e-05
1.26968e-05
1.28011e-05
1.29089e-05
1.30204e-05
1.31354e-05
1.32536e-05
1.33749e-05
1.3499e-05
1.36258e-05
1.37551e-05
1.38867e-05
1.40204e-05
1.41561e-05
1.42934e-05
1.44324e-05
1.45729e-05
1.47144e-05
1.48571e-05
1.50008e-05
1.51452e-05
1.52903e-05
1.54359e-05
1.55821e-05
1.57284e-05
1.58751e-05
1.60218e-05
1.61688e-05
1.63157e-05
1.64626e-05
1.66095e-05
1.67563e-05
1.6903e-05
1.70497e-05
1.71964e-05
1.73431e-05
1.749e-05
1.76369e-05
1.77843e-05
1.79319e-05
1.80809e-05
1.82804e-05
2.28851e-05
1.85803e-05
2.32949e-05
2.34622e-05
2.36334e-05
2.38059e-05
2.398e-05
2.41557e-05
2.43334e-05
2.45131e-05
2.46949e-05
2.48792e-05
2.5066e-05
2.52555e-05
2.54477e-05
2.56429e-05
2.5841e-05
2.60421e-05
2.62461e-05
2.64535e-05
2.66639e-05
2.68774e-05
2.70937e-05
2.73131e-05
2.75354e-05
2.77606e-05
2.79885e-05
2.8219e-05
2.84518e-05
2.86869e-05
2.89239e-05
2.91628e-05
2.94033e-05
2.96452e-05
2.98881e-05
3.01313e-05
3.03741e-05
3.06157e-05
3.08554e-05
3.10927e-05
3.1327e-05
3.15576e-05
3.17836e-05
3.20044e-05
3.22193e-05
3.24278e-05
3.26292e-05
3.28209e-05
3.2921e-05
2.78833e-05
2.80427e-05
2.81927e-05
2.83326e-05
2.84609e-05
2.85771e-05
2.86805e-05
2.87682e-05
2.88391e-05
2.89705e-05
3.42691e-05
3.42824e-05
3.40988e-05
2.88412e-05
2.83742e-05
2.74066e-05
2.58703e-05
2.38455e-05
2.13395e-05
1.82509e-05
1.47e-05
1.20154e-05
6.99284e-06
3.91502e-06
1.57729e-06
4.53216e-07
8.70507e-08
5.49048e-09
8.99215e-08
4.62312e-07
1.61199e-06
3.97614e-06
7.07128e-06
1.08867e-05
1.68073e-05
2.11483e-05
2.15496e-05
2.40191e-05
2.61464e-05
2.77334e-05
2.85786e-05
2.8825e-05
3.39595e-05
3.3951e-05
3.38095e-05
2.83905e-05
2.81813e-05
2.80501e-05
2.79212e-05
2.77936e-05
2.76651e-05
2.75343e-05
2.74009e-05
2.72639e-05
2.71212e-05
3.21478e-05
3.20776e-05
3.19086e-05
3.17312e-05
3.15479e-05
3.13591e-05
3.11651e-05
3.09663e-05
3.07634e-05
3.05568e-05
3.03472e-05
3.01349e-05
2.99205e-05
2.97044e-05
2.94875e-05
2.92703e-05
2.90534e-05
2.88372e-05
2.86219e-05
2.84078e-05
2.8195e-05
2.79838e-05
2.77743e-05
2.75666e-05
2.73612e-05
2.71579e-05
2.69573e-05
2.67592e-05
2.65641e-05
2.63717e-05
2.61823e-05
2.59958e-05
2.58123e-05
2.56313e-05
2.54531e-05
2.52773e-05
2.51038e-05
2.49324e-05
2.47629e-05
2.45953e-05
2.44291e-05
2.42642e-05
2.41004e-05
2.39376e-05
2.37784e-05
1.90526e-05
1.88522e-05
1.87069e-05
1.85628e-05
1.84189e-05
1.82753e-05
1.8132e-05
1.79885e-05
1.78452e-05
1.77016e-05
1.7558e-05
1.74142e-05
1.72702e-05
1.7126e-05
1.69816e-05
1.68369e-05
1.6692e-05
1.65469e-05
1.64016e-05
1.62563e-05
1.61107e-05
1.59653e-05
1.58197e-05
1.56744e-05
1.55293e-05
1.53845e-05
1.52401e-05
1.50962e-05
1.4953e-05
1.48108e-05
1.46693e-05
1.45292e-05
1.43902e-05
1.42527e-05
1.4117e-05
1.39831e-05
1.38512e-05
1.37216e-05
1.35944e-05
1.34697e-05
1.3348e-05
1.32293e-05
1.31139e-05
1.3002e-05
1.28935e-05
1.27883e-05
1.26874e-05
1.25919e-05
1.25015e-05
1.24138e-05
1.23264e-05
1.22412e-05
1.2167e-05
1.21103e-05
1.20691e-05
1.20192e-05
1.19408e-05
1.18321e-05
1.17126e-05
1.16465e-05
1.16692e-05
1.17752e-05
1.19572e-05
1.20877e-05
1.20481e-05
1.18101e-05
1.13826e-05
1.01255e-05
9.13759e-06
9.59333e-06
9.27119e-06
5.64366e-06
9.97684e-07
7.71166e-07
1.62304e-06
5.3195e-06
1.23389e-05
2.48302e-05
1.27916e-05
3.96842e-06
1.40435e-06
2.1821e-06
1.26996e-05
1.5808e-05
1.71079e-05
2.07682e-05
2.38302e-05
2.5332e-05
2.55618e-05
2.55888e-05
2.54203e-05
2.51487e-05
2.49566e-05
2.49394e-05
2.50517e-05
2.52556e-05
2.54731e-05
2.56338e-05
2.57202e-05
2.54512e-05
2.3282e-05
2.33828e-05
2.35108e-05
2.36506e-05
2.37912e-05
2.3933e-05
2.40804e-05
2.4237e-05
2.44019e-05
2.45735e-05
2.47505e-05
2.49335e-05
2.51225e-05
2.53172e-05
2.55173e-05
2.57225e-05
2.59323e-05
2.61466e-05
2.63651e-05
2.65874e-05
2.68133e-05
2.70424e-05
2.72744e-05
2.7509e-05
2.77462e-05
2.79852e-05
2.82261e-05
2.84686e-05
2.87124e-05
2.89572e-05
2.92029e-05
2.94495e-05
2.96963e-05
2.99436e-05
3.0191e-05
3.04387e-05
3.06862e-05
3.09337e-05
3.1181e-05
3.14282e-05
3.16752e-05
3.19222e-05
3.2169e-05
3.24157e-05
3.26626e-05
3.29094e-05
3.31568e-05
3.34042e-05
3.36519e-05
3.39456e-05
3.72259e-05
3.44461e-05
3.78051e-05
3.80595e-05
3.83198e-05
3.85817e-05
3.88455e-05
3.91116e-05
3.938e-05
3.96509e-05
3.99246e-05
4.02014e-05
4.04814e-05
4.07648e-05
4.10517e-05
4.13423e-05
4.16365e-05
4.19344e-05
4.2236e-05
4.25418e-05
4.28514e-05
4.31647e-05
4.34814e-05
4.3802e-05
4.41261e-05
4.44538e-05
4.47843e-05
4.51178e-05
4.54539e-05
4.57924e-05
4.61329e-05
4.6475e-05
4.68186e-05
4.71631e-05
4.75077e-05
4.78514e-05
4.8193e-05
4.85317e-05
4.88668e-05
4.9198e-05
4.95243e-05
4.98447e-05
5.01581e-05
5.04638e-05
5.07612e-05
5.10493e-05
5.13271e-05
5.15916e-05
5.17758e-05
4.88016e-05
4.90257e-05
4.92328e-05
4.94196e-05
4.95822e-05
4.97174e-05
4.98197e-05
4.98794e-05
4.98871e-05
4.98989e-05
5.30382e-05
5.27993e-05
5.22076e-05
4.81005e-05
4.64349e-05
4.39356e-05
4.07013e-05
3.69035e-05
3.24804e-05
2.72052e-05
2.11447e-05
1.53963e-05
8.68717e-06
4.24154e-06
1.50537e-06
4.22341e-07
9.58119e-08
1.30876e-08
9.8407e-08
4.29063e-07
1.54067e-06
4.30797e-06
8.78452e-06
1.47718e-05
2.25168e-05
2.91164e-05
3.27052e-05
3.71454e-05
4.11941e-05
4.47428e-05
4.73743e-05
4.89051e-05
5.27839e-05
5.30915e-05
5.31133e-05
4.9782e-05
4.96115e-05
4.94669e-05
4.92942e-05
4.91016e-05
4.88937e-05
4.86742e-05
4.84467e-05
4.82124e-05
4.79707e-05
5.09257e-05
5.07458e-05
5.04825e-05
5.02098e-05
4.99307e-05
4.96456e-05
4.93546e-05
4.90583e-05
4.87571e-05
4.84518e-05
4.81429e-05
4.78311e-05
4.75166e-05
4.71998e-05
4.68815e-05
4.65626e-05
4.6244e-05
4.59261e-05
4.56095e-05
4.52944e-05
4.49814e-05
4.46705e-05
4.4362e-05
4.40559e-05
4.37527e-05
4.34523e-05
4.3155e-05
4.2861e-05
4.25707e-05
4.22838e-05
4.20008e-05
4.17217e-05
4.14465e-05
4.11749e-05
4.0907e-05
4.06427e-05
4.03816e-05
4.01237e-05
3.98687e-05
3.96164e-05
3.93665e-05
3.91186e-05
3.88725e-05
3.86278e-05
3.83891e-05
3.50509e-05
3.47646e-05
3.45292e-05
3.42946e-05
3.40601e-05
3.38256e-05
3.35914e-05
3.33568e-05
3.31222e-05
3.28873e-05
3.26521e-05
3.24165e-05
3.21804e-05
3.19438e-05
3.17068e-05
3.14693e-05
3.12313e-05
3.09928e-05
3.0754e-05
3.05149e-05
3.02754e-05
3.00361e-05
2.97965e-05
2.95572e-05
2.93183e-05
2.90799e-05
2.88421e-05
2.86051e-05
2.83693e-05
2.8135e-05
2.7902e-05
2.76714e-05
2.74425e-05
2.72164e-05
2.6993e-05
2.67726e-05
2.65558e-05
2.63427e-05
2.61337e-05
2.59289e-05
2.57289e-05
2.55341e-05
2.53447e-05
2.51613e-05
2.49836e-05
2.48113e-05
2.46457e-05
2.44885e-05
2.43405e-05
2.41981e-05
2.40565e-05
2.39155e-05
2.37875e-05
2.36856e-05
2.36144e-05
2.35436e-05
2.34368e-05
2.32749e-05
2.30681e-05
2.29011e-05
2.28507e-05
2.29371e-05
2.31851e-05
2.34572e-05
2.35628e-05
2.34199e-05
2.30106e-05
2.12207e-05
1.85845e-05
1.64736e-05
1.58617e-05
1.28477e-05
2.90285e-06
1.90418e-06
4.27222e-06
1.28242e-05
2.55213e-05
4.3376e-05
2.5948e-05
9.36617e-06
3.24978e-06
5.9225e-06
2.20041e-05
2.42588e-05
2.67276e-05
3.34586e-05
3.7748e-05
3.9147e-05
3.91106e-05
3.89303e-05
3.86021e-05
3.82509e-05
3.80825e-05
3.81533e-05
3.8372e-05
3.86727e-05
3.89512e-05
3.91424e-05
3.92532e-05
3.9101e-05
3.78388e-05
3.80037e-05
3.81987e-05
3.84035e-05
3.86074e-05
3.88144e-05
3.90311e-05
3.92605e-05
3.9501e-05
3.97501e-05
4.00069e-05
4.02719e-05
4.05455e-05
4.0827e-05
4.1116e-05
4.14122e-05
4.17147e-05
4.20236e-05
4.23384e-05
4.26587e-05
4.29839e-05
4.33137e-05
4.36475e-05
4.39853e-05
4.43266e-05
4.46703e-05
4.50169e-05
4.53656e-05
4.57162e-05
4.60683e-05
4.64216e-05