/*--------------------------------*- C++ -*----------------------------------*\
| =========                 |                                                 |
| \\      /  F ield         | OpenFOAM: The Open Source CFD Toolbox           |
|  \\    /   O peration     | Version:  2412                                  |
|   \\  /    A nd           | Website:  www.openfoam.com                      |
|    \\/     M anipulation  |                                                 |
\*---------------------------------------------------------------------------*/
FoamFile
{
    version     2.0;
    format      ascii;
    arch        "LSB;label=32;scalar=64";
    class       volScalarField;
    location    "100";
    object      nut;
}
// * * * * * * * * * * * * * * * * * * * * * * * * * * * * * * * * * * * * * //

dimensions      [0 2 -1 0 0 0 0];

internalField   nonuniform List<scalar> 
29601
(
2.21327e-12
3.71461e-12
1.03602e-12
3.81323e-13
8.16985e-13
7.23167e-13
6.94971e-12
1.67618e-11
1.70817e-11
1.31082e-11
1.10411e-11
1.00523e-11
9.66538e-12
9.77345e-12
1.02017e-11
1.05752e-11
1.07199e-11
1.07097e-11
1.05554e-11
1.0377e-11
1.03019e-11
1.03271e-11
1.04254e-11
1.05419e-11
1.0631e-11
1.06982e-11
1.07595e-11
1.08351e-11
1.09268e-11
1.10268e-11
1.11287e-11
1.12312e-11
1.13368e-11
1.14469e-11
1.15621e-11
1.168e-11
1.18013e-11
1.19256e-11
1.20529e-11
1.21822e-11
1.23141e-11
1.24481e-11
1.2584e-11
1.27216e-11
1.28595e-11
1.2999e-11
1.31382e-11
1.32782e-11
1.34161e-11
1.35524e-11
1.36877e-11
1.38203e-11
1.39497e-11
1.40755e-11
1.41949e-11
1.43091e-11
1.44181e-11
1.452e-11
1.46162e-11
1.47053e-11
1.47931e-11
1.48804e-11
1.49748e-11
1.50819e-11
1.5217e-11
1.53975e-11
1.56523e-11
1.60224e-11
1.65533e-11
1.7255e-11
1.79852e-11
1.84361e-11
1.85553e-11
1.8625e-11
1.87661e-11
1.8952e-11
1.91516e-11
1.93535e-11
1.95564e-11
1.97611e-11
1.99692e-11
2.01798e-11
2.03939e-11
2.06133e-11
2.08367e-11
2.10642e-11
2.12966e-11
2.15352e-11
2.18039e-11
1.58795e-11
1.59831e-11
1.60908e-11
1.62005e-11
1.63119e-11
1.64248e-11
1.65393e-11
1.66546e-11
1.67719e-11
1.68905e-11
1.70102e-11
1.71307e-11
1.72522e-11
1.73739e-11
1.74964e-11
1.76196e-11
1.77436e-11
1.78676e-11
1.79901e-11
1.81128e-11
1.82347e-11
1.83553e-11
1.84759e-11
1.85947e-11
1.87112e-11
1.88242e-11
1.89347e-11
1.90421e-11
1.91451e-11
1.92441e-11
1.93388e-11
1.94276e-11
1.95113e-11
1.95897e-11
1.96633e-11
1.9732e-11
1.97964e-11
1.98542e-11
1.99091e-11
1.99628e-11
2.00156e-11
2.00709e-11
2.01379e-11
2.02213e-11
2.03347e-11
2.04981e-11
2.07614e-11
2.11883e-11
2.18102e-11
2.25744e-11
2.33641e-11
2.41531e-11
2.51113e-11
3.72354e-11
3.71962e-11
3.75222e-11
3.66185e-11
3.19793e-11
1.74052e-11
3.07446e-12
1.9975e-15
3.16783e-12
1.77311e-11
3.234e-11
3.69463e-11
3.7842e-11
3.74885e-11
3.66449e-11
2.5194e-11
2.38881e-11
2.27073e-11
2.15177e-11
2.05315e-11
1.98622e-11
1.94832e-11
1.9293e-11
1.91972e-11
1.91437e-11
1.91162e-11
1.90999e-11
1.90942e-11
1.90919e-11
1.90867e-11
1.90776e-11
1.90633e-11
1.90396e-11
1.90094e-11
1.89721e-11
1.8929e-11
1.88785e-11
1.88211e-11
1.87573e-11
1.86883e-11
1.86138e-11
1.85338e-11
1.84499e-11
1.83626e-11
1.82711e-11
1.81765e-11
1.80794e-11
1.79815e-11
1.78814e-11
1.77799e-11
1.76776e-11
1.75731e-11
1.74679e-11
1.73628e-11
1.72578e-11
1.7153e-11
1.70478e-11
1.6943e-11
1.68383e-11
1.67342e-11
1.6631e-11
1.65293e-11
1.64279e-11
1.63277e-11
1.62285e-11
1.61302e-11
1.60328e-11
1.59364e-11
1.5842e-11
1.57487e-11
1.56562e-11
1.55684e-11
1.5486e-11
2.11024e-11
2.05684e-11
2.03681e-11
2.01699e-11
1.99715e-11
1.97755e-11
1.95806e-11
1.9387e-11
1.91948e-11
1.90069e-11
1.88289e-11
1.8666e-11
1.85226e-11
1.83961e-11
1.82584e-11
1.80648e-11
1.77834e-11
1.74247e-11
1.70331e-11
1.66514e-11
1.63039e-11
1.59988e-11
1.57309e-11
1.54949e-11
1.52841e-11
1.50932e-11
1.49143e-11
1.47444e-11
1.45801e-11
1.44207e-11
1.42643e-11
1.4108e-11
1.39532e-11
1.3799e-11
1.3645e-11
1.34924e-11
1.3339e-11
1.3186e-11
1.30336e-11
1.28827e-11
1.27329e-11
1.25842e-11
1.24373e-11
1.22925e-11
1.215e-11
1.201e-11
1.18723e-11
1.1737e-11
1.16056e-11
1.1477e-11
1.13516e-11
1.12312e-11
1.11155e-11
1.10031e-11
1.08918e-11
1.07826e-11
1.06823e-11
1.05981e-11
1.05285e-11
1.04539e-11
1.03588e-11
1.02381e-11
1.01359e-11
1.01055e-11
1.01732e-11
1.03414e-11
1.04866e-11
1.04935e-11
1.0353e-11
9.99375e-12
9.58366e-12
9.48499e-12
9.86717e-12
1.08354e-11
1.28499e-11
1.67203e-11
1.64496e-11
6.92786e-12
7.14977e-13
8.25097e-13
3.67497e-13
9.68741e-13
3.88185e-12
2.41863e-12
1.93831e-10
3.08215e-10
9.97423e-11
3.73283e-11
7.13218e-11
6.85235e-11
6.9741e-10
1.54176e-09
1.54896e-09
1.22816e-09
1.05208e-09
9.66924e-10
9.3516e-10
9.46599e-10
9.84359e-10
1.01633e-09
1.0283e-09
1.02658e-09
1.01286e-09
9.97632e-10
9.91587e-10
9.94465e-10
1.00367e-09
1.01434e-09
1.02259e-09
1.02895e-09
1.03489e-09
1.04215e-09
1.05089e-09
1.06036e-09
1.07e-09
1.07973e-09
1.08976e-09
1.10024e-09
1.11116e-09
1.12234e-09
1.13384e-09
1.14559e-09
1.15762e-09
1.16985e-09
1.18229e-09
1.19488e-09
1.20763e-09
1.22049e-09
1.23332e-09
1.24623e-09
1.25903e-09
1.27178e-09
1.28426e-09
1.29647e-09
1.30836e-09
1.31979e-09
1.33065e-09
1.34089e-09
1.35026e-09
1.35878e-09
1.36643e-09
1.37307e-09
1.37897e-09
1.38386e-09
1.38853e-09
1.39313e-09
1.39887e-09
1.40666e-09
1.41841e-09
1.43676e-09
1.46599e-09
1.51246e-09
1.58406e-09
1.68531e-09
1.80108e-09
1.88738e-09
1.92271e-09
1.93712e-09
1.95292e-09
1.97271e-09
1.99459e-09
2.01721e-09
2.04017e-09
2.0634e-09
2.08697e-09
2.11086e-09
2.13515e-09
2.15996e-09
2.18522e-09
2.21105e-09
2.23744e-09
2.26441e-09
2.29366e-09
1.32525e-09
1.33126e-09
1.33757e-09
1.34403e-09
1.35057e-09
1.35715e-09
1.36376e-09
1.37037e-09
1.37707e-09
1.38377e-09
1.39049e-09
1.39722e-09
1.40395e-09
1.41061e-09
1.41729e-09
1.42394e-09
1.4306e-09
1.43718e-09
1.4436e-09
1.45e-09
1.45629e-09
1.46244e-09
1.46856e-09
1.47454e-09
1.48034e-09
1.48588e-09
1.49127e-09
1.49642e-09
1.50129e-09
1.5059e-09
1.51023e-09
1.51414e-09
1.51777e-09
1.52108e-09
1.52408e-09
1.52674e-09
1.52911e-09
1.53104e-09
1.53277e-09
1.53437e-09
1.53578e-09
1.53721e-09
1.53922e-09
1.54195e-09
1.5462e-09
1.55303e-09
1.56565e-09
1.58904e-09
1.62769e-09
1.68186e-09
1.7467e-09
1.82345e-09
1.93096e-09
3.50746e-09
3.48344e-09
3.46081e-09
3.30056e-09
2.77501e-09
1.41692e-09
2.48095e-10
1.92009e-13
2.55191e-10
1.44292e-09
2.80573e-09
3.32973e-09
3.48983e-09
3.51055e-09
3.41276e-09
1.93873e-09
1.80001e-09
1.69669e-09
1.6089e-09
1.54602e-09
1.50864e-09
1.49071e-09
1.48385e-09
1.48174e-09
1.4814e-09
1.48221e-09
1.48334e-09
1.48499e-09
1.4867e-09
1.48805e-09
1.48906e-09
1.48969e-09
1.48969e-09
1.48924e-09
1.48831e-09
1.48701e-09
1.48525e-09
1.48308e-09
1.48048e-09
1.47754e-09
1.47425e-09
1.4706e-09
1.46668e-09
1.46257e-09
1.45815e-09
1.45352e-09
1.4487e-09
1.44383e-09
1.43876e-09
1.43355e-09
1.42828e-09
1.42281e-09
1.41724e-09
1.41164e-09
1.40599e-09
1.40033e-09
1.39457e-09
1.38879e-09
1.38299e-09
1.37718e-09
1.37135e-09
1.3656e-09
1.35983e-09
1.35407e-09
1.34831e-09
1.3426e-09
1.33694e-09
1.33127e-09
1.32568e-09
1.32018e-09
1.31473e-09
1.30968e-09
1.30488e-09
2.20046e-09
2.15172e-09
2.12843e-09
2.10596e-09
2.08358e-09
2.06145e-09
2.03953e-09
2.01791e-09
1.99661e-09
1.97598e-09
1.95639e-09
1.938e-09
1.92043e-09
1.90184e-09
1.8778e-09
1.84304e-09
1.79567e-09
1.7397e-09
1.68235e-09
1.62936e-09
1.58343e-09
1.54491e-09
1.51282e-09
1.48598e-09
1.46309e-09
1.44322e-09
1.42525e-09
1.40876e-09
1.39319e-09
1.37828e-09
1.36374e-09
1.34933e-09
1.33507e-09
1.32083e-09
1.3066e-09
1.29241e-09
1.27814e-09
1.26391e-09
1.24968e-09
1.23555e-09
1.22149e-09
1.20751e-09
1.19367e-09
1.18001e-09
1.16653e-09
1.15328e-09
1.14025e-09
1.12745e-09
1.11499e-09
1.10278e-09
1.09088e-09
1.07943e-09
1.06844e-09
1.05776e-09
1.04723e-09
1.03688e-09
1.02731e-09
1.01923e-09
1.01251e-09
1.00543e-09
9.96605e-10
9.85493e-10
9.75891e-10
9.72516e-10
9.77868e-10
9.92171e-10
1.00504e-09
1.00638e-09
9.94709e-10
9.63947e-10
9.27758e-10
9.17108e-10
9.48475e-10
1.03188e-09
1.20329e-09
1.51535e-09
1.51145e-09
6.93849e-10
6.80384e-11
7.20431e-11
3.6003e-11
9.42229e-11
3.22531e-10
2.06977e-10
1.77737e-09
2.47068e-09
9.81454e-10
3.78109e-10
6.10547e-10
7.56115e-10
7.29978e-09
1.40999e-08
1.39326e-08
1.15786e-08
1.01758e-08
9.48671e-09
9.24748e-09
9.36886e-09
9.6889e-09
9.94794e-09
1.00393e-08
1.00147e-08
9.89707e-09
9.77466e-09
9.73179e-09
9.76596e-09
9.85238e-09
9.94933e-09
1.00256e-08
1.00868e-08
1.01459e-08
1.02172e-08
1.03015e-08
1.03922e-08
1.04848e-08
1.05786e-08
1.06754e-08
1.07766e-08
1.08817e-08
1.09895e-08
1.11003e-08
1.12134e-08
1.13291e-08
1.14467e-08
1.15662e-08
1.16871e-08
1.18091e-08
1.19318e-08
1.20539e-08
1.21763e-08
1.22969e-08
1.24163e-08
1.25322e-08
1.26447e-08
1.27526e-08
1.28546e-08
1.29494e-08
1.30359e-08
1.31125e-08
1.31782e-08
1.32328e-08
1.32752e-08
1.33088e-08
1.3331e-08
1.33502e-08
1.3369e-08
1.34021e-08
1.34611e-08
1.35685e-08
1.37561e-08
1.40767e-08
1.46077e-08
1.54479e-08
1.66598e-08
1.80739e-08
1.91642e-08
1.96404e-08
1.98263e-08
1.9996e-08
2.01998e-08
2.04252e-08
2.06595e-08
2.08982e-08
2.11398e-08
2.13843e-08
2.1632e-08
2.18839e-08
2.21407e-08
2.24021e-08
2.2669e-08
2.29418e-08
2.32199e-08
2.35098e-08
1.16015e-08
1.16405e-08
1.16827e-08
1.17262e-08
1.177e-08
1.18141e-08
1.18583e-08
1.19027e-08
1.19474e-08
1.19921e-08
1.20368e-08
1.20818e-08
1.21265e-08
1.2171e-08
1.22154e-08
1.22596e-08
1.2304e-08
1.23474e-08
1.23902e-08
1.24329e-08
1.24746e-08
1.25158e-08
1.25568e-08
1.25968e-08
1.26356e-08
1.26731e-08
1.27094e-08
1.27441e-08
1.27768e-08
1.28077e-08
1.28367e-08
1.2863e-08
1.28872e-08
1.29093e-08
1.2929e-08
1.29459e-08
1.29615e-08
1.29732e-08
1.29844e-08
1.29943e-08
1.30034e-08
1.30144e-08
1.30299e-08
1.30525e-08
1.309e-08
1.31518e-08
1.32665e-08
1.34761e-08
1.38152e-08
1.42878e-08
1.48739e-08
1.56276e-08
1.6789e-08
3.3325e-08
3.26483e-08
3.15888e-08
2.89304e-08
2.28243e-08
1.06711e-08
1.87591e-09
1.889e-12
1.92537e-09
1.08607e-08
2.30683e-08
2.91799e-08
3.18458e-08
3.28959e-08
3.23456e-08
1.68613e-08
1.54114e-08
1.44405e-08
1.36754e-08
1.31301e-08
1.27997e-08
1.26389e-08
1.25775e-08
1.25596e-08
1.2558e-08
1.25674e-08
1.25802e-08
1.25967e-08
1.26148e-08
1.26307e-08
1.26433e-08
1.26537e-08
1.26586e-08
1.26607e-08
1.26587e-08
1.26539e-08
1.26456e-08
1.26341e-08
1.26199e-08
1.2603e-08
1.25834e-08
1.25614e-08
1.25374e-08
1.25116e-08
1.24842e-08
1.24552e-08
1.24248e-08
1.23939e-08
1.23621e-08
1.2329e-08
1.22953e-08
1.22608e-08
1.22249e-08
1.21891e-08
1.21527e-08
1.21162e-08
1.20791e-08
1.20415e-08
1.2004e-08
1.19664e-08
1.19285e-08
1.18909e-08
1.18534e-08
1.18158e-08
1.17781e-08
1.17405e-08
1.17034e-08
1.16663e-08
1.16295e-08
1.15933e-08
1.15578e-08
1.15261e-08
1.14938e-08
2.24475e-08
2.20216e-08
2.17797e-08
2.15469e-08
2.13152e-08
2.10857e-08
2.08585e-08
2.06348e-08
2.04151e-08
2.0202e-08
1.99985e-08
1.98044e-08
1.96119e-08
1.93951e-08
1.91018e-08
1.86742e-08
1.80971e-08
1.74242e-08
1.67436e-08
1.61232e-08
1.55936e-08
1.51569e-08
1.48011e-08
1.45105e-08
1.42687e-08
1.40639e-08
1.38834e-08
1.37214e-08
1.35708e-08
1.3428e-08
1.32895e-08
1.31533e-08
1.30185e-08
1.28839e-08
1.27492e-08
1.26144e-08
1.24788e-08
1.23435e-08
1.22078e-08
1.20727e-08
1.19381e-08
1.18041e-08
1.16713e-08
1.154e-08
1.14104e-08
1.12828e-08
1.11574e-08
1.10343e-08
1.09141e-08
1.07965e-08
1.06818e-08
1.05713e-08
1.04652e-08
1.03623e-08
1.02611e-08
1.01619e-08
1.00695e-08
9.99023e-09
9.92355e-09
9.85539e-09
9.77319e-09
9.67158e-09
9.58096e-09
9.54188e-09
9.57824e-09
9.6921e-09
9.8015e-09
9.8219e-09
9.73212e-09
9.48271e-09
9.17564e-09
9.06059e-09
9.29658e-09
9.97063e-09
1.13334e-08
1.36169e-08
1.38001e-08
7.2394e-09
7.54087e-10
6.17218e-10
3.66115e-10
9.49344e-10
2.58924e-09
1.75576e-09
9.13421e-09
9.76433e-09
4.71045e-09
1.95637e-09
2.59489e-09
5.16802e-09
3.8395e-08
6.38073e-08
6.23173e-08
5.46357e-08
4.94771e-08
4.69128e-08
4.61382e-08
4.67596e-08
4.80237e-08
4.89812e-08
4.92844e-08
4.91291e-08
4.86574e-08
4.82138e-08
4.80993e-08
4.8301e-08
4.8702e-08
4.91335e-08
4.94831e-08
4.97784e-08
5.0075e-08
5.04267e-08
5.08338e-08
5.12689e-08
5.17135e-08
5.21662e-08
5.2635e-08
5.31248e-08
5.36331e-08
5.41544e-08
5.46899e-08
5.52369e-08
5.57966e-08
5.63655e-08
5.69428e-08
5.75262e-08
5.81144e-08
5.87046e-08
5.9292e-08
5.98781e-08
6.04542e-08
6.10215e-08
6.15691e-08
6.20976e-08
6.25992e-08
6.30679e-08
6.34969e-08
6.3879e-08
6.42068e-08
6.44753e-08
6.46828e-08
6.48228e-08
6.49143e-08
6.4947e-08
6.49649e-08
6.49821e-08
6.50791e-08
6.5321e-08
6.58315e-08
6.67849e-08
6.8466e-08
7.1296e-08
7.58088e-08
8.23378e-08
8.99954e-08
9.6041e-08
9.88616e-08
9.9992e-08
1.00895e-07
1.0192e-07
1.03043e-07
1.04214e-07
1.05407e-07
1.06616e-07
1.07839e-07
1.09077e-07
1.10336e-07
1.11617e-07
1.12922e-07
1.14252e-07
1.1561e-07
1.16992e-07
1.18357e-07
5.31761e-08
5.33503e-08
5.3542e-08
5.374e-08
5.39422e-08
5.41474e-08
5.43558e-08
5.45677e-08
5.47832e-08
5.50011e-08
5.52232e-08
5.54485e-08
5.56762e-08
5.59065e-08
5.61401e-08
5.63763e-08
5.6616e-08
5.68563e-08
5.70979e-08
5.73423e-08
5.7588e-08
5.78344e-08
5.80835e-08
5.83327e-08
5.85799e-08
5.88244e-08
5.90652e-08
5.93022e-08
5.95324e-08
5.9758e-08
5.99739e-08
6.01817e-08
6.03807e-08
6.05705e-08
6.07506e-08
6.09233e-08
6.10861e-08
6.12409e-08
6.13967e-08
6.15544e-08
6.1723e-08
6.19147e-08
6.21519e-08
6.24595e-08
6.28834e-08
6.35037e-08
6.44726e-08
6.59339e-08
6.78819e-08
7.01577e-08
7.27656e-08
7.62629e-08
8.22929e-08
1.57728e-07
1.51366e-07
1.4125e-07
1.22622e-07
8.96548e-08
3.81142e-08
6.77531e-09
9.42173e-12
6.93771e-09
3.87645e-08
9.05652e-08
1.23639e-07
1.42347e-07
1.5246e-07
1.53759e-07
8.2629e-08
7.5298e-08
7.08395e-08
6.73136e-08
6.43239e-08
6.20745e-08
6.0679e-08
5.99232e-08
5.95265e-08
5.93059e-08
5.91872e-08
5.91223e-08
5.90968e-08
5.9093e-08
5.90936e-08
5.90874e-08
5.90735e-08
5.90428e-08
5.89946e-08
5.8932e-08
5.88557e-08
5.87636e-08
5.86565e-08
5.85389e-08
5.84079e-08
5.82671e-08
5.81156e-08
5.79569e-08
5.77911e-08
5.76196e-08
5.7443e-08
5.72636e-08
5.70839e-08
5.69018e-08
5.67182e-08
5.65342e-08
5.63488e-08
5.61616e-08
5.59756e-08
5.57903e-08
5.56063e-08
5.54229e-08
5.524e-08
5.50585e-08
5.48796e-08
5.47019e-08
5.45266e-08
5.43538e-08
5.41829e-08
5.40135e-08
5.3846e-08
5.36813e-08
5.3519e-08
5.33588e-08
5.32019e-08
5.305e-08
5.29175e-08
5.27639e-08
1.12426e-07
1.10818e-07
1.0961e-07
1.08447e-07
1.07291e-07
1.06145e-07
1.05011e-07
1.03894e-07
1.02798e-07
1.01732e-07
1.00704e-07
9.97048e-08
9.86774e-08
9.74724e-08
9.58186e-08
9.34374e-08
9.02829e-08
8.66553e-08
8.30128e-08
7.97093e-08
7.69031e-08
7.46045e-08
7.27464e-08
7.12433e-08
7.00075e-08
6.89738e-08
6.80767e-08
6.72806e-08
6.65477e-08
6.58568e-08
6.51911e-08
6.45386e-08
6.38928e-08
6.32487e-08
6.26039e-08
6.19576e-08
6.13077e-08
6.06578e-08
6.0005e-08
5.93548e-08
5.87055e-08
5.80595e-08
5.74186e-08
5.67845e-08
5.61581e-08
5.55412e-08
5.49347e-08
5.43398e-08
5.37589e-08
5.31909e-08
5.2637e-08
5.2102e-08
5.15886e-08
5.10921e-08
5.06052e-08
5.01287e-08
4.96821e-08
4.92916e-08
4.89579e-08
4.86282e-08
4.82485e-08
4.77918e-08
4.73681e-08
4.71418e-08
4.72254e-08
4.76298e-08
4.80624e-08
4.81936e-08
4.78907e-08
4.69671e-08
4.57519e-08
4.51529e-08
4.59145e-08
4.84159e-08
5.34078e-08
6.08184e-08
6.23192e-08
3.79319e-08
5.1653e-09
2.62767e-09
1.91393e-09
4.73342e-09
1.0248e-08
9.16026e-09
4.05568e-08
2.76043e-08
1.51862e-08
7.12405e-09
7.95149e-09
2.63833e-08
1.41382e-07
2.03551e-07
1.98148e-07
1.83672e-07
1.71719e-07
1.65767e-07
1.64475e-07
1.6658e-07
1.69751e-07
1.71913e-07
1.72444e-07
1.71831e-07
1.70623e-07
1.69682e-07
1.6965e-07
1.70472e-07
1.71771e-07
1.73104e-07
1.74231e-07
1.75246e-07
1.76307e-07
1.77541e-07
1.78935e-07
1.80413e-07
1.81928e-07
1.83481e-07
1.85095e-07
1.8678e-07
1.88527e-07
1.90322e-07
1.92165e-07
1.94051e-07
1.95981e-07
1.97944e-07
1.99937e-07
2.01951e-07
2.0398e-07
2.06016e-07
2.08045e-07
2.10067e-07
2.12055e-07
2.14011e-07
2.15899e-07
2.17721e-07
2.19448e-07
2.21061e-07
2.22537e-07
2.2385e-07
2.24973e-07
2.25893e-07
2.26604e-07
2.27084e-07
2.27397e-07
2.27513e-07
2.27583e-07
2.27657e-07
2.28014e-07
2.28887e-07
2.307e-07
2.34059e-07
2.3994e-07
2.49766e-07
2.65323e-07
2.87715e-07
3.14179e-07
3.3605e-07
3.47437e-07
3.52369e-07
3.55823e-07
3.59416e-07
3.63284e-07
3.67322e-07
3.71446e-07
3.75628e-07
3.7986e-07
3.84147e-07
3.88502e-07
3.92929e-07
3.97431e-07
4.02023e-07
4.06704e-07
4.11456e-07
4.15826e-07
1.86504e-07
1.87353e-07
1.88268e-07
1.89216e-07
1.90193e-07
1.91197e-07
1.92227e-07
1.93286e-07
1.94373e-07
1.95488e-07
1.96634e-07
1.97807e-07
1.99009e-07
2.00238e-07
2.01495e-07
2.02778e-07
2.04089e-07
2.05419e-07
2.0677e-07
2.08144e-07
2.09533e-07
2.10938e-07
2.1236e-07
2.13789e-07
2.15213e-07
2.16632e-07
2.18037e-07
2.19423e-07
2.20785e-07
2.22119e-07
2.23415e-07
2.24672e-07
2.25889e-07
2.27067e-07
2.28205e-07
2.29304e-07
2.30366e-07
2.31408e-07
2.32459e-07
2.3354e-07
2.34694e-07
2.35987e-07
2.37522e-07
2.39425e-07
2.41909e-07
2.45367e-07
2.5041e-07
2.57438e-07
2.65985e-07
2.74966e-07
2.84513e-07
2.97158e-07
3.19331e-07
5.2461e-07
4.8953e-07
4.36392e-07
3.55694e-07
2.39885e-07
9.25823e-08
1.67677e-08
3.39247e-11
1.71276e-08
9.409e-08
2.42161e-07
3.58481e-07
4.39556e-07
4.92817e-07
5.15773e-07
3.20489e-07
2.93902e-07
2.77582e-07
2.64183e-07
2.51424e-07
2.40771e-07
2.33415e-07
2.28891e-07
2.26168e-07
2.24429e-07
2.23256e-07
2.22409e-07
2.2179e-07
2.21316e-07
2.20905e-07
2.20502e-07
2.20082e-07
2.19612e-07
2.1908e-07
2.18483e-07
2.1783e-07
2.17115e-07
2.16337e-07
2.15508e-07
2.14629e-07
2.13703e-07
2.12738e-07
2.11739e-07
2.10713e-07
2.09667e-07
2.08605e-07
2.07535e-07
2.0647e-07
2.05406e-07
2.04343e-07
2.03288e-07
2.0224e-07
2.01199e-07
2.00172e-07
1.99162e-07
1.98167e-07
1.97189e-07
1.96228e-07
1.95285e-07
1.94362e-07
1.9346e-07
1.92577e-07
1.91716e-07
1.90875e-07
1.90053e-07
1.8925e-07
1.88465e-07
1.877e-07
1.86953e-07
1.86225e-07
1.85524e-07
1.84889e-07
1.84106e-07
3.9218e-07
3.89328e-07
3.85138e-07
3.81105e-07
3.77109e-07
3.7315e-07
3.69237e-07
3.65378e-07
3.61592e-07
3.57888e-07
3.54267e-07
3.50638e-07
3.46739e-07
3.41996e-07
3.35521e-07
3.26543e-07
3.15124e-07
3.02364e-07
2.89744e-07
2.7837e-07
2.68722e-07
2.60809e-07
2.54401e-07
2.49205e-07
2.44927e-07
2.41343e-07
2.38233e-07
2.35473e-07
2.32933e-07
2.30542e-07
2.2824e-07
2.25984e-07
2.23752e-07
2.21529e-07
2.19304e-07
2.17074e-07
2.14834e-07
2.12593e-07
2.10343e-07
2.08101e-07
2.05864e-07
2.03638e-07
2.01431e-07
1.99246e-07
1.97089e-07
1.94964e-07
1.92875e-07
1.90829e-07
1.88832e-07
1.8688e-07
1.84977e-07
1.83138e-07
1.81372e-07
1.79669e-07
1.78007e-07
1.76386e-07
1.74854e-07
1.73485e-07
1.72295e-07
1.71158e-07
1.69921e-07
1.68491e-07
1.67104e-07
1.66193e-07
1.6612e-07
1.66932e-07
1.68008e-07
1.68527e-07
1.6797e-07
1.65874e-07
1.62814e-07
1.60751e-07
1.62004e-07
1.67771e-07
1.79245e-07
1.93021e-07
1.9832e-07
1.39133e-07
2.63418e-08
8.07852e-09
7.08839e-09
1.57033e-08
2.89714e-08
4.10778e-08
1.53532e-07
6.53319e-08
3.84624e-08
2.02519e-08
2.08952e-08
1.10168e-07
4.13137e-07
5.26197e-07
5.15521e-07
5.04565e-07
4.86991e-07
4.78477e-07
4.78447e-07
4.8364e-07
4.88799e-07
4.91581e-07
4.91673e-07
4.89941e-07
4.87935e-07
4.87066e-07
4.88036e-07
4.90661e-07
4.93997e-07
4.97258e-07
5.00182e-07
5.03024e-07
5.06109e-07
5.09622e-07
5.13488e-07
5.17553e-07
5.21739e-07
5.26069e-07
5.30582e-07
5.35289e-07
5.40172e-07
5.45199e-07
5.50364e-07
5.55665e-07
5.61088e-07
5.66614e-07
5.72231e-07
5.77917e-07
5.83655e-07
5.89424e-07
5.95194e-07
6.00948e-07
6.06636e-07
6.12245e-07
6.17706e-07
6.23004e-07
6.28082e-07
6.32883e-07
6.37349e-07
6.41423e-07
6.4504e-07
6.48168e-07
6.508e-07
6.52874e-07
6.54551e-07
6.55764e-07
6.56882e-07
6.58033e-07
6.59897e-07
6.63045e-07
6.68515e-07
6.77785e-07
6.93202e-07
7.18141e-07
7.56796e-07
8.11942e-07
8.78174e-07
9.36737e-07
9.71595e-07
9.88347e-07
9.99017e-07
1.00902e-06
1.01947e-06
1.03037e-06
1.04153e-06
1.05288e-06
1.06435e-06
1.07599e-06
1.08778e-06
1.09977e-06
1.11195e-06
1.12435e-06
1.13697e-06
1.14974e-06
1.16064e-06
5.77351e-07
5.81003e-07
5.8485e-07
5.88813e-07
5.92895e-07
5.97092e-07
6.01398e-07
6.05814e-07
6.10344e-07
6.14992e-07
6.19751e-07
6.24627e-07
6.29612e-07
6.34703e-07
6.39893e-07
6.45183e-07
6.50565e-07
6.56022e-07
6.61552e-07
6.67148e-07
6.72795e-07
6.7849e-07
6.84228e-07
6.89967e-07
6.95683e-07
7.01352e-07
7.06951e-07
7.1246e-07
7.17866e-07
7.23146e-07
7.28271e-07
7.33231e-07
7.38039e-07
7.42685e-07
7.4717e-07
7.51501e-07
7.55706e-07
7.59842e-07
7.6402e-07
7.68335e-07
7.72951e-07
7.78124e-07
7.84238e-07
7.91801e-07
8.0161e-07
8.15226e-07
8.34941e-07
8.62179e-07
8.95006e-07
9.28967e-07
9.63794e-07
1.00436e-06
1.05696e-06
1.39116e-06
1.25331e-06
1.05935e-06
8.06876e-07
5.01738e-07
1.75283e-07
3.26687e-08
1.01572e-10
3.32841e-08
1.77991e-07
5.06114e-07
8.12758e-07
1.06637e-06
1.26088e-06
1.37952e-06
1.06088e-06
9.95308e-07
9.40012e-07
8.90257e-07
8.41693e-07
8.00904e-07
7.72406e-07
7.54463e-07
7.43382e-07
7.3615e-07
7.3112e-07
7.27406e-07
7.24576e-07
7.22335e-07
7.20376e-07
7.18493e-07
7.16573e-07
7.14491e-07
7.12194e-07
7.09653e-07
7.069e-07
7.0391e-07
7.00685e-07
6.97254e-07
6.93629e-07
6.89815e-07
6.85841e-07
6.8173e-07
6.77501e-07
6.73179e-07
6.68788e-07
6.64352e-07
6.59913e-07
6.55474e-07
6.51034e-07
6.46611e-07
6.42209e-07
6.37834e-07
6.33508e-07
6.29241e-07
6.25031e-07
6.20887e-07
6.16811e-07
6.12813e-07
6.08889e-07
6.05051e-07
6.01297e-07
5.97626e-07
5.94038e-07
5.90534e-07
5.87116e-07
5.83774e-07
5.80509e-07
5.77322e-07
5.74213e-07
5.71199e-07
5.68355e-07
5.64896e-07
1.08626e-06
1.08742e-06
1.07604e-06
1.06506e-06
1.05422e-06
1.04349e-06
1.03289e-06
1.02244e-06
1.01216e-06
1.00201e-06
9.91898e-07
9.81395e-07
9.69607e-07
9.54927e-07
9.35337e-07
9.09592e-07
8.78598e-07
8.45318e-07
8.13138e-07
7.8439e-07
7.59986e-07
7.39816e-07
7.23291e-07
7.09688e-07
6.98308e-07
6.88608e-07
6.80072e-07
6.72383e-07
6.65234e-07
6.58458e-07
6.51908e-07
6.45479e-07
6.39118e-07
6.32781e-07
6.26444e-07
6.20106e-07
6.13754e-07
6.07404e-07
6.0105e-07
5.94717e-07
5.88408e-07
5.82143e-07
5.75935e-07
5.69798e-07
5.63742e-07
5.57784e-07
5.51934e-07
5.46207e-07
5.40619e-07
5.35167e-07
5.2986e-07
5.2473e-07
5.19797e-07
5.1505e-07
5.10454e-07
5.05986e-07
5.01728e-07
4.97834e-07
4.9438e-07
4.91186e-07
4.87934e-07
4.84372e-07
4.80758e-07
4.77863e-07
4.76591e-07
4.77118e-07
4.78765e-07
4.80209e-07
4.79968e-07
4.77229e-07
4.722e-07
4.67007e-07
4.66906e-07
4.74971e-07
4.91435e-07
5.01015e-07
5.11302e-07
4.04823e-07
1.09822e-07
2.1388e-08
2.04456e-08
4.04335e-08
6.83524e-08
1.56201e-07
5.022e-07
1.47915e-07
8.33109e-08
4.7961e-08
6.12451e-08
3.97772e-07
1.01524e-06
1.18286e-06
1.17709e-06
1.2111e-06
1.20429e-06
1.2021e-06
1.20902e-06
1.21822e-06
1.22131e-06
1.22052e-06
1.21786e-06
1.21432e-06
1.21317e-06
1.21538e-06
1.22023e-06
1.22719e-06
1.23441e-06
1.24112e-06
1.24765e-06
1.25457e-06
1.26232e-06
1.27094e-06
1.28019e-06
1.28984e-06
1.29984e-06
1.31027e-06
1.32118e-06
1.33257e-06
1.34438e-06
1.35658e-06
1.36913e-06
1.38205e-06
1.39527e-06
1.40878e-06
1.42254e-06
1.43651e-06
1.45065e-06
1.46491e-06
1.47925e-06
1.4936e-06
1.50789e-06
1.52207e-06
1.53604e-06
1.54975e-06
1.56309e-06
1.57596e-06
1.58826e-06
1.59987e-06
1.6107e-06
1.62068e-06
1.6298e-06
1.63796e-06
1.64545e-06
1.65216e-06
1.65873e-06
1.66543e-06
1.67343e-06
1.68377e-06
1.6983e-06
1.71961e-06
1.75181e-06
1.80075e-06
1.87376e-06
1.97631e-06
2.10162e-06
2.22032e-06
2.3004e-06
2.34356e-06
2.37041e-06
2.39364e-06
2.41709e-06
2.44139e-06
2.4663e-06
2.49166e-06
2.51733e-06
2.54333e-06
2.56966e-06
2.59641e-06
2.62352e-06
2.65111e-06
2.67913e-06
2.70739e-06
2.73018e-06
1.64049e-06
1.65349e-06
1.66696e-06
1.6808e-06
1.695e-06
1.70954e-06
1.72443e-06
1.73968e-06
1.75529e-06
1.77125e-06
1.78757e-06
1.80423e-06
1.82123e-06
1.83855e-06
1.85616e-06
1.87406e-06
1.89222e-06
1.9106e-06
1.92916e-06
1.9479e-06
1.96677e-06
1.98575e-06
2.0048e-06
2.02382e-06
2.0427e-06
2.06139e-06
2.07981e-06
2.0979e-06
2.1156e-06
2.13285e-06
2.14956e-06
2.16572e-06
2.18134e-06
2.19641e-06
2.21093e-06
2.22495e-06
2.23853e-06
2.25192e-06
2.26544e-06
2.27944e-06
2.29446e-06
2.31135e-06
2.33142e-06
2.35638e-06
2.38893e-06
2.43445e-06
2.50068e-06
2.59198e-06
2.69833e-06
2.79202e-06
2.85055e-06
2.87082e-06
2.85446e-06
3.1071e-06
2.68997e-06
2.14924e-06
1.52853e-06
8.76759e-07
2.75257e-07
5.35786e-08
2.72769e-10
5.44407e-08
2.79266e-07
8.83646e-07
1.53874e-06
2.16198e-06
2.70406e-06
3.09928e-06
2.86727e-06
2.86593e-06
2.80907e-06
2.68722e-06
2.52914e-06
2.3918e-06
2.29674e-06
2.23717e-06
2.2004e-06
2.17644e-06
2.15978e-06
2.1475e-06
2.13816e-06
2.13075e-06
2.12429e-06
2.1181e-06
2.11178e-06
2.10495e-06
2.0974e-06
2.08905e-06
2.07998e-06
2.07011e-06
2.05944e-06
2.04807e-06
2.03604e-06
2.02336e-06
2.0101e-06
1.99636e-06
1.98219e-06
1.96768e-06
1.95289e-06
1.93791e-06
1.92286e-06
1.90776e-06
1.89263e-06
1.87752e-06
1.86243e-06
1.8474e-06
1.8325e-06
1.81775e-06
1.80316e-06
1.78876e-06
1.77457e-06
1.7606e-06
1.74687e-06
1.73338e-06
1.72016e-06
1.70721e-06
1.69452e-06
1.68208e-06
1.66991e-06
1.658e-06
1.64632e-06
1.63489e-06
1.6237e-06
1.61277e-06
1.6022e-06
1.58986e-06
2.54494e-06
2.56267e-06
2.53729e-06
2.51265e-06
2.48839e-06
2.46439e-06
2.4407e-06
2.41729e-06
2.39418e-06
2.37113e-06
2.34773e-06
2.32276e-06
2.29411e-06
2.25856e-06
2.2129e-06
2.1562e-06
2.09148e-06
2.02459e-06
1.96121e-06
1.90485e-06
1.85662e-06
1.81609e-06
1.78205e-06
1.7532e-06
1.7283e-06
1.70638e-06
1.68654e-06
1.66821e-06
1.65087e-06
1.6342e-06
1.61795e-06
1.60195e-06
1.58609e-06
1.5703e-06
1.55454e-06
1.53881e-06
1.52309e-06
1.5074e-06
1.49177e-06
1.4762e-06
1.46075e-06
1.44542e-06
1.43027e-06
1.41531e-06
1.40058e-06
1.3861e-06
1.37191e-06
1.35804e-06
1.3445e-06
1.33133e-06
1.31853e-06
1.30615e-06
1.29424e-06
1.28282e-06
1.27183e-06
1.26121e-06
1.251e-06
1.24144e-06
1.23278e-06
1.22498e-06
1.21761e-06
1.2101e-06
1.20213e-06
1.19445e-06
1.18882e-06
1.1858e-06
1.18611e-06
1.18893e-06
1.19109e-06
1.19167e-06
1.18846e-06
1.17892e-06
1.1715e-06
1.17259e-06
1.17706e-06
1.14082e-06
1.14621e-06
9.91112e-07
3.95756e-07
6.30196e-08
4.89184e-08
8.84691e-08
1.52648e-07
5.13209e-07
1.43573e-06
3.78247e-07
1.63613e-07
9.90005e-08
1.8422e-07
1.21872e-06
2.17143e-06
2.40897e-06
2.45399e-06
2.63488e-06
2.68684e-06
2.7147e-06
2.73824e-06
2.74725e-06
2.73465e-06
2.71936e-06
2.70949e-06
2.70508e-06
2.71111e-06
2.72457e-06
2.73975e-06
2.75551e-06
2.76901e-06
2.78109e-06
2.79421e-06
2.80931e-06
2.82662e-06
2.84544e-06
2.86513e-06
2.88555e-06
2.90685e-06
2.92929e-06
2.95284e-06
2.97743e-06
3.00295e-06
3.02937e-06
3.05659e-06
3.0847e-06
3.11353e-06
3.14304e-06
3.17318e-06
3.20386e-06
3.23502e-06
3.26656e-06
3.29843e-06
3.33045e-06
3.3626e-06
3.39471e-06
3.42672e-06
3.45842e-06
3.48975e-06
3.52055e-06
3.55065e-06
3.57991e-06
3.60816e-06
3.63536e-06
3.66145e-06
3.68636e-06
3.71041e-06
3.73352e-06
3.75649e-06
3.77973e-06
3.80475e-06
3.83294e-06
3.86674e-06
3.90952e-06
3.96663e-06
4.04569e-06
4.15627e-06
4.30624e-06
4.4895e-06
4.67136e-06
4.80661e-06
4.88859e-06
4.9426e-06
4.9887e-06
5.03429e-06
5.08111e-06
5.12895e-06
5.17761e-06
5.22686e-06
5.27674e-06
5.32719e-06
5.37839e-06
5.43023e-06
5.48291e-06
5.53634e-06
5.59015e-06
5.63354e-06
4.1848e-06
4.2226e-06
4.26128e-06
4.30082e-06
4.34126e-06
4.3826e-06
4.42485e-06
4.468e-06
4.51209e-06
4.55711e-06
4.60301e-06
4.64979e-06
4.69743e-06
4.74585e-06
4.79502e-06
4.8449e-06
4.89541e-06
4.94645e-06
4.99794e-06
5.04984e-06
5.10206e-06
5.1545e-06
5.20702e-06
5.2594e-06
5.31142e-06
5.36293e-06
5.41377e-06
5.46382e-06
5.51291e-06
5.56091e-06
5.60767e-06
5.65316e-06
5.69741e-06
5.74042e-06
5.78215e-06
5.82277e-06
5.86249e-06
5.90189e-06
5.94159e-06
5.98253e-06
6.02592e-06
6.07365e-06
6.12825e-06
6.1934e-06
6.27399e-06
6.37924e-06
6.51712e-06
6.67745e-06
6.81324e-06
6.85688e-06
6.7731e-06
6.56297e-06
6.21887e-06
6.00558e-06
4.99483e-06
3.77619e-06
2.50875e-06
1.32655e-06
3.69196e-07
7.67861e-08
6.87697e-10
7.78028e-08
3.74239e-07
1.33569e-06
2.52388e-06
3.7958e-06
5.01668e-06
6.00828e-06
6.24831e-06
6.59254e-06
6.7809e-06
6.76961e-06
6.57566e-06
6.32023e-06
6.10267e-06
5.94985e-06
5.84855e-06
5.77908e-06
5.72803e-06
5.68809e-06
5.65539e-06
5.62776e-06
5.60274e-06
5.57877e-06
5.55478e-06
5.52989e-06
5.50352e-06
5.47539e-06
5.44563e-06
5.41419e-06
5.3809e-06
5.34601e-06
5.30964e-06
5.27183e-06
5.23266e-06
5.19238e-06
5.15112e-06
5.10905e-06
5.06633e-06
5.02316e-06
4.97978e-06
4.93629e-06
4.8928e-06
4.84937e-06
4.80607e-06
4.76296e-06
4.72017e-06
4.67779e-06
4.63588e-06
4.59446e-06
4.55362e-06
4.51337e-06
4.47373e-06
4.43477e-06
4.39652e-06
4.35897e-06
4.32211e-06
4.28596e-06
4.2505e-06
4.21573e-06
4.1816e-06
4.14812e-06
4.11526e-06
4.083e-06
4.05139e-06
4.01679e-06
5.26976e-06
5.30298e-06
5.25474e-06
5.20738e-06
5.16077e-06
5.11461e-06
5.06901e-06
5.0238e-06
4.97904e-06
4.93412e-06
4.88823e-06
4.83919e-06
4.78364e-06
4.71703e-06
4.63568e-06
4.53979e-06
4.43475e-06
4.32876e-06
4.22897e-06
4.13936e-06
4.06093e-06
3.99282e-06
3.93337e-06
3.88071e-06
3.83333e-06
3.78982e-06
3.74913e-06
3.71042e-06
3.67308e-06
3.63663e-06
3.60079e-06
3.56532e-06
3.5301e-06
3.49504e-06
3.46011e-06
3.4253e-06
3.39061e-06
3.35604e-06
3.32172e-06
3.28762e-06
3.25384e-06
3.22041e-06
3.18741e-06
3.15491e-06
3.12295e-06
3.09159e-06
3.06088e-06
3.03092e-06
3.00172e-06
2.97336e-06
2.94584e-06
2.91922e-06
2.89361e-06
2.8691e-06
2.8457e-06
2.82321e-06
2.80145e-06
2.7806e-06
2.76129e-06
2.74425e-06
2.72925e-06
2.71533e-06
2.70004e-06
2.68256e-06
2.66551e-06
2.65024e-06
2.64249e-06
2.64542e-06
2.65412e-06
2.66857e-06
2.68017e-06
2.66958e-06
2.64405e-06
2.61303e-06
2.55572e-06
2.37112e-06
2.32845e-06
2.11426e-06
1.20542e-06
1.89959e-07
1.01496e-07
1.74687e-07
3.88136e-07
1.47478e-06
3.6232e-06
9.80258e-07
3.06915e-07
1.89471e-07
5.4306e-07
2.97067e-06
4.14501e-06
4.55805e-06
4.78338e-06
5.30219e-06
5.49709e-06
5.58788e-06
5.63159e-06
5.62262e-06
5.56801e-06
5.52167e-06
5.50118e-06
5.50298e-06
5.531e-06
5.57098e-06
5.60686e-06
5.63727e-06
5.65946e-06
5.67926e-06
5.70364e-06
5.73367e-06
5.7684e-06
5.80525e-06
5.84302e-06
5.88206e-06
5.92313e-06
5.96671e-06
6.0126e-06
6.06049e-06
6.11022e-06
6.16184e-06
6.21512e-06
6.27028e-06
6.32688e-06
6.38497e-06
6.4444e-06
6.50503e-06
6.56673e-06
6.62939e-06
6.69292e-06
6.75692e-06
6.82156e-06
6.88639e-06
6.95155e-06
7.01653e-06
7.0814e-06
7.14591e-06
7.20984e-06
7.27302e-06
7.33524e-06
7.39648e-06
7.45666e-06