/*--------------------------------*- C++ -*----------------------------------*\
| =========                 |                                                 |
| \\      /  F ield         | OpenFOAM: The Open Source CFD Toolbox           |
|  \\    /   O peration     | Version:  2412                                  |
|   \\  /    A nd           | Website:  www.openfoam.com                      |
|    \\/     M anipulation  |                                                 |
\*---------------------------------------------------------------------------*/
FoamFile
{
    version     2.0;
    format      ascii;
    arch        "LSB;label=32;scalar=64";
    class       volScalarField;
    location    "100";
    object      nuTilda;
}
// * * * * * * * * * * * * * * * * * * * * * * * * * * * * * * * * * * * * * //

dimensions      [0 2 -1 0 0 0 0];

internalField   nonuniform List<scalar> 
29601
(
1.2659e-06
1.44085e-06
1.04709e-06
8.15574e-07
9.86719e-07
9.57083e-07
1.68513e-06
2.10001e-06
2.10996e-06
1.97481e-06
1.89188e-06
1.84802e-06
1.82998e-06
1.83507e-06
1.85485e-06
1.8716e-06
1.87797e-06
1.87752e-06
1.87072e-06
1.86277e-06
1.85939e-06
1.86052e-06
1.86494e-06
1.87013e-06
1.87406e-06
1.87702e-06
1.8797e-06
1.88299e-06
1.88697e-06
1.89127e-06
1.89562e-06
1.89997e-06
1.90442e-06
1.90903e-06
1.91381e-06
1.91867e-06
1.92364e-06
1.92868e-06
1.93381e-06
1.93898e-06
1.9442e-06
1.94947e-06
1.95477e-06
1.96009e-06
1.96538e-06
1.97069e-06
1.97594e-06
1.98119e-06
1.98631e-06
1.99134e-06
1.99629e-06
2.00111e-06
2.00577e-06
2.01028e-06
2.01453e-06
2.01857e-06
2.0224e-06
2.02597e-06
2.02932e-06
2.0324e-06
2.03543e-06
2.03842e-06
2.04165e-06
2.04529e-06
2.04986e-06
2.05591e-06
2.06436e-06
2.07646e-06
2.09345e-06
2.11529e-06
2.13732e-06
2.15059e-06
2.15406e-06
2.15608e-06
2.16015e-06
2.16548e-06
2.17116e-06
2.17686e-06
2.18255e-06
2.18823e-06
2.19397e-06
2.19973e-06
2.20555e-06
2.21145e-06
2.21742e-06
2.22345e-06
2.22956e-06
2.23578e-06
2.24272e-06
2.07181e-06
2.07518e-06
2.07867e-06
2.0822e-06
2.08577e-06
2.08937e-06
2.09301e-06
2.09664e-06
2.10032e-06
2.10403e-06
2.10775e-06
2.11147e-06
2.1152e-06
2.11892e-06
2.12265e-06
2.12638e-06
2.13011e-06
2.13382e-06
2.13747e-06
2.1411e-06
2.1447e-06
2.14823e-06
2.15175e-06
2.1552e-06
2.15857e-06
2.16182e-06
2.16499e-06
2.16805e-06
2.17098e-06
2.17378e-06
2.17645e-06
2.17894e-06
2.18129e-06
2.18347e-06
2.18552e-06
2.18743e-06
2.18921e-06
2.19081e-06
2.19232e-06
2.1938e-06
2.19525e-06
2.19676e-06
2.19859e-06
2.20087e-06
2.20394e-06
2.20836e-06
2.21542e-06
2.22672e-06
2.24288e-06
2.26227e-06
2.2818e-06
2.30083e-06
2.32332e-06
2.56378e-06
2.5631e-06
2.5687e-06
2.55309e-06
2.46808e-06
2.11988e-06
1.3743e-06
2.19413e-07
1.38462e-06
2.12973e-06
2.47501e-06
2.55879e-06
2.57416e-06
2.56812e-06
2.55355e-06
2.32523e-06
2.29449e-06
2.2656e-06
2.23532e-06
2.20926e-06
2.19103e-06
2.1805e-06
2.17516e-06
2.17245e-06
2.17094e-06
2.17016e-06
2.16969e-06
2.16953e-06
2.16947e-06
2.16932e-06
2.16906e-06
2.16865e-06
2.16798e-06
2.16712e-06
2.16606e-06
2.16482e-06
2.16338e-06
2.16173e-06
2.1599e-06
2.15791e-06
2.15576e-06
2.15344e-06
2.151e-06
2.14845e-06
2.14576e-06
2.14298e-06
2.14011e-06
2.13721e-06
2.13423e-06
2.13119e-06
2.12812e-06
2.12497e-06
2.12178e-06
2.11859e-06
2.11537e-06
2.11216e-06
2.10891e-06
2.10566e-06
2.1024e-06
2.09914e-06
2.0959e-06
2.09269e-06
2.08947e-06
2.08628e-06
2.0831e-06
2.07994e-06
2.07679e-06
2.07366e-06
2.07059e-06
2.06753e-06
2.06449e-06
2.06159e-06
2.05885e-06
2.22446e-06
2.21025e-06
2.20485e-06
2.19946e-06
2.19404e-06
2.18863e-06
2.18322e-06
2.1778e-06
2.17239e-06
2.16705e-06
2.16196e-06
2.15727e-06
2.15311e-06
2.14943e-06
2.14539e-06
2.13968e-06
2.1313e-06
2.12047e-06
2.10846e-06
2.09654e-06
2.08552e-06
2.07569e-06
2.06695e-06
2.05915e-06
2.05211e-06
2.04567e-06
2.03958e-06
2.03375e-06
2.02806e-06
2.0225e-06
2.01699e-06
2.01144e-06
2.0059e-06
2.00033e-06
1.99473e-06
1.98913e-06
1.98345e-06
1.97774e-06
1.972e-06
1.96627e-06
1.96052e-06
1.95478e-06
1.94905e-06
1.94335e-06
1.93769e-06
1.93209e-06
1.92652e-06
1.92101e-06
1.91561e-06
1.91028e-06
1.90504e-06
1.89997e-06
1.89506e-06
1.89025e-06
1.88545e-06
1.88071e-06
1.87632e-06
1.87261e-06
1.86953e-06
1.86621e-06
1.86195e-06
1.8565e-06
1.85185e-06
1.85046e-06
1.85355e-06
1.86117e-06
1.86767e-06
1.86798e-06
1.86169e-06
1.84532e-06
1.8261e-06
1.82138e-06
1.83945e-06
1.88301e-06
1.96501e-06
2.09871e-06
2.09016e-06
1.6838e-06
9.54362e-07
9.8916e-07
8.08078e-07
1.02966e-06
1.4568e-06
1.29429e-06
3.87259e-06
4.34872e-06
3.27992e-06
2.56538e-06
3.01612e-06
2.98609e-06
5.33367e-06
6.50384e-06
6.51142e-06
6.14434e-06
5.91115e-06
5.7877e-06
5.73957e-06
5.75704e-06
5.81362e-06
5.86028e-06
5.87744e-06
5.875e-06
5.85527e-06
5.83312e-06
5.82427e-06
5.82849e-06
5.84193e-06
5.85741e-06
5.86927e-06
5.87838e-06
5.88684e-06
5.89714e-06
5.90947e-06
5.92274e-06
5.93616e-06
5.94961e-06
5.96338e-06
5.97767e-06
5.99244e-06
6.00747e-06
6.0228e-06
6.03834e-06
6.05413e-06
6.07006e-06
6.08614e-06
6.10229e-06
6.1185e-06
6.13472e-06
6.15079e-06
6.16682e-06
6.1826e-06
6.1982e-06
6.21335e-06
6.22807e-06
6.24229e-06
6.25589e-06
6.26872e-06
6.28075e-06
6.2917e-06
6.3016e-06
6.31045e-06
6.31811e-06
6.32488e-06
6.33048e-06
6.33581e-06
6.34106e-06
6.34758e-06
6.3564e-06
6.36964e-06
6.39014e-06
6.42241e-06
6.47272e-06
6.548e-06
6.65024e-06
6.76165e-06
6.84124e-06
6.87304e-06
6.88589e-06
6.89989e-06
6.91731e-06
6.93641e-06
6.95599e-06
6.97571e-06
6.99549e-06
7.01539e-06
7.03538e-06
7.05554e-06
7.07594e-06
7.09655e-06
7.11743e-06
7.13858e-06
7.16e-06
7.18302e-06
6.26236e-06
6.26944e-06
6.27686e-06
6.28442e-06
6.29206e-06
6.29971e-06
6.30737e-06
6.315e-06
6.3227e-06
6.33038e-06
6.33805e-06
6.3457e-06
6.35334e-06
6.36086e-06
6.36838e-06
6.37584e-06
6.38328e-06
6.39061e-06
6.39773e-06
6.40482e-06
6.41175e-06
6.41851e-06
6.42522e-06
6.43175e-06
6.43807e-06
6.44408e-06
6.44991e-06
6.45548e-06
6.46073e-06
6.46568e-06
6.47033e-06
6.47452e-06
6.47839e-06
6.48192e-06
6.48511e-06
6.48794e-06
6.49046e-06
6.4925e-06
6.49434e-06
6.49603e-06
6.49752e-06
6.49903e-06
6.50116e-06
6.50404e-06
6.50852e-06
6.5157e-06
6.5289e-06
6.55315e-06
6.59265e-06
6.64684e-06
6.71e-06
6.78254e-06
6.8804e-06
7.98796e-06
7.97424e-06
7.96126e-06
7.86742e-06
7.53349e-06
6.36796e-06
4.11909e-06
6.87022e-07
4.14823e-06
6.39698e-06
7.55426e-06
7.88475e-06
7.9779e-06
7.98972e-06
7.93347e-06
6.88732e-06
6.76064e-06
6.66145e-06
6.57354e-06
6.50833e-06
6.46862e-06
6.44931e-06
6.44188e-06
6.43958e-06
6.43922e-06
6.4401e-06
6.44132e-06
6.44312e-06
6.44497e-06
6.44643e-06
6.44752e-06
6.44821e-06
6.44821e-06
6.44772e-06
6.44671e-06
6.44531e-06
6.44339e-06
6.44104e-06
6.43822e-06
6.43502e-06
6.43143e-06
6.42745e-06
6.42316e-06
6.41865e-06
6.4138e-06
6.4087e-06
6.40338e-06
6.39799e-06
6.39237e-06
6.38657e-06
6.38069e-06
6.37457e-06
6.36832e-06
6.36202e-06
6.35565e-06
6.34924e-06
6.3427e-06
6.33611e-06
6.32948e-06
6.32282e-06
6.31613e-06
6.3095e-06
6.30282e-06
6.29613e-06
6.28943e-06
6.28275e-06
6.27612e-06
6.26945e-06
6.26286e-06
6.25635e-06
6.24989e-06
6.24387e-06
6.23815e-06
7.1089e-06
7.06919e-06
7.04998e-06
7.03129e-06
7.01253e-06
6.99383e-06
6.97516e-06
6.9566e-06
6.93817e-06
6.92017e-06
6.90295e-06
6.88667e-06
6.871e-06
6.85431e-06
6.83254e-06
6.80069e-06
6.75656e-06
6.70328e-06
6.64732e-06
6.59433e-06
6.54735e-06
6.50716e-06
6.4731e-06
6.44419e-06
6.41922e-06
6.39731e-06
6.3773e-06
6.35878e-06
6.34113e-06
6.32409e-06
6.30734e-06
6.29061e-06
6.27392e-06
6.25713e-06
6.2402e-06
6.22318e-06
6.20593e-06
6.18859e-06
6.17108e-06
6.15357e-06
6.13598e-06
6.11834e-06
6.10074e-06
6.08321e-06
6.06576e-06
6.04845e-06
6.03129e-06
6.0143e-06
5.9976e-06
5.98112e-06
5.96492e-06
5.9492e-06
5.93399e-06
5.91911e-06
5.90431e-06
5.88967e-06
5.87603e-06
5.86444e-06
5.85475e-06
5.8445e-06
5.83162e-06
5.8153e-06
5.80108e-06
5.79605e-06
5.80401e-06
5.82512e-06
5.84392e-06
5.84587e-06
5.82885e-06
5.78324e-06
5.72818e-06
5.71166e-06
5.75989e-06
5.88256e-06
6.11299e-06
6.4758e-06
6.47163e-06
5.32685e-06
2.98079e-06
3.02371e-06
2.5423e-06
3.23357e-06
4.39836e-06
3.93664e-06
6.73927e-06
7.3178e-06
5.80933e-06
4.57671e-06
5.1592e-06
5.44255e-06
9.59511e-06
1.13131e-05
1.12793e-05
1.07689e-05
1.04265e-05
1.02452e-05
1.01799e-05
1.02132e-05
1.02994e-05
1.03676e-05
1.03913e-05
1.03849e-05
1.03543e-05
1.03221e-05
1.03108e-05
1.03198e-05
1.03426e-05
1.03679e-05
1.03878e-05
1.04036e-05
1.04188e-05
1.04371e-05
1.04586e-05
1.04815e-05
1.05048e-05
1.05282e-05
1.05523e-05
1.05772e-05
1.06029e-05
1.06291e-05
1.06558e-05
1.06829e-05
1.07103e-05
1.07381e-05
1.0766e-05
1.0794e-05
1.08221e-05
1.08501e-05
1.08778e-05
1.09054e-05
1.09323e-05
1.09587e-05
1.09843e-05
1.10089e-05
1.10323e-05
1.10543e-05
1.10746e-05
1.10931e-05
1.11094e-05
1.11233e-05
1.11348e-05
1.11437e-05
1.11508e-05
1.11554e-05
1.11594e-05
1.11634e-05
1.11703e-05
1.11826e-05
1.12048e-05
1.12434e-05
1.13084e-05
1.14136e-05
1.15745e-05
1.17954e-05
1.20383e-05
1.22161e-05
1.22914e-05
1.23204e-05
1.23467e-05
1.23781e-05
1.24125e-05
1.2448e-05
1.24839e-05
1.25198e-05
1.25559e-05
1.25922e-05
1.26287e-05
1.26657e-05
1.27029e-05
1.27407e-05
1.27789e-05
1.28175e-05
1.28573e-05
1.07742e-05
1.07833e-05
1.0793e-05
1.08031e-05
1.08132e-05
1.08233e-05
1.08334e-05
1.08435e-05
1.08537e-05
1.08638e-05
1.0874e-05
1.08841e-05
1.08942e-05
1.09042e-05
1.09141e-05
1.0924e-05
1.09339e-05
1.09435e-05
1.0953e-05
1.09624e-05
1.09716e-05
1.09807e-05
1.09897e-05
1.09984e-05
1.10069e-05
1.1015e-05
1.10229e-05
1.10304e-05
1.10375e-05
1.10442e-05
1.10504e-05
1.10561e-05
1.10613e-05
1.1066e-05
1.10703e-05
1.10739e-05
1.10772e-05
1.10797e-05
1.10821e-05
1.10842e-05
1.10862e-05
1.10885e-05
1.10918e-05
1.10966e-05
1.11046e-05
1.11177e-05
1.11419e-05
1.11857e-05
1.12554e-05
1.13506e-05
1.14654e-05
1.16081e-05
1.18182e-05
1.40311e-05
1.39592e-05
1.38443e-05
1.35429e-05
1.27624e-05
1.05512e-05
6.83082e-06
1.21674e-06
6.87541e-06
1.05978e-05
1.27965e-05
1.3572e-05
1.38724e-05
1.39856e-05
1.39266e-05
1.18309e-05
1.15677e-05
1.13808e-05
1.12268e-05
1.11131e-05
1.10425e-05
1.10076e-05
1.09942e-05
1.09903e-05
1.09899e-05
1.0992e-05
1.09948e-05
1.09984e-05
1.10023e-05
1.10058e-05
1.10085e-05
1.10108e-05
1.10119e-05
1.10123e-05
1.10119e-05
1.10108e-05
1.1009e-05
1.10065e-05
1.10034e-05
1.09998e-05
1.09955e-05
1.09907e-05
1.09854e-05
1.09797e-05
1.09737e-05
1.09673e-05
1.09606e-05
1.09538e-05
1.09468e-05
1.09394e-05
1.09319e-05
1.09242e-05
1.09162e-05
1.09082e-05
1.09001e-05
1.08919e-05
1.08835e-05
1.0875e-05
1.08665e-05
1.0858e-05
1.08494e-05
1.08408e-05
1.08323e-05
1.08237e-05
1.0815e-05
1.08064e-05
1.07978e-05
1.07892e-05
1.07807e-05
1.07723e-05
1.0764e-05
1.07567e-05
1.07491e-05
1.27094e-05
1.26486e-05
1.26136e-05
1.25798e-05
1.25458e-05
1.25118e-05
1.24779e-05
1.24443e-05
1.2411e-05
1.23784e-05
1.23471e-05
1.2317e-05
1.22869e-05
1.22528e-05
1.22062e-05
1.21372e-05
1.20422e-05
1.19285e-05
1.18102e-05
1.16991e-05
1.16017e-05
1.15196e-05
1.14513e-05
1.13946e-05
1.13468e-05
1.13058e-05
1.12693e-05
1.12363e-05
1.12053e-05
1.11757e-05
1.11467e-05
1.1118e-05
1.10894e-05
1.10606e-05
1.10316e-05
1.10022e-05
1.09725e-05
1.09427e-05
1.09124e-05
1.08821e-05
1.08516e-05
1.0821e-05
1.07904e-05
1.07599e-05
1.07295e-05
1.06994e-05
1.06695e-05
1.06399e-05
1.06108e-05
1.05821e-05
1.05539e-05
1.05264e-05
1.04999e-05
1.0474e-05
1.04483e-05
1.04229e-05
1.03991e-05
1.03786e-05
1.03612e-05
1.03434e-05
1.03217e-05
1.02948e-05
1.02705e-05
1.02601e-05
1.02698e-05
1.03002e-05
1.03292e-05
1.03346e-05
1.03108e-05
1.02441e-05
1.01601e-05
1.01281e-05
1.01934e-05
1.03735e-05
1.07114e-05
1.12148e-05
1.12524e-05
9.5752e-06
5.43889e-06
5.17324e-06
4.53997e-06
5.76121e-06
7.40408e-06
6.71869e-06
1.01486e-05
1.03194e-05
8.59934e-06
6.90293e-06
7.40812e-06
8.80106e-06
1.45377e-05
1.65112e-05
1.64137e-05
1.58812e-05
1.54913e-05
1.52861e-05
1.52225e-05
1.52736e-05
1.5376e-05
1.54523e-05
1.54762e-05
1.54639e-05
1.54266e-05
1.53912e-05
1.53821e-05
1.53982e-05
1.54301e-05
1.54643e-05
1.54918e-05
1.55149e-05
1.5538e-05
1.55653e-05
1.55967e-05
1.563e-05
1.56639e-05
1.56982e-05
1.57334e-05
1.577e-05
1.58077e-05
1.5846e-05
1.58851e-05
1.59248e-05
1.59651e-05
1.60058e-05
1.60467e-05
1.60878e-05
1.61288e-05
1.61697e-05
1.62101e-05
1.62502e-05
1.62892e-05
1.63274e-05
1.6364e-05
1.63991e-05
1.64322e-05
1.6463e-05
1.6491e-05
1.65158e-05
1.6537e-05
1.65543e-05
1.65677e-05
1.65767e-05
1.65825e-05
1.65846e-05
1.65858e-05
1.65869e-05
1.65931e-05
1.66085e-05
1.6641e-05
1.67011e-05
1.68055e-05
1.69771e-05
1.72404e-05
1.76015e-05
1.79986e-05
1.82947e-05
1.84281e-05
1.84808e-05
1.85225e-05
1.85696e-05
1.86208e-05
1.86737e-05
1.87271e-05
1.87808e-05
1.88346e-05
1.88887e-05
1.89432e-05
1.89982e-05
1.90537e-05
1.91098e-05
1.91666e-05
1.92239e-05
1.928e-05
1.57738e-05
1.57867e-05
1.58009e-05
1.58155e-05
1.58304e-05
1.58455e-05
1.58608e-05
1.58762e-05
1.58919e-05
1.59078e-05
1.59238e-05
1.59401e-05
1.59565e-05
1.5973e-05
1.59897e-05
1.60065e-05
1.60236e-05
1.60406e-05
1.60576e-05
1.60748e-05
1.60921e-05
1.61093e-05
1.61267e-05
1.6144e-05
1.61611e-05
1.6178e-05
1.61946e-05
1.62108e-05
1.62266e-05
1.6242e-05
1.62567e-05
1.62708e-05
1.62843e-05
1.62971e-05
1.63092e-05
1.63208e-05
1.63317e-05
1.63421e-05
1.63525e-05
1.6363e-05
1.63743e-05
1.6387e-05
1.64027e-05
1.6423e-05
1.64509e-05
1.64914e-05
1.65542e-05
1.66475e-05
1.67695e-05
1.69087e-05
1.70642e-05
1.72663e-05
1.75991e-05
2.07227e-05
2.05093e-05
2.01558e-05
1.94522e-05
1.79815e-05
1.4511e-05
9.41782e-06
1.81833e-06
9.47379e-06
1.45726e-05
1.80272e-05
1.94926e-05
2.0195e-05
2.05465e-05
2.05904e-05
1.76171e-05
1.72112e-05
1.69498e-05
1.67341e-05
1.65446e-05
1.63976e-05
1.63044e-05
1.62532e-05
1.62262e-05
1.62111e-05
1.6203e-05
1.61985e-05
1.61968e-05
1.61965e-05
1.61965e-05
1.61961e-05
1.61951e-05
1.6193e-05
1.61897e-05
1.61854e-05
1.61802e-05
1.61738e-05
1.61664e-05
1.61583e-05
1.61492e-05
1.61394e-05
1.61289e-05
1.61179e-05
1.61063e-05
1.60943e-05
1.60819e-05
1.60693e-05
1.60567e-05
1.60438e-05
1.60308e-05
1.60178e-05
1.60046e-05
1.59912e-05
1.59779e-05
1.59647e-05
1.59514e-05
1.59382e-05
1.59251e-05
1.59119e-05
1.58989e-05
1.5886e-05
1.58732e-05
1.58606e-05
1.58481e-05
1.58357e-05
1.58234e-05
1.58112e-05
1.57992e-05
1.57873e-05
1.57757e-05
1.57644e-05
1.57545e-05
1.5743e-05
1.90327e-05
1.8964e-05
1.89118e-05
1.88613e-05
1.88106e-05
1.87599e-05
1.87094e-05
1.86592e-05
1.86096e-05
1.8561e-05
1.85137e-05
1.84674e-05
1.84195e-05
1.83628e-05
1.82841e-05
1.8169e-05
1.8013e-05
1.78286e-05
1.76376e-05
1.74588e-05
1.73025e-05
1.71713e-05
1.70631e-05
1.69739e-05
1.68996e-05
1.68367e-05
1.67815e-05
1.67321e-05
1.66862e-05
1.66426e-05
1.66002e-05
1.65584e-05
1.65167e-05
1.64748e-05
1.64325e-05
1.63898e-05
1.63466e-05
1.6303e-05
1.62588e-05
1.62144e-05
1.61698e-05
1.6125e-05
1.60802e-05
1.60355e-05
1.5991e-05
1.59468e-05
1.59029e-05
1.58596e-05
1.58169e-05
1.57749e-05
1.57336e-05
1.56933e-05
1.56544e-05
1.56165e-05
1.55791e-05
1.55422e-05
1.55074e-05
1.54767e-05
1.54504e-05
1.54243e-05
1.5394e-05
1.53574e-05
1.53231e-05
1.53048e-05
1.53116e-05
1.53443e-05
1.53791e-05
1.53896e-05
1.53653e-05
1.52905e-05
1.51904e-05
1.51403e-05
1.52039e-05
1.54074e-05
1.5791e-05
1.63138e-05
1.64138e-05
1.44936e-05
8.7999e-06
7.43141e-06
6.86518e-06
8.60981e-06
1.0445e-05
1.01558e-05
1.47386e-05
1.33847e-05
1.15251e-05
9.5368e-06
9.80258e-06
1.32339e-05
2.01606e-05
2.2096e-05
2.19469e-05
2.15318e-05
2.11704e-05
2.09834e-05
2.09421e-05
2.10092e-05
2.11091e-05
2.11764e-05
2.11929e-05
2.11739e-05
2.11363e-05
2.1107e-05
2.11059e-05
2.11316e-05
2.1172e-05
2.12132e-05
2.12479e-05
2.12789e-05
2.13113e-05
2.13487e-05
2.13907e-05
2.14351e-05
2.14802e-05
2.15262e-05
2.15737e-05
2.16229e-05
2.16737e-05
2.17254e-05
2.17781e-05
2.18317e-05
2.18862e-05
2.19412e-05
2.19966e-05
2.20521e-05
2.21077e-05
2.2163e-05
2.22178e-05
2.2272e-05
2.23249e-05
2.23765e-05
2.24261e-05
2.24736e-05
2.25183e-05
2.25599e-05
2.25978e-05
2.26313e-05
2.26598e-05
2.26831e-05
2.27011e-05
2.27132e-05
2.27211e-05
2.2724e-05
2.27257e-05
2.27276e-05
2.27366e-05
2.27584e-05
2.28037e-05
2.28869e-05
2.30305e-05
2.32646e-05
2.36217e-05
2.41093e-05
2.46506e-05
2.5073e-05
2.52849e-05
2.53751e-05
2.54377e-05
2.55024e-05
2.55714e-05
2.5643e-05
2.57154e-05
2.57883e-05
2.58614e-05
2.59349e-05
2.60089e-05
2.60835e-05
2.61588e-05
2.62349e-05
2.63118e-05
2.63892e-05
2.64599e-05
2.16149e-05
2.16396e-05
2.16662e-05
2.16935e-05
2.17217e-05
2.17505e-05
2.17799e-05
2.18101e-05
2.18408e-05
2.18723e-05
2.19045e-05
2.19373e-05
2.19708e-05
2.20049e-05
2.20396e-05
2.20748e-05
2.21107e-05
2.21469e-05
2.21834e-05
2.22204e-05
2.22577e-05
2.22952e-05
2.23329e-05
2.23707e-05
2.24081e-05
2.24452e-05
2.24818e-05
2.25177e-05
2.25528e-05
2.2587e-05
2.26202e-05
2.26521e-05
2.2683e-05
2.27127e-05
2.27413e-05
2.27689e-05
2.27954e-05
2.28214e-05
2.28474e-05
2.28741e-05
2.29026e-05
2.29343e-05
2.29718e-05
2.3018e-05
2.30779e-05
2.31606e-05
2.32797e-05
2.34427e-05
2.36365e-05
2.38352e-05
2.40413e-05
2.43065e-05
2.4752e-05
2.80639e-05
2.75759e-05
2.67851e-05
2.54354e-05
2.30291e-05
1.81271e-05
1.18144e-05
2.50478e-06
1.18774e-05
1.82007e-05
2.3084e-05
2.54856e-05
2.68341e-05
2.76227e-05
2.79433e-05
2.47746e-05
2.4239e-05
2.38922e-05
2.3596e-05
2.33034e-05
2.30506e-05
2.28711e-05
2.27586e-05
2.26901e-05
2.2646e-05
2.26161e-05
2.25945e-05
2.25786e-05
2.25665e-05
2.25559e-05
2.25455e-05
2.25347e-05
2.25226e-05
2.25088e-05
2.24933e-05
2.24764e-05
2.24578e-05
2.24375e-05
2.24158e-05
2.23928e-05
2.23684e-05
2.23429e-05
2.23165e-05
2.22892e-05
2.22613e-05
2.22328e-05
2.22041e-05
2.21753e-05
2.21465e-05
2.21176e-05
2.20888e-05
2.20601e-05
2.20314e-05
2.20031e-05
2.19751e-05
2.19474e-05
2.19201e-05
2.18931e-05
2.18666e-05
2.18405e-05
2.1815e-05
2.17899e-05
2.17653e-05
2.17413e-05
2.17177e-05
2.16945e-05
2.16719e-05
2.16497e-05
2.1628e-05
2.16067e-05
2.15863e-05
2.15676e-05
2.15446e-05
2.6071e-05
2.60229e-05
2.59518e-05
2.58828e-05
2.5814e-05
2.57452e-05
2.56767e-05
2.56086e-05
2.55413e-05
2.54749e-05
2.54096e-05
2.53436e-05
2.52721e-05
2.51843e-05
2.5063e-05
2.48919e-05
2.46693e-05
2.44133e-05
2.4152e-05
2.39093e-05
2.36976e-05
2.35197e-05
2.33726e-05
2.32514e-05
2.31502e-05
2.30643e-05
2.29891e-05
2.29217e-05
2.28591e-05
2.27998e-05
2.27422e-05
2.26854e-05
2.26288e-05
2.25719e-05
2.25146e-05
2.24567e-05
2.23982e-05
2.23391e-05
2.22793e-05
2.22193e-05
2.21589e-05
2.20983e-05
2.20378e-05
2.19774e-05
2.19173e-05
2.18575e-05
2.17984e-05
2.17399e-05
2.16825e-05
2.16258e-05
2.15702e-05
2.15161e-05
2.14637e-05
2.14128e-05
2.13628e-05
2.13137e-05
2.12669e-05
2.1225e-05
2.11882e-05
2.1153e-05
2.11144e-05
2.10696e-05
2.10258e-05
2.09969e-05
2.09946e-05
2.10204e-05
2.10544e-05
2.10707e-05
2.10532e-05
2.09868e-05
2.08888e-05
2.08219e-05
2.08626e-05
2.10469e-05
2.14e-05
2.18025e-05
2.19516e-05
2.00795e-05
1.32287e-05
9.84152e-06
9.52484e-06
1.16221e-05
1.35477e-05
1.47858e-05
2.05827e-05
1.66092e-05
1.45441e-05
1.23861e-05
1.24834e-05
1.89359e-05
2.64165e-05
2.80854e-05
2.79398e-05
2.77881e-05
2.75396e-05
2.74168e-05
2.74164e-05
2.74915e-05
2.75655e-05
2.76051e-05
2.76064e-05
2.75818e-05
2.75531e-05
2.75407e-05
2.75546e-05
2.7592e-05
2.76394e-05
2.76856e-05
2.77267e-05
2.77666e-05
2.78096e-05
2.78584e-05
2.79119e-05
2.79677e-05
2.80249e-05
2.80837e-05
2.81446e-05
2.82077e-05
2.82727e-05
2.83392e-05
2.84071e-05
2.84763e-05
2.85465e-05
2.86176e-05
2.86893e-05
2.87614e-05
2.88336e-05
2.89057e-05
2.89773e-05
2.90482e-05
2.91178e-05
2.91859e-05
2.92518e-05
2.93153e-05
2.93759e-05
2.94328e-05
2.94854e-05
2.95332e-05
2.95754e-05
2.96118e-05
2.96423e-05
2.96663e-05
2.96857e-05
2.96996e-05
2.97125e-05
2.97257e-05
2.97471e-05
2.97831e-05
2.98454e-05
2.99501e-05
3.01219e-05
3.03941e-05
3.08025e-05
3.13595e-05
3.19932e-05
3.2525e-05
3.28302e-05
3.2974e-05
3.30647e-05
3.3149e-05
3.32366e-05
3.33271e-05
3.34192e-05
3.3512e-05
3.36052e-05
3.36989e-05
3.37931e-05
3.38881e-05
3.39839e-05
3.40807e-05
3.41783e-05
3.42763e-05
3.43594e-05
2.87543e-05
2.88003e-05
2.88486e-05
2.88981e-05
2.89488e-05
2.90007e-05
2.90537e-05
2.91077e-05
2.91629e-05
2.92191e-05
2.92764e-05
2.93347e-05
2.9394e-05
2.94542e-05
2.95153e-05
2.95771e-05
2.96396e-05
2.97026e-05
2.97661e-05
2.98299e-05
2.98939e-05
2.9958e-05
3.00223e-05
3.00861e-05
3.01493e-05
3.02116e-05
3.02728e-05
3.03327e-05
3.03911e-05
3.04478e-05
3.05026e-05
3.05554e-05
3.06063e-05
3.06552e-05
3.07022e-05
3.07475e-05
3.07912e-05
3.0834e-05
3.08771e-05
3.09214e-05
3.09687e-05
3.10213e-05
3.10833e-05
3.11594e-05
3.12573e-05
3.13918e-05
3.15837e-05
3.18434e-05
3.21486e-05
3.24559e-05
3.27626e-05
3.31098e-05
3.35453e-05
3.59968e-05
3.50436e-05
3.35646e-05
3.13095e-05
2.77486e-05
2.12801e-05
1.39613e-05
3.29486e-06
1.40268e-05
2.13623e-05
2.78097e-05
3.13676e-05
3.36215e-05
3.50979e-05
3.5919e-05
3.3577e-05
3.30332e-05
3.2554e-05
3.2105e-05
3.16486e-05
3.12503e-05
3.09631e-05
3.07783e-05
3.06625e-05
3.05863e-05
3.05329e-05
3.04934e-05
3.04631e-05
3.04391e-05
3.04181e-05
3.03978e-05
3.03771e-05
3.03547e-05
3.03298e-05
3.03022e-05
3.02723e-05
3.02396e-05
3.02043e-05
3.01666e-05
3.01266e-05
3.00844e-05
3.00402e-05
2.99943e-05
2.99469e-05
2.98982e-05
2.98485e-05
2.9798e-05
2.97473e-05
2.96963e-05
2.9645e-05
2.95937e-05
2.95424e-05
2.94911e-05
2.94401e-05
2.93896e-05
2.93396e-05
2.929e-05
2.9241e-05
2.91928e-05
2.91452e-05
2.90984e-05
2.90525e-05
2.90073e-05
2.8963e-05
2.89195e-05
2.88769e-05
2.88351e-05
2.87941e-05
2.87539e-05
2.87145e-05
2.86762e-05
2.86399e-05
2.85956e-05
3.3781e-05
3.37902e-05
3.36993e-05
3.36108e-05
3.35229e-05
3.34352e-05
3.3348e-05
3.32613e-05
3.31754e-05
3.309e-05
3.30043e-05
3.29145e-05
3.2813e-05
3.26853e-05
3.25126e-05
3.22816e-05
3.19971e-05
3.16834e-05
3.13713e-05
3.10848e-05
3.08355e-05
3.0625e-05
3.04494e-05
3.03026e-05
3.01782e-05
3.0071e-05
2.99758e-05
2.98892e-05
2.98081e-05
2.97306e-05
2.96551e-05
2.95805e-05
2.95062e-05
2.94316e-05
2.93564e-05
2.92806e-05
2.92042e-05
2.91271e-05
2.90494e-05
2.89714e-05
2.88931e-05
2.88147e-05
2.87364e-05
2.86583e-05
2.85807e-05
2.85038e-05
2.84276e-05
2.83525e-05
2.82786e-05
2.8206e-05
2.81348e-05
2.80655e-05
2.79984e-05
2.79334e-05
2.78699e-05
2.78079e-05
2.77484e-05
2.76937e-05
2.76449e-05
2.75995e-05
2.75531e-05
2.7502e-05
2.74499e-05
2.74079e-05
2.73894e-05
2.73971e-05
2.7421e-05
2.74419e-05
2.74384e-05
2.73987e-05
2.73252e-05
2.72488e-05
2.72473e-05
2.73658e-05
2.7603e-05
2.77384e-05
2.78817e-05
2.6281e-05
1.8921e-05
1.25565e-05
1.24156e-05
1.47273e-05
1.67985e-05
2.06721e-05
2.7755e-05
2.03908e-05
1.76534e-05
1.5371e-05
1.63424e-05
2.61645e-05
3.32012e-05
3.45269e-05
3.44837e-05
3.47367e-05
3.46864e-05
3.46702e-05
3.47213e-05
3.4789e-05
3.48116e-05
3.48058e-05
3.47863e-05
3.47603e-05
3.47519e-05
3.47681e-05
3.48037e-05
3.48546e-05
3.49071e-05
3.49557e-05
3.50029e-05
3.50526e-05
3.51081e-05
3.51696e-05
3.52352e-05
3.53033e-05
3.53734e-05
3.54462e-05
3.55219e-05
3.56004e-05
3.56813e-05
3.57643e-05
3.58492e-05
3.59359e-05
3.60241e-05
3.61136e-05
3.62042e-05
3.62954e-05
3.63871e-05
3.6479e-05
3.65707e-05
3.66618e-05
3.6752e-05
3.68409e-05
3.69278e-05
3.70126e-05
3.70946e-05
3.71732e-05
3.72479e-05
3.7318e-05
3.73831e-05
3.74428e-05
3.74972e-05
3.75456e-05
3.75899e-05
3.76295e-05
3.76681e-05
3.77073e-05
3.77541e-05
3.78143e-05
3.78984e-05
3.80209e-05
3.82039e-05
3.84775e-05
3.8876e-05
3.94175e-05
4.00526e-05
4.06299e-05
4.10071e-05
4.12066e-05
4.13294e-05
4.14348e-05
4.15405e-05
4.16493e-05
4.17601e-05
4.1872e-05
4.19844e-05
4.20976e-05
4.22113e-05
4.23259e-05
4.24413e-05
4.25579e-05
4.26754e-05
4.27931e-05
4.28874e-05
3.75605e-05
3.76373e-05
3.77163e-05
3.7797e-05
3.78794e-05
3.79632e-05
3.80485e-05
3.81353e-05
3.82235e-05
3.83133e-05
3.84044e-05
3.84968e-05
3.85905e-05
3.86853e-05
3.8781e-05
3.88777e-05
3.8975e-05
3.90729e-05
3.91711e-05
3.92695e-05
3.93679e-05
3.94663e-05
3.95643e-05
3.96615e-05
3.97574e-05
3.98517e-05
3.9944e-05
4.00341e-05
4.01218e-05
4.02067e-05
4.02885e-05
4.03671e-05
4.04428e-05
4.05154e-05
4.0585e-05
4.06519e-05
4.07165e-05
4.07799e-05
4.08436e-05
4.09093e-05
4.09794e-05
4.1058e-05
4.11507e-05
4.12653e-05
4.14135e-05
4.16183e-05
4.19116e-05
4.2307e-05
4.27555e-05
4.31404e-05
4.33763e-05
4.34572e-05
4.33919e-05
4.43722e-05
4.27207e-05
4.02869e-05
3.68811e-05
3.198e-05
2.38416e-05
1.58036e-05
4.2179e-06
1.5867e-05
2.39287e-05
3.20439e-05
3.69445e-05
4.0349e-05
4.27793e-05
4.43427e-05
4.34431e-05
4.34377e-05
4.32095e-05
4.27092e-05
4.20359e-05
4.14265e-05
4.099e-05
4.07101e-05
4.05346e-05
4.04191e-05
4.03383e-05
4.02784e-05
4.02327e-05
4.01964e-05
4.01646e-05
4.01341e-05
4.01029e-05
4.00691e-05
4.00316e-05
3.99901e-05
3.99448e-05
3.98955e-05
3.98419e-05
3.97846e-05
3.97237e-05
3.96592e-05
3.95915e-05
3.95209e-05
3.94479e-05
3.93727e-05
3.92956e-05
3.92171e-05
3.91378e-05
3.90578e-05
3.89772e-05
3.88962e-05
3.88149e-05
3.87335e-05
3.86522e-05
3.85713e-05
3.84909e-05
3.8411e-05
3.83319e-05
3.82535e-05
3.8176e-05
3.80995e-05
3.80241e-05
3.79498e-05
3.78766e-05
3.78045e-05
3.77336e-05
3.76638e-05
3.7595e-05
3.75274e-05
3.74608e-05
3.73955e-05
3.73321e-05
3.72576e-05
4.21045e-05
4.21812e-05
4.20714e-05
4.1964e-05
4.18576e-05
4.17516e-05
4.16462e-05
4.15414e-05
4.14373e-05
4.13327e-05
4.12257e-05
4.11108e-05
4.09778e-05
4.08112e-05
4.05944e-05
4.03208e-05
4.00022e-05
3.96655e-05
3.9339e-05
3.90423e-05
3.87835e-05
3.85622e-05
3.83737e-05
3.82118e-05
3.80706e-05
3.7945e-05
3.78304e-05
3.77236e-05
3.76219e-05
3.75233e-05
3.74265e-05
3.73305e-05
3.72348e-05
3.71387e-05
3.70421e-05
3.6945e-05
3.68472e-05
3.67489e-05
3.66503e-05
3.65513e-05
3.64522e-05
3.63533e-05
3.62547e-05
3.61567e-05
3.60594e-05
3.59631e-05
3.58679e-05
3.57742e-05
3.56821e-05
3.55919e-05
3.55035e-05
3.54175e-05
3.53342e-05
3.52538e-05
3.51759e-05
3.51002e-05
3.5027e-05
3.4958e-05
3.48952e-05
3.48385e-05
3.47845e-05
3.47293e-05
3.46704e-05
3.46134e-05
3.45715e-05
3.45489e-05
3.45512e-05
3.45723e-05
3.45884e-05
3.45928e-05
3.45688e-05
3.44974e-05
3.44416e-05
3.44498e-05
3.44834e-05
3.42079e-05
3.42493e-05
3.29976e-05
2.61309e-05
1.64598e-05
1.54473e-05
1.79215e-05
2.05529e-05
2.7908e-05
3.62903e-05
2.58336e-05
2.09145e-05
1.84346e-05
2.1548e-05
3.47926e-05
4.03948e-05
4.1504e-05
4.17054e-05
4.24894e-05
4.27076e-05
4.28234e-05
4.29206e-05
4.29576e-05
4.29058e-05
4.28427e-05
4.28018e-05
4.27835e-05
4.28085e-05
4.28642e-05
4.29268e-05
4.29915e-05
4.30467e-05
4.3096e-05
4.31493e-05
4.32104e-05
4.32803e-05
4.33559e-05
4.34345e-05
4.35157e-05
4.36001e-05
4.36884e-05
4.37806e-05
4.38763e-05
4.39751e-05
4.40767e-05
4.41808e-05
4.42876e-05
4.43964e-05
4.45071e-05
4.46194e-05
4.47329e-05
4.48475e-05
4.49627e-05
4.50783e-05
4.51936e-05
4.53087e-05
4.54228e-05
4.55359e-05
4.56472e-05
4.57564e-05
4.58632e-05
4.59669e-05
4.60671e-05
4.61634e-05
4.62556e-05
4.63435e-05
4.64271e-05
4.65075e-05
4.65843e-05
4.66604e-05
4.67371e-05
4.68192e-05
4.69113e-05
4.70212e-05
4.71592e-05
4.7342e-05
4.7592e-05
4.79362e-05
4.83931e-05
4.8937e-05
4.9462e-05
4.98437e-05
5.00714e-05
5.02201e-05
5.03461e-05
5.047e-05
5.05965e-05
5.07249e-05
5.08547e-05
5.09851e-05
5.11165e-05
5.12485e-05
5.13816e-05
5.15156e-05
5.16508e-05
5.17871e-05
5.19234e-05
5.20328e-05
4.80239e-05
4.81396e-05
4.82572e-05
4.83767e-05
4.84982e-05
4.86216e-05
4.87468e-05
4.8874e-05
4.9003e-05
4.91338e-05
4.92663e-05
4.94005e-05
4.95362e-05
4.96731e-05
4.98112e-05
4.99504e-05
5.00903e-05
5.02307e-05
5.03713e-05
5.05121e-05
5.06528e-05
5.07931e-05
5.09327e-05
5.10709e-05
5.12073e-05
5.13415e-05
5.14731e-05
5.16019e-05
5.17274e-05
5.18494e-05
5.19676e-05
5.2082e-05
5.21927e-05
5.22997e-05
5.2403e-05
5.25031e-05
5.26006e-05
5.26968e-05
5.27933e-05
5.28924e-05
5.2997e-05
5.31114e-05
5.32416e-05
5.33959e-05
5.35854e-05
5.38304e-05
5.41474e-05
5.45106e-05
5.48137e-05
5.49103e-05
5.47245e-05
5.42518e-05
5.3456e-05
5.2948e-05
5.03629e-05
4.67254e-05
4.19469e-05
3.55589e-05
2.5676e-05
1.72959e-05
5.315e-06
1.73531e-05
2.57642e-05
3.56218e-05
4.2013e-05
4.67899e-05
5.04223e-05
5.29545e-05
5.35252e-05
5.4319e-05
5.47419e-05
5.47168e-05
5.42807e-05
5.36933e-05
5.31807e-05
5.28134e-05
5.25664e-05
5.23954e-05
5.22689e-05
5.21694e-05
5.20876e-05
5.20182e-05
5.19552e-05
5.18947e-05
5.18339e-05
5.17707e-05
5.17035e-05
5.16316e-05
5.15552e-05
5.14742e-05
5.13881e-05
5.12975e-05
5.12027e-05
5.11036e-05
5.10005e-05
5.08939e-05
5.07841e-05
5.06716e-05
5.05566e-05
5.04399e-05
5.03218e-05
5.02028e-05
5.00831e-05
4.99628e-05
4.98421e-05
4.97213e-05
4.96006e-05
4.94804e-05
4.93607e-05
4.92417e-05
4.91237e-05
4.90067e-05
4.88908e-05
4.87762e-05
4.86629e-05
4.85511e-05
4.84408e-05
4.83319e-05
4.82245e-05
4.81186e-05
4.80141e-05
4.7911e-05
4.78093e-05
4.77088e-05
4.76099e-05
4.7501e-05
5.10982e-05
5.11853e-05
5.10587e-05
5.09336e-05
5.08098e-05
5.06865e-05
5.05639e-05
5.04416e-05
5.03198e-05
5.01968e-05
5.00704e-05
4.99345e-05
4.97794e-05
4.95917e-05
4.93601e-05
4.90836e-05
4.87761e-05
4.84607e-05
4.8159e-05
4.78839e-05
4.76398e-05
4.74252e-05
4.72358e-05
4.70664e-05
4.69126e-05
4.67702e-05
4.66361e-05
4.65075e-05
4.63826e-05
4.62599e-05
4.61383e-05
4.60172e-05
4.58962e-05
4.57748e-05
4.56531e-05
4.55309e-05
4.54083e-05
4.52853e-05
4.51622e-05
4.50391e-05
4.49163e-05
4.47938e-05
4.46721e-05
4.45514e-05
4.44318e-05
4.43136e-05
4.41971e-05
4.40827e-05
4.39703e-05
4.38605e-05
4.37532e-05
4.36488e-05
4.35477e-05
4.34504e-05
4.33569e-05
4.32666e-05
4.31787e-05
4.3094e-05
4.30152e-05
4.29453e-05
4.28836e-05
4.2826e-05
4.27626e-05
4.26898e-05
4.26184e-05
4.25543e-05
4.25216e-05
4.2534e-05
4.25706e-05
4.26312e-05
4.26798e-05
4.26355e-05
4.25282e-05
4.23968e-05
4.21511e-05
4.13326e-05
4.1137e-05
4.01151e-05
3.46947e-05
2.1715e-05
1.85502e-05
2.12618e-05
2.60027e-05
3.65422e-05
4.62144e-05
3.29048e-05
2.45055e-05
2.17009e-05
2.8311e-05
4.38501e-05
4.79014e-05
4.91366e-05
4.97786e-05
5.11832e-05
5.1687e-05
5.19177e-05
5.20279e-05
5.20053e-05
5.18675e-05
5.17497e-05
5.16975e-05
5.17021e-05
5.17735e-05
5.1875e-05
5.19656e-05
5.20421e-05
5.20978e-05
5.21474e-05
5.22082e-05
5.22829e-05
5.2369e-05
5.246e-05
5.25529e-05
5.26484e-05
5.27485e-05
5.28542e-05
5.29649e-05
5.30799e-05
5.31987e-05
5.33213e-05
5.34471e-05
5.35767e-05
5.37088e-05
5.38436e-05
5.39808e-05
5.41198e-05
5.42604e-05
5.44023e-05
5.45453e-05
5.46885e-05
5.48322e-05
5.49754e-05
5.51185e-05
5.52603e-05
5.54011e-05
5.55402e-05
5.56773e-05
5.5812e-05
5.5944e-05