/*--------------------------------*- C++ -*----------------------------------*\
| =========                 |                                                 |
| \\      /  F ield         | OpenFOAM: The Open Source CFD Toolbox           |
|  \\    /   O peration     | Version:  2412                                  |
|   \\  /    A nd           | Website:  www.openfoam.com                      |
|    \\/     M anipulation  |                                                 |
\*---------------------------------------------------------------------------*/
FoamFile
{
    version     2.0;
    format      ascii;
    arch        "LSB;label=32;scalar=64";
    class       volScalarField;
    location    "100";
    object      nuTilda;
}
// * * * * * * * * * * * * * * * * * * * * * * * * * * * * * * * * * * * * * //

dimensions      [0 2 -1 0 0 0 0];

internalField   nonuniform List<scalar> 
32591
(
2.72405e-06
3.12634e-06
2.63937e-06
1.79269e-06
1.64563e-06
2.04824e-06
2.52751e-06
4.33055e-06
4.70187e-06
4.7348e-06
4.59314e-06
4.49564e-06
4.44159e-06
4.42718e-06
4.44821e-06
4.4817e-06
4.50203e-06
4.5087e-06
4.50712e-06
4.50074e-06
4.5e-06
4.51185e-06
4.51012e-06
3.05196e-06
3.05759e-06
3.06192e-06
3.06587e-06
3.07066e-06
3.07628e-06
3.08226e-06
3.08815e-06
3.09403e-06
3.10003e-06
3.10617e-06
3.11239e-06
3.11866e-06
3.12494e-06
3.13125e-06
3.13757e-06
3.14387e-06
3.15013e-06
3.15634e-06
3.16253e-06
3.16867e-06
3.17471e-06
3.18066e-06
3.18653e-06
3.19237e-06
3.19813e-06
3.20375e-06
3.20927e-06
3.21469e-06
3.21996e-06
3.22513e-06
3.23019e-06
3.2351e-06
3.23989e-06
3.24457e-06
3.24909e-06
3.25349e-06
3.25778e-06
3.26197e-06
3.26602e-06
3.26993e-06
3.27373e-06
3.27743e-06
3.281e-06
3.28447e-06
3.28785e-06
3.29111e-06
3.29427e-06
3.29725e-06
3.29959e-06
5.50127e-06
3.30525e-06
5.54512e-06
5.56531e-06
5.58552e-06
5.60594e-06
5.62661e-06
5.64748e-06
5.66862e-06
5.68998e-06
5.71165e-06
5.73369e-06
5.75604e-06
5.77875e-06
5.80179e-06
5.82524e-06
5.84914e-06
5.8734e-06
5.89805e-06
5.92315e-06
5.94868e-06
5.97461e-06
6.00093e-06
6.0276e-06
6.05464e-06
6.08208e-06
6.10988e-06
6.13803e-06
6.16649e-06
6.19522e-06
6.22418e-06
6.25339e-06
6.28284e-06
6.31252e-06
6.34236e-06
6.37233e-06
6.40235e-06
6.43233e-06
6.46207e-06
6.49147e-06
6.5205e-06
6.54904e-06
6.57701e-06
6.60433e-06
6.6308e-06
6.6564e-06
6.68109e-06
6.70491e-06
6.72001e-06
3.37519e-06
3.37604e-06
3.37693e-06
3.37791e-06
3.37896e-06
3.3801e-06
3.38136e-06
3.38285e-06
3.38445e-06
3.38661e-06
6.94012e-06
6.97741e-06
7.02338e-06
3.40521e-06
3.41449e-06
3.42498e-06
3.43506e-06
3.44587e-06
3.46509e-06
3.50781e-06
3.58732e-06
6.58257e-06
3.88464e-06
5.3076e-06
5.02936e-06
4.21305e-06
2.6229e-06
4.8096e-07
2.66341e-06
4.24305e-06
5.05075e-06
5.32464e-06
3.88123e-06
3.68234e-06
6.80584e-06
7.06445e-06
3.46915e-06
3.44446e-06
3.43277e-06
3.41982e-06
3.40645e-06
3.39477e-06
6.86115e-06
6.81485e-06
6.77574e-06
3.37902e-06
3.37448e-06
3.37336e-06
3.37245e-06
3.37175e-06
3.37122e-06
3.37084e-06
3.37052e-06
3.3702e-06
3.36988e-06
6.59694e-06
6.59261e-06
6.57569e-06
6.55774e-06
6.53874e-06
6.5187e-06
6.49768e-06
6.47587e-06
6.45331e-06
6.43007e-06
6.40628e-06
6.38194e-06
6.35719e-06
6.3322e-06
6.30705e-06
6.28181e-06
6.25652e-06
6.23126e-06
6.20609e-06
6.18098e-06
6.15594e-06
6.13097e-06
6.10618e-06
6.0816e-06
6.05724e-06
6.0332e-06
6.00948e-06
5.98611e-06
5.96312e-06
5.94048e-06
5.91823e-06
5.89639e-06
5.8749e-06
5.85367e-06
5.83278e-06
5.81217e-06
5.79176e-06
5.77155e-06
5.75149e-06
5.73164e-06
5.71191e-06
5.69225e-06
5.67268e-06
5.65315e-06
5.6337e-06
3.32018e-06
3.31657e-06
3.31399e-06
3.31124e-06
3.30841e-06
3.30564e-06
3.30276e-06
3.29978e-06
3.29668e-06
3.29346e-06
3.29015e-06
3.28673e-06
3.28319e-06
3.27955e-06
3.27579e-06
3.27188e-06
3.26784e-06
3.2637e-06
3.25944e-06
3.25506e-06
3.25053e-06
3.24586e-06
3.24109e-06
3.23615e-06
3.23108e-06
3.22592e-06
3.22059e-06
3.21516e-06
3.20961e-06
3.20391e-06
3.19811e-06
3.19219e-06
3.18624e-06
3.1802e-06
3.17406e-06
3.16784e-06
3.16158e-06
3.15524e-06
3.14884e-06
3.14241e-06
3.13595e-06
3.1295e-06
3.12303e-06
3.1166e-06
3.11021e-06
3.10394e-06
3.09776e-06
3.09155e-06
3.08525e-06
3.07926e-06
3.07409e-06
3.06972e-06
3.06495e-06
3.05879e-06
3.05109e-06
3.04532e-06
3.04447e-06
3.05048e-06
3.06006e-06
3.063e-06
3.05598e-06
3.03756e-06
3.0092e-06
2.99578e-06
3.01299e-06
3.06442e-06
3.143e-06
3.36529e-06
3.63325e-06
4.33023e-06
2.64246e-06
2.02022e-06
1.85938e-06
2.01136e-06
2.57032e-06
3.04864e-06
2.72077e-06
8.18198e-06
8.81854e-06
7.79929e-06
5.74323e-06
5.10827e-06
6.08752e-06
9.22337e-06
1.40089e-05
1.4605e-05
1.49645e-05
1.48237e-05
1.4632e-05
1.45428e-05
1.45284e-05
1.457e-05
1.46256e-05
1.46595e-05
1.46702e-05
1.46729e-05
1.46734e-05
1.46867e-05
1.47264e-05
1.4641e-05
8.47896e-06
8.49008e-06
8.50207e-06
8.51501e-06
8.52924e-06
8.54448e-06
8.56031e-06
8.57654e-06
8.59331e-06
8.61067e-06
8.62851e-06
8.64677e-06
8.66547e-06
8.68448e-06
8.70382e-06
8.72346e-06
8.74332e-06
8.76336e-06
8.78356e-06
8.80394e-06
8.82444e-06
8.84497e-06
8.86552e-06
8.88609e-06
8.9067e-06
8.92726e-06
8.94772e-06
8.96815e-06
8.98849e-06
9.00866e-06
9.02874e-06
9.0487e-06
9.06844e-06
9.08807e-06
9.10751e-06
9.12671e-06
9.14575e-06
9.16466e-06
9.18341e-06
9.20195e-06
9.22026e-06
9.23841e-06
9.25641e-06
9.27424e-06
9.29191e-06
9.30947e-06
9.32691e-06
9.3442e-06
9.36139e-06
9.38323e-06
1.75915e-05
9.41728e-06
1.77265e-05
1.77826e-05
1.78389e-05
1.78955e-05
1.79527e-05
1.80104e-05
1.80687e-05
1.81275e-05
1.8187e-05
1.82474e-05
1.83085e-05
1.83705e-05
1.84332e-05
1.8497e-05
1.85618e-05
1.86276e-05
1.86942e-05
1.8762e-05
1.88307e-05
1.89004e-05
1.8971e-05
1.90425e-05
1.91149e-05
1.91882e-05
1.92624e-05
1.93373e-05
1.9413e-05
1.94893e-05
1.95663e-05
1.96437e-05
1.97217e-05
1.98002e-05
1.9879e-05
1.99582e-05
2.00375e-05
2.01166e-05
2.0195e-05
2.02725e-05
2.03489e-05
2.04241e-05
2.04978e-05
2.05696e-05
2.06393e-05
2.07067e-05
2.07716e-05
2.08343e-05
2.08581e-05
1.03878e-05
1.04032e-05
1.04181e-05
1.04324e-05
1.04461e-05
1.04593e-05
1.04723e-05
1.04855e-05
1.04988e-05
1.05212e-05
2.14478e-05
2.15427e-05
2.1633e-05
1.06557e-05
1.07246e-05
1.07786e-05
1.07852e-05
1.07342e-05
1.06278e-05
1.04686e-05
1.03815e-05
1.99355e-05
1.06977e-05
1.55682e-05
1.43338e-05
1.16301e-05
7.18621e-06
1.49153e-06
7.28998e-06
1.17131e-05
1.43993e-05
1.56214e-05
1.06853e-05
1.03746e-05
2.06739e-05
2.1464e-05
1.06658e-05
1.0751e-05
1.07932e-05
1.07576e-05
1.06612e-05
1.05632e-05
2.12226e-05
2.11264e-05
2.10247e-05
1.04077e-05
1.03828e-05
1.03691e-05
1.03571e-05
1.03465e-05
1.03367e-05
1.03271e-05
1.03174e-05
1.03072e-05
1.02964e-05
2.05362e-05
2.05392e-05
2.04944e-05
2.04469e-05
2.03966e-05
2.03435e-05
2.0288e-05
2.02303e-05
2.01706e-05
2.01092e-05
2.00462e-05
1.99818e-05
1.99163e-05
1.98501e-05
1.97834e-05
1.97165e-05
1.96494e-05
1.95824e-05
1.95154e-05
1.94486e-05
1.93819e-05
1.93154e-05
1.92493e-05
1.91836e-05
1.91184e-05
1.9054e-05
1.89903e-05
1.89275e-05
1.88656e-05
1.88046e-05
1.87445e-05
1.86854e-05
1.86271e-05
1.85696e-05
1.85128e-05
1.84566e-05
1.8401e-05
1.83458e-05
1.8291e-05
1.82366e-05
1.81824e-05
1.81284e-05
1.80745e-05
1.80207e-05
1.79669e-05
9.4906e-06
9.46863e-06
9.45136e-06
9.43395e-06
9.41645e-06
9.39979e-06
9.38299e-06
9.36604e-06
9.34891e-06
9.33162e-06
9.3142e-06
9.2966e-06
9.27882e-06
9.26087e-06
9.24274e-06
9.22439e-06
9.20581e-06
9.18706e-06
9.16818e-06
9.14911e-06
9.12979e-06
9.11027e-06
9.09061e-06
9.07071e-06
9.05067e-06
9.03052e-06
9.01015e-06
8.98968e-06
8.96914e-06
8.94846e-06
8.92769e-06
8.90689e-06
8.88609e-06
8.86528e-06
8.84448e-06
8.82375e-06
8.80316e-06
8.78268e-06
8.76232e-06
8.74215e-06
8.72223e-06
8.70258e-06
8.68321e-06
8.66424e-06
8.64565e-06
8.62749e-06
8.6099e-06
8.59283e-06
8.57614e-06
8.56001e-06
8.54483e-06
8.53089e-06
8.51793e-06
8.50526e-06
8.49229e-06
8.47988e-06
8.4699e-06
8.46553e-06
8.46499e-06
8.46457e-06
8.46302e-06
8.45591e-06
8.44565e-06
8.44058e-06
8.44999e-06
8.4801e-06
8.55358e-06
8.90854e-06
9.88317e-06
1.38517e-05
9.53234e-06
6.0441e-06
5.66387e-06
6.26907e-06
7.62161e-06
8.65906e-06
8.20962e-06
1.54267e-05
1.41541e-05
1.26852e-05
1.01929e-05
8.89264e-06
1.0526e-05
1.8502e-05
2.38416e-05
2.44715e-05
2.52579e-05
2.53154e-05
2.51459e-05
2.50877e-05
2.50898e-05
2.5124e-05
2.51629e-05
2.51896e-05
2.52007e-05
2.52163e-05
2.52395e-05
2.52776e-05
2.53412e-05
2.50995e-05
1.56772e-05
1.56955e-05
1.57183e-05
1.57441e-05
1.57717e-05
1.58004e-05
1.583e-05
1.58607e-05
1.58927e-05
1.59259e-05
1.59601e-05
1.59952e-05
1.60311e-05
1.60677e-05
1.61051e-05
1.61431e-05
1.61816e-05
1.62205e-05
1.62598e-05
1.62995e-05
1.63395e-05
1.63797e-05
1.64199e-05
1.64604e-05
1.65009e-05
1.65413e-05
1.65817e-05
1.66221e-05
1.66623e-05
1.67023e-05
1.67422e-05
1.67819e-05
1.68213e-05
1.68605e-05
1.68993e-05
1.69379e-05
1.69761e-05
1.70142e-05
1.70519e-05
1.70893e-05
1.71264e-05
1.71633e-05
1.71998e-05
1.72361e-05
1.72722e-05
1.7308e-05
1.73437e-05
1.73793e-05
1.74148e-05
1.7469e-05
2.97683e-05
1.75392e-05
2.99889e-05
3.00736e-05
3.01586e-05
3.02442e-05
3.03302e-05
3.0417e-05
3.05047e-05
3.0593e-05
3.06823e-05
3.07727e-05
3.08641e-05
3.09567e-05
3.10505e-05
3.11456e-05
3.12421e-05
3.13398e-05
3.14389e-05
3.15394e-05
3.16412e-05
3.17444e-05
3.18488e-05
3.19544e-05
3.20612e-05
3.21692e-05
3.22784e-05
3.23886e-05
3.24997e-05
3.26117e-05
3.27244e-05
3.28379e-05
3.29519e-05
3.30665e-05
3.31817e-05
3.32971e-05
3.34126e-05
3.35275e-05
3.36415e-05
3.37541e-05
3.3865e-05
3.3974e-05
3.40806e-05
3.41845e-05
3.42853e-05
3.43826e-05
3.44763e-05
3.45663e-05
3.4581e-05
1.97098e-05
1.97454e-05
1.97796e-05
1.98124e-05
1.98438e-05
1.9874e-05
1.99035e-05
1.99328e-05
1.99626e-05
2.00225e-05
3.54374e-05
3.5567e-05
3.56549e-05
2.03177e-05
2.04815e-05
2.06069e-05
2.06066e-05
2.04545e-05
2.01529e-05
1.97025e-05
1.95012e-05
3.20433e-05
2.04611e-05
2.4971e-05
2.2239e-05
1.75444e-05
1.0865e-05
2.60977e-06
1.10098e-05
1.76668e-05
2.23468e-05
2.50624e-05
2.04329e-05
1.95926e-05
3.35129e-05
3.48818e-05
2.02494e-05
2.04974e-05
2.06307e-05
2.05613e-05
2.03323e-05
2.01066e-05
3.50961e-05
3.49901e-05
3.48467e-05
1.97682e-05
1.97051e-05
1.96733e-05
1.96455e-05
1.96208e-05
1.95975e-05
1.95746e-05
1.95515e-05
1.95273e-05
1.95019e-05
3.41193e-05
3.41409e-05
3.40759e-05
3.40066e-05
3.39332e-05
3.38558e-05
3.37749e-05
3.36907e-05
3.36036e-05
3.3514e-05
3.3422e-05
3.33279e-05
3.32322e-05
3.31353e-05
3.30377e-05
3.29396e-05
3.28414e-05
3.2743e-05
3.26446e-05
3.25463e-05
3.24482e-05
3.23503e-05
3.22529e-05
3.21559e-05
3.20597e-05
3.19645e-05
3.18703e-05
3.17772e-05
3.16855e-05
3.15949e-05
3.15056e-05
3.14176e-05
3.13308e-05
3.1245e-05
3.11602e-05
3.10763e-05
3.09931e-05
3.09105e-05
3.08285e-05
3.07469e-05
3.06656e-05
3.05844e-05
3.05035e-05
3.04226e-05
3.03417e-05
1.76886e-05
1.76348e-05
1.75977e-05
1.75605e-05
1.75231e-05
1.74887e-05
1.7454e-05
1.74191e-05
1.73839e-05
1.73486e-05
1.73129e-05
1.7277e-05
1.72408e-05
1.72043e-05
1.71675e-05
1.71304e-05
1.70929e-05
1.70551e-05
1.70171e-05
1.69787e-05
1.694e-05
1.6901e-05
1.68617e-05
1.6822e-05
1.67822e-05
1.67421e-05
1.67018e-05
1.66612e-05
1.66206e-05
1.65799e-05
1.65391e-05
1.64982e-05
1.64574e-05
1.64166e-05
1.6376e-05
1.63356e-05
1.62955e-05
1.62557e-05
1.62163e-05
1.61773e-05
1.61388e-05
1.6101e-05
1.60638e-05
1.60274e-05
1.59918e-05
1.59571e-05
1.59236e-05
1.58913e-05
1.58602e-05
1.58299e-05
1.58006e-05
1.57731e-05
1.57485e-05
1.57269e-05
1.57071e-05
1.5686e-05
1.56629e-05
1.56418e-05
1.56231e-05
1.56147e-05
1.56222e-05
1.56361e-05
1.56569e-05
1.56694e-05
1.56712e-05
1.56656e-05
1.56893e-05
1.56971e-05
1.65024e-05
2.32598e-05
1.87323e-05
1.04941e-05
9.67259e-06
1.08466e-05
1.24723e-05
1.39663e-05
1.54682e-05
2.50119e-05
1.98146e-05
1.72775e-05
1.48594e-05
1.29878e-05
1.72147e-05
2.88665e-05
3.34712e-05
3.42878e-05
3.54803e-05
3.58475e-05
3.57901e-05
3.58071e-05
3.58321e-05
3.58346e-05
3.58284e-05
3.58335e-05
3.58445e-05
3.58802e-05
3.59374e-05
3.60062e-05
3.60852e-05
3.56688e-05
2.46407e-05
2.46683e-05
2.47061e-05
2.475e-05
2.47963e-05
2.48436e-05
2.48922e-05
2.49431e-05
2.49964e-05
2.50519e-05
2.5109e-05
2.51677e-05
2.52278e-05
2.52894e-05
2.53522e-05
2.54163e-05
2.54813e-05
2.55471e-05
2.56138e-05
2.56811e-05
2.5749e-05
2.58174e-05
2.5886e-05
2.5955e-05
2.60242e-05
2.60935e-05
2.61627e-05
2.62319e-05
2.6301e-05
2.63699e-05
2.64386e-05
2.6507e-05
2.6575e-05
2.66427e-05
2.671e-05
2.67768e-05
2.68432e-05
2.69093e-05
2.69749e-05
2.704e-05
2.71047e-05
2.71689e-05
2.72328e-05
2.72963e-05
2.73594e-05
2.74223e-05
2.74849e-05
2.75474e-05
2.761e-05
2.77101e-05
4.17568e-05
2.78341e-05
4.20521e-05
4.21596e-05
4.22677e-05
4.23763e-05
4.24856e-05
4.25956e-05
4.27066e-05
4.28184e-05
4.29314e-05
4.30456e-05
4.3161e-05
4.32779e-05
4.33961e-05
4.35158e-05
4.36373e-05
4.37602e-05
4.38846e-05
4.40107e-05
4.41384e-05
4.42677e-05
4.43984e-05
4.45304e-05
4.46638e-05
4.47987e-05
4.49349e-05
4.50722e-05
4.52106e-05
4.53499e-05
4.54901e-05
4.5631e-05
4.57724e-05
4.59145e-05
4.6057e-05
4.61998e-05
4.63425e-05
4.64843e-05
4.66248e-05
4.67634e-05
4.68999e-05
4.70338e-05
4.71648e-05
4.72923e-05
4.74159e-05
4.75351e-05
4.76498e-05
4.77591e-05
4.77616e-05
3.14632e-05
3.15235e-05
3.15815e-05
3.16369e-05
3.16899e-05
3.17409e-05
3.17907e-05
3.18401e-05
3.1891e-05
3.20076e-05
4.87998e-05
4.89429e-05
4.89992e-05
3.25279e-05
3.28565e-05
3.31294e-05
3.31668e-05
3.29192e-05
3.23958e-05
3.16151e-05
3.14726e-05
4.21973e-05
3.20225e-05
3.3047e-05
2.8532e-05
2.19663e-05
1.36858e-05
3.86196e-06
1.38524e-05
2.21138e-05
2.86762e-05
3.31741e-05
3.20668e-05
3.21203e-05
4.48702e-05
4.69753e-05
3.25724e-05
3.29925e-05
3.32045e-05
3.30319e-05
3.25638e-05
3.21427e-05
4.83852e-05
4.82885e-05
4.81199e-05
3.15812e-05
3.14608e-05
3.14063e-05
3.1359e-05
3.13167e-05
3.12767e-05
3.12374e-05
3.11976e-05
3.11563e-05
3.11128e-05
4.72043e-05
4.72428e-05
4.71623e-05
4.70759e-05
4.69844e-05
4.68882e-05
4.67876e-05
4.6683e-05
4.65747e-05
4.64633e-05
4.63491e-05
4.62322e-05
4.61132e-05
4.59927e-05
4.58712e-05
4.57491e-05
4.56266e-05
4.55039e-05
4.53812e-05
4.52584e-05
4.51359e-05
4.50135e-05
4.48916e-05
4.47703e-05
4.46499e-05
4.45304e-05
4.44123e-05
4.42954e-05
4.418e-05
4.40661e-05
4.39537e-05
4.38428e-05
4.37333e-05
4.3625e-05
4.35179e-05
4.34119e-05
4.33068e-05
4.32024e-05
4.30986e-05
4.29953e-05
4.28924e-05
4.27897e-05
4.26871e-05
4.25846e-05
4.24822e-05
2.80795e-05
2.79795e-05
2.79178e-05
2.78562e-05
2.77943e-05
2.77335e-05
2.76725e-05
2.76112e-05
2.75495e-05
2.74875e-05
2.7425e-05
2.73622e-05
2.72988e-05
2.72351e-05
2.71709e-05
2.71062e-05
2.7041e-05
2.69753e-05
2.69092e-05
2.68426e-05
2.67755e-05
2.67079e-05
2.66399e-05
2.65715e-05
2.65028e-05
2.64337e-05
2.63643e-05
2.62947e-05
2.6225e-05
2.61552e-05
2.60853e-05
2.60154e-05
2.59457e-05
2.58762e-05
2.58071e-05
2.57385e-05
2.56704e-05
2.5603e-05
2.55363e-05
2.54703e-05
2.54055e-05
2.53418e-05
2.52793e-05
2.52183e-05
2.51587e-05
2.51006e-05
2.50446e-05
2.4991e-05
2.49397e-05
2.48895e-05
2.48403e-05
2.47934e-05
2.47525e-05
2.4719e-05
2.46908e-05
2.4658e-05
2.46151e-05
2.45674e-05
2.45199e-05
2.44996e-05
2.45216e-05
2.45707e-05
2.46431e-05
2.46859e-05
2.467e-05
2.45942e-05
2.45119e-05
2.41637e-05
2.4551e-05
3.22302e-05
2.89352e-05
1.71576e-05
1.38773e-05
1.54974e-05
1.71157e-05
1.96632e-05
2.50924e-05
3.65373e-05
2.8247e-05
2.18969e-05
1.96051e-05
1.74668e-05
2.62438e-05
3.93197e-05
4.27717e-05
4.40539e-05
4.57104e-05
4.6457e-05
4.65594e-05
4.66616e-05
4.66975e-05
4.66474e-05
4.65797e-05
4.65577e-05
4.65734e-05
4.66379e-05
4.6736e-05
4.68366e-05
4.69205e-05
4.63755e-05
3.56706e-05
3.57085e-05
3.57643e-05
3.58307e-05
3.59005e-05
3.59713e-05
3.60439e-05
3.61202e-05
3.62004e-05
3.6284e-05
3.63701e-05
3.64586e-05
3.65495e-05
3.66426e-05
3.67377e-05
3.68347e-05
3.69332e-05
3.70332e-05
3.71343e-05
3.72366e-05
3.73398e-05
3.74437e-05
3.75482e-05
3.76533e-05
3.77588e-05
3.78644e-05
3.797e-05
3.80756e-05
3.81812e-05
3.82864e-05
3.83914e-05
3.8496e-05
3.86e-05
3.87037e-05
3.88067e-05
3.89092e-05
3.9011e-05
3.91123e-05
3.9213e-05
3.93129e-05
3.94122e-05
3.95109e-05
3.96091e-05
3.97067e-05
3.98039e-05
3.99006e-05
3.99971e-05
4.00934e-05
4.01905e-05
4.03491e-05
5.36241e-05
4.05407e-05
5.39788e-05
5.41064e-05
5.4235e-05
5.43641e-05
5.4494e-05
5.46247e-05
5.47564e-05
5.48891e-05
5.5023e-05
5.51584e-05
5.52952e-05
5.54335e-05
5.55734e-05
5.57151e-05
5.58586e-05
5.60038e-05
5.61507e-05
5.62994e-05
5.645e-05
5.66024e-05
5.67563e-05
5.69118e-05
5.70687e-05
5.72273e-05
5.73874e-05
5.75487e-05
5.77111e-05
5.78746e-05
5.8039e-05
5.82041e-05
5.83699e-05
5.85361e-05
5.87028e-05
5.88696e-05
5.9036e-05
5.92014e-05
5.9365e-05
5.95263e-05
5.96851e-05
5.98408e-05
5.9993e-05
6.01411e-05
6.02845e-05
6.0423e-05
6.05561e-05
6.0682e-05
6.06859e-05
4.61287e-05
4.62228e-05
4.63131e-05
4.63995e-05
4.64821e-05
4.65617e-05
4.66399e-05
4.67178e-05
4.67998e-05
4.69926e-05
6.18439e-05
6.1978e-05
6.19829e-05
4.79273e-05
4.86024e-05
4.92324e-05
4.94566e-05
4.91771e-05
4.84247e-05
4.71752e-05
4.58631e-05
5.06795e-05
4.18873e-05
3.95383e-05
3.31328e-05
2.49501e-05
1.57155e-05
5.30232e-06
1.58873e-05
2.51081e-05
3.3306e-05
3.96954e-05
4.19907e-05
4.43893e-05
5.45949e-05
5.75328e-05
4.86966e-05
4.92923e-05
4.94964e-05
4.90052e-05
4.80144e-05
4.72224e-05
6.14131e-05
6.13267e-05
6.11461e-05
4.63107e-05
4.61174e-05
4.60316e-05
4.59581e-05
4.58924e-05
4.58306e-05
4.57697e-05
4.57083e-05
4.56445e-05
4.55771e-05
6.00601e-05
6.00978e-05
6.00019e-05
5.98983e-05
5.97891e-05
5.96746e-05
5.95551e-05
5.94311e-05
5.93031e-05
5.91714e-05
5.90364e-05
5.88985e-05
5.87582e-05
5.8616e-05
5.84726e-05
5.83285e-05
5.81839e-05
5.8039e-05
5.7894e-05
5.7749e-05
5.76043e-05
5.74598e-05
5.73158e-05
5.71725e-05
5.70301e-05
5.68888e-05
5.6749e-05
5.66106e-05
5.64738e-05
5.63387e-05
5.62054e-05
5.60737e-05
5.59437e-05
5.5815e-05
5.56878e-05
5.55618e-05
5.54368e-05
5.53127e-05
5.51893e-05
5.50666e-05
5.49444e-05
5.48224e-05
5.47005e-05
5.45788e-05
5.44575e-05
4.09154e-05
4.07557e-05
4.06609e-05
4.05669e-05
4.04726e-05
4.03787e-05
4.02845e-05
4.01897e-05
4.00945e-05
3.99988e-05
3.99026e-05
3.98057e-05
3.97081e-05
3.961e-05
3.95112e-05
3.94116e-05
3.93113e-05
3.92103e-05
3.91086e-05
3.90063e-05
3.89032e-05
3.87995e-05
3.86952e-05
3.85903e-05
3.84849e-05
3.8379e-05
3.82727e-05
3.81661e-05
3.80594e-05
3.79525e-05
3.78456e-05
3.77388e-05
3.76322e-05
3.7526e-05
3.74206e-05
3.7316e-05
3.72122e-05
3.71095e-05
3.70079e-05
3.69075e-05
3.68088e-05
3.67119e-05
3.6617e-05
3.65243e-05
3.64338e-05
3.63456e-05
3.62606e-05
3.61795e-05
3.61019e-05
3.6026e-05
3.59509e-05
3.5879e-05
3.58174e-05
3.5769e-05
3.57298e-05
3.56803e-05
3.56094e-05
3.55249e-05
3.54423e-05
3.54148e-05
3.54638e-05
3.55647e-05
3.57024e-05
3.57715e-05
3.57052e-05
3.55026e-05
3.52306e-05
3.43924e-05
3.45381e-05
4.11041e-05
3.92756e-05
2.61426e-05
1.8499e-05
2.01596e-05
2.18618e-05
2.80956e-05
3.66981e-05
4.9713e-05
3.88556e-05
2.82692e-05
2.42702e-05
2.32081e-05
3.77925e-05
4.96333e-05
5.20159e-05
5.38883e-05
5.60963e-05
5.72307e-05
5.74753e-05
5.76217e-05
5.76254e-05
5.74987e-05
5.73653e-05
5.73234e-05
5.73585e-05
5.7466e-05
5.76107e-05
5.77396e-05
5.78186e-05
5.72427e-05
4.94434e-05
4.94956e-05
4.95764e-05
4.96744e-05
4.97781e-05
4.9883e-05
4.999e-05
5.01024e-05
5.0221e-05
5.03447e-05
5.04722e-05
5.06032e-05
5.07379e-05
5.08758e-05
5.10169e-05
5.11606e-05
5.13067e-05
5.14548e-05
5.16049e-05
5.17566e-05
5.19096e-05
5.20637e-05
5.22186e-05
5.23742e-05
5.25304e-05
5.26868e-05
5.28432e-05
5.29996e-05
5.31558e-05
5.33116e-05
5.34669e-05
5.36217e-05
5.37757e-05
5.39291e-05
5.40815e-05
5.42331e-05
5.43838e-05
5.45337e-05
5.46825e-05
5.48303e-05
5.49772e-05
5.51232e-05
5.52684e-05
5.54128e-05
5.55565e-05
5.56995e-05
5.58422e-05
5.59846e-05
5.6129e-05
5.63523e-05
6.55327e-05
5.66362e-05
6.59323e-05
6.60817e-05
6.6233e-05
6.6385e-05
6.65378e-05
6.66916e-05
6.68465e-05
6.70027e-05
6.71602e-05
6.73194e-05
6.74802e-05
6.76428e-05
6.78072e-05
6.79737e-05
6.81421e-05
6.83126e-05
6.84851e-05
6.86597e-05
6.88364e-05
6.90152e-05
6.91958e-05
6.93782e-05
6.95625e-05
6.97486e-05
6.99364e-05
7.01257e-05
7.03163e-05
7.05081e-05
7.0701e-05
7.08947e-05
7.10892e-05
7.12843e-05
7.14798e-05
7.16752e-05
7.187e-05
7.20635e-05
7.22549e-05
7.24438e-05
7.26297e-05
7.28121e-05
7.29904e-05
7.3164e-05
7.33323e-05
7.3495e-05
7.36516e-05
7.37994e-05
7.38366e-05
6.47641e-05
6.48961e-05
6.50216e-05
6.51409e-05
6.52536e-05
6.53606e-05
6.54633e-05
6.55622e-05
6.56611e-05
6.58643e-05
7.50895e-05
7.51963e-05
7.51605e-05
6.6582e-05
6.68243e-05
6.67775e-05
6.62126e-05
6.51016e-05
6.34351e-05
6.10835e-05
5.81729e-05
5.80709e-05
4.96296e-05
4.42807e-05
3.60086e-05
2.65883e-05
1.7055e-05
6.99475e-06
1.72186e-05
2.67424e-05
3.62033e-05
4.44609e-05
4.97741e-05
5.45578e-05
6.32456e-05
6.71881e-05
6.36991e-05
6.52549e-05
6.63672e-05
6.67965e-05
6.65508e-05
6.60664e-05
7.4705e-05
7.4616e-05
7.44354e-05
6.50374e-05
6.4797e-05
6.46755e-05
6.45696e-05
6.44737e-05
6.43826e-05
6.42924e-05
6.42013e-05
6.41068e-05
6.4007e-05
7.31469e-05
7.3149e-05
7.30298e-05
7.29019e-05
7.2768e-05
7.26285e-05
7.24836e-05
7.23338e-05
7.21797e-05
7.20216e-05
7.186e-05
7.16953e-05
7.1528e-05
7.13587e-05
7.1188e-05
7.10165e-05
7.08445e-05
7.06723e-05
7.05002e-05
7.03282e-05
7.01566e-05
6.99854e-05
6.9815e-05
6.96453e-05
6.94769e-05
6.93098e-05
6.91443e-05
6.89805e-05
6.88186e-05
6.86586e-05
6.85006e-05
6.83446e-05
6.81905e-05
6.80381e-05
6.78874e-05
6.77383e-05
6.75904e-05
6.74437e-05
6.72981e-05
6.71533e-05
6.70092e-05
6.68654e-05
6.67221e-05
6.65789e-05
6.64373e-05
5.71849e-05
5.69613e-05
5.68213e-05
5.6683e-05
5.65442e-05
5.64053e-05
5.6266e-05
5.61259e-05
5.59851e-05
5.58435e-05
5.57011e-05
5.55577e-05
5.54133e-05
5.5268e-05
5.51216e-05
5.49742e-05
5.48256e-05
5.4676e-05
5.45253e-05
5.43736e-05
5.42208e-05
5.40671e-05
5.39124e-05
5.37568e-05
5.36004e-05
5.34433e-05
5.32855e-05
5.31273e-05
5.29687e-05
5.281e-05
5.2651e-05
5.24924e-05
5.23338e-05
5.21758e-05
5.20187e-05
5.18625e-05
5.17076e-05
5.15541e-05
5.14024e-05
5.12524e-05
5.11048e-05
5.09599e-05
5.08178e-05
5.06791e-05
5.05435e-05
5.04113e-05
5.0284e-05
5.01626e-05
5.00463e-05
4.99319e-05
4.98183e-05
4.971e-05
4.9619e-05
4.95494e-05
4.94924e-05
4.94137e-05
4.9297e-05
4.91544e-05
4.90263e-05
4.90017e-05
4.9101e-05
4.92874e-05
4.95219e-05
4.95987e-05
4.93973e-05
4.89369e-05
4.82967e-05
4.67406e-05
4.64374e-05
5.04311e-05
4.9552e-05
3.76534e-05
2.47787e-05
2.50267e-05
2.85987e-05
3.87166e-05
5.00085e-05
6.43617e-05
5.13061e-05
3.68149e-05
2.91517e-05
3.07918e-05
5.21822e-05
5.97755e-05
6.155e-05
6.42649e-05
6.70204e-05
6.85487e-05
6.88929e-05
6.90358e-05
6.89689e-05
6.87529e-05
6.85594e-05
6.85073e-05
6.85717e-05
6.87309e-05
6.89236e-05
6.90781e-05
6.91598e-05
6.87051e-05
6.42523e-05
6.43305e-05
6.44392e-05
6.45639e-05
6.46914e-05
6.48194e-05
6.4951e-05
6.509e-05
6.52364e-05
6.53887e-05
6.55455e-05
6.57069e-05
6.58729e-05
6.60431e-05
6.62173e-05
6.63952e-05
6.65761e-05
6.67599e-05
6.69464e-05
6.71352e-05
6.7326e-05
6.75184e-05
6.77122e-05
6.79072e-05
6.81033e-05
6.82998e-05
6.84967e-05
6.8694e-05
6.88912e-05
6.90882e-05
6.92849e-05
6.94813e-05
6.96769e-05
6.9872e-05
7.00661e-05
7.02595e-05
7.04519e-05
7.06434e-05
7.08338e-05
7.10232e-05
7.12117e-05
7.13993e-05
7.1586e-05
7.17717e-05
7.19569e-05
7.21413e-05
7.23254e-05
7.2509e-05
7.26936e-05
7.29393e-05
7.82674e-05
7.33061e-05
7.87143e-05
7.88956e-05
7.90805e-05
7.92662e-05
7.94528e-05
7.96407e-05
7.983e-05
8.00206e-05
8.0213e-05
8.04072e-05
8.06034e-05
8.08017e-05
8.10021e-05
8.1205e-05
8.14101e-05
8.16176e-05
8.18274e-05
8.20398e-05
8.22546e-05
8.24718e-05
8.2691e-05
8.29125e-05
8.31362e-05
8.3362e-05
8.35896e-05
8.3819e-05
8.40498e-05
8.42821e-05
8.45155e-05
8.47498e-05
8.49849e-05
8.52205e-05
8.54563e-05
8.56915e-05
8.59256e-05
8.61578e-05
8.63873e-05
8.66138e-05
8.68367e-05
8.70555e-05
8.72692e-05
8.74774e-05
8.76796e-05
8.78751e-05
8.80635e-05
8.82425e-05
8.83357e-05
8.34847e-05
8.36436e-05
8.37929e-05
8.39317e-05
8.40588e-05
8.41738e-05
8.42759e-05
8.43622e-05
8.44321e-05
8.45612e-05
8.95809e-05
8.9593e-05
8.94247e-05
8.44342e-05
8.3973e-05
8.30067e-05
8.14405e-05
7.93087e-05
7.65454e-05
7.29031e-05
6.82797e-05
6.43452e-05
5.52087e-05
4.71769e-05
3.71813e-05
2.70428e-05
1.7849e-05
8.93531e-06
1.79949e-05
2.71792e-05
3.73908e-05
4.73722e-05
5.53792e-05
6.2536e-05
7.10889e-05
7.63282e-05
7.67831e-05
7.94947e-05
8.1725e-05
8.33347e-05
8.41752e-05
8.44182e-05
8.92966e-05
8.92888e-05
8.91585e-05
8.39892e-05
8.37816e-05
8.3651e-05
8.35224e-05
8.33949e-05
8.32663e-05
8.31351e-05
8.3001e-05
8.28629e-05
8.27189e-05
8.76123e-05
8.75463e-05
8.73872e-05
8.72197e-05
8.70463e-05
8.68672e-05
8.66827e-05
8.64932e-05
8.62992e-05
8.61012e-05
8.58997e-05
8.5695e-05
8.54877e-05
8.52781e-05
8.5067e-05
8.4855e-05
8.46426e-05
8.44301e-05
8.4218e-05
8.40062e-05
8.37952e-05
8.35849e-05
8.33757e-05
8.31676e-05
8.2961e-05
8.27559e-05
8.25528e-05
8.23517e-05
8.21529e-05
8.19561e-05
8.17619e-05
8.157e-05
8.13805e-05
8.1193e-05
8.10078e-05
8.08245e-05
8.0643e-05
8.04631e-05
8.02847e-05
8.01076e-05
7.99316e-05
7.97563e-05
7.95816e-05
7.94075e-05
7.92366e-05
7.38775e-05
7.3636e-05
7.346e-05
7.32848e-05
7.31092e-05
7.29331e-05
7.27566e-05
7.25792e-05
7.24012e-05
7.22222e-05
7.20424e-05
7.18615e-05
7.16795e-05
7.14964e-05
7.13123e-05
7.1127e-05
7.09405e-05
7.07528e-05
7.0564e-05
7.03742e-05
7.01832e-05
6.99914e-05
6.97984e-05
6.96048e-05
6.94104e-05
6.92155e-05
6.90201e-05
6.88243e-05
6.86285e-05
6.84329e-05
6.82372e-05
6.80425e-05
6.78481e-05
6.76549e-05
6.74631e-05
6.72728e-05
6.70844e-05
6.68982e-05
6.67146e-05
6.65335e-05
6.63558e-05
6.61816e-05
6.60114e-05
6.58454e-05
6.56838e-05
6.55264e-05
6.53747e-05
6.52303e-05
6.50932e-05
6.49595e-05
6.48258e-05
6.46948e-05
6.45804e-05
6.44926e-05
6.44287e-05
6.43511e-05
6.42289e-05
6.40586e-05
6.38703e-05
6.37656e-05
6.38016e-05
6.39691e-05
6.42545e-05
6.44576e-05
6.43962e-05
6.4024e-05
6.33442e-05
6.12509e-05
5.94913e-05
6.0317e-05
5.9736e-05
5.20582e-05
3.30534e-05
3.09504e-05
3.74569e-05
5.12285e-05
6.48449e-05
8.03556e-05
6.55313e-05
4.73477e-05
3.60843e-05
4.04464e-05
6.5393e-05
6.97829e-05
7.14735e-05
7.58932e-05
7.92922e-05
8.08816e-05
8.11208e-05
8.11489e-05
8.09736e-05
8.069e-05
8.04885e-05
8.04705e-05
8.05883e-05
8.08019e-05
8.10286e-05
8.11956e-05
8.12851e-05
8.10058e-05
7.87003e-05
7.88096e-05
7.89481e-05
7.9099e-05
7.92504e-05
7.94025e-05
7.95603e-05
7.97274e-05
7.99027e-05
8.00846e-05
8.02716e-05
8.04643e-05
8.06626e-05
8.08661e-05
8.10746e-05
8.12876e-05
8.15045e-05
8.17252e-05
8.19494e-05
8.21767e-05
8.24067e-05
8.26391e-05
8.28735e-05
8.31097e-05
8.33476e-05
8.35863e-05
8.3826e-05
8.40665e-05
8.43073e-05
8.45481e-05
8.47891e-05
8.50299e-05
8.52701e-05
8.55101e-05
8.57492e-05
8.59878e-05
8.62253e-05
8.64621e-05
8.66979e-05
8.69328e-05
8.71668e-05
8.74e-05
8.76323e-05
8.78638e-05
8.80947e-05
8.83249e-05
8.85549e-05
8.87842e-05
8.90132e-05
8.92838e-05
9.22479e-05
8.97429e-05
9.2761e-05
9.29854e-05
9.32147e-05
9.34446e-05
9.36758e-05
9.39082e-05
9.41423e-05
9.43779e-05
9.46154e-05
9.48551e-05
9.50969e-05
9.53412e-05
9.55878e-05
9.58371e-05
9.60888e-05
9.63431e-05
9.66e-05
9.68599e-05
9.71224e-05
9.73874e-05
9.76546e-05
9.79246e-05
9.81969e-05
9.84716e-05
9.8748e-05
9.90263e-05
9.93061e-05
9.95873e-05
9.98696e-05
0.000100153
0.000100436
0.00010072
0.000101003
0.000101285
0.000101565
0.000101842
0.000102115
0.000102385
0.00010265
0.00010291
0.000103164
0.000103411
0.000103651
0.000103883
0.000104107
0.00010432
0.000104468
0.000102062
0.000102244
0.000102413
0.000102565
0.000102697
0.000102807
0.00010289
0.000102938
0.000102944
0.000102954
0.000105478
0.000105287
0.000104814
0.000101489
0.000100119
9.80369e-05
9.52865e-05
9.1961e-05
8.79244e-05
8.28037e-05
7.6324e-05
6.92315e-05
5.86496e-05
4.81973e-05
3.67362e-05
2.65641e-05
1.82838e-05
1.11041e-05
1.84068e-05
2.66705e-05
3.69565e-05
4.83983e-05
5.88338e-05
6.83791e-05
7.78625e-05
8.47044e-05
8.81344e-05
9.21764e-05
9.571e-05
9.87133e-05
0.000100894
0.000102146
0.000105275
0.000105521
0.000105538
0.000102859
0.000102721
0.000102603
0.000102463
0.000102306
0.000102137
0.000101958
0.000101772
0.000101581
0.000101383
0.000103784
0.000103639
0.000103426
0.000103205
0.000102979
0.000102748
0.000102512
0.000102271
0.000102026
0.000101776
0.000101524
0.000101269
0.000101011
0.00010075
0.000100488
0.000100225
9.99615e-05
9.96982e-05
9.94354e-05
9.91734e-05
9.89125e-05
9.86528e-05
9.83947e-05
9.8138e-05
9.78832e-05
9.76301e-05
9.73792e-05
9.71305e-05
9.68844e-05
9.66407e-05
9.63998e-05
9.61616e-05
9.59263e-05
9.56935e-05
9.54635e-05
9.5236e-05
9.50108e-05
9.47879e-05
9.4567e-05
9.4348e-05
9.41306e-05
9.39144e-05
9.36993e-05
9.34851e-05
9.32756e-05
9.02942e-05
9.00337e-05
8.98189e-05
8.96042e-05
8.93891e-05
8.91734e-05
8.89573e-05
8.87404e-05
8.85228e-05
8.83042e-05
8.80849e-05
8.78645e-05
8.7643e-05
8.74204e-05
8.71967e-05
8.69718e-05
8.67457e-05
8.65185e-05
8.62902e-05
8.6061e-05
8.58305e-05
8.55996e-05
8.53675e-05
8.51349e-05
8.49019e-05
8.46686e-05
8.4435e-05
8.42014e-05
8.39681e-05
8.37355e-05
8.35033e-05
8.32726e-05
8.30429e-05
8.2815e-05
8.2589e-05
8.23654e-05
8.21443e-05
8.19264e-05
8.1712e-05
8.15009e-05
8.12942e-05
8.1092e-05
8.08949e-05
8.07032e-05
8.05169e-05
8.03357e-05
8.01609e-05
7.99946e-05
7.98375e-05
7.96859e-05
7.95348e-05
7.93838e-05
7.92464e-05
7.91367e-05
7.906e-05
7.89836e-05
7.88681e-05
7.86925e-05
7.84674e-05
7.82849e-05
7.82297e-05
7.83243e-05
7.85949e-05
7.88901e-05
7.90043e-05
7.88498e-05
7.84047e-05
7.64105e-05
7.33112e-05
7.06577e-05
6.98541e-05
6.56154e-05
4.35842e-05
3.90388e-05
4.82904e-05
6.55802e-05
8.10788e-05
9.75658e-05
8.15207e-05
5.99085e-05
4.49015e-05
5.2747e-05
7.72932e-05
7.97506e-05
8.23195e-05
8.88346e-05
9.27105e-05
9.39391e-05
9.39074e-05
9.37499e-05
9.34625e-05
9.3154e-05
9.30058e-05
9.30681e-05
9.32605e-05
9.35244e-05
9.37682e-05
9.39352e-05
9.40318e-05
9.3899e-05
9.27908e-05
9.29363e-05
9.31081e-05
9.32881e-05
9.34672e-05
9.36485e-05
9.38379e-05
9.40382e-05
9.42476e-05
9.44641e-05
9.46867e-05
9.49161e-05
9.51522e-05
9.53947e-05
9.5643e-05
9.58969e-05
9.61556e-05
9.64192e-05
9.66871e-05
9.6959e-05
9.72345e-05
9.75132e-05
9.77946e-05
9.80786e-05
9.8365e-05
9.86527e-05
9.89421e-05
9.92327e-05
9.95241e-05
9.98161e-05
0.000100108
0.000100401
0.000100693
0.000100986