/*--------------------------------*- C++ -*----------------------------------*\
| =========                 |                                                 |
| \\      /  F ield         | OpenFOAM: The Open Source CFD Toolbox           |
|  \\    /   O peration     | Version:  2412                                  |
|   \\  /    A nd           | Website:  www.openfoam.com                      |
|    \\/     M anipulation  |                                                 |
\*---------------------------------------------------------------------------*/
FoamFile
{
    version     2.0;
    format      ascii;
    arch        "LSB;label=32;scalar=64";
    class       volScalarField;
    location    "100";
    object      p;
}
// * * * * * * * * * * * * * * * * * * * * * * * * * * * * * * * * * * * * * //

dimensions      [0 2 -2 0 0 0 0];

internalField   nonuniform List<scalar> 
29601
(
199.797
170.199
174.003
181.622
176.965
162.577
144.388
139.729
156.545
163.98
166.29
165.985
163.94
160.756
157.624
155.762
154.451
153.551
152.764
151.308
149.22
146.732
143.995
141.386
138.819
136.235
133.489
130.559
127.491
124.339
121.119
117.815
114.412
110.916
107.336
103.682
99.9556
96.1595
92.2978
88.3757
84.3981
80.3692
76.2929
72.173
68.0145
63.8204
59.5955
55.3422
51.0639
46.763
42.4418
38.1034
33.7513
29.388
25.0144
20.6306
16.2372
11.8379
7.4327
3.02135
-1.39626
-5.81917
-10.2459
-14.6775
-19.116
-23.5633
-28.0185
-32.4823
-36.9571
-41.4449
-45.9469
-50.4653
-55.0019
-59.559
-64.1409
-68.749
-73.3838
-78.0492
-82.7511
-87.4881
-92.2637
-97.0826
-101.946
-106.856
-111.814
-116.825
-121.89
-127.012
-132.188
-137.42
-142.714
-148.064
-153.473
-158.94
-164.466
-170.048
-175.681
-181.364
-187.098
-192.87
-198.681
-204.526
-210.393
-216.281
-222.179
-228.078
-233.967
-239.837
-245.677
-251.475
-257.215
-262.883
-268.465
-273.946
-279.311
-284.535
-289.604
-294.495
-299.19
-303.657
-307.876
-311.833
-315.481
-318.787
-321.718
-324.223
-326.273
-327.792
-328.738
-329.047
-328.53
-327.151
-324.808
-321.198
-316.067
-309.072
-299.834
-288.023
-273.117
-254.243
-229.934
-197.48
-154.084
-95.0585
-11.1819
119.167
286.863
519.896
737.316
819.237
735.439
516.498
282.85
115.381
-15.0223
-98.5495
-157.173
-200.125
-232.092
-256.265
-275.331
-290.567
-302.75
-312.17
-319.126
-324.14
-327.622
-329.979
-331.299
-331.642
-331.309
-330.324
-328.717
-326.626
-324.078
-321.108
-317.749
-314.056
-310.085
-305.828
-301.315
-296.595
-291.679
-286.582
-281.333
-275.945
-270.443
-264.839
-259.15
-253.39
-247.574
-241.716
-235.829
-229.923
-224.009
-218.096
-212.194
-206.312
-200.454
-194.63
-188.845
-183.099
-177.404
-171.759
-166.166
-160.628
-155.148
-149.728
-144.365
-139.059
-133.813
-128.625
-123.492
-118.414
-113.391
-108.42
-103.496
-98.6159
-93.7813
-88.9894
-84.2357
-79.5163
-74.833
-70.1793
-65.5518
-60.9497
-56.3717
-51.8134
-47.2724
-42.7468
-38.2345
-33.7343
-29.2441
-24.7614
-20.2857
-15.8179
-11.3558
-6.89759
-2.44213
2.00914
6.45513
10.896
15.3322
19.7635
24.1877
28.6036
33.0094
37.4039
41.7844
46.1484
50.4936
54.8176
59.1174
63.3899
67.6309
71.8374
76.0044
80.1284
84.2048
88.2296
92.1986
96.1069
99.949
103.721
107.42
111.043
114.583
118.028
121.373
124.634
127.823
130.926
133.888
136.664
139.276
141.863
144.485
147.224
149.709
151.792
153.244
154.028
154.914
156.19
157.994
161.03
164.106
166.051
166.28
163.91
156.494
139.782
144.178
162.123
176.551
181.455
173.452
168.702
198.156
199.724
170.254
174.017
181.616
176.954
162.605
144.431
139.751
156.539
163.973
166.287
165.984
163.939
160.756
157.625
155.762
154.452
153.551
152.764
151.307
149.22
146.732
143.995
141.386
138.82
136.235
133.489
130.559
127.491
124.339
121.119
117.815
114.412
110.916
107.336
103.682
99.9557
96.1596
92.2979
88.3757
84.3982
80.3693
76.293
72.173
68.0146
63.8205
59.5955
55.3423
51.064
46.7631
42.4418
38.1034
33.7513
29.3881
25.0144
20.6306
16.2372
11.8379
7.43273
3.0214
-1.39622
-5.81912
-10.2459
-14.6775
-19.1159
-23.5632
-28.0185
-32.4823
-36.9571
-41.4448
-45.9469
-50.4653
-55.0018
-59.5589
-64.1408
-68.7489
-73.3837
-78.0491
-82.751
-87.488
-92.2637
-97.0825
-101.946
-106.856
-111.814
-116.825
-121.89
-127.012
-132.188
-137.42
-142.714
-148.064
-153.473
-158.94
-164.466
-170.048
-175.681
-181.364
-187.098
-192.87
-198.681
-204.526
-210.393
-216.281
-222.179
-228.078
-233.967
-239.837
-245.677
-251.475
-257.215
-262.883
-268.465
-273.946
-279.311
-284.535
-289.604
-294.495
-299.19
-303.657
-307.876
-311.833
-315.481
-318.786
-321.718
-324.223
-326.273
-327.791
-328.737
-329.047
-328.53
-327.151
-324.808
-321.198
-316.067
-309.071
-299.834
-288.023
-273.117
-254.243
-229.934
-197.48
-154.084
-95.0579
-11.1809
119.167
286.861
519.884
737.293
819.219
735.416
516.486
282.848
115.381
-15.0213
-98.5489
-157.173
-200.124
-232.091
-256.265
-275.33
-290.566
-302.749
-312.17
-319.126
-324.14
-327.622
-329.979
-331.299
-331.641
-331.309
-330.324
-328.717
-326.626
-324.078
-321.108
-317.748
-314.056
-310.085
-305.828
-301.315
-296.595
-291.679
-286.582
-281.333
-275.945
-270.443
-264.839
-259.15
-253.39
-247.574
-241.716
-235.829
-229.923
-224.009
-218.096
-212.194
-206.312
-200.454
-194.63
-188.845
-183.099
-177.404
-171.759
-166.166
-160.628
-155.148
-149.728
-144.365
-139.059
-133.813
-128.625
-123.492
-118.414
-113.391
-108.42
-103.496
-98.6158
-93.7812
-88.9893
-84.2356
-79.5163
-74.8329
-70.1793
-65.5518
-60.9496
-56.3717
-51.8133
-47.2723
-42.7467
-38.2344
-33.7342
-29.244
-24.7613
-20.2857
-15.8178
-11.3558
-6.89753
-2.44208
2.0092
6.45517
10.8961
15.3322
19.7635
24.1877
28.6037
33.0095
37.4039
41.7845
46.1485
50.4937
54.8176
59.1175
63.3899
67.631
71.8374
76.0045
80.1285
84.2049
88.2296
92.1987
96.107
99.9491
103.721
107.42
111.044
114.583
118.028
121.373
124.634
127.823
130.926
133.888
136.664
139.276
141.863
144.485
147.224
149.709
151.791
153.244
154.028
154.914
156.191
157.995
161.031
164.106
166.05
166.276
163.903
156.487
139.804
144.221
162.15
176.541
181.45
173.459
168.761
198.088
199.624
170.329
174.059
181.609
176.946
162.632
144.49
139.783
156.532
163.965
166.282
165.982
163.939
160.757
157.626
155.763
154.452
153.551
152.763
151.307
149.22
146.732
143.995
141.386
138.82
136.235
133.489
130.559
127.491
124.34
121.119
117.815
114.412
110.916
107.336
103.682
99.9558
96.1597
92.298
88.3758
84.3983
80.3693
76.2931
72.1731
68.0147
63.8206
59.5956
55.3424
51.0641
46.7631
42.4419
38.1035
33.7514
29.3881
25.0145
20.6307
16.2373
11.838
7.43279
3.02144
-1.39617
-5.81908
-10.2458
-14.6775
-19.1159
-23.5632
-28.0185
-32.4823
-36.957
-41.4448
-45.9468
-50.4652
-55.0017
-59.5588
-64.1407
-68.7488
-73.3836
-78.049
-82.7509
-87.4879
-92.2636
-97.0824
-101.946
-106.856
-111.814
-116.825
-121.89
-127.012
-132.188
-137.42
-142.713
-148.064
-153.473
-158.94
-164.466
-170.048
-175.681
-181.364
-187.098
-192.87
-198.681
-204.526
-210.393
-216.281
-222.179
-228.078
-233.967
-239.837
-245.677
-251.474
-257.215
-262.883
-268.465
-273.946
-279.311
-284.535
-289.604
-294.495
-299.19
-303.657
-307.876
-311.833
-315.481
-318.786
-321.718
-324.223
-326.273
-327.791
-328.737
-329.047
-328.529
-327.151
-324.807
-321.197
-316.066
-309.071
-299.833
-288.022
-273.116
-254.242
-229.933
-197.479
-154.082
-95.0555
-11.1765
119.173
286.871
519.886
737.278
819.197
735.401
516.489
282.858
115.387
-15.0169
-98.5465
-157.171
-200.123
-232.09
-256.264
-275.329
-290.566
-302.748
-312.169
-319.126
-324.14
-327.622
-329.978
-331.299
-331.641
-331.309
-330.324
-328.717
-326.626
-324.078
-321.108
-317.748
-314.056
-310.085
-305.828
-301.315
-296.595
-291.679
-286.582
-281.333
-275.945
-270.443
-264.839
-259.15
-253.39
-247.574
-241.716
-235.829
-229.923
-224.009
-218.096
-212.193
-206.312
-200.454
-194.63
-188.845
-183.099
-177.404
-171.759
-166.166
-160.628
-155.148
-149.728
-144.365
-139.059
-133.813
-128.625
-123.492
-118.414
-113.391
-108.42
-103.496
-98.6157
-93.7811
-88.9892
-84.2355
-79.5162
-74.8328
-70.1792
-65.5517
-60.9495
-56.3716
-51.8132
-47.2723
-42.7466
-38.2343
-33.7341
-29.2439
-24.7612
-20.2856
-15.8178
-11.3557
-6.89747
-2.44201
2.00926
6.45524
10.8962
15.3323
19.7636
24.1878
28.6037
33.0095
37.404
41.7846
46.1486
50.4938
54.8177
59.1175
63.39
67.6311
71.8375
76.0046
80.1286
84.205
88.2297
92.1988
96.1071
99.9492
103.721
107.42
111.044
114.583
118.028
121.374
124.634
127.823
130.926
133.888
136.664
139.276
141.864
144.485
147.224
149.709
151.791
153.243
154.028
154.914
156.191
157.996
161.031
164.105
166.048
166.272
163.895
156.48
139.835
144.279
162.18
176.533
181.443
173.498
168.843
198.002
199.5
170.434
174.131
181.596
176.943
162.669
144.568
139.829
156.526
163.956
166.277
165.979
163.938
160.757
157.627
155.764
154.452
153.551
152.763
151.307
149.22
146.732
143.995
141.386
138.82
136.235
133.489
130.559
127.491
124.34
121.119
117.815
114.413
110.917
107.336
103.683
99.956
96.1598
92.2981
88.376
84.3984
80.3695
76.2932
72.1732
68.0148
63.8207
59.5957
55.3425
51.0642
46.7632
42.442
38.1036
33.7515
29.3882
25.0146
20.6308
16.2374
11.838
7.43288
3.02153
-1.39609
-5.819
-10.2458
-14.6774
-19.1158
-23.5631
-28.0184
-32.4822
-36.957
-41.4447
-45.9467
-50.4651
-55.0016
-59.5587
-64.1406
-68.7487
-73.3835
-78.0489
-82.7508
-87.4878
-92.2635
-97.0823
-101.946
-106.855
-111.814
-116.825
-121.89
-127.012
-132.188
-137.42
-142.713
-148.064
-153.473
-158.94
-164.466
-170.048
-175.681
-181.364
-187.098
-192.87
-198.681
-204.526
-210.393
-216.281
-222.179
-228.078
-233.967
-239.837
-245.677
-251.474
-257.215
-262.883
-268.465
-273.946
-279.311
-284.535
-289.604
-294.495
-299.189
-303.657
-307.876
-311.833
-315.481
-318.786
-321.718
-324.223
-326.273
-327.791
-328.737
-329.046
-328.529
-327.15
-324.807
-321.197
-316.065
-309.07
-299.832
-288.02
-273.114
-254.239
-229.93
-197.476
-154.078
-95.0496
-11.1669
119.188
286.896
519.904
737.268
819.173
735.391
516.507
282.883
115.402
-15.0072
-98.5406
-157.167
-200.12
-232.088
-256.261
-275.327
-290.564
-302.747
-312.168
-319.125
-324.139
-327.621
-329.978
-331.298
-331.641
-331.309
-330.324
-328.716
-326.626
-324.077
-321.108
-317.748
-314.055
-310.085
-305.827
-301.315
-296.595
-291.679
-286.582
-281.333
-275.945
-270.442
-264.839
-259.15
-253.39
-247.574
-241.716
-235.829
-229.923
-224.009
-218.096
-212.193
-206.312
-200.454
-194.63
-188.845
-183.099
-177.404
-171.759
-166.166
-160.628
-155.148
-149.728
-144.365
-139.059
-133.813
-128.625
-123.492
-118.414
-113.391
-108.42
-103.496
-98.6156
-93.781
-88.9891
-84.2354
-79.5161
-74.8327
-70.179
-65.5515
-60.9494
-56.3714
-51.8131
-47.2721
-42.7465
-38.2342
-33.734
-29.2438
-24.7611
-20.2855
-15.8177
-11.3556
-6.89737
-2.44191
2.00936
6.45534
10.8963
15.3324
19.7637
24.1879
28.6038
33.0096
37.4041
41.7847
46.1487
50.4939
54.8178
59.1177
63.3901
67.6312
71.8376
76.0047
80.1287
84.2051
88.2299
92.1989
96.1072
99.9493
103.721
107.42
111.044
114.583
118.029
121.374
124.634
127.823
130.926
133.888
136.664
139.276
141.864
144.485
147.224
149.709
151.791
153.243
154.028
154.915
156.192
157.998
161.032
164.104
166.046
166.267
163.886
156.475
139.88
144.355
162.218
176.531
181.43
173.57
168.957
197.892
199.361
170.575
174.226
181.583
176.948
162.723
144.678
139.902
156.526
163.947
166.271
165.976
163.937
160.758
157.629
155.765
154.453
153.551
152.763
151.307
149.22
146.732
143.996
141.387
138.82
136.235
133.489
130.559
127.491
124.34
121.119
117.815
114.413
110.917
107.337
103.683
99.9561
96.16
92.2983
88.3761
84.3985
80.3696
76.2934
72.1734
68.0149
63.8208
59.5959
55.3426
51.0643
46.7634
42.4421
38.1037
33.7516
29.3884
25.0147
20.6309
16.2375
11.8382
7.43299
3.02165
-1.39598
-5.81888
-10.2457
-14.6773
-19.1157
-23.563
-28.0183
-32.4821
-36.9568
-41.4445
-45.9466
-50.4649
-55.0015
-59.5585
-64.1404
-68.7485
-73.3833
-78.0488
-82.7506
-87.4877
-92.2633
-97.0821
-101.946
-106.855
-111.814
-116.824
-121.89
-127.012
-132.188
-137.42
-142.713
-148.064
-153.472
-158.94
-164.466
-170.048
-175.681
-181.364
-187.098
-192.87
-198.681
-204.525
-210.393
-216.281
-222.179
-228.077
-233.967
-239.837
-245.677
-251.474
-257.215
-262.883
-268.465
-273.946
-279.31
-284.534
-289.603
-294.494
-299.189
-303.656
-307.875
-311.833
-315.48
-318.786
-321.717
-324.222
-326.272
-327.79
-328.736
-329.046
-328.528
-327.149
-324.805
-321.195
-316.064
-309.068
-299.83
-288.017
-273.111
-254.235
-229.925
-197.469
-154.07
-95.0379
-11.1482
119.217
286.94
519.94
737.261
819.146
735.385
516.543
282.928
115.431
-14.9885
-98.5288
-157.159
-200.113
-232.082
-256.257
-275.324
-290.561
-302.745
-312.166
-319.123
-324.138
-327.62
-329.977
-331.297
-331.64
-331.308
-330.323
-328.716
-326.625
-324.077
-321.107
-317.748
-314.055
-310.085
-305.827
-301.315
-296.595
-291.678
-286.582
-281.333
-275.945
-270.442
-264.839
-259.15
-253.39
-247.574
-241.716
-235.829
-229.923
-224.008
-218.096
-212.193
-206.312
-200.454
-194.63
-188.845
-183.098
-177.404
-171.759
-166.165
-160.627
-155.148
-149.728
-144.365
-139.059
-133.813
-128.625
-123.492
-118.414
-113.391
-108.42
-103.496
-98.6154
-93.7808
-88.9889
-84.2352
-79.5159
-74.8325
-70.1789
-65.5514
-60.9492
-56.3713
-51.8129
-47.272
-42.7463
-38.2341
-33.7338
-29.2437
-24.761
-20.2853
-15.8175
-11.3555
-6.89723
-2.44178
2.00949
6.45547
10.8964
15.3325
19.7638
24.1881
28.604
33.0098
37.4043
41.7848
46.1488
50.494
54.818
59.1178
63.3903
67.6314
71.8378
76.0049
80.1289
84.2053
88.23
92.1991
96.1074
99.9495
103.721
107.42
111.044
114.584
118.029
121.374
124.634
127.823
130.926
133.889
136.665
139.277
141.864
144.486
147.224
149.709
151.791
153.243
154.028
154.916
156.194
157.999
161.033
164.103
166.042
166.261
163.877
156.474
139.952
144.462
162.271
176.537
181.414
173.67
169.109
197.756
199.197
170.744
174.365
181.585
176.946
162.784
144.83
140.018
156.533
163.934
166.262
165.971
163.935
160.759
157.632
155.768
154.455
153.552
152.763
151.306
149.22
146.732
143.996
141.387
138.82
136.235
133.49
130.56
127.492
124.34
121.12
117.816
114.413
110.917
107.337
103.683
99.9563
96.1602
92.2985
88.3763
84.3987
80.3698
76.2936
72.1736
68.0151
63.821
59.5961
55.3428
51.0645
46.7636
42.4423
38.1039
33.7518
29.3885
25.0149
20.6311
16.2377
11.8383
7.43317
3.02182
-1.3958
-5.81872
-10.2455
-14.6771
-19.1155
-23.5628
-28.0181
-32.4819
-36.9566
-41.4443
-45.9464
-50.4647
-55.0013
-59.5583
-64.1402
-68.7483
-73.3832
-78.0486
-82.7504
-87.4875
-92.2631
-97.0819
-101.946
-106.855
-111.814
-116.824
-121.89
-127.012
-132.188
-137.42
-142.713
-148.064
-153.472
-158.94
-164.466
-170.048
-175.681
-181.363
-187.097
-192.87
-198.681
-204.525
-210.393
-216.281
-222.178
-228.077
-233.966
-239.836
-245.677
-251.474
-257.214
-262.883
-268.465
-273.945
-279.31
-284.534
-289.603
-294.494
-299.188
-303.655
-307.874
-311.832
-315.479
-318.785
-321.716
-324.221
-326.271
-327.789
-328.735
-329.044
-328.526
-327.147
-324.803
-321.192
-316.06
-309.064
-299.825
-288.012
-273.104
-254.228
-229.916
-197.457
-154.055
-95.0161
-11.1152
119.267
287.015
520.002
737.261
819.117
735.385
516.606
283.003
115.482
-14.9553
-98.507
-157.143
-200.101
-232.073
-256.249
-275.317
-290.556
-302.741
-312.162
-319.12
-324.135
-327.618
-329.975
-331.295
-331.639
-331.307
-330.322
-328.715
-326.624
-324.076
-321.106
-317.747
-314.054
-310.084
-305.826
-301.314
-296.594
-291.678
-286.581
-281.332
-275.944
-270.442
-264.839
-259.15
-253.39
-247.574
-241.715
-235.828
-229.922
-224.008
-218.095
-212.193
-206.312
-200.454
-194.629
-188.844
-183.098
-177.404
-171.759
-166.165
-160.627
-155.148
-149.727
-144.365
-139.059
-133.813
-128.625
-123.492
-118.414
-113.391
-108.42
-103.495
-98.6152
-93.7806
-88.9887
-84.235
-79.5157
-74.8323
-70.1787
-65.5512
-60.949
-56.3711
-51.8127
-47.2718
-42.7461
-38.2339
-33.7336
-29.2435
-24.7608
-20.2852
-15.8173
-11.3553
-6.89705
-2.44159
2.00968
6.45566
10.8966
15.3327
19.764
24.1882
28.6042
33.01
37.4045
41.785
46.149
50.4942
54.8182
59.118
63.3905
67.6316
71.838
76.0051
80.1291
84.2055
88.2303
92.1993
96.1076
99.9497
103.721
107.421
111.044
114.584
118.029
121.374
124.634
127.824
130.926
133.889
136.665
139.277
141.864
144.486
147.224
149.709
151.79
153.243
154.029
154.917
156.196
158.002
161.034
164.101
166.037
166.252
163.865
156.481
140.065
144.613
162.332
176.535
181.411
173.808
169.298
197.595
198.992
170.913
174.575
181.607
176.922
162.856
145.046
140.197
156.552
163.917
166.249
165.963
163.932
160.76
157.637
155.772
154.458
153.553
152.762
151.306
149.22
146.732
143.997
141.388
138.821
136.236
133.49
130.56
127.492
124.341
121.12
117.816
114.413
110.917
107.337
103.683
99.9567
96.1605
92.2988
88.3766
84.3991
80.3701
76.2939
72.1739
68.0154
63.8213
59.5964
55.3431
51.0648
46.7638
42.4426
38.1042
33.7521
29.3888
25.0151
20.6313
16.238
11.8386
7.43343
3.02209
-1.39554
-5.81845
-10.2452
-14.6768
-19.1153
-23.5625
-28.0178
-32.4816
-36.9564
-41.4441
-45.9461
-50.4644
-55.001
-59.5581
-64.14
-68.7481
-73.3829
-78.0483
-82.7502
-87.4872
-92.2628
-97.0816
-101.945
-106.855
-111.813
-116.824
-121.889
-127.011
-132.188
-137.42
-142.713
-148.063
-153.472
-158.939
-164.466
-170.048
-175.681
-181.363
-187.097
-192.869
-198.68
-204.525
-210.392
-216.28
-222.178
-228.076
-233.966
-239.836
-245.676
-251.473
-257.213
-262.882
-268.464
-273.944
-279.309
-284.533
-289.602
-294.492
-299.187
-303.654
-307.873
-311.83
-315.478
-318.783
-321.714
-324.219
-326.269
-327.786
-328.732
-329.041
-328.523
-327.143
-324.799
-321.188
-316.055
-309.058
-299.817
-288.003
-273.093
-254.214
-229.899
-197.436
-154.027
-94.9787
-11.0604
119.349
287.133
520.099
737.271
819.085
735.396
516.705
283.123
115.564
-14.9001
-98.4694
-157.116
-200.08
-232.056
-256.235
-275.306
-290.547
-302.733
-312.157
-319.115
-324.131
-327.614
-329.971
-331.292
-331.636
-331.304
-330.32
-328.713
-326.622
-324.074
-321.105
-317.745
-314.053
-310.082
-305.825
-301.313
-296.593
-291.677
-286.58
-281.331
-275.944
-270.441
-264.838
-259.149
-253.389
-247.573
-241.715
-235.828
-229.922
-224.008
-218.095
-212.192
-206.311
-200.453
-194.629
-188.844
-183.098
-177.403
-171.759
-166.165
-160.627
-155.147
-149.727
-144.364
-139.058
-133.813
-128.625
-123.492
-118.414
-113.391
-108.419
-103.495
-98.6149
-93.7803
-88.9885
-84.2348
-79.5154
-74.832
-70.1784
-65.5509
-60.9487
-56.3708
-51.8124
-47.2715
-42.7458
-38.2336
-33.7334
-29.2432
-24.7605
-20.2849
-15.8171
-11.355
-6.89677
-2.44131
2.00997
6.45593
10.8969
15.333
19.7643
24.1885
28.6045
33.0103
37.4047
41.7853
46.1493
50.4945
54.8185
59.1183
63.3908
67.6319
71.8383
76.0054
80.1295
84.2058
88.2306
92.1996
96.108
99.9501
103.722
107.421
111.045
114.584
118.029
121.375
124.635
127.824
130.927
133.889
136.665
139.278
141.865
144.487
147.224
149.709
151.79
153.242
154.03
154.92
156.2
158.007
161.035
164.098
166.029
166.239
163.848
156.5
140.243
144.826
162.406
176.51
181.428
174.016
169.496
197.401
198.707
171.051
174.864
181.656
176.895
162.959
145.359
140.466
156.587
163.893
166.227
165.949
163.926
160.762
157.644
155.779
154.462
153.555
152.762
151.304
149.219
146.732
143.997
141.389
138.822
136.236
133.49
130.56
127.492
124.341
121.12
117.817
114.414
110.918
107.338
103.684
99.9571
96.161
92.2993
88.3771
84.3995
80.3706
76.2943
72.1743
68.0159
63.8218
59.5968
55.3435
51.0652
46.7643
42.443
38.1046
33.7525
29.3892
25.0155
20.6317
16.2383
11.839
7.43384
3.02248
-1.39514
-5.81805
-10.2448
-14.6764
-19.1149
-23.5621
-28.0174
-32.4812
-36.956
-41.4436
-45.9456
-50.464
-55.0005
-59.5577
-64.1396
-68.7477
-73.3825
-78.0479
-82.7497
-87.4868
-92.2624
-97.0812
-101.945
-106.854
-111.813
-116.823
-121.889
-127.011
-132.187
-137.42
-142.712
-148.063
-153.471
-158.939
-164.465
-170.047
-175.68
-181.362
-187.096
-192.869
-198.679
-204.524
-210.391
-216.279
-222.177
-228.075
-233.965
-239.835
-245.675
-251.472
-257.212
-262.88
-268.462
-273.943
-279.307
-284.531
-289.6
-294.491
-299.185
-303.652
-307.871
-311.828
-315.475
-318.78
-321.711
-324.216
-326.265
-327.782
-328.728
-329.036
-328.517
-327.137
-324.792
-321.18
-316.046
-309.047
-299.805
-287.987
-273.075
-254.192
-229.871
-197.402
-153.983
-94.9188
-10.9736
119.476
287.312
520.234
737.294
819.049
735.42
516.842
283.303
115.692
-14.8129
-98.409
-157.071
-200.045
-232.028
-256.213
-275.288
-290.532
-302.721
-312.147
-319.107
-324.124
-327.608
-329.966
-331.287
-331.631
-331.3
-330.316
-328.709
-326.619
-324.071
-321.102
-317.743
-314.05
-310.08
-305.823
-301.311
-296.591
-291.675
-286.578
-281.33
-275.942
-270.44
-264.836
-259.148
-253.388
-247.572
-241.714
-235.827
-229.921
-224.007
-218.094
-212.192
-206.31
-200.452
-194.628
-188.843
-183.097
-177.403
-171.758
-166.164
-160.626
-155.147
-149.726
-144.364
-139.058
-133.812
-128.624
-123.491
-118.413
-113.39
-108.419
-103.495
-98.6145
-93.7799
-88.988
-84.2343
-79.515
-74.8316
-70.178
-65.5505
-60.9483
-56.3704
-51.812
-47.2711
-42.7454
-38.2332
-33.7329
-29.2427
-24.7601
-20.2844
-15.8166
-11.3546
-6.89635
-2.44089
2.01038
6.45637
10.8973
15.3334
19.7647
24.189
28.6049
33.0107
37.4052
41.7858
46.1497
50.495
54.8189
59.1188
63.3913
67.6323
71.8388
76.0059
80.1299
84.2063
88.2311
92.2001
96.1084
99.9505
103.722
107.421
111.045
114.585
118.03
121.375
124.635
127.824
130.927
133.89
136.666
139.278
141.866
144.487
147.224
149.708
151.788
153.242
154.032
154.925
156.207
158.014
161.037
164.092
166.016
166.218
163.824
156.534
140.507
145.135
162.509
176.482
181.474
174.313
169.658
197.135
198.295
171.17
175.197
181.764
176.888
163.123
145.804
140.849
156.64
163.856
166.195
165.929
163.918
160.766
157.656
155.79
154.47
153.558
152.76
151.302
149.218
146.732
143.999
141.39
138.823
136.237
133.491
130.561
127.493
124.342
121.121
117.817
114.415
110.918
107.338
103.684
99.9578
96.1616
92.3
88.3778
84.4002
80.3713
76.295
72.175
68.0165
63.8224
59.5974
55.3442
51.0659
46.7649
42.4437
38.1052
33.7531
29.3898
25.0162
20.6324
16.239
11.8396
7.43444
3.02309
-1.39454
-5.81745
-10.2442
-14.6758
-19.1143
-23.5615
-28.0168
-32.4806
-36.9553
-41.443
-45.945
-50.4634
-54.9999
-59.557
-64.139
-68.7471
-73.3819
-78.0473
-82.7491
-87.4861
-92.2618
-97.0806
-101.944
-106.854
-111.812
-116.823
-121.888
-127.01
-132.187
-137.419
-142.711
-148.062
-153.47
-158.938
-164.464
-170.046
-175.679
-181.361
-187.095
-192.867
-198.678
-204.523
-210.39
-216.278
-222.175
-228.074
-233.963
-239.833
-245.673
-251.47
-257.21
-262.878
-268.46
-273.94
-279.305
-284.528
-289.597
-294.488
-299.182
-303.649
-307.867
-311.824
-315.471
-318.776
-321.707
-324.21
-326.259
-327.776
-328.721
-329.029
-328.509
-327.128
-324.782
-321.168
-316.033
-309.031
-299.786
-287.964
-273.047
-254.158
-229.829
-197.349
-153.916
-94.8278
-10.844
119.664
287.562
520.418
737.334
819.008
735.462
517.029
283.556
115.881
-14.6824
-98.3175
-157.004
-199.993
-231.986
-256.179
-275.26
-290.51
-302.703
-312.132
-319.094
-324.113
-327.598
-329.957
-331.28
-331.624
-331.294
-330.31
-328.704
-326.614
-324.066
-321.098
-317.739
-314.047
-310.077
-305.82
-301.308
-296.588
-291.672
-286.576
-281.327
-275.94
-270.437
-264.834
-259.146
-253.386
-247.57
-241.712
-235.825
-229.919
-224.005
-218.093
-212.19
-206.309
-200.451
-194.627
-188.842
-183.096
-177.402
-171.757
-166.163
-160.625
-155.146
-149.725
-144.363
-139.057
-133.811
-128.623
-123.49
-118.412
-113.39
-108.419
-103.494
-98.6138
-93.7792
-88.9874
-84.2337
-79.5144
-74.831
-70.1774
-65.5499
-60.9477
-56.3698
-51.8114
-47.2704
-42.7448
-38.2325
-33.7323
-29.2421
-24.7595
-20.2838
-15.816
-11.354
-6.89573
-2.44027
2.01101
6.45698
10.8979
15.3341
19.7654
24.1896
28.6055
33.0113
37.4058
41.7864
46.1504
50.4956
54.8196
59.1194
63.3919
67.633
71.8395
76.0066
80.1306
84.2069
88.2317
92.2008
96.1091
99.9512
103.723
107.422
111.046
114.585
118.031
121.376
124.636
127.825
130.928
133.89
136.666
139.279
141.867
144.489
147.224
149.707
151.786
153.241
154.035
154.932
156.218
158.026
161.041
164.084
165.996
166.186
163.788
156.587
140.884
145.574
162.673
176.478
181.577
174.667
169.796
196.745
197.705
171.264
175.541
181.957
176.921
163.394
146.411
141.367
156.712
163.803
166.148
165.899
163.906
160.772
157.675
155.806
154.48
153.562
152.759
151.298
149.216
146.733
144.001
141.392
138.824
136.238
133.491
130.562
127.494
124.343
121.122
117.818
114.416
110.919
107.339
103.685
99.9588
96.1626
92.3009
88.3788
84.4012
80.3722
76.296
72.1759
68.0175
63.8234
59.5984
55.3451
51.0668
46.7658
42.4446
38.1062
33.754
29.3907
25.0171
20.6333
16.2398
11.8405
7.43532
3.02396
-1.39366
-5.81658
-10.2434
-14.675
-19.1134
-23.5607
-28.0159
-32.4797
-36.9544
-41.4421
-45.9441
-50.4625
-54.9991
-59.5562
-64.1381
-68.7462
-73.381
-78.0464
-82.7482
-87.4852
-92.2608
-97.0796
-101.943
-106.853
-111.811
-116.822
-121.887
-127.009
-132.186
-137.418
-142.71
-148.061
-153.469
-158.937
-164.463
-170.044
-175.677
-181.36
-187.093
-192.866
-198.676
-204.521
-210.388
-216.276
-222.173
-228.072
-233.961
-239.83
-245.67
-251.467
-257.207
-262.875
-268.457
-273.937
-279.301
-284.524
-289.593
-294.483
-299.177
-303.644
-307.862
-311.818
-315.465
-318.769
-321.7
-324.203
-326.251
-327.768
-328.711
-329.018
-328.498
-327.115
-324.767
-321.152
-316.013
-309.008
-299.758
-287.931
-273.007
-254.109
-229.77
-197.275
-153.819
-94.6969
-10.6578
119.929
287.888
520.702
737.393
818.962
735.524
517.316
283.886
116.148
-14.4952
-98.1859
-156.907
-199.918
-231.926
-256.13
-275.22
-290.478
-302.678
-312.111
-319.077
-324.097
-327.585
-329.945
-331.269
-331.615
-331.285
-330.302
-328.696
-326.607
-324.06
-321.092
-317.733
-314.041
-310.072
-305.815
-301.303
-296.584
-291.668
-286.572
-281.324
-275.936
-270.434
-264.831
-259.143
-253.383
-247.568
-241.71
-235.823
-229.917
-224.003
-218.091
-212.188
-206.307
-200.449
-194.625
-188.84
-183.094
-177.4
-171.755
-166.162
-160.624
-155.145
-149.724
-144.362
-139.056
-133.81
-128.622
-123.489
-118.411
-113.389
-108.418
-103.493
-98.6129
-93.7783
-88.9865
-84.2328
-79.5135
-74.8301
-70.1765
-65.549
-60.9469
-56.3689
-51.8106
-47.2696
-42.7439
-38.2316
-33.7314
-29.2412
-24.7586
-20.2829
-15.8151
-11.3531
-6.89483
-2.43938
2.01189
6.45788
10.8988
15.335
19.7663
24.1905
28.6064
33.0123
37.4067
41.7873
46.1513
50.4966
54.8205
59.1204
63.3929
67.634
71.8404
76.0075
80.1316
84.2079
88.2327
92.2018
96.1101
99.9523
103.724
107.423
111.047
114.586
118.032
121.377
124.637
127.826
130.929
133.891
136.667
139.281
141.87
144.491
147.224
149.705
151.783
153.239
154.039
154.942
156.234
158.044
161.046
164.072
165.967
166.14
163.737
156.659
141.395
146.173
162.944
176.515
181.768
175.037
169.916
196.176
196.885
171.277
175.903
182.211
177.038
163.832
147.184
142.029
156.806
163.734
166.086
165.86
163.891
160.782
157.701
155.829
154.495
153.568
152.756
151.294
149.213
146.733
144.003
141.395
138.827
136.239
133.493
130.563
127.496
124.345
121.124
117.82
114.417
110.921
107.341
103.687
99.9602
96.164
92.3023
88.3801
84.4025
80.3736
76.2973
72.1773
68.0188
63.8247
59.5997
55.3464
51.0681
46.7671
42.4458
38.1074
33.7553
29.392
25.0183
20.6345
16.2411
11.8417
7.43653
3.02517
-1.39246
-5.81538
-10.2421
-14.6738
-19.1122
-23.5595
-28.0147
-32.4785
-36.9532
-41.4409
-45.9429
-50.4613
-54.9979
-59.555
-64.1369
-68.745
-73.3798
-78.0452
-82.747
-87.484
-92.2596
-97.0783
-101.942
-106.851
-111.81
-116.82
-121.886
-127.008
-132.184
-137.416
-142.709
-148.059
-153.467
-158.935
-164.461
-170.042
-175.675
-181.358
-187.091
-192.863
-198.674
-204.518
-210.385
-216.273
-222.17
-228.069
-233.957
-239.827
-245.667
-251.463
-257.203
-262.871
-268.452
-273.932
-279.296
-284.519
-289.587
-294.478
-299.171
-303.637
-307.855
-311.811
-315.457
-318.761
-321.691
-324.193
-326.241
-327.756
-328.699
-329.004
-328.482
-327.098
-324.748
-321.129
-315.987
-308.978
-299.722
-287.887
-272.953
-254.044
-229.689
-197.172
-153.686
-94.5163
-10.4015
120.291
288.314
521.119
737.475
818.909
735.609
517.737
284.315
116.512
-14.2375
-98.0044
-156.773
-199.815
-231.845
-256.065
-275.167
-290.434
-302.643
-312.082
-319.052
-324.076
-327.566
-329.929
-331.254
-331.601
-331.273
-330.291
-328.686
-326.598
-324.051
-321.084
-317.726
-314.034
-310.065
-305.809
-301.297
-296.578
-291.663
-286.567
-281.319
-275.932
-270.43
-264.827
-259.139
-253.38
-247.564
-241.706
-235.82
-229.914
-224
-218.088
-212.186
-206.305
-200.447
-194.623
-188.838
-183.092
-177.398
-171.753
-166.16
-160.622
-155.143
-149.723
-144.36
-139.054
-133.809
-128.621
-123.488
-118.41
-113.388
-108.417
-103.492
-98.6116
-93.777
-88.9852
-84.2316
-79.5123
-74.8289
-70.1753
-65.5478
-60.9457
-56.3677
-51.8094
-47.2684
-42.7427
-38.2304
-33.7302
-29.24
-24.7574
-20.2817
-15.8139
-11.3519
-6.89361
-2.43815
2.01313
6.45912
10.9001
15.3362
19.7675
24.1918
28.6077
33.0135
37.408
41.7886
46.1526
50.4979
54.8219
59.1217
63.3942
67.6353
71.8418
76.0089
80.133
84.2093
88.2341
92.2032
96.1116
99.9537
103.725
107.425
111.048
114.588
118.033
121.378
124.639
127.828
130.93
133.892
136.669
139.283
141.873
144.493
147.225
149.703
151.778
153.236
154.045
154.956
156.256
158.069
161.056
164.057
165.928
166.079
163.669
156.753
142.049
146.937
163.379
176.639
182.02
175.428
169.96
195.377
195.806
171.159
176.287
182.488
177.256
164.505
148.11
142.835
156.926
163.651
166.011
165.812
163.873
160.794
157.734
155.858
154.514
153.576
152.753
151.288
149.21
146.733
144.007
141.399
138.83
136.241
133.494
130.565
127.498
124.347
121.126
117.822
114.419
110.923
107.343
103.689
99.9621
96.1659
92.3042
88.382
84.4043
80.3754
76.2991
72.1791
68.0206
63.8264
59.6014
55.3481
51.0698
46.7688
42.4475
38.1091
33.7569
29.3936
25.0199
20.6361
16.2427
11.8433
7.43814
3.02678
-1.39087
-5.81378
-10.2406
-14.6722
-19.1106
-23.5579
-28.0132
-32.4769
-36.9517
-41.4393
-45.9413
-50.4597
-54.9963
-59.5534
-64.1353
-68.7434
-73.3782
-78.0436
-82.7454
-87.4823
-92.2579
-97.0766
-101.94
-106.85
-111.808
-116.818
-121.884
-127.006
-132.183
-137.414
-142.706
-148.057
-153.465
-158.932
-164.458
-170.04
-175.673
-181.355
-187.088
-192.86
-198.671
-204.515
-210.382
-216.269
-222.167
-228.065
-233.953
-239.823
-245.662
-251.459
-257.198
-262.866
-268.447
-273.926
-279.29
-284.513
-289.58
-294.47
-299.163
-303.629
-307.846
-311.801
-315.447
-318.75
-321.679
-324.18
-326.227
-327.741
-328.682
-328.986
-328.462
-327.075
-324.722
-321.1
-315.954
-308.938
-299.674
-287.829
-272.883
-253.958
-229.583
-197.038
-153.51
-94.2752
-10.0589
120.773
288.876
521.634