/*--------------------------------*- C++ -*----------------------------------*\
| =========                 |                                                 |
| \\      /  F ield         | OpenFOAM: The Open Source CFD Toolbox           |
|  \\    /   O peration     | Version:  2412                                  |
|   \\  /    A nd           | Website:  www.openfoam.com                      |
|    \\/     M anipulation  |                                                 |
\*---------------------------------------------------------------------------*/
FoamFile
{
    version     2.0;
    format      ascii;
    arch        "LSB;label=32;scalar=64";
    class       volScalarField;
    location    "100";
    object      p;
}
// * * * * * * * * * * * * * * * * * * * * * * * * * * * * * * * * * * * * * //

dimensions      [0 2 -2 0 0 0 0];

internalField   nonuniform List<scalar> 
32591
(
197.466
174.034
168.895
175.497
182.666
177.964
158.524
143.82
147.634
162.066
166.075
167.497
166.297
163.674
160.116
157.527
155.927
154.851
154.096
152.877
150.815
148.279
145.414
142.65
139.918
137.187
134.26
131.144
127.89
124.565
121.163
117.67
114.076
110.393
106.633
102.801
98.9012
94.9354
90.9102
86.8309
82.7021
78.5278
74.3123
70.0602
65.7753
61.4616
57.1224
52.7612
48.3809
43.9839
39.5719
35.1478
30.714
26.271
21.8219
17.3673
12.9081
8.44565
3.97862
-0.492487
-4.96738
-9.44449
-13.9248
-18.4105
-22.9038
-27.4036
-31.9109
-36.428
-40.957
-45.4991
-50.0564
-54.6304
-59.2339
-63.8413
-68.4857
-73.1637
-77.8473
-82.5803
-87.3479
-92.1535
-97.002
-101.894
-106.833
-111.819
-116.858
-121.95
-127.098
-132.3
-137.56
-142.879
-148.255
-153.69
-159.183
-164.733
-170.339
-175.996
-181.701
-187.458
-193.252
-199.083
-204.947
-210.832
-216.736
-222.648
-228.56
-234.459
-240.336
-246.18
-251.978
-257.717
-263.382
-268.958
-274.431
-279.784
-284.995
-290.048
-294.92
-299.593
-304.042
-308.236
-312.154
-315.756
-319.043
-321.971
-324.46
-326.497
-328.001
-328.916
-329.215
-328.795
-327.53
-325.311
-321.857
-316.886
-310.02
-300.961
-289.545
-275.348
-257.882
-235.913
-207.392
-169.807
-120.003
-50.9884
48.8167
177.258
357.792
573.99
754.542
818.925
751.856
568.977
351.641
171.078
42.32
-56.9056
-125.52
-174.914
-212.003
-239.986
-261.411
-278.789
-293.225
-305.166
-314.372
-321.076
-325.883
-329.241
-331.401
-332.61
-333.012
-332.659
-331.602
-329.982
-327.881
-325.324
-322.317
-318.955
-315.289
-311.311
-307.06
-302.557
-297.834
-292.913
-287.814
-282.56
-277.165
-271.654
-266.041
-260.342
-254.57
-248.741
-242.868
-236.963
-231.039
-225.104
-219.169
-213.243
-207.338
-201.457
-195.608
-189.799
-184.028
-178.309
-172.638
-167.018
-161.453
-155.946
-150.497
-145.106
-139.771
-134.496
-129.278
-124.115
-119.007
-113.953
-108.951
-103.998
-99.0904
-94.2277
-89.408
-84.6408
-79.8964
-75.17
-70.486
-65.8298
-61.1992
-56.5925
-52.0051
-47.4344
-42.8783
-38.335
-33.8026
-29.2793
-24.7624
-20.2512
-15.7464
-11.2459
-6.74733
-2.24975
2.24544
6.7377
11.227
15.7143
20.1989
24.6794
29.1532
33.621
38.0819
42.5325
46.9696
51.3912
55.7958
60.1804
64.5417
68.8766
73.1807
77.4505
81.6818
85.87
90.0114
94.1015
98.135
102.106
106.01
109.846
113.609
117.285
120.862
124.351
127.764
131.108
134.314
137.331
140.148
142.938
145.775
148.738
151.365
153.511
154.8
155.612
156.736
158.369
160.975
164.531
167.124
168.248
166.745
162.498
147.923
143.442
158.28
174.248
175.109
171.895
168.374
173.963
196.641
197.317
174.114
168.997
175.521
182.641
177.95
158.594
143.903
147.661
162.054
166.065
167.492
166.295
163.674
160.117
157.528
155.928
154.851
154.096
152.876
150.815
148.279
145.414
142.65
139.918
137.187
134.26
131.144
127.89
124.565
121.163
117.67
114.076
110.393
106.633
102.802
98.9013
94.9355
90.9102
86.831
82.7021
78.5278
74.3124
70.0602
65.7753
61.4616
57.1224
52.7612
48.3809
43.9839
39.5719
35.1478
30.714
26.271
21.8219
17.3673
12.9081
8.44562
3.97861
-0.492515
-4.9674
-9.4445
-13.9248
-18.4105
-22.9038
-27.4037
-31.911
-36.428
-40.957
-45.4991
-50.0565
-54.6304
-59.2338
-63.8412
-68.4857
-73.1634
-77.8472
-82.5802
-87.3477
-92.1534
-97.0018
-101.894
-106.832
-111.819
-116.858
-121.95
-127.098
-132.3
-137.559
-142.879
-148.255
-153.69
-159.182
-164.733
-170.339
-175.995
-181.701
-187.458
-193.251
-199.083
-204.947
-210.832
-216.736
-222.648
-228.56
-234.459
-240.336
-246.18
-251.978
-257.717
-263.382
-268.958
-274.431
-279.784
-284.995
-290.048
-294.92
-299.593
-304.042
-308.236
-312.154
-315.756
-319.043
-321.971
-324.46
-326.497
-328.001
-328.916
-329.214
-328.794
-327.53
-325.31
-321.856
-316.885
-310.02
-300.961
-289.544
-275.347
-257.881
-235.912
-207.39
-169.805
-119.999
-50.9836
48.8234
177.27
357.803
573.986
754.515
818.895
751.829
568.973
351.652
171.089
42.327
-56.901
-125.517
-174.911
-212
-239.985
-261.41
-278.788
-293.224
-305.165
-314.372
-321.076
-325.883
-329.241
-331.4
-332.609
-333.012
-332.658
-331.601
-329.982
-327.881
-325.324
-322.317
-318.955
-315.288
-311.311
-307.059
-302.557
-297.834
-292.913
-287.814
-282.56
-277.165
-271.654
-266.041
-260.341
-254.57
-248.741
-242.867
-236.963
-231.039
-225.103
-219.169
-213.243
-207.338
-201.456
-195.608
-189.799
-184.028
-178.309
-172.638
-167.018
-161.453
-155.946
-150.497
-145.106
-139.771
-134.495
-129.278
-124.114
-119.006
-113.953
-108.951
-103.998
-99.0903
-94.2276
-89.4079
-84.6405
-79.8963
-75.17
-70.486
-65.8298
-61.1992
-56.5925
-52.0052
-47.4345
-42.8784
-38.335
-33.8026
-29.2794
-24.7624
-20.2512
-15.7464
-11.2459
-6.74734
-2.24977
2.24543
6.73769
11.227
15.7143
20.1989
24.6794
29.1532
33.621
38.0819
42.5325
46.9696
51.3912
55.7958
60.1804
64.5417
68.8766
73.1807
77.4505
81.6818
85.8701
90.0114
94.1015
98.135
102.106
106.01
109.847
113.609
117.285
120.862
124.351
127.764
131.108
134.314
137.331
140.148
142.938
145.775
148.738
151.365
153.511
154.8
155.613
156.737
158.37
160.976
164.531
167.122
168.243
166.735
162.484
147.948
143.527
158.345
174.241
175.102
171.914
168.46
174.035
196.496
197.144
174.241
169.181
175.561
182.63
177.925
158.688
144.04
147.72
162.044
166.053
167.485
166.291
163.673
160.119
157.531
155.929
154.852
154.096
152.876
150.815
148.279
145.413
142.649
139.918
137.187
134.26
131.144
127.89
124.565
121.163
117.67
114.076
110.393
106.633
102.802
98.9014
94.9356
90.9103
86.8311
82.7022
78.5279
74.3124
70.0603
65.7754
61.4617
57.1225
52.7613
48.381
43.984
39.572
35.1479
30.714
26.271
21.822
17.3674
12.9081
8.44569
3.97866
-0.492451
-4.96734
-9.44445
-13.9248
-18.4105
-22.9037
-27.4036
-31.9109
-36.4279
-40.9569
-45.4991
-50.0564
-54.6303
-59.2335
-63.8411
-68.4856
-73.163
-77.847
-82.58
-87.3476
-92.1532
-97.0017
-101.894
-106.832
-111.819
-116.857
-121.95
-127.097
-132.3
-137.559
-142.879
-148.255
-153.689
-159.182
-164.733
-170.339
-175.995
-181.701
-187.458
-193.251
-199.083
-204.946
-210.832
-216.736
-222.648
-228.559
-234.459
-240.336
-246.18
-251.978
-257.717
-263.381
-268.958
-274.43
-279.784
-284.994
-290.047
-294.92
-299.593
-304.041
-308.235
-312.153
-315.756
-319.043
-321.97
-324.459
-326.496
-328
-328.915
-329.213
-328.793
-327.528
-325.308
-321.854
-316.884
-310.018
-300.958
-289.541
-275.342
-257.876
-235.906
-207.383
-169.795
-119.987
-50.9657
48.8491
177.31
357.852
574.013
754.496
818.859
751.811
569.002
351.702
171.13
42.3532
-56.8834
-125.505
-174.901
-211.993
-239.979
-261.405
-278.784
-293.22
-305.163
-314.37
-321.074
-325.881
-329.239
-331.399
-332.608
-333.011
-332.657
-331.6
-329.981
-327.88
-325.323
-322.317
-318.955
-315.288
-311.311
-307.059
-302.557
-297.833
-292.913
-287.814
-282.56
-277.165
-271.654
-266.041
-260.341
-254.57
-248.741
-242.867
-236.963
-231.038
-225.103
-219.168
-213.243
-207.338
-201.456
-195.608
-189.799
-184.028
-178.309
-172.638
-167.018
-161.453
-155.946
-150.497
-145.106
-139.77
-134.495
-129.277
-124.114
-119.006
-113.952
-108.95
-103.997
-99.0902
-94.2274
-89.4077
-84.6401
-79.896
-75.17
-70.4859
-65.8297
-61.1992
-56.5925
-52.0051
-47.4344
-42.8783
-38.3349
-33.8025
-29.2793
-24.7624
-20.2511
-15.7463
-11.2458
-6.74727
-2.24969
2.2455
6.73777
11.2271
15.7144
20.199
24.6795
29.1533
33.6211
38.0819
42.5326
46.9697
51.3913
55.7959
60.1805
64.5418
68.8767
73.1808
77.4507
81.6819
85.8702
90.0116
94.1017
98.1352
102.106
106.011
109.847
113.609
117.285
120.862
124.351
127.764
131.108
134.314
137.331
140.149
142.938
145.775
148.738
151.365
153.51
154.799
155.613
156.738
158.373
160.978
164.531
167.118
168.236
166.722
162.474
148.006
143.668
158.437
174.235
175.106
171.948
168.617
174.144
196.329
196.931
174.398
169.475
175.646
182.645
177.899
158.814
144.262
147.839
162.042
166.037
167.473
166.285
163.672
160.122
157.535
155.933
154.854
154.096
152.875
150.814
148.278
145.412
142.648
139.919
137.188
134.26
131.144
127.89
124.566
121.164
117.671
114.076
110.393
106.633
102.802
98.9016
94.9358
90.9106
86.8313
82.7025
78.5281
74.3127
70.0605
65.7756
61.4619
57.1227
52.7615
48.3812
43.9842
39.5722
35.1481
30.7142
26.2713
21.8222
17.3676
12.9083
8.44589
3.97887
-0.492248
-4.96714
-9.44425
-13.9246
-18.4103
-22.9035
-27.4034
-31.9107
-36.4277
-40.9567
-45.4989
-50.0562
-54.6301
-59.233
-63.8408
-68.4854
-73.1624
-77.8468
-82.5798
-87.3473
-92.153
-97.0014
-101.894
-106.832
-111.819
-116.857
-121.95
-127.097
-132.299
-137.559
-142.879
-148.255
-153.689
-159.182
-164.733
-170.338
-175.995
-181.701
-187.457
-193.251
-199.082
-204.946
-210.831
-216.736
-222.648
-228.559
-234.458
-240.335
-246.179
-251.977
-257.716
-263.381
-268.957
-274.429
-279.783
-284.993
-290.046
-294.919
-299.591
-304.04
-308.234
-312.152
-315.755
-319.042
-321.968
-324.457
-326.494
-327.998
-328.912
-329.21
-328.79
-327.525
-325.304
-321.849
-316.878
-310.013
-300.952
-289.532
-275.331
-257.863
-235.89
-207.363
-169.771
-119.954
-50.9219
48.9115
177.405
357.967
574.092
754.491
818.819
751.808
569.083
351.818
171.226
42.4168
-56.8402
-125.473
-174.876
-211.972
-239.963
-261.392
-278.773
-293.211
-305.156
-314.365
-321.069
-325.876
-329.235
-331.396
-332.605
-333.008
-332.655
-331.598
-329.979
-327.878
-325.321
-322.316
-318.954
-315.287
-311.309
-307.058
-302.556
-297.832
-292.912
-287.813
-282.559
-277.164
-271.653
-266.04
-260.34
-254.569
-248.74
-242.867
-236.962
-231.038
-225.103
-219.168
-213.242
-207.338
-201.456
-195.608
-189.798
-184.028
-178.308
-172.638
-167.018
-161.453
-155.946
-150.497
-145.106
-139.77
-134.495
-129.277
-124.114
-119.006
-113.952
-108.95
-103.997
-99.0899
-94.2271
-89.4075
-84.6395
-79.8954
-75.1697
-70.4857
-65.8295
-61.1989
-56.5922
-52.0049
-47.4342
-42.8781
-38.3347
-33.8023
-29.2791
-24.7622
-20.2509
-15.7461
-11.2456
-6.74704
-2.24947
2.24572
6.73799
11.2273
15.7146
20.1992
24.6797
29.1535
33.6213
38.0822
42.5329
46.9699
51.3915
55.7961
60.1808
64.5421
68.877
73.1811
77.4509
81.6822
85.8705
90.0118
94.1019
98.1354
102.106
106.011
109.847
113.609
117.285
120.863
124.351
127.764
131.108
134.314
137.332
140.149
142.939
145.776
148.738
151.364
153.509
154.799
155.615
156.742
158.378
160.981
164.529
167.112
168.223
166.704
162.469
148.123
143.895
158.563
174.228
175.137
172.025
168.874
174.277
196.122
196.594
174.567
169.84
175.806
182.704
177.924
159.017
144.625
148.047
162.046
166.01
167.452
166.273
163.669
160.128
157.544
155.939
154.857
154.096
152.874
150.813
148.278
145.41
142.647
139.92
137.188
134.261
131.145
127.891
124.566
121.164
117.671
114.077
110.394
106.634
102.802
98.9021
94.9363
90.9111
86.8318
82.7029
78.5286
74.3132
70.061
65.7761
61.4624
57.1232
52.7619
48.3817
43.9846
39.5726
35.1485
30.7147
26.2717
21.8227
17.368
12.9088
8.44634
3.97931
-0.491809
-4.96671
-9.44381
-13.9241
-18.4098
-22.9031
-27.403
-31.9103
-36.4273
-40.9563
-45.4984
-50.0558
-54.6297
-59.2319
-63.8404
-68.4849
-73.1614
-77.8463
-82.5794
-87.3469
-92.1525
-97.001
-101.893
-106.832
-111.818
-116.857
-121.949
-127.097
-132.299
-137.558
-142.878
-148.254
-153.688
-159.181
-164.732
-170.338
-175.994
-181.7
-187.456
-193.25
-199.081
-204.945
-210.83
-216.735
-222.646
-228.558
-234.457
-240.334
-246.178
-251.976
-257.714
-263.379
-268.955
-274.428
-279.781
-284.991
-290.044
-294.916
-299.589
-304.037
-308.231
-312.149
-315.752
-319.04
-321.965
-324.453
-326.49
-327.993
-328.907
-329.205
-328.784
-327.518
-325.295
-321.839
-316.868
-310.002
-300.939
-289.514
-275.31
-257.837
-235.859
-207.325
-169.724
-119.891
-50.838
49.0295
177.577
358.172
574.238
754.505
818.778
751.824
569.232
352.026
171.399
42.5366
-56.7567
-125.412
-174.827
-211.932
-239.931
-261.366
-278.752
-293.194
-305.144
-314.355
-321.06
-325.866
-329.226
-331.389
-332.6
-333.003
-332.65
-331.594
-329.975
-327.875
-325.318
-322.314
-318.951
-315.284
-311.307
-307.055
-302.553
-297.83
-292.91
-287.811
-282.557
-277.162
-271.651
-266.038
-260.339
-254.567
-248.739
-242.865
-236.961
-231.037
-225.102
-219.167
-213.241
-207.337
-201.455
-195.607
-189.798
-184.027
-178.307
-172.637
-167.017
-161.452
-155.945
-150.496
-145.105
-139.77
-134.494
-129.277
-124.113
-119.005
-113.952
-108.95
-103.997
-99.0894
-94.2267
-89.407
-84.6385
-79.8943
-75.1692
-70.4852
-65.8291
-61.1985
-56.5918
-52.0044
-47.4337
-42.8776
-38.3343
-33.8019
-29.2786
-24.7617
-20.2504
-15.7456
-11.2451
-6.74659
-2.249
2.24619
6.73846
11.2278
15.7151
20.1997
24.6802
29.154
33.6218
38.0827
42.5334
46.9704
51.392
55.7966
60.1813
64.5426
68.8775
73.1816
77.4514
81.6827
85.871
90.0124
94.1025
98.136
102.107
106.011
109.848
113.61
117.286
120.863
124.352
127.765
131.109
134.315
137.332
140.15
142.94
145.777
148.738
151.363
153.508
154.799
155.618
156.748
158.387
160.987
164.526
167.1
168.202
166.675
162.469
148.328
144.265
158.765
174.258
175.207
172.171
169.212
174.413
195.797
196.049
174.694
170.166
176.063
182.805
178.034
159.37
145.179
148.366
162.05
165.965
167.417
166.253
163.664
160.139
157.559
155.951
154.863
154.096
152.871
150.811
148.276
145.408
142.645
139.921
137.189
134.261
131.146
127.892
124.567
121.165
117.672
114.078
110.395
106.635
102.803
98.903
94.9372
90.9119
86.8326
82.7038
78.5294
74.314
70.0618
65.7769
61.4632
57.124
52.7627
48.3825
43.9854
39.5734
35.1493
30.7155
26.2725
21.8234
17.3688
12.9096
8.4471
3.98007
-0.491046
-4.96594
-9.44305
-13.9234
-18.4091
-22.9023
-27.4022
-31.9095
-36.4265
-40.9555
-45.4977
-50.055
-54.6289
-59.2303
-63.8397
-68.4841
-73.1601
-77.8457
-82.5787
-87.3462
-92.1518
-97.0002
-101.893
-106.831
-111.817
-116.856
-121.948
-127.096
-132.298
-137.557
-142.877
-148.253
-153.687
-159.18
-164.731
-170.337
-175.993
-181.699
-187.455
-193.249
-199.08
-204.943
-210.828
-216.733
-222.645
-228.556
-234.455
-240.332
-246.176
-251.974
-257.712
-263.376
-268.952
-274.425
-279.778
-284.988
-290.041
-294.913
-299.585
-304.033
-308.227
-312.144
-315.748
-319.035
-321.959
-324.446
-326.483
-327.985
-328.899
-329.196
-328.774
-327.507
-325.28
-321.823
-316.851
-309.983
-300.917
-289.486
-275.276
-257.795
-235.808
-207.262
-169.644
-119.788
-50.6998
49.2223
177.85
358.489
574.464
754.541
818.732
751.863
569.463
352.347
171.675
42.7321
-56.6184
-125.309
-174.745
-211.867
-239.879
-261.323
-278.717
-293.166
-305.123
-314.337
-321.044
-325.851
-329.212
-331.378
-332.59
-332.995
-332.642
-331.587
-329.969
-327.868
-325.312
-322.31
-318.947
-315.279
-311.302
-307.051
-302.55
-297.826
-292.906
-287.808
-282.554
-277.16
-271.648
-266.036
-260.337
-254.565
-248.736
-242.863
-236.959
-231.035
-225.1
-219.165
-213.24
-207.335
-201.454
-195.605
-189.796
-184.026
-178.306
-172.636
-167.016
-161.451
-155.944
-150.495
-145.104
-139.769
-134.493
-129.276
-124.113
-119.005
-113.951
-108.949
-103.996
-99.0887
-94.2259
-89.4063
-84.6372
-79.8926
-75.1684
-70.4844
-65.8282
-61.1977
-56.591
-52.0036
-47.4329
-42.8768
-38.3335
-33.8011
-29.2778
-24.7609
-20.2496
-15.7448
-11.2443
-6.74579
-2.24821
2.24699
6.73925
11.2286
15.7159
20.2005
24.681
29.1548
33.6226
38.0835
42.5342
46.9713
51.3929
55.7974
60.1821
64.5434
68.8783
73.1824
77.4523
81.6836
85.8719
90.0132
94.1034
98.1369
102.108
106.012
109.848
113.611
117.287
120.864
124.353
127.766
131.11
134.315
137.333
140.151
142.942
145.778
148.738
151.361
153.505
154.799
155.624
156.76
158.402
160.999
164.522
167.079
168.166
166.628
162.47
148.645
144.827
159.107
174.345
175.309
172.403
169.566
174.516
195.273
195.239
174.678
170.418
176.441
182.927
178.214
159.918
145.945
148.804
162.049
165.897
167.365
166.224
163.659
160.156
157.583
155.968
154.872
154.096
152.866
150.808
148.275
145.406
142.644
139.923
137.19
134.262
131.147
127.893
124.569
121.167
117.673
114.079
110.396
106.636
102.805
98.9043
94.9385
90.9133
86.8339
82.7051
78.5307
74.3153
70.063
65.7782
61.4644
57.1252
52.764
48.3837
43.9866
39.5746
35.1505
30.7167
26.2737
21.8246
17.37
12.9107
8.44826
3.98123
-0.489897
-4.9648
-9.44191
-13.9222
-18.408
-22.9012
-27.4011
-31.9084
-36.4254
-40.9544
-45.4965
-50.0538
-54.6277
-59.2283
-63.8387
-68.483
-73.1584
-77.8446
-82.5776
-87.3451
-92.1507
-96.9991
-101.892
-106.83
-111.816
-116.855
-121.947
-127.095
-132.297
-137.556
-142.876
-148.252
-153.686
-159.179
-164.729
-170.335
-175.991
-181.697
-187.453
-193.247
-199.078
-204.941
-210.826
-216.73
-222.642
-228.553
-234.452
-240.329
-246.173
-251.97
-257.708
-263.372
-268.948
-274.42
-279.773
-284.983
-290.035
-294.907
-299.579
-304.027
-308.22
-312.137
-315.741
-319.028
-321.95
-324.437
-326.472
-327.974
-328.887
-329.182
-328.759
-327.49
-325.26
-321.8
-316.827
-309.956
-300.884
-289.444
-275.225
-257.734
-235.733
-207.17
-169.527
-119.635
-50.4948
49.5075
178.246
358.932
574.777
754.598
818.681
751.925
569.783
352.797
172.074
43.0205
-56.4126
-125.157
-174.626
-211.772
-239.804
-261.261
-278.665
-293.124
-305.091
-314.311
-321.021
-325.83
-329.193
-331.363
-332.576
-332.982
-332.631
-331.576
-329.959
-327.859
-325.304
-322.303
-318.941
-315.272
-311.296
-307.045
-302.544
-297.821
-292.901
-287.803
-282.55
-277.155
-271.644
-266.032
-260.333
-254.562
-248.733
-242.86
-236.956
-231.032
-225.097
-219.163
-213.237
-207.333
-201.451
-195.603
-189.794
-184.024
-178.304
-172.634
-167.014
-161.449
-155.942
-150.494
-145.103
-139.767
-134.492
-129.274
-124.111
-119.003
-113.95
-108.948
-103.995
-99.0875
-94.2248
-89.4052
-84.6354
-79.8905
-75.1671
-70.4832
-65.8271
-61.1965
-56.5898
-52.0025
-47.4318
-42.8757
-38.3323
-33.7999
-29.2767
-24.7597
-20.2485
-15.7437
-11.2431
-6.74461
-2.24703
2.24818
6.74044
11.2298
15.7171
20.2017
24.6822
29.1561
33.6239
38.0847
42.5354
46.9725
51.3941
55.7987
60.1834
64.5447
68.8796
73.1838
77.4536
81.6849
85.8732
90.0146
94.1047
98.1382
102.109
106.014
109.85
113.612
117.288
120.866
124.354
127.767
131.111
134.317
137.334
140.154
142.945
145.781
148.738
151.358
153.5
154.799
155.633
156.778
158.426
161.017
164.516
167.049
168.112
166.559
162.468
149.08
145.598
159.629
174.458
175.426
172.729
169.896
174.502
194.496
194.127
174.447
170.621
176.912
183.042
178.493
160.72
146.899
149.346
162.044
165.81
167.296
166.185
163.652
160.181
157.615
155.992
154.884
154.096
152.86
150.803
148.273
145.406
142.645
139.926
137.192
134.264
131.149
127.895
124.571
121.169
117.675
114.081
110.398
106.638
102.807
98.9062
94.9404
90.9151
86.8358
82.7069
78.5325
74.317
70.0648
65.7799
61.4662
57.1269
52.7657
48.3854
43.9883
39.5763
35.1522
30.7183
26.2753
21.8262
17.3716
12.9123
8.44985
3.9828
-0.488324
-4.96323
-9.44035
-13.9207
-18.4064
-22.8997
-27.3996
-31.9068
-36.4239
-40.9529
-45.495
-50.0523
-54.6261
-59.2261
-63.8372
-68.4814
-73.1563
-77.8432
-82.5761
-87.3436
-92.1492
-96.9976
-101.89
-106.828
-111.815
-116.853
-121.945
-127.093
-132.295
-137.554
-142.874
-148.25
-153.684
-159.176
-164.727
-170.333
-175.989
-181.694
-187.45
-193.244
-199.075
-204.938
-210.823
-216.727
-222.638
-228.549
-234.448
-240.325
-246.168
-251.965
-257.703
-263.367
-268.943
-274.414
-279.767
-284.977
-290.028
-294.9
-299.571
-304.018
-308.211
-312.127
-315.732
-319.019
-321.938
-324.424
-326.459
-327.959
-328.87
-329.164
-328.739
-327.468
-325.234
-321.771
-316.794
-309.919
-300.84
-289.387
-275.157
-257.651
-235.632
-207.044
-169.367
-119.425
-50.2123
49.9006
178.783
359.507
575.178
754.675
818.622
752.008
570.194
353.381
172.616
43.4173
-56.1283
-124.947
-174.465
-211.645
-239.702
-261.178
-278.597
-293.068
-305.048
-314.276
-320.99
-325.802
-329.168
-331.342
-332.557
-332.965
-332.616
-331.562
-329.946
-327.847
-325.293
-322.294
-318.932
-315.263
-311.287
-307.037
-302.536
-297.814
-292.895
-287.797
-282.544
-277.15
-271.639
-266.027
-260.328
-254.557
-248.729
-242.856
-236.952
-231.028
-225.094
-219.159
-213.234
-207.33
-201.448
-195.6
-189.792
-184.021
-178.302
-172.632
-167.012
-161.447
-155.94
-150.492
-145.101
-139.765
-134.49
-129.273
-124.11
-119.002
-113.948
-108.946
-103.993
-99.086
-94.2233
-89.4037
-84.6332
-79.8882
-75.1655
-70.4816
-65.8255
-61.1949
-56.5882
-52.0009
-47.4302
-42.8741
-38.3307
-33.7983
-29.2751
-24.7582
-20.2469
-15.7421
-11.2415
-6.74301
-2.24541
2.24979
6.74208
11.2314
15.7188
20.2034
24.6839
29.1577
33.6255
38.0864
42.5371
46.9743
51.3959
55.8005
60.1852
64.5465
68.8814
73.1856
77.4555
81.6868
85.8751
90.0165
94.1066
98.1402
102.111
106.016
109.852
113.614
117.29
120.868
124.357
127.769
131.113
134.318
137.336
140.157
142.949
145.784
148.738
151.354
153.494
154.799
155.646
156.802
158.46
161.042
164.51
167.01
168.043
166.471
162.462
149.622
146.556
160.396
174.623
175.548
173.13
170.191
174.299
193.437
192.73
174.008
170.772
177.408
183.151
178.959
161.866
148.01
149.978
162.043
165.712
167.215
166.139
163.645
160.213
157.657
156.022
154.9
154.096
152.852
150.798
148.271
145.407
142.648
139.93
137.194
134.266
131.151
127.898
124.574
121.171
117.678
114.083
110.4
106.64
102.809
98.9086
94.9428
90.9175
86.8381
82.7092
78.5348
74.3193
70.0671
65.7822
61.4684
57.1291
52.7679
48.3876
43.9905
39.5784
35.1543
30.7204
26.2774
21.8283
17.3736
12.9144
8.45188
3.98482
-0.486323
-4.96124
-9.43837
-13.9187
-18.4045
-22.8977
-27.3976
-31.9049
-36.4219
-40.9509
-45.4931
-50.0504
-54.6241
-59.2236
-63.8354
-68.4794
-73.1538
-77.8413
-82.5742
-87.3417
-92.1473
-96.9956
-101.888
-106.826
-111.813
-116.851
-121.943
-127.09
-132.292
-137.552
-142.871
-148.247
-153.681
-159.174
-164.724
-170.33
-175.985
-181.691
-187.447
-193.24
-199.071
-204.934
-210.819
-216.723
-222.634
-228.544
-234.443
-240.319
-246.163
-251.96
-257.697
-263.361
-268.936
-274.407
-279.759
-284.968
-290.02
-294.89
-299.561
-304.008
-308.2
-312.115
-315.72
-319.006
-321.923
-324.409
-326.442
-327.941
-328.85
-329.142
-328.714
-327.44
-325.202
-321.734
-316.753
-309.871
-300.782
-289.316
-275.07
-257.547
-235.503
-206.883
-169.161
-119.153
-49.8415
50.415
179.463
360.218
575.664
754.769
818.554
752.11
570.691
354.101
173.305
43.9364
-55.755
-124.674
-174.256
-211.482
-239.572
-261.072
-278.51
-292.997
-304.992
-314.23
-320.951
-325.767
-329.138
-331.316
-332.534
-332.944
-332.596
-331.544
-329.93
-327.832
-325.279
-322.281
-318.921
-315.252
-311.276
-307.027
-302.527
-297.805
-292.886
-287.789
-282.536
-277.143
-271.632
-266.02
-260.322
-254.551
-248.723
-242.851
-236.948
-231.024
-225.089
-219.155
-213.23
-207.326
-201.445
-195.597
-189.788
-184.018
-178.299
-172.629
-167.009
-161.444
-155.938
-150.489
-145.098
-139.763
-134.488
-129.27
-124.107
-118.999
-113.946
-108.944
-103.991
-99.084
-94.2213
-89.4017
-84.6307
-79.8855
-75.1634
-70.4796
-65.8235
-61.1929
-56.5862
-51.9989
-47.4282
-42.8721
-38.3288
-33.7963
-29.2731
-24.7562
-20.2449
-15.7401
-11.2395
-6.74096
-2.24336
2.25186
6.74416
11.2335
15.7209
20.2055
24.686
29.1599
33.6277
38.0886
42.5394
46.9765
51.3981
55.8028
60.1875
64.5488
68.8838
73.1879
77.4579
81.6892
85.8775
90.019
94.1091
98.1427
102.113
106.018
109.854
113.617
117.293
120.871
124.359
127.772
131.115
134.32
137.339
140.161
142.954
145.789
148.738
151.35
153.487
154.799
155.662
156.832
158.501
161.074
164.503
166.964
167.962
166.372
162.46
150.254
147.67
161.502
174.943
175.678
173.557
170.437
173.912
192.118
191.109
173.388
170.852
177.848
183.312
179.587
163.314
149.22
150.69
162.058
165.613
167.126
166.087
163.637
160.25
157.705
156.057
154.919
154.097
152.844
150.792
148.27
145.41
142.652
139.935
137.197
134.268
131.154
127.901
124.577
121.174
117.681
114.087
110.403
106.643
102.812
98.9116
94.9457
90.9204
86.841
82.7121
78.5376
74.3221
70.0699
65.7849
61.4711
57.1318
52.7705
48.3902
43.9931
39.581
35.1569
30.723
26.2799
21.8308
17.3762
12.9169
8.45435
3.98727
-0.48388
-4.95881
-9.43596
-13.9163
-18.4021
-22.8953
-27.3952
-31.9025
-36.4196
-40.9486
-45.4907
-50.048
-54.6217
-59.2208
-63.833
-68.477
-73.151
-77.839
-82.5719
-87.3393
-92.1448
-96.9931
-101.885
-106.823
-111.81
-116.848
-121.94
-127.088
-132.29
-137.549
-142.868
-148.244
-153.678
-159.17
-164.721
-170.326
-175.982
-181.687
-187.443
-193.236
-199.066
-204.929
-210.814
-216.717
-222.628
-228.539
-234.437
-240.313
-246.156
-251.952
-257.69
-263.353
-268.927
-274.398
-279.75
-284.958
-290.009
-294.879
-299.549
-303.995
-308.186
-312.101
-315.706
-318.99
-321.906
-324.389
-326.421
-327.918
-328.825
-329.115
-328.684
-327.407
-325.163
-321.69
-316.703
-309.813
-300.712
-289.229
-274.965
-257.418
-235.344
-206.683
-168.902
-118.808
-49.3708
51.0585
180.251
361.105
576.227
754.877
818.473
752.225
571.267
354.996
174.104
44.5857
-55.2809
-124.327
-173.995
-211.279
-239.412
-260.942
-278.403
-292.911
-304.923
-314.175
-320.904
-325.725
-329.101
-331.284
-332.506
-332.918
-332.573
-331.523
-329.91
-327.814
-325.262
-322.267
-318.907
-315.238
-311.263
-307.015
-302.515
-297.794
-292.876
-287.779
-282.527
-277.134
-271.624
-266.013
-260.315
-254.544
-248.717
-242.845
-236.942
-231.018
-225.084
-219.15
-213.225
-207.321
-201.44
-195.593
-189.784
-184.014
-178.295
-172.625
-167.006
-161.441
-155.934
-150.486
-145.095
-139.76
-134.485
-129.268
-124.105
-118.997
-113.943
-108.941
-103.988
-99.0814
-94.2188
-89.3993
-84.6277
-79.8825
-75.1609
-70.4772
-65.821
-61.1905
-56.5838
-51.9965
-47.4258
-42.8697
-38.3263
-33.7939
-29.2707
-24.7537
-20.2424
-15.7376
-11.237
-6.73847
-2.24086
2.25437
6.74669
11.2361
15.7235
20.2081
24.6886
29.1625
33.6304
38.0913
42.542
46.9792
51.4009
55.8055
60.1903
64.5517
68.8866
73.1908
77.4608
81.6921
85.8805
90.0219
94.1121
98.1457
102.117
106.021
109.858
113.62
117.296
120.874
124.363
127.776
131.118
134.323
137.342
140.166
142.96
145.795
148.738
151.345
153.478
154.8
155.681
156.869
158.551
161.112
164.495
166.912
167.873
166.273
162.475
150.966
148.875
162.904
175.415
175.861
173.944
170.604
173.384
190.6
189.344
172.587
170.825
178.166
183.523
180.271
164.901
150.505
151.487
162.1
165.521
167.031
166.03
163.627
160.292
157.761
156.1
154.942
154.099
152.834
150.785
148.269
145.414
142.658
139.94
137.201
134.271
131.157
127.905
124.581
121.178
117.684
114.09
110.407
106.647
102.815
98.9151
94.9491
90.9238
86.8444
82.7154
78.541
74.3254
70.0731
65.7881
61.4743
57.135
52.7737
48.3934
43.9962
39.5841
35.1599
30.726
26.2829
21.8338
17.3791
12.9198
8.45727
3.99018
-0.480992
-4.95594
-9.4331
-13.9135
-18.3992
-22.8925
-27.3924
-31.8997
-36.4168
-40.9458
-45.4879
-50.0452
-54.6189
-59.2176
-63.8302
-68.4741
-73.1477
-77.8362
-82.569
-87.3364
-92.1419
-96.9902
-101.882
-106.82
-111.807
-116.845
-121.937
-127.084
-132.286
-137.545
-142.865
-148.24
-153.674
-159.166
-164.716
-170.321
-175.977
-181.682
-187.438
-193.231
-199.061
-204.924
-210.808
-216.711
-222.622
-228.532
-234.43
-240.305
-246.148
-251.944
-257.681
-263.343
-268.917
-274.388
-279.739
-284.947
-289.997
-294.866
-299.535
-303.98
-308.17
-312.084
-315.688
-318.971
-321.884
-324.367
-326.396
-327.891
-328.796
-329.083
-328.648
-327.367
-325.117
-321.637
-316.643
-309.743
-300.627
-289.125
-274.837
-257.262
-235.151
-206.438
-168.583
-118.382
-48.7883
51.8366
181.126
362.193
576.862
754.992
818.378
752.349
571.916
356.095
174.989
45.3702
-54.6943
-123.898
-173.675
-211.033
-239.217
-260.785
-278.276
-292.807
-304.841
-314.108
-320.847
-325.675
-329.057
-331.246
-332.472
-332.888
-332.545
-331.498
-329.887
-327.793
-325.242
-322.249
-318.89
-315.221
-311.248
-307
-302.502
-297.781
-292.864
-287.767
-282.516
-277.124
-271.614
-266.003
-260.306
-254.536
-248.709
-242.837
-236.934
-231.011
-225.077
-219.144
-213.219
-207.315
-201.435
-195.587
-189.779
-184.009
-178.29
-172.621
-167.001
-161.437
-155.93
-150.482
-145.091
-139.756
-134.482
-129.264
-124.101
-118.994
-113.94
-108.938
-103.985
-99.0784
-94.2158
-89.3963
-84.6244
-79.8791
-75.1579
-70.4743
-65.8181
-61.1876
-56.5809
-51.9936
-47.4229
-42.8668
-38.3235
-33.791
-29.2678
-24.7508
-20.2395
-15.7347
-11.2341
-6.73553
-2.23791
2.25735
6.74968
11.2391
15.7265
20.2111
24.6917
29.1656
33.6335
38.0944
42.5452
46.9824
51.4041
55.8088
60.1936
64.555
68.8899
73.1942
77.4642
81.6955
85.884
90.0255
94.1157
98.1493
102.12
106.025
109.861
113.623
117.3
120.878
124.367
127.78
131.122
134.326
137.345
140.171
142.968
145.801
148.738
151.339
153.469
154.802
155.705
156.912
158.608
161.155
164.486
166.855
167.778
166.181
162.517
151.763
150.15
164.419
175.96
176.075
174.236
170.688
172.703
188.947
187.489
171.6
170.691
178.367
183.713
180.93
166.422
151.926
152.374
162.176
165.439
166.932
165.968
163.616
160.339
157.825
156.149
154.97
154.102
152.824
150.778
148.267
145.419
142.665
139.946
137.204
134.274
131.161
127.909
124.585
121.182
117.688
114.094
110.411
106.651
102.819
98.919
94.9531
90.9277
86.8483
82.7193
78.5448
74.3292
70.0769
65.7919
61.478
57.1387
52.7774
48.397
43.9998
39.5877
35.1635
30.7295
26.2864
21.8373
17.3826
12.9232
8.46067
3.99355
-0.477634
-4.9526
-9.42977
-13.9102
-18.396
-22.8892
-27.3892
-31.8965
-36.4135
-40.9425
-45.4847
-50.0419
-54.6156
-59.2139
-63.8269
-68.4708
-73.144
-77.8328
-82.5657
-87.333
-92.1385
-96.9867
-101.879
-106.817
-111.803
-116.841
-121.933
-127.08
-132.282
-137.541
-142.86
-148.236
-153.669
-159.161
-164.711
-170.316
-175.972
-181.677
-187.432
-193.224
-199.055
-204.917
-210.801
-216.704
-222.614
-228.524
-234.421
-240.296
-246.138
-251.934
-257.67
-263.332
-268.906
-274.375
-279.726
-284.933
-289.982
-294.85
-299.518
-303.962
-308.151
-312.064
-315.667
-318.949
-321.86
-324.34
-326.367
-327.859
-328.761
-329.044
-328.606
-327.32
-325.062
-321.575
-316.573
-309.66
-300.527
-289.001
-274.686
-257.076
-234.919
-206.143
-168.197
-117.863
-48.0839
52.7571
182.128
363.418
577.562
755.113
818.265
752.48