/*--------------------------------*- C++ -*----------------------------------*\
| =========                 |                                                 |
| \\      /  F ield         | OpenFOAM: The Open Source CFD Toolbox           |
|  \\    /   O peration     | Version:  2412                                  |
|   \\  /    A nd           | Website:  www.openfoam.com                      |
|    \\/     M anipulation  |                                                 |
\*---------------------------------------------------------------------------*/
FoamFile
{
    version     2.0;
    format      ascii;
    arch        "LSB;label=32;scalar=64";
    class       surfaceScalarField;
    location    "100";
    object      phi;
}
// * * * * * * * * * * * * * * * * * * * * * * * * * * * * * * * * * * * * * //

dimensions      [0 3 -1 0 0 0 0];

oriented        oriented;

internalField   nonuniform List<scalar> 
58903
(
2.69265e-06
1.57061e-07
-2.8497e-06
1.86019e-06
8.32461e-07
5.39671e-07
1.32052e-06
9.56783e-07
-4.17109e-07
1.26663e-06
-3.09846e-07
-3.75253e-07
1.64189e-06
-2.84493e-06
2.46968e-06
-4.12862e-06
1.2837e-06
-3.79219e-06
-3.36433e-07
-3.1744e-06
-6.17786e-07
-2.84761e-06
-3.2679e-07
-2.68444e-06
-1.63181e-07
-2.63466e-06
-4.9752e-08
-2.68225e-06
4.7578e-08
-2.77204e-06
8.98069e-08
-2.83213e-06
6.01039e-08
-2.85313e-06
2.10017e-08
-2.84204e-06
-1.1088e-08
-2.80693e-06
-3.51052e-08
-2.77669e-06
-3.02348e-08
-2.76629e-06
-1.03913e-08
-2.77363e-06
7.36169e-09
-2.79201e-06
1.83796e-08
-2.80981e-06
1.78141e-08
-2.82234e-06
1.25426e-08
-2.83121e-06
8.87773e-09
-2.84011e-06
8.83042e-09
-2.8517e-06
1.16713e-08
-2.86541e-06
1.35933e-08
-2.88e-06
1.47486e-08
-2.89445e-06
1.44576e-08
-2.90896e-06
1.45232e-08
-2.92381e-06
1.48646e-08
-2.93926e-06
1.54583e-08
-2.95522e-06
1.56286e-08
-2.97137e-06
1.65225e-08
-2.98795e-06
1.62151e-08
-3.00475e-06
1.72079e-08
-3.02183e-06
1.71119e-08
-3.03908e-06
1.72655e-08
-3.05662e-06
1.75647e-08
-3.0743e-06
1.76958e-08
-3.09223e-06
1.79454e-08
-3.11021e-06
1.75466e-08
-3.12832e-06
1.85883e-08
-3.14655e-06
1.77899e-08
-3.16487e-06
1.88063e-08
-3.18326e-06
1.79309e-08
-3.20152e-06
1.87667e-08
-3.21983e-06
1.8357e-08
-3.2383e-06
1.84868e-08
-3.25662e-06
1.8371e-08
-3.27509e-06
1.84895e-08
-3.29343e-06
1.83796e-08
-3.31162e-06
1.8202e-08
-3.32993e-06
1.83816e-08
-3.34815e-06
1.78184e-08
-3.36636e-06
1.86691e-08
-3.38434e-06
1.76206e-08
-3.40233e-06
1.84535e-08
-3.42031e-06
1.76041e-08
-3.43829e-06
1.84496e-08
-3.45607e-06
1.78148e-08
-3.47378e-06
1.77536e-08
-3.49162e-06
1.79232e-08
-3.50933e-06
1.77408e-08
-3.52716e-06
1.79031e-08
-3.54481e-06
1.76887e-08
-3.56249e-06
1.77485e-08
-3.58009e-06
1.76289e-08
-3.59747e-06
1.7452e-08
-3.61448e-06
1.7024e-08
-3.63151e-06
1.6727e-08
-3.64826e-06
1.71998e-08
-3.66548e-06
1.67892e-08
-3.68281e-06
1.78479e-08
-3.7004e-06
1.72517e-08
-3.71804e-06
1.81485e-08
-3.73596e-06
1.75009e-08
-3.75404e-06
1.85842e-08
-3.77247e-06
1.8077e-08
-3.7909e-06
1.89571e-08
-3.80971e-06
1.83585e-08
-3.82878e-06
1.96225e-08
-3.84804e-06
1.88303e-08
-3.86758e-06
2.00706e-08
-3.88743e-06
1.98696e-08
-3.90805e-06
2.06633e-08
-3.92859e-06
2.05672e-08
-3.94885e-06
2.02919e-08
-3.96955e-06
2.0735e-08
-3.99071e-06
2.12e-08
-4.01229e-06
2.15952e-08
-4.03417e-06
2.18993e-08
-4.0564e-06
2.22432e-08
-4.07895e-06
2.25665e-08
-4.10176e-06
2.28063e-08
-4.12499e-06
2.32299e-08
-4.14844e-06
2.34554e-08
-4.17221e-06
2.37949e-08
-4.19616e-06
2.39501e-08
-4.22037e-06
2.42127e-08
-4.2447e-06
2.43373e-08
-4.26927e-06
2.45693e-08
-4.29397e-06
2.47303e-08
-4.31883e-06
2.48734e-08
-4.34364e-06
2.48252e-08
-4.36841e-06
2.47743e-08
-4.39319e-06
2.47938e-08
-4.41783e-06
2.46338e-08
-4.44236e-06
2.45367e-08
-4.46681e-06
2.44489e-08
-4.49081e-06
2.4008e-08
-4.51443e-06
2.3622e-08
-4.53745e-06
2.30311e-08
-4.56e-06
2.25444e-08
-4.58186e-06
2.18626e-08
-4.60295e-06
2.1095e-08
-4.62329e-06
2.03463e-08
-4.64269e-06
1.93979e-08
-4.66123e-06
1.85358e-08
-4.67871e-06
1.74801e-08
-4.69537e-06
1.7709e-08
-4.71104e-06
1.46261e-08
-4.72599e-06
1.59125e-08
-4.74001e-06
1.30073e-08
-4.75334e-06
1.52383e-08
-4.76644e-06
1.12363e-08
-4.77955e-06
1.38918e-08
-4.79315e-06
1.27558e-08
-4.80844e-06
1.82443e-08
-4.82662e-06
1.52328e-08
-4.84962e-06
2.55537e-08
-4.88073e-06
2.85159e-08
-4.92588e-06
4.51798e-08
-4.99349e-06
6.76212e-08
-5.08683e-06
9.33309e-08
-5.19587e-06
1.0904e-07
-5.29807e-06
1.02196e-07
-5.375e-06
7.69298e-08
-5.42539e-06
5.03818e-08
-5.46076e-06
3.53672e-08
-5.51398e-06
5.32191e-08
-5.64847e-06
1.34481e-07
-5.84635e-06
1.9788e-07
-5.97576e-06
1.29398e-07
-5.70793e-06
-2.6785e-07
-4.29352e-06
-1.41463e-06
-1.55572e-06
-2.73759e-06
1.60422e-06
-3.16054e-06
4.33684e-06
-2.73203e-06
5.74404e-06
-1.4072e-06
6.00389e-06
-2.59847e-07
5.8713e-06
1.32597e-07
5.67151e-06
1.99784e-07
5.53393e-06
1.37581e-07
5.47126e-06
6.26705e-08
5.41433e-06
5.69251e-08
5.32088e-06
9.34466e-08
5.17783e-06
1.43038e-07
5.01194e-06
1.65883e-07
4.86545e-06
1.46482e-07
4.76195e-06
1.03494e-07
4.69919e-06
6.27489e-08
4.66356e-06
3.56114e-08
4.64232e-06
1.59315e-08
4.62888e-06
1.86732e-08
4.61972e-06
1.06801e-08
4.61303e-06
5.03971e-09
4.60811e-06
2.84186e-09
4.60363e-06
6.76434e-09
4.59886e-06
4.49162e-09
4.59355e-06
5.60498e-09
4.58713e-06
6.33116e-09
4.57941e-06
7.77291e-09
4.57059e-06
8.63629e-09
4.56052e-06
1.02382e-08
4.54939e-06
1.11302e-08
4.53687e-06
1.25092e-08
4.52328e-06
1.35869e-08
4.50863e-06
1.46495e-08
4.49303e-06
1.55976e-08
4.47644e-06
1.65747e-08
4.45901e-06
1.74308e-08
4.44094e-06
1.80662e-08
4.42213e-06
1.88062e-08
4.4028e-06
1.93292e-08
4.38288e-06
1.99173e-08
4.36274e-06
2.01452e-08
4.34235e-06
2.03805e-08
4.32166e-06
2.06874e-08
4.30083e-06
2.08286e-08
4.27981e-06
2.10283e-08
4.2586e-06
2.12155e-08
4.2374e-06
2.12073e-08
4.2162e-06
2.12028e-08
4.19513e-06
2.10918e-08
4.17405e-06
2.10768e-08
4.15311e-06
2.09462e-08
4.13222e-06
2.08971e-08
4.11154e-06
2.06888e-08
4.09097e-06
2.05733e-08
4.07072e-06
2.02561e-08
4.05064e-06
2.00858e-08
4.03078e-06
1.98642e-08
4.01119e-06
1.95917e-08
3.99179e-06
1.94158e-08
3.97265e-06
1.91436e-08
3.95371e-06
1.89578e-08
3.93504e-06
1.86646e-08
3.91673e-06
1.83254e-08
3.89853e-06
1.81985e-08
3.88072e-06
1.78214e-08
3.86353e-06
1.7444e-08
3.8478e-06
1.55078e-08
3.82996e-06
1.92584e-08
3.81049e-06
1.80797e-08
3.79277e-06
1.88699e-08
3.77521e-06
1.64409e-08
3.75797e-06
1.82346e-08
3.74079e-06
1.62414e-08
3.72376e-06
1.80496e-08
3.70663e-06
1.61469e-08
3.68958e-06
1.7995e-08
3.67245e-06
1.62455e-08
3.65565e-06
1.77347e-08
3.63855e-06
1.62061e-08
3.62159e-06
1.69705e-08
3.60438e-06
1.72228e-08
3.58699e-06
1.73979e-08
3.56946e-06
1.75499e-08
3.5518e-06
1.76828e-08
3.5338e-06
1.80313e-08
3.51579e-06
1.80285e-08
3.4975e-06
1.83028e-08
3.47925e-06
1.82806e-08
3.46085e-06
1.84239e-08
3.44216e-06
1.93594e-08
3.42341e-06
1.81239e-08
3.4046e-06
1.94869e-08
3.38575e-06
1.82088e-08
3.36662e-06
1.9763e-08
3.34744e-06
1.85142e-08
3.32812e-06
1.93981e-08
3.30889e-06
1.92358e-08
3.2895e-06
1.94036e-08
3.26996e-06
1.95733e-08
3.25054e-06
1.9438e-08
3.23094e-06
1.96294e-08
3.21149e-06
1.94739e-08
3.19201e-06
1.94992e-08
3.17241e-06
1.99984e-08
3.15285e-06
1.92065e-08
3.13336e-06
1.98007e-08
3.11396e-06
1.90892e-08
3.09465e-06
1.935e-08
3.07539e-06
1.92666e-08
3.05636e-06
1.90382e-08
3.03744e-06
1.89316e-08
3.0188e-06
1.86537e-08
3.0003e-06
1.85014e-08
2.98205e-06
1.82627e-08
2.96403e-06
1.82216e-08
2.94643e-06
1.74156e-08
2.92898e-06
1.74574e-08
2.91208e-06
1.69079e-08
2.89577e-06
1.63137e-08
2.87983e-06
1.59543e-08
2.86399e-06
1.59651e-08
2.84805e-06
1.58403e-08
2.83304e-06
1.50756e-08
2.82021e-06
1.27771e-08
2.8101e-06
1.0118e-08
2.80011e-06
9.9892e-09
2.78665e-06
1.34701e-08
2.76815e-06
1.85003e-08
2.74926e-06
1.89279e-08
2.74135e-06
7.8912e-09
2.75096e-06
-9.57782e-09
2.78018e-06
-2.92477e-08
2.81426e-06
-3.40768e-08
2.82488e-06
-1.06146e-08
2.80432e-06
2.05621e-08
2.74587e-06
5.84521e-08
2.6588e-06
8.70937e-08
2.61364e-06
4.5144e-08
2.66432e-06
-5.06659e-08
2.8267e-06
-1.62392e-07
3.15044e-06
-3.23739e-07
3.76175e-06
-6.113e-07
4.0991e-06
-3.37349e-07
2.84114e-06
1.25796e-06
4.01851e-07
2.43927e-06
-1.24858e-06
1.65046e-06
-9.52626e-07
-2.95955e-07
-4.94239e-07
-4.58385e-07
-1.82883e-06
1.3346e-06
-2.84539e-06
1.01656e-06
-2.68833e-06
8.53763e-06
4.89391e-07
-1.18767e-05
6.45273e-06
2.91736e-06
2.13552e-06
5.63774e-06
3.20805e-06
-1.48963e-06
3.92666e-06
-1.02845e-06
-1.92072e-06
7.48927e-06
-1.01895e-05
1.07385e-05
-1.41956e-05
5.28979e-06
-1.31237e-05
-1.4083e-06
-1.11358e-05
-2.60573e-06
-1.00755e-05
-1.38701e-06
-9.55008e-06
-6.88667e-07
-9.39993e-06
-1.99869e-07
-9.5626e-06
2.1024e-07
-9.85484e-06
3.82077e-07
-1.00499e-05
2.5522e-07
-1.01147e-05
8.58107e-08
-1.00741e-05
-5.1741e-08
-9.95902e-06
-1.50156e-07
-9.86122e-06
-1.28017e-07
-9.82975e-06
-4.18652e-08
-9.85668e-06
3.43237e-08
-9.91922e-06
8.09356e-08
-9.97969e-06
7.82992e-08
-1.00228e-05
5.56566e-08
-1.0054e-05
4.01188e-08
-1.00859e-05
4.05834e-08
-1.01266e-05
5.25307e-08
-1.01751e-05
6.19165e-08
-1.02257e-05
6.5573e-08
-1.02765e-05
6.53447e-08
-1.03273e-05
6.52933e-08
-1.03796e-05
6.71609e-08
-1.04341e-05
7.00475e-08
-1.04898e-05
7.08023e-08
-1.05471e-05
7.43841e-08
-1.0605e-05
7.35678e-08
-1.06641e-05
7.6979e-08
-1.07241e-05
7.71508e-08
-1.07852e-05
7.83996e-08
-1.08469e-05
7.92425e-08
-1.09092e-05
8.00925e-08
-1.09723e-05
8.10452e-08
-1.10358e-05
8.03934e-08
-1.10996e-05
8.30743e-08
-1.1164e-05
8.1537e-08
-1.12285e-05
8.4041e-08
-1.12932e-05
8.19898e-08
-1.13583e-05
8.45848e-08
-1.14233e-05
8.34417e-08
-1.14883e-05
8.35802e-08
-1.15534e-05
8.35248e-08
-1.16182e-05
8.33456e-08
-1.16833e-05
8.35464e-08
-1.17478e-05
8.26656e-08
-1.18123e-05
8.30405e-08
-1.18763e-05
8.12055e-08
-1.1941e-05
8.40789e-08
-1.2005e-05
8.10881e-08
-1.20685e-05
8.26869e-08
-1.2132e-05
8.04979e-08
-1.2195e-05
8.21774e-08
-1.22585e-05
8.139e-08
-1.23216e-05
8.09154e-08
-1.23844e-05
8.08562e-08
-1.24471e-05
8.05132e-08
-1.25098e-05
8.07239e-08
-1.25725e-05
8.04869e-08
-1.26347e-05
8.01011e-08
-1.26962e-05
7.91785e-08
-1.27569e-05
7.82297e-08
-1.28169e-05
7.71032e-08
-1.28764e-05
7.57261e-08
-1.29365e-05
7.7979e-08
-1.29967e-05
7.63734e-08
-1.30582e-05
8.018e-08
-1.31203e-05
7.88233e-08
-1.31831e-05
8.16677e-08
-1.32465e-05
8.03672e-08
-1.33108e-05
8.36031e-08
-1.33756e-05
8.23404e-08
-1.34413e-05
8.54678e-08
-1.35076e-05
8.40279e-08
-1.35746e-05
8.74724e-08
-1.36426e-05
8.61373e-08
-1.3712e-05
9.02795e-08
-1.37822e-05
9.01145e-08
-1.38543e-05
9.28944e-08
-1.39293e-05
9.55538e-08
-1.40033e-05
9.43145e-08
-1.40763e-05
9.38175e-08
-1.4151e-05
9.59665e-08
-1.42275e-05
9.81257e-08
-1.43052e-05
9.96547e-08
-1.43837e-05
1.00803e-07
-1.44633e-05
1.02105e-07
-1.45442e-05
1.03728e-07
-1.4626e-05
1.05071e-07
-1.47089e-05
1.06342e-07
-1.47926e-05
1.07549e-07
-1.48776e-05
1.08943e-07
-1.49629e-05
1.09526e-07
-1.50491e-05
1.10497e-07
-1.51358e-05
1.11273e-07
-1.5223e-05
1.11995e-07
-1.53107e-05
1.12563e-07
-1.5398e-05
1.12172e-07
-1.54856e-05
1.12354e-07
-1.5573e-05
1.12237e-07
-1.56598e-05
1.11458e-07
-1.57463e-05
1.11036e-07
-1.58322e-05
1.10394e-07
-1.59169e-05
1.08715e-07
-1.59998e-05
1.06481e-07
-1.60812e-05
1.04404e-07
-1.61604e-05
1.0173e-07
-1.62372e-05
9.87104e-08
-1.63115e-05
9.54239e-08
-1.63828e-05
9.15866e-08
-1.64505e-05
8.71767e-08
-1.65154e-05
8.33561e-08
-1.65769e-05
7.89661e-08
-1.6635e-05
7.74573e-08
-1.66898e-05
6.78463e-08
-1.67411e-05
6.86532e-08
-1.67896e-05
5.98994e-08
-1.68358e-05
6.43797e-08
-1.68812e-05
5.38412e-08
-1.69263e-05
6.01554e-08
-1.69734e-05
5.85172e-08
-1.70265e-05
7.58434e-08
-1.70894e-05
7.37394e-08
-1.7169e-05
1.0897e-07
-1.72769e-05
1.32456e-07
-1.74346e-05
2.03001e-07
-1.76702e-05
3.0323e-07
-1.79948e-05
4.17858e-07
-1.83718e-05
4.86072e-07
-1.87208e-05
4.5115e-07
-1.89743e-05
3.30414e-07
-1.91285e-05
2.04644e-07
-1.9219e-05
1.25798e-07
-1.93591e-05
1.9335e-07
-1.97565e-05
5.31912e-07
-2.03345e-05
7.75851e-07
-2.06508e-05
4.45628e-07
-1.95469e-05
-1.37173e-06
-1.45884e-05
-6.37349e-06
-5.26506e-06
-1.20606e-05
5.42928e-06
-1.38558e-05
1.47357e-05
-1.20376e-05
1.96713e-05
-6.34274e-06
2.07491e-05
-1.33768e-06
2.04218e-05
4.5988e-07
1.98378e-05
7.83862e-07
1.943e-05
5.45372e-07
1.92577e-05
2.34912e-07
1.9093e-05
2.21654e-07
1.87886e-05
3.97829e-07
1.83032e-05
6.28392e-07
1.77287e-05
7.40406e-07
1.72172e-05
6.58002e-07
1.68547e-05
4.65906e-07
1.66352e-05
2.82295e-07
1.65104e-05
1.60299e-07
1.6437e-05
8.12513e-08
1.6391e-05
7.27286e-08
1.63597e-05
4.42564e-08
1.63369e-05
2.53194e-08
1.63203e-05
1.63208e-08
1.63055e-05
2.50124e-08
1.62894e-05
2.01468e-08
1.62714e-05
2.4111e-08
1.62497e-05
2.78554e-08
1.62238e-05
3.36903e-08
1.61932e-05
3.89922e-08
1.61583e-05
4.54261e-08
1.61192e-05
5.02311e-08
1.60756e-05
5.60753e-08
1.60283e-05
6.08701e-08
1.59771e-05
6.58152e-08
1.59222e-05
7.05336e-08
1.5864e-05
7.47745e-08
1.58028e-05
7.85731e-08
1.5739e-05
8.19168e-08
1.56731e-05
8.46733e-08
1.56049e-05
8.75269e-08
1.5535e-05
8.98574e-08
1.5464e-05
9.11328e-08
1.53921e-05
9.21921e-08
1.53192e-05
9.36395e-08
1.52455e-05
9.44718e-08
1.51716e-05
9.49723e-08
1.50968e-05
9.60038e-08
1.5022e-05
9.60513e-08
1.49472e-05
9.59859e-08
1.48726e-05
9.57604e-08
1.47983e-05
9.53128e-08
1.4724e-05
9.53128e-08
1.46504e-05
9.44322e-08
1.45774e-05
9.37974e-08
1.45049e-05
9.30221e-08
1.4433e-05
9.21461e-08
1.43622e-05
9.0872e-08
1.42921e-05
9.00079e-08
1.42225e-05
8.92251e-08
1.41537e-05
8.82447e-08
1.40862e-05
8.6667e-08
1.40194e-05
8.57295e-08
1.39532e-05
8.49063e-08
1.38879e-05
8.36059e-08
1.3824e-05
8.20712e-08
1.37608e-05
8.10531e-08
1.36994e-05
7.92473e-08
1.3642e-05
7.25652e-08
1.35776e-05
8.57851e-08
1.3509e-05
8.46292e-08
1.34459e-05
8.3684e-08
1.33843e-05
7.6407e-08
1.3323e-05
8.09845e-08
1.32622e-05
7.56639e-08
1.32017e-05
8.01093e-08
1.31413e-05
7.50558e-08
1.30808e-05
7.99282e-08
1.30209e-05
7.4819e-08
1.29605e-05
7.95179e-08
1.29005e-05
7.48344e-08
1.28402e-05
7.73142e-08
1.27798e-05
7.76401e-08
1.27189e-05
7.82908e-08
1.26573e-05
7.92384e-08
1.25947e-05
8.03072e-08
1.25316e-05
8.11679e-08
1.2468e-05
8.16765e-08
1.24038e-05
8.25242e-08
1.23389e-05
8.32056e-08
1.22733e-05
8.40855e-08
1.22079e-05
8.57816e-08
1.21418e-05
8.32795e-08
1.20754e-05
8.68668e-08
1.20084e-05
8.42626e-08
1.19405e-05
8.86195e-08
1.18732e-05
8.48443e-08
1.18051e-05
8.75877e-08
1.17371e-05
8.7314e-08
1.16683e-05
8.82017e-08
1.15997e-05
8.82038e-08
1.15308e-05
8.83819e-08
1.14618e-05
8.87026e-08
1.13928e-05
8.85259e-08
1.13234e-05
8.88611e-08
1.12544e-05
8.96034e-08
1.11856e-05
8.7517e-08
1.11168e-05
8.91101e-08
1.10485e-05
8.68781e-08
1.09803e-05
8.76027e-08
1.09126e-05
8.70117e-08
1.08455e-05
8.61705e-08
1.0779e-05
8.54296e-08
1.0713e-05
8.46857e-08
1.0648e-05
8.34509e-08
1.05838e-05
8.25334e-08
1.05208e-05
8.15137e-08
1.04584e-05
7.95189e-08
1.03975e-05
7.837e-08
1.03378e-05
7.66053e-08
1.02805e-05
7.37173e-08
1.02246e-05
7.17755e-08
1.01689e-05
7.19326e-08
1.01136e-05
7.09927e-08
1.00605e-05
6.82862e-08
1.00153e-05
5.78347e-08
9.97919e-06
4.62797e-08
9.944e-06
4.51889e-08
9.89754e-06
5.99322e-08
9.83453e-06
8.15237e-08
9.77001e-06
8.35017e-08
9.74097e-06
3.68973e-08
9.76968e-06
-3.82213e-08
9.86385e-06
-1.23472e-07
9.97524e-06
-1.45465e-07
1.0014e-05
-4.93497e-08
9.95027e-06
8.42824e-08
9.7603e-06
2.48426e-07
9.47676e-06
3.70672e-07
9.3221e-06
1.99774e-07
9.47543e-06
-2.0397e-07
9.99844e-06
-6.85416e-07
1.10485e-05
-1.37383e-06
1.30156e-05
-2.57832e-06
1.40899e-05
-1.41165e-06
1.01657e-05
5.1821e-06
2.00377e-06
1.06012e-05
-3.86416e-06
7.51843e-06
-3.18931e-06
-9.70804e-07
-1.99027e-06
-1.65741e-06
-6.37248e-06
5.71681e-06
-9.03991e-06
3.68399e-06
-1.12388e-05
1.54935e-05
8.80914e-07
-2.82511e-05
1.25234e-05
5.88743e-06
4.61351e-06
1.35477e-05
6.13662e-06
-3.01274e-06
6.86428e-06
-1.75611e-06
-4.86284e-06
1.92164e-05
-2.05535e-05
2.64292e-05
-2.76985e-05
1.24347e-05
-2.56889e-05
-3.41788e-06
-2.20768e-05
-6.21779e-06
-2.01364e-05
-3.32738e-06
-1.91828e-05
-1.64228e-06
-1.89274e-05
-4.55233e-07
-1.92442e-05
5.26978e-07
-1.97835e-05
9.21382e-07
-2.01413e-05
6.13031e-07
-2.02547e-05
1.99234e-07
-2.01723e-05
-1.34122e-07
-1.99585e-05
-3.63926e-07
-1.97805e-05
-3.06018e-07
-1.97269e-05
-9.54304e-08
-1.97834e-05
9.07901e-08
-1.99038e-05
2.01409e-07
-2.00203e-05
1.94761e-07
-2.0104e-05
1.39418e-07
-2.01672e-05
1.03307e-07
-2.0232e-05
1.05267e-07
-2.0314e-05
1.34666e-07
-2.04091e-05
1.56833e-07
-2.05101e-05
1.66888e-07
-2.06108e-05
1.65991e-07
-2.07118e-05
1.66411e-07
-2.08161e-05
1.71397e-07
-2.09244e-05
1.7838e-07
-2.10358e-05
1.81688e-07
-2.11492e-05
1.88352e-07
-2.1265e-05
1.88885e-07
-2.13826e-05
1.95206e-07
-2.15024e-05
1.96949e-07
-2.16239e-05
1.99974e-07
-2.17471e-05
2.02468e-07
-2.18718e-05
2.04786e-07
-2.19978e-05
2.07111e-07
-2.21244e-05
2.06308e-07
-2.22524e-05
2.11831e-07
-2.23808e-05
2.09294e-07
-2.25099e-05
2.13861e-07
-2.26393e-05
2.10692e-07
-2.27688e-05
2.14898e-07
-2.28988e-05
2.1353e-07
-2.30288e-05
2.13624e-07
-2.31589e-05
2.13657e-07
-2.32889e-05
2.13377e-07
-2.34183e-05
2.13003e-07
-2.35484e-05
2.12863e-07
-2.36768e-05
2.11576e-07
-2.3806e-05
2.0977e-07
-2.39339e-05
2.12673e-07
-2.4062e-05
2.08685e-07
-2.41898e-05
2.11184e-07
-2.43168e-05
2.06894e-07
-2.44438e-05
2.09966e-07
-2.45699e-05
2.07502e-07
-2.46958e-05
2.06973e-07
-2.48215e-05
2.06691e-07
-2.49467e-05
2.05733e-07
-2.50724e-05
2.06521e-07
-2.51967e-05
2.04929e-07
-2.53198e-05
2.03276e-07
-2.54421e-05
2.01518e-07
-2.55622e-05
1.98518e-07
-2.56805e-05
1.95371e-07
-2.57986e-05
1.93362e-07
-2.59175e-05
1.97656e-07
-2.60387e-05
1.96889e-07
-2.61614e-05
2.03689e-07
-2.62852e-05
2.02071e-07
-2.64107e-05
2.08016e-07
-2.65377e-05
2.06747e-07
-2.66662e-05
2.12873e-07
-2.67956e-05
2.11242e-07
-2.69262e-05
2.16886e-07
-2.70588e-05
2.15891e-07
-2.7193e-05
2.22603e-07
-2.73287e-05
2.21193e-07
-2.74658e-05
2.2821e-07
-2.7606e-05
2.30386e-07
-2.77508e-05
2.37724e-07
-2.79068e-05
2.51655e-07
-2.80613e-05
2.48801e-07
-2.82075e-05
2.40089e-07
-2.83579e-05
2.46443e-07
-2.85098e-05
2.50107e-07
-2.86647e-05
2.54546e-07
-2.88214e-05
2.57531e-07
-2.8981e-05
2.61685e-07
-2.91426e-05
2.65399e-07
-2.9306e-05
2.68409e-07
-2.94714e-05
2.71758e-07
-2.9639e-05
2.75173e-07
-2.9808e-05
2.77964e-07
-2.99788e-05
2.80405e-07
-3.01507e-05
2.82408e-07
-3.03236e-05
2.84125e-07
-3.04976e-05
2.86087e-07
-3.06715e-05
2.86467e-07
-3.0846e-05
2.86716e-07
-3.10204e-05
2.86699e-07
-3.11939e-05
2.85833e-07
-3.13675e-05
2.85069e-07
-3.15399e-05
2.83423e-07
-3.17103e-05
2.80802e-07
-3.18788e-05
2.77226e-07
-3.20444e-05
2.7201e-07
-3.2206e-05
2.6607e-07
-3.23629e-05
2.58629e-07
-3.25151e-05
2.50909e-07
-3.26621e-05
2.42379e-07
-3.28038e-05
2.3337e-07
-3.29385e-05
2.21883e-07
-3.30668e-05
2.11661e-07
-3.31887e-05
2.00858e-07
-3.33034e-05
1.93771e-07
-3.34108e-05
1.73623e-07
-3.35127e-05
1.72068e-07
-3.36069e-05
1.52521e-07
-3.36978e-05
1.58278e-07
-3.37859e-05
1.38993e-07
-3.38742e-05
1.49717e-07
-3.3968e-05
1.50906e-07
-3.40715e-05
1.84099e-07
-3.41951e-05
1.92625e-07
-3.4353e-05
2.70915e-07
-3.4566e-05
3.41371e-07
-3.48786e-05
5.15617e-07
-3.53459e-05
7.70549e-07
-3.59852e-05
1.05717e-06
-3.67206e-05
1.22145e-06
-3.73892e-05
1.11975e-06
-3.78593e-05
8.00493e-07
-3.81172e-05
4.62533e-07
-3.82301e-05
2.38738e-07
-3.84174e-05
3.80644e-07
-3.90636e-05
1.17806e-06
-3.99993e-05
1.7116e-06
-4.03626e-05
8.08877e-07
-3.78982e-05
-3.83614e-06
-2.80909e-05
-1.61811e-05
-1.01022e-05
-3.0049e-05
1.04156e-05
-3.43745e-05
2.83731e-05
-2.99942e-05
3.8139e-05
-1.61086e-05
4.05553e-05
-3.75404e-06
4.01711e-05
8.44088e-07
3.92242e-05
1.73077e-06
3.85588e-05
1.2108e-06
3.83109e-05
4.82816e-07
3.80549e-05
4.77583e-07
3.75042e-05
9.48571e-07
3.65772e-05
1.55535e-06
3.54577e-05
1.85989e-06
3.44482e-05
1.66751e-06
3.37276e-05
1.18651e-06
3.32888e-05
7.21062e-07
3.30403e-05
4.08736e-07
3.28951e-05
2.18059e-07
3.2803e-05
1.73082e-07
3.27422e-05
1.07534e-07
3.26986e-05
6.62117e-08
3.26651e-05
4.65396e-08
3.26368e-05
5.70079e-08
3.26069e-05
4.96367e-08
3.25719e-05
5.95513e-08
3.25308e-05
6.88271e-08
3.24795e-05
8.50894e-08
3.242e-05
9.81263e-08
3.23515e-05
1.14176e-07
3.22742e-05
1.27625e-07
3.21881e-05
1.42103e-07
3.20942e-05
1.54793e-07
3.19923e-05
1.67671e-07
3.18839e-05
1.78911e-07
3.17688e-05
1.89867e-07
3.16478e-05
1.99557e-07
3.15211e-05
2.087e-07
3.13894e-05
2.16347e-07
3.12537e-05
2.2316e-07
3.11152e-05
2.28381e-07
3.09738e-05
2.32605e-07
3.08301e-05
2.35881e-07
3.06853e-05
2.38365e-07
3.05388e-05
2.41035e-07
3.03909e-05
2.42797e-07
3.02427e-05
2.44204e-07
3.00934e-05
2.45393e-07
2.99444e-05
2.45041e-07
2.97954e-05
2.44731e-07
2.96467e-05
2.44093e-07
2.94989e-05
2.43127e-07
2.93516e-05
2.41688e-07
2.92057e-05
2.39703e-07
2.90611e-05
2.37618e-07
2.89175e-05
2.35777e-07
2.87754e-05
2.33008e-07
2.86355e-05
2.29935e-07
2.84968e-05
2.27944e-07
2.83602e-05
2.24846e-07
2.82242e-05
2.22681e-07
2.80907e-05
2.19248e-07
2.7959e-05
2.16578e-07
2.78289e-05
2.13745e-07
2.76999e-05
2.11068e-07
2.7573e-05
2.07948e-07
2.7451e-05
2.01703e-07
2.73295e-05
1.937e-07
2.71941e-05
2.23386e-07
2.70571e-05
2.1951e-07
2.6932e-05
2.10548e-07
2.6809e-05
1.97668e-07
2.66866e-05
2.04934e-07
2.6565e-05
1.95794e-07
2.64441e-05
2.02708e-07
2.63238e-05
1.93753e-07
2.62034e-05
2.01873e-07
2.60829e-05
1.93901e-07
2.59631e-05
2.00806e-07
2.5843e-05
1.93505e-07
2.57228e-05
1.97532e-07
2.56019e-05
1.9851e-07
2.54804e-05
1.99856e-07
2.53586e-05
2.01034e-07
2.52351e-05
2.03894e-07
2.51093e-05
2.07031e-07
2.49829e-05
2.08083e-07
2.48549e-05
2.10516e-07
2.47258e-05
2.12376e-07
2.45959e-05
2.14027e-07
2.44644e-05
2.18366e-07
2.43324e-05
2.14291e-07
2.41992e-05
2.21134e-07
2.40652e-05
2.17244e-07
2.39312e-05
2.23671e-07
2.37954e-05
2.19533e-07
2.36601e-05
2.23029e-07
2.35228e-05
2.24603e-07
2.33862e-05
2.24843e-07
2.32488e-05
2.25644e-07
2.31112e-05
2.26038e-07
2.29734e-05
2.26567e-07
2.28355e-05
2.26501e-07
2.26975e-05
2.26856e-07
2.25597e-05
2.28055e-07
2.2422e-05
2.24616e-07
2.22848e-05
2.268e-07
2.21479e-05
2.23303e-07
2.20121e-05
2.2353e-07
2.18768e-05
2.22288e-07
2.17427e-05
2.20266e-07
2.161e-05
2.18227e-07
2.14787e-05
2.1599e-07
2.13491e-05
2.13019e-07
2.12214e-05
2.10278e-07
2.10954e-05
2.07793e-07
2.09719e-05
2.0274e-07
2.08502e-05
2.00126e-07
2.07317e-05
1.951e-07
2.06173e-05
1.88109e-07
2.05062e-05
1.82948e-07
2.03958e-05
1.82515e-07
2.02853e-05
1.81356e-07
2.0181e-05
1.72633e-07
2.00902e-05
1.48571e-07
2.00168e-05
1.19649e-07
1.99457e-05
1.16313e-07
1.98552e-05
1.50487e-07
1.97335e-05
2.03234e-07
1.96089e-05
2.08172e-07
1.95481e-05
9.76406e-08
1.95961e-05
-8.61708e-08
1.97669e-05
-2.94373e-07
1.99734e-05
-3.51927e-07
2.00516e-05
-1.27554e-07
1.99396e-05
1.96278e-07
1.95909e-05
5.97164e-07
1.90675e-05
8.94133e-07
1.87658e-05
5.01415e-07
1.90276e-05
-4.65735e-07
1.9977e-05
-1.63485e-06
2.18988e-05
-3.29562e-06
2.5473e-05
-6.15251e-06
2.74859e-05
-3.42454e-06
2.04908e-05
1.21773e-05
5.01092e-06
2.6081e-05
-6.74162e-06
1.9271e-05
-6.0925e-06
-1.61991e-06
-4.35124e-06
-3.39867e-06
-1.24018e-05
1.37673e-05
-1.64266e-05
7.70886e-06
-2.67846e-05
2.35392e-05
1.297e-06
-5.30874e-05
2.02394e-05
9.18725e-06
8.30223e-06
2.54849e-05
9.86405e-06
-4.57455e-06
9.79501e-06
-1.68706e-06
-9.96759e-06
3.8979e-05
-3.48581e-05
5.13196e-05
-4.5466e-05
2.30427e-05
-4.22655e-05
-6.6184e-06
-3.6835e-05
-1.16482e-05
-3.38924e-05
-6.26997e-06
-3.2459e-05
-3.07571e-06
-3.21092e-05
-8.05076e-07
-3.26223e-05
1.04009e-06
-3.34525e-05
1.75163e-06
-3.39952e-05
1.15571e-06
-3.41575e-05
3.61601e-07
-3.40197e-05
-2.71942e-07
-3.36885e-05
-6.95106e-07
-3.34203e-05
-5.74244e-07
-3.33487e-05
-1.66941e-07
-3.34476e-05
1.89649e-07
-3.36438e-05
3.97629e-07
-3.38319e-05
3.82912e-07
-3.39696e-05
2.77103e-07
-3.4076e-05
2.09778e-07
-3.41869e-05
2.16021e-07
-3.43241e-05
2.72012e-07
-3.4485e-05
3.17572e-07
-3.4653e-05
3.35197e-07
-3.48208e-05
3.33769e-07
-3.49903e-05
3.35953e-07
-3.51653e-05
3.46396e-07
-3.5347e-05
3.60169e-07
-3.55333e-05
3.67461e-07
-3.57237e-05
3.79308e-07
-3.59177e-05
3.82297e-07
-3.61152e-05
3.93373e-07
-3.63172e-05
3.99005e-07
-3.6521e-05
4.03807e-07
-3.67282e-05
4.09701e-07
-3.69373e-05
4.13951e-07
-3.71488e-05
4.18646e-07
-3.73619e-05
4.18779e-07
-3.75768e-05
4.27461e-07
-3.77925e-05
4.24342e-07
-3.80099e-05
4.32001e-07
-3.82275e-05
4.27635e-07
-3.84453e-05
4.33447e-07
-3.86643e-05
4.32617e-07
-3.88828e-05
4.32241e-07
-3.91022e-05
4.33116e-07
-3.93215e-05
4.32705e-07
-3.95398e-05
4.31422e-07
-3.97571e-05
4.3022e-07
-3.9975e-05
4.29626e-07
-4.01913e-05
4.25436e-07
-4.04078e-05
4.29899e-07
-4.06231e-05
4.23427e-07
-4.08382e-05
4.27028e-07
-4.10523e-05
4.20425e-07
-4.12656e-05
4.24022e-07
-4.14779e-05
4.19866e-07
-4.16901e-05
4.19263e-07
-4.19023e-05
4.19055e-07
-4.21133e-05
4.1683e-07
-4.23224e-05
4.15781e-07
-4.253e-05
4.12612e-07
-4.27363e-05
4.09705e-07
-4.29377e-05
4.03009e-07
-4.31346e-05
3.95511e-07
-4.33289e-05
3.89749e-07
-4.35253e-05
3.89328e-07
-4.37245e-05
3.97536e-07
-4.39277e-05
3.99493e-07
-4.41343e-05
4.11052e-07
-4.43438e-05
4.11112e-07
-4.45549e-05
4.2e-07
-4.47674e-05
4.1856e-07
-4.49832e-05
4.29482e-07
-4.52001e-05
4.27651e-07
-4.542e-05
4.37614e-07
-4.56421e-05
4.37307e-07
-4.58664e-05
4.47776e-07
-4.60943e-05
4.4845e-07
-4.6325e-05
4.59777e-07
-4.65592e-05
4.64666e-07
-4.68e-05
4.78579e-07
-4.70815e-05
5.33197e-07
-4.73612e-05
5.28525e-07
-4.76076e-05
4.86603e-07
-4.78592e-05
4.98086e-07
-4.81153e-05
5.06309e-07
-4.83754e-05
5.14675e-07
-4.86397e-05
5.21772e-07
-4.89065e-05
5.28583e-07
-4.91776e-05
5.3645e-07
-4.94519e-05
5.42764e-07
-4.97304e-05
5.50278e-07
-5.00112e-05
5.56016e-07
-5.02945e-05
5.61261e-07
-5.05807e-05
5.66583e-07
-5.08694e-05
5.71092e-07
-5.11594e-05
5.7418e-07
-5.14511e-05
5.77761e-07
-5.17432e-05
5.78608e-07
-5.20354e-05
5.78937e-07
-5.23276e-05
5.78947e-07
-5.26195e-05
5.77759e-07
-5.29093e-05
5.74802e-07
-5.31978e-05
5.7198e-07
-5.34838e-05
5.6679e-07
-5.37653e-05
5.58721e-07
-5.40413e-05
5.48004e-07
-5.4311e-05
5.35844e-07
-5.45743e-05
5.21928e-07
-5.48283e-05
5.04905e-07
-5.50742e-05
4.8825e-07
-5.53088e-05
4.67962e-07
-5.55337e-05
4.4675e-07
-5.57467e-05
4.24751e-07
-5.59487e-05
4.02833e-07
-5.61396e-05
3.86207e-07
-5.63201e-05
3.52557e-07
-5.64871e-05
3.40488e-07
-5.66457e-05
3.0958e-07
-5.67965e-05
3.12078e-07
-5.69432e-05
2.82868e-07
-5.70901e-05
2.9775e-07
-5.72436e-05
3.03057e-07
-5.74161e-05
3.61132e-07
-5.76235e-05
3.95577e-07
-5.78861e-05
5.37434e-07
-5.82442e-05
6.95455e-07
-5.87679e-05
1.0394e-06
-5.95459e-05
1.54851e-06
-6.06046e-05
2.11587e-06
-6.18052e-05
2.4221e-06
-6.28738e-05
2.18825e-06
-6.35898e-05
1.51653e-06
-6.39289e-05
8.01661e-07
-6.39914e-05
3.01221e-07
-6.41342e-05
5.23451e-07
-6.49518e-05
1.99564e-06
-6.61333e-05
2.89308e-06
-6.62603e-05
9.35843e-07
-6.16902e-05
-8.40626e-06
-4.54011e-05
-3.24706e-05
-1.62663e-05
-5.91835e-05
1.67654e-05
-6.74071e-05
4.58521e-05
-5.908e-05
6.20789e-05
-3.23354e-05
6.65753e-05
-8.25035e-06
6.64155e-05
1.00387e-06
6.52169e-05
2.92932e-06
6.43697e-05
2.05808e-06
6.41332e-05
7.19293e-07
6.38438e-05
7.66989e-07
6.30304e-05
1.7619e-06
6.15638e-05
3.02199e-06
5.97394e-05
3.68427e-06
5.80666e-05
3.34025e-06
5.68581e-05
2.39498e-06
5.61191e-05
1.46011e-06
5.5698e-05
8.29771e-07
5.54508e-05
4.57106e-07
5.52965e-05
3.35361e-07
5.51928e-05
2.13585e-07
5.51197e-05
1.36791e-07
5.50657e-05
9.73481e-08
5.50182e-05
1.08016e-07
5.49681e-05
9.93284e-08
5.491e-05
1.1808e-07
5.48398e-05
1.38914e-07
5.47569e-05
1.68066e-07
5.46564e-05
1.98387e-07
5.45424e-05
2.28424e-07
5.44145e-05
2.55524e-07
5.42718e-05
2.84745e-07
5.41149e-05
3.1168e-07
5.39468e-05
3.3576e-07
5.37653e-05
3.60427e-07
5.35732e-05
3.8195e-07
5.33698e-05
4.02892e-07
5.31583e-05
4.20249e-07
5.29388e-05
4.3582e-07
5.27122e-05
4.49747e-07
5.24795e-05
4.61078e-07
5.22426e-05
4.6949e-07
5.20029e-05
4.75605e-07
5.17592e-05
4.82006e-07
5.15135e-05
4.86809e-07
5.12659e-05
4.90318e-07
5.10168e-05
4.93337e-07
5.07666e-05
4.95659e-07
5.05164e-05
4.9525e-07
5.02661e-05
4.95002e-07
5.00169e-05
4.9328e-07
4.97692e-05
4.90914e-07
4.95224e-05
4.88434e-07
4.92766e-05
4.85547e-07
4.90336e-05
4.80584e-07
4.87928e-05
4.76613e-07
4.85551e-05
4.70703e-07
4.8319e-05
4.66033e-07
4.8086e-05
4.60988e-07
4.78556e-05
4.55247e-07
4.76283e-05
4.49998e-07
4.74036e-05
4.43977e-07
4.71815e-05
4.38695e-07
4.69613e-05
4.33956e-07
4.67453e-05
4.27099e-07
4.6532e-05
4.21213e-07
4.63244e-05
4.09705e-07
4.61022e-05
4.15608e-07
4.58591e-05
4.68664e-07
4.56296e-05
4.46857e-07
4.54197e-05
4.2221e-07
4.52139e-05
4.01815e-07
4.50085e-05
4.11856e-07
4.48053e-05
3.97517e-07
4.46021e-05
4.07544e-07
4.43988e-05
3.95558e-07
4.41964e-05
4.05722e-07
4.39945e-05
3.94428e-07
4.37933e-05
4.0349e-07
4.35913e-05
3.94132e-07
4.33902e-05
3.98685e-07
4.31891e-05
3.99569e-07
4.29876e-05
4.01415e-07
4.27837e-05
4.04969e-07
4.25786e-05
4.08999e-07
4.23708e-05
4.1496e-07
4.21591e-05
4.19763e-07
4.19444e-05
4.25285e-07
4.1728e-05
4.28823e-07
4.15102e-05
4.31931e-07
4.12901e-05
4.39456e-07
4.10683e-05
4.35198e-07
4.08446e-05
4.45857e-07
4.062e-05
4.40851e-07
4.03935e-05
4.51109e-07
4.01667e-05
4.45389e-07
3.99375e-05
4.52331e-07
3.97086e-05
4.5356e-07
3.94784e-05
4.55073e-07
3.92469e-05
4.57152e-07
3.90151e-05
4.57911e-07
3.87837e-05
4.58073e-07
3.85516e-05
4.58636e-07
3.83198e-05
4.58618e-07
3.80883e-05
4.60209e-07
3.78567e-05
4.55722e-07
3.76264e-05
4.575e-07
3.73968e-05
4.52492e-07
3.71682e-05
4.52158e-07
3.69415e-05
4.49081e-07
3.67167e-05
4.45062e-07
3.64936e-05
4.41383e-07
3.62736e-05
4.3602e-07
3.60552e-05
4.31353e-07
3.58408e-05
4.24707e-07
3.56301e-05
4.18876e-07
3.54228e-05
4.09721e-07
3.52193e-05
4.03651e-07
3.50205e-05
3.93862e-07
3.48286e-05
3.80073e-07
3.46423e-05
3.69299e-07
3.44582e-05
3.66807e-07
3.42743e-05
3.6511e-07
3.4098e-05
3.48983e-07
3.3946e-05
3.00526e-07
3.38207e-05
2.44923e-07
3.37009e-05
2.36187e-07
3.35516e-05
2.9977e-07
3.33543e-05
4.00534e-07
3.31508e-05
4.1179e-07
3.30444e-05
2.03972e-07
3.31065e-05
-1.48243e-07
3.33629e-05
-5.50764e-07
3.36818e-05
-6.70863e-07
3.38121e-05
-2.57799e-07
3.36508e-05
3.57549e-07
3.31212e-05
1.12676e-06
3.23149e-05
1.70047e-06
3.18253e-05
9.90989e-07
3.21859e-05
-8.26286e-07
3.36134e-05
-3.0624e-06
3.65278e-05
-6.21e-06
4.19013e-05
-1.1526e-05
4.51039e-05
-6.62711e-06
3.47249e-05
2.25562e-05
1.01823e-05
5.06237e-05
-9.5947e-06
3.9048e-05
-9.78012e-06
-1.43448e-06
-7.91364e-06