/*--------------------------------*- C++ -*----------------------------------*\
| =========                 |                                                 |
| \\      /  F ield         | OpenFOAM: The Open Source CFD Toolbox           |
|  \\    /   O peration     | Version:  2412                                  |
|   \\  /    A nd           | Website:  www.openfoam.com                      |
|    \\/     M anipulation  |                                                 |
\*---------------------------------------------------------------------------*/
FoamFile
{
    version     2.0;
    format      ascii;
    arch        "LSB;label=32;scalar=64";
    class       surfaceScalarField;
    location    "100";
    object      phi;
}
// * * * * * * * * * * * * * * * * * * * * * * * * * * * * * * * * * * * * * //

dimensions      [0 3 -1 0 0 0 0];

oriented        oriented;

internalField   nonuniform List<scalar> 
64883
(
1.22883e-05
-1.73611e-07
-1.21147e-05
1.07638e-05
1.52445e-06
4.21433e-06
6.5495e-06
1.34078e-06
2.87355e-06
3.80014e-06
-2.45936e-06
3.76799e-06
3.21531e-08
-4.7219e-06
8.48989e-06
-1.43737e-05
9.65184e-06
-1.74649e-05
3.09114e-06
-1.49352e-05
-2.52971e-06
-1.28099e-05
-2.12532e-06
-1.17273e-05
-1.08258e-06
-1.12061e-05
-5.21188e-07
-1.11749e-05
-3.11397e-08
-1.15405e-05
3.65522e-07
-1.19246e-05
3.84099e-07
-1.21241e-05
1.99567e-07
-1.21559e-05
3.17688e-08
-1.20415e-05
-1.14382e-07
-1.1897e-05
-1.44564e-07
-1.1839e-05
-5.79968e-08
-1.18651e-05
2.61017e-08
-1.19691e-05
1.04043e-07
-1.20812e-05
1.1211e-07
-1.21515e-05
7.03282e-08
-1.22037e-05
5.21016e-08
-1.22592e-05
5.55359e-08
-1.23275e-05
6.83763e-08
-1.24055e-05
7.7924e-08
-1.2485e-05
7.95625e-08
-1.25636e-05
7.85454e-08
-1.26429e-05
7.91775e-08
-1.27244e-05
8.16726e-08
-1.28078e-05
8.33723e-08
-1.28926e-05
8.48489e-08
-1.29783e-05
8.56953e-08
-1.30647e-05
8.63652e-08
-1.3152e-05
8.71525e-08
-1.32399e-05
8.80373e-08
-1.33282e-05
8.83423e-08
-1.34167e-05
8.84678e-08
-1.35055e-05
8.8769e-08
-1.35946e-05
8.91602e-08
-1.36837e-05
8.9034e-08
-1.37724e-05
8.87296e-08
-1.3861e-05
8.85932e-08
-1.39493e-05
8.81679e-08
-1.40376e-05
8.84131e-08
-1.41252e-05
8.76606e-08
-1.42122e-05
8.69638e-08
-1.4299e-05
8.68684e-08
-1.43852e-05
8.61201e-08
-1.44706e-05
8.54119e-08
-1.45559e-05
8.51308e-08
-1.46402e-05
8.44698e-08
-1.47237e-05
8.33999e-08
-1.4807e-05
8.34324e-08
-1.48891e-05
8.19513e-08
-1.49706e-05
8.16322e-08
-1.50513e-05
8.07647e-08
-1.51318e-05
8.04651e-08
-1.52115e-05
7.97531e-08
-1.52903e-05
7.88073e-08
-1.53683e-05
7.79519e-08
-1.54458e-05
7.75617e-08
-1.55228e-05
7.70082e-08
-1.55991e-05
7.60631e-08
-1.56751e-05
7.61554e-08
-1.57506e-05
7.53081e-08
-1.58257e-05
7.53136e-08
-1.59004e-05
7.34977e-08
-1.59744e-05
7.53162e-08
-1.60141e-05
4.75265e-08
-1.60877e-05
6.63724e-08
-1.6164e-05
7.62253e-08
-1.62047e-05
4.07697e-08
-1.62792e-05
7.45269e-08
-1.63535e-05
7.42648e-08
-1.6429e-05
7.54545e-08
-1.65048e-05
7.5807e-08
-1.65813e-05
7.65243e-08
-1.66586e-05
7.73212e-08
-1.67365e-05
7.79174e-08
-1.68158e-05
7.92451e-08
-1.6896e-05
8.02196e-08
-1.69772e-05
8.12317e-08
-1.70597e-05
8.247e-08
-1.71431e-05
8.34445e-08
-1.72282e-05
8.51214e-08
-1.73147e-05
8.64418e-08
-1.74022e-05
8.75789e-08
-1.74913e-05
8.90918e-08
-1.75819e-05
9.06195e-08
-1.76739e-05
9.20446e-08
-1.77674e-05
9.34072e-08
-1.78621e-05
9.48272e-08
-1.7958e-05
9.58265e-08
-1.80553e-05
9.74162e-08
-1.81541e-05
9.86659e-08
-1.8254e-05
1.00094e-07
-1.83554e-05
1.01241e-07
-1.84578e-05
1.02581e-07
-1.85612e-05
1.0323e-07
-1.86655e-05
1.04551e-07
-1.8771e-05
1.05271e-07
-1.88776e-05
1.06888e-07
-1.89852e-05
1.07278e-07
-1.90935e-05
1.08685e-07
-1.92027e-05
1.08794e-07
-1.93121e-05
1.09967e-07
-1.94218e-05
1.09217e-07
-1.95305e-05
1.09267e-07
-1.96384e-05
1.07274e-07
-1.97451e-05
1.07411e-07
-1.98502e-05
1.04375e-07
-1.99534e-05
1.0404e-07
-2.00544e-05
1.00171e-07
-2.01521e-05
9.85997e-08
-2.02473e-05
9.42962e-08
-2.03391e-05
9.18168e-08
-2.04245e-05
8.54245e-08
-2.05913e-05
1.66815e-07
-2.07569e-05
1.65528e-07
-2.08363e-05
7.94044e-08
-2.09135e-05
7.72701e-08
-2.09886e-05
7.50265e-08
-2.10622e-05
7.3674e-08
-2.11358e-05
7.35823e-08
-2.12116e-05
7.58248e-08
-2.12928e-05
8.11845e-08
-2.13789e-05
8.6054e-08
-2.13952e-05
1.99032e-08
-2.14587e-05
6.02879e-08
-2.16831e-05
2.32736e-07
-2.21354e-05
4.43893e-07
-2.27352e-05
5.95018e-07
-2.33294e-05
5.98937e-07
-2.38816e-05
5.51063e-07
-2.4268e-05
3.87537e-07
-2.44632e-05
1.95201e-07
-2.45297e-05
6.65098e-08
-2.46139e-05
8.41591e-08
-2.48915e-05
2.77621e-07
-2.55595e-05
6.67985e-07
-2.64328e-05
8.73258e-07
-2.68518e-05
4.19046e-07
-2.46974e-05
-2.15439e-06
-1.78035e-05
-6.89392e-06
-6.28454e-06
-1.15189e-05
6.5758e-06
-1.28603e-05
1.80625e-05
-1.14867e-05
2.48993e-05
-6.83678e-06
2.70057e-05
-2.10642e-06
2.6574e-05
4.31658e-07
2.57483e-05
8.25703e-07
2.50038e-05
7.44522e-07
2.4572e-05
4.31826e-07
2.45546e-05
1.73524e-08
2.45565e-05
-1.8917e-09
2.42899e-05
2.66602e-07
2.3733e-05
5.58243e-07
2.29385e-05
7.93206e-07
2.21271e-05
8.17522e-07
2.14086e-05
7.12185e-07
2.09232e-05
4.74428e-07
2.06983e-05
2.35988e-07
2.06312e-05
6.4243e-08
2.06116e-05
2.23413e-08
2.05362e-05
7.53962e-08
2.04724e-05
6.38486e-08
2.04209e-05
5.14737e-08
2.03767e-05
4.41803e-08
2.0337e-05
3.97802e-08
2.02984e-05
3.85212e-08
2.02576e-05
4.08188e-08
2.02135e-05
4.41031e-08
2.00876e-05
1.25903e-07
1.99593e-05
1.28287e-07
1.99058e-05
5.35267e-08
1.98451e-05
6.07504e-08
1.978e-05
6.50437e-08
1.97115e-05
6.83108e-08
1.96387e-05
7.29414e-08
1.95629e-05
7.57667e-08
1.94842e-05
7.87683e-08
1.94029e-05
8.13299e-08
1.93194e-05
8.34862e-08
1.9234e-05
8.54211e-08
1.91467e-05
8.72817e-08
1.90586e-05
8.82292e-08
1.89698e-05
8.86995e-08
1.88808e-05
8.91296e-08
1.87915e-05
8.91943e-08
1.87023e-05
8.93378e-08
1.86133e-05
8.88006e-08
1.85248e-05
8.872e-08
1.84364e-05
8.82079e-08
1.83483e-05
8.84088e-08
1.82603e-05
8.76412e-08
1.81734e-05
8.72691e-08
1.80869e-05
8.61278e-08
1.80016e-05
8.56757e-08
1.79174e-05
8.38704e-08
1.78343e-05
8.33784e-08
1.77526e-05
8.14467e-08
1.76721e-05
8.07952e-08
1.75928e-05
7.892e-08
1.7515e-05
7.81601e-08
1.74385e-05
7.6174e-08
1.73628e-05
7.6025e-08
1.72881e-05
7.44204e-08
1.72144e-05
7.36737e-08
1.71412e-05
7.32265e-08
1.70686e-05
7.25916e-08
1.69963e-05
7.2228e-08
1.69244e-05
7.19494e-08
1.68531e-05
7.13344e-08
1.67816e-05
7.14596e-08
1.67102e-05
7.13679e-08
1.66389e-05
7.13218e-08
1.65672e-05
7.17348e-08
1.65317e-05
3.54574e-08
1.64962e-05
3.54794e-08
1.64248e-05
7.13993e-08
1.63514e-05
7.42794e-08
1.62777e-05
7.28652e-08
1.62036e-05
7.47109e-08
1.61292e-05
7.37885e-08
1.60546e-05
7.51545e-08
1.59793e-05
7.46598e-08
1.59033e-05
7.65675e-08
1.58269e-05
7.59151e-08
1.575e-05
7.69009e-08
1.56723e-05
7.76706e-08
1.5594e-05
7.82708e-08
1.55153e-05
7.86973e-08
1.54357e-05
7.95922e-08
1.53552e-05
8.05723e-08
1.52739e-05
8.13152e-08
1.51922e-05
8.16311e-08
1.51098e-05
8.24595e-08
1.50267e-05
8.35356e-08
1.49424e-05
8.38687e-08
1.48577e-05
8.5154e-08
1.47722e-05
8.49741e-08
1.46857e-05
8.65757e-08
1.45989e-05
8.67838e-08
1.45113e-05
8.76047e-08
1.44228e-05
8.84247e-08
1.43343e-05
8.85771e-08
1.42449e-05
8.93735e-08
1.41549e-05
9.04138e-08
1.40645e-05
8.99761e-08
1.39738e-05
9.09902e-08
1.38829e-05
9.05767e-08
1.37915e-05
9.13914e-08
1.36999e-05
9.16519e-08
1.36085e-05
9.13985e-08
1.35173e-05
9.1238e-08
1.3426e-05
9.12728e-08
1.3335e-05
9.11151e-08
1.32445e-05
9.03895e-08
1.31547e-05
8.97769e-08
1.30654e-05
8.92669e-08
1.29768e-05
8.85812e-08
1.28896e-05
8.72635e-08
1.2804e-05
8.56404e-08
1.27205e-05
8.34004e-08
1.26377e-05
8.28135e-08
1.25538e-05
8.38961e-08
1.24715e-05
8.23088e-08
1.23987e-05
7.28306e-08
1.23387e-05
6.00292e-08
1.22817e-05
5.69562e-08
1.22078e-05
7.38959e-08
1.21098e-05
9.80025e-08
1.20117e-05
9.80747e-08
1.19742e-05
3.74964e-08
1.20261e-05
-5.18492e-08
1.2166e-05
-1.39897e-07
1.22758e-05
-1.09776e-07
1.22403e-05
3.5496e-08
1.20394e-05
2.00873e-07
1.16569e-05
3.82523e-07
1.1295e-05
3.61923e-07
1.1331e-05
-3.6011e-08
1.18545e-05
-5.23525e-07
1.29426e-05
-1.08811e-06
1.50676e-05
-2.12504e-06
1.75989e-05
-2.53128e-06
1.4508e-05
3.09086e-06
4.96204e-06
9.54601e-06
-3.12985e-06
8.09189e-06
-4.00709e-06
8.77237e-07
-2.95746e-06
-1.04963e-06
-4.78499e-06
1.82754e-06
-9.93605e-06
5.15106e-06
-1.14146e-05
1.47856e-06
-1.15882e-05
3.24419e-05
-2.46855e-07
-4.43097e-05
3.26772e-05
1.28918e-06
1.54538e-05
2.37729e-05
6.16153e-06
1.21658e-05
1.15938e-05
-7.89166e-06
7.24945e-06
4.37654e-06
-2.05809e-05
3.63203e-05
-4.82286e-05
3.72996e-05
-5.60019e-05
1.08644e-05
-4.92007e-05
-9.33091e-06
-4.32223e-05
-8.10369e-06
-4.02017e-05
-4.10326e-06
-3.87968e-05
-1.92605e-06
-3.88164e-05
-1.15345e-08
-3.98871e-05
1.43618e-06
-4.09819e-05
1.47889e-06
-4.15369e-05
7.54633e-07
-4.15956e-05
9.04898e-08
-4.12592e-05
-4.50783e-07
-4.08621e-05
-5.41748e-07
-4.07215e-05
-1.98521e-07
-4.08322e-05
1.36752e-07
-4.1206e-05
4.77886e-07
-4.16083e-05
5.14358e-07
-4.18395e-05
3.01566e-07
-4.20176e-05
2.30178e-07
-4.221e-05
2.47939e-07
-4.24406e-05
2.9897e-07
-4.26988e-05
3.36189e-07
-4.29622e-05
3.42969e-07
-4.32252e-05
3.41485e-07
-4.34907e-05
3.44487e-07
-4.37636e-05
3.54789e-07
-4.40438e-05
3.63531e-07
-4.43285e-05
3.69564e-07
-4.46165e-05
3.73697e-07
-4.49069e-05
3.76781e-07
-4.51998e-05
3.79835e-07
-4.54958e-05
3.84267e-07
-4.57932e-05
3.85745e-07
-4.60918e-05
3.87102e-07
-4.63917e-05
3.88615e-07
-4.6692e-05
3.89463e-07
-4.69926e-05
3.89678e-07
-4.72937e-05
3.89806e-07
-4.75935e-05
3.88383e-07
-4.78931e-05
3.87508e-07
-4.8191e-05
3.86602e-07
-4.84877e-05
3.84404e-07
-4.8784e-05
3.83243e-07
-4.90786e-05
3.81424e-07
-4.93714e-05
3.7897e-07
-4.96624e-05
3.76447e-07
-4.99512e-05
3.73661e-07
-5.0238e-05
3.71453e-07
-5.05234e-05
3.68671e-07
-5.08055e-05
3.65735e-07
-5.10859e-05
3.62188e-07
-5.13628e-05
3.58671e-07
-5.16391e-05
3.57061e-07
-5.19129e-05
3.54306e-07
-5.2184e-05
3.50824e-07
-5.24524e-05
3.47292e-07
-5.27193e-05
3.44771e-07
-5.29838e-05
3.42113e-07
-5.3246e-05
3.39257e-07
-5.35073e-05
3.36997e-07
-5.37656e-05
3.34792e-07
-5.40232e-05
3.32504e-07
-5.42802e-05
3.32722e-07
-5.45361e-05
3.2771e-07
-5.4788e-05
3.2898e-07
-5.482e-05
9.08847e-08
-5.50696e-05
3.05371e-07
-5.53273e-05
3.33873e-07
-5.53569e-05
7.04145e-08
-5.5608e-05
3.25642e-07
-5.58613e-05
3.27607e-07
-5.61159e-05
3.29993e-07
-5.63725e-05
3.32468e-07
-5.66317e-05
3.35673e-07
-5.68932e-05
3.38826e-07
-5.71576e-05
3.42341e-07
-5.74251e-05
3.46773e-07
-5.7696e-05
3.51101e-07
-5.79712e-05
3.56483e-07
-5.82493e-05
3.60532e-07
-5.85323e-05
3.66371e-07
-5.88198e-05
3.72716e-07
-5.91115e-05
3.78118e-07
-5.94084e-05
3.84539e-07
-5.97094e-05
3.9015e-07
-6.00154e-05
3.966e-07
-6.03259e-05
4.0262e-07
-6.06413e-05
4.08752e-07
-6.09613e-05
4.14955e-07
-6.12851e-05
4.19531e-07
-6.16133e-05
4.25799e-07
-6.19468e-05
4.3196e-07
-6.2284e-05
4.37631e-07
-6.2625e-05
4.41951e-07
-6.29698e-05
4.47644e-07
-6.33183e-05
4.51417e-07
-6.36703e-05
4.57017e-07
-6.40252e-05
4.59797e-07
-6.43834e-05
4.6554e-07
-6.47438e-05
4.67219e-07
-6.51086e-05
4.73938e-07
-6.54748e-05
4.74551e-07
-6.58433e-05
4.79135e-07
-6.62097e-05
4.74898e-07
-6.65749e-05
4.75317e-07
-6.69356e-05
4.67209e-07
-6.72925e-05
4.65262e-07
-6.76433e-05
4.54229e-07
-6.79873e-05
4.49134e-07
-6.83228e-05
4.34519e-07
-6.86486e-05
4.25702e-07
-6.89632e-05
4.07571e-07
-6.92686e-05
3.97235e-07
-6.95553e-05
3.72094e-07
-7.03107e-05
9.22242e-07
-7.10558e-05
9.10674e-07
-7.13206e-05
3.44139e-07
-7.15737e-05
3.30388e-07
-7.18201e-05
3.21482e-07
-7.20611e-05
3.14619e-07
-7.22997e-05
3.12256e-07
-7.25469e-05
3.23008e-07
-7.28069e-05
3.41175e-07
-7.30802e-05
3.59356e-07
-7.29053e-05
-1.49991e-07
-7.28946e-05
4.49435e-08
-7.36303e-05
9.80809e-07
-7.53485e-05
2.14965e-06
-7.75469e-05
2.78651e-06
-7.94981e-05
2.55689e-06
-8.1274e-05
2.32545e-06
-8.24524e-05
1.5675e-06
-8.29357e-05
6.7854e-07
-8.29206e-05
5.13591e-08
-8.28527e-05
1.62662e-08
-8.31356e-05
5.60516e-07
-8.45812e-05
2.11361e-06
-8.65836e-05
2.8757e-06
-8.65377e-05
3.73101e-07
-7.81856e-05
-1.05065e-05
-5.55618e-05
-2.95177e-05
-1.94806e-05
-4.76002e-05
2.03842e-05
-5.27252e-05
5.63725e-05
-4.7475e-05
7.88346e-05
-2.92988e-05
8.70492e-05
-1.03211e-05
8.70571e-05
4.23824e-07
8.53173e-05
2.56544e-06
8.34883e-05
2.57359e-06
8.24072e-05
1.51285e-06
8.28299e-05
-4.05359e-07
8.32582e-05
-4.30182e-07
8.2542e-05
9.8279e-07
8.07904e-05
2.31187e-06
7.81909e-05
3.39083e-06
7.54948e-05
3.52244e-06
7.28994e-05
3.29843e-06
7.10784e-05
2.27926e-06
7.034e-05
9.90771e-07
7.03237e-05
7.63352e-08
7.04721e-05
-1.22124e-07
7.02329e-05
3.14639e-07
7.00302e-05
2.66608e-07
6.9865e-05
2.16662e-07
6.97261e-05
1.83101e-07
6.95996e-05
1.66276e-07
6.94763e-05
1.61805e-07
6.93466e-05
1.70496e-07
6.92017e-05
1.88955e-07
6.86007e-05
7.26988e-07
6.79855e-05
7.43406e-07
6.78064e-05
2.32626e-07
6.76054e-05
2.61766e-07
6.73922e-05
2.78301e-07
6.71644e-05
2.95728e-07
6.69239e-05
3.13793e-07
6.6672e-05
3.27501e-07
6.641e-05
3.40923e-07
6.61386e-05
3.52726e-07
6.58598e-05
3.62246e-07
6.55732e-05
3.7214e-07
6.52821e-05
3.783e-07
6.49856e-05
3.84857e-07
6.4688e-05
3.86218e-07
6.43884e-05
3.88905e-07
6.40896e-05
3.87738e-07
6.37901e-05
3.8913e-07
6.34911e-05
3.8758e-07
6.31923e-05
3.87822e-07
6.28945e-05
3.85712e-07
6.25977e-05
3.85534e-07
6.23024e-05
3.82581e-07
6.20088e-05
3.81306e-07
6.17171e-05
3.77408e-07
6.14292e-05
3.74067e-07
6.11449e-05
3.67666e-07
6.08644e-05
3.64374e-07
6.05884e-05
3.5696e-07
6.03169e-05
3.52797e-07
6.00493e-05
3.45964e-07
5.97863e-05
3.41676e-07
5.95268e-05
3.35242e-07
5.92715e-05
3.31804e-07
5.90189e-05
3.26532e-07
5.8769e-05
3.23495e-07
5.85223e-05
3.19996e-07
5.82763e-05
3.18596e-07
5.80325e-05
3.16041e-07
5.77896e-05
3.14756e-07
5.75475e-05
3.13461e-07
5.73059e-05
3.13095e-07
5.70642e-05
3.13037e-07
5.68228e-05
3.12771e-07
5.6581e-05
3.13471e-07
5.65727e-05
4.37728e-08
5.65652e-05
4.29674e-08
5.63229e-05
3.13704e-07
5.60727e-05
3.25696e-07
5.58206e-05
3.23804e-07
5.55676e-05
3.28601e-07
5.5313e-05
3.2743e-07
5.50573e-05
3.31668e-07
5.47995e-05
3.31572e-07
5.45405e-05
3.36391e-07
5.42804e-05
3.35244e-07
5.4017e-05
3.40304e-07
5.37525e-05
3.42193e-07
5.34855e-05
3.45261e-07
5.32161e-05
3.48095e-07
5.29449e-05
3.5077e-07
5.26711e-05
3.54443e-07
5.23943e-05
3.58064e-07
5.2115e-05
3.60915e-07
5.18349e-05
3.62575e-07
5.15512e-05
3.67993e-07
5.12655e-05
3.68869e-07
5.09761e-05
3.75191e-07
5.06854e-05
3.74983e-07
5.03923e-05
3.7972e-07
5.00966e-05
3.82494e-07
4.97987e-05
3.85499e-07
4.94988e-05
3.88267e-07
4.9197e-05
3.9037e-07
4.88945e-05
3.91938e-07
4.85904e-05
3.9505e-07
4.8284e-05
3.95781e-07
4.79772e-05
3.98276e-07
4.76688e-05
3.98557e-07
4.73601e-05
4.00009e-07
4.70514e-05
4.00354e-07
4.67427e-05
4.00108e-07
4.64348e-05
3.99196e-07
4.61275e-05
3.9851e-07
4.58213e-05
3.97653e-07
4.55175e-05
3.93878e-07
4.52157e-05
3.91572e-07
4.49158e-05
3.89147e-07
4.46187e-05
3.85671e-07
4.43257e-05
3.80296e-07
4.40395e-05
3.71943e-07
4.37603e-05
3.62458e-07
4.34834e-05
3.59734e-07
4.32059e-05
3.61422e-07
4.29334e-05
3.54817e-07
4.26884e-05
3.17872e-07
4.24813e-05
2.67039e-07
4.22879e-05
2.50366e-07
4.20492e-05
3.1267e-07
4.17404e-05
4.06746e-07
4.14301e-05
4.0839e-07
4.12873e-05
1.80258e-07
4.14087e-05
-1.73173e-07
4.17904e-05
-5.21605e-07
4.21119e-05
-4.31264e-07
4.20413e-05
1.06007e-07
4.14827e-05
7.59557e-07
4.03936e-05
1.47157e-06
3.93342e-05
1.42129e-06
3.93295e-05
-3.12442e-08
4.07395e-05
-1.9335e-06
4.37749e-05
-4.1236e-06
4.97304e-05
-8.08048e-06
5.65508e-05
-9.35164e-06
4.86879e-05
1.09537e-05
2.1358e-05
3.6876e-05
-5.94576e-06
3.53956e-05
-1.2431e-05
7.36248e-06
-1.01633e-05
-3.31732e-06
-1.65982e-05
8.26246e-06
-3.03259e-05
1.88787e-05
-3.08426e-05
1.9953e-06
-4.26777e-05
4.98771e-05
-3.29446e-07
-9.38574e-05
5.57426e-05
-4.57625e-06
3.08792e-05
4.86362e-05
1.40795e-05
2.89656e-05
1.88554e-05
-1.26677e-05
5.06576e-06
1.81662e-05
-4.60092e-05
8.73952e-05
-9.10894e-05
8.23798e-05
-0.000102106
2.18813e-05
-9.14707e-05
-1.99664e-05
-8.21394e-05
-1.7435e-05
-7.74021e-05
-8.84053e-06
-7.53007e-05
-4.02751e-06
-7.55002e-05
1.87979e-07
-7.72752e-05
3.21124e-06
-7.9026e-05
3.22971e-06
-7.98828e-05
1.61135e-06
-7.99277e-05
1.35419e-07
-7.93704e-05
-1.0081e-06
-7.87582e-05
-1.15392e-06
-7.85809e-05
-3.7586e-07
-7.88301e-05
3.86006e-07
-7.96113e-05
1.25904e-06
-8.04309e-05
1.33403e-06
-8.08498e-05
7.2044e-07
-8.11917e-05
5.72032e-07
-8.15595e-05
6.15731e-07
-8.19953e-05
7.34853e-07
-8.24773e-05
8.18177e-07
-8.29699e-05
8.35573e-07
-8.34621e-05
8.33671e-07
-8.39613e-05
8.43486e-07
-8.44746e-05
8.68305e-07
-8.50013e-05
8.90203e-07
-8.5536e-05
9.04276e-07
-8.60763e-05
9.1395e-07
-8.66234e-05
9.23934e-07
-8.71764e-05
9.32607e-07
-8.77337e-05
9.41795e-07
-8.82948e-05
9.46864e-07
-8.88581e-05
9.50336e-07
-8.94237e-05
9.54227e-07
-8.99911e-05
9.56915e-07
-9.05596e-05
9.58138e-07
-9.11267e-05
9.56894e-07
-9.16942e-05
9.55946e-07
-9.22611e-05
9.54082e-07
-9.28252e-05
9.51007e-07
-9.3389e-05
9.48207e-07
-9.39482e-05
9.4249e-07
-9.45058e-05
9.39028e-07
-9.50605e-05
9.3362e-07
-9.5611e-05
9.27003e-07
-9.6159e-05
9.21435e-07
-9.67025e-05
9.15139e-07
-9.72424e-05
9.08383e-07
-9.77781e-05
9.01682e-07
-9.83088e-05
8.92654e-07
-9.8836e-05
8.86078e-07
-9.93589e-05
8.80002e-07
-9.98779e-05
8.73332e-07
-0.000100392
8.64611e-07
-0.000100901
8.56459e-07
-0.000101406
8.50095e-07
-0.000101907
8.43162e-07
-0.000102406
8.37699e-07
-0.0001029
8.3086e-07
-0.000103391
8.26201e-07
-0.000103879
8.2006e-07
-0.000104364
8.18568e-07
-0.000104849
8.1097e-07
-0.000105324
8.0543e-07
-0.000105214
-7.78377e-09
-0.000105683
7.63121e-07
-0.000106168
8.18457e-07
-0.00010604
-5.70954e-08
-0.000106516
8.01263e-07
-0.000106992
8.04175e-07
-0.000107471
8.08572e-07
-0.000107953
8.15038e-07
-0.000108441
8.23116e-07
-0.000108934
8.32199e-07
-0.000109431
8.39076e-07
-0.000109934
8.4985e-07
-0.000110444
8.61182e-07
-0.00011096
8.726e-07
-0.000111485
8.85119e-07
-0.000112015
8.97066e-07
-0.000112556
9.13457e-07
-0.000113104
9.2608e-07
-0.00011366
9.40578e-07
-0.000114225
9.55504e-07
-0.000114799
9.70287e-07
-0.000115382
9.85382e-07
-0.000115973
9.99614e-07
-0.000116572
1.01403e-06
-0.000117179
1.02642e-06
-0.000117794
1.04127e-06
-0.000118416
1.054e-06
-0.000119047
1.06884e-06
-0.000119685
1.07995e-06
-0.000120331
1.0932e-06
-0.000120981
1.10121e-06
-0.000121638
1.11442e-06
-0.0001223
1.12186e-06
-0.000122966
1.13232e-06
-0.00012364
1.14061e-06
-0.000124317
1.15105e-06
-0.000125
1.15663e-06
-0.000125683
1.16352e-06
-0.000126365
1.15567e-06
-0.000127041
1.15267e-06
-0.00012771
1.13549e-06
-0.00012837
1.12603e-06
-0.00012902
1.10277e-06
-0.000129654
1.08518e-06
-0.000130272
1.05128e-06
-0.000130872
1.02709e-06
-0.00013145
9.84248e-07
-0.00013201
9.5666e-07
-0.000132543
9.04864e-07
-0.00013417
2.55001e-06
-0.000135765
2.5051e-06
-0.000136242
8.21147e-07
-0.0001367
7.88235e-07
-0.000137144
7.65613e-07
-0.000137574
7.45106e-07
-0.000138001
7.38579e-07
-0.000138437
7.59356e-07
-0.000138898
8.02469e-07
-0.000139379
8.39598e-07
-0.0001388
-7.23835e-07
-0.00013854
-2.19908e-07
-0.000139897
2.35058e-06
-0.000143269
5.50922e-06
-0.00014748
6.99056e-06
-0.000150993
6.07642e-06
-0.000154141
5.47244e-06
-0.000156143
3.57053e-06
-0.000156815
1.35051e-06
-0.000156489
-2.7475e-07
-0.000155903
-5.69757e-07
-0.000155668
3.25315e-07
-0.000157177
3.6229e-06
-0.000159329
5.02732e-06
-0.000157108
-1.84706e-06
-0.000139822
-2.77927e-05
-9.81748e-05
-7.11651e-05
-3.42173e-05
-0.000111558
3.58006e-05
-0.000122743
9.9606e-05
-0.00011128
0.000140991
-7.06837e-05
0.000158051
-2.73814e-05
0.000160206
-1.73113e-06
0.000158499
4.27269e-06
0.000156261
4.81141e-06
0.000154985
2.78886e-06
0.000156251
-1.67125e-06
0.000157424
-1.6035e-06
0.00015633
2.07732e-06
0.000153282
5.36086e-06
0.000148616
8.05609e-06
0.000143706
8.4395e-06
0.000138731
8.26587e-06
0.000135149
5.84449e-06
0.000133785
2.37143e-06
0.000133998
-1.40565e-07
0.000134527
-6.48103e-07
0.000134106
7.36339e-07
0.000133748
6.2451e-07
0.000133462
5.02398e-07
0.00013322
4.24844e-07
0.000133001
3.8545e-07
0.000132784
3.78441e-07
0.000132555
3.99637e-07
0.000132301
4.4362e-07
0.000130974
2.05346e-06
0.000129608
2.10974e-06
0.000129275
5.65177e-07
0.00012891
6.27027e-07
0.000128521
6.67801e-07
0.000128103
7.12933e-07
0.000127662
7.55268e-07
0.000127198
7.90757e-07
0.000126714
8.2508e-07
0.000126214
8.53182e-07
0.000125698
8.78462e-07
0.000125168
9.02125e-07
0.000124627
9.19221e-07
0.000124078
9.34261e-07
0.000123523
9.40506e-07
0.000122968
9.43948e-07
0.00012241
9.46068e-07
0.000121853
9.46031e-07
0.000121295
9.45226e-07
0.000120738
9.45365e-07
0.000120183
9.4061e-07
0.000119628
9.41224e-07
0.000119075
9.34909e-07
0.000118526
9.30852e-07
0.000117982
9.20872e-07
0.000117442
9.14319e-07
0.000116909
8.99996e-07
0.000116384
8.89741e-07
0.000115867
8.73428e-07
0.000115358
8.62782e-07
0.000114856
8.46903e-07
0.000114362
8.36118e-07
0.000113877
8.20467e-07
0.000113397
8.11839e-07
0.000112922
8.0097e-07
0.000112454
7.91826e-07
0.000111988
7.85668e-07
0.000111527
7.79591e-07
0.000111068
7.75099e-07
0.000110612
7.712e-07
0.000110157
7.68105e-07
0.000109701
7.68959e-07
0.000109247
7.67447e-07
0.000108793
7.66554e-07
0.000108338
7.68061e-07
0.000108509
-1.27244e-07
0.000108676
-1.23951e-07
0.000108222
7.6858e-07
0.000107748
8.00597e-07
0.000107271
7.99636e-07
0.00010679
8.09783e-07
0.000106309
8.08182e-07
0.000105824
8.17161e-07
0.000105337
8.1745e-07
0.000104847
8.27658e-07
0.000104353
8.28849e-07
0.000103854
8.38409e-07
0.000103352
8.44833e-07
0.000102846
8.50793e-07
0.000102336
8.58171e-07
0.000101822
8.64914e-07
0.000101303
8.73402e-07
0.000100779
8.82464e-07
0.00010025
8.89378e-07
9.9717e-05
8.95865e-07
9.91802e-05
9.05494e-07
9.86377e-05
9.10623e-07
9.80907e-05
9.22936e-07
9.75398e-05
9.25153e-07
9.69836e-05
9.35903e-07
9.64244e-05
9.41736e-07
9.58603e-05
9.49536e-07
9.52929e-05
9.55734e-07
9.47233e-05
9.59908e-07
9.41486e-05
9.6667e-07
9.35729e-05
9.71302e-07
9.29935e-05
9.74678e-07
9.24127e-05
9.79467e-07
9.18318e-05
9.78998e-07
9.12484e-05
9.83413e-07
9.06652e-05
9.83552e-07
9.0083e-05
9.82319e-07
8.95023e-05
9.79889e-07
8.89228e-05
9.78034e-07
8.83463e-05
9.74447e-07
8.7773e-05
9.66858e-07
8.72046e-05
9.5996e-07
8.66423e-05
9.51512e-07
8.60845e-05
9.43403e-07
8.55339e-05
9.30887e-07
8.49959e-05
9.1001e-07
8.44715e-05
8.86843e-07
8.39535e-05
8.77761e-07
8.34348e-05
8.80107e-07
8.29265e-05
8.63083e-07
8.2464e-05
7.80419e-07
8.20692e-05
6.61821e-07
8.16992e-05
6.2037e-07
8.12629e-05
7.4893e-07
8.07137e-05
9.55986e-07
8.01576e-05
9.64472e-07
7.98618e-05
4.76072e-07
8.0003e-05
-3.14355e-07
8.05818e-05
-1.10039e-06
8.1107e-05
-9.56521e-07
8.10372e-05
1.75788e-07
8.01705e-05
1.62632e-06
7.84283e-05
3.21379e-06
7.66737e-05
3.17586e-06
7.64934e-05
1.49061e-07
7.85921e-05
-4.03222e-06
8.33317e-05
-8.86323e-06
9.25978e-05
-1.73465e-05
0.000103177
-1.99307e-05
9.19517e-05
2.21787e-05
4.72016e-05
8.16261e-05
-3.56799e-06
8.61652e-05
-2.10127e-05
2.48072e-05
-2.02817e-05
-4.04826e-06
-3.19067e-05
1.98874e-05
-5.17035e-05
3.86755e-05
-4.74771e-05
-2.23108e-06
-9.04843e-05
6.37254e-05
-2.18657e-07
-0.000157364
7.80161e-05
-1.8867e-05
4.91901e-05
7.74623e-05
2.49684e-05
5.31873e-05
2.50674e-05
-1.27667e-05
-5.28192e-06
4.85156e-05
-8.3245e-05
0.000165358
-0.000143687
0.000142822
-0.000156356
3.45501e-05
-0.000142625
-3.36969e-05
-0.000130877
-2.91835e-05
-0.000124845
-1.4873e-05
-0.00012235
-6.52154e-06
-0.000122838
6.75402e-07
-0.000125252
5.62563e-06
-0.000127524
5.5018e-06
-0.000128585
2.67215e-06
-0.000128575
1.25275e-07
-0.000127828
-1.75536e-06
-0.000127072
-1.91007e-06
-0.000126932
-5.15201e-07
-0.000127392
8.45542e-07
-0.000128633
2.50012e-06
-0.00012989
2.59136e-06
-0.000130518
1.34806e-06
-0.000131056
1.10983e-06
-0.000131638
1.19848e-06
-0.000132314
1.41087e-06
-0.000133055
1.55885e-06
-0.000133812
1.59215e-06
-0.000134571
1.59262e-06
-0.000135342
1.61485e-06
-0.000136134
1.66035e-06
-0.000136946
1.70223e-06
-0.000137772
1.72985e-06
-0.000138606
1.74876e-06
-0.000139451
1.76855e-06
-0.000140305
1.78618e-06
-0.000141167
1.80389e-06
-0.000142034
1.81372e-06
-0.000142905
1.82168e-06
-0.00014378
1.82948e-06
-0.000144656
1.83266e-06
-0.000145535
1.83673e-06
-0.000146413
1.83575e-06
-0.000147291
1.83322e-06
-0.000148165
1.82802e-06
-0.000149039
1.82539e-06
-0.000149907
1.81622e-06
-0.000150774
1.80913e-06
-0.000151634
1.79982e-06
-0.000152492
1.79088e-06
-0.000153344
1.77925e-06
-0.00015419
1.76686e-06
-0.000155028
1.75433e-06
-0.000155861
1.74107e-06
-0.000156687
1.7274e-06
-0.000157507
1.71237e-06
-0.00015832
1.69975e-06
-0.000159126
1.68545e-06
-0.000159923
1.67112e-06
-0.000160716
1.65745e-06
-0.000161501
1.64142e-06
-0.000162276
1.62523e-06
-0.000163048
1.61523e-06
-0.000163815
1.60418e-06
-0.000164572
1.58816e-06
-0.000165326
1.5802e-06
-0.000166076
1.56954e-06
-0.000166823
1.56595e-06
-0.000167566
1.55211e-06
-0.000168295
1.53606e-06
-0.00016816
-1.33265e-07
-0.000168881
1.47389e-06
-0.00016962
1.55777e-06
-0.000169463
-2.14007e-07
-0.000170195
1.53368e-06
-0.000170931
1.5397e-06
-0.000171673
1.55052e-06
-0.00017242
1.56181e-06
-0.000173172
1.57504e-06
-0.000173929
1.58996e-06
-0.000174697
1.60628e-06
-0.000175474
1.6268e-06
-0.000176259
1.64653e-06
-0.000177053
1.66718e-06
-0.000177861
1.69262e-06
-0.000178678
1.71395e-06
-0.000179508
1.74337e-06
-0.000180353
1.77105e-06
-0.000181209
1.79707e-06
-0.000182076
1.82267e-06
-0.000182956
1.84978e-06
-0.000183851
1.88058e-06
-0.000184758
1.90713e-06
-0.000185676
1.93204e-06
-0.000186605
1.95491e-06
-0.000187546
1.98214e-06
-0.000188499
2.0072e-06
-0.000189464
2.03366e-06
-0.000190437
2.05283e-06
-0.000191421
2.07753e-06
-0.000192413
2.0935e-06
-0.000193415
2.11616e-06
-0.000194422
2.12875e-06
-0.000195438
2.14887e-06
-0.000196459
2.16116e-06
-0.000197489
2.18149e-06
-0.000198524
2.19073e-06
-0.000199559
2.19975e-06
-0.000200592
2.18821e-06
-0.000201615
2.1761e-06
-0.000202625
2.1446e-06
-0.00020362
2.12237e-06
-0.000204598
2.07936e-06
-0.000205553
2.04132e-06
-0.000206481
1.97835e-06
-0.000207379
1.92597e-06
-0.000208244
1.84855e-06
-0.00020908
1.7924e-06
-0.000209889
1.7137e-06
-0.000211937
4.59877e-06
-0.00021392
4.48749e-06
-0.000214608
1.50968e-06
-0.000215264
1.44355e-06
-0.000215895
1.39721e-06
-0.000216509
1.35896e-06
-0.000217115
1.34491e-06
-0.000217738
1.38198e-06
-0.00021839
1.45461e-06
-0.000219087
1.53594e-06
-0.000218654
-1.15281e-06
-0.000218692
-1.86277e-07
-0.000220757
4.42723e-06
-0.000225247
9.98831e-06
-0.000230925
1.26628e-05
-0.000236047
1.12036e-05
-0.000240609
1.00335e-05
-0.000243474
6.43678e-06
-0.000244371
2.24702e-06
-0.000243759
-8.86428e-07
-0.000242597
-1.73206e-06
-0.000241988
-2.82975e-07
-0.000242975
4.60937e-06
-0.000243925
5.97739e-06
-0.000237689
-8.08312e-06
-0.000208595
-5.6887e-05
-0.000144785
-0.000134975
-5.01648e-05
-0.000206178
5.24741e-05
-0.000225382
0.000146887
-0.000205693
0.000210337
-0.000134134
0.000239115
-5.61593e-05
0.000245251
-7.86708e-06
0.000244489
5.03537e-06
0.000242999
6.30107e-06
0.000242559
3.22845e-06
0.000244153
-3.26533e-06
0.000245304
-2.75421e-06
0.000243763
3.61829e-06
0.00023937
9.75578e-06
0.000232574
1.48505e-05
0.000225366
1.56536e-05
0.000218441
1.51841e-05
0.000213539
1.07327e-05
0.00021146
4.46452e-06
0.000211432
-1.16129e-07
0.000211871
-1.0837e-06
0.000211256
1.35084e-06
0.000210755
1.12535e-06
0.000210356
9.02142e-07
0.000210023
7.57154e-07
0.000209722
6.86264e-07
0.000209427
6.73387e-07
0.000209111
7.15866e-07
0.000208753
8.02227e-07
0.000207119
3.6869e-06
0.000205412
3.81704e-06
0.000204906
1.07067e-06
0.000204365
1.16821e-06
0.000203786
1.24706e-06
0.000203165
1.33327e-06
0.000202506
1.41507e-06
0.000201811
1.48521e-06
0.000201085
1.55098e-06
0.000200332
1.60634e-06
0.000199555
1.65558e-06
0.000198756
1.70166e-06
0.000197937
1.73827e-06
0.000197106
1.76506e-06
0.000196267
1.77938e-06
0.000195423
1.78825e-06
0.000194578
1.79065e-06
0.000193729
1.79481e-06
0.000192882
1.79232e-06
0.000192033
1.79432e-06
0.000191186
1.78758e-06
0.00019034
1.7878e-06
0.000189498
1.77651e-06
0.000188659
1.77031e-06
0.000187826
1.75365e-06
0.000187001
1.73952e-06
0.000186186
1.71421e-06
0.000185382
1.69423e-06
0.000184588
1.66684e-06
0.000183806
1.64568e-06
0.000183038
1.61467e-06
0.000182281
1.59369e-06
0.000181533
1.56811e-06
0.000180793
1.55164e-06
0.000180065
1.52884e-06
0.000179344
1.51227e-06
0.000178628
1.50204e-06
0.000177919
1.48884e-06
0.000177213
1.4814e-06
0.000176508
1.47586e-06
0.000175806
1.47001e-06
0.000175107
1.46843e-06
0.000174406
1.46802e-06
0.000173704
1.46854e-06
0.000172999
1.4733e-06
0.000173208
-3.36378e-07
0.000173415
-3.31038e-07
0.000172714
1.46946e-06
0.000171989
1.52682e-06
0.000171257
1.53038e-06
0.000170525
1.54285e-06
0.000169787
1.54533e-06
0.000169045
1.55956e-06
0.000168297
1.56528e-06
0.000167543
1.58151e-06
0.000166785
1.58649e-06
0.000166022
1.60149e-06
0.00016525
1.61729e-06
0.000164471
1.62929e-06
0.000163689
1.64009e-06
0.000162897
1.65705e-06
0.000162097
1.67371e-06
0.000161291
1.68798e-06
0.000160478
1.7028e-06
0.000159656
1.71817e-06
0.000158827
1.73493e-06
0.000157991
1.74534e-06
0.000157148
1.76681e-06
0.000156298
1.77446e-06
0.000155441
1.79356e-06
0.000154575
1.80683e-06
0.000153704
1.82069e-06
0.000152829
1.83117e-06
0.000151947
1.84193e-06
0.000151063
1.85097e-06
0.000150171
1.8633e-06
0.000149278
1.86724e-06
0.000148381
1.87696e-06
0.000147481
1.87836e-06
0.00014658
1.88457e-06
0.00014568
1.88311e-06
0.00014478
1.88274e-06
0.000143882
1.87774e-06
0.000142987
1.87284e-06
0.000142096
1.86585e-06
0.000141212
1.85116e-06
0.000140335
1.83686e-06
0.000139466
1.81997e-06
0.000138606
1.80398e-06
0.000137757
1.77924e-06
0.000136928
1.73941e-06
0.000136118
1.6967e-06
0.00013532
1.67592e-06
0.000134524
1.67623e-06
0.000133743
1.64358e-06
0.000133027
1.49685e-06
0.000132403
1.28557e-06
0.000131823
1.20054e-06
0.000131166
1.40591e-06
0.000130361
1.7611e-06
0.000129538
1.78736e-06
0.000129046
9.68003e-07
0.000129136
-4.03973e-07
0.000129835
-1.79975e-06
0.000130526
-1.64775e-06
0.000130493
2.08787e-07
0.000129413
2.70677e-06
0.000127155
5.47203e-06
0.000124777
5.55303e-06
0.000124313
6.13155e-07
0.000126788
-6.50743e-06
0.000132781
-1.48556e-05
0.000144397
-2.89625e-05
0.000157923
-3.34564e-05
0.00014497
3.51312e-05
8.47145e-05
0.000141882
6.38311e-06
0.000164497
-2.87526e-05