/*--------------------------------*- C++ -*----------------------------------*\
| =========                 |                                                 |
| \\      /  F ield         | OpenFOAM: The Open Source CFD Toolbox           |
|  \\    /   O peration     | Version:  2412                                  |
|   \\  /    A nd           | Website:  www.openfoam.com                      |
|    \\/     M anipulation  |                                                 |
\*---------------------------------------------------------------------------*/
FoamFile
{
    version     2.0;
    format      ascii;
    arch        "LSB;label=32;scalar=64";
    class       volVectorField;
    location    "100";
    object      U;
}
// * * * * * * * * * * * * * * * * * * * * * * * * * * * * * * * * * * * * * //

dimensions      [0 1 -1 0 0 0 0];

internalField   nonuniform List<vector> 
29601
(
(-0.0198439 -0.373086 -1.44195e-20)
(-0.153454 -0.531772 4.59531e-20)
(-0.0722223 -0.122301 -8.83825e-20)
(-0.0453458 -0.0471364 8.72824e-20)
(-0.228542 -0.170945 -1.89069e-23)
(-0.148605 -0.075626 -7.02608e-20)
(0.3133 0.097056 1.5408e-23)
(0.706113 0.132979 0)
(0.753564 0.0962817 2.89381e-20)
(0.60969 0.0751109 2.87284e-20)
(0.531373 0.0704315 -2.76126e-20)
(0.490932 0.0687289 0)
(0.472265 0.0685295 -4.86436e-20)
(0.473321 0.0697307 -4.49421e-20)
(0.489588 0.0715103 -8.29409e-20)
(0.505007 0.0719776 4.6792e-24)
(0.511622 0.0713947 3.5794e-20)
(0.512671 0.0705414 -6.67087e-20)
(0.507488 0.069482 6.21472e-20)
(0.500321 0.0688458 0)
(0.496661 0.0688089 3.21685e-24)
(0.496574 0.0690606 4.88468e-20)
(0.499384 0.0694596 -5.08095e-26)
(0.503115 0.0697404 -2.53364e-24)
(0.505822 0.0698719 0)
(0.507624 0.0699558 0)
(0.50905 0.0700772 1.91723e-24)
(0.510873 0.0702732 -4.07434e-26)
(0.513226 0.0705053 -2.12697e-19)
(0.515847 0.0707345 9.72253e-20)
(0.518488 0.0709466 0)
(0.521085 0.0711545 -2.88855e-26)
(0.523727 0.0713673 -1.08886e-24)
(0.526473 0.0715842 -2.70297e-19)
(0.529329 0.0718028 0)
(0.532235 0.0720117 1.12196e-19)
(0.535205 0.0722209 -1.02098e-19)
(0.538218 0.0724216 0)
(0.541293 0.0726191 0)
(0.544408 0.0728066 -5.70353e-25)
(0.547567 0.0729874 1.3842e-19)
(0.550765 0.0731574 0)
(0.553997 0.073318 1.1288e-19)
(0.557263 0.0734667 0)
(0.560537 0.073601 1.82383e-19)
(0.563852 0.073724 0)
(0.567168 0.0738305 -7.27307e-20)
(0.570517 0.0739243 -1.29086e-19)
(0.573849 0.0739972 1.13944e-19)
(0.577194 0.074056 -9.99283e-20)
(0.58055 0.0740989 -8.69464e-20)
(0.583908 0.0741222 -7.49106e-20)
(0.587268 0.0741294 -1.13877e-25)
(0.590629 0.0741156 1.09506e-25)
(0.593971 0.0740816 4.37301e-20)
(0.597309 0.0740288 0)
(0.600652 0.0739564 -4.36209e-26)
(0.603978 0.0738615 7.42717e-20)
(0.607301 0.0737475 0)
(0.610597 0.0736118 8.86692e-21)
(0.613903 0.0734567 4.82693e-27)
(0.617197 0.0732801 -3.19648e-20)
(0.620488 0.0730799 -9.4563e-28)
(0.623754 0.0728583 3.79604e-20)
(0.627025 0.0726178 2.55302e-26)
(0.630295 0.072354 -2.48223e-26)
(0.633566 0.0720693 3.42593e-26)
(0.636835 0.07176 -3.33652e-26)
(0.640094 0.0714287 4.21556e-26)
(0.64335 0.0710728 -3.64967e-19)
(0.646584 0.0706896 1.97508e-19)
(0.649765 0.0702749 -4.82446e-26)
(0.652911 0.0698339 2.25882e-19)
(0.656032 0.0693608 5.48602e-26)
(0.659176 0.0688681 2.52443e-19)
(0.66237 0.0683474 2.65193e-19)
(0.665606 0.0678024 0)
(0.668871 0.0672271 0)
(0.672177 0.0666238 -3.01873e-19)
(0.675519 0.0659868 0)
(0.678909 0.0653182 -7.96128e-26)
(0.682329 0.0646101 1.60763e-25)
(0.685792 0.0638652 -8.11658e-26)
(0.689305 0.0630785 -2.43212e-25)
(0.692865 0.0622472 -3.95606e-27)
(0.696467 0.0613682 7.67812e-19)
(0.700129 0.0604399 3.95766e-19)
(0.703865 0.05946 -4.07761e-19)
(0.707784 0.058431 4.19909e-19)
(0.711537 0.057334 1.05028e-25)
(0.715331 0.0561572 -8.27278e-26)
(0.719241 0.0549134 0)
(0.723224 0.0535954 -4.70669e-19)
(0.727274 0.0521972 -9.68084e-19)
(0.731387 0.0507137 4.9774e-19)
(0.735565 0.049137 5.11785e-19)
(0.739796 0.0474602 -5.26193e-19)
(0.744085 0.0456813 5.40996e-19)
(0.748434 0.0437904 -5.56231e-19)
(0.752834 0.0417807 0)
(0.757279 0.0396446 5.88019e-19)
(0.761766 0.0373776 -6.04632e-19)
(0.766287 0.0349673 -2.07098e-27)
(0.770837 0.0324104 7.51831e-26)
(0.775415 0.0296952 0)
(0.780011 0.0268151 -3.38169e-19)
(0.78461 0.0237603 8.18897e-26)
(0.789196 0.0205217 3.57817e-19)
(0.79377 0.0170919 -1.84055e-19)
(0.798321 0.0134595 4.46285e-26)
(0.802835 0.00961523 -9.74178e-20)
(0.807313 0.00554954 -2.36425e-26)
(0.811724 0.00125031 1.28939e-20)
(0.816038 -0.00329025 -5.30758e-20)
(0.820238 -0.0080861 1.09245e-19)
(0.824307 -0.013147 2.24864e-19)
(0.828231 -0.0184855 -4.62863e-19)
(0.831984 -0.0241149 0)
(0.835553 -0.0300473 -4.2285e-26)
(0.838911 -0.0362991 5.04612e-19)
(0.842041 -0.0428865 -5.19314e-19)
(0.844935 -0.0498272 5.34428e-19)
(0.847578 -0.0571414 2.63606e-25)
(0.849963 -0.064856 -2.6839e-25)
(0.852083 -0.072997 -1.96524e-25)
(0.853923 -0.0815979 -2.86269e-25)
(0.855479 -0.0906993 5.25067e-26)
(0.856801 -0.100352 1.26415e-18)
(0.857903 -0.110621 6.18125e-25)
(0.858847 -0.121586 1.33208e-18)
(0.859695 -0.133344 1.36521e-18)
(0.86064 -0.146049 0)
(0.861871 -0.159884 1.24895e-24)
(0.863713 -0.175117 1.45526e-18)
(0.866772 -0.192152 -1.47806e-18)
(0.872323 -0.211684 -7.01594e-25)
(0.881542 -0.23462 7.26385e-25)
(0.89388 -0.261658 1.49488e-18)
(0.905641 -0.29274 1.35477e-24)
(0.911679 -0.327179 -1.40974e-24)
(0.909391 -0.364968 -1.34476e-18)
(0.899109 -0.407525 1.2429e-24)
(0.881487 -0.457289 0)
(0.861457 -0.521306 0)
(0.843877 -0.612339 7.87202e-20)
(0.798801 -0.724797 8.84154e-19)
(0.694954 -0.845699 -3.0667e-24)
(0.466974 -0.865143 8.60685e-18)
(0.149945 -0.568929 -3.26376e-24)
(0.00183534 0.00467214 6.93524e-24)
(0.152046 0.576976 -3.25994e-24)
(0.47051 0.871698 -8.55037e-18)
(0.69855 0.850073 0)
(0.802208 0.727879 -1.71189e-18)
(0.847458 0.614936 -1.05892e-19)
(0.864831 0.523346 0)
(0.884395 0.458798 0)
(0.899535 0.407719 1.25702e-24)
(0.905146 0.363267 -1.2035e-24)
(0.897301 0.322024 -1.42111e-24)
(0.878437 0.283953 1.3657e-24)
(0.857145 0.250909 -1.50809e-18)
(0.840908 0.223808 7.33559e-25)
(0.831621 0.201808 -7.08523e-25)
(0.827467 0.183439 0)
(0.826046 0.167479 -1.46862e-18)
(0.825807 0.153193 -1.44024e-18)
(0.826155 0.140196 0)
(0.826683 0.128223 -1.37673e-18)
(0.827307 0.11712 -1.3426e-18)
(0.827882 0.10675 6.22936e-25)
(0.828269 0.0970098 -1.27393e-18)
(0.828385 0.087826 5.17421e-25)
(0.828211 0.0791403 -2.88403e-25)
(0.827683 0.070906 1.82638e-25)
(0.826817 0.0630894 -2.70332e-25)
(0.825623 0.0556607 2.65513e-25)
(0.824145 0.0486008 -5.38235e-19)
(0.822362 0.0418838 5.23039e-19)
(0.820285 0.0354929 -5.08217e-19)
(0.817964 0.0294146 3.86096e-26)
(0.815408 0.0236342 0)
(0.812625 0.018137 4.66174e-19)
(0.809638 0.0129129 -2.26479e-19)
(0.80648 0.00795038 -1.10035e-19)
(0.803164 0.00323826 5.34623e-20)
(0.799708 -0.00123184 -1.29887e-20)
(0.796131 -0.0054727 -2.38189e-26)
(0.792462 -0.009491 2.36583e-26)
(0.788731 -0.0132978 4.49698e-26)
(0.784937 -0.0169017 3.70943e-19)
(0.781091 -0.0203109 -3.60612e-19)
(0.777206 -0.023536 8.25445e-26)
(0.77328 -0.0265836 3.40895e-19)
(0.769332 -0.0294622 0)
(0.765377 -0.0321807 7.58176e-26)
(0.761428 -0.0347455 -2.07606e-27)
(0.757486 -0.0371675 6.0989e-19)
(0.753555 -0.0394496 -5.93242e-19)
(0.749644 -0.0416035 0)
(0.745755 -0.0436335 5.614e-19)
(0.741896 -0.0455468 -5.46145e-19)
(0.738078 -0.0473499 5.31327e-19)
(0.734302 -0.0490525 -5.16907e-19)
(0.730563 -0.0506564 -5.02855e-19)
(0.726873 -0.0521682 9.78305e-19)
(0.723227 -0.0535955 4.75779e-19)
(0.719625 -0.0549426 4.62709e-19)
(0.716067 -0.0562149 -4.49913e-19)
(0.712553 -0.0574146 -4.37356e-19)
(0.709097 -0.0585497 -4.25032e-19)
(0.705683 -0.0596252 4.12901e-19)
(0.702316 -0.0606405 9.36113e-26)
(0.69902 -0.0616048 -7.7818e-19)
(0.695898 -0.0625325 -3.96598e-27)
(0.693129 -0.0634305 3.47924e-26)
(0.689278 -0.06419 -8.24142e-26)
(0.685914 -0.0649495 1.63284e-25)
(0.682649 -0.0656781 -8.08862e-26)
(0.679416 -0.0663675 0)
(0.676218 -0.0670244 0)
(0.673035 -0.0676456 0)
(0.669868 -0.0682366 0)
(0.666699 -0.0687941 -2.70663e-19)
(0.663537 -0.0693238 -2.57947e-19)
(0.66039 -0.0698216 5.61702e-26)
(0.657253 -0.0702979 -2.31455e-19)
(0.654099 -0.0707423 2.17559e-19)
(0.650939 -0.0711633 2.45923e-25)
(0.647747 -0.0715551 3.76313e-19)
(0.644527 -0.0719196 4.35287e-26)
(0.641281 -0.0722574 -3.4717e-26)
(0.637996 -0.0725699 -6.94899e-20)
(0.634681 -0.0728547 -6.04577e-20)
(0.631342 -0.0731153 2.6931e-26)
(0.627981 -0.0733501 -4.08712e-20)
(0.624608 -0.0735635 5.90799e-26)
(0.621197 -0.0737536 3.78068e-20)
(0.61777 -0.0739183 6.24195e-27)
(0.614319 -0.0740597 -5.94794e-21)
(0.610872 -0.0741804 0)
(0.607387 -0.0742778 -6.84686e-20)
(0.603893 -0.0743549 -4.08128e-26)
(0.600371 -0.0744078 0)
(0.596848 -0.07444 -4.2315e-20)
(0.593319 -0.0744528 1.06924e-25)
(0.589766 -0.0744445 -1.11192e-25)
(0.586212 -0.0744144 0)
(0.582654 -0.0743672 8.5636e-20)
(0.579092 -0.0742993 9.86529e-20)
(0.57554 -0.0742152 -2.25422e-19)
(0.571975 -0.0741131 1.27904e-19)
(0.568422 -0.0739938 7.21689e-20)
(0.564866 -0.0738562 0)
(0.561337 -0.0737061 -1.81402e-19)
(0.557817 -0.0735396 0)
(0.554317 -0.0733603 -1.12478e-19)
(0.550844 -0.0731678 0)
(0.547401 -0.0729651 -1.38129e-19)
(0.543993 -0.0727509 -5.69346e-25)
(0.540625 -0.0725293 0)
(0.537298 -0.0722977 0)
(0.534014 -0.0720599 -7.94127e-25)
(0.530796 -0.071817 -1.12252e-19)
(0.527617 -0.0715705 0)
(0.524502 -0.0713161 2.70641e-19)
(0.521494 -0.0710628 -1.14212e-24)
(0.518591 -0.0708139 3.11175e-26)
(0.515738 -0.0705701 0)
(0.512854 -0.0703241 9.74646e-20)
(0.509993 -0.0700609 1.06632e-19)
(0.507415 -0.0697975 -4.11926e-26)
(0.505368 -0.0695702 1.92291e-24)
(0.503731 -0.069419 0)
(0.50174 -0.0693079 0)
(0.498886 -0.0691541 -2.54236e-24)
(0.495054 -0.0688572 -5.09433e-26)
(0.492155 -0.0684459 -4.9013e-20)
(0.492126 -0.0681804 3.22767e-24)
(0.495625 -0.0681995 0)
(0.502586 -0.0688107 -6.23461e-20)
(0.507609 -0.0698446 6.69286e-20)
(0.506545 -0.0706861 -3.59213e-20)
(0.500098 -0.071278 4.69298e-24)
(0.485104 -0.0708556 4.1564e-20)
(0.469369 -0.0691488 4.50455e-20)
(0.468656 -0.0680059 4.86868e-20)
(0.487313 -0.0682224 0)
(0.527492 -0.0699188 0)
(0.60494 -0.074525 -2.87282e-20)
(0.74739 -0.0954935 -5.78598e-20)
(0.701948 -0.132211 0)
(0.315632 -0.0977994 1.53801e-23)
(-0.142467 0.0724424 1.70098e-24)
(-0.228647 0.171042 -1.88656e-23)
(-0.0437596 0.0455251 -8.72327e-20)
(-0.0655732 0.10987 8.81335e-20)
(-0.154276 0.535054 -4.55717e-20)
(-0.02203 0.426679 -1.4304e-20)
(-0.0727846 -1.04172 2.36457e-20)
(-0.450945 -1.54932 0)
(-0.238883 -0.423913 1.45502e-19)
(-0.150491 -0.15889 -1.43905e-19)
(-0.660652 -0.493748 1.33261e-19)
(-0.36685 -0.195911 -5.1812e-23)
(1.04878 0.314286 -1.88764e-24)
(2.17268 0.404768 -4.51475e-20)
(2.28705 0.293262 -9.57519e-20)
(1.87994 0.234166 -4.7575e-20)
(1.65619 0.220844 -1.00671e-23)
(1.54035 0.216324 8.65351e-20)
(1.48813 0.216142 1.61504e-19)
(1.49311 0.219794 9.02841e-24)
(1.54069 0.224737 6.8878e-20)
(1.58496 0.225706 -6.39519e-20)
(1.60366 0.223724 1.05041e-25)
(1.60592 0.221006 6.75091e-24)
(1.59044 0.21785 -2.06622e-19)
(1.56974 0.216082 -1.16812e-23)
(1.55942 0.216076 1.07813e-23)
(1.55961 0.216889 -8.12412e-20)
(1.56818 0.218086 -4.59362e-24)
(1.5793 0.218888 0)
(1.58742 0.219261 1.2558e-19)
(1.59294 0.219511 -1.15248e-19)
(1.59742 0.219895 1.05655e-19)
(1.60311 0.220503 -5.90489e-24)
(1.61039 0.221216 -8.79035e-26)
(1.61845 0.221909 -3.23591e-19)
(1.62657 0.222556 -1.47865e-19)
(1.63459 0.22319 1.9733e-24)
(1.64275 0.223843 -1.74812e-24)
(1.65126 0.224509 2.24912e-19)
(1.66009 0.225175 0)
(1.66908 0.225818 1.62704e-25)
(1.67828 0.226455 1.69907e-19)
(1.68761 0.227071 -2.35776e-24)
(1.69714 0.227675 1.0931e-24)
(1.7068 0.228252 0)
(1.71661 0.228804 -4.60693e-19)
(1.72653 0.229325 0)
(1.73657 0.229815 1.87846e-19)
(1.74672 0.230271 6.26809e-25)
(1.75689 0.23068 -3.03512e-19)
(1.7672 0.231055 -3.41802e-26)
(1.77751 0.231378 -4.78476e-25)
(1.78792 0.231662 2.1483e-19)
(1.7983 0.231885 -3.46803e-25)
(1.80874 0.232062 3.32131e-25)
(1.81919 0.232187 -1.44722e-19)
(1.82966 0.232254 2.49394e-19)
(1.84012 0.232266 1.06118e-19)
(1.85059 0.232218 1.57137e-25)
(1.86102 0.232105 -1.51258e-25)
(1.87143 0.231933 -9.88829e-26)
(1.88184 0.231696 1.68075e-25)
(1.89221 0.231397 -1.23848e-19)
(1.90259 0.231036 -4.66596e-26)
(1.91288 0.230604 -1.48981e-20)
(1.92319 0.230113 0)
(1.93346 0.229551 2.64381e-20)
(1.94373 0.228924 -3.80627e-26)
(1.95395 0.228228 -2.44905e-26)
(1.96416 0.227468 0)
(1.97436 0.226639 -9.5609e-20)
(1.98456 0.225741 -1.10653e-19)
(1.99476 0.224771 1.27278e-25)
(2.00492 0.223729 -1.24059e-25)
(2.01503 0.222607 3.03255e-19)
(2.02503 0.221399 -3.28254e-19)
(2.03488 0.220095 0)
(2.04462 0.218704 -1.53898e-24)
(2.05435 0.217224 -3.979e-19)
(2.06418 0.215674 4.19673e-19)
(2.07415 0.214044 4.40878e-19)
(2.08428 0.212335 -2.27039e-25)
(2.09449 0.210533 -4.81896e-19)
(2.10483 0.208643 5.01894e-19)
(2.11529 0.206648 -2.55467e-25)
(2.12589 0.204551 2.51316e-25)
(2.13658 0.202335 0)
(2.14741 0.199999 -5.79977e-19)
(2.15837 0.197532 -5.99349e-19)
(2.16949 0.194926 -1.44234e-25)
(2.18075 0.192175 -6.38323e-19)
(2.1922 0.189265 -6.58046e-19)
(2.20386 0.186191 6.77995e-19)
(2.21606 0.182961 0)
(2.22847 0.179537 0)
(2.24037 0.175856 -1.4788e-18)
(2.2526 0.171959 6.59e-27)
(2.26507 0.167833 6.61057e-27)
(2.27776 0.163455 -9.71091e-25)
(2.29064 0.158807 2.00597e-25)
(2.3037 0.153868 -1.70138e-18)
(2.31695 0.148618 1.74926e-18)
(2.33038 0.143045 -8.99218e-19)
(2.34398 0.137123 0)
(2.35775 0.130828 0)
(2.37166 0.124141 0)
(2.38571 0.117039 -2.43022e-25)
(2.39986 0.109492 3.67828e-25)
(2.4141 0.101484 -1.24949e-25)
(2.42843 0.0929814 0)
(2.44281 0.0839625 0)
(2.45719 0.074395 5.78031e-19)
(2.47154 0.0642552 1.4003e-25)
(2.48586 0.0535149 6.11673e-19)
(2.50009 0.0421398 3.14646e-19)
(2.51422 0.0301028 -7.63246e-26)
(2.52822 0.0173719 -1.66549e-19)
(2.54202 0.00391105 -1.92885e-27)
(2.5555 -0.0103077 0)
(2.56864 -0.0253215 0)
(2.58136 -0.0411682 0)
(2.59363 -0.0578822 7.6889e-19)
(2.60536 -0.0755066 0)
(2.61651 -0.0940811 -8.14407e-19)
(2.627 -0.113653 4.02448e-25)
(2.63676 -0.134275 1.72501e-18)
(2.6458 -0.156003 8.46282e-25)
(2.65405 -0.178901 -1.82649e-18)
(2.66149 -0.203051 -1.87902e-18)
(2.66808 -0.228534 -1.93269e-18)
(2.67378 -0.255454 9.5063e-25)
(2.6786 -0.283941 -2.04275e-18)
(2.6827 -0.314154 -2.6017e-24)
(2.6861 -0.346293 0)
(2.68899 -0.380607 0)
(2.69159 -0.417405 -2.26598e-18)
(2.69448 -0.457162 0)
(2.69823 -0.500447 2.36945e-18)
(2.70384 -0.548097 2.41465e-18)
(2.71325 -0.601379 2.45216e-18)
(2.73038 -0.662448 0)
(2.75879 -0.734109 -2.3262e-24)
(2.79654 -0.818466 -1.19655e-23)
(2.83187 -0.915228 2.24714e-24)
(2.84863 -1.02213 2.3657e-18)
(2.8386 -1.13906 1.46585e-23)
(2.80259 -1.2701 2.06106e-24)
(2.74206 -1.42244 1.63339e-18)
(2.67225 -1.61698 1.05628e-18)
(2.60536 -1.89016 -1.1588e-24)
(2.45222 -2.22435 0)
(2.11769 -2.57456 3.72415e-18)
(1.41167 -2.61135 -7.1368e-18)
(0.450482 -1.70801 5.41349e-24)
(0.00423201 0.0140094 -1.15094e-23)
(0.456797 1.73214 5.40694e-24)
(1.42238 2.63118 7.08863e-18)
(2.12875 2.588 -3.67035e-18)
(2.46278 2.23391 1.41857e-18)
(2.61648 1.89822 -1.24354e-24)
(2.6828 1.62337 3.88199e-24)
(2.75126 1.42721 -2.57345e-24)
(2.80431 1.27089 2.08575e-24)
(2.82597 1.13401 2.25268e-18)
(2.80473 1.0064 -2.3854e-18)
(2.74802 0.888151 2.26584e-24)
(2.68262 0.785138 1.78808e-23)
(2.63232 0.700462 -2.34793e-24)
(2.60348 0.631659 0)
(2.59061 0.574194 0)
(2.58626 0.52426 0)
(2.5856 0.479558 0)
(2.58675 0.438883 0)
(2.58845 0.401409 2.28532e-18)
(2.59044 0.366655 0)
(2.59226 0.334194 0)
(2.5935 0.303706 4.41611e-24)
(2.59388 0.274957 2.05816e-18)
(2.59335 0.247768 9.5776e-25)
(2.59174 0.221994 1.94692e-18)
(2.58906 0.197524 -4.5337e-25)
(2.58534 0.174268 1.83962e-18)
(2.58072 0.152165 8.5233e-25)
(2.57514 0.131136 -8.68681e-19)
(2.56867 0.111129 4.0532e-25)
(2.56142 0.0920991 8.20155e-19)
(2.55342 0.0740005 0)
(2.54472 0.0567897 -7.74344e-19)
(2.53538 0.040434 0)
(2.5255 0.0248954 0)
(2.51512 0.010144 0)
(2.50431 -0.00385383 1.72321e-27)
(2.49312 -0.0171315 1.67765e-19)
(2.48164 -0.0297135 -7.68905e-26)
(2.46996 -0.0416327 7.64383e-26)
(2.45809 -0.0529179 -6.16286e-19)
(2.44605 -0.0635931 1.41107e-25)
(2.43389 -0.0736902 -5.8251e-19)
(2.42161 -0.0832345 0)
(2.40925 -0.0922478 0)
(2.39687 -0.10076 -1.25974e-25)
(2.3845 -0.108792 3.70883e-25)
(2.37216 -0.116375 -2.45053e-25)
(2.35985 -0.123524 0)
(2.3476 -0.130265 0)
(2.33544 -0.136624 0)
(2.32336 -0.142615 1.81496e-18)
(2.31141 -0.148263 -1.76571e-18)
(2.29958 -0.153593 1.71778e-18)
(2.28789 -0.158617 8.35537e-19)
(2.27632 -0.163353 5.59609e-25)
(2.2649 -0.167821 6.62704e-27)
(2.25362 -0.172038 6.60688e-27)
(2.24249 -0.176023 1.49507e-18)
(2.23149 -0.179783 0)
(2.22066 -0.183337 0)
(2.20997 -0.186701 -6.85993e-19)
(2.19943 -0.189884 6.66085e-19)
(2.18909 -0.192904 6.46399e-19)
(2.17926 -0.195797 -1.46162e-25)
(2.17007 -0.198599 6.07631e-19)
(2.15803 -0.200988 -1.43577e-25)
(2.14753 -0.203372 0)
(2.13734 -0.205653 2.55274e-25)
(2.12724 -0.207816 -2.5949e-25)
(2.11724 -0.209873 0)
(2.10729 -0.21182 4.9035e-19)
(2.09739 -0.213671 -2.31115e-25)
(2.08748 -0.215419 -4.49403e-19)
(2.07762 -0.217078 -4.28232e-19)
(2.06778 -0.218644 4.06496e-19)
(2.05797 -0.220131 1.63917e-24)
(2.04813 -0.221529 -3.60971e-19)
(2.03829 -0.222849 3.36968e-19)
(2.02837 -0.224082 -3.11996e-19)
(2.01837 -0.225232 -1.28185e-25)
(2.00827 -0.226296 1.31511e-25)
(1.99806 -0.227278 1.1504e-19)
(1.98776 -0.228178 9.99964e-20)
(1.97737 -0.228998 0)
(1.9669 -0.229741 6.73749e-20)
(1.95636 -0.230413 3.05781e-25)
(1.94573 -0.231009 -3.07871e-20)
(1.93507 -0.231534 0)
(1.92431 -0.231983 1.06019e-20)
(1.91356 -0.232368 -4.26897e-26)
(1.90268 -0.232678 1.15423e-19)
(1.89179 -0.232922 1.60155e-25)
(1.88083 -0.233098 -9.48805e-26)
(1.86985 -0.233206 -1.47566e-25)
(1.85885 -0.233254 1.53302e-25)
(1.84779 -0.233233 -1.04231e-19)
(1.83672 -0.23315 -1.22874e-19)
(1.82563 -0.233009 1.42968e-19)
(1.81454 -0.232806 3.29091e-25)
(1.80347 -0.232551 1.88053e-19)
(1.79237 -0.232237 -2.13352e-19)
(1.78133 -0.231874 -4.76072e-25)
(1.77027 -0.231456 -3.45577e-26)
(1.7593 -0.230995 3.02437e-19)
(1.74836 -0.230487 6.24867e-25)
(1.73749 -0.229936 -1.87478e-19)
(1.7267 -0.229346 0)
(1.71602 -0.228724 2.30186e-19)
(1.70544 -0.228068 0)
(1.69499 -0.227385 1.09369e-24)
(1.68467 -0.226675 -2.35952e-24)
(1.67451 -0.225944 1.27352e-24)
(1.66453 -0.225202 -1.73702e-25)
(1.6547 -0.224442 0)
(1.64506 -0.223665 -2.25377e-19)
(1.63574 -0.222885 -1.97109e-24)
(1.62677 -0.22212 2.22337e-24)
(1.61795 -0.221375 1.48281e-19)
(1.60907 -0.220622 2.17541e-25)
(1.60026 -0.219823 1.77535e-19)
(1.59229 -0.219011 -5.92462e-24)
(1.58589 -0.218305 -1.06023e-19)
(1.58074 -0.217828 3.49517e-24)
(1.57464 -0.217492 -1.26046e-19)
(1.56604 -0.217048 0)
(1.55458 -0.216193 -4.61095e-24)
(1.54572 -0.214955 8.15456e-20)
(1.54515 -0.214097 1.08211e-23)
(1.55497 -0.214046 -1.17238e-23)
(1.57502 -0.215737 1.03684e-19)
(1.58999 -0.218812 -1.11282e-19)
(1.58763 -0.221488 -1.05131e-25)
(1.56936 -0.223489 6.41691e-20)
(1.52628 -0.222643 6.90903e-20)
(1.48024 -0.217907 9.05359e-24)
(1.47628 -0.214427 -1.61816e-19)
(1.52851 -0.214662 -8.66602e-20)
(1.64358 -0.219158 4.58297e-20)
(1.86482 -0.232275 4.76477e-20)
(2.26785 -0.29082 9.59145e-20)
(2.15879 -0.402295 4.52085e-20)
(1.05403 -0.316144 -1.85757e-24)
(-0.348618 0.186791 1.16119e-19)
(-0.660368 0.493704 -1.33339e-19)
(-0.146081 0.153519 1.44313e-19)
(-0.219153 0.39042 -1.45462e-19)
(-0.453317 1.56225 7.52545e-20)
(-0.0773985 1.19243 1.17375e-20)
(-0.1487 -1.63921 1.30694e-20)
(-0.741916 -2.55718 0)
(-0.440369 -0.809499 0)
(-0.285031 -0.29935 1.61487e-19)
(-1.08252 -0.808187 6.89742e-23)
(-0.488498 -0.283484 1.29851e-19)
(1.96142 0.568904 -5.66275e-23)
(3.77986 0.695515 5.02742e-20)
(3.9298 0.506282 5.35523e-20)
(3.27854 0.412594 5.32732e-20)
(2.91704 0.391085 5.1373e-20)
(2.7296 0.384289 1.06059e-23)
(2.64723 0.38473 -1.81605e-19)
(2.65858 0.391078 -8.39725e-20)
(2.73731 0.398843 0)
(2.80919 0.399765 7.19537e-20)
(2.83911 0.395999 -7.96544e-24)
(2.84157 0.391113 -1.24844e-19)
(2.8155 0.385792 1.16363e-19)
(2.78177 0.383031 -1.31595e-23)
(2.7654 0.383208 6.1211e-24)
(2.76653 0.384699 9.15753e-20)
(2.78132 0.386738 -1.68052e-19)
(2.80012 0.388038 8.6363e-26)
(2.81395 0.388637 -1.41614e-19)
(2.82352 0.389064 1.29994e-19)
(2.83154 0.389754 -1.19193e-19)
(2.84163 0.390827 0)
(2.85436 0.392067 1.997e-19)
(2.8684 0.393261 1.82602e-19)
(2.88256 0.39438 1.66902e-19)
(2.89659 0.395479 1.52468e-19)
(2.9109 0.396615 1.56285e-25)
(2.92581 0.397775 1.90702e-24)
(2.94127 0.39893 -5.9644e-26)
(2.95704 0.40005 -2.10847e-19)
(2.97318 0.401156 0)
(2.98954 0.402227 0)
(3.00627 0.403275 0)
(3.02325 0.404281 0)
(3.04048 0.40524 2.60206e-19)
(3.05793 0.406147 0)
(3.07558 0.406999 2.8062e-25)
(3.09342 0.40779 0)
(3.11133 0.4085 1.71459e-19)
(3.12947 0.409152 6.04944e-25)
(3.14762 0.409709 1.36764e-19)
(3.16595 0.410197 -4.81202e-25)
(3.18424 0.410584 0)
(3.20264 0.410887 -3.42267e-25)
(3.22106 0.411096 2.34657e-26)
(3.2395 0.411207 -2.8183e-19)
(3.25795 0.411216 2.35753e-25)
(3.2764 0.411123 0)
(3.29481 0.410918 -8.22977e-20)
(3.31317 0.410601 0)
(3.33152 0.410175 -8.217e-26)
(3.34981 0.409637 6.99825e-20)
(3.36813 0.408992 4.25327e-20)
(3.38631 0.408223 -2.3194e-26)
(3.40451 0.407347 7.25515e-21)
(3.42262 0.406344 -2.98783e-20)
(3.44075 0.405231 -1.02301e-19)
(3.4588 0.403993 -7.11946e-20)
(3.47682 0.402639 -7.58098e-26)
(3.4948 0.401165 1.34858e-25)
(3.51278 0.399567 1.25054e-19)
(3.53073 0.39784 0)
(3.54856 0.395976 0)
(3.56625 0.393967 0)
(3.58367 0.391796 3.71084e-19)
(3.60078 0.389455 1.81327e-25)
(3.61777 0.38696 -8.49156e-19)
(3.63485 0.384333 4.49952e-19)
(3.6522 0.38158 -4.74575e-19)
(3.66982 0.378696 -4.98553e-19)
(3.6877 0.375667 5.2197e-19)
(3.70575 0.37248 1.08986e-18)
(3.72403 0.369134 -2.78308e-25)
(3.7425 0.365602 -5.89859e-19)
(3.7612 0.361884 -6.11959e-19)
(3.78006 0.35796 3.09798e-25)
(3.79918 0.353822 6.55836e-19)
(3.81852 0.349451 -6.77735e-19)
(3.83812 0.344837 -6.99701e-19)
(3.85797 0.339963 3.51598e-25)
(3.87817 0.334812 1.48818e-18)
(3.89872 0.329364 0)
(3.92018 0.323644 -7.89483e-19)
(3.94413 0.317762 0)
(3.96519 0.311246 8.35019e-19)
(3.98684 0.304351 -4.02175e-25)
(4.00889 0.297045 -8.835e-19)
(4.03132 0.289295 1.8171e-18)
(4.05409 0.281065 -9.34206e-19)
(4.0772 0.272323 9.60507e-19)
(4.10063 0.263033 7.13847e-25)
(4.12437 0.253164 0)
(4.14841 0.242682 0)
(4.17274 0.231538 0)
(4.19734 0.219704 -2.6689e-25)
(4.22218 0.207131 2.66569e-25)
(4.2472 0.193775 0)
(4.27238 0.1796 0)
(4.2977 0.164551 0)
(4.32311 0.148586 -6.34187e-19)
(4.34852 0.131654 -6.52263e-19)
(4.37388 0.113708 1.61908e-25)
(4.39918 0.0946985 -3.45068e-19)
(4.42434 0.074569 7.08503e-26)
(4.4493 0.0532658 1.82604e-19)
(4.47403 0.0307333 1.87875e-19)
(4.49839 0.00691455 -4.8327e-20)
(4.52223 -0.0182492 -4.789e-26)
(4.54544 -0.0448163 -5.01839e-26)
(4.56791 -0.0728613 3.02192e-25)
(4.58955 -0.102436 -6.78024e-25)
(4.61026 -0.133623 -8.92245e-19)
(4.62996 -0.16649 0)
(4.64846 -0.201124 9.44885e-19)
(4.66569 -0.237612 -9.72289e-19)
(4.68165 -0.276057 0)
(4.69622 -0.316575 2.05865e-18)
(4.70933 -0.359304 4.23538e-18)
(4.72094 -0.404393 0)
(4.73096 -0.45202 -1.07119e-24)
(4.73945 -0.50242 1.0941e-24)
(4.74666 -0.555875 -2.36446e-18)
(4.75263 -0.612738 2.4276e-18)
(4.75773 -0.673452 0)
(4.76232 -0.738563 -2.42872e-24)
(4.76741 -0.808905 2.61165e-18)
(4.77401 -0.88549 -2.66812e-18)
(4.78388 -0.969788 -8.78659e-24)
(4.80044 -1.06405 2.6029e-24)
(4.8306 -1.17208 -2.68988e-24)
(4.88029 -1.29872 0)
(4.94557 -1.44752 -2.11492e-23)
(5.00524 -1.61772 -5.05476e-24)
(5.03082 -1.80519 -2.66038e-18)
(5.00794 -2.00961 5.0158e-18)
(4.93752 -2.23762 2.2494e-18)
(4.82119 -2.50093 -1.83887e-18)
(4.68601 -2.83538 -4.7708e-23)
(4.54827 -3.29929 -1.46061e-19)
(4.25796 -3.86104 -1.65159e-18)
(3.65128 -4.43473 -4.19454e-18)
(2.41684 -4.46117 -1.20052e-23)
(0.769379 -2.90237 6.05565e-18)
(0.008575 0.0236676 0)
(0.780075 2.94313 -6.03964e-18)
(2.4351 4.49493 -1.18923e-23)
(3.67039 4.45794 4.13387e-18)
(4.27633 3.87769 1.59732e-18)
(4.56766 3.31335 1.98316e-19)
(4.70455 2.8466 -1.2344e-18)
(4.83752 2.50941 1.87711e-18)
(4.94134 2.23938 -2.28111e-18)
(4.98711 2.0013 -5.06628e-18)
(4.95596 1.77841 2.6827e-18)
(4.8603 1.57096 -5.09769e-24)
(4.74695 1.38943 2.25957e-23)
(4.65864 1.23975 0)
(4.60757 1.11796 -2.71769e-24)
(4.58461 1.01621 2.62979e-24)
(4.57682 0.927805 -2.74499e-18)
(4.57559 0.848681 2.69267e-18)
(4.57753 0.776683 -2.63557e-18)
(4.5805 0.710359 -2.45059e-24)
(4.58393 0.648844 0)
(4.58707 0.591388 -2.44754e-18)
(4.58923 0.537434 2.38358e-18)
(4.58987 0.486558 1.1026e-24)
(4.58893 0.438445 -1.0795e-24)
(4.5861 0.392837 0)
(4.58136 0.349536 -2.13362e-18)
(4.57478 0.308384 -2.0739e-18)
(4.56659 0.269269 0)
(4.55672 0.232059 9.79436e-19)
(4.54527 0.196656 -9.51783e-19)
(4.53246 0.162981 0)
(4.51832 0.130955 8.98701e-19)
(4.50294 0.1005 4.36654e-19)
(4.48645 0.0715591 3.04384e-25)
(4.46898 0.0440596 2.06174e-19)
(4.45063 0.0179576 -4.82392e-26)
(4.43151 -0.00681432 4.86826e-20)
(4.41174 -0.0303078 -1.89267e-19)
(4.39145 -0.0525756 -1.83969e-19)
(4.37079 -0.0736689 -3.57663e-19)
(4.3498 -0.0936378 3.477e-19)
(4.32851 -0.112531 1.6315e-25)
(4.307 -0.130399 -1.04687e-25)
(4.2853 -0.147289 6.39218e-19)
(4.26346 -0.163242 0)
(4.24157 -0.178307 0)
(4.2197 -0.192522 0)
(4.19786 -0.20594 2.68853e-25)
(4.17609 -0.218593 -2.69175e-25)
(4.15443 -0.230523 0)
(4.13291 -0.241777 0)
(4.11156 -0.252379 -1.02456e-18)
(4.09042 -0.262379 -6.7479e-25)
(4.06949 -0.271809 -9.69783e-19)
(4.04881 -0.2807 -9.43452e-19)
(4.02836 -0.289084 -1.83555e-18)
(4.00815 -0.296992 8.92707e-19)
(3.98821 -0.304456 -4.06541e-25)
(3.96852 -0.311508 -8.44208e-19)
(3.94908 -0.318164 0)
(3.9299 -0.324455 7.97546e-19)
(3.91098 -0.330407 0)
(3.89233 -0.336041 -1.50463e-18)
(3.874 -0.341382 3.55568e-25)
(3.8565 -0.346495 7.08101e-19)
(3.83855 -0.351284 6.87052e-19)
(3.81727 -0.355508 -6.34367e-25)
(3.7988 -0.359735 3.14312e-25)
(3.78084 -0.363775 6.21396e-19)
(3.76304 -0.367608 5.99332e-19)
(3.74538 -0.371251 -2.82874e-25)
(3.7278 -0.374697 -1.10897e-18)
(3.71033 -0.377973 -5.31562e-19)
(3.69286 -0.381074 5.08184e-19)
(3.67546 -0.38401 4.84246e-19)
(3.65808 -0.386789 -4.59667e-19)
(3.64078 -0.389421 8.68702e-19)
(3.62345 -0.391906 1.85978e-25)
(3.60612 -0.394249 -1.9034e-25)
(3.58872 -0.396448 0)
(3.57122 -0.398502 0)
(3.55355 -0.400411 0)
(3.53567 -0.402168 -1.30049e-19)
(3.51759 -0.403779 -6.50894e-25)
(3.49935 -0.405248 -8.04775e-26)
(3.48095 -0.406579 8.28385e-26)
(3.4624 -0.40778 1.12181e-19)
(3.44368 -0.408843 3.47958e-20)
(3.42491 -0.409786 -1.21444e-20)
(3.40596 -0.410591 -2.3384e-26)
(3.38699 -0.411282 -3.77219e-20)
(3.36782 -0.411838 -6.52236e-20)
(3.34864 -0.412283 -7.75826e-26)
(3.32934 -0.412604 0)
(3.30999 -0.41281 0)
(3.29058 -0.412901 0)
(3.27111 -0.412874 -2.8685e-25)
(3.25161 -0.412742 2.77709e-19)
(3.23209 -0.412502 6.74802e-25)
(3.21256 -0.412158 -3.38494e-25)
(3.19304 -0.411717 0)
(3.1735 -0.411173 -4.78215e-25)
(3.15407 -0.410546 -1.35996e-19)
(3.13462 -0.409821 6.02525e-25)
(3.11531 -0.409021 -1.70853e-19)
(3.09607 -0.408137 0)
(3.07696 -0.407179 -3.05037e-25)
(3.058 -0.406153 0)
(3.03922 -0.405068 0)
(3.02063 -0.403928 0)
(3.00227 -0.402735 0)
(2.98418 -0.401501 0)
(2.96635 -0.400228 1.92101e-19)
(2.94885 -0.398938 2.11158e-19)
(2.9316 -0.397613 -6.02846e-26)
(2.91472 -0.396262 1.91076e-24)
(2.89838 -0.394902 -1.68101e-25)
(2.88265 -0.393569 -1.52866e-19)
(2.86722 -0.392274 -1.6737e-19)
(2.85172 -0.390969 -1.83156e-19)
(2.83637 -0.389588 -2.00347e-19)
(2.82239 -0.388174 0)
(2.81107 -0.386929 1.19611e-19)
(2.80188 -0.386074 -4.02104e-24)
(2.79125 -0.385495 1.42162e-19)
(2.77657 -0.384767 8.68804e-26)
(2.75714 -0.383371 1.68676e-19)
(2.7418 -0.381255 -9.19114e-20)
(2.74 -0.379683 6.14379e-24)
(2.75548 -0.379404 -1.32081e-23)
(2.78809 -0.382029 1.42412e-23)
(2.81324 -0.387208 2.50607e-19)
(2.81052 -0.392012 -8.36716e-24)
(2.78123 -0.395798 -7.22029e-20)
(2.71125 -0.395067 -7.77301e-20)
(2.63503 -0.387639 8.41901e-20)
(2.62542 -0.381578 1.81965e-19)
(2.70786 -0.381237 9.7391e-20)
(2.89408 -0.387998 -5.14614e-20)
(3.25153 -0.409173 -5.33591e-20)
(3.89627 -0.502023 -5.36091e-20)
(3.7543 -0.69113 1.33639e-23)
(1.96772 -0.571482 -1.09305e-19)
(-0.457864 0.268538 8.68463e-23)
(-1.08099 0.807423 7.84494e-23)
(-0.277439 0.289523 -7.8062e-23)
(-0.409349 0.757415 0)
(-0.744828 2.58298 0)
(-0.153488 1.88117 2.59636e-20)
(-0.25117 -2.12121 1.42099e-20)
(-1.01581 -3.5182 4.97795e-23)
(-0.682131 -1.28528 0)
(-0.457271 -0.477932 -3.6171e-19)
(-1.47615 -1.10242 -3.35869e-19)
(-0.466167 -0.323994 0)
(3.08226 0.864166 1.19775e-19)
(5.52414 1.00331 -5.54084e-20)
(5.67301 0.734949 -5.93293e-20)
(4.81082 0.611756 -2.82304e-23)
(4.32618 0.583193 -5.72689e-20)
(4.07465 0.575099 -1.0859e-19)
(3.96763 0.576949 1.01538e-19)
(3.98812 0.586191 -3.82611e-25)
(4.09647 0.596187 0)
(4.19332 0.596312 8.05344e-20)
(4.23292 0.590294 -7.49959e-20)
(4.23436 0.582921 1.3986e-19)
(4.19784 0.575428 -1.30399e-19)
(4.1523 0.571909 1.46717e-23)
(4.13097 0.572481 -2.08572e-25)
(4.13392 0.574789 -1.02774e-19)
(4.15537 0.577701 1.88641e-19)
(4.18199 0.579449 0)
(4.20174 0.580248 0)
(4.21577 0.580865 0)
(4.22786 0.581914 -1.33953e-19)
(4.24294 0.58351 7.40287e-24)
(4.26169 0.585322 -6.9372e-24)
(4.28228 0.587056 6.18739e-24)
(4.30308 0.58868 1.87698e-19)
(4.32373 0.590284 0)
(4.34486 0.591949 -3.13162e-19)
(4.36686 0.593648 2.85706e-19)
(4.38967 0.595337 4.04286e-24)
(4.41295 0.596973 0)
(4.43677 0.598593 0)
(4.46094 0.600158 0)
(4.48568 0.601695 0)
(4.51079 0.603166 -2.41366e-24)
(4.53629 0.60457 4.47183e-24)
(4.56211 0.605897 2.64816e-19)
(4.58824 0.607143 4.23981e-25)
(4.61465 0.608297 0)
(4.6412 0.609336 -1.93051e-19)
(4.66808 0.610283 0)
(4.69498 0.611095 -1.53991e-19)
(4.72214 0.6118 -2.7333e-19)
(4.74925 0.612356 2.41283e-19)
(4.77654 0.61279 0)
(4.80386 0.613084 1.84143e-19)
(4.83123 0.613232 1.58666e-19)
(4.85862 0.613231 -1.35027e-19)
(4.88599 0.613073 0)
(4.91331 0.612756 9.26592e-20)
(4.94059 0.612268 -7.36515e-20)
(4.96783 0.611622 1.11859e-19)
(4.99499 0.610801 -7.87854e-20)
(5.02218 0.609827 -4.78803e-20)
(5.0492 0.608671 -6.26715e-26)