/*--------------------------------*- C++ -*----------------------------------*\
| =========                 |                                                 |
| \\      /  F ield         | OpenFOAM: The Open Source CFD Toolbox           |
|  \\    /   O peration     | Version:  2412                                  |
|   \\  /    A nd           | Website:  www.openfoam.com                      |
|    \\/     M anipulation  |                                                 |
\*---------------------------------------------------------------------------*/
FoamFile
{
    version     2.0;
    format      ascii;
    arch        "LSB;label=32;scalar=64";
    class       volVectorField;
    location    "100";
    object      U;
}
// * * * * * * * * * * * * * * * * * * * * * * * * * * * * * * * * * * * * * //

dimensions      [0 1 -1 0 0 0 0];

internalField   nonuniform List<vector> 
32591
(
(-0.0404112 -0.701347 -3.02354e-24)
(-0.286444 -1.19774 2.14372e-22)
(-0.282451 -0.581432 -2.001e-22)
(-0.0725341 -0.0929104 0)
(-0.125143 -0.101628 -1.94317e-19)
(-0.428234 -0.26172 1.77274e-19)
(-0.0556108 -0.0293937 0)
(0.914468 0.232577 -6.20284e-23)
(1.49445 0.240665 -6.02922e-20)
(1.41367 0.172921 5.76747e-23)
(1.14596 0.144936 0)
(1.03233 0.139535 0)
(0.963499 0.136781 0)
(0.941649 0.137712 0)
(0.961096 0.141447 8.73913e-20)
(1.00067 0.144532 7.99546e-20)
(1.02603 0.144509 7.36716e-20)
(1.0355 0.14316 0)
(1.0308 0.141191 3.06242e-23)
(1.01667 0.139564 2.32639e-19)
(1.00716 0.139322 -2.58689e-23)
(1.00651 0.139929 4.48885e-25)
(1.01186 0.140899 3.57345e-19)
(1.02396 0.142112 3.84993e-25)
(1.03095 0.142429 1.80566e-23)
(1.03582 0.142759 -1.36678e-19)
(1.04007 0.143199 0)
(1.04538 0.143798 2.28279e-19)
(1.05178 0.14446 0)
(1.05863 0.145097 -1.14565e-23)
(1.06538 0.1457 1.07484e-23)
(1.0721 0.146303 0)
(1.07896 0.146916 5.77389e-19)
(1.08605 0.147529 1.60591e-23)
(1.09327 0.148131 -1.46221e-23)
(1.10058 0.148715 -2.17882e-19)
(1.10795 0.149284 -5.92664e-24)
(1.1154 0.149836 1.79865e-19)
(1.12292 0.150365 -3.2626e-19)
(1.13048 0.150871 -2.95502e-19)
(1.13808 0.151349 -5.19697e-26)
(1.14569 0.151799 -2.41162e-19)
(1.15334 0.152219 2.17173e-19)
(1.161 0.152606 -2.88754e-24)
(1.16865 0.152956 1.7467e-19)
(1.17629 0.15327 -2.29589e-24)
(1.18391 0.153545 2.76902e-19)
(1.19152 0.153782 -2.44742e-19)
(1.1991 0.153978 4.29975e-19)
(1.20664 0.15413 1.87427e-19)
(1.21415 0.154241 1.61873e-19)
(1.22163 0.154307 9.88869e-25)
(1.22904 0.154326 1.16128e-19)
(1.23643 0.154303 0)
(1.24377 0.154231 5.25587e-25)
(1.25104 0.15411 -5.07042e-25)
(1.25827 0.153946 8.43727e-20)
(1.26545 0.15373 5.33506e-20)
(1.27255 0.153468 -2.43045e-20)
(1.27961 0.153156 4.01095e-26)
(1.28662 0.152797 -3.42168e-25)
(1.29358 0.152389 3.99684e-25)
(1.30048 0.151929 -5.72758e-25)
(1.30731 0.151419 9.66576e-20)
(1.3141 0.150861 -4.89298e-25)
(1.32084 0.150251 4.76236e-25)
(1.32753 0.149588 0)
(1.33418 0.148876 0)
(1.34081 0.148111 7.58741e-25)
(1.34739 0.147291 -4.09097e-19)
(1.35395 0.146418 0)
(1.36051 0.145492 0)
(1.36695 0.144457 -4.98228e-19)
(1.36757 0.142769 5.26301e-19)
(1.38002 0.142352 5.53015e-19)
(1.38084 0.140504 5.80032e-19)
(1.38739 0.139317 0)
(1.39393 0.138025 0)
(1.40053 0.136668 -6.56561e-19)
(1.40718 0.135237 6.81522e-19)
(1.41389 0.133729 7.06333e-19)
(1.42067 0.13214 0)
(1.42752 0.130463 0)
(1.43445 0.128696 -7.80579e-19)
(1.44148 0.126831 0)
(1.4486 0.124862 8.30675e-19)
(1.45583 0.122781 -8.56106e-19)
(1.46316 0.120579 -8.81859e-19)
(1.4706 0.118253 9.08014e-19)
(1.47819 0.115792 9.34642e-19)
(1.48588 0.113181 4.79102e-25)
(1.49369 0.110418 9.89469e-19)
(1.50163 0.107489 -2.03561e-18)
(1.50971 0.104384 -3.38107e-26)
(1.51791 0.101089 1.07658e-18)
(1.52623 0.0975912 -1.10711e-18)
(1.53466 0.0938799 -2.27694e-18)
(1.5432 0.0899424 1.17074e-18)
(1.55187 0.0857608 1.20391e-18)
(1.56065 0.081325 1.23807e-18)
(1.56954 0.0766197 -1.27327e-18)
(1.57852 0.0716245 6.5476e-19)
(1.5876 0.0663284 6.73451e-19)
(1.59675 0.0607102 -6.9272e-19)
(1.60598 0.0547566 -7.12594e-19)
(1.61529 0.0484472 -7.33092e-19)
(1.62466 0.0417656 7.54238e-19)
(1.63409 0.0346895 -8.7514e-27)
(1.64358 0.0272018 -3.99279e-19)
(1.65309 0.0192774 -1.98087e-25)
(1.66259 0.0108988 9.75869e-26)
(1.672 0.00203694 -2.72013e-20)
(1.68129 -0.0073234 -2.15702e-25)
(1.69044 -0.0172089 -4.15152e-27)
(1.6994 -0.0276478 2.24286e-25)
(1.70813 -0.0386609 0)
(1.7166 -0.050279 0)
(1.72474 -0.06253 1.01781e-25)
(1.73251 -0.0754426 1.06637e-18)
(1.7399 -0.0890581 1.0978e-18)
(1.74689 -0.103408 2.1421e-24)
(1.75287 -0.118456 -2.32644e-18)
(1.77327 -0.135565 -4.78199e-18)
(1.77888 -0.152616 -2.46084e-18)
(1.78398 -0.170571 2.53191e-18)
(1.78862 -0.189582 4.97898e-24)
(1.79279 -0.209741 -5.09565e-24)
(1.79648 -0.23117 0)
(1.79982 -0.254028 6.96666e-24)
(1.80298 -0.278512 -2.8995e-18)
(1.80598 -0.304864 0)
(1.80873 -0.333387 4.22304e-24)
(1.79856 -0.361622 0)
(1.80683 -0.396437 -3.16406e-18)
(1.82137 -0.43649 6.40823e-18)
(1.86387 -0.488861 -3.21935e-18)
(1.89909 -0.546275 1.19651e-23)
(1.93439 -0.612143 3.18326e-18)
(1.95525 -0.683686 -3.10848e-18)
(1.95359 -0.7593 2.97104e-18)
(1.93049 -0.840582 -5.46963e-18)
(1.89089 -0.932124 2.34999e-18)
(1.84597 -1.04505 -2.52725e-23)
(1.79809 -1.1924 -3.79444e-26)
(1.74492 -1.39474 1.42743e-23)
(1.63269 -1.64353 3.05076e-18)
(1.36542 -1.85644 2.59134e-23)
(0.842913 -1.75475 -5.59722e-18)
(0.258754 -1.09808 8.45567e-23)
(0.00660399 0.0129641 -6.73609e-23)
(0.264177 1.12162 8.41998e-23)
(0.851641 1.77302 5.54821e-18)
(1.37398 1.86809 -1.58391e-22)
(1.6414 1.65227 -2.94423e-18)
(1.754 1.40207 1.2718e-23)
(1.81587 1.20416 6.90991e-25)
(1.84371 1.04352 1.81564e-23)
(1.88684 0.930044 -2.42485e-18)
(1.93887 0.844292 2.79578e-18)
(1.95994 0.761755 -3.02238e-18)
(1.95223 0.682626 3.15104e-18)
(1.9127 0.605286 -3.22324e-18)
(1.85601 0.533895 1.21171e-23)
(1.80584 0.473655 3.2647e-18)
(1.75828 0.421364 -6.49838e-18)
(1.74279 0.38239 3.20602e-18)
(1.73485 0.348812 0)
(1.7436 0.321391 -4.14388e-24)
(1.74139 0.293962 3.00725e-18)
(1.73935 0.268684 -2.9336e-18)
(1.7379 0.24529 3.9574e-24)
(1.73678 0.223489 0)
(1.73572 0.203064 -5.15154e-24)
(1.73454 0.18385 5.03355e-24)
(1.73301 0.165697 2.43096e-24)
(1.73094 0.148502 2.48675e-18)
(1.72826 0.132125 2.41578e-18)
(1.71165 0.11567 -2.25308e-24)
(1.70842 0.101131 2.16355e-24)
(1.70411 0.0872268 -3.17864e-24)
(1.69934 0.0739985 -1.07696e-18)
(1.6941 0.0614196 -8.9626e-26)
(1.68842 0.0494536 0)
(1.68233 0.0380771 0)
(1.6759 0.0272656 2.26506e-25)
(1.66916 0.0169923 -4.185e-27)
(1.66215 0.00723993 -2.17843e-25)
(1.65491 -0.00201623 2.74737e-20)
(1.64745 -0.0107997 9.85825e-26)
(1.63983 -0.0191229 -2.00092e-25)
(1.63211 -0.0270123 3.80298e-25)
(1.62433 -0.0344825 -8.79694e-27)
(1.61651 -0.0415565 -7.62163e-19)
(1.60866 -0.0482489 7.40901e-19)
(1.60081 -0.0545809 7.203e-19)
(1.59297 -0.0605669 7.00337e-19)
(1.58514 -0.0662264 -6.80987e-19)
(1.57732 -0.0715703 -6.62223e-19)
(1.56952 -0.0766195 1.28807e-18)
(1.56176 -0.0813836 -1.25278e-18)
(1.55406 -0.085883 -1.21854e-18)
(1.54643 -0.0901314 -1.1853e-18)
(1.5389 -0.09414 2.30598e-18)
(1.53147 -0.0979268 1.1216e-18)
(1.52414 -0.101505 -1.09105e-18)
(1.51693 -0.104885 -3.38978e-26)
(1.50984 -0.108078 2.06452e-18)
(1.50287 -0.111097 -1.00393e-18)
(1.49601 -0.113954 1.32612e-24)
(1.48925 -0.116659 -9.49144e-19)
(1.48257 -0.119216 -9.22538e-19)
(1.47599 -0.121638 8.96424e-19)
(1.46947 -0.123933 8.70715e-19)
(1.46301 -0.126104 -8.45344e-19)
(1.45659 -0.128162 0)
(1.45022 -0.130112 7.95394e-19)
(1.44388 -0.131959 0)
(1.43756 -0.133712 0)
(1.43125 -0.135372 -7.21457e-19)
(1.42495 -0.136945 -6.96776e-19)
(1.41864 -0.138438 6.71959e-19)
(1.41232 -0.139815 0)
(1.41207 -0.141828 0)
(1.40594 -0.143165 5.49884e-25)
(1.39951 -0.144367 -5.69045e-19)
(1.39304 -0.1455 -5.42164e-19)
(1.38655 -0.146569 5.14574e-19)
(1.38004 -0.147579 0)
(1.37349 -0.148529 0)
(1.36693 -0.149425 4.2636e-19)
(1.3603 -0.150262 7.9234e-25)
(1.35364 -0.151045 0)
(1.34694 -0.151773 0)
(1.34019 -0.15245 5.11329e-25)
(1.33338 -0.153073 -5.25354e-25)
(1.32653 -0.153643 -1.06236e-19)
(1.31963 -0.154165 -6.47158e-25)
(1.31267 -0.154635 -6.25029e-20)
(1.30563 -0.155053 -4.32618e-26)
(1.29854 -0.15542 1.08986e-27)
(1.29141 -0.15574 1.38143e-20)
(1.28421 -0.156008 -4.26685e-20)
(1.27696 -0.15623 -7.34987e-20)
(1.26962 -0.156397 1.06498e-19)
(1.26226 -0.156522 -1.41869e-19)
(1.25481 -0.156594 0)
(1.24731 -0.156618 -1.10301e-19)
(1.23977 -0.156596 9.43164e-25)
(1.23216 -0.156526 1.5586e-19)
(1.22452 -0.15641 0)
(1.21684 -0.156253 -2.08812e-19)
(1.2091 -0.156049 1.74294e-24)
(1.20133 -0.155803 -2.70573e-19)
(1.19353 -0.155514 -2.24631e-24)
(1.18571 -0.155187 -1.71449e-19)
(1.17786 -0.15482 -2.83719e-24)
(1.17 -0.154415 -2.13933e-19)
(1.16213 -0.153974 2.37925e-19)
(1.15429 -0.153502 2.33473e-26)
(1.14645 -0.152999 2.92311e-19)
(1.13863 -0.152466 3.23118e-19)
(1.13084 -0.151907 -1.78317e-19)
(1.12311 -0.151323 -5.8792e-24)
(1.11544 -0.15072 2.16467e-19)
(1.10782 -0.150099 -1.45399e-23)
(1.10027 -0.149458 1.5983e-23)
(1.09285 -0.148804 -5.7514e-19)
(1.08563 -0.148147 0)
(1.07856 -0.147499 1.07273e-23)
(1.07144 -0.146849 -1.1434e-23)
(1.06422 -0.146165 0)
(1.05744 -0.145453 -2.28232e-19)
(1.05175 -0.144803 0)
(1.04712 -0.144312 1.3679e-19)
(1.04185 -0.14393 1.49589e-19)
(1.03456 -0.143449 7.66994e-26)
(1.0251 -0.142628 -3.57959e-19)
(1.01834 -0.141601 4.5759e-25)
(1.01835 -0.140936 -2.5942e-23)
(1.02745 -0.141122 -2.33532e-19)
(1.04118 -0.142694 3.09025e-23)
(1.0455 -0.144618 0)
(1.03579 -0.145951 -7.40011e-20)
(1.01042 -0.145995 -8.03972e-20)
(0.9711 -0.142968 -8.76969e-20)
(0.952038 -0.139295 0)
(0.974343 -0.138425 0)
(1.04301 -0.141133 0)
(1.15815 -0.146734 0)
(1.42358 -0.174477 5.77117e-23)
(1.5087 -0.243548 1.2059e-19)
(0.919243 -0.234512 -6.19001e-23)
(-0.0111378 0.00885871 0)
(-0.38426 0.232388 -1.73262e-19)
(-0.209048 0.18374 3.71352e-19)
(-0.153169 0.195744 0)
(-0.267123 0.547761 -1.99281e-22)
(-0.262147 1.10295 2.13552e-22)
(-0.0383909 0.661063 -2.95624e-24)
(-0.169395 -1.63082 -9.96914e-24)
(-0.746642 -3.07751 -3.3184e-22)
(-0.826298 -1.77686 3.08521e-22)
(-0.309003 -0.4263 0)
(-0.418505 -0.341626 4.96264e-23)
(-1.06102 -0.66177 -5.69751e-19)
(0.282367 0.0557373 -2.15656e-22)
(2.98564 0.722574 7.27214e-24)
(4.39082 0.695687 1.80029e-22)
(4.14388 0.515487 -9.49981e-23)
(3.48037 0.448924 8.99718e-23)
(3.18876 0.435456 0)
(3.01613 0.43044 -1.65398e-19)
(2.96795 0.434254 0)
(3.02475 0.444072 -2.77931e-19)
(3.12837 0.45074 -1.27307e-19)
(3.19344 0.449298 -5.76643e-23)
(3.21582 0.444651 0)
(3.20139 0.438935 5.00961e-25)
(3.16467 0.434912 -1.86207e-19)
(3.14149 0.434801 1.71239e-19)
(3.14222 0.436715 3.87364e-23)
(3.15869 0.438927 -2.87277e-19)
(3.20031 0.443224 5.22489e-19)
(3.22035 0.444656 5.91999e-25)
(3.23508 0.44566 2.69818e-23)
(3.24838 0.447041 -2.00093e-19)
(3.26469 0.44886 3.6576e-19)
(3.28397 0.450822 0)
(3.30445 0.45269 3.05035e-19)
(3.32472 0.454474 2.78513e-19)
(3.34501 0.456265 -4.68823e-25)
(3.36577 0.458093 -4.6344e-19)
(3.3872 0.459918 -1.3111e-23)
(3.40907 0.461704 -3.84625e-19)
(3.43121 0.463444 3.50015e-19)
(3.45358 0.465134 0)
(3.47619 0.466774 0)
(3.49902 0.468349 5.24345e-19)
(3.52203 0.469852 0)
(3.54515 0.471273 -4.2953e-19)
(3.56836 0.472607 3.877e-19)
(3.59167 0.473852 -1.06614e-23)
(3.61504 0.474994 3.13621e-19)
(3.63841 0.47603 -2.80833e-19)
(3.66177 0.476953 -3.96086e-24)
(3.68511 0.477759 -4.45228e-19)
(3.70838 0.478443 3.12924e-24)
(3.7316 0.479003 -3.45669e-19)
(3.75472 0.479435 -2.05401e-24)
(3.77776 0.479739 -1.974e-24)
(3.8007 0.479907 2.22106e-19)
(3.8235 0.479933 1.86671e-19)
(3.84619 0.479824 0)
(3.86873 0.479568 -8.44502e-25)
(3.89113 0.479167 1.4442e-24)
(3.91337 0.478623 -1.35493e-19)
(3.93546 0.47793 -2.41389e-25)
(3.95734 0.477087 3.88957e-20)
(3.97909 0.476098 0)
(4.00071 0.47496 -2.78732e-24)
(4.02217 0.473668 8.47076e-20)
(4.04344 0.47222 5.35399e-25)
(4.06453 0.470619 -1.55571e-19)
(4.08548 0.468867 7.87252e-25)
(4.1063 0.466955 -7.66185e-25)
(4.12699 0.464884 -1.01393e-24)
(4.14753 0.462653 9.88405e-25)
(4.16799 0.460263 -6.0645e-19)
(4.18835 0.457707 1.31551e-18)
(4.20867 0.454987 -1.23066e-25)
(4.22895 0.4521 -7.54686e-19)
(4.24868 0.449047 -1.46805e-24)
(4.23458 0.442168 0)
(4.28914 0.442316 -1.77744e-18)
(4.27499 0.435258 -1.88431e-18)
(4.29509 0.431399 1.93199e-24)
(4.31517 0.427387 1.02475e-18)
(4.33542 0.423164 -1.97665e-24)
(4.35584 0.418715 -1.10615e-18)
(4.37643 0.41403 1.1464e-18)
(4.39724 0.409093 -2.20842e-24)
(4.41827 0.403886 1.22664e-18)
(4.43955 0.398398 0)
(4.46112 0.392609 0)
(4.48299 0.386499 -1.34812e-18)
(4.50518 0.380041 1.38937e-18)
(4.52768 0.373212 0)
(4.55055 0.365995 -1.47355e-18)
(4.57383 0.358362 0)
(4.59746 0.350271 -1.56071e-18)
(4.62145 0.341703 -3.6078e-24)
(4.64583 0.332626 1.65154e-18)
(4.67061 0.323001 1.69858e-18)
(4.69578 0.31279 -1.7468e-18)
(4.72134 0.301955 1.79626e-18)
(4.7472 0.290458 1.84707e-18)
(4.77341 0.278261 -1.89934e-18)
(4.8 0.265312 1.83465e-24)
(4.82694 0.251576 -2.0084e-18)
(4.8542 0.237005 2.06539e-18)
(4.88175 0.221541 -1.06204e-18)
(4.90956 0.205148 1.05592e-24)
(4.93764 0.187761 1.1235e-18)
(4.96592 0.169335 0)
(4.99443 0.149812 1.29593e-24)
(5.02311 0.129136 -1.22304e-18)
(5.05199 0.107251 0)
(5.08102 0.0840876 5.85249e-25)
(5.11012 0.0595826 3.2114e-25)
(5.13915 0.0336682 -3.23371e-25)
(5.16792 0.00627409 8.81842e-20)
(5.19628 -0.0226638 1.81519e-19)
(5.22419 -0.0532231 -3.66413e-25)
(5.25152 -0.0854865 7.26927e-25)
(5.27814 -0.11952 0)
(5.30391 -0.155417 0)
(5.32865 -0.193263 1.67805e-18)
(5.35225 -0.233151 -1.72738e-18)
(5.37465 -0.275199 -1.77808e-18)
(5.39589 -0.319522 3.46909e-24)
(5.4144 -0.366265 0)
(5.50679 -0.421212 3.79783e-18)
(5.52389 -0.473837 3.90876e-18)
(5.53933 -0.529547 -8.04093e-18)
(5.55328 -0.588515 0)
(5.56572 -0.651033 0)
(5.57662 -0.717474 0)
(5.58636 -0.78833 8.96349e-18)
(5.59542 -0.864195 -4.59731e-18)
(5.60379 -0.945795 0)
(5.61086 -1.03369 4.94271e-23)
(5.54678 -1.11519 -1.90245e-23)
(5.57058 -1.22261 3.89389e-23)
(5.61392 -1.34614 -1.03472e-17)
(5.77444 -1.51483 5.08409e-18)
(5.8795 -1.69114 1.88821e-23)
(5.98259 -1.89313 -5.01878e-18)
(6.03877 -2.11148 9.80066e-18)
(6.02292 -2.3408 0)
(5.93758 -2.58522 4.31846e-18)
(5.79667 -2.8573 -7.43541e-18)
(5.63007 -3.18691 -2.77054e-18)
(5.42734 -3.59895 0)
(5.2275 -4.17842 0)
(4.82615 -4.85628 -9.78269e-18)
(3.96785 -5.39039 -1.05058e-17)
(2.40982 -5.01277 -1.12369e-22)
(0.730717 -3.10598 -1.27014e-17)
(0.0162931 0.036563 1.08733e-22)
(0.746045 3.17251 1.26544e-17)
(2.43497 5.06536 -1.11012e-22)
(3.99334 5.42508 1.03223e-17)
(4.85258 4.88283 9.43665e-18)
(5.25568 4.2008 0)
(5.49468 3.64381 0)
(5.60458 3.17275 2.95118e-18)
(5.76024 2.83911 7.82497e-18)
(5.96364 2.59638 -8.83359e-18)
(6.04326 2.34873 0)
(6.03083 2.10876 -9.93562e-18)
(5.91741 1.87259 5.08393e-18)
(5.748 1.65339 1.9139e-23)
(5.59625 1.46812 -5.16148e-18)
(5.42153 1.30003 1.0495e-17)
(5.37533 1.17977 3.94658e-23)
(5.35244 1.07613 -1.92747e-23)
(5.41002 0.996694 -4.81201e-23)
(5.40442 0.912146 -4.77428e-18)
(5.3989 0.83384 4.65881e-18)
(5.39503 0.761326 -9.08257e-18)
(5.39211 0.693732 0)
(5.3893 0.63039 0)
(5.38603 0.570784 4.18468e-18)
(5.38162 0.514463 0)
(5.37551 0.461102 -3.9547e-18)
(5.36744 0.410545 -3.84152e-18)
(5.28824 0.357723 0)
(5.27816 0.312544 3.50399e-24)
(5.2651 0.269584 -4.51853e-26)
(5.25067 0.228721 1.74455e-18)
(5.2348 0.189854 -1.69465e-18)
(5.21754 0.152881 0)
(5.19904 0.117724 0)
(5.17946 0.0843091 7.34082e-25)
(5.15891 0.0525536 -3.70007e-25)
(5.13752 0.0224036 -1.83311e-19)
(5.1154 -0.00621427 -8.90583e-20)
(5.09261 -0.033367 -3.26605e-25)
(5.06932 -0.0591105 3.24351e-25)
(5.04569 -0.0835063 6.53912e-19)
(5.02187 -0.106615 0)
(4.99793 -0.128492 1.23567e-18)
(4.97391 -0.1492 -1.25316e-24)
(4.94986 -0.16879 0)
(4.92582 -0.187314 -1.1356e-18)
(4.9018 -0.204826 1.06738e-24)
(4.87781 -0.221364 1.07388e-18)
(4.8539 -0.236992 -4.17771e-18)
(4.8301 -0.251743 1.96584e-24)
(4.80648 -0.265672 1.85663e-24)
(4.78306 -0.278825 1.92235e-18)
(4.75993 -0.291238 -1.86999e-18)
(4.73712 -0.302966 -1.81912e-18)
(4.71463 -0.314048 1.76959e-18)
(4.6925 -0.324516 -1.72134e-18)
(4.67072 -0.33441 -1.67429e-18)
(4.6493 -0.343764 3.6034e-24)
(4.62824 -0.352618 1.58345e-18)
(4.60746 -0.360999 0)
(4.58696 -0.368925 1.49633e-18)
(4.56673 -0.376432 0)
(4.54672 -0.383546 -1.41225e-18)
(4.52687 -0.390283 1.37108e-18)
(4.50718 -0.396664 0)
(4.48761 -0.402712 0)
(4.46815 -0.408446 -1.24993e-18)
(4.44874 -0.413885 -2.25294e-24)
(4.42937 -0.419039 -1.17e-18)
(4.41003 -0.423925 1.12993e-18)
(4.39071 -0.428561 -2.02315e-24)
(4.37128 -0.433008 -1.04991e-18)
(4.38799 -0.44079 1.9583e-24)
(4.36921 -0.444782 0)
(4.34933 -0.448521 1.82593e-18)
(4.3293 -0.452048 8.69834e-19)
(4.3092 -0.455378 -1.51461e-24)
(4.28904 -0.458523 7.79952e-19)
(4.26879 -0.461486 -1.23341e-25)
(4.24845 -0.464276 -1.36779e-18)
(4.22797 -0.466888 6.33011e-19)
(4.2074 -0.469332 1.0397e-24)
(4.18668 -0.471609 -1.06655e-24)
(4.16582 -0.473725 -8.19192e-25)
(4.14481 -0.475677 8.41718e-25)
(4.12365 -0.477466 1.70018e-19)
(4.10235 -0.479101 5.91786e-25)
(4.08087 -0.480581 -9.96517e-20)
(4.05918 -0.481903 2.51991e-24)
(4.03733 -0.483067 0)
(4.01534 -0.484081 -2.31962e-20)
(3.99318 -0.48494 -1.80022e-25)
(3.97084 -0.485653 1.19298e-19)
(3.94828 -0.486206 1.31884e-24)
(3.9256 -0.486619 2.29402e-19)
(3.90272 -0.486877 0)
(3.87968 -0.486986 -1.46455e-24)
(3.8565 -0.486953 -2.13423e-19)
(3.83315 -0.486775 -2.51475e-19)
(3.80969 -0.486456 0)
(3.78614 -0.486005 0)
(3.76245 -0.485419 -3.8453e-19)
(3.73868 -0.484704 4.36195e-19)
(3.7148 -0.48386 -3.8934e-24)
(3.6909 -0.482898 2.76317e-19)
(3.66692 -0.481812 -3.09101e-19)
(3.64293 -0.480613 -1.05248e-23)
(3.61895 -0.479307 -3.83254e-19)
(3.59503 -0.477904 4.25164e-19)
(3.57117 -0.476408 0)
(3.54738 -0.474821 -5.20194e-19)
(3.52374 -0.473159 0)
(3.50027 -0.471422 0)
(3.47701 -0.469628 -3.48228e-19)
(3.45393 -0.467778 3.82978e-19)
(3.43109 -0.465876 -1.307e-23)
(3.40865 -0.463926 4.62152e-19)
(3.38685 -0.46197 -4.78245e-25)
(3.36549 -0.460044 -2.78045e-19)
(3.34413 -0.458124 -3.04819e-19)
(3.32255 -0.456116 0)
(3.30217 -0.45401 -3.65904e-19)
(3.28474 -0.452041 2.41653e-23)
(3.27033 -0.45051 2.70169e-23)
(3.25459 -0.449383 5.82072e-25)
(3.23367 -0.448091 -5.22805e-19)
(3.20693 -0.445914 2.85724e-19)
(3.18678 -0.442939 3.75885e-23)
(3.18429 -0.440703 -1.70688e-19)
(3.20628 -0.440587 1.8569e-19)
(3.24181 -0.444429 8.80416e-25)
(3.25512 -0.450049 0)
(3.23207 -0.454724 -5.74804e-23)
(3.16701 -0.456339 1.26998e-19)
(3.06414 -0.449904 2.76795e-19)
(3.00845 -0.440199 0)
(3.0578 -0.436317 0)
(3.22998 -0.44093 0)
(3.52467 -0.454219 8.90814e-23)
(4.18265 -0.519793 -9.40716e-23)
(4.43748 -0.70285 -9.18134e-20)
(3.00666 -0.728079 6.36687e-24)
(0.384318 -0.102294 -2.1217e-22)
(-0.974233 0.611478 5.49999e-19)
(-0.627881 0.54969 -1.60482e-23)
(-0.495102 0.651581 0)
(-0.780112 1.6557 3.018e-22)
(-0.694687 2.87252 -3.23844e-22)
(-0.162783 1.5842 -2.51776e-20)
(-0.36497 -2.15034 -1.2795e-20)
(-1.11246 -4.50112 3.70997e-22)
(-1.34793 -3.00893 6.31561e-22)
(-0.663698 -0.949601 -6.34311e-22)
(-0.748038 -0.607528 3.38029e-19)
(-1.41577 -0.906532 6.10978e-19)
(1.16588 0.302317 -2.35077e-19)
(5.38088 1.24674 -1.92811e-19)
(7.2919 1.13998 1.94614e-22)
(6.88493 0.869085 -2.82122e-22)
(5.96162 0.779599 9.33217e-23)
(5.54075 0.761474 -9.28376e-20)
(5.29877 0.758098 1.7425e-19)
(5.24115 0.766631 -7.93732e-23)
(5.33279 0.781489 1.4721e-19)
(5.4847 0.788912 -6.65409e-23)
(5.578 0.784157 -1.24879e-19)
(5.60702 0.775223 5.64093e-23)
(5.58276 0.765744 -2.15121e-19)
(5.52939 0.760204 -1.99189e-19)
(5.49808 0.761049 -1.83525e-19)
(5.50318 0.764795 3.36993e-19)
(5.53261 0.768787 0)
(5.61332 0.777336 -2.75623e-19)
(5.64575 0.779406 0)
(5.67048 0.78105 2.79268e-23)
(5.69368 0.783458 4.23226e-19)
(5.72169 0.786553 4.134e-25)
(5.75424 0.789815 3.53731e-19)
(5.78863 0.792889 -3.2312e-19)
(5.82282 0.795843 -2.95132e-19)
(5.85719 0.798826 0)
(5.8924 0.801874 4.91452e-19)
(5.92873 0.804915 -4.47974e-19)
(5.96581 0.807882 4.08051e-19)
(6.00339 0.810772 -1.15513e-23)
(6.04138 0.813582 -3.37671e-19)
(6.07981 0.816304 -3.06708e-19)
(6.11863 0.818915 -5.56464e-19)
(6.1578 0.821405 5.0405e-19)
(6.19718 0.823755 0)
(6.23675 0.825957 -4.11385e-19)
(6.27649 0.828002 -5.49465e-24)
(6.31634 0.829875 -3.32705e-19)
(6.35624 0.831566 0)
(6.39614 0.833061 -3.91495e-24)
(6.43601 0.83436 4.72107e-19)
(6.47579 0.835443 3.05352e-24)
(6.5155 0.83632 -5.59548e-24)
(6.55506 0.836973 -6.3866e-19)
(6.59449 0.837403 -2.46273e-24)
(6.63376 0.837601 -4.70483e-19)
(6.67281 0.837557 -2.06157e-24)
(6.71166 0.837272 0)
(6.75026 0.836739 -2.60411e-19)
(6.78865 0.835958 1.95927e-25)
(6.82677 0.834922 -1.43296e-19)
(6.86463 0.833636 -2.55211e-25)
(6.90215 0.832088 2.46808e-25)
(6.93947 0.830292 -1.04264e-25)
(6.97654 0.828232 -5.24926e-25)
(7.01333 0.825903 -8.94421e-20)
(7.04979 0.823308 0)
(7.08598 0.820454 1.6415e-19)
(7.12193 0.817331 6.81865e-25)
(7.15765 0.813934 9.52594e-25)
(7.19315 0.810263 -2.6187e-19)
(7.22841 0.806312 1.17933e-24)
(7.2635 0.802084 6.38728e-19)
(7.29845 0.797572 -6.92506e-19)
(7.33333 0.792776 7.4417e-19)
(7.36811 0.787684 7.93942e-19)
(7.40171 0.782236 0)
(7.35348 0.767801 0)
(7.47111 0.77044 9.14162e-25)
(7.42177 0.755563 1.02721e-18)
(7.45609 0.748851 -1.07205e-18)
(7.49041 0.741838 -1.11719e-18)
(7.525 0.734448 2.15483e-24)
(7.55984 0.726671 -2.35986e-24)
(7.59501 0.718487 -2.22139e-24)
(7.63055 0.709866 -2.526e-24)
(7.66647 0.700778 7.06943e-25)
(7.7028 0.6912 -2.57419e-24)
(7.73962 0.681104 0)
(7.77695 0.670451 1.46891e-18)
(7.81482 0.659195 0)
(7.85323 0.647301 -1.55908e-18)
(7.89227 0.63473 3.00274e-24)
(7.93197 0.621438 0)
(7.97228 0.607359 0)
(8.01322 0.592452 -1.74843e-18)
(8.05479 0.576661 -1.79822e-18)
(8.09704 0.559924 -2.31263e-24)
(8.13994 0.542173 5.91931e-24)
(8.18349 0.523343 6.01821e-26)
(8.22756 0.503369 2.01008e-18)
(8.27222 0.482186 2.06669e-18)
(8.31749 0.459699 -1.996e-24)
(8.36335 0.435856 4.36939e-18)
(8.40974 0.410567 2.24634e-18)
(8.45661 0.383738 0)
(8.50391 0.355303 0)
(8.55164 0.325155 1.22132e-18)
(8.59972 0.293209 -1.25606e-18)
(8.64812 0.25937 2.5099e-24)
(8.69682 0.223544 1.3288e-18)
(8.74582 0.185631 0)
(8.79505 0.145515 7.03072e-19)
(8.8444 0.103087 -6.82154e-25)
(8.89356 0.0582231 0)
(8.94226 0.0108185 -4.78573e-20)
(8.99026 -0.0392525 -1.96978e-19)
(9.03743 -0.0921118 1.16341e-24)
(9.08359 -0.147906 -7.88489e-25)
(9.12849 -0.20675 0)
(9.17191 -0.2688 1.69895e-24)
(9.21355 -0.334202 -5.21653e-24)
(9.25322 -0.403126 3.54462e-24)
(9.29079 -0.475758 0)
(9.32647 -0.552313 -1.98245e-18)
(9.35859 -0.633046 -3.90997e-24)
(9.54525 -0.730103 3.66958e-24)
(9.57356 -0.821278 -3.97807e-18)
(9.59898 -0.917706 4.08914e-18)
(9.62177 -1.01975 4.20228e-18)
(9.64193 -1.12791 -3.02061e-26)
(9.65934 -1.24283 -1.54011e-26)
(9.6747 -1.36535 -4.54735e-18)
(9.68869 -1.49648 4.66186e-18)
(9.70126 -1.63746 4.77349e-18)
(9.71113 -1.78928 9.76986e-18)
(9.57058 -1.92439 -5.42881e-18)
(9.60922 -2.10913 0)
(9.68241 -2.32179 5.58025e-18)
(9.97668 -2.61744 0)
(10.1474 -2.91914 1.89782e-23)
(10.3114 -3.26333 -5.68966e-23)
(10.3935 -3.63446 -4.9212e-18)
(10.3517 -4.02344 0)
(10.1894 -4.43663 4.36891e-18)
(9.92713 -4.89342 3.78781e-18)
(9.60626 -5.43789 2.84942e-18)
(9.20542 -6.10441 -1.35642e-18)
(8.78937 -7.02524 1.33021e-18)
(8.02618 -8.07428 5.2316e-18)
(6.50138 -8.82466 1.13178e-17)
(3.89576 -8.08671 -1.2174e-22)
(1.17644 -4.96451 1.38108e-17)
(0.0330651 0.0581942 1.18377e-22)
(1.20091 5.07061 -1.37584e-17)
(3.93647 8.17184 -9.66705e-18)
(6.54372 8.88229 -1.11167e-17)
(8.07065 8.11897 -5.04495e-18)
(8.83703 7.0632 -1.15048e-18)
(9.31362 6.17634 1.44072e-18)
(9.56083 5.41247 -3.17881e-18)
(9.85661 4.85844 -8.4267e-18)
(10.234 4.45584 3.6161e-22)
(10.3867 4.03711 0)
(10.382 3.63062 4.98601e-18)
(10.2048 3.22986 -5.76773e-23)
(9.929 2.85654 1.9271e-23)
(9.67805 2.53923 0)
(9.35746 2.24392 -5.66503e-18)
(9.27936 2.03674 0)
(9.24219 1.85837 5.50308e-18)
(9.37227 1.72686 -9.9492e-18)
(9.36447 1.58061 -1.85706e-23)
(9.3565 1.44516 -4.74481e-18)
(9.3511 1.31966 4.62767e-18)
(9.34722 1.20265 -1.8198e-26)
(9.34338 1.09296 -3.36389e-26)
(9.3386 0.989711 -8.54029e-18)
(9.33181 0.89214 -5.6214e-26)
(9.32211 0.799684 4.03906e-18)
(9.30902 0.71201 3.72394e-24)
(9.14466 0.618552 -3.95272e-24)
(9.12679 0.540469 2.00373e-18)
(9.10492 0.466223 0)
(9.08081 0.395597 3.58179e-24)
(9.05419 0.328405 -5.27093e-24)
(9.02518 0.264485 1.71655e-24)
(8.99404 0.203689 0)
(8.96103 0.145896 -7.96582e-25)
(8.92634 0.0909658 1.17531e-24)
(8.89018 0.0388028 1.98992e-19)
(8.85275 -0.0107227 4.83471e-20)
(8.81418 -0.0577151 0)
(8.77472 -0.102286 -6.89215e-25)
(8.73466 -0.144526 -7.10357e-19)
(8.69424 -0.184547 0)
(8.6536 -0.222443 -1.34279e-18)
(8.61283 -0.25832 -2.45505e-24)
(8.57198 -0.292272 1.26958e-18)
(8.5311 -0.324382 -1.23464e-18)
(8.49024 -0.35474 0)
(8.44944 -0.383421 1.16788e-18)
(8.40875 -0.410526 6.43513e-24)
(8.36823 -0.436118 -2.21015e-18)
(8.32802 -0.460289 -2.02e-24)
(8.28813 -0.48312 -2.09178e-18)
(8.24871 -0.50467 -2.03506e-18)
(8.20983 -0.525035 6.03405e-26)
(8.17151 -0.544283 -2.10171e-24)
(8.13377 -0.562471 5.71014e-24)
(8.09664 -0.579665 1.82292e-18)
(8.0601 -0.595925 1.7731e-18)
(8.02416 -0.611318 0)
(7.98872 -0.625891 1.67665e-18)
(7.95374 -0.639681 3.04963e-24)
(7.9192 -0.652744 1.58379e-18)
(7.88504 -0.665124 0)
(7.85117 -0.676855 -1.49375e-18)
(7.81756 -0.687969 0)
(7.78416 -0.698506 -2.62177e-24)
(7.75093 -0.708504 9.45797e-24)
(7.7178 -0.717987 -2.57449e-24)
(7.68471 -0.726978 6.77995e-24)
(7.6517 -0.735504 -2.40908e-24)
(7.61873 -0.7436 2.20512e-24)
(7.58555 -0.751328 1.14439e-18)
(7.63989 -0.767395 1.04643e-18)
(7.60791 -0.774466 -1.97195e-24)
(7.57386 -0.781038 5.79968e-26)
(7.53951 -0.787236 -9.13393e-19)
(7.50502 -0.793089 -8.6723e-19)
(7.47042 -0.798621 -8.19648e-19)
(7.43567 -0.803839 -7.70397e-19)
(7.40077 -0.808754 7.19259e-19)
(7.36564 -0.813363 -6.66e-19)
(7.33035 -0.817683 1.23251e-24)
(7.29481 -0.821714 2.76047e-19)
(7.25902 -0.825461 -2.45449e-19)
(7.22298 -0.828928 7.37923e-25)
(7.1867 -0.832115 -1.79207e-19)
(7.15016 -0.835029 0)
(7.11333 -0.837679 1.05111e-19)
(7.07616 -0.840058 4.43862e-25)
(7.0387 -0.842164 -1.66811e-25)
(7.00099 -0.844002 1.8387e-25)
(6.96299 -0.84558 7.35621e-20)
(6.92472 -0.846901 5.77593e-25)
(6.88607 -0.847953 1.97109e-25)
(6.8472 -0.848754 -8.24811e-25)
(6.80802 -0.849293 0)
(6.76859 -0.849578 -1.88393e-19)
(6.7289 -0.849612 4.51642e-19)
(6.68895 -0.849397 -1.73439e-24)
(6.64881 -0.848942 3.09642e-19)
(6.60851 -0.848256 -5.4458e-24)
(6.56801 -0.847338 4.07263e-19)
(6.52739 -0.846204 -4.62071e-19)
(6.48659 -0.84484 -3.83639e-24)
(6.44577 -0.843276 0)
(6.40485 -0.841501 3.27613e-19)
(6.36393 -0.839534 -5.41489e-24)
(6.32306 -0.837383 4.06292e-19)
(6.28229 -0.835064 0)
(6.24166 -0.832587 -4.99033e-19)
(6.20118 -0.829957 5.51512e-19)
(6.16099 -0.827196 3.04306e-19)
(6.1211 -0.82431 3.35365e-19)
(6.08159 -0.821326 -1.14869e-23)
(6.04244 -0.81825 -4.05912e-19)
(6.00372 -0.815085 4.45976e-19)
(5.96569 -0.811836 -4.89622e-19)
(5.92874 -0.808571 0)
(5.89258 -0.805362 2.94412e-19)
(5.85657 -0.802179 3.2261e-19)
(5.82036 -0.798873 -3.53289e-19)
(5.78596 -0.795369 4.63971e-25)
(5.75607 -0.792022 -2.11665e-19)
(5.73099 -0.789362 2.79296e-23)
(5.70447 -0.787499 2.524e-19)
(5.67057 -0.785556 2.75507e-19)
(5.62795 -0.782311 0)
(5.59427 -0.777434 -3.2896e-19)
(5.5864 -0.773252 1.79342e-19)
(5.61543 -0.771999 1.94777e-19)
(5.66648 -0.777188 2.1033e-19)
(5.6886 -0.786481 5.51852e-23)
(5.65821 -0.795453 1.22153e-19)
(5.56475 -0.800505 1.32045e-19)
(5.41399 -0.793502 -1.43724e-19)
(5.32402 -0.778834 -7.74676e-23)
(5.38279 -0.770081 -8.73785e-25)
(5.62317 -0.772704 9.06525e-20)
(6.04649 -0.790244 9.07346e-23)
(6.95885 -0.878045 -2.74076e-22)
(7.3705 -1.15211 1.89635e-22)
(5.41866 -1.25845 1.89312e-19)
(1.29568 -0.361966 2.30113e-19)
(-1.34059 0.875381 -5.85012e-19)
(-1.06979 0.935072 -3.17266e-19)
(-0.911609 1.23374 3.17007e-19)
(-1.26493 2.77765 6.14654e-22)
(-1.03299 4.21306 3.68553e-22)
(-0.352149 2.09548 2.44567e-20)
(-0.621359 -2.29102 -2.33057e-20)
(-1.38711 -5.42543 9.12801e-20)
(-1.77905 -4.11823 0)
(-1.08116 -1.60557 0)
(-1.10203 -0.911362 0)
(-1.43041 -0.989479 -3.16721e-19)
(2.64517 0.719651 2.24434e-19)
(8.03185 1.78861 1.8157e-19)
(10.1335 1.56809 -9.39049e-20)
(9.607 1.22999 1.06488e-23)
(8.56406 1.13301 -1.87012e-22)
(8.06988 1.11519 1.88186e-19)
(7.79661 1.1177 1.77647e-19)
(7.74513 1.13238 1.65312e-19)
(7.86474 1.1506 -1.51099e-19)
(8.0457 1.1556 -1.35049e-22)
(8.15386 1.14555 1.29063e-19)
(8.18331 1.13147 0)
(8.15059 1.11845 -1.086e-22)
(8.08804 1.11243 2.07371e-19)
(8.05496 1.11507 0)
(8.06759 1.12098 -3.52095e-19)
(8.11224 1.12674 3.22685e-19)
(8.22571 1.13859 2.7638e-19)
(8.26885 1.14125 2.53194e-19)
(8.30317 1.14345 0)
(8.33641 1.14687 -2.12769e-19)
(8.37591 1.15118 -7.78425e-19)
(8.42109 1.15561 -7.11642e-19)
(8.46858 1.15973 3.2517e-19)
(8.516 1.16371 -3.57508e-23)
(8.56383 1.16775 2.71203e-19)
(8.61288 1.17188 -9.89482e-19)
(8.66346 1.17599 4.50974e-19)
(8.71506 1.17998 0)
(8.76738 1.18386 0)
(8.82032 1.18763 3.39774e-19)
(8.87391 1.19127 3.08524e-19)
(8.92806 1.19475 5.59562e-19)
(8.98268 1.19806 -5.06675e-19)
(9.03764 1.20116 0)
(9.09287 1.20405 4.13163e-19)
(9.14835 1.20671 6.47521e-25)
(9.20399 1.20913 6.21519e-25)
(9.2597 1.21128 9.42044e-24)
(9.31543 1.21315 5.32659e-19)
(9.37112 1.21474 -4.72846e-19)
(9.42668 1.21602 0)
(9.48215 1.217 0)
(9.53741 1.21766 3.19204e-19)
(9.59247 1.21799 -2.75408e-19)
(9.64731 1.218 2.34817e-19)
(9.70185 1.21765 -1.97162e-19)
(9.75609 1.21697 -4.19352e-25)
(9.80999 1.21592 -7.28131e-24)
(9.86356 1.21451 1.71564e-24)
(9.91675 1.21274 1.42507e-19)
(9.96956 1.21061 8.71021e-25)
(10.0219 1.20811 0)
(10.074 1.20525 0)
(10.1257 1.20201 4.82032e-20)
(10.1769 1.19838 0)
(10.2277 1.19437 -1.26575e-19)
(10.2782 1.18999 5.42882e-25)
(10.3282 1.18522 0)
(10.378 1.18006 0)
(10.4274 1.17451 1.33209e-24)
(10.4764 1.16855 2.18929e-24)
(10.5252 1.1622 6.29169e-19)
(10.5738 1.15544 0)
(10.6223 1.14827 -7.31829e-19)
(10.6706 1.14068 0)
(10.7175 1.13263 -1.63949e-24)
(10.6551 1.11251 -9.83709e-19)
(10.8139 1.1151 5.81286e-24)
(10.7496 1.09435 -2.13238e-24)
(10.7977 1.08445 6.79246e-24)