/*--------------------------------*- C++ -*----------------------------------*\
| =========                 |                                                 |
| \\      /  F ield         | OpenFOAM: The Open Source CFD Toolbox           |
|  \\    /   O peration     | Version:  2412                                  |
|   \\  /    A nd           | Website:  www.openfoam.com                      |
|    \\/     M anipulation  |                                                 |
\*---------------------------------------------------------------------------*/
FoamFile
{
    version     2.0;
    format      ascii;
    arch        "LSB;label=32;scalar=64";
    class       volScalarField;
    location    "400";
    object      nut;
}
// * * * * * * * * * * * * * * * * * * * * * * * * * * * * * * * * * * * * * //

dimensions      [0 2 -1 0 0 0 0];

internalField   nonuniform List<scalar> 
7423
(
1.06862e-09
1.62728e-09
2.13234e-09
2.15203e-09
1.50667e-09
9.31449e-10
6.29252e-10
7.97524e-11
7.03914e-11
6.12986e-11
5.36006e-11
4.73651e-11
4.2558e-11
1.0461e-10
3.58508e-11
3.30924e-11
3.05392e-11
5.01837e-11
2.64766e-11
2.49246e-11
2.35469e-11
2.23176e-11
2.12172e-11
2.02228e-11
1.93033e-11
1.84381e-11
1.76202e-11
1.68435e-11
1.61034e-11
1.5396e-11
1.47185e-11
1.40695e-11
1.34487e-11
1.2855e-11
1.2287e-11
1.17442e-11
1.12256e-11
1.07295e-11
1.02544e-11
9.79921e-12
9.10514e-12
8.73204e-12
8.39192e-12
8.06428e-12
7.73883e-12
7.41982e-12
7.10621e-12
6.80691e-12
6.52186e-12
6.24939e-12
5.99062e-12
5.74398e-12
5.50732e-12
5.28096e-12
5.06518e-12
4.85844e-12
4.65958e-12
4.4686e-12
4.28555e-12
4.10961e-12
3.93982e-12
3.77617e-12
3.61846e-12
3.46639e-12
3.31958e-12
3.17758e-12
3.03986e-12
2.90612e-12
2.77714e-12
2.6525e-12
2.53174e-12
2.4147e-12
2.30094e-12
2.19031e-12
2.08317e-12
1.97979e-12
9.65791e-08
1.46647e-07
1.9352e-07
2.02825e-07
1.54796e-07
1.04713e-07
7.43987e-08
5.36406e-09
4.50569e-09
3.81076e-09
3.28406e-09
2.90309e-09
2.65224e-09
1.30288e-08
2.38624e-09
2.2766e-09
2.16789e-09
5.92579e-09
1.99462e-09
1.92819e-09
1.86638e-09
1.80764e-09
1.7524e-09
1.7e-09
1.64853e-09
1.59696e-09
1.54536e-09
1.49387e-09
1.44258e-09
1.3916e-09
1.34107e-09
1.29117e-09
1.24216e-09
1.19421e-09
1.14743e-09
1.10193e-09
1.05781e-09
1.01504e-09
9.7361e-10
9.33507e-10
8.89348e-10
8.50453e-10
8.14935e-10
7.81087e-10
7.4843e-10
7.17112e-10
6.86723e-10
6.57748e-10
6.30168e-10
6.03806e-10
5.78767e-10
5.54917e-10
5.32037e-10
5.10146e-10
4.8928e-10
4.69301e-10
4.50074e-10
4.31607e-10
4.13916e-10
3.9692e-10
3.80517e-10
3.64697e-10
3.49465e-10
3.34782e-10
3.20594e-10
3.06874e-10
2.93582e-10
2.80676e-10
2.68215e-10
2.56177e-10
2.44518e-10
2.33213e-10
2.22229e-10
2.11549e-10
2.01206e-10
1.91229e-10
6.68104e-07
1.03189e-06
1.39319e-06
1.50669e-06
1.23792e-06
9.00812e-07
6.68478e-07
6.66581e-08
5.51348e-08
4.61015e-08
3.91308e-08
3.36955e-08
2.94808e-08
1.34855e-07
2.32782e-08
2.09243e-08
1.90941e-08
6.4094e-08
1.68935e-08
1.62369e-08
1.5721e-08
1.52849e-08
1.49114e-08
1.4577e-08
1.42548e-08
1.39282e-08
1.3595e-08
1.32542e-08
1.29052e-08
1.25484e-08
1.2185e-08
1.18172e-08
1.14475e-08
1.10784e-08
1.07118e-08
1.03492e-08
9.99224e-09
9.64204e-09
9.29914e-09
8.96442e-09
8.9797e-09
8.54732e-09
8.14437e-09
7.76423e-09
7.41422e-09
7.09159e-09
6.78913e-09
6.50218e-09
6.22907e-09
5.96824e-09
5.72039e-09
5.48441e-09
5.25816e-09
5.04163e-09
4.83514e-09
4.63763e-09
4.44757e-09
4.26504e-09
4.09014e-09
3.92215e-09
3.76013e-09
3.60382e-09
3.45326e-09
3.30821e-09
3.16805e-09
3.03257e-09
2.90133e-09
2.77393e-09
2.65084e-09
2.53197e-09
2.41686e-09
2.30522e-09
2.19676e-09
2.09136e-09
1.98928e-09
1.89079e-09
1.99766e-06
3.18672e-06
4.53272e-06
5.07872e-06
4.50001e-06
3.51526e-06
2.72106e-06
4.37535e-07
3.54269e-07
2.91601e-07
2.44145e-07
2.07237e-07
1.78645e-07
6.51453e-07
1.35778e-07
1.1921e-07
1.05846e-07
3.30138e-07
8.6547e-08
7.96593e-08
7.43893e-08
7.04355e-08
6.75276e-08
6.53278e-08
6.35379e-08
6.1973e-08
6.05367e-08
5.9175e-08
5.78424e-08
5.65112e-08
5.51673e-08
5.38096e-08
5.24381e-08
5.10605e-08
4.96805e-08
4.83042e-08
4.69375e-08
4.55873e-08
4.4258e-08
4.29586e-08
4.61873e-08
4.37184e-08
4.13433e-08
3.91162e-08
3.71636e-08
3.54494e-08
3.39227e-08
3.24868e-08
3.11209e-08
2.9817e-08
2.85779e-08
2.7398e-08
2.62674e-08
2.51855e-08
2.41535e-08
2.31667e-08
2.22176e-08
2.13061e-08
2.04327e-08
1.95937e-08
1.87851e-08
1.80048e-08
1.7253e-08
1.65289e-08
1.58295e-08
1.51536e-08
1.44988e-08
1.38633e-08
1.32491e-08
1.2656e-08
1.20818e-08
1.15249e-08
1.0984e-08
1.04583e-08
9.94915e-09
9.45788e-09
4.04936e-06
6.55962e-06
9.7096e-06
1.14018e-05
1.09582e-05
9.19274e-06
7.41978e-06
1.99894e-06
1.59495e-06
1.30183e-06
1.08377e-06
9.14691e-07
7.79904e-07
2.12974e-06
5.78912e-07
5.01858e-07
4.40351e-07
1.15516e-06
3.49349e-07
3.15137e-07
2.87665e-07
2.65343e-07
2.47288e-07
2.32714e-07
2.20955e-07
2.11455e-07
2.03708e-07
1.97247e-07
1.91664e-07
1.8666e-07
1.82029e-07
1.77649e-07
1.73441e-07
1.69361e-07
1.65384e-07
1.61491e-07
1.57684e-07
1.53973e-07
1.50369e-07
1.46909e-07
1.70358e-07
1.60467e-07
1.50608e-07
1.41362e-07
1.33552e-07
1.26985e-07
1.21458e-07
1.16315e-07
1.11426e-07
1.0676e-07
1.02326e-07
9.81036e-08
9.40589e-08
9.01891e-08
8.64968e-08
8.29661e-08
7.95719e-08
7.63126e-08
7.31891e-08
7.01889e-08
6.72975e-08
6.45081e-08
6.182e-08
5.9231e-08
5.67306e-08
5.43146e-08
5.19747e-08
4.9704e-08
4.75081e-08
4.53878e-08
4.33355e-08
4.13456e-08
3.94128e-08
3.75338e-08
3.57138e-08
3.39573e-08
6.71293e-06
1.09842e-05
1.68025e-05
2.07957e-05
2.1211e-05
1.88439e-05
1.58613e-05
7.34933e-06
5.78009e-06
4.68246e-06
3.88336e-06
3.26471e-06
2.76686e-06
5.43946e-06
2.02859e-06
1.74541e-06
1.51942e-06
3.15757e-06
1.18588e-06
1.05916e-06
9.56851e-07
8.72247e-07
8.0201e-07
7.43441e-07
6.94388e-07
6.53157e-07
6.18406e-07
5.88978e-07
5.63894e-07
5.42321e-07
5.23547e-07
5.06993e-07
4.9219e-07
4.78769e-07
4.66459e-07
4.55056e-07
4.44433e-07
4.34525e-07
4.25314e-07
4.16883e-07
5.10669e-07
4.79714e-07
4.47926e-07
4.17986e-07
3.93184e-07
3.7287e-07
3.56518e-07
3.41446e-07
3.2713e-07
3.13468e-07
3.00477e-07
2.88113e-07
2.76272e-07
2.64938e-07
2.54123e-07
2.43781e-07
2.33843e-07
2.24297e-07
2.15148e-07
2.0636e-07
1.97893e-07
1.89724e-07
1.8185e-07
1.74265e-07
1.66941e-07
1.59863e-07
1.5301e-07
1.46359e-07
1.39925e-07
1.33711e-07
1.27697e-07
1.21866e-07
1.16203e-07
1.10697e-07
1.05361e-07
1.00209e-07
9.6384e-06
1.60774e-05
2.55706e-05
3.31208e-05
3.54435e-05
3.34194e-05
2.95212e-05
2.02723e-05
1.69755e-05
1.4208e-05
1.19363e-05
1.00793e-05
8.53853e-06
1.1682e-05
6.21099e-06
5.31792e-06
4.60926e-06
7.22943e-06
3.56724e-06
3.16807e-06
2.84581e-06
2.57824e-06
2.35465e-06
2.16655e-06
2.00721e-06
1.8713e-06
1.75472e-06
1.65413e-06
1.56682e-06
1.49061e-06
1.42369e-06
1.36457e-06
1.31205e-06
1.26515e-06
1.22305e-06
1.18511e-06
1.15084e-06
1.11991e-06
1.09213e-06
1.06762e-06
1.31749e-06
1.23789e-06
1.15469e-06
1.07606e-06
1.01102e-06
9.57952e-07
9.15946e-07
8.77398e-07
8.40805e-07
8.05878e-07
7.72652e-07
7.41026e-07
7.10749e-07
6.81758e-07
6.54077e-07
6.27616e-07
6.02191e-07
5.77759e-07
5.5433e-07
5.31833e-07
5.10156e-07
4.8924e-07
4.69072e-07
4.49639e-07
4.30874e-07
4.1274e-07
3.95181e-07
3.78138e-07
3.6164e-07
3.45701e-07
3.30275e-07
3.1532e-07
3.00792e-07
2.86665e-07
2.72968e-07
2.59732e-07
1.22627e-05
2.10505e-05
3.50691e-05
4.72711e-05
5.27225e-05
5.24004e-05
4.86474e-05
4.04316e-05
3.58785e-05
3.15336e-05
2.75896e-05
2.41374e-05
2.11144e-05
2.25014e-05
1.61632e-05
1.41114e-05
1.23765e-05
1.45631e-05
9.67209e-06
8.60095e-06
7.72035e-06
6.98169e-06
6.35939e-06
5.83198e-06
5.38188e-06
4.99483e-06
4.65969e-06
4.36741e-06
4.11077e-06
3.88406e-06
3.68256e-06
3.50252e-06
3.34092e-06
3.1953e-06
3.0636e-06
2.94424e-06
2.83596e-06
2.73785e-06
2.6493e-06
2.57035e-06
3.02271e-06
2.84968e-06
2.66844e-06
2.4968e-06
2.35257e-06
2.23251e-06
2.13563e-06
2.04645e-06
1.9618e-06
1.881e-06
1.80407e-06
1.73084e-06
1.66076e-06
1.59361e-06
1.52947e-06
1.46814e-06
1.40923e-06
1.35259e-06
1.29825e-06
1.24606e-06
1.19578e-06
1.14725e-06
1.10043e-06
1.0553e-06
1.01172e-06
9.69592e-07
9.28798e-07
8.8919e-07
8.50819e-07
8.13729e-07
7.77828e-07
7.43019e-07
7.09202e-07
6.76302e-07
6.44376e-07
6.13501e-07
1.39781e-05
2.49614e-05
4.40933e-05
6.17776e-05
7.13924e-05
7.4028e-05
7.17168e-05
6.5408e-05
6.0572e-05
5.54077e-05
5.02873e-05
4.5516e-05
4.11327e-05
3.98194e-05
3.34403e-05
3.00431e-05
2.70009e-05
2.7162e-05
2.19118e-05
1.97947e-05
1.79805e-05
1.64123e-05
1.50559e-05
1.3879e-05
1.28535e-05
1.19546e-05
1.11625e-05
1.04601e-05
9.83385e-06
9.27247e-06
8.76668e-06
8.30884e-06
7.89279e-06
7.51342e-06
7.16642e-06
6.84833e-06
6.55634e-06
6.2883e-06
6.04258e-06
5.81863e-06
6.33111e-06
6.003e-06
5.66445e-06
5.34275e-06
5.06322e-06
4.82126e-06
4.61641e-06
4.42604e-06
4.24521e-06
4.07254e-06
3.908e-06
3.75133e-06
3.60139e-06
3.45765e-06
3.32022e-06
3.18879e-06
3.06254e-06
2.94109e-06
2.82448e-06
2.71246e-06
2.60452e-06
2.5003e-06
2.39968e-06
2.30264e-06
2.20892e-06
2.11828e-06
2.03049e-06
1.94522e-06
1.86254e-06
1.78256e-06
1.70511e-06
1.63001e-06
1.55702e-06
1.48598e-06
1.41697e-06
1.35015e-06
2.69141e-05
5.14974e-05
7.53077e-05
8.99039e-05
9.64695e-05
9.66936e-05
9.27328e-05
8.85632e-05
8.34845e-05
7.79748e-05
7.25249e-05
6.73057e-05
6.38152e-05
5.76289e-05
5.31303e-05
4.891e-05
4.6703e-05
4.13834e-05
3.80896e-05
3.51503e-05
3.25275e-05
3.01934e-05
2.81156e-05
2.62625e-05
2.46041e-05
2.31139e-05
2.17689e-05
2.05496e-05
1.94394e-05
1.84245e-05
1.74929e-05
1.6635e-05
1.58426e-05
1.51086e-05
1.44273e-05
1.37938e-05
1.32044e-05
1.26557e-05
1.2146e-05
1.23811e-05
1.181e-05
1.12366e-05
1.06891e-05
1.01937e-05
9.74589e-06
9.34594e-06
8.96988e-06
8.61202e-06
8.26984e-06
7.9431e-06
7.63158e-06
7.33327e-06
7.04686e-06
6.77256e-06
6.51001e-06
6.25765e-06
6.01461e-06
5.78094e-06
5.55629e-06
5.33969e-06
5.13039e-06
4.92809e-06
4.73279e-06
4.54404e-06
4.36136e-06
4.18434e-06
4.01231e-06
3.84525e-06
3.68349e-06
3.52674e-06
3.37465e-06
3.22679e-06
3.08275e-06
2.94265e-06
2.80677e-06
5.6295e-05
8.67955e-05
0.000107096
0.000118377
0.000121972
0.000120696
0.000117936
0.000113703
0.000108541
0.000103084
9.76424e-05
9.30099e-05
8.70786e-05
8.1953e-05
7.69622e-05
7.29916e-05
6.75606e-05
6.32493e-05
5.92673e-05
5.56107e-05
5.22709e-05
4.92264e-05
4.64519e-05
4.39193e-05
4.1602e-05
3.9475e-05
3.75162e-05
3.57063e-05
3.40286e-05
3.24683e-05
3.10131e-05
2.96525e-05
2.83773e-05
2.71797e-05
2.6053e-05
2.49919e-05
2.39916e-05
2.30487e-05
2.26944e-05
2.17634e-05
2.08497e-05
1.99737e-05
1.91551e-05
1.8391e-05
1.76812e-05
1.70065e-05
1.63619e-05
1.57434e-05
1.51502e-05
1.45829e-05
1.40381e-05
1.35134e-05
1.3009e-05
1.2525e-05
1.20587e-05
1.16083e-05
1.11741e-05
1.07557e-05
1.03515e-05
9.96011e-06
9.58085e-06
9.21391e-06
8.85862e-06
8.51416e-06
8.17983e-06
7.85438e-06
7.53759e-06
7.23023e-06
6.93195e-06
6.64215e-06
6.36006e-06
6.08484e-06
5.81661e-06
5.55572e-06
9.53647e-05
0.000122118
0.000138871
0.000146547
0.000148326
0.000147553
0.000144748
0.000140512
0.000135596
0.00013045
0.000125556
0.000119997
0.000114718
0.000109412
0.000104488
9.89238e-05
9.39066e-05
8.91398e-05
8.46548e-05
8.04669e-05
7.65722e-05
7.29573e-05
6.96019e-05
6.64838e-05
6.35804e-05
6.08706e-05
5.83349e-05
5.59561e-05
5.37185e-05
5.16085e-05
4.96148e-05
4.77268e-05
4.59357e-05
4.42339e-05
4.26147e-05
4.10725e-05
3.96026e-05
3.85256e-05
3.71357e-05
3.57854e-05
3.44851e-05
3.32455e-05
3.20651e-05
3.09426e-05
2.98657e-05
2.88312e-05
2.78331e-05
2.68702e-05
2.59444e-05
2.50516e-05
2.4187e-05
2.33515e-05
2.25459e-05
2.17667e-05
2.10105e-05
2.02779e-05
1.95689e-05
1.88814e-05
1.82129e-05
1.75624e-05
1.69303e-05
1.6316e-05
1.57183e-05
1.51362e-05
1.45675e-05
1.40117e-05
1.34703e-05
1.29431e-05
1.24295e-05
1.1928e-05
1.14372e-05
1.09572e-05
1.04878e-05
0.000100205
0.000134261
0.000157323
0.000169804
0.000175107
0.000176837
0.000175944
0.000173101
0.000169163
0.00016472
0.000160165
0.000155149
0.000150091
0.000144836
0.000139571
0.000133945
0.000128522
0.000123243
0.000118172
0.000113351
0.000108794
0.000104504
0.000100468
9.66724e-05
9.30987e-05
8.97284e-05
8.65438e-05
8.35282e-05
8.06663e-05
7.79445e-05
7.53511e-05
7.28752e-05
7.05077e-05
6.82404e-05
6.6066e-05
6.39785e-05
6.19724e-05
6.02084e-05
5.83266e-05
5.65016e-05
5.47356e-05
5.30323e-05
5.13911e-05
4.98087e-05
4.8279e-05
4.68015e-05
4.53676e-05
4.39756e-05
4.26296e-05
4.13252e-05
4.00546e-05
3.88191e-05
3.76216e-05
3.64576e-05
3.53218e-05
3.42148e-05
3.31381e-05
3.20889e-05
3.10634e-05
3.00599e-05
2.90795e-05
2.8122e-05
2.71856e-05
2.62694e-05
2.537e-05
2.44856e-05
2.36194e-05
2.27719e-05
2.19421e-05
2.11284e-05
2.03281e-05
1.9541e-05
1.87652e-05
0.000100478
0.000142823
0.00017317
0.000191266
0.000200692
0.000205474
0.000206968
0.000205955
0.000203393
0.000200012
0.000196227
0.000191972
0.00018743
0.000182511
0.0001773
0.000171731
0.000166119
0.000160527
0.000155051
0.00014976
0.000144692
0.000139863
0.000135277
0.000130924
0.000126793
0.000122869
0.000119136
0.000115578
0.000112182
0.000108933
0.000105819
0.000102831
9.99571e-05
9.71902e-05
9.45225e-05
9.19474e-05
8.94588e-05
8.71252e-05
8.47844e-05
8.25106e-05
8.03014e-05
7.81558e-05
7.60738e-05
7.40501e-05
7.20824e-05
7.01731e-05
6.83109e-05
6.64931e-05
6.47265e-05
6.30072e-05
6.13237e-05
5.96774e-05
5.80739e-05
5.65084e-05
5.49728e-05
5.34678e-05
5.19966e-05
5.05564e-05
4.91417e-05
4.77495e-05
4.63822e-05
4.50398e-05
4.37201e-05
4.24229e-05
4.11428e-05
3.98764e-05
3.86284e-05
3.74008e-05
3.61927e-05
3.5002e-05
3.38244e-05
3.26587e-05
9.5259e-05
0.000147031
0.000185796
0.000210431
0.000224727
0.000233194
0.000237605
0.000238889
0.000238121
0.000236176
0.000233544
0.000230318
0.000226586
0.000222273
0.000217413
0.000212054
0.000206427
0.000200662
0.000194896
0.00018923
0.00018373
0.000178434
0.00017336
0.00016851
0.00016388
0.000159459
0.000155234
0.000151192
0.000147318
0.0001436
0.000140026
0.000136585
0.000133266
0.000130061
0.000126962
0.000123961
0.000121052
0.000118259
0.000115513
0.000112842
0.000110239
0.000107702
0.000105231
0.000102819
0.000100464
9.8172e-05
9.59293e-05
9.37313e-05
9.15877e-05
8.94953e-05
8.74388e-05
8.54189e-05
8.34444e-05
8.15105e-05
7.96057e-05
7.77307e-05
7.58907e-05
7.40829e-05
7.23e-05
7.05373e-05
6.87984e-05
6.70838e-05
6.53911e-05
6.37205e-05
6.20647e-05
6.04176e-05
5.8786e-05
5.71731e-05
5.55786e-05
5.39999e-05
5.24309e-05
5.08686e-05
8.34944e-05
0.000146047
0.000194471
0.000226681
0.000246747
0.000259653
0.000267598
0.000271711
0.000273206
0.000273116
0.000272039
0.00027018
0.000267592
0.0002642
0.000259996
0.000255068
0.000249619
0.000243829
0.000237877
0.000231907
0.000226019
0.000220281
0.000214731
0.000209388
0.000204258
0.000199337
0.000194618
0.000190089
0.000185739
0.000181556
0.000177528
0.000173643
0.000169892
0.000166265
0.000162754
0.00015935
0.000156047
0.00015285
0.000149728
0.000146688
0.000143724
0.00014083
0.000138008
0.000135247
0.000132548
0.000129917
0.000127339
0.000124807
0.000122333
0.000119915
0.000117533
0.000115189
0.000112892
0.000110638
0.000108414
0.000106218
0.000104058
0.000101931
9.98286e-05
9.77437e-05
9.56806e-05
9.36407e-05
9.16211e-05
8.96228e-05
8.76363e-05
8.56524e-05
8.36792e-05
8.17219e-05
7.97806e-05
7.78525e-05
7.59291e-05
7.40051e-05
6.55547e-05
0.000139049
0.000198337
0.000239232
0.000266116
0.000284353
0.000296564
0.000304127
0.000308429
0.000310675
0.000311602
0.000311512
0.000310464
0.000308373
0.000305192
0.000301005
0.000296003
0.000290401
0.000284419
0.000278249
0.000272036
0.000265885
0.000259863
0.000254012
0.000248354
0.000242897
0.000237642
0.000232584
0.000227714
0.000223021
0.000218497
0.00021413
0.000209911
0.000205829
0.000201876
0.000198044
0.000194325
0.000190717
0.000187203
0.000183782
0.000180447
0.000177192
0.000174018
0.000170911
0.000167872
0.000164912
0.00016201
0.000159159
0.000156372
0.000153648
0.000150965
0.00014832
0.000145729
0.000143185
0.000140673
0.000138191
0.000135746
0.000133338
0.000130956
0.000128591
0.000126247
0.000123927
0.000121627
0.000119349
0.000117082
0.000114813
0.00011255
0.000110302
0.000108069
0.000105847
0.000103627
0.0001014
4.35598e-05
0.000125401
0.000196398
0.00024711
0.000282003
0.00030661
0.000323947
0.00033569
0.000343432
0.000348572
0.000352008
0.000354154
0.000355101
0.000354758
0.00035304
0.000349999
0.000345811
0.000340708
0.000334946
0.000328763
0.000322355
0.000315871
0.000309418
0.000303068
0.000296867
0.000290842
0.000285005
0.000279361
0.000273909
0.000268642
0.000263554
0.000258636
0.00025388
0.000249277
0.000244818
0.000240496
0.000236301
0.00023223
0.000228269
0.000224416
0.000220662
0.000217001
0.000213433
0.000209944
0.000206532
0.000203211
0.000199959
0.000196763
0.000193642
0.000190595
0.000187596
0.00018464
0.000181744
0.000178905
0.000176103
0.000173334
0.000170608
0.000167925
0.000165272
0.000162638
0.000160027
0.000157444
0.000154883
0.000152348
0.000149826
0.000147299
0.000144779
0.000142274
0.000139785
0.000137309
0.000134834
0.00013235
2.36421e-05
0.000104796
0.000187509
0.000249147
0.000293357
0.000325521
0.000348987
0.000365767
0.000377689
0.00038637
0.000392893
0.000397804
0.000401256
0.000403165
0.000403413
0.00040201
0.0003991
0.000394916
0.000389735
0.000383837
0.000377465
0.000370819
0.000364051
0.000357273
0.000350563
0.000343972
0.000337533
0.000331266
0.00032518
0.000319276
0.000313555
0.000308012
0.000302642
0.000297437
0.000292391
0.000287496
0.000282745
0.000278132
0.000273648
0.000269286
0.000265039
0.000260899
0.000256869
0.00025293
0.000249081
0.000245338
0.000241676
0.000238082
0.000234573
0.000231152
0.000227789
0.000224477
0.000221235
0.000218062
0.000214933
0.000211844
0.000208806
0.000205819
0.000202869
0.000199944
0.000197047
0.000194182
0.000191346
0.000188542
0.000185755
0.000182966
0.000180185
0.000177421
0.000174679
0.000171955
0.000169235
0.000166504
1.05207e-05
7.7893e-05
0.000170446
0.000244014
0.000298908
0.000339941
0.000370684
0.000393497
0.000410469
0.000423445
0.000433721
0.000442001
0.000448526
0.000453243
0.000456014
0.000456804
0.000455719
0.000452973
0.000448848
0.00044365
0.000437666
0.000431143
0.000424282
0.00041724
0.000410135
0.00040305
0.000396045
0.000389161
0.000382425
0.00037585
0.000369447
0.000363218
0.000357164
0.000351282
0.000345568
0.000340018
0.000334625
0.000329384
0.000324288
0.000319329
0.000314502
0.000309798
0.00030522
0.000300748
0.00029638
0.000292134
0.000287985
0.000283915
0.000279944
0.000276078
0.000272281
0.000268545
0.000264892
0.00026132
0.000257804
0.000254335
0.000250928
0.000247583
0.000244285
0.000241018
0.000237786
0.000234595
0.00023144
0.000228326
0.000225236
0.000222148
0.00021907
0.000216017
0.000212991
0.000209991
0.000207001
0.000204003
5.41457e-06
4.86055e-05
0.000144369
0.000230346
0.000297181
0.000348465
0.000387772
0.000417767
0.0004408
0.000458957
0.00047376
0.0004861
0.000496338
0.000504478
0.000510379
0.000513971
0.000515318
0.000514606
0.000512107
0.000508139
0.000503016
0.000497026
0.000490417
0.000483391
0.000476111
0.000468699
0.000461248
0.000453827
0.000446486
0.000439258
0.000432167
0.000425227
0.000418449
0.000411836
0.000405392
0.000399114
0.000393002
0.000387053
0.00038126
0.000375618
0.000370121
0.000364763
0.000359547
0.000354451
0.000349474
0.000344636
0.000339911
0.000335278
0.000330758
0.000326362
0.000322049
0.000317808
0.000313662
0.000309614
0.000305634
0.000301711
0.000297861
0.000294087
0.000290371
0.000286694
0.000283061
0.000279479
0.000275941
0.000272455
0.000269004
0.000265558
0.000262128
0.00025873
0.000255367
0.00025204
0.000248731
0.000245418
3.29252e-06
2.43342e-05
0.000109945
0.000207046
0.000286576
0.000349422
0.000398686
0.000437166
0.000467433
0.000491803
0.000512039
0.00052924
0.000543921
0.00055617
0.000565869
0.000572924
0.000577364
0.000579342
0.000579113
0.000576992
0.000573309
0.000568383
0.000562496
0.000555896
0.000548786
0.000541332
0.000533664
0.000525885
0.000518073
0.000510286
0.000502567
0.00049495
0.000487456
0.000480102
0.000472899
0.000465853
0.000458969
0.00045225
0.00044569
0.000439289
0.000433043
0.000426947
0.000421007
0.0004152
0.000409523
0.000404003
0.000398612
0.000393325
0.000388166
0.000383148
0.000378231
0.000373395
0.000368669
0.000364058
0.000359529
0.000355068
0.000350692
0.000346405
0.000342191
0.000338027
0.000333915
0.000329864
0.000325868
0.000321937
0.000318052
0.000314178
0.000310326
0.000306512
0.000302745
0.000299024
0.000295332
0.000291639
2.46836e-06
1.04655e-05
7.12919e-05
0.000173668
0.000265528
0.000340924
0.000401553
0.000449955
0.000488793
0.000520574
0.000547299
0.000570296
0.000590262
0.000607401
0.000621643
0.000632888
0.000641138
0.000646516
0.000649259
0.000649673
0.000648095
0.00064486
0.000640282
0.000634639
0.000628174
0.000621093
0.000613563
0.000605725
0.000597687
0.000589538
0.000581347
0.000573167
0.00056504
0.000556998
0.000549066
0.000541259
0.000533593
0.000526076
0.000518712
0.000511502
0.000504449
0.00049755
0.000490815
0.000484221
0.000477765
0.000471478
0.000465335
0.000459308
0.00045342
0.000447692
0.000442079
0.00043656
0.000431163
0.000425899
0.000420731
0.000415644
0.000410654
0.000405768
0.00040097
0.000396232
0.000391557
0.000386954
0.000382418
0.00037796
0.00037356
0.00036918
0.000364828
0.000360522
0.000356273
0.000352082
0.000347933
0.000343786
2.42333e-06
5.62871e-06
3.75778e-05
0.000130721
0.000232761
0.00032099
0.000394211
0.000454038
0.000502939
0.000543506
0.000577946
0.000607826
0.000634054
0.000656981
0.00067661
0.000692857
0.000705707
0.000715262
0.000721738
0.000725435
0.000726692
0.000725856
0.000723261
0.000719213
0.000713985
0.000707817
0.000700912
0.000693442
0.000685554
0.000677364
0.00066897
0.000660452
0.000651875
0.000643289
0.000634736
0.00062625
0.000617855
0.000609573
0.000601415
0.000593392
0.000585512
0.000577777
0.000570204
0.000562772
0.000555478
0.000548359
0.000541393
0.000534551
0.000527855
0.000521334
0.000514943
0.000508655
0.000502501
0.000496495
0.000490601
0.000484799
0.000479106
0.000473532
0.000468061
0.000462664
0.000457339
0.000452097
0.000446934
0.000441863
0.000436865
0.000431896
0.00042696
0.000422079
0.000417266
0.000412526
0.00040784
0.000403158
2.56653e-06
3.95362e-06
1.64182e-05
8.14193e-05
0.000187697
0.000287829
0.000374323
0.000446978
0.000507531
0.000558424
0.000601986
0.000640012
0.000673634
0.000703383
0.000729368
0.000751539
0.000769877
0.000784468
0.000795514
0.000803309
0.000808195
0.000810532
0.00081067
0.000808938
0.000805635
0.000801027
0.00079535
0.000788806
0.000781571
0.000773793
0.000765599
0.000757094
0.000748369
0.000739498
0.000730542
0.000721553
0.000712574
0.00070364
0.000694775
0.000686001
0.000677334
0.000668784
0.000660377
0.000652097
0.000643943
0.000635958
0.000628127
0.000620419
0.000612858
0.00060548
0.000598242
0.000591115
0.000584127
0.000577301
0.0005706
0.000564001
0.000557521
0.000551174
0.000544945
0.000538802
0.000532741
0.000526775
0.000520899
0.000515129
0.000509446
0.000503803
0.0004982
0.00049266
0.0004872
0.000481824
0.00047652
0.000471218
2.64482e-06
3.18073e-06
7.61608e-06
3.82279e-05
0.000131461
0.000240351
0.000339695
0.000426112
0.000499836
0.000562705
0.000616972
0.000664588
0.000706913
0.000744679
0.000778131
0.00080728
0.000832116
0.000852715
0.000869268
0.000882064
0.000891453
0.000897807
0.000901496
0.000902872
0.000902258
0.000899947
0.0008962
0.000891245
0.000885286
0.000878499
0.000871035
0.000863028
0.000854591
0.000845823
0.000836808
0.000827618
0.000818314
0.000808948
0.000799563
0.00079019
0.000780862
0.000771597
0.00076243
0.000753357
0.00074438
0.000735546
0.000726854
0.000718273
0.000709827
0.00070156
0.000693437
0.000685424
0.00067755
0.000669843
0.000662272
0.00065481
0.000647472
0.000640278
0.000633214
0.000626248
0.000619372
0.0006126
0.000605929
0.000599377
0.000592927
0.000586528
0.000580176
0.000573894
0.000567702
0.000561608
0.000555603
0.000549594
2.79145e-06
2.87341e-06
4.37156e-06
1.46533e-05
7.17275e-05
0.000179377
0.00028897
0.000388885
0.000476846
0.000553286
0.000619952
0.000678779
0.000731301
0.000778457
0.000820653
0.000857987
0.000890475
0.000918191
0.000941314
0.000960132
0.000975001
0.00098631
0.000994453
0.000999806
0.00100272
0.00100352
0.00100248
0.000999865
0.000995903
0.000990791
0.000984705
0.000977802
0.000970218
0.000962076
0.000953479
0.000944521
0.000935282
0.000925835
0.000916238
0.000906539
0.000896785
0.000887008
0.000877254
0.000867532
0.000857851
0.000848265
0.000838785
0.000829387
0.000820094
0.000810961
0.000801961
0.00079306
0.000784286
0.000775675
0.000767202
0.000758837
0.000750597
0.000742502
0.000734547
0.000726698
0.000718944
0.0007113
0.000703765
0.000696357
0.000689067
0.000681838
0.000674661
0.00066756
0.000660558
0.000653667
0.000646881
3.05877e-06
3.01619e-06
3.54092e-06
6.66692e-06
2.85726e-05
0.000110092
0.000222879
0.000333654
0.00043565
0.000526784
0.000607481
0.00067925
0.000743635
0.000801738
0.000854136
0.000901034
0.000942493
0.000978593
0.00100951
0.00103551
0.00105697
0.0010743
0.00108791
0.00109821
0.00110558
0.00111037
0.0011129
0.00111346
0.0011123
0.00110963
0.00110567
0.00110058
0.00109452
0.00108765
0.00108007
0.00107191
0.00106326
0.00105422
0.00104485
0.00103523
0.00102542
0.00101546
0.00100541
0.000995302
0.000985148
0.000975008
0.000964912
0.000954843
0.000944827
0.000934927
0.00092513
0.000915406
0.00090578
0.000896296
0.000886939
0.00087768
0.000868534
0.000859527
0.000850658
0.000841899
0.000833233
0.000824676
0.00081623
0.000807916
0.000799729
0.000791614
0.000783553
0.000775572
0.000767693
0.000759936
0.0007523
3.06153e-06
3.05798e-06
3.27721e-06
4.31954e-06
1.05879e-05
4.87261e-05
0.000145815
0.000261113
0.000374331
0.000479918
0.000575762
0.000662114
0.000740123
0.000810896
0.000875135
0.000933161
0.000985093
0.00103102
0.00107112
0.00110565
0.00113499
0.00115956
0.00117979
0.00119613
0.001209
0.00121879
0.00122585
0.0012305
0.00123301
0.00123364
0.00123262
0.00123015
0.00122639
0.00122152
0.00121568
0.00120899
0.00120158
0.00119355
0.00118499
0.00117599
0.00116662
0.00115694
0.00114703
0.00113692
0.00112665
0.00111629
0.00110587
0.00109539
0.00108489
0.00107442
0.00106401
0.00105362
0.00104328
0.00103304
0.00102289
0.00101281
0.00100283
0.000992954
0.000983206
0.000973559
0.000963995
0.000954529
0.000945166
0.000935932
0.000926827
0.000917799
0.000908825
0.000899927
0.000891131
0.000882461
0.000873924
3.0051e-06
3.11424e-06
3.50879e-06
5.42386e-06
1.67852e-05
7.0625e-05
0.000175829
0.000293627
0.000410546
0.000521147
0.000623124
0.00071638
0.000801609
0.000879479
0.000950375
0.00101447
0.00107188
0.00112275
0.00116735
0.00120603
0.00123924
0.00126743
0.00129109
0.00131067
0.00132659
0.00133926
0.00134902
0.0013562
0.00136108
0.00136391
0.00136493
0.00136432
0.00136228
0.00135896
0.00135452
0.00134909
0.00134279
0.00133573
0.001328
0.0013197
0.0013109
0.00130169
0.00129212
0.00128224
0.0012721
0.00126179
0.0012513
0.00124068
0.00122999
0.00121926
0.00120848
0.00119767
0.00118689
0.00117616
0.00116544
0.00115477
0.00114417
0.00113365
0.00112322
0.00111284
0.00110254
0.00109232
0.00108221
0.00107222
0.0010623
0.00105243
0.00104262
0.00103291
0.00102332
0.00101386
3.06301e-06
3.03694e-06
3.19302e-06
3.84357e-06
6.95436e-06
2.39167e-05
8.92633e-05
0.000198794
0.000319662
0.000441378
0.000558286
0.000667672
0.000768924
0.00086223
0.000947864
0.00102599
0.0010967
0.00116015
0.00121656
0.00126629
0.00130977
0.00134747
0.00137992
0.00140759
0.00143097
0.00145049
0.00146656
0.00147952
0.00148972
0.00149743
0.00150291
0.0015064
0.0015081
0.0015082
0.00150686
0.00150423
0.00150047
0.00149568
0.00148999
0.0014835
0.00147628
0.00146845
0.00146006
0.00145118
0.00144188
0.00143224
0.00142228
0.00141203
0.00140159
0.00139099
0.00138023
0.00136934
0.00135837
0.00134737
0.00133632
0.00132523
0.00131415
0.0013031
0.00129208
0.00128107
0.00127009
0.00125916
0.0012483
0.00123754
0.00122683
0.00121615
0.00120551
0.00119494
0.00118448
0.00117414
3.14011e-06
3.07619e-06
3.12021e-06
3.35935e-06
4.29454e-06
8.54871e-06
2.99364e-05
0.000101815
0.000213803
0.000338089
0.000465438
0.000589737
0.000707614
0.000817807
0.000919986
0.00101408
0.0011001
0.00117812
0.00124832
0.00131102
0.00136663
0.00141564
0.00145858
0.00149598
0.00152835
0.00155619
0.00157993
0.0016
0.00161674
0.0016305
0.00164157
0.00165022
0.00165668
0.00166117
0.00166389
0.00166499
0.00166465
0.00166301
0.00166019
0.00165631
0.00165148
0.0016458
0.00163935
0.00163221
0.00162444
0.00161614
0.00160736
0.00159813
0.00158853
0.00157863
0.00156844
0.00155799
0.00154733
0.00153652
0.00152556
0.00151447
0.00150329
0.00149205
0.00148078
0.00146945
0.00145808
0.0014467
0.00143533
0.00142401
0.00141271
0.0014014
0.0013901
0.00137883
0.00136763
0.00135653
3.18187e-06
3.16805e-06
3.1679e-06
3.25573e-06
3.54887e-06
4.71664e-06
9.70216e-06
3.32179e-05
0.00010701
0.000219948
0.00034749
0.000480873
0.000613308
0.000740525
0.00086049
0.000972329
0.00107567
0.00117038
0.00125654
0.00133436
0.00140422
0.00146659
0.00152201
0.00157102
0.00161419
0.00165205
0.00168509
0.00171377
0.00173852
0.0017597
0.00177766
0.0017927
0.0018051
0.00181511
0.00182294
0.00182881
0.00183289
0.00183535
0.00183633
0.00183598
0.00183441
0.00183174
0.00182806
0.00182347
0.00181803
0.00181185
0.001805
0.00179751
0.00178947
0.00178096
0.001772
0.00176262
0.00175289
0.00174287
0.00173257
0.00172202
0.00171125
0.00170032
0.00168925
0.00167804
0.0016667
0.00165526
0.00164375
0.00163221
0.00162064
0.00160901
0.00159732
0.00158561
0.00157391
0.00156227
3.19627e-06
3.20541e-06
3.21285e-06
3.25202e-06
3.35144e-06
3.70717e-06
4.9841e-06
1.01143e-05
3.30816e-05
0.000104382
0.000216385
0.000346253
0.000485387
0.000626223
0.000763353
0.00089381
0.00101612
0.00112958
0.00123393
0.00132921
0.00141568
0.00149373
0.00156389
0.0016267
0.00168276
0.00173263
0.00177687
0.00181597
0.00185041
0.00188063
0.001907
0.00192988
0.00194959
0.00196642
0.00198062
0.00199244
0.00200207
0.00200973
0.00201557
0.00201975
0.00202242
0.0020237
0.00202372
0.00202257
0.00202034
0.00201714
0.00201305
0.00200812
0.00200243
0.00199608
0.00198911
0.00198155
0.00197346
0.00196492
0.00195596
0.0019466
0.00193688
0.00192686
0.00191659
0.00190605
0.00189529
0.00188431
0.00187316
0.00186188
0.00185048
0.00183895
0.0018273
0.00181553
0.0018037