/*--------------------------------*- C++ -*----------------------------------*\
| =========                 |                                                 |
| \\      /  F ield         | OpenFOAM: The Open Source CFD Toolbox           |
|  \\    /   O peration     | Version:  2412                                  |
|   \\  /    A nd           | Website:  www.openfoam.com                      |
|    \\/     M anipulation  |                                                 |
\*---------------------------------------------------------------------------*/
FoamFile
{
    version     2.0;
    format      ascii;
    arch        "LSB;label=32;scalar=64";
    class       surfaceScalarField;
    location    "400";
    object      phi;
}
// * * * * * * * * * * * * * * * * * * * * * * * * * * * * * * * * * * * * * //

dimensions      [0 3 -1 0 0 0 0];

oriented        oriented;

internalField   nonuniform List<scalar> 
16910
(
2.11857e-06
1.25338e-06
-3.37194e-06
1.81584e-06
3.02728e-07
3.18724e-07
1.49712e-06
6.05883e-07
-2.87159e-07
9.62927e-07
-3.57043e-07
-7.52361e-07
1.71529e-06
-2.87957e-06
2.12721e-06
-3.38126e-06
5.0169e-07
-2.80431e-06
-5.76947e-07
-2.36765e-06
-4.36659e-07
-2.17755e-06
-1.90096e-07
-2.08462e-06
-9.29313e-08
-2.09337e-06
8.75206e-09
-2.15294e-06
5.95684e-08
-2.19787e-06
4.49357e-08
-2.2041e-06
6.2237e-09
-2.18115e-06
-2.2947e-08
-2.13454e-06
-4.66067e-08
-2.08296e-06
-5.15802e-08
-2.0465e-06
-3.64535e-08
-2.02627e-06
-2.02271e-08
-2.01746e-06
-8.81092e-09
-2.01355e-06
-3.90617e-09
-2.00675e-06
-6.80564e-09
-1.99583e-06
-1.09077e-08
-1.98279e-06
-1.3046e-08
-1.97042e-06
-1.23667e-08
-1.96054e-06
-9.8737e-09
-1.95288e-06
-7.65886e-09
-1.94628e-06
-6.59151e-09
-1.93996e-06
-6.32197e-09
-1.93401e-06
-5.94844e-09
-1.92859e-06
-5.41246e-09
-1.92385e-06
-4.73178e-09
-1.91999e-06
-3.85411e-09
-1.91674e-06
-3.24901e-09
-1.91394e-06
-2.79634e-09
-1.91141e-06
-2.52988e-09
-1.90951e-06
-1.89494e-09
-1.90793e-06
-1.57495e-09
-1.9067e-06
-1.23101e-09
-1.90571e-06
-9.77988e-10
-1.90496e-06
-7.43465e-10
-1.90457e-06
-3.9457e-10
-1.90439e-06
-1.69547e-10
-1.90444e-06
5.4125e-11
-1.90473e-06
2.94708e-10
-1.90528e-06
5.52428e-10
-1.90593e-06
6.55149e-10
-1.90677e-06
8.41852e-10
-1.90777e-06
1.00486e-09
-1.909e-06
1.24072e-09
-1.91035e-06
1.35055e-09
-1.91189e-06
1.54812e-09
-1.91358e-06
1.68679e-09
-1.91542e-06
1.85772e-09
-1.9174e-06
1.97881e-09
-1.91946e-06
2.07428e-09
-1.9216e-06
2.1456e-09
-1.92406e-06
2.47985e-09
-1.92654e-06
2.47733e-09
-1.92921e-06
2.67423e-09
-1.93201e-06
2.8062e-09
-1.93489e-06
2.88889e-09
-1.93801e-06
3.12472e-09
-1.94115e-06
3.1493e-09
-1.94441e-06
3.26921e-09
-1.94786e-06
3.45992e-09
-1.9515e-06
3.64972e-09
-1.9552e-06
3.71489e-09
-1.95909e-06
3.93083e-09
-1.96313e-06
4.04171e-09
-1.96731e-06
4.21477e-09
-1.97171e-06
4.40679e-09
-1.97624e-06
4.58439e-09
-1.98109e-06
4.84714e-09
-1.98614e-06
5.11359e-09
5.18185e-09
1.62046e-06
1.83687e-08
1.59564e-06
2.48233e-08
1.60754e-06
-1.19056e-08
1.6903e-06
-8.27578e-08
1.85119e-06
-1.60888e-07
2.20265e-06
-3.51456e-07
2.66064e-06
-4.57987e-07
2.38632e-06
2.74325e-07
9.20366e-07
1.46595e-06
-6.12857e-07
1.53322e-06
-5.21853e-07
-9.10028e-08
3.16498e-07
-8.3835e-07
-9.45617e-07
1.26212e-06
-3.01259e-06
2.06698e-06
-1.75922e-06
6.77366e-06
3.98051e-06
-1.41261e-05
6.24989e-06
8.265e-07
1.36554e-06
6.38147e-06
2.06826e-06
-9.89883e-07
2.92369e-06
-1.21246e-06
-3.04097e-06
7.67994e-06
-1.00434e-05
9.12966e-06
-1.15773e-05
2.03561e-06
-9.7116e-06
-2.44268e-06
-8.28839e-06
-1.85987e-06
-7.66717e-06
-8.11316e-07
-7.36817e-06
-3.91928e-07
-7.40346e-06
4.40395e-08
-7.59709e-06
2.53199e-07
-7.73998e-06
1.87836e-07
-7.75466e-06
2.09073e-08
-7.67176e-06
-1.0585e-07
-7.51265e-06
-2.05716e-07
-7.34008e-06
-2.24149e-07
-7.21787e-06
-1.58656e-07
-7.1502e-06
-8.78951e-08
-7.12039e-06
-3.86172e-08
-7.10618e-06
-1.81118e-08
-7.08186e-06
-3.11259e-08
-7.04388e-06
-4.88854e-08
-6.99931e-06
-5.76148e-08
-6.9568e-06
-5.48742e-08
-6.92267e-06
-4.39959e-08
-6.89541e-06
-3.49108e-08
-6.87197e-06
-3.00344e-08
-6.84963e-06
-2.86511e-08
-6.82814e-06
-2.7432e-08
-6.80894e-06
-2.46117e-08
-6.79231e-06
-2.13469e-08
-6.77831e-06
-1.78467e-08
-6.76648e-06
-1.50796e-08
-6.75605e-06
-1.3218e-08
-6.74745e-06
-1.11216e-08
-6.74029e-06
-9.04908e-09
-6.73446e-06
-7.39999e-09
-6.73009e-06
-5.60094e-09
-6.72676e-06
-4.30399e-09
-6.72445e-06
-3.04295e-09
-6.72294e-06
-1.90407e-09
-6.72257e-06
-5.23997e-10
-6.72297e-06
4.53589e-10
-6.72429e-06
1.62684e-09
-6.72601e-06
2.27654e-09
-6.72865e-06
3.30693e-09
-6.73202e-06
4.21138e-09
-6.73599e-06
4.98784e-09
-6.74057e-06
5.82054e-09
-6.74603e-06
6.81863e-09
-6.75161e-06
7.13118e-09
-6.75803e-06
8.12176e-09
-6.7649e-06
8.74328e-09
-6.77238e-06
9.45958e-09
-6.78015e-06
9.86818e-09
-6.78872e-06
1.07143e-08
-6.79747e-06
1.12602e-08
-6.807e-06
1.19957e-08
-6.81696e-06
1.26479e-08
-6.82725e-06
1.30995e-08
-6.83825e-06
1.39077e-08
-6.84972e-06
1.46083e-08
-6.86134e-06
1.47833e-08
-6.87382e-06
1.57642e-08
-6.88663e-06
1.62794e-08
-6.89996e-06
1.69952e-08
-6.91388e-06
1.76553e-08
-6.92827e-06
1.83699e-08
-6.9434e-06
1.9178e-08
-6.95877e-06
1.96403e-08
-6.97507e-06
2.07212e-08
-6.99198e-06
2.15608e-08
-7.00966e-06
2.25291e-08
-7.02826e-06
2.37995e-08
2.42264e-08
5.71669e-06
7.62078e-08
5.63611e-06
1.05398e-07
5.67237e-06
-4.81554e-08
5.94339e-06
-3.53782e-07
6.47467e-06
-6.92165e-07
7.62851e-06
-1.50529e-06
9.12598e-06
-1.95546e-06
8.30354e-06
1.09677e-06
3.4777e-06
6.2918e-06
-1.81631e-06
6.82724e-06
-1.71231e-06
-1.9501e-07
8.06715e-07
-3.35737e-06
-3.51115e-06
5.57998e-06
-9.84828e-06
8.40412e-06
-7.62699e-06
1.23733e-05
7.25026e-06
-3.37497e-05
1.20809e-05
1.11887e-06
3.14624e-06
1.53161e-05
3.99116e-06
-1.8348e-06
4.98282e-06
-2.20413e-06
-6.72286e-06
1.93856e-05
-1.97731e-05
2.21799e-05
-2.24153e-05
4.67789e-06
-1.89823e-05
-5.8757e-06
-1.63728e-05
-4.46941e-06
-1.52244e-05
-1.95971e-06
-1.46847e-05
-9.31645e-07
-1.47617e-05
1.21089e-07
-1.512e-05
6.11501e-07
-1.53765e-05
4.44367e-07
-1.5392e-05
3.63463e-08
-1.52241e-05
-2.737e-07
-1.49173e-05
-5.12589e-07
-1.45899e-05
-5.51469e-07
-1.43596e-05
-3.89008e-07
-1.42315e-05
-2.15927e-07
-1.41739e-05
-9.62932e-08
-1.41444e-05
-4.75836e-08
-1.40955e-05
-8.00249e-08
-1.40207e-05
-1.23678e-07
-1.39335e-05
-1.44848e-07
-1.38513e-05
-1.37022e-07
-1.37841e-05
-1.11177e-07
-1.37305e-05
-8.8502e-08
-1.36836e-05
-7.69905e-08
-1.36391e-05
-7.30829e-08
-1.35967e-05
-6.98443e-08
-1.35578e-05
-6.35224e-08
-1.35249e-05
-5.42061e-08
-1.34969e-05
-4.58574e-08
-1.34731e-05
-3.88803e-08
-1.34527e-05
-3.36086e-08
-1.34352e-05
-2.86518e-08
-1.34208e-05
-2.33667e-08
-1.34096e-05
-1.85877e-08
-1.34009e-05
-1.43204e-08
-1.33949e-05
-1.03481e-08
-1.33905e-05
-7.39576e-09
-1.33883e-05
-4.15725e-09
-1.33879e-05
-8.98574e-10
-1.33892e-05
1.76857e-09
-1.33924e-05
4.8549e-09
-1.33973e-05
7.16704e-09
-1.34039e-05
9.90102e-09
-1.34114e-05
1.17381e-08
-1.34204e-05
1.40337e-08
-1.34305e-05
1.59317e-08
-1.3442e-05
1.83241e-08
-1.34549e-05
2.0013e-08
-1.34689e-05
2.20845e-08
-1.34838e-05
2.36881e-08
-1.35001e-05
2.57534e-08
-1.35173e-05
2.71123e-08
-1.35352e-05
2.86297e-08
-1.35547e-05
3.07295e-08
-1.35754e-05
3.27206e-08
-1.35967e-05
3.40125e-08
-1.36193e-05
3.56638e-08
-1.36426e-05
3.72464e-08
-1.3667e-05
3.89985e-08
-1.36925e-05
4.03415e-08
-1.3719e-05
4.22481e-08
-1.37464e-05
4.3674e-08
-1.37749e-05
4.55553e-08
-1.38048e-05
4.75703e-08
-1.38357e-05
4.93458e-08
-1.38678e-05
5.12176e-08
-1.39013e-05
5.32019e-08
-1.39357e-05
5.51936e-08
-1.39714e-05
5.72978e-08
-1.4009e-05
6.01223e-08
-1.40487e-05
6.35388e-08
6.44347e-08
1.13647e-05
1.78304e-07
1.12156e-05
2.54431e-07
1.12779e-05
-1.10441e-07
1.17774e-05
-8.53307e-07
1.2769e-05
-1.68371e-06
1.49026e-05
-3.63885e-06
1.7684e-05
-4.73689e-06
1.63067e-05
2.47409e-06
7.31562e-06
1.52828e-05
-2.9882e-06
1.71311e-05
-3.19184e-06
8.63219e-09
1.05812e-06
-7.60733e-06
-7.17027e-06
1.38084e-05
-1.82667e-05
1.95006e-05
-1.86434e-05
1.87878e-05
1.10769e-05
-6.36144e-05
1.94462e-05
4.60511e-07
5.96462e-06
2.87977e-05
6.45792e-06
-2.32809e-06
6.85636e-06
-2.60256e-06
-1.2389e-05
3.8631e-05
-3.26549e-05
4.24457e-05
-3.63876e-05
8.41067e-06
-3.11195e-05
-1.11438e-05
-2.71623e-05
-8.42661e-06
-2.53967e-05
-3.72534e-06
-2.45933e-05
-1.73499e-06
-2.47336e-05
2.61376e-07
-2.52853e-05
1.16321e-06
-2.56643e-05
8.23378e-07
-2.5666e-05
3.79915e-08
-2.53812e-05
-5.58485e-07
-2.48865e-05
-1.0073e-06
-2.4368e-05
-1.0699e-06
-2.40046e-05
-7.52459e-07
-2.38011e-05
-4.19391e-07
-2.37082e-05
-1.89261e-07
-2.36559e-05
-9.9875e-08
-2.35724e-05
-1.63476e-07
-2.3449e-05
-2.4712e-07
-2.3306e-05
-2.87815e-07
-2.31719e-05
-2.71072e-07
-2.3062e-05
-2.21135e-07
-2.29728e-05
-1.77676e-07
-2.28949e-05
-1.54908e-07
-2.28202e-05
-1.47792e-07
-2.27492e-05
-1.40738e-07
-2.26852e-05
-1.27522e-07
-2.26299e-05
-1.09577e-07
-2.25832e-05
-9.24989e-08
-2.25429e-05
-7.91459e-08
-2.25089e-05
-6.76056e-08
-2.24804e-05
-5.71894e-08
-2.24571e-05
-4.66853e-08
-2.24391e-05
-3.6507e-08
-2.24258e-05
-2.76436e-08
-2.24158e-05
-2.03419e-08
-2.24102e-05
-1.29693e-08
-2.24079e-05
-6.43913e-09
-2.24087e-05
-1.1091e-10
-2.24133e-05
6.40177e-09
-2.24206e-05
1.21119e-08
-2.24309e-05
1.75276e-08
-2.24433e-05
2.22183e-08
-2.24585e-05
2.70326e-08
-2.24765e-05
3.20448e-08
-2.24969e-05
3.63049e-08
-2.25187e-05
4.00858e-08
-2.25435e-05
4.48667e-08
-2.25697e-05
4.83325e-08
-2.25983e-05
5.2264e-08
-2.26287e-05
5.61509e-08
-2.26611e-05
5.95665e-08
-2.26958e-05
6.32972e-08
-2.27321e-05
6.70309e-08
-2.277e-05
7.06343e-08
-2.28097e-05
7.37478e-08
-2.28513e-05
7.72597e-08
-2.28954e-05
8.1354e-08
-2.29411e-05
8.47081e-08
-2.29883e-05
8.75376e-08
-2.30375e-05
9.14793e-08
-2.30887e-05
9.49166e-08
-2.31415e-05
9.83487e-08
-2.31963e-05
1.02469e-07
-2.32537e-05
1.06723e-07
-2.33129e-05
1.10423e-07
-2.33741e-05
1.14535e-07
-2.34371e-05
1.18223e-07
-2.3503e-05
1.23229e-07
-2.35714e-05
1.28559e-07
-2.36438e-05
1.35996e-07
1.37502e-07
1.89626e-05
3.24927e-07
1.87346e-05
4.82433e-07
1.88229e-05
-1.98732e-07
1.95875e-05
-1.61788e-06
2.11276e-05
-3.22387e-06
2.43989e-05
-6.91011e-06
2.87082e-05
-9.04616e-06
2.68466e-05
4.33568e-06
1.28988e-05
2.92306e-05
-3.87402e-06
3.39039e-05
-4.98127e-06
1.11589e-06
8.1521e-07
-1.34038e-05
-1.20733e-05
2.66969e-05
-2.81113e-05
3.55385e-05
-3.56778e-05
2.5698e-05
1.54258e-05
-0.000104738
2.83851e-05
-2.2266e-06
1.01528e-05
4.703e-05
9.55959e-06
-1.73488e-06
8.09198e-06
-1.13495e-06
-2.08042e-05
6.75272e-05
-4.93214e-05
7.09629e-05
-5.40227e-05
1.31119e-05
-4.67107e-05
-1.84558e-05
-4.12996e-05
-1.38377e-05
-3.88464e-05
-6.17857e-06
-3.77736e-05
-2.80774e-06
-3.80012e-05
4.88938e-07
-3.87691e-05
1.93111e-06
-3.927e-05
1.32425e-06
-3.92347e-05
2.70946e-09
-3.87949e-05
-9.98234e-07
-3.80671e-05
-1.73514e-06
-3.73214e-05
-1.81553e-06
-3.67983e-05
-1.27563e-06
-3.65054e-05
-7.12259e-07
-3.63653e-05
-3.29371e-07
-3.62805e-05
-1.84688e-07
-3.61495e-05
-2.94464e-07
-3.59615e-05
-4.35119e-07
-3.57475e-05
-5.01813e-07
-3.55455e-05
-4.72982e-07
-3.5381e-05
-3.85655e-07
-3.52458e-05
-3.1293e-07
-3.51257e-05
-2.74932e-07
-3.50128e-05
-2.6069e-07
-3.49042e-05
-2.49303e-07
-3.48061e-05
-2.25643e-07
-3.4722e-05
-1.93667e-07
-3.46511e-05
-1.63419e-07
-3.45915e-05
-1.38717e-07
-3.45397e-05
-1.19398e-07
-3.44975e-05
-9.94209e-08
-3.44635e-05
-8.06577e-08
-3.44379e-05
-6.20833e-08
-3.44191e-05
-4.64928e-08
-3.44074e-05
-3.20315e-08
-3.44009e-05
-1.941e-08
-3.44009e-05
-6.40761e-09
-3.44064e-05
5.36372e-09
-3.44171e-05
1.71139e-08
-3.44327e-05
2.76897e-08
-3.44529e-05
3.77727e-08
-3.44773e-05
4.66588e-08
-3.45064e-05
5.61246e-08
-3.45392e-05
6.48507e-08
-3.45756e-05
7.26562e-08
-3.46171e-05
8.16029e-08
-3.46607e-05
8.84714e-08
-3.47084e-05
9.60444e-08
-3.47593e-05
1.03196e-07
-3.48137e-05
1.10611e-07
-3.48708e-05
1.16679e-07
-3.4931e-05
1.23463e-07
-3.49947e-05
1.30766e-07
-3.50616e-05
1.37562e-07
-3.51325e-05
1.44605e-07
-3.52058e-05
1.50611e-07
-3.52812e-05
1.56776e-07
-3.53606e-05
1.64107e-07
-3.54434e-05
1.70388e-07
-3.55286e-05
1.76652e-07
-3.56167e-05
1.8307e-07
-3.57091e-05
1.90708e-07
-3.58035e-05
1.96956e-07
-3.59026e-05
2.05809e-07
-3.60044e-05
2.12242e-07
-3.61098e-05
2.20029e-07
-3.62187e-05
2.27136e-07
-3.63319e-05
2.36554e-07
-3.6449e-05
2.45577e-07
-3.6571e-05
2.58123e-07
2.61645e-07
2.89849e-05
5.1078e-07
2.86712e-05
7.96208e-07
2.87835e-05
-3.1109e-07
2.98407e-05
-2.67502e-06
3.20086e-05
-5.39178e-06
3.6541e-05
-1.14425e-05
4.25912e-05
-1.50963e-05
4.0401e-05
6.5259e-06
2.08131e-05
4.88185e-05
-4.08881e-06
5.88058e-05
-7.07591e-06
4.10299e-06
-2.31398e-07
-2.02483e-05
-1.83203e-05
4.47858e-05
-3.89768e-05
5.61951e-05
-5.92289e-05
3.27991e-05
2.00119e-05
-0.000157549
3.88041e-05
-8.23157e-06
1.59948e-05
6.98393e-05
1.3372e-05
8.87908e-07
8.04476e-06
4.19233e-06
-3.29092e-05
0.000108481
-7.04507e-05
0.000108504
-7.58872e-05
1.85484e-05
-6.64321e-05
-2.7911e-05
-5.95371e-05
-2.07327e-05
-5.63569e-05
-9.35872e-06
-5.50327e-05
-4.13199e-06
-5.53715e-05
8.27756e-07
-5.63638e-05
2.92345e-06
-5.69693e-05
1.92975e-06
-5.68634e-05
-1.03207e-07
-5.62216e-05
-1.64004e-06
-5.52188e-05
-2.73795e-06
-5.42098e-05
-2.82452e-06
-5.35039e-05
-1.98149e-06
-5.31047e-05
-1.11148e-06
-5.29061e-05
-5.27958e-07
-5.27744e-05
-3.16395e-07
-5.25785e-05
-4.90368e-07
-5.23069e-05
-7.06753e-07
-5.20025e-05
-8.06146e-07
-5.17191e-05
-7.56411e-07
-5.14829e-05
-6.21865e-07
-5.12881e-05
-5.07729e-07
-5.11151e-05
-4.47934e-07
-5.09499e-05
-4.25813e-07
-5.07944e-05
-4.04877e-07
-5.06548e-05
-3.65162e-07
-5.05346e-05
-3.13836e-07
-5.04332e-05
-2.64826e-07
-5.03482e-05
-2.23783e-07
-5.02767e-05
-1.90875e-07
-5.02173e-05
-1.58763e-07
-5.01726e-05
-1.25397e-07
-5.01383e-05
-9.63081e-08
-5.01174e-05
-6.74124e-08
-5.01046e-05
-4.48252e-08
-5.01029e-05
-2.11529e-08
-5.01093e-05
-8.11632e-12
-5.01252e-05
2.13129e-08
-5.0149e-05
4.08896e-08
-5.01798e-05
5.85297e-08
-5.02185e-05
7.64944e-08
-5.02643e-05
9.24737e-08
-5.03164e-05
1.08205e-07
-5.03747e-05
1.23169e-07
-5.04401e-05
1.3805e-07
-5.05108e-05
1.52311e-07
-5.05873e-05
1.65016e-07
-5.06695e-05
1.78263e-07
-5.07572e-05
1.90892e-07
-5.08495e-05
2.02898e-07
-5.09477e-05
2.14966e-07
-5.10518e-05
2.2753e-07
-5.11599e-05
2.38895e-07
-5.12737e-05
2.51337e-07
-5.13912e-05
2.62197e-07
-5.15141e-05
2.73471e-07
-5.1643e-05
2.85738e-07
-5.17763e-05
2.97453e-07
-5.19136e-05
3.07674e-07
-5.20569e-05
3.19944e-07
-5.22051e-05
3.31351e-07
-5.23574e-05
3.42965e-07
-5.25158e-05
3.5538e-07
-5.26796e-05
3.69703e-07
-5.28492e-05
3.81813e-07
-5.30225e-05
3.93463e-07
-5.32026e-05
4.07219e-07
-5.33874e-05
4.21435e-07
-5.35805e-05
4.38684e-07
-5.37796e-05
4.57384e-07
4.63113e-07
4.1982e-05
7.19335e-07
4.15848e-05
1.19333e-06
4.17185e-05
-4.44768e-07
4.30839e-05
-4.0404e-06
4.59387e-05
-8.24654e-06
5.18038e-05
-1.73076e-05
5.97393e-05
-2.30319e-05
5.74678e-05
8.79741e-06
3.17718e-05
7.45145e-05
-3.08522e-06
9.36628e-05
-9.44597e-06
1.04637e-05
-2.4072e-06
-2.72871e-05
-2.59934e-05
6.8372e-05
-5.04075e-05
8.06092e-05
-8.96245e-05
3.97265e-05
2.44506e-05
-0.000221726
5.04385e-05
-1.89435e-05
2.36211e-05
9.66566e-05
1.79134e-05
6.59566e-06
5.81968e-06
1.6286e-05
-4.98329e-05
0.000164134
-9.67243e-05
0.000155396
-0.000102614
2.44383e-05
-9.10483e-05
-3.94768e-05
-8.27312e-05
-2.90497e-05
-7.88285e-05
-1.32614e-05
-7.72889e-05
-5.67156e-06
-7.77557e-05
1.29452e-06
-7.89603e-05
4.12802e-06
-7.96367e-05
2.60619e-06
-7.94167e-05
-3.23187e-07
-7.8526e-05
-2.53078e-06
-7.72055e-05
-4.05847e-06
-7.59053e-05
-4.12468e-06
-7.49977e-05
-2.88914e-06
-7.44748e-05
-1.63435e-06
-7.4202e-05
-8.00716e-07
-7.40033e-05
-5.15113e-07
-7.37209e-05
-7.7274e-07
-7.33445e-05
-1.08321e-06
-7.29298e-05
-1.22085e-06
-7.25415e-05
-1.14465e-06
-7.22194e-05
-9.44006e-07
-7.19486e-05
-7.78505e-07
-7.17081e-05
-6.8846e-07
-7.14792e-05
-6.54618e-07
-7.12651e-05
-6.19025e-07
-7.10739e-05
-5.56312e-07
-7.09088e-05
-4.78967e-07
-7.07724e-05
-4.01223e-07
-7.06585e-05
-3.37674e-07
-7.05632e-05
-2.86153e-07
-7.0489e-05
-2.32981e-07
-7.04323e-05
-1.82097e-07
-7.03957e-05
-1.32833e-07
-7.03734e-05
-8.97039e-08
-7.03696e-05
-4.86594e-08
-7.03775e-05
-1.32167e-08
-7.03997e-05
2.21615e-08
-7.04338e-05
5.54555e-08
-7.04816e-05
8.86758e-08
-7.0542e-05
1.18932e-07
-7.06121e-05
1.46646e-07
-7.06941e-05
1.74467e-07
-7.07856e-05
1.99681e-07
-7.08879e-05
2.2555e-07
-7.09988e-05
2.48905e-07
-7.11194e-05
2.72915e-07
-7.1249e-05
2.94697e-07
-7.13865e-05
3.15709e-07
-7.15331e-05
3.37515e-07
-7.16873e-05
3.57125e-07
-7.18498e-05
3.7745e-07
-7.20195e-05
3.97269e-07
-7.2199e-05
4.18427e-07
-7.23849e-05
4.37225e-07
-7.25786e-05
4.55877e-07
-7.27806e-05
4.75554e-07
-7.299e-05
4.95155e-07
-7.32063e-05
5.13753e-07
-7.34311e-05
5.32474e-07
-7.36623e-05
5.51141e-07
-7.39008e-05
5.69925e-07
-7.41484e-05
5.90609e-07
-7.44027e-05
6.09678e-07
-7.46654e-05
6.32421e-07
-7.49362e-05
6.52671e-07
-7.52157e-05
6.73055e-07
-7.55007e-05
6.92185e-07
-7.57959e-05
7.16748e-07
-7.61001e-05
7.4291e-07
-7.64147e-05
7.72026e-07
7.76909e-07
5.85804e-05
9.23146e-07
5.81123e-05
1.66152e-06
5.82688e-05
-6.01337e-07
5.99422e-05
-5.71372e-06
6.35178e-05
-1.18222e-05
7.07218e-05
-2.45116e-05
8.05892e-05
-3.28992e-05
7.853e-05
1.08565e-05
4.65913e-05
0.000106453
-8.39623e-08
0.000140338
-1.19992e-05
2.2379e-05
-6.07992e-06
-3.32064e-05
-3.5273e-05
9.75651e-05
-6.17322e-05
0.000107068
-0.000126906
4.64874e-05
2.82727e-05
-0.000296486
6.28682e-05
-3.53243e-05
3.29705e-05
0.000126554
2.29902e-05
1.6576e-05
2.21586e-07
3.90547e-05
-7.27565e-05
0.000237112
-0.000128787
0.000211426
-0.000134911
3.05622e-05
-0.000121411
-5.29767e-05
-0.000111816
-3.86441e-05
-0.000107245
-1.7833e-05
-0.000105541
-7.37516e-06
-0.000106134
1.88773e-06
-0.000107511
5.50513e-06
-0.000108204
3.29835e-06
-0.000107817
-7.0969e-07
-0.000106633
-3.71521e-06
-0.000104966
-5.72495e-06
-0.000103357
-5.73432e-06
-0.000102231
-4.0151e-06
-0.00010157
-2.29538e-06
-0.0001012
-1.17049e-06
-0.000100912
-8.02844e-07
-0.000100519
-1.16603e-06
-0.000100011
-1.59109e-06
-9.9461e-05
-1.77065e-06
-9.89518e-05
-1.65388e-06
-9.85226e-05
-1.37322e-06
-9.81594e-05
-1.14163e-06
-9.78333e-05
-1.01454e-06
-9.75287e-05
-9.59215e-07
-9.7244e-05
-9.03757e-07
-9.69901e-05
-8.10243e-07
-9.67761e-05
-6.92942e-07
-9.65993e-05
-5.78011e-07
-9.64532e-05
-4.83776e-07
-9.63382e-05
-4.01096e-07
-9.62494e-05
-3.21736e-07
-9.61892e-05
-2.42287e-07
-9.61534e-05
-1.68625e-07
-9.61432e-05
-9.999e-08
-9.61528e-05
-3.89576e-08
-9.61848e-05
1.87292e-08
-9.62379e-05
7.5266e-08
-9.63105e-05
1.28141e-07
-9.64012e-05
1.79362e-07
-9.65084e-05
2.26166e-07
-9.66325e-05
2.70732e-07
-9.67728e-05
3.14791e-07
-9.69294e-05
3.56237e-07
-9.70989e-05
3.95136e-07
-9.72841e-05
4.3411e-07
-9.7481e-05
4.69805e-07
-9.76926e-05
5.06323e-07
-9.79182e-05
5.41259e-07
-9.81548e-05
5.74203e-07
-9.84035e-05
6.05779e-07
-9.8664e-05
6.37993e-07
-9.89384e-05
6.71656e-07
-9.92218e-05
7.01851e-07
-9.95176e-05
7.33104e-07
-9.98251e-05
7.63332e-07
-0.000100143
7.93817e-07
-0.000100474
8.25414e-07
-0.000100815
8.55045e-07
-0.000101167
8.84534e-07
-0.00010153
9.1458e-07
-0.000101903
9.42897e-07
-0.000102288
9.75195e-07
-0.000102684
1.00578e-06
-0.000103091
1.0392e-06
-0.000103509
1.07074e-06
-0.000103936
1.10078e-06
-0.000104376
1.13175e-06
-0.000104825
1.16607e-06
-0.000105287
1.20537e-06
-0.000105762
1.24707e-06
1.25092e-06
7.94696e-05
1.08338e-06
7.89616e-05
2.16953e-06
7.91506e-05
-7.90356e-07
8.1119e-05
-7.68213e-06
8.54114e-05
-1.61147e-05
9.38929e-05
-3.29931e-05
0.000105629
-4.46348e-05
0.000104045
1.24398e-05
6.60746e-05
0.000144424
5.95423e-06
0.000200458
-1.4459e-05
4.27922e-05
-1.16617e-05
-3.60036e-05
-4.65833e-05
0.000132487
-7.28677e-05
0.000133353
-0.000171501
5.29003e-05
3.14983e-05
-0.000380885
7.55649e-05
-5.7989e-05
4.38885e-05
0.000158231
2.7971e-05
3.24935e-05
-1.02362e-05
7.72619e-05
-0.00010279
0.000329665
-0.000167296
0.000275933
-0.000173566
3.68315e-05
-0.000158428
-6.81141e-05
-0.00014776
-4.93122e-05
-0.000142615
-2.29787e-05
-0.000140793
-9.19647e-06
-0.00014149
2.58458e-06
-0.000142975
6.99009e-06
-0.000143614
3.93756e-06
-0.000143005
-1.31875e-06
-0.00014149
-5.2304e-06
-0.000139459
-7.75558e-06
-0.000137532
-7.6621e-06
-0.000136177
-5.36938e-06
-0.00013536
-3.11249e-06
-0.000134873
-1.65811e-06
-0.000134467
-1.20868e-06
-0.000133931
-1.70163e-06
-0.000133267
-2.25472e-06
-0.000132561
-2.4768e-06
-0.000131906
-2.3087e-06
-0.00013135
-1.92941e-06
-0.000130877
-1.61463e-06
-0.000130452
-1.43935e-06
-0.000130054
-1.35719e-06
-0.00012969
-1.26848e-06
-0.000129368
-1.13158e-06
-0.0001291
-9.61559e-07
-0.000128883
-7.94851e-07
-0.00012871
-6.56612e-07
-0.000128576
-5.3519e-07
-0.000128481
-4.17151e-07
-0.000128427
-2.9615e-07
-0.000128407
-1.87815e-07
-0.000128424
-8.30569e-08
-0.000128471
7.97588e-09
-0.000128549
9.6652e-08
-0.000128654
1.80134e-07
-0.000128787
2.60929e-07
-0.000128945
3.37502e-07
-0.000129131
4.12491e-07
-0.00012934
4.7934e-07
-0.000129572
5.47106e-07
-0.000129824
6.08055e-07
-0.000130098
6.69564e-07
-0.000130392
7.27886e-07
-0.000130707
7.84998e-07
-0.000131041
8.39653e-07
-0.000131392
8.92453e-07
-0.000131761
9.43796e-07
-0.000132148
9.92436e-07
-0.000132551
1.04082e-06
-0.00013297
1.09037e-06
-0.000133408
1.1398e-06
-0.00013386
1.18521e-06
-0.000134329
1.23296e-06
-0.000134813
1.27804e-06
-0.000135312
1.32422e-06
-0.000135826
1.36848e-06
-0.000136354
1.41314e-06
-0.000136899
1.45895e-06
-0.000137457
1.501e-06
-0.000138027
1.54578e-06
-0.000138615
1.59333e-06
-0.000139216
1.64091e-06
-0.00013983
1.68451e-06
-0.000140459
1.72936e-06
-0.0001411
1.77308e-06
-0.000141755
1.82071e-06
-0.000142425
1.87565e-06
-0.000143107
1.92938e-06
1.9281e-06
0.000105385
0.000104884
2.671e-06
0.000105124
-1.03043e-06
0.000107373
-9.93116e-06
0.000112344
-2.1086e-05
0.000121992
-4.26412e-05
0.000135412
-5.80539e-05
0.000134454
1.33977e-05
9.10392e-05
0.000187838
1.61839e-05
0.000275314
-1.64751e-05
7.54512e-05
-1.94628e-05
-3.30159e-05
-5.99048e-05
0.000172929
-8.38899e-05
0.000157338
-0.000223893
5.89798e-05
3.47328e-05
-0.000474598
8.7974e-05
-8.69832e-05
5.6091e-05
0.000190114
3.21248e-05
5.64597e-05
-2.70106e-05
0.000136397
-0.000141032
0.000443687
-0.000212976
0.000347877
-0.000219429
4.32843e-05
-0.000203007
-8.45359e-05
-0.000191514
-6.0806e-05
-0.000185904
-2.85881e-05
-0.000183999
-1.1101e-05
-0.000184748
3.33354e-06
-0.000186257
8.49891e-06
-0.000186761
4.44106e-06
-0.000185882
-2.19781e-06
-0.000184009
-7.10292e-06
-0.000181609
-1.01556e-05
-0.000179366
-9.90479e-06
-0.000177777
-6.95853e-06
-0.000176784
-4.10559e-06
-0.000176152
-2.29053e-06
-0.000175593
-1.76741e-06
-0.000174887
-2.40792e-06
-0.000174038
-3.10355e-06
-0.000173148
-3.36651e-06
-0.000172329
-3.12761e-06
-0.000171628
-2.63029e-06
-0.000171026
-2.2171e-06
-0.000170485
-1.97987e-06
-0.000169986
-1.85608e-06
-0.000169532
-1.72244e-06
-0.00016914
-1.52388e-06
-0.00016882
-1.28198e-06
-0.000168567
-1.04756e-06
-0.000168374
-8.49227e-07
-0.000168238
-6.71974e-07
-0.000168155
-4.99347e-07
-0.000168123
-3.28691e-07
-0.000168145
-1.65949e-07
-0.00016821
-1.75051e-08
-0.000168322
1.19906e-07
-0.000168472
2.46843e-07
-0.000168663
3.70991e-07
-0.000168893
4.91232e-07
-0.00016916
6.03564e-07
-0.000169458
7.1126e-07
-0.000169791
8.12405e-07
-0.000170153
9.09218e-07
-0.000170547
1.00152e-06
-0.000170969
1.09146e-06
-0.000171418
1.1769e-06
-0.000171893
1.26067e-06
-0.000172394
1.34047e-06
-0.00017292
1.41852e-06
-0.000173469
1.49293e-06
-0.000174042
1.56538e-06
-0.000174636
1.63472e-06
-0.000175254
1.70811e-06
-0.000175891
1.77705e-06
-0.000176551
1.84522e-06
-0.000177229
1.91054e-06
-0.000177928
1.97764e-06
-0.000178647
2.04264e-06
-0.000179384
2.10574e-06
-0.00018014
2.16909e-06
-0.00018091
2.22902e-06
-0.000181698
2.28955e-06
-0.000182504
2.3518e-06
-0.000183325
2.41419e-06
-0.000184163
2.47842e-06
-0.000185018
2.53972e-06
-0.000185885
2.59699e-06
-0.000186765
2.65315e-06
-0.000187659
2.71471e-06
-0.000188571
2.78727e-06
-0.000189498
2.85667e-06
2.84697e-06
0.000136647
3.1036e-06
0.000136981
-1.36434e-06
0.000139494
-1.24446e-05
0.000145088
-2.66805e-05
0.000155744
-5.32968e-05
0.000170586
-7.28961e-05
0.000170271
1.37127e-05
0.00012229
0.00023582
3.1821e-05
0.000365783
-1.74605e-05
0.000124733
-2.94998e-05
-2.09767e-05
-7.48285e-05
0.000218257
-9.54463e-05
0.000177956
-0.000284606
6.47722e-05
3.87259e-05
-0.000578096
9.9916e-05
-0.000122127
6.90571e-05
0.000220973
3.4445e-05
9.10717e-05
-5.1689e-05
0.000222531
-0.000188588
0.000580586
-0.000266662
0.00042595
-0.000273404
5.00261e-05
-0.00025606
-0.000101879
-0.000243971
-7.28953e-05
-0.000238009
-3.45502e-05
-0.000236028
-1.30821e-05
-0.000236759
4.06456e-06
-0.000238194
9.93385e-06
-0.000238488
4.73539e-06
-0.000237289
-3.39659e-06
-0.000235044
-9.34856e-06
-0.000232278
-1.29208e-05
-0.000229722
-1.24615e-05
-0.000227889
-8.7909e-06
-0.000226699
-5.29534e-06
-0.000225884
-3.10602e-06
-0.000225137
-2.51407e-06
-0.000224225
-3.32063e-06
-0.000223165
-4.16336e-06
-0.000222073
-4.45822e-06
-0.000221065
-4.13562e-06
-0.000220198
-3.49702e-06
-0.000219451
-2.96473e-06
-0.000218786
-2.64456e-06
-0.000218177
-2.46481e-06
-0.000217636
-2.26361e-06
-0.000217177
-1.98237e-06
-0.000216813
-1.64674e-06
-0.000216537
-1.32319e-06
-0.000216344
-1.04199e-06
-0.000216222
-7.93914e-07
-0.000216175
-5.4715e-07
-0.000216201
-3.02284e-07
-0.000216291
-7.59306e-08
-0.000216444
1.35305e-07
-0.000216653
3.29063e-07
-0.000216919
5.13426e-07
-0.000217238
6.89154e-07
-0.000217602
8.55731e-07
-0.000218016
1.01746e-06
-0.000218476
1.17145e-06
-0.000218978
1.31387e-06
-0.00021952
1.45177e-06
-0.000220101
1.58193e-06
-0.000220716
1.70651e-06
-0.000221367
1.82846e-06
-0.000222053
1.94672e-06
-0.00022277
2.05778e-06
-0.000223517
2.1654e-06
-0.000224295
2.27026e-06
-0.000225099
2.36969e-06
-0.000225933
2.46895e-06
-0.00022679
2.56486e-06
-0.000227674
2.66123e-06
-0.000228582
2.75319e-06
-0.000229514
2.84261e-06
-0.000230466
2.92985e-06
-0.000231441
3.0172e-06
-0.000232437
3.10176e-06
-0.00023345
3.18212e-06
-0.000234482
3.26093e-06
-0.00023553
3.33824e-06
-0.000236596
3.41753e-06
-0.00023768
3.4981e-06
-0.000238778
3.57658e-06
-0.000239889
3.651e-06
-0.000241012
3.72009e-06
-0.000242147
3.78768e-06
-0.000243296
3.86362e-06
-0.000244455
3.94634e-06
-0.000245629
4.03122e-06
-0.0002468
4.01763e-06
-0.00024797
4.03216e-06
-0.000249141
4.11603e-06
4.24878e-06
0.000175015
3.39733e-06
0.000175495
-1.84384e-06
0.000178273
-1.5223e-05
0.000184421
-3.28279e-05
0.000195922
-6.47985e-05
0.000211886
-8.88598e-05
0.000212153
1.34459e-05
0.000160614
0.000287358
5.40205e-05
0.000472377
-1.67623e-05
0.000195515
-4.12444e-05
3.50548e-06
-9.04341e-05
0.000267447
-0.000107781
0.000195303
-0.000353661
7.06656e-05
4.3401e-05
-0.000692162
0.00011149
-0.000162951
8.1827e-05
0.000250636
3.3257e-05
0.000139642
-8.59765e-05
0.000341765
-0.000246529
0.000741139
-0.000329314
0.000508735
-0.000336427
5.71391e-05
-0.000318496
-0.00011981
-0.000306018
-8.53735e-05
-0.000299783
-4.07853e-05
-0.000297699
-1.51657e-05
-0.000298333
4.69832e-06
-0.000299595
1.11963e-05
-0.000299608
4.74779e-06
-0.00029805
-4.95422e-06
-0.00029542
-1.19784e-05
-0.000292291
-1.60505e-05
-0.000289418
-1.53345e-05
-0.000287325
-1.0884e-05
-0.000285906
-6.71346e-06
-0.000284874
-4.13843e-06
-0.000283898
-3.48979e-06
-0.000282746
-4.47297e-06
-0.000281444
-5.46543e-06
-0.000280118
-5.78445e-06
-0.000278905
-5.34831e-06
-0.000277859
-4.54327e-06
-0.000276956
-3.86695e-06
-0.000276154
-3.44715e-06
-0.000275438
-3.18024e-06
-0.000274813
-2.88929e-06
-0.000274301
-2.49397e-06
-0.000273909
-2.03846e-06
-0.000273636
-1.59622e-06
-0.000273466
-1.21215e-06
-0.000273395
-8.65441e-07
-0.00027342
-5.22211e-07
-0.000273535
-1.86443e-07
-0.000273738
1.27046e-07
-0.000274022
4.18695e-07
-0.000274377
6.84555e-07
-0.0002748
9.36504e-07
-0.000275291
1.17967e-06
-0.000275844
1.40941e-06
-0.000276456
1.6291e-06
-0.000277121
1.83621e-06
-0.000277838
2.03088e-06
-0.000278606
2.22039e-06
-0.000279421
2.39608e-06
-0.000280277
2.56258e-06
-0.000281177
2.72839e-06
-0.000282113
2.88265e-06
-0.000283088
3.03348e-06
-0.000284099
3.17602e-06
-0.000285141
3.31269e-06
-0.000286215
3.44299e-06
-0.000287317
3.57136e-06
-0.000288451
3.6992e-06
-0.000289609
3.81888e-06
-0.000290793
3.93773e-06
-0.000292001
4.04988e-06
-0.00029323
4.15903e-06
-0.000294482
4.26925e-06
-0.000295749
4.36863e-06
-0.000297035
4.46834e-06
-0.000298338
4.56456e-06
-0.000299655
4.6552e-06
-0.000300985
4.74674e-06
-0.000302325
4.83873e-06
-0.00030368
4.93187e-06
-0.000305044
5.01507e-06
-0.000306416
5.0918e-06
-0.000307793
5.16457e-06
-0.000309175
5.24545e-06
-0.000310566
5.3381e-06
-0.000311967
5.43198e-06
-0.000313378
5.42801e-06
-0.000314773
5.42781e-06
-0.000316145
5.48767e-06
5.60772e-06
0.000220743
3.48037e-06
0.000221431
-2.53159e-06
0.000224492
-1.82841e-05
0.000231131
-3.94669e-05
0.000243318
-7.69852e-05
0.000260105
-0.000105648
0.000260856
1.26956e-05
0.000206878
0.000341336
8.40426e-05
0.000595212
-1.32898e-05
0.000292848
-5.39044e-05
4.41202e-05
-0.000106467
0.00032001
-0.000121037
0.000209872
-0.000431297
7.72799e-05
4.85019e-05
-0.000817944
0.000122743
-0.000208414
9.32557e-05
0.000280123
2.60975e-05
0.0002068
-0.000132172
0.000500034
-0.000315971
0.000924938
-0.000402075
0.000594839
-0.000409523
6.45872e-05
-0.000391309
-0.000138024
-0.000378586
-9.80962e-05
-0.00037211
-4.72616e-05
-0.000369883
-1.73926e-05
-0.000370325
5.14044e-06
-0.000371334
1.22052e-05
-0.000370999
4.41252e-06
-0.000369052
-6.90054e-06
-0.000366024
-1.50073e-05
-0.000362516
-1.95583e-05
-0.000359312
-1.85381e-05
-0.000356932
-1.32644e-05
-0.000355247
-8.39785e-06
-0.000353945
-5.44124e-06
-0.000352699
-4.73519e-06
-0.000351265
-5.90744e-06
-0.000349689
-7.04124e-06
-0.00034811
-7.363e-06
-0.000346671
-6.788e-06
-0.000345428
-5.78582e-06
-0.00034436
-4.93488e-06
-0.000343429
-4.37824e-06
-0.000342609
-4.00006e-06
-0.000341918
-3.58061e-06
-0.000341373
-3.03885e-06
-0.000340985
-2.42607e-06
-0.000340744
-1.83767e-06
-0.000340644
-1.31162e-06
-0.000340666
-8.44228e-07
-0.000340805
-3.82823e-07
-0.000341064
7.24856e-08
-0.000341429
4.9202e-07
-0.000341891
8.80528e-07
-0.000342445
1.23905e-06
-0.000343079
1.57023e-06
-0.000343792
1.89265e-06
-0.000344581
2.19848e-06
-0.000345439
2.48672e-06
-0.000346358