/*--------------------------------*- C++ -*----------------------------------*\
| =========                 |                                                 |
| \\      /  F ield         | OpenFOAM: The Open Source CFD Toolbox           |
|  \\    /   O peration     | Version:  2412                                  |
|   \\  /    A nd           | Website:  www.openfoam.com                      |
|    \\/     M anipulation  |                                                 |
\*---------------------------------------------------------------------------*/
FoamFile
{
    version     2.0;
    format      ascii;
    arch        "LSB;label=32;scalar=64";
    class       volScalarField;
    location    "500";
    object      nut;
}
// * * * * * * * * * * * * * * * * * * * * * * * * * * * * * * * * * * * * * //

dimensions      [0 2 -1 0 0 0 0];

internalField   nonuniform List<scalar> 
8553
(
5.3365e-13
1.41243e-12
4.91007e-13
8.61165e-14
1.56783e-13
3.10739e-13
3.84341e-12
7.00131e-12
5.79997e-12
4.37104e-12
3.86986e-12
3.58376e-12
3.55953e-12
3.67958e-12
3.81081e-12
3.83585e-12
3.78714e-12
3.67622e-12
3.5367e-12
3.42716e-12
3.36506e-12
3.33445e-12
3.32624e-12
3.31742e-12
3.29972e-12
3.27758e-12
3.25649e-12
3.24363e-12
3.23912e-12
3.2404e-12
3.24424e-12
3.2501e-12
3.25883e-12
3.27051e-12
3.2857e-12
3.30423e-12
3.32552e-12
3.34889e-12
3.3748e-12
3.40346e-12
3.43423e-12
3.46719e-12
3.50202e-12
3.53896e-12
3.57793e-12
3.6186e-12
3.66101e-12
3.70529e-12
3.75105e-12
3.79806e-12
3.84648e-12
3.89637e-12
3.94753e-12
3.9998e-12
4.05327e-12
4.10777e-12
4.16331e-12
4.21963e-12
4.27643e-12
4.33441e-12
4.3933e-12
4.45261e-12
4.51278e-12
4.57327e-12
4.63444e-12
4.69604e-12
4.75758e-12
4.81956e-12
4.88216e-12
4.94484e-12
5.00752e-12
5.07046e-12
5.13321e-12
5.19609e-12
5.25891e-12
5.32183e-12
5.38493e-12
5.44712e-12
1.71623e-12
1.69143e-12
1.67657e-12
1.72618e-12
1.88917e-12
2.18157e-12
2.89767e-12
3.57163e-12
2.34907e-12
3.56617e-13
8.92257e-14
3.0592e-14
4.04028e-14
8.28756e-13
2.00114e-12
5.02035e-11
1.16355e-10
4.59173e-11
8.42866e-12
1.36642e-11
2.99911e-11
3.60696e-10
6.25635e-10
5.27028e-10
4.07743e-10
3.63262e-10
3.38556e-10
3.3673e-10
3.47271e-10
3.58428e-10
3.60282e-10
3.55589e-10
3.45461e-10
3.32996e-10
3.23248e-10
3.17725e-10
3.15062e-10
3.14385e-10
3.1366e-10
3.12162e-10
3.10309e-10
3.0859e-10
3.07631e-10
3.07436e-10
3.07776e-10
3.08381e-10
3.09181e-10
3.10255e-10
3.11633e-10
3.13337e-10
3.15349e-10
3.17619e-10
3.20105e-10
3.22837e-10
3.2581e-10
3.28997e-10
3.32398e-10
3.35986e-10
3.39765e-10
3.43733e-10
3.47871e-10
3.52174e-10
3.56638e-10
3.61241e-10
3.65983e-10
3.70858e-10
3.75861e-10
3.80992e-10
3.86222e-10
3.91552e-10
3.96983e-10
4.02507e-10
4.08103e-10
4.13757e-10
4.195e-10
4.25313e-10
4.31179e-10
4.37102e-10
4.43059e-10
4.49074e-10
4.55108e-10
4.61147e-10
4.67222e-10
4.73324e-10
4.79434e-10
4.85539e-10
4.91656e-10
4.97745e-10
5.03829e-10
5.09908e-10
5.15975e-10
5.22042e-10
5.28017e-10
1.60178e-10
1.58135e-10
1.56885e-10
1.61271e-10
1.75568e-10
2.01406e-10
2.61757e-10
3.17031e-10
2.15975e-10
3.60062e-11
7.79802e-12
2.94176e-12
3.70596e-12
6.93435e-11
1.61756e-10
4.93108e-10
9.22724e-10
4.21799e-10
8.61715e-11
1.16556e-10
3.31315e-10
3.38537e-09
5.48526e-09
4.73984e-09
3.81232e-09
3.43168e-09
3.23109e-09
3.21888e-09
3.30698e-09
3.39426e-09
3.40413e-09
3.3582e-09
3.26754e-09
3.15984e-09
3.07624e-09
3.029e-09
3.0069e-09
3.00163e-09
2.99614e-09
2.98444e-09
2.97021e-09
2.95783e-09
2.95246e-09
2.95405e-09
2.96063e-09
2.96992e-09
2.98128e-09
2.99531e-09
3.01241e-09
3.0327e-09
3.05586e-09
3.08154e-09
3.10945e-09
3.13972e-09
3.17228e-09
3.20698e-09
3.24381e-09
3.2825e-09
3.32299e-09
3.36529e-09
3.40924e-09
3.4548e-09
3.50188e-09
3.55034e-09
3.60015e-09
3.65118e-09
3.70337e-09
3.75674e-09
3.81106e-09
3.86628e-09
3.92238e-09
3.97932e-09
4.03694e-09
4.09508e-09
4.1539e-09
4.21333e-09
4.27322e-09
4.33346e-09
4.39397e-09
4.45485e-09
4.51579e-09
4.57678e-09
4.63793e-09
4.69909e-09
4.76027e-09
4.8213e-09
4.88222e-09
4.94279e-09
5.00311e-09
5.06317e-09
5.12291e-09
5.18253e-09
5.24111e-09
1.49831e-09
1.48327e-09
1.47373e-09
1.51099e-09
1.63057e-09
1.85016e-09
2.32724e-09
2.74629e-09
1.96243e-09
3.94685e-10
6.69408e-11
2.94163e-11
3.70594e-11
5.53075e-10
1.25497e-09
2.63634e-09
3.57205e-09
1.86694e-09
4.46398e-10
4.87993e-10
2.16165e-09
1.55481e-08
2.35988e-08
2.10565e-08
1.77024e-08
1.61405e-08
1.53791e-08
1.53423e-08
1.56833e-08
1.5991e-08
1.59971e-08
1.57783e-08
1.53879e-08
1.49444e-08
1.46038e-08
1.44133e-08
1.43293e-08
1.43135e-08
1.42986e-08
1.42615e-08
1.42174e-08
1.41852e-08
1.41852e-08
1.42167e-08
1.42714e-08
1.43399e-08
1.44195e-08
1.45125e-08
1.46208e-08
1.47446e-08
1.48823e-08
1.50324e-08
1.51939e-08
1.53669e-08
1.55512e-08
1.57461e-08
1.59513e-08
1.61658e-08
1.63891e-08
1.66211e-08
1.68611e-08
1.71089e-08
1.7364e-08
1.76257e-08
1.78937e-08
1.81674e-08
1.84465e-08
1.87306e-08
1.90191e-08
1.93117e-08
1.96078e-08
1.99075e-08
2.02101e-08
2.05148e-08
2.08219e-08
2.11312e-08
2.14418e-08
2.17534e-08
2.20657e-08
2.23787e-08
2.26913e-08
2.30032e-08
2.33149e-08
2.36255e-08
2.39352e-08
2.42433e-08
2.45497e-08
2.48534e-08
2.51547e-08
2.54532e-08
2.57492e-08
2.60436e-08
2.63319e-08
6.94203e-09
6.89482e-09
6.8642e-09
7.0171e-09
7.49236e-09
8.38659e-09
1.01574e-08
1.16107e-08
8.68241e-09
2.24337e-09
2.82561e-10
1.50262e-10
1.99813e-10
2.119e-09
4.76302e-09
1.14647e-08
9.74313e-09
5.65995e-09
1.6145e-09
1.44443e-09
1.03602e-08
4.93264e-08
7.12786e-08
6.60141e-08
5.80612e-08
5.37016e-08
5.17871e-08
5.16955e-08
5.25327e-08
5.31976e-08
5.30967e-08
5.2393e-08
5.12622e-08
5.00418e-08
4.91193e-08
4.86165e-08
4.84238e-08
4.84188e-08
4.84279e-08
4.83912e-08
4.835e-08
4.83597e-08
4.84733e-08
4.86882e-08
4.89793e-08
4.93207e-08
4.97046e-08
5.01371e-08
5.06235e-08
5.11637e-08
5.17524e-08
5.2385e-08
5.30588e-08
5.37732e-08
5.45275e-08
5.53192e-08
5.61461e-08
5.70056e-08
5.78963e-08
5.88165e-08
5.97646e-08
6.07391e-08
6.17379e-08
6.27584e-08
6.37991e-08
6.4859e-08
6.5936e-08
6.7028e-08
6.81334e-08
6.92501e-08
7.03766e-08
7.15127e-08
7.26558e-08
7.38033e-08
7.49557e-08
7.61115e-08
7.72686e-08
7.84254e-08
7.95802e-08
8.07332e-08
8.18811e-08
8.30224e-08
8.41576e-08
8.52849e-08
8.64034e-08
8.75121e-08
8.86097e-08
8.9693e-08
9.07624e-08
9.18178e-08
9.2859e-08
9.38886e-08
9.48936e-08
2.2635e-08
2.25561e-08
2.251e-08
2.29469e-08
2.42259e-08
2.67104e-08
3.11014e-08
3.42968e-08
2.65448e-08
9.01849e-09
8.45932e-10
5.50918e-10
8.23194e-10
5.70961e-09
1.30863e-08
4.1712e-08
2.17212e-08
1.35736e-08
4.62749e-09
3.52386e-09
3.95525e-08
1.23623e-07
1.74201e-07
1.68065e-07
1.54243e-07
1.44792e-07
1.41145e-07
1.40826e-07
1.42193e-07
1.43086e-07
1.4259e-07
1.40895e-07
1.3844e-07
1.35946e-07
1.34107e-07
1.33174e-07
1.32947e-07
1.33128e-07
1.33389e-07
1.33612e-07
1.33879e-07
1.34314e-07
1.35019e-07
1.35988e-07
1.37162e-07
1.38486e-07
1.39943e-07
1.41544e-07
1.43301e-07
1.4521e-07
1.47259e-07
1.49436e-07
1.51732e-07
1.54147e-07
1.56676e-07
1.59312e-07
1.62049e-07
1.64878e-07
1.67795e-07
1.70795e-07
1.73873e-07
1.7702e-07
1.80232e-07
1.83502e-07
1.86823e-07
1.90192e-07
1.93602e-07
1.97047e-07
2.00521e-07
2.04016e-07
2.0753e-07
2.11059e-07
2.14596e-07
2.18134e-07
2.21671e-07
2.25205e-07
2.28728e-07
2.32235e-07
2.35721e-07
2.39186e-07
2.4262e-07
2.4602e-07
2.49385e-07
2.52711e-07
2.55995e-07
2.59233e-07
2.62422e-07
2.65552e-07
2.68625e-07
2.71642e-07
2.74601e-07
2.77506e-07
2.80328e-07
5.95401e-08
5.95093e-08
5.95438e-08
6.05586e-08
6.32373e-08
6.8636e-08
7.69261e-08
8.16226e-08
6.43596e-08
2.82997e-08
2.15716e-09
1.69135e-09
2.87488e-09
1.27104e-08
3.77702e-08
1.3138e-07
4.28542e-08
2.78601e-08
1.11505e-08
8.58687e-09
1.19807e-07
2.62036e-07
3.70113e-07
3.72524e-07
3.54808e-07
3.37844e-07
3.32123e-07
3.30819e-07
3.3195e-07
3.32363e-07
3.31083e-07
3.27993e-07
3.23981e-07
3.20218e-07
3.17586e-07
3.16548e-07
3.16851e-07
3.17922e-07
3.19312e-07
3.2082e-07
3.22573e-07
3.24784e-07
3.27601e-07
3.31014e-07
3.34917e-07
3.39207e-07
3.43859e-07
3.48889e-07
3.54308e-07
3.60103e-07
3.66252e-07
3.72726e-07
3.79505e-07
3.86583e-07
3.93946e-07
4.01577e-07
4.09457e-07
4.17566e-07
4.25886e-07
4.34404e-07
4.43104e-07
4.51965e-07
4.60971e-07
4.70102e-07
4.79341e-07
4.88673e-07
4.98081e-07
5.0755e-07
5.17057e-07
5.26586e-07
5.36126e-07
5.45665e-07
5.55186e-07
5.64672e-07
5.74114e-07
5.835e-07
5.92813e-07
6.02039e-07
6.11169e-07
6.20196e-07
6.29095e-07
6.37861e-07
6.46492e-07
6.54974e-07
6.63298e-07
6.71456e-07
6.7944e-07
6.87227e-07
6.94821e-07
7.02223e-07
7.09431e-07
7.16453e-07
7.23233e-07
1.35149e-07
1.35381e-07
1.3581e-07
1.37898e-07
1.42598e-07
1.52409e-07
1.64976e-07
1.68261e-07
1.32719e-07
7.25747e-08
5.82344e-09
4.67687e-09
8.98603e-09
2.56843e-08
1.1279e-07
3.62786e-07
9.67227e-08
5.16296e-08
2.3459e-08
2.23329e-08
2.9357e-07
4.90459e-07
7.12496e-07
7.47119e-07
7.32853e-07
7.06579e-07
6.98389e-07
6.93916e-07
6.92633e-07
6.91394e-07
6.89534e-07
6.85777e-07
6.81582e-07
6.78265e-07
6.76427e-07
6.7692e-07
6.79633e-07
6.83714e-07
6.88801e-07
6.94579e-07
7.01152e-07
7.08804e-07
7.17676e-07
7.27778e-07
7.38933e-07
7.51009e-07
7.63964e-07
7.77802e-07
7.92518e-07
8.08081e-07
8.24449e-07
8.41566e-07
8.5939e-07
8.77892e-07
8.97035e-07
9.16774e-07
9.37066e-07
9.57861e-07
9.79113e-07
1.00078e-06
1.02283e-06
1.0452e-06
1.06784e-06
1.09072e-06
1.11377e-06
1.13697e-06
1.16027e-06
1.18362e-06
1.20697e-06
1.23028e-06
1.25352e-06
1.27665e-06
1.29964e-06
1.32244e-06
1.34503e-06
1.36737e-06
1.38943e-06
1.41117e-06
1.43257e-06
1.45361e-06
1.47425e-06
1.49445e-06
1.51421e-06
1.53352e-06
1.55234e-06
1.57065e-06
1.58843e-06
1.60565e-06
1.62231e-06
1.6384e-06
1.65393e-06
1.66891e-06
1.68328e-06
2.74967e-07
2.75757e-07
2.77244e-07
2.81238e-07
2.88523e-07
3.04026e-07
3.19478e-07
3.13515e-07
2.42557e-07
1.5811e-07
1.58504e-08
1.11666e-08
2.62167e-08
5.70066e-08
3.21792e-07
8.91073e-07
2.31052e-07
8.93223e-08
4.44974e-08
5.93586e-08
6.09801e-07
8.46972e-07
1.27445e-06
1.38551e-06
1.38736e-06
1.3507e-06
1.33845e-06
1.3265e-06
1.31951e-06
1.31634e-06
1.31655e-06
1.31614e-06
1.31694e-06
1.31941e-06
1.32304e-06
1.32952e-06
1.33937e-06
1.35172e-06
1.36671e-06
1.38382e-06
1.40293e-06
1.42428e-06
1.4479e-06
1.47387e-06
1.50194e-06
1.53202e-06
1.56403e-06
1.59791e-06
1.6336e-06
1.67105e-06
1.71017e-06
1.75087e-06
1.79305e-06
1.83663e-06
1.88153e-06
1.92763e-06
1.97484e-06
2.02304e-06
2.07214e-06
2.12203e-06
2.17261e-06
2.22375e-06
2.27535e-06
2.32729e-06
2.37947e-06
2.43177e-06
2.4841e-06
2.53636e-06
2.58842e-06
2.6402e-06
2.69163e-06
2.7426e-06
2.79303e-06
2.84283e-06
2.89194e-06
2.94027e-06
2.98775e-06
3.03432e-06
3.07991e-06
3.12447e-06
3.16791e-06
3.2102e-06
3.2513e-06
3.29116e-06
3.32973e-06
3.36697e-06
3.40282e-06
3.43723e-06
3.47022e-06
3.50178e-06
3.53189e-06
3.56055e-06
3.5878e-06
5.13292e-07
5.14694e-07
5.18248e-07
5.25463e-07
5.35924e-07
5.57857e-07
5.72677e-07
5.42591e-07
4.09295e-07
3.0346e-07
4.22894e-08
2.2941e-08
6.68316e-08
1.34449e-07
8.49743e-07
1.97118e-06
5.42261e-07
1.47912e-07
7.86809e-08
1.56645e-07
1.12119e-06
1.38637e-06
2.15007e-06
2.4033e-06
2.43555e-06
2.38708e-06
2.36688e-06
2.3419e-06
2.32713e-06
2.32587e-06
2.33645e-06
2.34987e-06
2.36741e-06
2.38688e-06
2.40581e-06
2.4277e-06
2.4546e-06
2.48633e-06
2.52389e-06
2.56642e-06
2.61316e-06
2.66402e-06
2.71884e-06
2.77779e-06
2.84071e-06
2.90759e-06
2.97828e-06
3.05254e-06
3.13023e-06
3.21122e-06
3.29536e-06
3.38249e-06
3.47241e-06
3.56492e-06
3.65985e-06
3.75697e-06
3.85607e-06
3.95692e-06
4.05928e-06
4.16296e-06
4.26771e-06
4.37331e-06
4.4795e-06
4.58605e-06
4.69272e-06
4.79931e-06
4.90561e-06
5.01137e-06
5.1164e-06
5.22049e-06
5.32348e-06
5.4252e-06
5.52543e-06
5.624e-06
5.7208e-06
5.81564e-06
5.9084e-06
5.99894e-06
6.08713e-06
6.17285e-06
6.25596e-06
6.3364e-06
6.41407e-06
6.48888e-06
6.56072e-06
6.62951e-06
6.69516e-06
6.7576e-06
6.81685e-06
6.87289e-06
6.92566e-06
6.97517e-06
7.02166e-06
8.93819e-07
9.00441e-07
9.12641e-07
9.2717e-07
9.5572e-07
9.64908e-07
8.88106e-07
6.56437e-07
5.27903e-07
1.09518e-07
4.19569e-08
1.45755e-07
3.19149e-07
2.06203e-06
3.96686e-06
1.21251e-06
2.60225e-07
1.30281e-07
4.04751e-07
1.88104e-06
2.18887e-06
3.44852e-06
3.92212e-06
3.99372e-06
3.93082e-06
3.89767e-06
3.85656e-06
3.83798e-06
3.85124e-06
3.89009e-06
3.93742e-06
3.99239e-06
4.04788e-06
4.0992e-06
4.15339e-06
4.21528e-06
4.2864e-06
4.36879e-06
4.46077e-06
4.5604e-06
4.66685e-06
4.77968e-06
4.89918e-06
5.02566e-06
5.15916e-06
5.2993e-06
5.44554e-06
5.59755e-06
5.75508e-06
5.9179e-06
6.0857e-06
6.25808e-06
6.43466e-06
6.61506e-06
6.79886e-06
6.98566e-06
7.17503e-06
7.36655e-06
7.55979e-06
7.75432e-06
7.9497e-06
8.14548e-06
8.34122e-06
8.53651e-06
8.73097e-06
8.92418e-06
9.11577e-06
9.30535e-06
9.49257e-06
9.67715e-06
9.85878e-06
1.00371e-05
1.02118e-05
1.03826e-05
1.05493e-05
1.07117e-05
1.08695e-05
1.10225e-05
1.11705e-05
1.13133e-05
1.14507e-05
1.15826e-05
1.17088e-05
1.18293e-05
1.19436e-05
1.20519e-05
1.21539e-05
1.22498e-05
1.23394e-05
1.24226e-05
1.24995e-05
1.25705e-05
1.26198e-05
1.26803e-05
1.27339e-05
1.45947e-06
1.46945e-06
1.48837e-06
1.5083e-06
1.54349e-06
1.54216e-06
1.39071e-06
1.01907e-06
8.50517e-07
2.76196e-07
8.06845e-08
2.78451e-07
7.41242e-07
4.58373e-06
7.31363e-06
2.55385e-06
4.972e-07
2.01102e-07
1.02161e-06
2.94033e-06
3.36668e-06
5.27742e-06
6.04165e-06
6.15231e-06
6.07303e-06
6.02559e-06
5.97402e-06
5.96775e-06
6.02154e-06
6.11907e-06
6.23181e-06
6.35472e-06
6.47397e-06
6.58362e-06
6.69658e-06
6.82192e-06
6.9638e-06
7.125e-06
7.30192e-06
7.49101e-06
7.69032e-06
7.89878e-06
8.11744e-06
8.34712e-06
8.5879e-06
8.83888e-06
9.09902e-06
9.36766e-06
9.64439e-06
9.92883e-06
1.02204e-05
1.05183e-05
1.0822e-05
1.11307e-05
1.14437e-05
1.17603e-05
1.20798e-05
1.24014e-05
1.27245e-05
1.30483e-05
1.33722e-05
1.36953e-05
1.4017e-05
1.43367e-05
1.46537e-05
1.49674e-05
1.52773e-05
1.55827e-05
1.58831e-05
1.61782e-05
1.64674e-05
1.67502e-05
1.70261e-05
1.72949e-05
1.75561e-05
1.78095e-05
1.80547e-05
1.82914e-05
1.85193e-05
1.87382e-05
1.89478e-05
1.91479e-05
1.93383e-05
1.95186e-05
1.96887e-05
1.98485e-05
1.99978e-05
2.01366e-05
2.02649e-05
2.03825e-05
2.04893e-05
2.0586e-05
2.06574e-05
2.07365e-05
2.08045e-05
2.2582e-06
2.26985e-06
2.2961e-06
2.32281e-06
2.36487e-06
2.35006e-06
2.09685e-06
1.53688e-06
1.28967e-06
6.38985e-07
1.48905e-07
4.85285e-07
1.66444e-06
9.32669e-06
1.24156e-05
5.05029e-06
9.82949e-07
3.33659e-07
2.1424e-06
4.34907e-06
5.06898e-06
7.71973e-06
8.81299e-06
8.95699e-06
8.86562e-06
8.81354e-06
8.77286e-06
8.81218e-06
8.94836e-06
9.14792e-06
9.36823e-06
9.59833e-06
9.8174e-06
1.00206e-05
1.02294e-05
1.04582e-05
1.07137e-05
1.09989e-05
1.13068e-05
1.16316e-05
1.19699e-05
1.23202e-05
1.26848e-05
1.30652e-05
1.3461e-05
1.38706e-05
1.42921e-05
1.47245e-05
1.51671e-05
1.56193e-05
1.608e-05
1.65482e-05
1.70225e-05
1.7502e-05
1.79855e-05
1.8472e-05
1.89604e-05
1.94495e-05
1.99384e-05
2.04259e-05
2.09111e-05
2.13928e-05
2.18703e-05
2.23426e-05
2.28088e-05
2.32681e-05
2.37198e-05
2.4163e-05
2.45973e-05
2.50219e-05
2.54364e-05
2.584e-05
2.62322e-05
2.66126e-05
2.69808e-05
2.73364e-05
2.7679e-05
2.80083e-05
2.8324e-05
2.86258e-05
2.89133e-05
2.91864e-05
2.94445e-05
2.96875e-05
2.9915e-05
3.01269e-05
3.03233e-05
3.05041e-05
3.06692e-05
3.08181e-05
3.0951e-05
3.10685e-05
3.11562e-05
3.12485e-05
3.13248e-05
3.33019e-06
3.33869e-06
3.37032e-06
3.40405e-06
3.45317e-06
3.42485e-06
3.05188e-06
2.25517e-06
1.8622e-06
1.22474e-06
2.6738e-07
8.04385e-07
3.58109e-06
1.73832e-05
1.95132e-05
9.36043e-06
1.94262e-06
6.02336e-07
3.84816e-06
6.15288e-06
7.39784e-06
1.08126e-05
1.22295e-05
1.2406e-05
1.23205e-05
1.22915e-05
1.23033e-05
1.24402e-05
1.2715e-05
1.307e-05
1.34475e-05
1.38301e-05
1.41917e-05
1.4532e-05
1.48831e-05
1.52655e-05
1.56861e-05
1.61482e-05
1.66396e-05
1.71513e-05
1.76784e-05
1.82202e-05
1.87803e-05
1.93605e-05
1.99597e-05
2.05751e-05
2.12038e-05
2.18443e-05
2.24956e-05
2.31568e-05
2.38263e-05
2.45022e-05
2.5183e-05
2.5867e-05
2.65528e-05
2.72388e-05
2.79236e-05
2.86057e-05
2.92838e-05
2.99565e-05
3.06224e-05
3.12804e-05
3.19292e-05
3.25679e-05
3.31953e-05
3.38106e-05
3.44129e-05
3.50013e-05
3.55752e-05
3.6134e-05
3.66769e-05
3.72033e-05
3.77126e-05
3.82044e-05
3.86784e-05
3.91341e-05
3.95712e-05
3.99895e-05
4.03885e-05
4.07681e-05
4.11279e-05
4.14675e-05
4.17866e-05
4.20847e-05
4.23617e-05
4.26175e-05
4.28522e-05
4.30658e-05
4.3258e-05
4.34285e-05
4.35772e-05
4.37044e-05
4.37977e-05
4.38927e-05
4.39666e-05
4.70194e-06
4.69877e-06
4.73e-06
4.76811e-06
4.82341e-06
4.78396e-06
4.28921e-06
3.21858e-06
2.58925e-06
2.03125e-06
4.93532e-07
1.43954e-06
7.31608e-06
2.96548e-05
2.85611e-05
1.62479e-05
3.77384e-06
1.15462e-06
6.14563e-06
8.38263e-06
1.04104e-05
1.45405e-05
1.62402e-05
1.64647e-05
1.64233e-05
1.64668e-05
1.65928e-05
1.68942e-05
1.73731e-05
1.79418e-05
1.85287e-05
1.91118e-05
1.96628e-05
2.01897e-05
2.0736e-05
2.1327e-05
2.19685e-05
2.26621e-05
2.33892e-05
2.41374e-05
2.49011e-05
2.56808e-05
2.64818e-05
2.73055e-05
2.81498e-05
2.901e-05
2.98826e-05
3.07655e-05
3.16574e-05
3.25569e-05
3.34617e-05
3.43695e-05
3.52781e-05
3.61854e-05
3.70896e-05
3.79889e-05
3.88815e-05
3.97657e-05
4.06397e-05
4.15022e-05
4.23515e-05
4.31863e-05
4.40055e-05
4.48079e-05
4.55923e-05
4.63579e-05
4.71038e-05
4.78292e-05
4.85336e-05
4.92162e-05
4.98764e-05
5.05137e-05
5.11275e-05
5.17175e-05
5.22835e-05
5.28252e-05
5.33424e-05
5.38349e-05
5.43024e-05
5.47447e-05
5.51614e-05
5.55521e-05
5.59165e-05
5.62542e-05
5.65652e-05
5.68494e-05
5.71069e-05
5.73379e-05
5.7542e-05
5.77188e-05
5.78683e-05
5.79904e-05
5.80751e-05
5.81585e-05
5.82159e-05
6.37965e-06
6.35292e-06
6.37382e-06
6.4093e-06
6.4672e-06
6.41953e-06
5.81909e-06
4.46007e-06
3.49354e-06
3.03582e-06
9.23772e-07
2.65392e-06
1.40406e-05
4.64141e-05
3.91991e-05
2.6424e-05
7.1515e-06
2.31948e-06
8.92007e-06
1.10453e-05
1.41057e-05
1.88473e-05
2.07785e-05
2.10905e-05
2.11534e-05
2.1339e-05
2.16552e-05
2.21958e-05
2.29457e-05
2.3785e-05
2.4632e-05
2.54628e-05
2.62516e-05
2.70168e-05
2.78125e-05
2.86666e-05
2.95817e-05
3.05565e-05
3.15648e-05
3.25915e-05
3.36309e-05
3.46857e-05
3.57625e-05
3.68619e-05
3.79801e-05
3.91109e-05
4.02498e-05
4.13943e-05
4.25431e-05
4.3694e-05
4.48444e-05
4.59912e-05
4.71318e-05
4.8264e-05
4.93858e-05
5.04951e-05
5.15899e-05
5.26685e-05
5.37289e-05
5.47697e-05
5.57894e-05
5.67867e-05
5.77604e-05
5.87094e-05
5.96328e-05
6.05299e-05
6.13997e-05
6.22419e-05
6.30558e-05
6.3841e-05
6.45969e-05
6.53231e-05
6.60193e-05
6.66854e-05
6.73213e-05
6.7927e-05
6.85023e-05
6.90471e-05
6.95615e-05
7.0045e-05
7.04975e-05
7.09184e-05
7.13076e-05
7.16646e-05
7.19894e-05
7.22824e-05
7.25437e-05
7.27733e-05
7.2971e-05
7.31364e-05
7.32693e-05
7.33694e-05
7.34299e-05
7.34856e-05
7.35107e-05
8.3455e-06
8.28102e-06
8.2785e-06
8.29925e-06
8.3526e-06
8.2979e-06
7.62211e-06
5.98693e-06
4.59551e-06
4.20468e-06
1.73058e-06
4.8949e-06
2.51587e-05
6.71694e-05
5.08439e-05
4.03628e-05
1.31588e-05
4.74204e-06
1.20646e-05
1.41374e-05
1.83984e-05
2.36632e-05
2.57928e-05
2.62548e-05
2.65011e-05
2.69107e-05
2.74984e-05
2.83512e-05
2.94332e-05
3.05938e-05
3.17465e-05
3.28693e-05
3.39422e-05
3.49952e-05
3.60902e-05
3.72543e-05
3.84868e-05
3.97812e-05
4.1104e-05
4.24386e-05
4.37801e-05
4.51337e-05
4.65069e-05
4.7899e-05
4.93043e-05
5.0715e-05
5.21261e-05
5.35351e-05
5.49403e-05
5.63393e-05
5.77288e-05
5.91055e-05
6.04667e-05
6.181e-05
6.31335e-05
6.4435e-05
6.57125e-05
6.69644e-05
6.81889e-05
6.93846e-05
7.05503e-05
7.16848e-05
7.27871e-05
7.38564e-05
7.4892e-05
7.58934e-05
7.686e-05
7.77915e-05
7.86877e-05
7.95481e-05
8.03725e-05
8.11607e-05
8.19127e-05
8.26285e-05
8.33083e-05
8.39523e-05
8.45606e-05
8.51331e-05
8.56701e-05
8.61711e-05
8.6636e-05
8.70643e-05
8.74558e-05
8.78102e-05
8.81277e-05
8.84088e-05
8.86537e-05
8.88623e-05
8.90344e-05
8.91699e-05
8.92684e-05
8.93295e-05
8.93499e-05
8.93615e-05
8.93381e-05
1.04412e-05
1.04017e-05
1.03907e-05
1.04299e-05
1.03664e-05
9.65072e-06
7.7679e-06
5.90844e-06
5.50179e-06
3.05256e-06
8.84146e-06
4.19893e-05
9.07114e-05
6.28244e-05
5.82057e-05
2.34373e-05
8.46558e-06
1.5468e-05
1.76039e-05
2.31112e-05
2.89309e-05
3.12651e-05
3.19545e-05
3.2473e-05
3.31911e-05
3.41265e-05
3.53546e-05
3.68189e-05
3.83422e-05
3.98388e-05
4.12921e-05
4.26904e-05
4.40734e-05
4.55083e-05
4.70157e-05
4.85952e-05
5.02327e-05
5.18884e-05
5.35452e-05
5.52002e-05
5.68612e-05
5.85357e-05
6.02215e-05
6.1911e-05
6.35953e-05
6.52692e-05
6.69304e-05
6.8577e-05
7.02065e-05
7.18152e-05
7.34e-05
7.49581e-05
7.64874e-05
7.7986e-05
7.94521e-05
8.08838e-05
8.22797e-05
8.36384e-05
8.49587e-05
8.62397e-05
8.74806e-05
8.86808e-05
8.98397e-05
9.0957e-05
9.20323e-05
9.30656e-05
9.40569e-05
9.50059e-05
9.59127e-05
9.67771e-05
9.75994e-05
9.83796e-05
9.91183e-05
9.98158e-05
0.000100472
0.000101088
0.000101664
0.0001022
0.000102695
0.000103149
0.000103562
0.000103934
0.000104265
0.000104554
0.000104803
0.000105012
0.00010518
0.000105308
0.000105396
0.000105443
0.000105449
0.000105413
0.000105364
0.000105277
1.26264e-05
1.26449e-05
1.25685e-05
1.18408e-05
9.7523e-06
7.42439e-06
6.89733e-06
4.80148e-06
1.53837e-05
6.51374e-05
0.000113693
7.45296e-05
7.96268e-05
3.61757e-05
1.32577e-05
1.90004e-05
2.13376e-05
2.82276e-05
3.46193e-05
3.72095e-05
3.82098e-05
3.90878e-05
4.01904e-05
4.15365e-05
4.31884e-05
4.50714e-05
4.69885e-05
4.88582e-05
5.06724e-05
5.24278e-05
5.41717e-05
5.59728e-05
5.78406e-05
5.97803e-05
6.1768e-05
6.37593e-05
6.57379e-05
6.77034e-05
6.96655e-05
7.16316e-05
7.35977e-05
7.55548e-05
7.74934e-05
7.94084e-05
8.12979e-05
8.31601e-05
8.49925e-05
8.67916e-05
8.85543e-05
9.02782e-05
9.19617e-05
9.36032e-05
9.52012e-05
9.67543e-05
9.82613e-05
9.97213e-05
0.000101134
0.000102498
0.000103813
0.000105079
0.000106296
0.000107465
0.000108584
0.000109654
0.000110676
0.00011165
0.000112575
0.000113453
0.000114282
0.000115065
0.000115801
0.000116491
0.000117137
0.000117737
0.000118293
0.000118804
0.000119271
0.000119694
0.000120071
0.000120402
0.000120689
0.000120931
0.000121129
0.000121283
0.000121393
0.000121459
0.000121482
0.000121461
0.000121396
0.000121289
0.000121164
0.000120996
1.49858e-05
1.4962e-05
1.48662e-05
1.41349e-05
1.19028e-05
9.10824e-06
8.35452e-06
6.90511e-06
2.47202e-05
8.83478e-05
0.000132562
8.54882e-05
9.89588e-05
4.91833e-05
1.83905e-05
2.25623e-05
2.54317e-05
3.37652e-05
4.07289e-05
4.36591e-05
4.50505e-05
4.63632e-05
4.7911e-05
4.97128e-05
5.18202e-05
5.41445e-05
5.64748e-05
5.87363e-05
6.09312e-05
6.3063e-05
6.51834e-05
6.73579e-05
6.95899e-05
7.18871e-05
7.42168e-05
7.65324e-05
7.88194e-05
8.10797e-05
8.33245e-05
8.55606e-05
8.77826e-05
8.99805e-05
9.21446e-05
9.42706e-05
9.63569e-05
9.84023e-05
0.000100404
0.00010236
0.000104266
0.000106122
0.000107925
0.000109675
0.000111371
0.000113012
0.000114597
0.000116125
0.000117597
0.000119013
0.000120372
0.000121674
0.00012292
0.000124111
0.000125246
0.000126326
0.000127351
0.000128323
0.000129241
0.000130106
0.000130919
0.00013168
0.000132391
0.000133052
0.000133663
0.000134226
0.000134741
0.000135208
0.000135627
0.000135997
0.000136318
0.00013659
0.000136814
0.00013699
0.000137119
0.0001372
0.000137235
0.000137224
0.000137165
0.00013706
0.000136908
0.000136716
0.0001365
0.000136236
1.74577e-05
1.73854e-05
1.72705e-05
1.65161e-05
1.4192e-05
1.09468e-05
9.85306e-06
9.23042e-06
3.39068e-05
0.000109391
0.000147775
9.54195e-05
0.000115142
6.0149e-05
2.36386e-05
2.61315e-05
3.00157e-05
3.97398e-05
4.7288e-05
5.06492e-05
5.24988e-05
5.43027e-05
5.63367e-05
5.86206e-05
6.11992e-05
6.39733e-05
6.67244e-05
6.93846e-05
7.19668e-05
7.448e-05
7.69763e-05
7.95163e-05
8.21021e-05
8.47401e-05
8.73914e-05
9.00088e-05
9.25803e-05
9.51099e-05
9.76097e-05
0.000100086
0.000102531
0.000104936
0.000107292
0.000109593
0.000111841
0.000114034
0.000116169
0.000118246
0.00012026
0.000122212
0.000124101
0.000125926
0.000127686
0.000129382
0.000131013
0.000132579
0.000134081
0.000135518
0.000136892
0.000138202
0.00013945
0.000140635
0.00014176
0.000142825
0.00014383
0.000144775
0.000145663
0.000146493
0.000147266
0.000147984
0.000148648
0.000149258
0.000149815
0.000150321
0.000150775
0.000151178
0.000151529
0.000151828
0.000152075
0.00015227
0.000152413
0.000152506
0.000152548
0.000152541
0.000152484
0.000152378
0.000152222
0.000152018
0.000151766
0.000151472
0.000151149
0.000150776
2.01269e-05
2.00096e-05
1.98885e-05
1.90502e-05
1.66317e-05
1.29697e-05
1.14085e-05
1.15778e-05
4.10758e-05
0.000127236
0.000159901
0.000104094
0.000128496
6.8258e-05
2.85933e-05
2.97565e-05
3.5159e-05
4.61653e-05
5.43304e-05
5.81987e-05
6.05552e-05
6.28848e-05
6.54265e-05
6.82008e-05
7.1251e-05
7.44701e-05
7.76372e-05
8.06902e-05
8.3653e-05
8.65379e-05
8.93955e-05
9.22806e-05
9.51977e-05
9.8149e-05
0.000101092
0.00010398
0.000106805
0.000109571
0.000112291
0.000114971
0.000117603
0.000120177
0.000122686
0.000125126
0.000127498
0.0001298
0.000132033
0.000134194
0.000136281
0.000138295
0.000140235
0.000142102
0.000143896
0.000145616
0.000147262
0.000148836
0.000150339
0.00015177
0.000153131
0.000154423
0.000155647
0.000156804
0.000157894
0.000158919
0.00015988
0.000160778
0.000161613
0.000162387
0.0001631
0.000163754
0.000164351
0.00016489
0.000165375
0.000165804
0.000166178
0.000166499
0.000166764
0.000166974
0.000167129
0.000167229
0.000167274
0.000167267
0.000167206
0.000167094
0.000166929
0.000166713
0.000166445
0.000166127
0.000165761
0.000165351
0.000164907
0.000164409
2.19278e-05
1.93333e-05
1.52365e-05
1.30645e-05
1.37895e-05
4.5295e-05
0.000141369
0.000169311
0.000111421
0.000139294
7.32188e-05
3.30637e-05
3.35633e-05
4.07869e-05
5.30583e-05
6.18711e-05
6.62967e-05
6.91894e-05
7.20573e-05
7.51096e-05
7.83668e-05
8.18749e-05
8.55214e-05
8.90871e-05
9.25145e-05
9.58384e-05
9.90731e-05
0.000102266
0.000105466
0.000108682
0.000111911
0.000115108
0.000118231
0.000121271
0.000124235
0.000127136
0.000129979
0.000132757
0.00013546
0.000138082
0.000140621
0.000143077
0.000145452
0.000147745
0.000149954
0.000152079
0.000154121
0.00015608
0.000157957
0.000159752
0.000161466
0.000163099
0.000164653
0.000166129
0.000167528
0.000168851
0.0001701
0.000171276
0.000172379
0.000173413
0.000174376
0.000175272
0.0001761
0.000176861
0.000177558
0.000178191
0.000178762
0.000179273
0.000179724
0.000180116
0.000180451
0.000180728
0.000180947
0.000181109
0.000181213
0.000181258
0.000181247
0.000181178
0.000181054
0.000180875
0.000180642
0.000180355
0.000180014
0.00017962
0.000179174
0.000178679
0.000178141
0.000177561
0.000176925
2.57948e-05
2.25924e-05
1.79229e-05
1.49054e-05
1.58166e-05
4.66134e-05
0.000151076
0.000175243
0.000115882
0.000147571
7.51084e-05
3.70327e-05
3.76473e-05
4.69297e-05
6.04231e-05
6.98972e-05
7.49005e-05
7.8338e-05
8.17368e-05
8.52856e-05
8.90036e-05
9.29431e-05
9.69869e-05
0.000100923
0.000104694
0.000108348
0.0001119
0.000115393
0.000118869
0.000122344
0.000125808
0.000129217
0.000132529
0.000135741
0.00013886
0.000141898
0.00014486
0.000147739
0.000150528
0.00015322
0.000155817
0.000158318
0.000160726
0.000163041
0.000165262
0.00016739
0.000169427
0.000171372
0.000173227
0.000174993
0.000176671
0.000178262
0.000179768
0.000181191
0.000182532
0.000183792
0.000184973
0.000186077
0.000187105
0.000188059
0.00018894
0.000189749
0.000190486
0.000191155
0.000191755
0.000192289
0.000192759
0.000193165
0.000193508
0.000193791
0.000194013
0.000194175
0.000194277
0.000194319
0.000194299
0.00019422
0.000194081
0.000193883
0.000193627
0.000193315
0.000192947
0.000192523
0.000192043
0.00019151
0.000190924
0.000190289
0.000189608
0.000188882
0.000188096
3.23363e-05
2.76109e-05
2.16172e-05
1.71039e-05
1.77306e-05
4.67315e-05
0.00015444
0.000178093
0.00012067
0.000152567
7.54004e-05
4.05861e-05
4.20618e-05
5.36283e-05
6.8251e-05
7.83671e-05
8.39428e-05
8.79069e-05
9.18116e-05
9.58269e-05
9.997e-05
0.000104302
0.000108702
0.000112968
0.000117041
0.000120985
0.000124813
0.000128563
0.000132265
0.000135952
0.0001396
0.000143169
0.000146622
0.000149956
0.000153179
0.000156304
0.000159335
0.000162268
0.000165095
0.000167814
0.000170424
0.000172928
0.000175328
0.000177627
0.000179823
0.000181918
0.000183913
0.000185811
0.000187612
0.000189318
0.000190931
0.000192452
0.000193883
0.000195226
0.000196483
0.000197656
0.000198746
0.000199756
0.000200687
0.00020154
0.000202317
0.000203019
0.000203647
0.000204203
0.000204688
0.000205105
0.000205455
0.000205739
0.000205958
0.000206114
0.000206208
0.000206238
0.000206206
0.000206112
0.000205954
0.000205734
0.000205453
0.000205112
0.000204711
0.000204252
0.000203736
0.000203163
0.000202534
0.00020185
0.000201114
0.000200327
0.000199494
0.000198611
0.000197668
4.61864e-05
0.000151454
0.000178009
0.000125612
0.000153774
7.49085e-05
4.3888e-05
4.70037e-05
6.08999e-05
7.65093e-05
8.72108e-05
9.33277e-05
9.7779e-05
0.000102147
0.000106583
0.000111101
0.000115773
0.000120473
0.000125013
0.000129342
0.000133524
0.000137573
0.000141521
0.000145399
0.000149237
0.000153009
0.000156678
0.000160212
0.000163611
0.000166882
0.000170038
0.000173084
0.000176017
0.000178832
0.000181527
0.000184104
0.000186566
0.000188917
0.000191158
0.00019329
0.000195315
0.000197235
0.000199051
0.000200766
0.000202381
0.000203899
0.000205321
0.00020665
0.000207887
0.000209036
0.000210098
0.000211075
0.000211969
0.000212781
0.000213513
0.000214166
0.000214742
0.000215242
0.000215668
0.000216021
0.000216303
0.000216517
0.000216662
0.000216742
0.000216756
0.000216705
0.000216589
0.000216409
0.000216164
0.000215855
0.000215481
0.000215046
0.000214549
0.000213992
0.000213376
0.000212702
0.00021197
0.000211183
0.000210341
0.000209446
0.000208501
0.000207508
0.000206462
0.000205356
4.53323e-05
0.000143972
0.000174944
0.000130262
0.000150766
7.38675e-05
4.71591e-05
5.25898e-05
6.86995e-05
8.51245e-05
9.63367e-05
0.000102939
0.000107818
0.000112588
0.000117383
0.000122209
0.000127153
0.000132085
0.000136832
0.000141352
0.000145703
0.000149904
0.000153982
0.000157966
0.000161883
0.000165707
0.000169405
0.000172951
0.000176346
0.000179599
0.000182723
0.000185723
0.000188598
0.000191345
0.000193965
0.00019646
0.000198834
0.00020109
0.000203232
0.00020526
0.000207177
0.000208985
0.000210685
0.000212281
0.000213775
0.000215168
0.000216463
0.000217664
0.000218771
0.000219788
0.000220717
0.000221559
0.000222317
0.000222991