/*--------------------------------*- C++ -*----------------------------------*\
| =========                 |                                                 |
| \\      /  F ield         | OpenFOAM: The Open Source CFD Toolbox           |
|  \\    /   O peration     | Version:  2412                                  |
|   \\  /    A nd           | Website:  www.openfoam.com                      |
|    \\/     M anipulation  |                                                 |
\*---------------------------------------------------------------------------*/
FoamFile
{
    version     2.0;
    format      ascii;
    arch        "LSB;label=32;scalar=64";
    class       volScalarField;
    location    "500";
    object      nuTilda;
}
// * * * * * * * * * * * * * * * * * * * * * * * * * * * * * * * * * * * * * //

dimensions      [0 2 -1 0 0 0 0];

internalField   nonuniform List<scalar> 
7423
(
5.86943e-06
6.47276e-06
6.85992e-06
6.88495e-06
6.26633e-06
5.52698e-06
5.02119e-06
3.18829e-06
3.08317e-06
2.97722e-06
2.88752e-06
2.81882e-06
2.76792e-06
3.28321e-06
2.68395e-06
2.6445e-06
2.60737e-06
2.82037e-06
2.54062e-06
2.50904e-06
2.47655e-06
2.44449e-06
2.41252e-06
2.38027e-06
2.34759e-06
2.31462e-06
2.28156e-06
2.24854e-06
2.21565e-06
2.18301e-06
2.15069e-06
2.1187e-06
2.087e-06
2.05544e-06
2.0239e-06
1.99271e-06
1.96291e-06
1.93523e-06
1.90946e-06
1.88507e-06
1.86227e-06
1.83908e-06
1.81648e-06
1.79447e-06
1.77295e-06
1.75191e-06
1.73132e-06
1.71113e-06
1.69138e-06
1.67201e-06
1.65292e-06
1.63415e-06
1.61574e-06
1.59763e-06
1.5797e-06
1.56201e-06
1.5446e-06
1.52737e-06
1.51026e-06
1.49332e-06
1.47653e-06
1.45986e-06
1.44328e-06
1.42673e-06
1.41023e-06
1.39378e-06
1.37735e-06
1.3609e-06
1.34444e-06
1.32789e-06
1.31127e-06
1.29465e-06
1.27797e-06
1.26122e-06
1.24433e-06
1.22725e-06
1.81838e-05
2.0134e-05
2.14446e-05
2.17014e-05
2.02226e-05
1.82721e-05
1.67801e-05
8.99183e-06
8.61691e-06
8.28611e-06
8.03763e-06
7.88429e-06
7.80527e-06
1.09811e-05
7.7036e-06
7.64958e-06
7.60188e-06
9.28062e-06
7.52392e-06
7.48323e-06
7.43494e-06
7.38376e-06
7.32837e-06
7.26711e-06
7.19956e-06
7.12654e-06
7.04895e-06
6.96747e-06
6.88278e-06
6.79564e-06
6.7067e-06
6.61639e-06
6.52525e-06
6.43399e-06
6.34281e-06
6.2508e-06
6.15934e-06
6.07183e-06
5.98956e-06
5.91184e-06
5.83968e-06
5.76697e-06
5.69594e-06
5.62682e-06
5.55928e-06
5.49322e-06
5.42862e-06
5.36524e-06
5.30327e-06
5.24248e-06
5.18257e-06
5.1237e-06
5.06596e-06
5.00912e-06
4.95289e-06
4.89743e-06
4.84281e-06
4.78874e-06
4.73508e-06
4.68197e-06
4.62934e-06
4.57707e-06
4.5251e-06
4.47324e-06
4.42148e-06
4.36989e-06
4.31843e-06
4.2669e-06
4.21531e-06
4.16345e-06
4.11138e-06
4.05927e-06
4.00701e-06
3.95452e-06
3.90161e-06
3.84814e-06
2.96352e-05
3.3109e-05
3.56149e-05
3.63346e-05
3.44866e-05
3.17249e-05
2.94069e-05
1.68601e-05
1.60927e-05
1.54043e-05
1.48207e-05
1.43451e-05
1.39493e-05
1.98427e-05
1.33145e-05
1.30802e-05
1.29186e-05
1.68857e-05
1.2744e-05
1.26812e-05
1.26219e-05
1.25672e-05
1.25107e-05
1.24461e-05
1.23712e-05
1.2286e-05
1.21912e-05
1.20871e-05
1.19745e-05
1.18546e-05
1.17285e-05
1.15977e-05
1.14647e-05
1.13338e-05
1.12058e-05
1.10718e-05
1.0926e-05
1.07759e-05
1.06294e-05
1.04892e-05
1.03569e-05
1.02282e-05
1.01023e-05
9.97951e-06
9.85965e-06
9.7424e-06
9.62773e-06
9.51525e-06
9.40522e-06
9.29737e-06
9.19106e-06
9.08659e-06
8.98416e-06
8.88332e-06
8.78356e-06
8.68522e-06
8.58833e-06
8.49247e-06
8.39733e-06
8.30316e-06
8.20989e-06
8.11723e-06
8.02508e-06
7.9332e-06
7.84148e-06
7.75009e-06
7.65891e-06
7.56766e-06
7.47628e-06
7.38444e-06
7.29223e-06
7.19993e-06
7.10737e-06
7.01443e-06
6.9208e-06
6.82619e-06
3.92945e-05
4.44081e-05
4.87132e-05
5.02242e-05
4.8554e-05
4.54115e-05
4.24445e-05
2.7003e-05
2.56262e-05
2.44147e-05
2.33831e-05
2.25259e-05
2.17879e-05
2.96922e-05
2.05459e-05
2.00196e-05
1.95661e-05
2.55761e-05
1.88467e-05
1.85711e-05
1.83649e-05
1.82151e-05
1.80997e-05
1.7999e-05
1.7902e-05
1.78036e-05
1.76996e-05
1.75876e-05
1.74659e-05
1.73349e-05
1.71954e-05
1.70498e-05
1.69044e-05
1.67707e-05
1.66506e-05
1.65148e-05
1.6337e-05
1.61289e-05
1.59122e-05
1.56992e-05
1.54911e-05
1.52994e-05
1.51113e-05
1.49275e-05
1.4748e-05
1.45725e-05
1.44009e-05
1.42325e-05
1.40678e-05
1.39064e-05
1.37474e-05
1.3591e-05
1.34378e-05
1.32869e-05
1.31377e-05
1.29906e-05
1.28458e-05
1.27024e-05
1.25603e-05
1.24195e-05
1.22801e-05
1.21416e-05
1.20039e-05
1.18666e-05
1.17297e-05
1.15932e-05
1.1457e-05
1.13208e-05
1.11844e-05
1.10474e-05
1.09097e-05
1.0772e-05
1.06339e-05
1.04952e-05
1.03556e-05
1.02145e-05
4.74244e-05
5.40078e-05
6.02439e-05
6.30719e-05
6.22784e-05
5.92428e-05
5.57911e-05
3.98019e-05
3.75803e-05
3.5675e-05
3.40764e-05
3.27202e-05
3.15314e-05
4.03866e-05
2.95262e-05
2.86582e-05
2.78892e-05
3.52404e-05
2.65751e-05
2.59991e-05
2.5504e-05
2.50807e-05
2.4726e-05
2.44345e-05
2.41969e-05
2.39999e-05
2.38286e-05
2.36711e-05
2.35192e-05
2.33682e-05
2.32161e-05
2.30653e-05
2.29267e-05
2.28221e-05
2.27539e-05
2.26594e-05
2.24764e-05
2.22184e-05
2.19275e-05
2.16317e-05
2.13293e-05
2.10665e-05
2.08082e-05
2.0555e-05
2.03076e-05
2.00658e-05
1.98292e-05
1.95972e-05
1.93703e-05
1.91479e-05
1.8929e-05
1.87137e-05
1.85025e-05
1.82949e-05
1.80896e-05
1.78871e-05
1.76877e-05
1.74905e-05
1.7295e-05
1.71013e-05
1.69096e-05
1.67192e-05
1.65299e-05
1.63412e-05
1.6153e-05
1.59655e-05
1.57784e-05
1.55914e-05
1.5404e-05
1.52159e-05
1.50271e-05
1.4838e-05
1.46484e-05
1.44581e-05
1.42666e-05
1.40732e-05
5.44891e-05
6.25475e-05
7.08858e-05
7.57027e-05
7.61086e-05
7.33706e-05
6.96015e-05
5.63642e-05
5.28237e-05
4.9885e-05
4.7489e-05
4.54641e-05
4.3687e-05
5.18738e-05
4.06995e-05
3.93813e-05
3.82122e-05
4.57714e-05
3.61935e-05
3.52789e-05
3.44706e-05
3.37454e-05
3.31003e-05
3.25323e-05
3.20379e-05
3.16108e-05
3.12429e-05
3.09241e-05
3.06447e-05
3.03956e-05
3.01705e-05
2.99693e-05
2.98064e-05
2.97126e-05
2.96898e-05
2.96387e-05
2.9454e-05
2.91459e-05
2.87754e-05
2.83875e-05
2.79749e-05
2.76307e-05
2.72925e-05
2.69601e-05
2.66351e-05
2.63173e-05
2.60066e-05
2.57021e-05
2.54041e-05
2.51122e-05
2.4825e-05
2.45425e-05
2.42655e-05
2.39932e-05
2.37241e-05
2.34586e-05
2.31972e-05
2.29389e-05
2.26828e-05
2.24291e-05
2.2178e-05
2.19288e-05
2.1681e-05
2.14342e-05
2.11879e-05
2.09426e-05
2.0698e-05
2.04534e-05
2.02086e-05
1.99629e-05
1.97161e-05
1.94691e-05
1.92215e-05
1.89731e-05
1.87231e-05
1.84707e-05
6.03626e-05
7.00718e-05
8.10081e-05
8.83759e-05
9.04568e-05
8.86215e-05
8.49285e-05
7.56206e-05
7.16635e-05
6.79877e-05
6.47089e-05
6.18209e-05
5.92421e-05
6.4248e-05
5.48746e-05
5.29368e-05
5.12206e-05
5.71545e-05
4.82668e-05
4.69192e-05
4.5723e-05
4.46361e-05
4.36512e-05
4.27627e-05
4.19651e-05
4.12517e-05
4.06153e-05
4.00476e-05
3.95404e-05
3.90866e-05
3.86808e-05
3.83241e-05
3.80337e-05
3.78452e-05
3.77618e-05
3.76679e-05
3.74303e-05
3.70464e-05
3.65822e-05
3.60915e-05
3.55606e-05
3.51206e-05
3.46891e-05
3.42651e-05
3.38502e-05
3.34448e-05
3.30486e-05
3.26603e-05
3.22805e-05
3.19087e-05
3.1543e-05
3.11835e-05
3.08309e-05
3.04845e-05
3.01424e-05
2.98049e-05
2.94726e-05
2.91445e-05
2.88193e-05
2.84973e-05
2.81786e-05
2.78624e-05
2.75482e-05
2.72353e-05
2.69233e-05
2.66125e-05
2.63026e-05
2.5993e-05
2.56832e-05
2.53723e-05
2.50603e-05
2.47478e-05
2.44348e-05
2.41207e-05
2.38049e-05
2.34863e-05
6.47404e-05
7.62106e-05
9.02473e-05
0.000100721
0.000105104
0.000104847
0.000101822
9.52582e-05
9.12954e-05
8.73296e-05
8.35773e-05
8.01608e-05
7.70525e-05
7.83687e-05
7.16599e-05
6.92471e-05
6.70551e-05
6.97731e-05
6.31663e-05
6.13671e-05
5.97288e-05
5.82151e-05
5.68215e-05
5.55429e-05
5.43738e-05
5.33065e-05
5.23331e-05
5.14446e-05
5.06325e-05
4.98896e-05
4.92103e-05
4.85954e-05
4.80595e-05
4.76337e-05
4.73241e-05
4.70342e-05
4.66399e-05
4.61235e-05
4.55362e-05
4.49253e-05
4.42731e-05
4.37163e-05
4.31722e-05
4.26386e-05
4.21171e-05
4.16078e-05
4.11103e-05
4.06234e-05
4.01473e-05
3.96815e-05
3.9224e-05
3.87743e-05
3.83335e-05
3.79007e-05
3.74738e-05
3.70527e-05
3.66383e-05
3.62295e-05
3.58245e-05
3.54237e-05
3.50271e-05
3.4634e-05
3.42435e-05
3.3855e-05
3.34677e-05
3.3082e-05
3.26977e-05
3.23139e-05
3.19301e-05
3.15453e-05
3.1159e-05
3.07724e-05
3.03852e-05
2.99969e-05
2.96066e-05
2.92133e-05
6.73078e-05
8.05299e-05
9.81488e-05
0.000112289
0.00011962
0.000121604
0.000119858
0.000115254
0.000111554
0.000107541
0.000103515
9.97188e-05
9.61975e-05
9.50114e-05
8.99584e-05
8.7158e-05
8.45746e-05
8.4638e-05
7.99076e-05
7.77414e-05
7.57275e-05
7.38406e-05
7.20784e-05
7.0437e-05
6.89121e-05
6.7496e-05
6.61813e-05
6.49593e-05
6.38219e-05
6.27617e-05
6.1773e-05
6.08541e-05
6.00133e-05
5.92708e-05
5.86318e-05
5.80333e-05
5.73878e-05
5.66744e-05
5.59224e-05
5.51627e-05
5.43787e-05
5.36762e-05
5.2992e-05
5.23235e-05
5.16712e-05
5.10349e-05
5.04142e-05
4.98073e-05
4.92143e-05
4.86349e-05
4.80665e-05
4.75083e-05
4.69614e-05
4.64253e-05
4.5897e-05
4.53764e-05
4.48643e-05
4.43597e-05
4.38605e-05
4.33666e-05
4.28784e-05
4.23949e-05
4.19151e-05
4.14381e-05
4.0963e-05
4.04902e-05
4.00194e-05
3.95497e-05
3.90805e-05
3.86104e-05
3.81388e-05
3.76669e-05
3.71946e-05
3.67214e-05
3.6246e-05
3.57675e-05
8.25724e-05
0.000104254
0.000122634
0.000133575
0.000138482
0.000138645
0.000135791
0.000132671
0.000128867
0.000124752
0.000120697
0.000116838
0.00011418
0.00010984
0.000106679
0.000103733
0.00010213
9.83483e-05
9.58434e-05
9.34808e-05
9.12446e-05
8.9135e-05
8.71494e-05
8.52849e-05
8.35348e-05
8.18923e-05
8.03488e-05
7.88963e-05
7.7527e-05
7.62345e-05
7.50148e-05
7.38698e-05
7.28088e-05
7.18329e-05
7.09051e-05
6.99741e-05
6.90251e-05
6.80721e-05
6.71307e-05
6.61889e-05
6.53101e-05
6.44555e-05
6.36227e-05
6.28112e-05
6.20202e-05
6.1249e-05
6.04957e-05
5.97599e-05
5.90418e-05
5.83381e-05
5.76475e-05
5.69713e-05
5.63093e-05
5.56578e-05
5.50161e-05
5.43855e-05
5.37648e-05
5.31517e-05
5.25455e-05
5.19468e-05
5.13547e-05
5.07677e-05
5.01849e-05
4.96051e-05
4.90283e-05
4.84548e-05
4.78832e-05
4.73129e-05
4.67423e-05
4.61703e-05
4.55982e-05
4.50262e-05
4.44538e-05
4.38793e-05
4.3302e-05
0.00010809
0.000131284
0.000146527
0.000155085
0.000157827
0.000156904
0.000154769
0.000151506
0.000147557
0.000143414
0.000139328
0.000135837
0.000131684
0.000128183
0.000124891
0.000122291
0.000118808
0.000115963
0.000113249
0.000110659
0.000108194
0.000105856
0.000103643
0.000101551
9.95742e-05
9.7704e-05
9.59329e-05
9.42529e-05
9.26569e-05
9.11389e-05
8.96968e-05
8.83321e-05
8.70419e-05
8.58044e-05
8.45915e-05
8.33945e-05
8.22188e-05
8.10704e-05
7.99414e-05
7.88633e-05
7.78152e-05
7.67946e-05
7.58003e-05
7.48309e-05
7.38857e-05
7.29624e-05
7.20604e-05
7.118e-05
7.0318e-05
6.94718e-05
6.86431e-05
6.78323e-05
6.7035e-05
6.62498e-05
6.54781e-05
6.47194e-05
6.39705e-05
6.32303e-05
6.24996e-05
6.17775e-05
6.10624e-05
6.0353e-05
5.96479e-05
5.89469e-05
5.82503e-05
5.7557e-05
5.6866e-05
5.61754e-05
5.54837e-05
5.47923e-05
5.41018e-05
5.34114e-05
5.27194e-05
5.20252e-05
0.00013772
0.000157988
0.000170986
0.000177033
0.00017846
0.000177794
0.000175487
0.00017204
0.000168061
0.000163927
0.000160015
0.000155851
0.000152066
0.000148466
0.000145247
0.000141727
0.000138544
0.000135474
0.000132516
0.000129678
0.000126963
0.000124376
0.000121914
0.000119574
0.000117351
0.000115236
0.000113222
0.000111301
0.000109467
0.000107716
0.000106043
0.000104444
0.000102904
0.000101407
9.99481e-05
9.85282e-05
9.7148e-05
9.58021e-05
9.45033e-05
9.32405e-05
9.20114e-05
9.0814e-05
8.96465e-05
8.85079e-05
8.73955e-05
8.63085e-05
8.52474e-05
8.4209e-05
8.31892e-05
8.21898e-05
8.12123e-05
8.02517e-05
7.93052e-05
7.83747e-05
7.74602e-05
7.65578e-05
7.56659e-05
7.47853e-05
7.39153e-05
7.3054e-05
7.22e-05
7.13513e-05
7.05077e-05
6.96695e-05
6.88357e-05
6.80051e-05
6.71757e-05
6.63452e-05
6.5515e-05
6.46862e-05
6.38581e-05
6.30286e-05
6.2198e-05
0.000141361
0.000167401
0.000185697
0.000195842
0.000200197
0.000201552
0.000200682
0.000198151
0.00019467
0.000190748
0.000186746
0.000182588
0.000178627
0.000174803
0.000171193
0.000167515
0.000164018
0.000160605
0.00015728
0.000154055
0.000150943
0.000147952
0.000145087
0.000142349
0.000139733
0.000137236
0.00013485
0.000132568
0.000130384
0.000128291
0.000126283
0.000124355
0.000122495
0.000120693
0.000118945
0.000117249
0.000115604
0.000114005
0.000112456
0.00011095
0.000109485
0.000108058
0.000106667
0.00010531
0.000103985
0.000102691
0.000101427
0.000100191
9.89779e-05
9.77884e-05
9.66257e-05
9.54838e-05
9.43587e-05
9.32524e-05
9.21658e-05
9.10942e-05
9.00351e-05
8.89894e-05
8.79567e-05
8.69348e-05
8.5922e-05
8.49159e-05
8.39156e-05
8.29218e-05
8.19337e-05
8.09498e-05
7.99679e-05
7.89847e-05
7.80014e-05
7.70196e-05
7.60391e-05
7.5057e-05
7.40753e-05
0.000141563
0.000174128
0.000198647
0.000213757
0.00022174
0.000225739
0.000226847
0.000225709
0.000223134
0.000219762
0.000216005
0.000212013
0.00020805
0.000204142
0.000200327
0.000196502
0.000192756
0.000189044
0.000185376
0.000181773
0.000178256
0.000174845
0.000171549
0.000168378
0.000165333
0.000162412
0.000159611
0.000156923
0.000154344
0.000151867
0.000149485
0.000147191
0.000144976
0.000142832
0.000140755
0.000138742
0.000136791
0.000134897
0.000133059
0.000131273
0.000129535
0.000127843
0.000126194
0.000124587
0.000123018
0.000121485
0.000119989
0.000118528
0.000117094
0.000115687
0.000114314
0.000112966
0.000111639
0.000110334
0.000109053
0.000107792
0.000106545
0.000105315
0.000104101
0.0001029
0.000101712
0.000100532
9.93586e-05
9.81939e-05
9.70367e-05
9.58856e-05
9.47379e-05
9.35889e-05
9.24397e-05
9.12927e-05
9.01477e-05
8.90013e-05
0.000137632
0.000177456
0.000209167
0.000230175
0.000242601
0.000249948
0.000253639
0.000254431
0.000253234
0.00025082
0.000247684
0.000244125
0.000240404
0.000236615
0.000232797
0.000228934
0.000225052
0.000221129
0.000217181
0.000213241
0.00020934
0.00020551
0.000201774
0.000198148
0.000194642
0.00019126
0.000188002
0.000184865
0.000181844
0.000178935
0.000176132
0.000173427
0.000170812
0.000168279
0.000165826
0.00016345
0.000161145
0.000158908
0.000156736
0.000154625
0.000152572
0.000150574
0.000148626
0.000146728
0.000144876
0.000143067
0.000141303
0.000139581
0.00013789
0.000136233
0.000134616
0.000133032
0.000131471
0.000129938
0.000128434
0.000126955
0.000125494
0.000124052
0.000122631
0.000121228
0.00011984
0.000118463
0.000117095
0.000115737
0.00011439
0.000113052
0.00011172
0.000110387
0.000109054
0.000107724
0.000106398
0.000105072
0.000128791
0.000176655
0.00021649
0.000244374
0.000262167
0.000273664
0.000280616
0.000283934
0.000284647
0.000283662
0.000281577
0.000278802
0.00027564
0.000272242
0.000268673
0.000264961
0.000261115
0.000257125
0.000253011
0.000248819
0.000244593
0.000240381
0.000236219
0.000232137
0.000228157
0.000224289
0.000220541
0.000216915
0.00021341
0.000210024
0.000206751
0.000203585
0.00020052
0.000197549
0.000194669
0.000191876
0.000189167
0.000186536
0.000183981
0.000181496
0.000179079
0.000176726
0.000174433
0.000172199
0.000170019
0.00016789
0.000165815
0.00016379
0.000161803
0.000159856
0.000157957
0.000156098
0.000154268
0.00015247
0.000150708
0.000148977
0.000147268
0.000145583
0.000143924
0.000142286
0.000140669
0.000139066
0.000137474
0.000135897
0.000134332
0.000132781
0.000131238
0.000129696
0.000128155
0.000126619
0.000125089
0.00012356
0.00011521
0.000171099
0.000219761
0.00025549
0.000279679
0.000296236
0.000307221
0.000313738
0.000316956
0.000317931
0.000317379
0.000315811
0.000313589
0.000310925
0.000307915
0.000304621
0.000301052
0.000297203
0.000293101
0.0002888
0.000284361
0.000279848
0.000275316
0.000270811
0.000266369
0.000262013
0.00025776
0.00025362
0.000249597
0.000245693
0.000241907
0.000238234
0.00023467
0.000231209
0.00022785
0.000224588
0.000221419
0.000218341
0.000215348
0.000212436
0.000209602
0.000206843
0.000204153
0.000201533
0.000198976
0.000196478
0.000194043
0.00019167
0.000189341
0.000187058
0.000184833
0.000182656
0.000180514
0.00017841
0.000176351
0.000174329
0.000172334
0.000170367
0.000168433
0.000166525
0.000164643
0.00016278
0.000160931
0.0001591
0.000157286
0.000155489
0.000153705
0.000151924
0.000150144
0.000148373
0.00014661
0.00014485
9.76713e-05
0.000160437
0.000218069
0.000262512
0.000294213
0.000316861
0.000332759
0.000343236
0.000349632
0.000353164
0.000354685
0.000354809
0.00035397
0.000352444
0.000350366
0.000347827
0.000344845
0.000341419
0.000337578
0.000333384
0.00032891
0.000324239
0.000319447
0.000314599
0.000309748
0.000304936
0.000300191
0.000295534
0.000290979
0.000286533
0.000282201
0.000277982
0.000273875
0.000269878
0.000265989
0.000262205
0.000258524
0.000254943
0.000251457
0.000248062
0.000244756
0.000241535
0.000238394
0.000235333
0.000232345
0.000229425
0.000226578
0.000223804
0.000221083
0.000218414
0.000215814
0.000213272
0.000210772
0.000208316
0.000205913
0.000203555
0.000201231
0.000198941
0.000196689
0.000194471
0.000192283
0.000190121
0.000187976
0.000185853
0.000183753
0.000181674
0.000179614
0.000177558
0.000175506
0.000173464
0.000171435
0.00016941
7.90346e-05
0.000144691
0.000210484
0.000264292
0.000304664
0.000334548
0.000356359
0.000371671
0.000382012
0.000388779
0.00039298
0.000395342
0.000396387
0.00039646
0.000395745
0.000394362
0.000392345
0.000389696
0.00038644
0.000382644
0.000378392
0.000373781
0.000368908
0.000363861
0.000358714
0.000353526
0.000348345
0.000343206
0.000338134
0.000333147
0.000328257
0.000323471
0.000318791
0.00031422
0.000309758
0.000305407
0.000301164
0.000297028
0.000292994
0.000289061
0.000285227
0.000281487
0.000277837
0.000274277
0.000270801
0.000267402
0.000264087
0.000260857
0.000257688
0.000254579
0.00025155
0.000248591
0.000245681
0.000242821
0.000240025
0.000237283
0.000234581
0.000231919
0.000229303
0.000226729
0.000224192
0.000221686
0.000219203
0.000216746
0.000214316
0.000211916
0.000209539
0.000207169
0.000204805
0.000202454
0.00020012
0.000197794
6.18816e-05
0.000124459
0.000196207
0.000259609
0.000309751
0.000348099
0.000376949
0.000398095
0.000413264
0.000424045
0.000431615
0.000436833
0.000440323
0.000442513
0.000443646
0.000443877
0.000443263
0.000441808
0.000439535
0.000436507
0.000432814
0.000428566
0.000423875
0.000418851
0.00041359
0.000408176
0.000402675
0.00039714
0.000391614
0.000386126
0.0003807
0.000375353
0.000370094
0.000364931
0.000359872
0.000354919
0.000350074
0.000345338
0.000340709
0.000336187
0.00033177
0.000327456
0.000323241
0.000319124
0.000315102
0.000311166
0.000307324
0.000303579
0.000299904
0.000296297
0.000292781
0.000289347
0.000285971
0.000282653
0.000279408
0.000276228
0.000273095
0.00027001
0.000266979
0.000263997
0.000261062
0.000258165
0.000255294
0.000252456
0.000249651
0.000246883
0.000244145
0.000241418
0.000238698
0.000235996
0.000233315
0.000230645
5.1439e-05
0.000101739
0.000175078
0.000247343
0.000308049
0.000356088
0.000393214
0.000421329
0.000442346
0.000458039
0.000469773
0.000478554
0.000485126
0.000490014
0.000493534
0.000495892
0.000497171
0.000497385
0.000496554
0.000494736
0.000492019
0.000488518
0.00048436
0.00047967
0.000474568
0.000469157
0.000463529
0.000457756
0.0004519
0.000446009
0.00044012
0.000434261
0.000428454
0.000422716
0.00041706
0.000411495
0.000406029
0.000400665
0.000395406
0.000390254
0.00038521
0.000380273
0.00037544
0.000370713
0.000366088
0.000361557
0.000357129
0.00035281
0.00034857
0.000344405
0.000340342
0.000336374
0.000332472
0.000328636
0.000324884
0.000321208
0.000317588
0.000314023
0.000310521
0.000307077
0.000303689
0.000300347
0.000297038
0.000293766
0.000290536
0.000287349
0.000284201
0.000281069
0.000277947
0.000274846
0.000271772
0.000268711
4.50355e-05
7.96933e-05
0.000148389
0.000226867
0.000298095
0.000356869
0.000403569
0.000439925
0.000467955
0.000489605
0.000506425
0.000519585
0.000529969
0.000538215
0.000544731
0.000549782
0.000553497
0.000555908
0.000557034
0.000556928
0.000555672
0.000553383
0.000550191
0.000546236
0.000541655
0.000536573
0.0005311
0.000525334
0.000519356
0.000513233
0.00050702
0.000500762
0.000494494
0.000488245
0.000482036
0.000475887
0.000469813
0.000463822
0.000457923
0.000452121
0.000446421
0.000440828
0.000435337
0.000429955
0.000424679
0.000419502
0.000414433
0.000409485
0.000404622
0.00039984
0.00039517
0.000390607
0.00038612
0.000381705
0.000377385
0.000373153
0.000368985
0.00036488
0.000360848
0.000356884
0.000352984
0.000349141
0.000345336
0.000341576
0.000337865
0.000334205
0.000330595
0.000327006
0.000323429
0.000319878
0.00031636
0.000312859
4.17721e-05
6.1745e-05
0.00011931
0.000198558
0.000278628
0.000348639
0.000406152
0.000452124
0.000488487
0.000517295
0.000540273
0.000558765
0.000573807
0.000586171
0.000596373
0.00060476
0.000611515
0.000616704
0.000620353
0.000622514
0.000623263
0.000622713
0.000620997
0.000618261
0.000614654
0.000610317
0.00060538
0.000599961
0.000594162
0.000588071
0.000581762
0.000575298
0.000568729
0.0005621
0.000555446
0.000548797
0.000542176
0.000535603
0.000529091
0.000522654
0.000516302
0.000510043
0.000503878
0.000497816
0.000491858
0.000485997
0.000480246
0.00047462
0.000469086
0.000463634
0.000458302
0.000453088
0.000447957
0.000442905
0.000437957
0.000433108
0.000428332
0.000423626
0.000419003
0.000414457
0.000409986
0.000405581
0.000401223
0.000396915
0.000392664
0.000388474
0.000384343
0.000380242
0.000376156
0.000372101
0.000368085
0.000364089
4.16128e-05
5.19949e-05
9.23133e-05
0.000164081
0.000248995
0.000329622
0.000398862
0.00045584
0.000501988
0.000539321
0.000569696
0.000594627
0.000615316
0.000632682
0.00064737
0.000659824
0.000670303
0.000678916
0.000685715
0.000690751
0.000694104
0.000695879
0.00069621
0.000695246
0.000693143
0.000690055
0.000686126
0.000681492
0.000676274
0.000670578
0.000664498
0.000658116
0.000651501
0.000644712
0.000637799
0.000630808
0.000623772
0.000616724
0.000609687
0.000602681
0.000595725
0.000588835
0.000582016
0.000575281
0.000568638
0.000562082
0.000555628
0.000549298
0.000543059
0.000536901
0.000530864
0.000524951
0.000519128
0.000513387
0.000507756
0.000502233
0.000496792
0.000491428
0.000486154
0.000480966
0.000475864
0.000470837
0.000465865
0.00046095
0.000456099
0.00045132
0.00044661
0.000441937
0.000437286
0.000432669
0.000428097
0.000423551
4.22351e-05
4.72985e-05
7.04214e-05
0.000126722
0.000209858
0.000298471
0.00037951
0.000448683
0.000506124
0.0005535
0.000592687
0.000625341
0.000652829
0.000676231
0.000696337
0.000713706
0.00072869
0.000741463
0.00075211
0.000760698
0.000767311
0.000772054
0.000775061
0.000776483
0.000776482
0.000775219
0.000772852
0.000769529
0.000765386
0.000760548
0.000755125
0.000749217
0.00074291
0.000736281
0.000729396
0.000722313
0.000715084
0.000707752
0.000700352
0.000692916
0.000685472
0.000678044
0.000670647
0.000663299
0.000656014
0.000648793
0.000641652
0.000634624
0.000627678
0.000620802
0.00061404
0.000607402
0.000600855
0.000594389
0.000588034
0.000581794
0.000575641
0.000569568
0.000563591
0.000557708
0.000551918
0.000546214
0.000540571
0.000534991
0.000529483
0.000524054
0.000518706
0.000513405
0.00050813
0.000502894
0.000497709
0.000492557
4.25562e-05
4.46545e-05
5.64323e-05
9.27319e-05
0.000164274
0.000255073
0.000346233
0.000428104
0.000498203
0.000557219
0.000606795
0.00064864
0.000684263
0.000714907
0.00074152
0.000764795
0.000785192
0.000802968
0.00081826
0.000831161
0.000841766
0.000850188
0.000856562
0.000861045
0.000863803
0.000865007
0.000864823
0.000863412
0.000860923
0.000857493
0.00085325
0.000848307
0.000842767
0.000836723
0.000830256
0.000823441
0.000816342
0.000809017
0.000801514
0.000793878
0.000786149
0.00077836
0.000770536
0.000762704
0.000754886
0.00074709
0.000739335
0.000731666
0.000724055
0.000716493
0.000709024
0.00070167
0.000694399
0.0006872
0.000680105
0.000673125
0.000666233
0.00065942
0.000652704
0.000646085
0.000639565
0.000633137
0.000626777
0.000620483
0.000614265
0.000608134
0.000602095
0.000596111
0.000590159
0.000584249
0.000578395
0.000572584
4.31561e-05
4.34792e-05
4.85458e-05
6.79647e-05
0.000119133
0.00020224
0.000298429
0.000391815
0.000475316
0.00054745
0.000609081
0.000661753
0.00070704
0.000746325
0.000780716
0.000811053
0.000837924
0.000861685
0.000882541
0.000900624
0.000916053
0.00092895
0.000939463
0.000947753
0.000953996
0.000958372
0.000961058
0.000962225
0.000962037
0.000960643
0.000958183
0.000954785
0.000950566
0.000945631
0.000940077
0.000933992
0.000927455
0.000920537
0.0009133
0.0009058
0.000898092
0.000890218
0.000882216
0.00087412
0.000865965
0.000857767
0.00084955
0.000841366
0.000833202
0.000825047
0.000816949
0.000808938
0.000800992
0.000793097
0.000785288
0.000777583
0.000769958
0.000762404
0.000754941
0.000747571
0.0007403
0.000733123
0.000726016
0.000718976
0.000712013
0.000705141
0.000698367
0.000691658
0.000684984
0.000678355
0.000671785
4.41989e-05
4.4032e-05
4.59123e-05
5.43537e-05
8.35729e-05
0.000147362
0.000238542
0.000338795
0.000434784
0.000520903
0.000596136
0.000661362
0.000718014
0.000767539
0.000811181
0.00084993
0.000884512
0.000915401
0.000942887
0.000967158
0.000988365
0.00100665
0.00102218
0.00103511
0.00104565
0.00105398
0.0010603
0.00106478
0.00106761
0.00106894
0.00106894
0.00106774
0.00106548
0.00106226
0.00105821
0.00105341
0.00104797
0.00104196
0.00103547
0.00102855
0.00102128
0.00101371
0.00100589
0.000997859
0.000989668
0.000981342
0.000972909
0.000964434
0.000955914
0.000947345
0.000938773
0.000930242
0.000921738
0.00091325
0.000904814
0.000896455
0.000888157
0.000879909
0.000871736
0.000863642
0.000855637
0.000847721
0.000839871
0.000832081
0.000824365
0.000816737
0.000809209
0.000801751
0.00079433
0.000786954
0.000779636
4.42119e-05
4.41964e-05
4.49959e-05
4.83664e-05
6.17083e-05
0.000100909
0.000174105
0.00027124
0.000375249
0.000474522
0.000564261
0.000643627
0.000713428
0.000774965
0.000829536
0.000878255
0.000921987
0.000961335
0.000996693
0.00102832
0.00105641
0.00108113
0.00110268
0.00112122
0.00113697
0.00115014
0.00116094
0.00116956
0.00117619
0.00118103
0.00118423
0.00118596
0.00118635
0.00118554
0.00118364
0.00118078
0.00117706
0.00117256
0.00116738
0.0011616
0.00115529
0.00114852
0.00114135
0.00113383
0.00112601
0.00111795
0.00110966
0.00110122
0.00109265
0.00108395
0.00107516
0.00106634
0.00105749
0.0010486
0.00103971
0.00103085
0.00102201
0.00101318
0.0010044
0.000995673
0.000987008
0.000978417
0.000969876
0.000961382
0.000952946
0.000944587
0.000936322
0.000928127
0.000919966
0.000911844
0.000903775
4.39794e-05
4.43918e-05
4.579e-05
5.1338e-05
7.04028e-05
0.000117243
0.000197054
0.000298858
0.000406715
0.000510041
0.000604408
0.000688953
0.000764334
0.00083168
0.000892136
0.000946673
0.000996025
0.0010407
0.00108103
0.00111729
0.00114967
0.00117839
0.00120365
0.00122568
0.00124471
0.00126095
0.00127463
0.00128598
0.00129517
0.00130241
0.00130786
0.00131169
0.00131404
0.00131504
0.00131483
0.00131352
0.00131122
0.00130801
0.001304
0.00129927
0.00129389
0.00128794
0.00128148
0.00127456
0.00126725
0.00125958
0.00125164
0.00124344
0.001235
0.00122636
0.0012176
0.00120872
0.00119972
0.00119064
0.00118153
0.00117238
0.00116319
0.00115399
0.0011448
0.00113563
0.0011265
0.00111739
0.00110831
0.00109925
0.00109025
0.00108132
0.00107245
0.0010636
0.00105478
0.001046
4.41877e-05
4.40913e-05
4.46707e-05
4.68712e-05
5.48035e-05
7.82438e-05
0.000130139
0.000214335
0.000319909
0.000431811
0.000539981
0.000639995
0.000730782
0.000812766
0.000886875
0.000954079
0.0010152
0.00107084
0.00112146
0.00116736
0.00120882
0.00124606
0.00127933
0.00130886
0.00133491
0.00135773
0.00137755
0.00139462
0.00140916
0.00142137
0.00143146
0.0014396
0.00144595
0.00145067
0.00145391
0.00145578
0.00145641
0.00145592
0.00145439
0.00145193
0.00144862
0.00144455
0.00143978
0.00143439
0.00142844
0.00142196
0.00141505
0.00140776
0.00140009
0.0013921
0.00138385
0.00137538
0.00136669
0.00135781
0.00134881
0.00133968
0.00133045
0.00132113
0.00131175
0.00130233
0.0012929
0.00128344
0.00127396
0.00126447
0.00125499
0.00124555
0.00123614
0.00122674
0.00121734
0.00120795
4.44879e-05
4.42456e-05
4.44068e-05
4.52632e-05
4.82188e-05
5.78292e-05
8.36734e-05
0.000137991
0.000224405
0.000332805
0.000448888
0.000562632
0.000669274
0.000767354
0.000856978
0.000938823
0.00101366
0.00108217
0.00114485
0.00120212
0.00125427
0.0013016
0.00134436
0.00138283
0.00141727
0.00144796
0.00147517
0.00149916
0.00152017
0.00153845
0.00155421
0.00156765
0.00157897
0.00158833
0.0015959
0.00160181
0.00160622
0.00160924
0.00161099
0.00161157
0.00161108
0.00160962
0.00160726
0.00160409
0.00160018
0.00159556
0.00159034
0.00158457
0.00157828
0.00157152
0.00156435
0.00155683
0.00154897
0.0015408
0.00153238
0.00152375
0.0015149
0.00150588
0.0014967
0.0014874
0.00147801
0.00146853
0.00145896
0.00144932
0.00143963
0.00142992
0.00142021
0.00141047
0.00140068
0.00139088
4.46505e-05
4.46e-05
4.45961e-05
4.49103e-05
4.5907e-05
4.93613e-05
5.96417e-05
8.58905e-05
0.000139879
0.000226045
0.000335982
0.000456074
0.000575914
0.000690047
0.000796421
0.000894706
0.000985272
0.00106867
0.00114543
0.00121599
0.00128071
0.00133991
0.00139389
0.00144294
0.00148736
0.00152744
0.00156349
0.00159578
0.0016246
0.00165021
0.00167285
0.00169276
0.00171014
0.0017252
0.00173811
0.00174905
0.00175818
0.00176562
0.00177153
0.001776
0.00177917
0.00178113
0.00178197
0.00178179
0.00178066
0.00177865
0.00177583
0.00177229
0.00176807
0.00176321
0.00175778
0.00175184
0.00174543
0.00173857
0.00173133
0.00172374
0.00171582
0.00170761
0.00169914
0.00169044
0.00168155
0.00167248
0.00166325
0.00165386
0.00164434
0.00163473
0.00162504
0.00161528
0.00160542
0.00159549
4.47055e-05
4.47403e-05
4.47702e-05
4.49089e-05
4.52532e-05
4.64154e-05
4.99928e-05
5.9995e-05
8.47427e-05
0.000135557
0.000218575
0.000328066
0.000451368
0.000577397
0.000699638
0.000815174
0.000923088
0.00102336
0.00111629
0.00120226
0.00128163
0.00135474
0.0014219
0.00148344
0.00153966
0.0015909
0.00163747
0.00167969
0.00171786
0.00175228
0.00178322
0.00181093
0.00183568
0.00185766
0.00187711
0.00189421
0.00190913
0.00192205
0.00193311
0.00194246
0.00195021
0.0019565
0.00196142
0.00196508
0.00196758
0.00196898
0.00196936
0.00196883
0.00196743
0.00196521
0.00196225
0.00195861
0.00195435
0.00194947
0.00194406
0.00193817
0.00193181
0.00192503
0.00191786
0.00191034
0.00190251
0.0018944
0.00188602
0.00187738
0.00186852