/*--------------------------------*- C++ -*----------------------------------*\
| =========                 |                                                 |
| \\      /  F ield         | OpenFOAM: The Open Source CFD Toolbox           |
|  \\    /   O peration     | Version:  2412                                  |
|   \\  /    A nd           | Website:  www.openfoam.com                      |
|    \\/     M anipulation  |                                                 |
\*---------------------------------------------------------------------------*/
FoamFile
{
    version     2.0;
    format      ascii;
    arch        "LSB;label=32;scalar=64";
    class       volScalarField;
    location    "500";
    object      p;
}
// * * * * * * * * * * * * * * * * * * * * * * * * * * * * * * * * * * * * * //

dimensions      [0 2 -2 0 0 0 0];

internalField   nonuniform List<scalar> 
7423
(
-2472.41
-3386.04
-3940.96
-3958.75
-3713.35
-3275.81
-2971.74
-2754.32
-2546.95
-2360.06
-2201.87
-2065.4
-1944.86
-1837.54
-1741.64
-1655.27
-1577.03
-1505.66
-1440.2
-1379.85
-1323.89
-1271.78
-1222.99
-1177.14
-1133.91
-1092.99
-1054.15
-1017.19
-981.931
-948.224
-915.935
-884.948
-855.167
-826.505
-798.88
-772.229
-746.483
-721.598
-697.52
-674.205
-651.614
-629.712
-608.466
-587.847
-567.826
-548.376
-529.475
-511.109
-493.219
-475.863
-458.937
-442.477
-426.414
-410.819
-395.594
-380.748
-366.269
-352.162
-338.386
-324.931
-311.79
-298.958
-286.414
-274.146
-262.141
-250.394
-238.896
-227.638
-216.606
-205.801
-195.197
-184.798
-174.607
-164.613
-154.819
-145.211
-2472.38
-3386.04
-3940.92
-3958.72
-3713.33
-3275.8
-2971.74
-2754.32
-2546.94
-2360.06
-2201.87
-2065.4
-1944.86
-1837.54
-1741.64
-1655.27
-1577.03
-1505.66
-1440.2
-1379.85
-1323.89
-1271.78
-1222.99
-1177.14
-1133.91
-1092.99
-1054.15
-1017.19
-981.931
-948.224
-915.935
-884.948
-855.167
-826.505
-798.879
-772.229
-746.483
-721.598
-697.52
-674.205
-651.614
-629.712
-608.466
-587.847
-567.826
-548.376
-529.475
-511.109
-493.219
-475.863
-458.937
-442.477
-426.414
-410.819
-395.594
-380.748
-366.269
-352.162
-338.386
-324.931
-311.79
-298.958
-286.414
-274.146
-262.141
-250.394
-238.896
-227.638
-216.606
-205.801
-195.197
-184.798
-174.607
-164.613
-154.819
-145.211
-2472.24
-3385.87
-3940.77
-3958.64
-3713.29
-3275.79
-2971.73
-2754.31
-2546.94
-2360.06
-2201.86
-2065.4
-1944.86
-1837.54
-1741.64
-1655.27
-1577.02
-1505.66
-1440.2
-1379.85
-1323.89
-1271.78
-1222.99
-1177.14
-1133.91
-1092.99
-1054.15
-1017.19
-981.931
-948.223
-915.935
-884.948
-855.167
-826.505
-798.879
-772.228
-746.483
-721.598
-697.52
-674.205
-651.614
-629.712
-608.466
-587.847
-567.826
-548.376
-529.475
-511.109
-493.219
-475.863
-458.937
-442.477
-426.414
-410.819
-395.594
-380.748
-366.269
-352.162
-338.386
-324.931
-311.79
-298.958
-286.414
-274.146
-262.141
-250.394
-238.896
-227.638
-216.606
-205.801
-195.197
-184.798
-174.607
-164.613
-154.819
-145.211
-2471.89
-3385.44
-3940.39
-3958.42
-3713.18
-3275.74
-2971.7
-2754.29
-2546.93
-2360.05
-2201.86
-2065.4
-1944.85
-1837.53
-1741.63
-1655.27
-1577.02
-1505.66
-1440.2
-1379.84
-1323.89
-1271.78
-1222.99
-1177.14
-1133.91
-1092.99
-1054.15
-1017.19
-981.931
-948.223
-915.935
-884.948
-855.167
-826.504
-798.879
-772.228
-746.483
-721.598
-697.52
-674.205
-651.614
-629.712
-608.466
-587.847
-567.826
-548.376
-529.475
-511.109
-493.219
-475.862
-458.937
-442.476
-426.414
-410.818
-395.594
-380.748
-366.269
-352.162
-338.386
-324.931
-311.79
-298.958
-286.414
-274.146
-262.141
-250.394
-238.896
-227.638
-216.606
-205.801
-195.197
-184.798
-174.607
-164.613
-154.819
-145.211
-2471.19
-3384.6
-3939.68
-3957.99
-3712.94
-3275.63
-2971.64
-2754.25
-2546.9
-2360.03
-2201.85
-2065.39
-1944.85
-1837.53
-1741.63
-1655.27
-1577.02
-1505.65
-1440.19
-1379.84
-1323.89
-1271.77
-1222.99
-1177.14
-1133.91
-1092.99
-1054.15
-1017.19
-981.931
-948.223
-915.934
-884.948
-855.166
-826.504
-798.879
-772.228
-746.483
-721.598
-697.52
-674.205
-651.614
-629.712
-608.466
-587.847
-567.826
-548.376
-529.475
-511.109
-493.219
-475.862
-458.937
-442.476
-426.414
-410.818
-395.594
-380.748
-366.269
-352.162
-338.386
-324.931
-311.79
-298.958
-286.414
-274.146
-262.141
-250.394
-238.896
-227.638
-216.606
-205.801
-195.197
-184.798
-174.607
-164.613
-154.819
-145.211
-2470
-3383.21
-3938.49
-3957.25
-3712.54
-3275.43
-2971.52
-2754.17
-2546.85
-2360
-2201.82
-2065.37
-1944.83
-1837.52
-1741.62
-1655.26
-1577.02
-1505.65
-1440.19
-1379.84
-1323.89
-1271.77
-1222.99
-1177.14
-1133.91
-1092.99
-1054.15
-1017.19
-981.93
-948.222
-915.934
-884.947
-855.166
-826.504
-798.879
-772.228
-746.483
-721.598
-697.52
-674.205
-651.614
-629.712
-608.466
-587.847
-567.826
-548.376
-529.475
-511.109
-493.219
-475.862
-458.937
-442.476
-426.414
-410.818
-395.593
-380.748
-366.269
-352.162
-338.386
-324.931
-311.79
-298.958
-286.414
-274.146
-262.141
-250.394
-238.896
-227.638
-216.606
-205.801
-195.197
-184.798
-174.607
-164.613
-154.819
-145.211
-2468.2
-3381.12
-3936.71
-3956.14
-3711.92
-3275.11
-2971.33
-2754.04
-2546.77
-2359.94
-2201.78
-2065.34
-1944.81
-1837.5
-1741.61
-1655.25
-1577.01
-1505.64
-1440.18
-1379.84
-1323.88
-1271.77
-1222.98
-1177.14
-1133.9
-1092.98
-1054.15
-1017.19
-981.929
-948.221
-915.933
-884.946
-855.165
-826.503
-798.878
-772.227
-746.482
-721.597
-697.519
-674.204
-651.613
-629.711
-608.465
-587.846
-567.826
-548.376
-529.475
-511.108
-493.219
-475.862
-458.937
-442.476
-426.414
-410.818
-395.593
-380.748
-366.269
-352.162
-338.386
-324.931
-311.79
-298.958
-286.414
-274.146
-262.141
-250.394
-238.896
-227.638
-216.606
-205.801
-195.197
-184.798
-174.607
-164.613
-154.819
-145.211
-2465.63
-3378.2
-3934.25
-3954.6
-3711.07
-3274.66
-2971.06
-2753.85
-2546.64
-2359.85
-2201.72
-2065.29
-1944.78
-1837.47
-1741.58
-1655.23
-1576.99
-1505.63
-1440.17
-1379.83
-1323.88
-1271.76
-1222.98
-1177.13
-1133.9
-1092.98
-1054.15
-1017.19
-981.926
-948.219
-915.931
-884.945
-855.164
-826.502
-798.877
-772.226
-746.481
-721.596
-697.518
-674.204
-651.613
-629.711
-608.465
-587.846
-567.825
-548.375
-529.474
-511.108
-493.219
-475.862
-458.937
-442.476
-426.414
-410.818
-395.593
-380.748
-366.269
-352.162
-338.385
-324.931
-311.79
-298.958
-286.413
-274.145
-262.141
-250.394
-238.896
-227.638
-216.606
-205.801
-195.196
-184.798
-174.607
-164.613
-154.819
-145.211
-2462.19
-3374.32
-3931.01
-3952.59
-3709.95
-3274.05
-2970.7
-2753.61
-2546.47
-2359.73
-2201.63
-2065.22
-1944.72
-1837.43
-1741.55
-1655.21
-1576.97
-1505.61
-1440.16
-1379.81
-1323.86
-1271.75
-1222.97
-1177.13
-1133.89
-1092.98
-1054.14
-1017.18
-981.923
-948.216
-915.928
-884.942
-855.162
-826.5
-798.875
-772.225
-746.48
-721.595
-697.517
-674.203
-651.612
-629.71
-608.464
-587.845
-567.825
-548.375
-529.474
-511.108
-493.218
-475.861
-458.936
-442.476
-426.413
-410.818
-395.593
-380.747
-366.269
-352.161
-338.385
-324.93
-311.79
-298.957
-286.413
-274.145
-262.141
-250.393
-238.896
-227.638
-216.606
-205.801
-195.196
-184.798
-174.607
-164.613
-154.819
-145.211
-3369.33
-3926.87
-3950.03
-3708.54
-3273.29
-2970.23
-2753.29
-2546.25
-2359.57
-2201.51
-2065.13
-1944.66
-1837.38
-1741.5
-1655.17
-1576.94
-1505.59
-1440.14
-1379.8
-1323.85
-1271.74
-1222.96
-1177.12
-1133.89
-1092.97
-1054.14
-1017.18
-981.918
-948.212
-915.924
-884.939
-855.158
-826.497
-798.873
-772.222
-746.478
-721.593
-697.515
-674.201
-651.61
-629.708
-608.463
-587.844
-567.823
-548.374
-529.473
-511.107
-493.217
-475.861
-458.936
-442.475
-426.413
-410.817
-395.592
-380.747
-366.268
-352.161
-338.385
-324.93
-311.789
-298.957
-286.413
-274.145
-262.14
-250.393
-238.896
-227.638
-216.606
-205.801
-195.196
-184.797
-174.607
-164.613
-154.818
-145.211
-3921.69
-3946.81
-3706.77
-3272.33
-2969.66
-2752.9
-2545.98
-2359.38
-2201.37
-2065.02
-1944.57
-1837.31
-1741.45
-1655.12
-1576.91
-1505.55
-1440.11
-1379.77
-1323.83
-1271.72
-1222.95
-1177.11
-1133.87
-1092.96
-1054.13
-1017.17
-981.911
-948.205
-915.919
-884.934
-855.154
-826.493
-798.869
-772.219
-746.475
-721.59
-697.513
-674.199
-651.608
-629.706
-608.461
-587.842
-567.822
-548.372
-529.471
-511.105
-493.216
-475.86
-458.934
-442.474
-426.412
-410.816
-395.592
-380.746
-366.267
-352.16
-338.384
-324.929
-311.789
-298.957
-286.412
-274.144
-262.14
-250.393
-238.895
-227.637
-216.605
-205.8
-195.196
-184.797
-174.606
-164.612
-154.818
-145.211
-3942.83
-3704.58
-3271.16
-2968.95
-2752.43
-2545.64
-2359.14
-2201.19
-2064.89
-1944.46
-1837.22
-1741.38
-1655.07
-1576.86
-1505.51
-1440.07
-1379.74
-1323.8
-1271.7
-1222.93
-1177.09
-1133.86
-1092.95
-1054.12
-1017.16
-981.902
-948.197
-915.911
-884.927
-855.148
-826.487
-798.864
-772.214
-746.47
-721.586
-697.509
-674.195
-651.605
-629.703
-608.458
-587.84
-567.82
-548.37
-529.469
-511.104
-493.214
-475.858
-458.933
-442.473
-426.41
-410.815
-395.59
-380.745
-366.266
-352.159
-338.383
-324.929
-311.788
-298.956
-286.412
-274.144
-262.139
-250.392
-238.895
-227.637
-216.605
-205.8
-195.195
-184.797
-174.606
-164.612
-154.818
-145.21
-3937.92
-3701.9
-3269.71
-2968.09
-2751.85
-2545.24
-2358.85
-2200.97
-2064.72
-1944.34
-1837.12
-1741.29
-1655
-1576.8
-1505.47
-1440.03
-1379.71
-1323.77
-1271.68
-1222.9
-1177.07
-1133.84
-1092.93
-1054.1
-1017.15
-981.89
-948.187
-915.902
-884.918
-855.14
-826.48
-798.857
-772.208
-746.465
-721.581
-697.504
-674.191
-651.601
-629.7
-608.455
-587.836
-567.817
-548.367
-529.467
-511.101
-493.212
-475.856
-458.931
-442.471
-426.409
-410.813
-395.589
-380.744
-366.265
-352.158
-338.382
-324.927
-311.787
-298.955
-286.411
-274.143
-262.138
-250.391
-238.894
-227.636
-216.604
-205.799
-195.194
-184.796
-174.605
-164.611
-154.817
-145.21
-3931.88
-3698.61
-3267.94
-2967.03
-2751.16
-2544.76
-2358.5
-2200.72
-2064.53
-1944.18
-1837
-1741.19
-1654.91
-1576.73
-1505.41
-1439.98
-1379.67
-1323.74
-1271.64
-1222.88
-1177.04
-1133.82
-1092.91
-1054.08
-1017.13
-981.876
-948.174
-915.89
-884.908
-855.13
-826.471
-798.849
-772.201
-746.458
-721.575
-697.499
-674.185
-651.596
-629.695
-608.45
-587.832
-567.813
-548.364
-529.463
-511.098
-493.209
-475.853
-458.928
-442.468
-426.406
-410.811
-395.587
-380.742
-366.263
-352.156
-338.38
-324.926
-311.785
-298.953
-286.409
-274.141
-262.137
-250.39
-238.893
-227.635
-216.603
-205.798
-195.193
-184.795
-174.604
-164.61
-154.816
-3924.41
-3694.6
-3265.78
-2965.75
-2750.32
-2544.18
-2358.08
-2200.41
-2064.29
-1944
-1836.85
-1741.07
-1654.82
-1576.65
-1505.34
-1439.92
-1379.61
-1323.69
-1271.6
-1222.84
-1177.01
-1133.79
-1092.89
-1054.06
-1017.11
-981.859
-948.159
-915.876
-884.895
-855.119
-826.461
-798.839
-772.192
-746.45
-721.567
-697.491
-674.179
-651.59
-629.689
-608.445
-587.827
-567.808
-548.359
-529.459
-511.094
-493.206
-475.85
-458.925
-442.465
-426.404
-410.809
-395.584
-380.739
-366.261
-352.154
-338.378
-324.924
-311.784
-298.951
-286.407
-274.14
-262.135
-250.388
-238.891
-227.633
-216.601
-205.796
-195.192
-184.793
-174.603
-164.609
-154.815
-3915.41
-3689.62
-3263.15
-2964.19
-2749.3
-2543.47
-2357.58
-2200.04
-2064.01
-1943.78
-1836.67
-1740.93
-1654.7
-1576.55
-1505.25
-1439.85
-1379.55
-1323.64
-1271.56
-1222.8
-1176.98
-1133.76
-1092.86
-1054.04
-1017.09
-981.839
-948.14
-915.86
-884.88
-855.105
-826.448
-798.828
-772.181
-746.44
-721.558
-697.483
-674.171
-651.582
-629.682
-608.439
-587.821
-567.803
-548.354
-529.454
-511.09
-493.201
-475.846
-458.921
-442.462
-426.4
-410.805
-395.581
-380.736
-366.258
-352.151
-338.376
-324.921
-311.781
-298.949
-286.405
-274.137
-262.133
-250.386
-238.889
-227.631
-216.599
-205.794
-195.19
-184.792
-174.601
-164.607
-154.813
-3905.11
-3683.26
-3259.94
-2962.29
-2748.06
-2542.63
-2356.98
-2199.59
-2063.67
-1943.51
-1836.46
-1740.76
-1654.56
-1576.43
-1505.15
-1439.77
-1379.48
-1323.58
-1271.5
-1222.75
-1176.94
-1133.72
-1092.83
-1054.01
-1017.06
-981.815
-948.119
-915.84
-884.862
-855.088
-826.433
-798.814
-772.168
-746.428
-721.547
-697.473
-674.162
-651.574
-629.674
-608.431
-587.814
-567.796
-548.348
-529.449
-511.084
-493.196
-475.841
-458.917
-442.457
-426.396
-410.801
-395.577
-380.733
-366.255
-352.148
-338.372
-324.918
-311.778
-298.946
-286.403
-274.135
-262.131
-250.384
-238.887
-227.629
-216.597
-205.792
-195.188
-184.79
-174.599
-164.605
-154.811
-3893.91
-3675.07
-3256
-2959.96
-2746.57
-2541.61
-2356.25
-2199.06
-2063.26
-1943.2
-1836.21
-1740.55
-1654.39
-1576.29
-1505.04
-1439.67
-1379.39
-1323.5
-1271.44
-1222.7
-1176.89
-1133.68
-1092.79
-1053.97
-1017.03
-981.787
-948.093
-915.816
-884.841
-855.069
-826.415
-798.797
-772.153
-746.414
-721.534
-697.461
-674.15
-651.563
-629.665
-608.422
-587.806
-567.788
-548.341
-529.442
-511.078
-493.19
-475.835
-458.911
-442.452
-426.391
-410.797
-395.573
-380.728
-366.251
-352.144
-338.369
-324.915
-311.775
-298.943
-286.399
-274.132
-262.128
-250.381
-238.884
-227.626
-216.594
-205.79
-195.185
-184.787
-174.596
-164.603
-154.808
-3881.23
-3665.16
-3251.19
-2957.12
-2744.75
-2540.38
-2355.38
-2198.42
-2062.78
-1942.82
-1835.91
-1740.31
-1654.19
-1576.13
-1504.9
-1439.55
-1379.29
-1323.41
-1271.36
-1222.63
-1176.83
-1133.63
-1092.74
-1053.93
-1017
-981.753
-948.062
-915.789
-884.815
-855.046
-826.394
-798.778
-772.135
-746.397
-721.519
-697.447
-674.137
-651.551
-629.653
-608.411
-587.796
-567.779
-548.332
-529.434
-511.07
-493.183
-475.828
-458.905
-442.446
-426.385
-410.791
-395.568
-380.723
-366.246
-352.14
-338.364
-324.911
-311.771
-298.939
-286.396
-274.128
-262.124
-250.377
-238.88
-227.623
-216.591
-205.786
-195.182
-184.784
-174.593
-164.6
-154.806
-3865.89
-3654.14
-3245.32
-2953.63
-2742.54
-2538.89
-2354.33
-2197.65
-2062.2
-1942.37
-1835.55
-1740.02
-1653.95
-1575.93
-1504.73
-1439.41
-1379.17
-1323.31
-1271.27
-1222.55
-1176.76
-1133.57
-1092.68
-1053.88
-1016.95
-981.713
-948.026
-915.756
-884.785
-855.018
-826.369
-798.755
-772.114
-746.378
-721.501
-697.43
-674.122
-651.537
-629.64
-608.399
-587.784
-567.768
-548.322
-529.424
-511.061
-493.174
-475.82
-458.897
-442.439
-426.379
-410.785
-395.562
-380.718
-366.24
-352.134
-338.359
-324.906
-311.766
-298.935
-286.391
-274.124
-262.12
-250.374
-238.877
-227.619
-216.588
-205.783
-195.179
-184.78
-174.59
-164.596
-154.802
-3847.69
-3642.22
-3238.13
-2949.38
-2739.84
-2537.08
-2353.06
-2196.72
-2061.5
-1941.83
-1835.13
-1739.68
-1653.67
-1575.69
-1504.53
-1439.24
-1379.03
-1323.19
-1271.16
-1222.46
-1176.67
-1133.49
-1092.62
-1053.82
-1016.9
-981.665
-947.983
-915.717
-884.75
-854.986
-826.339
-798.727
-772.088
-746.354
-721.479
-697.41
-674.103
-651.519
-629.624
-608.384
-587.77
-567.755
-548.309
-529.412
-511.05
-493.164
-475.811
-458.888
-442.43
-426.371
-410.777
-395.555
-380.711
-366.234
-352.128
-338.353
-324.9
-311.761
-298.929
-286.386
-274.119
-262.115
-250.369
-238.872
-227.615
-216.583
-205.779
-195.175
-184.776
-174.586
-164.592
-154.798
-3826.95
-3629.43
-3229.15
-2944.21
-2736.55
-2534.89
-2351.52
-2195.6
-2060.66
-1941.18
-1834.62
-1739.27
-1653.34
-1575.42
-1504.3
-1439.04
-1378.86
-1323.04
-1271.04
-1222.34
-1176.58
-1133.41
-1092.54
-1053.75
-1016.84
-981.609
-947.932
-915.67
-884.708
-854.947
-826.303
-798.695
-772.059
-746.327
-721.454
-697.386
-674.081
-651.499
-629.605
-608.366
-587.754
-567.739
-548.295
-529.399
-511.038
-493.152
-475.8
-458.878
-442.42
-426.361
-410.768
-395.546
-380.703
-366.226
-352.121
-338.346
-324.893
-311.754
-298.923
-286.38
-274.113
-262.11
-250.363
-238.867
-227.609
-216.578
-205.774
-195.17
-184.772
-174.581
-164.588
-154.794
-3803.62
-3615.69
-3218.14
-2937.94
-2732.55
-2532.22
-2349.65
-2194.25
-2059.65
-1940.41
-1834
-1738.78
-1652.93
-1575.08
-1504.02
-1438.8
-1378.65
-1322.86
-1270.88
-1222.21
-1176.46
-1133.3
-1092.45
-1053.67
-1016.76
-981.542
-947.872
-915.615
-884.657
-854.901
-826.261
-798.656
-772.023
-746.294
-721.423
-697.358
-674.055
-651.475
-629.583
-608.345
-587.734
-567.721
-548.278
-529.383
-511.023
-493.138
-475.786
-458.865
-442.409
-426.35
-410.758
-395.536
-380.693
-366.217
-352.112
-338.338
-324.885
-311.747
-298.916
-286.373
-274.107
-262.103
-250.357
-238.861
-227.603
-216.572
-205.768
-195.164
-184.766
-174.576
-164.582
-154.788
-3777.41
-3600.13
-3205.6
-2930.46
-2727.68
-2528.95
-2347.37
-2192.6
-2058.43
-1939.47
-1833.27
-1738.19
-1652.45
-1574.69
-1503.69
-1438.52
-1378.41
-1322.66
-1270.7
-1222.05
-1176.32
-1133.18
-1092.34
-1053.57
-1016.67
-981.463
-947.8
-915.55
-884.598
-854.847
-826.212
-798.611
-771.981
-746.255
-721.388
-697.325
-674.025
-651.446
-629.556
-608.321
-587.711
-567.7
-548.258
-529.364
-511.005
-493.122
-475.771
-458.851
-442.395
-426.337
-410.745
-395.524
-380.682
-366.207
-352.102
-338.328
-324.876
-311.738
-298.907
-286.365
-274.099
-262.095
-250.35
-238.853
-227.596
-216.565
-205.761
-195.157
-184.76
-174.569
-164.576
-154.782
-3748.1
-3581.82
-3192.24
-2921.61
-2721.84
-2524.98
-2344.6
-2190.6
-2056.94
-1938.33
-1832.38
-1737.48
-1651.88
-1574.21
-1503.29
-1438.19
-1378.13
-1322.41
-1270.49
-1221.86
-1176.15
-1133.03
-1092.21
-1053.46
-1016.57
-981.369
-947.715
-915.473
-884.528
-854.783
-826.153
-798.557
-771.931
-746.21
-721.345
-697.286
-673.988
-651.413
-629.525
-608.291
-587.684
-567.674
-548.234
-529.342
-510.984
-493.102
-475.752
-458.833
-442.378
-426.321
-410.731
-395.51
-380.669
-366.194
-352.09
-338.317
-324.865
-311.727
-298.897
-286.355
-274.089
-262.086
-250.341
-238.845
-227.588
-216.557
-205.753
-195.149
-184.752
-174.562
-164.568
-154.775
-3715.33
-3560.88
-3177.79
-2911.29
-2715
-2520.19
-2341.22
-2188.17
-2055.14
-1936.96
-1831.31
-1736.62
-1651.18
-1573.64
-1502.81
-1437.78
-1377.78
-1322.11
-1270.23
-1221.64
-1175.96
-1132.86
-1092.06
-1053.32
-1016.45
-981.257
-947.614
-915.382
-884.444
-854.707
-826.083
-798.493
-771.873
-746.155
-721.295
-697.24
-673.945
-651.373
-629.487
-608.257
-587.652
-567.644
-548.206
-529.315
-510.959
-493.079
-475.73
-458.812
-442.359
-426.303
-410.713
-395.494
-380.653
-366.179
-352.076
-338.303
-324.852
-311.715
-298.885
-286.344
-274.078
-262.075
-250.33
-238.834
-227.578
-216.547
-205.744
-195.14
-184.743
-174.553
-164.56
-154.766
-3678.69
-3537.77
-3161.55
-2899.58
-2707.02
-2514.5
-2337.13
-2185.21
-2052.95
-1935.29
-1830.01
-1735.59
-1650.35
-1572.95
-1502.24
-1437.3
-1377.37
-1321.76
-1269.92
-1221.37
-1175.72
-1132.65
-1091.87
-1053.15
-1016.3
-981.125
-947.494
-915.273
-884.346
-854.617
-826.001
-798.417
-771.803
-746.091
-721.236
-697.185
-673.894
-651.326
-629.444
-608.216
-587.614
-567.608
-548.172
-529.284
-510.93
-493.051
-475.704
-458.788
-442.336
-426.281
-410.693
-395.474
-380.634
-366.161
-352.059
-338.287
-324.836
-311.7
-298.871
-286.33
-274.065
-262.063
-250.318
-238.822
-227.566
-216.536
-205.732
-195.129
-184.732
-174.542
-164.549
-3637.69
-3512.28
-3143.3
-2886.52
-2697.82
-2507.87
-2332.23
-2181.61
-2050.28
-1933.27
-1828.43
-1734.34
-1649.34
-1572.12
-1501.55
-1436.72
-1376.88
-1321.34
-1269.56
-1221.05
-1175.44
-1132.4
-1091.65
-1052.96
-1016.12
-980.967
-947.352
-915.144
-884.228
-854.509
-825.903
-798.327
-771.72
-746.015
-721.166
-697.12
-673.834
-651.27
-629.392
-608.168
-587.569
-567.566
-548.133
-529.247
-510.895
-493.019
-475.674
-458.759
-442.308
-426.255
-410.668
-395.451
-380.612
-366.14
-352.039
-338.268
-324.818
-311.682
-298.854
-286.314
-274.049
-262.048
-250.303
-238.808
-227.552
-216.523
-205.719
-195.116
-184.719
-174.53
-164.537
-3591.67
-3484.13
-3122.75
-2871.78
-2687.4
-2500.25
-2326.49
-2177.29
-2047.04
-1930.8
-1826.52
-1732.82
-1648.12
-1571.12
-1500.72
-1436.02
-1376.28
-1320.83
-1269.12
-1220.67
-1175.11
-1132.11
-1091.39
-1052.73
-1015.91
-980.779
-947.182
-914.99
-884.089
-854.382
-825.786
-798.221
-771.622
-745.925
-721.082
-697.043
-673.763
-651.204
-629.33
-608.111
-587.515
-567.517
-548.087
-529.204
-510.854
-492.98
-475.638
-458.725
-442.276
-426.225
-410.64
-395.424
-380.587
-366.116
-352.016
-338.246
-324.797
-311.662
-298.834
-286.295
-274.031
-262.03
-250.286
-238.792
-227.536
-216.507
-205.704
-195.101
-184.704
-174.515
-164.523
-3453.15
-3099.65
-2855.15
-2675.64
-2491.56
-2319.86
-2172.2
-2043.14
-1927.81
-1824.19
-1730.97
-1646.63
-1569.91
-1499.72
-1435.18
-1375.57
-1320.22
-1268.59
-1220.21
-1174.7
-1131.75
-1091.08
-1052.45
-1015.66
-980.555
-946.98
-914.807
-883.923
-854.231
-825.648
-798.094
-771.506
-745.818
-720.984
-696.952
-673.679
-651.126
-629.258
-608.043
-587.452
-567.458
-548.032
-529.152
-510.806
-492.935
-475.595
-458.685
-442.239
-426.189
-410.606
-395.392
-380.556
-366.087
-351.988
-338.219
-324.772
-311.638
-298.811
-286.272
-274.009
-262.009
-250.266
-238.772
-227.517
-216.488
-205.686
-195.083
-184.687
-174.498
-164.506
-3418.52
-3073.71
-2836.62
-2662.33
-2481.71
-2312.29
-2166.3
-2038.54
-1924.2
-1821.36
-1728.73
-1644.83
-1568.44
-1498.5
-1434.16
-1374.71
-1319.48
-1267.95
-1219.66
-1174.22
-1131.33
-1090.7
-1052.11
-1015.37
-980.287
-946.738
-914.589
-883.725
-854.051
-825.484
-797.944
-771.368
-745.691
-720.867
-696.844
-673.579
-651.033
-629.172
-607.963
-587.378
-567.388
-547.967
-529.092
-510.749
-492.882
-475.545
-458.638
-442.194
-426.147
-410.566
-395.354
-380.52
-366.053
-351.955
-338.188
-324.742
-311.609
-298.784
-286.246
-273.984
-261.984
-250.242
-238.749
-227.495
-216.466
-205.664
-195.063
-184.667
-174.478
-164.486
-3379.6
-3044.57
-2816.1
-2647.3
-2470.6
-2303.71
-2159.54
-2033.18
-1919.94
-1817.96
-1726.01
-1642.63
-1566.64
-1497.02
-1432.92
-1373.66
-1318.58
-1267.18
-1218.99
-1173.64
-1130.82
-1090.25
-1051.71
-1015.01
-979.965
-946.449
-914.328
-883.488
-853.836
-825.288
-797.764
-771.204
-745.54
-720.728
-696.716
-673.46
-650.923
-629.07
-607.868
-587.29
-567.306
-547.89
-529.02
-510.682
-492.818
-475.486
-458.582
-442.141
-426.098
-410.519
-395.309
-380.478
-366.013
-351.917
-338.152
-324.707
-311.576
-298.752
-286.215
-273.954
-261.956
-250.214
-238.722
-227.468
-216.441
-205.639
-195.038
-184.643
-174.455
-164.463
-3335.83
-3012.01
-2793.24
-2630.36
-2458.04
-2294
-2151.87
-2027.05
-1914.99
-1813.94
-1722.74
-1639.97
-1564.47
-1495.22
-1431.41
-1372.38
-1317.5
-1266.25
-1218.18
-1172.93
-1130.2
-1089.7
-1051.22
-1014.57
-979.579
-946.102
-914.014
-883.204
-853.578
-825.053
-797.55
-771.008
-745.36
-720.562
-696.563
-673.32
-650.793
-628.949
-607.756
-587.186
-567.209
-547.799
-528.935
-510.603
-492.744
-475.416
-458.517
-442.079
-426.039
-410.464
-395.257
-380.428
-365.965
-351.872
-338.109
-324.666
-311.537
-298.714
-286.179
-273.919
-261.922
-250.182
-238.69
-227.438
-216.411
-205.61
-195.01
-184.615
-174.427
-164.436
-3286.75
-2975.93
-2767.63
-2611.31
-2443.83
-2283.04
-2143.19
-2020.09
-1909.32
-1809.28
-1718.89
-1636.79
-1561.83
-1493.03
-1429.58
-1370.84
-1316.18
-1265.11
-1217.2
-1172.08
-1129.45
-1089.04
-1050.64
-1014.05
-979.113
-945.684
-913.638
-882.864
-853.269
-824.772
-797.294
-770.773
-745.146
-720.365
-696.381
-673.152
-650.638
-628.806
-607.623
-587.062
-567.094
-547.692
-528.835
-510.509
-492.656
-475.334
-458.439
-442.006
-425.97
-410.399
-395.196
-380.37
-365.91
-351.82
-338.059
-324.618
-311.491
-298.67
-286.137
-273.878
-261.883
-250.144
-238.654
-227.402
-216.376
-205.577
-194.977
-184.582
-174.396
-164.405
-3231.85
-2936.06
-2738.95
-2589.87
-2427.76
-2270.66
-2133.37
-2012.19
-1902.88
-1803.95
-1714.44
-1633.06
-1558.7
-1490.39
-1427.36
-1368.96
-1314.57
-1263.74
-1216.01
-1171.04
-1128.54
-1088.24
-1049.93
-1013.42
-978.55
-945.179
-913.183
-882.454
-852.898
-824.435
-796.986
-770.492
-744.888
-720.129
-696.164
-672.952
-650.453
-628.635
-607.465
-586.915
-566.957
-547.565
-528.716
-510.398
-492.552
-475.236
-458.348
-441.92
-425.889
-410.322
-395.123
-380.301
-365.845
-351.758
-338
-324.562
-311.437
-298.619
-286.087
-273.831
-261.837
-250.099
-238.611
-227.361
-216.336
-205.537
-194.938
-184.545
-174.359
-164.369
-3170.55
-2892.1
-2706.94
-2565.77
-2409.63
-2256.68
-2122.26
-2003.24
-1895.57
-1797.89
-1709.36
-1628.76
-1555.04
-1487.27
-1424.7
-1366.68
-1312.63
-1262.06
-1214.56
-1169.77
-1127.43
-1087.26
-1049.07
-1012.66
-977.868
-944.568
-912.634
-881.959
-852.45
-824.028
-796.616
-770.155
-744.58
-719.846
-695.904
-672.712
-650.232
-628.431
-607.276
-586.74
-566.794
-547.413
-528.575
-510.266
-492.429
-475.121
-458.239
-441.818
-425.793
-410.232
-395.038
-380.221
-365.768
-351.685
-337.931
-324.496
-311.374
-298.558
-286.03
-273.776
-261.783
-250.048
-238.561
-227.312
-216.289
-205.492
-194.894
-184.501
-174.317
-164.328
-3102.27
-2843.75
-2671.29
-2538.73
-2389.22
-2240.92
-2109.71
-1993.12
-1887.28
-1791.01
-1703.57
-1623.85
-1550.84
-1483.65
-1421.57
-1363.97
-1310.28
-1260.03
-1212.79
-1168.24
-1126.08
-1086.08
-1048.02
-1011.73
-977.04
-943.827
-911.969
-881.359
-851.908
-823.537
-796.17
-769.748
-744.208
-719.506
-695.592
-672.425
-649.968
-628.186
-607.05
-586.53
-566.6
-547.232
-528.407
-510.109
-492.282
-474.984
-458.111
-441.698
-425.68
-410.125
-394.937
-380.125
-365.678
-351.6
-337.85
-324.418
-311.3
-298.488
-285.962
-273.711
-261.721
-249.988
-238.503
-227.257
-216.235
-205.44
-194.843
-184.451
-174.268
-164.28
-3026.45
-2790.73
-2631.77
-2508.41
-2366.24
-2223.15
-2095.54
-1981.66
-1877.9
-1783.21
-1697
-1618.27
-1546.04
-1479.5
-1417.95
-1360.81
-1307.51
-1257.6
-1210.66
-1166.37
-1124.45
-1084.64
-1046.75
-1010.6
-976.032
-942.926
-911.16
-880.631
-851.251
-822.942
-795.63
-769.256
-743.759
-719.095
-695.216
-672.08
-649.65
-627.893
-606.779
-586.28
-566.368
-547.017
-528.206
-509.922
-492.107
-474.821
-457.959
-441.554
-425.545
-409.999
-394.818
-380.013
-365.572
-351.499
-337.754
-324.327
-311.213
-298.405
-285.883
-273.635
-261.649
-249.918
-238.436
-227.192
-216.173
-205.379
-194.784
-184.394
-174.212
-164.226
-2942.56
-2732.74
-2588.08
-2474.52
-2340.45
-2203.18
-2079.58
-1968.72
-1867.28
-1774.38
-1689.56
-1611.92
-1540.58
-1474.77
-1413.82
-1357.17
-1304.3
-1254.75
-1208.14
-1164.14
-1122.47
-1082.89
-1045.2
-1009.22
-974.806
-941.829
-910.177
-879.746
-850.453
-822.22
-794.975
-768.66
-743.216
-718.599
-694.761
-671.663
-649.266
-627.54
-606.453
-585.979
-566.089
-546.758
-527.966
-509.699
-491.899
-474.627
-457.777
-441.384
-425.385
-409.849
-394.677
-379.879
-365.446
-351.38
-337.641
-324.22
-311.112
-298.308
-285.791
-273.547
-261.564
-249.836
-238.357
-227.116
-216.1
-205.309
-194.716
-184.328
-174.148
-164.164
-2850.3
-2669.63
-2539.85
-2436.57
-2311.45
-2180.69
-2061.58
-1954.1
-1855.27
-1764.38
-1681.12
-1604.73
-1534.4
-1469.39
-1409.11
-1353.02
-1300.62
-1251.48
-1205.22
-1161.52
-1120.13
-1080.79
-1043.33
-1007.55
-973.314
-940.495
-908.98
-878.669
-849.481
-821.341
-794.178
-767.936
-742.557
-717.997
-694.211
-671.158
-648.803
-627.114
-606.061
-585.616
-565.754
-546.447
-527.678
-509.431
-491.649
-474.394
-457.56
-441.181
-425.195
-409.671
-394.509
-379.721
-365.297
-351.24
-337.508
-324.094
-310.992
-298.194
-285.682
-273.443
-261.465
-249.741
-238.266
-227.029
-216.016
-205.228
-194.637
-184.252
-174.074
-164.093
-2749.03
-2601.63
-2487.33
-2394.54
-2279.06
-2155.46
-2041.31
-1937.59
-1841.69
-1753.05
-1671.56
-1596.58
-1527.37
-1463.29
-1403.77
-1348.3
-1296.43
-1247.73
-1201.86
-1158.5
-1117.41
-1078.34
-1041.11
-1005.55
-971.515
-938.876
-907.524
-877.359
-848.299
-820.271
-793.209
-767.056
-741.755
-717.266
-693.543
-670.546
-648.242
-626.598
-605.586
-585.178
-565.349
-546.073
-527.331
-509.109
-491.349
-474.116
-457.3
-440.937
-424.967
-409.458
-394.31
-379.533
-365.119
-351.073
-337.35
-323.944
-310.85
-298.06
-285.554
-273.322
-261.349
-249.63
-238.16
-226.927
-215.919
-205.135
-194.547
-184.164
-173.99
-164.011
-2637.13
-2527.26
-2429.49
-2347.8
-2242.91
-2127.25
-2018.58
-1919.01
-1826.36
-1740.25
-1660.74
-1587.34
-1519.41
-1456.36
-1397.69
-1342.94
-1291.66
-1243.47
-1198.03
-1155.05
-1114.29
-1075.51
-1038.54
-1003.22
-969.393
-936.947
-905.772
-875.771
-846.862
-818.97
-792.029
-765.984
-740.78
-716.376
-692.73
-669.802
-647.56
-625.972
-605.01
-584.647
-564.859
-545.62
-526.912
-508.72
-490.987
-473.78
-456.987
-440.645
-424.693
-409.203
-394.071
-379.308
-364.908
-350.874
-337.163
-323.767
-310.682
-297.901
-285.404
-273.179
-261.212
-249.5
-238.036
-226.808
-215.805
-205.026
-194.442
-184.063
-173.893
-163.918
-2518.54
-2448.3
-2366.47
-2295.87
-2202.43
-2095.6
-1993.03
-1898.08
-1809.07
-1725.8
-1648.5
-1576.88
-1510.38
-1448.51
-1390.81
-1336.86
-1286.25
-1238.63
-1193.68
-1151.12
-1110.72
-1072.27
-1035.59
-1000.53
-966.932
-934.698
-903.715
-873.89
-845.142
-817.4
-790.598
-764.681
-739.594
-715.294
-691.742
-668.898
-646.731
-625.211
-604.31
-584.003
-564.265
-545.071
-526.405
-508.25
-490.55
-473.376
-456.611
-440.294
-424.364
-408.897
-393.784
-379.039
-364.655
-350.637
-336.94
-323.556
-310.483
-297.713
-285.226
-273.01
-261.052
-249.347
-237.89
-226.67
-215.673
-204.901
-194.321
-183.947
-173.782
-163.812
51.7287
-394.412
-890.253
-1392.01
-1843
-2167.19
-2393.36
-2365.17
-2299.08
-2239.13
-2157.55
-2060.26
-1964.38
-1874.5
-1789.54
-1709.44
-1634.65
-1565.02
-1500.15
-1439.61
-1383
-1329.95
-1280.11
-1233.14
-1188.74
-1146.66
-1106.68
-1068.59
-1032.23
-997.448
-964.111
-932.107
-901.335
-871.703
-843.131
-815.551
-788.898
-763.118
-738.159
-713.98
-690.539
-667.797
-645.723
-624.286
-603.459
-583.22
-563.543
-544.404
-525.789
-507.679
-490.02
-472.886
-456.155
-439.869
-423.967
-408.529
-393.439
-378.715
-364.351
-350.354
-336.673
-323.304
-310.245
-297.489
-285.015
-272.81
-260.862
-249.167
-237.719
-226.508
-215.52
-204.755
-194.182
-183.813
-173.654
-163.691
74.3877
-341.769
-804.521
-1276.99
-1710.58
-2034.65
-2259.85
-2272.35
-2225.3
-2176.93
-2107.82
-2020.88
-1932.34
-1848.03
-1767.52
-1690.95
-1618.95
-1551.57
-1488.53
-1429.48
-1374.11
-1322.1
-1273.12
-1226.89
-1183.12
-1141.59
-1102.07
-1064.4
-1028.4
-993.943
-960.894
-929.147
-898.607
-869.186
-840.807
-813.405
-786.917
-761.289
-736.47
-712.419
-689.097
-666.468
-644.498
-623.16
-602.424
-582.268
-562.666
-543.595
-525.042
-506.988
-489.377
-472.294
-455.603
-439.355
-423.488
-408.084
-393.024
-378.326
-363.987
-350.013
-336.353
-323.003
-309.962
-297.223
-284.764
-272.574
-260.638
-248.955
-237.519
-226.318
-215.34
-204.586
-194.02
-183.659
-173.508
-163.553
95.1709
-292.047
-722.034
-1164.32
-1577.41
-1897.3
-2123.06
-2172.24
-2146.63
-2110.11
-2053.47
-1977.45
-1896.84