/*--------------------------------*- C++ -*----------------------------------*\
| =========                 |                                                 |
| \\      /  F ield         | OpenFOAM: The Open Source CFD Toolbox           |
|  \\    /   O peration     | Version:  2412                                  |
|   \\  /    A nd           | Website:  www.openfoam.com                      |
|    \\/     M anipulation  |                                                 |
\*---------------------------------------------------------------------------*/
FoamFile
{
    version     2.0;
    format      ascii;
    arch        "LSB;label=32;scalar=64";
    class       volScalarField;
    location    "500";
    object      p;
}
// * * * * * * * * * * * * * * * * * * * * * * * * * * * * * * * * * * * * * //

dimensions      [0 2 -2 0 0 0 0];

internalField   nonuniform List<scalar> 
8553
(
72.7401
51.6552
55.1301
59.9687
60.2554
49.5749
39.7989
43.1696
52.1023
53.1262
54.2151
53.5027
52.4943
51.1195
50.5828
50.4338
50.5925
50.8939
51.0676
50.8382
50.4575
49.9286
49.3972
48.9863
48.604
48.2512
47.8459
47.3936
46.9125
46.4232
45.9401
45.4514
44.9514
44.4331
43.9009
43.3577
42.805
42.2418
41.6674
41.0824
40.4879
39.8852
39.2753
38.6589
38.0373
37.4112
36.7811
36.1482
35.5136
34.8782
34.2447
33.6149
32.9877
32.3646
31.7479
31.1378
30.5355
29.9418
29.3577
28.7843
28.2229
27.6742
27.1386
26.6169
26.1108
25.6213
25.1489
24.6942
24.2578
23.8393
23.439
23.0584
22.6994
22.3617
22.0445
21.7475
21.473
21.2195
56.1074
56.2992
56.7969
57.0343
56.976
55.9155
54.4399
48.4356
44.9011
50.8552
56.61
59.8743
55.8916
46.5663
60.4649
72.6541
51.6874
55.1539
59.968
60.2412
49.5988
39.8379
43.1763
52.0945
53.1216
54.2132
53.5019
52.4945
51.1201
50.5833
50.4339
50.5923
50.8935
51.0672
50.838
50.4573
49.9286
49.3972
48.9862
48.604
48.2512
47.8459
47.3936
46.9125
46.4232
45.9401
45.4514
44.9514
44.4331
43.9009
43.3577
42.805
42.2418
41.6674
41.0824
40.4879
39.8852
39.2753
38.6589
38.0373
37.4112
36.7811
36.1483
35.5136
34.8782
34.2447
33.6149
32.9877
32.3647
31.7479
31.1378
30.5355
29.9419
29.3578
28.7843
28.2229
27.6742
27.1386
26.6169
26.1108
25.6213
25.1489
24.6942
24.2578
23.8393
23.439
23.0584
22.6994
22.3617
22.0445
21.7475
21.4731
21.2195
56.1076
56.2994
56.7968
57.0335
56.9743
55.9118
54.4338
48.4382
44.9266
50.876
56.6088
59.8576
55.8945
46.6392
60.4262
72.5642
51.719
55.1847
59.9569
60.2294
49.6261
39.8822
43.1841
52.0861
53.1166
54.2111
53.5009
52.4946
51.1208
50.5838
50.434
50.5921
50.8931
51.0668
50.8377
50.4572
49.9285
49.3972
48.9862
48.6039
48.2511
47.8458
47.3935
46.9125
46.4232
45.9401
45.4514
44.9514
44.4331
43.901
43.3577
42.805
42.2418
41.6674
41.0824
40.4879
39.8853
39.2753
38.659
38.0374
37.4112
36.7811
36.1483
35.5136
34.8782
34.2448
33.6149
32.9877
32.3647
31.7479
31.1379
30.5355
29.9419
29.3578
28.7844
28.2229
27.6742
27.1386
26.6169
26.1108
25.6213
25.1489
24.6942
24.2578
23.8393
23.439
23.0584
22.6994
22.3617
22.0445
21.7476
21.4731
21.2195
56.1077
56.2997
56.7967
57.0326
56.9725
55.9078
54.4271
48.4411
44.9562
50.9006
56.6085
59.8406
55.8843
46.7129
60.3834
72.4645
51.7568
55.2254
59.9408
60.2192
49.6645
39.9369
43.1961
52.0774
53.1113
54.2087
53.4998
52.4948
51.1216
50.5844
50.4341
50.592
50.8927
51.0663
50.8373
50.457
49.9284
49.3972
48.9862
48.6039
48.251
47.8458
47.3935
46.9125
46.4232
45.9401
45.4514
44.9514
44.4331
43.901
43.3577
42.805
42.2418
41.6674
41.0825
40.4879
39.8853
39.2753
38.659
38.0374
37.4113
36.7812
36.1483
35.5137
34.8782
34.2448
33.6149
32.9877
32.3647
31.7479
31.1379
30.5356
29.9419
29.3578
28.7844
28.2229
27.6743
27.1386
26.6169
26.1108
25.6213
25.1489
24.6942
24.2578
23.8394
23.439
23.0585
22.6994
22.3617
22.0445
21.7476
21.4731
21.2195
56.1079
56.2999
56.7965
57.0316
56.9705
55.9036
54.4202
48.4465
44.9926
50.9291
56.6178
59.8256
55.8786
46.7892
60.3491
72.3443
51.8002
55.2854
59.9315
60.2172
49.7122
40.009
43.2168
52.0688
53.1054
54.2056
53.4985
52.4948
51.1225
50.5852
50.4345
50.5919
50.8922
51.0658
50.837
50.4568
49.9284
49.3972
48.9862
48.6039
48.251
47.8457
47.3935
46.9125
46.4232
45.9401
45.4515
44.9515
44.4331
43.901
43.3578
42.8051
42.2418
41.6675
41.0825
40.488
39.8853
39.2754
38.659
38.0374
37.4113
36.7812
36.1483
35.5137
34.8783
34.2448
33.615
32.9878
32.3647
31.748
31.1379
30.5356
29.9419
29.3578
28.7844
28.223
27.6743
27.1387
26.6169
26.1108
25.6214
25.149
24.6942
24.2578
23.8394
23.4391
23.0585
22.6995
22.3617
22.0446
21.7476
21.4731
21.2196
56.1083
56.3003
56.7963
57.0305
56.9682
55.899
54.4131
48.4569
45.0413
50.9639
56.6267
59.8127
55.8949
46.8814
60.3408
72.1913
51.8421
55.3728
59.9321
60.2144
49.768
40.1062
43.2515
52.0604
53.0983
54.2014
53.4967
52.4947
51.1237
50.5864
50.4351
50.5919
50.8918
51.0652
50.8365
50.4565
49.9283
49.3972
48.9862
48.6038
48.2509
47.8457
47.3935
46.9125
46.4232
45.9402
45.4515
44.9515
44.4332
43.901
43.3578
42.8051
42.2419
41.6675
41.0826
40.488
39.8854
39.2754
38.6591
38.0375
37.4114
36.7813
36.1484
35.5138
34.8783
34.2449
33.615
32.9878
32.3648
31.748
31.138
30.5357
29.942
29.3579
28.7845
28.223
27.6744
27.1387
26.617
26.1109
25.6214
25.149
24.6943
24.2579
23.8394
23.4391
23.0585
22.6995
22.3618
22.0446
21.7477
21.4732
21.2196
56.1088
56.3009
56.7961
57.0291
56.9653
55.8938
54.4061
48.4757
45.1085
51.0069
56.6101
59.8038
55.9289
46.9923
60.3306
71.992
51.883
55.4899
59.9439
60.1895
49.8369
40.2366
43.3064
52.0526
53.0896
54.1957
53.4941
52.4945
51.1255
50.5884
50.4363
50.5923
50.8914
51.0644
50.8359
50.4562
49.9282
49.3973
48.9863
48.6039
48.2509
47.8457
47.3935
46.9125
46.4233
45.9402
45.4515
44.9515
44.4332
43.9011
43.3579
42.8052
42.242
41.6676
41.0826
40.4881
39.8855
39.2755
38.6592
38.0376
37.4114
36.7813
36.1485
35.5138
34.8784
34.245
33.6151
32.9879
32.3649
31.7481
31.1381
30.5357
29.9421
29.358
28.7846
28.2231
27.6744
27.1388
26.6171
26.111
25.6215
25.1491
24.6944
24.258
23.8395
23.4392
23.0586
22.6996
22.3619
22.0447
21.7477
21.4732
21.2197
56.1097
56.3017
56.7959
57.0275
56.9617
55.8877
54.3996
48.5073
45.1961
51.0576
56.5886
59.8043
55.9884
47.1074
60.2747
71.7248
51.9358
55.6253
59.9749
60.1636
49.9372
40.3978
43.3872
52.0453
53.0784
54.1876
53.4905
52.4942
51.1283
50.5913
50.4383
50.593
50.891
51.0634
50.8352
50.4558
49.9282
49.3975
48.9864
48.6039
48.2509
47.8457
47.3935
46.9126
46.4234
45.9403
45.4516
44.9516
44.4333
43.9012
43.358
42.8053
42.2421
41.6677
41.0828
40.4882
39.8856
39.2756
38.6593
38.0377
37.4116
36.7815
36.1486
35.514
34.8785
34.2451
33.6152
32.9881
32.365
31.7482
31.1382
30.5359
29.9422
29.3581
28.7847
28.2232
27.6746
27.1389
26.6172
26.1111
25.6216
25.1492
24.6945
24.2581
23.8396
23.4393
23.0587
22.6997
22.362
22.0448
21.7479
21.4734
21.2198
56.1112
56.3031
56.7956
57.0253
56.957
55.8806
54.3938
48.5553
45.3057
51.1237
56.5843
59.8171
56.0868
47.2045
60.1458
71.3738
51.9725
55.7572
60.039
60.157
50.0869
40.5947
43.4996
52.0383
53.0638
54.1762
53.4855
52.4938
51.1324
50.5959
50.4415
50.5944
50.8907
51.0621
50.8341
50.4553
49.9282
49.3978
48.9867
48.6041
48.251
47.8457
47.3935
46.9127
46.4235
45.9405
45.4518
44.9518
44.4335
43.9014
43.3582
42.8055
42.2423
41.6679
41.0829
40.4884
39.8858
39.2758
38.6595
38.0379
37.4118
36.7817
36.1488
35.5142
34.8787
34.2453
33.6155
32.9883
32.3652
31.7484
31.1384
30.5361
29.9424
29.3583
28.7849
28.2234
27.6748
27.1391
26.6174
26.1113
25.6218
25.1494
24.6947
24.2583
23.8398
23.4395
23.0589
22.6999
22.3622
22.045
21.7481
21.4736
21.22
56.1135
56.3052
56.7954
57.0226
56.9509
55.8721
54.3889
48.6238
45.4499
51.2205
56.5845
59.8345
56.2308
47.2591
59.9412
70.9136
51.9445
55.8744
60.1556
60.1635
50.3057
40.8421
43.6519
52.0294
53.0451
54.1606
53.4786
52.4934
51.1385
50.6026
50.4462
50.5965
50.8904
51.0604
50.8327
50.4546
49.9282
49.3983
48.9871
48.6044
48.251
47.8457
47.3937
46.9129
46.4238
45.9407
45.452
44.952
44.4337
43.9016
43.3584
42.8058
42.2425
41.6682
41.0832
40.4887
39.8861
39.2761
38.6598
38.0382
37.4121
36.782
36.1491
35.5145
34.8791
34.2456
33.6158
32.9886
32.3655
31.7488
31.1387
30.5364
29.9427
29.3586
28.7852
28.2238
27.6751
27.1394
26.6177
26.1116
25.6221
25.1497
24.695
24.2586
23.8402
23.4398
23.0592
22.7002
22.3625
22.0453
21.7484
21.4739
21.2203
56.3083
56.7953
57.0192
56.9432
55.8623
54.3852
48.7178
45.641
51.36
56.598
59.8556
56.4176
47.2718
59.6241
70.2751
51.8244
55.9759
60.3186
60.1837
50.6245
41.1553
43.8544
52.0165
53.022
54.14
53.4696
52.4933
51.1473
50.6122
50.453
50.5997
50.8901
51.058
50.8309
50.4537
49.9283
49.399
48.9878
48.6048
48.2512
47.8458
47.3938
46.9131
46.4241
45.941
45.4523
44.9523
44.434
43.902
43.3588
42.8061
42.2429
41.6686
41.0836
40.4891
39.8865
39.2765
38.6602
38.0386
37.4125
36.7824
36.1495
35.5149
34.8795
34.2461
33.6162
32.989
32.366
31.7492
31.1392
30.5368
29.9432
29.3591
28.7857
28.2242
27.6755
27.1399
26.6182
26.1121
25.6226
25.1502
24.6955
24.2591
23.8406
23.4403
23.0597
22.7007
22.363
22.0458
21.7488
21.4743
21.2208
20.9871
20.7751
20.5862
56.3129
56.7955
57.0151
56.9337
55.8511
54.3835
48.8426
45.8848
51.5459
56.6442
59.8998
56.6397
47.2656
59.1703
69.4842
51.63
56.0392
60.5
60.2192
51.0311
41.5757
44.112
51.9992
52.9946
54.1137
53.4582
52.4934
51.1595
50.6253
50.4623
50.6041
50.8898
51.0549
50.8283
50.4524
49.9284
49.4001
48.9887
48.6053
48.2513
47.8458
47.3939
46.9135
46.4245
45.9414
45.4527
44.9527
44.4344
43.9024
43.3592
42.8066
42.2434
41.6691
41.0841
40.4896
39.887
39.2771
38.6608
38.0392
37.4131
36.783
36.1501
35.5155
34.8801
34.2467
33.6168
32.9896
32.3666
31.7498
31.1398
30.5375
29.9438
29.3597
28.7863
28.2249
27.6762
27.1406
26.6188
26.1127
25.6233
25.1508
24.6961
24.2597
23.8413
23.4409
23.0604
22.7013
22.3636
22.0464
21.7495
21.475
21.2214
20.9878
20.7758
20.5868
56.3196
56.7962
57.0103
56.9222
55.839
54.3847
49.0031
46.1872
51.7823
56.739
59.9642
56.8907
47.2277
58.5833
68.5575
51.3658
56.0212
60.6939
60.235
51.5207
42.1198
44.4277
51.9771
52.964
54.0814
53.4442
52.494
51.1757
50.6425
50.4747
50.6101
50.8897
51.0508
50.8251
50.4507
49.9285
49.4015
48.9899
48.606
48.2515
47.8458
47.3941
46.9138
46.425
45.9419
45.4532
44.9532
44.4349
43.9029
43.3598
42.8072
42.244
41.6697
41.0848
40.4903
39.8877
39.2778
38.6615
38.0399
37.4138
36.7837
36.1509
35.5163
34.8809
34.2475
33.6176
32.9905
32.3674
31.7507
31.1406
30.5383
29.9447
29.3606
28.7872
28.2257
27.6771
27.1414
26.6197
26.1136
25.6241
25.1517
24.697
24.2606
23.8422
23.4418
23.0613
22.7022
22.3645
22.0473
21.7504
21.4759
21.2223
20.9887
20.7767
20.5877
56.3288
56.7979
57.0049
56.9089
55.8271
54.3906
49.2036
46.5554
52.0602
56.844
60.0374
57.1476
47.1233
57.8137
67.3836
50.9598
55.9176
60.8838
60.2434
52.1136
42.7639
44.8048
51.9512
52.9317
54.043
53.4278
52.4953
51.1965
50.6646
50.4907
50.6181
50.8897
51.0458
50.821
50.4486
49.9287
49.4032
48.9913
48.6069
48.2516
47.8458
47.3943
46.9142
46.4255
45.9425
45.4537
44.9537
44.4355
43.9036
43.3605
42.8079
42.2448
41.6705
41.0856
40.4911
39.8886
39.2787
38.6624
38.0409
37.4148
36.7847
36.1519
35.5173
34.8819
34.2485
33.6187
32.9915
32.3685
31.7518
31.1417
30.5395
29.9458
29.3617
28.7883
28.2269
27.6782
27.1426
26.6209
26.1148
25.6253
25.1529
24.6981
24.2618
23.8433
23.443
23.0624
22.7034
22.3656
22.0485
21.7515
21.477
21.2235
20.9898
20.7778
20.5888
56.3414
56.8008
56.9995
56.8943
55.8168
54.4038
49.4486
46.9978
52.3877
56.9461
60.1192
57.384
46.9372
56.8268
65.9898
50.3779
55.757
60.9931
60.3489
52.8095
43.5043
45.2448
51.9236
52.9001
53.999
53.409
52.4973
51.2226
50.6922
50.5109
50.6285
50.8903
51.0399
50.8161
50.446
49.9288
49.4054
48.9931
48.6079
48.2518
47.8457
47.3944
46.9147
46.4262
45.9432
45.4544
44.9544
44.4363
43.9044
43.3614
42.8088
42.2457
41.6715
41.0866
40.4922
39.8897
39.2798
38.6636
38.0421
37.416
36.786
36.1532
35.5186
34.8833
34.2499
33.6201
32.9929
32.3699
31.7532
31.1431
30.5409
29.9472
29.3631
28.7897
28.2283
27.6796
27.144
26.6223
26.1162
25.6267
25.1543
24.6996
24.2632
23.8447
23.4444
23.0638
22.7048
22.3671
22.0499
21.753
21.4785
21.2249
20.9912
20.7793
20.5903
56.3582
56.8056
56.9946
56.8793
55.8103
54.4275
49.7426
47.5207
52.8021
57.103
60.1979
57.5722
46.6523
55.6281
64.4054
49.639
55.5338
60.9568
60.5655
53.5066
44.3387
45.7505
51.897
52.872
53.95
53.3882
52.5005
51.2545
50.7261
50.5362
50.642
50.8917
51.0331
50.8104
50.4429
49.9291
49.4081
48.9954
48.6092
48.252
47.8456
47.3946
46.9153
46.4271
45.944
45.4552
44.9552
44.4372
43.9054
43.3625
42.8099
42.2469
41.6727
41.0879
40.4935
39.8911
39.2813
38.665
38.0436
37.4176
36.7876
36.1548
35.5202
34.8849
34.2515
33.6217
32.9946
32.3716
31.7549
31.1449
30.5426
29.949
29.3649
28.7915
28.2301
27.6814
27.1458
26.6241
26.118
25.6285
25.1561
24.7014
24.265
23.8465
23.4462
23.0656
22.7066
22.3688
22.0517
21.7547
21.4802
21.2267
20.993
20.781
20.592
56.3801
56.8132
56.991
56.8653
55.8106
54.4661
50.0901
48.1276
53.3094
57.2894
60.2524
57.6703
46.2656
54.243
62.6445
48.7264
55.2185
60.7321
60.8243
54.1252
45.2543
46.3264
51.8743
52.8507
53.8973
53.3662
52.5053
51.2931
50.7671
50.5674
50.6592
50.8944
51.0258
50.8039
50.4393
49.9294
49.4114
48.9982
48.611
48.2523
47.8455
47.3949
46.916
46.4281
45.945
45.4562
44.9562
44.4383
43.9066
43.3638
42.8113
42.2483
41.6742
41.0895
40.4952
39.8928
39.283
38.6669
38.0454
37.4195
36.7895
36.1568
35.5222
34.8869
34.2536
33.6238
32.9967
32.3737
31.757
31.147
30.5447
29.9511
29.367
28.7936
28.2322
27.6835
27.1479
26.6262
26.1201
25.6306
25.1582
24.7035
24.2671
23.8487
23.4483
23.0678
22.7087
22.371
22.0538
21.7569
21.4824
21.2288
20.9952
20.7832
20.5942
56.8245
56.9901
56.8541
55.8212
54.5245
50.4954
48.8163
53.9121
57.4966
60.2647
57.6449
45.7674
52.7145
60.7437
47.6398
54.7881
60.2438
61.1575
54.7704
46.2235
46.9699
51.8667
52.8401
53.843
53.344
52.5126
51.3392
50.8161
50.6054
50.681
50.8989
51.018
50.7968
50.4354
49.93
49.4155
49.0017
48.6132
48.2529
47.8456
47.3953
46.917
46.4294
45.9464
45.4575
44.9575
44.4397
43.9082
43.3655
42.8131
42.2502
41.6761
41.0915
40.4973
39.8949
39.2852
38.6691
38.0477
37.4218
36.7919
36.1592
35.5247
34.8894
34.2561
33.6263
32.9992
32.3763
31.7596
31.1496
30.5473
29.9537
29.3696
28.7962
28.2348
27.6862
27.1505
26.6288
26.1227
25.6333
25.1608
24.7061
24.2697
23.8513
23.4509
23.0704
22.7113
22.3736
22.0564
21.7595
21.485
21.2314
20.9977
20.7857
20.5968
56.8484
55.8463
54.6084
50.962
49.5772
54.5964
57.7393
60.2135
57.5061
45.0993
51.1084
58.7526
46.371
54.2209
59.4129
61.72
55.3881
47.2282
47.6697
51.8954
52.8443
53.7898
53.3235
52.5235
51.3939
50.8742
50.6514
50.7083
50.906
51.0104
50.7895
50.4312
49.931
49.4206
49.0061
48.6162
48.2539
47.846
47.396
46.9183
46.4312
45.9482
45.4592
44.9592
44.4415
43.9102
43.3676
42.8153
42.2525
41.6785
41.094
40.4998
39.8975
39.2879
38.6718
38.0505
37.4246
36.7948
36.1621
35.5276
34.8924
34.2591
33.6294
33.0023
32.3794
31.7627
31.1527
30.5504
29.9568
29.3728
28.7994
28.238
27.6893
27.1537
26.632
26.1259
25.6364
25.164
24.7093
24.2728
23.8544
23.4541
23.0735
22.7144
22.3767
22.0595
21.7626
21.4881
21.2345
21.0009
20.7888
20.5999
56.8515
55.891
54.724
51.4917
50.4
55.3098
57.9943
59.8982
57.254
44.2212
49.508
56.7577
44.9221
53.5193
58.4154
62.4448
55.9004
48.2624
48.4156
51.9756
52.8685
53.7417
53.3068
52.5398
51.4584
50.9427
50.7066
50.7422
50.9164
51.0035
50.7822
50.4272
49.9328
49.427
49.0117
48.6202
48.2555
47.8468
47.3971
46.9201
46.4335
45.9505
45.4614
44.9615
44.4439
43.9127
43.3703
42.8181
42.2553
41.6815
41.097
40.503
39.9007
39.2912
38.6752
38.0539
37.4281
36.7983
36.1657
35.5313
34.896
34.2628
33.6331
33.006
32.3831
31.7664
31.1565
30.5542
29.9606
29.3765
28.8032
28.2418
27.6931
27.1575
26.6358
26.1297
25.6402
25.1677
24.713
24.2766
23.8581
23.4578
23.0772
22.7182
22.3804
22.0632
21.7663
21.4918
21.2382
21.0046
20.7926
20.6036
56.8674
55.9607
54.8778
52.083
51.2821
56.0021
58.2829
59.2631
56.809
43.1339
47.9607
54.8109
43.3603
52.5758
57.6398
63.1239
56.3236
49.3069
49.1989
52.1178
52.9189
53.7037
53.2971
52.5635
51.5342
51.0227
50.7722
50.7838
50.9312
50.998
50.7756
50.4236
49.9355
49.4349
49.0188
48.6254
48.2579
47.8481
47.3989
46.9225
46.4365
45.9535
45.4643
44.9643
44.4469
43.9159
43.3736
42.8216
42.2589
41.6852
41.1008
40.5068
39.9047
39.2952
38.6793
38.0581
37.4323
36.8026
36.17
35.5356
34.9004
34.2672
33.6375
33.0105
32.3876
31.7709
31.161
30.5587
29.9651
29.3811
28.8077
28.2463
27.6976
27.162
26.6403
26.1342
25.6447
25.1723
24.7175
24.2811
23.8626
23.4623
23.0817
22.7226
22.3849
22.0677
21.7707
21.4962
21.2427
21.009
20.797
20.608
56.9013
56.0625
55.0811
52.7363
52.2106
56.6367
58.7383
58.6509
56.0432
41.8916
46.4086
52.7773
41.8065
51.2861
57.1655
63.2954
56.7022
50.3481
50.0073
52.3345
53.0017
53.6822
53.2982
52.5975
51.6228
51.1158
50.8498
50.8346
50.9515
50.9949
50.7702
50.4209
49.9396
49.4447
49.0276
48.6321
48.2614
47.8504
47.4014
46.9258
46.4403
45.9573
45.4681
44.968
44.4507
43.92
43.3778
42.8259
42.2633
41.6897
41.1054
40.5116
39.9095
39.3001
38.6843
38.0632
37.4375
36.8077
36.1752
35.5409
34.9057
34.2725
33.6429
33.0159
32.393
31.7764
31.1664
30.5642
29.9706
29.3865
28.8131
28.2517
27.7031
27.1674
26.6457
26.1396
25.6501
25.1776
24.7229
24.2864
23.868
23.4676
23.087
22.728
22.3902
22.073
21.776
21.5015
21.2479
21.0143
20.8023
20.6133
53.4446
53.2098
57.2093
59.3586
58.1061
54.9315
40.6338
44.9285
50.8564
40.3812
49.7797
56.8324
62.9585
57.0548
51.3888
50.8319
52.6327
53.1239
53.6845
53.3152
52.645
51.7263
51.2234
50.9409
50.896
50.9786
50.9954
50.7671
50.4198
49.9456
49.4568
49.0385
48.6406
48.2662
47.8536
47.4049
46.9301
46.4453
45.9622
45.4728
44.9726
44.4556
43.925
43.383
42.8312
42.2687
41.6952
41.1111
40.5173
39.9154
39.3061
38.6903
38.0693
37.4436
36.8139
36.1815
35.5472
34.9121
34.2789
33.6493
33.0223
32.3995
31.7828
31.1729
30.5707
29.977
29.393
28.8196
28.2582
27.7095
27.1739
26.6521
26.146
25.6565
25.184
24.7293
24.2928
23.8743
23.4739
23.0933
22.7343
22.3965
22.0792
21.7823
21.5078
21.2542
21.0205
20.8085
20.6196
54.1995
54.1413
57.8348
60.03
57.4467
53.5855
39.5242
43.7727
49.6
39.1623
48.1572
56.4178
62.7173
57.3297
52.4287
51.6777
52.9989
53.2935
53.7188
53.3538
52.7105
51.8469
51.3473
51.0472
50.9697
51.0142
51.001
50.7671
50.421
49.954
49.4715
49.0519
48.6513
48.2727
47.8583
47.4096
46.9357
46.4516
45.9684
45.4788
44.9785
44.4616
43.9312
43.3894
42.8377
42.2754
41.702
41.1179
40.5243
39.9225
39.3132
38.6975
38.0766
37.451
36.8214
36.189
35.5547
34.9196
34.2865
33.657
33.03
32.4072
31.7905
31.1806
30.5784
29.9848
29.4007
28.8273
28.2659
27.7172
27.1815
26.6598
26.1537
25.6641
25.1916
24.7368
24.3003
23.8818
23.4815
23.1008
22.7417
22.4039
22.0867
21.7897
21.5152
21.2616
21.0279
20.8159
20.627
54.9786
55.0407
58.5275
60.7423
56.908
52.2192
38.5605
43.0156
49.1712
38.1917
46.7413
56.4252
62.5679
57.5586
53.4389
52.5522
53.423
53.5176
53.7942
53.4211
52.7987
51.9873
51.4896
51.1704
51.0574
51.06
51.0134
50.7718
50.4255
49.9655
49.4895
49.0683
48.6647
48.2812
47.8647
47.416
46.9429
46.4594
45.9762
45.4863
44.9858
44.469
43.9389
43.3973
42.8457
42.2834
41.7101
41.1262
40.5327
39.931
39.3218
38.7063
38.0854
37.4599
36.8303
36.198
35.5638
34.9287
34.2956
33.6661
33.0391
32.4163
31.7997
31.1898
30.5875
29.9939
29.4098
28.8364
28.275
27.7263
27.1906
26.6688
26.1627
25.6731
25.2006
24.7458
24.3093
23.8907
23.4904
23.1097
22.7506
22.4128
22.0955
21.7985
21.5239
21.2703
21.0366
20.8246
20.6357
51.1094
37.859
42.7851
49.745
37.8573
46.1594
56.9921
62.2911
57.8827
54.4589
53.4487
53.9125
53.8023
53.9199
53.5247
52.9156
52.1506
51.6523
51.3124
51.161
51.118
51.0346
50.7826
50.4344
49.9809
49.5112
49.0881
48.6811
48.2923
47.8733
47.4243
46.9519
46.4692
45.9857
45.4956
44.9948
44.4782
43.9482
43.4069
42.8554
42.2932
41.7201
41.1363
40.5429
39.9413
39.3322
38.7167
38.0959
37.4705
36.841
36.2087
35.5745
34.9395
34.3064
33.6769
33.05
32.4272
31.8106
31.2006
30.5984
30.0048
29.4207
28.8473
28.2858
27.7371
27.2014
26.6796
26.1734
25.6838
25.2112
24.7564
24.3198
23.9013
23.5008
23.1202
22.761
22.4232
22.1058
21.8088
21.5342
21.2806
21.0469
20.8349
20.646
50.4621
37.7799
43.2669
51.4267
38.8174
46.827
57.7226
62.0419
58.3502
55.5164
54.365
54.4673
54.1538
54.1052
53.6728
53.0674
52.3405
51.8379
51.4752
51.2824
51.1904
51.067
50.8014
50.4492
50.0013
49.5373
49.1121
48.7012
48.3065
47.8845
47.4351
46.9633
46.4812
45.9976
45.507
45.006
44.4894
43.9597
43.4185
42.8671
42.3051
41.732
41.1484
40.5551
39.9536
39.3446
38.7292
38.1085
37.4831
36.8536
36.2214
35.5873
34.9523
34.3193
33.6898
33.0628
32.44
31.8234
31.2135
30.6112
30.0176
29.4335
28.86
28.2985
27.7498
27.2141
26.6922
26.186
25.6964
25.2238
24.7689
24.3323
23.9136
23.5132
23.1325
22.7733
22.4354
22.118
21.821
21.5464
21.2927
21.059
20.8471
20.6581
50.7199
38.6923
44.9209
54.4051
41.8833
48.9593
58.8568
61.9795
58.9748
56.5742
55.3083
55.0872
54.5768
54.3583
53.8739
53.2607
52.5608
52.0492
51.6607
51.4238
51.2795
51.1131
50.8304
50.4716
50.0279
49.5687
49.1408
48.7257
48.3245
47.8992
47.4489
46.9777
46.4961
46.0122
45.5212
45.0198
44.5033
43.9737
43.4327
42.8814
42.3194
41.7464
41.1629
40.5697
39.9683
39.3594
38.744
38.1234
37.4981
36.8687
36.2365
35.6024
34.9674
34.3344
33.705
33.078
32.4552
31.8386
31.2287
30.6264
30.0327
29.4485
28.8751
28.3135
27.7647
27.229
26.7071
26.2008
25.7111
25.2385
24.7835
24.3469
23.9282
23.5277
23.147
22.7877
22.4498
22.1323
21.8353
21.5606
21.3069
21.0732
20.8613
20.6723
52.7558
41.0259
48.3533
59.2867
47.2892
52.484
60.5215
62.1
59.8052
57.6403
56.2823
55.7711
55.0746
54.6864
54.1358
53.5024
52.8162
52.2892
51.8711
51.5872
51.388
51.1757
50.8721
50.5038
50.0623
49.6065
49.1754
48.7554
48.3473
47.9181
47.4666
46.9957
46.5146
46.0302
45.5386
45.0368
44.5203
43.9908
43.4499
42.8986
42.3367
41.7638
41.1803
40.5872
39.9859
39.377
38.7617
38.1412
37.5159
36.8865
36.2544
35.6203
34.9853
34.3523
33.7229
33.096
32.4732
31.8565
31.2465
30.6442
30.0505
29.4662
28.8927
28.3312
27.7823
27.2465
26.7245
26.2182
25.7285
25.2558
24.8007
24.364
23.9453
23.5447
23.1639
22.8046
22.4666
22.1491
21.852
21.5773
21.3235
21.0898
20.8779
20.689
56.5871
45.2849
54.0916
66.4541
54.7339
57.2842
62.8133
62.6797
60.8773
58.7503
57.2948
56.5183
55.6491
55.0939
54.4647
53.7976
53.1105
52.5606
52.1087
51.7749
51.5184
51.2579
50.9292
50.5482
50.1064
49.6522
49.217
48.7915
48.3759
47.9423
47.4892
47.0183
46.5374
46.0524
45.5601
45.0577
44.5411
44.0117
43.4708
42.9195
42.3575
41.7847
41.2012
40.6082
40.0068
39.398
38.7828
38.1622
37.537
36.9077
36.2755
35.6414
35.0064
34.3734
33.744
33.117
32.4942
31.8775
31.2675
30.6651
30.0713
29.487
28.9135
28.3518
27.8029
27.267
26.745
26.2386
25.7487
25.2759
24.8208
24.384
23.9652
23.5646
23.1837
22.8243
22.4862
22.1687
21.8715
21.5967
21.3429
21.1092
20.8973
20.7084
61.933
51.4486
62.04
75.2875
63.8464
63.1828
65.5808
63.926
62.1851
59.935
58.3527
57.3289
56.2999
55.5838
54.8666
54.1527
53.4489
52.8671
52.3756
51.989
51.6731
51.3624
51.0049
50.6076
50.1625
49.7076
49.2673
48.8355
48.4118
47.9733
47.518
47.0466
46.5656
46.0798
45.5867
45.0835
44.5666
44.0371
43.4962
42.9448
42.3827
41.8098
41.2263
40.6332
40.0319
39.423
38.8077
38.1872
37.562
36.9326
36.3004
35.6663
35.0312
34.3982
33.7688
33.1418
32.5189
31.9021
31.292
30.6896
30.0957
29.5113
28.9377
28.3759
27.8269
27.2909
26.7688
26.2623
25.7724
25.2995
24.8443
24.4073
23.9884
23.5878
23.2068
22.8473
22.5091
22.1915
21.8943
21.6194
21.3655
21.1318
20.9198
20.7309
68.1141
59.3975
71.4524
84.6276
73.7342
69.5701
68.6491
65.7751
63.6927
61.2176
59.462
58.2026
57.0234
56.1535
55.34
54.5668
53.8312
53.2091
52.6734
52.2314
51.8552
51.4925
51.1025
50.6853
50.2334
49.775
49.3282
48.8892
48.4568
48.0127
47.5545
47.082
46.6005
46.1136
45.6194
45.1153
44.5979
44.0681
43.527
42.9753
42.413
41.8399
41.2563
40.663
40.0616
39.4526
38.8372
38.2167
37.5914
36.9619
36.3296
35.6955
35.0603
34.4273
33.7978
33.1707
32.5477
31.9309
31.3206
30.7181
30.1241
29.5396
28.9659
28.404
27.8549
27.3188
26.7966
26.29
25.7999
25.3269
24.8715
24.4344
24.0154
23.6147
23.2336
22.874
22.5357
22.218
21.9207
21.6457
21.3917
21.158
20.946
20.7571
73.4797
68.6286
82.0193
94.0725
83.3072
76.1522
71.9527
67.9924
65.3596
62.5998
60.6246
59.1343
57.8136
56.799
55.8873
55.0462
54.2647
53.5919
53.0045
52.5037
52.0658
51.65
51.2244
50.7841
50.3219
49.8571
49.4022
48.9549
48.5131
48.0626
47.6007
47.1265
46.6438
46.1553
45.6597
45.1544
44.6362
44.1058
43.5642
43.0121
42.4493
41.8759
41.292
40.6985
40.0968
39.4876
38.8721
38.2514
37.6259
36.9963
36.3639
35.7296
35.0943
34.4612
33.8316
33.2043
32.5813
31.9643
31.354
30.7513
30.1571
29.5725
28.9986
28.4367
27.8874
27.3511
26.8288
26.322
25.8318
25.3586
24.9031
24.4659
24.0468
23.6459
23.2647
22.905
22.5665
22.2486
21.9513
21.6761
21.4221
21.1883
20.9764
20.7875
77.5384
78.0164
92.9519
102.906
91.6892
82.0351
75.275
70.3999
67.1393
64.0684
61.8292
60.1115
58.6593
57.5093
56.4958
55.5742
54.7335
54.0054
53.3658
52.8065
52.308
51.8391
51.3752
50.9084
50.4316
49.9571
49.4922
49.0352
48.5832
48.1255
47.6589
47.182
46.6973
46.2067
45.7093
45.2024
44.683
44.1518
43.6094
43.0564
42.493
41.919
41.3345
40.7405
40.1383
39.5288
38.9129
38.2919
37.6663
37.0364
36.4038
35.7694
35.1338
34.5005
33.8709
33.2434
32.6202
32.0031
31.3926
30.7897
30.1954
29.6106
29.0365
28.4744
27.925
27.3885
26.866
26.359
25.8687
25.3953
24.9396
24.5022
24.0829
23.6819
23.3005
22.9407
22.6021
22.2841
21.9866
21.7113
21.4571
21.2234
21.0114
20.8226
80.3491
86.6782
102.093
109.061
98.0756
86.8406
78.3578
72.8194
68.9424
65.5705
63.056
61.1234
59.5446
58.2651
57.1575
56.1627
55.2591
54.4644
53.7627
53.1404
52.5801
52.0575
51.554
51.0588
50.5648
50.0778
49.6011
49.1329
48.67
48.204
47.7315
47.2509
46.7633
46.27
45.77
45.2608
44.7394
44.2067
43.6631
43.1091
42.5447
41.9699
41.3847
40.7901
40.1875
39.5773
38.961
38.3396
37.7136
37.0833
36.4504
35.8156
35.1796
34.5461
33.9163
33.2885
32.6651
32.0478
31.437
30.8339
30.2394
29.6544
29.0801
28.5178
27.9682
27.4315
26.9088
26.4017
25.9111
25.4375
24.9816
24.544
24.1245
23.7233
23.3418
22.9818
22.6431
22.3249
22.0273
21.7519
21.4976
21.2638
21.0519
20.863
82.2415
93.4045
108.508
112.222
102.318
90.3548
81.0096
75.0793
70.7162
67.0979
64.2631
62.1037
60.4196
59.0513
57.8684
56.7738
55.7719
54.9175
54.1742
53.4974
52.8829
52.3111
51.7682
51.2423
50.7269
50.2234
49.7323
49.2513
48.7764
48.301
47.8215
47.3356
46.8434
46.3458
45.8431
45.332
44.8089
44.2743
43.7288
43.173
42.6071
42.0308
41.4439
40.8478
40.244
39.633
39.0158
38.394
37.7674
37.1367
36.5035
35.8685
35.232
34.5983
33.9683
33.3403
32.7166
32.0991
31.4881
30.8847
30.2899
29.7046
29.1301
28.5675
28.0177
27.4808
26.9578
26.4505
25.9597
25.4859
25.0298
24.5919
24.1723
23.7709
23.3892
23.029
22.6901
22.3717
22.074
21.7984
21.544
21.3101
21.0982
20.9094
84.4565
97.0004
112.206
113.367
104.593
92.5095
83.07
77.0043
72.3378
68.4466
65.3754
63.0864
61.3288
59.824
58.5284
57.3766
56.351
55.439
54.6222
53.8848
53.2115
52.5882
52.0049
51.4488
50.9121
50.392
49.8858
49.3909
48.9031
48.4173
47.9295
47.4375
46.9411
46.4405
45.934
45.4173
44.8894
44.3515
43.8034
43.2454
42.6773
42.0992
41.5109
40.9137
40.309
39.6969
39.0789
38.4565
37.8295
37.1982
36.5646
35.9291
35.292
34.658
34.0277
33.3991
32.775
32.1572
31.5459
30.9423
30.3473
29.7617
29.187
28.6242
28.0741
27.537
27.0137
26.5062
26.0151
25.5411
25.0847
24.6466
24.2268
23.8253
23.4434
23.083
22.7439
22.4253
22.1275
21.8517
21.5971
21.3633
21.1514
20.9626
86.4236
97.8894
113.544
112.123
105.119
93.3349
84.4272
78.5795
73.622
69.6976
66.4847
64.0003
62.0996
60.5122
59.1541
57.9455
56.8678
55.9068
55.0491
54.2711
53.5567
52.8965
52.2806
51.6952
51.1335
50.5918
50.0668
49.5555
49.0532
48.5553
48.0579
47.5581
47.0545
46.5466
46.0331
45.5115
44.9803
44.4394
43.8885
43.3279
42.7575
42.1774
41.5877
40.9892
40.3832
39.77
39.1511
38.5275
37.8996
37.2678
36.6336
35.9974
35.3592
34.725
34.095
33.466
32.8414
32.223
31.6113
31.0074
30.4121
29.8263
29.2513
28.6883
28.1381
27.6007
27.0771
26.5693
26.078
25.6038
25.1471
24.7088
24.2888
23.887
23.5049
23.1444
22.8051
22.4863
22.1883
21.9124
21.6576
21.4237
21.2119
21.0232
86.9714
97.116
112.937
107.397
103.752
92.9628
85.1821
79.7107
74.6641
70.567
67.2957
64.7849
62.8207
61.1587
59.7505
58.4976
57.3841
56.3833
55.4826
54.6627
53.9079
53.2105
52.5628
51.9515
51.3688
50.809
50.2673
49.7404
49.2236
48.713
48.2048
47.6962
47.185
46.6701
46.15
45.6225
45.0861
44.5406
43.9858
43.4217
42.8483
42.2656
41.6737
41.0735
40.4658
39.8514
39.2312
38.6064
37.9774
37.3447
36.7097
36.073
35.4352
34.8008
34.1697
33.5402
32.9153
32.2967
31.6847
31.0805
30.4849
29.8989
29.3236
28.7603
28.2097
27.672
27.1484
26.6405
26.149
25.6745
25.2176
24.779
24.3588
23.9568
23.5744
23.2138
22.8743
22.5553
22.2571
21.9809
21.726
21.4921
21.2803
21.0914
20.9261
86.5304
94.9507
110.22
101.819
100.95
91.5138
85.6423
79.7148
75.4502
71.1603
67.9354
65.3886
63.3939
61.6905
60.2357
58.9626
57.8182
56.7924
55.8663
55.0223
54.2442
53.5242
52.8538
52.2216
51.6198
51.0418
50.4834
49.941
49.4101
48.8869
48.3675
47.849
47.3294
46.8065
46.2787
45.7444
45.2023
44.6519
44.0929
43.5251
42.9484
42.3628
41.7687
41.1665
40.5572
39.9413
39.3198
38.6937
38.0636
37.4302
36.7945
36.1572
35.5193
34.8842
34.2523
33.6228
32.9977
32.3788
31.7665
31.162
30.5661
29.9799
29.4045
28.841
28.2902
27.7524
27.2287
26.7205
26.2288
25.754
25.2969
24.858
24.4375
24.0353
23.6529
23.2919
22.9522
22.6329
22.3345
22.0581
21.8031
21.5691
21.3573
21.1685
21.0031
85.5106
92.2103
105.946
97.2533
97.5904
89.6406
85.6535
79.3864
75.4888
71.42
68.3517
65.8332
63.8327
62.1231
60.6392
59.3433
58.1859
57.1436
56.201
55.3397
54.5452
53.8086
53.1219
52.4743
51.859
51.2691
50.6986
50.144
49.6013
49.0669
48.5372
48.0094
47.4811
46.9506
46.4159
45.8751
45.3273
44.7717
44.2082
43.6364
43.0563
42.4678
41.8712
41.2671
40.6561
40.0388
39.4161
38.7888
38.1578
37.5236
36.8873
36.2497
35.6118
34.9763
34.344
33.7143
33.0891
32.4699
31.8575
31.2528
30.6569
30.0706
29.495
28.9313
28.3802
27.8423
27.3185
26.8102
26.3183
25.8433
25.3859
24.9468
24.526
24.1236
23.7411
23.3799
23.0398
22.7203
22.4217
22.1452
21.8899
21.6559
21.4441
21.2553
21.0898
84.0795
89.031
100.897
92.6523
94.1397
88.1051
84.454
79.3035
75.1859
71.4242
68.5178
66.0796
64.1035
62.4023
60.9227
59.6072
58.451
57.4027
56.4549
55.5877
54.7879
54.0453
53.3514
52.6962
52.0726
51.4743
50.8964
50.334
49.783
49.2404
48.7029