/*--------------------------------*- C++ -*----------------------------------*\
| =========                 |                                                 |
| \\      /  F ield         | OpenFOAM: The Open Source CFD Toolbox           |
|  \\    /   O peration     | Version:  2412                                  |
|   \\  /    A nd           | Website:  www.openfoam.com                      |
|    \\/     M anipulation  |                                                 |
\*---------------------------------------------------------------------------*/
FoamFile
{
    version     2.0;
    format      ascii;
    arch        "LSB;label=32;scalar=64";
    class       surfaceScalarField;
    location    "500";
    object      phi;
}
// * * * * * * * * * * * * * * * * * * * * * * * * * * * * * * * * * * * * * //

dimensions      [0 3 -1 0 0 0 0];

oriented        oriented;

internalField   nonuniform List<scalar> 
14663
(
2.47066e-05
-2.33957e-06
2.48367e-05
-1.30729e-07
2.31571e-05
1.67917e-06
2.03315e-05
2.82597e-06
1.70624e-05
3.26913e-06
1.47265e-05
2.33592e-06
1.32539e-05
1.47262e-06
1.19738e-05
1.28008e-06
1.08185e-05
1.15527e-06
9.89221e-06
9.26287e-07
9.1398e-06
7.52407e-07
8.50051e-06
6.39288e-07
7.94179e-06
5.58716e-07
7.45503e-06
4.86763e-07
7.02624e-06
4.28788e-07
6.63581e-06
3.9043e-07
6.2788e-06
3.57112e-07
5.95325e-06
3.25475e-07
5.65628e-06
3.00802e-07
5.3839e-06
2.68602e-07
5.13582e-06
2.49523e-07
4.90988e-06
2.24476e-07
4.7041e-06
2.06621e-07
4.51662e-06
1.86622e-07
4.34506e-06
1.72163e-07
4.18748e-06
1.56985e-07
4.04232e-06
1.45522e-07
3.90775e-06
1.34209e-07
3.78261e-06
1.25143e-07
3.66547e-06
1.1714e-07
3.55551e-06
1.09962e-07
3.45186e-06
1.03656e-07
3.35384e-06
9.80163e-08
3.26078e-06
9.30642e-08
3.17206e-06
8.87197e-08
3.08734e-06
8.47149e-08
3.00619e-06
8.11533e-08
2.92843e-06
7.7765e-08
2.8537e-06
7.47309e-08
2.78198e-06
7.17183e-08
2.71299e-06
6.89956e-08
2.64645e-06
6.65318e-08
2.58234e-06
6.4113e-08
2.52041e-06
6.19295e-08
2.46052e-06
5.98909e-08
2.40264e-06
5.78894e-08
2.34656e-06
5.60808e-08
2.29229e-06
5.42708e-08
2.23971e-06
5.25812e-08
2.18858e-06
5.11308e-08
2.13876e-06
4.98169e-08
2.09044e-06
4.83259e-08
2.04345e-06
4.69866e-08
1.99758e-06
4.58763e-08
1.95271e-06
4.48714e-08
1.909e-06
4.371e-08
1.86631e-06
4.26875e-08
1.82439e-06
4.19239e-08
1.78329e-06
4.10983e-08
1.74302e-06
4.0277e-08
1.70349e-06
3.95305e-08
1.66463e-06
3.88604e-08
1.62627e-06
3.8365e-08
1.58844e-06
3.7832e-08
1.55111e-06
3.73245e-08
1.5143e-06
3.6989e-08
1.47786e-06
3.62779e-08
1.44179e-06
3.61863e-08
1.40605e-06
3.56274e-08
1.37047e-06
3.54861e-08
1.3353e-06
3.52573e-08
1.30047e-06
3.4948e-08
1.26593e-06
3.44451e-08
1.23156e-06
3.44425e-08
1.19729e-06
3.42693e-08
3.41336e-08
8.43053e-05
-1.10336e-05
8.58437e-05
-1.66945e-06
8.12576e-05
6.26473e-06
7.21583e-05
1.19258e-05
6.10649e-05
1.43625e-05
5.26892e-05
1.07116e-05
4.73869e-05
6.77498e-06
4.28806e-05
5.78639e-06
3.87263e-05
5.30951e-06
3.53722e-05
4.28035e-06
3.26501e-05
3.4745e-06
3.03422e-05
2.94718e-06
2.83081e-05
2.59286e-06
2.65572e-05
2.23769e-06
2.50406e-05
1.94535e-06
2.36401e-05
1.79096e-06
2.23512e-05
1.64612e-06
2.11863e-05
1.49032e-06
2.01353e-05
1.35742e-06
1.91619e-05
1.23641e-06
1.82759e-05
1.13772e-06
1.74695e-05
1.02866e-06
1.67352e-05
9.42221e-07
1.60663e-05
8.5421e-07
1.54547e-05
7.84675e-07
1.48935e-05
7.17333e-07
1.43759e-05
6.63629e-07
1.38964e-05
6.13203e-07
1.34502e-05
5.71328e-07
1.3033e-05
5.34302e-07
1.26416e-05
5.0137e-07
1.22726e-05
4.72664e-07
1.19236e-05
4.47039e-07
1.15923e-05
4.24326e-07
1.12767e-05
4.04338e-07
1.0975e-05
3.86382e-07
1.06865e-05
3.6965e-07
1.04099e-05
3.54397e-07
1.01444e-05
3.40279e-07
9.8893e-06
3.26776e-07
9.64401e-06
3.1429e-07
9.40753e-06
3.03012e-07
9.17947e-06
2.92174e-07
8.9595e-06
2.81901e-07
8.74668e-06
2.72717e-07
8.54096e-06
2.6361e-07
8.34171e-06
2.55333e-07
8.14868e-06
2.47303e-07
7.96199e-06
2.39266e-07
7.78009e-06
2.33034e-07
7.60322e-06
2.26687e-07
7.43153e-06
2.20025e-07
7.26471e-06
2.13812e-07
7.10156e-06
2.09028e-07
6.94232e-06
2.04106e-07
6.78706e-06
1.98976e-07
6.63526e-06
1.9449e-07
6.48632e-06
1.90862e-07
6.34041e-06
1.87015e-07
6.19748e-06
1.8321e-07
6.05703e-06
1.79978e-07
5.91889e-06
1.77006e-07
5.78293e-06
1.7433e-07
5.64857e-06
1.72202e-07
5.51588e-06
1.70006e-07
5.38525e-06
1.67889e-07
5.25611e-06
1.65186e-07
5.12812e-06
1.64336e-07
5.00104e-06
1.62537e-07
4.87494e-06
1.61462e-07
4.75002e-06
1.60296e-07
4.62637e-06
1.58764e-07
4.50376e-06
1.5693e-07
4.38188e-06
1.5644e-07
4.26028e-06
1.55884e-07
1.55124e-07
0.000162306
-2.89157e-05
0.000167002
-6.36566e-06
0.000160017
1.325e-05
0.000143589
2.83539e-05
0.00012251
3.54414e-05
0.000105883
2.73389e-05
9.53039e-05
1.73539e-05
8.64561e-05
1.46342e-05
7.81074e-05
1.36581e-05
7.13185e-05
1.10692e-05
6.57943e-05
8.99874e-06
6.11199e-05
7.62158e-06
5.69416e-05
6.77117e-06
5.33968e-05
5.78244e-06
5.03938e-05
4.94836e-06
4.75659e-05
4.61887e-06
4.49322e-05
4.28005e-06
4.258e-05
3.84235e-06
4.04959e-05
3.4477e-06
3.85351e-05
3.19112e-06
3.67479e-05
2.92728e-06
3.51233e-05
2.6509e-06
3.36448e-05
2.422e-06
3.22973e-05
2.20037e-06
3.10663e-05
2.01667e-06
2.99352e-05
1.84742e-06
2.88935e-05
1.70592e-06
2.79284e-05
1.57776e-06
2.70299e-05
1.46984e-06
2.61903e-05
1.37383e-06
2.54024e-05
1.28929e-06
2.46596e-05
1.21545e-06
2.39579e-05
1.14878e-06
2.32919e-05
1.09035e-06
2.26573e-05
1.03888e-06
2.20508e-05
9.92942e-07
2.14704e-05
9.50042e-07
2.09144e-05
9.10336e-07
2.03814e-05
8.73322e-07
1.98691e-05
8.39127e-07
1.93759e-05
8.07444e-07
1.89013e-05
7.77616e-07
1.84434e-05
7.50111e-07
1.80013e-05
7.23972e-07
1.75743e-05
6.99702e-07
1.7161e-05
6.76872e-07
1.6761e-05
6.5542e-07
1.63734e-05
6.34895e-07
1.5998e-05
6.14628e-07
1.56331e-05
5.97926e-07
1.52777e-05
5.82111e-07
1.49329e-05
5.64795e-07
1.45979e-05
5.48839e-07
1.42703e-05
5.36627e-07
1.39502e-05
5.24214e-07
1.36386e-05
5.10568e-07
1.3334e-05
4.99091e-07
1.30354e-05
4.89488e-07
1.27421e-05
4.80339e-07
1.24551e-05
4.70154e-07
1.21736e-05
4.61556e-07
1.18963e-05
4.54222e-07
1.16229e-05
4.47742e-07
1.13532e-05
4.41964e-07
1.10875e-05
4.35695e-07
1.08252e-05
4.30433e-07
1.05659e-05
4.24284e-07
1.0309e-05
4.21385e-07
1.00543e-05
4.17069e-07
9.80121e-06
4.14396e-07
9.55057e-06
4.11068e-07
9.30249e-06
4.0703e-07
9.05646e-06
4.02815e-07
8.81214e-06
4.00883e-07
8.56845e-06
3.99591e-07
3.98108e-07
0.000260011
-5.90426e-05
0.000270036
-1.6391e-05
0.000261581
2.17047e-05
0.000237203
5.27314e-05
0.000204363
6.8282e-05
0.00017741
5.42917e-05
0.000159885
3.48784e-05
0.000145428
2.90917e-05
0.000131724
2.73615e-05
0.00012044
2.23538e-05
0.000111196
1.82431e-05
0.000103353
1.54642e-05
9.62193e-05
1.39048e-05
9.02454e-05
1.17563e-05
8.53002e-05
9.89357e-06
8.05308e-05
9.38829e-06
7.60105e-05
8.80052e-06
7.20375e-05
7.81523e-06
6.85904e-05
6.90051e-06
6.52755e-05
6.50034e-06
6.22545e-05
5.95043e-06
5.9504e-05
5.39924e-06
5.69994e-05
4.92786e-06
5.4716e-05
4.48244e-06
5.26275e-05
4.10606e-06
5.07121e-05
3.76201e-06
4.89443e-05
3.47422e-06
4.73076e-05
3.21391e-06
4.57851e-05
2.99231e-06
4.43622e-05
2.7968e-06
4.30261e-05
2.62539e-06
4.17682e-05
2.47331e-06
4.05779e-05
2.33908e-06
3.94488e-05
2.21951e-06
3.8372e-05
2.11561e-06
3.73443e-05
2.02071e-06
3.63616e-05
1.93272e-06
3.54208e-05
1.85111e-06
3.45182e-05
1.77597e-06
3.36513e-05
1.70604e-06
3.28175e-05
1.64122e-06
3.20136e-05
1.58152e-06
3.12387e-05
1.525e-06
3.04907e-05
1.47201e-06
2.97678e-05
1.42253e-06
2.90686e-05
1.37608e-06
2.83914e-05
1.33265e-06
2.77353e-05
1.291e-06
2.71004e-05
1.24956e-06
2.6483e-05
1.21528e-06
2.58818e-05
1.18334e-06
2.52979e-05
1.14874e-06
2.47308e-05
1.11589e-06
2.41767e-05
1.0907e-06
2.36356e-05
1.06536e-06
2.31078e-05
1.0384e-06
2.25923e-05
1.01451e-06
2.20867e-05
9.95102e-07
2.1591e-05
9.76102e-07
2.11053e-05
9.55838e-07
2.06286e-05
9.38277e-07
2.01591e-05
9.23667e-07
1.96971e-05
9.09805e-07
1.92409e-05
8.98157e-07
1.8791e-05
8.85563e-07
1.83472e-05
8.74506e-07
1.79088e-05
8.62451e-07
1.74746e-05
8.5581e-07
1.70434e-05
8.48046e-07
1.66157e-05
8.42017e-07
1.61917e-05
8.35145e-07
1.57725e-05
8.26378e-07
1.53564e-05
8.18809e-07
1.49428e-05
8.14566e-07
1.45308e-05
8.11633e-07
8.08496e-07
0.000375346
-0.000103197
0.000391528
-3.25709e-05
0.000381767
3.1465e-05
0.000349732
8.47664e-05
0.000305402
0.000112612
0.000267463
9.22301e-05
0.000241379
6.09626e-05
0.000219961
5.05098e-05
0.000200409
4.69137e-05
0.000184033
3.87293e-05
0.000170453
3.18237e-05
0.000158844
2.70733e-05
0.000148185
2.45633e-05
0.000139231
2.07108e-05
0.000131799
1.73251e-05
0.000124586
1.6601e-05
0.000117656
1.57313e-05
0.000111604
1.38671e-05
0.000106417
1.20927e-05
0.000101343
1.15692e-05
9.67057e-05
1.05895e-05
9.24749e-05
9.62794e-06
8.86159e-05
8.78806e-06
8.50927e-05
8.00436e-06
8.18649e-05
7.33479e-06
7.88991e-05
6.72687e-06
7.61618e-05
6.21211e-06
7.36238e-05
5.75133e-06
7.12606e-05
5.35554e-06
6.90515e-05
5.00588e-06
6.69768e-05
4.70017e-06
6.50207e-05
4.42937e-06
6.31708e-05
4.18896e-06
6.14135e-05
3.97683e-06
5.97399e-05
3.78926e-06
5.81412e-05
3.61935e-06
5.66132e-05
3.46071e-06
5.51526e-05
3.31174e-06
5.37518e-05
3.17681e-06
5.24067e-05
3.05113e-06
5.11118e-05
2.9361e-06
4.98643e-05
2.82905e-06
4.86601e-05
2.72911e-06
4.74981e-05
2.6341e-06
4.63743e-05
2.54625e-06
4.52881e-05
2.46227e-06
4.42358e-05
2.38504e-06
4.32164e-05
2.31032e-06
4.22293e-05
2.23674e-06
4.12687e-05
2.17585e-06
4.03346e-05
2.11744e-06
3.94271e-05
2.05619e-06
3.8545e-05
1.99806e-06
3.76841e-05
1.95162e-06
3.68415e-05
1.90789e-06
3.60204e-05
1.85948e-06
3.52192e-05
1.81576e-06
3.44333e-05
1.78098e-06
3.36622e-05
1.74718e-06
3.29064e-05
1.71168e-06
3.2165e-05
1.6797e-06
3.14357e-05
1.65292e-06
3.07167e-05
1.62886e-06
3.00068e-05
1.608e-06
2.93067e-05
1.58566e-06
2.86172e-05
1.56432e-06
2.79351e-05
1.54437e-06
2.72597e-05
1.53135e-06
2.6589e-05
1.51851e-06
2.59237e-05
1.50726e-06
2.52648e-05
1.49415e-06
2.46124e-05
1.47895e-06
2.39652e-05
1.46585e-06
2.33225e-05
1.45736e-06
2.26818e-05
1.45238e-06
1.44714e-06
0.000504871
-0.000161273
0.0005255
-5.32033e-05
0.000512213
4.47518e-05
0.000471611
0.000125369
0.000416643
0.00016758
0.00036908
0.000139794
0.000334883
9.51588e-05
0.000306528
7.88652e-05
0.000281562
7.18798e-05
0.000260345
5.99464e-05
0.000242515
4.96535e-05
0.00022711
4.24779e-05
0.000213193
3.84805e-05
0.000201099
3.28047e-05
0.000190569
2.78554e-05
0.000180654
2.65155e-05
0.000171173
2.52126e-05
0.000162754
2.22865e-05
0.000155368
1.94831e-05
0.000148229
1.87037e-05
0.000141667
1.71532e-05
0.000135652
1.56404e-05
0.000130143
1.42983e-05
0.000125091
1.30553e-05
0.00012045
1.19771e-05
0.000116168
1.10073e-05
0.000112209
1.01718e-05
0.000108528
9.43231e-06
0.000105095
8.78879e-06
0.000101877
8.22299e-06
9.88517e-05
7.72587e-06
9.59952e-05
7.28591e-06
9.32904e-05
6.89372e-06
9.07171e-05
6.55017e-06
8.82623e-05
6.244e-06
8.59191e-05
5.96257e-06
8.36819e-05
5.69789e-06
8.15403e-05
5.45334e-06
7.94878e-05
5.22932e-06
7.75157e-05
5.02325e-06
7.56172e-05
4.83459e-06
7.37857e-05
4.6606e-06
7.20188e-05
4.49604e-06
7.03107e-05
4.34216e-06
6.86603e-05
4.19669e-06
6.70631e-05
4.05949e-06
6.55143e-05
3.93376e-06
6.40139e-05
3.81072e-06
6.25601e-05
3.69059e-06
6.1147e-05
3.58896e-06
5.97695e-05
3.49495e-06
5.84327e-05
3.393e-06
5.71326e-05
3.29819e-06
5.58621e-05
3.22212e-06
5.46208e-05
3.14917e-06
5.34106e-05
3.06965e-06
5.22276e-05
2.99878e-06
5.10667e-05
2.94185e-06
4.99289e-05
2.88504e-06
4.88138e-05
2.82672e-06
4.77189e-05
2.77468e-06
4.66413e-05
2.7305e-06
4.55796e-05
2.69057e-06
4.45319e-05
2.65567e-06
4.34982e-05
2.61945e-06
4.24783e-05
2.58442e-06
4.14703e-05
2.55216e-06
4.04724e-05
2.52945e-06
3.94824e-05
2.50829e-06
3.84984e-05
2.4911e-06
3.75249e-05
2.46783e-06
3.65599e-05
2.44409e-06
3.56035e-05
2.42209e-06
3.46531e-05
2.4079e-06
3.37061e-05
2.39952e-06
2.39095e-06
0.000647881
-0.00023305
0.000671122
-7.64478e-05
0.000651628
6.4246e-05
0.000600005
0.000176992
0.000532864
0.000234721
0.000475442
0.000197215
0.000434285
0.000136316
0.000400318
0.000112832
0.000370611
0.000101587
0.000345231
8.53263e-05
0.000323755
7.11298e-05
0.000305054
6.11789e-05
0.000288629
5.49056e-05
0.000273706
4.77275e-05
0.000259936
4.16253e-05
0.000247463
3.89887e-05
0.000235871
3.68049e-05
0.00022513
3.30276e-05
0.000215181
2.94348e-05
0.000205915
2.79668e-05
0.00019735
2.57194e-05
0.000189451
2.35379e-05
0.00018217
2.15803e-05
0.000175454
1.97701e-05
0.000169248
1.81838e-05
0.000163499
1.67558e-05
0.000158151
1.55202e-05
0.000153162
1.44206e-05
0.000148488
1.34626e-05
0.000144093
1.2618e-05
0.000139946
1.18732e-05
0.000136021
1.12113e-05
0.000132291
1.06231e-05
0.000128735
1.0106e-05
0.000125339
9.64026e-06
0.00012209
9.21159e-06
0.000118982
8.80613e-06
0.000116004
8.43082e-06
0.000113145
8.08876e-06
0.000110395
7.77314e-06
0.000107743
7.4868e-06
0.000105181
7.22246e-06
0.000102706
6.9713e-06
0.000100313
6.73458e-06
9.79956e-05
6.51436e-06
9.57507e-05
6.30443e-06
9.35735e-05
6.11095e-06
9.14619e-05
5.92231e-06
8.94142e-05
5.73825e-06
8.74204e-05
5.58275e-06
8.54782e-05
5.43717e-06
8.35884e-05
5.28284e-06
8.17514e-05
5.13518e-06
7.9955e-05
5.01849e-06
7.81975e-05
4.90668e-06
7.64836e-05
4.78363e-06
7.48082e-05
4.67418e-06
7.31635e-05
4.58653e-06
7.15487e-05
4.49983e-06
6.99662e-05
4.4092e-06
6.84114e-05
4.32946e-06
6.68823e-05
4.25965e-06
6.53732e-05
4.19966e-06
6.38829e-05
4.14597e-06
6.24135e-05
4.08888e-06
6.09633e-05
4.03487e-06
5.95295e-05
3.9857e-06
5.81085e-05
3.95068e-06
5.66984e-05
3.91823e-06
5.52977e-05
3.89161e-06
5.39098e-05
3.85587e-06
5.25352e-05
3.8189e-06
5.11715e-05
3.78569e-06
4.98166e-05
3.76291e-06
4.84659e-05
3.75028e-06
3.73757e-06
0.000806398
-0.000319493
0.000831693
-0.000101748
0.000804265
9.16729e-05
0.000739314
0.000241944
0.000657434
0.000316601
0.000588055
0.000266594
0.000539238
0.000185133
0.000499707
0.000152363
0.000465135
0.000136159
0.000435729
0.000114733
0.000410907
9.59513e-05
0.00038929
8.27961e-05
0.000370466
7.37296e-05
0.000353114
6.50793e-05
0.000336789
5.79508e-05
0.000322115
5.36622e-05
0.000308751
5.01696e-05
0.00029598
4.57982e-05
0.000283706
4.17116e-05
0.000272541
3.91289e-05
0.000262153
3.61082e-05
0.000252514
3.31763e-05
0.000243574
3.05212e-05
0.000235279
2.80637e-05
0.000227573
2.58911e-05
0.000220389
2.39389e-05
0.000213676
2.22336e-05
0.000207377
2.07193e-05
0.000201445
1.93941e-05
0.000195846
1.82176e-05
0.000190536
1.71825e-05
0.000185488
1.62593e-05
0.000180675
1.54367e-05
0.000176075
1.4706e-05
0.000171664
1.40514e-05
0.000167432
1.3443e-05
0.000163366
1.28725e-05
0.000159453
1.23441e-05
0.000155682
1.18593e-05
0.000152044
1.1411e-05
0.000148528
1.10033e-05
0.000145124
1.0626e-05
0.00014183
1.02652e-05
0.000138636
9.92928e-06
0.000135537
9.61277e-06
0.000132531
9.31074e-06
0.000129607
9.03473e-06
0.000126766
8.76383e-06
0.000124007
8.49707e-06
0.000121317
8.27235e-06
0.00011869
8.06404e-06
0.000116134
7.83902e-06
0.000113642
7.62719e-06
0.000111204
7.45688e-06
0.000108816
7.29409e-06
0.000106482
7.11813e-06
0.000104198
6.95816e-06
0.000101955
6.82957e-06
9.97503e-05
6.70449e-06
9.75857e-05
6.57381e-06
9.54581e-05
6.45706e-06
9.33619e-05
6.35592e-06
9.12926e-05
6.26887e-06
8.92491e-05
6.18954e-06
8.72295e-05
6.10846e-06
8.52355e-05
6.02912e-06
8.3262e-05
5.959e-06
8.13051e-05
5.90773e-06
7.93623e-05
5.86092e-06
7.74303e-05
5.82349e-06
7.55144e-05
5.77188e-06
7.3616e-05
5.71737e-06
7.17316e-05
5.67001e-06
6.98565e-05
5.63815e-06
6.79881e-05
5.61879e-06
5.60175e-06
0.000983549
0.00101159
-0.000129791
0.000975294
0.000127965
0.00089493
0.000322307
0.00079555
0.000415982
0.000711638
0.000350505
0.000653235
0.000243536
0.000606839
0.000198759
0.000566472
0.000176526
0.000532397
0.000148808
0.000503829
0.000124519
0.000479079
0.000107546
0.00045743
9.53788e-05
0.000437649
8.48604e-05
0.000419218
7.63811e-05
0.000402483
7.03976e-05
0.0003872
6.54525e-05
0.000372588
6.04107e-05
0.000358531
5.577e-05
0.000345679
5.19795e-05
0.000333697
4.80909e-05
0.000322539
4.43333e-05
0.000312152
4.09084e-05
0.000302481
3.77343e-05
0.000293459
3.49129e-05
0.000285016
3.23816e-05
0.000277091
3.01588e-05
0.000269623
2.81874e-05
0.000262566
2.64508e-05
0.000255869
2.4915e-05
0.000249497
2.35543e-05
0.000243415
2.23418e-05
0.000237594
2.12571e-05
0.000232011
2.02893e-05
0.000226646
1.9416e-05
0.000221473
1.86163e-05
0.000216477
1.78686e-05
0.000211646
1.71748e-05
0.000206968
1.65373e-05
0.000202436
1.5943e-05
0.000198042
1.53977e-05
0.000193775
1.48927e-05
0.000189631
1.44097e-05
0.0001856
1.39595e-05
0.00018168
1.35328e-05
0.000177862
1.31294e-05
0.000174142
1.2754e-05
0.000170516
1.23903e-05
0.000166984
1.20287e-05
0.000163532
1.17246e-05
0.000160153
1.14431e-05
0.000156855
1.1137e-05
0.000153634
1.08479e-05
0.000150476
1.06152e-05
0.000147373
1.03971e-05
0.000144336
1.01555e-05
0.000141358
9.93599e-06
0.000138426
9.76145e-06
0.000135539
9.59096e-06
0.0001327
9.41348e-06
0.000129905
9.25212e-06
0.000127144
9.11619e-06
0.000124416
8.99714e-06
0.000121716
8.88998e-06
0.000119044
8.78009e-06
0.0001164
8.67327e-06
0.000113781
8.57802e-06
0.000111182
8.50724e-06
0.000108595
8.44721e-06
0.000106021
8.39788e-06
0.000103463
8.32936e-06
0.000100924
8.25647e-06
9.84005e-05
8.19373e-06
9.58902e-05
8.14857e-06
9.33813e-05
8.12777e-06
8.10526e-06
0.00121519
0.00116978
0.00017337
0.00107201
0.000420083
0.000952186
0.000535801
0.000850842
0.000451849
0.000780496
0.000313882
0.000725441
0.000253814
0.000677932
0.000224035
0.000638102
0.000188638
0.000604941
0.00015768
0.000576401
0.000136086
0.000551359
0.000120421
0.000528741
0.000107478
0.000507941
9.71819e-05
0.000488904
8.94343e-05
0.00047137
8.2986e-05
0.000454781
7.70003e-05
0.00043901
7.1542e-05
0.000424449
6.65393e-05
0.000410868
6.16726e-05
0.000398228
5.6972e-05
0.000386458
5.26785e-05
0.000375492
4.87001e-05
0.000365248
4.51576e-05
0.000355655
4.19745e-05
0.000346629
3.91847e-05
0.000338117
3.66991e-05
0.00033005
3.45178e-05
0.000322382
3.25831e-05
0.000315068
3.08684e-05
0.00030807
2.93398e-05
0.000301355
2.79722e-05
0.000294902
2.67421e-05
0.000288681
2.56375e-05
0.00028267
2.46269e-05
0.000276847
2.36911e-05
0.000271195
2.28268e-05
0.000265706
2.20264e-05
0.000260365
2.12839e-05
0.00025517
2.05933e-05
0.000250116
1.9947e-05
0.000245187
1.93382e-05
0.000240379
1.87672e-05
0.000235686
1.82257e-05
0.000231105
1.77111e-05
0.000226624
1.72351e-05
0.000222243
1.67705e-05
0.000217963
1.6309e-05
0.000213768
1.59199e-05
0.00020965
1.55608e-05
0.000205615
1.51722e-05
0.000201666
1.47969e-05
0.000197781
1.45005e-05
0.000193956
1.42219e-05
0.000190199
1.39122e-05
0.000186505
1.36302e-05
0.000182859
1.3407e-05
0.000179259
1.31908e-05
0.00017571
1.29631e-05
0.000172205
1.27568e-05
0.000168738
1.25837e-05
0.000165301
1.24343e-05
0.00016189
1.23005e-05
0.000158508
1.21624e-05
0.000155153
1.2028e-05
0.000151822
1.19087e-05
0.000148507
1.18229e-05
0.000145202
1.17518e-05
0.000141905
1.16943e-05
0.000138621
1.16137e-05
0.000135356
1.15222e-05
0.000132104
1.14458e-05
0.000128858
1.13939e-05
0.000125613
1.13732e-05
1.13535e-05
0.00139275
0.00127571
0.000537132
0.0011322
0.000679307
0.00101023
0.000573816
0.00092527
0.000398844
0.00085949
0.000319594
0.000803251
0.000280275
0.000756368
0.000235521
0.000717556
0.000196492
0.000684351
0.000169292
0.000655234
0.000149537
0.000629149
0.000133563
0.000605376
0.000120956
0.000583559
0.000111251
0.000563381
0.000103164
0.000544438
9.59432e-05
0.000526604
8.93762e-05
0.000510044
8.30986e-05
0.000494632
7.70854e-05
0.000480299
7.13045e-05
0.000466981
6.59968e-05
0.000454586
6.10946e-05
0.00044302
5.67239e-05
0.000432193
5.28016e-05
0.00042202
4.93574e-05
0.00041242
4.62988e-05
0.000403327
4.36107e-05
0.000394681
4.12292e-05
0.00038643
3.91194e-05
0.000378532
3.72383e-05
0.00037095
3.55536e-05
0.000363651
3.40409e-05
0.000356613
3.26757e-05
0.000349805
3.14347e-05
0.000343203
3.02931e-05
0.000336792
2.92382e-05
0.000330554
2.82647e-05
0.000324479
2.73589e-05
0.000318558
2.6514e-05
0.000312785
2.57201e-05
0.000307148
2.49755e-05
0.000301638
2.42768e-05
0.000296248
2.3616e-05
0.000290974
2.29848e-05
0.000285805
2.24041e-05
0.00028074
2.18355e-05
0.000275782
2.1267e-05
0.000270908
2.07938e-05
0.000266114
2.03547e-05
0.000261409
1.98781e-05
0.000256788
1.94178e-05
0.00025223
1.90578e-05
0.000247735
1.87169e-05
0.000243305
1.83425e-05
0.000238938
1.79972e-05
0.000234619
1.77258e-05
0.000230343
1.74668e-05
0.000226116
1.71906e-05
0.000221929
1.69437e-05
0.000217775
1.67377e-05
0.000213649
1.65606e-05
0.000209543
1.64063e-05
0.000205459
1.62459e-05
0.0002014
1.60878e-05
0.000197354
1.5954e-05
0.00019332
1.58575e-05
0.000189285
1.57863e-05
0.00018525
1.57291e-05
0.000181221
1.56432e-05
0.000177201
1.55417e-05
0.000173187
1.54606e-05
0.00016917
1.54108e-05
0.000165141
1.54019e-05
1.53952e-05
0.00151148
0.000673814
0.00134078
0.000850012
0.00119452
0.000720075
0.00109191
0.000501452
0.00101306
0.000398447
0.000946255
0.000347076
0.000890828
0.000290947
0.000845133
0.000242187
0.000806241
0.000208184
0.000772237
0.000183542
0.000741935
0.000163864
0.000714475
0.000148416
0.000689285
0.000136441
0.000665971
0.000126479
0.000644189
0.000117726
0.000623797
0.000109769
0.000604821
0.000102073
0.000587196
9.47114e-05
0.000570841
8.76584e-05
0.000555661
8.11775e-05
0.000541556
7.51995e-05
0.00052842
6.98597e-05
0.000516139
6.50824e-05
0.000504612
6.08846e-05
0.000493747
5.71638e-05
0.000483471
5.38869e-05
0.000473707
5.09924e-05
0.000464393
4.84343e-05
0.000455481
4.61501e-05
0.000446929
4.41058e-05
0.000438699
4.22707e-05
0.000430761
4.06136e-05
0.000423087
3.91085e-05
0.000415652
3.77284e-05
0.000408431
3.64594e-05
0.000401407
3.52887e-05
0.000394566
3.41993e-05
0.0003879
3.31802e-05
0.000381393
3.22271e-05
0.000375038
3.13303e-05
0.000368825
3.04901e-05
0.000362741
2.97e-05
0.000356784
2.89417e-05
0.000350943
2.82448e-05
0.000345214
2.75645e-05
0.000339598
2.6883e-05
0.000334078
2.63139e-05
0.000328638
2.57949e-05
0.00032329
2.52261e-05
0.000318035
2.46725e-05
0.000312848
2.42454e-05
0.000307717
2.38476e-05
0.00030266
2.33998e-05
0.000297667
2.29894e-05
0.000292719
2.26747e-05
0.000287812
2.23737e-05
0.000282951
2.20516e-05
0.000278131
2.1763e-05
0.00027334
2.15293e-05
0.00026857
2.13306e-05
0.000263813
2.11624e-05
0.000259075
2.09848e-05
0.00025435
2.08121e-05
0.000249637
2.06669e-05
0.000244922
2.05728e-05
0.0002402
2.05082e-05
0.000235462
2.04671e-05
0.000230723
2.03829e-05
0.000225978
2.02861e-05
0.00022123
2.02091e-05
0.000216467
2.01741e-05
0.000211675
2.01931e-05
2.02142e-05
0.00178522
0.000831137
0.00158358
0.00105166
0.00140895
0.000894706
0.00128518
0.000625219
0.00119049
0.000493134
0.00111096
0.000426605
0.00104523
0.000356681
0.00099123
0.000296186
0.000945479
0.000253935
0.000905614
0.000223406
0.000870245
0.000199234
0.000838316
0.000180344
0.000809086
0.000165671
0.000782055
0.00015351
0.000756877
0.000142903
0.000733369
0.000133277
0.000711513
0.000123929
0.000691221
0.000115003
0.000672418
0.000106461
0.000654998
9.85977e-05
0.000638835
9.13616e-05
0.000623798
8.48972e-05
0.000609762
7.91187e-05
0.000596607
7.4039e-05
0.000584224
6.95473e-05
0.000572517
6.55933e-05
0.000561407
6.21023e-05
0.000550821
5.90203e-05
0.000540704
5.62675e-05
0.000530999
5.38113e-05
0.000521667
5.16024e-05
0.000512671
4.96098e-05
0.000503979
4.78005e-05
0.000495561
4.61466e-05
0.000487395
4.46248e-05
0.00047946
4.32241e-05
0.000471734
4.19254e-05
0.000464203
4.07111e-05
0.000456859
3.95704e-05
0.000449688
3.85021e-05
0.000442677
3.75011e-05
0.000435818
3.65586e-05
0.000429099
3.56607e-05
0.000422511
3.48325e-05
0.000416054
3.40223e-05
0.000409723
3.32139e-05
0.000403494
3.25425e-05
0.000397359
3.19304e-05
0.00039133
3.12548e-05
0.000385401
3.06012e-05
0.000379546
3.01007e-05
0.000373757
2.96365e-05
0.000368046
2.9111e-05
0.000362405
2.86303e-05
0.000356814
2.82654e-05
0.000351263
2.79246e-05
0.000345765
2.755e-05
0.000340306
2.72217e-05
0.000334878
2.69578e-05
0.00032947
2.67385e-05
0.000324071
2.65612e-05
0.000318686
2.63695e-05
0.000313316
2.61824e-05
0.00030795
2.60335e-05
0.000302579
2.59437e-05
0.000297187
2.58996e-05
0.000291776
2.58782e-05
0.000286349
2.58097e-05
0.000280915
2.57203e-05
0.000275465
2.5659e-05
0.000269989
2.56501e-05
0.000264473
2.57092e-05
0.00210317
0.00100675
0.00186694
0.00128788
0.00165946
0.00110219
0.00151047
0.000774206
0.00139669
0.000606916
0.00130184
0.00052145
0.00122373
0.000434797
0.00115972
0.000360196
0.00110571
0.000307945
0.00105883
0.000270279
0.0010174
0.000240667
0.000980138
0.000217607
0.000946095
0.000199714
0.000914668
0.000184938
0.000885457
0.000172113
0.000858243
0.000160492
0.000832945
0.000149227
0.000809493
0.000138455
0.000787782
0.000128173
0.000767685
0.000118695
0.000749058
0.000109988
0.000731753
0.000102202
0.000715615
9.52572e-05
0.000700502
8.91514e-05
0.000686289
8.37605e-05
0.00067287
7.90126e-05
0.000660146
7.48263e-05
0.000648034
7.11318e-05
0.000636462
6.78395e-05
0.000625373
6.49004e-05
0.000614719
6.22568e-05
0.000604454
5.98747e-05
0.000594539
5.77151e-05
0.000584948
5.5738e-05
0.00057565
5.39229e-05
0.000566615
5.22585e-05
0.000557827
5.07138e-05
0.000549272
4.92665e-05
0.000540929
4.79128e-05
0.000532784
4.66469e-05
0.000524826
4.54596e-05
0.000517042
4.43427e-05
0.000509425
4.32778e-05
0.000501959
4.22982e-05
0.000494638
4.1343e-05
0.000487468
4.0384e-05
0.000480416
3.95946e-05
0.000473472
3.88741e-05
0.000466648
3.80796e-05
0.000459941
3.73078e-05
0.000453317
3.67246e-05
0.00044677
3.61833e-05
0.000440314
3.55674e-05
0.000433937
3.5007e-05
0.000427613
3.45896e-05
0.000421343
3.4194e-05
0.000415127
3.37664e-05
0.000408959
3.33895e-05
0.000402825
3.30924e-05
0.00039671
3.28533e-05
0.000390611
3.26603e-05
0.000384522
3.2458e-05
0.00037845
3.22545e-05
0.000372381
3.21031e-05
0.000366303
3.2021e-05
0.000360207
3.19955e-05
0.000354079
3.20067e-05
0.000347936
3.19527e-05
0.000341781
3.18752e-05
0.000335604
3.18366e-05
0.000329395
3.18587e-05
3.19706e-05
0.00247173
0.00119337
0.0021978
0.00156182
0.00195288
0.00134711
0.00177405
0.000953037
0.00163726
0.000743699
0.001524
0.000634716
0.00143099
0.0005278
0.00135495
0.00043624
0.00129102
0.000371877
0.00123575
0.000325546
0.00118707
0.000289342
0.00114344
0.000261241
0.0011037
0.000239455
0.00106709
0.000221549
0.00103313
0.000206078
0.00100153
0.000192091
0.000972179
0.000178574
0.00094499
0.000165644
0.000919846
0.000153317
0.000896583
0.000141958
0.000875041
0.00013153
0.000855035
0.000122208
0.000836395
0.000113897
0.000818959
0.000106588
0.000802577
0.000100142
0.000787113
9.4477e-05
0.000772466
8.94734e-05
0.000758531
8.50663e-05
0.000745229
8.11418e-05
0.000732489
7.76399e-05
0.000720254
7.44926e-05
0.000708474
7.16541e-05
0.000697105
6.90843e-05
0.00068611
6.67327e-05
0.000675456
6.4577e-05
0.000665114
6.26009e-05
0.000655058
6.07691e-05
0.00064527
5.90555e-05
0.000635732
5.74501e-05
0.000626425
5.59545e-05
0.000617334
5.45502e-05
0.000608447
5.32301e-05
0.000599754
5.19701e-05
0.000591235
5.08178e-05
0.000582886
4.96914e-05
0.000574713
4.85574e-05
0.000566679
4.76286e-05
0.000558766
4.67867e-05
0.000550999
4.58467e-05
0.000543365
4.49415e-05
0.00053583
4.42604e-05
0.000528382
4.36305e-05
0.000521041
4.2909e-05
0.000513792
4.22563e-05
0.000506609
4.17719e-05
0.000499483
4.13207e-05
0.000492425
4.08237e-05
0.000485422
4.03926e-05
0.000478457
4.00578e-05
0.000471519
3.9791e-05
0.000464596
3.95834e-05
0.000457692
3.93622e-05
0.000450806
3.91408e-05
0.000443926
3.8983e-05
0.000437036
3.89101e-05
0.000430123
3.89093e-05
0.00042318
3.89493e-05
0.00041622
3.89128e-05
0.000409244
3.88514e-05
0.000402246
3.88343e-05
0.000395212
3.88928e-05
3.90616e-05
0.00289721
0.00137695
0.00258342
0.00187561
0.00229704
0.00163348
0.00208321
0.00116687
0.00191881
0.000908091
0.00178339
0.000770138
0.00167248
0.000638715
0.00158194
0.000526772
0.00150607
0.00044775
0.00144074
0.000390874
0.00138342
0.000346666
0.00133222
0.000312446
0.00128572
0.000285953
0.00124298
0.000264288
0.00120342
0.000245639
0.00116666
0.00022885
0.00113255
0.000212685
0.00110097
0.00019722
0.00107178
0.000182512
0.00104478
0.000168951
0.0010198
0.000156511
0.000996617
0.000145393
0.000975031
0.000135484
0.000954847
0.000126772
0.000935893
0.000119096
0.00091802
0.000112349
0.000901097
0.000106397
0.00088501
0.000101153
0.000869658
9.64934e-05
0.00085497
9.2328e-05
0.000840865
8.8598e-05
0.000827292
8.52268e-05
0.000814197
8.21793e-05
0.00080154
7.93893e-05
0.000789281
7.68359e-05
0.000777384
7.44979e-05
0.000765824
7.23293e-05
0.000754575
7.03043e-05
0.000743616
6.84092e-05
0.000732929
6.6642e-05
0.000722495
6.49843e-05
0.000712296
6.34286e-05
0.000702322
6.19443e-05
0.000692553
6.05865e-05
0.000682986
5.9259e-05
0.000673619
5.79239e-05
0.000664414
5.68337e-05
0.000655357
5.5844e-05
0.00064646
5.47433e-05
0.000637724
5.36776e-05
0.000629104
5.28802e-05
0.000620585
5.21496e-05
0.000612192
5.13022e-05
0.000603909
5.05398e-05
0.000595699
4.99815e-05
0.000587561
4.94589e-05
0.000579498
4.88863e-05
0.000571504
4.83875e-05
0.000563557
4.80042e-05
0.000555639
4.77087e-05
0.000547743
4.74801e-05
0.000539868
4.72365e-05
0.000532018
4.69915e-05
0.000524177
4.68233e-05
0.000516327
4.67607e-05
0.000508451
4.6785e-05
0.000500544
4.68565e-05
0.000492617
4.68396e-05
0.000484681
4.67872e-05
0.000476718
4.67976e-05
0.000468717
4.68941e-05
4.71277e-05
0.00338427
0.0015358
0.00303141
0.00222846
0.00270088
0.00196402
0.00244653
0.00142122
0.00224915
0.00110548
0.0020871
0.000932184
0.00195463
0.000771191
0.00184661
0.000634785
0.00175636
0.000537998
0.00167894
0.000468297
0.00161126
0.000414351
0.00155102
0.000372683
0.0014965
0.000340471
0.00144653
0.000314257
0.00140036
0.000291813
0.00135754
0.00027167
0.00131783
0.000252393
0.00128109
0.00023396
0.00124714
0.000216463
0.00121577
0.000200325
0.00118673
0.000185542
0.00115981
0.000172314
0.00113476
0.000160542
0.00111134
0.000150188
0.00108936
0.000141076
0.00106865
0.000133056
0.00104905
0.000125999
0.00103043
0.000119779
0.00101267
0.000114253
0.000995677
0.000109318
0.000979377
0.000104897
0.000963692
0.000100912
0.000948571
9.73006e-05
0.000933957
9.40029e-05
0.000919806
9.09876e-05
0.000906082
8.82211e-05
0.000892749
8.5663e-05
0.000879778
8.32755e-05
0.000867147
8.10396e-05
0.000854833
7.89565e-05
0.000842813