/*--------------------------------*- C++ -*----------------------------------*\
| =========                 |                                                 |
| \\      /  F ield         | OpenFOAM: The Open Source CFD Toolbox           |
|  \\    /   O peration     | Version:  2412                                  |
|   \\  /    A nd           | Website:  www.openfoam.com                      |
|    \\/     M anipulation  |                                                 |
\*---------------------------------------------------------------------------*/
FoamFile
{
    version     2.0;
    format      ascii;
    arch        "LSB;label=32;scalar=64";
    class       volVectorField;
    location    "500";
    object      U;
}
// * * * * * * * * * * * * * * * * * * * * * * * * * * * * * * * * * * * * * //

dimensions      [0 1 -1 0 0 0 0];

internalField   nonuniform List<vector> 
8553
(
(-0.0288932 -0.119972 0)
(-0.169799 -0.384795 -6.06086e-21)
(-0.0720079 -0.095643 1.23269e-20)
(-0.00876692 -0.00773623 7.21613e-26)
(-0.156069 -0.0877352 0)
(-0.0799688 -0.0261703 -1.06544e-24)
(0.312221 0.0351899 7.85467e-25)
(0.517111 -0.00618503 2.41695e-22)
(0.451811 -0.0256367 2.48371e-25)
(0.357215 -0.0173736 0)
(0.327734 -0.0126762 2.13298e-21)
(0.305584 -0.00962417 -1.00762e-21)
(0.302807 -0.0083671 0)
(0.311299 -0.00857901 0)
(0.322577 -0.0100158 2.02117e-25)
(0.326369 -0.0113108 -1.92556e-25)
(0.325495 -0.0121013 -1.5043e-21)
(0.320039 -0.0123 1.43946e-21)
(0.311548 -0.0119105 1.72422e-25)
(0.304572 -0.0113081 -1.29918e-21)
(0.300745 -0.0109177 -2.44847e-21)
(0.298923 -0.0107394 4.59829e-21)
(0.298862 -0.0107821 1.32402e-25)
(0.29874 -0.010925 2.02839e-21)
(0.297864 -0.0110138 1.90726e-21)
(0.296536 -0.0110386 -1.79438e-21)
(0.295072 -0.0110075 -1.68602e-21)
(0.294044 -0.0109825 3.16506e-21)
(0.293471 -0.0109915 0)
(0.293208 -0.0110322 0)
(0.293047 -0.0110879 -2.61245e-21)
(0.292917 -0.011143 7.43991e-26)
(0.292873 -0.0111988 -2.2997e-21)
(0.292954 -0.0112592 4.31454e-21)
(0.293189 -0.01133 6.17227e-26)
(0.293557 -0.0114111 -5.7919e-26)
(0.294032 -0.0115002 -5.40276e-26)
(0.294591 -0.0115961 3.34466e-21)
(0.295247 -0.0116989 -5.16705e-28)
(0.296007 -0.0118099 5.89571e-21)
(0.296854 -0.0119289 4.19354e-26)
(0.297787 -0.0120557 5.20108e-21)
(0.298797 -0.0121901 0)
(0.299887 -0.0123324 0)
(0.301054 -0.012483 -4.31914e-21)
(0.302288 -0.0126415 2.98314e-26)
(0.30359 -0.0128081 -2.94176e-26)
(0.304961 -0.0129829 7.19569e-21)
(0.30639 -0.013166 -2.56205e-26)
(0.307872 -0.0133573 1.96195e-27)
(0.309409 -0.0135569 -6.01523e-21)
(0.310999 -0.0137651 0)
(0.312637 -0.013982 5.35079e-21)
(0.314319 -0.0142071 0)
(0.316044 -0.0144411 -9.53887e-21)
(0.317808 -0.0146836 9.01345e-21)
(0.319609 -0.0149348 -8.52208e-21)
(0.321441 -0.0151944 0)
(0.323297 -0.0154625 -1.44179e-26)
(0.325191 -0.0157395 2.71971e-28)
(0.327114 -0.0160259 -6.85446e-21)
(0.329058 -0.0163207 -1.22854e-26)
(0.331028 -0.0166247 -1.23489e-20)
(0.333015 -0.0169376 -1.17344e-20)
(0.335023 -0.0172595 1.07482e-26)
(0.337047 -0.0175906 1.06245e-20)
(0.339077 -0.0179302 -1.69683e-26)
(0.34112 -0.0182787 9.2956e-27)
(0.343179 -0.0186364 8.71935e-27)
(0.345243 -0.019003 8.81474e-21)
(0.347313 -0.0193786 -1.3408e-28)
(0.349391 -0.0197638 -7.7718e-27)
(0.351467 -0.0201579 -1.5506e-20)
(0.353546 -0.0205611 1.48951e-20)
(0.355622 -0.0209732 -2.86539e-20)
(0.357702 -0.0213946 -1.37988e-20)
(0.359789 -0.0218262 -1.33095e-20)
(0.361851 -0.022266 0)
(0.215399 -0.0709134 -1.7995e-24)
(0.211266 -0.0703689 -1.54831e-20)
(0.209354 -0.0697171 -2.00145e-24)
(0.214955 -0.0706615 -6.17402e-26)
(0.232645 -0.0746312 -8.9644e-21)
(0.258887 -0.0802163 1.83645e-20)
(0.327119 -0.0984616 1.86461e-20)
(0.375878 -0.131827 2.04024e-24)
(0.246796 -0.122985 -4.31538e-24)
(0.00814121 -0.00582254 -1.9813e-20)
(-0.0967262 0.113455 -5.35209e-24)
(-0.00487433 0.00762906 0)
(0.019023 -0.0610872 -6.24883e-21)
(-0.0207539 0.327034 -1.36554e-21)
(0.0670943 0.493553 0)
(-0.0959624 -0.334143 0)
(-0.500491 -1.12287 9.99092e-21)
(-0.236734 -0.326639 -2.02765e-20)
(-0.0427827 -0.0359562 4.22096e-20)
(-0.453011 -0.25504 0)
(-0.181003 -0.0666892 -3.51569e-24)
(0.99369 0.104578 -3.06414e-21)
(1.57175 -0.0205703 3.98369e-22)
(1.37741 -0.0760596 -9.08848e-25)
(1.10731 -0.05227 8.72902e-25)
(1.02029 -0.0388145 -1.76709e-21)
(0.956766 -0.0298384 -4.03939e-25)
(0.949589 -0.026306 1.56754e-21)
(0.974799 -0.0270949 1.45679e-21)
(1.00705 -0.0314246 -6.72556e-25)
(1.01741 -0.035286 3.19323e-25)
(1.01387 -0.0376324 2.49472e-21)
(0.99694 -0.0381898 -2.38783e-21)
(0.971532 -0.0370093 4.5566e-21)
(0.950809 -0.0352137 2.63743e-25)
(0.939383 -0.0340574 4.06333e-21)
(0.933948 -0.0335391 -3.81596e-21)
(0.933608 -0.0336799 -2.177e-25)
(0.933047 -0.0341148 -6.73462e-21)
(0.930283 -0.0343839 -6.33344e-21)
(0.926232 -0.0344622 2.97942e-21)
(0.921847 -0.0343751 1.7011e-25)
(0.918791 -0.034308 5.25634e-21)
(0.9171 -0.0343445 1.51285e-25)
(0.916346 -0.0344762 1.40445e-25)
(0.915919 -0.0346539 4.33962e-21)
(0.91561 -0.0348306 0)
(0.915578 -0.0350095 0)
(0.915953 -0.0352045 0)
(0.916804 -0.0354312 -1.00646e-25)
(0.918063 -0.0356896 -6.31022e-21)
(0.91965 -0.0359732 1.80736e-25)
(0.921516 -0.0362779 -8.35364e-26)
(0.923691 -0.0366049 1.04355e-20)
(0.926176 -0.0369569 -9.79822e-21)
(0.928942 -0.0373337 -7.07339e-26)
(0.931981 -0.0377356 -1.72889e-20)
(0.935266 -0.0381616 -6.14983e-26)
(0.938794 -0.0386122 7.63535e-21)
(0.94256 -0.0390883 0)
(0.946544 -0.0395894 4.74579e-26)
(0.950739 -0.0401161 -4.89008e-26)
(0.955135 -0.0406684 1.19615e-20)
(0.959713 -0.0412464 -4.25896e-26)
(0.964469 -0.0418501 -2.12205e-20)
(0.969393 -0.0424805 -9.9999e-21)
(0.974478 -0.0431374 -3.56411e-26)
(0.979717 -0.0438214 6.43582e-28)
(0.985087 -0.0445317 3.23434e-26)
(0.990585 -0.0452689 1.58586e-20)
(0.996204 -0.0460331 -1.49853e-20)
(1.00194 -0.0468244 1.41685e-20)
(1.00777 -0.0476423 -1.34045e-20)
(1.01368 -0.048487 1.26898e-20)
(1.01969 -0.0493596 0)
(1.02579 -0.0502604 2.27932e-20)
(1.03196 -0.0511887 1.08125e-20)
(1.0382 -0.0521451 2.05323e-20)
(1.04449 -0.0531291 1.95106e-20)
(1.05085 -0.0541419 3.57422e-26)
(1.05724 -0.0551825 -2.2554e-26)
(1.06366 -0.0562502 -1.68336e-20)
(1.07012 -0.0573461 1.60573e-20)
(1.07661 -0.0584698 0)
(1.08311 -0.0596213 -2.9314e-20)
(1.08963 -0.0608012 0)
(1.09617 -0.0620107 0)
(1.1027 -0.063248 0)
(1.10923 -0.0645133 -2.34552e-26)
(1.11575 -0.0658065 3.14618e-26)
(1.12228 -0.0671285 -2.20335e-26)
(1.12881 -0.0684817 2.21316e-20)
(1.13527 -0.0698608 0)
(0.671141 -0.220906 -2.44166e-20)
(0.659294 -0.219531 -3.24678e-24)
(0.653512 -0.217671 -2.11624e-26)
(0.66962 -0.220416 3.25646e-24)
(0.721299 -0.231975 0)
(0.798839 -0.248834 -3.04366e-20)
(0.996032 -0.301559 -1.54276e-20)
(1.1415 -0.399412 -1.43507e-20)
(0.776769 -0.381624 0)
(0.0611196 -0.0374316 3.26971e-20)
(-0.278617 0.327818 8.84372e-24)
(-0.0195067 0.0258765 2.10668e-20)
(0.0491354 -0.138369 1.02922e-20)
(-0.0571023 0.992686 0)
(0.184944 1.42013 0)
(-0.184866 -0.523126 1.3774e-23)
(-0.828992 -1.85527 -1.12096e-20)
(-0.434788 -0.617731 0)
(-0.099865 -0.0841939 -2.3712e-20)
(-0.743818 -0.417837 -2.27789e-20)
(-0.207318 -0.0970939 0)
(1.77979 0.172671 6.85275e-21)
(2.70026 -0.0384145 -4.46567e-22)
(2.37318 -0.127276 5.58673e-25)
(1.93727 -0.0887683 -9.81248e-25)
(1.79215 -0.0670734 4.82535e-25)
(1.68932 -0.0522062 -4.62343e-25)
(1.6791 -0.046632 5.21343e-27)
(1.72145 -0.0482001 2.33652e-26)
(1.77365 -0.0555943 0)
(1.78959 -0.062099 3.59942e-25)
(1.78213 -0.0660284 -3.42771e-25)
(1.75255 -0.0669081 0)
(1.70962 -0.0648919 -5.13958e-21)
(1.67487 -0.0618755 0)
(1.65566 -0.0599487 4.58507e-21)
(1.64657 -0.0591043 2.78751e-27)
(1.64583 -0.0593684 2.48092e-25)
(1.64466 -0.0601194 7.60328e-21)
(1.63985 -0.0605844 7.15084e-21)
(1.63296 -0.0607273 -3.88965e-27)
(1.62564 -0.0605943 -3.16213e-21)
(1.62061 -0.0604992 -3.49366e-27)
(1.6179 -0.0605818 5.57081e-21)
(1.6168 -0.0608266 -3.20666e-25)
(1.61629 -0.0611506 0)
(1.61602 -0.0614746 2.79316e-25)
(1.61626 -0.0618032 -5.27039e-25)
(1.61724 -0.0621613 4.94502e-25)
(1.61905 -0.0625759 -7.60126e-21)
(1.62157 -0.063045 7.13256e-21)
(1.62468 -0.0635587 -2.05628e-25)
(1.62829 -0.06411 -6.28289e-21)
(1.63245 -0.0647013 -1.78465e-25)
(1.63715 -0.0653361 -1.10775e-20)
(1.64235 -0.0660152 1.57598e-25)
(1.64804 -0.0667388 9.77375e-21)
(1.65417 -0.0675056 1.41264e-25)
(1.66072 -0.0683159 -8.63382e-21)
(1.66769 -0.0691706 8.11849e-21)
(1.67505 -0.0700703 1.10544e-25)
(1.68277 -0.071015 -2.19325e-25)
(1.69085 -0.0720053 -1.35277e-20)
(1.69925 -0.0730407 -1.27386e-20)
(1.70796 -0.0741226 2.40009e-20)
(1.71697 -0.0752513 1.13105e-20)
(1.72625 -0.0764267 8.06271e-26)
(1.73579 -0.0776496 -1.45593e-27)
(1.74556 -0.07892 -7.31701e-26)
(1.75555 -0.0802373 1.79389e-20)
(1.76575 -0.0816026 6.40499e-26)
(1.77614 -0.0830154 -6.17549e-26)
(1.78669 -0.0844758 1.51637e-20)
(1.7974 -0.0859835 -1.43555e-20)
(1.80826 -0.0875404 0)
(1.81926 -0.0891466 -1.28931e-20)
(1.83039 -0.090802 -2.44648e-20)
(1.84162 -0.0925062 0)
(1.85293 -0.0942595 -2.20735e-20)
(1.86434 -0.096063 -2.09942e-20)
(1.87581 -0.0979153 -1.99864e-20)
(1.88732 -0.099816 3.60027e-26)
(1.89888 -0.101766 1.34383e-26)
(1.91048 -0.103764 -3.33904e-26)
(1.9221 -0.105811 3.31665e-20)
(1.93374 -0.107909 -1.58697e-20)
(1.9454 -0.110058 1.52047e-20)
(1.95703 -0.112256 5.56621e-26)
(1.96864 -0.114503 -5.3469e-26)
(1.98022 -0.116799 -2.04253e-26)
(1.9918 -0.119144 2.49301e-26)
(2.00338 -0.121545 0)
(2.0148 -0.12399 0)
(1.17919 -0.388055 5.50936e-20)
(1.16003 -0.386146 2.89922e-20)
(1.15015 -0.383163 0)
(1.17628 -0.387696 -1.60649e-20)
(1.26154 -0.406743 1.67517e-20)
(1.39094 -0.435525 1.71362e-20)
(1.71306 -0.521826 0)
(1.95875 -0.683915 6.22345e-24)
(1.37804 -0.666492 -7.86099e-24)
(0.166305 -0.0962187 1.89653e-23)
(-0.452808 0.534323 2.1423e-20)
(-0.041974 0.0495688 4.81694e-24)
(0.0713453 -0.160759 -1.15403e-20)
(-0.0820244 1.69722 0)
(0.283547 2.31216 0)
(-0.295885 -0.670213 -2.30964e-23)
(-1.14507 -2.55247 1.47284e-23)
(-0.665664 -0.971706 0)
(-0.186089 -0.159452 0)
(-1.0151 -0.570111 5.11379e-20)
(-0.129962 -0.111185 1.98265e-20)
(2.67736 0.237866 -3.78532e-21)
(3.89047 -0.0595617 -1.87086e-24)
(3.43162 -0.178259 4.61267e-21)
(2.84772 -0.126491 -1.12016e-24)
(2.64596 -0.0973646 2.23103e-21)
(2.5079 -0.0768158 2.112e-21)
(2.49649 -0.0695355 -1.98337e-21)
(2.55588 -0.0721074 -1.84312e-21)
(2.62602 -0.0826735 1.74155e-21)
(2.64608 -0.0918468 4.11235e-30)
(2.63329 -0.0973584 -1.54511e-24)
(2.59006 -0.0985201 3.02904e-21)
(2.52948 -0.0956484 2.89208e-21)
(2.48091 -0.0914147 -1.33567e-24)
(2.45405 -0.0887377 6.13886e-25)
(2.44148 -0.0875969 4.85141e-21)
(2.4403 -0.0880171 -5.58968e-25)
(2.43843 -0.0891122 -4.28377e-21)
(2.43158 -0.0897946 -4.02915e-21)
(2.42193 -0.0900226 -3.79299e-21)
(2.4119 -0.0898643 7.35469e-27)
(2.40519 -0.0897673 2.23896e-28)
(2.40181 -0.0899254 -6.28229e-21)
(2.40073 -0.0903167 -5.89379e-21)
(2.40055 -0.0908223 0)
(2.4008 -0.0913295 5.19073e-21)
(2.40182 -0.0918463 3.36746e-27)
(2.40396 -0.092408 2.80673e-25)
(2.40734 -0.0930537 -2.60221e-25)
(2.41176 -0.0937794 -8.05018e-21)
(2.41706 -0.0945712 0)
(2.42313 -0.0954203 -7.09304e-21)
(2.43001 -0.0963287 -6.65953e-21)
(2.4377 -0.0973023 1.25073e-20)
(2.44614 -0.0983423 1.17479e-20)
(2.4553 -0.0994483 1.10369e-20)
(2.46512 -0.100619 0)
(2.47557 -0.101855 -9.75047e-21)
(2.48663 -0.103157 7.89706e-27)
(2.49826 -0.104526 -7.54256e-27)
(2.51044 -0.105963 -1.62321e-20)
(2.52313 -0.107468 -1.15574e-25)
(2.5363 -0.10904 2.87784e-20)
(2.54993 -0.110682 -2.71112e-20)
(2.56397 -0.112393 0)
(2.57842 -0.114174 -1.20484e-20)
(2.59322 -0.116025 0)
(2.60837 -0.117947 0)
(2.62383 -0.11994 2.01693e-26)
(2.63956 -0.122003 -1.91506e-20)
(2.65557 -0.124137 -1.81073e-20)
(2.67181 -0.126341 0)
(2.68826 -0.128617 0)
(2.70492 -0.130965 1.53647e-20)
(2.72176 -0.133386 5.61289e-26)
(2.73876 -0.13588 3.80176e-26)
(2.75589 -0.138446 2.62441e-20)
(2.77313 -0.141085 0)
(2.79048 -0.143798 2.37194e-20)
(2.80789 -0.146583 4.34874e-26)
(2.82535 -0.14944 0)
(2.84286 -0.152369 -4.10513e-20)
(2.86038 -0.15537 3.7066e-26)
(2.87792 -0.158442 -1.8736e-20)
(2.89547 -0.161589 1.79297e-20)
(2.91301 -0.164811 -4.64561e-26)
(2.93048 -0.168106 3.296e-20)
(2.9479 -0.171472 0)
(2.96524 -0.174908 3.04539e-20)
(2.98253 -0.178418 -5.55958e-26)
(2.99982 -0.182009 -2.82909e-20)
(3.01685 -0.185665 0)
(1.74029 -0.572607 -3.10229e-20)
(1.71464 -0.570591 -7.95575e-24)
(1.70061 -0.566644 0)
(1.73581 -0.572872 1.80956e-20)
(1.85293 -0.598985 -1.88628e-20)
(2.03306 -0.640014 9.47764e-24)
(2.47064 -0.757546 0)
(2.81698 -0.981753 1.80217e-20)
(2.05248 -0.976728 -1.72763e-20)
(0.339664 -0.190763 -2.03995e-20)
(-0.607441 0.723347 3.88145e-24)
(-0.0744715 0.082413 -2.6472e-20)
(0.0838245 -0.109844 -7.22288e-24)
(-0.0922791 2.4119 2.76794e-21)
(0.355859 3.13199 7.31507e-24)
(-0.429397 -0.756548 9.63609e-21)
(-1.43707 -3.18308 -4.43681e-23)
(-0.923486 -1.38166 -2.77376e-20)
(-0.30704 -0.268732 -2.91751e-23)
(-1.25064 -0.707009 2.68242e-23)
(0.0828053 -0.103418 -2.17949e-20)
(3.68897 0.297887 -4.14529e-21)
(5.1277 -0.0836693 2.21683e-24)
(4.54481 -0.227962 -1.02032e-20)
(3.83852 -0.165117 2.47381e-26)
(3.58403 -0.1296 -4.97601e-21)
(3.41685 -0.103776 -2.35869e-21)
(3.4064 -0.0951909 0)
(3.48193 -0.0989709 2.0611e-21)
(3.56695 -0.112762 -1.94632e-21)
(3.5892 -0.124584 -9.05427e-25)
(3.56956 -0.131651 -3.53863e-21)
(3.51204 -0.13306 -2.84037e-26)
(3.43439 -0.12935 -3.2394e-21)
(3.3728 -0.123943 -7.46452e-25)
(3.33882 -0.120564 -5.79026e-21)
(3.3232 -0.119175 -5.44316e-21)
(3.32169 -0.119793 -6.21471e-25)
(3.31921 -0.121267 5.89597e-25)
(3.31055 -0.122197 0)
(3.29854 -0.122543 0)
(3.28633 -0.122396 3.63104e-27)
(3.27855 -0.122337 -1.50505e-20)
(3.27515 -0.122616 -4.2891e-25)
(3.27477 -0.1232 6.62847e-21)
(3.27565 -0.123935 6.22117e-21)
(3.27718 -0.124676 -1.16785e-20)
(3.27982 -0.125434 5.48058e-21)
(3.28401 -0.126254 0)
(3.28989 -0.127189 9.65441e-21)
(3.29718 -0.128232 9.06048e-21)
(3.30567 -0.129366 0)
(3.31525 -0.130579 7.9845e-21)
(3.32593 -0.131874 2.30418e-25)
(3.33771 -0.133258 0)
(3.35053 -0.134733 -1.32277e-20)
(3.36432 -0.136299 -2.48557e-20)
(3.379 -0.137954 1.76855e-25)
(3.39455 -0.139698 1.098e-20)
(3.41091 -0.141534 1.26562e-26)
(3.42805 -0.143461 9.71321e-21)
(3.44592 -0.145481 1.82811e-20)
(3.46447 -0.147595 -1.32467e-25)
(3.48366 -0.149801 -1.62057e-20)
(3.50344 -0.152101 1.5267e-20)
(3.52378 -0.154497 -1.43895e-20)
(3.54463 -0.156989 1.35694e-20)
(3.56595 -0.159577 1.28019e-20)
(3.58771 -0.162261 -1.86189e-25)
(3.60985 -0.165042 -4.56476e-20)
(3.63235 -0.167918 -3.13575e-26)
(3.65517 -0.170891 2.0392e-20)
(3.67828 -0.173961 1.92926e-20)
(3.70164 -0.177127 0)
(3.72524 -0.180392 2.61496e-26)
(3.74904 -0.183755 0)
(3.77302 -0.187217 1.55619e-20)
(3.79713 -0.190778 -5.91016e-20)
(3.82135 -0.194437 -1.08184e-25)
(3.84568 -0.198196 0)
(3.87005 -0.202053 0)
(3.89443 -0.206007 2.42257e-20)
(3.91883 -0.210058 2.31078e-20)
(3.9432 -0.214206 0)
(3.96754 -0.218449 0)
(3.99185 -0.222794 0)
(4.01609 -0.227239 -3.86731e-20)
(4.0402 -0.231782 -3.7099e-20)
(4.06417 -0.23642 0)
(4.088 -0.241152 0)
(4.11172 -0.245984 -6.25711e-26)
(4.13537 -0.250922 6.73611e-27)
(4.15862 -0.255948 -5.83356e-26)
(2.35461 -0.774614 0)
(2.32376 -0.773052 0)
(2.30574 -0.768402 1.93425e-20)
(2.34861 -0.776157 -4.05577e-20)
(2.49445 -0.808569 -1.02057e-23)
(2.72221 -0.861724 1.05838e-23)
(3.2603 -1.00675 9.95499e-24)
(3.70337 -1.28875 -2.00559e-20)
(2.79879 -1.31005 1.90187e-20)
(0.598501 -0.330038 -2.25552e-20)
(-0.732909 0.882141 5.0697e-23)
(-0.119301 0.130374 2.95038e-20)
(0.0825738 0.027129 1.42303e-20)
(-0.0839428 3.09285 -3.0288e-21)
(0.394249 3.83847 0)
(-0.585063 -0.769717 -1.01173e-20)
(-1.69625 -3.71752 0)
(-1.19392 -1.82968 3.02216e-20)
(-0.466629 -0.417056 0)
(-1.43492 -0.821092 -3.20936e-20)
(0.463678 -0.0697261 -2.36105e-20)
(4.81073 0.349937 4.45444e-21)
(6.3955 -0.110151 4.52539e-24)
(5.70502 -0.275468 5.57473e-21)
(4.90818 -0.204335 -2.77172e-21)
(4.60764 -0.163675 1.58065e-24)
(4.41926 -0.133182 2.60982e-21)
(4.41189 -0.123741 0)
(4.50157 -0.128895 -2.28563e-21)
(4.59735 -0.145889 7.26001e-27)
(4.61948 -0.160289 -1.0053e-24)
(4.59158 -0.168863 3.93365e-21)
(4.51976 -0.170508 -3.76903e-21)
(4.42651 -0.166025 3.60351e-21)
(4.35345 -0.159536 1.66215e-24)
(4.3134 -0.155539 6.4523e-21)
(4.29554 -0.153974 -2.96351e-24)
(4.29402 -0.154841 1.39972e-24)
(4.29126 -0.156737 0)
(4.28135 -0.157959 -5.05212e-21)
(4.26776 -0.158474 0)
(4.25437 -0.158394 4.47641e-21)
(4.24654 -0.158433 1.68169e-20)
(4.24416 -0.158893 -7.8953e-21)
(4.24554 -0.159733 9.09544e-25)
(4.24857 -0.160763 5.92299e-27)
(4.25256 -0.161806 6.53175e-21)
(4.25805 -0.162874 5.90339e-27)
(4.26557 -0.164025 1.15105e-20)
(4.27526 -0.165324 -1.08034e-20)
(4.28678 -0.166763 -1.01404e-20)
(4.29985 -0.16832 0)
(4.31434 -0.169979 0)
(4.33028 -0.171747 0)
(4.34763 -0.17363 1.57635e-20)
(4.36631 -0.175633 1.48072e-20)
(4.38623 -0.177753 1.39127e-20)
(4.4073 -0.17999 -4.02185e-25)
(4.42948 -0.182343 0)
(4.45269 -0.184815 -1.15579e-20)
(4.47687 -0.187407 1.08724e-20)
(4.50197 -0.190119 -2.04614e-20)
(4.52792 -0.192952 -2.91356e-25)
(4.55465 -0.195906 -1.81357e-20)
(4.5821 -0.198981 -2.58366e-25)
(4.61024 -0.202182 1.6101e-20)
(4.63898 -0.205505 2.3387e-25)
(4.66829 -0.208954 -1.43215e-20)
(4.6981 -0.212527 0)
(4.72835 -0.216223 -5.54698e-26)
(4.75899 -0.220045 2.41201e-20)
(4.78999 -0.22399 1.75723e-25)
(4.8213 -0.22806 4.83129e-26)
(4.85287 -0.232255 -2.04188e-20)
(4.88467 -0.236576 -1.93415e-20)
(4.91667 -0.241023 1.4129e-25)
(4.94882 -0.245597 1.31423e-25)
(4.98107 -0.250297 6.60421e-20)
(5.01338 -0.255124 0)
(5.04574 -0.260078 1.12761e-25)
(5.07809 -0.265157 -1.09382e-25)
(5.11038 -0.27036 6.77032e-26)
(5.14261 -0.275686 0)
(5.17473 -0.281135 2.46374e-20)
(5.20673 -0.286706 -2.35477e-20)
(5.2386 -0.292405 8.66913e-26)
(5.27031 -0.298233 2.15831e-20)
(5.30177 -0.304183 4.14046e-20)
(5.33298 -0.310253 7.64301e-26)
(5.36392 -0.316443 0)
(5.39465 -0.322758 -3.68297e-20)
(5.4252 -0.329208 -9.77717e-26)
(5.45517 -0.335766 -3.4302e-20)
(3.02143 -0.99386 0)
(2.98712 -0.993439 4.09537e-20)
(2.96561 -0.988467 -4.32594e-20)
(3.01443 -0.997534 2.26712e-20)
(3.18441 -1.03515 -2.29542e-23)
(3.45463 -1.09979 2.29337e-23)
(4.07333 -1.26735 -2.3572e-23)
(4.6036 -1.60042 4.42799e-20)
(3.61148 -1.6619 -2.07646e-20)
(0.960696 -0.52276 2.45537e-20)
(-0.815592 0.999733 2.01805e-23)
(-0.177547 0.198467 -6.47694e-23)
(0.067642 0.254361 -1.55062e-20)
(-0.0557575 3.69997 0)
(0.387586 4.38224 -1.90817e-23)
(-0.763822 -0.70584 1.03526e-20)
(-1.91504 -4.13574 1.66619e-20)
(-1.45376 -2.2831 -3.24904e-20)
(-0.66351 -0.607779 -1.41155e-22)
(-1.54902 -0.908503 3.56557e-20)
(1.04448 -0.0055489 2.49359e-20)
(6.03036 0.39076 0)
(7.67711 -0.138191 0)
(6.90479 -0.320116 5.98733e-21)
(6.05263 -0.243879 2.99762e-21)
(5.7157 -0.199458 2.98996e-21)
(5.51521 -0.165076 -1.62086e-25)
(5.51256 -0.155223 2.5921e-24)
(5.61313 -0.161851 2.49745e-21)
(5.71471 -0.181949 2.30612e-24)
(5.73427 -0.198814 -6.87058e-29)
(5.69714 -0.20884 -2.10394e-24)
(5.61196 -0.210749 4.14037e-21)
(5.50567 -0.205624 1.93072e-24)
(5.4236 -0.198202 -3.76157e-21)
(5.37915 -0.193708 -7.11311e-21)
(5.36026 -0.19206 6.69378e-21)
(5.35935 -0.193241 1.53024e-24)
(5.35699 -0.195616 -1.45306e-24)
(5.34687 -0.197191 5.58164e-21)
(5.33298 -0.197947 -5.25902e-21)
(5.31992 -0.198013 -1.20264e-24)
(5.31357 -0.198232 -9.30271e-21)
(5.3137 -0.198954 2.16706e-27)
(5.3183 -0.200131 8.20259e-21)
(5.325 -0.201539 -7.70118e-21)
(5.33304 -0.202967 -7.23204e-21)
(5.34304 -0.204433 -6.78995e-21)
(5.35557 -0.206006 -2.5494e-20)
(5.37077 -0.207761 -1.19644e-20)
(5.38823 -0.209689 0)
(5.40763 -0.211765 0)
(5.4288 -0.213971 -6.00071e-25)
(5.45176 -0.216312 -9.29164e-21)
(5.47645 -0.218798 -1.74532e-20)
(5.50278 -0.221434 -1.63917e-20)
(5.53062 -0.224217 1.53982e-20)
(5.55987 -0.227146 1.447e-20)
(5.59043 -0.230221 -4.18402e-25)
(5.62223 -0.233444 -1.27854e-20)
(5.65519 -0.236817 3.45321e-26)
(5.68923 -0.24034 2.76046e-25)
(5.72424 -0.244013 -5.6992e-27)
(5.76016 -0.247837 2.00406e-20)
(5.79691 -0.251813 -1.88733e-20)
(5.83441 -0.255943 0)
(5.87258 -0.260227 0)
(5.91136 -0.264666 -1.58071e-20)
(5.95067 -0.269258 -1.49136e-20)
(5.99042 -0.274005 -9.41958e-26)
(6.03056 -0.278905 2.65959e-20)
(6.07104 -0.283959 3.83634e-25)
(6.11179 -0.289166 7.98627e-26)
(6.15277 -0.294527 2.24921e-20)
(6.19392 -0.300043 1.6414e-25)
(6.23519 -0.305715 -1.52504e-25)
(6.27653 -0.311542 -1.91386e-20)
(6.31787 -0.317524 -3.63262e-20)
(6.3592 -0.323661 -3.45029e-20)
(6.40046 -0.329954 0)
(6.44157 -0.3364 0)
(6.48251 -0.342997 -5.9455e-20)
(6.52325 -0.349744 2.83432e-20)
(6.56374 -0.356641 -2.70525e-20)
(6.60397 -0.363686 2.58487e-20)
(6.64392 -0.370886 -1.9027e-25)
(6.68355 -0.378242 0)
(6.72276 -0.385747 -4.54127e-20)
(6.76154 -0.393397 1.67613e-25)
(6.79989 -0.401192 0)
(6.83787 -0.409138 -3.34274e-25)
(6.87552 -0.417247 3.89174e-20)
(6.91235 -0.425485 3.75761e-20)
(3.7388 -1.22973 4.32689e-20)
(3.70315 -1.23123 -4.54424e-20)
(3.6791 -1.22646 4.79784e-20)
(3.73198 -1.23662 3.37754e-26)
(3.92032 -1.27807 -2.58024e-25)
(4.22573 -1.35298 -5.85831e-25)
(4.90169 -1.5373 -2.57065e-23)
(5.50319 -1.91235 1.95804e-23)
(4.47902 -2.02672 2.21464e-20)
(1.44051 -0.775498 2.63161e-20)
(-0.832899 1.06315 -3.33548e-20)
(-0.247032 0.288903 -3.6449e-20)
(0.0433041 0.565068 0)
(-0.00773263 4.1982 3.50512e-21)
(0.32934 4.71332 9.37882e-21)
(-0.967163 -0.583611 -1.03349e-20)
(-2.08917 -4.42012 -1.78665e-20)
(-1.67802 -2.70507 6.91938e-20)
(-0.889259 -0.836168 0)
(-1.56403 -0.967684 -3.9026e-20)
(1.85371 0.089396 -2.27085e-23)
(7.32364 0.418993 -4.7842e-21)
(8.957 -0.166627 6.84592e-22)
(8.13586 -0.361528 -6.29238e-21)
(7.26327 -0.283453 0)
(6.90239 -0.236726 0)
(6.69898 -0.199356 -3.05862e-21)
(6.70183 -0.189488 2.8896e-21)
(6.80887 -0.197606 -2.68537e-21)
(6.91102 -0.220634 0)
(6.92579 -0.239822 0)
(6.87931 -0.251259 -2.27946e-24)
(6.78296 -0.25352 2.14529e-24)
(6.66739 -0.247954 0)
(6.57968 -0.239803 8.142e-21)
(6.53317 -0.234974 -7.70591e-21)
(6.51487 -0.233357 -7.26417e-21)
(6.51558 -0.234931 -6.83303e-21)
(6.51474 -0.237856 1.57854e-24)
(6.50592 -0.239866 6.0665e-21)
(6.49358 -0.240958 -2.39777e-27)
(6.48289 -0.241272 5.38311e-21)
(6.47999 -0.241771 1.22956e-24)
(6.48452 -0.242854 9.5074e-21)
(6.49419 -0.244463 -8.92789e-21)
(6.50643 -0.246345 8.38456e-21)
(6.52043 -0.248257 7.86973e-21)
(6.53688 -0.250221 -7.38977e-21)
(6.55636 -0.252315 8.10873e-25)
(6.57899 -0.254626 1.30164e-20)
(6.60431 -0.257146 -1.22145e-20)
(6.63192 -0.259843 0)
(6.66165 -0.262698 0)
(6.69348 -0.265718 1.00961e-20)
(6.72734 -0.268912 0)
(6.76309 -0.272287 -1.77915e-20)
(6.80059 -0.275839 -4.46453e-25)
(6.8397 -0.279567 -1.56879e-20)
(6.88029 -0.283472 -4.46177e-25)
(6.92228 -0.287555 7.85776e-25)
(6.96555 -0.291817 -3.43302e-25)
(7.00999 -0.29626 4.89338e-20)
(7.05548 -0.300883 -7.08446e-25)
(7.10192 -0.305686 2.16448e-20)
(7.14923 -0.310672 2.03692e-20)
(7.19729 -0.315842 0)
(7.24602 -0.321196 0)
(7.29531 -0.326734 1.70219e-20)
(7.34508 -0.332456 1.60493e-20)
(7.39523 -0.338361 6.05571e-20)
(7.44569 -0.344449 1.52118e-25)
(7.49639 -0.350719 -2.69891e-20)
(7.54725 -0.35717 -2.55041e-20)
(7.59821 -0.363805 2.41162e-20)
(7.64922 -0.370623 2.28191e-20)
(7.70021 -0.377626 -3.26554e-25)
(7.7511 -0.384811 2.04769e-20)
(7.80184 -0.39218 -2.9929e-25)
(7.8524 -0.399731 3.68646e-20)
(7.90271 -0.407466 -2.69828e-25)
(7.9527 -0.415382 -2.51781e-25)
(8.00231 -0.423475 6.3403e-20)
(8.05152 -0.431744 -3.02071e-20)
(8.10029 -0.440188 2.88145e-20)
(8.1486 -0.448807 2.11801e-25)
(8.19642 -0.457606 0)
(8.2437 -0.466588 0)
(8.29036 -0.475744 4.82665e-20)
(8.33635 -0.48507 0)
(8.3817 -0.494565 0)
(8.42647 -0.504235 4.2841e-20)
(8.47071 -0.514095 1.56584e-25)
(8.51388 -0.524106 -1.52934e-25)
(4.50307 -1.48108 2.48369e-23)
(4.46842 -1.48531 -2.43329e-23)
(4.44322 -1.4814 -2.62924e-20)
(4.49838 -1.49249 2.73801e-20)
(4.69857 -1.53627 0)
(5.03002 -1.61966 0)
(5.73856 -1.81471 2.79366e-20)
(6.38923 -2.22107 3.92463e-24)
(5.38354 -2.39497 2.33551e-20)
(2.04745 -1.08913 -2.72908e-20)
(-0.764945 1.04937 -7.32014e-23)
(-0.324945 0.403836 7.66506e-23)
(0.0135309 0.939223 -1.78982e-20)
(0.055286 4.58035 -3.71681e-21)
(0.217437 4.8011 -9.71932e-21)
(-1.19698 -0.438604 0)
(-2.21463 -4.54876 7.67636e-23)
(-1.85083 -3.06846 -3.63423e-20)
(-1.12564 -1.09091 -4.37929e-20)
(-1.44302 -0.982615 4.16009e-20)
(2.89283 0.212259 -2.24805e-23)
(8.65305 0.428836 -5.04791e-24)
(10.2215 -0.194668 -1.41206e-21)
(9.3868 -0.399542 6.43896e-21)
(8.52479 -0.322618 0)
(8.15424 -0.275063 0)
(7.95608 -0.235665 3.19248e-21)
(7.96417 -0.226102 -3.02443e-21)
(8.07272 -0.23565 2.81897e-21)
(8.17062 -0.261377 2.67156e-21)
(8.17911 -0.28273 -5.00686e-24)
(8.12432 -0.295562 -2.11044e-26)
(8.02033 -0.298331 4.55909e-24)
(7.90026 -0.292592 0)
(7.81101 -0.283969 -8.61497e-21)
(7.76532 -0.278997 1.6329e-20)
(7.74962 -0.277545 -3.77854e-24)
(7.75328 -0.279598 -3.58359e-24)
(7.75547 -0.283156 6.83421e-21)
(7.74988 -0.285695 -3.10418e-24)
(7.74132 -0.287235 1.55693e-26)
(7.73534 -0.287913 -5.71544e-21)
(7.73808 -0.288803 2.57931e-26)
(7.74903 -0.290349 2.47738e-24)
(7.76568 -0.292486 0)
(7.78533 -0.294937 -8.89224e-21)
(7.80718 -0.297428 -8.3517e-21)
(7.83191 -0.299982 7.83228e-21)
(7.86011 -0.302688 3.52251e-24)
(7.89185 -0.305645 -1.37789e-20)
(7.92661 -0.308842 1.29164e-20)
(7.96395 -0.312246 1.48832e-24)
(8.00367 -0.315833 0)
(8.04571 -0.319611 -1.06463e-20)
(8.08998 -0.323593 1.99644e-20)
(8.1363 -0.327782 1.87227e-20)
(8.18449 -0.332178 -1.75574e-20)
(8.23437 -0.336775 0)
(8.28581 -0.341577 -9.35631e-25)
(8.33868 -0.346586 2.8998e-20)
(8.39284 -0.351801 -2.72167e-20)
(8.44816 -0.357224 -2.55524e-20)
(8.50449 -0.362854 0)
(8.56171 -0.368691 1.58967e-25)
(8.6197 -0.374739 -2.11866e-20)
(8.67834 -0.380997 -1.99195e-20)
(8.73753 -0.387466 -5.66576e-25)
(8.79714 -0.394147 1.07644e-24)
(8.85707 -0.401037 -5.11605e-25)
(8.91723 -0.408137 -6.25573e-20)
(8.97751 -0.415447 -2.94817e-20)
(9.03784 -0.422964 2.78059e-20)
(9.09814 -0.43069 0)
(9.15833 -0.438623 -2.47816e-20)
(9.21836 -0.446766 -2.34196e-20)
(9.27814 -0.455119 0)
(9.33762 -0.463681 0)
(9.39672 -0.472452 0)
(9.4554 -0.481431 -3.76572e-20)
(9.5136 -0.490618 2.70127e-25)
(9.57125 -0.50001 3.39467e-20)
(9.62829 -0.509605 3.27214e-25)
(9.68469 -0.519401 -3.07291e-20)
(9.7404 -0.529394 -5.85689e-20)
(9.79543 -0.539585 -2.11399e-25)
(9.84973 -0.549983 -2.66882e-20)
(9.90325 -0.560587 1.93241e-25)
(9.95591 -0.571389 -4.88908e-20)
(10.0077 -0.582384 1.80234e-25)
(10.0586 -0.593571 1.70637e-25)
(10.1087 -0.604956 -4.33078e-20)
(10.158 -0.616556 -4.17141e-20)
(10.2061 -0.628329 -4.02387e-20)
(5.3082 -1.74598 -5.15825e-20)
(5.27692 -1.75373 -5.27298e-23)
(5.25237 -1.75143 -5.57456e-23)
(5.30842 -1.7634 -2.95533e-20)
(5.51386 -1.80807 5.92546e-23)
(5.86091 -1.8977 5.79791e-23)
(6.57846 -2.09783 -2.95172e-20)
(7.25197 -2.52371 -2.79263e-20)
(6.30083 -2.75516 -2.40369e-20)
(2.78153 -1.46056 -2.76889e-20)
(-0.592 0.946652 -3.90548e-20)
(-0.406653 0.542931 0)
(-0.0145967 1.35357 -2.10082e-23)
(0.123768 4.86957 -3.27315e-23)
(0.0561206 4.65447 0)
(-1.45198 -0.302067 1.8604e-20)
(-2.28725 -4.51415 -9.05034e-23)
(-1.96417 -3.35819 0)
(-1.3498 -1.3595 4.68163e-20)
(-1.15449 -0.952904 -1.57493e-22)
(4.14342 0.349462 -2.42523e-20)
(9.98729 0.421444 4.63023e-21)
(11.4575 -0.222067 7.09491e-22)
(10.6405 -0.433528 -6.40191e-21)
(9.81408 -0.360722 -3.16374e-24)
(9.44831 -0.313794 0)
(9.26164 -0.273331 -3.24107e-21)
(9.27404 -0.264321 3.08519e-21)
(9.37945 -0.275185 -2.87639e-21)
(9.46948 -0.303338 -4.89422e-24)
(9.47125 -0.326692 5.12482e-24)
(9.41042 -0.340934 5.01556e-21)
(9.30325 -0.344418 -4.82282e-21)
(9.18394 -0.338818 4.63652e-21)
(9.09756 -0.330014 4.42038e-21)
(9.05579 -0.325111 -1.36095e-25)
(9.04474 -0.323961 0)
(9.05284 -0.326579 -3.72082e-24)
(9.05963 -0.330847 -7.02705e-21)
(9.05921 -0.334008 -6.62591e-21)
(9.05658 -0.336101 6.24555e-21)
(9.05745 -0.337251 0)
(9.06772 -0.338629 0)
(9.08668 -0.34072 -2.51834e-24)
(9.11169 -0.343457 2.38678e-24)
(9.14002 -0.346543 2.21471e-24)
(9.17086 -0.349673 -4.2236e-24)
(9.20489 -0.352874 8.01289e-21)
(9.24266 -0.356242 1.50069e-20)
(9.28419 -0.359886 2.81023e-20)
(9.32888 -0.363797 2.02974e-26)
(9.37627 -0.367937 1.51316e-24)
(9.42612 -0.37228 0)
(9.47835 -0.376833 -8.30288e-26)
(9.53281 -0.381611 -2.01899e-20)
(9.58931 -0.386618 -2.30704e-24)
(9.64762 -0.391853 1.76882e-20)
(9.70754 -0.397312 0)
(9.76892 -0.402995 0)
(9.8316 -0.408906 -1.45147e-20)
(9.89542 -0.415045 1.35951e-20)
(9.96021 -0.421412 0)
(10.0258 -0.428008 0)
(10.0921 -0.434831 -4.47652e-20)
(10.159 -0.441886 2.09913e-20)
(10.2263 -0.449173 3.93887e-20)
(10.2939 -0.456692 -5.59036e-25)
(10.3616 -0.464444 1.73634e-20)
(10.4295 -0.472427 -4.93234e-25)
(10.4973 -0.480642 1.07625e-25)
(10.565 -0.489087 4.36207e-25)
(10.6325 -0.497762 2.71692e-20)
(10.6996 -0.506665 0)
(10.7664 -0.515798 0)
(10.8329 -0.525162 0)
(10.8988 -0.534759 -2.14912e-20)
(10.9641 -0.544586 -3.13014e-25)
(11.0288 -0.554644 -3.84172e-20)
(11.0929 -0.564933 7.27364e-20)
(11.1563 -0.575452 0)
(11.2189 -0.586198 -3.26934e-20)
(11.2806 -0.597169 4.84791e-25)
(11.3415 -0.608362 2.95183e-20)
(11.4015 -0.619775 2.80985e-20)
(11.4606 -0.631407 2.67791e-20)
(11.5187 -0.643268 2.55516e-20)
(11.5759 -0.655359 -2.44147e-20)
(11.6321 -0.667671 3.53844e-25)
(11.6871 -0.680198 -3.44192e-25)
(11.7412 -0.692939 4.29658e-20)
(11.7942 -0.705902 4.1291e-20)
(11.8464 -0.719104 3.97475e-20)
(11.8971 -0.732501 3.83202e-20)
(6.11956 -2.03354 -5.64935e-23)
(6.09769 -2.03365 5.89016e-23)
(6.15377 -2.04658 3.12165e-20)
(6.35857 -2.09096 6.23481e-23)
(6.71036 -2.18438 3.13705e-20)
(7.41651 -2.38478 0)
(8.08558 -2.81873 5.54208e-23)
(7.21132 -3.10052 2.42929e-20)
(3.63171 -1.87839 2.71903e-20)
(-0.295331 0.752513 8.08858e-20)
(-0.47831 0.697246 4.9696e-20)
(-0.0398359 1.79548 1.92777e-20)
(0.190009 5.09208 -2.72542e-25)
(-0.154804 4.33471 -3.91388e-23)
(-1.73285 -0.184217 -3.36199e-20)
(-2.32007 -4.34919 0)
(-2.01435 -3.56042 0)
(-1.53895 -1.62264 -4.88952e-20)
(-0.6746 -0.880157 -4.17586e-20)
(5.57 0.486432 2.23223e-20)
(11.2989 0.396318 4.4159e-21)
(12.6509 -0.248358 2.11324e-23)
(11.875 -0.463406 0)
(11.1022 -0.396926 0)