/*--------------------------------*- C++ -*----------------------------------*\
| =========                 |                                                 |
| \\      /  F ield         | OpenFOAM: The Open Source CFD Toolbox           |
|  \\    /   O peration     | Version:  2412                                  |
|   \\  /    A nd           | Website:  www.openfoam.com                      |
|    \\/     M anipulation  |                                                 |
\*---------------------------------------------------------------------------*/
FoamFile
{
    version     2.0;
    format      ascii;
    arch        "LSB;label=32;scalar=64";
    class       volScalarField;
    location    "340";
    object      nut;
}
// * * * * * * * * * * * * * * * * * * * * * * * * * * * * * * * * * * * * * //

dimensions      [0 2 -1 0 0 0 0];

internalField   nonuniform List<scalar> 
7373
(
1.11413e-11
1.11554e-11
1.11696e-11
1.11831e-11
1.1195e-11
1.12059e-11
1.12162e-11
1.12256e-11
1.12345e-11
1.1243e-11
1.12499e-11
1.12553e-11
1.12593e-11
1.1263e-11
1.12651e-11
1.12644e-11
1.12618e-11
1.12576e-11
1.12512e-11
1.12419e-11
1.12292e-11
1.12131e-11
1.11932e-11
1.1169e-11
1.11401e-11
1.11063e-11
1.10658e-11
1.10186e-11
1.0965e-11
1.09025e-11
1.08315e-11
1.07507e-11
1.06583e-11
1.05543e-11
1.04377e-11
1.0306e-11
1.01581e-11
9.99283e-12
9.80799e-12
9.60121e-12
9.3704e-12
9.11338e-12
8.82812e-12
8.51222e-12
8.16361e-12
7.78016e-12
7.36199e-12
6.91044e-12
6.42797e-12
5.92198e-12
5.40213e-12
4.88216e-12
4.37839e-12
3.90013e-12
3.44654e-12
3.00126e-12
2.53014e-12
1.99218e-12
1.36043e-12
6.78127e-13
1.54961e-13
3.52164e-15
7.84456e-14
1.74715e-12
1.28197e-11
5.34189e-11
1.72048e-10
3.8551e-10
1.07088e-09
1.07229e-09
1.07363e-09
1.07489e-09
1.07606e-09
1.07711e-09
1.07806e-09
1.07893e-09
1.07976e-09
1.0805e-09
1.08107e-09
1.08153e-09
1.08188e-09
1.08213e-09
1.08218e-09
1.082e-09
1.08166e-09
1.08115e-09
1.08041e-09
1.07939e-09
1.07807e-09
1.07644e-09
1.07445e-09
1.07203e-09
1.06918e-09
1.06586e-09
1.06189e-09
1.05729e-09
1.05204e-09
1.04594e-09
1.03902e-09
1.03117e-09
1.02221e-09
1.0121e-09
1.00077e-09
9.88e-10
9.73665e-10
9.5763e-10
9.39696e-10
9.19642e-10
8.97286e-10
8.72402e-10
8.44777e-10
8.14182e-10
7.8043e-10
7.43351e-10
7.02935e-10
6.5931e-10
6.12719e-10
5.63881e-10
5.13715e-10
4.63523e-10
4.14858e-10
3.68623e-10
3.24736e-10
2.81664e-10
2.36264e-10
1.84827e-10
1.25143e-10
6.17562e-11
1.40607e-11
3.31663e-13
7.06473e-12
1.49022e-10
1.05587e-09
4.30091e-09
1.3461e-08
3.04914e-08
1.04888e-08
1.05028e-08
1.05158e-08
1.0528e-08
1.05393e-08
1.05495e-08
1.05586e-08
1.05669e-08
1.05745e-08
1.05808e-08
1.05857e-08
1.05893e-08
1.05916e-08
1.05929e-08
1.0592e-08
1.05891e-08
1.05845e-08
1.05781e-08
1.05695e-08
1.0558e-08
1.05438e-08
1.05268e-08
1.05061e-08
1.04812e-08
1.04522e-08
1.04185e-08
1.03788e-08
1.03326e-08
1.02798e-08
1.0219e-08
1.015e-08
1.00716e-08
9.98238e-09
9.8818e-09
9.7689e-09
9.64176e-09
9.49922e-09
9.3397e-09
9.16143e-09
8.96228e-09
8.74033e-09
8.4934e-09
8.21923e-09
7.91568e-09
7.58118e-09
7.21384e-09
6.81391e-09
6.38225e-09
5.92179e-09
5.43943e-09
4.9437e-09
4.44758e-09
3.96599e-09
3.50762e-09
3.07192e-09
2.6448e-09
2.19772e-09
1.69863e-09
1.13251e-09
5.49452e-10
1.24563e-10
3.13034e-12
6.20726e-11
1.20747e-09
8.13615e-09
3.1996e-08
9.59628e-08
2.2194e-07
5.1715e-08
5.17846e-08
5.18492e-08
5.19095e-08
5.19641e-08
5.20134e-08
5.20569e-08
5.20962e-08
5.2131e-08
5.21586e-08
5.21788e-08
5.21913e-08
5.21978e-08
5.2198e-08
5.21877e-08
5.21668e-08
5.21371e-08
5.20991e-08
5.20498e-08
5.19861e-08
5.19092e-08
5.1819e-08
5.17112e-08
5.15827e-08
5.14335e-08
5.12613e-08
5.10598e-08
5.08265e-08
5.05601e-08
5.02545e-08
4.99061e-08
4.95108e-08
4.90621e-08
4.85568e-08
4.79883e-08
4.73497e-08
4.66329e-08
4.58322e-08
4.49367e-08
4.39374e-08
4.28236e-08
4.1585e-08
4.02105e-08
3.86902e-08
3.70143e-08
3.51768e-08
3.31769e-08
3.10196e-08
2.87204e-08
2.63115e-08
2.38357e-08
2.13568e-08
1.89456e-08
1.66458e-08
1.44567e-08
1.2316e-08
1.00994e-08
7.67651e-09
5.01373e-09
2.38046e-09
5.37361e-10
1.46605e-11
2.65663e-10
4.70179e-09
2.99267e-08
1.12921e-07
3.21293e-07
7.52554e-07
1.81911e-07
1.82158e-07
1.82385e-07
1.82594e-07
1.82784e-07
1.82954e-07
1.83103e-07
1.83235e-07
1.83349e-07
1.83437e-07
1.83496e-07
1.83526e-07
1.83534e-07
1.83518e-07
1.83465e-07
1.83373e-07
1.83249e-07
1.83095e-07
1.82901e-07
1.82656e-07
1.82366e-07
1.82029e-07
1.8163e-07
1.81159e-07
1.80614e-07
1.79988e-07
1.7926e-07
1.78417e-07
1.77457e-07
1.76355e-07
1.75099e-07
1.73675e-07
1.72062e-07
1.70244e-07
1.682e-07
1.65902e-07
1.63328e-07
1.60449e-07
1.57232e-07
1.53642e-07
1.49642e-07
1.45196e-07
1.40265e-07
1.34811e-07
1.28806e-07
1.22225e-07
1.15067e-07
1.0735e-07
9.91308e-08
9.0519e-08
8.16658e-08
7.27925e-08
6.41434e-08
5.58762e-08
4.80027e-08
4.03432e-08
3.25327e-08
2.42258e-08
1.54428e-08
7.15705e-09
1.60983e-09
4.83865e-11
7.90089e-10
1.26065e-08
7.53733e-08
2.71247e-07
7.25646e-07
1.70593e-06
5.21916e-07
5.22619e-07
5.23261e-07
5.23853e-07
5.24388e-07
5.24867e-07
5.25285e-07
5.25652e-07
5.25964e-07
5.26201e-07
5.26352e-07
5.26417e-07
5.26417e-07
5.26347e-07
5.26171e-07
5.25879e-07
5.25494e-07
5.25022e-07
5.24426e-07
5.23687e-07
5.22818e-07
5.2181e-07
5.20621e-07
5.19222e-07
5.17606e-07
5.15754e-07
5.136e-07
5.11113e-07
5.08279e-07
5.05033e-07
5.01334e-07
4.97141e-07
4.92395e-07
4.87043e-07
4.81026e-07
4.7427e-07
4.667e-07
4.58232e-07
4.48773e-07
4.38218e-07
4.26463e-07
4.134e-07
3.98919e-07
3.82911e-07
3.65297e-07
3.46011e-07
3.25047e-07
3.02465e-07
2.78422e-07
2.5323e-07
2.27322e-07
2.01331e-07
1.75945e-07
1.5165e-07
1.28548e-07
1.06273e-07
8.40195e-08
6.11188e-08
3.79377e-08
1.71431e-08
3.84628e-09
1.2898e-10
1.87559e-09
2.67538e-08
1.49329e-07
5.09269e-07
1.26978e-06
2.97946e-06
1.30292e-06
1.30463e-06
1.30619e-06
1.30764e-06
1.30894e-06
1.31011e-06
1.31113e-06
1.31204e-06
1.3128e-06
1.31339e-06
1.31376e-06
1.31393e-06
1.31394e-06
1.31376e-06
1.31333e-06
1.31261e-06
1.31165e-06
1.31046e-06
1.30895e-06
1.30708e-06
1.30486e-06
1.30228e-06
1.29922e-06
1.29562e-06
1.29145e-06
1.28668e-06
1.28112e-06
1.27471e-06
1.2674e-06
1.25904e-06
1.24951e-06
1.23872e-06
1.2265e-06
1.21274e-06
1.19726e-06
1.17989e-06
1.16042e-06
1.13865e-06
1.11433e-06
1.08721e-06
1.05701e-06
1.02347e-06
9.86316e-07
9.45282e-07
9.00171e-07
8.50834e-07
7.97256e-07
7.39593e-07
6.7825e-07
6.13987e-07
5.47901e-07
4.81558e-07
4.16689e-07
3.54639e-07
2.95919e-07
2.40056e-07
1.85638e-07
1.31663e-07
7.94791e-08
3.50028e-08
7.8441e-09
2.96987e-10
3.80525e-09
4.80723e-08
2.48638e-07
7.9803e-07
1.83899e-06
4.29914e-06
2.93141e-06
2.9351e-06
2.93848e-06
2.94161e-06
2.94444e-06
2.94698e-06
2.94924e-06
2.95124e-06
2.95295e-06
2.95428e-06
2.95516e-06
2.95561e-06
2.95571e-06
2.95542e-06
2.95452e-06
2.95299e-06
2.95094e-06
2.94832e-06
2.94493e-06
2.9407e-06
2.93564e-06
2.92968e-06
2.92259e-06
2.9142e-06
2.90446e-06
2.89326e-06
2.88023e-06
2.86522e-06
2.84812e-06
2.82855e-06
2.80625e-06
2.78101e-06
2.75247e-06
2.72031e-06
2.68416e-06
2.6436e-06
2.59816e-06
2.54736e-06
2.49066e-06
2.42745e-06
2.35714e-06
2.27913e-06
2.1928e-06
2.09762e-06
1.99315e-06
1.8791e-06
1.75547e-06
1.62263e-06
1.48153e-06
1.33385e-06
1.1821e-06
1.02982e-06
8.81021e-07
7.39138e-07
6.05994e-07
4.81523e-07
3.63673e-07
2.51196e-07
1.47356e-07
6.32367e-08
1.41791e-08
6.13593e-10
6.85658e-09
7.58669e-08
3.60435e-07
1.08037e-06
2.30197e-06
5.32028e-06
6.05669e-06
6.06383e-06
6.07041e-06
6.07652e-06
6.08203e-06
6.08697e-06
6.0914e-06
6.09536e-06
6.09877e-06
6.10142e-06
6.10318e-06
6.10413e-06
6.10437e-06
6.10379e-06
6.10198e-06
6.09886e-06
6.09463e-06
6.08911e-06
6.08194e-06
6.07293e-06
6.0621e-06
6.04922e-06
6.03382e-06
6.01555e-06
5.99436e-06
5.96993e-06
5.94152e-06
5.90887e-06
5.87168e-06
5.82912e-06
5.78073e-06
5.726e-06
5.66416e-06
5.59453e-06
5.51631e-06
5.42861e-06
5.33043e-06
5.22078e-06
5.09851e-06
4.96239e-06
4.81123e-06
4.64383e-06
4.459e-06
4.25574e-06
4.03329e-06
3.79115e-06
3.52945e-06
3.24904e-06
2.95195e-06
2.64168e-06
2.32348e-06
2.00475e-06
1.69407e-06
1.39952e-06
1.12619e-06
8.75662e-07
6.45353e-07
4.33785e-07
2.47116e-07
1.03317e-07
2.32336e-08
1.16462e-09
1.12362e-08
1.07459e-07
4.64153e-07
1.28728e-06
2.54655e-06
5.75066e-06
1.15619e-05
1.15743e-05
1.15856e-05
1.15962e-05
1.16056e-05
1.16141e-05
1.16216e-05
1.16283e-05
1.16339e-05
1.16382e-05
1.16408e-05
1.16419e-05
1.16416e-05
1.16398e-05
1.16355e-05
1.16288e-05
1.16198e-05
1.16082e-05
1.15933e-05
1.15748e-05
1.15525e-05
1.15259e-05
1.14943e-05
1.14568e-05
1.14135e-05
1.13637e-05
1.13058e-05
1.12396e-05
1.11642e-05
1.10781e-05
1.09804e-05
1.087e-05
1.07455e-05
1.06055e-05
1.04484e-05
1.02725e-05
1.00758e-05
9.85649e-06
9.61232e-06
9.34112e-06
9.0407e-06
8.70893e-06
8.34383e-06
7.94379e-06
7.50762e-06
7.03477e-06
6.52567e-06
5.98216e-06
5.40821e-06
4.81044e-06
4.19899e-06
3.58803e-06
2.99456e-06
2.43565e-06
1.92316e-06
1.46265e-06
1.05128e-06
6.87113e-07
3.79779e-07
1.5465e-07
3.4997e-08
2.06288e-09
1.70151e-08
1.38503e-07
5.37477e-07
1.36233e-06
2.51725e-06
5.45407e-06
1.4239e-05
2.03512e-05
2.03699e-05
2.03871e-05
2.04028e-05
2.04167e-05
2.04288e-05
2.04394e-05
2.04485e-05
2.04557e-05
2.04605e-05
2.04625e-05
2.04618e-05
2.04587e-05
2.04526e-05
2.04422e-05
2.04274e-05
2.04085e-05
2.03847e-05
2.03548e-05
2.03183e-05
2.02749e-05
2.02236e-05
2.01628e-05
2.00915e-05
2.00093e-05
1.99152e-05
1.98065e-05
1.96824e-05
1.95416e-05
1.93813e-05
1.91998e-05
1.89952e-05
1.87649e-05
1.85062e-05
1.82166e-05
1.78927e-05
1.75313e-05
1.7129e-05
1.66822e-05
1.61872e-05
1.56405e-05
1.50387e-05
1.43788e-05
1.36586e-05
1.28765e-05
1.20321e-05
1.11263e-05
1.01625e-05
9.14765e-06
8.09295e-06
7.01607e-06
5.94191e-06
4.90131e-06
3.92688e-06
3.04298e-06
2.26319e-06
1.58527e-06
1.00633e-06
5.3893e-07
2.13689e-07
4.89057e-08
3.44866e-09
2.40923e-08
1.64085e-07
5.64391e-07
1.28477e-06
2.2355e-06
4.5153e-06
1.29226e-05
2.61063e-05
3.30084e-05
3.30329e-05
3.30551e-05
3.30751e-05
3.30921e-05
3.31063e-05
3.31179e-05
3.31271e-05
3.31333e-05
3.31354e-05
3.3133e-05
3.31261e-05
3.31151e-05
3.30992e-05
3.30762e-05
3.3046e-05
3.30088e-05
3.29632e-05
3.29076e-05
3.28411e-05
3.27629e-05
3.26713e-05
3.25641e-05
3.24395e-05
3.22967e-05
3.21337e-05
3.19468e-05
3.17344e-05
3.1494e-05
3.12212e-05
3.09134e-05
3.05672e-05
3.01784e-05
2.97426e-05
2.92554e-05
2.87118e-05
2.81064e-05
2.74339e-05
2.66887e-05
2.58652e-05
2.49582e-05
2.39629e-05
2.28752e-05
2.1692e-05
2.04116e-05
1.90334e-05
1.75591e-05
1.59939e-05
1.43483e-05
1.26394e-05
1.0895e-05
9.15498e-06
7.47093e-06
5.90004e-06
4.48759e-06
3.26209e-06
2.22402e-06
1.3687e-06
7.08855e-07
2.73675e-07
6.38156e-08
5.48996e-09
3.22185e-08
1.80358e-07
5.4178e-07
1.09195e-06
1.78819e-06
3.23222e-06
1.00243e-05
2.23681e-05
5.76004e-05
4.95916e-05
4.9619e-05
4.96436e-05
4.96646e-05
4.96813e-05
4.96938e-05
4.97023e-05
4.97069e-05
4.9707e-05
4.97009e-05
4.96881e-05
4.96683e-05
4.9642e-05
4.9608e-05
4.95634e-05
4.95079e-05
4.94415e-05
4.93619e-05
4.92673e-05
4.91561e-05
4.9027e-05
4.88771e-05
4.87035e-05
4.85035e-05
4.82758e-05
4.80172e-05
4.77223e-05
4.73888e-05
4.70124e-05
4.6587e-05
4.61083e-05
4.55714e-05
4.49698e-05
4.42971e-05
4.35465e-05
4.27105e-05
4.17814e-05
4.07515e-05
3.96125e-05
3.83568e-05
3.6977e-05
3.54665e-05
3.382e-05
3.20335e-05
3.01046e-05
2.80327e-05
2.58196e-05
2.3472e-05
2.10038e-05
1.84389e-05
1.58174e-05
1.31986e-05
1.06622e-05
8.30165e-06
6.19478e-06
4.39531e-06
2.91037e-06
1.73162e-06
8.65175e-07
3.25505e-07
7.81902e-08
8.38836e-09
4.10973e-08
1.86034e-07
4.80903e-07
8.52305e-07
1.29577e-06
1.99291e-06
6.41165e-06
1.63994e-05
5.4918e-05
6.96717e-05
6.96973e-05
6.97194e-05
6.97364e-05
6.97475e-05
6.97528e-05
6.97521e-05
6.97457e-05
6.97327e-05
6.97111e-05
6.96799e-05
6.96387e-05
6.95879e-05
6.9526e-05
6.94491e-05
6.93568e-05
6.92487e-05
6.91215e-05
6.89733e-05
6.88017e-05
6.86043e-05
6.83773e-05
6.8117e-05
6.78195e-05
6.74826e-05
6.7102e-05
6.66706e-05
6.61845e-05
6.5638e-05
6.50224e-05
6.4332e-05
6.35597e-05
6.26964e-05
6.17332e-05
6.06608e-05
5.94688e-05
5.81468e-05
5.66839e-05
5.50693e-05
5.32925e-05
5.13438e-05
4.92145e-05
4.68975e-05
4.43874e-05
4.16807e-05
3.87756e-05
3.56734e-05
3.23814e-05
2.89162e-05
2.53084e-05
2.16121e-05
1.79103e-05
1.43202e-05
1.09845e-05
8.02904e-06
5.54612e-06
3.55434e-06
2.03679e-06
9.79119e-07
3.59936e-07
9.05245e-08
1.24046e-08
5.05608e-08
1.82979e-07
4.02416e-07
6.29107e-07
8.68905e-07
1.08921e-06
3.40609e-06
1.00938e-05
4.78561e-05
9.25603e-05
9.25782e-05
9.25918e-05
9.25986e-05
9.25976e-05
9.25885e-05
9.25715e-05
9.25463e-05
9.25121e-05
9.24663e-05
9.24075e-05
9.23352e-05
9.22495e-05
9.21485e-05
9.20275e-05
9.1886e-05
9.17226e-05
9.15335e-05
9.13162e-05
9.10678e-05
9.07843e-05
9.04614e-05
9.0094e-05
8.96772e-05
8.92077e-05
8.868e-05
8.80849e-05
8.74173e-05
8.66692e-05
8.58298e-05
8.48915e-05
8.38447e-05
8.26779e-05
8.13792e-05
7.99365e-05
7.83365e-05
7.65655e-05
7.46096e-05
7.24547e-05
7.00876e-05
6.74956e-05
6.46673e-05
6.15933e-05
5.82659e-05
5.46795e-05
5.083e-05
4.67164e-05
4.2345e-05
3.7734e-05
3.29204e-05
2.79737e-05
2.30059e-05
1.81825e-05
1.37124e-05
9.78738e-06
6.55403e-06
4.04485e-06
2.22182e-06
1.02544e-06
3.70654e-07
9.98982e-08
1.79466e-08
6.07944e-08
1.75594e-07
3.27789e-07
4.60623e-07
5.68508e-07
6.7569e-07
1.70087e-06
5.24228e-06
3.69812e-05
0.000117585
0.000117588
0.000117587
0.000117576
0.000117555
0.000117524
0.000117482
0.00011743
0.000117365
0.000117285
0.000117188
0.000117074
0.000116941
0.000116789
0.00011661
0.000116405
0.000116172
0.000115905
0.000115601
0.000115258
0.000114869
0.00011443
0.000113933
0.000113374
0.000112748
0.000112046
0.00011126
0.000110381
0.0001094
0.000108304
0.000107083
0.000105725
0.000104215
0.00010254
0.000100683
9.86299e-05
9.63622e-05
9.38631e-05
9.11154e-05
8.81024e-05
8.48084e-05
8.12188e-05
7.73208e-05
7.31038e-05
6.85584e-05
6.36766e-05
5.84532e-05
5.28913e-05
4.70091e-05
4.08495e-05
3.44996e-05
2.81078e-05
2.19022e-05
1.61797e-05
1.12198e-05
7.23769e-06
4.2729e-06
2.23841e-06
9.91886e-07
3.57012e-07
1.06443e-07
2.59685e-08
7.26475e-08
1.6954e-07
2.72995e-07
3.63825e-07
4.46127e-07
5.20158e-07
1.02196e-06
2.59941e-06
2.42783e-05
0.000144271
0.000144253
0.000144228
0.000144192
0.000144142
0.00014408
0.000144003
0.000143912
0.000143806
0.00014368
0.000143533
0.000143363
0.00014317
0.00014295
0.000142699
0.000142413
0.000142091
0.000141727
0.000141317
0.000140857
0.00014034
0.000139759
0.000139108
0.000138379
0.000137566
0.000136661
0.00013565
0.000134526
0.000133276
0.000131885
0.000130341
0.00012863
0.000126735
0.000124639
0.000122323
0.000119768
0.000116955
0.000113862
0.00011047
0.000106759
0.000102708
9.83003e-05
9.35188e-05
8.83484e-05
8.27748e-05
7.67839e-05
7.03643e-05
6.35136e-05
5.62479e-05
4.86161e-05
4.07268e-05
3.27759e-05
2.50758e-05
1.80408e-05
1.20632e-05
7.43167e-06
4.16394e-06
2.07231e-06
8.86137e-07
3.24824e-07
1.11525e-07
4.02357e-08
8.87823e-08
1.71816e-07
2.62438e-07
3.56055e-07
4.39912e-07
5.08567e-07
8.4688e-07
1.48972e-06
1.29629e-05
0.00017239
0.00017234
0.000172282
0.00017221
0.000172121
0.000172016
0.000171892
0.00017175
0.000171588
0.000171402
0.000171188
0.000170946
0.000170674
0.000170369
0.000170024
0.000169636
0.000169203
0.000168717
0.000168175
0.00016757
0.000166895
0.000166142
0.000165303
0.000164369
0.000163333
0.000162184
0.000160909
0.000159496
0.000157932
0.000156199
0.000154284
0.000152169
0.000149835
0.000147263
0.000144431
0.000141318
0.0001379
0.000134155
0.000130058
0.000125586
0.000120716
0.000115427
0.000109696
0.000103503
9.68282e-05
8.96485e-05
8.19441e-05
7.37046e-05
6.49428e-05
5.57142e-05
4.61569e-05
3.6533e-05
2.72725e-05
1.89487e-05
1.20896e-05
7.03565e-06
3.71234e-06
1.75604e-06
7.35181e-07
2.84443e-07
1.1765e-07
6.48488e-08
1.21164e-07
2.05342e-07
3.03274e-07
4.15507e-07
5.15409e-07
5.93961e-07
8.90953e-07
1.12527e-06
5.62648e-06
0.00020191
0.000201817
0.000201714
0.000201593
0.000201451
0.000201287
0.000201101
0.000200891
0.000200655
0.000200389
0.000200089
0.000199753
0.000199379
0.000198964
0.000198499
0.000197982
0.000197407
0.000196768
0.000196061
0.000195276
0.000194406
0.00019344
0.000192371
0.000191188
0.000189881
0.00018844
0.000186847
0.000185092
0.000183156
0.000181021
0.000178672
0.000176088
0.000173249
0.000170131
0.000166713
0.000162969
0.000158873
0.000154399
0.00014952
0.000144211
0.000138444
0.000132192
0.00012543
0.000118131
0.000110265
0.000101801
9.27079e-05
8.29649e-05
7.25804e-05
6.16213e-05
5.02688e-05
3.88841e-05
2.80684e-05
1.86095e-05
1.11733e-05
6.06882e-06
3.0023e-06
1.36348e-06
5.75593e-07
2.47184e-07
1.3e-07
1.05848e-07
1.76864e-07
2.74417e-07
3.93406e-07
5.35052e-07
6.5917e-07
7.57045e-07
1.06257e-06
1.13397e-06
2.73975e-06
0.000232923
0.000232772
0.000232608
0.000232421
0.000232207
0.000231967
0.000231697
0.000231398
0.000231065
0.000230695
0.000230282
0.000229824
0.000229319
0.000228762
0.000228145
0.000227462
0.000226709
0.000225877
0.000224961
0.000223952
0.000222839
0.000221611
0.000220259
0.000218771
0.000217135
0.000215339
0.000213365
0.000211199
0.000208821
0.00020621
0.000203349
0.000200217
0.00019679
0.000193042
0.000188948
0.000184482
0.000179615
0.000174319
0.000168562
0.000162317
0.000155553
0.000148238
0.00014034
0.000131826
0.000122657
0.000112789
0.000102178
9.0791e-05
7.86337e-05
6.57933e-05
5.2522e-05
3.93383e-05
2.70994e-05
1.6867e-05
9.37467e-06
4.7055e-06
2.19291e-06
9.82666e-07
4.3965e-07
2.23534e-07
1.64674e-07
1.70853e-07
2.64134e-07
3.85173e-07
5.34872e-07
7.10866e-07
8.60959e-07
9.83776e-07
1.32138e-06
1.38671e-06
1.8326e-06
0.000266325
0.000266285
0.000266221
0.000266146
0.000266057
0.000265955
0.000265841
0.000265714
0.000265574
0.000265344
0.000265099
0.000264823
0.000264515
0.000264172
0.000263794
0.000263377
0.000262918
0.000262412
0.000261854
0.000261239
0.000260565
0.000259827
0.000259015
0.000258124
0.000257145
0.00025607
0.000254895
0.000253606
0.000252192
0.000250641
0.000248941
0.00024708
0.000245044
0.00024282
0.000240386
0.000237727
0.000234821
0.000231646
0.000228182
0.000224405
0.000220289
0.000215808
0.000210934
0.000205637
0.000199887
0.000193652
0.000186901
0.0001796
0.000171715
0.00016321
0.000154048
0.000144184
0.00013357
0.000122148
0.000109857
9.66519e-05
8.25411e-05
6.76531e-05
5.23653e-05
3.74571e-05
2.41638e-05
1.38294e-05
7.00603e-06
3.24706e-06
1.4581e-06
6.80951e-07
3.48796e-07
2.41203e-07
2.28055e-07
2.68424e-07
3.91021e-07
5.42534e-07
7.26877e-07
9.34938e-07
1.10656e-06
1.25694e-06
1.6341e-06
1.72813e-06
1.69307e-06
0.00030131
0.000301216
0.000301093
0.000300955
0.000300799
0.000300626
0.000300436
0.000300231
0.000300003
0.000299671
0.000299317
0.000298925
0.000298493
0.000298018
0.000297497
0.000296927
0.000296306
0.000295625
0.00029488
0.000294065
0.000293177
0.000292209
0.000291152
0.000289997
0.000288736
0.000287359
0.000285861
0.000284226
0.000282441
0.000280493
0.000278369
0.000276055
0.000273535
0.000270793
0.000267808
0.00026456
0.000261025
0.000257181
0.000253005
0.000248472
0.000243551
0.000238216
0.000232436
0.00022618
0.000219414
0.000212106
0.00020422
0.00019572
0.000186568
0.000176723
0.000166138
0.000154761
0.000142529
0.000129366
0.000115195
9.99595e-05
8.3685e-05
6.65876e-05
4.92774e-05
3.29722e-05
1.94063e-05
9.99624e-06
4.5923e-06
2.00347e-06
9.13564e-07
4.95973e-07
3.36406e-07
2.99543e-07
3.27929e-07
4.06366e-07
5.62768e-07
7.46583e-07
9.62381e-07
1.19302e-06
1.37702e-06
1.5567e-06
1.96567e-06
2.10063e-06
1.86123e-06
0.000338384
0.000338216
0.000338014
0.00033779
0.000337544
0.000337274
0.000336982
0.000336667
0.000336318
0.000335852
0.000335357
0.000334815
0.000334222
0.000333575
0.000332871
0.000332106
0.000331276
0.000330374
0.000329391
0.000328323
0.000327165
0.00032591
0.000324545
0.000323062
0.000321451
0.000319702
0.000317805
0.000315746
0.000313508
0.000311076
0.000308439
0.000305577
0.000302475
0.000299113
0.000295468
0.00029152
0.000287242
0.000282608
0.000277595
0.000272174
0.000266314
0.000259986
0.000253157
0.000245793
0.000237859
0.000229321
0.000220139
0.000210274
0.000199684
0.00018832
0.000176128
0.000163042
0.000148981
0.000133852
0.000117557
0.00010004
8.13794e-05
6.19819e-05
4.29006e-05
2.60436e-05
1.35524e-05
6.2237e-06
2.65237e-06
1.15375e-06
6.37204e-07
4.44323e-07
3.85329e-07
4.02427e-07
4.71334e-07
5.8928e-07
7.78965e-07
9.90431e-07
1.22772e-06
1.46661e-06
1.65184e-06
1.86465e-06
2.28318e-06
2.45335e-06
2.13972e-06
0.000377649
0.000377381
0.000377072
0.000376735
0.000376369
0.000375971
0.000375542
0.00037508
0.000374567
0.000373929
0.000373253
0.000372517
0.000371718
0.000370852
0.000369916
0.000368904
0.000367811
0.000366629
0.000365349
0.000363966
0.000362471
0.000360858
0.000359113
0.000357227
0.000355185
0.000352979
0.000350598
0.000348022
0.000345234
0.00034222
0.000338964
0.000335446
0.000331647
0.000327547
0.000323121
0.000318344
0.000313188
0.000307627
0.000301634
0.000295178
0.000288226
0.000280745
0.000272704
0.000264064
0.000254789
0.000244842
0.00023418
0.000222761
0.000210536
0.000197449
0.000183433
0.000168406
0.000152268
0.000134901
0.000116194
9.61176e-05
7.49009e-05
5.33694e-05
3.33855e-05
1.76635e-05
7.92317e-06
3.34311e-06
1.44682e-06
7.78307e-07
5.51468e-07
4.82324e-07
4.91113e-07
5.54173e-07
6.614e-07
8.16006e-07
1.03207e-06
1.26044e-06
1.50494e-06
1.73731e-06
1.91317e-06
2.16819e-06
2.55728e-06
2.74155e-06
2.42453e-06
0.000419129
0.00041873
0.000418281
0.000417797
0.000417273
0.000416709
0.000416102
0.000415447
0.000414721
0.000413865
0.000412957
0.000411977
0.000410918
0.000409778
0.000408549
0.000407228
0.000405808
0.000404278
0.00040263
0.000400856
0.000398947
0.000396894
0.000394684
0.000392304
0.000389739
0.000386979
0.00038401
0.000380813
0.000377365
0.000373652
0.000369657
0.000365358
0.000360733
0.00035576
0.000350411
0.000344659
0.000338475
0.00033183
0.000324694
0.000317035
0.000308817
0.000300006
0.000290567
0.000280462
0.000269652
0.000258094
0.000245746
0.000232558
0.000218475
0.000203429
0.000187338
0.000170099
0.000151586
0.000131659
0.000110217
8.73431e-05
6.36583e-05
4.08775e-05
2.2027e-05
9.80286e-06
3.80613e-06
1.73696e-06
9.37218e-07
6.61417e-07
5.84509e-07
5.92691e-07
6.52861e-07
7.54895e-07
8.94729e-07
1.07815e-06
1.30789e-06
1.53891e-06
1.77586e-06
1.99104e-06
2.14858e-06
2.46122e-06
2.76041e-06
2.93404e-06
2.65632e-06
0.000462766
0.000462197
0.000461568
0.000460894
0.000460169
0.00045939
0.000458555
0.000457653
0.000456659
0.000455529
0.000454333
0.000453046
0.000451664
0.000450181
0.000448591
0.000446888
0.000445063
0.000443106
0.000441005
0.000438753
0.000436339
0.000433752
0.000430977
0.000427999
0.000424803
0.000421376
0.000417703
0.00041376
0.000409526
0.000404982
0.000400111
0.000394888
0.000389288
0.000383287
0.000376856
0.000369964
0.00036258
0.000354673
0.000346212
0.000337161
0.000327482
0.000317141
0.0003061
0.000294317
0.000281753
0.000268362
0.000254095
0.000238898
0.000222703
0.000205429
0.000186971
0.000167198
0.000145958
0.000123107
9.86344e-05
7.29932e-05
4.77641e-05
2.61649e-05
1.16176e-05
4.41849e-06
1.92018e-06
1.09212e-06
7.82783e-07
6.94831e-07
7.04757e-07
7.66592e-07
8.65885e-07
9.97709e-07
1.16047e-06
1.36081e-06
1.58848e-06
1.80816e-06
2.02593e-06
2.21639e-06
2.3516e-06
2.64672e-06
2.862e-06
3.02208e-06
2.80863e-06
0.000508403
0.000507618
0.000506761
0.000505845
0.000504864
0.000503815
0.000502691
0.00050148
0.000500153
0.000498684
0.000497129
0.000495464
0.000493683
0.00049178
0.000489746
0.000487574
0.000485255
0.000482777
0.000480127
0.000477295
0.00047427
0.000471038
0.000467583
0.000463888
0.000459936
0.000455712
0.0004512
0.000446372
0.000441205
0.00043568
0.000429776
0.000423465
0.000416722
0.000409519
0.000401824
0.000393605
0.000384828
0.000375461
0.000365468
0.000354813
0.000343457
0.000331362
0.000318489
0.000304795
0.000290235
0.000274761
0.000258317
0.00024084
0.000222246
0.000202432
0.000181263
0.000158575
0.000134204
0.000108089
8.05948e-05
5.32216e-05
2.93791e-05
1.30653e-05
4.92206e-06
2.1201e-06
1.2074e-06
9.0832e-07
8.18043e-07
8.29288e-07
8.94143e-07
9.9295e-07
1.11872e-06
1.26856e-06
1.44191e-06
1.64569e-06
1.85646e-06
2.05437e-06
2.24638e-06
2.40911e-06
2.52145e-06
2.76883e-06
2.8859e-06
3.04066e-06
2.91027e-06
0.000555765
0.000554708
0.000553565
0.000552347
0.000551047
0.00054966
0.000548177
0.000546582
0.000544849
0.000542963
0.000540968
0.00053884
0.000536573
0.000534157
0.000531583
0.000528842
0.000525925
0.000522818
0.000519506
0.000515977
0.000512217
0.000508212
0.000503945
0.000499396
0.000494544
0.000489375
0.000483869
0.000477995
0.000471729
0.00046505
0.000457934
0.000450352
0.000442275
0.000433671
0.000424508
0.000414752
0.000404365
0.000393314
0.000381561
0.000369068
0.000355793
0.000341697
0.000326739
0.000310873
0.000294051
0.000276218
0.00025731
0.000237246
0.000215921
0.000193199
0.000168909
0.000142868
0.000114994
8.56483e-05
5.64186e-05
3.09744e-05
1.36834e-05
5.18387e-06
2.2621e-06
1.32555e-06
1.02673e-06
9.51933e-07
9.68436e-07
1.03591e-06
1.13438e-06
1.25492e-06
1.39373e-06
1.54883e-06
1.72032e-06
1.91554e-06
2.09875e-06
2.2694e-06
2.43411e-06
2.56968e-06
2.66103e-06
2.8486e-06
2.86465e-06
3.03155e-06
3.0667e-06
0.00060444
0.000603045
0.000601547
0.000599955
0.000598261
0.000596458
0.000594533
0.000592469
0.000590243
0.00058785
0.00058532
0.000582631
0.000579773
0.000576737
0.000573512
0.000570088
0.000566452
0.000562589
0.000558484
0.000554122
0.000549487
0.000544563
0.000539331
0.000533768
0.000527853
0.000521569
0.00051489
0.000507788
0.000500233
0.000492204
0.000483675
0.000474612
0.000464984
0.000454758
0.000443899
0.000432369
0.000420131
0.000407148
0.000393381
0.000378789
0.000363329
0.000346961
0.000329641
0.00031132
0.000291942
0.000271444
0.000249746
0.000226743
0.000202295
0.000176227
0.000148345
0.000118568
8.73297e-05
5.65227e-05
3.0342e-05
1.31891e-05
5.08195e-06
2.31595e-06
1.42991e-06
1.15348e-06
1.09276e-06
1.12073e-06
1.19148e-06
1.28859e-06
1.40335e-06
1.53151e-06
1.67077e-06
1.81981e-06
1.97942e-06
2.15785e-06
2.30833e-06
2.45082e-06
2.5902e-06
2.70112e-06
2.77472e-06
2.90471e-06
2.90832e-06
3.0129e-06
3.05152e-06
0.000653851
0.00065204
0.000650107
0.000648057
0.000645881
0.000643568
0.000641105
0.000638474
0.000635655
0.000632648
0.000629473
0.000626107
0.000622541
0.000618761
0.000614755
0.000610512
0.000606018
0.000601255
0.000596206
0.000590854
0.000585181
0.00057917
0.000572797
0.00056604
0.000558875
0.00055128
0.000543229
0.000534689
0.000525632
0.000516031
0.000505859
0.00049508
0.000483659
0.000471561
0.00045875
0.000445186
0.000430828
0.00041564
0.00039958
0.000382605
0.000364671
0.000345735
0.000325751
0.000304663
0.000282407
0.0002589
0.000234038
0.000207677
0.000179635
0.000149722
0.000117902
8.4818e-05
5.29154e-05
2.71021e-05
1.14751e-05
4.61866e-06
2.2741e-06
1.51737e-06
1.28576e-06
1.24529e-06
1.28336e-06
1.35811e-06
1.45281e-06
1.56061e-06
1.67769e-06
1.80192e-06
1.93189e-06
2.06688e-06
2.20852e-06
2.36632e-06
2.48369e-06
2.60021e-06
2.71814e-06
2.80743e-06
2.86541e-06
2.95067e-06
2.92946e-06
2.96655e-06
2.98133e-06
2.98672e-06
0.000703224
0.000700907
0.000698444
0.000695837
0.000693075
0.000690146
0.000687034
0.000683721
0.000680192
0.000676449
0.000672501
0.000668326
0.000663911
0.000659243
0.000654308
0.000649091
0.000643577
0.000637747
0.000631581
0.00062506
0.000618163
0.000610871
0.000603158
0.000595
0.00058637
0.000577243
0.000567591
0.000557379
0.000546577
0.000535156
0.000523084
0.000510324
0.00049684
0.000482594
0.000467548
0.000451661
0.000434891
0.000417199
0.000398543
0.000378879
0.000358158
0.000336336
0.000313361
0.000289167
0.000263669
0.000236757
0.000208281
0.000178054
0.000145908
0.000111948
7.7302e-05
4.54209e-05
2.17015e-05
8.76893e-06
3.90531e-06
2.16754e-06
1.59272e-06
1.42358e-06
1.4076e-06
1.45524e-06
1.53174e-06
1.62283e-06
1.72249e-06
1.82793e-06
1.93747e-06
2.05001e-06
2.16478e-06
2.28168e-06
2.40313e-06
2.5401e-06
2.62704e-06
2.72132e-06
2.82212e-06
2.89269e-06
2.937e-06
2.98782e-06
2.97604e-06
2.99439e-06
3.02553e-06
3.05586e-06
0.000751552
0.000748622
0.000745519
0.000742239
0.000738772
0.000735101
0.000731212
0.000727086
0.000722712
0.000718089
0.000713219
0.00070808
0.000702658
0.000696936
0.000690899
0.00068453
0.000677811
0.000670722
0.00066324
0.000655344
0.000647011
0.000638217
0.000628937
0.000619143
0.000608805
0.000597898
0.000586387
0.000574239
0.00056142
0.0005479
0.000533643
0.000518611
0.000502765
0.000486067
0.000468477
0.000449954
0.000430455
0.00040994
0.000388365
0.000365684
0.000341845
0.000316798
0.000290477
0.000262795
0.000233631
0.000202827
0.000170194
0.000135644
9.96331e-05
6.43067e-05
3.45425e-05
1.53847e-05
6.3412e-06
3.13385e-06
2.04666e-06
1.66913e-06
1.56802e-06
1.57712e-06
1.63245e-06
1.70824e-06
1.79373e-06
1.88424e-06
1.97768e-06
2.07299e-06
2.16941e-06
2.26645e-06
2.3638e-06
2.46187e-06
2.56371e-06
2.68183e-06
2.7424e-06
2.81857e-06
2.90631e-06
2.9606e-06
2.99308e-06
3.01407e-06
3.01899e-06
3.06037e-06
3.09518e-06
3.12784e-06
0.000800936
0.000797544
0.000793877
0.000790005
0.00078592
0.000781607
0.000777051
0.000772237
0.000767146
0.000761768
0.000756101
0.000750137
0.000743857
0.000737243
0.000730277
0.00072294
0.000715214
0.000707079
0.000698511
0.000689486
0.000679981
0.000669969
0.000659425
0.00064832
0.000636625
0.000624308
0.000611338
0.000597682
0.000583303
0.000568167
0.00055224
0.000535484
0.000517861
0.00049933
0.000479853
0.000459389
0.000437897
0.000415337
0.000391664
0.000366832
0.000340793
0.000313486
0.000284843
0.000254775
0.000223144
0.000189784
0.000154545
0.000117592
8.0291e-05
4.65929e-05
2.22737e-05
9.34049e-06
4.39709e-06
2.58387e-06
1.96141e-06
1.76004e-06
1.72031e-06
1.75036e-06
1.81012e-06
1.88263e-06
1.96069e-06
2.04119e-06
2.12267e-06
2.20447e-06
2.2862e-06
2.36756e-06
2.44837e-06
2.52867e-06
2.60923e-06
2.69357e-06
2.79578e-06
2.83427e-06
2.89627e-06
2.97455e-06
3.01427e-06
3.03667e-06
3.05012e-06
3.0613e-06
3.10309e-06
3.13453e-06
3.16546e-06
0.000843837
0.000839574
0.000835027
0.000830236
0.000825189
0.000819871
0.000814265
0.000808354
0.000802123
0.000795559
0.000788656
0.000781403
0.000773777
0.000765759
0.00075733
0.000748468
0.000739152
0.000729358
0.000719062
0.000708238
0.000696859
0.000684895
0.00067232
0.000659103
0.00064521
0.00063061