/*--------------------------------*- C++ -*----------------------------------*\
| =========                 |                                                 |
| \\      /  F ield         | OpenFOAM: The Open Source CFD Toolbox           |
|  \\    /   O peration     | Version:  2412                                  |
|   \\  /    A nd           | Website:  www.openfoam.com                      |
|    \\/     M anipulation  |                                                 |
\*---------------------------------------------------------------------------*/
FoamFile
{
    version     2.0;
    format      ascii;
    arch        "LSB;label=32;scalar=64";
    class       volScalarField;
    location    "340";
    object      p;
}
// * * * * * * * * * * * * * * * * * * * * * * * * * * * * * * * * * * * * * //

dimensions      [0 2 -2 0 0 0 0];

internalField   nonuniform List<scalar> 
8637
(
28.0231
27.5096
27.0127
26.5305
26.0595
25.6068
25.1758
24.7628
24.3685
23.9919
23.635
23.2999
22.9873
22.6932
22.4167
22.1641
21.9357
21.7305
21.5489
21.3926
21.262
21.1583
21.0826
21.036
21.0189
21.0344
21.0848
21.1693
21.2915
21.455
21.6608
21.9112
22.2083
22.5555
22.9569
23.4179
23.9404
24.5268
25.184
25.9157
26.7253
27.6213
28.6093
29.6927
30.878
32.1728
33.585
35.123
36.7935
38.6023
40.5597
42.6771
44.9638
47.4294
50.0832
52.9365
56.0046
59.2983
62.8289
66.6127
70.6645
75.0007
79.6355
84.5876
89.8816
95.5299
101.558
107.994
114.856
122.181
129.99
138.326
147.22
156.712
166.858
177.688
189.274
201.665
214.932
229.147
244.387
260.715
278.223
296.97
316.984
338.238
360.59
383.642
28.0231
27.5096
27.0127
26.5305
26.0595
25.6068
25.1758
24.7628
24.3685
23.9919
23.635
23.2999
22.9873
22.6932
22.4167
22.1642
21.9357
21.7305
21.5489
21.3926
21.262
21.1583
21.0826
21.036
21.0189
21.0344
21.0848
21.1693
21.2915
21.455
21.6608
21.9112
22.2083
22.5555
22.957
23.4179
23.9404
24.5268
25.184
25.9157
26.7253
27.6213
28.6093
29.6927
30.878
32.1728
33.585
35.123
36.7935
38.6023
40.5597
42.6771
44.9638
47.4294
50.0832
52.9365
56.0046
59.2983
62.8289
66.6127
70.6645
75.0007
79.6355
84.5876
89.8816
95.5299
101.558
107.994
114.856
122.181
129.99
138.326
147.22
156.712
166.858
177.688
189.274
201.665
214.932
229.147
244.387
260.715
278.223
296.97
316.984
338.238
360.59
383.642
28.0231
27.5096
27.0127
26.5305
26.0595
25.6068
25.1758
24.7628
24.3685
23.9919
23.635
23.2999
22.9873
22.6932
22.4167
22.1642
21.9357
21.7305
21.5489
21.3926
21.262
21.1583
21.0826
21.036
21.0189
21.0344
21.0848
21.1693
21.2915
21.455
21.6608
21.9112
22.2084
22.5555
22.957
23.4179
23.9404
24.5268
25.184
25.9157
26.7253
27.6213
28.6093
29.6927
30.878
32.1728
33.585
35.123
36.7935
38.6023
40.5597
42.6771
44.9638
47.4294
50.0832
52.9365
56.0046
59.2983
62.8289
66.6128
70.6645
75.0007
79.6355
84.5877
89.8816
95.53
101.558
107.994
114.856
122.181
129.99
138.326
147.22
156.712
166.858
177.688
189.274
201.665
214.932
229.147
244.387
260.715
278.223
296.97
316.984
338.238
360.59
383.642
28.0232
27.5096
27.0127
26.5305
26.0595
25.6068
25.1758
24.7628
24.3686
23.9919
23.635
23.2999
22.9873
22.6932
22.4167
22.1642
21.9357
21.7305
21.5489
21.3926
21.262
21.1583
21.0826
21.036
21.0189
21.0344
21.0848
21.1693
21.2916
21.455
21.6608
21.9112
22.2084
22.5555
22.957
23.4179
23.9404
24.5268
25.184
25.9157
26.7253
27.6213
28.6093
29.6927
30.878
32.1728
33.585
35.1231
36.7935
38.6023
40.5598
42.6771
44.9638
47.4294
50.0832
52.9366
56.0047
59.2983
62.8289
66.6128
70.6645
75.0007
79.6356
84.5877
89.8817
95.53
101.558
107.994
114.856
122.181
129.99
138.326
147.221
156.712
166.858
177.688
189.274
201.665
214.932
229.147
244.387
260.715
278.224
296.97
316.985
338.238
360.59
383.642
28.0232
27.5096
27.0127
26.5305
26.0595
25.6068
25.1758
24.7629
24.3686
23.9919
23.635
23.2999
22.9873
22.6932
22.4167
22.1642
21.9357
21.7305
21.549
21.3926
21.2621
21.1583
21.0826
21.036
21.0189
21.0345
21.0848
21.1693
21.2916
21.4551
21.6609
21.9112
22.2084
22.5556
22.957
23.418
23.9404
24.5268
25.1841
25.9157
26.7253
27.6213
28.6094
29.6928
30.8781
32.1729
33.585
35.1231
36.7936
38.6024
40.5598
42.6772
44.9639
47.4295
50.0833
52.9366
56.0048
59.2984
62.829
66.6129
70.6646
75.0008
79.6357
84.5878
89.8818
95.5301
101.558
107.994
114.857
122.181
129.991
138.326
147.221
156.712
166.858
177.688
189.274
201.666
214.932
229.147
244.387
260.716
278.224
296.971
316.985
338.238
360.591
383.642
28.0232
27.5097
27.0127
26.5306
26.0596
25.6069
25.1759
24.7629
24.3686
23.9919
23.6351
23.3
22.9874
22.6933
22.4168
22.1642
21.9358
21.7306
21.549
21.3927
21.2621
21.1584
21.0827
21.0361
21.0189
21.0345
21.0849
21.1694
21.2916
21.4551
21.6609
21.9113
22.2085
22.5556
22.9571
23.418
23.9405
24.5269
25.1841
25.9158
26.7254
27.6214
28.6095
29.6929
30.8782
32.173
33.5851
35.1232
36.7937
38.6025
40.56
42.6773
44.964
47.4296
50.0834
52.9368
56.0049
59.2986
62.8292
66.6131
70.6648
75.001
79.6359
84.588
89.882
95.5303
101.558
107.994
114.857
122.182
129.991
138.326
147.221
156.712
166.858
177.689
189.274
201.666
214.933
229.148
244.388
260.716
278.225
296.972
316.986
338.239
360.592
383.644
28.0233
27.5097
27.0128
26.5306
26.0596
25.6069
25.1759
24.7629
24.3687
23.992
23.6351
23.3
22.9874
22.6933
22.4168
22.1643
21.9359
21.7306
21.5491
21.3927
21.2622
21.1584
21.0827
21.0361
21.019
21.0346
21.0849
21.1695
21.2917
21.4552
21.661
21.9114
22.2086
22.5558
22.9572
23.4182
23.9406
24.527
25.1843
25.916
26.7256
27.6216
28.6096
29.693
30.8783
32.1732
33.5853
35.1234
36.7939
38.6027
40.5602
42.6776
44.9642
47.4299
50.0837
52.9371
56.0052
59.2988
62.8295
66.6134
70.6651
75.0014
79.6362
84.5884
89.8824
95.5308
101.559
107.995
114.857
122.182
129.991
138.327
147.222
156.713
166.859
177.689
189.275
201.667
214.934
229.149
244.389
260.718
278.226
296.973
316.988
338.241
360.594
383.646
28.0234
27.5098
27.0129
26.5307
26.0597
25.607
25.176
24.763
24.3688
23.9921
23.6352
23.3002
22.9875
22.6934
22.417
22.1644
21.936
21.7308
21.5492
21.3929
21.2623
21.1586
21.0829
21.0363
21.0192
21.0347
21.0851
21.1696
21.2919
21.4554
21.6612
21.9116
22.2088
22.5559
22.9574
23.4184
23.9409
24.5273
25.1845
25.9162
26.7258
27.6218
28.6099
29.6933
30.8786
32.1735
33.5857
35.1238
36.7943
38.603
40.5605
42.678
44.9646
47.4303
50.0841
52.9375
56.0057
59.2993
62.83
66.6139
70.6657
75.0019
79.6368
84.589
89.8831
95.5315
101.56
107.995
114.858
122.183
129.992
138.328
147.223
156.714
166.86
177.691
189.277
201.669
214.935
229.15
244.391
260.72
278.228
296.976
316.99
338.244
360.597
383.649
28.0235
27.51
27.013
26.5309
26.0599
25.6072
25.1762
24.7632
24.3689
23.9923
23.6354
23.3003
22.9877
22.6936
22.4171
22.1646
21.9362
21.7309
21.5494
21.3931
21.2625
21.1588
21.0831
21.0365
21.0194
21.035
21.0853
21.1699
21.2922
21.4557
21.6615
21.9119
22.2091
22.5563
22.9577
23.4187
23.9412
24.5276
25.1849
25.9166
26.7262
27.6223
28.6103
29.6938
30.8791
32.174
33.5862
35.1243
36.7948
38.6036
40.5612
42.6786
44.9653
47.431
50.0849
52.9383
56.0065
59.3002
62.8308
66.6148
70.6666
75.0029
79.6378
84.5901
89.8842
95.5326
101.561
107.997
114.859
122.184
129.994
138.329
147.224
156.716
166.862
177.693
189.279
201.671
214.938
229.153
244.394
260.723
278.232
296.979
316.994
338.249
360.602
383.654
28.0238
27.5102
27.0133
26.5311
26.0601
25.6074
25.1764
24.7635
24.3692
23.9925
23.6357
23.3006
22.988
22.6939
22.4174
22.1649
21.9364
21.7312
21.5497
21.3934
21.2628
21.1591
21.0834
21.0368
21.0197
21.0353
21.0857
21.1702
21.2926
21.4561
21.6619
21.9123
22.2095
22.5567
22.9582
23.4192
23.9418
24.5282
25.1855
25.9172
26.7269
27.6229
28.611
29.6945
30.8799
32.1747
33.587
35.1252
36.7957
38.6046
40.5621
42.6796
44.9663
47.4321
50.086
52.9394
56.0077
59.3014
62.8322
66.6162
70.6681
75.0044
79.6394
84.5917
89.8858
95.5344
101.563
107.999
114.862
122.186
129.996
138.332
147.227
156.718
166.865
177.696
189.282
201.674
214.942
229.157
244.398
260.728
278.237
296.985
317.001
338.256
360.609
383.662
26.5315
26.0605
25.6078
25.1768
24.7638
24.3695
23.9929
23.636
23.301
22.9884
22.6943
22.4178
22.1653
21.9369
21.7317
21.5501
21.3938
21.2633
21.1596
21.0839
21.0373
21.0203
21.0359
21.0863
21.1708
21.2932
21.4567
21.6626
21.913
22.2102
22.5575
22.959
23.42
23.9426
24.529
25.1863
25.9181
26.7278
27.6239
28.6121
29.6956
30.881
32.1759
33.5882
35.1264
36.797
38.6059
40.5635
42.681
44.9679
47.4337
50.0876
52.9412
56.0094
59.3033
62.8341
66.6182
70.6702
75.0066
79.6417
84.5941
89.8883
95.537
101.565
108.001
114.864
122.19
129.999
138.335
147.23
156.722
166.869
177.7
189.287
201.679
214.947
229.163
244.404
260.734
278.245
296.993
317.01
338.265
360.62
383.673
26.532
26.061
25.6083
25.1773
24.7643
24.3701
23.9934
23.6366
23.3015
22.9889
22.6948
22.4184
22.1659
21.9374
21.7323
21.5507
21.3944
21.2639
21.1602
21.0846
21.038
21.021
21.0366
21.0871
21.1716
21.294
21.4576
21.6635
21.9139
22.2112
22.5585
22.96
23.4211
23.9437
24.5302
25.1876
25.9194
26.7292
27.6253
28.6135
29.6971
30.8826
32.1776
33.5899
35.1282
36.7989
38.6078
40.5655
42.6831
44.97
47.4359
50.09
52.9436
56.012
59.3059
62.8368
66.621
70.6731
75.0097
79.6449
84.5974
89.8918
95.5406
101.569
108.005
114.869
122.194
130.004
138.34
147.236
156.728
166.875
177.706
189.293
201.686
214.955
229.171
244.413
260.744
278.255
297.005
317.022
338.279
360.634
383.687
26.5327
26.0617
25.609
25.178
24.7651
24.3708
23.9941
23.6373
23.3023
22.9897
22.6956
22.4192
22.1667
21.9383
21.7331
21.5516
21.3953
21.2648
21.1612
21.0856
21.039
21.022
21.0377
21.0881
21.1728
21.2952
21.4588
21.6647
21.9152
22.2126
22.5599
22.9615
23.4226
23.9453
24.5319
25.1893
25.9212
26.731
27.6273
28.6155
29.6992
30.8847
32.1798
33.5923
35.1306
36.8014
38.6105
40.5683
42.686
44.973
47.439
50.0932
52.9469
56.0154
59.3095
62.8406
66.6249
70.6772
75.0139
79.6493
84.602
89.8966
95.5457
101.574
108.011
114.874
122.2
130.01
138.347
147.243
156.735
166.883
177.715
189.302
201.696
214.965
229.182
244.425
260.757
278.269
297.02
317.039
338.296
360.653
383.706
26.5336
26.0626
25.6099
25.179
24.766
24.3718
23.9951
23.6383
23.3033
22.9907
22.6967
22.4202
22.1677
21.9394
21.7342
21.5528
21.3965
21.2661
21.1624
21.0868
21.0404
21.0234
21.0391
21.0896
21.1743
21.2967
21.4604
21.6664
21.917
22.2144
22.5618
22.9635
23.4247
23.9474
24.5341
25.1916
25.9236
26.7335
27.6298
28.6182
29.7019
30.8876
32.1828
33.5954
35.1339
36.8048
38.614
40.5719
42.6897
44.9769
47.4431
50.0974
52.9513
56.02
59.3143
62.8455
66.6301
70.6826
75.0195
79.6551
84.6081
89.903
95.5523
101.581
108.018
114.882
122.208
130.019
138.356
147.252
156.745
166.893
177.726
189.314
201.709
214.979
229.197
244.441
260.774
278.288
297.04
317.06
338.319
360.677
383.73
26.5348
26.0638
25.6112
25.1802
24.7673
24.373
23.9964
23.6396
23.3046
22.992
22.698
22.4216
22.1692
21.9408
21.7357
21.5543
21.3981
21.2677
21.1641
21.0885
21.0421
21.0252
21.041
21.0915
21.1763
21.2988
21.4625
21.6686
21.9192
22.2167
22.5642
22.966
23.4273
23.9501
24.5369
25.1945
25.9266
26.7367
27.6331
28.6216
29.7055
30.8913
32.1867
33.5994
35.138
36.8091
38.6185
40.5766
42.6946
44.982
47.4483
50.1029
52.957
56.0259
59.3204
62.8519
66.6367
70.6895
75.0267
79.6627
84.616
89.9112
95.5609
101.59
108.028
114.892
122.219
130.03
138.367
147.264
156.758
166.907
177.74
189.33
201.726
214.997
229.216
244.462
260.797
278.312
297.066
317.088
338.349
360.706
383.759
26.5364
26.0654
25.6128
25.1818
24.7689
24.3747
23.9981
23.6413
23.3063
22.9938
22.6998
22.4234
22.171
21.9427
21.7377
21.5563
21.4001
21.2697
21.1662
21.0907
21.0444
21.0275
21.0433
21.094
21.1788
21.3014
21.4652
21.6714
21.9221
22.2197
22.5673
22.9692
23.4306
23.9536
24.5405
25.1983
25.9305
26.7407
27.6373
28.626
29.71
30.896
32.1915
33.6045
35.1433
36.8146
38.6241
40.5825
42.7008
44.9884
47.455
50.1098
52.9642
56.0334
59.3282
62.86
66.6452
70.6983
75.0359
79.6723
84.626
89.9217
95.5719
101.602
108.04
114.905
122.232
130.044
138.382
147.28
156.775
166.925
177.759
189.35
201.747
215.019
229.241
244.488
260.825
278.342
297.098
317.122
338.384
360.743
383.794
26.5384
26.0675
25.6148
25.1839
24.771
24.3768
24.0002
23.6435
23.3085
22.996
22.7021
22.4258
22.1734
21.9451
21.7401
21.5588
21.4027
21.2724
21.1689
21.0935
21.0472
21.0304
21.0464
21.0971
21.182
21.3047
21.4687
21.6749
21.9258
22.2235
22.5712
22.9733
23.4348
23.958
24.545
25.203
25.9354
26.7457
27.6426
28.6314
29.7157
30.9019
32.1976
33.6108
35.1499
36.8214
38.6312
40.5898
42.7084
44.9963
47.4632
50.1184
52.9731
56.0427
59.3379
62.8701
66.6557
70.7093
75.0474
79.6842
84.6385
89.9348
95.5856
101.616
108.055
114.92
122.248
130.061
138.401
147.3
156.795
166.946
177.783
189.375
201.773
215.048
229.271
244.521
260.86
278.38
297.138
317.164
338.427
360.785
383.834
26.5409
26.07
25.6174
25.1865
24.7736
24.3795
24.0029
23.6462
23.3113
22.9988
22.7049
22.4287
22.1763
21.9481
21.7432
21.5619
21.4059
21.2757
21.1723
21.097
21.0508
21.0341
21.0501
21.101
21.186
21.3088
21.4729
21.6793
21.9303
22.2282
22.5761
22.9783
23.44
23.9633
24.5506
25.2087
25.9413
26.752
27.649
28.6381
29.7226
30.9091
32.2051
33.6185
35.1579
36.8297
38.6399
40.5989
42.7178
45.0061
47.4734
50.1289
52.9841
56.0542
59.3498
62.8826
66.6687
70.7228
75.0615
79.699
84.654
89.9509
95.6024
101.634
108.073
114.94
122.269
130.083
138.423
147.324
156.821
166.974
177.811
189.405
201.806
215.083
229.309
244.561
260.903
278.425
297.186
317.213
338.478
360.835
383.88
26.5441
26.0732
25.6206
25.1897
24.7769
24.3828
24.0063
23.6496
23.3147
23.0023
22.7085
22.4323
22.18
21.9519
21.747
21.5658
21.4099
21.2797
21.1764
21.1012
21.0552
21.0386
21.0547
21.1057
21.1909
21.3139
21.4781
21.6847
21.9359
22.2339
22.582
22.9844
23.4464
23.9699
24.5574
25.2158
25.9486
26.7595
27.6569
28.6462
29.7311
30.9178
32.2142
33.628
35.1677
36.8399
38.6505
40.6099
42.7293
45.018
47.4858
50.1418
52.9976
56.0681
59.3644
62.8977
66.6845
70.7393
75.0787
79.7169
84.6728
89.9705
95.623
101.656
108.096
114.964
122.294
130.109
138.451
147.353
156.852
167.007
177.847
189.443
201.846
215.125
229.354
244.609
260.954
278.478
297.242
317.271
338.535
360.89
383.93
26.548
26.0772
25.6246
25.1938
24.781
24.3869
24.0104
23.6538
23.319
23.0066
22.7129
22.4367
22.1845
21.9565
21.7517
21.5706
21.4148
21.2847
21.1816
21.1065
21.0605
21.0441
21.0604
21.1115
21.1969
21.32
21.4844
21.6912
21.9426
22.2409
22.5892
22.9919
23.4541
23.9779
24.5656
25.2243
25.9575
26.7687
27.6664
28.6561
29.7413
30.9284
32.2252
33.6394
35.1796
36.8523
38.6633
40.6232
42.7431
45.0324
47.5007
50.1574
53.0137
56.085
59.3819
62.916
66.7036
70.7592
75.0994
79.7386
84.6955
89.9943
95.6479
101.682
108.123
114.993
122.324
130.141
138.485
147.389
156.89
167.047
177.889
189.488
201.894
215.176
229.408
244.666
261.013
278.54
297.306
317.336
338.6
360.952
383.984
26.5529
26.0821
25.6295
25.1987
24.786
24.3919
24.0155
23.659
23.3242
23.0119
22.7182
22.4422
22.1901
21.9621
21.7574
21.5765
21.4207
21.2908
21.1878
21.1128
21.067
21.0508
21.0673
21.1186
21.2041
21.3275
21.4921
21.6991
21.9508
22.2493
22.5979
23.0008
23.4633
23.9874
24.5756
25.2346
25.9681
26.7797
27.6778
28.6679
29.7535
30.9412
32.2384
33.6531
35.1938
36.867
38.6786
40.6392
42.7597
45.0496
47.5186
50.176
53.0331
56.1052
59.4029
62.9379
66.7264
70.783
75.1243
79.7647
84.7227
90.0228
95.6778
101.713
108.156
115.027
122.361
130.18
138.526
147.432
156.935
167.094
177.94
189.541
201.95
215.236
229.471
244.731
261.08
278.613
297.379
317.409
338.672
361.02
384.044
26.5588
26.088
25.6355
25.2048
24.7921
24.3981
24.0217
23.6653
23.3306
23.0183
22.7247
22.4488
22.1968
21.9689
21.7644
21.5835
21.4279
21.2982
21.1953
21.1205
21.0749
21.0588
21.0755
21.127
21.2128
21.3364
21.5013
21.7086
21.9605
22.2594
22.6083
23.0116
23.4744
23.9989
24.5874
25.2468
25.9808
26.7929
27.6914
28.682
29.7682
30.9563
32.2542
33.6695
35.2108
36.8846
38.6969
40.6581
42.7794
45.0701
47.5399
50.1981
53.0562
56.1292
59.4279
62.964
66.7536
70.8114
75.154
79.7956
84.7551
90.0567
95.7133
101.75
108.195
115.068
122.404
130.225
138.574
147.482
156.989
167.151
177.999
189.604
202.016
215.305
229.544
244.804
261.16
278.693
297.46
317.491
338.751
361.094
384.109
26.566
26.0952
25.6428
25.2121
24.7994
24.4055
24.0293
23.6728
23.3382
23.0261
22.7326
22.4567
22.2048
21.9771
21.7727
21.592
21.4366
21.307
21.2043
21.1297
21.0843
21.0685
21.0854
21.1371
21.2232
21.3471
21.5123
21.7199
21.9721
22.2713
22.6206
23.0243
23.4876
24.0125
24.6015
25.2614
25.9959
26.8085
27.7076
28.6987
29.7855
30.9743
32.2728
33.6888
35.2308
36.9054
38.7185
40.6806
42.8027
45.0943
47.5651
50.2244
53.0835
56.1576
59.4575
62.9949
66.7858
70.845
75.1891
79.8323
84.7935
90.0968
95.7553
101.794
108.242
115.117
122.455
130.279
138.63
147.541
157.051
167.216
178.068
189.676
202.091
215.383
229.626
244.886
261.25
278.782
297.55
317.581
338.839
361.176
384.18
26.5747
26.1039
25.6515
25.2209
24.8083
24.4144
24.0383
23.6819
23.3474
23.0354
22.742
22.4663
22.2145
21.9869
21.7827
21.6021
21.4469
21.3175
21.215
21.1406
21.0955
21.0799
21.0971
21.1492
21.2355
21.3598
21.5253
21.7333
21.9859
22.2855
22.6353
23.0395
23.5032
24.0286
24.6181
25.2786
26.0136
26.8269
27.7266
28.7185
29.8059
30.9955
32.2947
33.7116
35.2544
36.9299
38.7439
40.707
42.8302
45.1229
47.5948
50.2552
53.1156
56.1911
59.4924
63.0312
66.8237
70.8846
75.2304
79.8755
84.8386
90.144
95.8047
101.846
108.296
115.174
122.514
130.341
138.695
147.61
157.123
167.291
178.146
189.757
202.176
215.472
229.718
244.981
261.346
278.882
297.651
317.681
338.936
361.266
384.257
26.5851
26.1143
25.662
25.2314
24.8189
24.4251
24.049
23.6928
23.3583
23.0464
22.7532
22.4776
22.226
21.9986
21.7945
21.6141
21.4591
21.3299
21.2277
21.1536
21.1087
21.0934
21.1109
21.1633
21.2501
21.3747
21.5407
21.749
22.0022
22.3022
22.6525
23.0572
23.5215
24.0475
24.6377
25.2988
26.0345
26.8485
27.749
28.7416
29.8299
31.0203
32.3205
33.7382
35.2821
36.9586
38.7737
40.738
42.8623
45.1563
47.6295
50.2914
53.1533
56.2303
59.5332
63.0737
66.8681
70.9309
75.2787
79.9259
84.8913
90.1991
95.8623
101.906
108.359
115.239
122.583
130.413
138.77
147.688
157.204
167.376
178.234
189.849
202.272
215.571
229.82
245.087
261.455
278.992
297.762
317.791
339.043
361.365
384.341
26.5974
26.1268
25.6745
25.2439
24.8314
24.4377
24.0618
23.7057
23.3713
23.0595
22.7664
22.491
22.2395
22.0123
21.8084
21.6283
21.4735
21.3446
21.2426
21.1688
21.1243
21.1094
21.1272
21.18
21.2672
21.3923
21.5587
21.7676
22.0212
22.3218
22.6727
23.078
23.543
24.0696
24.6605
25.3224
26.0589
26.8737
27.7751
28.7686
29.8578
31.0493
32.3505
33.7694
35.3144
36.9921
38.8085
40.7741
42.8998
45.1953
47.6701
50.3335
53.1972
56.2759
59.5808
63.1233
66.9197
70.9847
75.3348
79.9844
84.9524
90.2627
95.9287
101.976
108.431
115.315
122.661
130.494
138.855
147.776
157.296
167.471
178.333
189.952
202.379
215.682
229.935
245.205
261.576
279.115
297.886
317.914
339.161
361.473
384.432
26.6121
26.1414
25.6892
25.2587
24.8463
24.4527
24.0768
23.7208
23.3866
23.0749
22.782
22.5068
22.2555
22.0285
21.8248
21.645
21.4904
21.3618
21.2601
21.1867
21.1425
21.128
21.1463
21.1995
21.2872
21.4128
21.5797
21.7892
22.0434
22.3447
22.6962
23.1023
23.568
24.0954
24.6871
25.3498
26.0873
26.903
27.8054
28.8
29.8903
31.0829
32.3854
33.8055
35.3519
37.0309
38.8488
40.816
42.9434
45.2405
47.7171
50.3824
53.248
56.3289
59.6358
63.1806
66.9794
71.0468
75.3995
80.0517
85.0225
90.3355
96.0044
102.054
108.513
115.4
122.75
130.586
138.95
147.875
157.399
167.578
178.444
190.067
202.498
215.805
230.062
245.337
261.711
279.253
298.024
318.05
339.291
361.592
384.53
26.6294
26.1588
25.7065
25.2761
24.8638
24.4703
24.0945
23.7387
23.4046
23.093
22.8003
22.5252
22.2742
22.0474
21.844
21.6644
21.5102
21.3819
21.2806
21.2075
21.1638
21.1497
21.1685
21.2222
21.3104
21.4366
21.6042
21.8142
22.0691
22.3712
22.7235
23.1304
23.5969
24.1252
24.7179
25.3816
26.1201
26.9369
27.8405
28.8362
29.9278
31.1218
32.4256
33.8473
35.3952
37.0758
38.8954
40.8644
42.9936
45.2927
47.7713
50.4388
53.3066
56.3898
59.6991
63.2464
67.0477
71.1178
75.4732
80.1283
85.102
90.418
96.09
102.143
108.605
115.495
122.849
130.689
139.057
147.986
157.514
167.698
178.569
190.196
202.632
215.944
230.205
245.483
261.861
279.405
298.177
318.201
339.435
361.722
384.635
26.6497
26.179
25.7269
25.2965
24.8843
24.4908
24.1152
23.7595
23.4255
23.1141
22.8216
22.5467
22.2959
22.0694
21.8663
21.6871
21.5331
21.4052
21.3043
21.2317
21.1884
21.1749
21.1941
21.2484
21.3373
21.4642
21.6324
21.8432
22.0989
22.4017
22.7549
23.1628
23.6302
24.1596
24.7533
25.4182
26.1578
26.976
27.8808
28.8779
29.971
31.1665
32.472
33.8953
35.4449
37.1274
38.949
40.92
43.0513
45.3525
47.8334
50.5032
53.3735
56.4592
59.7711
63.3211
67.1252
71.1982
75.5565
80.2146
85.1915
90.5109
96.1863
102.243
108.708
115.603
122.961
130.805
139.178
148.111
157.644
167.832
178.708
190.341
202.782
216.098
230.365
245.647
262.028
279.575
298.347
318.367
339.592
361.862
384.746
26.6733
26.2027
25.7506
25.3203
24.9081
24.5148
24.1393
23.7837
23.4498
23.1386
22.8462
22.5717
22.3211
22.0949
21.8921
21.7132
21.5597
21.4321
21.3316
21.2595
21.2169
21.2039
21.2237
21.2787
21.3682
21.4958
21.6648
21.8765
22.133
22.4368
22.791
23.1999
23.6685
24.1989
24.7939
25.4601
26.2011
27.0207
27.927
28.9257
30.0204
31.2176
32.525
33.9502
35.5018
37.1863
39.01
40.9833
43.1169
45.4206
47.9039
50.5763
53.4493
56.5376
59.8524
63.4053
67.2125
71.2887
75.6502
80.3118
85.2923
90.6152
96.2945
102.355
108.825
115.724
123.086
130.935
139.312
148.251
157.789
167.983
178.864
190.503
202.949
216.272
230.543
245.83
262.215
279.763
298.535
318.55
339.764
362.014
384.863
26.7007
26.2301
25.778
25.3478
24.9357
24.5424
24.1671
23.8116
23.4779
23.1669
22.8749
22.6005
22.3502
22.1242
21.9218
21.7432
21.5901
21.4631
21.3631
21.2916
21.2495
21.237
21.2575
21.3132
21.4035
21.532
21.7019
21.9144
22.172
22.4768
22.8321
23.2422
23.712
24.2437
24.8401
25.5077
26.2502
27.0715
27.9796
28.98
30.0765
31.2757
32.5851
34.0124
35.5662
37.253
39.0791
41.0548
43.1911
45.4973
47.9834
50.6586
53.5346
56.626
59.9439
63.5002
67.3108
71.3904
75.7557
80.4211
85.4056
90.7326
96.4162
102.482
108.956
115.859
123.226
131.081
139.464
148.408
157.952
168.151
179.04
190.684
203.136
216.465
230.742
246.034
262.422
279.972
298.742
318.751
339.951
362.176
384.983
26.7327
26.2619
25.8096
25.3795
24.9674
24.5742
24.199
23.8437
23.5104
23.1997
22.9075
22.6332
22.3832
22.1577
21.9556
21.7775
21.6248
21.4983
21.3988
21.328
21.2864
21.2745
21.2959
21.3524
21.4436
21.573
21.7438
21.9574
22.216
22.522
22.8787
23.2901
23.7612
24.2944
24.8924
25.5617
26.3059
27.129
28.039
29.0413
30.1399
31.3413
32.653
34.0827
35.6389
37.3282
39.157
41.1355
43.2746
45.5838
48.0729
50.7513
53.6307
56.7255
60.0469
63.6069
67.4213
71.505
75.8743
80.544
85.5331
90.8647
96.5531
102.624
109.103
116.012
123.385
131.245
139.634
148.584
158.135
168.341
179.236
190.887
203.346
216.681
230.964
246.261
262.652
280.203
298.97
318.97
340.154
362.348
385.104
26.769
26.2976
25.8456
25.4156
25.0036
24.6104
24.2353
23.8803
23.5471
23.2365
22.944
22.6701
22.4207
22.1956
21.9939
21.8162
21.6641
21.538
21.4391
21.369
21.3281
21.3169
21.3392
21.3966
21.4887
21.6192
21.7911
22.0058
22.2657
22.573
22.9311
23.344
23.8167
24.3516
24.9513
25.6224
26.3686
27.1938
28.1059
29.1105
30.2114
31.4152
32.7295
34.1619
35.7208
37.4129
39.2447
41.2264
43.3687
45.6812
48.1737
50.8558
53.7389
56.8376
60.163
63.7271
67.5459
71.634
76.0079
80.6824
85.6765
91.0132
96.7071
102.783
109.268
116.183
123.562
131.429
139.825
148.782
158.34
168.553
179.455
191.114
203.58
216.922
231.21
246.512
262.906
280.457
299.22
319.209
340.37
362.527
385.223
26.8092
26.3379
25.8865
25.4565
25.0445
24.6514
24.2763
23.9214
23.5883
23.2777
22.9855
22.7121
22.4631
22.2383
22.037
21.8598
21.7082
21.5827
21.4845
21.4151
21.3749
21.3647
21.3879
21.4462
21.5395
21.6711
21.8442
22.0602
22.3215
22.6304
22.99
23.4047
23.8792
24.4159
25.0176
25.6908
26.4392
27.2667
28.1813
29.1883
30.2919
31.4985
32.8156
34.251
35.8131
37.5084
39.3436
41.3287
43.4747
45.791
48.2874
50.9734
53.8607
56.9638
60.2937
63.8625
67.6861
71.7792
76.1583
80.8382
85.838
91.1803
96.8802
102.963
109.454
116.376
123.762
131.636
140.039
149.004
158.57
168.79
179.701
191.367
203.841
217.19
231.484
246.791
263.187
280.737
299.493
319.466
340.601
362.711
385.334
26.8552
26.3842
25.9327
25.5026
25.0904
24.6973
24.3224
23.9677
23.6347
23.3242
23.0322
22.7592
22.5105
22.2861
22.0853
21.9087
21.7576
21.6328
21.5354
21.4667
21.4275
21.4182
21.4425
21.5019
21.5964
21.7294
21.9039
22.1214
22.3843
22.6948
23.0563
23.473
23.9495
24.4883
25.0924
25.7679
26.5188
27.349
28.2662
29.2761
30.3827
31.5924
32.9128
34.3516
35.9171
37.616
39.455
41.4442
43.5942
45.9147
48.4154
51.106
53.9981
57.106
60.4409
64.015
67.844
71.9427
76.3276
81.0135
86.0195
91.3683
97.0749
103.164
109.663
116.592
123.985
131.868
140.279
149.252
158.827
169.055
179.975
191.649
204.131
217.487
231.788
247.099
263.496
281.042
299.788
319.742
340.842
362.897
385.431
26.9068
26.4358
25.9843
25.5541
25.1419
24.7488
24.374
24.0193
23.6865
23.3761
23.0844
22.8118
22.5636
22.3397
22.1394
21.9634
21.813
21.689
21.5924
21.5246
21.4863
21.4782
21.5038
21.5644
21.6603
21.7948
21.9709
22.1902
22.4549
22.7675
23.1311
23.5499
24.0287
24.57
25.1766
25.8549
26.6085
27.4417
28.3621
29.3752
30.4851
31.6984
33.0224
34.465
36.0344
37.7374
39.5807
41.5743
43.7289
46.0541
48.5598
51.2554
54.1528
57.2662
60.6067
64.1866
68.0217
72.1267
76.518
81.2107
86.2237
91.5796
97.2936
103.391
109.897
116.835
124.236
132.128
140.547
149.53
159.114
169.351
180.28
191.963
204.453
217.817
232.123
247.437
263.834
281.374
300.107
320.035
341.092
363.077
385.504
26.9643
26.4934
26.0419
25.6115
25.1993
24.8061
24.4314
24.077
23.7443
23.434
23.1426
22.8706
22.6229
22.3995
22.1998
22.0245
21.8749
21.7517
21.6561
21.5894
21.5523
21.5456
21.5725
21.6347
21.7322
21.8685
22.0465
22.2677
22.5345
22.8493
23.2153
23.6367
24.1181
24.6621
25.2717
25.953
26.7098
27.5463
28.4702
29.4869
30.6006
31.8178
33.146
34.5929
36.1667
37.8743
39.7223
41.7209
43.8807
46.2112
48.7224
51.4238
54.3271
57.4465
60.7933
64.3799
68.2217
72.3337
76.7323
81.4324
86.4533
91.817
97.5393
103.645
110.16
117.107
124.518
132.419
140.848
149.84
159.434
169.681
180.62
192.312
204.811
218.181
232.492
247.808
264.202
281.734
300.447
320.342
341.344
363.244
385.542
27.0282
26.5574
26.1059
25.6753
25.2631
24.87
24.4954
24.1412
23.8087
23.4986
23.2075
22.9361
22.689
22.4662
22.2672
22.0928
21.9442
21.8221
21.7277
21.6623
21.6266
21.6214
21.65
21.7138
21.8133
21.9516
22.1317
22.3551
22.6243
22.9417
23.3104
23.7347
24.219
24.766
25.3789
26.0636
26.824
27.6644
28.5922
29.6129
30.7309
31.9526
33.2854
34.7371
36.3159
38.0285
39.882
41.8862
44.0518
46.3882
48.9055
51.6133
54.5233
57.6496
61.0034
64.5973
68.4467
72.5665
76.973
81.6815
86.711
92.0835
97.815
103.93
110.455
117.412
124.832
132.744
141.184
150.186
159.791
170.048
180.997
192.699
205.205
218.582
232.897
248.213
264.601
282.119
300.806
320.658
341.593
363.387
385.528
26.6285
26.177
25.7463
25.334
24.9409
24.5666
24.2126
23.8805
23.5706
23.2801
23.0095
22.7632
22.5411
22.3431
22.1697
22.0222
21.9014
21.8083
21.7444
21.7102
21.7069
21.7374
21.8031
21.9048
22.0454
22.2279
22.4539
22.7257
23.046
23.4178
23.8452
24.3329
24.8834
25.5
26.1885
26.9529
27.7976
28.7298
29.755
30.8778
32.1045
33.4425
34.8996
36.484
38.2024
40.0619
42.0724
44.2444
46.5876
49.1118
51.8267
54.7442
57.878
61.2397
64.8418
68.6996
72.8281
77.2435
81.9612
87.0003
92.3824
98.124
104.25
110.785
117.752
125.184
133.107
141.558
150.572
160.188
170.456
181.415
193.125
205.64
219.022
233.339
248.652
265.03
282.528
301.181
320.978
341.827
363.493
385.444
26.7074
26.256
25.8253
25.4131
25.0203
24.6463
24.2928
23.9611
23.6516
23.3617
23.092
22.8466
22.6255
22.4285
22.2563
22.1102
21.9908
21.8993
21.8371
21.8047
21.8034
21.836
21.904
22.0081
22.1513
22.3364
22.5653
22.8402
23.1637
23.5389
23.97
24.4614
25.0158
25.6365
26.3294
27.0984
27.9478
28.885
29.9153
31.0434
32.2758
33.6197
35.0828
36.6734
38.3983
40.2646
42.2822
44.4614
46.812
49.3439
52.0668
54.9926
58.1349
61.5054
65.1165
68.9836
73.1218
77.5471
82.275
87.3246
92.7174
98.47
104.607
111.154
118.133
125.577
133.511
141.975
151
160.628
170.907
181.876
193.595
206.117
219.503
233.818
249.125
265.488
282.957
301.566
321.292
342.035
363.542
385.263
26.796
26.3448
25.9141
25.5021
25.1095
24.7359
24.3829
24.0517
23.7428
23.4536
23.1851
22.9407
22.7207
22.5249
22.3542
22.2095
22.0917
22.002
21.9417
21.9114
21.9123
21.9473
22.0178
22.1247
22.2708
22.459
22.6911
22.9694
23.2965
23.6756
24.1107
24.6063
25.1651
25.7906
26.4883
27.2623
28.1172
29.0599
30.096
31.2301
32.4688
33.8192
35.2892
36.8867
38.6189
40.4927
42.5182
44.7055
47.0645
49.6049
52.3368
55.2718
58.4236
61.8037
65.425
69.3025
73.4513
77.8874
82.6266
87.6879
93.0923
98.857
105.006
111.565
118.558
126.014
133.962
142.437
151.475
161.115
171.405
182.384
194.111
206.637
220.024
234.335
249.63
265.97
283.402
301.951
321.588
342.198
363.512
384.956
26.8954
26.4446
26.0141
25.6023
25.21
24.837
24.4846
24.1541
23.8457
23.5575
23.2901
23.0469
22.8281
22.6337
22.4645
22.3215
22.2056
22.1179
22.0597
22.0318
22.0353
22.073
22.1463
22.2562
22.4056
22.5973
22.8329
23.1151
23.4463
23.8298
24.2695
24.7698
25.3335
25.9642
26.6674
27.4472
28.3081
29.257
30.2995
31.4404
32.6862
34.044
35.5215
37.1269
38.8671
40.7495
42.7837
44.9801
47.3483
49.8983
52.6401
55.5854
58.7477
62.1386
65.771
69.66
73.8205
78.2687
83.0202
88.0941
93.5113
99.2892
105.452
112.024
119.03
126.5
134.461
142.95
152
161.652
171.952
182.94
194.673
207.202
220.587
234.888
250.164
266.471
283.852
302.325
321.849
342.294
363.373
384.483
27.0077
26.5571
26.1268
25.7153
25.3234
24.951
24.5992
24.2694
23.9618
23.6746
23.4085
23.1667
22.9493
22.7565
22.5891
22.448
22.3341
22.2487
22.193
22.1676
22.174
22.2147
22.2912
22.4047
22.5578
22.7532
22.993
23.2795
23.6153
24.0036
24.4484
24.954
25.5233
26.16
26.8693
27.6554
28.5231
29.4791
30.5288
31.6772
32.9309
34.2969
35.783
37.3971
39.1463
41.0381
43.0822
45.2886
47.6671
50.2278
52.9806
55.9373
59.1112
62.5141
66.1588
70.0604
74.2338
78.6951
83.4601
88.5479
93.9789
99.771
105.948
112.535
119.555
127.039
135.014
143.516
152.579
162.243
172.551
183.547
195.283
207.811
221.188
235.473
250.721
266.984
284.297
302.672
322.053
342.295
363.088
383.798
27.134
26.6838
26.2537
25.8426
25.4512
25.0794
24.7285
24.3995
24.0927
23.8066
23.5421
23.3018
23.086
22.895
22.7295