/*--------------------------------*- C++ -*----------------------------------*\
| =========                 |                                                 |
| \\      /  F ield         | OpenFOAM: The Open Source CFD Toolbox           |
|  \\    /   O peration     | Version:  2412                                  |
|   \\  /    A nd           | Website:  www.openfoam.com                      |
|    \\/     M anipulation  |                                                 |
\*---------------------------------------------------------------------------*/
FoamFile
{
    version     2.0;
    format      ascii;
    arch        "LSB;label=32;scalar=64";
    class       surfaceScalarField;
    location    "340";
    object      phi;
}
// * * * * * * * * * * * * * * * * * * * * * * * * * * * * * * * * * * * * * //

dimensions      [0 3 -1 0 0 0 0];

oriented        oriented;

internalField   nonuniform List<scalar> 
17078
(
-2.20449e-06
1.20611e-09
-2.20524e-06
7.16093e-10
-2.20606e-06
9.1769e-10
-2.20707e-06
9.54923e-10
-2.20852e-06
1.46612e-09
-2.20995e-06
1.44038e-09
-2.21154e-06
1.60467e-09
-2.21322e-06
1.68671e-09
-2.21491e-06
1.70615e-09
-2.21685e-06
1.94994e-09
-2.21897e-06
2.13339e-09
-2.22129e-06
2.33203e-09
-2.2236e-06
2.3254e-09
-2.22604e-06
2.45227e-09
-2.22885e-06
2.81354e-09
-2.23176e-06
2.93044e-09
-2.23491e-06
3.15647e-09
-2.23817e-06
3.35618e-09
-2.24177e-06
3.54539e-09
-2.24559e-06
3.89817e-09
-2.2497e-06
4.04726e-09
-2.25401e-06
4.38553e-09
-2.25853e-06
4.48396e-09
-2.2634e-06
4.95834e-09
-2.26858e-06
5.10869e-09
-2.27405e-06
5.56115e-09
-2.2798e-06
5.70176e-09
-2.28581e-06
6.09472e-09
-2.29211e-06
6.23415e-09
-2.29871e-06
6.67056e-09
-2.30559e-06
6.83679e-09
-2.31272e-06
7.21798e-09
-2.32022e-06
7.43941e-09
-2.32784e-06
7.69871e-09
-2.33577e-06
7.86375e-09
-2.34382e-06
8.1032e-09
-2.35204e-06
8.18081e-09
-2.36042e-06
8.45926e-09
-2.36887e-06
8.4018e-09
-2.37741e-06
8.61108e-09
-2.38599e-06
8.51582e-09
-2.39445e-06
8.54546e-09
-2.40286e-06
8.35075e-09
-2.41114e-06
8.34613e-09
-2.41929e-06
8.08829e-09
-2.42711e-06
7.85669e-09
-2.43466e-06
7.5177e-09
-2.44197e-06
7.35147e-09
-2.44877e-06
6.76536e-09
-2.45513e-06
6.39264e-09
-2.46103e-06
5.87221e-09
-2.4664e-06
5.39791e-09
-2.47142e-06
4.99831e-09
-2.47576e-06
4.35753e-09
-2.47939e-06
3.61868e-09
-2.48243e-06
3.06779e-09
-2.48499e-06
2.53754e-09
-2.48704e-06
2.07557e-09
-2.48828e-06
1.22726e-09
-2.48887e-06
6.15916e-10
-2.489e-06
1.15834e-10
-2.48863e-06
-3.61081e-10
-2.48742e-06
-1.22139e-09
-2.48555e-06
-1.84403e-09
-2.48328e-06
-2.28147e-09
-2.48053e-06
-2.7411e-09
-2.4768e-06
-3.73754e-09
-2.47257e-06
-4.21902e-09
-2.46793e-06
-4.64268e-09
-2.46248e-06
-5.4457e-09
-2.4562e-06
-6.28708e-09
-2.44938e-06
-6.8135e-09
-2.44179e-06
-7.59071e-09
-2.43321e-06
-8.57807e-09
-2.4237e-06
-9.51006e-09
-2.41334e-06
-1.0358e-08
-2.40144e-06
-1.18932e-08
-2.38803e-06
-1.34078e-08
-2.37289e-06
-1.51391e-08
-2.3554e-06
-1.74876e-08
-2.33497e-06
-2.04304e-08
-2.3103e-06
-2.46664e-08
-2.28002e-06
-3.02803e-08
-2.24173e-06
-3.82926e-08
-2.19172e-06
-4.99982e-08
-2.1242e-06
-6.753e-08
-2.02894e-06
-9.5247e-08
-1.39239e-07
-7.77687e-06
5.77713e-09
-7.78007e-06
3.87864e-09
-7.78322e-06
4.18254e-09
-7.78716e-06
4.82973e-09
-7.79244e-06
6.76791e-09
-7.79804e-06
7.05236e-09
-7.80416e-06
7.75336e-09
-7.81035e-06
7.89311e-09
-7.81728e-06
8.65207e-09
-7.82465e-06
9.32899e-09
-7.83256e-06
1.00729e-08
-7.84088e-06
1.06714e-08
-7.84982e-06
1.12834e-08
-7.8595e-06
1.21457e-08
-7.86954e-06
1.28767e-08
-7.88055e-06
1.39597e-08
-7.89219e-06
1.48094e-08
-7.90492e-06
1.62095e-08
-7.91807e-06
1.66255e-08
-7.93228e-06
1.82201e-08
-7.9474e-06
1.90826e-08
-7.96343e-06
2.05131e-08
-7.98056e-06
2.15602e-08
-7.9983e-06
2.28282e-08
-8.0174e-06
2.4119e-08
-8.03742e-06
2.57061e-08
-8.05846e-06
2.66675e-08
-8.08058e-06
2.83356e-08
-8.10372e-06
2.92828e-08
-8.12791e-06
3.09513e-08
-8.15295e-06
3.18191e-08
-8.17908e-06
3.34673e-08
-8.20559e-06
3.38776e-08
-8.23353e-06
3.57381e-08
-8.26199e-06
3.62347e-08
-8.29095e-06
3.71457e-08
-8.32092e-06
3.80953e-08
-8.35054e-06
3.8194e-08
-8.38084e-06
3.86293e-08
-8.41124e-06
3.91068e-08
-8.44142e-06
3.86154e-08
-8.47158e-06
3.88194e-08
-8.50131e-06
3.7997e-08
-8.53052e-06
3.76559e-08
-8.55871e-06
3.61873e-08
-8.58608e-06
3.52871e-08
-8.61207e-06
3.3445e-08
-8.63711e-06
3.24564e-08
-8.6606e-06
3.02098e-08
-8.68226e-06
2.80913e-08
-8.7019e-06
2.54798e-08
-8.71991e-06
2.34513e-08
-8.73594e-06
2.09969e-08
-8.75026e-06
1.87076e-08
-8.76183e-06
1.51598e-08
-8.77088e-06
1.21576e-08
-8.7785e-06
1.01398e-08
-8.78423e-06
7.81995e-09
-8.78683e-06
3.81299e-09
-8.78686e-06
6.81124e-10
-8.78541e-06
-1.34811e-09
-8.78218e-06
-3.56999e-09
-8.77607e-06
-7.35204e-09
-8.7671e-06
-1.07797e-08
-8.757e-06
-1.23982e-08
-8.74474e-06
-1.49904e-08
-8.72957e-06
-1.8915e-08
-8.71195e-06
-2.18201e-08
-8.69296e-06
-2.36419e-08
-8.67144e-06
-2.6951e-08
-8.64637e-06
-3.13673e-08
-8.61954e-06
-3.3644e-08
-8.59009e-06
-3.70353e-08
-8.55663e-06
-4.20408e-08
-8.52039e-06
-4.57471e-08
-8.48012e-06
-5.06251e-08
-8.43429e-06
-5.77177e-08
-8.38346e-06
-6.42334e-08
-8.32611e-06
-7.24815e-08
-8.2601e-06
-8.34985e-08
-8.1835e-06
-9.7034e-08
-8.09164e-06
-1.16517e-07
-7.98003e-06
-1.4189e-07
-7.83954e-06
-1.78789e-07
-7.6578e-06
-2.31725e-07
-7.41387e-06
-3.1147e-07
-7.07259e-06
-4.36516e-07
-6.33886e-07
-1.54762e-05
1.57073e-08
-1.5484e-05
1.16588e-08
-1.54908e-05
1.10981e-08
-1.55002e-05
1.41153e-08
-1.55121e-05
1.86967e-08
-1.55246e-05
1.9586e-08
-1.55374e-05
2.06176e-08
-1.55517e-05
2.2189e-08
-1.55666e-05
2.3559e-08
-1.55826e-05
2.53942e-08
-1.56e-05
2.74008e-08
-1.56183e-05
2.90087e-08
-1.56375e-05
3.0507e-08
-1.56584e-05
3.30598e-08
-1.5681e-05
3.55154e-08
-1.57046e-05
3.7647e-08
-1.57299e-05
4.00331e-08
-1.57568e-05
4.3227e-08
-1.57857e-05
4.54767e-08
-1.58162e-05
4.88866e-08
-1.58486e-05
5.14159e-08
-1.5883e-05
5.49422e-08
-1.59188e-05
5.73374e-08
-1.59574e-05
6.15907e-08
-1.59977e-05
6.43236e-08
-1.60401e-05
6.82132e-08
-1.60841e-05
7.05623e-08
-1.61309e-05
7.52764e-08
-1.61793e-05
7.76054e-08
-1.62295e-05
8.12307e-08
-1.62818e-05
8.40741e-08
-1.63357e-05
8.75131e-08
-1.63916e-05
8.96708e-08
-1.64487e-05
9.29323e-08
-1.65072e-05
9.4629e-08
-1.65668e-05
9.68375e-08
-1.66267e-05
9.79771e-08
-1.6688e-05
9.96261e-08
-1.67493e-05
9.9845e-08
-1.68105e-05
1.00388e-07
-1.68715e-05
9.94886e-08
-1.69315e-05
9.9011e-08
-1.69904e-05
9.67993e-08
-1.70479e-05
9.52854e-08
-1.7104e-05
9.2116e-08
-1.71572e-05
8.85868e-08
-1.7208e-05
8.42331e-08
-1.7256e-05
8.0461e-08
-1.7301e-05
7.51854e-08
-1.73417e-05
6.88271e-08
-1.73787e-05
6.24305e-08
-1.74112e-05
5.59754e-08
-1.74408e-05
5.06412e-08
-1.74654e-05
4.32907e-08
-1.74847e-05
3.44545e-08
-1.74993e-05
2.6817e-08
-1.75103e-05
2.10494e-08
-1.75168e-05
1.44151e-08
-1.75181e-05
5.09919e-09
-1.75139e-05
-3.56041e-09
-1.75063e-05
-8.8848e-09
-1.74949e-05
-1.50026e-08
-1.74774e-05
-2.48249e-08
-1.74549e-05
-3.32839e-08
-1.7429e-05
-3.83663e-08
-1.73993e-05
-4.46699e-08
-1.73632e-05
-5.50287e-08
-1.73228e-05
-6.21691e-08
-1.72791e-05
-6.7383e-08
-1.72295e-05
-7.65016e-08
-1.71738e-05
-8.71111e-08
-1.71138e-05
-9.36243e-08
-1.70479e-05
-1.02887e-07
-1.69746e-05
-1.15399e-07
-1.68947e-05
-1.25554e-07
-1.68078e-05
-1.37519e-07
-1.67092e-05
-1.56323e-07
-1.65999e-05
-1.73575e-07
-1.64773e-05
-1.95107e-07
-1.63371e-05
-2.23658e-07
-1.61756e-05
-2.58535e-07
-1.59834e-05
-3.08675e-07
-1.57504e-05
-3.74909e-07
-1.54604e-05
-4.68774e-07
-1.5087e-05
-6.05148e-07
-1.459e-05
-8.08456e-07
-1.39e-05
-1.12653e-06
-1.6275e-06
-2.58775e-05
3.49125e-08
-2.58922e-05
2.64147e-08
-2.59074e-05
2.63916e-08
-2.59263e-05
3.29596e-08
-2.59487e-05
4.11402e-08
-2.59732e-05
4.4058e-08
-2.59984e-05
4.58294e-08
-2.60251e-05
4.89178e-08
-2.60541e-05
5.25777e-08
-2.60852e-05
5.65202e-08
-2.61179e-05
6.01834e-08
-2.61527e-05
6.37904e-08
-2.61898e-05
6.76025e-08
-2.62293e-05
7.26339e-08
-2.62712e-05
7.7413e-08
-2.63161e-05
8.25859e-08
-2.63638e-05
8.77685e-08
-2.64139e-05
9.34375e-08
-2.64675e-05
9.89759e-08
-2.65247e-05
1.06189e-07
-2.65841e-05
1.10733e-07
-2.66471e-05
1.18095e-07
-2.67144e-05
1.24552e-07
-2.67845e-05
1.31855e-07
-2.68579e-05
1.37619e-07
-2.69347e-05
1.45124e-07
-2.70153e-05
1.51171e-07
-2.70989e-05
1.58953e-07
-2.71866e-05
1.65174e-07
-2.72762e-05
1.7102e-07
-2.73697e-05
1.77521e-07
-2.74651e-05
1.82943e-07
-2.75634e-05
1.87905e-07
-2.76641e-05
1.9378e-07
-2.77661e-05
1.96522e-07
-2.78696e-05
2.00472e-07
-2.79743e-05
2.02627e-07
-2.80792e-05
2.04579e-07
-2.81842e-05
2.04753e-07
-2.82883e-05
2.04663e-07
-2.83916e-05
2.02687e-07
-2.8493e-05
2.00553e-07
-2.85917e-05
1.9538e-07
-2.86876e-05
1.91268e-07
-2.87787e-05
1.83172e-07
-2.88656e-05
1.75486e-07
-2.89473e-05
1.65895e-07
-2.9024e-05
1.57288e-07
-2.90945e-05
1.45581e-07
-2.91581e-05
1.3247e-07
-2.92132e-05
1.17536e-07
-2.92619e-05
1.04668e-07
-2.93043e-05
9.30268e-08
-2.93386e-05
7.7601e-08
-2.93625e-05
5.83435e-08
-2.93778e-05
4.22188e-08
-2.93874e-05
3.05632e-08
-2.93897e-05
1.67529e-08
-2.93813e-05
-3.26906e-09
-2.93634e-05
-2.14801e-08
-2.93401e-05
-3.2156e-08
-2.93107e-05
-4.44349e-08
-2.92702e-05
-6.53326e-08
-2.92205e-05
-8.29691e-08
-2.91662e-05
-9.26213e-08
-2.91046e-05
-1.06254e-07
-2.90318e-05
-1.27863e-07
-2.8951e-05
-1.42932e-07
-2.88647e-05
-1.53731e-07
-2.87693e-05
-1.71917e-07
-2.86624e-05
-1.93937e-07
-2.85483e-05
-2.07719e-07
-2.84249e-05
-2.26331e-07
-2.82872e-05
-2.53086e-07
-2.81401e-05
-2.72688e-07
-2.79789e-05
-2.98678e-07
-2.77981e-05
-3.37115e-07
-2.75995e-05
-3.72168e-07
-2.73774e-05
-4.17237e-07
-2.71266e-05
-4.74408e-07
-2.68381e-05
-5.47098e-07
-2.64972e-05
-6.49506e-07
-2.60885e-05
-7.83676e-07
-2.5582e-05
-9.75204e-07
-2.49354e-05
-1.2518e-06
-2.4081e-05
-1.66285e-06
-2.29038e-05
-2.30368e-06
-3.30964e-06
-3.96777e-05
6.94035e-08
-3.97072e-05
5.59192e-08
-3.97367e-05
5.60351e-08
-3.97721e-05
6.82647e-08
-3.98138e-05
8.2887e-08
-3.98563e-05
8.6585e-08
-3.99035e-05
9.3066e-08
-3.99533e-05
9.87297e-08
-4.00055e-05
1.04844e-07
-4.00604e-05
1.11432e-07
-4.01199e-05
1.19643e-07
-4.01829e-05
1.26884e-07
-4.02486e-05
1.33341e-07
-4.03196e-05
1.43573e-07
-4.03942e-05
1.52096e-07
-4.04737e-05
1.62087e-07
-4.05569e-05
1.71027e-07
-4.06461e-05
1.82751e-07
-4.07401e-05
1.92933e-07
-4.08388e-05
2.0494e-07
-4.09431e-05
2.1501e-07
-4.10524e-05
2.27456e-07
-4.11667e-05
2.38815e-07
-4.12867e-05
2.51981e-07
-4.14121e-05
2.62915e-07
-4.15433e-05
2.76519e-07
-4.16794e-05
2.87183e-07
-4.18198e-05
2.99407e-07
-4.19645e-05
3.0985e-07
-4.21153e-05
3.21909e-07
-4.22685e-05
3.30641e-07
-4.24264e-05
3.41012e-07
-4.2587e-05
3.48358e-07
-4.27504e-05
3.5735e-07
-4.29157e-05
3.61685e-07
-4.30823e-05
3.67169e-07
-4.32495e-05
3.69826e-07
-4.34164e-05
3.71515e-07
-4.35817e-05
3.69993e-07
-4.37443e-05
3.67393e-07
-4.39042e-05
3.62486e-07
-4.40597e-05
3.56252e-07
-4.42107e-05
3.46254e-07
-4.43546e-05
3.35304e-07
-4.44917e-05
3.20192e-07
-4.46194e-05
3.03212e-07
-4.47377e-05
2.84105e-07
-4.4847e-05
2.66685e-07
-4.49466e-05
2.45099e-07
-4.50329e-05
2.18818e-07
-4.51051e-05
1.89759e-07
-4.51663e-05
1.65845e-07
-4.52168e-05
1.43485e-07
-4.52544e-05
1.15313e-07
-4.52746e-05
7.84444e-08
-4.52809e-05
4.86249e-08
-4.52775e-05
2.70943e-08
-4.52623e-05
1.60854e-09
-4.52306e-05
-3.50134e-08
-4.51832e-05
-6.88773e-08
-4.51274e-05
-8.7883e-08
-4.50607e-05
-1.11141e-07
-4.49777e-05
-1.4833e-07
-4.48801e-05
-1.80551e-07
-4.47735e-05
-1.99256e-07
-4.46562e-05
-2.2352e-07
-4.45217e-05
-2.62353e-07
-4.43744e-05
-2.90271e-07
-4.42186e-05
-3.09558e-07
-4.40473e-05
-3.4316e-07
-4.38577e-05
-3.83566e-07
-4.36576e-05
-4.07778e-07
-4.34435e-05
-4.4049e-07
-4.32065e-05
-4.89991e-07
-4.29527e-05
-5.2655e-07
-4.26779e-05
-5.73429e-07
-4.23736e-05
-6.41475e-07
-4.204e-05
-7.05753e-07
-4.16707e-05
-7.86459e-07
-4.12547e-05
-8.90465e-07
-4.07812e-05
-1.02056e-06
-4.0226e-05
-1.20468e-06
-3.95635e-05
-1.4462e-06
-3.87506e-05
-1.78811e-06
-3.77206e-05
-2.28184e-06
-3.6369e-05
-3.01445e-06
-3.45213e-05
-4.15138e-06
-5.92974e-06
-5.77112e-05
1.29582e-07
-5.7766e-05
1.10652e-07
-5.78216e-05
1.11763e-07
-5.78852e-05
1.31807e-07
-5.79589e-05
1.56693e-07
-5.80361e-05
1.63821e-07
-5.81175e-05
1.74418e-07
-5.82041e-05
1.85384e-07
-5.82956e-05
1.96394e-07
-5.83932e-05
2.09074e-07
-5.84957e-05
2.22108e-07
-5.86038e-05
2.35107e-07
-5.87196e-05
2.49092e-07
-5.88403e-05
2.64313e-07
-5.89686e-05
2.80434e-07
-5.9103e-05
2.96492e-07
-5.92473e-05
3.1534e-07
-5.93969e-05
3.32517e-07
-5.95544e-05
3.50342e-07
-5.97201e-05
3.7076e-07
-5.9893e-05
3.87837e-07
-6.00751e-05
4.09715e-07
-6.02643e-05
4.27931e-07
-6.04609e-05
4.48721e-07
-6.06661e-05
4.68045e-07
-6.08776e-05
4.88185e-07
-6.10965e-05
5.05971e-07
-6.1323e-05
5.26074e-07
-6.15549e-05
5.41612e-07
-6.17926e-05
5.59753e-07
-6.2035e-05
5.72941e-07
-6.22819e-05
5.88078e-07
-6.2532e-05
5.98375e-07
-6.27844e-05
6.09904e-07
-6.30378e-05
6.15002e-07
-6.32918e-05
6.21206e-07
-6.35439e-05
6.21846e-07
-6.37942e-05
6.21928e-07
-6.40399e-05
6.15658e-07
-6.42803e-05
6.07924e-07
-6.45133e-05
5.95427e-07
-6.47373e-05
5.80299e-07
-6.49522e-05
5.61121e-07
-6.51567e-05
5.39851e-07
-6.5346e-05
5.09435e-07
-6.55194e-05
4.76708e-07
-6.56772e-05
4.41778e-07
-6.58203e-05
4.09908e-07
-6.59468e-05
3.71592e-07
-6.60517e-05
3.23743e-07
-6.61332e-05
2.71208e-07
-6.6197e-05
2.29697e-07
-6.62446e-05
1.9103e-07
-6.6271e-05
1.41707e-07
-6.62719e-05
7.93184e-08
-6.62492e-05
2.59915e-08
-6.62135e-05
-8.60805e-09
-6.61592e-05
-5.26196e-08
-6.6078e-05
-1.16246e-07
-6.59742e-05
-1.72659e-07
-6.58582e-05
-2.03875e-07
-6.57252e-05
-2.44176e-07
-6.55674e-05
-3.06166e-07
-6.53864e-05
-3.61503e-07
-6.51945e-05
-3.91184e-07
-6.49856e-05
-4.32349e-07
-6.47499e-05
-4.98035e-07
-6.44962e-05
-5.4399e-07
-6.42288e-05
-5.76973e-07
-6.39384e-05
-6.3355e-07
-6.36224e-05
-6.99544e-07
-6.32895e-05
-7.40713e-07
-6.29332e-05
-7.96799e-07
-6.25456e-05
-8.77578e-07
-6.21332e-05
-9.38893e-07
-6.16899e-05
-1.0168e-06
-6.12017e-05
-1.12967e-06
-6.06713e-05
-1.23611e-06
-6.00865e-05
-1.37123e-06
-5.94337e-05
-1.54325e-06
-5.86936e-05
-1.76066e-06
-5.78346e-05
-2.0637e-06
-5.68167e-05
-2.46411e-06
-5.55757e-05
-3.02907e-06
-5.40147e-05
-3.84289e-06
-5.19822e-05
-5.0469e-06
-4.92245e-05
-6.90911e-06
-9.81184e-06
-8.09476e-05
2.34055e-07
-8.1045e-05
2.08063e-07
-8.11451e-05
2.1197e-07
-8.12567e-05
2.43341e-07
-8.1382e-05
2.82026e-07
-8.15152e-05
2.9706e-07
-8.16558e-05
3.1503e-07
-8.18014e-05
3.31036e-07
-8.19577e-05
3.52659e-07
-8.21206e-05
3.7205e-07
-8.22943e-05
3.95816e-07
-8.2476e-05
4.16796e-07
-8.26673e-05
4.40425e-07
-8.2869e-05
4.66087e-07
-8.30826e-05
4.94027e-07
-8.33061e-05
5.20067e-07
-8.35393e-05
5.48562e-07
-8.37847e-05
5.78045e-07
-8.4041e-05
6.06525e-07
-8.43078e-05
6.37741e-07
-8.45878e-05
6.67785e-07
-8.4876e-05
6.97984e-07
-8.51761e-05
7.2797e-07
-8.5488e-05
7.60779e-07
-8.58098e-05
7.89766e-07
-8.61399e-05
8.18379e-07
-8.648e-05
8.46055e-07
-8.68266e-05
8.72755e-07
-8.71831e-05
8.98077e-07
-8.75431e-05
9.19848e-07
-8.79102e-05
9.39948e-07
-8.82784e-05
9.56403e-07
-8.86511e-05
9.70978e-07
-8.90228e-05
9.81773e-07
-8.93947e-05
9.86807e-07
-8.97619e-05
9.88501e-07
-9.01254e-05
9.85257e-07
-9.04824e-05
9.7904e-07
-9.08294e-05
9.62602e-07
-9.11653e-05
9.4392e-07
-9.14859e-05
9.15925e-07
-9.1792e-05
8.86592e-07
-9.20812e-05
8.50218e-07
-9.23509e-05
8.09639e-07
-9.25963e-05
7.54702e-07
-9.28152e-05
6.95717e-07
-9.30097e-05
6.36192e-07
-9.31792e-05
5.79505e-07
-9.33231e-05
5.15434e-07
-9.34336e-05
4.34265e-07
-9.3509e-05
3.46609e-07
-9.35549e-05
2.75614e-07
-9.35796e-05
2.15774e-07
-9.35715e-05
1.33549e-07
-9.35224e-05
3.02339e-08
-9.34423e-05
-5.41063e-08
-9.3341e-05
-1.09858e-07
-9.32131e-05
-1.80495e-07
-9.30469e-05
-2.82483e-07
-9.2847e-05
-3.72536e-07
-9.26289e-05
-4.2197e-07
-9.23885e-05
-4.84525e-07
-9.21094e-05
-5.85263e-07
-9.17993e-05
-6.716e-07
-9.1471e-05
-7.19481e-07
-9.11189e-05
-7.84444e-07
-9.07288e-05
-8.88169e-07
-9.03125e-05
-9.60282e-07
-8.98773e-05
-1.01212e-06
-8.94101e-05
-1.10079e-06
-8.89043e-05
-1.20538e-06
-8.83752e-05
-1.2698e-06
-8.78114e-05
-1.36055e-06
-8.72056e-05
-1.48341e-06
-8.65628e-05
-1.58166e-06
-8.58749e-05
-1.70472e-06
-8.51248e-05
-1.87979e-06
-8.43127e-05
-2.04813e-06
-8.34251e-05
-2.25887e-06
-8.24378e-05
-2.53054e-06
-8.13285e-05
-2.86995e-06
-8.00466e-05
-3.34557e-06
-7.85389e-05
-3.97186e-06
-7.67123e-05
-4.85561e-06
-7.44316e-05
-6.12363e-06
-7.14798e-05
-7.99868e-06
-6.75033e-05
-1.08856e-05
-1.53699e-05
-0.000110468
4.07637e-07
-0.000110634
3.74592e-07
-0.000110804
3.82551e-07
-0.000110995
4.34139e-07
-0.000111203
4.8989e-07
-0.000111421
5.15001e-07
-0.00011165
5.43959e-07
-0.000111893
5.73792e-07
-0.000112145
6.05388e-07
-0.000112413
6.39436e-07
-0.000112694
6.77209e-07
-0.000112989
7.11978e-07
-0.000113297
7.47921e-07
-0.00011362
7.89097e-07
-0.000113958
8.32429e-07
-0.00011431
8.72278e-07
-0.000114679
9.1717e-07
-0.000115062
9.61836e-07
-0.000115462
1.0059e-06
-0.000115877
1.05279e-06
-0.000116305
1.09572e-06
-0.000116748
1.14152e-06
-0.000117204
1.18399e-06
-0.000117674
1.23077e-06
-0.000118155
1.27024e-06
-0.000118649
1.31242e-06
-0.000119149
1.34646e-06
-0.000119662
1.38533e-06
-0.000120177
1.41351e-06
-0.000120701
1.44404e-06
-0.000121225
1.46418e-06
-0.000121754
1.48472e-06
-0.000122279
1.49643e-06
-0.000122802
1.50477e-06
-0.000123318
1.50255e-06
-0.000123826
1.49647e-06
-0.000124322
1.48152e-06
-0.000124804
1.46112e-06
-0.000125268
1.42677e-06
-0.00012571
1.38614e-06
-0.000126129
1.33455e-06
-0.000126521
1.27878e-06
-0.000126886
1.21489e-06
-0.000127219
1.14274e-06
-0.000127516
1.0517e-06
-0.00012777
9.49971e-07
-0.000127986
8.52156e-07
-0.000128168
7.61704e-07
-0.000128312
6.59295e-07
-0.000128404
5.2582e-07
-0.000128444
3.86671e-07
-0.000128447
2.78399e-07
-0.000128414
1.82917e-07
-0.000128337
5.66834e-08
-0.000128201
-1.05404e-07
-0.000128021
-2.33846e-07
-0.000127813
-3.17949e-07
-0.000127566
-4.27702e-07
-0.000127265
-5.83826e-07
-0.00012692
-7.17094e-07
-0.000126548
-7.93947e-07
-0.000126143
-8.89266e-07
-0.000125687
-1.04172e-06
-0.000125187
-1.17162e-06
-0.000124662
-1.24396e-06
-0.000124103
-1.34368e-06
-0.000123494
-1.49737e-06
-0.000122847
-1.60761e-06
-0.000122172
-1.6871e-06
-0.000121452
-1.82056e-06
-0.000120683
-1.97419e-06
-0.000119877
-2.07599e-06
-0.000119027
-2.2102e-06
-0.000118116
-2.39492e-06
-0.000117154
-2.54349e-06
-0.000116129
-2.73003e-06
-0.000115019
-2.98918e-06
-0.000113824
-3.243e-06
-0.000112522
-3.56117e-06
-0.000111085
-3.96796e-06
-0.000109473
-4.48196e-06
-0.000107624
-5.19377e-06
-0.000105459
-6.13768e-06
-0.00010285
-7.46406e-06
-9.96077e-05
-9.36605e-06
-9.54343e-05
-1.2172e-05
-8.98472e-05
-1.64728e-05
-2.3129e-05
-0.00014741
6.86471e-07
-0.000147682
6.46771e-07
-0.000147963
6.63302e-07
-0.000148263
7.34676e-07
-0.000148593
8.19985e-07
-0.000148939
8.61053e-07
-0.000149301
9.05819e-07
-0.000149679
9.51991e-07
-0.000150077
1.00353e-06
-0.000150493
1.05547e-06
-0.000150927
1.11079e-06
-0.000151379
1.1647e-06
-0.000151853
1.22149e-06
-0.000152344
1.27971e-06
-0.000152856
1.34483e-06
-0.000153387
1.40372e-06
-0.000153938
1.468e-06
-0.000154509
1.53277e-06
-0.0001551
1.59641e-06
-0.000155707
1.66009e-06
-0.00015633
1.71937e-06
-0.000156971
1.78223e-06
-0.000157628
1.84078e-06
-0.000158297
1.90039e-06
-0.000158979
1.95191e-06
-0.000159673
2.00649e-06
-0.000160374
2.04768e-06
-0.000161081
2.09209e-06
-0.000161795
2.12743e-06
-0.000162506
2.15509e-06
-0.00016322
2.17852e-06
-0.000163929
2.19301e-06
-0.000164629
2.19656e-06
-0.000165318
2.19461e-06
-0.000165994
2.17798e-06
-0.000166652
2.15468e-06
-0.00016729
2.11907e-06
-0.000167903
2.07418e-06
-0.000168488
2.01187e-06
-0.000169034
1.93246e-06
-0.000169544
1.84412e-06
-0.000170015
1.75038e-06
-0.000170445
1.6449e-06
-0.000170832
1.5294e-06
-0.000171162
1.38207e-06
-0.000171432
1.21969e-06
-0.000171649
1.06888e-06
-0.000171819
9.32251e-07
-0.000171934
7.74382e-07
-0.000171978
5.69709e-07
-0.000171954
3.62382e-07
-0.000171873
1.97367e-07
-0.000171751
6.09568e-08
-0.000171565
-1.29637e-07
-0.000171301
-3.68544e-07
-0.000170977
-5.58314e-07
-0.000170615
-6.80373e-07
-0.000170204
-8.38346e-07
-0.000169718
-1.06946e-06
-0.000169173
-1.26253e-06
-0.000168593
-1.374e-06
-0.000167968
-1.51439e-06
-0.000167273
-1.7359e-06
-0.000166521
-1.92358e-06
-0.000165737
-2.02872e-06
-0.000164903
-2.17723e-06
-0.000164001
-2.39903e-06
-0.00016305
-2.55861e-06
-0.000162061
-2.67609e-06
-0.00016101
-2.8723e-06
-0.000159891
-3.09261e-06
-0.000158726
-3.24135e-06
-0.000157497
-3.43955e-06
-0.000156186
-3.70521e-06
-0.000154807
-3.92249e-06
-0.000153344
-4.19343e-06
-0.000151763
-4.5696e-06
-0.000150067
-4.9394e-06
-0.000148225
-5.40304e-06
-0.000146196
-5.99674e-06
-0.000143931
-6.74773e-06
-0.000141338
-7.78594e-06
-0.000138313
-9.16297e-06
-0.00013468
-1.1097e-05
-0.000130179
-1.38667e-05
-0.000124407
-1.79443e-05
-0.000116716
-2.41639e-05
-3.37458e-05
-0.000192899
-0.000193318
-0.000193747
-0.00019421
1.19772e-06
-0.000194708
1.31806e-06
-0.000195225
1.37844e-06
-0.000195767
1.44798e-06
-0.00019633
1.51504e-06
-0.000196916
1.58936e-06
-0.000197526
1.66524e-06
-0.000198162
1.74654e-06
-0.000198821
1.82402e-06
-0.000199503
1.90346e-06
-0.000200209
1.98585e-06
-0.000200937
2.07297e-06
-0.000201693
2.15954e-06
-0.000202467
2.24223e-06
-0.000203264
2.32942e-06
-0.00020408
2.41227e-06
-0.000204917
2.49739e-06
-0.000205772
2.57472e-06
-0.00020664
2.65059e-06
-0.000207524
2.7244e-06
-0.00020842
2.79648e-06
-0.000209327
2.85865e-06
-0.000210237
2.91636e-06
-0.000211155
2.96567e-06
-0.000212074
3.01196e-06
-0.00021299
3.04307e-06
-0.000213902
3.06697e-06
-0.000214803
3.07989e-06
-0.000215693
3.08289e-06
-0.00021657
3.07298e-06
-0.000217422
3.04741e-06
-0.000218252
3.00723e-06
-0.00021905
2.95334e-06
-0.000219817
2.88569e-06
-0.000220549
2.80631e-06
-0.000221234
2.69736e-06
-0.000221872
2.57036e-06
-0.000222455
2.42718e-06
-0.000222983
2.27847e-06
-0.00022346
2.12171e-06
-0.000223877
1.94574e-06
-0.000224216
1.72121e-06
-0.000224477
1.4813e-06
-0.00022467
1.26187e-06
-0.0002248
1.06212e-06
-0.000224859
8.32933e-07
-0.000224828
5.3947e-07
-0.000224706
2.40213e-07
-0.000224515
6.48179e-09
-0.000224269
-1.85481e-07
-0.000223944
-4.55031e-07
-0.000223517
-7.95318e-07
-0.000223015
-1.06053e-06
-0.000222464
-1.23095e-06
-0.000221845
-1.4568e-06
-0.000221136
-1.77897e-06
-0.000220349
-2.04962e-06
-0.000219516
-2.20643e-06
-0.000218623
-2.4075e-06
-0.000217642
-2.71711e-06
-0.000216586
-2.97992e-06
-0.000215484
-3.13097e-06
-0.000214316
-3.34496e-06
-0.000213063
-3.65217e-06
-0.000211744
-3.87743e-06
-0.000210369
-4.05107e-06
-0.000208913
-4.32851e-06
-0.00020737
-4.63477e-06
-0.000205762
-4.84993e-06
-0.000204065
-5.13669e-06
-0.000202265
-5.50443e-06
-0.000200371
-5.81712e-06
-0.000198358
-6.20581e-06
-0.000196196
-6.73223e-06
-0.000193875
-7.26056e-06
-0.000191357
-7.92103e-06
-0.000188587
-8.76688e-06
-0.000185491
-9.84309e-06
-0.000181958
-1.13194e-05
-0.000177834
-1.32866e-05
-0.000172886
-1.60452e-05
-0.000166763
-1.99901e-05
-0.000158923
-2.57837e-05
-0.000148514
-3.4573e-05
-4.80413e-05
-0.000249897
1.8625e-06
-0.000250604
2.02485e-06
-0.000251337
2.11168e-06
-0.000252099
2.20994e-06
-0.000252888
2.30394e-06
-0.000253706
2.40739e-06
-0.000254552
2.51145e-06
-0.000255426
2.62023e-06
-0.000256325
2.72332e-06
-0.000257249
2.82713e-06
-0.000258201
2.938e-06
-0.000259176
3.04844e-06
-0.000260175
3.15866e-06
-0.000261197
3.26397e-06
-0.000262237
3.36945e-06
-0.000263298
3.47377e-06
-0.000264377
3.57574e-06
-0.000265467
3.66547e-06
-0.000266571
3.75425e-06
-0.000267683
3.83643e-06
-0.000268803
3.91611e-06
-0.000269926
3.98201e-06
-0.000271051
4.04184e-06
-0.00027217
4.0841e-06
-0.000273284
4.12622e-06
-0.000274387
4.14608e-06
-0.000275479
4.15848e-06
-0.000276551
4.15266e-06
-0.000277601
4.13303e-06
-0.000278623
4.09457e-06
-0.000279615
4.03937e-06
-0.000280569
3.96168e-06
-0.000281482
3.86563e-06
-0.000282351
3.75468e-06
-0.000283172
3.62749e-06
-0.000283934
3.46e-06
-0.00028463
3.26577e-06
-0.000285258
3.05544e-06
-0.000285819
2.8399e-06
-0.000286313
2.61563e-06
-0.000286731
2.36356e-06
-0.000287058
2.04792e-06
-0.000287287
1.71071e-06
-0.000287428
1.40291e-06
-0.000287501
1.13434e-06
-0.000287484
8.16535e-07
-0.000287357
4.12122e-07
-0.000287116
-1.00343e-09
-0.000286798
-3.11206e-07
-0.000286411
-5.72192e-07
-0.000285924
-9.42393e-07
-0.000285317
-1.40177e-06
-0.000284618
-1.7599e-06
-0.000283856
-1.99331e-06
-0.000283014
-2.29859e-06
-0.000282055
-2.73795e-06
-0.000281002
-3.10221e-06
-0.000279891
-3.31816e-06
-0.000278702
-3.59569e-06
-0.000277402
-4.01715e-06
-0.000276009
-4.37311e-06
-0.000274554
-4.58563e-06
-0.000273013
-4.88593e-06
-0.000271364
-5.3019e-06
-0.000269627
-5.6137e-06
-0.000267816
-5.86294e-06
-0.000265898
-6.24623e-06
-0.000263871
-6.66151e-06
-0.000261747
-6.97419e-06
-0.000259515
-7.36843e-06
-0.000257143
-7.87612e-06
-0.000254642
-8.31824e-06
-0.000251984
-8.86368e-06
-0.000249131
-9.58581e-06
-0.000246063
-1.03284e-05
-0.000242727
-1.12568e-05
-0.000239054
-1.24399e-05
-0.000234943
-1.39546e-05
-0.000230239
-1.60227e-05
-0.000224739
-1.87874e-05
-0.000218123
-2.26603e-05
-0.000209929
-2.8184e-05
-0.000199438
-3.6275e-05
-0.000185544
-4.84668e-05
-6.7024e-05
-0.000316315
2.76526e-06
-0.000317269
2.97905e-06
-0.000318256
3.09855e-06
-0.000319268
3.22194e-06
-0.000320314
3.34969e-06
-0.000321386
3.47898e-06
-0.00032249
3.61567e-06
-0.00032362
3.7506e-06
-0.000324777
3.87984e-06
-0.000325959
4.00973e-06
-0.000327164
4.14257e-06
-0.000328393
4.27763e-06
-0.000329637
4.40242e-06
-0.000330903
4.53003e-06
-0.000332186
4.65287e-06
-0.00033348
4.76777e-06
-0.000334785
4.8809e-06
-0.000336096
4.97625e-06
-0.000337412
5.07017e-06
-0.000338732
5.15683e-06
-0.000340052
5.23645e-06
-0.000341365
5.29508e-06
-0.000342669
5.34568e-06
-0.000343963
5.37818e-06
-0.000345239
5.40239e-06
-0.000346498
5.40515e-06
-0.00034773
5.39025e-06
-0.000348936
5.35803e-06
-0.00035011
5.30785e-06
-0.000351246
5.22989e-06
-0.000352338
5.13136e-06
-0.00035338
5.00383e-06
-0.000354372
4.85773e-06
-0.000355311
4.69392e-06
-0.000356188
4.50433e-06
-0.000356994
4.26632e-06
-0.000357723
3.99494e-06
-0.000358364
3.69653e-06
-0.00035893
3.40514e-06
-0.000359418
3.10364e-06
-0.000359819
2.76467e-06
-0.000360106
2.33557e-06
-0.000360278
1.882e-06
-0.000360358
1.48334e-06
-0.000360351
1.12732e-06
-0.000360245
7.10181e-07
-0.000360006
1.73342e-07
-0.000359642
-3.65334e-07
-0.000359183
-7.69424e-07
-0.000358646
-1.10978e-06
-0.000357989
-1.59943e-06
-0.00035719
-2.20023e-06
-0.000356289
-2.66117e-06
-0.000355313
-2.96964e-06
-0.000354232
-3.37943e-06
-0.000353019
-3.9505e-06
-0.000351694
-4.42762e-06
-0.000350294
-4.7175e-06
-0.000348796
-5.09443e-06
-0.000347162
-5.65042e-06
-0.000345418
-6.11721e-06
-0.00034359
-6.41421e-06
-0.000341656
-6.81942e-06
-0.000339584
-7.37424e-06
-0.000337403
-7.79447e-06
-0.00033512
-8.14589e-06
-0.000332702
-8.66414e-06
-0.000330142
-9.22195e-06
-0.000327461
-9.6554e-06
-0.000324627
-1.02017e-05
-0.000321617
-1.08864e-05
-0.000318436
-1.14995e-05
-0.000315045
-1.22544e-05
-0.000311395
-1.32359e-05
-0.000307459
-1.42644e-05
-0.000303166
-1.555e-05
-0.000298415
-1.71907e-05
-0.000293073
-1.92961e-05
-0.000286936
-2.21603e-05
-0.000279721
-2.60018e-05
-0.000271013
-3.13686e-05
-0.000260186
-3.90112e-05
-0.00024631
-5.01511e-05
-0.000227972
-6.6804e-05
-9.19255e-05
-0.000394516
3.93635e-06
-0.00039574
4.20316e-06
-0.000396995
4.35349e-06
-0.00039828
4.50747e-06
-0.000399594
4.66366e-06
-0.000400936
4.82118e-06
-0.000402303
4.98243e-06
-0.000403692
5.13929e-06
-0.000405107
5.2955e-06
-0.000406539
5.44169e-06
-0.000407988
5.5913e-06
-0.000409454
5.74354e-06
-0.000410935
5.88355e-06
-0.000412426
6.02082e-06
-0.000413924
6.15109e-06
-0.00041543
6.27417e-06
-0.000416934
6.38479e-06
-0.000418438
6.4806e-06
-0.000419941
6.5728e-06
-0.000421433
6.64888e-06
-0.000422913
6.71638e-06
-0.000424383
6.76547e-06
-0.000425835
6.79772e-06
-0.000427265
6.80827e-06
-0.00042867
6.80706e-06
-0.000430043
6.77865e-06
-0.000431386
6.73232e-06
-0.000432689
6.66175e-06
-0.000433951
6.57009e-06
-0.000435168
6.44632e-06
-0.000436326
6.28908e-06
-0.000437425
6.10292e-06
-0.000438462
5.89497e-06
-0.000439434
5.66646e-06
-0.000440343
5.4133e-06
-0.000441166
5.08882e-06
-0.000441889
4.71856e-06
-0.000442523
4.33031e-06
-0.000443069
3.95101e-06
-0.000443527
3.56175e-06
-0.000443885
3.12279e-06
-0.000444114
2.5642e-06
-0.000444219
1.98745e-06
-0.000444215
1.47883e-06
-0.000444118
1.03028e-06
-0.000443903
4.95044e-07
-0.000443539
-1.90126e-07
-0.000443039
-8.65178e-07
-0.000442436
-1.37282e-06
-0.000441736
-1.8095e-06
-0.000440901
-2.43446e-06
-0.00043991
-3.19114e-06
-0.0004388
-3.77139e-06
-0.0004376
-4.17006e-06
-0.000436278
-4.70152e-06
-0.000434805
-5.42334e-06
-0.000433204
-6.02783e-06
-0.00043151
-6.41249e-06
-0.000429694
-6.90956e-06
-0.000427723
-7.62181e-06
-0.00042562
-8.22022e-06
-0.00042341
-8.62432e-06
-0.000421062
-9.1675e-06
-0.000418555
-9.88136e-06
-0.000415909
-1.04403e-05
-0.000413132
-1.09229e-05
-0.000410183
-1.16131e-05
-0.00040706
-1.23448e-05
-0.000403776
-1.29397e-05
-0.000400294
-1.36837e-05
-0.00039659
-1.45904e-05
-0.000392658
-1.54314e-05
-0.000388446
-1.64665e-05
-0.000383899
-1.7783e-05
-0.000378967
-1.91961e-05
-0.000373557
-2.096e-05
-0.000367531
-2.32163e-05
-0.000360709
-2.61186e-05
-0.000352814
-3.00552e-05
-0.000343468
-3.53479e-05
-0.00033211
-4.27258e-05
-0.000317934
-5.31882e-05
-0.000299744
-6.83412e-05
-0.000275777
-9.07708e-05
-0.000124216
-0.000485725
5.39538e-06
-0.000487236
5.71431e-06
-0.000488773
5.8905e-06
-0.000490335
6.06896e-06
-0.00049192
6.24932e-06
-0.000493529
6.43022e-06
-0.00049516
6.61342e-06
-0.000496807
6.7855e-06
-0.000498462
6.95142e-06
-0.000500132
7.11135e-06
-0.000501815
7.27384e-06
-0.000503502
7.43047e-06
-0.000505194
7.57653e-06
-0.000506884
7.71005e-06
-0.000508577
7.84484e-06
-0.000510263
7.95944e-06
-0.000511946
8.06781e-06
-0.000513615
8.14954e-06
-0.000515265
8.22317e-06
-0.000516903
8.28717e-06
-0.000518524
8.33732e-06
-0.000520116
8.35756e-06
-0.000521684
8.36585e-06
-0.000523222
8.3456e-06
-0.000524721
8.30651e-06
-0.000526184
8.24207e-06
-0.000527605
8.15264e-06
-0.000528978
8.03489e-06
-0.000530301
7.89335e-06
-0.000531564
7.70951e-06