/*--------------------------------*- C++ -*----------------------------------*\
| =========                 |                                                 |
| \\      /  F ield         | OpenFOAM: The Open Source CFD Toolbox           |
|  \\    /   O peration     | Version:  2412                                  |
|   \\  /    A nd           | Website:  www.openfoam.com                      |
|    \\/     M anipulation  |                                                 |
\*---------------------------------------------------------------------------*/
FoamFile
{
    version     2.0;
    format      ascii;
    arch        "LSB;label=32;scalar=64";
    class       volVectorField;
    location    "340";
    object      U;
}
// * * * * * * * * * * * * * * * * * * * * * * * * * * * * * * * * * * * * * //

dimensions      [0 1 -1 0 0 0 0];

internalField   nonuniform List<vector> 
8637
(
(0.398678 -0.0248859 1.56866e-26)
(0.398804 -0.0252547 3.18909e-20)
(0.398921 -0.02563 -2.33061e-28)
(0.399032 -0.0260126 1.47512e-20)
(0.399255 -0.0264103 0)
(0.399487 -0.0268169 3.50025e-28)
(0.399733 -0.0272328 2.64127e-20)
(0.400001 -0.0276589 1.20675e-26)
(0.400279 -0.0280947 1.40181e-28)
(0.400581 -0.0285416 2.38645e-20)
(0.400916 -0.0290013 2.31209e-20)
(0.401278 -0.0294735 -1.18058e-26)
(0.401661 -0.0299579 1.0459e-26)
(0.402058 -0.0304548 -1.06965e-26)
(0.402497 -0.0309674 1.15958e-28)
(0.402974 -0.031496 2.0107e-20)
(0.40348 -0.0320403 9.31817e-27)
(0.404019 -0.0326017 -9.19768e-27)
(0.404598 -0.0331818 1.88012e-20)
(0.405221 -0.033782 -1.84428e-20)
(0.405887 -0.0344029 -8.66768e-27)
(0.406596 -0.0350456 -3.56741e-20)
(0.407344 -0.035711 3.51773e-20)
(0.408139 -0.0364014 -8.29483e-27)
(0.408989 -0.0371186 -8.20447e-27)
(0.409887 -0.0378637 8.13158e-27)
(0.410834 -0.0386377 6.78299e-20)
(0.411828 -0.039442 -3.3783e-20)
(0.41287 -0.0402789 -3.37279e-20)
(0.413961 -0.04115 8.01666e-27)
(0.415099 -0.0420563 -8.11964e-27)
(0.416279 -0.0429995 3.40516e-20)
(0.417508 -0.0439824 0)
(0.418776 -0.0450057 -3.4697e-20)
(0.420078 -0.0460715 5.11101e-27)
(0.421413 -0.0471812 3.57305e-20)
(0.422767 -0.0483348 -8.58508e-27)
(0.424145 -0.049536 2.37267e-27)
(0.425537 -0.0507857 -4.12688e-27)
(0.426931 -0.0520846 0)
(0.428328 -0.0534345 0)
(0.42971 -0.0548362 0)
(0.431068 -0.0562905 0)
(0.432398 -0.0577987 -4.47641e-20)
(0.433691 -0.0593629 9.31838e-20)
(0.434929 -0.0609815 -2.2715e-26)
(0.436098 -0.0626558 0)
(0.437207 -0.0643883 1.0662e-19)
(0.438236 -0.0661783 1.12032e-19)
(0.439168 -0.0680254 1.17964e-19)
(0.439995 -0.0699307 2.48929e-19)
(0.440708 -0.0718936 -1.31585e-19)
(0.441324 -0.0739203 -6.653e-26)
(0.441841 -0.0760107 7.05938e-26)
(0.442204 -0.0781587 -8.20885e-26)
(0.442415 -0.0803655 -2.23147e-27)
(0.442506 -0.0826389 -1.7837e-19)
(0.442501 -0.0849864 -4.67597e-26)
(0.442343 -0.0873991 9.50719e-26)
(0.442002 -0.0898736 2.17896e-19)
(0.441528 -0.092421 0)
(0.440967 -0.095056 -6.15858e-26)
(0.440238 -0.097764 2.69066e-19)
(0.439311 -0.100543 2.89276e-19)
(0.438243 -0.103408 3.1133e-19)
(0.437091 -0.106379 3.35375e-19)
(0.435735 -0.109432 3.61613e-19)
(0.434164 -0.112573 -2.16281e-25)
(0.432478 -0.11583 -4.2158e-19)
(0.43064 -0.119207 -4.35249e-25)
(0.428545 -0.122684 2.28207e-25)
(0.426242 -0.126286 -5.3431e-19)
(0.423788 -0.130042 -1.15859e-18)
(0.421039 -0.133929 -6.28659e-19)
(0.417988 -0.137958 -6.52183e-25)
(0.414718 -0.142182 3.43433e-25)
(0.411053 -0.146569 -5.9467e-26)
(0.406939 -0.151121 4.34076e-25)
(0.402419 -0.1559 -4.44362e-25)
(0.397275 -0.160862 2.09996e-18)
(0.391475 -0.166035 5.66115e-25)
(0.384773 -0.171383 -1.25747e-18)
(0.376886 -0.176832 0)
(0.367532 -0.182323 -8.66618e-25)
(0.356078 -0.18759 -5.16367e-26)
(0.341827 -0.192304 9.13973e-19)
(0.32349 -0.195677 -1.00494e-18)
(0.299152 -0.196282 1.10385e-18)
(1.24203 -0.0775291 -2.60617e-26)
(1.24248 -0.0786815 -2.64923e-20)
(1.2429 -0.0798544 2.54715e-20)
(1.2433 -0.0810504 -4.47309e-26)
(1.24405 -0.0822932 2.27102e-26)
(1.24483 -0.0835641 -2.27435e-20)
(1.24567 -0.0848649 -2.11077e-26)
(1.24657 -0.0861973 0)
(1.24752 -0.0875611 -4.09782e-20)
(1.24855 -0.0889605 -3.96576e-20)
(1.24967 -0.0903989 -1.8193e-26)
(1.25088 -0.0918764 7.45459e-20)
(1.25216 -0.0933926 1.73816e-26)
(1.25351 -0.0949503 3.52078e-20)
(1.25498 -0.0965562 0)
(1.25655 -0.0982116 -6.68414e-20)
(1.25824 -0.0999173 0)
(1.26004 -0.101678 3.19125e-20)
(1.26197 -0.103497 3.12548e-20)
(1.26403 -0.105379 0)
(1.26623 -0.107326 3.01279e-20)
(1.26856 -0.109342 5.93122e-20)
(1.27104 -0.11143 -5.84894e-20)
(1.27366 -0.113597 1.37922e-26)
(1.27644 -0.115847 0)
(1.27938 -0.118184 5.67391e-20)
(1.28246 -0.120613 1.43033e-26)
(1.2857 -0.123137 5.61852e-20)
(1.2891 -0.125763 0)
(1.29264 -0.128497 0)
(1.29632 -0.13134 0)
(1.30014 -0.1343 2.71934e-26)
(1.30409 -0.137381 5.71071e-20)
(1.30816 -0.140589 0)
(1.31234 -0.143931 5.84965e-20)
(1.31661 -0.147408 -5.9445e-20)
(1.32094 -0.151024 2.85665e-26)
(1.32533 -0.154786 1.9337e-26)
(1.32974 -0.158699 1.26796e-19)
(1.33415 -0.162765 6.51263e-20)
(1.33855 -0.166987 6.70784e-20)
(1.34289 -0.171371 -3.24979e-26)
(1.34715 -0.175918 7.1743e-20)
(1.35131 -0.180631 7.44854e-20)
(1.35532 -0.185515 0)
(1.35914 -0.190568 -3.94196e-26)
(1.36274 -0.195791 3.9496e-26)
(1.36612 -0.201192 -1.77404e-19)
(1.36925 -0.206772 0)
(1.37206 -0.212528 -3.9255e-19)
(1.37451 -0.218459 -2.07086e-19)
(1.37659 -0.224568 4.37854e-19)
(1.37836 -0.23087 5.68042e-26)
(1.3798 -0.237371 -5.7139e-26)
(1.38076 -0.244048 2.6148e-19)
(1.38121 -0.2509 1.32866e-25)
(1.38129 -0.257959 2.96718e-19)
(1.38106 -0.265247 3.1677e-19)
(1.38034 -0.272731 -3.38616e-19)
(1.37903 -0.280401 3.62427e-19)
(1.37729 -0.288295 0)
(1.37528 -0.296459 -4.16663e-19)
(1.37274 -0.304846 -1.28431e-26)
(1.36957 -0.313445 2.22721e-25)
(1.36594 -0.322308 -5.17721e-19)
(1.36204 -0.331491 0)
(1.35751 -0.340928 -6.01276e-19)
(1.35229 -0.350628 -6.48903e-19)
(1.34669 -0.36068 7.00918e-19)
(1.34063 -0.371104 0)
(1.33374 -0.381821 0)
(1.32619 -0.392918 1.77641e-18)
(1.31817 -0.404488 9.62939e-19)
(1.30921 -0.416443 1.04494e-18)
(1.2993 -0.428839 -1.13511e-18)
(1.28868 -0.441804 0)
(1.2768 -0.455259 -1.34351e-18)
(1.26351 -0.469215 0)
(1.24893 -0.483841 1.59723e-18)
(1.23239 -0.499002 1.05144e-26)
(1.21377 -0.514782 -9.40568e-25)
(1.19231 -0.531057 2.0891e-18)
(1.16714 -0.547606 2.25877e-24)
(1.13737 -0.5642 -2.51373e-18)
(1.10104 -0.580038 0)
(1.056 -0.59405 -1.51802e-18)
(0.998276 -0.603806 1.66898e-18)
(0.922023 -0.604909 -3.60186e-24)
(2.18269 -0.136247 0)
(2.18364 -0.138282 0)
(2.18453 -0.140353 0)
(2.18539 -0.142465 -2.7733e-20)
(2.18686 -0.14466 -2.67031e-20)
(2.18841 -0.146906 -2.5736e-20)
(2.19006 -0.149205 4.96621e-20)
(2.19183 -0.15156 4.7963e-20)
(2.1937 -0.153972 4.63703e-20)
(2.19573 -0.156449 4.4876e-20)
(2.19791 -0.158994 2.08897e-26)
(2.20025 -0.161608 1.16621e-26)
(2.20273 -0.164292 3.88233e-26)
(2.20537 -0.167053 -3.98404e-20)
(2.20822 -0.169899 -3.87881e-20)
(2.21126 -0.172833 3.7818e-20)
(2.21451 -0.175856 -3.69273e-20)
(2.21798 -0.178979 -3.61109e-20)
(2.22168 -0.182207 -3.53666e-20)
(2.22562 -0.185546 -3.32073e-26)
(2.22981 -0.189001 -3.40911e-20)
(2.23426 -0.19258 0)
(2.23895 -0.196288 0)
(2.24391 -0.200135 -3.11676e-26)
(2.24916 -0.204131 -1.0793e-30)
(2.25468 -0.208282 -1.284e-19)
(2.26046 -0.212594 -6.38176e-20)
(2.26652 -0.217076 0)
(2.27285 -0.22174 0)
(2.27943 -0.226593 3.04355e-26)
(2.28626 -0.23164 -3.02408e-26)
(2.29332 -0.236893 -3.07668e-26)
(2.30058 -0.242359 -1.29221e-19)
(2.30804 -0.24805 0)
(2.31569 -0.253975 3.18745e-26)
(2.32345 -0.260138 -3.17512e-26)
(2.33132 -0.266545 6.8526e-20)
(2.33926 -0.273207 -7.00084e-20)
(2.34721 -0.280133 -7.17207e-20)
(2.35513 -0.287326 -7.36742e-20)
(2.36298 -0.29479 -7.58811e-20)
(2.37071 -0.302537 7.83683e-20)
(2.37825 -0.310567 -8.11548e-20)
(2.38557 -0.318885 -3.94427e-26)
(2.39259 -0.327498 -1.75386e-19)
(2.39924 -0.336404 8.73398e-26)
(2.40544 -0.345602 -4.46736e-26)
(2.41121 -0.355108 2.00656e-19)
(2.41651 -0.364924 0)
(2.42123 -0.375043 2.2199e-19)
(2.42525 -0.385459 -1.14603e-25)
(2.42857 -0.396182 -2.47599e-19)
(2.4313 -0.407235 0)
(2.43345 -0.418635 0)
(2.43472 -0.430334 -2.95705e-19)
(2.43505 -0.442331 1.5445e-25)
(2.43469 -0.454685 -3.20355e-25)
(2.43379 -0.467432 -7.16409e-19)
(2.43198 -0.480517 0)
(2.42911 -0.493916 -4.09815e-19)
(2.42547 -0.507699 -4.39147e-19)
(2.42135 -0.52195 9.42232e-19)
(2.41627 -0.536582 -5.05947e-19)
(2.41004 -0.55157 5.4391e-19)
(2.40301 -0.567013 0)
(2.39549 -0.583004 6.30486e-19)
(2.38682 -0.599431 0)
(2.37695 -0.616304 0)
(2.36638 -0.633778 7.92355e-19)
(2.35498 -0.651888 0)
(2.34212 -0.670492 0)
(2.32808 -0.689746 -2.00794e-18)
(2.31318 -0.709807 -1.0884e-18)
(2.2966 -0.730515 1.18104e-18)
(2.27836 -0.751977 2.56582e-18)
(2.25884 -0.7744 8.39275e-26)
(2.23706 -0.797642 -1.40417e-24)
(2.21279 -0.821731 1.65448e-18)
(2.18623 -0.846943 -1.80491e-18)
(2.15618 -0.873033 -1.97138e-18)
(2.12243 -0.900148 0)
(2.08366 -0.928049 0)
(2.03833 -0.956334 0)
(1.98487 -0.984581 -2.84e-18)
(1.91986 -1.01137 0)
(1.83954 -1.03477 0)
(1.73697 -1.05052 0)
(1.60205 -1.05093 -2.07076e-18)
(3.22283 -0.201176 0)
(3.22457 -0.204201 0)
(3.22622 -0.207281 0)
(3.22787 -0.210425 0)
(3.23042 -0.213693 6.03594e-20)
(3.23309 -0.217036 5.81732e-20)
(3.23594 -0.220461 -5.61277e-20)
(3.23897 -0.223969 1.32349e-25)
(3.2422 -0.227566 -5.24071e-20)
(3.24566 -0.23126 0)
(3.24939 -0.235058 0)
(3.25335 -0.238961 -9.53347e-20)
(3.25755 -0.24297 4.38764e-26)
(3.26203 -0.247095 -7.13681e-26)
(3.26684 -0.25135 4.38355e-20)
(3.27196 -0.255739 -4.09915e-26)
(3.27739 -0.260264 4.17315e-20)
(3.28318 -0.264938 3.87574e-26)
(3.28934 -0.269772 -3.82751e-26)
(3.29587 -0.274774 0)
(3.30279 -0.279951 0)
(3.31009 -0.285314 -7.58378e-20)
(3.31779 -0.290872 0)
(3.3259 -0.296642 7.38833e-20)
(3.33444 -0.302633 0)
(3.34337 -0.308856 7.25383e-20)
(3.3527 -0.315321 7.21049e-20)
(3.36243 -0.32204 -6.85276e-26)
(3.37256 -0.329032 3.40935e-26)
(3.38305 -0.336304 -3.43846e-26)
(3.39387 -0.343867 3.41636e-26)
(3.40502 -0.351733 0)
(3.41644 -0.359917 -7.99498e-26)
(3.42813 -0.368433 3.54892e-26)
(3.44003 -0.377293 -3.53327e-26)
(3.45206 -0.386504 0)
(3.46419 -0.396074 -7.73995e-20)
(3.47637 -0.406018 0)
(3.48851 -0.41635 0)
(3.50053 -0.42707 0)
(3.51237 -0.438185 -8.56957e-20)
(3.52395 -0.449712 -1.77003e-19)
(3.53517 -0.461649 9.1646e-20)
(3.54598 -0.474004 0)
(3.55627 -0.486787 3.96093e-19)
(3.56589 -0.499987 1.00695e-25)
(3.57477 -0.51361 -1.00885e-25)
(3.58293 -0.527674 -2.26562e-19)
(3.59032 -0.542187 -1.16306e-25)
(3.59677 -0.557135 1.16719e-25)
(3.60208 -0.572503 2.64433e-19)
(3.60627 -0.588306 2.79542e-19)
(3.60956 -0.604592 0)
(3.61192 -0.621372 0)
(3.61289 -0.638576 3.33838e-19)
(3.61239 -0.6562 1.74365e-25)
(3.61085 -0.674337 1.02583e-26)
(3.60848 -0.693042 -5.90374e-25)
(3.60472 -0.712227 4.32251e-19)
(3.59931 -0.731854 2.14366e-25)
(3.59274 -0.752031 4.95736e-19)
(3.58545 -0.772886 -5.31819e-19)
(3.5767 -0.794278 5.71132e-19)
(3.56621 -0.816173 -6.13981e-19)
(3.55451 -0.838718 -6.60735e-19)
(3.54208 -0.862053 -7.11701e-19)
(3.5279 -0.886001 7.1021e-25)
(3.51193 -0.910582 -8.14973e-25)
(3.49491 -0.936021 1.55355e-24)
(3.47662 -0.962364 0)
(3.45616 -0.989411 -1.0463e-18)
(3.43394 -1.01738 2.26647e-18)
(3.41041 -1.04649 1.22853e-18)
(3.38438 -1.07651 -2.66618e-18)
(3.35587 -1.1076 -1.44806e-18)
(3.32546 -1.14006 0)
(3.29165 -1.17365 1.71377e-18)
(3.25417 -1.20843 -1.86744e-18)
(3.21324 -1.24478 0)
(3.16712 -1.28234 -2.19349e-24)
(3.1155 -1.32129 -1.49931e-25)
(3.05639 -1.36127 2.66434e-18)
(2.98755 -1.40165 -2.88065e-24)
(2.90663 -1.44177 6.41154e-18)
(2.80861 -1.47948 0)
(2.68792 -1.51191 0)
(2.53443 -1.53271 -4.19168e-24)
(2.33343 -1.53053 2.338e-18)
(4.36368 -0.272392 -7.65378e-26)
(4.36667 -0.276528 3.81868e-20)
(4.36957 -0.280742 3.67152e-20)
(4.37253 -0.285048 0)
(4.37669 -0.289522 -3.40152e-20)
(4.38105 -0.294101 -3.27823e-20)
(4.38569 -0.298794 -1.20686e-25)
(4.39062 -0.303607 -6.10928e-20)
(4.39587 -0.308544 -5.90626e-20)
(4.40147 -0.313617 -5.71571e-20)
(4.40745 -0.318834 5.24397e-26)
(4.41381 -0.3242 1.07431e-19)
(4.42053 -0.329716 -4.9442e-26)
(4.42768 -0.335396 -1.34773e-26)
(4.4353 -0.341257 -4.68413e-26)
(4.4434 -0.347304 4.61848e-26)
(4.45197 -0.353543 -4.70163e-20)
(4.46104 -0.359991 -4.36634e-26)
(4.47066 -0.366661 3.33967e-28)
(4.48082 -0.373567 4.22705e-26)
(4.49153 -0.380717 -4.3392e-20)
(4.50278 -0.388123 -1.33255e-25)
(4.51459 -0.395803 -4.01183e-26)
(4.52698 -0.403774 -8.32034e-20)
(4.53995 -0.412051 -7.8569e-26)
(4.55346 -0.420649 -8.16771e-20)
(4.5675 -0.42958 -8.11828e-20)
(4.58207 -0.438859 -7.69583e-26)
(4.59716 -0.448512 0)
(4.61269 -0.458549 -8.07798e-20)
(4.62865 -0.468981 7.77243e-26)
(4.64498 -0.479827 -7.72574e-26)
(4.66164 -0.491103 8.21364e-20)
(4.67857 -0.50283 7.85506e-26)
(4.69571 -0.515021 -8.41131e-20)
(4.71294 -0.527684 -1.71619e-27)
(4.7302 -0.540829 8.70751e-20)
(4.74742 -0.554476 -8.59659e-26)
(4.76447 -0.568641 8.57569e-26)
(4.78121 -0.583322 9.35871e-20)
(4.79757 -0.598527 9.63809e-20)
(4.81343 -0.614277 9.95306e-20)
(4.82867 -0.63057 2.40359e-25)
(4.8432 -0.647416 -1.04072e-25)
(4.85688 -0.664821 -2.22694e-19)
(4.86946 -0.682772 1.08559e-25)
(4.88088 -0.701272 2.42991e-19)
(4.89117 -0.720351 -2.54734e-19)
(4.90034 -0.740021 1.30764e-25)
(4.90807 -0.760257 -2.69011e-25)
(4.91406 -0.781029 -2.973e-19)
(4.9184 -0.802364 -3.14285e-19)
(4.92145 -0.824333 -3.32869e-19)
(4.92319 -0.846956 -3.53175e-19)
(4.92286 -0.870114 3.7534e-19)
(4.92043 -0.893808 -3.92091e-25)
(4.91652 -0.918175 3.95099e-25)
(4.91147 -0.943294 9.09367e-19)
(4.90443 -0.969026 -4.86037e-19)
(4.89506 -0.995319 -5.20217e-19)
(4.88408 -1.02233 0)
(4.87213 -1.05024 5.88079e-25)
(4.85811 -1.07884 -5.94837e-25)
(4.84168 -1.10807 0)
(4.82358 -1.13816 7.43157e-19)
(4.80447 -1.16928 -8.00525e-19)
(4.78294 -1.20119 -7.989e-25)
(4.75895 -1.2339 9.31525e-19)
(4.7335 -1.26774 -1.00622e-18)
(4.70631 -1.30275 1.00668e-24)
(4.67614 -1.33865 1.17728e-18)
(4.64357 -1.37574 -1.27519e-18)
(4.6092 -1.41432 -1.38254e-18)
(4.57141 -1.45407 1.50034e-18)
(4.53025 -1.49519 -1.62987e-18)
(4.48645 -1.53806 -1.63924e-24)
(4.43803 -1.58238 -1.9293e-18)
(4.38463 -1.62821 -2.10253e-18)
(4.32648 -1.67602 2.26088e-24)
(4.2613 -1.72534 -2.50586e-18)
(4.18859 -1.77636 5.40443e-24)
(4.10567 -1.82855 3.89133e-25)
(4.00952 -1.88106 -3.29082e-18)
(3.8969 -1.93289 -3.61251e-18)
(3.76105 -1.9811 -7.33614e-24)
(3.59439 -2.02166 8.60524e-24)
(3.38334 -2.0459 -1.83315e-23)
(3.10819 -2.03842 -6.00839e-25)
(5.60459 -0.349858 -8.58179e-26)
(5.60951 -0.355238 -4.28148e-20)
(5.6144 -0.360726 6.80427e-26)
(5.61945 -0.36634 7.48764e-26)
(5.62601 -0.37217 -1.45495e-25)
(5.63288 -0.378142 -3.67463e-20)
(5.64018 -0.384267 -6.70687e-26)
(5.64793 -0.390554 -6.84689e-20)
(5.65614 -0.397008 6.61874e-20)
(5.66486 -0.403643 6.4046e-20)
(5.67414 -0.410473 -1.17508e-25)
(5.68397 -0.417503 -1.20354e-19)
(5.69435 -0.424734 0)
(5.70533 -0.432185 1.13648e-19)
(5.71698 -0.439878 0)
(5.72929 -0.44782 0)
(5.74228 -0.456019 5.26375e-20)
(5.75598 -0.464496 -9.86208e-26)
(5.77041 -0.473269 0)
(5.78558 -0.482354 -4.94196e-20)
(5.80149 -0.491762 4.85483e-20)
(5.81811 -0.50151 9.55504e-20)
(5.83549 -0.511619 8.99937e-26)
(5.85361 -0.522109 0)
(5.87246 -0.533002 9.20712e-20)
(5.892 -0.544315 9.1298e-20)
(5.9122 -0.556062 0)
(5.93303 -0.568263 0)
(5.95446 -0.580946 8.63332e-26)
(5.9764 -0.594128 9.02226e-20)
(5.9988 -0.607819 -9.04844e-20)
(6.02159 -0.622043 8.62542e-26)
(6.04468 -0.636819 9.16839e-20)
(6.068 -0.65217 -9.26404e-20)
(6.09142 -0.668112 9.38542e-20)
(6.1148 -0.684655 -9.5347e-20)
(6.13805 -0.701808 -1.94251e-19)
(6.16106 -0.719594 9.92004e-20)
(6.18366 -0.738034 -9.83021e-26)
(6.20564 -0.757118 -1.04342e-19)
(6.2269 -0.776855 3.2737e-27)
(6.24727 -0.79727 1.10944e-19)
(6.26663 -0.818362 6.0184e-25)
(6.28489 -0.840143 -1.11638e-25)
(6.30179 -0.862613 0)
(6.317 -0.885747 0)
(6.33047 -0.909553 -5.41545e-19)
(6.3423 -0.934073 2.83855e-19)
(6.35252 -0.959328 0)
(6.36069 -0.985271 0)
(6.36633 -1.01185 0)
(6.36966 -1.03912 0)
(6.37125 -1.06717 3.71007e-19)
(6.37104 -1.09604 3.93674e-19)
(6.36799 -1.12554 -4.18426e-19)
(6.36203 -1.15568 -4.13401e-25)
(6.35412 -1.18665 0)
(6.34472 -1.21856 -1.01418e-18)
(6.33263 -1.25121 5.32667e-25)
(6.3174 -1.28452 -2.63219e-24)
(6.30008 -1.31872 6.11522e-25)
(6.2815 -1.35404 6.67478e-19)
(6.26017 -1.39018 -6.64004e-25)
(6.23565 -1.42709 0)
(6.20898 -1.46505 0)
(6.18098 -1.50428 8.94195e-19)
(6.1498 -1.54444 9.49025e-25)
(6.11543 -1.5856 -2.08205e-18)
(6.07917 -1.62812 -1.12478e-18)
(6.04061 -1.67207 0)
(5.9982 -1.71709 -1.3167e-18)
(5.9527 -1.76357 0)
(5.90485 -1.81187 1.54713e-18)
(5.85258 -1.86155 0)
(5.79599 -1.91291 -5.83209e-24)
(5.73593 -1.96638 -1.98512e-18)
(5.66993 -2.02158 0)
(5.59757 -2.07858 4.71321e-18)
(5.519 -2.13794 -3.13721e-25)
(5.43141 -2.19905 2.81079e-18)
(5.33405 -2.26208 6.06458e-24)
(5.2235 -2.32633 -3.36942e-18)
(5.0959 -2.39064 7.39242e-18)
(4.94696 -2.45361 4.05967e-18)
(4.76811 -2.51141 -8.24881e-24)
(4.54949 -2.55864 0)
(4.27377 -2.58405 -2.70242e-18)
(3.91597 -2.56774 0)
(6.94146 -0.433317 0)
(6.94926 -0.440088 0)
(6.95713 -0.447004 -4.57218e-20)
(6.96531 -0.454087 3.01218e-27)
(6.97533 -0.461439 -4.23377e-20)
(6.98584 -0.468977 3.10354e-26)
(6.99697 -0.476715 1.48878e-25)
(7.00873 -0.484664 7.59752e-20)
(7.02116 -0.492831 1.4119e-25)
(7.03432 -0.501233 7.1033e-20)
(7.04824 -0.509889 0)
(7.06293 -0.518803 6.67051e-20)
(7.07839 -0.52798 0)
(7.09469 -0.537443 -6.29494e-20)
(7.1119 -0.547219 -1.17558e-25)
(7.12998 -0.557316 -1.13273e-25)
(7.14897 -0.567745 -5.82525e-20)
(7.1689 -0.578531 0)
(7.18977 -0.589696 0)
(7.21159 -0.601258 5.46281e-20)
(7.23434 -0.613233 0)
(7.258 -0.625642 -1.05534e-19)
(7.28257 -0.638506 0)
(7.30804 -0.651854 1.02672e-19)
(7.33438 -0.665708 -2.03115e-19)
(7.36151 -0.680089 1.57171e-28)
(7.38938 -0.695013 -9.52353e-26)
(7.41794 -0.710505 -9.9525e-20)
(7.44712 -0.726597 0)
(7.47681 -0.743306 -9.92958e-20)
(7.50691 -0.760645 9.95392e-20)
(7.53731 -0.778638 -1.9089e-25)
(7.56789 -0.797311 -1.00773e-19)
(7.59853 -0.816686 1.01784e-19)
(7.62906 -0.836781 9.74395e-26)
(7.6593 -0.857605 2.09361e-19)
(7.6891 -0.879168 -3.42504e-25)
(7.71833 -0.901496 5.70827e-25)
(7.74677 -0.924612 0)
(7.77413 -0.948497 0)
(7.80025 -0.973159 1.17801e-19)
(7.82494 -0.998625 -1.21616e-19)
(7.84809 -1.0249 -1.25902e-19)
(7.8696 -1.05199 1.30679e-19)
(7.88911 -1.0799 -2.54391e-25)
(7.90613 -1.10858 -2.83736e-19)
(7.92067 -1.13804 2.96749e-19)
(7.93296 -1.16835 2.90214e-25)
(7.94306 -1.19953 3.19453e-25)
(7.95036 -1.23152 -3.44271e-19)
(7.95417 -1.26422 3.63311e-19)
(7.95489 -1.29773 3.57327e-25)
(7.95336 -1.33218 3.98867e-25)
(7.94951 -1.36759 -8.24958e-25)
(7.94188 -1.40372 -4.59376e-19)
(7.93045 -1.44058 -4.80128e-25)
(7.91656 -1.47843 -5.21829e-19)
(7.9008 -1.51741 -4.19679e-24)
(7.88154 -1.55723 5.52675e-25)
(7.85827 -1.59781 -4.06349e-24)
(7.83239 -1.63945 0)
(7.80494 -1.68242 5.25717e-24)
(7.77397 -1.72633 -7.31689e-25)
(7.73898 -1.77112 -8.50063e-19)
(7.70133 -1.81715 1.80153e-24)
(7.66197 -1.86469 -1.82737e-24)
(7.61862 -1.9133 0)
(7.57131 -1.96305 1.15052e-18)
(7.52164 -2.01441 1.24387e-18)
(7.46905 -2.06744 2.65017e-24)
(7.41171 -2.1217 -1.07291e-23)
(7.35054 -2.17767 -3.11296e-24)
(7.28636 -2.23574 3.17425e-24)
(7.21674 -2.29541 0)
(7.14182 -2.35704 -7.06715e-24)
(7.06248 -2.42109 -1.61438e-23)
(6.97582 -2.48713 4.73728e-24)
(6.88133 -2.55523 -2.62302e-18)
(6.77905 -2.62598 -2.86528e-18)
(6.66562 -2.69867 6.1786e-24)
(6.53997 -2.77339 -6.34489e-24)
(6.39788 -2.84924 3.76375e-18)
(6.23463 -2.92472 -8.26596e-18)
(6.04467 -2.99789 3.8489e-23)
(5.81752 -3.06392 -9.24393e-24)
(5.54078 -3.11584 -2.75516e-18)
(5.19311 -3.13948 6.07139e-18)
(4.74386 -3.10996 -2.47394e-23)
(8.36438 -0.522157 2.05063e-25)
(8.37623 -0.530471 -2.00561e-25)
(8.38831 -0.538972 0)
(8.40089 -0.547691 4.81222e-20)
(8.41565 -0.556737 -4.01601e-25)
(8.43113 -0.566019 4.45935e-20)
(8.44746 -0.575557 3.28088e-25)
(8.46466 -0.585361 -3.16602e-25)
(8.48276 -0.595442 -8.01474e-20)
(8.50185 -0.605821 -7.74915e-20)
(8.52195 -0.61652 2.0891e-27)
(8.54308 -0.627546 1.39635e-25)
(8.56521 -0.638903 -1.33661e-25)
(8.58843 -0.650619 6.85021e-20)
(8.61281 -0.662727 1.26344e-25)
(8.6383 -0.675236 -1.24424e-25)
(8.66491 -0.688158 6.32523e-20)
(8.69268 -0.701524 0)
(8.7216 -0.715359 6.04115e-20)
(8.75164 -0.729684 0)
(8.78279 -0.744516 5.80608e-20)
(8.81497 -0.759879 1.14126e-19)
(8.84817 -0.775798 -2.14093e-25)
(8.88238 -0.792307 -1.10838e-19)
(8.91751 -0.809429 1.09539e-19)
(8.95346 -0.827188 2.07155e-25)
(8.99013 -0.845601 -1.07655e-19)
(9.02744 -0.864694 1.07064e-19)
(9.0653 -0.884506 -1.06722e-19)
(9.10353 -0.905054 -1.26556e-24)
(9.142 -0.92635 0)
(9.18057 -0.948423 -2.05959e-25)
(9.21906 -0.971298 1.0797e-19)
(9.25731 -0.994998 -1.08974e-19)
(9.29508 -1.01954 -1.10287e-19)
(9.33215 -1.04494 -1.11931e-19)
(9.36835 -1.0712 1.13917e-19)
(9.40351 -1.09835 -2.32514e-19)
(9.43735 -1.12641 -2.30245e-25)
(9.4695 -1.15537 4.66209e-25)
(9.49974 -1.18521 -1.25693e-19)
(9.52787 -1.21597 -1.29742e-19)
(9.55383 -1.24767 0)
(9.57751 -1.28032 -2.78771e-19)
(9.59841 -1.3139 2.90107e-19)
(9.6159 -1.34833 3.02701e-19)
(9.63007 -1.38366 3.16667e-19)
(9.6413 -1.41996 3.32103e-19)
(9.64974 -1.45727 -3.41129e-25)
(9.65452 -1.4955 3.67794e-19)
(9.65475 -1.53451 -3.88354e-19)
(9.65108 -1.57443 0)
(9.64464 -1.61546 4.26935e-25)
(9.63532 -1.6576 -4.29913e-25)
(9.62121 -1.70053 9.84899e-19)
(9.60237 -1.74428 5.24913e-19)
(9.58058 -1.78918 1.12081e-18)
(9.55648 -1.83538 5.99156e-19)
(9.52805 -1.88253 0)
(9.49472 -1.93053 6.87782e-19)
(9.45826 -1.97975 -1.36813e-24)
(9.41986 -2.0305 -7.93523e-19)
(9.37715 -2.08232 0)
(9.32956 -2.13511 1.83941e-18)
(9.27878 -2.18933 -1.83631e-24)
(9.22586 -2.24526 -1.07047e-18)
(9.1681 -2.30239 0)
(9.10561 -2.36081 0)
(9.04022 -2.42107 0)
(8.97124 -2.48321 0)
(8.89657 -2.54672 1.59143e-18)
(8.81732 -2.61216 0)
(8.73431 -2.67997 0)
(8.64481 -2.74957 -2.04253e-18)
(8.54898 -2.82138 2.22437e-18)
(8.44768 -2.89587 2.42482e-18)
(8.33763 -2.97258 2.64654e-18)
(8.21822 -3.05156 0)
(8.08925 -3.1334 6.32788e-18)
(7.94692 -3.21729 3.46618e-18)
(7.78967 -3.30321 0)
(7.6125 -3.38999 -4.17704e-18)
(7.4097 -3.47576 4.59514e-18)
(7.17429 -3.55787 -5.06186e-18)
(6.8938 -3.63044 -5.58273e-18)
(6.55291 -3.68456 3.08103e-18)
(6.12603 -3.70284 -3.4013e-18)
(5.57653 -3.6549 -3.75049e-18)
(9.85538 -0.615258 -2.2433e-25)
(9.87253 -0.625255 5.58927e-20)
(9.89009 -0.63549 -5.36661e-20)
(9.90832 -0.645992 -1.0311e-19)
(9.92913 -0.656887 4.95658e-20)
(9.9509 -0.668075 -3.60852e-25)
(9.97378 -0.679579 3.53517e-25)
(9.99778 -0.69141 -8.85791e-20)
(10.0229 -0.703583 8.5476e-20)
(10.0493 -0.716122 0)
(10.077 -0.729051 7.98221e-20)
(10.1059 -0.742378 7.72649e-20)
(10.1361 -0.75611 -3.75627e-27)
(10.1675 -0.770277 -1.4529e-19)
(10.2003 -0.784914 -7.05515e-20)
(10.2344 -0.800036 -2.60398e-25)
(10.2698 -0.815653 -6.68181e-20)
(10.3065 -0.831801 2.49748e-25)
(10.3445 -0.848507 4.71127e-25)
(10.3837 -0.865794 2.38333e-25)
(10.424 -0.88368 -6.09895e-20)
(10.4654 -0.902191 -2.27931e-25)
(10.5078 -0.921355 2.24878e-25)
(10.5512 -0.941207 -2.21026e-25)
(10.5955 -0.961775 4.36562e-25)
(10.6404 -0.983081 -2.15679e-25)
(10.6859 -1.00515 -1.61357e-24)
(10.7319 -1.028 -1.11341e-19)
(10.7782 -1.05167 2.21666e-19)
(10.8246 -1.0762 1.106e-19)
(10.8709 -1.10158 -1.10644e-19)
(10.9169 -1.12784 0)
(10.9625 -1.15503 -1.11584e-19)
(11.0075 -1.18315 1.12506e-19)
(11.0514 -1.21222 1.13754e-19)
(11.0941 -1.24227 1.15355e-19)
(11.1355 -1.27329 2.21309e-25)
(11.1752 -1.30532 2.39299e-19)
(11.213 -1.33838 2.30394e-25)
(11.2484 -1.37244 1.25577e-19)
(11.2812 -1.40749 1.29218e-19)
(11.3111 -1.44358 2.66733e-19)
(11.3383 -1.48073 -2.58768e-25)
(11.3625 -1.51896 1.43307e-19)
(11.3831 -1.55822 -2.98356e-19)
(11.3994 -1.59843 -6.07123e-25)
(11.4116 -1.63963 -3.26033e-19)
(11.4202 -1.68195 -3.42179e-19)
(11.4254 -1.72543 0)
(11.4261 -1.76992 0)
(11.4213 -1.81528 0)
(11.4118 -1.86166 -8.32751e-25)
(11.3991 -1.90931 4.51385e-19)
(11.3829 -1.95823 -4.80099e-19)
(11.361 -2.00802 -5.11618e-19)
(11.3335 -2.05872 -5.46218e-19)
(11.3026 -2.11075 9.13046e-24)
(11.269 -2.16425 0)
(11.2302 -2.2188 0)
(11.1856 -2.27431 7.20687e-19)
(11.1375 -2.3312 7.75126e-19)
(11.087 -2.38982 -1.64138e-24)
(11.0313 -2.44961 3.43642e-24)
(10.97 -2.51049 -9.71185e-19)
(10.905 -2.57297 0)
(10.8372 -2.63736 2.27012e-18)
(10.7638 -2.70307 0)
(10.6849 -2.77022 0)
(10.6025 -2.83941 1.44517e-18)
(10.5158 -2.91065 0)
(10.4224 -2.98342 0)
(10.3237 -3.05834 0)
(10.2203 -3.13583 7.9646e-24)
(10.1094 -3.21529 -3.00387e-23)
(9.99103 -3.29719 2.40689e-18)
(9.86603 -3.38198 -9.7307e-24)
(9.7308 -3.46915 -2.87764e-18)
(9.58459 -3.55878 3.15242e-18)
(9.4269 -3.65139 -3.45776e-18)
(9.25347 -3.74608 -3.79801e-18)
(9.06217 -3.84262 4.17779e-18)
(8.84715 -3.93957 0)
(8.60165 -4.03459 0)
(8.31703 -4.12422 0)
(7.97866 -4.20128 6.20391e-18)
(7.56799 -4.25468 0)
(7.05492 -4.2634 0)
(6.3965 -4.19099 -3.69032e-23)
(11.3874 -0.710937 4.70013e-25)
(11.4109 -0.72272 -5.84822e-20)
(11.435 -0.734794 5.60812e-20)
(11.4599 -0.747187 -1.85737e-25)
(11.4877 -0.760039 -3.97651e-25)
(11.5167 -0.773243 0)
(11.5471 -0.786822 0)
(11.5788 -0.800792 -1.12236e-24)
(11.6118 -0.815166 0)
(11.6463 -0.829971 0)
(11.6822 -0.845236 -8.23987e-20)
(11.7196 -0.860967 -7.96173e-20)
(11.7583 -0.877171 -5.87763e-25)
(11.7984 -0.893881 7.4582e-20)
(11.8399 -0.911135 7.22939e-20)
(11.8828 -0.928948 2.66313e-25)
(11.9271 -0.94733 1.36401e-19)
(11.9726 -0.966318 -6.63783e-20)
(12.0193 -0.985944 -1.29392e-19)
(12.0673 -1.00623 2.40194e-25)
(12.1162 -1.02719 -6.17504e-20)
(12.1661 -1.04886 2.30303e-25)
(12.2169 -1.07127 -4.52881e-25)
(12.2684 -1.09444 2.22754e-25)
(12.3205 -1.11842 -2.19248e-25)
(12.3731 -1.14322 2.16218e-25)
(12.4259 -1.16887 1.12179e-19)
(12.4788 -1.19539 1.11212e-19)
(12.5317 -1.22283 -1.10518e-19)
(12.5843 -1.25121 0)
(12.6364 -1.28054 1.09983e-19)
(12.6878 -1.31085 -2.14167e-25)
(12.7383 -1.34217 1.10623e-19)
(12.7876 -1.37454 1.11408e-19)
(12.8354 -1.40796 1.12531e-19)
(12.8815 -1.44245 -1.14013e-19)
(12.9256 -1.47802 0)
(12.9676 -1.51472 3.80345e-24)
(13.0071 -1.55257 -4.54687e-25)
(13.0436 -1.59151 -1.23888e-19)
(13.0768 -1.63155 -1.27481e-19)
(13.1065 -1.67275 -2.63207e-19)
(13.1329 -1.71513 5.29719e-25)
(13.1559 -1.75872 -1.41542e-19)
(13.1746 -1.80347 2.94888e-19)
(13.1882 -1.84926 3.08131e-19)
(13.197 -1.89618 0)
(13.2018 -1.94436 -3.39341e-19)
(13.2028 -1.99385 3.57503e-19)
(13.1985 -2.04447 -7.38479e-25)
(13.188 -2.09607 7.44288e-25)
(13.1722 -2.14883 0)
(13.1528 -2.20304 -4.51493e-19)
(13.1295 -2.25868 4.81198e-19)
(13.0996 -2.31529 9.54389e-25)
(13.0635 -2.37294 -1.07956e-24)
(13.0236 -2.43211 -1.17922e-18)
(12.9805 -2.49292 1.17396e-24)
(12.9315 -2.55491 1.33749e-24)
(12.8761 -2.61798 -7.33072e-19)
(12.8167 -2.68262 -1.58126e-18)
(12.7543 -2.74916 -1.58147e-24)
(12.6861 -2.817 9.22945e-19)
(12.6115 -2.88607 9.99123e-19)
(12.5326 -2.95693 4.26139e-24)
(12.4504 -3.02985 1.74226e-23)
(12.3617 -3.10423 9.74548e-24)
(12.2667 -3.18023 -5.13532e-24)
(12.1676 -3.25844 3.24699e-23)
(12.0632 -3.33887 -6.4767e-24)
(11.9513 -3.42097 -1.79391e-18)
(11.8332 -3.50543 1.95863e-18)
(11.7095 -3.59262 -5.09951e-25)
(11.5771 -3.68197 2.34198e-18)
(11.4361 -3.77396 -2.56552e-18)
(11.2872 -3.86897 0)
(11.1264 -3.96652 0)
(10.9529 -4.06664 7.04823e-23)
(10.7658 -4.16978 0)
(10.5603 -4.27489 -1.62571e-23)
(10.3337 -4.38151 -4.55253e-18)
(10.0792 -4.48786 5.03465e-18)
(9.78888 -4.59104 -4.26099e-23)
(9.45212 -4.68657 -1.54021e-24)
(9.05205 -4.76582 -2.87964e-23)
(8.56642 -4.8151 -3.81568e-18)
(7.96044 -4.80935 0)
(7.18466 -4.70552 -1.11435e-22)
(13.0203 -0.848985 5.45387e-20)
(13.0554 -0.863825 5.22639e-20)
(13.092 -0.879069 5.01187e-20)
(13.13 -0.894744 7.34197e-25)
(13.1694 -0.910863 9.24103e-20)
(13.2103 -0.927443 3.36298e-25)
(13.2526 -0.944511 -3.28618e-25)
(13.2965 -0.962095 0)
(13.3417 -0.980204 0)
(13.3883 -0.998841 -7.65729e-20)
(13.4362 -1.01804 7.39718e-20)
(13.4855 -1.03784 7.15296e-20)
(13.536 -1.05826 6.92583e-20)
(13.5878 -1.07931 1.53378e-24)
(13.6406 -1.10102 -2.03311e-24)
(13.6944 -1.12342 -1.54092e-24)
(13.7492 -1.14655 3.12665e-27)
(13.8047 -1.17041 6.02188e-20)
(13.8609 -1.19504 0)
(13.9176 -1.22047 0)
(13.9747 -1.24673 1.13012e-19)
(14.032 -1.27386 1.57072e-29)
(14.0894 -1.30188 6.84098e-28)
(14.1467 -1.33081 1.34895e-27)
(14.2037 -1.36069 -4.06949e-25)
(14.2602 -1.39156 0)
(14.3159 -1.42344 0)
(14.3708 -1.45636 -1.05235e-19)
(14.4245 -1.49034 3.99228e-25)
(14.4769 -1.52542 3.93804e-24)
(14.5276 -1.56163 -1.06247e-19)
(14.5764 -1.59899 -1.07237e-19)
(14.6229 -1.63751 1.08596e-19)
(14.6672 -1.67722 -1.10323e-19)
(14.7089 -1.71816 -2.24863e-19)
(14.7477 -1.76037 -4.44927e-25)
(14.783 -1.80378 9.00577e-25)
(14.8145 -1.8484 -4.56177e-25)
(14.8422 -1.8943 1.25427e-19)
(14.8663 -1.94153 9.92581e-25)
(14.8866 -1.99011 1.35134e-19)
(14.9022 -2.03998 -5.63741e-19)
(14.9122 -2.09102 1.21533e-23)
(14.917 -2.14332 5.78105e-25)
(14.9176 -2.19706 6.51835e-19)
(14.914 -2.25228 -3.43994e-19)
(14.9048 -2.30876 3.64079e-19)
(14.8888 -2.36637 -3.70256e-26)
(14.8672 -2.42532 4.112e-19)
(14.8418 -2.48592 0)
(14.812 -2.5481 4.68555e-19)
(14.7752 -2.61141 0)
(14.7318 -2.67593 0)
(14.6842 -2.74217 5.79103e-19)
(14.633 -2.81023 6.23624e-19)
(14.5753 -2.87962 2.49433e-24)
(14.5108 -2.95027 7.26914e-19)
(14.4417 -3.02269 7.86621e-19)
(14.3692 -3.09718 -3.35216e-24)
(14.2902 -3.17312 -1.84931e-18)
(14.2042 -3.25048 -1.00461e-18)
(14.1134 -3.32982 -4.04717e-24)
(14.0185 -3.41137 -1.19005e-18)
(13.9164 -3.49455 0)
(13.8073 -3.57953 5.57603e-24)
(13.6933 -3.6669 -1.54775e-18)
(13.5731 -3.75664 -6.66684e-24)
(13.4445 -3.84823 1.85429e-18)
(13.3088 -3.94238 6.88329e-23)
(13.1663 -4.03941 -8.25883e-24)
(13.0139 -4.13877 0)
(12.8519 -4.24095 0)
(12.6802 -4.34623 0)
(12.495 -4.45419 0)
(12.2953 -4.56477 -3.62329e-18)
(12.0794 -4.67826 2.96485e-23)
(11.8424 -4.79352 -4.44116e-18)
(11.5805 -4.90972 -7.53161e-23)
(11.2859 -5.0247 -5.47745e-18)
(10.9495 -5.13482 -4.81086e-23)
(10.5584 -5.2344 -6.79667e-18)
(10.0933 -5.3131 7.5833e-18)
(9.5278 -5.35423 8.46341e-18)
(8.82228 -5.32828 0)
(7.92086 -5.18509 5.24492e-18)
(14.5531 -0.949018 -8.28716e-25)
(14.5952 -0.965788 -1.02896e-19)