/*--------------------------------*- C++ -*----------------------------------*\
| =========                 |                                                 |
| \\      /  F ield         | OpenFOAM: The Open Source CFD Toolbox           |
|  \\    /   O peration     | Version:  2412                                  |
|   \\  /    A nd           | Website:  www.openfoam.com                      |
|    \\/     M anipulation  |                                                 |
\*---------------------------------------------------------------------------*/
FoamFile
{
    version     2.0;
    format      ascii;
    arch        "LSB;label=32;scalar=64";
    class       surfaceScalarField;
    location    "20";
    object      phi;
}
// * * * * * * * * * * * * * * * * * * * * * * * * * * * * * * * * * * * * * //

dimensions      [0 3 -1 0 0 0 0];

oriented        oriented;

internalField   nonuniform List<scalar> 
14623
(
-8.46234e-06
1.53901e-08
-8.47844e-06
1.62488e-08
-8.49557e-06
1.70338e-08
-8.51353e-06
1.8054e-08
-8.53232e-06
1.86569e-08
-8.55082e-06
1.8645e-08
-8.56866e-06
1.77788e-08
-8.58716e-06
1.84693e-08
-8.60916e-06
2.17941e-08
-8.63461e-06
2.52123e-08
-8.65956e-06
2.4524e-08
-8.6831e-06
2.34529e-08
-8.70511e-06
2.18493e-08
-8.72568e-06
2.05542e-08
-8.74516e-06
1.93144e-08
-8.76349e-06
1.81812e-08
-8.7807e-06
1.69999e-08
-8.79635e-06
8.63562e-09
-8.81172e-06
2.20002e-08
-8.82612e-06
9.21071e-09
-8.83998e-06
1.84815e-08
-8.85264e-06
9.40941e-09
-8.86381e-06
1.44945e-08
-8.87453e-06
4.05451e-09
-8.88331e-06
1.45296e-08
-8.88858e-06
-5.45541e-09
-8.89002e-06
1.13173e-08
-8.88704e-06
-1.01757e-08
-8.87956e-06
-6.15826e-10
-8.86688e-06
-1.31417e-08
-8.84733e-06
-1.97517e-08
-8.82016e-06
-2.74906e-08
-8.78381e-06
-3.65318e-08
-8.73807e-06
-4.6148e-08
-8.68288e-06
-5.53499e-08
-8.61431e-06
-6.90161e-08
-8.52497e-06
-8.90191e-08
-8.40646e-06
-1.18908e-07
-8.23655e-06
-1.703e-07
-8.00585e-06
-2.32038e-07
-7.74701e-06
-2.57796e-07
-7.46459e-06
-2.81554e-07
-6.79139e-06
-6.7245e-07
-5.00193e-06
-1.71839e-06
-1.79567e-06
-3.28024e-06
1.94031e-06
-3.77608e-06
5.10409e-06
-3.12703e-06
6.82227e-06
-1.71684e-06
7.42929e-06
-6.05113e-07
7.65792e-06
-2.29647e-07
7.8862e-06
-2.28759e-07
8.13104e-06
-2.45342e-07
8.33367e-06
-2.05154e-07
8.49122e-06
-1.551e-07
8.60171e-06
-1.09021e-07
8.67469e-06
-7.44565e-08
8.72659e-06
-5.16154e-08
8.76724e-06
-4.13968e-08
8.79974e-06
-3.27477e-08
8.82416e-06
-2.45579e-08
8.8436e-06
-1.94322e-08
8.85669e-06
-1.34612e-08
8.86448e-06
-9.52234e-09
8.86855e-06
-2.9013e-09
8.86763e-06
5.09778e-09
8.86253e-06
1.54408e-09
8.85479e-06
2.22371e-08
8.84521e-06
-4.58546e-09
8.83428e-06
2.6254e-08
8.82186e-06
-1.8067e-09
8.80868e-06
3.30617e-08
-9.79262e-09
-2.94292e-05
6.74402e-08
-2.94835e-05
7.08788e-08
-2.9541e-05
7.43131e-08
-2.96019e-05
7.92069e-08
-2.96651e-05
8.16394e-08
-2.9727e-05
8.08049e-08
-2.97866e-05
7.71946e-08
-2.98479e-05
7.97225e-08
-2.99217e-05
9.52703e-08
-3.00063e-05
1.09373e-07
-3.00903e-05
1.07777e-07
-3.01687e-05
1.01678e-07
-3.0242e-05
9.48867e-08
-3.03108e-05
8.93151e-08
-3.03751e-05
8.33007e-08
-3.04353e-05
7.80504e-08
-3.04917e-05
7.30702e-08
-3.05436e-05
4.99778e-08
-3.05938e-05
8.19755e-08
-3.06409e-05
4.84515e-08
-3.06843e-05
6.86665e-08
-3.07242e-05
4.44525e-08
-3.07595e-05
5.47613e-08
-3.07931e-05
2.75285e-08
-3.08191e-05
4.89499e-08
-3.08333e-05
-7.24312e-09
-3.08343e-05
2.67207e-08
-3.08194e-05
-3.58272e-08
-3.07879e-05
-2.20694e-08
-3.07377e-05
-6.4186e-08
-3.06641e-05
-9.37539e-08
-3.0562e-05
-1.30192e-07
-3.04272e-05
-1.71712e-07
-3.02594e-05
-2.14736e-07
-3.00573e-05
-2.57767e-07
-2.98027e-05
-3.24497e-07
-2.94702e-05
-4.20874e-07
-2.9018e-05
-5.71793e-07
-2.83766e-05
-8.12469e-07
-2.75385e-05
-1.07302e-06
-2.66239e-05
-1.17032e-06
-2.56066e-05
-1.29698e-06
-2.3187e-05
-3.09091e-06
-1.69932e-05
-7.80551e-06
-6.08323e-06
-1.43015e-05
6.5766e-06
-1.64961e-05
1.73472e-05
-1.38433e-05
2.33017e-05
-7.66865e-06
2.54832e-05
-2.78271e-06
2.62696e-05
-1.01807e-06
2.70726e-05
-1.03277e-06
2.79876e-05
-1.16139e-06
2.87614e-05
-9.83775e-07
2.93483e-05
-7.37324e-07
2.97562e-05
-5.14219e-07
3.00282e-05
-3.49206e-07
3.02201e-05
-2.4302e-07
3.0371e-05
-1.93661e-07
3.04924e-05
-1.5463e-07
3.05846e-05
-1.17112e-07
3.06574e-05
-9.21822e-08
3.07085e-05
-6.52477e-08
3.07406e-05
-4.42265e-08
3.07589e-05
-1.96574e-08
3.07594e-05
1.08417e-08
3.07456e-05
1.01981e-08
3.07231e-05
6.59934e-08
3.06934e-05
4.39041e-09
3.0659e-05
8.32685e-08
3.06199e-05
1.65955e-08
3.05788e-05
1.03108e-07
-6.39736e-09
-5.74124e-05
1.65567e-07
-5.75131e-05
1.71819e-07
-5.7622e-05
1.83105e-07
-5.77361e-05
1.93461e-07
-5.78531e-05
1.98417e-07
-5.79693e-05
1.97191e-07
-5.80794e-05
1.87205e-07
-5.81914e-05
1.91639e-07
-5.83281e-05
2.31624e-07
-5.84862e-05
2.67093e-07
-5.86418e-05
2.62543e-07
-5.87859e-05
2.45613e-07
-5.89204e-05
2.29172e-07
-5.9046e-05
2.14842e-07
-5.91648e-05
2.01852e-07
-5.92754e-05
1.88324e-07
-5.93779e-05
1.75249e-07
-5.94723e-05
1.33707e-07
-5.95623e-05
1.81853e-07
-5.96453e-05
1.23606e-07
-5.97237e-05
1.53966e-07
-5.97917e-05
1.07489e-07
-5.98522e-05
1.20345e-07
-5.9907e-05
7.21899e-08
-5.99482e-05
9.85732e-08
-5.99687e-05
-3.01298e-09
-5.99592e-05
3.20121e-08
-5.99189e-05
-8.70469e-08
-5.98482e-05
-8.24641e-08
-5.97376e-05
-1.7564e-07
-5.95806e-05
-2.51043e-07
-5.93688e-05
-3.42588e-07
-5.90905e-05
-4.50347e-07
-5.87457e-05
-5.60284e-07
-5.83292e-05
-6.74532e-07
-5.78034e-05
-8.51064e-07
-5.7102e-05
-1.12169e-06
-5.61424e-05
-1.53209e-06
-5.48154e-05
-2.14019e-06
-5.31626e-05
-2.72806e-06
-5.14295e-05
-2.90163e-06
-4.94383e-05
-3.28675e-06
-4.46457e-05
-7.88208e-06
-3.26005e-05
-1.97442e-05
-1.16413e-05
-3.53723e-05
1.25923e-05
-4.07904e-05
3.3298e-05
-3.44942e-05
4.48831e-05
-1.92514e-05
4.91884e-05
-7.08477e-06
5.06497e-05
-2.48111e-06
5.21387e-05
-2.52257e-06
5.39798e-05
-3.00332e-06
5.56105e-05
-2.6188e-06
5.68499e-05
-1.97252e-06
5.77032e-05
-1.36499e-06
5.82679e-05
-9.1651e-07
5.86686e-05
-6.43234e-07
5.89823e-05
-5.08634e-07
5.92345e-05
-4.07285e-07
5.94267e-05
-3.09552e-07
5.95808e-05
-2.462e-07
5.9692e-05
-1.77123e-07
5.97631e-05
-1.18018e-07
5.98091e-05
-6.39185e-08
5.98209e-05
5.29835e-09
5.9801e-05
2.48978e-08
5.97663e-05
1.22574e-07
5.97191e-05
3.0174e-08
5.96605e-05
1.65047e-07
5.95942e-05
6.14589e-08
5.95204e-05
2.06855e-07
1.83389e-08
-9.32907e-05
3.17821e-07
-9.34482e-05
3.29697e-07
-9.36167e-05
3.51331e-07
-9.37931e-05
3.7014e-07
-9.39746e-05
3.79572e-07
-9.41493e-05
3.72293e-07
-9.43154e-05
3.53119e-07
-9.44857e-05
3.61859e-07
-9.46922e-05
4.37717e-07
-9.49308e-05
5.05153e-07
-9.51658e-05
4.96531e-07
-9.53856e-05
4.6529e-07
-9.55882e-05
4.31414e-07
-9.5778e-05
4.04609e-07
-9.59529e-05
3.76333e-07
-9.61182e-05
3.53288e-07
-9.62689e-05
3.255e-07
-9.64063e-05
2.60849e-07
-9.65383e-05
3.23076e-07
-9.6662e-05
2.39689e-07
-9.67705e-05
2.68839e-07
-9.68691e-05
2.01255e-07
-9.69519e-05
2.07912e-07
-9.70249e-05
1.35372e-07
-9.70741e-05
1.55572e-07
-9.70847e-05
-7.91068e-09
-9.70505e-05
1.12446e-08
-9.69677e-05
-1.80201e-07
-9.683e-05
-2.1075e-07
-9.66301e-05
-3.76592e-07
-9.63513e-05
-5.30394e-07
-9.5978e-05
-7.16639e-07
-9.54994e-05
-9.29407e-07
-9.4909e-05
-1.15167e-06
-9.41955e-05
-1.38845e-06
-9.32824e-05
-1.76519e-06
-9.2047e-05
-2.35633e-06
-9.03501e-05
-3.22986e-06
-8.80782e-05
-4.41301e-06
-8.54365e-05
-5.37338e-06
-8.28245e-05
-5.511e-06
-7.97067e-05
-6.40218e-06
-7.18742e-05
-1.57132e-05
-5.23173e-05
-3.91985e-05
-1.86315e-05
-6.9166e-05
2.01674e-05
-7.96477e-05
5.3472e-05
-6.77474e-05
7.22949e-05
-3.80709e-05
7.92767e-05
-1.40617e-05
8.1374e-05
-4.581e-06
8.35139e-05
-4.66374e-06
8.65326e-05
-6.02333e-06
8.93907e-05
-5.48279e-06
9.15844e-05
-4.16055e-06
9.30856e-05
-2.86276e-06
9.40759e-05
-1.91025e-06
9.47741e-05
-1.34083e-06
9.53194e-05
-1.05568e-06
9.57567e-05
-8.45206e-07
9.60977e-05
-6.50846e-07
9.63699e-05
-5.18396e-07
9.6569e-05
-3.77199e-07
9.67062e-05
-2.57735e-07
9.67968e-05
-1.53127e-07
9.68342e-05
-2.61171e-08
9.68243e-05
3.01077e-08
9.67852e-05
1.8182e-07
9.67247e-05
7.10476e-08
9.66458e-05
2.65496e-07
9.65504e-05
1.37347e-07
9.64496e-05
3.35084e-07
6.78983e-08
-0.000137769
5.296e-07
-0.000137991
5.51775e-07
-0.000138227
5.86615e-07
-0.000138472
6.15907e-07
-0.000138719
6.26149e-07
-0.000138958
6.11158e-07
-0.00013918
5.75157e-07
-0.000139408
5.90339e-07
-0.000139686
7.15274e-07
-0.000140012
8.30268e-07
-0.00014033
8.13506e-07
-0.000140623
7.58279e-07
-0.000140897
7.04908e-07
-0.00014115
6.57514e-07
-0.000141386
6.12278e-07
-0.000141604
5.70863e-07
-0.000141802
5.23036e-07
-0.000141983
4.32551e-07
-0.000142153
5.02005e-07
-0.000142308
3.87967e-07
-0.000142446
4.11576e-07
-0.000142563
3.14959e-07
-0.000142657
3.05425e-07
-0.000142736
2.06162e-07
-0.00014278
2.06509e-07
-0.000142767
-3.47596e-08
-0.000142687
-5.70423e-08
-0.00014253
-3.46417e-07
-0.000142294
-4.38226e-07
-0.000141959
-7.1243e-07
-0.000141507
-9.83311e-07
-0.000140914
-1.31025e-06
-0.000140158
-1.68493e-06
-0.000139236
-2.07453e-06
-0.000138116
-2.50942e-06
-0.000136664
-3.2177e-06
-0.000134674
-4.34633e-06
-0.000131943
-5.96129e-06
-0.000128453
-7.90383e-06
-0.000124745
-9.08335e-06
-0.00012138
-8.87417e-06
-0.000117095
-1.0686e-05
-0.000105517
-2.72892e-05
-7.65636e-05
-6.80639e-05
-2.71759e-05
-0.000118647
2.94391e-05
-0.000136314
7.83132e-05
-0.000116576
0.000106209
-6.59645e-05
0.000116432
-2.42806e-05
0.000118919
-7.06986e-06
0.000121405
-7.15125e-06
0.000125772
-1.03908e-05
0.000130299
-1.00147e-05
0.000133851
-7.70836e-06
0.000136277
-5.2854e-06
0.000137872
-3.50769e-06
0.000138992
-2.46107e-06
0.000139861
-1.92619e-06
0.000140561
-1.54576e-06
0.000141109
-1.19842e-06
0.00014155
-9.59952e-07
0.000141884
-7.11488e-07
0.000142119
-4.95214e-07
0.000142286
-3.19293e-07
0.000142372
-1.0608e-07
0.000142387
1.10208e-08
0.000142358
2.28976e-07
0.000142298
1.12981e-07
0.000142212
3.7032e-07
0.000142101
2.31656e-07
0.000141975
4.84823e-07
1.2798e-07
-0.000191341
8.0553e-07
-0.000191626
8.37722e-07
-0.000191933
8.93828e-07
-0.000192247
9.29707e-07
-0.000192562
9.41069e-07
-0.000192861
9.10013e-07
-0.000193137
8.51745e-07
-0.00019342
8.72639e-07
-0.000193771
1.06585e-06
-0.000194173
1.23204e-06
-0.00019457
1.20921e-06
-0.000194938
1.12597e-06
-0.000195278
1.04381e-06
-0.000195588
9.68274e-07
-0.000195878
9.01154e-07
-0.000196143
8.36024e-07
-0.000196383
7.61837e-07
-0.000196595
6.36035e-07
-0.000196798
7.12754e-07
-0.000196975
5.5787e-07
-0.000197132
5.73768e-07
-0.000197256
4.34446e-07
-0.00019735
4.0375e-07
-0.000197417
2.6471e-07
-0.000197433
2.28836e-07
-0.000197368
-1.13317e-07
-0.000197202
-2.12114e-07
-0.000196939
-6.18767e-07
-0.000196556
-8.1265e-07
-0.000196035
-1.23542e-06
-0.000195342
-1.67667e-06
-0.00019445
-2.20364e-06
-0.000193325
-2.81045e-06
-0.00019196
-3.44012e-06
-0.000190294
-4.17586e-06
-0.000188102
-5.41116e-06
-0.000185059
-7.38902e-06
-0.000180932
-1.00888e-05
-0.000175974
-1.28629e-05
-0.000171325
-1.37372e-05
-0.000167594
-1.26012e-05
-0.000162223
-1.60542e-05
-0.000146147
-4.33639e-05
-0.000105654
-0.000108465
-3.73356e-05
-0.000187065
4.04774e-05
-0.00021418
0.000108156
-0.00018421
0.000147237
-0.000105041
0.000161302
-3.83399e-05
0.00016369
-9.46054e-06
0.000165812
-9.27552e-06
0.000171489
-1.60686e-05
0.000178178
-1.67116e-05
0.000183611
-1.31338e-05
0.000187336
-9.00692e-06
0.000189779
-5.95449e-06
0.000191488
-4.16996e-06
0.000192809
-3.24836e-06
0.000193875
-2.6127e-06
0.000194714
-2.03791e-06
0.000195395
-1.64156e-06
0.00019592
-1.23748e-06
0.000196306
-8.83564e-07
0.000196586
-5.98316e-07
0.000196764
-2.77926e-07
0.000196835
-6.41287e-08
0.000196843
2.38404e-07
0.000196806
1.3266e-07
0.000196727
4.67884e-07
0.000196615
3.2713e-07
0.000196478
6.46128e-07
1.80846e-07
-0.000254323
1.14883e-06
-0.00025468
1.19468e-06
-0.000255053
1.26728e-06
-0.000255438
1.31468e-06
-0.000255818
1.32081e-06
-0.000256171
1.26316e-06
-0.00025649
1.17078e-06
-0.00025682
1.20235e-06
-0.000257231
1.47584e-06
-0.000257708
1.70887e-06
-0.000258175
1.67501e-06
-0.000258603
1.55385e-06
-0.000258999
1.44002e-06
-0.00025936
1.32857e-06
-0.00025969
1.23145e-06
-0.000259993
1.13838e-06
-0.000260262
1.03031e-06
-0.000260498
8.6443e-07
-0.000260714
9.35335e-07
-0.000260906
7.4391e-07
-0.000261059
7.31275e-07
-0.000261172
5.44355e-07
-0.000261241
4.75762e-07
-0.00026127
2.86225e-07
-0.000261224
1.88073e-07
-0.00026107
-2.78458e-07
-0.000260788
-4.84425e-07
-0.000260359
-1.05517e-06
-0.000259773
-1.39307e-06
-0.00025899
-2.01884e-06
-0.00025797
-2.69689e-06
-0.000256671
-3.50411e-06
-0.000255062
-4.41957e-06
-0.000253109
-5.3935e-06
-0.00025071
-6.57564e-06
-0.000247503
-8.61898e-06
-0.000243014
-1.18774e-05
-0.00023706
-1.60435e-05
-0.000230486
-1.9438e-05
-0.000225349
-1.88772e-05
-0.000221971
-1.59765e-05
-0.000215685
-2.23386e-05
-0.000194247
-6.47998e-05
-0.000139754
-0.000162886
-4.90838e-05
-0.000277813
5.32546e-05
-0.000316561
0.00014318
-0.000274099
0.000195908
-0.000157767
0.000214547
-5.6975e-05
0.000216119
-1.10348e-05
0.000216612
-9.76912e-06
0.000223179
-2.2637e-05
0.000232524
-2.60613e-05
0.000240498
-2.11027e-05
0.00024602
-1.45264e-05
0.000249644
-9.58155e-06
0.000252177
-6.7023e-06
0.000254127
-5.20024e-06
0.000255699
-4.18515e-06
0.000256954
-3.29347e-06
0.000257976
-2.66299e-06
0.00025878
-2.04234e-06
0.000259387
-1.49227e-06
0.000259849
-1.05948e-06
0.000260156
-5.81059e-07
0.00026033
-2.41035e-07
0.000260416
1.67008e-07
0.000260436
9.78256e-08
0.000260398
5.22016e-07
0.000260307
4.03887e-07
0.000260184
7.88235e-07
2.15136e-07
-0.000326997
1.55399e-06
-0.000327418
1.61633e-06
-0.000327865
1.71367e-06
-0.000328311
1.76113e-06
-0.000328747
1.75622e-06
-0.000329142
1.65847e-06
-0.000329494
1.52298e-06
-0.00032986
1.56821e-06
-0.000330323
1.93774e-06
-0.000330858
2.24298e-06
-0.000331378
2.19414e-06
-0.000331858
2.0333e-06
-0.000332291
1.87229e-06
-0.000332689
1.72638e-06
-0.000333048
1.59063e-06
-0.000333371
1.4611e-06
-0.000333649
1.30737e-06
-0.000333894
1.10063e-06
-0.00033411
1.15863e-06
-0.000334287
9.14009e-07
-0.000334421
8.70107e-07
-0.000334495
6.14573e-07
-0.000334511
4.95347e-07
-0.000334468
2.35128e-07
-0.000334323
4.7647e-08
-0.000334031
-5.82225e-07
-0.00033356
-9.46191e-07
-0.000332903
-1.72016e-06
-0.000332032
-2.25803e-06
-0.00033089
-3.1622e-06
-0.000329427
-4.16098e-06
-0.00032759
-5.34156e-06
-0.000325333
-6.67731e-06
-0.000322603
-8.12478e-06
-0.000319211
-9.96809e-06
-0.000314606
-1.32255e-05
-0.000308147
-1.8336e-05
-0.000299882
-2.43094e-05
-0.000291757
-2.75643e-05
-0.00028707
-2.35692e-05
-0.000285152
-1.78917e-05
-0.000278093
-2.93938e-05
-0.000250193
-9.26979e-05
-0.000178827
-0.00023417
-6.22714e-05
-0.000394458
6.76086e-05
-0.00044649
0.000183345
-0.000389797
0.000252656
-0.000227072
0.000276892
-8.1204e-05
0.000276817
-1.09641e-05
0.000273699
-6.65285e-06
0.000280134
-2.90736e-05
0.000292546
-3.84817e-05
0.000303882
-3.24307e-05
0.000311862
-2.2502e-05
0.000317128
-1.48519e-05
0.00032081
-1.03838e-05
0.000323637
-8.02905e-06
0.000325926
-6.47513e-06
0.00032776
-5.12778e-06
0.000329264
-4.16778e-06
0.000330472
-3.2515e-06
0.000331402
-2.42441e-06
0.000332127
-1.7842e-06
0.000332657
-1.106e-06
0.000332997
-5.84334e-07
0.000333213
-3.3528e-08
0.000333335
-3.94655e-08
0.000333375
4.98695e-07
0.000333344
4.20692e-07
0.00033326
8.92827e-07
1.861e-07
-0.00040971
2.02729e-06
-0.000410195
2.10223e-06
-0.000410706
2.22393e-06
-0.000411213
2.26798e-06
-0.000411692
2.23563e-06
-0.00041211
2.07689e-06
-0.000412478
1.89042e-06
-0.000412866
1.9564e-06
-0.000413361
2.43174e-06
-0.000413939
2.82026e-06
-0.000414499
2.75269e-06
-0.000415002
2.53652e-06
-0.000415463
2.33221e-06
-0.000415876
2.13933e-06
-0.000416246
1.96016e-06
-0.000416568
1.78338e-06
-0.000416844
1.58295e-06
-0.000417068
1.31864e-06
-0.000417262
1.35698e-06
-0.000417402
1.04916e-06
-0.000417482
9.53306e-07
-0.000417483
6.12836e-07
-0.000417404
4.18779e-07
-0.00041724
6.56588e-08
-0.000416935
-2.53742e-07
-0.000416436
-1.09033e-06
-0.00041571
-1.66586e-06
-0.000414727
-2.70889e-06
-0.000413456
-3.52469e-06
-0.000411823
-4.79565e-06
-0.000409759
-6.2257e-06
-0.000407198
-7.9037e-06
-0.000404081
-9.79465e-06
-0.00040031
-1.18966e-05
-0.00039557
-1.47086e-05
-0.000389038
-1.97586e-05
-0.000379908
-2.74654e-05
-0.000368828
-3.53901e-05
-0.00035963
-3.67634e-05
-0.000357029
-2.61734e-05
-0.000358041
-1.68776e-05
-0.00035009
-3.73424e-05
-0.000314128
-0.000128658
-0.000222549
-0.000325694
-7.66047e-05
-0.000540463
8.32212e-05
-0.00060635
0.000228317
-0.000534866
0.000317707
-0.000316459
0.000349139
-0.000112632
0.000346717
-8.54447e-06
0.000337201
2.86154e-06
0.000341558
-3.34318e-05
0.000357223
-5.41523e-05
0.000372924
-4.8126e-05
0.000384233
-3.38075e-05
0.00039176
-2.23829e-05
0.000397037
-1.56598e-05
0.000401089
-1.20828e-05
0.000404381
-9.76761e-06
0.000407036
-7.78296e-06
0.000409226
-6.35825e-06
0.00041101
-5.03664e-06
0.000412415
-3.83065e-06
0.000413533
-2.90176e-06
0.000414378
-1.94785e-06
0.00041498
-1.18844e-06
0.000415406
-4.48576e-07
0.000415699
-3.42949e-07
0.000415876
3.33155e-07
0.000415954
3.32613e-07
0.000415955
9.06639e-07
6.63831e-08
-0.000502964
2.55698e-06
-0.000503514
2.65262e-06
-0.000504083
2.79195e-06
-0.000504634
2.81974e-06
-0.000505133
2.73457e-06
-0.00050556
2.50391e-06
-0.000505925
2.25574e-06
-0.000506313
2.34382e-06
-0.000506825
2.94296e-06
-0.000507418
3.41209e-06
-0.00050799
3.32369e-06
-0.000508508
3.0534e-06
-0.000508965
2.78907e-06
-0.000509375
2.54934e-06
-0.00050973
2.31409e-06
-0.000510031
2.08442e-06
-0.000510273
1.82352e-06
-0.000510459
1.49686e-06
-0.00051059
1.49361e-06
-0.000510662
1.11565e-06
-0.000510646
9.40418e-07
-0.000510534
4.9752e-07
-0.000510304
1.92476e-07
-0.000509949
-2.97092e-07
-0.000509403
-7.95239e-07
-0.000508612
-1.89323e-06
-0.000507508
-2.76256e-06
-0.000506066
-4.1576e-06
-0.000504243
-5.34264e-06
-0.000501946
-7.09479e-06
-0.000499062
-9.11051e-06
-0.000495524
-1.14422e-05
-0.000491254
-1.40663e-05
-0.000486077
-1.70748e-05
-0.000479484
-2.13021e-05
-0.0004703
-2.89445e-05
-0.000457617
-4.01473e-05
-0.000443319
-4.96894e-05
-0.000434195
-4.58893e-05
-0.000436186
-2.41886e-05
-0.000441923
-1.11362e-05
-0.00043243
-4.68315e-05
-0.000385806
-0.000175279
-0.000270122
-0.000441304
-9.16618e-05
-0.000719005
9.96388e-05
-0.000797695
0.000277292
-0.000712485
0.000390877
-0.000430038
0.000432179
-0.000153926
0.0004272
-3.56935e-06
0.000407628
2.24313e-05
0.000406713
-3.25195e-05
0.000425391
-7.28401e-05
0.000446604
-6.93296e-05
0.000462339
-4.95375e-05
0.00047295
-3.29988e-05
0.000480432
-2.31413e-05
0.000486195
-1.7848e-05
0.000490888
-1.44617e-05
0.000494695
-1.15905e-05
0.000497857
-9.52089e-06
0.000500451
-7.63224e-06
0.000502534
-5.91608e-06
0.000504223
-4.59041e-06
0.000505547
-3.267e-06
0.000506532
-2.17563e-06
0.000507282
-1.18588e-06
0.000507842
-9.15594e-07
0.000508237
-4.72844e-08
0.000508485
7.24813e-08
0.000508632
7.76569e-07
-1.98883e-07
-0.000607463
3.14596e-06
-0.000608069
3.25888e-06
-0.00060868
3.40328e-06
-0.000609255
3.39474e-06
-0.000609755
3.23456e-06
-0.000610156
2.90483e-06
-0.000610489
2.58893e-06
-0.000610863
2.71726e-06
-0.000611366
3.44538e-06
-0.000611956
4.0015e-06
-0.000612516
3.88155e-06
-0.00061301
3.54719e-06
-0.000613446
3.22505e-06
-0.000613816
2.91951e-06
-0.00061413
2.6269e-06
-0.00061438
2.33392e-06
-0.000614558
2.00113e-06
-0.000614666
1.59954e-06
-0.000614704
1.53517e-06
-0.000614648
1.0558e-06
-0.00061449
7.84101e-07
-0.000614196
2.01493e-07
-0.000613739
-2.62399e-07
-0.000613096
-9.44776e-07
-0.000612208
-1.68101e-06
-0.000610981
-3.12897e-06
-0.000609348
-4.39024e-06
-0.000607265
-6.24583e-06
-0.000604676
-7.92785e-06
-0.000601453
-1.03193e-05
-0.000597455
-1.31083e-05
-0.000592601
-1.62977e-05
-0.000586784
-1.98833e-05
-0.000579709
-2.41514e-05
-0.000570583
-3.04279e-05
-0.00055779
-4.17385e-05
-0.000540496
-5.74408e-05
-0.000522868
-6.73184e-05
-0.000515993
-5.27659e-05
-0.000526107
-1.40775e-05
-0.000538444
1.20343e-06
-0.000525975
-5.92983e-05
-0.000464439
-0.000236812
-0.000320165
-0.000585535
-0.000106998
-0.00093222
0.00011639
-0.00102111
0.000328826
-0.000924901
0.000471391
-0.000572601
0.00052703
-0.00020956
0.000520076
3.38213e-06
0.000486035
5.64713e-05
0.000475023
-2.15081e-05
0.000495719
-9.35414e-05
0.000523702
-9.73083e-05
0.000545246
-7.10786e-05
0.000559989
-4.77447e-05
0.000570481
-3.36329e-05
0.000578605
-2.59738e-05
0.000585225
-2.10823e-05
0.000590637
-1.70025e-05
0.000595158
-1.4042e-05
0.0005989
-1.13751e-05
0.000601944
-8.96255e-06
0.000604449
-7.09467e-06
0.000606453
-5.26832e-06
0.000608014
-3.73764e-06
0.000609234
-2.39693e-06
0.000610194
-1.88485e-06
0.000610918
-7.60827e-07
0.000611437
-4.55409e-07
0.000611803
4.22473e-07
-6.82655e-07
-0.000724103
3.78815e-06
-0.000724754
3.9113e-06
-0.000725387
4.03567e-06
-0.000725953
3.96163e-06
-0.000726418
3.69814e-06
-0.000726753
3.24131e-06
-0.000727027
2.86284e-06
-0.000727359
3.04858e-06
-0.00072783
3.9149e-06
-0.000728377
4.54815e-06
-0.000728892
4.39387e-06
-0.000729337
3.99188e-06
-0.000729713
3.60043e-06
-0.000730018
3.22477e-06
-0.000730255
2.86219e-06
-0.000730417
2.49553e-06
-0.000730487
2.07027e-06
-0.000730466
1.57139e-06
-0.000730355
1.42913e-06
-0.000730116
8.10688e-07
-0.000729733
4.03572e-07
-0.000729163
-3.71066e-07
-0.000728375
-1.04805e-06
-0.000727314
-2.01281e-06
-0.000725906
-3.08549e-06
-0.000724063
-4.9842e-06
-0.000721686
-6.7601e-06
-0.0007187
-9.23932e-06
-0.000715045
-1.1577e-05
-0.000710559
-1.48076e-05
-0.000705062
-1.86071e-05
-0.000698445
-2.29157e-05
-0.00069057
-2.77599e-05
-0.00068095
-3.3773e-05
-0.000668419
-4.29596e-05
-0.000650866
-5.92941e-05
-0.000627797
-8.05082e-05
-0.000607267
-8.785e-05
-0.000606152
-5.38827e-05
-0.000628911
8.67418e-06
-0.000649523
2.18207e-05
-0.000631427
-7.73899e-05
-0.00054862
-0.000319616
-0.000371094
-0.000762993
-0.00012238
-0.00118101
0.000133229
-0.00127676
0.000381138
-0.00117278
0.000557793
-0.000749249
0.000634576
-0.000286334
0.000627459
1.0495e-05
0.000573878
0.000110049
0.000546325
6.04248e-06
0.000567236
-0.000114462
0.000602996
-0.000133059
0.000631777
-9.98548e-05
0.000651956
-6.79286e-05
0.000666563
-4.8239e-05
0.000677903
-3.73175e-05
0.000687117
-3.02974e-05
0.000694729
-2.46147e-05
0.000701115
-2.0428e-05
0.000706436
-1.66982e-05
0.000710829
-1.33574e-05
0.000714485
-1.07511e-05
0.00071745
-8.22863e-06
0.000719827
-6.11707e-06
0.000721751
-4.3081e-06
0.000723289
-3.43529e-06
0.00072449
-1.94803e-06
0.000725417
-1.39379e-06
0.000726123
-2.67552e-07
-1.47769e-06
-0.000853987
4.47278e-06
-0.000854652
4.57698e-06
-0.000855273
4.65545e-06
-0.000855786
4.47564e-06
-0.000856156
4.0677e-06
-0.000856394
3.47962e-06
-0.000856575
3.04346e-06
-0.000856829
3.30282e-06
-0.000857234
4.31857e-06
-0.000857712
5.02486e-06
-0.000858143
4.82277e-06
-0.000858497
4.34593e-06
-0.000858772
3.87501e-06
-0.000858968
3.42088e-06
-0.000859076
2.96953e-06
-0.000859099
2.51711e-06
-0.000859014
1.98468e-06
-0.00085881
1.36327e-06
-0.000858464
1.08579e-06
-0.000857942
2.84025e-07
-0.000857225
-3.11661e-07
-0.00085626
-1.3376e-06
-0.000854973
-2.3334e-06
-0.000853299
-3.69116e-06
-0.000851165
-5.21831e-06
-0.000848452
-7.70384e-06
-0.000845014
-1.01949e-05
-0.000840786
-1.34718e-05
-0.000835669
-1.66911e-05
-0.000829481
-2.0997e-05
-0.000821987
-2.61017e-05
-0.000813053
-3.18509e-05
-0.000802467
-3.83461e-05
-0.000789532
-4.67093e-05
-0.000772549
-5.99431e-05
-0.000748902
-8.29423e-05
-0.000718942
-0.000110467
-0.000696747
-0.000110047
-0.000706393
-4.42383e-05
-0.000747122
4.94017e-05
-0.00077691
5.16107e-05
-0.000748766
-0.000105532
-0.000636642
-0.000431736
-0.000422049
-0.000977555
-0.000138081
-0.00146501
0.000150449
-0.00156531
0.000433217
-0.00145554
0.000648163
-0.000964191
0.000754878
-0.000393045
0.000751325
1.40455e-05
0.000672826
0.000188548
0.000621174
5.76929e-05
0.000640215
-0.000133506
0.000684231
-0.000177072
0.000721158
-0.000136779
0.000747899
-9.46727e-05
0.000767792
-6.81313e-05
0.000783428
-5.2955e-05
0.000796199
-4.30693e-05
0.000806798
-3.52139e-05
0.000815689
-2.93186e-05
0.000823144
-2.4155e-05
0.000829386
-1.96003e-05
0.000834615
-1.59806e-05
0.000838929
-1.25395e-05
0.000842446
-9.63526e-06
0.000845345
-7.19888e-06
0.000847713
-5.81217e-06
0.000849613
-3.83946e-06
0.000851124
-2.91164e-06
0.000852328
-1.46166e-06
-2.70927e-06
-0.000998388
5.16499e-06
-0.000999035
5.22464e-06
-0.000999585
5.20485e-06
-0.000999977
4.8687e-06
-0.00100019
4.28178e-06
-0.00100027
3.55466e-06
-0.00100032
3.09773e-06
-0.00100048
3.46282e-06
-0.00100078
4.61841e-06
-0.00100114
5.38091e-06
-0.00100145
5.1273e-06
-0.00100166
4.56212e-06
-0.00100179
4.00135e-06
-0.00100182
3.45349e-06
-0.00100175
2.89883e-06
-0.00100157
2.33015e-06
-0.00100125
1.66334e-06
-0.00100076
8.72572e-07
-0.00100008
4.08789e-07
-0.000999152
-6.53341e-07
-0.000997943
-1.51766e-06
-0.000996385
-2.89894e-06
-0.000994385
-4.33031e-06
-0.000991841
-6.24342e-06
-0.000988667
-8.38947e-06
-0.000984727
-1.16558e-05
-0.000979855
-1.50599e-05
-0.000973938
-1.93963e-05
-0.000966871
-2.3754e-05
-0.000958446
-2.94246e-05
-0.000948392
-3.6157e-05
-0.000936477
-4.3767e-05
-0.000922406
-5.24183e-05
-0.000905231
-6.38865e-05
-0.00088275
-8.24253e-05
-0.000851943
-0.000113752
-0.000814563
-0.000147846
-0.00079229
-0.000132321
-0.000818498
-1.80322e-05
-0.000883435
0.000114331
-0.000921402
8.95836e-05
-0.00087657
-0.00015036
-0.000727503
-0.000580799
-0.000473872
-0.00123112
-0.000155051
-0.0017839
0.000169031
-0.00188943
0.00048596
-0.00177244
0.000741172
-0.0012194
0.000886766
-0.00053863
0.000892873
7.93338e-06
0.00078439
0.000297028
0.000700802
0.000141278
0.000716434
-0.000149147
0.000768841
-0.000229471
0.000814185
-0.000182119
0.000847971
-0.000128464
0.000873861
-9.40203e-05
0.000894702
-7.37986e-05
0.000912006
-6.03749e-05
0.00092653
-4.97389e-05
0.000938767
-4.15555e-05
0.000949106
-3.44959e-05
0.000957815
-2.83118e-05
0.000965141
-2.3307e-05
0.000971249
-1.86428e-05
0.000976338
-1.47262e-05
0.00098059
-1.14392e-05
0.000984108
-9.34143e-06
0.000986983
-6.70145e-06
0.00098934
-5.27925e-06
0.000991263
-3.36888e-06
-4.55916e-06
-0.00115879
5.81632e-06
-0.00115934
5.77571e-06
-0.00115973
5.59494e-06
-0.00115992
5.05366e-06
-0.0011599
4.26731e-06
-0.00115978
3.42959e-06
-0.00115967
2.98797e-06
-0.00115969
3.48515e-06
-0.00115985
4.77762e-06
-0.00116004
5.5708e-06
-0.00116017
5.24972e-06
-0.00116019
4.58982e-06
-0.00116012
3.92597e-06
-0.00115992
3.25712e-06
-0.0011596
2.56987e-06
-0.00115912
1.85278e-06
-0.00115846
1.00241e-06
-0.00115758
-1.40586e-08
-0.0011564
-7.68948e-07
-0.00115487
-2.18222e-06
-0.00115296
-3.42802e-06
-0.00115057
-5.29562e-06
-0.00114755
-7.34456e-06
-0.00114379
-1.00038e-05
-0.00113919
-1.29966e-05
-0.00113359
-1.72604e-05
-0.0011268
-2.18446e-05
-0.00111869
-2.75096e-05
-0.00110911
-3.3337e-05
-0.00109781
-4.0719e-05
-0.00108453
-4.94448e-05
-0.00106894
-5.93525e-05
-0.00105064
-7.07184e-05
-0.00102847
-8.60601e-05
-0.000999852
-0.000111042
-0.000961529
-0.000152076
-0.000916881
-0.000192493
-0.000895739
-0.000153464
-0.000944216
3.04441e-05
-0.00104001
0.00021012
-0.00108234
0.000131918
-0.00101212
-0.000220578
-0.000822353
-0.00077056
-0.000530158
-0.0015233
-0.00017462
-0.00213946
0.00019036
-0.00225442
0.000542882
-0.00212495
0.000837765
-0.00151428
0.00102797
-0.00072883
0.00105158
-1.56741e-05
0.000909481
0.000439122
0.000786972
0.000263786
0.000798568
-0.000160744
0.000859393
-0.000290295
0.000913142
-0.000235867
0.00095403
-0.000169352
0.000986109
-0.000126099
0.00101252
-0.000100215
0.00103491
-8.27561e-05
0.00105403
-6.88589e-05
0.00107039
-5.79214e-05
0.00108439
-4.84978e-05
0.0010963
-4.02218e-05
0.00110639
-3.33974e-05
0.0011149
-2.71512e-05
0.00112207
-2.18928e-05
0.00112812
-1.74805e-05
0.00113318
-1.44117e-05
0.0011374
-1.09137e-05
0.00114091
-8.80065e-06
0.00114383
-6.2765e-06
-7.24989e-06
-0.00133684
6.34259e-06
-0.00133718
6.12415e-06
-0.0013373
5.71127e-06
-0.00133718
4.93086e-06
-0.00133687
3.96235e-06
-0.0013365
3.06066e-06
-0.0013362
2.68931e-06
-0.00133606
3.34084e-06
-0.00133603
4.74444e-06
-0.001336
5.53894e-06
-0.00133589
5.13587e-06
-0.00133566
4.3646e-06
-0.00133531
3.57293e-06
-0.0013348
2.74138e-06
-0.00133411
1.8869e-06
-0.00133322
9.61925e-07
-0.00133208
-1.38604e-07
-0.00133062
-1.48596e-06
-0.00132875
-2.63137e-06
-0.0013264
-4.54469e-06
-0.00132349
-6.33129e-06
-0.00131992
-8.86791e-06
-0.00131553
-1.17389e-05
-0.00131016
-1.53772e-05
-0.00130368
-1.94753e-05
-0.0012959
-2.50483e-05
-0.00128665
-3.10926e-05
-0.00127578
-3.83896e-05
-0.0012631
-4.60137e-05
-0.00124838
-5.54357e-05
-0.00123132
-6.65129e-05
-0.00121156
-7.9114e-05
-0.00118863
-9.36454e-05
-0.00116122
-0.00011347
-0.00112652
-0.000145745
-0.00108105
-0.000197545
-0.00102949
-0.000244053
-0.00100992
-0.000173039
-0.0010855
0.000106028
-0.00121805
0.000342662
-0.00125935
0.000173222
-0.00115396
-0.000325966
-0.000923037
-0.00100148
-0.000594687
-0.00185159
-0.000197847
-0.00253636
0.000215581
-0.00266788
0.000607808
-0.00251716
0.000939853
-0.00184631
0.00117742
-0.000966386
0.00122671
-6.49725e-05
0.00104866
0.000617169
0.000881998
0.000430448
0.000889635
-0.000168387
0.000958708
-0.000359363
0.00102094
-0.000298097
0.00106899
-0.000217401
0.00110727
-0.000164385
0.00113931
-0.000132254
0.00116689
-0.000110338
0.00119085
-9.28154e-05
0.0012117
-7.87711e-05
0.00122981
-6.66195e-05
0.00124548
-5.58937e-05
0.00125895
-4.68633e-05
0.00127046
-3.86601e-05
0.00128028
-3.1714e-05
0.00128865
-2.58362e-05
0.00129575
-2.15256e-05
0.00130176
-1.69108e-05
0.00130683
-1.38823e-05
0.00131109
-1.05147e-05
-1.10802e-05
-0.00153436
6.59921e-06
-0.00153436
6.12063e-06
-0.00153408
5.4312e-06
-0.00153356
4.41236e-06
-0.00153291
3.31542e-06
-0.00153228
2.43113e-06
-0.00153178
2.18446e-06
-0.00153142
2.98722e-06
-0.00153115
4.47278e-06
-0.00153084
5.22687e-06
-0.00153043
4.71524e-06
-0.00152988
3.81628e-06
-0.00152915
2.84882e-06
-0.00152823
1.81495e-06
-0.00152706
7.17645e-07
-0.00152561
-4.89938e-07
-0.0015238
-1.94663e-06
-0.00152154
-3.755e-06
-0.00151873
-5.43741e-06
-0.00151526
-8.02121e-06
-0.00151102
-1.05654e-05
-0.00150588
-1.40114e-05
-0.00149968
-1.79408e-05
-0.00149224
-2.28175e-05
-0.00148341
-2.83095e-05
-0.00147298