/*--------------------------------*- C++ -*----------------------------------*\
| =========                 |                                                 |
| \\      /  F ield         | OpenFOAM: The Open Source CFD Toolbox           |
|  \\    /   O peration     | Version:  2412                                  |
|   \\  /    A nd           | Website:  www.openfoam.com                      |
|    \\/     M anipulation  |                                                 |
\*---------------------------------------------------------------------------*/
FoamFile
{
    version     2.0;
    format      ascii;
    arch        "LSB;label=32;scalar=64";
    class       surfaceScalarField;
    location    "20";
    object      phi;
}
// * * * * * * * * * * * * * * * * * * * * * * * * * * * * * * * * * * * * * //

dimensions      [0 3 -1 0 0 0 0];

oriented        oriented;

internalField   nonuniform List<scalar> 
14599
(
7.76249e-06
7.49743e-09
7.74964e-06
1.3669e-08
7.7435e-06
6.53941e-09
7.73938e-06
4.90614e-09
7.7359e-06
4.03805e-09
7.73236e-06
4.02164e-09
7.72902e-06
3.42828e-09
7.72575e-06
3.77442e-09
7.72268e-06
3.21544e-09
7.71957e-06
3.3656e-09
7.71744e-06
2.14186e-09
7.71531e-06
3.58804e-09
7.71238e-06
2.27861e-09
7.71005e-06
3.67647e-09
7.70778e-06
1.65893e-09
7.70547e-06
3.51494e-09
7.70286e-06
1.70096e-09
7.70047e-06
3.35513e-09
7.69809e-06
1.50092e-09
7.69665e-06
1.66853e-09
7.69475e-06
1.97799e-09
7.69327e-06
1.74053e-09
7.69201e-06
1.39437e-09
7.69055e-06
1.74443e-09
7.68962e-06
1.21502e-09
7.68872e-06
9.3556e-10
7.68739e-06
2.04545e-09
7.68651e-06
4.05571e-10
7.68558e-06
1.49998e-09
7.68515e-06
1.15114e-10
7.68491e-06
2.36496e-10
7.68464e-06
3.03094e-10
7.68506e-06
-2.995e-10
7.68565e-06
-5.45596e-10
7.6867e-06
-1.13388e-09
7.68758e-06
-3.37896e-10
7.68933e-06
-2.10546e-09
7.69084e-06
-9.48187e-10
7.69347e-06
-2.93323e-09
7.69641e-06
-2.88236e-09
7.69994e-06
-3.49683e-09
7.70468e-06
-4.8165e-09
7.70996e-06
-5.36431e-09
7.71605e-06
-6.14161e-09
7.72239e-06
-6.35261e-09
7.73035e-06
-7.75195e-09
7.74203e-06
-1.19144e-08
7.75812e-06
-1.61183e-08
7.77543e-06
-1.73546e-08
7.78922e-06
-1.37731e-08
7.79758e-06
-8.37889e-09
7.80698e-06
-9.45262e-09
7.83358e-06
-2.64583e-08
7.88941e-06
-5.59852e-08
7.97871e-06
-8.93117e-08
8.08162e-06
-1.02899e-07
8.15876e-06
-7.71839e-08
8.19754e-06
-3.87928e-08
8.18836e-06
9.16279e-09
8.15567e-06
3.27375e-08
8.22505e-06
-6.94575e-08
8.51337e-06
-2.88252e-07
9.10699e-06
-5.93684e-07
1.02701e-05
-1.1631e-06
1.24837e-05
-2.21366e-06
1.48624e-05
-2.37871e-06
1.40771e-05
7.85325e-07
7.94777e-06
6.12931e-06
-1.10528e-06
9.05305e-06
-5.67789e-06
4.57259e-06
-4.69355e-06
-9.84343e-07
2.88412e-06
2.70142e-05
3.22239e-08
2.69709e-05
5.84461e-08
2.69481e-05
3.01812e-08
2.69338e-05
2.05784e-08
2.69224e-05
1.64293e-08
2.69098e-05
1.7489e-08
2.68977e-05
1.57771e-08
2.68868e-05
1.55192e-08
2.68763e-05
1.40154e-08
2.6866e-05
1.41361e-08
2.6857e-05
1.12059e-08
2.68475e-05
1.53371e-08
2.68399e-05
9.06568e-09
2.68316e-05
1.40063e-08
2.68233e-05
9.16721e-09
2.68148e-05
1.38739e-08
2.68055e-05
9.68069e-09
2.6798e-05
1.22949e-08
2.67901e-05
8.15993e-09
2.67845e-05
7.73613e-09
2.6778e-05
8.59222e-09
2.67728e-05
7.45188e-09
2.67679e-05
6.52458e-09
2.67637e-05
6.45714e-09
2.67598e-05
5.6296e-09
2.67553e-05
5.43865e-09
2.67511e-05
7.34618e-09
2.67486e-05
2.29118e-09
2.67451e-05
5.85314e-09
2.6744e-05
8.29289e-10
2.67436e-05
6.30545e-10
2.67434e-05
5.62236e-10
2.67441e-05
-7.58838e-10
2.67473e-05
-3.74023e-09
2.675e-05
-3.89516e-09
2.67545e-05
-4.04473e-09
2.67609e-05
-8.95874e-09
2.67675e-05
-6.71568e-09
2.67756e-05
-1.14671e-08
2.67877e-05
-1.48011e-08
2.68004e-05
-1.62454e-08
2.68168e-05
-2.13134e-08
2.68365e-05
-2.51799e-08
2.68581e-05
-2.78532e-08
2.68822e-05
-3.04654e-08
2.69097e-05
-3.49009e-08
2.69511e-05
-5.36596e-08
2.70063e-05
-7.14249e-08
2.70668e-05
-7.78901e-08
2.71171e-05
-6.40211e-08
2.71498e-05
-4.11881e-08
2.71855e-05
-4.51746e-08
2.72746e-05
-1.15396e-07
2.74571e-05
-2.38735e-07
2.77488e-05
-3.81022e-07
2.80875e-05
-4.4157e-07
2.83538e-05
-3.43572e-07
2.85002e-05
-1.85163e-07
2.84921e-05
1.72008e-08
2.84059e-05
1.18982e-07
2.8622e-05
-2.85639e-07
2.9508e-05
-1.17411e-06
3.13546e-05
-2.44041e-06
3.49588e-05
-4.76734e-06
4.17164e-05
-8.97131e-06
4.9054e-05
-9.71623e-06
4.74708e-05
2.36844e-06
2.95155e-05
2.40847e-05
8.37792e-07
3.77307e-05
-1.5988e-05
2.13983e-05
-1.60043e-05
-9.6806e-07
1.23143e-05
5.27513e-05
7.27502e-08
5.26645e-05
1.46719e-07
5.26192e-05
7.6224e-08
5.25905e-05
5.0748e-08
5.25654e-05
4.24974e-08
5.2543e-05
4.08131e-08
5.25202e-05
3.86794e-08
5.24974e-05
3.92897e-08
5.24767e-05
3.49654e-08
5.24557e-05
3.56249e-08
5.24386e-05
2.83167e-08
5.24224e-05
3.39091e-08
5.24041e-05
2.6441e-08
5.2388e-05
3.22738e-08
5.23714e-05
2.48573e-08
5.2354e-05
3.32179e-08
5.2338e-05
2.42239e-08
5.23214e-05
3.04527e-08
5.23078e-05
2.03797e-08
5.22924e-05
2.36212e-08
5.2282e-05
1.90982e-08
5.22712e-05
1.87306e-08
5.22617e-05
1.6285e-08
5.22525e-05
1.6114e-08
5.22443e-05
1.43901e-08
5.22363e-05
1.34312e-08
5.22291e-05
1.5764e-08
5.22221e-05
8.51226e-09
5.22164e-05
1.24573e-08
5.22121e-05
4.66458e-09
5.22114e-05
1.36752e-09
5.22106e-05
1.39654e-09
5.22132e-05
-3.16128e-09
5.22182e-05
-8.63477e-09
5.22256e-05
-1.13833e-08
5.22334e-05
-1.10033e-08
5.22462e-05
-2.22998e-08
5.22591e-05
-1.87195e-08
5.22778e-05
-3.0638e-08
5.23005e-05
-3.73971e-08
5.23261e-05
-4.17885e-08
5.23604e-05
-5.57362e-08
5.23992e-05
-6.4092e-08
5.24433e-05
-7.2125e-08
5.24902e-05
-7.73415e-08
5.25476e-05
-9.19701e-08
5.2627e-05
-1.33424e-07
5.27342e-05
-1.78684e-07
5.28506e-05
-1.94374e-07
5.29539e-05
-1.67312e-07
5.30242e-05
-1.11521e-07
5.31004e-05
-1.21461e-07
5.32693e-05
-2.84111e-07
5.36077e-05
-5.77297e-07
5.41481e-05
-9.21491e-07
5.47813e-05
-1.07475e-06
5.53015e-05
-8.63824e-07
5.5608e-05
-4.91758e-07
5.56352e-05
-1.00255e-08
5.55152e-05
2.39071e-07
5.58934e-05
-6.63934e-07
5.74488e-05
-2.72941e-06
6.07086e-05
-5.70031e-06
6.70295e-05
-1.10882e-05
7.87441e-05
-2.0686e-05
9.17928e-05
-2.27649e-05
9.06295e-05
3.53168e-06
6.0954e-05
5.37601e-05
8.60684e-06
9.00779e-05
-2.69254e-05
5.69305e-05
-3.22173e-05
4.32386e-06
2.86762e-05
8.58243e-05
1.29274e-07
8.56852e-05
2.87749e-07
8.56074e-05
1.54929e-07
8.55602e-05
9.97316e-08
8.55206e-05
8.34434e-08
8.54802e-05
8.23344e-08
8.54437e-05
7.53649e-08
8.54088e-05
7.53105e-08
8.53741e-05
7.00208e-08
8.53379e-05
7.24187e-08
8.53086e-05
5.76655e-08
8.52818e-05
6.30759e-08
8.52541e-05
5.34695e-08
8.52275e-05
6.10286e-08
8.51989e-05
5.28568e-08
8.51702e-05
6.38039e-08
8.51437e-05
4.95297e-08
8.51176e-05
5.80551e-08
8.50915e-05
4.52103e-08
8.5071e-05
4.47135e-08
8.50502e-05
3.9992e-08
8.50315e-05
3.80294e-08
8.50138e-05
3.43611e-08
8.49997e-05
3.0855e-08
8.49847e-05
2.99187e-08
8.49728e-05
2.54741e-08
8.49584e-05
3.12593e-08
8.49486e-05
1.77794e-08
8.49393e-05
2.25784e-08
8.4933e-05
1.07049e-08
8.49308e-05
3.56027e-09
8.49296e-05
2.59535e-09
8.49331e-05
-6.33829e-09
8.49407e-05
-1.61837e-08
8.49533e-05
-2.41089e-08
8.4965e-05
-2.18322e-08
8.49864e-05
-4.41503e-08
8.50084e-05
-3.98394e-08
8.50383e-05
-6.09298e-08
8.50772e-05
-7.60923e-08
8.51209e-05
-8.54029e-08
8.51762e-05
-1.11232e-07
8.52401e-05
-1.28163e-07
8.53146e-05
-1.46704e-07
8.5393e-05
-1.55846e-07
8.54853e-05
-1.83993e-07
8.56168e-05
-2.65212e-07
8.57883e-05
-3.50253e-07
8.59814e-05
-3.87564e-07
8.61525e-05
-3.38373e-07
8.62789e-05
-2.37973e-07
8.64083e-05
-2.50988e-07
8.66747e-05
-5.50249e-07
8.71958e-05
-1.09865e-06
8.80266e-05
-1.75228e-06
8.90178e-05
-2.0659e-06
8.98607e-05
-1.70688e-06
9.03963e-05
-1.02734e-06
9.0514e-05
-1.2779e-07
9.03963e-05
3.56824e-07
9.09558e-05
-1.22356e-06
9.32004e-05
-4.97392e-06
9.79488e-05
-1.04487e-05
0.000107065
-2.0204e-05
0.00012374
-3.73615e-05
0.000142915
-4.19394e-05
0.000143713
2.73323e-06
0.000103686
9.37874e-05
2.46101e-05
0.000169154
-3.66466e-05
0.000118187
-5.23498e-05
2.00271e-05
5.26942e-05
0.00012695
1.95148e-07
0.000126753
4.8693e-07
0.000126632
2.76753e-07
0.000126559
1.74476e-07
0.0001265
1.43898e-07
0.000126442
1.41007e-07
0.000126384
1.33112e-07
0.000126331
1.29303e-07
0.000126277
1.24551e-07
0.000126228
1.21935e-07
0.000126184
1.01512e-07
0.000126142
1.08145e-07
0.000126101
9.38846e-08
0.000126059
1.04901e-07
0.000126018
9.31504e-08
0.000125976
1.07442e-07
0.000125933
9.14389e-08
0.000125896
9.67791e-08
0.000125856
8.35161e-08
0.000125825
7.63006e-08
0.000125794
7.07824e-08
0.000125766
6.69586e-08
0.00012574
6.01726e-08
0.000125716
5.5966e-08
0.000125694
5.25782e-08
0.000125674
4.49962e-08
0.000125652
5.44591e-08
0.000125638
3.1814e-08
0.00012562
4.13486e-08
0.000125609
2.07266e-08
0.000125605
8.28269e-09
0.000125604
3.1382e-09
0.000125609
-1.04946e-08
0.000125619
-2.65126e-08
0.000125632
-3.76759e-08
0.000125653
-4.20613e-08
0.000125684
-7.48304e-08
0.000125719
-7.39652e-08
0.000125763
-1.05538e-07
0.000125818
-1.31122e-07
0.000125885
-1.52005e-07
0.000125966
-1.93213e-07
0.000126064
-2.25877e-07
0.000126172
-2.5478e-07
0.000126291
-2.75225e-07
0.000126433
-3.25735e-07
0.000126624
-4.56622e-07
0.000126876
-6.02215e-07
0.000127161
-6.72321e-07
0.000127422
-5.98876e-07
0.000127623
-4.3932e-07
0.000127824
-4.51837e-07
0.000128205
-9.31631e-07
0.00012893
-1.82369e-06
0.000130083
-2.90537e-06
0.000131486
-3.46859e-06
0.000132726
-2.94687e-06
0.00013357
-1.87175e-06
0.00013386
-4.17649e-07
0.000133795
4.21599e-07
0.00013455
-1.97821e-06
0.000137474
-7.89864e-06
0.000143672
-1.66462e-05
0.000155463
-3.19949e-05
0.000176723
-5.86223e-05
0.000201923
-6.71393e-05
0.000206213
-1.55603e-06
0.000158695
0.000141305
5.16875e-05
0.000276161
-4.32235e-05
0.000213098
-7.62268e-05
5.30304e-05
8.5371e-05
0.000176671
2.54051e-07
0.000176399
7.61008e-07
0.00017623
4.4706e-07
0.000176122
2.84246e-07
0.000176036
2.32332e-07
0.000175954
2.23802e-07
0.000175877
2.10189e-07
0.000175802
2.06274e-07
0.000175731
1.96137e-07
0.000175655
1.9779e-07
0.000175597
1.6038e-07
0.000175536
1.70828e-07
0.000175476
1.53438e-07
0.000175419
1.64812e-07
0.000175361
1.50451e-07
0.000175302
1.68568e-07
0.000175247
1.4511e-07
0.000175187
1.58167e-07
0.000175134
1.35329e-07
0.000175084
1.27242e-07
0.00017504
1.14913e-07
0.000175003
1.05078e-07
0.000174965
9.83576e-08
0.000174929
9.26878e-08
0.000174896
8.58411e-08
0.000174864
7.70689e-08
0.000174836
8.40793e-08
0.000174811
5.66454e-08
0.000174788
6.44649e-08
0.000174772
3.72512e-08
0.000174764
1.58971e-08
0.00017476
7.36741e-09
0.000174761
-1.11156e-08
0.000174778
-4.34986e-08
0.000174797
-5.67912e-08
0.000174826
-7.00902e-08
0.000174864
-1.13212e-07
0.000174908
-1.17545e-07
0.000174969
-1.66534e-07
0.000175046
-2.08473e-07
0.000175139
-2.44306e-07
0.000175254
-3.08731e-07
0.000175385
-3.56576e-07
0.000175539
-4.09186e-07
0.000175708
-4.44669e-07
0.000175903
-5.20448e-07
0.000176166
-7.19956e-07
0.000176509
-9.45431e-07
0.000176901
-1.06385e-06
0.000177272
-9.70092e-07
0.000177566
-7.33296e-07
0.000177859
-7.45118e-07
0.000178371
-1.44311e-06
0.000179315
-2.76789e-06
0.000180814
-4.40505e-06
0.00018266
-5.31441e-06
0.00018436
-4.64707e-06
0.000185597
-3.10825e-06
0.000186154
-9.74876e-07
0.000186221
3.54482e-07
0.000187199
-2.95617e-06
0.000190745
-1.14447e-05
0.000198268
-2.41691e-05
0.000212422
-4.6149e-05
0.000237593
-8.37929e-05
0.000268228
-9.77751e-05
0.00027714
-1.04678e-05
0.000226017
0.000192429
9.26854e-05
0.000409492
-4.41185e-05
0.000349902
-0.00010328
0.000112192
0.000127729
0.000235368
2.91588e-07
0.000235028
1.10337e-06
0.000234791
6.84325e-07
0.000234639
4.3868e-07
0.000234526
3.47028e-07
0.000234419
3.3131e-07
0.000234311
3.18544e-07
0.000234211
3.08016e-07
0.000234113
2.94299e-07
0.000234017
2.94146e-07
0.000233929
2.48622e-07
0.000233852
2.50154e-07
0.00023377
2.3542e-07
0.000233693
2.43015e-07
0.000233618
2.25017e-07
0.000233536
2.52947e-07
0.000233456
2.23585e-07
0.000233384
2.31198e-07
0.000233309
2.09583e-07
0.000233243
1.94116e-07
0.00023318
1.78223e-07
0.000233123
1.62636e-07
0.00023307
1.51475e-07
0.000233021
1.41946e-07
0.000232979
1.29016e-07
0.000232934
1.2194e-07
0.000232891
1.27838e-07
0.000232853
9.45305e-08
0.00023282
9.78499e-08
0.000232796
6.17311e-08
0.000232781
3.08287e-08
0.000232771
1.76533e-08
0.000232774
-1.4357e-08
0.000232786
-5.57711e-08
0.000232812
-8.25949e-08
0.000232843
-1.00189e-07
0.000232895
-1.65537e-07
0.000232955
-1.76678e-07
0.000233032
-2.43714e-07
0.00023313
-3.0672e-07
0.000233247
-3.60978e-07
0.000233395
-4.57438e-07
0.000233572
-5.33764e-07
0.000233774
-6.11326e-07
0.000233994
-6.64147e-07
0.000234252
-7.7868e-07
0.000234594
-1.06242e-06
0.000235037
-1.38774e-06
0.000235549
-1.57572e-06
0.000236041
-1.46299e-06
0.000236455
-1.14677e-06
0.000236857
-1.14752e-06
0.000237512
-2.09764e-06
0.000238675
-3.93077e-06
0.000240516
-6.24689e-06
0.000242833
-7.63096e-06
0.000245034
-6.84781e-06
0.000246737
-4.81154e-06
0.000247651
-1.88922e-06
0.000247957
4.81694e-08
0.000249191
-4.18963e-06
0.000253281
-1.55347e-05
0.000261925
-3.2813e-05
0.000278032
-6.22563e-05
0.00030629
-0.000112051
0.000341448
-0.000132933
0.000355346
-2.43655e-05
0.000304831
0.000242943
0.000150098
0.000564225
-3.59449e-05
0.000535945
-0.000131862
0.00020811
0.00018001
0.00030336
2.94027e-07
0.00030295
1.51616e-06
0.000302642
9.93236e-07
0.000302441
6.42668e-07
0.000302291
4.98723e-07
0.000302148
4.7654e-07
0.000302012
4.54636e-07
0.00030188
4.41084e-07
0.000301755
4.2053e-07
0.00030163
4.19356e-07
0.000301516
3.63294e-07
0.000301411
3.56879e-07
0.000301308
3.38645e-07
0.000301207
3.4616e-07
0.000301102
3.2986e-07
0.000301005
3.51865e-07
0.000300902
3.26181e-07
0.0003008
3.34599e-07
0.000300701
3.07062e-07
0.000300611
2.84997e-07
0.00030053
2.60079e-07
0.000300448
2.4471e-07
0.000300376
2.24496e-07
0.000300309
2.09796e-07
0.000300248
1.90789e-07
0.000300189
1.8102e-07
0.000300128
1.90212e-07
0.000300077
1.45023e-07
0.000300031
1.44359e-07
0.000299993
9.9578e-08
0.000299965
5.89816e-08
0.000299948
3.44788e-08
0.000299944
-9.37809e-09
0.000299955
-6.64605e-08
0.000299976
-1.04626e-07
0.000300012
-1.34409e-07
0.000300066
-2.20372e-07
0.00030014
-2.50186e-07
0.000300231
-3.34016e-07
0.000300349
-4.24812e-07
0.000300497
-5.08584e-07
0.000300676
-6.36805e-07
0.000300897
-7.55719e-07
0.000301144
-8.5757e-07
0.00030142
-9.40193e-07
0.000301744
-1.10301e-06
0.000302163
-1.48155e-06
0.000302714
-1.93832e-06
0.000303351
-2.21359e-06
0.000303981
-2.09316e-06
0.000304524
-1.68948e-06
0.00030505
-1.67304e-06
0.000305846
-2.8938e-06
0.000307231
-5.31612e-06
0.000309403
-8.41943e-06
0.000312171
-1.03982e-05
0.000314889
-9.56635e-06
0.000317113
-7.03524e-06
0.000318479
-3.25543e-06
0.000319104
-5.77019e-07
0.000320643
-5.72834e-06
0.000325223
-2.01148e-05
0.000334765
-4.23549e-05
0.000352351
-7.98428e-05
0.000382868
-0.000142568
0.000421562
-0.000171627
0.000439907
-4.27111e-05
0.000393587
0.000289263
0.000225361
0.000732452
-1.47995e-05
0.000776105
-0.000158292
0.000351602
0.000243607
0.000381006
2.36606e-07
0.000380536
1.98899e-06
0.000380146
1.38458e-06
0.00037988
9.10767e-07
0.000379683
6.97705e-07
0.000379508
6.52737e-07
0.000379334
6.28227e-07
0.000379166
6.10819e-07
0.000379004
5.82897e-07
0.000378845
5.79615e-07
0.000378702
5.05812e-07
0.000378567
4.93961e-07
0.000378434
4.71478e-07
0.000378304
4.78423e-07
0.000378178
4.55634e-07
0.000378042
4.89155e-07
0.000377913
4.54642e-07
0.000377786
4.62793e-07
0.000377657
4.35318e-07
0.00037754
4.02148e-07
0.000377426
3.74791e-07
0.000377325
3.46687e-07
0.000377227
3.22495e-07
0.000377134
3.03617e-07
0.000377046
2.79616e-07
0.000376966
2.60898e-07
0.000376885
2.7227e-07
0.000376815
2.14309e-07
0.000376742
2.18621e-07
0.000376688
1.52985e-07
0.000376645
1.02683e-07
0.000376612
6.76164e-08
0.000376594
8.59943e-09
0.000376592
-6.45497e-08
0.000376606
-1.18924e-07
0.000376641
-1.68797e-07
0.000376698
-2.77407e-07
0.000376772
-3.23577e-07
0.000376877
-4.38883e-07
0.000377005
-5.52247e-07
0.000377171
-6.7528e-07
0.000377384
-8.49346e-07
0.000377636
-1.00785e-06
0.000377931
-1.15301e-06
0.000378262
-1.27103e-06
0.000378645
-1.48644e-06
0.000379143
-1.97929e-06
0.000379785
-2.58014e-06
0.000380548
-2.97713e-06
0.000381318
-2.86328e-06
0.000381994
-2.36496e-06
0.000382647
-2.32643e-06
0.000383593
-3.83948e-06
0.000385165
-6.889e-06
0.000387644
-1.08986e-05
0.000390829
-1.35824e-05
0.000394056
-1.27933e-05
0.000396813
-9.7928e-06
0.000398684
-5.12676e-06
0.000399715
-1.60762e-06
0.000401613
-7.62675e-06
0.000406626
-2.51271e-05
0.000416857
-5.25859e-05
0.000435482
-9.84683e-05
0.00046752
-0.000174605
0.000508906
-0.000213013
0.000530096
-6.39011e-05
0.00049049
0.000328869
0.000318353
0.000904589
2.43159e-05
0.00107014
-0.000177656
0.000553574
0.000322728
0.000468745
1.30484e-07
0.000468244
2.49408e-06
0.000467773
1.85676e-06
0.000467435
1.25256e-06
0.000467182
9.53028e-07
0.000466956
8.80439e-07
0.000466741
8.44179e-07
0.000466534
8.19156e-07
0.000466336
7.81551e-07
0.000466138
7.78979e-07
0.000465954
6.89224e-07
0.000465779
6.71538e-07
0.000465611
6.4056e-07
0.000465453
6.38718e-07
0.000465283
6.25536e-07
0.000465119
6.54795e-07
0.000464952
6.21189e-07
0.000464787
6.29389e-07
0.000464628
5.93088e-07
0.000464467
5.63689e-07
0.000464324
5.189e-07
0.000464182
4.89649e-07
0.000464053
4.51931e-07
0.000463926
4.31882e-07
0.00046381
3.95811e-07
0.000463692
3.79416e-07
0.000463585
3.80652e-07
0.000463478
3.20817e-07
0.000463385
3.12384e-07
0.000463294
2.43943e-07
0.000463226
1.70845e-07
0.000463168
1.2549e-07
0.000463125
5.28225e-08
0.000463107
-4.65006e-08
0.000463101
-1.13216e-07
0.000463117
-1.84343e-07
0.000463163
-3.2341e-07
0.000463231
-3.90592e-07
0.000463329
-5.36763e-07
0.000463461
-6.84578e-07
0.00046364
-8.54108e-07
0.000463864
-1.07337e-06
0.000464143
-1.28741e-06
0.000464473
-1.48266e-06
0.000464839
-1.6373e-06
0.000465271
-1.91897e-06
0.000465828
-2.5357e-06
0.000466558
-3.31082e-06
0.000467427
-3.84609e-06
0.000468314
-3.75052e-06
0.000469121
-3.17172e-06
0.000469895
-3.10094e-06
0.000470974
-4.91835e-06
0.000472725
-8.63923e-06
0.000475445
-1.36194e-05
0.000479001
-1.71382e-05
0.000482673
-1.64657e-05
0.000485944
-1.30632e-05
0.000488335
-7.51751e-06
0.00048981
-3.08306e-06
0.000492097
-9.91387e-06
0.000497514
-3.05437e-05
0.000508262
-6.33346e-05
0.000527544
-0.00011775
0.000560492
-0.000207554
0.000603895
-0.000256416
0.000626325
-8.63311e-05
0.00059378
0.000361414
0.000427791
0.00107058
8.66024e-05
0.00141133
-0.000184865
0.000825041
0.000424207
0.00056719
-2.10236e-08
0.000566671
3.01587e-06
0.000566123
2.40602e-06
0.000565705
1.67322e-06
0.000565391
1.26934e-06
0.000565116
1.15712e-06
0.00056485
1.11028e-06
0.000564593
1.07797e-06
0.000564337
1.03779e-06
0.000564098
1.01918e-06
0.000563866
9.21634e-07
0.000563647
8.92314e-07
0.000563434
8.54202e-07
0.000563228
8.45739e-07
0.000563023
8.31554e-07
0.000562817
8.61648e-07
0.000562604
8.33423e-07
0.000562396
8.39329e-07
0.000562188
7.99533e-07
0.000561987
7.6611e-07
0.000561791
7.15277e-07
0.000561607
6.74351e-07
0.000561424
6.34781e-07
0.000561257
5.99646e-07
0.000561093
5.60821e-07
0.000560934
5.38583e-07
0.000560785
5.308e-07
0.000560637
4.68296e-07
0.000560492
4.58593e-07
0.000560364
3.72222e-07
0.000560249
2.85508e-07
0.00056015
2.24725e-07
0.000560068
1.3488e-07
0.000560004
1.78617e-08
0.000559966
-7.57222e-08
0.000559953
-1.70949e-07
0.000559966
-3.36162e-07
0.000560001
-4.24984e-07
0.00056008
-6.16293e-07
0.000560195
-7.98798e-07
0.00056035
-1.00907e-06
0.000560573
-1.29631e-06
0.000560853
-1.56766e-06
0.000561186
-1.81643e-06
0.000561567
-2.0183e-06
0.000562022
-2.37372e-06
0.000562617
-3.13056e-06
0.000563397
-4.09085e-06
0.000564343
-4.79278e-06
0.000565326
-4.73281e-06
0.000566234
-4.08016e-06
0.0005671
-3.9675e-06
0.000568285
-6.10289e-06
0.000570158
-1.0512e-05
0.00057307
-1.65322e-05
0.000576911
-2.09793e-05
0.000580955
-2.05096e-05
0.000584667
-1.67746e-05
0.000587546
-1.03974e-05
0.000589448
-4.98442e-06
0.000592124
-1.25904e-05
0.000597902
-3.63214e-05
0.000609023
-7.4456e-05
0.00062868
-0.000137407
0.00066208
-0.000240953
0.000706845
-0.000301182
0.000730232
-0.000109718
0.000703221
0.000388425
0.000551544
0.00122225
0.000179061
0.00178381
-0.000170763
0.00117486
0.000562065
0.000677052
-1.54159e-07
0.000676551
3.52045e-06
0.000675968
2.99189e-06
0.000675472
2.17288e-06
0.000675078
1.6659e-06
0.000674739
1.49933e-06
0.000674413
1.43607e-06
0.000674091
1.40238e-06
0.000673787
1.34286e-06
0.000673481
1.32599e-06
0.000673193
1.21034e-06
0.000672912
1.17548e-06
0.000672651
1.11643e-06
0.000672379
1.11953e-06
0.000672127
1.08501e-06
0.000671864
1.12576e-06
0.0006716
1.0977e-06
0.000671335
1.10511e-06
0.000671064
1.07015e-06
0.000670805
1.02626e-06
0.000670543
9.77749e-07
0.0006703
9.18617e-07
0.000670055
8.79975e-07
0.000669819
8.37064e-07
0.000669594
7.86939e-07
0.00066938
7.53059e-07
0.000669154
7.56973e-07
0.000668945
6.7805e-07
0.000668744
6.6024e-07
0.000668549
5.67032e-07
0.00066837
4.65067e-07
0.000668201
3.9374e-07
0.000668055
2.81025e-07
0.000667925
1.47735e-07
0.000667821
2.85632e-08
0.000667744
-9.27279e-08
0.000667698
-2.90648e-07
0.000667685
-4.1072e-07
0.000667704
-6.3537e-07
0.000667759
-8.54207e-07
0.000667874
-1.12387e-06
0.000668048
-1.46995e-06
0.000668292
-1.81268e-06
0.000668595
-2.11926e-06
0.000668952
-2.3754e-06
0.000669385
-2.80626e-06
0.000669969
-3.71507e-06
0.000670762
-4.88409e-06
0.000671729
-5.75989e-06
0.000672761
-5.76452e-06
0.000673715
-5.03436e-06
0.000674631
-4.88409e-06
0.000675865
-7.33677e-06
0.000677806
-1.24527e-05
0.000680834
-1.95607e-05
0.000684872
-2.50163e-05
0.000689169
-2.48072e-05
0.000693211
-2.08162e-05
0.000696475
-1.36618e-05
0.000698743
-7.25251e-06
0.000701757
-1.5604e-05
0.000707831
-4.23961e-05
0.00071922
-8.58451e-05
0.000739049
-0.000157235
0.000772617
-0.000274521
0.000818279
-0.000346843
0.000842662
-0.000134101
0.000819505
0.000411582
0.000685931
0.00135583
0.000305062
0.00216468
-0.000128447
0.00160837
0.000759554
0.000799211
-2.30181e-07
0.000798749
3.98576e-06
0.000798148
3.59459e-06
0.000797607
2.71772e-06
0.000797143
2.13186e-06
0.000796727
1.91731e-06
0.000796327
1.83714e-06
0.000795942
1.78912e-06
0.000795561
1.72465e-06
0.000795189
1.69838e-06
0.000794823
1.57644e-06
0.000794473
1.52791e-06
0.000794128
1.46251e-06
0.000793799
1.44984e-06
0.000793467
1.41843e-06
0.000793133
1.46094e-06
0.000792796
1.43433e-06
0.000792454
1.44769e-06
0.000792114
1.40908e-06
0.000791766
1.37521e-06
0.000791431
1.31301e-06
0.000791095
1.25637e-06
0.000790772
1.20264e-06
0.000790448
1.16297e-06
0.000790129
1.10654e-06
0.000789813
1.06947e-06
0.000789515
1.05542e-06
0.000789215
9.77844e-07
0.000788914
9.6225e-07
0.000788625
8.55926e-07
0.000788342
7.4859e-07
0.000788083
6.5273e-07
0.000787828
5.36636e-07
0.000787603
3.7211e-07
0.000787395
2.36231e-07
0.000787212
9.10972e-08
0.000787061
-1.39452e-07
0.000786944
-2.93383e-07
0.000786865
-5.55763e-07
0.000786824
-8.1353e-07
0.000786835
-1.13415e-06
0.000786915
-1.55048e-06
0.000787071
-1.9689e-06
0.000787287
-2.3353e-06
0.000787559
-2.64765e-06
0.000787918
-3.16583e-06
0.000788425
-4.22135e-06
0.000789153
-5.61301e-06
0.000790085
-6.69164e-06
0.00079108
-6.75931e-06
0.000792017
-5.97106e-06
0.000792901
-5.76866e-06
0.000794118
-8.55412e-06
0.000796042
-1.43759e-05
0.000799096
-2.26151e-05
0.00080323
-2.91502e-05
0.000807657
-2.92349e-05
0.000811909
-2.50682e-05
0.000815444
-1.71961e-05
0.000817953
-9.7618e-06
0.000821204
-1.88555e-05
0.000827495
-4.86868e-05
0.00083908
-9.74297e-05
0.000858985
-0.000177141
0.000892594
-0.00030813
0.000938871
-0.00039312
0.000963806
-0.000159037
0.000943642
0.000431747
0.000828201
0.00147127
0.000460676
0.00253221
-5.39288e-05
0.00212298
0.00104129
0.000934566
-5.03461e-06
0.000934629
-2.87503e-07
0.000934236
4.38352e-06
0.000933689
4.14413e-06
0.000933119
3.29277e-06
0.000932585
2.66949e-06
0.000932104
2.40089e-06
0.000931628
2.31391e-06
0.000931152
2.26807e-06
0.000930684
2.19325e-06
0.000930223
2.16155e-06
0.000929772
2.02749e-06
0.000929327
1.97612e-06
0.000928888
1.90201e-06
0.00092846
1.88108e-06
0.000928033
1.84584e-06
0.000927612
1.88351e-06
0.00092718
1.8663e-06
0.000926743
1.88659e-06
0.0009263
1.85073e-06
0.000925851
1.82614e-06
0.000925401
1.76287e-06
0.000924951
1.70833e-06
0.000924503
1.65057e-06
0.000924063
1.60557e-06
0.000923621
1.54894e-06
0.000923193
1.49783e-06
0.000922753
1.49669e-06
0.000922321
1.40975e-06
0.000921897
1.38778e-06
0.000921472
1.28142e-06
0.000921051
1.1691e-06
0.000920641
1.06259e-06
0.000920247
9.31955e-07
0.000919862
7.57285e-07
0.000919501
5.96524e-07
0.00091916
4.3284e-07
0.000918853
1.67276e-07
0.000918575
-1.42945e-08
0.000918334
-3.14799e-07
0.000918129
-6.07336e-07
0.000917984
-9.89788e-07
0.000917898
-1.46389e-06
0.000917888
-1.9597e-06
0.00091794
-2.38801e-06
0.000918058
-2.7654e-06
0.000918254
-3.36212e-06
0.000918611
-4.57768e-06
0.000919191
-6.19316e-06
0.000919992
-7.49346e-06
0.00092087
-7.63684e-06
0.000921688
-6.78904e-06
0.000922456
-6.53687e-06
0.000923556
-9.65386e-06
0.000925383
-1.62034e-05
0.000928359
-2.55906e-05
0.000932474
-3.32659e-05
0.000936934
-3.3695e-05
0.000941259
-2.93931e-05
0.000944932
-2.08692e-05
0.000947558
-1.23876e-05
0.000950938
-2.22358e-05
0.000957368
-5.51168e-05
0.000969111
-0.000109173
0.000989117
-0.000197147
0.00102289
-0.000341901
0.00106953
-0.000439757
0.00109442
-0.00018393
0.00107508
0.000451089
0.000974891
0.00157146
0.000639738
0.00286736
6.0635e-05
0.00270208
0.00142455
0.00108439
-5.56147e-06
0.00108437
-2.67491e-07
0.00108408
4.67905e-06
0.00108361
4.61471e-06
0.00108306
3.84427e-06
0.00108252
3.22014e-06
0.00108197
2.94914e-06
0.00108142
2.86609e-06
0.00108086
2.82811e-06
0.0010803
2.75683e-06
0.00107973
2.72898e-06
0.00107917
2.59043e-06
0.00107861
2.53949e-06
0.00107805
2.45762e-06
0.0010775
2.43263e-06
0.00107695
2.39779e-06
0.0010764
2.4378e-06
0.00107585
2.42029e-06
0.00107528
2.45317e-06
0.0010747
2.42613e-06
0.00107412
2.41047e-06
0.00107353
2.3572e-06
0.00107293
2.30843e-06
0.00107233
2.2497e-06
0.00107173
2.21072e-06
0.00107112
2.15683e-06
0.00107051
2.10333e-06
0.00106991
2.1054e-06
0.0010693
2.01897e-06
0.00106868
2.00762e-06
0.00106807
1.89288e-06
0.00106745
1.78458e-06
0.00106684
1.67275e-06
0.00106624
1.5376e-06
0.00106565
1.34449e-06
0.00106506
1.1839e-06
0.0010645
9.90353e-07
0.00106396
7.07531e-07
0.00106345
5.02332e-07
0.00106297
1.62243e-07
0.00106253
-1.65374e-07
0.00106213
-5.9433e-07
0.0010618
-1.13264e-06
0.00106155
-1.70362e-06
0.00106136
-2.19898e-06
0.00106122
-2.62779e-06
0.00106117
-3.30875e-06
0.00106127
-4.68563e-06
0.00106162
-6.54018e-06
0.0010622
-8.07417e-06
0.00106286
-8.29772e-06
0.00106346
-7.3914e-06
0.001064
-7.0761e-06
0.0010649
-1.05476e-05
0.00106652
-1.78229e-05
0.00106933
-2.84022e-05
0.00107334
-3.72829e-05
0.00107773
-3.80854e-05
0.00108204
-3.37003e-05
0.00108574
-2.45702e-05
0.0010884
-1.50446e-05
0.00109183
-2.56655e-05
0.00109837
-6.16581e-05
0.00111033
-0.000121128
0.00113061
-0.00021743
0.00116474
-0.000376036
0.00121147
-0.000486486
0.00123624
-0.0002087
0.0012156
0.000471735
0.00112686
0.00166019
0.00084008
0.00315414
0.000230889
0.00331127
0.00191992
0.00124964
-5.9689e-06
0.00124966
-2.80641e-07
0.00124946
4.88173e-06
0.00124911
4.97421e-06
0.00124863
4.32378e-06
0.0012481
3.75691e-06
0.00124754
3.51727e-06
0.00124694
3.46351e-06
0.0012463
3.4747e-06
0.00124563
3.42808e-06
0.00124495
3.40676e-06
0.00124426
3.28387e-06
0.00124357
3.23208e-06
0.00124287
3.16111e-06
0.00124215
3.14938e-06
0.00124145
3.10068e-06
0.00124074
3.15175e-06
0.00124002
3.13585e-06
0.00123929
3.18649e-06
0.00123855
3.16971e-06
0.00123778
3.17588e-06
0.00123701
3.13324e-06
0.00123621
3.10571e-06
0.00123541
3.05297e-06
0.00123459
3.02872e-06
0.00123377
2.97932e-06
0.00123293
2.94192e-06
0.0012321
2.94305e-06
0.00123125
2.86975e-06
0.00123039
2.86261e-06
0.00122953
2.75372e-06
0.00122866
2.66007e-06
0.00122779
2.54451e-06
0.00122691
2.41551e-06
0.00122603
2.2267e-06
0.00122516
2.05218e-06
0.00122429
1.86036e-06
0.00122345
1.55048e-06
0.00122262
1.32863e-06
0.00122183
9.56921e-07
0.00122104
6.16383e-07
0.00122032
1.28126e-07
0.00121965
-4.6457e-07
0.00121906
-1.1132e-06
0.00121853
-1.66676e-06
0.00121805
-2.15122e-06
0.00121765
-2.90628e-06
0.00121742
-4.45485e-06
0.00121745
-6.56634e-06
0.0012177
-8.33223e-06
0.00121805
-8.64171e-06
0.00121835
-7.69416e-06
0.00121857
-7.29931e-06
0.00121916
-1.11346e-05
0.0012205
-1.91625e-05
0.00122308
-3.0986e-05
0.00122695
-4.11491e-05
0.00123122
-4.23591e-05
0.00123547
-3.79423e-05
0.00123916
-2.82676e-05
0.00124178
-1.76626e-05
0.00124523
-2.91159e-05
0.00125194
-6.83661e-05
0.00126426
-0.000133451
0.00128512
-0.000238289
0.0013199
-0.000410817
0.00136692
-0.000533503
0.00139145
-0.000233229
0.00136659
0.00049659
0.0012852
0.00174158
0.00105231
0.00338704
0.00046425
0.00389933
0.00252242
0.00143183
-6.24709e-06
0.00143185
-3.01288e-07
0.00143171
5.03047e-06
0.00143145
5.23935e-06
0.00143107
4.70451e-06
0.00143062
4.21642e-06
0.00143009
4.05011e-06
0.00142947
4.07614e-06
0.00142878
4.16834e-06
0.00142804
4.17504e-06
0.00142724
4.20184e-06
0.00142643
4.09924e-06
0.00142558
4.08682e-06
0.0014247
4.0336e-06
0.00142382
4.03579e-06
0.00142292
4.00131e-06
0.00142201
4.06052e-06
0.00142109
4.06161e-06
0.00142015
4.12422e-06
0.00141919
4.13225e-06
0.00141821
4.15718e-06
0.0014172
4.14063e-06
0.00141617
4.13964e-06
0.00141511
4.11117e-06
0.00141403
4.10999e-06
0.00141294
4.0747e-06
0.00141182
4.05342e-06
0.00141069
4.08095e-06
0.00140954
4.02133e-06
0.00140836
4.03534e-06
0.00140717
3.94313e-06
0.00140598
3.85622e-06
0.00140476
3.76156e-06
0.00140354
3.63968e-06
0.0014023
3.46355e-06
0.00140106
3.28985e-06
0.00139983
3.09722e-06
0.00139859
2.78537e-06
0.00139737
2.55459e-06
0.00139617
2.15679e-06
0.00139499
1.79801e-06
0.00139384
1.27574e-06
0.00139275
6.21153e-07
0.00139173
-9.23891e-08
0.00139077
-7.10551e-07
0.00138986
-1.2387e-06
0.00138904
-2.08426e-06
0.00138839
-3.80675e-06
0.00138801
-6.18438e-06
0.00138789
-8.21399e-06
0.00138785
-8.5992e-06
0.00138776
-7.60782e-06
0.00138763
-7.1636e-06
0.00138782
-1.13296e-05
0.00138881
-2.01478e-05
0.00139117
-3.33474e-05
0.0013949
-4.48787e-05
0.00139907
-4.65355e-05
0.00140324
-4.21054e-05
0.0014069
-3.19346e-05
0.00140955