/*--------------------------------*- C++ -*----------------------------------*\
| =========                 |                                                 |
| \\      /  F ield         | OpenFOAM: The Open Source CFD Toolbox           |
|  \\    /   O peration     | Version:  2412                                  |
|   \\  /    A nd           | Website:  www.openfoam.com                      |
|    \\/     M anipulation  |                                                 |
\*---------------------------------------------------------------------------*/
FoamFile
{
    version     2.0;
    format      ascii;
    arch        "LSB;label=32;scalar=64";
    class       volVectorField;
    location    "100";
    object      U;
}
// * * * * * * * * * * * * * * * * * * * * * * * * * * * * * * * * * * * * * //

dimensions      [0 1 -1 0 0 0 0];

internalField   nonuniform List<vector> 
7387
(
(0.380569 -0.10941 1.07878e-18)
(0.38483 -0.111146 -2.83024e-25)
(0.389124 -0.112883 -9.89596e-19)
(0.393278 -0.114583 0)
(0.397168 -0.116203 -8.97994e-19)
(0.400754 -0.117732 -4.22168e-25)
(0.404024 -0.119165 0)
(0.406981 -0.120503 0)
(0.40964 -0.121749 -1.40693e-18)
(0.412023 -0.122907 -6.51579e-19)
(0.414153 -0.123983 2.67941e-25)
(0.416052 -0.124985 -2.7606e-25)
(0.417718 -0.125916 -2.42718e-19)
(0.419175 -0.12677 0)
(0.420459 -0.127566 1.81827e-19)
(0.421567 -0.128301 -1.4942e-19)
(0.422511 -0.128978 0)
(0.423302 -0.1296 8.02114e-20)
(0.423964 -0.130172 3.76753e-26)
(0.424515 -0.1307 2.30644e-26)
(0.424953 -0.131185 0)
(0.425277 -0.131624 0)
(0.425511 -0.132025 0)
(0.425645 -0.132385 -8.63895e-20)
(0.425687 -0.132704 1.11747e-19)
(0.425647 -0.132988 1.38635e-19)
(0.425507 -0.133232 -1.6719e-19)
(0.425273 -0.133434 4.24705e-26)
(0.424947 -0.133596 -2.29933e-19)
(0.424527 -0.133718 5.26516e-25)
(0.424007 -0.133797 -1.50696e-19)
(0.423384 -0.133833 1.70449e-19)
(0.422665 -0.133826 3.83242e-19)
(0.421846 -0.13378 -8.41257e-25)
(0.420926 -0.133688 8.87223e-25)
(0.419907 -0.133557 -5.30095e-19)
(0.418791 -0.133382 -2.9336e-19)
(0.417579 -0.133169 0)
(0.416277 -0.132916 7.05637e-26)
(0.414878 -0.132625 -1.52398e-24)
(0.413395 -0.132294 1.618e-24)
(0.411865 -0.131937 0)
(0.410295 -0.131559 0)
(0.408645 -0.131155 1.41791e-19)
(0.406858 -0.130709 -2.39667e-24)
(0.404992 -0.13022 1.6954e-19)
(0.403256 -0.12974 1.85221e-19)
(0.401866 -0.129339 -3.11658e-24)
(0.400739 -0.12904 -1.10194e-19)
(0.399294 -0.128716 -1.20012e-19)
(0.397148 -0.128231 0)
(0.394227 -0.12749 4.38192e-24)
(0.392067 -0.126784 -4.68804e-24)
(0.392255 -0.126619 8.41937e-20)
(0.395392 -0.12723 1.86673e-26)
(0.401448 -0.128881 9.83709e-20)
(0.406248 -0.130722 1.0553e-19)
(0.406576 -0.131685 0)
(0.40287 -0.131787 0)
(0.392732 -0.129981 -6.52429e-20)
(0.382517 -0.127124 8.66958e-24)
(0.384782 -0.126953 7.59016e-20)
(0.40372 -0.130978 0)
(0.441405 -0.139635 4.26742e-20)
(0.513271 -0.157181 0)
(0.640344 -0.199252 -1.12155e-23)
(0.615818 -0.23255 4.06749e-20)
(0.304492 -0.156845 8.23023e-25)
(-0.0721019 0.0547147 -5.19638e-20)
(-0.172973 0.184541 0)
(-0.0148017 0.0206191 -1.81147e-23)
(-0.00321703 0.00698207 3.16992e-23)
(1.18789 -0.341414 -1.79512e-18)
(1.201 -0.346758 3.44202e-18)
(1.21431 -0.352157 1.64604e-18)
(1.22727 -0.357454 -7.75695e-25)
(1.23947 -0.362526 0)
(1.25077 -0.367329 -6.4708e-25)
(1.26109 -0.371838 5.51757e-26)
(1.27047 -0.376057 5.56116e-26)
(1.27892 -0.379993 2.33711e-18)
(1.28652 -0.383656 1.08202e-18)
(1.2933 -0.387062 0)
(1.29934 -0.390228 0)
(1.30468 -0.393166 0)
(1.30937 -0.395882 0)
(1.31349 -0.398402 0)
(1.31705 -0.400728 2.0494e-25)
(1.32009 -0.402875 -3.62739e-25)
(1.32267 -0.404846 -1.31223e-19)
(1.32484 -0.40667 0)
(1.32665 -0.408346 2.78836e-26)
(1.3281 -0.409892 6.44151e-26)
(1.3292 -0.411291 -9.71082e-26)
(1.33002 -0.412569 -2.35025e-25)
(1.33052 -0.413722 -1.45822e-19)
(1.33074 -0.41475 -1.88187e-19)
(1.33069 -0.415662 2.33082e-19)
(1.33033 -0.416448 2.80768e-19)
(1.3297 -0.41711 5.97122e-25)
(1.32877 -0.417648 3.85504e-19)
(1.32756 -0.418059 -2.2157e-19)
(1.32604 -0.418341 2.52369e-19)
(1.32419 -0.418487 -2.85328e-19)
(1.32205 -0.418502 -3.20645e-19)
(1.31959 -0.418388 0)
(1.31682 -0.41814 0)
(1.31375 -0.417763 3.62385e-24)
(1.31038 -0.417259 2.4513e-19)
(1.30672 -0.41663 -2.10656e-24)
(1.30276 -0.415879 2.98038e-19)
(1.29851 -0.415009 0)
(1.29401 -0.414021 3.59835e-19)
(1.28935 -0.412945 3.94596e-19)
(1.28457 -0.411805 0)
(1.27955 -0.410588 2.36487e-19)
(1.27413 -0.409243 2.58586e-19)
(1.26845 -0.407772 2.82593e-19)
(1.26315 -0.406312 -3.08637e-19)
(1.25888 -0.405085 1.68389e-19)
(1.25539 -0.404162 -5.54802e-24)
(1.25102 -0.40319 6.15217e-24)
(1.24459 -0.401759 -2.17455e-19)
(1.23588 -0.399578 7.1629e-24)
(1.22931 -0.397449 -1.28838e-19)
(1.22957 -0.396864 0)
(1.23856 -0.398551 1.51595e-19)
(1.25622 -0.403313 -1.63424e-19)
(1.27059 -0.408823 0)
(1.27213 -0.411935 9.39739e-20)
(1.2617 -0.412536 -1.23652e-23)
(1.2325 -0.407641 2.6492e-23)
(1.20248 -0.399473 -1.41671e-23)
(1.20782 -0.398682 0)
(1.26178 -0.409916 0)
(1.37069 -0.434814 -7.07477e-20)
(1.57725 -0.485418 6.75797e-25)
(1.93941 -0.604723 -7.27348e-20)
(1.88621 -0.708603 -6.74346e-20)
(0.997779 -0.504422 1.74196e-23)
(-0.151131 0.124767 -4.41078e-23)
(-0.497224 0.530213 4.65904e-23)
(-0.056043 0.0750688 -1.09209e-19)
(-0.0279243 0.102619 5.42133e-23)
(2.09168 -0.60123 4.0626e-18)
(2.11424 -0.610487 -1.94742e-18)
(2.13742 -0.619925 0)
(2.16018 -0.629233 1.77663e-18)
(2.18177 -0.638192 -1.68941e-18)
(2.20188 -0.646711 -1.60065e-18)
(2.22036 -0.654741 7.51135e-25)
(2.2372 -0.662267 1.41728e-18)
(2.25245 -0.669303 -1.32209e-18)
(2.26619 -0.675861 5.51546e-25)
(2.27849 -0.681965 -1.07081e-24)
(2.28943 -0.687635 5.18286e-25)
(2.29915 -0.692896 4.55382e-19)
(2.3077 -0.697775 -3.46998e-25)
(2.31522 -0.702294 -3.40549e-19)
(2.32174 -0.706468 2.3183e-25)
(2.32734 -0.710321 -2.15351e-19)
(2.33211 -0.713867 1.4845e-19)
(2.33616 -0.717149 -7.83946e-20)
(2.33955 -0.720171 4.91354e-21)
(2.3423 -0.722945 0)
(2.34445 -0.725478 -1.83575e-25)
(2.34606 -0.727789 -7.47024e-26)
(2.34714 -0.729877 7.26029e-24)
(2.34771 -0.73175 -2.12799e-19)
(2.34779 -0.733413 -7.4756e-24)
(2.34735 -0.734854 6.45247e-25)
(2.34643 -0.736085 -6.75164e-25)
(2.34499 -0.737095 4.35862e-19)
(2.34304 -0.737882 4.06058e-24)
(2.34056 -0.738443 -2.85317e-19)
(2.33753 -0.738769 1.27337e-24)
(2.33396 -0.738864 -3.62461e-19)
(2.32985 -0.738729 0)
(2.32519 -0.738365 0)
(2.31999 -0.737769 3.07275e-24)
(2.31428 -0.736955 2.77032e-19)
(2.30806 -0.735921 0)
(2.30133 -0.734676 2.61815e-24)
(2.29409 -0.733217 9.85723e-26)
(2.2864 -0.731556 -4.06553e-19)
(2.27843 -0.729737 -4.45778e-19)
(2.27024 -0.727803 0)
(2.26164 -0.725738 -2.67108e-19)
(2.25236 -0.723454 -1.06458e-23)
(2.24265 -0.720954 -3.19113e-19)
(2.23354 -0.718456 -3.48473e-19)
(2.22612 -0.716337 -3.80198e-19)
(2.22004 -0.714731 2.36475e-25)
(2.21257 -0.713084 -1.36437e-23)
(2.20171 -0.710702 4.90749e-19)
(2.18701 -0.707072 -1.64481e-23)
(2.17573 -0.703439 1.82592e-23)
(2.17567 -0.70229 0)
(2.19023 -0.70491 -1.70949e-19)
(2.21934 -0.712688 1.11958e-23)
(2.24362 -0.72201 -2.41793e-23)
(2.24712 -0.72765 -1.05858e-19)
(2.23053 -0.729156 0)
(2.18296 -0.721722 3.00208e-23)
(2.13306 -0.708498 4.93852e-25)
(2.13977 -0.706665 -3.43568e-23)
(2.22664 -0.724432 0)
(2.40462 -0.764964 0)
(2.74055 -0.84762 0)
(3.32453 -1.03948 0)
(3.26682 -1.22043 3.70166e-23)
(1.83369 -0.909392 -3.8836e-23)
(-0.144195 0.149568 9.62332e-20)
(-0.80947 0.862963 0)
(-0.115204 0.151945 0)
(-0.0770487 0.302478 -5.98751e-20)
(3.09567 -0.889822 -2.29565e-18)
(3.12785 -0.903184 -2.20085e-18)
(3.16149 -0.91695 2.0761e-24)
(3.19495 -0.930661 -2.00768e-18)
(3.22703 -0.943959 1.90904e-18)
(3.25716 -0.956668 3.6173e-18)
(3.28509 -0.968715 0)
(3.31069 -0.980058 2.82168e-23)
(3.334 -0.990686 -1.49585e-24)
(3.35506 -1.00061 1.24617e-24)
(3.37398 -1.00986 6.34378e-19)
(3.39088 -1.01846 -5.75426e-19)
(3.40591 -1.02645 -1.02872e-18)
(3.41918 -1.03385 -7.8385e-25)
(3.43087 -1.04072 -1.49729e-23)
(3.44104 -1.04706 -3.15457e-19)
(3.44984 -1.05291 2.43186e-19)
(3.45737 -1.05832 -1.67629e-19)
(3.46382 -1.06331 -1.67166e-23)
(3.46925 -1.06793 -5.54775e-21)
(3.47372 -1.07216 0)
(3.47731 -1.07604 0)
(3.48007 -1.07958 0)
(3.48204 -1.08279 1.86148e-19)
(3.48326 -1.08569 4.80391e-19)
(3.48374 -1.08827 -2.97485e-19)
(3.48349 -1.09053 -3.58297e-19)
(3.48251 -1.09248 -4.22973e-19)
(3.48078 -1.0941 -9.83724e-19)
(3.47829 -1.09539 2.82675e-19)
(3.47502 -1.09635 3.21921e-19)
(3.47094 -1.09697 -2.87331e-24)
(3.46607 -1.09725 9.52805e-24)
(3.46041 -1.09719 0)
(3.45394 -1.09679 0)
(3.44669 -1.09605 5.6479e-19)
(3.43868 -1.09499 -6.24838e-19)
(3.42992 -1.09361 -3.44785e-19)
(3.42041 -1.09191 -3.79716e-19)
(3.41016 -1.08991 0)
(3.39926 -1.0876 0)
(3.38791 -1.08505 0)
(3.37624 -1.08234 2.75114e-19)
(3.36398 -1.07943 3.00976e-19)
(3.35075 -1.07622 -2.5143e-24)
(3.33688 -1.07268 -1.11008e-23)
(3.32381 -1.06912 2.67367e-23)
(3.31307 -1.06607 2.14043e-19)
(3.30423 -1.06374 0)
(3.29355 -1.06142 0)
(3.27823 -1.05813 -1.53687e-24)
(3.25756 -1.0531 1.85041e-23)
(3.24134 -1.04792 1.63455e-19)
(3.24047 -1.04604 0)
(3.25999 -1.04936 1.92129e-19)
(3.2999 -1.0599 0)
(3.33416 -1.07309 0)
(3.34049 -1.08166 2.91193e-23)
(3.31871 -1.0846 2.46767e-25)
(3.25438 -1.07546 -1.36878e-19)
(3.1853 -1.05775 -1.47639e-19)
(3.19125 -1.05441 0)
(3.30712 -1.07752 0)
(3.54887 -1.13224 8.87998e-20)
(4.0029 -1.24438 0)
(4.78356 -1.50049 0)
(4.74906 -1.76381 4.09943e-23)
(2.83203 -1.37726 8.82237e-20)
(-0.0173067 0.108115 -1.06796e-19)
(-1.09326 1.16759 1.17753e-22)
(-0.19729 0.259006 0)
(-0.1551 0.628147 6.61907e-20)
(4.2024 -1.20796 -2.38991e-24)
(4.2437 -1.22541 2.47996e-18)
(4.28791 -1.24368 2.33935e-24)
(4.33269 -1.26209 2.07915e-24)
(4.37623 -1.28014 -2.15084e-18)
(4.4176 -1.29753 -2.03748e-18)
(4.45632 -1.31411 1.91195e-24)
(4.49215 -1.32982 -1.80343e-18)
(4.525 -1.34461 0)
(4.55486 -1.35846 1.40312e-24)
(4.58179 -1.37138 -7.14163e-19)
(4.60592 -1.38341 6.47704e-19)
(4.62746 -1.39461 -1.92122e-23)
(4.64653 -1.40498 5.07376e-19)
(4.66337 -1.4146 4.32771e-19)
(4.6781 -1.42349 3.54909e-19)
(4.69091 -1.43171 0)
(4.70196 -1.4393 0)
(4.71148 -1.44633 9.95754e-20)
(4.71959 -1.45281 -7.99935e-26)
(4.72638 -1.45879 8.3088e-26)
(4.73193 -1.46428 0)
(4.73633 -1.4693 1.51818e-19)
(4.73966 -1.47387 2.09237e-19)
(4.74195 -1.478 -2.69987e-19)
(4.74326 -1.48172 1.37473e-24)
(4.74356 -1.485 4.02661e-19)
(4.74289 -1.48786 9.50575e-19)
(4.74122 -1.49028 1.10527e-18)
(4.73853 -1.49227 2.52819e-24)
(4.73478 -1.4938 -7.23243e-19)
(4.72997 -1.49487 0)
(4.72409 -1.49549 4.59231e-19)
(4.71714 -1.49565 -7.83518e-24)
(4.70911 -1.49535 5.71496e-19)
(4.70002 -1.4946 4.72288e-24)
(4.68991 -1.4934 4.93184e-24)
(4.67881 -1.49178 3.86947e-19)
(4.6667 -1.48974 4.26081e-19)
(4.65359 -1.48728 -4.68345e-19)
(4.6396 -1.48441 -7.9726e-24)
(4.62499 -1.48122 -5.63476e-19)
(4.60992 -1.47778 -3.08481e-19)
(4.59407 -1.4741 -3.37407e-19)
(4.57696 -1.47001 -7.37511e-19)
(4.559 -1.46549 0)
(4.54198 -1.4609 8.79315e-19)
(4.52786 -1.45691 1.4483e-23)
(4.51617 -1.45386 0)
(4.50233 -1.45091 -2.84024e-19)
(4.4827 -1.44679 -3.08941e-19)
(4.45628 -1.44051 -3.35988e-19)
(4.43506 -1.43379 0)
(4.43282 -1.43099 -2.43815e-23)
(4.45636 -1.43468 -2.14559e-19)
(4.50585 -1.44754 -2.82691e-23)
(4.54971 -1.4645 3.01476e-23)
(4.55977 -1.47645 -1.3256e-19)
(4.53422 -1.48149 3.45476e-23)
(4.45573 -1.47182 1.5232e-19)
(4.36927 -1.45056 1.64377e-19)
(4.37219 -1.44521 0)
(4.51133 -1.47194 1.87842e-19)
(4.80811 -1.53837 4.20524e-23)
(5.36277 -1.67562 1.0046e-19)
(6.30278 -1.98421 0)
(6.31741 -2.33286 0)
(4.00643 -1.91083 -9.55376e-20)
(0.270118 -0.0221398 1.16785e-19)
(-1.32876 1.42789 1.40637e-22)
(-0.307815 0.40709 -2.90658e-22)
(-0.2647 1.08879 -7.23187e-20)
(5.41162 -1.55558 0)
(5.46055 -1.57681 -2.56268e-24)
(5.51464 -1.59951 -2.65702e-18)
(5.57074 -1.62277 -2.53406e-18)
(5.62629 -1.64584 2.40901e-18)
(5.67987 -1.66831 2.08733e-24)
(5.73066 -1.68994 -2.14058e-24)
(5.77818 -1.71056 0)
(5.82214 -1.73009 0)
(5.86241 -1.74845 1.56952e-24)
(5.89894 -1.76565 -1.61477e-24)
(5.93181 -1.78168 0)
(5.96122 -1.79659 6.46964e-19)
(5.98737 -1.81043 -5.66851e-19)
(6.01054 -1.82327 4.83424e-19)
(6.0309 -1.83514 0)
(6.0487 -1.84613 3.05483e-19)
(6.06416 -1.85629 2.10524e-19)
(6.07758 -1.8657 0)
(6.08913 -1.87441 0)
(6.09895 -1.88245 0)
(6.10714 -1.88984 0)
(6.11382 -1.89663 -3.38557e-19)
(6.11908 -1.90283 -4.66523e-19)
(6.123 -1.90847 -2.08038e-24)
(6.12565 -1.91356 0)
(6.12704 -1.91811 0)
(6.12719 -1.92212 -1.77037e-23)
(6.12607 -1.92558 -6.15538e-19)
(6.12366 -1.92847 0)
(6.11992 -1.9308 4.0263e-19)
(6.11484 -1.93254 0)
(6.1084 -1.9337 0)
(6.1006 -1.93428 0)
(6.09144 -1.93428 -6.35787e-19)
(6.08094 -1.9337 -1.05061e-23)
(6.06914 -1.93256 3.8994e-19)
(6.05608 -1.93088 -4.30179e-19)
(6.04175 -1.92866 -5.42878e-25)
(6.02614 -1.92591 5.20439e-19)
(6.00942 -1.92263 0)
(5.99188 -1.91894 7.26154e-24)
(5.97372 -1.91492 0)
(5.95458 -1.91058 3.74458e-19)
(5.9339 -1.90575 2.87025e-23)
(5.91213 -1.90037 -2.75924e-23)
(5.89139 -1.89485 -4.87411e-19)
(5.87399 -1.88998 6.59745e-25)
(5.85952 -1.88624 6.60436e-25)
(5.84269 -1.88276 6.28941e-19)
(5.81914 -1.87799 4.13851e-23)
(5.78754 -1.87069 3.71641e-19)
(5.76154 -1.86253 -2.02114e-19)
(5.75737 -1.85864 -7.65804e-25)
(5.78367 -1.86226 4.73844e-19)
(5.84085 -1.87682 0)
(5.8933 -1.89728 0)
(5.90787 -1.91296 1.45936e-19)
(5.8804 -1.9209 0)
(5.79142 -1.91221 0)
(5.6907 -1.88875 0)
(5.68867 -1.88105 9.50488e-23)
(5.84372 -1.90922 -2.05553e-19)
(6.18317 -1.98382 -1.07345e-19)
(6.8149 -2.13997 -1.0885e-19)
(7.86621 -2.48634 2.06559e-22)
(7.94774 -2.91892 9.77248e-20)
(5.35951 -2.5086 1.01305e-19)
(0.763017 -0.266001 -2.50348e-19)
(-1.49617 1.62476 -1.56779e-22)
(-0.451725 0.609467 -1.69455e-19)
(-0.402044 1.67923 7.8022e-20)
(6.71745 -1.93097 3.21063e-18)
(6.77132 -1.95536 -3.83754e-25)
(6.83351 -1.9821 2.94614e-18)
(6.9 -2.01003 2.80994e-18)
(6.96736 -2.03819 -2.67103e-18)
(7.03351 -2.06596 -4.62737e-24)
(7.09718 -2.09296 2.38404e-18)
(7.15753 -2.11895 -2.23544e-18)
(7.21399 -2.14373 0)
(7.26616 -2.16717 0)
(7.31382 -2.18919 -3.16328e-24)
(7.35692 -2.20977 -7.99881e-19)
(7.39563 -2.22893 -2.51622e-24)
(7.43015 -2.24673 4.76909e-24)
(7.46085 -2.26324 2.69629e-23)
(7.48794 -2.27854 0)
(7.51174 -2.2927 3.037e-23)
(7.53254 -2.3058 -2.3182e-19)
(7.55072 -2.31795 -6.87469e-25)
(7.56651 -2.32921 0)
(7.5801 -2.33962 -6.57535e-25)
(7.59163 -2.34923 1.82574e-24)
(7.60126 -2.35807 1.86035e-19)
(7.60909 -2.36618 2.56267e-19)
(7.61526 -2.37359 -3.30474e-19)
(7.61985 -2.38033 -4.09052e-19)
(7.6229 -2.3864 -4.00318e-24)
(7.62445 -2.39182 -1.16186e-18)
(7.62447 -2.39656 0)
(7.62294 -2.40063 6.17396e-24)
(7.6198 -2.404 -6.4768e-24)
(7.61504 -2.40666 0)
(7.60864 -2.40861 0)
(7.60059 -2.40986 -9.81793e-24)
(7.5909 -2.4104 1.03452e-23)
(7.57959 -2.41024 7.71609e-19)
(7.56671 -2.4094 0)
(7.55229 -2.40788 4.70347e-19)
(7.53633 -2.40572 5.17596e-19)
(7.51883 -2.40291 -3.47085e-23)
(7.49996 -2.39946 1.87254e-23)
(7.48007 -2.39547 6.83116e-19)
(7.45937 -2.39108 -2.2489e-23)
(7.4375 -2.3863 -8.16787e-19)
(7.41384 -2.38096 4.45971e-19)
(7.38884 -2.37494 0)
(7.36485 -2.36867 -5.30773e-19)
(7.34452 -2.36304 0)
(7.3275 -2.35871 -3.87582e-23)
(7.30808 -2.35485 3.88218e-23)
(7.28128 -2.34969 -3.7122e-19)
(7.24545 -2.34172 -4.88213e-23)
(7.21525 -2.33234 4.38224e-19)
(7.20872 -2.32722 -2.37565e-19)
(7.23626 -2.33028 -2.56255e-19)
(7.29861 -2.34572 -6.6954e-23)
(7.35792 -2.36917 -7.20956e-23)
(7.3774 -2.38885 -4.42354e-25)
(7.3501 -2.40053 1.68153e-19)
(7.2552 -2.39458 8.74815e-23)
(7.14475 -2.37071 0)
(7.13664 -2.36054 0)
(7.29927 -2.38771 0)
(7.6659 -2.46604 0)
(8.34608 -2.63327 1.14983e-19)
(9.45438 -3.00124 0)
(9.60727 -3.5106 -2.05268e-19)
(6.87709 -3.16124 -4.8194e-24)
(1.50726 -0.648128 1.30185e-19)
(-1.5651 1.74188 -1.73818e-19)
(-0.631695 0.879502 3.7549e-19)
(-0.559147 2.37097 1.54993e-22)
(8.10455 -2.32973 -3.49571e-18)
(8.15961 -2.3563 0)
(8.22696 -2.38633 0)
(8.30177 -2.41845 3.06737e-18)
(8.37966 -2.45141 2.91577e-18)
(8.45775 -2.48437 2.76011e-18)
(8.5342 -2.51681 -2.60022e-18)
(8.60772 -2.54834 4.87244e-18)
(8.67736 -2.57866 0)
(8.74239 -2.60752 -2.09524e-18)
(8.80223 -2.63477 7.31378e-24)
(8.85665 -2.66029 8.67804e-19)
(8.90569 -2.6841 -7.74079e-19)
(8.94957 -2.70622 -6.77114e-19)
(8.9887 -2.72676 -5.76509e-19)
(9.02335 -2.7458 4.72039e-19)
(9.05391 -2.76343 -3.63298e-19)
(9.08075 -2.77976 0)
(9.10432 -2.79492 1.31943e-19)
(9.12495 -2.80898 -8.40648e-21)
(9.14288 -2.82201 0)
(9.15829 -2.83406 0)
(9.17137 -2.84518 -1.77665e-24)
(9.18229 -2.85542 1.84883e-24)
(9.19121 -2.86482 2.09648e-23)
(9.19824 -2.87342 4.38859e-19)
(9.20345 -2.88122 3.7676e-24)
(9.2069 -2.88825 6.22552e-19)
(9.20859 -2.8945 0)
(9.20848 -2.89996 4.15038e-19)
(9.20652 -2.9046 4.72113e-19)
(9.20266 -2.90841 8.41725e-24)
(9.19691 -2.91139 5.98179e-19)
(9.18926 -2.91355 1.04848e-23)
(9.17969 -2.91488 -1.10412e-23)
(9.16824 -2.91539 -8.23046e-19)
(9.15497 -2.91509 -4.54645e-19)
(9.1399 -2.91402 -1.49845e-23)
(9.12305 -2.91218 -1.1021e-18)
(9.10441 -2.90958 -1.81426e-23)
(9.08416 -2.90623 0)
(9.06267 -2.90222 7.2583e-19)
(9.04021 -2.89773 0)
(9.01638 -2.89279 8.66672e-19)
(8.99053 -2.8872 -4.7282e-19)
(8.96313 -2.88083 5.15603e-19)
(8.93664 -2.87406 1.12382e-18)
(8.91394 -2.86788 -3.69528e-23)
(8.89482 -2.86312 0)
(8.87339 -2.85908 -3.60936e-19)
(8.84426 -2.85386 3.91686e-19)
(8.80548 -2.84568 -5.14377e-23)
(8.77199 -2.83539 -2.30563e-19)
(8.7629 -2.829 2.49666e-19)
(8.79008 -2.83099 0)
(8.8547 -2.84641 0)
(8.91849 -2.87215 -3.08488e-19)
(8.94271 -2.89583 -1.6467e-19)
(8.91761 -2.91201 6.20767e-24)
(8.82173 -2.91056 0)
(8.70694 -2.88827 0)
(8.69274 -2.87591 2.15928e-19)
(8.85462 -2.89973 -1.1052e-22)
(9.23124 -2.97692 1.13344e-22)
(9.92878 -3.14662 -1.17641e-19)
(11.0411 -3.52082 0)
(11.2555 -4.09424 1.04496e-19)
(8.52499 -3.84975 -1.02165e-19)
(2.53589 -1.18283 -1.29572e-19)
(-1.49324 1.75284 1.88555e-19)
(-0.844341 1.22546 -4.15258e-19)
(-0.718574 3.10656 0)
(9.54424 -2.74362 3.71197e-18)
(9.59652 -2.7713 1.40826e-23)
(9.66545 -2.80365 0)
(9.74555 -2.83913 -3.27706e-18)
(9.83155 -2.87624 -1.1434e-23)
(9.91975 -2.91392 -2.95007e-18)
(10.0076 -2.95144 0)
(10.0934 -2.98829 -2.5995e-18)
(10.1757 -3.02403 -8.75208e-24)
(10.2534 -3.0583 2.22852e-18)
(10.3255 -3.0908 1.01801e-18)
(10.3913 -3.12135 0)
(10.4509 -3.14989 8.18622e-19)
(10.5043 -3.17642 7.148e-19)
(10.552 -3.20106 -4.1489e-24)
(10.5943 -3.22391 4.06042e-23)
(10.6318 -3.24508 -3.81798e-19)
(10.6647 -3.2647 2.62468e-19)
(10.6938 -3.28291 -2.76587e-19)
(10.7193 -3.29982 -3.90921e-23)
(10.7417 -3.31553 0)
(10.761 -3.33008 2.56599e-24)
(10.7777 -3.34353 -2.6647e-24)
(10.7918 -3.35596 0)
(10.8036 -3.36741 3.69418e-19)
(10.8132 -3.37793 -4.56551e-19)
(10.8207 -3.38754 0)
(10.8263 -3.39627 0)
(10.8298 -3.40412 0)
(10.8314 -3.41106 -4.30255e-19)
(10.8309 -3.41709 -9.77896e-19)
(10.8283 -3.42218 -1.62546e-23)
(10.8236 -3.42634 -6.18412e-19)
(10.8168 -3.42956 0)
(10.8078 -3.43185 -7.66391e-19)
(10.7967 -3.4332 -5.17987e-23)
(10.7836 -3.43365 9.36592e-19)
(10.7685 -3.43321 -5.15592e-19)
(10.7514 -3.43191 5.66521e-19)
(10.7323 -3.42975 -3.72646e-23)
(10.7114 -3.42673 0)
(10.6891 -3.42297 -7.43955e-19)
(10.6656 -3.41862 0)
(10.6406 -3.41377 -8.86478e-19)
(10.6134 -3.40823 9.66286e-19)
(10.5845 -3.40179 -5.2602e-24)
(10.5563 -3.3948 -5.72867e-19)
(10.5319 -3.38829 -7.68119e-23)
(10.5112 -3.38327 -1.54468e-24)
(10.4884 -3.37928 3.6665e-19)
(10.4579 -3.37431 -3.97106e-19)
(10.4175 -3.36635 -2.10282e-22)
(10.3819 -3.35553 -1.89391e-24)
(10.3702 -3.34793 2.52575e-19)
(10.3956 -3.34846 2.71293e-19)
(10.4597 -3.363 -9.63317e-25)
(10.5253 -3.39022 3.10721e-19)
(10.5535 -3.41767 1.65347e-19)
(10.5322 -3.43883 -1.75981e-19)
(10.4398 -3.44328 1.87401e-19)
(10.3258 -3.42437 0)
(10.3063 -3.41034 -2.14976e-19)
(10.4602 -3.429 -2.24699e-19)
(10.8304 -3.50066 -2.68834e-24)
(11.5159 -3.66488 -2.27642e-22)
(12.5896 -4.03323 0)
(12.8467 -4.65467 -1.03516e-19)
(10.2487 -4.54797 9.7757e-20)
(3.84648 -1.85707 1.2267e-19)
(-1.22778 1.61177 -1.94927e-19)
(-1.06508 1.62282 4.59616e-19)
(-0.840668 3.79504 -5.15292e-22)
(10.9941 -3.16044 -3.82093e-18)
(11.0409 -3.18846 3.69873e-18)
(11.1082 -3.22224 3.5623e-18)
(11.1904 -3.26014 0)
(11.2814 -3.3005 -3.25038e-18)
(11.3768 -3.34206 0)
(11.4736 -3.38392 -2.89665e-18)
(11.5694 -3.4254 0)
(11.6624 -3.46597 2.51266e-18)
(11.751 -3.50513 2.31194e-18)
(11.8339 -3.54246 -2.10663e-18)
(11.91 -3.57765 0)
(11.979 -3.61057 -5.93557e-24)
(12.0409 -3.64119 6.08626e-24)
(12.0963 -3.66964 -6.22205e-19)
(12.1454 -3.69601 -5.07465e-19)
(12.1889 -3.72044 7.78483e-19)
(12.2272 -3.74309 -2.67051e-19)
(12.261 -3.76411 1.40477e-19)
(12.2908 -3.78365 1.79621e-20)
(12.3169 -3.8018 4.62984e-25)
(12.3397 -3.81864 0)
(12.3593 -3.83425 -3.74128e-24)
(12.3761 -3.84869 -2.89102e-19)
(12.3903 -3.86203 0)
(12.4021 -3.87432 9.17888e-19)
(12.4116 -3.88561 -7.86304e-24)
(12.4189 -3.89592 6.48227e-19)
(12.424 -3.90525 -1.20285e-23)
(12.4271 -3.9136 2.6274e-23)
(12.4279 -3.92093 4.8842e-19)
(12.4264 -3.92725 1.73783e-23)
(12.4226 -3.93254 -1.82203e-23)
(12.4166 -3.9368 0)
(12.4083 -3.94004 7.61674e-19)
(12.3977 -3.94226 2.50929e-23)
(12.3849 -3.94348 2.10996e-23)
(12.3699 -3.94373 5.10395e-19)
(12.3529 -3.94305 5.60055e-19)
(12.3336 -3.94142 -6.13443e-19)
(12.3125 -3.93885 -1.32991e-24)
(12.2897 -3.93545 7.32661e-19)
(12.2657 -3.93138 -9.75539e-23)
(12.24 -3.92678 8.70552e-19)
(12.2121 -3.92146 -4.73748e-19)
(12.1823 -3.91515 -4.81888e-24)
(12.1531 -3.90813 0)
(12.1274 -3.90144 0)
(12.1056 -3.8963 -8.12651e-23)
(12.0819 -3.89249 -7.14039e-19)
(12.0508 -3.88799 9.35414e-23)
(12.0099 -3.88057 -1.02926e-22)
(11.973 -3.86952 1.09446e-22)
(11.9589 -3.86081 -4.88337e-19)
(11.9813 -3.85962 -2.62268e-19)
(12.0425 -3.87267 -9.3204e-25)
(12.1077 -3.90064 1.45709e-22)
(12.1389 -3.93142 1.59179e-19)
(12.1223 -3.95762 1.64561e-22)
(12.0366 -3.96875 -1.58592e-22)
(11.9273 -3.9544 1.86246e-22)
(11.9032 -3.93928 2.04724e-19)
(12.0437 -3.95174 4.26891e-19)
(12.3941 -4.01482 2.11314e-22)
(13.0444 -4.16792 -7.85085e-24)
(14.0525 -4.52324 -1.091e-19)
(14.3334 -5.17658 9.89118e-20)
(11.9779 -5.22584 2.82604e-22)
(5.41435 -2.64909 2.21638e-19)
(-0.720428 1.30756 -8.01752e-22)
(-1.26001 2.03823 -4.94348e-19)
(-0.920737 4.35146 0)
(12.4042 -3.56583 1.4977e-23)
(12.4452 -3.59406 2.82258e-23)
(12.5093 -3.62875 -3.59706e-18)
(12.591 -3.66831 -1.36782e-23)
(12.684 -3.71099 3.30577e-18)
(12.7835 -3.75544 0)
(12.8859 -3.80062 2.95048e-18)
(12.9885 -3.84573 0)
(13.0891 -3.89015 6.0938e-23)
(13.1858 -3.93326 -2.34226e-18)
(13.2768 -3.97454 1.0638e-18)
(13.3607 -4.01358 0)
(13.4369 -4.05014 -8.45106e-19)
(13.5053 -4.08417 -9.83454e-25)
(13.5664 -4.11577 6.20204e-19)
(13.6206 -4.14504 -5.04468e-19)
(13.6685 -4.17217 -3.85895e-19)
(13.7106 -4.1973 0)
(13.7477 -4.22062 5.52626e-25)
(13.7804 -4.2423 -8.86405e-21)
(13.809 -4.26244 1.47088e-24)
(13.834 -4.28116 -1.52061e-24)
(13.8556 -4.29851 0)
(13.8741 -4.31458 2.82589e-19)
(13.8897 -4.32944 0)
(13.9027 -4.34317 -2.21441e-23)
(13.9133 -4.35581 0)
(13.9216 -4.36739 -6.29639e-19)
(13.9276 -4.37791 0)
(13.9314 -4.38738 0)
(13.9328 -4.39577 -4.7223e-19)
(13.9319 -4.40307 0)
(13.9286 -4.40927 5.93888e-19)
(13.9229 -4.41437 -6.6068e-19)
(13.9148 -4.41839 4.46808e-23)
(13.9043 -4.42132 1.17689e-24)
(13.8916 -4.42318 -3.37721e-23)
(13.8766 -4.42401 3.04043e-23)
(13.8593 -4.42384 -1.06958e-18)
(13.8399 -4.42267 5.84789e-19)
(13.8184 -4.4205 6.3852e-19)
(13.7952 -4.41742 -6.96167e-19)
(13.7707 -4.41362 -9.25575e-23)
(13.7445 -4.40927 4.5876e-23)
(13.716 -4.40418 0)
(13.6856 -4.39805 -4.86681e-19)
(13.6555 -4.39105 -1.41977e-24)
(13.6288 -4.38423 6.91744e-23)
(13.6059 -4.37899 0)
(13.5815 -4.37538 6.69912e-19)
(13.5502 -4.3714 3.61757e-19)
(13.5093 -4.36463 -9.62253e-23)
(13.4716 -4.35353 1.02133e-22)
(13.4552 -4.3438 2.27437e-19)
(13.4737 -4.34078 0)
(13.5303 -4.352 -2.60617e-19)
(13.5933 -4.38015 1.35882e-22)
(13.6264 -4.41369 1.27425e-23)
(13.615 -4.44465 -1.52398e-22)
(13.5379 -4.46252 -1.65842e-19)
(13.4355 -4.45325 1.7706e-19)
(13.4077 -4.43757 -1.87746e-19)
(13.5313 -4.44368 -4.25872e-22)
(13.853 -4.49684 1.94985e-22)
(14.4531 -4.63617 -9.91279e-20)
(15.3826 -4.97572 9.98785e-20)
(15.6737 -5.64735 -3.6252e-22)
(13.6331 -5.8495 -8.22445e-20)
(7.19515 -3.51965 -3.8711e-19)
(0.0572278 0.83516 1.69778e-19)
(-1.38865 2.39858 2.50716e-19)
(-0.940063 4.74967 6.78811e-22)
(13.729 -3.94668 0)
(13.7662 -3.97563 -3.62966e-18)
(13.8274 -4.01123 0)
(13.9074 -4.05199 3.43074e-18)
(14.0002 -4.09626 -3.29099e-18)
(14.101 -4.14267 -2.48347e-23)
(14.2059 -4.19012 -2.1511e-23)
(14.3118 -4.23775 2.75235e-18)
(14.4165 -4.28486 -2.54535e-18)
(14.5178 -4.33081 -1.67969e-23)
(14.6137 -4.37498 -1.05478e-18)
(14.7025 -4.41685 -9.43496e-19)
(14.7832 -4.45613 -3.44976e-23)
(14.8557 -4.49269 1.00059e-23)
(14.9202 -4.52663 -6.06127e-19)
(14.9773 -4.55806 4.91382e-19)
(15.0277 -4.58718 4.74659e-24)
(15.0718 -4.61413 -1.9372e-24)
(15.1105 -4.63913 1.34027e-19)
(15.1445 -4.66235 0)
(15.1742 -4.68394 0)
(15.2 -4.70399 4.8821e-24)
(15.2223 -4.7226 -1.20612e-23)
(15.2413 -4.73983 7.25946e-24)
(15.2573 -4.75579 -3.46286e-19)
(15.2705 -4.77053 -4.26053e-19)
(15.2813 -4.78412 -1.45525e-23)
(15.2896 -4.79658 0)
(15.2956 -4.80793 6.90852e-19)
(15.2992 -4.81817 -2.51234e-23)
(15.3005 -4.82728 4.46353e-19)
(15.2993 -4.83524 -2.954e-23)
(15.2957 -4.84206 -5.59381e-19)
(15.2897 -4.84773 -6.38302e-23)
(15.2812 -4.85226 8.38935e-23)
(15.2704 -4.85566 -9.24565e-23)
(15.2572 -4.85794 9.5305e-23)
(15.2417 -4.85915 -5.45449e-23)
(15.2239 -4.85932 4.98777e-19)
(15.2039 -4.85844 5.44368e-19)
(15.1818 -4.85651 -1.18687e-18)
(15.158 -4.85363 -6.45954e-19)
(15.1328 -4.85 0)
(15.1059 -4.8458 -3.81405e-19)
(15.0768 -4.84087 -2.51468e-24)
(15.0456 -4.83485 1.08233e-22)
(15.0147 -4.82783 -1.19949e-22)
(14.987 -4.82086 1.27094e-22)
(14.9629 -4.81547 0)
(14.9378 -4.81199 -3.06733e-19)
(14.9063 -4.80846 -1.62947e-22)
(14.8657 -4.80232 -3.56458e-19)
(14.8274 -4.79123 -1.91796e-19)
(14.8086 -4.78058 -2.00498e-22)
(14.8226 -4.77577 2.21228e-19)
(14.8735 -4.785 2.36508e-19)
(14.9329 -4.81287 0)
(14.9668 -4.84854 -1.33761e-19)
(14.9604 -4.88367 -2.77963e-22)
(14.8928 -4.90784 -1.49844e-19)
(14.7989 -4.90373 -3.18918e-19)
(14.7681 -4.88813 0)
(14.8738 -4.88858 -1.75415e-19)
(15.1623 -4.93205 8.92442e-20)
(15.7043 -5.05757 1.75994e-19)
(16.5502 -5.38096 0)
(16.8419 -6.05954 8.38752e-20)
(15.1317 -6.38759 0)
(9.11219 -4.41791 3.3379e-19)
(1.16192 0.117698 -2.83798e-19)
(-1.38137 2.64546 -1.85895e-21)
(-0.897448 4.95424 6.34425e-22)
(14.9377 -4.29418 0)
(14.9745 -4.32464 -2.57053e-23)
(15.0342 -4.36141 2.70759e-23)
(15.1124 -4.40323 -3.34579e-18)
(15.2038 -4.4486 -2.83127e-23)
(15.3038 -4.49624 0)
(15.4085 -4.54508 0)
(15.5149 -4.59423 -2.71605e-18)
(15.6206 -4.643 2.50996e-18)
(15.7235 -4.69073 1.65301e-23)
(15.8214 -4.73677 -4.87905e-23)
(15.9123 -4.78054 9.22367e-19)
(15.9951 -4.82165 1.62003e-18)
(16.0693 -4.85994 1.158e-23)
(16.1353 -4.89547 5.86006e-19)
(16.1935 -4.92836 -1.86168e-24)
(16.2446 -4.95881 -6.41907e-24)
(16.2893 -4.98699 0)
(16.3282 -5.01311 -1.28094e-19)
(16.3622 -5.03735 8.08436e-25)
(16.3917 -5.05988 -8.31093e-25)
(16.4173 -5.0808 0)
(16.4392 -5.10023 0)
(16.4577 -5.11822 0)
(16.4732 -5.13487 3.26995e-19)
(16.4858 -5.15026 -1.13146e-23)
(16.4959 -5.16444 0)
(16.5035 -5.17746 0)
(16.5087 -5.18931 -6.48097e-19)
(16.5116 -5.20001 0)
(16.512 -5.20955 -4.17348e-19)
(16.5101 -5.2179 5.71331e-23)
(16.5057 -5.22508 -3.08374e-23)
(16.4988 -5.23107 1.1563e-18)
(16.4895 -5.2359 -3.99862e-23)
(16.4778 -5.23956 4.18581e-23)
(16.4638 -5.24207 -3.85296e-19)
(16.4475 -5.24347 0)
(16.4289 -5.24381 4.60432e-19)
(16.4081 -5.24309 -5.01903e-19)
(16.3851 -5.24128 5.46124e-19)
(16.3605 -5.23848 5.93433e-19)
(16.3345 -5.23491 0)
(16.3068 -5.23078 8.63916e-23)
(16.277 -5.22593 -9.12138e-23)
(16.2451 -5.21996 -1.0115e-22)
(16.2134 -5.21289 1.06941e-22)
(16.1845 -5.20574 0)
(16.1593 -5.20015 0)
(16.1333 -5.19672 0)
(16.1017 -5.19355 2.99613e-19)
(16.0614 -5.18796 1.55184e-22)
(16.0228 -5.17693 1.73538e-19)
(16.0017 -5.16551 -1.80785e-22)
(16.011 -5.15907 -1.1825e-23)
(16.0556 -5.16635 0)
(16.1102 -5.19356 -2.25664e-19)
(16.1438 -5.23068 -2.35166e-22)
(16.1416 -5.2692 -1.26773e-19)
(16.0835 -5.29888 1.34491e-19)
(15.9988 -5.2998 1.42262e-19)
(15.9669 -5.28509 -3.11878e-24)
(16.0557 -5.28127 3.03337e-22)
(16.3106 -5.31652 -3.65963e-23)
(16.7928 -5.42996 -7.76477e-20)
(17.5528 -5.73765 -2.90029e-22)
(17.8347 -6.41262 8.77365e-22)
(16.4263 -6.82572 5.53101e-22)
(11.0575 -5.28229 -2.87576e-19)
(2.65577 -0.820068 2.29834e-19)
(-1.1853 2.71057 0)
(-0.789052 4.95826 -5.25207e-22)
(15.9944 -4.57635 -2.41736e-23)
(16.0175 -4.60465 -3.29846e-18)
(16.0566 -4.63727 2.4434e-23)
(16.1164 -4.67552 -2.59685e-23)
(16.1934 -4.71837 2.37805e-23)
(16.2828 -4.76454 3.13948e-18)
(16.3807 -4.8129 -3.00985e-18)
(16.4836 -4.86247 0)
(16.5884 -4.91241 0)
(16.6929 -4.96203 -2.46485e-18)
(16.7951 -5.01072 2.24918e-18)
(16.8928 -5.05784 1.01271e-18)
(16.9839 -5.10276 0)
(17.067 -5.14504 -1.57456e-18)
(17.1415 -5.18444 0)
(17.2075 -5.221 0)
(17.2656 -5.25484 -6.05075e-24)
(17.3164 -5.28616 1.05325e-23)
(17.3605 -5.31512 -2.34612e-19)
(17.3988 -5.34194 0)
(17.4319 -5.36683 7.69356e-25)
(17.4606 -5.38994 -7.89298e-25)
(17.4852 -5.41142 0)
(17.5061 -5.43134 0)
(17.5236 -5.4498 -2.415e-19)
(17.538 -5.46688 -3.08489e-19)
(17.5496 -5.48266 3.7832e-19)
(17.5585 -5.4972 -4.51274e-19)
(17.565 -5.51053 -1.52086e-23)
(17.5691 -5.52268 1.94617e-23)
(17.5708 -5.53365 3.4593e-19)
(17.5702 -5.54342 3.09207e-23)
(17.5672 -5.55199 2.75957e-23)
(17.5617 -5.55937 -2.8751e-23)
(17.5538 -5.56554 -5.3825e-19)
(17.5436 -5.57053 5.9344e-19)
(17.5309 -5.57433 -4.07545e-23)
(17.5159 -5.57697 3.57166e-19)
(17.4987 -5.57848 0)
(17.4793 -5.57892 -4.25476e-19)
(17.4576 -5.57828 0)
(17.4339 -5.57653 0)
(17.4085 -5.57378 0)
(17.3817 -5.57023 2.95984e-19)
(17.3534 -5.56614 3.20288e-19)
(17.3229 -5.56135 0)
(17.2905 -5.55543 0)
(17.258 -5.54832 -9.98649e-23)
(17.2282 -5.54101 1.05494e-22)
(17.2019 -5.53524 1.15933e-22)
(17.1751 -5.53182 2.19057e-24)
(17.1434 -5.52893 -2.72425e-19)
(17.1036 -5.52385 -7.4203e-24)
(17.0651 -5.51298 3.06983e-22)
(17.042 -5.501 -1.68873e-19)