/*--------------------------------*- C++ -*----------------------------------*\
| =========                 |                                                 |
| \\      /  F ield         | OpenFOAM: The Open Source CFD Toolbox           |
|  \\    /   O peration     | Version:  2412                                  |
|   \\  /    A nd           | Website:  www.openfoam.com                      |
|    \\/     M anipulation  |                                                 |
\*---------------------------------------------------------------------------*/
FoamFile
{
    version     2.0;
    format      ascii;
    arch        "LSB;label=32;scalar=64";
    class       volScalarField;
    location    "20";
    object      nut;
}
// * * * * * * * * * * * * * * * * * * * * * * * * * * * * * * * * * * * * * //

dimensions      [0 2 -1 0 0 0 0];

internalField   nonuniform List<scalar> 
7332
(
9.13454e-12
2.55275e-11
1.47604e-11
1.0106e-11
5.56876e-12
2.99002e-11
1.2987e-10
1.71204e-10
1.42461e-10
1.03353e-10
8.3672e-11
7.43901e-11
6.96965e-11
6.79731e-11
6.79401e-11
6.79519e-11
6.72463e-11
6.60786e-11
6.45508e-11
6.30785e-11
6.20757e-11
6.1489e-11
6.11769e-11
6.09454e-11
6.06561e-11
6.03266e-11
6.00203e-11
5.9806e-11
5.96726e-11
5.95321e-11
5.79066e-11
5.78794e-11
5.78563e-11
5.7869e-11
5.7904e-11
5.79539e-11
5.80167e-11
5.80916e-11
5.8177e-11
5.82827e-11
5.84049e-11
5.85448e-11
5.86918e-11
5.88559e-11
5.90524e-11
5.93132e-11
5.9638e-11
5.99733e-11
6.02621e-11
6.04893e-11
6.07939e-11
6.13752e-11
6.2373e-11
6.38429e-11
6.53748e-11
6.65605e-11
6.72949e-11
6.73285e-11
6.74204e-11
6.92278e-11
7.40585e-11
8.3551e-11
1.03608e-10
1.43524e-10
1.73185e-10
1.32087e-10
3.00275e-11
5.99046e-12
1.15805e-11
1.70433e-11
2.97243e-11
1.12732e-11
6.11182e-10
1.5328e-09
1.13078e-09
7.22344e-10
3.77095e-10
3.37047e-09
1.0354e-08
1.20426e-08
1.02407e-08
7.98862e-09
6.74511e-09
6.12466e-09
5.80724e-09
5.68712e-09
5.67323e-09
5.65751e-09
5.59289e-09
5.49698e-09
5.38027e-09
5.27177e-09
5.19784e-09
5.15388e-09
5.12887e-09
5.10901e-09
5.08502e-09
5.05858e-09
5.03433e-09
5.01705e-09
5.00628e-09
4.99568e-09
4.8697e-09
4.86827e-09
4.86642e-09
4.86702e-09
4.86939e-09
4.87305e-09
4.87767e-09
4.88331e-09
4.88987e-09
4.8979e-09
4.90746e-09
4.91839e-09
4.93011e-09
4.94313e-09
4.95854e-09
4.97897e-09
5.00449e-09
5.03141e-09
5.0555e-09
5.07523e-09
5.09995e-09
5.14386e-09
5.21784e-09
5.32671e-09
5.44429e-09
5.54198e-09
5.60914e-09
5.62849e-09
5.64719e-09
5.77427e-09
6.10267e-09
6.7397e-09
8.01073e-09
1.0313e-08
1.21675e-08
1.05153e-08
3.40322e-09
4.0138e-10
8.27933e-10
1.31051e-09
1.77302e-09
7.31709e-10
4.17782e-09
8.87169e-09
7.78876e-09
4.81245e-09
2.69495e-09
3.56399e-08
7.25917e-08
7.63304e-08
6.71511e-08
5.65811e-08
5.00493e-08
4.65781e-08
4.4778e-08
4.4047e-08
4.38374e-08
4.35814e-08
4.30531e-08
4.23557e-08
4.15791e-08
4.08913e-08
4.04233e-08
4.01397e-08
3.99644e-08
3.98139e-08
3.96386e-08
3.94529e-08
3.92856e-08
3.91633e-08
3.90862e-08
3.90137e-08
3.82102e-08
3.82071e-08
3.81935e-08
3.81921e-08
3.82021e-08
3.82211e-08
3.82476e-08
3.82815e-08
3.83224e-08
3.83732e-08
3.84358e-08
3.85085e-08
3.85878e-08
3.8677e-08
3.87822e-08
3.89204e-08
3.90947e-08
3.92848e-08
3.94634e-08
3.96167e-08
3.97947e-08
4.0084e-08
4.05591e-08
4.12575e-08
4.20486e-08
4.27657e-08
4.33185e-08
4.3605e-08
4.38542e-08
4.46407e-08
4.65232e-08
5.01152e-08
5.68315e-08
6.76717e-08
7.70903e-08
7.36254e-08
3.62025e-08
2.80542e-09
5.50551e-09
9.00972e-09
1.01715e-08
5.007e-09
1.43083e-08
2.56444e-08
2.51232e-08
1.52865e-08
1.55384e-08
1.53535e-07
2.31351e-07
2.28645e-07
2.09387e-07
1.89148e-07
1.74559e-07
1.66228e-07
1.61813e-07
1.59776e-07
1.58706e-07
1.5743e-07
1.55525e-07
1.5327e-07
1.50984e-07
1.49072e-07
1.47781e-07
1.46985e-07
1.4645e-07
1.45954e-07
1.45393e-07
1.44822e-07
1.44315e-07
1.43934e-07
1.43688e-07
1.43457e-07
1.41472e-07
1.41485e-07
1.41435e-07
1.414e-07
1.41392e-07
1.41412e-07
1.41459e-07
1.41531e-07
1.41626e-07
1.41752e-07
1.41917e-07
1.42117e-07
1.42343e-07
1.426e-07
1.42907e-07
1.43311e-07
1.43832e-07
1.44422e-07
1.45006e-07
1.45529e-07
1.46098e-07
1.46939e-07
1.48284e-07
1.50265e-07
1.52635e-07
1.54988e-07
1.57005e-07
1.58412e-07
1.59642e-07
1.61889e-07
1.66587e-07
1.75314e-07
1.90457e-07
2.11318e-07
2.30956e-07
2.34299e-07
1.56113e-07
1.60398e-08
1.74156e-08
2.88854e-08
2.90891e-08
1.71143e-08
4.12029e-08
5.41302e-08
5.53481e-08
3.36144e-08
7.53137e-08
4.05893e-07
4.89293e-07
4.68768e-07
4.48253e-07
4.30589e-07
4.12639e-07
4.01167e-07
3.94772e-07
3.91043e-07
3.87918e-07
3.84336e-07
3.79994e-07
3.754e-07
3.71224e-07
3.68001e-07
3.6588e-07
3.64557e-07
3.63571e-07
3.62582e-07
3.61489e-07
3.60419e-07
3.59487e-07
3.58766e-07
3.58273e-07
3.57762e-07
3.55965e-07
3.56027e-07
3.55889e-07
3.55707e-07
3.55551e-07
3.55446e-07
3.55403e-07
3.55409e-07
3.55466e-07
3.55588e-07
3.55794e-07
3.56076e-07
3.5642e-07
3.56831e-07
3.5734e-07
3.58032e-07
3.58966e-07
3.60091e-07
3.61272e-07
3.62376e-07
3.63502e-07
3.65006e-07
3.67332e-07
3.70801e-07
3.75257e-07
3.80165e-07
3.84849e-07
3.88815e-07
3.92389e-07
3.96665e-07
4.03726e-07
4.16062e-07
4.35123e-07
4.53636e-07
4.74196e-07
4.95177e-07
4.12492e-07
7.73185e-08
3.80258e-08
6.30634e-08
6.0767e-08
4.70695e-08
1.24502e-07
9.63025e-08
9.75377e-08
5.97881e-08
3.08794e-07
7.88176e-07
7.96546e-07
7.60568e-07
7.59158e-07
7.69407e-07
7.62485e-07
7.55298e-07
7.50333e-07
7.45375e-07
7.3903e-07
7.32084e-07
7.25014e-07
7.18515e-07
7.13535e-07
7.10281e-07
7.08335e-07
7.07142e-07
7.06073e-07
7.04834e-07
7.03494e-07
7.02268e-07
7.01238e-07
7.0041e-07
6.9977e-07
6.98853e-07
7.03096e-07
7.03197e-07
7.02857e-07
7.02282e-07
7.01656e-07
7.01074e-07
7.00593e-07
7.00182e-07
6.99851e-07
6.9962e-07
6.9952e-07
6.99538e-07
6.99669e-07
6.99905e-07
7.00272e-07
7.00882e-07
7.01858e-07
7.03208e-07
7.04783e-07
7.06339e-07
7.07805e-07
7.09485e-07
7.11971e-07
7.1584e-07
7.21507e-07
7.28749e-07
7.36614e-07
7.44439e-07
7.5178e-07
7.57876e-07
7.64094e-07
7.7276e-07
7.81413e-07
7.71787e-07
7.72016e-07
8.06775e-07
8.00362e-07
3.16112e-07
6.68838e-08
1.0981e-07
1.07622e-07
1.40286e-07
3.33835e-07
1.61867e-07
1.51577e-07
9.99098e-08
8.00992e-07
1.2253e-06
1.0747e-06
1.05034e-06
1.09003e-06
1.15639e-06
1.18068e-06
1.18951e-06
1.19167e-06
1.18719e-06
1.17759e-06
1.16759e-06
1.15931e-06
1.15342e-06
1.15074e-06
1.15044e-06
1.15098e-06
1.15153e-06
1.15152e-06
1.15101e-06
1.15048e-06
1.1502e-06
1.1501e-06
1.14998e-06
1.14976e-06
1.17106e-06
1.17102e-06
1.17024e-06
1.16885e-06
1.16718e-06
1.16547e-06
1.16386e-06
1.16232e-06
1.16086e-06
1.15951e-06
1.15832e-06
1.15727e-06
1.15637e-06
1.15559e-06
1.15492e-06
1.15446e-06
1.1544e-06
1.15492e-06
1.15595e-06
1.15714e-06
1.15801e-06
1.15849e-06
1.15907e-06
1.16059e-06
1.16461e-06
1.17192e-06
1.18172e-06
1.19338e-06
1.20483e-06
1.21133e-06
1.21121e-06
1.20451e-06
1.18246e-06
1.11588e-06
1.0726e-06
1.09195e-06
1.24396e-06
8.19698e-07
1.09895e-07
1.68148e-07
1.77189e-07
3.78768e-07
7.74689e-07
3.45936e-07
2.23678e-07
1.74511e-07
1.56828e-06
1.60259e-06
1.25075e-06
1.28543e-06
1.37828e-06
1.51855e-06
1.59208e-06
1.62876e-06
1.64431e-06
1.64339e-06
1.63266e-06
1.62219e-06
1.61643e-06
1.61572e-06
1.62009e-06
1.62701e-06
1.63338e-06
1.63817e-06
1.64124e-06
1.64337e-06
1.6456e-06
1.64824e-06
1.65089e-06
1.6531e-06
1.65481e-06
1.71314e-06
1.71241e-06
1.71077e-06
1.70792e-06
1.70439e-06
1.7006e-06
1.69683e-06
1.69303e-06
1.68928e-06
1.6856e-06
1.68206e-06
1.67862e-06
1.67533e-06
1.67213e-06
1.66893e-06
1.66573e-06
1.66282e-06
1.66062e-06
1.65927e-06
1.65839e-06
1.65689e-06
1.6539e-06
1.64948e-06
1.64461e-06
1.64241e-06
1.64541e-06
1.65359e-06
1.66675e-06
1.68045e-06
1.68451e-06
1.67191e-06
1.63795e-06
1.56679e-06
1.42457e-06
1.32448e-06
1.27923e-06
1.62849e-06
1.60558e-06
1.86689e-07
2.45396e-07
3.73666e-07
8.87528e-07
1.57146e-06
7.75933e-07
3.36558e-07
3.7584e-07
2.48349e-06
1.81716e-06
1.31218e-06
1.42491e-06
1.56727e-06
1.78143e-06
1.91254e-06
1.98423e-06
2.01804e-06
2.02486e-06
2.01743e-06
2.01124e-06
2.01329e-06
2.02324e-06
2.03971e-06
2.05822e-06
2.074e-06
2.086e-06
2.09481e-06
2.10218e-06
2.10982e-06
2.11794e-06
2.12582e-06
2.13276e-06
2.13914e-06
2.25775e-06
2.25532e-06
2.25212e-06
2.24703e-06
2.24065e-06
2.23363e-06
2.22641e-06
2.21896e-06
2.21144e-06
2.20389e-06
2.19637e-06
2.18885e-06
2.18141e-06
2.17395e-06
2.16628e-06
2.15824e-06
2.15017e-06
2.14279e-06
2.13658e-06
2.13117e-06
2.12481e-06
2.1156e-06
2.10275e-06
2.08723e-06
2.07379e-06
2.06697e-06
2.06827e-06
2.07818e-06
2.08978e-06
2.08728e-06
2.05728e-06
1.98857e-06
1.85933e-06
1.64043e-06
1.48698e-06
1.35668e-06
1.85191e-06
2.54666e-06
3.9212e-07
3.66548e-07
8.28692e-07
1.81799e-06
2.8291e-06
1.68062e-06
6.05894e-07
9.5021e-07
3.26496e-06
1.82387e-06
1.28626e-06
1.44644e-06
1.62141e-06
1.89146e-06
2.07506e-06
2.18141e-06
2.23555e-06
2.25437e-06
2.25581e-06
2.25939e-06
2.27427e-06
2.29933e-06
2.33154e-06
2.36469e-06
2.39267e-06
2.41452e-06
2.43176e-06
2.4471e-06
2.46286e-06
2.47911e-06
2.49482e-06
2.5093e-06
2.52364e-06
2.72571e-06
2.72009e-06
2.71437e-06
2.70615e-06
2.69595e-06
2.68456e-06
2.6726e-06
2.66007e-06
2.64723e-06
2.6342e-06
2.62103e-06
2.60765e-06
2.59421e-06
2.58061e-06
2.5665e-06
2.55154e-06
2.53606e-06
2.52107e-06
2.5074e-06
2.49482e-06
2.48098e-06
2.46295e-06
2.43889e-06
2.40958e-06
2.38107e-06
2.35972e-06
2.34878e-06
2.34964e-06
2.35328e-06
2.33964e-06
2.28979e-06
2.18609e-06
2.00281e-06
1.72425e-06
1.53511e-06
1.34854e-06
1.86878e-06
3.3592e-06
9.72158e-07
6.56465e-07
1.77298e-06
3.30551e-06
4.58503e-06
3.43536e-06
1.16533e-06
2.10486e-06
3.64421e-06
1.68348e-06
1.20263e-06
1.34892e-06
1.53526e-06
1.83116e-06
2.05013e-06
2.18316e-06
2.25611e-06
2.28961e-06
2.30438e-06
2.32165e-06
2.35202e-06
2.39376e-06
2.44241e-06
2.49082e-06
2.53199e-06
2.56516e-06
2.5927e-06
2.61802e-06
2.64382e-06
2.6701e-06
2.69564e-06
2.71994e-06
2.74474e-06
3.04822e-06
3.03769e-06
3.02828e-06
3.01608e-06
3.00126e-06
2.98466e-06
2.96697e-06
2.94823e-06
2.92886e-06
2.90907e-06
2.88892e-06
2.86827e-06
2.84736e-06
2.82615e-06
2.80416e-06
2.78082e-06
2.75643e-06
2.73217e-06
2.7092e-06
2.68743e-06
2.66416e-06
2.63566e-06
2.59916e-06
2.55516e-06
2.51046e-06
2.47249e-06
2.44602e-06
2.43324e-06
2.42372e-06
2.39548e-06
2.32651e-06
2.19489e-06
1.97338e-06
1.66457e-06
1.46258e-06
1.28348e-06
1.7452e-06
3.76243e-06
2.15459e-06
1.25698e-06
3.5764e-06
5.41119e-06
6.78606e-06
6.60027e-06
2.24054e-06
3.8956e-06
3.55864e-06
1.47224e-06
1.07339e-06
1.15114e-06
1.33394e-06
1.62275e-06
1.85315e-06
1.99947e-06
2.08595e-06
2.13352e-06
2.16271e-06
2.19406e-06
2.2388e-06
2.2949e-06
2.35722e-06
2.41851e-06
2.4715e-06
2.51556e-06
2.5536e-06
2.58926e-06
2.62542e-06
2.662e-06
2.69785e-06
2.73266e-06
2.76836e-06
3.18062e-06
3.16364e-06
3.14942e-06
3.1326e-06
3.11277e-06
3.09065e-06
3.06688e-06
3.04149e-06
3.01509e-06
2.98803e-06
2.96037e-06
2.93181e-06
2.90284e-06
2.8735e-06
2.84323e-06
2.8113e-06
2.77788e-06
2.74422e-06
2.71161e-06
2.68014e-06
2.64699e-06
2.60809e-06
2.56008e-06
2.50324e-06
2.44455e-06
2.39159e-06
2.34997e-06
2.32228e-06
2.29749e-06
2.25416e-06
2.17027e-06
2.02305e-06
1.78606e-06
1.48008e-06
1.28218e-06
1.1732e-06
1.55241e-06
3.69844e-06
4.01299e-06
2.40604e-06
6.7816e-06
8.08974e-06
9.31019e-06
1.1951e-05
4.24971e-06
5.68586e-06
3.15203e-06
1.21752e-06
8.81154e-07
8.75785e-07
1.06423e-06
1.31872e-06
1.53646e-06
1.68082e-06
1.77254e-06
1.8296e-06
1.86999e-06
1.91179e-06
1.96598e-06
2.0307e-06
2.10096e-06
2.17019e-06
2.23124e-06
2.28355e-06
2.33007e-06
2.37422e-06
2.41882e-06
2.46381e-06
2.5082e-06
2.55183e-06
2.59639e-06
3.1097e-06
3.08554e-06
3.0658e-06
3.04414e-06
3.0195e-06
2.9923e-06
2.96298e-06
2.93147e-06
2.89858e-06
2.86483e-06
2.83025e-06
2.79429e-06
2.75789e-06
2.72126e-06
2.6838e-06
2.64464e-06
2.60384e-06
2.56254e-06
2.522e-06
2.48237e-06
2.44096e-06
2.39382e-06
2.33748e-06
2.27214e-06
2.20451e-06
2.14164e-06
2.08913e-06
2.04944e-06
2.01168e-06
1.95681e-06
1.86536e-06
1.71695e-06
1.48818e-06
1.21325e-06
1.01229e-06
9.92363e-07
1.31291e-06
3.30968e-06
5.93119e-06
4.54365e-06
1.21537e-05
1.12083e-05
1.20078e-05
2.04363e-05
8.08866e-06
6.74167e-06
2.59228e-06
9.49052e-07
6.63114e-07
6.25211e-07
7.78586e-07
9.83053e-07
1.16941e-06
1.29852e-06
1.38608e-06
1.44527e-06
1.49044e-06
1.53627e-06
1.59275e-06
1.65857e-06
1.72962e-06
1.80049e-06
1.86422e-06
1.92023e-06
1.97113e-06
2.01976e-06
2.06872e-06
2.11801e-06
2.16693e-06
2.21543e-06
2.26478e-06
2.85425e-06
2.82359e-06
2.79848e-06
2.77248e-06
2.74395e-06
2.71293e-06
2.67952e-06
2.64347e-06
2.60578e-06
2.56711e-06
2.52744e-06
2.48576e-06
2.44386e-06
2.40221e-06
2.36017e-06
2.31678e-06
2.27195e-06
2.22658e-06
2.18172e-06
2.13746e-06
2.09142e-06
2.04008e-06
1.9803e-06
1.91228e-06
1.84224e-06
1.77647e-06
1.71986e-06
1.67425e-06
1.62956e-06
1.5701e-06
1.48022e-06
1.34371e-06
1.14271e-06
9.15872e-07
7.38335e-07
7.68938e-07
1.04967e-06
2.75884e-06
7.13502e-06
8.59035e-06
2.07203e-05
1.45834e-05
1.38098e-05
3.28837e-05
1.33567e-05
6.72728e-06
1.99428e-06
6.8262e-07
4.68327e-07
4.46955e-07
5.26373e-07
6.74071e-07
8.16344e-07
9.21451e-07
9.97012e-07
1.05072e-06
1.09348e-06
1.1365e-06
1.18811e-06
1.24782e-06
1.31296e-06
1.37949e-06
1.44025e-06
1.49453e-06
1.54454e-06
1.59238e-06
1.64034e-06
1.68854e-06
1.73663e-06
1.78472e-06
1.83379e-06
2.45981e-06
2.42495e-06
2.39584e-06
2.36689e-06
2.33619e-06
2.30334e-06
2.26809e-06
2.22995e-06
2.19007e-06
2.14921e-06
2.10718e-06
2.06218e-06
2.01768e-06
1.97442e-06
1.93158e-06
1.8881e-06
1.84368e-06
1.79889e-06
1.75443e-06
1.71028e-06
1.66444e-06
1.61393e-06
1.55615e-06
1.49124e-06
1.42487e-06
1.3631e-06
1.30954e-06
1.26509e-06
1.22097e-06
1.16499e-06
1.08538e-06
9.69865e-07
8.11608e-07
6.41438e-07
5.46512e-07
5.62108e-07
7.75975e-07
2.15471e-06
7.2127e-06
1.44378e-05
3.37441e-05
1.76148e-05
1.48175e-05
4.50107e-05
1.85587e-05
5.81083e-06
1.45956e-06
4.93824e-07
3.43368e-07
3.29092e-07
3.68524e-07
4.42219e-07
5.23588e-07
6.00488e-07
6.59716e-07
7.02251e-07
7.36845e-07
7.71727e-07
8.13065e-07
8.61144e-07
9.15407e-07
9.73607e-07
1.02692e-06
1.07464e-06
1.11881e-06
1.16082e-06
1.20265e-06
1.24453e-06
1.28652e-06
1.32897e-06
1.37283e-06
1.98876e-06
1.95328e-06
1.9228e-06
1.89317e-06
1.86259e-06
1.83039e-06
1.79594e-06
1.75854e-06
1.71948e-06
1.67951e-06
1.63806e-06
1.59193e-06
1.54804e-06
1.50702e-06
1.46758e-06
1.42841e-06
1.38896e-06
1.34938e-06
1.30998e-06
1.27061e-06
1.22967e-06
1.18467e-06
1.1335e-06
1.0758e-06
1.01715e-06
9.64792e-07
9.20165e-07
8.82889e-07
8.45821e-07
8.00305e-07
7.37307e-07
6.47028e-07
5.52105e-07
4.66991e-07
4.1906e-07
4.29344e-07
5.82311e-07
1.61039e-06
6.31459e-06
2.0589e-05
4.67232e-05
1.93453e-05
1.53178e-05
5.46153e-05
2.09569e-05
4.55265e-06
1.04225e-06
3.75056e-07
2.69134e-07
2.62156e-07
2.81669e-07
3.16298e-07
3.55853e-07
3.91668e-07
4.21009e-07
4.44576e-07
4.65399e-07
4.87094e-07
5.13124e-07
5.44575e-07
5.83631e-07
6.32407e-07
6.7587e-07
7.13724e-07
7.48857e-07
7.81514e-07
8.13619e-07
8.45428e-07
8.77345e-07
9.10054e-07
9.44687e-07
1.50787e-06
1.47573e-06
1.44725e-06
1.4198e-06
1.3919e-06
1.36281e-06
1.33166e-06
1.2976e-06
1.2621e-06
1.22563e-06
1.18697e-06
1.14035e-06
1.10006e-06
1.06502e-06
1.0328e-06
1.00174e-06
9.70989e-07
9.40262e-07
9.09483e-07
8.78427e-07
8.4589e-07
8.0971e-07
7.68031e-07
7.18825e-07
6.69573e-07
6.31991e-07
6.02011e-07
5.77408e-07
5.53888e-07
5.27649e-07
4.95439e-07
4.54998e-07
4.10601e-07
3.72087e-07
3.48818e-07
3.52152e-07
4.59317e-07
1.18049e-06
5.02101e-06
2.36907e-05
5.76143e-05
2.02068e-05
1.57328e-05
5.97259e-05
1.94086e-05
3.34759e-06
7.38913e-07
2.99133e-07
2.33249e-07
2.36742e-07
2.44925e-07
2.57769e-07
2.74951e-07
2.91178e-07
3.05525e-07
3.18136e-07
3.30064e-07
3.42796e-07
3.58028e-07
3.76346e-07
3.97567e-07
4.20849e-07
4.42773e-07
4.63074e-07
4.82255e-07
5.00403e-07
5.18377e-07
5.36401e-07
5.54846e-07
5.74443e-07
5.96484e-07
1.07657e-06
1.05121e-06
1.02812e-06
1.00572e-06
9.82932e-07
9.59015e-07
9.33001e-07
9.0412e-07
8.74219e-07
8.42935e-07
8.07784e-07
7.58232e-07
7.25243e-07
7.00149e-07
6.78788e-07
6.59272e-07
6.40749e-07
6.22968e-07
6.0548e-07
5.87962e-07
5.70482e-07
5.51226e-07
5.29653e-07
5.0586e-07
4.81825e-07
4.60441e-07
4.42057e-07
4.2643e-07
4.11971e-07
3.9754e-07
3.82484e-07
3.66334e-07
3.50432e-07
3.38166e-07
3.30912e-07
3.21321e-07
3.8563e-07
8.65021e-07
3.7543e-06
2.21778e-05
6.48771e-05
2.08266e-05
1.56564e-05
5.7669e-05
1.57036e-05
2.34125e-06
5.29463e-07
2.54419e-07
2.19688e-07
2.29496e-07
2.35766e-07
2.43442e-07
2.52033e-07
2.59887e-07
2.66998e-07
2.73289e-07
2.79138e-07
2.85217e-07
2.92961e-07
3.03324e-07
3.14807e-07
3.26796e-07
3.38485e-07
3.49522e-07
3.60122e-07
3.70025e-07
3.79638e-07
3.89135e-07
3.98752e-07
4.09474e-07
4.22649e-07
7.45875e-07
7.31444e-07
7.18122e-07
7.04923e-07
6.91374e-07
6.7701e-07
6.61202e-07
6.43315e-07
6.25047e-07
6.06722e-07
5.87543e-07
5.64352e-07
5.44744e-07
5.28655e-07
5.14878e-07
5.02704e-07
4.91912e-07
4.82391e-07
4.73409e-07
4.64312e-07
4.54987e-07
4.449e-07
4.33752e-07
4.21759e-07
4.09441e-07
3.97489e-07
3.86344e-07
3.76105e-07
3.66984e-07
3.60259e-07
3.56482e-07
3.54012e-07
3.52515e-07
3.52622e-07
3.47221e-07
3.24481e-07
3.49353e-07
6.479e-07
2.67775e-06
1.81995e-05
6.46567e-05
2.07819e-05
1.54158e-05
4.64621e-05
1.13067e-05
1.60168e-06
4.04635e-07
2.31684e-07
2.19035e-07
2.32034e-07
2.37519e-07
2.42444e-07
2.48034e-07
2.53952e-07
2.60031e-07
2.66237e-07
2.72662e-07
2.79471e-07
2.86842e-07
2.94743e-07
3.02785e-07
3.1069e-07
3.18283e-07
3.25258e-07
3.31542e-07
3.3695e-07
3.41418e-07
3.44786e-07
3.47683e-07
3.51122e-07
3.58041e-07
6.19666e-07
6.12715e-07
6.06459e-07
5.99684e-07
5.92001e-07
5.83301e-07
5.73429e-07
5.62144e-07
5.50213e-07
5.38075e-07
5.25668e-07
5.12345e-07
5.00004e-07
4.89263e-07
4.79836e-07
4.71578e-07
4.66214e-07
4.64478e-07
4.62616e-07
4.59586e-07
4.55385e-07
4.50002e-07
4.43735e-07
4.36905e-07
4.29268e-07
4.21068e-07
4.12518e-07
4.0379e-07
3.95607e-07
3.88861e-07
3.84243e-07
3.82257e-07
3.83916e-07
3.8787e-07
3.82526e-07
3.50779e-07
3.42784e-07
5.24098e-07
1.88233e-06
1.32866e-05
5.526e-05
2.04858e-05
1.43885e-05
3.22017e-05
7.52161e-06
1.09877e-06
3.28422e-07
2.24687e-07
2.27936e-07
2.41632e-07
2.47068e-07
2.50797e-07
2.55263e-07
2.60625e-07
2.6661e-07
2.73068e-07
2.79908e-07
2.87008e-07
2.94222e-07
3.01457e-07
3.0858e-07
3.15479e-07
3.22175e-07
3.28557e-07
3.34619e-07
3.40353e-07
3.45798e-07
3.51094e-07
3.56617e-07
3.62876e-07
3.70466e-07
6.50339e-07
6.51553e-07
6.53128e-07
6.52571e-07
6.49573e-07
6.44447e-07
6.37525e-07
6.29005e-07
6.19387e-07
6.09113e-07
5.98402e-07
5.87192e-07
5.76093e-07
5.65579e-07
5.55733e-07
5.46587e-07
5.38516e-07
5.3173e-07
5.25359e-07
5.18829e-07
5.12079e-07
5.05126e-07
4.98083e-07
4.91002e-07
4.83389e-07
4.75164e-07
4.663e-07
4.56882e-07
4.47882e-07
4.40359e-07
4.35141e-07
4.33231e-07
4.36164e-07
4.41744e-07
4.35164e-07
3.98369e-07
3.61395e-07
4.55896e-07
1.33968e-06
9.01785e-06
4.05327e-05
1.97115e-05
1.2474e-05
2.07724e-05
4.81206e-06
7.71081e-07
2.84385e-07
2.2867e-07
2.42719e-07
2.56609e-07
2.62481e-07
2.65869e-07
2.70051e-07
2.75416e-07
2.81651e-07
2.88536e-07
2.95892e-07
3.03482e-07
3.11065e-07
3.18575e-07
3.25967e-07
3.33222e-07
3.40464e-07
3.47702e-07
3.54962e-07
3.62271e-07
3.69652e-07
3.77205e-07
3.85103e-07
3.93528e-07
4.0256e-07
8.35541e-07
8.27815e-07
8.20913e-07
8.13407e-07
8.04717e-07
7.94775e-07
7.83693e-07
7.71597e-07
7.58739e-07
7.45389e-07
7.3175e-07
7.1789e-07
7.04021e-07
6.90404e-07
6.77214e-07
6.64465e-07
6.52306e-07
6.40679e-07
6.29332e-07
6.18088e-07
6.07111e-07
5.96531e-07
5.86484e-07
5.76866e-07
5.67004e-07
5.56649e-07
5.45634e-07
5.33974e-07
5.22852e-07
5.13554e-07
5.07077e-07
5.04619e-07
5.07877e-07
5.13943e-07
5.05044e-07
4.62959e-07
4.01456e-07
4.27818e-07
9.86786e-07
5.91256e-06
2.73646e-05
1.77098e-05
1.03692e-05
1.31631e-05
3.06828e-06
5.62581e-07
2.62226e-07
2.40041e-07
2.60888e-07
2.75855e-07
2.82472e-07
2.86036e-07
2.90428e-07
2.96163e-07
3.02934e-07
3.10499e-07
3.18648e-07
3.27092e-07
3.35552e-07
3.43994e-07
3.52423e-07
3.60886e-07
3.69552e-07
3.78483e-07
3.87699e-07
3.97197e-07
4.06952e-07
4.17007e-07
4.27437e-07
4.38285e-07
4.49591e-07
1.11118e-06
1.09285e-06
1.07517e-06
1.05757e-06
1.03962e-06
1.02117e-06
1.0022e-06
9.82775e-07
9.63018e-07
9.43087e-07
9.23123e-07
9.032e-07
8.83406e-07
8.63891e-07
8.44817e-07
8.26248e-07
8.08162e-07
7.90489e-07
7.73076e-07
7.55902e-07
7.39309e-07
7.23547e-07
7.08829e-07
6.94971e-07
6.81168e-07
6.67038e-07
6.5233e-07
6.3702e-07
6.22506e-07
6.10316e-07
6.01599e-07
5.97668e-07
6.00222e-07
6.05682e-07
5.93278e-07
5.43383e-07
4.60673e-07
4.3105e-07
7.66441e-07
3.87475e-06
1.78839e-05
1.51577e-05
8.43292e-06
8.42293e-06
1.97377e-06
4.37252e-07
2.5534e-07
2.5668e-07
2.82158e-07
2.98791e-07
3.06329e-07
3.10416e-07
3.15401e-07
3.21847e-07
3.29465e-07
3.3802e-07
3.47294e-07
3.56976e-07
3.66768e-07
3.76656e-07
3.86678e-07
3.96921e-07
4.07586e-07
4.18756e-07
4.30422e-07
4.42535e-07
4.5504e-07
4.67966e-07
4.81332e-07
4.9519e-07
5.09566e-07
1.48799e-06
1.4556e-06
1.42377e-06
1.39239e-06
1.36128e-06
1.33032e-06
1.29947e-06
1.26875e-06
1.23825e-06
1.20803e-06
1.17821e-06
1.14881e-06
1.11986e-06
1.09147e-06
1.0638e-06
1.03693e-06
1.01073e-06
9.851e-07
9.59918e-07
9.35219e-07
9.1139e-07
8.88834e-07
8.67833e-07
8.48153e-07
8.28833e-07
8.09385e-07
7.89496e-07
7.69129e-07
7.49894e-07
7.33557e-07
7.214e-07
7.14784e-07
7.15361e-07
7.19114e-07
7.01993e-07
6.4162e-07
5.38672e-07
4.60921e-07
6.45042e-07
2.58033e-06
1.16698e-05
1.26311e-05
6.7751e-06
5.54357e-06
1.30878e-06
3.65717e-07
2.5943e-07
2.77465e-07
3.06626e-07
3.25351e-07
3.33981e-07
3.3865e-07
3.44521e-07
3.52051e-07
3.60891e-07
3.70808e-07
3.81584e-07
3.92897e-07
4.04438e-07
4.16211e-07
4.28277e-07
4.40748e-07
4.53848e-07
4.67673e-07
4.822e-07
4.97368e-07
5.13083e-07
5.29345e-07
5.46202e-07
5.63726e-07
5.81938e-07
1.983e-06
1.93148e-06
1.88076e-06
1.83096e-06
1.78204e-06
1.73397e-06
1.68673e-06
1.64033e-06
1.59482e-06
1.55025e-06
1.50667e-06
1.46408e-06
1.42248e-06
1.38193e-06
1.34259e-06
1.30454e-06
1.2677e-06
1.23171e-06
1.19653e-06
1.16211e-06
1.12898e-06
1.09767e-06
1.0685e-06
1.04118e-06
1.01458e-06
9.8809e-07
9.6133e-07
9.34257e-07
9.08692e-07
8.86617e-07
8.69431e-07
8.58583e-07
8.55893e-07
8.57761e-07
8.34451e-07
7.60433e-07
6.36443e-07
5.15292e-07
5.88319e-07
1.78793e-06
7.79403e-06
1.01954e-05
4.9263e-06
3.76782e-06
9.13074e-07
3.26544e-07
2.7197e-07
3.02335e-07
3.35072e-07
3.56773e-07
3.66655e-07
3.71069e-07
3.7761e-07
3.86523e-07
3.97104e-07
4.08919e-07
4.21703e-07
4.35133e-07
4.48903e-07
4.63036e-07
4.77614e-07
4.92773e-07
5.0877e-07
5.25711e-07
5.43582e-07
5.62324e-07
5.81809e-07
6.02034e-07
6.23064e-07
6.44992e-07
6.67854e-07
2.62257e-06
2.54504e-06
2.46901e-06
2.39471e-06
2.32216e-06
2.25138e-06
2.18236e-06
2.11511e-06
2.04965e-06
1.986e-06
1.92419e-06
1.86415e-06
1.80583e-06
1.74929e-06
1.69463e-06
1.64194e-06
1.59106e-06
1.54159e-06
1.49326e-06
1.44615e-06
1.40092e-06
1.35819e-06
1.31832e-06
1.28095e-06
1.24474e-06
1.20886e-06
1.17282e-06
1.13655e-06
1.1022e-06
1.0721e-06
1.04803e-06
1.03204e-06
1.02695e-06
1.03141e-06
9.9907e-07
9.06569e-07
7.58076e-07
5.94681e-07
5.77581e-07
1.31827e-06
5.37292e-06
7.65832e-06
3.90334e-06
2.63183e-06
6.78672e-07
3.09524e-07
2.92735e-07
3.34431e-07
3.73189e-07
3.98605e-07
4.10405e-07
4.11773e-07
4.16217e-07
4.25191e-07
4.37574e-07
4.5211e-07
4.67774e-07
4.84091e-07
5.00773e-07
5.17938e-07
5.35732e-07
5.5432e-07
5.7395e-07
5.94762e-07
6.16744e-07
6.39838e-07
6.63904e-07
6.88951e-07
7.15069e-07
7.42381e-07
7.70951e-07
3.4538e-06
3.34053e-06
3.23013e-06
3.12284e-06
3.01871e-06
2.91774e-06
2.81987e-06
2.72508e-06
2.63334e-06
2.5446e-06
2.45881e-06
2.37587e-06
2.29566e-06
2.21813e-06
2.14332e-06
2.07117e-06
2.00135e-06
1.93331e-06
1.86672e-06
1.80185e-06
1.73981e-06
1.68142e-06
1.62715e-06
1.57649e-06
1.5275e-06
1.4786e-06
1.42852e-06
1.37771e-06
1.33162e-06
1.2943e-06
1.26876e-06
1.25869e-06
1.26851e-06
1.28465e-06
1.24259e-06
1.12096e-06
9.24672e-07
7.07149e-07
6.05927e-07
1.04865e-06
3.82021e-06
6.02261e-06
3.19082e-06
1.89649e-06
5.41205e-07
3.10442e-07
3.26055e-07
3.84992e-07
4.40157e-07
4.75871e-07
4.88623e-07
4.847e-07
4.82613e-07
4.86933e-07
4.96282e-07
5.09423e-07
5.25334e-07
5.42981e-07
5.6164e-07
5.81515e-07
6.03006e-07
6.26563e-07
6.51677e-07
6.77949e-07
7.05366e-07
7.34006e-07
7.63881e-07
7.95092e-07
8.27765e-07
8.62078e-07
8.9817e-07
4.57021e-06
4.40587e-06
4.24699e-06
4.09373e-06
3.94601e-06
3.80369e-06
3.66659e-06
3.53454e-06
3.4074e-06
3.28491e-06
3.16693e-06
3.05324e-06
2.94355e-06
2.8376e-06
2.73496e-06
2.63488e-06
2.53653e-06
2.43893e-06
2.34184e-06
2.24841e-06
2.16267e-06
2.08583e-06
2.01811e-06
1.95835e-06
1.90313e-06
1.85018e-06
1.79801e-06
1.74623e-06
1.70002e-06
1.66589e-06
1.6493e-06
1.65596e-06
1.69148e-06
1.7301e-06
1.67585e-06
1.48691e-06
1.19077e-06
8.77422e-07
6.77179e-07
9.06806e-07
2.81762e-06
4.88351e-06
2.66544e-06
1.4206e-06
4.64047e-07
3.30132e-07
3.82098e-07
4.73692e-07
5.62032e-07
6.19349e-07
6.36662e-07
6.25323e-07
6.1388e-07
6.11427e-07
6.16631e-07
6.27791e-07
6.43172e-07
6.60746e-07
6.78931e-07
6.97829e-07
7.1791e-07
7.39949e-07
7.64817e-07
7.92627e-07
8.23101e-07
8.55829e-07
8.90762e-07
9.28184e-07
9.68465e-07
1.01206e-06
1.05953e-06
6.19535e-06
5.95176e-06
5.71931e-06
5.49772e-06
5.28646e-06
5.08502e-06
4.89287e-06
4.70954e-06
4.53464e-06
4.36782e-06
4.2087e-06
4.0568e-06
3.91168e-06
3.77316e-06
3.64118e-06
3.51552e-06
3.39574e-06
3.28075e-06
3.16967e-06
3.06269e-06
2.96214e-06
2.87132e-06
2.79194e-06
2.72287e-06
2.65889e-06
2.59662e-06
2.53404e-06
2.47095e-06
2.4164e-06
2.38149e-06
2.37495e-06
2.40465e-06
2.47609e-06
2.54123e-06
2.45132e-06
2.1332e-06
1.6465e-06
1.15345e-06
8.07823e-07
8.52649e-07
2.18002e-06
4.06271e-06
2.25908e-06
1.11445e-06
4.28525e-07
3.7442e-07
4.78309e-07
6.31074e-07
7.8272e-07
8.82768e-07
9.12394e-07
8.94185e-07
8.71433e-07
8.60727e-07
8.61387e-07
8.71328e-07
8.8791e-07
9.07678e-07
9.27874e-07
9.48602e-07
9.70551e-07
9.9495e-07
1.02342e-06
1.05629e-06
1.09292e-06
1.13242e-06
1.17439e-06
1.21885e-06
1.26621e-06
1.31679e-06
1.37049e-06
9.71138e-06
9.306e-06
8.92175e-06
8.55768e-06
8.21256e-06
7.88522e-06
7.57455e-06
7.27958e-06
6.99958e-06
6.73388e-06
6.48177e-06
6.24232e-06
6.01472e-06
5.79869e-06
5.59353e-06
5.39997e-06
5.21772e-06
5.04441e-06
4.87903e-06
4.72077e-06
4.57329e-06
4.44202e-06
4.32967e-06
4.23424e-06
4.14659e-06
4.0608e-06
3.97353e-06
3.88469e-06
3.8096e-06
3.76655e-06
3.76877e-06
3.82591e-06
3.94004e-06
4.02496e-06
3.85304e-06
3.28927e-06
2.44804e-06
1.62027e-06
1.03229e-06
8.7913e-07
1.78802e-06
3.45691e-06
1.94432e-06
9.1946e-07
4.29397e-07
4.55252e-07
6.43509e-07
9.07427e-07
1.17448e-06
1.35478e-06
1.41327e-06
1.39385e-06
1.36002e-06
1.34091e-06
1.33788e-06
1.34892e-06
1.3703e-06
1.39652e-06
1.42302e-06
1.4499e-06
1.47827e-06
1.51003e-06
1.548e-06
1.59286e-06
1.64359e-06
1.69875e-06
1.75743e-06
1.8198e-06
1.88636e-06
1.95764e-06
2.03408e-06
1.63495e-05
1.56627e-05
1.50115e-05
1.43941e-05
1.38086e-05
1.3253e-05
1.27257e-05
1.22252e-05
1.17505e-05
1.13005e-05
1.08741e-05
1.047e-05
1.00865e-05
9.7234e-06
9.38058e-06
9.05752e-06
8.75384e-06
8.46649e-06
8.19245e-06
7.93106e-06
7.68844e-06
7.47346e-06
7.29039e-06
7.13538e-06
6.99323e-06
6.85425e-06
6.71303e-06
6.56947e-06
6.44799e-06
6.37702e-06
6.3751e-06
6.45143e-06
6.5979e-06
6.66623e-06
6.32295e-06
5.32174e-06
3.85519e-06
2.42312e-06
1.41285e-06
9.8969e-07
1.55987e-06
3.00638e-06
1.70008e-06
7.98797e-07
4.65858e-07
5.93062e-07
9.2373e-07
1.38124e-06
1.84723e-06
2.16953e-06
2.28901e-06
2.28643e-06
2.25088e-06
2.22961e-06
2.22864e-06
2.24735e-06
2.28127e-06
2.32227e-06
2.36325e-06
2.40449e-06
2.4479e-06
2.49675e-06
2.5558e-06
2.62636e-06
2.70673e-06
2.79488e-06
2.88903e-06
2.98933e-06
3.09667e-06
3.2124e-06
3.33734e-06
2.7598e-05
2.6502e-05
2.5454e-05
2.44524e-05
2.34953e-05
2.25811e-05
2.17086e-05
2.08768e-05
2.00851e-05
1.93331e-05
1.86196e-05
1.79426e-05
1.73001e-05
1.66915e-05
1.61177e-05
1.55785e-05
1.50706e-05
1.45886e-05
1.41281e-05
1.36891e-05
1.3281e-05
1.29176e-05
1.26051e-05
1.23374e-05
1.20913e-05
1.18513e-05
1.1609e-05
1.1364e-05
1.11522e-05
1.10141e-05
1.09724e-05
1.10303e-05
1.1158e-05
1.11207e-05
1.04598e-05
8.74617e-06
6.26018e-06
3.80363e-06
2.057e-06
1.2107e-06
1.4538e-06
2.66815e-06
1.5121e-06
7.34166e-07
5.4478e-07
8.19442e-07
1.38516e-06
2.1553e-06
2.93207e-06
3.48027e-06
3.71554e-06
3.77264e-06
3.77201e-06
3.77932e-06
3.80727e-06
3.85851e-06
3.92907e-06
4.00779e-06
4.08406e-06
4.15906e-06
4.23613e-06
4.32029e-06
4.41898e-06
4.53483e-06
4.66569e-06
4.8101e-06
4.96593e-06
5.13402e-06
5.31571e-06
5.51273e-06
5.72604e-06
4.45532e-05
4.29504e-05
4.13955e-05
3.98887e-05
3.84302e-05
3.70216e-05
3.56655e-05
3.43654e-05
3.31252e-05
3.19472e-05
3.08311e-05
2.97739e-05
2.87716e-05
2.78221e-05
2.69258e-05
2.60819e-05
2.52852e-05
2.45269e-05
2.38007e-05
2.31068e-05
2.24598e-05
2.18746e-05
2.13628e-05
2.09154e-05
2.04994e-05
2.00928e-05
1.96834e-05
1.92699e-05
1.88997e-05
1.86229e-05
1.84602e-05
1.83998e-05
1.83793e-05
1.80709e-05
1.68874e-05
1.41415e-05
1.01638e-05
6.10883e-06
3.13598e-06
1.59428e-06
1.4525e-06
2.42215e-06
1.37009e-06
7.15478e-07
6.79539e-07
1.17651e-06
2.10058e-06
3.30955e-06
4.48608e-06
5.31744e-06
5.72492e-06
5.88764e-06
5.97992e-06
6.07104e-06
6.18052e-06
6.31521e-06
6.46635e-06
6.62625e-06
6.78704e-06
6.95021e-06
7.11954e-06
7.30106e-06
7.50376e-06
7.73088e-06
7.9797e-06
8.24929e-06
8.53506e-06
8.8371e-06
9.15774e-06
9.50042e-06
9.8671e-06
6.36381e-05
6.18059e-05
6.00222e-05
5.82871e-05
5.66e-05
5.49605e-05
5.33684e-05
5.18236e-05
5.03272e-05
4.88802e-05
4.7483e-05
4.6134e-05
4.4832e-05
4.3578e-05
4.23759e-05
4.12279e-05
4.013e-05
3.9073e-05
3.80507e-05
3.70649e-05
3.61361e-05
3.52708e-05
3.44843e-05
3.37673e-05
3.30863e-05
3.24175e-05
3.1746e-05
3.10665e-05
3.04173e-05
2.98312e-05
2.93427e-05
2.89344e-05
2.85193e-05
2.77377e-05
2.58269e-05
2.1833e-05
1.59979e-05
9.74717e-06
4.89434e-06
2.22608e-06
1.55584e-06
2.25458e-06
1.26647e-06
7.38482e-07
8.89431e-07
1.7109e-06
3.12331e-06
4.8548e-06
6.45249e-06
7.57214e-06
8.18203e-06
8.45252e-06
8.6809e-06
8.89853e-06
9.12944e-06
9.37671e-06
9.63924e-06
9.91444e-06
1.01948e-05
1.04819e-05
1.07799e-05
1.10949e-05
1.14362e-05
1.18071e-05
1.22058e-05
1.26315e-05
1.30796e-05
1.355e-05
1.40454e-05
1.45697e-05