/*--------------------------------*- C++ -*----------------------------------*\
| =========                 |                                                 |
| \\      /  F ield         | OpenFOAM: The Open Source CFD Toolbox           |
|  \\    /   O peration     | Version:  2412                                  |
|   \\  /    A nd           | Website:  www.openfoam.com                      |
|    \\/     M anipulation  |                                                 |
\*---------------------------------------------------------------------------*/
FoamFile
{
    version     2.0;
    format      ascii;
    arch        "LSB;label=32;scalar=64";
    class       volScalarField;
    location    "20";
    object      nut;
}
// * * * * * * * * * * * * * * * * * * * * * * * * * * * * * * * * * * * * * //

dimensions      [0 2 -1 0 0 0 0];

internalField   nonuniform List<scalar> 
8637
(
2.45758e-10
2.45716e-10
2.4568e-10
2.45661e-10
2.45628e-10
2.45605e-10
2.45574e-10
2.45556e-10
2.45517e-10
2.4548e-10
2.45463e-10
2.4546e-10
2.45449e-10
2.45406e-10
2.45385e-10
2.45374e-10
2.4536e-10
2.45327e-10
2.45313e-10
2.45286e-10
2.45284e-10
2.45261e-10
2.45241e-10
2.45203e-10
2.45195e-10
2.45166e-10
2.45162e-10
2.45126e-10
2.45106e-10
2.45065e-10
2.45045e-10
2.44997e-10
2.44988e-10
2.44941e-10
2.44911e-10
2.44865e-10
2.4482e-10
2.4476e-10
2.44709e-10
2.44638e-10
2.44591e-10
2.44503e-10
2.44426e-10
2.44326e-10
2.44248e-10
2.44137e-10
2.44029e-10
2.43905e-10
2.43778e-10
2.4361e-10
2.43459e-10
2.43275e-10
2.431e-10
2.42886e-10
2.42656e-10
2.42401e-10
2.42136e-10
2.4183e-10
2.4151e-10
2.41141e-10
2.40761e-10
2.40314e-10
2.39843e-10
2.39312e-10
2.38757e-10
2.38135e-10
2.37463e-10
2.36706e-10
2.35922e-10
2.35022e-10
2.34064e-10
2.33007e-10
2.31839e-10
2.30569e-10
2.29163e-10
2.27615e-10
2.25922e-10
2.24027e-10
2.21913e-10
2.19554e-10
2.16892e-10
2.13877e-10
2.10434e-10
2.0648e-10
2.01853e-10
1.96436e-10
1.90165e-10
1.82258e-10
1.2635e-08
1.26317e-08
1.26283e-08
1.2625e-08
1.26214e-08
1.26183e-08
1.26152e-08
1.26123e-08
1.26088e-08
1.26055e-08
1.26026e-08
1.26e-08
1.25971e-08
1.25936e-08
1.25904e-08
1.25872e-08
1.25842e-08
1.25806e-08
1.25778e-08
1.25737e-08
1.25711e-08
1.25672e-08
1.2564e-08
1.25596e-08
1.25561e-08
1.25518e-08
1.25485e-08
1.25437e-08
1.25398e-08
1.25348e-08
1.25306e-08
1.25251e-08
1.25209e-08
1.25146e-08
1.25097e-08
1.25035e-08
1.24979e-08
1.24912e-08
1.24841e-08
1.24766e-08
1.24697e-08
1.24609e-08
1.24528e-08
1.24434e-08
1.24345e-08
1.2424e-08
1.24136e-08
1.24019e-08
1.23903e-08
1.23768e-08
1.23635e-08
1.23486e-08
1.23338e-08
1.23168e-08
1.22996e-08
1.22807e-08
1.2261e-08
1.22398e-08
1.22179e-08
1.21935e-08
1.21687e-08
1.21412e-08
1.21128e-08
1.20816e-08
1.20493e-08
1.2014e-08
1.19768e-08
1.19359e-08
1.18935e-08
1.18465e-08
1.1797e-08
1.17427e-08
1.16841e-08
1.16208e-08
1.15518e-08
1.14765e-08
1.13941e-08
1.13032e-08
1.12031e-08
1.10919e-08
1.09674e-08
1.08275e-08
1.06691e-08
1.04884e-08
1.02777e-08
1.00323e-08
9.74945e-09
9.38925e-09
5.80504e-08
5.80319e-08
5.80111e-08
5.79857e-08
5.79643e-08
5.79454e-08
5.79257e-08
5.79062e-08
5.78853e-08
5.78655e-08
5.7846e-08
5.78266e-08
5.78064e-08
5.77852e-08
5.77645e-08
5.77434e-08
5.77222e-08
5.76991e-08
5.76794e-08
5.76541e-08
5.76339e-08
5.76086e-08
5.7586e-08
5.75583e-08
5.75348e-08
5.75065e-08
5.74811e-08
5.74508e-08
5.74245e-08
5.73923e-08
5.73629e-08
5.73289e-08
5.72978e-08
5.72603e-08
5.72271e-08
5.71878e-08
5.71507e-08
5.71078e-08
5.70656e-08
5.70197e-08
5.69752e-08
5.69235e-08
5.68738e-08
5.68178e-08
5.67638e-08
5.67029e-08
5.66417e-08
5.65747e-08
5.65077e-08
5.64325e-08
5.63572e-08
5.62753e-08
5.61914e-08
5.61e-08
5.60064e-08
5.59051e-08
5.58012e-08
5.56901e-08
5.55764e-08
5.54543e-08
5.53305e-08
5.51961e-08
5.50589e-08
5.49104e-08
5.47587e-08
5.45943e-08
5.44241e-08
5.42396e-08
5.40497e-08
5.3842e-08
5.36246e-08
5.33901e-08
5.31379e-08
5.2868e-08
5.25773e-08
5.22617e-08
5.19189e-08
5.15442e-08
5.11345e-08
5.06821e-08
5.0179e-08
4.96187e-08
4.89889e-08
4.82733e-08
4.74429e-08
4.64797e-08
4.53778e-08
4.39518e-08
1.2693e-07
1.26884e-07
1.26831e-07
1.26747e-07
1.26695e-07
1.26648e-07
1.26598e-07
1.26548e-07
1.26496e-07
1.26446e-07
1.26396e-07
1.26345e-07
1.26293e-07
1.2624e-07
1.26187e-07
1.26133e-07
1.26079e-07
1.2602e-07
1.25968e-07
1.25906e-07
1.25852e-07
1.25787e-07
1.25728e-07
1.25661e-07
1.256e-07
1.25528e-07
1.25462e-07
1.25387e-07
1.25319e-07
1.25239e-07
1.25164e-07
1.25079e-07
1.24999e-07
1.24908e-07
1.24823e-07
1.24726e-07
1.24632e-07
1.24527e-07
1.24424e-07
1.24312e-07
1.24201e-07
1.24078e-07
1.23957e-07
1.23823e-07
1.23691e-07
1.23546e-07
1.234e-07
1.23243e-07
1.23083e-07
1.22908e-07
1.22732e-07
1.22542e-07
1.22348e-07
1.22139e-07
1.21924e-07
1.21694e-07
1.21458e-07
1.21208e-07
1.20955e-07
1.20687e-07
1.20416e-07
1.20126e-07
1.19832e-07
1.19518e-07
1.192e-07
1.18858e-07
1.18507e-07
1.1813e-07
1.17745e-07
1.17327e-07
1.16893e-07
1.1643e-07
1.15934e-07
1.15408e-07
1.14845e-07
1.14239e-07
1.13584e-07
1.12872e-07
1.12099e-07
1.11251e-07
1.10314e-07
1.09277e-07
1.08118e-07
1.06808e-07
1.05289e-07
1.03538e-07
1.01557e-07
9.89294e-08
1.96601e-07
1.96526e-07
1.96439e-07
1.96224e-07
1.96142e-07
1.96065e-07
1.95984e-07
1.95904e-07
1.95822e-07
1.95742e-07
1.95661e-07
1.95579e-07
1.95496e-07
1.95411e-07
1.95327e-07
1.9524e-07
1.95154e-07
1.9506e-07
1.94975e-07
1.94879e-07
1.94792e-07
1.94689e-07
1.94595e-07
1.9449e-07
1.94393e-07
1.9428e-07
1.94176e-07
1.94059e-07
1.93951e-07
1.93826e-07
1.93708e-07
1.93577e-07
1.9345e-07
1.9331e-07
1.93176e-07
1.93026e-07
1.92879e-07
1.92717e-07
1.92558e-07
1.92385e-07
1.92214e-07
1.92027e-07
1.9184e-07
1.91636e-07
1.91434e-07
1.91215e-07
1.90992e-07
1.90754e-07
1.90512e-07
1.90249e-07
1.89984e-07
1.89699e-07
1.89409e-07
1.89097e-07
1.88777e-07
1.88436e-07
1.88086e-07
1.87718e-07
1.87349e-07
1.8696e-07
1.86568e-07
1.86155e-07
1.85737e-07
1.85295e-07
1.84849e-07
1.84375e-07
1.83892e-07
1.83377e-07
1.82853e-07
1.82291e-07
1.81711e-07
1.81098e-07
1.80444e-07
1.79756e-07
1.79025e-07
1.78242e-07
1.77399e-07
1.76489e-07
1.75505e-07
1.74429e-07
1.73244e-07
1.71934e-07
1.70474e-07
1.68823e-07
1.66896e-07
1.647e-07
1.62262e-07
1.5891e-07
2.55933e-07
2.55836e-07
2.55717e-07
2.55195e-07
2.55093e-07
2.54994e-07
2.54894e-07
2.54796e-07
2.54696e-07
2.54598e-07
2.54497e-07
2.54398e-07
2.54297e-07
2.54195e-07
2.54092e-07
2.53988e-07
2.53885e-07
2.53773e-07
2.53672e-07
2.53559e-07
2.53454e-07
2.53333e-07
2.53223e-07
2.531e-07
2.52985e-07
2.52854e-07
2.52732e-07
2.52598e-07
2.52471e-07
2.52327e-07
2.52189e-07
2.52037e-07
2.51891e-07
2.5173e-07
2.51575e-07
2.51402e-07
2.51234e-07
2.51049e-07
2.50865e-07
2.50667e-07
2.50471e-07
2.50256e-07
2.50043e-07
2.4981e-07
2.49578e-07
2.49328e-07
2.49074e-07
2.48801e-07
2.48525e-07
2.48226e-07
2.47924e-07
2.476e-07
2.4727e-07
2.46916e-07
2.46554e-07
2.46168e-07
2.45772e-07
2.45359e-07
2.44946e-07
2.44513e-07
2.4408e-07
2.43626e-07
2.4317e-07
2.42693e-07
2.42214e-07
2.41709e-07
2.41199e-07
2.4066e-07
2.40115e-07
2.39536e-07
2.38941e-07
2.38321e-07
2.37663e-07
2.36976e-07
2.36247e-07
2.35472e-07
2.3464e-07
2.33741e-07
2.32768e-07
2.31698e-07
2.3051e-07
2.29185e-07
2.27697e-07
2.25992e-07
2.23967e-07
2.21727e-07
2.19345e-07
2.15928e-07
3.1577e-07
3.1567e-07
3.15521e-07
3.14172e-07
3.14076e-07
3.13987e-07
3.13897e-07
3.13813e-07
3.1373e-07
3.1365e-07
3.13571e-07
3.13495e-07
3.13419e-07
3.13346e-07
3.13274e-07
3.13202e-07
3.13135e-07
3.13063e-07
3.13001e-07
3.12931e-07
3.12871e-07
3.128e-07
3.12741e-07
3.12673e-07
3.12615e-07
3.12546e-07
3.12488e-07
3.12421e-07
3.12364e-07
3.12295e-07
3.12235e-07
3.12166e-07
3.12106e-07
3.12036e-07
3.11976e-07
3.11903e-07
3.11838e-07
3.11763e-07
3.11694e-07
3.11616e-07
3.11546e-07
3.11462e-07
3.11386e-07
3.11299e-07
3.11219e-07
3.11127e-07
3.11038e-07
3.1094e-07
3.10845e-07
3.10737e-07
3.10634e-07
3.10518e-07
3.10406e-07
3.10282e-07
3.10159e-07
3.10024e-07
3.0989e-07
3.09747e-07
3.09612e-07
3.09465e-07
3.09327e-07
3.09176e-07
3.09034e-07
3.08881e-07
3.08738e-07
3.08581e-07
3.08431e-07
3.08265e-07
3.08109e-07
3.07932e-07
3.07762e-07
3.07582e-07
3.0739e-07
3.07193e-07
3.06985e-07
3.0677e-07
3.06537e-07
3.06283e-07
3.06007e-07
3.05699e-07
3.0535e-07
3.04955e-07
3.04508e-07
3.03985e-07
3.03338e-07
3.02647e-07
3.01979e-07
3.00793e-07
4.20363e-07
4.20235e-07
4.1998e-07
4.16596e-07
4.16481e-07
4.16377e-07
4.16276e-07
4.16182e-07
4.1609e-07
4.16006e-07
4.15923e-07
4.15846e-07
4.15771e-07
4.15702e-07
4.15637e-07
4.15574e-07
4.15519e-07
4.1546e-07
4.15414e-07
4.1536e-07
4.15321e-07
4.15272e-07
4.15237e-07
4.15195e-07
4.15168e-07
4.1513e-07
4.15106e-07
4.15076e-07
4.15059e-07
4.15031e-07
4.15018e-07
4.14995e-07
4.14985e-07
4.14969e-07
4.14966e-07
4.14951e-07
4.1495e-07
4.1494e-07
4.14942e-07
4.14937e-07
4.14946e-07
4.14943e-07
4.14953e-07
4.14956e-07
4.1497e-07
4.14975e-07
4.14991e-07
4.14999e-07
4.15018e-07
4.15029e-07
4.15051e-07
4.15064e-07
4.1509e-07
4.15106e-07
4.15133e-07
4.15154e-07
4.15184e-07
4.15207e-07
4.15246e-07
4.15275e-07
4.15321e-07
4.15359e-07
4.15413e-07
4.15459e-07
4.15524e-07
4.15579e-07
4.15652e-07
4.15711e-07
4.15795e-07
4.15863e-07
4.1595e-07
4.16034e-07
4.1612e-07
4.16213e-07
4.1631e-07
4.16409e-07
4.1651e-07
4.1661e-07
4.16712e-07
4.1681e-07
4.169e-07
4.16985e-07
4.17065e-07
4.17127e-07
4.17139e-07
4.17207e-07
4.17401e-07
4.172e-07
5.43537e-07
5.43359e-07
5.42894e-07
5.35563e-07
5.35411e-07
5.35274e-07
5.35143e-07
5.35022e-07
5.34905e-07
5.34797e-07
5.34694e-07
5.346e-07
5.34509e-07
5.34426e-07
5.3435e-07
5.34278e-07
5.34216e-07
5.34152e-07
5.34103e-07
5.34048e-07
5.34012e-07
5.33963e-07
5.33933e-07
5.33897e-07
5.33881e-07
5.33852e-07
5.33842e-07
5.33825e-07
5.33826e-07
5.33816e-07
5.33824e-07
5.33823e-07
5.33841e-07
5.33851e-07
5.33879e-07
5.33895e-07
5.33929e-07
5.33955e-07
5.33997e-07
5.34033e-07
5.34088e-07
5.3413e-07
5.34191e-07
5.34244e-07
5.34314e-07
5.34375e-07
5.34453e-07
5.34523e-07
5.34612e-07
5.34693e-07
5.34789e-07
5.34879e-07
5.34988e-07
5.35088e-07
5.35205e-07
5.35317e-07
5.35448e-07
5.35571e-07
5.35715e-07
5.3585e-07
5.3601e-07
5.36162e-07
5.36337e-07
5.36504e-07
5.36698e-07
5.36883e-07
5.37095e-07
5.37294e-07
5.37527e-07
5.37745e-07
5.37993e-07
5.38241e-07
5.38497e-07
5.3877e-07
5.39054e-07
5.39345e-07
5.39648e-07
5.39963e-07
5.4029e-07
5.40626e-07
5.40969e-07
5.41328e-07
5.41704e-07
5.42083e-07
5.42439e-07
5.42942e-07
5.43643e-07
5.43912e-07
6.70792e-07
6.70548e-07
6.69763e-07
6.55019e-07
6.54815e-07
6.54633e-07
6.54459e-07
6.54298e-07
6.54144e-07
6.54001e-07
6.53865e-07
6.5374e-07
6.53623e-07
6.53514e-07
6.53414e-07
6.53322e-07
6.53241e-07
6.5316e-07
6.53099e-07
6.53031e-07
6.52984e-07
6.52925e-07
6.52889e-07
6.52847e-07
6.52828e-07
6.52796e-07
6.5279e-07
6.52774e-07
6.52782e-07
6.52776e-07
6.52794e-07
6.52803e-07
6.52833e-07
6.52856e-07
6.52901e-07
6.52933e-07
6.52989e-07
6.53035e-07
6.53104e-07
6.53164e-07
6.53248e-07
6.53319e-07
6.53414e-07
6.53499e-07
6.53608e-07
6.53706e-07
6.53827e-07
6.53939e-07
6.54077e-07
6.54205e-07
6.54354e-07
6.54498e-07
6.54664e-07
6.54823e-07
6.55004e-07
6.55179e-07
6.55381e-07
6.55575e-07
6.55794e-07
6.56005e-07
6.56249e-07
6.56481e-07
6.56745e-07
6.56999e-07
6.57289e-07
6.57568e-07
6.57882e-07
6.58181e-07
6.58526e-07
6.58854e-07
6.59218e-07
6.59589e-07
6.59969e-07
6.60373e-07
6.60791e-07
6.61222e-07
6.61673e-07
6.62139e-07
6.62624e-07
6.63127e-07
6.63643e-07
6.64189e-07
6.64765e-07
6.65352e-07
6.65937e-07
6.66762e-07
6.67815e-07
6.68384e-07
7.67018e-07
7.66751e-07
7.6651e-07
7.66281e-07
7.66068e-07
7.65864e-07
7.65674e-07
7.65494e-07
7.65328e-07
7.65174e-07
7.65029e-07
7.64893e-07
7.64771e-07
7.64663e-07
7.64554e-07
7.6447e-07
7.64379e-07
7.64315e-07
7.64236e-07
7.64184e-07
7.64128e-07
7.641e-07
7.64056e-07
7.64042e-07
7.64022e-07
7.64028e-07
7.64018e-07
7.64037e-07
7.64047e-07
7.64083e-07
7.64112e-07
7.64166e-07
7.64206e-07
7.64274e-07
7.64332e-07
7.64417e-07
7.64494e-07
7.64599e-07
7.6469e-07
7.64809e-07
7.64919e-07
7.65057e-07
7.65183e-07
7.65338e-07
7.65483e-07
7.65658e-07
7.65823e-07
7.66016e-07
7.66201e-07
7.66414e-07
7.6662e-07
7.66854e-07
7.6708e-07
7.6734e-07
7.67591e-07
7.67874e-07
7.68148e-07
7.68461e-07
7.68761e-07
7.691e-07
7.69426e-07
7.69797e-07
7.70155e-07
7.70555e-07
7.7094e-07
7.7138e-07
7.71799e-07
7.72263e-07
7.72739e-07
7.73221e-07
7.73734e-07
7.74264e-07
7.74811e-07
7.75381e-07
7.75971e-07
7.76582e-07
7.77215e-07
7.77867e-07
7.78559e-07
7.79294e-07
7.80042e-07
7.80831e-07
7.81944e-07
7.83259e-07
7.84146e-07
8.68447e-07
8.68101e-07
8.67784e-07
8.67485e-07
8.67206e-07
8.66938e-07
8.66689e-07
8.66453e-07
8.66235e-07
8.6603e-07
8.65838e-07
8.65657e-07
8.65493e-07
8.65349e-07
8.65202e-07
8.65083e-07
8.64962e-07
8.64871e-07
8.64764e-07
8.64688e-07
8.64611e-07
8.64564e-07
8.64502e-07
8.64473e-07
8.64439e-07
8.64436e-07
8.64416e-07
8.6443e-07
8.64434e-07
8.64469e-07
8.64496e-07
8.64553e-07
8.64596e-07
8.64671e-07
8.64735e-07
8.6483e-07
8.64917e-07
8.65038e-07
8.65144e-07
8.65282e-07
8.6541e-07
8.65572e-07
8.65722e-07
8.65905e-07
8.66078e-07
8.66285e-07
8.66483e-07
8.66713e-07
8.66935e-07
8.6719e-07
8.67439e-07
8.6772e-07
8.67993e-07
8.68305e-07
8.6861e-07
8.68951e-07
8.69281e-07
8.69658e-07
8.70021e-07
8.7043e-07
8.70824e-07
8.7127e-07
8.71702e-07
8.72183e-07
8.72648e-07
8.73177e-07
8.73679e-07
8.74237e-07
8.74809e-07
8.75384e-07
8.75997e-07
8.76627e-07
8.77275e-07
8.77951e-07
8.78647e-07
8.79366e-07
8.8011e-07
8.80879e-07
8.81703e-07
8.82582e-07
8.83489e-07
8.84518e-07
8.85905e-07
8.87434e-07
8.88837e-07
9.58859e-07
9.58415e-07
9.58005e-07
9.57619e-07
9.57255e-07
9.56908e-07
9.56583e-07
9.56276e-07
9.55991e-07
9.55722e-07
9.5547e-07
9.55232e-07
9.55014e-07
9.54819e-07
9.54626e-07
9.54463e-07
9.54301e-07
9.5417e-07
9.54026e-07
9.53917e-07
9.5381e-07
9.53736e-07
9.53648e-07
9.53596e-07
9.53542e-07
9.53521e-07
9.53484e-07
9.53484e-07
9.53477e-07
9.53504e-07
9.53524e-07
9.53578e-07
9.53618e-07
9.53694e-07
9.53761e-07
9.53862e-07
9.53956e-07
9.54089e-07
9.54204e-07
9.54357e-07
9.54502e-07
9.54685e-07
9.54855e-07
9.55062e-07
9.5526e-07
9.55498e-07
9.55726e-07
9.55992e-07
9.56248e-07
9.56544e-07
9.56834e-07
9.57161e-07
9.5748e-07
9.57844e-07
9.58201e-07
9.58599e-07
9.58985e-07
9.59426e-07
9.59853e-07
9.6033e-07
9.60791e-07
9.61313e-07
9.61819e-07
9.62381e-07
9.62926e-07
9.63541e-07
9.64125e-07
9.64776e-07
9.65442e-07
9.66106e-07
9.66814e-07
9.67535e-07
9.68277e-07
9.69049e-07
9.69841e-07
9.70657e-07
9.71503e-07
9.72387e-07
9.7335e-07
9.74388e-07
9.75512e-07
9.76868e-07
9.78518e-07
9.80329e-07
9.82636e-07
1.03915e-06
1.03858e-06
1.03806e-06
1.03756e-06
1.03709e-06
1.03665e-06
1.03623e-06
1.03583e-06
1.03546e-06
1.03511e-06
1.03478e-06
1.03447e-06
1.03418e-06
1.03393e-06
1.03367e-06
1.03345e-06
1.03324e-06
1.03305e-06
1.03286e-06
1.03271e-06
1.03256e-06
1.03245e-06
1.03233e-06
1.03224e-06
1.03216e-06
1.03211e-06
1.03205e-06
1.03203e-06
1.03201e-06
1.03202e-06
1.03203e-06
1.03207e-06
1.0321e-06
1.03217e-06
1.03224e-06
1.03234e-06
1.03244e-06
1.03258e-06
1.0327e-06
1.03287e-06
1.03303e-06
1.03323e-06
1.03342e-06
1.03365e-06
1.03387e-06
1.03414e-06
1.0344e-06
1.0347e-06
1.03499e-06
1.03533e-06
1.03566e-06
1.03603e-06
1.0364e-06
1.03682e-06
1.03723e-06
1.03769e-06
1.03813e-06
1.03864e-06
1.03913e-06
1.03968e-06
1.04021e-06
1.04082e-06
1.0414e-06
1.04205e-06
1.04267e-06
1.04338e-06
1.04404e-06
1.04479e-06
1.04555e-06
1.0463e-06
1.0471e-06
1.04791e-06
1.04874e-06
1.0496e-06
1.05048e-06
1.05139e-06
1.05234e-06
1.05336e-06
1.0545e-06
1.05577e-06
1.05725e-06
1.05905e-06
1.06098e-06
1.06343e-06
1.06721e-06
1.11078e-06
1.11007e-06
1.1094e-06
1.10877e-06
1.10817e-06
1.1076e-06
1.10707e-06
1.10656e-06
1.10608e-06
1.10563e-06
1.1052e-06
1.1048e-06
1.10443e-06
1.10409e-06
1.10376e-06
1.10346e-06
1.10318e-06
1.10293e-06
1.10268e-06
1.10246e-06
1.10226e-06
1.1021e-06
1.10193e-06
1.10181e-06
1.10169e-06
1.1016e-06
1.10151e-06
1.10146e-06
1.10141e-06
1.1014e-06
1.10139e-06
1.10142e-06
1.10144e-06
1.1015e-06
1.10156e-06
1.10166e-06
1.10176e-06
1.1019e-06
1.10203e-06
1.10221e-06
1.10238e-06
1.1026e-06
1.1028e-06
1.10306e-06
1.10331e-06
1.1036e-06
1.1039e-06
1.10423e-06
1.10456e-06
1.10495e-06
1.10532e-06
1.10575e-06
1.10617e-06
1.10664e-06
1.10711e-06
1.10763e-06
1.10815e-06
1.10873e-06
1.10929e-06
1.10992e-06
1.11053e-06
1.11122e-06
1.11189e-06
1.11262e-06
1.11334e-06
1.11414e-06
1.11489e-06
1.11574e-06
1.11659e-06
1.11743e-06
1.11831e-06
1.1192e-06
1.12011e-06
1.12106e-06
1.12203e-06
1.12304e-06
1.12413e-06
1.12535e-06
1.12676e-06
1.12841e-06
1.13048e-06
1.13283e-06
1.13517e-06
1.13921e-06
1.1451e-06
1.17543e-06
1.17453e-06
1.17369e-06
1.17289e-06
1.17213e-06
1.17141e-06
1.17073e-06
1.17008e-06
1.16947e-06
1.16889e-06
1.16834e-06
1.16782e-06
1.16734e-06
1.1669e-06
1.16648e-06
1.16609e-06
1.16572e-06
1.16539e-06
1.16506e-06
1.16477e-06
1.1645e-06
1.16428e-06
1.16405e-06
1.16387e-06
1.1637e-06
1.16357e-06
1.16343e-06
1.16334e-06
1.16326e-06
1.16322e-06
1.16318e-06
1.16319e-06
1.16319e-06
1.16323e-06
1.16328e-06
1.16338e-06
1.16347e-06
1.16362e-06
1.16375e-06
1.16393e-06
1.16412e-06
1.16436e-06
1.16458e-06
1.16486e-06
1.16513e-06
1.16547e-06
1.16579e-06
1.16617e-06
1.16654e-06
1.16697e-06
1.1674e-06
1.16788e-06
1.16836e-06
1.1689e-06
1.16944e-06
1.17003e-06
1.17062e-06
1.17128e-06
1.17193e-06
1.17264e-06
1.17334e-06
1.17413e-06
1.17489e-06
1.17572e-06
1.17654e-06
1.17743e-06
1.17828e-06
1.17924e-06
1.18018e-06
1.1811e-06
1.18207e-06
1.18304e-06
1.18403e-06
1.18505e-06
1.18612e-06
1.18728e-06
1.18858e-06
1.1901e-06
1.19195e-06
1.19428e-06
1.19721e-06
1.20019e-06
1.20344e-06
1.21018e-06
1.21858e-06
1.23478e-06
1.23365e-06
1.23259e-06
1.23158e-06
1.23063e-06
1.22972e-06
1.22886e-06
1.22804e-06
1.22726e-06
1.22652e-06
1.22583e-06
1.22517e-06
1.22455e-06
1.22399e-06
1.22344e-06
1.22293e-06
1.22245e-06
1.22202e-06
1.22159e-06
1.22121e-06
1.22086e-06
1.22056e-06
1.22025e-06
1.22e-06
1.21977e-06
1.21957e-06
1.21938e-06
1.21925e-06
1.21912e-06
1.21904e-06
1.21897e-06
1.21894e-06
1.21891e-06
1.21894e-06
1.21897e-06
1.21906e-06
1.21915e-06
1.21929e-06
1.21943e-06
1.21962e-06
1.21981e-06
1.22007e-06
1.22031e-06
1.22062e-06
1.22092e-06
1.22129e-06
1.22166e-06
1.22208e-06
1.2225e-06
1.22299e-06
1.22348e-06
1.22402e-06
1.22457e-06
1.22519e-06
1.2258e-06
1.22648e-06
1.22715e-06
1.22791e-06
1.22865e-06
1.22946e-06
1.23026e-06
1.23115e-06
1.23202e-06
1.23296e-06
1.23389e-06
1.23488e-06
1.23584e-06
1.23691e-06
1.23793e-06
1.23895e-06
1.24e-06
1.24104e-06
1.2421e-06
1.24322e-06
1.24442e-06
1.24578e-06
1.24741e-06
1.24942e-06
1.25201e-06
1.25541e-06
1.25941e-06
1.26317e-06
1.26845e-06
1.27815e-06
1.29014e-06
1.29046e-06
1.28905e-06
1.28773e-06
1.28647e-06
1.28527e-06
1.28413e-06
1.28305e-06
1.28202e-06
1.28104e-06
1.28011e-06
1.27923e-06
1.2784e-06
1.27762e-06
1.27689e-06
1.2762e-06
1.27555e-06
1.27493e-06
1.27437e-06
1.27382e-06
1.27332e-06
1.27287e-06
1.27246e-06
1.27207e-06
1.27173e-06
1.27141e-06
1.27114e-06
1.27088e-06
1.27069e-06
1.2705e-06
1.27037e-06
1.27025e-06
1.27019e-06
1.27013e-06
1.27013e-06
1.27013e-06
1.2702e-06
1.27028e-06
1.27042e-06
1.27056e-06
1.27075e-06
1.27096e-06
1.27124e-06
1.27151e-06
1.27184e-06
1.27218e-06
1.27259e-06
1.27301e-06
1.27348e-06
1.27396e-06
1.27452e-06
1.27507e-06
1.27569e-06
1.27632e-06
1.27702e-06
1.27773e-06
1.2785e-06
1.27928e-06
1.28014e-06
1.28099e-06
1.28191e-06
1.28284e-06
1.28384e-06
1.28484e-06
1.2859e-06
1.28695e-06
1.28805e-06
1.28915e-06
1.29033e-06
1.29144e-06
1.29255e-06
1.29368e-06
1.29478e-06
1.29593e-06
1.29716e-06
1.29855e-06
1.3002e-06
1.30233e-06
1.30511e-06
1.30885e-06
1.31373e-06
1.31879e-06
1.32381e-06
1.3317e-06
1.34479e-06
1.36278e-06
1.34405e-06
1.34231e-06
1.34067e-06
1.33911e-06
1.33761e-06
1.3362e-06
1.33485e-06
1.33357e-06
1.33234e-06
1.33117e-06
1.33006e-06
1.32902e-06
1.32804e-06
1.32713e-06
1.32625e-06
1.32541e-06
1.32464e-06
1.32392e-06
1.32322e-06
1.32258e-06
1.322e-06
1.32147e-06
1.32096e-06
1.3205e-06
1.32009e-06
1.31973e-06
1.31939e-06
1.31911e-06
1.31885e-06
1.31866e-06
1.31848e-06
1.31837e-06
1.31827e-06
1.31823e-06
1.31821e-06
1.31826e-06
1.31833e-06
1.31846e-06
1.31859e-06
1.31879e-06
1.31902e-06
1.31932e-06
1.31961e-06
1.31998e-06
1.32036e-06
1.32082e-06
1.32129e-06
1.32182e-06
1.32238e-06
1.32301e-06
1.32365e-06
1.32435e-06
1.32508e-06
1.32589e-06
1.3267e-06
1.32758e-06
1.32848e-06
1.32947e-06
1.33045e-06
1.3315e-06
1.33257e-06
1.33372e-06
1.33485e-06
1.33605e-06
1.33724e-06
1.33847e-06
1.33972e-06
1.34103e-06
1.34223e-06
1.34345e-06
1.34466e-06
1.34584e-06
1.34708e-06
1.34845e-06
1.35007e-06
1.35214e-06
1.35497e-06
1.35888e-06
1.36426e-06
1.37044e-06
1.37655e-06
1.38335e-06
1.39437e-06
1.41133e-06
1.43999e-06
1.3971e-06
1.39497e-06
1.39294e-06
1.39101e-06
1.38917e-06
1.38742e-06
1.38575e-06
1.38416e-06
1.38263e-06
1.38118e-06
1.37981e-06
1.37851e-06
1.37729e-06
1.37614e-06
1.37503e-06
1.37399e-06
1.37301e-06
1.3721e-06
1.37122e-06
1.37042e-06
1.36968e-06
1.369e-06
1.36834e-06
1.36775e-06
1.36722e-06
1.36675e-06
1.3663e-06
1.36593e-06
1.36558e-06
1.3653e-06
1.36506e-06
1.36489e-06
1.36473e-06
1.36465e-06
1.3646e-06
1.36463e-06
1.36468e-06
1.3648e-06
1.36492e-06
1.36514e-06
1.36538e-06
1.3657e-06
1.36602e-06
1.36644e-06
1.36687e-06
1.36739e-06
1.36792e-06
1.36853e-06
1.36917e-06
1.36989e-06
1.37062e-06
1.37143e-06
1.37228e-06
1.37321e-06
1.37415e-06
1.37516e-06
1.37622e-06
1.37735e-06
1.37848e-06
1.37969e-06
1.38093e-06
1.38224e-06
1.38354e-06
1.38491e-06
1.38626e-06
1.38767e-06
1.38909e-06
1.39053e-06
1.39185e-06
1.39321e-06
1.39452e-06
1.3958e-06
1.39716e-06
1.3987e-06
1.4006e-06
1.40318e-06
1.4069e-06
1.41234e-06
1.41924e-06
1.42649e-06
1.43377e-06
1.44285e-06
1.45725e-06
1.47861e-06
1.5247e-06
1.45111e-06
1.44851e-06
1.44603e-06
1.44367e-06
1.44142e-06
1.43927e-06
1.43722e-06
1.43526e-06
1.43338e-06
1.43159e-06
1.4299e-06
1.42831e-06
1.42679e-06
1.42536e-06
1.42399e-06
1.42269e-06
1.42148e-06
1.42034e-06
1.41924e-06
1.41824e-06
1.41731e-06
1.41645e-06
1.41562e-06
1.41487e-06
1.41419e-06
1.41359e-06
1.41301e-06
1.41253e-06
1.41208e-06
1.4117e-06
1.41138e-06
1.41114e-06
1.41092e-06
1.41078e-06
1.41069e-06
1.41069e-06
1.41072e-06
1.41082e-06
1.41095e-06
1.41117e-06
1.41144e-06
1.41179e-06
1.41215e-06
1.41261e-06
1.41311e-06
1.41369e-06
1.4143e-06
1.415e-06
1.41574e-06
1.41657e-06
1.41742e-06
1.41837e-06
1.41936e-06
1.42043e-06
1.42152e-06
1.42271e-06
1.42394e-06
1.42524e-06
1.42656e-06
1.42797e-06
1.42941e-06
1.43092e-06
1.43242e-06
1.43399e-06
1.43555e-06
1.43717e-06
1.43881e-06
1.44042e-06
1.44192e-06
1.44346e-06
1.44492e-06
1.44636e-06
1.44789e-06
1.44964e-06
1.45186e-06
1.45496e-06
1.45966e-06
1.46665e-06
1.47471e-06
1.48297e-06
1.49176e-06
1.50354e-06
1.52132e-06
1.54749e-06
1.60984e-06
1.50756e-06
1.50442e-06
1.50142e-06
1.49856e-06
1.49582e-06
1.49321e-06
1.49071e-06
1.48833e-06
1.48604e-06
1.48386e-06
1.4818e-06
1.47985e-06
1.47799e-06
1.47623e-06
1.47454e-06
1.47295e-06
1.47145e-06
1.47004e-06
1.4687e-06
1.46746e-06
1.4663e-06
1.46522e-06
1.46419e-06
1.46326e-06
1.46241e-06
1.46165e-06
1.46093e-06
1.4603e-06
1.45973e-06
1.45925e-06
1.45883e-06
1.4585e-06
1.45821e-06
1.45801e-06
1.45788e-06
1.45784e-06
1.45784e-06
1.45793e-06
1.45806e-06
1.4583e-06
1.45859e-06
1.45897e-06
1.45938e-06
1.45991e-06
1.46048e-06
1.46115e-06
1.46186e-06
1.46267e-06
1.46353e-06
1.46449e-06
1.46549e-06
1.46659e-06
1.46775e-06
1.46899e-06
1.47028e-06
1.47167e-06
1.47311e-06
1.47462e-06
1.47618e-06
1.47783e-06
1.47953e-06
1.48127e-06
1.48304e-06
1.48487e-06
1.48671e-06
1.48861e-06
1.49053e-06
1.49238e-06
1.49415e-06
1.49598e-06
1.4977e-06
1.49943e-06
1.50126e-06
1.50334e-06
1.50597e-06
1.50964e-06
1.5152e-06
1.52335e-06
1.53262e-06
1.54236e-06
1.55352e-06
1.56881e-06
1.59087e-06
1.62319e-06
1.69198e-06
1.5679e-06
1.56413e-06
1.56054e-06
1.55711e-06
1.55382e-06
1.55068e-06
1.54767e-06
1.54479e-06
1.54203e-06
1.53941e-06
1.53692e-06
1.53455e-06
1.5323e-06
1.53015e-06
1.52811e-06
1.52617e-06
1.52435e-06
1.52263e-06
1.521e-06
1.51949e-06
1.51807e-06
1.51673e-06
1.51547e-06
1.51433e-06
1.51329e-06
1.51233e-06
1.51144e-06
1.51066e-06
1.50994e-06
1.50934e-06
1.50882e-06
1.50839e-06
1.50802e-06
1.50775e-06
1.50757e-06
1.50749e-06
1.50746e-06
1.50753e-06
1.50767e-06
1.50794e-06
1.50827e-06
1.50869e-06
1.50917e-06
1.50977e-06
1.51043e-06
1.5112e-06
1.51203e-06
1.51298e-06
1.51399e-06
1.5151e-06
1.51629e-06
1.51758e-06
1.51895e-06
1.5204e-06
1.52193e-06
1.52357e-06
1.52527e-06
1.52705e-06
1.5289e-06
1.53086e-06
1.53286e-06
1.53493e-06
1.53704e-06
1.53922e-06
1.54145e-06
1.54375e-06
1.54605e-06
1.5483e-06
1.55053e-06
1.55284e-06
1.55507e-06
1.55738e-06
1.55983e-06
1.56262e-06
1.56606e-06
1.57074e-06
1.57756e-06
1.5872e-06
1.59909e-06
1.61279e-06
1.62892e-06
1.65091e-06
1.683e-06
1.72913e-06
1.80281e-06
1.6335e-06
1.62904e-06
1.62479e-06
1.62071e-06
1.61681e-06
1.61306e-06
1.60948e-06
1.60604e-06
1.60276e-06
1.59963e-06
1.59665e-06
1.59382e-06
1.59111e-06
1.58854e-06
1.58608e-06
1.58377e-06
1.58158e-06
1.57951e-06
1.57755e-06
1.57573e-06
1.574e-06
1.57239e-06
1.57087e-06
1.56949e-06
1.56822e-06
1.56706e-06
1.56597e-06
1.56501e-06
1.56414e-06
1.56341e-06
1.56276e-06
1.56222e-06
1.56176e-06
1.56143e-06
1.56119e-06
1.56106e-06
1.56101e-06
1.56108e-06
1.56124e-06
1.56153e-06
1.5619e-06
1.56238e-06
1.56294e-06
1.56364e-06
1.56442e-06
1.56531e-06
1.56629e-06
1.5674e-06
1.5686e-06
1.56991e-06
1.57132e-06
1.57285e-06
1.57447e-06
1.57619e-06
1.57802e-06
1.57997e-06
1.582e-06
1.58413e-06
1.58637e-06
1.58872e-06
1.59114e-06
1.59364e-06
1.59624e-06
1.59895e-06
1.60175e-06
1.60465e-06
1.6076e-06
1.61054e-06
1.61361e-06
1.61684e-06
1.62014e-06
1.62369e-06
1.6276e-06
1.63215e-06
1.63779e-06
1.64541e-06
1.6562e-06
1.67139e-06
1.69231e-06
1.71823e-06
1.74851e-06
1.78961e-06
1.85405e-06
1.93768e-06
2.03657e-06
1.70573e-06
1.7005e-06
1.69551e-06
1.69073e-06
1.68614e-06
1.68172e-06
1.67749e-06
1.67344e-06
1.66956e-06
1.66586e-06
1.66234e-06
1.65898e-06
1.65577e-06
1.65272e-06
1.64982e-06
1.64708e-06
1.64449e-06
1.64204e-06
1.63972e-06
1.63754e-06
1.63548e-06
1.63356e-06
1.63177e-06
1.63013e-06
1.62861e-06
1.62721e-06
1.62592e-06
1.62476e-06
1.62373e-06
1.62285e-06
1.62207e-06
1.62141e-06
1.62087e-06
1.62046e-06
1.62017e-06
1.62e-06
1.61993e-06
1.62e-06
1.62019e-06
1.62052e-06
1.62095e-06
1.62151e-06
1.62218e-06
1.623e-06
1.62392e-06
1.62497e-06
1.62615e-06
1.62747e-06
1.6289e-06
1.63046e-06
1.63216e-06
1.634e-06
1.63595e-06
1.63803e-06
1.64026e-06
1.64262e-06
1.6451e-06
1.64772e-06
1.6505e-06
1.65343e-06
1.65648e-06
1.65969e-06
1.66308e-06
1.66668e-06
1.67049e-06
1.6745e-06
1.67868e-06
1.68308e-06
1.68788e-06
1.6931e-06
1.69879e-06
1.70524e-06
1.71272e-06
1.72184e-06
1.7337e-06
1.74996e-06
1.77257e-06
1.80669e-06
1.85577e-06
1.9139e-06
1.97982e-06
2.07915e-06
2.23617e-06
2.39974e-06
2.55589e-06
1.78607e-06
1.77997e-06
1.77417e-06
1.76859e-06
1.76323e-06
1.75806e-06
1.75309e-06
1.74832e-06
1.74376e-06
1.7394e-06
1.73526e-06
1.73132e-06
1.72756e-06
1.724e-06
1.72063e-06
1.71743e-06
1.7144e-06
1.71154e-06
1.70882e-06
1.70627e-06
1.70385e-06
1.70161e-06
1.69952e-06
1.69759e-06
1.69581e-06
1.69416e-06
1.69265e-06
1.6913e-06
1.6901e-06
1.68906e-06
1.68815e-06
1.68738e-06
1.68675e-06
1.68628e-06
1.68594e-06
1.68574e-06
1.68568e-06
1.68578e-06
1.68602e-06
1.68641e-06
1.68693e-06
1.6876e-06
1.68842e-06
1.6894e-06
1.69052e-06
1.6918e-06
1.69324e-06
1.69485e-06
1.69661e-06
1.69854e-06
1.70065e-06
1.70294e-06
1.70539e-06
1.70803e-06
1.71087e-06
1.7139e-06
1.71713e-06
1.7206e-06
1.72434e-06
1.72833e-06
1.7326e-06
1.73721e-06
1.74229e-06
1.74786e-06
1.75395e-06
1.76054e-06
1.76769e-06
1.77561e-06
1.78457e-06
1.79466e-06
1.80627e-06
1.82013e-06
1.8371e-06
1.85895e-06
1.88818e-06
1.92752e-06
1.9811e-06
2.07591e-06
2.20441e-06
2.3344e-06
2.46723e-06
2.61796e-06
2.79737e-06
2.98425e-06
3.1592e-06
1.87685e-06
1.86968e-06
1.86289e-06
1.85637e-06
1.85006e-06
1.84395e-06
1.83804e-06
1.83235e-06
1.8269e-06
1.82173e-06
1.81684e-06
1.81223e-06
1.80788e-06
1.80378e-06
1.7999e-06
1.79622e-06
1.79273e-06
1.78943e-06
1.78629e-06
1.78333e-06
1.78055e-06
1.77797e-06
1.77556e-06
1.77333e-06
1.77127e-06
1.76937e-06
1.76764e-06
1.7661e-06
1.76474e-06
1.76355e-06
1.76253e-06
1.76167e-06
1.76099e-06
1.76048e-06
1.76012e-06
1.75993e-06
1.75992e-06
1.76008e-06
1.76043e-06
1.76094e-06
1.76162e-06
1.76249e-06
1.76356e-06
1.76482e-06
1.76628e-06
1.76795e-06
1.76984e-06
1.77195e-06
1.7743e-06
1.7769e-06
1.77978e-06
1.78294e-06
1.78637e-06
1.79013e-06
1.79425e-06
1.79877e-06
1.80376e-06
1.80929e-06
1.81539e-06
1.8221e-06
1.8297e-06
1.83846e-06
1.84856e-06
1.85992e-06
1.87247e-06
1.88619e-06
1.90133e-06
1.91846e-06
1.93806e-06
1.96064e-06
1.98804e-06
2.02251e-06
2.06649e-06
2.12415e-06
2.1989e-06
2.29198e-06
2.40258e-06
2.53213e-06
2.68002e-06
2.83797e-06
3.00502e-06
3.18611e-06
3.37767e-06
3.55851e-06
3.71116e-06
1.98321e-06
1.97449e-06
1.96629e-06
1.95837e-06
1.95064e-06
1.94305e-06
1.93566e-06
1.92851e-06
1.9217e-06
1.91531e-06
1.9094e-06
1.90395e-06
1.89891e-06
1.89421e-06
1.88977e-06
1.88556e-06
1.88157e-06
1.87779e-06
1.8742e-06
1.87081e-06
1.86763e-06
1.86468e-06
1.86194e-06
1.85939e-06
1.85705e-06
1.85491e-06
1.85298e-06
1.85128e-06
1.84979e-06
1.8485e-06
1.84742e-06
1.84654e-06
1.84588e-06
1.84541e-06
1.84514e-06
1.84507e-06
1.84522e-06
1.84559e-06
1.8462e-06
1.84702e-06
1.8481e-06
1.84946e-06
1.8511e-06
1.85302e-06
1.85524e-06
1.85779e-06
1.8607e-06
1.86403e-06
1.86782e-06
1.87215e-06
1.87702e-06
1.88245e-06
1.88854e-06
1.89555e-06
1.9037e-06
1.91302e-06
1.92363e-06
1.93554e-06
1.94875e-06
1.96395e-06
1.98303e-06
2.00679e-06
2.0343e-06
2.06415e-06
2.09541e-06
2.12789e-06
2.16264e-06
2.20051e-06
2.24142e-06
2.28548e-06
2.3344e-06
2.38979e-06
2.45323e-06
2.52778e-06
2.61758e-06
2.72681e-06
2.85711e-06
3.00643e-06
3.17012e-06
3.34301e-06
3.52274e-06
3.70548e-06
3.87733e-06
4.01603e-06
4.10778e-06
2.11824e-06
2.10675e-06
2.09593e-06
2.08535e-06
2.07485e-06
2.0644e-06
2.05408e-06
2.0441e-06
2.03471e-06
2.02614e-06
2.01851e-06
2.01177e-06
2.00576e-06
2.00025e-06
1.9951e-06
1.99023e-06
1.98562e-06
1.98124e-06
1.97709e-06
1.97318e-06
1.96953e-06
1.96615e-06
1.96302e-06
1.96014e-06
1.95751e-06
1.95516e-06
1.9531e-06
1.95132e-06
1.94981e-06
1.94857e-06
1.9476e-06
1.9469e-06
1.94647e-06
1.94629e-06
1.94638e-06
1.94675e-06
1.94746e-06
1.94852e-06
1.94997e-06
1.95183e-06