/*--------------------------------*- C++ -*----------------------------------*\
| =========                 |                                                 |
| \\      /  F ield         | OpenFOAM: The Open Source CFD Toolbox           |
|  \\    /   O peration     | Version:  2412                                  |
|   \\  /    A nd           | Website:  www.openfoam.com                      |
|    \\/     M anipulation  |                                                 |
\*---------------------------------------------------------------------------*/
FoamFile
{
    version     2.0;
    format      ascii;
    arch        "LSB;label=32;scalar=64";
    class       volScalarField;
    location    "20";
    object      nuTilda;
}
// * * * * * * * * * * * * * * * * * * * * * * * * * * * * * * * * * * * * * //

dimensions      [0 2 -1 0 0 0 0];

internalField   nonuniform List<scalar> 
8637
(
4.10935e-06
4.10918e-06
4.10903e-06
4.10895e-06
4.10881e-06
4.10871e-06
4.10858e-06
4.10851e-06
4.10834e-06
4.10819e-06
4.10812e-06
4.10811e-06
4.10806e-06
4.10788e-06
4.10779e-06
4.10775e-06
4.10769e-06
4.10755e-06
4.10749e-06
4.10738e-06
4.10737e-06
4.10727e-06
4.10719e-06
4.10703e-06
4.107e-06
4.10687e-06
4.10686e-06
4.10671e-06
4.10662e-06
4.10645e-06
4.10637e-06
4.10617e-06
4.10613e-06
4.10593e-06
4.10581e-06
4.10561e-06
4.10543e-06
4.10518e-06
4.10496e-06
4.10466e-06
4.10446e-06
4.1041e-06
4.10377e-06
4.10335e-06
4.10303e-06
4.10256e-06
4.1021e-06
4.10158e-06
4.10105e-06
4.10034e-06
4.09971e-06
4.09893e-06
4.0982e-06
4.09729e-06
4.09632e-06
4.09525e-06
4.09413e-06
4.09283e-06
4.09148e-06
4.08992e-06
4.0883e-06
4.0864e-06
4.0844e-06
4.08214e-06
4.07977e-06
4.07711e-06
4.07423e-06
4.07098e-06
4.0676e-06
4.06372e-06
4.05957e-06
4.05498e-06
4.04989e-06
4.04433e-06
4.03815e-06
4.03131e-06
4.02379e-06
4.01533e-06
4.00582e-06
3.99514e-06
3.98297e-06
3.96906e-06
3.95298e-06
3.93428e-06
3.91205e-06
3.88554e-06
3.85415e-06
3.81344e-06
1.10067e-05
1.1006e-05
1.10053e-05
1.10046e-05
1.10038e-05
1.10031e-05
1.10024e-05
1.10018e-05
1.1001e-05
1.10003e-05
1.09997e-05
1.09991e-05
1.09985e-05
1.09977e-05
1.0997e-05
1.09963e-05
1.09956e-05
1.09949e-05
1.09943e-05
1.09934e-05
1.09928e-05
1.09919e-05
1.09912e-05
1.09903e-05
1.09895e-05
1.09886e-05
1.09878e-05
1.09868e-05
1.09859e-05
1.09848e-05
1.09839e-05
1.09827e-05
1.09818e-05
1.09804e-05
1.09793e-05
1.0978e-05
1.09767e-05
1.09753e-05
1.09737e-05
1.0972e-05
1.09705e-05
1.09686e-05
1.09668e-05
1.09647e-05
1.09628e-05
1.09604e-05
1.09582e-05
1.09556e-05
1.0953e-05
1.095e-05
1.09471e-05
1.09438e-05
1.09405e-05
1.09367e-05
1.09329e-05
1.09287e-05
1.09243e-05
1.09196e-05
1.09147e-05
1.09092e-05
1.09037e-05
1.08975e-05
1.08911e-05
1.08841e-05
1.08768e-05
1.08688e-05
1.08604e-05
1.08511e-05
1.08414e-05
1.08307e-05
1.08194e-05
1.08069e-05
1.07934e-05
1.07787e-05
1.07627e-05
1.07451e-05
1.07257e-05
1.07042e-05
1.06804e-05
1.06538e-05
1.06237e-05
1.05897e-05
1.05507e-05
1.05057e-05
1.04525e-05
1.03895e-05
1.03154e-05
1.02187e-05
1.61244e-05
1.61231e-05
1.61216e-05
1.61199e-05
1.61184e-05
1.61171e-05
1.61157e-05
1.61143e-05
1.61129e-05
1.61115e-05
1.61101e-05
1.61088e-05
1.61074e-05
1.61059e-05
1.61044e-05
1.6103e-05
1.61015e-05
1.60999e-05
1.60985e-05
1.60967e-05
1.60953e-05
1.60935e-05
1.60919e-05
1.609e-05
1.60884e-05
1.60864e-05
1.60846e-05
1.60825e-05
1.60806e-05
1.60784e-05
1.60763e-05
1.60739e-05
1.60717e-05
1.60691e-05
1.60667e-05
1.6064e-05
1.60614e-05
1.60583e-05
1.60554e-05
1.60521e-05
1.6049e-05
1.60453e-05
1.60418e-05
1.60379e-05
1.6034e-05
1.60297e-05
1.60254e-05
1.60206e-05
1.60159e-05
1.60105e-05
1.60052e-05
1.59993e-05
1.59934e-05
1.59868e-05
1.59801e-05
1.59729e-05
1.59654e-05
1.59575e-05
1.59493e-05
1.59405e-05
1.59316e-05
1.59219e-05
1.59119e-05
1.59012e-05
1.58902e-05
1.58782e-05
1.58658e-05
1.58523e-05
1.58383e-05
1.58231e-05
1.5807e-05
1.57897e-05
1.57709e-05
1.57508e-05
1.57291e-05
1.57054e-05
1.56795e-05
1.5651e-05
1.56198e-05
1.5585e-05
1.55461e-05
1.55024e-05
1.54529e-05
1.5396e-05
1.53292e-05
1.52506e-05
1.51592e-05
1.50384e-05
1.96217e-05
1.96199e-05
1.96178e-05
1.96146e-05
1.96125e-05
1.96107e-05
1.96088e-05
1.96068e-05
1.96048e-05
1.96028e-05
1.96009e-05
1.95989e-05
1.95969e-05
1.95948e-05
1.95927e-05
1.95906e-05
1.95885e-05
1.95862e-05
1.95842e-05
1.95818e-05
1.95797e-05
1.95771e-05
1.95748e-05
1.95722e-05
1.95698e-05
1.9567e-05
1.95644e-05
1.95615e-05
1.95588e-05
1.95557e-05
1.95527e-05
1.95494e-05
1.95462e-05
1.95427e-05
1.95393e-05
1.95355e-05
1.95318e-05
1.95277e-05
1.95236e-05
1.95192e-05
1.95148e-05
1.951e-05
1.95052e-05
1.94999e-05
1.94947e-05
1.94889e-05
1.94831e-05
1.94769e-05
1.94706e-05
1.94636e-05
1.94566e-05
1.9449e-05
1.94413e-05
1.94329e-05
1.94243e-05
1.94151e-05
1.94057e-05
1.93956e-05
1.93854e-05
1.93746e-05
1.93637e-05
1.9352e-05
1.93401e-05
1.93273e-05
1.93144e-05
1.93005e-05
1.92861e-05
1.92707e-05
1.92549e-05
1.92377e-05
1.92198e-05
1.92007e-05
1.91801e-05
1.91582e-05
1.91347e-05
1.91093e-05
1.90817e-05
1.90516e-05
1.90188e-05
1.89825e-05
1.89423e-05
1.88974e-05
1.88469e-05
1.87893e-05
1.87218e-05
1.86432e-05
1.8553e-05
1.84313e-05
2.19036e-05
2.19015e-05
2.18991e-05
2.1893e-05
2.18907e-05
2.18885e-05
2.18863e-05
2.1884e-05
2.18817e-05
2.18795e-05
2.18772e-05
2.18749e-05
2.18725e-05
2.18702e-05
2.18678e-05
2.18653e-05
2.18629e-05
2.18602e-05
2.18579e-05
2.18552e-05
2.18527e-05
2.18498e-05
2.18471e-05
2.18442e-05
2.18414e-05
2.18382e-05
2.18353e-05
2.1832e-05
2.18289e-05
2.18254e-05
2.1822e-05
2.18183e-05
2.18147e-05
2.18107e-05
2.18069e-05
2.18026e-05
2.17985e-05
2.17939e-05
2.17893e-05
2.17844e-05
2.17796e-05
2.17742e-05
2.17689e-05
2.17631e-05
2.17573e-05
2.1751e-05
2.17446e-05
2.17378e-05
2.17308e-05
2.17233e-05
2.17157e-05
2.17075e-05
2.16991e-05
2.16901e-05
2.16809e-05
2.1671e-05
2.16609e-05
2.16502e-05
2.16395e-05
2.16282e-05
2.16168e-05
2.16047e-05
2.15925e-05
2.15795e-05
2.15665e-05
2.15525e-05
2.15383e-05
2.15231e-05
2.15076e-05
2.1491e-05
2.14738e-05
2.14555e-05
2.1436e-05
2.14154e-05
2.13934e-05
2.13699e-05
2.13444e-05
2.13168e-05
2.12868e-05
2.12539e-05
2.12175e-05
2.11771e-05
2.11317e-05
2.108e-05
2.10192e-05
2.09493e-05
2.08709e-05
2.07616e-05
2.3408e-05
2.34058e-05
2.34031e-05
2.3391e-05
2.33887e-05
2.33864e-05
2.33841e-05
2.33818e-05
2.33795e-05
2.33772e-05
2.33749e-05
2.33726e-05
2.33702e-05
2.33679e-05
2.33655e-05
2.33631e-05
2.33607e-05
2.33581e-05
2.33557e-05
2.33531e-05
2.33507e-05
2.33479e-05
2.33453e-05
2.33425e-05
2.33398e-05
2.33368e-05
2.33339e-05
2.33308e-05
2.33278e-05
2.33245e-05
2.33213e-05
2.33177e-05
2.33143e-05
2.33106e-05
2.33069e-05
2.33029e-05
2.3299e-05
2.32946e-05
2.32904e-05
2.32857e-05
2.32811e-05
2.32761e-05
2.32711e-05
2.32656e-05
2.32602e-05
2.32543e-05
2.32483e-05
2.32419e-05
2.32354e-05
2.32283e-05
2.32212e-05
2.32136e-05
2.32058e-05
2.31974e-05
2.31888e-05
2.31797e-05
2.31703e-05
2.31604e-05
2.31506e-05
2.31403e-05
2.313e-05
2.31191e-05
2.31082e-05
2.30968e-05
2.30853e-05
2.30731e-05
2.30609e-05
2.30479e-05
2.30347e-05
2.30207e-05
2.30063e-05
2.29912e-05
2.29752e-05
2.29584e-05
2.29407e-05
2.29217e-05
2.29012e-05
2.28791e-05
2.2855e-05
2.28285e-05
2.2799e-05
2.27659e-05
2.27286e-05
2.26856e-05
2.26342e-05
2.2577e-05
2.25157e-05
2.24268e-05
2.4682e-05
2.468e-05
2.46771e-05
2.46504e-05
2.46485e-05
2.46468e-05
2.4645e-05
2.46433e-05
2.46417e-05
2.46401e-05
2.46385e-05
2.4637e-05
2.46355e-05
2.46341e-05
2.46326e-05
2.46312e-05
2.46299e-05
2.46284e-05
2.46272e-05
2.46258e-05
2.46246e-05
2.46232e-05
2.46221e-05
2.46207e-05
2.46195e-05
2.46182e-05
2.4617e-05
2.46157e-05
2.46146e-05
2.46132e-05
2.4612e-05
2.46106e-05
2.46094e-05
2.4608e-05
2.46068e-05
2.46054e-05
2.46041e-05
2.46026e-05
2.46012e-05
2.45997e-05
2.45983e-05
2.45966e-05
2.45951e-05
2.45934e-05
2.45917e-05
2.45899e-05
2.45881e-05
2.45862e-05
2.45843e-05
2.45821e-05
2.45801e-05
2.45778e-05
2.45755e-05
2.4573e-05
2.45706e-05
2.45679e-05
2.45652e-05
2.45623e-05
2.45596e-05
2.45567e-05
2.45539e-05
2.45509e-05
2.45481e-05
2.4545e-05
2.45421e-05
2.4539e-05
2.4536e-05
2.45326e-05
2.45295e-05
2.45259e-05
2.45225e-05
2.45189e-05
2.4515e-05
2.45111e-05
2.45069e-05
2.45026e-05
2.44978e-05
2.44927e-05
2.44872e-05
2.44809e-05
2.44739e-05
2.44659e-05
2.44568e-05
2.44462e-05
2.44331e-05
2.4419e-05
2.44054e-05
2.43812e-05
2.65326e-05
2.65306e-05
2.65265e-05
2.64723e-05
2.64704e-05
2.64687e-05
2.64671e-05
2.64656e-05
2.64641e-05
2.64628e-05
2.64614e-05
2.64602e-05
2.6459e-05
2.64579e-05
2.64568e-05
2.64558e-05
2.64549e-05
2.6454e-05
2.64532e-05
2.64524e-05
2.64517e-05
2.64509e-05
2.64504e-05
2.64497e-05
2.64493e-05
2.64487e-05
2.64483e-05
2.64478e-05
2.64475e-05
2.64471e-05
2.64469e-05
2.64465e-05
2.64463e-05
2.64461e-05
2.6446e-05
2.64458e-05
2.64458e-05
2.64456e-05
2.64456e-05
2.64456e-05
2.64457e-05
2.64456e-05
2.64458e-05
2.64459e-05
2.64461e-05
2.64462e-05
2.64464e-05
2.64466e-05
2.64469e-05
2.6447e-05
2.64474e-05
2.64476e-05
2.6448e-05
2.64483e-05
2.64487e-05
2.6449e-05
2.64495e-05
2.64499e-05
2.64505e-05
2.6451e-05
2.64517e-05
2.64524e-05
2.64532e-05
2.6454e-05
2.6455e-05
2.64559e-05
2.64571e-05
2.6458e-05
2.64594e-05
2.64605e-05
2.64619e-05
2.64632e-05
2.64646e-05
2.64661e-05
2.64677e-05
2.64693e-05
2.64709e-05
2.64725e-05
2.64741e-05
2.64757e-05
2.64771e-05
2.64785e-05
2.64798e-05
2.64808e-05
2.6481e-05
2.64821e-05
2.64852e-05
2.6482e-05
2.83173e-05
2.83149e-05
2.83088e-05
2.82113e-05
2.82093e-05
2.82075e-05
2.82057e-05
2.82041e-05
2.82025e-05
2.82011e-05
2.81997e-05
2.81985e-05
2.81973e-05
2.81961e-05
2.81951e-05
2.81942e-05
2.81933e-05
2.81925e-05
2.81918e-05
2.81911e-05
2.81906e-05
2.81899e-05
2.81895e-05
2.81891e-05
2.81888e-05
2.81884e-05
2.81883e-05
2.81881e-05
2.81881e-05
2.8188e-05
2.81881e-05
2.81881e-05
2.81883e-05
2.81884e-05
2.81888e-05
2.8189e-05
2.81895e-05
2.81898e-05
2.81904e-05
2.81909e-05
2.81916e-05
2.81922e-05
2.8193e-05
2.81937e-05
2.81946e-05
2.81955e-05
2.81965e-05
2.81974e-05
2.81986e-05
2.81997e-05
2.8201e-05
2.82022e-05
2.82036e-05
2.8205e-05
2.82066e-05
2.82081e-05
2.82098e-05
2.82114e-05
2.82134e-05
2.82152e-05
2.82173e-05
2.82193e-05
2.82217e-05
2.82239e-05
2.82265e-05
2.8229e-05
2.82318e-05
2.82344e-05
2.82375e-05
2.82404e-05
2.82437e-05
2.8247e-05
2.82505e-05
2.82541e-05
2.82579e-05
2.82617e-05
2.82658e-05
2.82699e-05
2.82743e-05
2.82787e-05
2.82833e-05
2.8288e-05
2.8293e-05
2.82981e-05
2.83028e-05
2.83094e-05
2.83187e-05
2.83222e-05
2.98712e-05
2.98685e-05
2.98596e-05
2.96911e-05
2.96887e-05
2.96866e-05
2.96846e-05
2.96827e-05
2.9681e-05
2.96793e-05
2.96777e-05
2.96763e-05
2.9675e-05
2.96737e-05
2.96725e-05
2.96715e-05
2.96705e-05
2.96696e-05
2.96689e-05
2.96681e-05
2.96676e-05
2.96669e-05
2.96665e-05
2.9666e-05
2.96658e-05
2.96654e-05
2.96653e-05
2.96651e-05
2.96652e-05
2.96652e-05
2.96654e-05
2.96655e-05
2.96658e-05
2.96661e-05
2.96666e-05
2.9667e-05
2.96676e-05
2.96682e-05
2.9669e-05
2.96697e-05
2.96706e-05
2.96714e-05
2.96725e-05
2.96735e-05
2.96748e-05
2.96759e-05
2.96773e-05
2.96786e-05
2.96802e-05
2.96817e-05
2.96834e-05
2.9685e-05
2.9687e-05
2.96888e-05
2.96909e-05
2.96929e-05
2.96952e-05
2.96975e-05
2.97e-05
2.97024e-05
2.97052e-05
2.97079e-05
2.97109e-05
2.97138e-05
2.97172e-05
2.97204e-05
2.9724e-05
2.97274e-05
2.97314e-05
2.97351e-05
2.97393e-05
2.97436e-05
2.97479e-05
2.97526e-05
2.97573e-05
2.97623e-05
2.97674e-05
2.97728e-05
2.97783e-05
2.97841e-05
2.979e-05
2.97962e-05
2.98028e-05
2.98094e-05
2.98161e-05
2.98255e-05
2.98375e-05
2.98439e-05
3.09079e-05
3.09052e-05
3.09027e-05
3.09004e-05
3.08982e-05
3.08961e-05
3.08941e-05
3.08923e-05
3.08906e-05
3.0889e-05
3.08875e-05
3.08861e-05
3.08848e-05
3.08837e-05
3.08826e-05
3.08817e-05
3.08808e-05
3.08801e-05
3.08793e-05
3.08788e-05
3.08782e-05
3.08779e-05
3.08775e-05
3.08773e-05
3.08771e-05
3.08772e-05
3.08771e-05
3.08773e-05
3.08774e-05
3.08778e-05
3.0878e-05
3.08786e-05
3.0879e-05
3.08797e-05
3.08803e-05
3.08812e-05
3.0882e-05
3.08831e-05
3.0884e-05
3.08852e-05
3.08864e-05
3.08878e-05
3.08891e-05
3.08907e-05
3.08922e-05
3.08939e-05
3.08956e-05
3.08976e-05
3.08995e-05
3.09017e-05
3.09038e-05
3.09062e-05
3.09086e-05
3.09112e-05
3.09138e-05
3.09167e-05
3.09195e-05
3.09227e-05
3.09258e-05
3.09293e-05
3.09326e-05
3.09364e-05
3.09401e-05
3.09442e-05
3.09481e-05
3.09526e-05
3.09569e-05
3.09616e-05
3.09665e-05
3.09714e-05
3.09766e-05
3.0982e-05
3.09876e-05
3.09934e-05
3.09994e-05
3.10057e-05
3.10121e-05
3.10187e-05
3.10257e-05
3.10332e-05
3.10408e-05
3.10488e-05
3.10601e-05
3.10734e-05
3.10823e-05
3.19023e-05
3.18991e-05
3.18961e-05
3.18933e-05
3.18907e-05
3.18882e-05
3.18858e-05
3.18836e-05
3.18816e-05
3.18796e-05
3.18778e-05
3.18761e-05
3.18746e-05
3.18732e-05
3.18719e-05
3.18708e-05
3.18696e-05
3.18688e-05
3.18678e-05
3.1867e-05
3.18663e-05
3.18659e-05
3.18653e-05
3.1865e-05
3.18647e-05
3.18647e-05
3.18645e-05
3.18646e-05
3.18646e-05
3.1865e-05
3.18652e-05
3.18658e-05
3.18662e-05
3.18669e-05
3.18675e-05
3.18684e-05
3.18692e-05
3.18703e-05
3.18713e-05
3.18726e-05
3.18738e-05
3.18753e-05
3.18768e-05
3.18785e-05
3.18801e-05
3.1882e-05
3.18839e-05
3.18861e-05
3.18881e-05
3.18905e-05
3.18929e-05
3.18955e-05
3.18981e-05
3.1901e-05
3.19039e-05
3.19071e-05
3.19101e-05
3.19137e-05
3.19171e-05
3.19209e-05
3.19246e-05
3.19288e-05
3.19328e-05
3.19373e-05
3.19416e-05
3.19466e-05
3.19513e-05
3.19565e-05
3.19618e-05
3.19672e-05
3.19729e-05
3.19788e-05
3.19848e-05
3.19911e-05
3.19976e-05
3.20042e-05
3.20111e-05
3.20183e-05
3.20259e-05
3.20341e-05
3.20425e-05
3.2052e-05
3.20648e-05
3.20789e-05
3.20919e-05
3.27196e-05
3.27157e-05
3.27122e-05
3.27088e-05
3.27056e-05
3.27026e-05
3.26997e-05
3.26971e-05
3.26946e-05
3.26922e-05
3.269e-05
3.26879e-05
3.2686e-05
3.26843e-05
3.26826e-05
3.26812e-05
3.26798e-05
3.26786e-05
3.26774e-05
3.26764e-05
3.26755e-05
3.26748e-05
3.26741e-05
3.26736e-05
3.26731e-05
3.2673e-05
3.26726e-05
3.26726e-05
3.26726e-05
3.26728e-05
3.2673e-05
3.26734e-05
3.26738e-05
3.26745e-05
3.26751e-05
3.26759e-05
3.26768e-05
3.26779e-05
3.26789e-05
3.26803e-05
3.26815e-05
3.26831e-05
3.26846e-05
3.26864e-05
3.26882e-05
3.26903e-05
3.26923e-05
3.26946e-05
3.26968e-05
3.26994e-05
3.27019e-05
3.27048e-05
3.27076e-05
3.27107e-05
3.27139e-05
3.27173e-05
3.27207e-05
3.27246e-05
3.27283e-05
3.27324e-05
3.27364e-05
3.2741e-05
3.27454e-05
3.27503e-05
3.2755e-05
3.27604e-05
3.27654e-05
3.27711e-05
3.27769e-05
3.27826e-05
3.27888e-05
3.2795e-05
3.28015e-05
3.28081e-05
3.2815e-05
3.28221e-05
3.28294e-05
3.2837e-05
3.28453e-05
3.28543e-05
3.2864e-05
3.28756e-05
3.28898e-05
3.29054e-05
3.29252e-05
3.33996e-05
3.33949e-05
3.33906e-05
3.33865e-05
3.33827e-05
3.3379e-05
3.33755e-05
3.33723e-05
3.33692e-05
3.33663e-05
3.33636e-05
3.3361e-05
3.33587e-05
3.33565e-05
3.33545e-05
3.33526e-05
3.33508e-05
3.33493e-05
3.33478e-05
3.33465e-05
3.33453e-05
3.33443e-05
3.33433e-05
3.33426e-05
3.33419e-05
3.33416e-05
3.3341e-05
3.33409e-05
3.33407e-05
3.33408e-05
3.33408e-05
3.33412e-05
3.33415e-05
3.33421e-05
3.33426e-05
3.33435e-05
3.33443e-05
3.33454e-05
3.33464e-05
3.33478e-05
3.33491e-05
3.33508e-05
3.33523e-05
3.33543e-05
3.33561e-05
3.33583e-05
3.33604e-05
3.33629e-05
3.33653e-05
3.33681e-05
3.33709e-05
3.33739e-05
3.3377e-05
3.33804e-05
3.33838e-05
3.33876e-05
3.33912e-05
3.33954e-05
3.33995e-05
3.3404e-05
3.34084e-05
3.34133e-05
3.34181e-05
3.34234e-05
3.34286e-05
3.34343e-05
3.34398e-05
3.34459e-05
3.34521e-05
3.34583e-05
3.34648e-05
3.34714e-05
3.34782e-05
3.34852e-05
3.34924e-05
3.34999e-05
3.35076e-05
3.3516e-05
3.35252e-05
3.35356e-05
3.35476e-05
3.35622e-05
3.35778e-05
3.35977e-05
3.36282e-05
3.39748e-05
3.39692e-05
3.39639e-05
3.3959e-05
3.39543e-05
3.39498e-05
3.39456e-05
3.39416e-05
3.39378e-05
3.39343e-05
3.39309e-05
3.39277e-05
3.39248e-05
3.39221e-05
3.39196e-05
3.39172e-05
3.3915e-05
3.3913e-05
3.3911e-05
3.39094e-05
3.39078e-05
3.39065e-05
3.39052e-05
3.39042e-05
3.39032e-05
3.39026e-05
3.39018e-05
3.39015e-05
3.39011e-05
3.3901e-05
3.39009e-05
3.39011e-05
3.39013e-05
3.39018e-05
3.39022e-05
3.3903e-05
3.39038e-05
3.39049e-05
3.3906e-05
3.39073e-05
3.39087e-05
3.39104e-05
3.39121e-05
3.39141e-05
3.3916e-05
3.39184e-05
3.39207e-05
3.39233e-05
3.39259e-05
3.39289e-05
3.39319e-05
3.39352e-05
3.39385e-05
3.39423e-05
3.3946e-05
3.39501e-05
3.39541e-05
3.39586e-05
3.39631e-05
3.3968e-05
3.39728e-05
3.39782e-05
3.39834e-05
3.39892e-05
3.39948e-05
3.4001e-05
3.40069e-05
3.40136e-05
3.40202e-05
3.40267e-05
3.40336e-05
3.40406e-05
3.40477e-05
3.4055e-05
3.40626e-05
3.40705e-05
3.4079e-05
3.40884e-05
3.40994e-05
3.41122e-05
3.41282e-05
3.41464e-05
3.41644e-05
3.41955e-05
3.42408e-05
3.44712e-05
3.44644e-05
3.44581e-05
3.4452e-05
3.44463e-05
3.44409e-05
3.44357e-05
3.44309e-05
3.44262e-05
3.44219e-05
3.44177e-05
3.44138e-05
3.44102e-05
3.44068e-05
3.44036e-05
3.44007e-05
3.43979e-05
3.43954e-05
3.43929e-05
3.43907e-05
3.43887e-05
3.4387e-05
3.43853e-05
3.43839e-05
3.43826e-05
3.43816e-05
3.43805e-05
3.43799e-05
3.43793e-05
3.4379e-05
3.43787e-05
3.43787e-05
3.43787e-05
3.43791e-05
3.43794e-05
3.43801e-05
3.43809e-05
3.4382e-05
3.4383e-05
3.43844e-05
3.43858e-05
3.43876e-05
3.43893e-05
3.43914e-05
3.43935e-05
3.4396e-05
3.43984e-05
3.44013e-05
3.44041e-05
3.44074e-05
3.44106e-05
3.44143e-05
3.44179e-05
3.4422e-05
3.4426e-05
3.44305e-05
3.44349e-05
3.44399e-05
3.44448e-05
3.44502e-05
3.44555e-05
3.44614e-05
3.44671e-05
3.44734e-05
3.44795e-05
3.44862e-05
3.44926e-05
3.44998e-05
3.45068e-05
3.45138e-05
3.4521e-05
3.45283e-05
3.45357e-05
3.45434e-05
3.45514e-05
3.456e-05
3.45697e-05
3.45811e-05
3.45949e-05
3.46122e-05
3.4634e-05
3.46561e-05
3.46801e-05
3.47298e-05
3.47916e-05
3.49098e-05
3.49016e-05
3.48939e-05
3.48866e-05
3.48796e-05
3.4873e-05
3.48667e-05
3.48608e-05
3.48551e-05
3.48497e-05
3.48446e-05
3.48398e-05
3.48353e-05
3.48312e-05
3.48272e-05
3.48235e-05
3.482e-05
3.48168e-05
3.48137e-05
3.48109e-05
3.48083e-05
3.48061e-05
3.48039e-05
3.4802e-05
3.48003e-05
3.47989e-05
3.47975e-05
3.47965e-05
3.47956e-05
3.4795e-05
3.47944e-05
3.47943e-05
3.47941e-05
3.47943e-05
3.47945e-05
3.47951e-05
3.47958e-05
3.47968e-05
3.47978e-05
3.47992e-05
3.48006e-05
3.48025e-05
3.48043e-05
3.48065e-05
3.48088e-05
3.48115e-05
3.48142e-05
3.48172e-05
3.48203e-05
3.48239e-05
3.48275e-05
3.48314e-05
3.48354e-05
3.484e-05
3.48445e-05
3.48494e-05
3.48543e-05
3.48598e-05
3.48652e-05
3.48711e-05
3.4877e-05
3.48834e-05
3.48898e-05
3.48966e-05
3.49033e-05
3.49105e-05
3.49175e-05
3.49253e-05
3.49327e-05
3.49401e-05
3.49476e-05
3.49552e-05
3.49628e-05
3.49709e-05
3.49796e-05
3.49894e-05
3.50011e-05
3.50157e-05
3.50342e-05
3.50587e-05
3.50873e-05
3.51143e-05
3.51519e-05
3.52208e-05
3.53054e-05
3.53076e-05
3.52977e-05
3.52884e-05
3.52796e-05
3.52711e-05
3.52631e-05
3.52554e-05
3.52482e-05
3.52412e-05
3.52346e-05
3.52284e-05
3.52225e-05
3.5217e-05
3.52119e-05
3.5207e-05
3.52023e-05
3.5198e-05
3.5194e-05
3.51901e-05
3.51866e-05
3.51833e-05
3.51804e-05
3.51776e-05
3.51752e-05
3.5173e-05
3.51711e-05
3.51692e-05
3.51678e-05
3.51665e-05
3.51655e-05
3.51647e-05
3.51643e-05
3.51638e-05
3.51638e-05
3.51639e-05
3.51644e-05
3.51649e-05
3.51659e-05
3.51669e-05
3.51683e-05
3.51698e-05
3.51717e-05
3.51736e-05
3.5176e-05
3.51784e-05
3.51814e-05
3.51843e-05
3.51877e-05
3.51911e-05
3.5195e-05
3.5199e-05
3.52033e-05
3.52078e-05
3.52128e-05
3.52178e-05
3.52232e-05
3.52288e-05
3.52348e-05
3.52409e-05
3.52474e-05
3.52539e-05
3.5261e-05
3.5268e-05
3.52755e-05
3.52829e-05
3.52907e-05
3.52984e-05
3.53068e-05
3.53145e-05
3.53224e-05
3.53303e-05
3.5338e-05
3.53461e-05
3.53547e-05
3.53644e-05
3.5376e-05
3.53908e-05
3.54102e-05
3.54363e-05
3.54703e-05
3.55053e-05
3.55401e-05
3.55944e-05
3.5684e-05
3.58063e-05
3.5679e-05
3.56672e-05
3.56559e-05
3.56452e-05
3.5635e-05
3.56253e-05
3.5616e-05
3.56072e-05
3.55988e-05
3.55907e-05
3.55831e-05
3.5576e-05
3.55692e-05
3.55629e-05
3.55569e-05
3.55511e-05
3.55458e-05
3.55408e-05
3.55359e-05
3.55316e-05
3.55275e-05
3.55239e-05
3.55203e-05
3.55172e-05
3.55143e-05
3.55118e-05
3.55095e-05
3.55076e-05
3.55058e-05
3.55044e-05
3.55032e-05
3.55024e-05
3.55017e-05
3.55015e-05
3.55013e-05
3.55017e-05
3.55021e-05
3.5503e-05
3.55039e-05
3.55054e-05
3.55069e-05
3.5509e-05
3.5511e-05
3.55136e-05
3.55162e-05
3.55194e-05
3.55226e-05
3.55263e-05
3.55301e-05
3.55345e-05
3.55389e-05
3.55438e-05
3.55488e-05
3.55544e-05
3.556e-05
3.5566e-05
3.55723e-05
3.5579e-05
3.55858e-05
3.5593e-05
3.56004e-05
3.56082e-05
3.5616e-05
3.56243e-05
3.56324e-05
3.56409e-05
3.56494e-05
3.56584e-05
3.56666e-05
3.5675e-05
3.56832e-05
3.56912e-05
3.56997e-05
3.57091e-05
3.57201e-05
3.57342e-05
3.57534e-05
3.57799e-05
3.58163e-05
3.5858e-05
3.5899e-05
3.59446e-05
3.60182e-05
3.61305e-05
3.6318e-05
3.60363e-05
3.60221e-05
3.60086e-05
3.59958e-05
3.59835e-05
3.59718e-05
3.59607e-05
3.595e-05
3.59398e-05
3.59301e-05
3.59209e-05
3.59122e-05
3.5904e-05
3.58963e-05
3.58889e-05
3.58819e-05
3.58753e-05
3.58692e-05
3.58632e-05
3.58579e-05
3.58529e-05
3.58483e-05
3.58438e-05
3.58399e-05
3.58363e-05
3.58331e-05
3.58301e-05
3.58276e-05
3.58252e-05
3.58234e-05
3.58217e-05
3.58206e-05
3.58195e-05
3.5819e-05
3.58186e-05
3.58188e-05
3.58191e-05
3.58199e-05
3.58208e-05
3.58222e-05
3.58239e-05
3.5826e-05
3.58282e-05
3.5831e-05
3.58339e-05
3.58374e-05
3.5841e-05
3.58451e-05
3.58494e-05
3.58543e-05
3.58592e-05
3.58647e-05
3.58704e-05
3.58766e-05
3.58829e-05
3.58898e-05
3.58968e-05
3.59044e-05
3.5912e-05
3.59202e-05
3.59285e-05
3.59372e-05
3.59459e-05
3.59551e-05
3.59641e-05
3.59735e-05
3.5983e-05
3.59926e-05
3.60014e-05
3.60104e-05
3.60191e-05
3.60276e-05
3.60367e-05
3.60469e-05
3.60595e-05
3.60766e-05
3.61012e-05
3.61371e-05
3.61825e-05
3.623e-05
3.62776e-05
3.63366e-05
3.64297e-05
3.65666e-05
3.68573e-05
3.63901e-05
3.63733e-05
3.63573e-05
3.6342e-05
3.63273e-05
3.63134e-05
3.63e-05
3.62873e-05
3.6275e-05
3.62634e-05
3.62523e-05
3.62419e-05
3.6232e-05
3.62226e-05
3.62137e-05
3.62051e-05
3.61972e-05
3.61897e-05
3.61825e-05
3.61759e-05
3.61698e-05
3.61641e-05
3.61587e-05
3.61538e-05
3.61493e-05
3.61453e-05
3.61415e-05
3.61383e-05
3.61354e-05
3.61329e-05
3.61308e-05
3.61292e-05
3.61277e-05
3.61269e-05
3.61262e-05
3.61262e-05
3.61264e-05
3.61271e-05
3.61279e-05
3.61294e-05
3.61312e-05
3.61335e-05
3.61358e-05
3.61389e-05
3.61422e-05
3.6146e-05
3.615e-05
3.61546e-05
3.61595e-05
3.61649e-05
3.61706e-05
3.61768e-05
3.61833e-05
3.61903e-05
3.61975e-05
3.62052e-05
3.62133e-05
3.62218e-05
3.62305e-05
3.62397e-05
3.62491e-05
3.62589e-05
3.62688e-05
3.6279e-05
3.62892e-05
3.62997e-05
3.63104e-05
3.63209e-05
3.63306e-05
3.63406e-05
3.635e-05
3.63594e-05
3.63693e-05
3.63806e-05
3.63949e-05
3.6415e-05
3.64452e-05
3.64901e-05
3.65418e-05
3.65944e-05
3.66502e-05
3.67246e-05
3.68362e-05
3.69987e-05
3.73779e-05
3.67499e-05
3.67301e-05
3.67113e-05
3.66932e-05
3.66759e-05
3.66594e-05
3.66436e-05
3.66284e-05
3.66139e-05
3.66001e-05
3.6587e-05
3.65745e-05
3.65627e-05
3.65514e-05
3.65407e-05
3.65305e-05
3.65209e-05
3.65119e-05
3.65033e-05
3.64954e-05
3.64879e-05
3.6481e-05
3.64744e-05
3.64684e-05
3.6463e-05
3.6458e-05
3.64534e-05
3.64494e-05
3.64457e-05
3.64426e-05
3.64399e-05
3.64378e-05
3.64359e-05
3.64347e-05
3.64338e-05
3.64335e-05
3.64335e-05
3.64341e-05
3.64349e-05
3.64365e-05
3.64384e-05
3.64408e-05
3.64435e-05
3.64469e-05
3.64505e-05
3.64548e-05
3.64594e-05
3.64646e-05
3.64702e-05
3.64763e-05
3.64827e-05
3.64898e-05
3.64972e-05
3.65052e-05
3.65134e-05
3.65223e-05
3.65315e-05
3.65412e-05
3.65511e-05
3.65617e-05
3.65725e-05
3.65836e-05
3.65949e-05
3.66065e-05
3.66182e-05
3.66303e-05
3.66424e-05
3.66541e-05
3.66654e-05
3.66769e-05
3.66878e-05
3.66987e-05
3.67103e-05
3.67234e-05
3.67399e-05
3.6763e-05
3.67979e-05
3.68488e-05
3.69066e-05
3.6967e-05
3.70358e-05
3.71296e-05
3.72637e-05
3.74578e-05
3.78619e-05
3.7124e-05
3.71009e-05
3.70789e-05
3.70579e-05
3.70377e-05
3.70183e-05
3.69997e-05
3.6982e-05
3.69649e-05
3.69487e-05
3.69333e-05
3.69186e-05
3.69046e-05
3.68912e-05
3.68785e-05
3.68665e-05
3.68551e-05
3.68444e-05
3.68342e-05
3.68247e-05
3.68158e-05
3.68075e-05
3.67996e-05
3.67925e-05
3.67859e-05
3.67799e-05
3.67743e-05
3.67694e-05
3.67649e-05
3.67611e-05
3.67578e-05
3.67551e-05
3.67528e-05
3.67512e-05
3.675e-05
3.67495e-05
3.67493e-05
3.67498e-05
3.67507e-05
3.67523e-05
3.67544e-05
3.6757e-05
3.676e-05
3.67638e-05
3.6768e-05
3.67728e-05
3.6778e-05
3.67839e-05
3.67903e-05
3.67973e-05
3.68047e-05
3.68128e-05
3.68213e-05
3.68304e-05
3.684e-05
3.68502e-05
3.68608e-05
3.68719e-05
3.68834e-05
3.68956e-05
3.69081e-05
3.69209e-05
3.6934e-05
3.69475e-05
3.69613e-05
3.69755e-05
3.69898e-05
3.70036e-05
3.70174e-05
3.70316e-05
3.70454e-05
3.70595e-05
3.70746e-05
3.70917e-05
3.71128e-05
3.71414e-05
3.71829e-05
3.72415e-05
3.73133e-05
3.73956e-05
3.74919e-05
3.76221e-05
3.78098e-05
3.80753e-05
3.84889e-05
3.75191e-05
3.74927e-05
3.74673e-05
3.7443e-05
3.74197e-05
3.73973e-05
3.73758e-05
3.73552e-05
3.73354e-05
3.73166e-05
3.72986e-05
3.72815e-05
3.72652e-05
3.72496e-05
3.72347e-05
3.72206e-05
3.72074e-05
3.71948e-05
3.71829e-05
3.71718e-05
3.71612e-05
3.71514e-05
3.71421e-05
3.71337e-05
3.7126e-05
3.71189e-05
3.71122e-05
3.71063e-05
3.7101e-05
3.70965e-05
3.70925e-05
3.70892e-05
3.70864e-05
3.70844e-05
3.70829e-05
3.70821e-05
3.70818e-05
3.70822e-05
3.70832e-05
3.7085e-05
3.70873e-05
3.70902e-05
3.70937e-05
3.70979e-05
3.71027e-05
3.71081e-05
3.71142e-05
3.7121e-05
3.71283e-05
3.71363e-05
3.71449e-05
3.71542e-05
3.71641e-05
3.71746e-05
3.71857e-05
3.71976e-05
3.72099e-05
3.72228e-05
3.72364e-05
3.72506e-05
3.72653e-05
3.72805e-05
3.72961e-05
3.73124e-05
3.73293e-05
3.73468e-05
3.73645e-05
3.73822e-05
3.74006e-05
3.74199e-05
3.74396e-05
3.74608e-05
3.74841e-05
3.75111e-05
3.75446e-05
3.75896e-05
3.76532e-05
3.77422e-05
3.78639e-05
3.8013e-05
3.81853e-05
3.84157e-05
3.87695e-05
3.92159e-05
3.97263e-05
3.79413e-05
3.79111e-05
3.78823e-05
3.78547e-05
3.78281e-05
3.78024e-05
3.77778e-05
3.77542e-05
3.77315e-05
3.77099e-05
3.76893e-05
3.76695e-05
3.76507e-05
3.76327e-05
3.76157e-05
3.75995e-05
3.75842e-05
3.75697e-05
3.7556e-05
3.75431e-05
3.75309e-05
3.75195e-05
3.75088e-05
3.74991e-05
3.74901e-05
3.74817e-05
3.7474e-05
3.74672e-05
3.7461e-05
3.74557e-05
3.74511e-05
3.74472e-05
3.74439e-05
3.74415e-05
3.74398e-05
3.74388e-05
3.74384e-05
3.74388e-05
3.74399e-05
3.74419e-05
3.74445e-05
3.74478e-05
3.74518e-05
3.74567e-05
3.74621e-05
3.74684e-05
3.74754e-05
3.74833e-05
3.74918e-05
3.75011e-05
3.75112e-05
3.75221e-05
3.75337e-05
3.7546e-05
3.75592e-05
3.75732e-05
3.75878e-05
3.76033e-05
3.76197e-05
3.76369e-05
3.76549e-05
3.76737e-05
3.76936e-05
3.77147e-05
3.7737e-05
3.77604e-05
3.77847e-05
3.78103e-05
3.78382e-05
3.78684e-05
3.79012e-05
3.79384e-05
3.79815e-05
3.80337e-05
3.81013e-05
3.81935e-05
3.83206e-05
3.85104e-05
3.87789e-05
3.90904e-05
3.94356e-05
3.99407e-05
4.07053e-05
4.14624e-05
4.21519e-05
3.83961e-05
3.8362e-05
3.83296e-05
3.82984e-05
3.82683e-05
3.82392e-05
3.82112e-05
3.81842e-05
3.81584e-05
3.81337e-05
3.81102e-05
3.80877e-05
3.80663e-05
3.8046e-05
3.80267e-05
3.80084e-05
3.79911e-05
3.79747e-05
3.79591e-05
3.79444e-05
3.79305e-05
3.79175e-05
3.79055e-05
3.78944e-05
3.7884e-05
3.78745e-05
3.78658e-05
3.7858e-05
3.7851e-05
3.7845e-05
3.78397e-05
3.78353e-05
3.78316e-05
3.78289e-05
3.78269e-05
3.78258e-05
3.78254e-05
3.7826e-05
3.78274e-05
3.78296e-05
3.78327e-05
3.78365e-05
3.78413e-05
3.7847e-05
3.78535e-05
3.78609e-05
3.78692e-05
3.78785e-05
3.78887e-05
3.78999e-05
3.7912e-05
3.79252e-05
3.79393e-05
3.79545e-05
3.79708e-05
3.79882e-05
3.80067e-05
3.80266e-05
3.80479e-05
3.80707e-05
3.8095e-05
3.81213e-05
3.81501e-05
3.81816e-05
3.8216e-05
3.82531e-05
3.82933e-05
3.83377e-05
3.83877e-05
3.84438e-05
3.85081e-05
3.85844e-05
3.86774e-05
3.87961e-05
3.89534e-05
3.91624e-05
3.94423e-05
3.99245e-05
4.05538e-05
4.11645e-05
4.17642e-05
4.24178e-05
4.31621e-05
4.39028e-05
4.45674e-05
3.88926e-05
3.8854e-05
3.88174e-05
3.87821e-05
3.87479e-05
3.87147e-05
3.86825e-05
3.86514e-05
3.86216e-05
3.85932e-05
3.85663e-05
3.8541e-05
3.8517e-05
3.84943e-05
3.84728e-05
3.84524e-05
3.84331e-05
3.84147e-05
3.83973e-05
3.83808e-05
3.83653e-05
3.83508e-05
3.83374e-05
3.83249e-05
3.83134e-05
3.83027e-05
3.8293e-05
3.82844e-05
3.82767e-05
3.82701e-05
3.82643e-05
3.82595e-05
3.82557e-05
3.82528e-05
3.82508e-05
3.82497e-05
3.82496e-05
3.82506e-05
3.82525e-05
3.82554e-05
3.82592e-05
3.82641e-05
3.82701e-05
3.82772e-05
3.82854e-05
3.82948e-05
3.83054e-05
3.83172e-05
3.83303e-05
3.83449e-05
3.8361e-05
3.83786e-05
3.83977e-05
3.84186e-05
3.84415e-05
3.84666e-05
3.84942e-05
3.85248e-05
3.85584e-05
3.85952e-05
3.86369e-05
3.86848e-05
3.87398e-05
3.88013e-05
3.88691e-05
3.89428e-05
3.90236e-05
3.91145e-05
3.92179e-05
3.93361e-05
3.94781e-05
3.96549e-05
3.98773e-05
4.01639e-05
4.05274e-05
4.09679e-05
4.14752e-05
4.20489e-05
4.26792e-05
4.33259e-05
4.39831e-05
4.46673e-05
4.53624e-05
4.59939e-05
4.651e-05
3.94531e-05
3.9408e-05
3.93655e-05
3.93242e-05
3.92838e-05
3.92441e-05
3.92053e-05
3.91676e-05
3.91317e-05
3.90979e-05
3.90665e-05
3.90376e-05
3.90107e-05
3.89856e-05
3.89619e-05
3.89394e-05
3.8918e-05
3.88977e-05
3.88784e-05
3.88601e-05
3.8843e-05
3.88271e-05
3.88123e-05
3.87985e-05
3.87858e-05
3.87742e-05
3.87638e-05
3.87545e-05
3.87464e-05
3.87394e-05
3.87336e-05
3.87288e-05
3.87252e-05
3.87226e-05
3.87212e-05
3.87208e-05
3.87216e-05
3.87236e-05
3.87269e-05
3.87314e-05
3.87373e-05
3.87447e-05
3.87536e-05
3.8764e-05
3.8776e-05
3.87898e-05
3.88056e-05
3.88235e-05
3.8844e-05
3.88674e-05
3.88936e-05
3.89227e-05
3.89553e-05
3.89928e-05
3.90362e-05
3.90858e-05
3.91419e-05
3.92047e-05
3.9274e-05
3.93533e-05
3.94522e-05
3.95745e-05
3.97148e-05
3.98655e-05
4.00218e-05
4.01823e-05
4.03522e-05
4.05351e-05
4.07302e-05
4.09375e-05
4.11645e-05
4.14174e-05
4.1702e-05
4.203e-05
4.24161e-05
4.28734e-05
4.34025e-05
4.39885e-05
4.4608e-05
4.52386e-05
4.58707e-05
4.6491e-05
4.70554e-05
4.74986e-05
4.7786e-05
4.01348e-05
4.0078e-05
4.00244e-05
3.99717e-05
3.99192e-05
3.98668e-05
3.98149e-05
3.97645e-05
3.97169e-05
3.96734e-05
3.96345e-05
3.96e-05
3.95692e-05
3.9541e-05
3.95145e-05
3.94894e-05
3.94656e-05
3.9443e-05
3.94215e-05
3.94012e-05
3.93823e-05
3.93648e-05
3.93485e-05
3.93334e-05
3.93197e-05
3.93075e-05
3.92967e-05
3.92874e-05
3.92795e-05
3.9273e-05
3.92679e-05
3.92643e-05
3.9262e-05
3.92611e-05
3.92615e-05
3.92635e-05
3.92672e-05
3.92728e-05