/*--------------------------------*- C++ -*----------------------------------*\
| =========                 |                                                 |
| \\      /  F ield         | OpenFOAM: The Open Source CFD Toolbox           |
|  \\    /   O peration     | Version:  2412                                  |
|   \\  /    A nd           | Website:  www.openfoam.com                      |
|    \\/     M anipulation  |                                                 |
\*---------------------------------------------------------------------------*/
FoamFile
{
    version     2.0;
    format      ascii;
    arch        "LSB;label=32;scalar=64";
    class       volScalarField;
    location    "20";
    object      p;
}
// * * * * * * * * * * * * * * * * * * * * * * * * * * * * * * * * * * * * * //

dimensions      [0 2 -2 0 0 0 0];

internalField   nonuniform List<scalar> 
7332
(
430.804
212.155
185.34
263.088
198.583
22.7036
-76.3266
-36.6588
57.7128
109.508
132.073
142.23
144.529
142.173
138.851
138.033
138.43
139.485
140.616
140.026
137.836
134.627
130.934
127.496
124.261
121.051
117.622
113.923
110.072
106.073
51.436
55.5394
59.5863
63.6231
67.6727
71.724
75.7636
79.7862
83.7993
87.7811
91.7147
95.5898
99.4301
103.253
107.03
110.629
113.954
117.042
120.153
123.466
127.041
130.122
132.2
132.673
131.457
130.306
129.821
130.548
133.754
136.025
133.644
123.442
100.935
49.337
-44.8784
-83.2508
20.4467
206.147
274.121
190.636
212.852
429.915
430.367
212.498
185.529
262.969
198.629
22.9286
-76.1427
-36.614
57.6779
109.485
132.062
142.226
144.528
142.175
138.853
138.035
138.431
139.486
140.617
140.027
137.837
134.629
130.936
127.498
124.263
121.053
117.624
113.925
110.073
106.075
51.4377
55.5412
59.588
63.6248
67.6744
71.7258
75.7654
79.788
83.8011
87.7829
91.7165
95.5915
99.4319
103.255
107.031
110.631
113.956
117.044
120.155
123.468
127.043
130.123
132.201
132.674
131.458
130.308
129.823
130.55
133.755
136.024
133.639
123.431
100.911
49.3014
-44.8343
-83.066
20.6784
206.196
273.988
190.827
213.214
429.496
429.892
213.022
185.93
262.924
198.699
23.2804
-75.7694
-36.4522
57.6591
109.455
132.047
142.22
144.527
142.178
138.859
138.04
138.435
139.489
140.619
140.03
137.84
134.632
130.94
127.501
124.267
121.056
117.628
113.929
110.077
106.078
51.441
55.5445
59.5913
63.6282
67.6778
71.7291
75.7688
79.7913
83.8045
87.7862
91.7198
95.5949
99.4353
103.258
107.035
110.634
113.959
117.047
120.158
123.472
127.046
130.126
132.204
132.676
131.461
130.312
129.828
130.555
133.758
136.023
133.633
123.415
100.88
49.2819
-44.6719
-82.6894
21.0384
206.272
273.935
191.242
213.793
429.039
429.261
213.778
186.673
262.967
198.777
23.79
-75.055
-36.0521
57.6942
109.419
132.023
142.207
144.522
142.18
138.866
138.047
138.44
139.492
140.621
140.031
137.842
134.634
130.942
127.504
124.269
121.059
117.63
113.931
110.079
106.08
51.4434
55.5468
59.5937
63.6305
67.6801
71.7315
75.7711
79.7937
83.8068
87.7886
91.7222
95.5973
99.4377
103.26
107.037
110.637
113.962
117.05
120.161
123.474
127.048
130.127
132.204
132.677
131.464
130.317
129.834
130.562
133.76
136.017
133.62
123.39
100.844
49.3169
-44.2684
-81.967
21.5569
206.352
273.981
192.026
214.66
428.424
428.537
214.773
187.943
263.223
198.9
24.5917
-73.7856
-35.2721
57.8247
109.375
131.986
142.185
144.513
142.184
138.879
138.059
138.45
139.498
140.623
140.032
137.843
134.637
130.946
127.508
124.273
121.062
117.633
113.934
110.083
106.084
51.4466
55.55
59.5969
63.6337
67.6833
71.7347
75.7743
79.7969
83.8101
87.7918
91.7255
95.6006
99.4409
103.264
107.04
110.64
113.965
117.053
120.164
123.478
127.05
130.129
132.205
132.679
131.469
130.325
129.846
130.574
133.763
136.008
133.598
123.352
100.798
49.4477
-43.4815
-80.6837
22.3683
206.466
274.251
193.377
215.83
427.723
427.606
215.929
189.755
263.731
198.957
25.8454
-71.7509
-33.9534
58.0603
109.318
131.929
142.15
144.497
142.189
138.9
138.08
138.465
139.507
140.625
140.032
137.844
134.64
130.951
127.513
124.278
121.066
117.637
113.938
110.087
106.089
51.4503
55.5536
59.6005
63.6373
67.6869
71.7383
75.778
79.8005
83.8137
87.7955
91.7291
95.6042
99.4446
103.267
107.044
110.643
113.969
117.058
120.169
123.482
127.053
130.129
132.204
132.68
131.477
130.339
129.865
130.594
133.767
135.991
133.562
123.295
100.741
49.6799
-42.1513
-78.6297
23.6316
206.503
274.804
195.331
217.207
426.827
426.357
217.21
191.894
264.504
198.91
27.7304
-68.7941
-31.9486
58.3822
109.251
131.849
142.096
144.471
142.195
138.931
138.11
138.486
139.519
140.626
140.03
137.844
134.642
130.956
127.518
124.282
121.07
117.641
113.942
110.09
51.4537
55.5569
59.6038
63.6406
67.6902
71.7416
75.7813
79.8038
83.817
87.7987
91.7324
95.6076
99.448
103.271
107.047
110.646
113.972
117.062
120.174
123.486
127.054
130.128
132.201
132.681
131.488
130.36
129.894
130.624
133.771
135.964
133.507
123.213
100.672
49.9971
-40.1364
-75.6584
25.5247
206.422
275.658
197.664
218.751
425.63
424.664
218.442
194.062
265.493
198.875
30.417
-64.8194
-29.1766
58.809
109.177
131.742
142.021
144.434
142.203
138.976
138.154
138.518
139.536
140.627
140.025
137.841
134.643
130.961
127.525
124.288
121.074
117.644
113.946
110.094
51.4573
55.5602
59.6071
63.644
67.6936
71.745
75.7846
79.8072
83.8203
87.8021
91.7357
95.6111
99.4515
103.274
107.05
110.649
113.975
117.066
120.179
123.491
127.055
130.125
132.196
132.681
131.504
130.389
129.935
130.666
133.778
135.925
133.43
123.106
100.596
50.4236
-37.3613
-71.6667
28.2054
206.333
276.742
200.044
220.306
424.045
422.435
219.381
196.164
266.446
198.981
34.0001
-59.7362
-25.6051
59.3844
109.104
131.61
141.922
144.384
142.215
139.039
138.214
138.561
139.56
140.628
140.018
137.837
134.644
130.968
127.533
124.295
121.079
117.648
113.95
110.098
51.4612
55.5637
59.6107
63.6475
67.6971
71.7485
75.7882
79.8108
83.8239
87.8056
91.7393
95.6148
99.4553
103.277
107.053
110.652
113.979
117.072
120.186
123.496
127.054
130.119
132.187
132.68
131.525
130.429
129.993
130.725
133.786
135.873
133.33
122.973
100.521
51.0008
-33.7904
-66.554
31.7385
206.346
277.769
202.385
221.602
422.003
419.702
219.778
198.177
267.02
199.382
38.4881
-53.5357
-21.2247
60.1362
109.044
131.455
141.799
144.32
142.231
139.121
138.294
138.617
139.59
140.629
140.008
137.831
134.645
130.976
127.542
124.303
121.084
117.652
113.954
110.103
51.4653
55.5674
59.6145
63.6513
67.7009
71.7523
75.792
79.8146
83.8277
87.8093
91.7431
95.6188
99.4593
103.281
107.056
110.655
113.983
117.078
120.194
123.503
127.053
130.111
132.175
132.679
131.553
130.483
130.068
130.804
133.799
135.807
133.206
122.817
100.461
51.755
-29.4113
-60.3315
36.13
206.607
278.366
204.658
222.354
419.499
416.563
219.495
199.887
266.802
200.243
43.654
-46.2626
-16.0532
61.0931
109.019
131.281
141.653
144.243
142.253
139.225
138.394
138.689
139.629
140.63
139.995
137.822
134.644
130.986
127.554
124.312
121.09
117.657
113.958
110.107
51.4697
55.5713
59.6185
63.6553
67.7049
71.7564
75.7961
79.8187
83.8317
87.8133
91.7472
95.6231
99.4638
103.285
107.059
110.658
113.987
117.086
120.204
123.51
127.051
130.1
132.16
132.678
131.589
130.551
130.165
130.904
133.818
135.729
133.059
122.642
100.436
52.7151
-24.2378
-53.0521
41.1387
207.297
278.098
206.65
222.424
416.597
412.957
218.399
201.045
265.543
201.735
49.0678
-37.883
-10.1126
62.3041
109.044
131.095
141.487
144.155
142.283
139.354
138.518
138.779
139.678
140.632
139.979
137.811
134.643
130.997
127.568
124.323
121.097
117.661
113.964
110.112
51.4745
55.5756
59.6229
63.6598
67.7094
71.7608
75.8005
79.8232
83.8362
87.8178
91.7517
95.6279
99.4688
103.29
107.063
110.661
113.993
117.095
120.215
123.52
127.048
130.087
132.142
132.677
131.635
130.637
130.284
131.027
133.844
135.639
132.893
122.457
100.461
53.9306
-18.2861
-44.6822
46.365
208.557
276.693
208.11
221.682
413.187
408.464
216.243
201.376
263.502
204.068
54.6803
-28.4407
-3.42132
63.8553
109.103
130.909
141.305
144.058
142.323
139.508
138.667
138.887
139.736
140.634
139.959
137.797
134.642
131.011
127.584
124.336
121.105
117.667
113.969
110.118
51.4798
55.5804
59.6279
63.6647
67.7143
71.7658
75.8056
79.8282
83.8412
87.8227
91.7568
95.6335
99.4745
103.295
107.067
110.665
113.999
117.106
120.229
123.531
127.044
130.071
132.121
132.677
131.69
130.741
130.428
131.177
133.88
135.539
132.71
122.272
100.521
55.4901
-11.5685
-35.2548
51.8183
210.52
274.381
208.742
219.908
408.826
402.348
212.758
200.503
261.04
206.993
60.9103
-18.0789
3.90172
65.8595
109.167
130.737
141.112
143.954
142.375
139.69
138.842
139.014
139.806
140.638
139.938
137.781
134.64
131.026
127.603
124.35
121.114
117.673
113.975
110.124
51.4857
55.5858
59.6335
63.6704
67.72
71.7715
75.8113
79.834
83.847
87.8285
91.7627
95.6399
99.4812
103.301
107.072
110.669
114.006
117.119
120.246
123.544
127.04
130.054
132.097
132.679
131.757
130.865
130.599
131.354
133.929
135.435
132.517
122.103
100.588
57.5112
-4.21309
-24.9044
57.8812
212.907
271.508
208.154
216.794
402.844
394.073
208.18
198.232
258.429
209.779
68.0289
-6.86514
11.7238
68.3484
109.287
130.594
140.913
143.852
142.443
139.898
139.043
139.162
139.887
140.645
139.914
137.763
134.639
131.044
127.624
124.367
121.124
117.68
113.982
110.131
51.4924
55.592
59.64
63.6769
67.7265
71.7781
75.8179
79.8407
83.8536
87.8351
91.7695
95.6473
99.4889
103.308
107.077
110.674
114.014
117.134
120.265
123.56
127.037
130.034
132.071
132.684
131.836
131.01
130.797
131.558
133.994
135.333
132.32
121.963
100.72
60.0226
3.63662
-13.6943
64.7969
215.023
268.372
206.116
212.451
394.873
384.582
203.733
195.549
256.435
211.736
76.0974
5.11405
20.0511
71.2792
109.57
130.496
140.724
143.767
142.516
140.135
139.271
139.33
139.982
140.655
139.889
137.743
134.638
131.064
127.648
124.387
121.136
117.687
113.99
110.139
51.4998
55.599
59.6474
63.6843
67.734
71.7856
75.8255
79.8483
83.8612
87.8426
91.7773
95.6558
99.4978
103.317
107.084
110.68
114.024
117.152
120.288
123.578
127.033
130.012
132.044
132.692
131.929
131.176
131.022
131.793
134.062
135.247
132.134
121.87
101.023
62.9686
11.9986
-1.70921
72.6108
216.172
265.759
203.36
207.919
385.958
376.335
201.732
194.169
256.399
212.612
85.0393
17.759
28.918
74.6016
110.097
130.453
140.56
143.705
142.591
140.402
139.528
139.521
140.093
140.668
139.862
137.722
134.638
131.086
127.676
124.408
121.149
117.696
113.999
110.148
51.5082
55.607
59.6558
63.6928
67.7424
71.7941
75.8341
79.857
83.8697
87.8512
91.7862
95.6654
99.5079
103.326
107.091
110.687
114.035
117.172
120.313
123.598
127.03
129.99
132.016
132.703
132.037
131.364
131.276
132.057
134.139
135.182
131.972
121.83
101.572
66.2976
20.9098
10.9428
81.2744
216.086
264.931
201.502
205.228
378.402
372.509
204.89
195.949
258.733
212.975
94.6998
30.9967
38.3321
78.3086
110.935
130.471
140.43
143.657
142.698
140.699
139.814
139.738
140.225
140.68
139.836
137.7
134.638
131.111
127.707
124.433
121.164
117.706
114.009
110.158
51.5177
55.616
59.6653
63.7024
67.7521
71.8039
75.844
79.8669
83.8795
87.861
91.7963
95.6764
99.5195
103.337
107.099
110.696
114.049
117.195
120.342
123.622
127.027
129.968
131.988
132.715
132.165
131.579
131.56
132.352
134.259
135.127
131.842
121.86
102.431
70.0115
30.3668
24.1767
90.6449
215.399
266.193
202.598
206.852
375.011
376.612
215.582
203.605
262.331
213.743
104.984
44.7377
48.2539
82.4315
112.129
130.616
140.345
143.624
142.855
141.029
140.133
139.983
140.377
140.693
139.812
137.678
134.639
131.139
127.741
124.461
121.181
117.717
114.02
110.17
51.5285
55.6262
59.6762
63.7135
67.763
71.815
75.8552
79.8782
83.8907
87.8723
91.8079
95.6891
99.5327
103.349
107.109
110.706
114.064
117.221
120.375
123.649
127.025
129.945
131.962
132.729
132.314
131.822
131.878
132.681
134.419
135.093
131.759
122.026
103.633
74.1436
40.3256
37.8992
100.623
215.125
268.423
209.297
215.388
378.723
390.747
235.079
218.774
266.008
215.436
115.849
58.8949
58.65
87.0208
113.665
130.961
140.333
143.631
143.055
141.395
140.487
140.258
140.547
140.714
139.79
137.657
134.641
131.171
127.779
124.491
121.201
117.73
114.033
110.182
51.5406
55.6377
59.6883
63.7259
67.7754
71.8275
75.8679
79.891
83.9033
87.885
91.821
95.7032
99.5476
103.363
107.121
110.718
114.082
117.25
120.411
123.679
127.026
129.922
131.938
132.751
132.481
132.095
132.231
133.047
134.618
135.1
131.755
122.388
105.169
78.751
50.7513
52.019
111.156
215.793
270.456
223.223
232.642
391.218
413.363
263.424
241.258
269.526
218.281
127.23
73.3736
69.4903
92.1507
115.558
131.533
140.437
143.698
143.303
141.803
140.879
140.564
140.735
140.751
139.772
137.637
134.645
131.207
127.821
124.525
121.222
117.744
114.047
110.196
51.5542
55.6506
59.7019
63.7399
67.7893
71.8414
75.882
79.9053
83.9172
87.8992
91.8356
95.719
99.564
103.379
107.133
110.731
114.101
117.283
120.452
123.712
127.028
129.901
131.919
132.789
132.666
132.4
132.622
133.454
134.865
135.171
131.866
122.967
107.07
83.8992
61.6035
66.4314
122.173
217.572
272.057
244.201
258.746
411.293
440.104
298.588
268.478
273.687
222.365
139.043
88.062
80.7199
97.8623
117.885
132.356
140.683
143.85
143.61
142.258
141.315
140.906
140.943
140.808
139.761
137.62
134.652
131.246
127.867
124.563
121.246
117.76
114.062
110.212
51.5694
55.665
59.717
63.7554
67.8048
71.8569
75.8977
79.9212
83.9328
87.915
91.8519
95.7364
99.5823
103.396
107.148
110.746
114.124
117.319
120.496
123.75
127.033
129.884
131.906
132.847
132.87
132.739
133.056
133.908
135.172
135.327
132.116
123.795
109.407
89.6199
72.8236
81.0217
133.591
220.548
274.249
269.567
291.789
435.539
466.777
336.995
296.305
279.643
227.698
151.203
102.819
92.28
104.158
120.702
133.483
141.108
144.115
143.993
142.768
141.798
141.287
141.175
140.888
139.758
137.609
134.663
131.29
127.919
124.605
121.274
117.779
114.08
110.23
51.5864
55.6812
59.7338
63.7728
67.8221
71.8743
75.9151
79.939
83.9501
87.9326
91.8701
95.7558
99.6025
103.416
107.164
110.763
114.149
117.359
120.545
123.791
127.042
129.871
131.902
132.925
133.099
133.118
133.538
134.417
135.554
135.594
132.545
124.929
112.231
95.9139
84.3522
95.6526
145.325
224.763
278.4
295.556
328.316
460.854
491.967
374.789
321.961
287.735
234.268
163.636
117.501
104.092
111.029
124.052
134.971
141.758
144.522
144.47
143.343
142.338
141.714
141.438
140.991
139.768
137.605
134.68
131.34
127.975
124.652
121.305
117.8
114.101
110.249
51.6054
55.6994
59.7525
63.792
67.8414
71.8936
75.9345
79.9587
83.9693
87.9521
91.8902
95.7773
99.6249
103.437
107.183
110.783
114.178
117.404
120.599
123.838
127.057
129.864
131.911
133.024
133.36
133.542
134.075
134.99
136.03
136.003
133.197
126.42
115.581
102.771
96.1124
110.177
157.302
230.242
284.898
319.53
364.928
486.546
517.03
409.052
344.771
297.274
241.96
176.227
132.007
116.067
118.451
127.966
136.874
142.682
145.107
145.063
143.997
142.94
142.193
141.74
141.12
139.797
137.61
134.705
131.396
128.038
124.704
121.34
117.825
114.123
110.272
51.6266
55.7196
59.7734
63.8134
67.8628
71.9151
75.956
79.9804
83.9906
87.9737
91.9126
95.8011
99.6497
103.461
107.204
110.805
114.21
117.453
120.659
123.891
127.079
129.868
131.939
133.149
133.659
134.017
134.673
135.639
136.622
136.59
134.121
128.323
119.489
110.166
108.014
124.491
169.422
236.905
293.028
340.601
398.77
513.081
541.381
438.519
364.517
307.288
250.498
188.829
146.239
128.11
126.376
132.461
139.239
143.931
145.912
145.799
144.743
143.616
142.731
142.086
141.281
139.849
137.63
134.739
131.46
128.108
124.762
121.38
117.854
114.149
110.296
51.6501
55.7422
59.7966
63.837
67.8866
71.9389
75.9799
80.0045
84.0142
87.9975
91.9373
95.8274
99.677
103.488
107.228
110.831
114.248
117.509
120.726
123.951
127.11
129.886
131.989
133.307
134.002
134.55
135.344
136.382
137.354
137.393
135.368
130.683
123.97
118.051
119.963
138.5
181.553
244.493
301.764
358.693
428.336
538.512
561.34
462.114
380.702
317.203
259.536
201.277
160.09
140.113
134.731
137.53
142.105
145.554
146.978
146.706
145.603
144.378
143.335
142.485
141.483
139.93
137.669
134.787
131.534
128.186
124.827
121.425
117.887
114.179
110.324
51.6763
55.7673
59.8224
63.8633
67.913
71.9653
76.0063
80.0311
84.0404
88.0238
91.9646
95.8565
99.7072
103.517
107.255
110.861
114.29
117.57
120.8
124.021
127.154
129.921
132.066
133.505
134.397
135.148
136.099
137.236
138.256
138.456
136.987
133.538
129.016
126.35
131.857
152.106
193.542
252.672
310.558
373.517
451.947
558.92
573.35
478.252
393.259
326.554
268.7
213.385
173.448
151.951
143.42
143.142
145.494
147.595
148.347
147.816
146.596
145.238
144.016
142.944
141.734
140.046
137.732
134.851
131.619
128.274
124.901
121.477
117.925
114.213
110.356
51.7056
55.7954
59.8512
63.8924
67.9423
71.9946
76.0355
80.0605
84.0693
88.0529
91.9948
95.8886
99.7406
103.55
107.286
110.896
114.339
117.64
120.883
124.101
127.214
129.98
132.179
133.751
134.851
135.823
136.952
138.223
139.36
139.819
139.019
136.91
134.596
134.971
143.577
165.204
205.215
261.087
318.977
385.192
467.928
571.249
576.406
486.83
402.294
334.922
277.611
224.955
186.196
163.483
152.325
149.235
149.403
150.082
150.055
149.161
147.748
146.213
144.786
143.475
142.043
140.207
137.825
134.936
131.718
128.373
124.983
121.536
117.97
114.251
110.392
51.7381
55.8268
59.8832
63.9247
67.9747
72.0271
76.0679
80.093
84.1014
88.085
92.0281
95.924
99.7775
103.587
107.322
110.936
114.394
117.717
120.976
124.195
127.295
130.07
132.336
134.055
135.376
136.585
137.919
139.366
140.697
141.519
141.494
140.797
140.649
143.795
154.99
177.691
216.39
269.375
326.625
393.829
476.503
574.466
571.421
488.79
407.975
341.938
285.901
235.783
198.202
174.572
161.307
155.723
153.806
153.03
152.13
150.768
149.081
147.32
145.657
144.088
142.421
140.42
137.956
135.047
131.834
128.484
125.075
121.604
118.022
114.295
110.432
51.7745
55.8618
59.9189
63.9606
68.0107
72.0631
76.1038
80.1288
84.1368
88.1205
92.0649
95.9631
99.8184
103.628
107.363
110.983
114.458
117.805
121.082
124.305
127.401
130.197
132.545
134.427
135.981
137.447
139.017
140.691
142.295
143.583
144.425
145.172
147.088
152.689
165.955
189.452
226.879
277.174
333.127
399.363
478.789
569.168
559.583
485.318
410.439
347.292
293.243
245.679
209.33
185.102
170.218
162.492
158.645
156.424
154.585
152.66
150.617
148.576
146.641
144.794
142.877
140.696
138.134
135.191
131.972
128.611
125.179
121.681
118.082
114.346
110.477
51.815
55.901
59.9587
64.0005
68.0506
72.103
76.1434
80.1682
84.1759
88.1596
92.1055
96.0061
99.8634
103.673
107.41
111.038
114.532
117.904
121.202
124.436
127.538
130.369
132.816
134.878
136.68
138.422
140.263
142.217
144.176
146.024
147.8
149.978
153.804
161.508
176.356
200.365
236.501
284.162
338.16
401.807
475.855
556.815
542.688
477.659
409.882
350.784
299.378
254.46
219.451
194.962
178.903
169.403
163.831
160.224
157.408
154.846
152.371
149.993
147.75
145.605
143.423
141.045
138.366
135.372
132.135
128.756
125.297
121.77
118.151
114.404
110.529
51.8602
55.9448
60.0029
64.0448
68.0947
72.1469
76.1871
80.2116
84.2189
88.2027
92.1501
96.0532
99.913
103.724
107.464
111.102
114.615
118.015
121.34
124.592
127.714
130.597
133.16
135.417
137.482
139.522
141.67
143.96
146.35
148.833
151.578
155.129
160.659
170.104
186.09
210.316
245.088
290.078
341.508
401.357
468.771
539.726
522.686
466.837
406.626
352.331
304.11
261.972
228.458
204.029
187.199
176.299
169.241
164.353
160.566
157.315
154.346
151.58
148.994
146.529
144.067
141.476
138.662
135.599
132.328
128.922
125.43
121.871
118.23
114.47
110.586
51.9105
55.9936
60.052
64.0937
68.1434
72.1953
76.235
80.259
84.2659
88.2498
92.1987
96.1047
99.9673
103.781
107.526
111.174
114.711
118.142
121.498
124.778
127.934
130.887
133.585
136.054
138.397
140.756
143.248
145.925
148.808
151.976
155.686
160.506
167.503
178.322
195.048
219.202
252.489
294.721
343.066
398.331
458.503
520.033
500.882
453.541
401.028
351.94
307.311
268.094
236.255
212.201
194.943
183.01
174.731
168.706
163.993
160.035
156.531
153.335
150.375
147.571
144.815
141.996
139.029
135.877
132.556
129.111
125.581
121.986
118.32
114.545
110.651
51.9663
56.0479
60.1061
64.1474
68.1967
72.2481
76.2871
80.3103
84.3168
88.3008
92.2511
96.1602
100.026
103.843
107.595
111.258
114.819
118.286
121.679
124.998
128.206
131.248
134.099
136.795
139.431
142.128
144.994
148.101
151.518
155.39
160.02
165.968
174.172
186.012
203.138
226.933
258.589
297.955
342.823
393.071
445.81
498.648
478.214
438.562
393.454
349.698
308.928
272.754
242.756
219.373
201.984
189.361
180.137
173.15
167.594
162.947
158.892
155.242
151.887
148.73
145.669
142.607
139.469
136.21
132.823
129.328
125.751
122.116
118.422
114.628
110.721
52.0278
56.1078
60.1654
64.2061
68.2547
72.3053
76.3432
80.3654
84.3713
88.3551
92.3069
96.219
100.089
103.911
107.671
111.351
114.942
118.448
121.886
125.256
128.532
131.682
134.704
137.642
140.582
143.631
146.893
150.455
154.424
158.982
164.452
171.355
180.498
193.027
210.265
233.428
263.312
299.71
340.843
385.916
431.478
476.327
455.367
422.49
384.273
345.753
308.973
275.919
247.915
225.456
208.2
195.195
185.296
177.541
171.254
165.969
161.374
157.266
153.508
149.993
146.621
143.308
139.984
136.599
133.129
129.572
125.941
122.261
118.535
114.72
110.799
52.0954
56.1736
60.23
64.2697
68.3173
72.3665
76.403
80.4238
84.4288
88.4123
92.3653
96.2805
100.155
103.984
107.755
111.456
115.079
118.629
122.12
125.553
128.914
132.192
135.4
138.589
141.839
145.247
148.912
152.935
157.444
162.64
168.84
176.51
186.327
199.24
216.347
238.644
266.621
299.985
337.248
377.204
416.049
453.753
432.638
405.412
373.803
340.278
307.504
277.583
251.697
230.38
213.498
200.371
190.046
181.722
174.837
168.993
163.9
159.351
155.201
151.335
147.656
144.088
140.568
137.042
133.473
129.842
126.149
122.419
118.659
114.82
110.881
52.1693
56.2455
60.2999
64.338
68.384
72.4312
76.4654
80.4842
84.4876
88.4704
92.4243
96.3427
100.223
104.059
107.845
111.569
115.228
118.828
122.379
125.887
129.35
132.771
136.175
139.619
143.176
146.937
150.997
155.463
160.474
166.233
173.031
181.274
191.522
204.559
221.319
242.547
268.499
298.823
332.191
367.23
399.563
431.224
410.315
387.778
362.333
333.47
304.617
277.783
254.09
234.092
217.81
204.774
194.234
185.529
178.196
171.896
166.371
161.424
156.911
152.714
148.741
144.924
141.206
137.53
133.849
130.133
126.372
122.588
118.79
114.925
110.967
52.2494
56.3237
60.375
64.411
68.4551
72.4994
76.5305
80.5462
84.5471
88.5285
92.4829
96.4044
100.29
104.137
107.939
111.689
115.388
119.04
122.659
126.254
129.831
133.405
137.009
140.702
144.554
148.648
153.076
157.946
163.395
169.615
176.867
185.496
195.964
208.926
225.134
245.123
268.976
296.304
325.85
356.267
382.482
409.051
388.915
370.489
350.199
325.56
300.443
276.594
255.119
236.566
221.07
208.32
197.748
188.828
181.19
174.547
168.676
163.394
158.562
154.069
149.829
145.78
141.869
138.04
134.243
130.435
126.6
122.759
118.921
115.029
111.053
52.3351
56.4068
60.4531
64.4858
68.527
72.5676
76.5944
80.6061
84.6035
88.5827
92.5369
96.4611
100.353
104.21
108.03
111.81
115.55
119.258
122.95
126.639
130.338
134.067
137.865
141.792
145.914
150.308
155.061
160.275
166.078
172.646
180.21
189.061
199.578
212.286
227.767
246.391
268.118
292.547
318.436
344.641
365.664
387.762
368.757
353.798
337.682
316.783
295.134
274.12
254.83
237.796
223.222
210.929
200.491
191.51
183.698
176.826
170.701
165.162
160.073
155.331
150.86
146.605
142.518
138.545
134.633
130.733
126.821
122.921
119.044
115.126
111.131
52.4285
56.4988
60.5383
64.5651
68.6012
72.6358
76.6564
80.6621
84.6544
88.6297
92.5823
96.5082
100.406
104.274
108.112
111.92
115.702
119.47
123.237
127.022
130.841
134.719
138.695
142.83
147.188
151.836
156.855
162.337
168.401
175.206
182.953
191.883
202.292
214.587
229.208
246.394
266.021
287.692
310.182
332.629
349.715
367.778
349.92
337.87
324.967
307.352
288.841
270.476
253.297
237.809
224.253
212.548
202.387
193.483
185.622
178.628
172.343
166.626
161.35
156.418
151.761
147.335
143.097
138.998
134.983
130.997
127.013
123.056
119.14
115.2
111.193
52.5171
56.5875
60.622
64.6431
68.6726
72.6994
76.712
80.7099
84.6947
88.6638
92.6128
96.5384
100.44
104.318
108.173
112.008
115.831
119.655
123.494
127.369
131.298
135.308
139.438
143.747
148.295
153.142
158.358
164.028
170.261
177.201
185.014
193.89
204.056
215.81
229.479
245.197
262.793
281.879
301.296
320.442
334.68
349.159
332.316
322.829
312.23
297.446
281.711
265.78
250.609
236.655
224.17
213.151
203.385
194.677
186.882
179.868
173.513
167.696
162.305
157.246
152.456
147.901
143.545
139.346
135.248
131.192
127.146
123.14
119.191
115.234
111.222
52.6221
56.6759
60.7004
64.714
68.7339
72.7504
76.7527
80.74
84.7142
88.6739
92.6159
96.5382
100.44
104.323
108.191
112.05
115.909
119.782
123.684
127.633
131.654
135.77
140.024
144.467
149.153
154.138
159.48
165.26
171.578
178.556
186.326
195.035
204.844
215.964
228.625
242.882
258.54
275.239
291.923
308.16
320.071
331.673
315.705
308.286
299.536
287.195
273.882
260.154
246.861
234.398
223.009
212.742
203.462
195.05
187.419
180.479
174.137
168.296
162.856
157.732
152.866
148.228
143.794
139.526
135.372
131.267
127.179
123.137
119.165
115.201
111.198
32.7324
36.7349
40.7308
44.7216
48.7286
52.7682
56.7818
60.7847
64.7848
68.7892
72.7903
76.7777
80.7497
84.7082
88.6532
92.5831
96.4956
100.391
104.273
108.147
112.022
115.907
119.814
123.761
127.765
131.851
136.045
140.384
144.914
149.685
154.744
160.147
165.966
172.29
179.216
186.849
195.293
204.658
215.077
226.706
239.537
253.374
267.897
282.169
295.858
305.757
315.121
299.924
294.096
286.927
276.69
265.476
253.72
242.156
231.113
220.815
211.34
202.616
194.582
187.199
180.414
174.162
168.365
162.939
157.808
152.918
148.246
143.775
139.475
135.294
131.168
127.061
123.004
119.025
115.071
111.095
32.8856
36.8925
40.8806
44.8612
48.8616
52.874
56.8581
60.8436
64.8292
68.8155
72.7973
76.7655
80.7171
84.6543
88.5784
92.4879
96.3823
100.262
104.135
108.005
111.883
115.777
119.7
123.668
127.701
131.824
136.06
140.443
145.014
149.818
154.896
160.299
166.093
172.351
179.149
186.562
194.664
203.516
213.194
223.79
235.256
247.407
259.97
272.129
283.623
291.822
299.413
284.908
280.302
274.458
266.006
256.605
246.595
236.6
226.889
217.653
208.986
200.866
193.274
186.207
179.648
173.552
167.862
162.506
157.419
152.553
147.891
143.426
139.131
134.956
130.837
126.739
122.689
118.723
114.802
110.876
33.0424
37.0372
41.0091
44.9724
48.9541
52.9446
56.9175
60.8861
64.8509
68.8128
72.7685
76.7098
80.633
84.5403
88.4328
92.311
96.1748
100.029
103.878
107.73
111.592
115.474
119.389
123.353
127.388
131.515
135.757
140.144
144.713
149.502
154.548
159.899
165.611
171.738
178.339
185.466
193.164
201.455
210.374
219.959
230.139
240.75
251.566
261.887
271.516
278.307
284.481
270.591
266.927
262.167
255.212
247.364
238.886
230.298
221.817
213.595
205.734
198.246
191.141
184.447
178.17
172.289
166.759
161.524
156.525
151.726
147.116
142.694
138.439
134.303
130.221
126.157
122.141
118.21
114.347
110.502
33.2007
37.1827
41.1403
45.0859
49.0489
53.0184
56.9691
60.9057
64.8365
68.764
72.6837
76.5874
80.4713
84.336
88.1838
92.016
95.8363
99.6489
103.459
107.272
111.096
114.943
118.825
122.76
126.768
130.867
135.081
139.437
143.965
148.697
153.669
158.922
164.498
170.44
176.788
183.577
190.824
198.525
206.683
215.298
224.283
233.505
242.78
251.512
259.567
265.194
270.241
256.884
253.95
250.072
244.361
237.835
230.689
223.35
215.99
208.727
201.649
194.803
188.217
181.937
175.989
170.368
165.046
159.975
155.106
150.411
145.888
141.542
137.357
133.288
129.271
125.27
121.31
117.437
113.658
109.922
33.3569
37.3224
41.2589
45.1781
49.1125
53.0501
56.9656
60.8617
64.7513
68.6369
72.5115
76.3665
80.1976
84.0052
87.7928
91.5646
95.3251
99.078
102.828
106.581
110.345
114.133
117.959
121.841
125.794
129.839
133.995
138.287
142.74
147.382
152.243
157.356
162.752
168.462
174.512
180.921
187.687
194.785
202.201
209.893
217.783
225.765
233.687
241.056
247.785
252.448
256.598
243.697
241.331
238.173
233.494
228.086
222.092
215.851
209.503
203.134
196.807
190.595
184.542
178.705
173.121
167.799
162.722
157.853
153.151
148.594
144.189
139.947
135.858
131.88
127.952
124.037
120.154
116.359
112.687
109.087
33.5028
37.4451
41.3524
45.2371
49.1353
53.034
56.9061
60.7534
64.5908
68.4211
72.2357
76.0252
79.785
83.5173
87.227
90.9205
94.6016
98.2739
101.942
105.613
109.297
113.006
116.755
120.56
124.436
128.402
132.476
136.677
141.027
145.549
150.266
155.201
160.38
165.821
171.539
177.539
183.807
190.308
197.007
203.833
210.728
217.61
224.356
230.557
236.171
240.034
243.466
230.958
229.036
226.467
222.642
218.178
213.171
207.89
202.447
196.896
191.281
185.684
180.17
174.791
169.595
164.601
159.801
155.165
150.66
146.272
142.013
137.9
133.928
130.06
126.241
122.431
118.645
114.945
111.398
107.95
33.6273
37.5373
41.4053
45.2453
49.097
52.9453
56.76
60.5428
64.3111
68.0686
71.8058
75.5104
79.1805
82.8188
86.4335
90.0301
93.6125
97.1847
100.752
104.323
107.91
111.524
115.179
118.89
122.671
126.539
130.509
134.598
138.82
143.194
147.737
152.466
157.396
162.54
167.901
173.476
179.24
185.158
191.174
197.203
203.203
209.115
214.841
220.047
224.726
227.921
230.773
218.608
217.034
214.95
211.831
208.161
203.998
199.551
194.905
190.096
185.157
180.145
175.158
170.242
165.449
160.802
156.301
151.923
147.642
143.449
139.361
135.399
131.563
127.823
124.128
120.438
116.765
113.175
109.762
106.474
33.7157
37.5806
41.3964
45.1794
48.9718
52.7553
56.4966
60.1985
63.881
67.5492
71.189
74.791
78.3517
81.8791
85.3806
88.8616
92.327
95.7816
99.2335
102.692
106.169
109.675
113.223
116.826
120.498
124.252
128.1
132.055
136.128
140.331
144.675
149.172
153.831
158.656
163.646
168.789
174.057
179.418
184.781
190.082
195.284
200.347
205.193
209.552
213.445
216.082
218.463
206.601
205.306
203.62
201.084
198.079
194.636
190.909
186.963
182.82
178.502
174.052
169.568
165.112
160.725
156.437
152.251
148.15
144.114
140.139
136.243
132.452
128.77
125.172
121.613
118.055
114.508
111.041
107.766
104.633
33.7476
37.551
41.2987
45.0102
48.7279
52.4299
56.0798
59.6819
63.2594
66.8157
70.3389
73.8167
77.2516
80.6507
84.0216
87.3711
90.7054
94.0318
97.3591
100.697
104.056
107.445
110.876
114.362
117.913
121.539
125.25
129.054
132.958
136.969
141.095
145.342
149.713
154.209
158.821
163.534
168.327
173.15
177.907
182.549
187.046
191.368
195.454
199.094
202.329
204.498
206.492
194.906
193.829
192.476
190.422
187.973
185.139
182.031
178.695
175.145
171.392
167.479
163.471
159.458