/*--------------------------------*- C++ -*----------------------------------*\
| =========                 |                                                 |
| \\      /  F ield         | OpenFOAM: The Open Source CFD Toolbox           |
|  \\    /   O peration     | Version:  2412                                  |
|   \\  /    A nd           | Website:  www.openfoam.com                      |
|    \\/     M anipulation  |                                                 |
\*---------------------------------------------------------------------------*/
FoamFile
{
    version     2.0;
    format      ascii;
    arch        "LSB;label=32;scalar=64";
    class       volScalarField;
    location    "20";
    object      p;
}
// * * * * * * * * * * * * * * * * * * * * * * * * * * * * * * * * * * * * * //

dimensions      [0 2 -2 0 0 0 0];

internalField   nonuniform List<scalar> 
7373
(
-25.2249
-26.1589
-27.0478
-27.8887
-28.6832
-29.4264
-30.1164
-30.7497
-31.3227
-31.8305
-32.2674
-32.6289
-32.9089
-33.0986
-33.1902
-33.1719
-33.0333
-32.7647
-32.347
-31.7687
-31.0114
-30.0508
-28.87
-27.4428
-25.7425
-23.7413
-21.4118
-18.7213
-15.6376
-12.1321
-8.16321
-3.69969
1.26397
6.76666
12.8497
19.5146
26.8087
34.7546
43.3864
52.7566
62.9052
73.8692
85.7326
98.5384
112.378
127.334
143.512
161.023
179.999
200.574
222.923
247.247
273.783
302.814
334.622
369.522
407.863
450.094
496.61
547.757
603.342
662.399
722.508
776.536
802.925
765.651
590.092
177.895
-25.2244
-26.1583
-27.0473
-27.8881
-28.6825
-29.4257
-30.1157
-30.749
-31.3219
-31.8297
-32.2666
-32.628
-32.9079
-33.0976
-33.1891
-33.1707
-33.0321
-32.7634
-32.3456
-31.7672
-31.0098
-30.0491
-28.8682
-27.4408
-25.7406
-23.7392
-21.4096
-18.7191
-15.6354
-12.1298
-8.1608
-3.69719
1.26656
6.76933
12.8525
19.5174
26.8117
34.7577
43.3896
52.7599
62.9087
73.8728
85.7364
98.5422
112.382
127.338
143.516
161.028
180.004
200.579
222.928
247.252
273.789
302.82
334.629
369.529
407.871
450.103
496.618
547.766
603.353
662.411
722.52
776.549
802.939
765.664
590.111
177.916
-25.2256
-26.1595
-27.0485
-27.8895
-28.6839
-29.4272
-30.1172
-30.7506
-31.3236
-31.8314
-32.2684
-32.6298
-32.9099
-33.0997
-33.1913
-33.173
-33.0345
-32.766
-32.3483
-31.77
-31.0128
-30.0523
-28.8715
-27.4444
-25.7442
-23.743
-21.4136
-18.7232
-15.6397
-12.1343
-8.16552
-3.70213
1.2614
6.76394
12.8468
19.5115
26.8055
34.7512
43.3828
52.7527
62.9011
73.8649
85.728
98.5335
112.373
127.328
143.506
161.017
179.993
200.567
222.915
247.239
273.774
302.804
334.612
369.51
407.851
450.081
496.595
547.74
603.323
662.378
722.482
776.504
802.883
765.591
590.012
177.793
-25.2247
-26.1586
-27.0476
-27.8885
-28.6829
-29.4261
-30.1161
-30.7495
-31.3224
-31.8303
-32.2671
-32.6286
-32.9086
-33.0983
-33.1899
-33.1716
-33.033
-32.7644
-32.3467
-31.7684
-31.0111
-30.0505
-28.8697
-27.4425
-25.7422
-23.7409
-21.4114
-18.7208
-15.6371
-12.1316
-8.16265
-3.69908
1.26464
6.76737
12.8505
19.5154
26.8097
34.7556
43.3875
52.7577
62.9065
73.8706
85.7342
98.54
112.38
127.336
143.514
161.025
180.002
200.577
222.926
247.25
273.787
302.818
334.627
369.527
407.869
450.101
496.618
547.766
603.353
662.411
722.521
776.548
802.929
765.631
590.034
177.819
-25.2242
-26.1581
-27.047
-27.8879
-28.6823
-29.4255
-30.1154
-30.7488
-31.3217
-31.8295
-32.2663
-32.6277
-32.9077
-33.0974
-33.1889
-33.1705
-33.0319
-32.7632
-32.3454
-31.767
-31.0095
-30.0489
-28.8679
-27.4406
-25.7403
-23.7389
-21.4093
-18.7188
-15.635
-12.1294
-8.16036
-3.69673
1.26708
6.76989
12.8531
19.5181
26.8124
34.7585
43.3905
52.7608
62.9097
73.8739
85.7376
98.5436
112.384
127.34
143.518
161.03
180.006
200.582
222.931
247.256
273.793
302.824
334.634
369.534
407.877
450.111
496.628
547.778
603.366
662.427
722.538
776.566
802.941
765.622
589.984
177.782
-25.2242
-26.1581
-27.0471
-27.8879
-28.6823
-29.4255
-30.1155
-30.7488
-31.3218
-31.8296
-32.2664
-32.6278
-32.9078
-33.0975
-33.189
-33.1706
-33.032
-32.7634
-32.3456
-31.7672
-31.0098
-30.0491
-28.8682
-27.4409
-25.7406
-23.7392
-21.4096
-18.7191
-15.6353
-12.1297
-8.16074
-3.69711
1.26666
6.76947
12.8527
19.5176
26.812
34.758
43.3899
52.7603
62.9092
73.8734
85.737
98.543
112.383
127.339
143.518
161.029
180.006
200.582
222.931
247.256
273.793
302.825
334.634
369.535
407.879
450.113
496.632
547.782
603.372
662.434
722.547
776.572
802.936
765.585
589.891
177.706
-25.2235
-26.1574
-27.0463
-27.8872
-28.6816
-29.4248
-30.1147
-30.748
-31.321
-31.8287
-32.2656
-32.627
-32.9069
-33.0966
-33.1881
-33.1697
-33.031
-32.7623
-32.3445
-31.7661
-31.0086
-30.0479
-28.867
-27.4396
-25.7392
-23.7378
-21.4081
-18.7175
-15.6336
-12.1279
-8.15885
-3.69511
1.2688
6.77174
12.8551
19.5202
26.8147
34.7609
43.3931
52.7636
62.9127
73.8772
85.7412
98.5475
112.388
127.344
143.523
161.035
180.013
200.589
222.939
247.265
273.803
302.836
334.647
369.55
407.896
450.132
496.654
547.809
603.403
662.47
722.587
776.614
802.966
765.576
589.822
177.672
-25.2223
-26.1561
-27.0451
-27.8859
-28.6803
-29.4234
-30.1133
-30.7466
-31.3195
-31.8272
-32.264
-32.6253
-32.9052
-33.0948
-33.1862
-33.1678
-33.0291
-32.7603
-32.3424
-31.7638
-31.0063
-30.0455
-28.8644
-27.4369
-25.7364
-23.7349
-21.4051
-18.7143
-15.6302
-12.1244
-8.1551
-3.69116
1.27296
6.77611
12.8597
19.5251
26.8199
34.7663
43.3988
52.7698
62.9193
73.8841
85.7486
98.5554
112.397
127.354
143.533
161.046
180.024
200.602
222.953
247.28
273.82
302.854
334.668
369.573
407.922
450.162
496.689
547.849
603.45
662.524
722.647
776.676
803.012
765.569
589.752
177.647
-25.2208
-26.1546
-27.0435
-27.8843
-28.6786
-29.4217
-30.1116
-30.7449
-31.3177
-31.8253
-32.2621
-32.6233
-32.9031
-33.0927
-33.184
-33.1655
-33.0267
-32.7577
-32.3397
-31.7611
-31.0034
-30.0425
-28.8613
-27.4336
-25.733
-23.7313
-21.4013
-18.7103
-15.6261
-12.12
-8.15053
-3.68636
1.278
6.78144
12.8653
19.531
26.8261
34.7729
43.4058
52.7772
62.9271
73.8925
85.7575
98.565
112.407
127.365
143.545
161.059
180.038
200.617
222.97
247.298
273.84
302.877
334.693
369.602
407.955
450.2
496.732
547.9
603.509
662.59
722.72
776.751
803.06
765.548
589.677
177.615
-25.2188
-26.1526
-27.0415
-27.8822
-28.6765
-29.4196
-30.1094
-30.7426
-31.3153
-31.8229
-32.2596
-32.6207
-32.9005
-33.0899
-33.1811
-33.1625
-33.0236
-32.7545
-32.3364
-31.7576
-30.9998
-30.0387
-28.8573
-27.4295
-25.7286
-23.7267
-21.3965
-18.7053
-15.6208
-12.1145
-8.14468
-3.6802
1.28449
6.78827
12.8725
19.5386
26.8342
34.7815
43.4149
52.7868
62.9374
73.9034
85.7692
98.5774
112.42
127.379
143.561
161.076
180.057
200.637
222.992
247.322
273.867
302.907
334.727
369.64
407.998
450.25
496.79
547.965
603.584
662.673
722.813
776.842
803.114
765.514
589.61
177.598
-439.272
-25.2162
-26.15
-27.0388
-27.8795
-28.6737
-29.4167
-30.1065
-30.7395
-31.3122
-31.8197
-32.2563
-32.6173
-32.8969
-33.0862
-33.1773
-33.1585
-33.0195
-32.7503
-32.3319
-31.7529
-30.9949
-30.0336
-28.852
-27.424
-25.7228
-23.7206
-21.3901
-18.6986
-15.6138
-12.1071
-8.13695
-3.67207
1.29305
6.7973
12.882
19.5487
26.8448
34.7928
43.4269
52.7995
62.9509
73.9178
85.7846
98.5939
112.438
127.398
143.581
161.098
180.081
200.663
223.021
247.354
273.902
302.946
334.771
369.69
408.055
450.314
496.863
548.049
603.675
662.779
722.929
776.95
803.172
765.467
589.556
177.619
-438.282
-1055.49
-25.2129
-26.1466
-27.0354
-27.876
-28.6702
-29.4131
-30.1027
-30.7357
-31.3083
-31.8157
-32.2521
-32.613
-32.8925
-33.0816
-33.1725
-33.1535
-33.0143
-32.7448
-32.3263
-31.7471
-30.9888
-30.0272
-28.8453
-27.417
-25.7155
-23.713
-21.3821
-18.6902
-15.6049
-12.0978
-8.12714
-3.66174
1.30393
6.80877
12.8941
19.5615
26.8583
34.8071
43.442
52.8156
62.968
73.9361
85.8041
98.6148
112.46
127.422
143.607
161.126
180.111
200.697
223.057
247.395
273.947
302.996
334.826
369.752
408.125
450.394
496.954
548.149
603.789
662.908
723.065
777.071
803.23
765.403
589.508
177.703
-437.046
-1053.75
-1495.64
-25.2088
-26.1425
-27.0312
-27.8717
-28.6658
-29.4086
-30.0981
-30.731
-31.3034
-31.8107
-32.2469
-32.6077
-32.887
-33.0759
-33.1666
-33.1474
-33.0079
-32.7382
-32.3194
-31.7399
-30.9813
-30.0194
-28.8371
-27.4083
-25.7065
-23.7035
-21.3722
-18.6798
-15.594
-12.0863
-8.11509
-3.64905
1.31729
6.82287
12.909
19.5772
26.8749
34.8247
43.4607
52.8355
62.9891
73.9586
85.8281
98.6405
112.488
127.452
143.639
161.161
180.149
200.738
223.102
247.444
274.001
303.056
334.894
369.827
408.21
450.49
497.063
548.264
603.927
663.056
723.216
777.201
803.281
765.321
589.466
177.877
-435.487
-1051.59
-1493.4
-25.2039
-26.1375
-27.0261
-27.8666
-28.6605
-29.4032
-30.0926
-30.7253
-31.2976
-31.8046
-32.2407
-32.6013
-32.8803
-33.069
-33.1595
-33.14
-33.0002
-32.7302
-32.311
-31.7311
-30.9722
-30.0099
-28.8272
-27.398
-25.6956
-23.6921
-21.3602
-18.6672
-15.5809
-12.0725
-8.10054
-3.63375
1.33341
6.83987
12.9269
19.5961
26.895
34.8459
43.4832
52.8594
63.0145
73.9857
85.857
98.6714
112.521
127.487
143.678
161.202
180.194
200.787
223.156
247.503
274.066
303.128
334.974
369.917
408.31
450.602
497.19
548.399
604.083
663.219
723.381
777.337
803.322
765.22
589.432
178.169
-433.555
-1048.85
-1490.62
-25.1981
-26.1316
-27.0201
-27.8604
-28.6542
-29.3968
-30.086
-30.7185
-31.2906
-31.7975
-32.2333
-32.5936
-32.8724
-33.0608
-33.151
-33.1312
-32.991
-32.7206
-32.3011
-31.7208
-30.9614
-29.9986
-28.8154
-27.3856
-25.6827
-23.6786
-21.346
-18.6523
-15.5652
-12.056
-8.08324
-3.61553
1.35259
6.8601
12.9483
19.6187
26.9189
34.8712
43.51
52.8879
63.0448
74.018
85.8915
98.7083
112.561
127.53
143.723
161.252
180.248
200.845
223.219
247.572
274.143
303.213
335.067
370.021
408.425
450.73
497.331
548.553
604.251
663.399
723.56
777.477
803.352
765.1
589.411
178.612
-431.188
-1045.5
-1487.2
-25.1913
-26.1246
-27.013
-27.8532
-28.6469
-29.3892
-30.0782
-30.7106
-31.2824
-31.789
-32.2246
-32.5846
-32.8631
-33.0512
-33.141
-33.1208
-32.9803
-32.7094
-32.2894
-31.7086
-30.9486
-29.9853
-28.8015
-27.3711
-25.6675
-23.6626
-21.3293
-18.6348
-15.5468
-12.0367
-8.06286
-3.59409
1.37519
6.88394
12.9735
19.6453
26.947
34.901
43.5416
52.9214
63.0805
74.056
85.9321
98.7517
112.607
127.58
143.777
161.31
180.31
200.913
223.293
247.653
274.231
303.31
335.175
370.139
408.556
450.874
497.488
548.724
604.436
663.595
723.751
777.62
803.368
764.961
589.412
179.25
-428.291
-1041.41
-1483
-25.1833
-26.1165
-27.0047
-27.8447
-28.6383
-29.3804
-30.0692
-30.7013
-31.2729
-31.7792
-32.2145
-32.5742
-32.8523
-33.04
-33.1294
-33.1087
-32.9677
-32.6963
-32.2758
-31.6944
-30.9338
-29.9698
-28.7853
-27.3541
-25.6497
-23.644
-21.3098
-18.6143
-15.5253
-12.0141
-8.03909
-3.56905
1.40156
6.91176
13.0028
19.6763
26.9798
34.9358
43.5785
52.9606
63.1222
74.1004
85.9794
98.8023
112.661
127.638
143.84
161.377
180.383
200.992
223.379
247.746
274.333
303.421
335.297
370.273
408.703
451.034
497.662
548.913
604.64
663.809
723.955
777.765
803.369
764.805
589.448
180.147
-424.751
-1036.44
-1477.9
-25.1741
-26.1071
-26.9952
-27.835
-28.6283
-29.3702
-30.0588
-30.6906
-31.2619
-31.7679
-32.2028
-32.5621
-32.8398
-33.027
-33.1159
-33.0947
-32.9532
-32.6812
-32.26
-31.678
-30.9167
-29.9519
-28.7665
-27.3345
-25.6292
-23.6225
-21.2872
-18.5906
-15.5004
-11.9879
-8.01155
-3.54006
1.43212
6.944
13.0369
19.7123
27.0179
34.9761
43.6213
53.006
63.1704
74.1517
86.0342
98.8607
112.724
127.705
143.911
161.454
180.466
201.082
223.476
247.852
274.448
303.547
335.433
370.422
408.866
451.211
497.854
549.122
604.864
664.042
724.173
777.912
803.352
764.636
589.541
181.38
-420.444
-1030.42
-1471.71
-25.1635
-26.0963
-26.9842
-27.8238
-28.6169
-29.3585
-30.0468
-30.6783
-31.2492
-31.7548
-32.1893
-32.5482
-32.8254
-33.0121
-33.1004
-33.0787
-32.9365
-32.6638
-32.2419
-31.6591
-30.8969
-29.9313
-28.745
-27.3119
-25.6055
-23.5977
-21.2613
-18.5633
-15.4717
-11.9577
-7.97981
-3.50662
1.46735
6.98118
13.0761
19.7538
27.0618
35.0226
43.6706
53.0582
63.2259
74.2108
86.097
98.9277
112.795
127.781
143.993
161.542
180.561
201.184
223.586
247.971
274.577
303.687
335.586
370.588
409.046
451.407
498.067
549.352
605.11
664.295
724.403
778.059
803.316
764.465
589.716
183.024
-415.255
-1023.18
-1464.21
-25.1515
-26.084
-26.9717
-27.811
-28.6038
-29.3451
-30.0331
-30.6642
-31.2347
-31.7399
-32.1739
-32.5323
-32.809
-32.9951
-33.0827
-33.0603
-32.9174
-32.6439
-32.2212
-31.6374
-30.8743
-29.9077
-28.7203
-27.2861
-25.5784
-23.5693
-21.2314
-18.532
-15.4388
-11.9231
-7.94336
-3.46824
1.5078
7.02387
13.1212
19.8014
27.1121
35.0759
43.727
53.1181
63.2894
74.2782
86.1688
99.004
112.877
127.868
144.086
161.642
180.668
201.299
223.71
248.105
274.722
303.844
335.756
370.773
409.247
451.625
498.304
549.605
605.382
664.568
724.647
778.204
803.261
764.3
589.989
185.137
-409.126
-1014.55
-1455.24
-16.1589
-17.4183
-18.6861
-19.8425
-21.002
-22.0863
-23.18
-24.1718
-25.1377
-26.07
-26.9574
-27.7964
-28.5889
-29.3299
-30.0174
-30.6481
-31.2182
-31.7228
-32.1563
-32.5141
-32.7902
-32.9756
-33.0625
-33.0393
-32.8956
-32.6212
-32.1975
-31.6127
-30.8485
-29.8807
-28.692
-27.2565
-25.5474
-23.5368
-21.1973
-18.4962
-15.4011
-11.8835
-7.90165
-3.4243
1.55411
7.07274
13.1728
19.8559
27.1697
35.1368
43.7914
53.1863
63.3617
74.355
86.2502
99.0906
112.969
127.966
144.191
161.754
180.788
201.428
223.85
248.255
274.884
304.02
335.947
370.979
409.471
451.868
498.566
549.885
605.68
664.864
724.902
778.343
803.187
764.147
590.331
187.752
-402.066
-1004.43
-1444.74
-16.1443
-17.4037
-18.6712
-19.8278
-20.9869
-22.0713
-23.1646
-24.1564
-25.122
-26.054
-26.9411
-27.7798
-28.572
-29.3125
-29.9996
-30.6298
-31.1994
-31.7035
-32.1363
-32.4934
-32.7688
-32.9534
-33.0395
-33.0154
-32.8707
-32.5953
-32.1705
-31.5845
-30.819
-29.8499
-28.6598
-27.2227
-25.5121
-23.4997
-21.1584
-18.4553
-15.3581
-11.8382
-7.85401
-3.37413
1.60698
7.1285
13.2316
19.918
27.2353
35.206
43.8647
53.2638
63.4437
74.4419
86.3424
99.1885
113.073
128.077
144.31
161.881
180.924
201.574
224.006
248.424
275.067
304.216
336.16
371.21
409.721
452.138
498.856
550.195
606.005
665.179
725.163
778.472
803.094
763.992
590.714
190.867
-394.097
-992.809
-1432.74
-16.1278
-17.3873
-18.6543
-19.811
-20.9698
-22.0544
-23.147
-24.1388
-25.1043
-26.0358
-26.9227
-27.761
-28.5527
-29.2928
-29.9794
-30.6091
-31.1781
-31.6814
-32.1136
-32.4699
-32.7445
-32.9282
-33.0133
-32.9881
-32.8424
-32.5658
-32.1397
-31.5524
-30.7855
-29.8148
-28.6231
-27.1843
-25.4717
-23.4574
-21.114
-18.4086
-15.309
-11.7866
-7.79971
-3.31695
1.66719
7.19197
13.2984
19.9885
27.3097
35.2846
43.9476
53.3516
63.5365
74.5403
86.4465
99.2991
113.19
128.203
144.443
162.024
181.077
201.738
224.183
248.614
275.272
304.438
336.4
371.469
410.002
452.441
499.176
550.54
606.356
665.511
725.428
778.587
802.978
763.811
591.163
194.438
-385.203
-979.666
-1419.23
-16.1091
-17.3685
-18.635
-19.792
-20.9505
-22.0351
-23.1271
-24.1189
-25.0841
-26.0153
-26.9017
-27.7396
-28.5309
-29.2704
-29.9564
-30.5855
-31.1538
-31.6564
-32.0878
-32.4433
-32.7168
-32.8995
-32.9835
-32.9572
-32.8102
-32.5322
-32.1047
-31.5159
-30.7473
-29.7748
-28.5812
-27.1404
-25.4258
-23.4092
-21.0634
-18.3554
-15.2532
-11.7279
-7.73792
-3.25192
1.73563
7.26406
13.3744
20.0686
27.3941
35.3737
44.0416
53.451
63.6413
74.6515
86.5641
99.4242
113.323
128.344
144.594
162.185
181.25
201.924
224.383
248.83
275.505
304.689
336.67
371.761
410.316
452.777
499.531
550.916
606.73
665.855
725.692
778.683
802.826
763.589
591.668
198.411
-375.347
-964.933
-1404.18
-16.0879
-17.3473
-18.6133
-19.7705
-20.9286
-22.0132
-23.1045
-24.0964
-25.0613
-25.992
-26.878
-27.7154
-28.5061
-29.245
-29.9304
-30.5588
-31.1263
-31.628
-32.0584
-32.4129
-32.6854
-32.8669
-32.9497
-32.922
-32.7736
-32.494
-32.0649
-31.4743
-30.7038
-29.7294
-28.5336
-27.0906
-25.3735
-23.3543
-21.0058
-18.295
-15.1897
-11.6611
-7.6677
-3.17805
1.81332
7.34586
13.4605
20.1593
27.4898
35.4745
44.148
53.5635
63.76
74.7775
86.6974
99.5659
113.474
128.505
144.766
162.369
181.447
202.136
224.611
249.076
275.769
304.974
336.976
372.089
410.668
453.151
499.924
551.321
607.124
666.214
725.957
778.753
802.619
763.316
592.191
202.785
-364.497
-948.519
-1387.42
-16.064
-17.3231
-18.5887
-19.7462
-20.9039
-21.9884
-23.079
-24.0709
-25.0353
-25.9656
-26.851
-27.688
-28.478
-29.2162
-29.9009
-30.5284
-31.095
-31.5958
-32.0251
-32.3785
-32.6497
-32.8299
-32.9112
-32.8821
-32.732
-32.4506
-32.0196
-31.427
-30.6543
-29.6777
-28.4795
-27.0338
-25.314
-23.2919
-20.9403
-18.2262
-15.1175
-11.5852
-7.58795
-3.09421
1.90149
7.43867
13.5582
20.2622
27.5982
35.5889
44.2687
53.6912
63.8949
74.9207
86.8491
99.7274
113.646
128.688
144.962
162.58
181.673
202.379
224.872
249.356
276.07
305.295
337.319
372.457
411.06
453.562
500.351
551.752
607.543
666.589
726.219
778.791
802.344
762.969
592.72
207.599
-352.593
-930.346
-1368.79
-16.0367
-17.2957
-18.5608
-19.7186
-20.876
-21.9601
-23.0501
-24.042
-25.0058
-25.9357
-26.8205
-27.6568
-28.4461
-29.1836
-29.8673
-30.494
-31.0595
-31.5591
-31.9873
-32.3394
-32.6092
-32.7879
-32.8675
-32.8366
-32.6846
-32.4012
-31.9681
-31.3732
-30.5981
-29.6188
-28.4178
-26.9693
-25.2463
-23.221
-20.8659
-18.1481
-15.0355
-11.499
-7.49738
-2.99899
2.00162
7.54407
13.6691
20.3792
27.7215
35.719
44.4061
53.8367
64.0487
75.084
87.0226
99.912
113.843
128.899
145.187
162.821
181.932
202.656
225.169
249.675
276.41
305.657
337.703
372.867
411.494
454.012
500.813
552.217
607.993
666.984
726.479
778.794
801.995
762.523
593.245
212.879
-339.484
-910.347
-1348.2
-16.0057
-17.2646
-18.5294
-19.6872
-20.8444
-21.9279
-23.0174
-24.0092
-24.9724
-25.9019
-26.7858
-27.6215
-28.4099
-29.1465
-29.8293
-30.4549
-31.0192
-31.5176
-31.9443
-32.295
-32.5631
-32.7401
-32.8178
-32.785
-32.6308
-32.3451
-31.9095
-31.312
-30.5341
-29.5519
-28.3478
-26.8959
-25.1694
-23.1403
-20.7813
-18.0593
-14.9422
-11.4011
-7.39442
-2.89072
2.11551
7.664
13.7955
20.5123
27.8621
35.8675
44.563
54.003
64.2249
75.2713
87.2217
100.124
114.069
129.141
145.447
163.099
182.229
202.974
225.509
250.036
276.793
306.061
338.132
373.323
411.971
454.503
501.314
552.722
608.48
667.4
726.736
778.757
801.561
761.962
593.753
218.639
-325.06
-888.406
-1325.53
-15.9705
-17.2294
-18.4938
-19.6517
-20.8087
-21.8914
-22.9803
-23.972
-24.9345
-25.8635
-26.7464
-27.5815
-28.3687
-29.1044
-29.786
-30.4105
-30.9733
-31.4703
-31.8955
-32.2445
-32.5106
-32.6857
-32.7613
-32.7262
-32.5695
-32.2812
-31.8428
-31.2424
-30.4613
-29.4758
-28.2681
-26.8125
-25.0819
-23.0486
-20.685
-17.9583
-14.8361
-11.2896
-7.2772
-2.76737
2.24532
7.80079
13.9397
20.6645
28.0228
36.0375
44.743
54.1939
64.4275
75.4868
87.4511
100.369
114.331
129.421
145.745
163.418
182.569
203.336
225.894
250.443
277.222
306.512
338.608
373.827
412.495
455.039
501.865
553.275
609.006
667.837
726.988
778.673
801.022
761.27
594.211
224.886
-309.323
-864.361
-1300.59
-15.9305
-17.1896
-18.4535
-19.6113
-20.7681
-21.85
-22.9383
-23.9298
-24.8914
-25.8199
-26.7017
-27.5359
-28.322
-29.0567
-29.7369
-30.36
-30.9212
-31.4166
-31.8399
-32.187
-32.451
-32.6239
-32.697
-32.6593
-32.4998
-32.2086
-31.767
-31.1633
-30.3785
-29.3892
-28.1774
-26.7175
-24.9823
-22.9442
-20.5755
-17.8432
-14.7152
-11.1625
-7.14348
-2.62657
2.39363
7.95722
14.1048
20.8389
28.2073
36.2328
44.9502
54.4139
64.6613
75.7359
87.7166
100.652
114.633
129.743
146.089
163.783
182.957
203.747
226.327
250.898
277.698
307.013
339.136
374.382
413.071
455.63
502.471
553.88
609.571
668.297
727.233
778.53
800.353
760.43
594.584
231.62
-292.261
-838.115
-1273.15
-1541.33
-15.8851
-17.1446
-18.4078
-19.5656
-20.7221
-21.803
-22.8907
-23.8818
-24.8426
-25.7705
-26.6509
-27.4842
-28.269
-29.0024
-29.6811
-30.3027
-30.862
-31.3555
-31.7768
-32.1217
-32.3832
-32.5535
-32.6238
-32.5833
-32.4206
-32.1259
-31.6807
-31.0732
-30.2842
-29.2906
-28.0741
-26.6094
-24.8688
-22.8252
-20.4506
-17.712
-14.5772
-11.0173
-6.99057
-2.46539
2.56358
8.1367
14.2944
21.0396
28.42
36.4584
45.1897
54.6687
64.9323
76.0249
88.0247
100.981
114.983
130.115
146.482
164.2
183.396
204.209
226.811
251.404
278.229
307.57
339.722
374.994
413.706
456.282
503.137
554.539
610.176
668.777
727.461
778.306
799.522
759.415
594.843
238.846
-273.816
-809.643
-1242.97
-1513.69
-15.8335
-17.0936
-18.3558
-19.5136
-20.6698
-21.7496
-22.8366
-23.8274
-24.7872
-25.7142
-26.5932
-27.4254
-28.2087
-28.9407
-29.6177
-30.2375
-30.7946
-31.2861
-31.705
-32.0474
-32.3061
-32.4735
-32.5406
-32.4967
-32.3303
-32.0318
-31.5824
-30.9705
-30.1768
-29.1782
-27.9564
-26.486
-24.7394
-22.6893
-20.3078
-17.5619
-14.4193
-10.8509
-6.81518
-2.28028
2.75905
8.34342
14.5133
21.2716
28.6662
36.7199
45.4679
54.965
65.2477
76.3613
88.3825
101.362
115.385
130.54
146.93
164.67
183.888
204.724
227.348
251.966
278.818
308.189
340.37
375.669
414.406
457
503.867
555.252
610.822
669.272
727.66
777.975
798.494
758.178
594.94
246.556
-253.955
-778.914
-1210.04
-1483.13
-14.4678
-15.7749
-17.0359
-18.2968
-19.4547
-20.6103
-21.6892
-22.7752
-23.7655
-24.7242
-25.6503
-26.5277
-27.3587
-28.1402
-28.8705
-29.5456
-30.1633
-30.7181
-31.2071
-31.6233
-31.9628
-32.2183
-32.3824
-32.4459
-32.3981
-32.2275
-31.9245
-31.4704
-30.8535
-30.0543
-29.05
-27.822
-26.345
-24.5913
-22.5338
-20.1443
-17.3898
-14.2379
-10.6597
-6.61327
-2.06684
2.9848
8.58264
14.767
21.5411
28.9527
37.0247
45.7924
55.3106
65.6151
76.7524
88.7965
101.799
115.845
131.022
147.434
165.197
184.437
205.296
227.945
252.59
279.473
308.876
341.087
376.414
415.177
457.789
504.662
556.021
611.506
669.774
727.809
777.505
797.221
756.685
594.813
254.713
-232.723
-745.905
-1174.27
-1449.57
-14.403
-15.7086
-16.9705
-18.2298
-19.3879
-20.5427
-21.6207
-22.7054
-23.6952
-24.6528
-25.5777
-26.4533
-27.2827
-28.0623
-28.7907
-29.4636
-30.0789
-30.6309
-31.1172
-31.5303
-31.8665
-32.1183
-32.2786
-32.3379
-32.2857
-32.1103
-31.8021
-31.3426
-30.7198
-29.9143
-28.9033
-27.6682
-26.1836
-24.4216
-22.3554
-19.9565
-17.1918
-14.029
-10.439
-6.37983
-1.81962
3.2468
8.86083
15.0628
21.8557
29.2875
37.3809
46.1715
55.7136
66.042
77.204
89.2707
102.296
116.363
131.563
147.997
165.785
185.048
205.932
228.608
253.283
280.2
309.637
341.879
377.235
416.025
458.652
505.525
556.846
612.222
670.27
727.883
776.855
795.652
754.95
594.415
263.267
-210.161
-710.635
-1135.66
-1412.82
-14.3294
-15.6334
-16.8964
-18.1536
-19.3121
-20.4658
-21.5431
-22.6261
-23.6153
-24.5716
-25.495
-26.3687
-27.1964
-27.9738
-28.7
-29.3703
-29.9828
-30.5318
-31.0148
-31.4243
-31.7568
-32.0044
-32.1603
-32.2147
-32.1574
-31.9764
-31.6623
-31.1965
-30.5669
-29.754
-28.7353
-27.4918
-25.9982
-24.2266
-22.15
-19.7399
-16.9632
-13.7872
-10.1831
-6.10867
-1.53189
3.55238
9.18597
15.4089
22.2242
29.6796
37.7974
46.6133
56.1805
66.5331
77.7192
89.8074
102.854
116.944
132.167
148.625
166.438
185.727
206.639
229.345
254.052
281.005
310.478
342.754
378.138
416.952
459.593
506.456
557.722
612.962
670.739
727.85
775.978
793.736
752.899
593.765
272.162
-186.365
-673.242
-1094.22
-1372.72
-14.2457
-15.5483
-16.8123
-18.0671
-19.2261
-20.3783
-21.455
-22.536
-23.5244
-24.4794
-25.401
-26.2725
-27.0981
-27.873
-28.5967
-29.264
-29.8734
-30.4188
-30.8981
-31.3036
-31.6316
-31.8744
-32.0252
-32.074
-32.0107
-31.8233
-31.5023
-31.0291
-30.3916
-29.5701
-28.5423
-27.2889
-25.7848
-24.0016
-21.9127
-19.4893
-16.698
-13.5062
-9.88507
-5.79224
-1.19544
3.9104
9.56737
15.815
22.6558
30.1373
38.2811
47.1227
56.7145
67.0901
78.2992
90.4089
103.479
117.591
132.84
149.324
167.165
186.481
207.423
230.161
254.905
281.896
311.405
343.715
379.127
417.964
460.613
507.453
558.643
613.71
671.157
727.67
774.822
791.408
750.277
592.878
281.301
-161.473
-633.855
-1049.97
-1329.14
-14.1505
-15.4518
-16.7169
-17.9689
-19.1284
-20.2788
-21.3551
-22.4336
-23.4211
-24.3746
-25.2941
-26.1632
-26.9864
-27.7584
-28.479
-29.143
-29.7487
-30.29
-30.765
-31.1657
-31.4887
-31.7258
-31.8707
-31.9131
-31.8429
-31.648
-31.3189
-30.8371
-30.1903
-29.3586
-28.3201
-27.055
-25.5382
-23.7413
-21.6376
-19.198
-16.3892
-13.1782
-9.53649
-5.42137
-0.800403
4.33104
10.0149
16.2899
23.1579
30.6649
38.8331
47.7003
57.3165
67.7151
78.9476
91.08
104.174
118.312
133.588
150.102
167.971
187.318
208.291
231.066
255.847
282.878
312.425
344.769
380.207
419.062
461.712
508.514
559.599
614.448
671.493
727.3
773.322
788.577
746.864
591.673
290.554
-135.665
-592.662
-1002.74
-1282.06
-14.0425
-15.3424
-16.6085
-17.8573
-19.0174
-20.1658
-21.2417
-22.3172
-23.3037
-24.2553
-25.1724
-26.0387
-26.8591
-27.6279
-28.345
-29.0051
-29.6065
-30.1431
-30.6131
-31.0084
-31.3254
-31.5561
-31.6941
-31.7289
-31.6505
-31.4469
-31.1084
-30.6164
-29.9585
-29.1148
-28.0635
-26.7844
-25.2524
-23.4389
-21.3172
-18.858
-16.0278
-12.7936
-9.12711
-4.98583
-0.337471
4.82193
10.5342
16.8351
23.7302
31.2625
39.4556
48.3491
57.9897
68.413
79.6708
91.8276
104.948
119.114
134.42
150.964
168.864
188.244
209.252
232.064
256.886
283.958
313.544
345.92
381.383
420.248
462.886
509.63
560.574
615.151
671.709
726.681
771.396
785.134
742.639
590.037
299.814
-109.152
-549.93
-952.353
-1231.78
-13.9197
-15.2186
-16.4855
-17.7306
-18.8914
-20.0372
-21.1129
-22.1849
-23.1701
-24.1197
-25.0339
-25.8971
-26.7141
-27.4791
-28.1922
-28.8478
-29.4442
-29.9755
-30.4396
-30.8285
-31.1386
-31.3618
-31.4917
-31.5177
-31.4298
-31.2159
-30.8661
-30.3621
-29.6911
-28.8329
-27.7662
-26.4702
-24.9198
-23.0861
-20.9428
-18.4602
-15.6048
-12.3443
-8.65046
-4.48067
0.19713
5.38398
11.1253
17.4522
24.3739
31.9337
40.1542
49.0745
58.7408
69.1907
80.4754
92.6588
105.808
120.004
135.34
151.917
169.851
189.267
210.311
233.164
258.027
285.142
314.766
347.173
382.653
421.521
464.13
510.789
561.548
615.787
671.755
725.737
768.94
780.968
737.6
587.813
308.881
-82.1981
-506.021
-899.098
-1178.76
-13.7802
-15.0782
-16.3456
-17.5867
-18.7483
-19.891
-20.9666
-22.0344
-23.018
-23.9655
-24.8762
-25.7359
-26.549
-27.3097
-28.0181
-28.6684
-29.259
-29.784
-30.2414
-30.6229
-30.9249
-31.1392
-31.2597
-31.2753
-31.1761
-30.95
-30.5869
-30.0684
-29.3817
-28.5064
-27.4213
-26.1052
-24.533
-22.6759
-20.5079
-17.9988
-15.1156
-11.8268
-8.10394
-3.90254
0.803236
6.01876
11.7912
18.1463
25.0964
32.6848
40.9333
49.8828
59.5772
70.0548
81.3684
93.5804
106.76
120.988
136.358
152.97
170.939
190.393
211.476
234.372
259.279
286.436
316.096
348.528
384.019
422.876
465.435
511.975
562.496
616.313
671.566
724.375
765.841
775.973
731.653
584.597
317.286
-55.2171
-461.036
-843.48
-1123.04
-13.6217
-14.9192
-16.1866
-17.4235
-18.5857
-19.7249
-20.8003
-21.8633
-22.8451
-23.7899
-24.6966
-25.5523
-26.3609
-27.1166
-27.8194
-28.4637
-29.0476
-29.5653
-30.0147
-30.3876
-30.6801
-30.8842
-30.9935
-30.9969
-30.8845
-30.6441
-30.2653
-29.7299
-29.0248
-28.1295
-27.0231
-25.684
-24.0871
-22.2039
-20.0085
-17.4704
-14.5575
-11.2382
-7.48388
-3.25018
1.48518
6.73325
12.5375
18.9227
25.9039
33.5221
41.801
50.7813
60.5053
71.0128
82.3569
94.5998
107.812
122.074
137.48
154.13
172.136
191.63
212.755
235.695
260.647
287.845
317.536
349.986
385.477
424.307
466.789
513.165
563.38
616.67
671.056
722.487
761.983
770.037
724.649
580.337
324.971
-28.484
-415.5
-785.901
-1064.07
-13.4417
-14.739
-16.0059
-17.2383
-18.4011
-19.5361
-20.6112
-21.6689
-22.6486
-23.5901
-24.4922
-25.3433
-26.1466
-26.8965
-27.5929
-28.2302
-28.8063
-29.3157
-29.7558
-30.1187
-30.4003
-30.5925
-30.6888
-30.6781
-30.5503
-30.2934
-29.8966
-29.342
-28.6158
-27.698
-26.5676
-25.2027
-23.5785
-21.6665
-19.4409
-16.8715
-13.9261
-10.5738
-6.78535
-2.51829
2.25154
7.53286
13.3707
19.7892
26.8024
34.4534
42.7645
51.7769
61.5324
72.0721
83.4486
95.7246
108.972
123.27
138.714
155.403
173.451
192.986
214.155
237.14
262.136
289.371
319.087
351.545
387.021
425.801
468.172
514.327
564.147
616.783
670.126
719.959
757.247
763.01
716.377
576.572
333.381
-2.05522
-371.177
-728.431
-1003.25
-13.2376
-14.5346
-15.8008
-17.0285
-18.1915
-19.3221
-20.3963
-21.4482
-22.4252
-23.363
-24.2599
-25.1057
-25.9028
-26.6461
-27.3352
-27.9644
-28.5315
-29.0313
-29.4608
-29.8123
-30.0813
-30.2599
-30.3414
-30.3146
-30.1694
-29.8938
-29.4766
-28.9001
-28.1504
-27.2073
-26.05
-24.6566
-23.002
-21.0582
-18.7994
-16.1956
-13.2149
-9.82653
-6.00126
-1.69797
3.10734
8.42574
14.2993
20.7523
27.8008
35.4857
43.8306
52.8773
62.6669
73.2404
84.6514
96.9629
110.247
124.585
140.069
156.8
174.89
194.469
215.683
238.712
263.749
291.015
320.747
353.199
388.642
427.344
469.555
515.412
564.727
616.561
668.672
716.671
751.492
754.713
706.753
574.051
343.029
24.0477
-328.857
-673.689
-944.873
-13.0065
-14.3031
-15.5683
-16.7911
-17.9537
-19.0796
-20.1525
-21.198
-22.1718
-23.1052
-23.9961
-24.8359
-25.626
-26.3618
-27.0424
-27.6624
-28.2193
-28.7082
-29.1256
-29.4641
-29.7188
-29.882
-29.9467
-29.9017
-29.7368
-29.44
-28.9998
-28.3988
-27.6227
-26.6513
-25.4641
-24.0389
-22.3507
-20.3719
-18.0767
-15.4354
-12.4163
-8.98894
-5.12394
-0.781806
4.06159
9.41927
15.3309
21.8206
28.9061
36.6268
45.008
54.0909
63.9166
74.5259
85.9737
98.3231
111.647
126.026
141.552
158.327
176.461
196.086
217.345
240.415
265.487
292.775
322.511
354.942
390.325
428.908
470.894
516.358
565.038
615.906
666.576
712.482
744.543
744.992
695.942
-12.7453
-14.0414
-15.3049
-16.5226
-17.684
-18.8052
-19.876
-20.9146
-21.8847
-22.813
-23.6971
-24.53
-25.3121
-26.0393
-26.7103
-27.3199
-27.8652
-28.3416
-28.7454
-29.0691
-29.3077
-29.4535
-29.4992
-29.4336
-29.2465
-28.926
-28.46
-27.8315
-27.0259
-26.023
-24.8025
-23.3421
-21.6169
-19.5999
-17.265
-14.5828
-11.5222
-8.05292
-4.14534
0.238306
5.12235
10.5217
16.4736
23.0022
30.1268
37.8853
46.3052
55.4263
65.2898
75.9374
87.4245
99.8141
113.179
127.601
143.173
159.993
178.173
197.842
219.144
242.25
267.348
294.647
324.37
356.757
392.046
430.454
472.13
517.085
564.985
614.708
663.705
707.215
736.198
733.731
683.79
-12.4505
-13.7458
-15.0067
-16.2195
-17.3788
-18.495
-19.563
-20.594
-21.5597
-22.4821
-23.3586
-24.1835
-24.9566
-25.674
-26.3341
-26.9319
-27.4642
-27.9265
-28.3147
-28.6218
-28.8422
-28.9683
-28.9925
-28.9039
-28.6919
-28.3446
-27.8498
-27.1907
-26.3522
-25.3145
-24.0573
-22.5581
-20.7924
-18.7335
-16.3555
-13.6294
-10.5241
-7.00989
-3.05688
1.371
6.29831
11.7416
17.7359
24.3056
31.4714
39.2702
47.7307
56.8921
66.7955
77.4838
89.0123
101.444
114.853
129.32
144.938
161.804
180.031
199.742
221.081
244.214
269.326
296.62
326.31
358.621
393.767
431.925
473.189
517.504
564.465
612.841
659.89
700.663
726.273
720.831
670.098
-12.1181
-13.4123
-14.6695
-15.8776
-17.0338
-18.1446