/*--------------------------------*- C++ -*----------------------------------*\
| =========                 |                                                 |
| \\      /  F ield         | OpenFOAM: The Open Source CFD Toolbox           |
|  \\    /   O peration     | Version:  2412                                  |
|   \\  /    A nd           | Website:  www.openfoam.com                      |
|    \\/     M anipulation  |                                                 |
\*---------------------------------------------------------------------------*/
FoamFile
{
    version     2.0;
    format      ascii;
    arch        "LSB;label=32;scalar=64";
    class       surfaceScalarField;
    location    "20";
    object      phi;
}
// * * * * * * * * * * * * * * * * * * * * * * * * * * * * * * * * * * * * * //

dimensions      [0 3 -1 0 0 0 0];

oriented        oriented;

internalField   nonuniform List<scalar> 
17078
(
-2.19394e-05
7.48077e-10
-2.19401e-05
5.56268e-10
-2.19423e-05
2.04934e-09
-2.19436e-05
1.3233e-09
-2.19457e-05
2.03605e-09
-2.1947e-05
1.24748e-09
-2.19489e-05
1.92978e-09
-2.19509e-05
1.88221e-09
-2.19518e-05
9.08225e-10
-2.19539e-05
2.06008e-09
-2.19564e-05
2.43706e-09
-2.19596e-05
3.1566e-09
-2.19615e-05
1.81618e-09
-2.19629e-05
1.42405e-09
-2.19661e-05
3.13713e-09
-2.19686e-05
2.48683e-09
-2.19714e-05
2.74353e-09
-2.19734e-05
1.87086e-09
-2.19765e-05
3.1545e-09
-2.19794e-05
2.73814e-09
-2.19828e-05
3.51586e-09
-2.19857e-05
2.76591e-09
-2.19882e-05
2.51978e-09
-2.19914e-05
3.01285e-09
-2.19949e-05
3.52563e-09
-2.19985e-05
3.39409e-09
-2.20022e-05
3.78388e-09
-2.20054e-05
3.0423e-09
-2.20088e-05
3.51158e-09
-2.20123e-05
3.33982e-09
-2.20159e-05
3.6813e-09
-2.20194e-05
3.31181e-09
-2.2024e-05
4.73367e-09
-2.20274e-05
3.23058e-09
-2.20318e-05
4.48753e-09
-2.20354e-05
3.48089e-09
-2.2039e-05
3.6895e-09
-2.2043e-05
3.80167e-09
-2.20468e-05
3.89777e-09
-2.20508e-05
3.90007e-09
-2.2055e-05
4.31902e-09
-2.20583e-05
3.1507e-09
-2.2062e-05
3.71119e-09
-2.20655e-05
3.3677e-09
-2.20695e-05
4.1972e-09
-2.20726e-05
3.00587e-09
-2.20759e-05
3.36621e-09
-2.20795e-05
3.48496e-09
-2.20818e-05
2.31708e-09
-2.20841e-05
2.25822e-09
-2.20866e-05
2.54302e-09
-2.20883e-05
1.66686e-09
-2.20905e-05
2.20698e-09
-2.20911e-05
6.26286e-10
-2.20914e-05
2.74796e-10
-2.20914e-05
-2.75932e-11
-2.20901e-05
-1.29495e-09
-2.20879e-05
-2.31315e-09
-2.20837e-05
-4.12823e-09
-2.20786e-05
-5.20834e-09
-2.20713e-05
-7.28974e-09
-2.20619e-05
-9.38393e-09
-2.20503e-05
-1.16148e-08
-2.2037e-05
-1.33349e-08
-2.20211e-05
-1.58934e-08
-2.20028e-05
-1.82887e-08
-2.19806e-05
-2.2219e-08
-2.19561e-05
-2.45022e-08
-2.19281e-05
-2.79875e-08
-2.18954e-05
-3.2753e-08
-2.18591e-05
-3.6226e-08
-2.18177e-05
-4.14217e-08
-2.17705e-05
-4.72016e-08
-2.17182e-05
-5.23728e-08
-2.16576e-05
-6.05289e-08
-2.15907e-05
-6.69667e-08
-2.15148e-05
-7.58649e-08
-2.14276e-05
-8.72365e-08
-2.13287e-05
-9.89457e-08
-2.12152e-05
-1.13455e-07
-2.10843e-05
-1.30953e-07
-2.09322e-05
-1.52072e-07
-2.07542e-05
-1.78007e-07
-2.05434e-05
-2.10762e-07
-2.02909e-05
-2.52582e-07
-1.99894e-05
-3.01428e-07
-1.96157e-05
-3.73761e-07
-4.73869e-07
-7.03354e-05
2.89387e-09
-7.03372e-05
2.22146e-09
-7.03409e-05
5.49699e-09
-7.03428e-05
3.24353e-09
-7.03452e-05
4.28437e-09
-7.03482e-05
4.27099e-09
-7.0353e-05
6.63942e-09
-7.03551e-05
3.91067e-09
-7.03599e-05
5.63931e-09
-7.03641e-05
6.27125e-09
-7.03688e-05
7.00902e-09
-7.03728e-05
7.09237e-09
-7.03777e-05
6.70075e-09
-7.03835e-05
7.17127e-09
-7.03865e-05
6.06097e-09
-7.03922e-05
8.09701e-09
-7.03966e-05
7.07988e-09
-7.04043e-05
9.38246e-09
-7.04082e-05
7.15844e-09
-7.0414e-05
8.29284e-09
-7.04199e-05
9.56771e-09
-7.04257e-05
8.38961e-09
-7.0433e-05
9.7308e-09
-7.0437e-05
6.81453e-09
-7.04439e-05
1.04973e-08
-7.04501e-05
9.39588e-09
-7.04565e-05
1.02664e-08
-7.04632e-05
9.46229e-09
-7.04699e-05
1.0337e-08
-7.04769e-05
1.02342e-08
-7.04832e-05
9.95855e-09
-7.0491e-05
1.08965e-08
-7.04946e-05
8.45587e-09
-7.0503e-05
1.14782e-08
-7.05098e-05
1.13909e-08
-7.05153e-05
8.869e-09
-7.05247e-05
1.30675e-08
-7.05277e-05
6.66962e-09
-7.05341e-05
1.03778e-08
-7.05402e-05
9.80482e-09
-7.05443e-05
8.59862e-09
-7.05496e-05
8.21854e-09
-7.05542e-05
8.35708e-09
-7.05587e-05
7.72971e-09
-7.05608e-05
6.43951e-09
-7.05638e-05
5.93955e-09
-7.0564e-05
3.69445e-09
-7.05655e-05
4.79689e-09
-7.0565e-05
1.88835e-09
-7.0563e-05
2.40471e-10
-7.05595e-05
-9.66304e-10
-7.05559e-05
-1.99565e-09
-7.05478e-05
-5.82165e-09
-7.05411e-05
-6.18348e-09
-7.05314e-05
-9.32233e-09
-7.05181e-05
-1.34146e-08
-7.05032e-05
-1.62378e-08
-7.04844e-05
-2.11234e-08
-7.04587e-05
-2.98755e-08
-7.04281e-05
-3.58633e-08
-7.03922e-05
-4.31652e-08
-7.03504e-05
-5.12594e-08
-7.03023e-05
-5.96375e-08
-7.02454e-05
-7.03406e-08
-7.01828e-05
-7.84666e-08
-7.01097e-05
-9.14314e-08
-7.00289e-05
-1.02971e-07
-6.99364e-05
-1.17135e-07
-6.98334e-05
-1.30916e-07
-6.97192e-05
-1.47012e-07
-6.95892e-05
-1.66181e-07
-6.94446e-05
-1.86032e-07
-6.92835e-05
-2.08264e-07
-6.91026e-05
-2.33256e-07
-6.89009e-05
-2.62269e-07
-6.86717e-05
-2.96226e-07
-6.84142e-05
-3.33394e-07
-6.81246e-05
-3.76796e-07
-6.77962e-05
-4.27384e-07
-6.74202e-05
-4.89443e-07
-6.6989e-05
-5.62192e-07
-6.64902e-05
-6.50818e-07
-6.59118e-05
-7.56465e-07
-6.5226e-05
-8.96482e-07
-6.44099e-05
-1.06873e-06
-6.34362e-05
-1.27511e-06
-6.22316e-05
-1.57842e-06
-1.99624e-06
-0.000124374
3.13855e-09
-0.000124376
4.83144e-09
-0.000124374
3.35505e-09
-0.000124377
5.64149e-09
-0.000124379
6.15668e-09
-0.000124381
6.82136e-09
-0.000124381
5.7513e-09
-0.000124385
8.0047e-09
-0.000124386
6.95886e-09
-0.000124388
8.36973e-09
-0.000124392
1.0357e-08
-0.000124395
1.03217e-08
-0.000124396
7.91928e-09
-0.0001244
1.08208e-08
-0.000124406
1.18733e-08
-0.000124409
1.10568e-08
-0.000124411
9.2525e-09
-0.000124415
1.26317e-08
-0.00012442
1.26772e-08
-0.000124424
1.22187e-08
-0.000124428
1.40476e-08
-0.000124433
1.2435e-08
-0.000124433
1.03932e-08
-0.00012444
1.33757e-08
-0.000124444
1.40247e-08
-0.000124448
1.30783e-08
-0.000124448
1.09045e-08
-0.000124454
1.53714e-08
-0.000124457
1.33232e-08
-0.000124458
1.1287e-08
-0.000124461
1.3172e-08
-0.000124463
1.26568e-08
-0.000124468
1.25788e-08
-0.000124468
1.22215e-08
-0.00012447
1.29516e-08
-0.000124471
9.80156e-09
-0.000124467
9.34627e-09
-0.000124469
8.1334e-09
-0.000124467
9.02072e-09
-0.000124465
6.85807e-09
-0.000124462
5.62401e-09
-0.000124456
2.32252e-09
-0.000124448
6.70515e-10
-0.000124439
-1.10366e-09
-0.000124432
-5.41621e-10
-0.00012442
-6.03107e-09
-0.000124408
-8.5741e-09
-0.000124392
-1.15929e-08
-0.000124375
-1.50943e-08
-0.000124352
-2.2393e-08
-0.000124331
-2.2177e-08
-0.000124302
-3.11575e-08
-0.000124274
-3.39689e-08
-0.000124237
-4.31302e-08
-0.000124198
-4.77722e-08
-0.000124156
-5.52965e-08
-0.000124106
-6.6375e-08
-0.000124047
-8.08858e-08
-0.000123983
-9.3609e-08
-0.000123909
-1.10052e-07
-0.000123824
-1.28095e-07
-0.000123727
-1.48387e-07
-0.000123618
-1.68079e-07
-0.0001235
-1.8914e-07
-0.000123363
-2.14606e-07
-0.000123214
-2.40967e-07
-0.000123048
-2.69258e-07
-0.000122866
-2.98798e-07
-0.000122663
-3.3423e-07
-0.000122435
-3.74573e-07
-0.000122187
-4.13935e-07
-0.00012191
-4.63481e-07
-0.0001216
-5.17892e-07
-0.000121261
-5.72878e-07
-0.000120879
-6.43634e-07
-0.000120458
-7.17283e-07
-0.000119985
-8.07035e-07
-0.000119451
-9.10067e-07
-0.00011885
-1.02863e-06
-0.000118166
-1.1735e-06
-0.000117387
-1.34166e-06
-0.00011649
-1.54746e-06
-0.000115446
-1.79991e-06
-0.000114223
-2.12042e-06
-0.000112764
-2.52721e-06
-0.000111036
-3.0036e-06
-0.000108902
-3.7116e-06
-4.69123e-06
-0.000179125
2.8174e-10
-0.000179117
-3.12472e-09
-0.000179115
1.56151e-09
-0.000179115
5.55557e-09
-0.000179109
-2.70804e-10
-0.00017911
7.18601e-09
-0.000179105
1.24085e-09
-0.0001791
3.15749e-09
-0.000179099
5.46038e-09
-0.000179098
7.75697e-09
-0.000179095
6.98638e-09
-0.000179092
7.38152e-09
-0.000179091
6.19985e-09
-0.000179088
8.63514e-09
-0.000179084
7.40159e-09
-0.000179083
9.72745e-09
-0.00017908
6.8781e-09
-0.000179076
7.48259e-09
-0.000179072
9.64877e-09
-0.000179072
1.17338e-08
-0.000179065
7.03403e-09
-0.00017906
6.87033e-09
-0.000179059
1.00989e-08
-0.000179055
8.61187e-09
-0.000179048
7.40688e-09
-0.000179041
5.7582e-09
-0.000179037
6.94201e-09
-0.000179029
6.64711e-09
-0.000179025
9.88579e-09
-0.000179014
-3.98265e-10
-0.000179007
6.78866e-09
-0.000178994
-5.34167e-10
-0.000178984
2.07882e-09
-0.000178973
1.4172e-09
-0.000178958
-2.00602e-09
-0.000178942
-5.8127e-09
-0.000178926
-6.70088e-09
-0.000178907
-1.18862e-08
-0.000178887
-1.09179e-08
-0.000178864
-1.58118e-08
-0.000178841
-1.71441e-08
-0.000178816
-2.3289e-08
-0.000178786
-2.90516e-08
-0.000178755
-3.19843e-08
-0.000178717
-3.84505e-08
-0.000178679
-4.44756e-08
-0.000178637
-5.07789e-08
-0.000178591
-5.71435e-08
-0.000178539
-6.73391e-08
-0.000178485
-7.61302e-08
-0.000178424
-8.36032e-08
-0.00017836
-9.51812e-08
-0.000178289
-1.04571e-07
-0.000178211
-1.20932e-07
-0.000178125
-1.3391e-07
-0.000178032
-1.48561e-07
-0.00017793
-1.68379e-07
-0.000177817
-1.94146e-07
-0.00017769
-2.20595e-07
-0.000177549
-2.51287e-07
-0.000177394
-2.82974e-07
-0.000177226
-3.16745e-07
-0.000177037
-3.56097e-07
-0.000176832
-3.94659e-07
-0.00017661
-4.36758e-07
-0.000176364
-4.8711e-07
-0.000176093
-5.40371e-07
-0.000175796
-5.95448e-07
-0.00017547
-6.5989e-07
-0.000175116
-7.29038e-07
-0.000174728
-8.02288e-07
-0.000174297
-8.93545e-07
-0.000173826
-9.88996e-07
-0.000173304
-1.09547e-06
-0.000172732
-1.21558e-06
-0.000172093
-1.35659e-06
-0.00017138
-1.51973e-06
-0.000170586
-1.70386e-06
-0.000169691
-1.92425e-06
-0.000168685
-2.17934e-06
-0.000167535
-2.49171e-06
-0.000166216
-2.86569e-06
-0.000164698
-3.31854e-06
-0.000162913
-3.90511e-06
-0.000160798
-4.64248e-06
-0.000158301
-5.49994e-06
-0.000155225
-6.78777e-06
-8.5675e-06
-0.000231913
-9.86809e-09
-0.000231903
-1.29909e-08
-0.000231895
-6.6441e-09
-0.000231888
-1.15075e-09
-0.000231879
-9.94216e-09
-0.000231862
-9.47877e-09
-0.000231857
-3.47371e-09
-0.000231851
-2.99577e-09
-0.000231841
-4.59306e-09
-0.000231827
-6.80404e-09
-0.000231818
-2.04531e-09
-0.00023181
-4.33402e-10
-0.000231796
-7.79748e-09
-0.000231787
-2.89886e-10
-0.000231774
-5.81009e-09
-0.000231764
-1.01336e-09
-0.000231746
-1.06848e-08
-0.000231736
-2.49059e-09
-0.000231724
-2.69585e-09
-0.000231708
-4.39303e-09
-0.000231695
-6.16713e-09
-0.000231678
-9.81462e-09
-0.000231659
-9.11942e-09
-0.000231641
-9.78513e-09
-0.000231622
-1.19118e-08
-0.000231605
-1.11312e-08
-0.000231586
-1.21384e-08
-0.000231561
-1.8234e-08
-0.000231533
-1.7804e-08
-0.000231513
-2.1319e-08
-0.000231481
-2.45635e-08
-0.000231455
-2.71125e-08
-0.000231423
-2.95613e-08
-0.000231391
-3.12967e-08
-0.000231355
-3.70564e-08
-0.000231318
-4.30682e-08
-0.000231279
-4.61819e-08
-0.000231236
-5.46746e-08
-0.00023119
-5.72989e-08
-0.000231139
-6.71168e-08
-0.000231086
-6.97609e-08
-0.000231029
-8.07804e-08
-0.000230969
-8.81116e-08
-0.000230901
-1.00382e-07
-0.000230833
-1.06299e-07
-0.000230758
-1.20035e-07
-0.000230675
-1.32945e-07
-0.000230587
-1.45364e-07
-0.000230495
-1.59462e-07
-0.000230394
-1.77143e-07
-0.000230285
-1.93165e-07
-0.00023017
-2.10008e-07
-0.000230043
-2.31096e-07
-0.00022991
-2.53916e-07
-0.000229764
-2.80221e-07
-0.000229609
-3.03766e-07
-0.000229439
-3.38089e-07
-0.000229255
-3.78513e-07
-0.000229057
-4.18789e-07
-0.000228839
-4.69322e-07
-0.000228604
-5.18219e-07
-0.000228346
-5.74675e-07
-0.000228069
-6.32385e-07
-0.000227771
-6.93484e-07
-0.000227441
-7.66228e-07
-0.000227086
-8.4182e-07
-0.000226702
-9.2456e-07
-0.000226284
-1.014e-06
-0.00022583
-1.11352e-06
-0.000225334
-1.22503e-06
-0.000224792
-1.3446e-06
-0.000224202
-1.48375e-06
-0.000223562
-1.62848e-06
-0.000222854
-1.80382e-06
-0.000222072
-1.99713e-06
-0.000221211
-2.21825e-06
-0.000220259
-2.47119e-06
-0.000219197
-2.76582e-06
-0.000218011
-3.11044e-06
-0.000216673
-3.51774e-06
-0.000215159
-4.00533e-06
-0.000213428
-4.59636e-06
-0.000211433
-5.3137e-06
-0.000209103
-6.23536e-06
-0.000206351
-7.39412e-06
-0.000203116
-8.73566e-06
-0.000199131
-1.07727e-05
-1.35798e-05
-0.000282525
-2.87712e-08
-0.00028251
-2.8319e-08
-0.000282497
-1.98005e-08
-0.000282482
-1.66528e-08
-0.000282466
-2.55755e-08
-0.00028245
-2.57572e-08
-0.000282431
-2.20885e-08
-0.000282415
-1.93927e-08
-0.000282397
-2.24684e-08
-0.000282381
-2.26266e-08
-0.00028236
-2.33776e-08
-0.000282339
-2.17031e-08
-0.000282325
-2.2431e-08
-0.000282301
-2.44128e-08
-0.000282278
-2.79446e-08
-0.000282252
-2.78859e-08
-0.000282235
-2.78881e-08
-0.000282208
-2.89592e-08
-0.000282181
-3.03034e-08
-0.000282154
-3.14882e-08
-0.000282123
-3.70947e-08
-0.000282096
-3.6429e-08
-0.000282065
-4.10059e-08
-0.00028203
-4.49022e-08
-0.000281997
-4.46872e-08
-0.000281958
-5.07777e-08
-0.000281918
-5.16045e-08
-0.000281881
-5.55926e-08
-0.000281837
-6.13018e-08
-0.000281792
-6.67872e-08
-0.000281743
-7.35117e-08
-0.000281694
-7.65626e-08
-0.000281641
-8.25822e-08
-0.000281584
-8.79894e-08
-0.000281524
-9.74123e-08
-0.000281462
-1.05456e-07
-0.000281392
-1.16048e-07
-0.000281321
-1.25568e-07
-0.000281244
-1.34006e-07
-0.000281165
-1.46195e-07
-0.00028108
-1.5531e-07
-0.000280986
-1.74971e-07
-0.000280889
-1.8525e-07
-0.000280788
-2.00758e-07
-0.000280677
-2.17232e-07
-0.000280559
-2.38257e-07
-0.000280433
-2.58711e-07
-0.0002803
-2.7834e-07
-0.00028016
-3.00014e-07
-0.000280009
-3.28206e-07
-0.000279845
-3.57372e-07
-0.000279673
-3.81596e-07
-0.000279487
-4.16671e-07
-0.000279289
-4.52356e-07
-0.000279083
-4.86627e-07
-0.000278855
-5.31495e-07
-0.000278617
-5.7647e-07
-0.000278358
-6.37276e-07
-0.000278076
-7.00267e-07
-0.000277776
-7.70205e-07
-0.000277455
-8.39112e-07
-0.000277105
-9.24627e-07
-0.000276732
-1.0051e-06
-0.000276327
-1.09896e-06
-0.000275895
-1.19812e-06
-0.000275429
-1.30759e-06
-0.000274923
-1.43102e-06
-0.000274379
-1.55756e-06
-0.00027379
-1.70286e-06
-0.000273149
-1.86547e-06
-0.000272459
-2.03462e-06
-0.000271706
-2.23694e-06
-0.000270884
-2.45109e-06
-0.000269987
-2.70066e-06
-0.000269004
-2.97981e-06
-0.000267925
-3.29713e-06
-0.000266731
-3.66502e-06
-0.00026541
-4.08772e-06
-0.000263931
-4.58909e-06
-0.000262274
-5.17449e-06
-0.000260397
-5.88239e-06
-0.000258266
-6.72749e-06
-0.000255816
-7.76406e-06
-0.000252954
-9.09694e-06
-0.000249585
-1.07628e-05
-0.000245649
-1.26724e-05
-0.000240796
-1.56253e-05
-1.96819e-05
-0.000332379
-4.8775e-08
-0.000332358
-4.94863e-08
-0.00033234
-3.77247e-08
-0.000332319
-3.83617e-08
-0.000332293
-5.14512e-08
-0.000332274
-4.46634e-08
-0.000332255
-4.13755e-08
-0.000332224
-5.00635e-08
-0.000332203
-4.42219e-08
-0.000332171
-5.38227e-08
-0.000332146
-4.91537e-08
-0.000332116
-5.20945e-08
-0.000332085
-5.30388e-08
-0.000332053
-5.61971e-08
-0.000332025
-5.64189e-08
-0.000331994
-5.94006e-08
-0.000331953
-6.80471e-08
-0.000331919
-6.35789e-08
-0.000331881
-6.8689e-08
-0.000331838
-7.4407e-08
-0.000331801
-7.38045e-08
-0.000331751
-8.70429e-08
-0.000331703
-8.91561e-08
-0.000331657
-9.02874e-08
-0.000331608
-9.41141e-08
-0.000331552
-1.07446e-07
-0.000331498
-1.05381e-07
-0.000331434
-1.19229e-07
-0.000331378
-1.17354e-07
-0.000331308
-1.37177e-07
-0.000331243
-1.38942e-07
-0.000331165
-1.54626e-07
-0.000331091
-1.56111e-07
-0.000331008
-1.71789e-07
-0.000330925
-1.79997e-07
-0.000330831
-1.99631e-07
-0.000330735
-2.12064e-07
-0.000330635
-2.25851e-07
-0.000330527
-2.41875e-07
-0.000330417
-2.56649e-07
-0.000330294
-2.7764e-07
-0.000330169
-3.00512e-07
-0.000330035
-3.19032e-07
-0.000329893
-3.4327e-07
-0.000329741
-3.68989e-07
-0.00032958
-3.98921e-07
-0.000329413
-4.26205e-07
-0.000329229
-4.61933e-07
-0.000329037
-4.91893e-07
-0.000328835
-5.30797e-07
-0.00032862
-5.71998e-07
-0.000328386
-6.15683e-07
-0.000328145
-6.58065e-07
-0.000327884
-7.13165e-07
-0.000327604
-7.66216e-07
-0.000327311
-8.24612e-07
-0.000326997
-8.90867e-07
-0.00032666
-9.73651e-07
-0.000326302
-1.05896e-06
-0.000325917
-1.15531e-06
-0.000325505
-1.2506e-06
-0.000325069
-1.36129e-06
-0.000324595
-1.47836e-06
-0.000324091
-1.6034e-06
-0.000323547
-1.74204e-06
-0.000322966
-1.88842e-06
-0.000322338
-2.05885e-06
-0.000321666
-2.23039e-06
-0.000320943
-2.42541e-06
-0.000320163
-2.64523e-06
-0.000319317
-2.8812e-06
-0.000318401
-3.15244e-06
-0.0003174
-3.45199e-06
-0.000316319
-3.78179e-06
-0.000315133
-4.1663e-06
-0.000313832
-4.59834e-06
-0.000312399
-5.09769e-06
-0.000310811
-5.67593e-06
-0.000309047
-6.35291e-06
-0.000307065
-7.15599e-06
-0.000304838
-8.10955e-06
-0.000302303
-9.26259e-06
-0.0002994
-1.06673e-05
-0.000296012
-1.24853e-05
-0.000292043
-1.47314e-05
-0.000287423
-1.72924e-05
-0.000281719
-2.13296e-05
-2.68525e-05
-0.000383571
-7.37841e-08
-0.000383546
-7.56759e-08
-0.000383518
-6.55532e-08
-0.0003835
-5.67264e-08
-0.000383469
-8.26564e-08
-0.000383438
-7.57029e-08
-0.000383405
-7.4579e-08
-0.000383378
-7.73804e-08
-0.00038334
-8.14477e-08
-0.000383307
-8.77589e-08
-0.000383272
-8.36072e-08
-0.000383238
-8.60439e-08
-0.000383198
-9.36974e-08
-0.000383157
-9.73224e-08
-0.000383114
-9.91064e-08
-0.000383067
-1.06939e-07
-0.000383019
-1.16095e-07
-0.000382971
-1.11667e-07
-0.000382922
-1.17826e-07
-0.000382872
-1.24844e-07
-0.000382814
-1.31717e-07
-0.000382757
-1.4409e-07
-0.000382694
-1.51897e-07
-0.000382631
-1.53413e-07
-0.00038256
-1.65494e-07
-0.000382494
-1.74194e-07
-0.000382414
-1.84666e-07
-0.000382343
-1.91202e-07
-0.000382255
-2.0535e-07
-0.000382172
-2.19421e-07
-0.000382077
-2.34681e-07
-0.000381986
-2.45949e-07
-0.000381884
-2.57333e-07
-0.000381781
-2.75781e-07
-0.000381669
-2.91382e-07
-0.000381554
-3.15244e-07
-0.00038143
-3.35742e-07
-0.000381299
-3.57317e-07
-0.000381161
-3.79394e-07
-0.000381016
-4.02346e-07
-0.000380864
-4.29023e-07
-0.000380702
-4.63003e-07
-0.00038053
-4.91139e-07
-0.000380345
-5.28123e-07
-0.000380156
-5.57436e-07
-0.000379952
-6.03611e-07
-0.000379736
-6.42522e-07
-0.000379508
-6.89239e-07
-0.00037927
-7.29901e-07
-0.000379012
-7.8948e-07
-0.000378738
-8.45163e-07
-0.000378456
-8.98331e-07
-0.000378147
-9.66734e-07
-0.000377825
-1.03554e-06
-0.000377479
-1.11167e-06
-0.000377116
-1.18835e-06
-0.00037673
-1.27703e-06
-0.000376314
-1.38992e-06
-0.00037587
-1.5021e-06
-0.000375406
-1.61954e-06
-0.000374905
-1.75177e-06
-0.000374371
-1.89567e-06
-0.0003738
-2.04882e-06
-0.000373191
-2.21281e-06
-0.000372539
-2.3937e-06
-0.000371841
-2.58632e-06
-0.000371096
-2.80441e-06
-0.000370293
-3.03386e-06
-0.00036943
-3.28827e-06
-0.000368499
-3.57554e-06
-0.000367503
-3.87719e-06
-0.000366415
-4.24104e-06
-0.000365242
-4.62451e-06
-0.000363963
-5.06074e-06
-0.000362567
-5.56224e-06
-0.000361038
-6.12754e-06
-0.00035936
-6.77568e-06
-0.000357506
-7.53063e-06
-0.000355442
-8.41625e-06
-0.000353139
-9.45909e-06
-0.000350542
-1.0707e-05
-0.000347603
-1.22012e-05
-0.000344234
-1.40362e-05
-0.000340309
-1.641e-05
-0.000335723
-1.93179e-05
-0.000330413
-2.26029e-05
-0.000323835
-2.79067e-05
-3.51206e-05
-0.000438237
-1.00095e-07
-0.000438209
-1.04258e-07
-0.000438183
-9.15693e-08
-0.000438144
-9.57178e-08
-0.000438108
-1.18611e-07
-0.000438075
-1.09193e-07
-0.000438038
-1.11541e-07
-0.000437998
-1.18122e-07
-0.000437961
-1.17872e-07
-0.000437921
-1.28534e-07
-0.000437873
-1.30882e-07
-0.000437827
-1.32723e-07
-0.000437784
-1.36789e-07
-0.000437729
-1.51976e-07
-0.000437677
-1.51611e-07
-0.000437622
-1.62159e-07
-0.000437561
-1.7706e-07
-0.000437503
-1.70193e-07
-0.000437443
-1.77298e-07
-0.000437376
-1.91899e-07
-0.000437304
-2.03851e-07
-0.00043723
-2.18402e-07
-0.000437156
-2.26363e-07
-0.000437075
-2.34685e-07
-0.000436988
-2.5183e-07
-0.000436903
-2.59751e-07
-0.000436811
-2.76466e-07
-0.000436712
-2.90634e-07
-0.000436616
-3.01043e-07
-0.000436502
-3.33655e-07
-0.000436395
-3.41681e-07
-0.000436278
-3.63667e-07
-0.000436152
-3.82729e-07
-0.000436022
-4.06832e-07
-0.000435885
-4.28178e-07
-0.000435741
-4.59458e-07
-0.000435588
-4.88028e-07
-0.000435427
-5.18581e-07
-0.000435263
-5.43581e-07
-0.000435081
-5.84714e-07
-0.000434892
-6.17939e-07
-0.000434695
-6.5979e-07
-0.000434484
-7.02396e-07
-0.000434265
-7.46923e-07
-0.000434033
-7.89457e-07
-0.000433785
-8.52303e-07
-0.000433523
-9.03574e-07
-0.00043325
-9.6235e-07
-0.000432959
-1.02139e-06
-0.000432648
-1.10053e-06
-0.000432326
-1.16698e-06
-0.000431976
-1.24827e-06
-0.000431613
-1.32985e-06
-0.000431223
-1.42568e-06
-0.000430813
-1.5221e-06
-0.000430374
-1.62671e-06
-0.000429909
-1.74208e-06
-0.000429422
-1.87765e-06
-0.000428897
-2.02712e-06
-0.000428341
-2.17548e-06
-0.000427749
-2.34395e-06
-0.000427118
-2.5264e-06
-0.000426446
-2.7211e-06
-0.000425729
-2.92975e-06
-0.000424966
-3.15634e-06
-0.000424148
-3.40437e-06
-0.000423271
-3.68165e-06
-0.000422333
-3.97195e-06
-0.000421329
-4.2918e-06
-0.000420243
-4.66222e-06
-0.000419077
-5.04253e-06
-0.000417819
-5.49904e-06
-0.000416453
-5.99048e-06
-0.00041497
-6.54435e-06
-0.000413354
-7.17775e-06
-0.000411593
-7.88842e-06
-0.000409651
-8.7185e-06
-0.000407509
-9.67226e-06
-0.000405133
-1.0792e-05
-0.000402478
-1.21144e-05
-0.000399496
-1.36893e-05
-0.000396116
-1.55805e-05
-0.000392254
-1.78983e-05
-0.000387753
-2.09112e-05
-0.000382518
-2.45526e-05
-0.000376483
-2.86381e-05
-0.000368968
-3.54215e-05
-4.45565e-05
-0.000498262
-0.000498226
-0.000498186
-0.000498153
-1.29361e-07
-0.000498112
-1.5928e-07
-0.000498068
-1.54066e-07
-0.000498027
-1.51758e-07
-0.000497981
-1.65118e-07
-0.00049793
-1.68769e-07
-0.000497876
-1.82541e-07
-0.000497824
-1.83234e-07
-0.000497771
-1.85978e-07
-0.000497713
-1.94358e-07
-0.000497652
-2.13363e-07
-0.000497583
-2.2114e-07
-0.000497524
-2.21439e-07
-0.000497449
-2.52008e-07
-0.000497376
-2.4302e-07
-0.000497297
-2.56687e-07
-0.000497219
-2.70165e-07
-0.000497138
-2.84099e-07
-0.000497047
-3.10474e-07
-0.000496954
-3.18677e-07
-0.000496859
-3.30464e-07
-0.00049676
-3.50398e-07
-0.000496648
-3.72846e-07
-0.000496541
-3.83602e-07
-0.000496429
-4.02809e-07
-0.000496305
-4.24559e-07
-0.000496177
-4.6199e-07
-0.000496038
-4.80449e-07
-0.000495895
-5.0728e-07
-0.000495752
-5.26029e-07
-0.000495594
-5.6468e-07
-0.000495433
-5.89271e-07
-0.000495258
-6.34469e-07
-0.000495074
-6.72364e-07
-0.000494884
-7.08382e-07
-0.000494679
-7.48883e-07
-0.00049447
-7.9344e-07
-0.000494247
-8.41346e-07
-0.000494008
-8.99056e-07
-0.000493761
-9.48668e-07
-0.000493501
-1.0069e-06
-0.000493223
-1.06785e-06
-0.000492932
-1.14357e-06
-0.000492626
-1.2092e-06
-0.000492298
-1.29046e-06
-0.000491951
-1.36898e-06
-0.000491589
-1.46213e-06
-0.000491205
-1.55087e-06
-0.000490796
-1.65761e-06
-0.000490364
-1.76189e-06
-0.00048991
-1.8796e-06
-0.000489425
-2.00658e-06
-0.000488914
-2.13874e-06
-0.000488372
-2.28339e-06
-0.000487794
-2.45598e-06
-0.000487184
-2.63732e-06
-0.000486535
-2.82475e-06
-0.000485846
-3.03307e-06
-0.000485111
-3.26079e-06
-0.000484331
-3.50133e-06
-0.000483498
-3.76289e-06
-0.000482611
-4.04326e-06
-0.000481661
-4.35399e-06
-0.00048065
-4.69325e-06
-0.000479568
-5.05355e-06
-0.000478406
-5.4546e-06
-0.000477152
-5.91553e-06
-0.000475812
-6.38241e-06
-0.000474364
-6.94772e-06
-0.000472787
-7.5674e-06
-0.000471086
-8.24548e-06
-0.000469231
-9.03265e-06
-0.000467203
-9.91641e-06
-0.000464978
-1.09432e-05
-0.000462524
-1.2126e-05
-0.000459805
-1.35116e-05
-0.000456769
-1.515e-05
-0.000453356
-1.71021e-05
-0.000449503
-1.94339e-05
-0.000445096
-2.23059e-05
-0.00043996
-2.60468e-05
-0.000434022
-3.04901e-05
-0.000427201
-3.54598e-05
-0.00041865
-4.39722e-05
-5.52854e-05
-0.000565129
-1.71174e-07
-0.000565075
-2.13653e-07
-0.000565021
-2.08069e-07
-0.000564968
-2.0474e-07
-0.000564912
-2.2183e-07
-0.000564855
-2.25201e-07
-0.000564796
-2.42088e-07
-0.000564733
-2.46573e-07
-0.000564667
-2.52014e-07
-0.000564595
-2.66081e-07
-0.000564525
-2.84035e-07
-0.000564447
-2.99453e-07
-0.000564367
-3.0101e-07
-0.000564282
-3.36982e-07
-0.000564193
-3.32916e-07
-0.000564104
-3.44983e-07
-0.000564011
-3.63354e-07
-0.00056391
-3.85622e-07
-0.000563805
-4.15201e-07
-0.000563695
-4.29607e-07
-0.00056358
-4.44768e-07
-0.00056346
-4.71108e-07
-0.000563337
-4.95745e-07
-0.000563202
-5.1902e-07
-0.000563064
-5.40311e-07
-0.000562918
-5.71323e-07
-0.000562767
-6.12681e-07
-0.000562608
-6.39871e-07
-0.00056244
-6.74937e-07
-0.000562262
-7.04483e-07
-0.00056208
-7.4704e-07
-0.000561888
-7.81103e-07
-0.000561682
-8.40364e-07
-0.000561466
-8.88365e-07
-0.000561241
-9.33756e-07
-0.000561004
-9.86067e-07
-0.000560753
-1.04439e-06
-0.000560491
-1.10346e-06
-0.000560215
-1.17514e-06
-0.000559922
-1.24153e-06
-0.000559612
-1.31673e-06
-0.000559292
-1.3885e-06
-0.000558953
-1.4825e-06
-0.000558586
-1.57557e-06
-0.000558209
-1.66782e-06
-0.000557807
-1.77113e-06
-0.000557384
-1.88481e-06
-0.00055693
-2.00483e-06
-0.000556459
-2.12933e-06
-0.000555959
-2.26146e-06
-0.000555428
-2.41072e-06
-0.000554869
-2.56557e-06
-0.000554275
-2.7331e-06
-0.000553643
-2.91567e-06
-0.00055298
-3.11832e-06
-0.00055227
-3.34758e-06
-0.000551518
-3.57704e-06
-0.00055072
-3.83084e-06
-0.000549876
-4.10526e-06
-0.000548974
-4.40287e-06
-0.000548014
-4.72326e-06
-0.000546994
-5.06322e-06
-0.000545903
-5.44526e-06
-0.000544738
-5.85798e-06
-0.000543492
-6.29958e-06
-0.000542157
-6.78978e-06
-0.000540719
-7.35379e-06
-0.000539186
-7.91541e-06
-0.000537516
-8.61781e-06
-0.000535721
-9.36201e-06
-0.00053377
-1.0196e-05
-0.000531645
-1.11581e-05
-0.000529326
-1.22354e-05
-0.000526787
-1.34826e-05
-0.000523986
-1.49268e-05
-0.000520877
-1.662e-05
-0.000517415
-1.86127e-05
-0.000513528
-2.09886e-05
-0.00050914
-2.38225e-05
-0.000504119
-2.73267e-05
-0.000498268
-3.18979e-05
-0.000491558
-3.71997e-05
-0.000483856
-4.3162e-05
-0.000474129
-5.36992e-05
-6.74608e-05
-0.000640499
-2.25381e-07
-0.000640436
-2.76114e-07
-0.00064038
-2.64532e-07
-0.000640311
-2.73748e-07
-0.000640248
-2.8574e-07
-0.000640173
-2.99501e-07
-0.000640102
-3.13274e-07
-0.000640024
-3.25077e-07
-0.000639945
-3.30943e-07
-0.000639867
-3.45037e-07
-0.000639778
-3.7245e-07
-0.00063969
-3.87829e-07
-0.000639589
-4.02106e-07
-0.000639489
-4.37163e-07
-0.000639392
-4.30733e-07
-0.000639284
-4.5292e-07
-0.000639171
-4.76513e-07
-0.000639049
-5.07778e-07
-0.000638921
-5.42944e-07
-0.000638794
-5.57252e-07
-0.000638663
-5.76452e-07
-0.000638519
-6.15069e-07
-0.000638367
-6.47997e-07
-0.000638214
-6.71571e-07
-0.00063805
-7.04635e-07
-0.000637882
-7.39054e-07
-0.000637698
-7.97413e-07
-0.000637508
-8.29934e-07
-0.000637313
-8.70009e-07
-0.000637106
-9.11261e-07
-0.00063689
-9.63781e-07
-0.000636661
-1.01015e-06
-0.000636422
-1.07921e-06
-0.000636173
-1.13723e-06
-0.000635907
-1.1999e-06
-0.00063563
-1.26318e-06
-0.000635346
-1.32892e-06
-0.000635034
-1.41485e-06
-0.000634711
-1.49841e-06
-0.000634372
-1.58141e-06
-0.000634017
-1.67103e-06
-0.00063364
-1.7656e-06
-0.000633237
-1.88587e-06
-0.000632821
-1.99137e-06
-0.000632377
-2.11155e-06
-0.000631914
-2.2345e-06
-0.000631422
-2.377e-06
-0.000630904
-2.52305e-06
-0.000630353
-2.67981e-06
-0.000629776
-2.83871e-06
-0.000629163
-3.02387e-06
-0.000628511
-3.21726e-06
-0.000627828
-3.4168e-06
-0.000627105
-3.63867e-06
-0.000626334
-3.88891e-06
-0.000625521
-4.16117e-06
-0.000624655
-4.44285e-06
-0.00062374
-4.74571e-06
-0.000622767
-5.07815e-06
-0.00062173
-5.44074e-06
-0.000620629
-5.82402e-06
-0.000619455
-6.23711e-06
-0.000618211
-6.68966e-06
-0.000616873
-7.19596e-06
-0.000615446
-7.72596e-06
-0.000613918
-8.31849e-06
-0.000612272
-8.99916e-06
-0.000610512
-9.67595e-06
-0.000608614
-1.0516e-05
-0.000606555
-1.14211e-05
-0.000604324
-1.24264e-05
-0.0006019
-1.3582e-05
-0.000599255
-1.48805e-05
-0.000596353
-1.63848e-05
-0.000593157
-1.81227e-05
-0.000589617
-2.01606e-05
-0.000585666
-2.25639e-05
-0.000581237
-2.54173e-05
-0.00057624
-2.88198e-05
-0.000570514
-3.30525e-05
-0.000563864
-3.85476e-05
-0.000556293
-4.47709e-05
-0.000547588
-5.18671e-05
-0.000536496
-6.47909e-05
-8.12815e-05
-0.000725671
-2.92627e-07
-0.000725595
-3.52541e-07
-0.00072552
-3.39584e-07
-0.000725444
-3.49841e-07
-0.000725365
-3.65397e-07
-0.000725283
-3.81338e-07
-0.000725194
-4.02794e-07
-0.000725096
-4.23177e-07
-0.000725006
-4.20549e-07
-0.000724907
-4.44039e-07
-0.0007248
-4.80548e-07
-0.000724689
-4.98922e-07
-0.000724579
-5.12343e-07
-0.000724458
-5.57568e-07
-0.000724336
-5.53372e-07
-0.000724213
-5.75977e-07
-0.000724075
-6.14667e-07
-0.000723933
-6.49366e-07
-0.000723789
-6.87274e-07
-0.000723634
-7.13116e-07
-0.000723468
-7.42107e-07
-0.000723302
-7.81735e-07
-0.000723127
-8.22843e-07
-0.000722946
-8.52558e-07
-0.000722757
-8.9436e-07
-0.000722554
-9.41783e-07
-0.000722343
-1.00859e-06
-0.000722121
-1.05205e-06
-0.000721891
-1.10044e-06
-0.000721654
-1.14798e-06
-0.000721399
-1.21929e-06
-0.000721132
-1.27648e-06
-0.000720851
-1.36035e-06
-0.000720554
-1.43488e-06
-0.000720252
-1.50157e-06
-0.000719932
-1.58368e-06
-0.000719588
-1.6728e-06
-0.000719232
-1.77087e-06
-0.000718858
-1.87272e-06
-0.000718463
-1.97671e-06
-0.00071805
-2.08416e-06
-0.000717611
-2.2044e-06
-0.000717155
-2.34215e-06
-0.000716667
-2.47873e-06
-0.000716158
-2.62098e-06
-0.000715618
-2.77412e-06
-0.000715048
-2.94748e-06
-0.000714451
-3.1197e-06
-0.00071382
-3.31128e-06
-0.000713152
-3.50703e-06
-0.000712446
-3.72913e-06
-0.000711701
-3.96291e-06
-0.000710912
-4.20596e-06
-0.000710077
-4.47301e-06
-0.000709193
-4.77304e-06
-0.000708259
-5.09583e-06
-0.000707268
-5.43345e-06
-0.000706217
-5.79687e-06
-0.000705103
-6.19218e-06
-0.000703916
-6.62762e-06
-0.000702657
-7.08342e-06
-0.000701317
-7.57736e-06
-0.000699884
-8.12193e-06
-0.000698357
-8.72288e-06
-0.000696725
-9.35884e-06
-0.000694979
-1.00646e-05
-0.000693095
-1.08827e-05
-0.000691087
-1.16841e-05
-0.000688918
-1.26853e-05
-0.000686563
-1.37757e-05
-0.00068402
-1.49695e-05
-0.000681255
-1.63468e-05
-0.000678232
-1.79036e-05
-0.000674921
-1.96955e-05
-0.000671273
-2.17713e-05
-0.000667233
-2.42003e-05
-0.000662725
-2.70716e-05
-0.000657677
-3.04654e-05
-0.000651981
-3.45165e-05
-0.000645446
-3.95876e-05
-0.000637876
-4.61175e-05
-0.000629343
-5.33033e-05
-0.000619469
-6.17408e-05
-0.00060678
-7.74799e-05
-9.70005e-05
-0.000822069
-3.75924e-07
-0.000821979
-4.42158e-07
-0.000821888
-4.30853e-07
-0.000821792
-4.45981e-07
-0.000821694
-4.64482e-07
-0.000821593
-4.8192e-07
-0.000821491
-5.05215e-07
-0.000821381