/*--------------------------------*- C++ -*----------------------------------*\
| =========                 |                                                 |
| \\      /  F ield         | OpenFOAM: The Open Source CFD Toolbox           |
|  \\    /   O peration     | Version:  2412                                  |
|   \\  /    A nd           | Website:  www.openfoam.com                      |
|    \\/     M anipulation  |                                                 |
\*---------------------------------------------------------------------------*/
FoamFile
{
    version     2.0;
    format      ascii;
    arch        "LSB;label=32;scalar=64";
    class       volScalarField;
    location    "360";
    object      nuTilda;
}
// * * * * * * * * * * * * * * * * * * * * * * * * * * * * * * * * * * * * * //

dimensions      [0 2 -1 0 0 0 0];

internalField   nonuniform List<scalar> 
8702
(
1.4114e-06
1.41226e-06
1.41305e-06
1.41378e-06
1.41446e-06
1.41515e-06
1.41585e-06
1.41653e-06
1.4172e-06
1.41791e-06
1.41861e-06
1.41929e-06
1.41993e-06
1.42054e-06
1.4211e-06
1.42164e-06
1.42211e-06
1.42255e-06
1.42299e-06
1.42336e-06
1.42368e-06
1.42399e-06
1.42424e-06
1.42446e-06
1.42467e-06
1.42482e-06
1.42493e-06
1.42501e-06
1.42505e-06
1.42503e-06
1.42498e-06
1.42489e-06
1.42474e-06
1.42456e-06
1.42433e-06
1.42402e-06
1.42369e-06
1.42332e-06
1.42289e-06
1.42244e-06
1.42193e-06
1.42137e-06
1.42076e-06
1.42009e-06
1.41942e-06
1.4187e-06
1.41795e-06
1.41714e-06
1.41629e-06
1.41539e-06
1.41445e-06
1.41351e-06
1.41253e-06
1.41153e-06
1.41051e-06
1.40948e-06
1.40842e-06
1.40733e-06
1.40623e-06
1.40517e-06
1.4041e-06
1.403e-06
1.40194e-06
1.40093e-06
1.39999e-06
1.39907e-06
1.3982e-06
1.39731e-06
1.39642e-06
1.39578e-06
1.39563e-06
1.39597e-06
1.3963e-06
1.39619e-06
1.39532e-06
1.39436e-06
1.39513e-06
1.39861e-06
1.40612e-06
1.4163e-06
1.42494e-06
1.42988e-06
4.37515e-06
4.37795e-06
4.38054e-06
4.38296e-06
4.38523e-06
4.38747e-06
4.38975e-06
4.39201e-06
4.39426e-06
4.39657e-06
4.39889e-06
4.40114e-06
4.40328e-06
4.4053e-06
4.40717e-06
4.40895e-06
4.41057e-06
4.41205e-06
4.41345e-06
4.4147e-06
4.41583e-06
4.41686e-06
4.41776e-06
4.41853e-06
4.41923e-06
4.41979e-06
4.42019e-06
4.4205e-06
4.42066e-06
4.42065e-06
4.42053e-06
4.42028e-06
4.41985e-06
4.41927e-06
4.41857e-06
4.41767e-06
4.41664e-06
4.41548e-06
4.41416e-06
4.41273e-06
4.41113e-06
4.40937e-06
4.40744e-06
4.40537e-06
4.40323e-06
4.40093e-06
4.3985e-06
4.39593e-06
4.39325e-06
4.39047e-06
4.38756e-06
4.38456e-06
4.38147e-06
4.37833e-06
4.37511e-06
4.37185e-06
4.36851e-06
4.36514e-06
4.36177e-06
4.35843e-06
4.3551e-06
4.35174e-06
4.34845e-06
4.34532e-06
4.34239e-06
4.33961e-06
4.33695e-06
4.3342e-06
4.33151e-06
4.32954e-06
4.32899e-06
4.32989e-06
4.33081e-06
4.33054e-06
4.32808e-06
4.32527e-06
4.32741e-06
4.33747e-06
4.35926e-06
4.38894e-06
4.41465e-06
4.42983e-06
7.61392e-06
7.61925e-06
7.62417e-06
7.62878e-06
7.63309e-06
7.63734e-06
7.64163e-06
7.64595e-06
7.65031e-06
7.65475e-06
7.6592e-06
7.66356e-06
7.66772e-06
7.67164e-06
7.67525e-06
7.67866e-06
7.68183e-06
7.68471e-06
7.68738e-06
7.68986e-06
7.69211e-06
7.69413e-06
7.69594e-06
7.69754e-06
7.69895e-06
7.70011e-06
7.70101e-06
7.70169e-06
7.70209e-06
7.70225e-06
7.70213e-06
7.70174e-06
7.70109e-06
7.70013e-06
7.69893e-06
7.69743e-06
7.69564e-06
7.69358e-06
7.69127e-06
7.68873e-06
7.68588e-06
7.68273e-06
7.6793e-06
7.67564e-06
7.67177e-06
7.66765e-06
7.66329e-06
7.65868e-06
7.65388e-06
7.64892e-06
7.64376e-06
7.63843e-06
7.63294e-06
7.62738e-06
7.62171e-06
7.61593e-06
7.61006e-06
7.60418e-06
7.59832e-06
7.59249e-06
7.58671e-06
7.58093e-06
7.57527e-06
7.56987e-06
7.56482e-06
7.56008e-06
7.55552e-06
7.55087e-06
7.54638e-06
7.543e-06
7.5418e-06
7.5429e-06
7.54423e-06
7.54388e-06
7.54016e-06
7.53577e-06
7.5388e-06
7.55418e-06
7.58776e-06
7.63399e-06
7.67535e-06
7.70114e-06
1.10933e-05
1.1102e-05
1.111e-05
1.11174e-05
1.11244e-05
1.11313e-05
1.11383e-05
1.11453e-05
1.11525e-05
1.11599e-05
1.11673e-05
1.11745e-05
1.11814e-05
1.11879e-05
1.11939e-05
1.11996e-05
1.12048e-05
1.12097e-05
1.12142e-05
1.12183e-05
1.12221e-05
1.12256e-05
1.12287e-05
1.12315e-05
1.1234e-05
1.1236e-05
1.12377e-05
1.1239e-05
1.12399e-05
1.12404e-05
1.12405e-05
1.12401e-05
1.12393e-05
1.12381e-05
1.12364e-05
1.12343e-05
1.12317e-05
1.12287e-05
1.12253e-05
1.12215e-05
1.12173e-05
1.12125e-05
1.12074e-05
1.12019e-05
1.1196e-05
1.11898e-05
1.11832e-05
1.11762e-05
1.11689e-05
1.11614e-05
1.11536e-05
1.11456e-05
1.11374e-05
1.11291e-05
1.11206e-05
1.1112e-05
1.11033e-05
1.10946e-05
1.1086e-05
1.10775e-05
1.1069e-05
1.10607e-05
1.10525e-05
1.10447e-05
1.10374e-05
1.10306e-05
1.1024e-05
1.10175e-05
1.10112e-05
1.10063e-05
1.10041e-05
1.10049e-05
1.10063e-05
1.10058e-05
1.10013e-05
1.09958e-05
1.09991e-05
1.10178e-05
1.1059e-05
1.11164e-05
1.11699e-05
1.12055e-05
1.47757e-05
1.47889e-05
1.48009e-05
1.48121e-05
1.48226e-05
1.4833e-05
1.48435e-05
1.48541e-05
1.48651e-05
1.48763e-05
1.48877e-05
1.48988e-05
1.49094e-05
1.49194e-05
1.49287e-05
1.49374e-05
1.49454e-05
1.49529e-05
1.49599e-05
1.49663e-05
1.49723e-05
1.49777e-05
1.49827e-05
1.49872e-05
1.49912e-05
1.49947e-05
1.49976e-05
1.49999e-05
1.50016e-05
1.50028e-05
1.50033e-05
1.50032e-05
1.50025e-05
1.50011e-05
1.4999e-05
1.49963e-05
1.4993e-05
1.4989e-05
1.49844e-05
1.49792e-05
1.49734e-05
1.49669e-05
1.49598e-05
1.49521e-05
1.49439e-05
1.49352e-05
1.49259e-05
1.49162e-05
1.4906e-05
1.48955e-05
1.48847e-05
1.48735e-05
1.48621e-05
1.48505e-05
1.48388e-05
1.4827e-05
1.48151e-05
1.48033e-05
1.47916e-05
1.478e-05
1.47686e-05
1.47575e-05
1.47466e-05
1.47363e-05
1.47266e-05
1.47175e-05
1.47089e-05
1.47005e-05
1.46924e-05
1.46858e-05
1.46822e-05
1.46821e-05
1.46829e-05
1.4682e-05
1.46772e-05
1.46712e-05
1.4674e-05
1.46937e-05
1.47374e-05
1.47989e-05
1.4859e-05
1.4902e-05
1.86191e-05
1.8638e-05
1.86553e-05
1.86713e-05
1.86863e-05
1.87011e-05
1.87161e-05
1.87314e-05
1.87473e-05
1.87637e-05
1.87802e-05
1.87965e-05
1.8812e-05
1.88266e-05
1.88402e-05
1.88528e-05
1.88645e-05
1.88755e-05
1.88857e-05
1.88952e-05
1.8904e-05
1.89121e-05
1.89196e-05
1.89264e-05
1.89325e-05
1.8938e-05
1.89426e-05
1.89465e-05
1.89496e-05
1.89518e-05
1.89532e-05
1.89537e-05
1.89533e-05
1.89519e-05
1.89497e-05
1.89466e-05
1.89425e-05
1.89375e-05
1.89317e-05
1.8925e-05
1.89174e-05
1.89089e-05
1.88996e-05
1.88894e-05
1.88785e-05
1.88668e-05
1.88545e-05
1.88415e-05
1.8828e-05
1.88139e-05
1.87995e-05
1.87846e-05
1.87694e-05
1.87541e-05
1.87386e-05
1.8723e-05
1.87074e-05
1.86919e-05
1.86767e-05
1.86617e-05
1.86471e-05
1.86328e-05
1.8619e-05
1.86059e-05
1.85936e-05
1.85821e-05
1.85714e-05
1.85609e-05
1.8551e-05
1.85426e-05
1.85372e-05
1.85352e-05
1.85347e-05
1.85329e-05
1.8528e-05
1.8522e-05
1.85238e-05
1.8542e-05
1.85828e-05
1.86407e-05
1.87001e-05
1.87458e-05
2.25766e-05
2.26025e-05
2.26264e-05
2.26483e-05
2.26689e-05
2.26893e-05
2.271e-05
2.27312e-05
2.27534e-05
2.27763e-05
2.27995e-05
2.28222e-05
2.2844e-05
2.28644e-05
2.28833e-05
2.29009e-05
2.29174e-05
2.29327e-05
2.2947e-05
2.29604e-05
2.29729e-05
2.29844e-05
2.29952e-05
2.3005e-05
2.3014e-05
2.3022e-05
2.30291e-05
2.30352e-05
2.30402e-05
2.30441e-05
2.30469e-05
2.30484e-05
2.30487e-05
2.30477e-05
2.30456e-05
2.30422e-05
2.30375e-05
2.30317e-05
2.30246e-05
2.30163e-05
2.30068e-05
2.29961e-05
2.29842e-05
2.29713e-05
2.29573e-05
2.29423e-05
2.29264e-05
2.29096e-05
2.2892e-05
2.28738e-05
2.28551e-05
2.28358e-05
2.28162e-05
2.27964e-05
2.27764e-05
2.27564e-05
2.27365e-05
2.27167e-05
2.26974e-05
2.26784e-05
2.26601e-05
2.26423e-05
2.26252e-05
2.2609e-05
2.25938e-05
2.25796e-05
2.25664e-05
2.25538e-05
2.2542e-05
2.25316e-05
2.25239e-05
2.25194e-05
2.25165e-05
2.25131e-05
2.25079e-05
2.25022e-05
2.25026e-05
2.25171e-05
2.25501e-05
2.25966e-05
2.26469e-05
2.2689e-05
2.65966e-05
2.66311e-05
2.66629e-05
2.66921e-05
2.67196e-05
2.67468e-05
2.67745e-05
2.6803e-05
2.68328e-05
2.68638e-05
2.68951e-05
2.69258e-05
2.69551e-05
2.69827e-05
2.70082e-05
2.70318e-05
2.70539e-05
2.70745e-05
2.70938e-05
2.71119e-05
2.71289e-05
2.71447e-05
2.71595e-05
2.71731e-05
2.71857e-05
2.71971e-05
2.72074e-05
2.72165e-05
2.72242e-05
2.72304e-05
2.72351e-05
2.72383e-05
2.72398e-05
2.72396e-05
2.72379e-05
2.72345e-05
2.72295e-05
2.72229e-05
2.72147e-05
2.72048e-05
2.71934e-05
2.71803e-05
2.71658e-05
2.71497e-05
2.71323e-05
2.71135e-05
2.70934e-05
2.70722e-05
2.705e-05
2.7027e-05
2.70032e-05
2.69788e-05
2.69539e-05
2.69288e-05
2.69035e-05
2.68782e-05
2.68531e-05
2.68283e-05
2.68041e-05
2.67805e-05
2.67576e-05
2.67357e-05
2.67148e-05
2.6695e-05
2.66765e-05
2.66592e-05
2.66432e-05
2.66283e-05
2.66143e-05
2.66017e-05
2.65912e-05
2.65833e-05
2.65771e-05
2.65711e-05
2.65649e-05
2.65594e-05
2.65581e-05
2.65672e-05
2.65885e-05
2.6617e-05
2.66497e-05
2.66802e-05
3.06239e-05
3.06686e-05
3.07097e-05
3.07477e-05
3.07834e-05
3.08188e-05
3.08549e-05
3.08922e-05
3.09311e-05
3.09716e-05
3.10125e-05
3.10526e-05
3.10909e-05
3.11267e-05
3.11599e-05
3.11905e-05
3.12191e-05
3.12458e-05
3.1271e-05
3.12946e-05
3.13168e-05
3.13377e-05
3.13572e-05
3.13753e-05
3.13923e-05
3.14079e-05
3.14222e-05
3.14351e-05
3.14464e-05
3.14558e-05
3.14632e-05
3.14687e-05
3.1472e-05
3.14733e-05
3.14724e-05
3.14695e-05
3.14645e-05
3.14575e-05
3.14483e-05
3.1437e-05
3.14236e-05
3.14082e-05
3.13908e-05
3.13714e-05
3.13502e-05
3.13271e-05
3.13025e-05
3.12763e-05
3.12488e-05
3.12201e-05
3.11905e-05
3.116e-05
3.11289e-05
3.10975e-05
3.10659e-05
3.10343e-05
3.1003e-05
3.09721e-05
3.0942e-05
3.09127e-05
3.08846e-05
3.08576e-05
3.08321e-05
3.0808e-05
3.07855e-05
3.07646e-05
3.07452e-05
3.07274e-05
3.07109e-05
3.06957e-05
3.06821e-05
3.067e-05
3.06593e-05
3.06495e-05
3.06414e-05
3.06356e-05
3.06322e-05
3.06347e-05
3.06417e-05
3.06473e-05
3.06548e-05
3.06655e-05
3.46003e-05
3.46567e-05
3.47089e-05
3.47571e-05
3.48025e-05
3.48476e-05
3.48935e-05
3.4941e-05
3.49906e-05
3.5042e-05
3.50939e-05
3.51446e-05
3.51929e-05
3.52381e-05
3.52797e-05
3.53182e-05
3.5354e-05
3.53875e-05
3.5419e-05
3.54487e-05
3.54767e-05
3.55032e-05
3.5528e-05
3.55513e-05
3.55733e-05
3.55939e-05
3.56132e-05
3.56309e-05
3.56467e-05
3.56602e-05
3.56713e-05
3.56798e-05
3.56857e-05
3.5689e-05
3.56897e-05
3.56878e-05
3.56833e-05
3.56761e-05
3.56663e-05
3.56539e-05
3.56388e-05
3.56211e-05
3.56008e-05
3.55779e-05
3.55527e-05
3.55252e-05
3.54954e-05
3.54637e-05
3.54302e-05
3.53952e-05
3.53588e-05
3.53213e-05
3.5283e-05
3.52441e-05
3.5205e-05
3.51659e-05
3.51271e-05
3.50889e-05
3.50516e-05
3.50154e-05
3.49806e-05
3.49475e-05
3.49161e-05
3.48867e-05
3.48592e-05
3.48337e-05
3.48101e-05
3.47886e-05
3.4769e-05
3.47507e-05
3.47333e-05
3.47163e-05
3.47001e-05
3.46853e-05
3.46738e-05
3.46666e-05
3.46606e-05
3.46558e-05
3.46471e-05
3.46269e-05
3.46037e-05
3.45865e-05
3.45782e-05
3.8466e-05
3.85358e-05
3.86007e-05
3.8661e-05
3.87177e-05
3.87739e-05
3.88311e-05
3.88901e-05
3.89516e-05
3.90152e-05
3.90791e-05
3.91414e-05
3.92006e-05
3.92556e-05
3.93064e-05
3.93531e-05
3.93964e-05
3.94369e-05
3.9475e-05
3.95111e-05
3.95452e-05
3.95775e-05
3.9608e-05
3.96368e-05
3.96644e-05
3.96908e-05
3.97159e-05
3.97394e-05
3.97607e-05
3.97793e-05
3.97949e-05
3.98075e-05
3.98167e-05
3.98228e-05
3.98257e-05
3.98254e-05
3.9822e-05
3.98153e-05
3.98054e-05
3.97922e-05
3.97756e-05
3.97558e-05
3.97328e-05
3.97066e-05
3.96774e-05
3.96451e-05
3.961e-05
3.95723e-05
3.95322e-05
3.949e-05
3.94461e-05
3.94006e-05
3.93539e-05
3.93064e-05
3.92584e-05
3.92104e-05
3.91625e-05
3.91154e-05
3.90692e-05
3.90244e-05
3.89813e-05
3.89402e-05
3.89015e-05
3.88651e-05
3.88312e-05
3.87996e-05
3.87705e-05
3.87441e-05
3.87203e-05
3.86979e-05
3.8676e-05
3.86533e-05
3.86307e-05
3.86093e-05
3.85929e-05
3.85826e-05
3.8573e-05
3.85602e-05
3.85353e-05
3.84886e-05
3.84316e-05
3.83804e-05
3.83383e-05
4.21622e-05
4.22474e-05
4.23269e-05
4.2401e-05
4.24706e-05
4.25394e-05
4.26093e-05
4.26811e-05
4.27555e-05
4.2832e-05
4.29085e-05
4.29827e-05
4.30528e-05
4.3118e-05
4.31778e-05
4.32326e-05
4.32832e-05
4.33304e-05
4.33749e-05
4.3417e-05
4.34569e-05
4.34948e-05
4.35308e-05
4.35653e-05
4.35988e-05
4.36315e-05
4.36633e-05
4.36936e-05
4.37214e-05
4.3746e-05
4.37672e-05
4.37845e-05
4.37979e-05
4.38075e-05
4.38133e-05
4.38153e-05
4.38135e-05
4.38079e-05
4.37984e-05
4.37849e-05
4.37675e-05
4.3746e-05
4.37206e-05
4.36912e-05
4.3658e-05
4.3621e-05
4.35804e-05
4.35364e-05
4.34893e-05
4.34394e-05
4.33871e-05
4.33326e-05
4.32764e-05
4.3219e-05
4.31607e-05
4.3102e-05
4.30434e-05
4.29853e-05
4.29283e-05
4.28727e-05
4.2819e-05
4.27678e-05
4.27194e-05
4.26739e-05
4.26313e-05
4.25916e-05
4.2555e-05
4.25219e-05
4.2492e-05
4.24641e-05
4.24363e-05
4.24069e-05
4.23766e-05
4.23474e-05
4.23238e-05
4.23084e-05
4.22934e-05
4.22717e-05
4.22308e-05
4.21585e-05
4.20672e-05
4.19787e-05
4.19e-05
4.5635e-05
4.57376e-05
4.58339e-05
4.59238e-05
4.6008e-05
4.60909e-05
4.61745e-05
4.62598e-05
4.63476e-05
4.64371e-05
4.65259e-05
4.66116e-05
4.66923e-05
4.67668e-05
4.68348e-05
4.68967e-05
4.69536e-05
4.70066e-05
4.70563e-05
4.71032e-05
4.71479e-05
4.71905e-05
4.72314e-05
4.72711e-05
4.73104e-05
4.73498e-05
4.7389e-05
4.74269e-05
4.7462e-05
4.74936e-05
4.75209e-05
4.75436e-05
4.75618e-05
4.75754e-05
4.75846e-05
4.75894e-05
4.75899e-05
4.75859e-05
4.75774e-05
4.75643e-05
4.75464e-05
4.75238e-05
4.74964e-05
4.74643e-05
4.74274e-05
4.73859e-05
4.73398e-05
4.72894e-05
4.7235e-05
4.7177e-05
4.71156e-05
4.70514e-05
4.69846e-05
4.69159e-05
4.68458e-05
4.67747e-05
4.67033e-05
4.66321e-05
4.65618e-05
4.64928e-05
4.64259e-05
4.63615e-05
4.63004e-05
4.62426e-05
4.61884e-05
4.61376e-05
4.60906e-05
4.60478e-05
4.60092e-05
4.59733e-05
4.59376e-05
4.58997e-05
4.58601e-05
4.58213e-05
4.57883e-05
4.57649e-05
4.57422e-05
4.571e-05
4.56531e-05
4.55571e-05
4.54337e-05
4.53074e-05
4.51911e-05
4.8841e-05
4.89634e-05
4.90789e-05
4.91867e-05
4.9287e-05
4.9385e-05
4.94829e-05
4.95819e-05
4.96827e-05
4.97844e-05
4.98845e-05
4.99802e-05
5.00695e-05
5.01516e-05
5.02259e-05
5.02931e-05
5.03542e-05
5.04106e-05
5.04633e-05
5.0513e-05
5.05602e-05
5.06057e-05
5.06501e-05
5.06941e-05
5.07388e-05
5.07849e-05
5.08317e-05
5.08776e-05
5.09206e-05
5.09593e-05
5.09931e-05
5.10214e-05
5.10444e-05
5.10622e-05
5.1075e-05
5.10829e-05
5.10858e-05
5.10837e-05
5.10766e-05
5.10642e-05
5.10464e-05
5.10232e-05
5.09944e-05
5.09599e-05
5.09199e-05
5.08741e-05
5.08229e-05
5.07662e-05
5.07045e-05
5.06381e-05
5.05673e-05
5.04926e-05
5.04145e-05
5.03334e-05
5.025e-05
5.01648e-05
5.00786e-05
4.9992e-05
4.99056e-05
4.98203e-05
4.97367e-05
4.96556e-05
4.95779e-05
4.95039e-05
4.94338e-05
4.93677e-05
4.93061e-05
4.92497e-05
4.91984e-05
4.91507e-05
4.91038e-05
4.90546e-05
4.90032e-05
4.89525e-05
4.89072e-05
4.88724e-05
4.88384e-05
4.87933e-05
4.87198e-05
4.86021e-05
4.84502e-05
4.82888e-05
4.81364e-05
5.17543e-05
5.18994e-05
5.20366e-05
5.21643e-05
5.2282e-05
5.23956e-05
5.25077e-05
5.26195e-05
5.27318e-05
5.28436e-05
5.29523e-05
5.30551e-05
5.31501e-05
5.32364e-05
5.33138e-05
5.33828e-05
5.34446e-05
5.35008e-05
5.35528e-05
5.36015e-05
5.3648e-05
5.36934e-05
5.37389e-05
5.37857e-05
5.38349e-05
5.38871e-05
5.39412e-05
5.39948e-05
5.40452e-05
5.40907e-05
5.41303e-05
5.41636e-05
5.41907e-05
5.4212e-05
5.42277e-05
5.4238e-05
5.4243e-05
5.42426e-05
5.42367e-05
5.42251e-05
5.42076e-05
5.4184e-05
5.4154e-05
5.41178e-05
5.40749e-05
5.40255e-05
5.39694e-05
5.39069e-05
5.38382e-05
5.37634e-05
5.36832e-05
5.35977e-05
5.35076e-05
5.34134e-05
5.33155e-05
5.32148e-05
5.31119e-05
5.30075e-05
5.29024e-05
5.27975e-05
5.26936e-05
5.25917e-05
5.24928e-05
5.23976e-05
5.23064e-05
5.22196e-05
5.21379e-05
5.20621e-05
5.19925e-05
5.19276e-05
5.18645e-05
5.17994e-05
5.17322e-05
5.16659e-05
5.16048e-05
5.15541e-05
5.15044e-05
5.14427e-05
5.13506e-05
5.12125e-05
5.1036e-05
5.08442e-05
5.06587e-05
5.43759e-05
5.45473e-05
5.47088e-05
5.48581e-05
5.49935e-05
5.5122e-05
5.52469e-05
5.53694e-05
5.54901e-05
5.56083e-05
5.57215e-05
5.58268e-05
5.59226e-05
5.60081e-05
5.60834e-05
5.61489e-05
5.6206e-05
5.62565e-05
5.63022e-05
5.63446e-05
5.63853e-05
5.64264e-05
5.64701e-05
5.65175e-05
5.65695e-05
5.66264e-05
5.66864e-05
5.67462e-05
5.68022e-05
5.68524e-05
5.68958e-05
5.69319e-05
5.6961e-05
5.69836e-05
5.70002e-05
5.70112e-05
5.70166e-05
5.70165e-05
5.70107e-05
5.6999e-05
5.69811e-05
5.69567e-05
5.69255e-05
5.68874e-05
5.6842e-05
5.67891e-05
5.67287e-05
5.66607e-05
5.65853e-05
5.65027e-05
5.64132e-05
5.63172e-05
5.62151e-05
5.61074e-05
5.59946e-05
5.58774e-05
5.57564e-05
5.56325e-05
5.55064e-05
5.53789e-05
5.52512e-05
5.51243e-05
5.49994e-05
5.48774e-05
5.47591e-05
5.4645e-05
5.45361e-05
5.44336e-05
5.43381e-05
5.42485e-05
5.41619e-05
5.40742e-05
5.3985e-05
5.38974e-05
5.38151e-05
5.37427e-05
5.36714e-05
5.35877e-05
5.34736e-05
5.33145e-05
5.31163e-05
5.28992e-05
5.26854e-05
5.67458e-05
5.69481e-05
5.71363e-05
5.73077e-05
5.74598e-05
5.76014e-05
5.7736e-05
5.7865e-05
5.79894e-05
5.81082e-05
5.82195e-05
5.83207e-05
5.84103e-05
5.84878e-05
5.85534e-05
5.86079e-05
5.86527e-05
5.86897e-05
5.87213e-05
5.87499e-05
5.87785e-05
5.88103e-05
5.88484e-05
5.88936e-05
5.89459e-05
5.90047e-05
5.90672e-05
5.91293e-05
5.9187e-05
5.92375e-05
5.928e-05
5.93143e-05
5.93408e-05
5.93603e-05
5.93736e-05
5.93812e-05
5.93833e-05
5.93801e-05
5.93715e-05
5.93571e-05
5.93367e-05
5.93097e-05
5.9276e-05
5.9235e-05
5.91865e-05
5.91299e-05
5.90652e-05
5.8992e-05
5.89103e-05
5.88204e-05
5.87222e-05
5.86162e-05
5.85027e-05
5.83819e-05
5.82544e-05
5.81207e-05
5.79814e-05
5.78372e-05
5.76888e-05
5.7537e-05
5.73829e-05
5.72276e-05
5.70724e-05
5.69184e-05
5.67666e-05
5.66181e-05
5.6474e-05
5.63362e-05
5.62056e-05
5.60817e-05
5.59618e-05
5.58419e-05
5.57216e-05
5.56037e-05
5.54921e-05
5.53898e-05
5.5289e-05
5.51763e-05
5.50346e-05
5.48517e-05
5.46327e-05
5.43942e-05
5.41566e-05
5.39037e-05
5.91996e-05
5.94156e-05
5.96081e-05
5.97738e-05
5.99241e-05
6.00632e-05
6.01927e-05
6.03134e-05
6.04249e-05
6.05256e-05
6.06135e-05
6.06876e-05
6.07473e-05
6.07934e-05
6.08266e-05
6.08486e-05
6.08616e-05
6.08691e-05
6.08752e-05
6.08844e-05
6.09016e-05
6.09303e-05
6.09698e-05
6.10182e-05
6.10735e-05
6.11322e-05
6.11895e-05
6.12408e-05
6.12835e-05
6.13168e-05
6.13409e-05
6.13564e-05
6.13647e-05
6.13667e-05
6.13634e-05
6.13552e-05
6.13422e-05
6.13246e-05
6.13021e-05
6.12742e-05
6.12405e-05
6.12005e-05
6.11537e-05
6.10997e-05
6.10378e-05
6.09676e-05
6.08886e-05
6.08007e-05
6.07036e-05
6.05974e-05
6.04823e-05
6.03584e-05
6.02259e-05
6.0085e-05
5.99362e-05
5.97797e-05
5.96162e-05
5.94461e-05
5.92702e-05
5.90892e-05
5.89042e-05
5.87164e-05
5.85271e-05
5.83373e-05
5.81483e-05
5.79618e-05
5.77798e-05
5.76042e-05
5.74351e-05
5.72701e-05
5.71059e-05
5.6942e-05
5.6781e-05
5.66274e-05
5.64833e-05
5.63421e-05
5.61908e-05
5.60135e-05
5.58016e-05
5.55598e-05
5.5301e-05
5.50427e-05
5.47844e-05
5.45211e-05
5.42673e-05
6.14818e-05
6.17225e-05
6.19322e-05
6.21056e-05
6.22577e-05
6.23936e-05
6.2515e-05
6.26224e-05
6.27161e-05
6.27951e-05
6.28583e-05
6.29048e-05
6.29345e-05
6.29481e-05
6.29469e-05
6.29328e-05
6.29094e-05
6.28817e-05
6.28565e-05
6.28405e-05
6.28389e-05
6.28542e-05
6.2883e-05
6.29204e-05
6.29629e-05
6.30065e-05
6.30462e-05
6.30778e-05
6.30987e-05
6.31087e-05
6.31084e-05
6.30991e-05
6.30823e-05
6.30597e-05
6.30325e-05
6.30014e-05
6.29668e-05
6.29291e-05
6.2888e-05
6.28432e-05
6.27941e-05
6.27401e-05
6.26807e-05
6.26156e-05
6.25438e-05
6.24646e-05
6.23772e-05
6.22813e-05
6.21763e-05
6.2062e-05
6.19384e-05
6.18054e-05
6.1663e-05
6.15113e-05
6.13501e-05
6.11797e-05
6.10002e-05
6.08119e-05
6.06152e-05
6.04104e-05
6.01983e-05
5.99799e-05
5.97561e-05
5.9528e-05
5.92968e-05
5.90642e-05
5.88325e-05
5.86042e-05
5.83802e-05
5.81589e-05
5.79376e-05
5.77155e-05
5.7495e-05
5.72816e-05
5.70785e-05
5.68811e-05
5.66776e-05
5.64538e-05
5.62045e-05
5.59348e-05
5.56538e-05
5.53739e-05
5.50984e-05
5.48157e-05
5.45095e-05
6.40857e-05
6.4345e-05
6.45646e-05
6.47365e-05
6.48808e-05
6.50033e-05
6.51056e-05
6.51882e-05
6.52514e-05
6.52953e-05
6.53197e-05
6.53245e-05
6.53095e-05
6.52753e-05
6.52241e-05
6.51593e-05
6.5087e-05
6.50159e-05
6.49553e-05
6.49123e-05
6.48898e-05
6.48868e-05
6.48962e-05
6.49102e-05
6.49238e-05
6.49334e-05
6.49352e-05
6.49254e-05
6.49026e-05
6.4867e-05
6.48203e-05
6.47639e-05
6.47002e-05
6.46314e-05
6.45592e-05
6.44847e-05
6.44086e-05
6.43315e-05
6.42537e-05
6.41749e-05
6.40943e-05
6.40116e-05
6.39264e-05
6.38384e-05
6.37467e-05
6.36503e-05
6.3548e-05
6.34391e-05
6.33226e-05
6.31981e-05
6.30652e-05
6.29237e-05
6.27732e-05
6.26135e-05
6.24442e-05
6.22651e-05
6.20759e-05
6.18763e-05
6.16664e-05
6.14461e-05
6.12155e-05
6.09751e-05
6.07253e-05
6.04668e-05
6.02002e-05
5.99269e-05
5.9649e-05
5.93687e-05
5.90877e-05
5.88051e-05
5.85187e-05
5.82267e-05
5.79307e-05
5.76367e-05
5.73515e-05
5.70759e-05
5.68008e-05
5.65138e-05
5.62147e-05
5.59091e-05
5.56004e-05
5.52928e-05
5.49888e-05
5.46783e-05
5.43422e-05
6.74722e-05
6.77406e-05
6.79595e-05
6.81179e-05
6.82423e-05
6.8339e-05
6.84095e-05
6.84535e-05
6.84715e-05
6.84647e-05
6.84344e-05
6.83809e-05
6.83043e-05
6.82056e-05
6.80888e-05
6.79618e-05
6.78365e-05
6.7725e-05
6.76354e-05
6.75692e-05
6.75231e-05
6.74915e-05
6.74644e-05
6.74327e-05
6.73911e-05
6.73372e-05
6.72697e-05
6.71865e-05
6.7087e-05
6.69729e-05
6.68465e-05
6.671e-05
6.65663e-05
6.64182e-05
6.62683e-05
6.61181e-05
6.59689e-05
6.58216e-05
6.5677e-05
6.55352e-05
6.53957e-05
6.52582e-05
6.51231e-05
6.49904e-05
6.48595e-05
6.47292e-05
6.45979e-05
6.44644e-05
6.43274e-05
6.4186e-05
6.40394e-05
6.3887e-05
6.37282e-05
6.35625e-05
6.33894e-05
6.32081e-05
6.30178e-05
6.28178e-05
6.26075e-05
6.23862e-05
6.21535e-05
6.1909e-05
6.16525e-05
6.13839e-05
6.11031e-05
6.08106e-05
6.05072e-05
6.01945e-05
5.98734e-05
5.95429e-05
5.92007e-05
5.88427e-05
5.84674e-05
5.80802e-05
5.76907e-05
5.73092e-05
5.69352e-05
5.65568e-05
5.61857e-05
5.58333e-05
5.54895e-05
5.51427e-05
5.47939e-05
5.44533e-05
5.41218e-05
7.25439e-05
7.27993e-05
7.29941e-05
7.31149e-05
7.31954e-05
7.32418e-05
7.32558e-05
7.32361e-05
7.31827e-05
7.30985e-05
7.29864e-05
7.28483e-05
7.26853e-05
7.25011e-05
7.23055e-05
7.21164e-05
7.19524e-05
7.18201e-05
7.17138e-05
7.16229e-05
7.15369e-05
7.14483e-05
7.13487e-05
7.1231e-05
7.10909e-05
7.09284e-05
7.07451e-05
7.05414e-05
7.03181e-05
7.00777e-05
6.98234e-05
6.95584e-05
6.9286e-05
6.90099e-05
6.87333e-05
6.84587e-05
6.81879e-05
6.79226e-05
6.76638e-05
6.74123e-05
6.71684e-05
6.6933e-05
6.67072e-05
6.64919e-05
6.62871e-05
6.60917e-05
6.59042e-05
6.57229e-05
6.55465e-05
6.53735e-05
6.52021e-05
6.50309e-05
6.48585e-05
6.4684e-05
6.4507e-05
6.43275e-05
6.41445e-05
6.39568e-05
6.3763e-05
6.35619e-05
6.33525e-05
6.31332e-05
6.29032e-05
6.26614e-05
6.24071e-05
6.21395e-05
6.18586e-05
6.15642e-05
6.12558e-05
6.09302e-05
6.05814e-05
6.02014e-05
5.97831e-05
5.93283e-05
5.88434e-05
5.83372e-05
5.78343e-05
5.73109e-05
5.68168e-05
5.64117e-05
5.60333e-05
5.56344e-05
5.52202e-05
5.48549e-05
5.46129e-05
5.44911e-05
5.46532e-05
5.49672e-05
8.2394e-05
8.26964e-05
8.29162e-05
8.30433e-05
8.31162e-05
8.31431e-05
8.31274e-05
8.30666e-05
8.29602e-05
8.28123e-05
8.2628e-05
8.24099e-05
8.21577e-05
8.18696e-05
8.15473e-05
8.11982e-05
8.08345e-05
8.0467e-05
8.01015e-05
7.97386e-05
7.93757e-05
7.90091e-05
7.86332e-05
7.82434e-05
7.78375e-05
7.74151e-05
7.69758e-05
7.65195e-05
7.60473e-05
7.5562e-05
7.5067e-05
7.45661e-05
7.4063e-05
7.35613e-05
7.30641e-05
7.25742e-05
7.20938e-05
7.16252e-05
7.11686e-05
7.07252e-05
7.02985e-05
6.98912e-05
6.95045e-05
6.91399e-05
6.87987e-05
6.84817e-05
6.81883e-05
6.79181e-05
6.76703e-05
6.74419e-05
6.72282e-05
6.7024e-05
6.6825e-05
6.66277e-05
6.64306e-05
6.6238e-05
6.6056e-05
6.58844e-05
6.57225e-05
6.55678e-05
6.54174e-05
6.52694e-05
6.51217e-05
6.49724e-05
6.48204e-05
6.46642e-05
6.45044e-05
6.43416e-05
6.41758e-05
6.40034e-05
6.38141e-05
6.35941e-05
6.33271e-05
6.30101e-05
6.26662e-05
6.23266e-05
6.20016e-05
6.17021e-05
6.14103e-05
6.10984e-05
6.07347e-05
6.02943e-05
5.98065e-05
5.94049e-05
5.92194e-05
5.93536e-05
5.99335e-05
6.07291e-05
9.78451e-05
9.79742e-05
9.80373e-05
9.80423e-05
9.79863e-05
9.78686e-05
9.76946e-05
9.74727e-05
9.72081e-05
9.68995e-05
9.65418e-05
9.61321e-05
9.56734e-05
9.51743e-05
9.46447e-05
9.40921e-05
9.35219e-05
9.29352e-05
9.23317e-05
9.17097e-05
9.10687e-05
9.04094e-05
8.97319e-05
8.90358e-05
8.83218e-05
8.75917e-05
8.68481e-05
8.60942e-05
8.53341e-05
8.45719e-05
8.38113e-05
8.30558e-05
8.23085e-05
8.15726e-05
8.08509e-05
8.01415e-05
7.94493e-05
7.87768e-05
7.81295e-05
7.75106e-05
7.69232e-05
7.63702e-05
7.58548e-05
7.53768e-05
7.49339e-05
7.45255e-05
7.41512e-05
7.38099e-05
7.35012e-05
7.32246e-05
7.29785e-05
7.27598e-05
7.25656e-05
7.23946e-05
7.22457e-05
7.21166e-05
7.20054e-05
7.19097e-05
7.18272e-05
7.17564e-05
7.16962e-05
7.1646e-05
7.16055e-05
7.15769e-05
7.15653e-05
7.15724e-05
7.15997e-05
7.16404e-05
7.16698e-05
7.16312e-05
7.14924e-05
7.12874e-05
7.10625e-05
7.08533e-05
7.0677e-05
7.04909e-05
7.02351e-05
6.98781e-05
6.93976e-05
6.88362e-05
6.83726e-05
6.81714e-05
6.83907e-05
6.92779e-05
7.03653e-05
0.000117501
0.000117755
0.000117921
0.000118007
0.000118009
0.000117928
0.000117771
0.00011755
0.000117274
0.000116943
0.00011655
0.000116087
0.000115555
0.000114962
0.000114317
0.00011363
0.000112905
0.000112144
0.000111349
0.000110521
0.000109661
0.000108775
0.000107864
0.000106929
0.000105971
0.000104992
0.000103993
0.000102978
0.000101951
0.000100916
9.98791e-05
9.88429e-05
9.78115e-05
9.67887e-05
9.57784e-05
9.47843e-05
9.38097e-05
9.28557e-05
9.19264e-05
9.10286e-05
9.01672e-05
8.93468e-05
8.85705e-05
8.78397e-05
8.71555e-05
8.65196e-05
8.59337e-05
8.53997e-05
8.49211e-05
8.44987e-05
8.41316e-05
8.38175e-05
8.35532e-05
8.33324e-05
8.3153e-05
8.30131e-05
8.291e-05
8.28396e-05
8.27978e-05
8.27808e-05
8.2786e-05
8.28105e-05
8.28515e-05
8.29088e-05
8.29869e-05
8.30951e-05
8.32416e-05
8.34419e-05
8.37308e-05
8.41006e-05
8.43019e-05
8.43072e-05
8.42067e-05
8.40696e-05
8.39333e-05
8.37659e-05
8.35126e-05
8.31353e-05
8.26108e-05
8.19781e-05
8.14097e-05
8.10595e-05
8.10344e-05
8.14045e-05
8.1906e-05
8.04679e-05
7.41021e-05
6.33914e-05
5.58306e-05
5.79394e-05
0.000141892
0.000142376
0.000142734
0.000142976
0.000143101
0.000143112
0.000143021
0.000142843
0.000142595
0.000142279
0.000141884
0.0001414
0.000140824
0.000140164
0.000139433
0.000138642
0.000137797
0.0001369
0.000135949
0.000134948
0.000133901
0.000132814
0.000131692
0.000130535
0.000129344
0.000128121
0.000126868
0.000125589
0.00012429
0.000122975
0.00012165
0.000120318
0.000118983
0.000117651
0.000116325
0.000115013
0.000113719
0.000112443
0.000111187
0.000109959
0.000108766
0.000107615
0.000106514
0.000105463
0.000104468
0.00010353
0.000102656
0.00010185
0.000101117
0.000100463
9.98879e-05
9.93929e-05
9.89759e-05
9.86291e-05
9.83507e-05
9.81393e-05
9.79909e-05
9.78987e-05
9.78548e-05
9.78521e-05
9.78838e-05
9.79425e-05
9.80207e-05
9.8112e-05
9.82137e-05
9.83253e-05
9.8445e-05
9.85634e-05
9.86575e-05
9.86847e-05
9.86002e-05
9.84235e-05
9.81953e-05
9.79493e-05
9.77048e-05
9.7424e-05
9.7054e-05
9.65608e-05
9.59221e-05
9.51696e-05
9.44525e-05
9.39021e-05
9.36006e-05
9.35822e-05
9.36221e-05
9.19351e-05
8.51351e-05
7.24867e-05
6.05071e-05
5.8972e-05
0.000168723
0.000169139
0.00016945
0.000169659
0.000169758
0.000169744
0.000169625
0.00016942
0.000169145
0.000168805
0.000168384
0.000167864
0.000167239
0.000166516
0.000165711
0.000164836
0.000163897
0.000162896
0.000161828
0.000160693
0.000159498
0.000158251
0.000156957
0.000155617
0.000154232
0.000152804
0.000151337
0.000149833
0.000148298
0.000146739
0.00014516
0.000143565
0.00014196
0.000140349
0.000138738
0.000137132
0.000135538
0.000133958
0.000132395
0.000130856
0.000129351
0.000127886
0.000126466
0.000125096
0.000123779
0.000122522
0.000121329
0.000120206
0.000119158
0.000118191
0.000117309
0.000116513
0.000115805
0.000115181
0.000114642
0.000114184
0.000113806
0.000113502
0.000113267
0.000113094
0.000112976
0.000112904
0.000112867
0.000112854
0.000112857
0.000112867
0.000112876
0.000112868
0.000112815
0.000112691
0.000112478
0.000112186
0.000111858
0.000111511
0.000111156
0.000110755
0.000110262
0.000109646
0.000108887
0.000108013
0.000107147
0.000106399
0.000105833
0.000105465
0.000105092
0.000103162
9.62753e-05
8.27391e-05
6.71159e-05
6.10838e-05
0.000195406
0.000195779
0.000196068
0.000196269
0.000196358
0.000196333
0.000196204
0.000195987
0.000195703
0.000195356
0.000194931
0.000194399
0.000193747
0.000192981
0.00019212
0.000191182
0.000190173
0.000189092
0.000187933
0.000186691
0.000185372
0.000183987
0.000182544
0.000181043
0.000179485
0.000177874
0.000176212
0.000174501
0.000172748
0.000170959
0.000169139
0.000167292
0.000165424
0.000163539
0.000161643
0.000159742
0.000157842
0.000155948
0.000154064
0.000152195
0.000150352
0.000148541
0.000146767
0.000145037
0.000143355
0.000141728
0.000140164
0.000138667
0.000137246
0.000135906
0.000134654
0.000133493
0.000132428
0.00013146
0.00013059
0.000129818
0.000129143
0.000128563
0.000128073
0.000127668
0.000127341
0.000127081
0.000126878
0.000126717
0.000126586
0.000126474
0.000126369
0.000126251
0.000126097
0.000125883
0.000125596
0.000125237
0.000124829
0.000124395
0.000123937
0.000123423
0.000122813
0.000122079
0.000121208
0.00012022
0.000119216
0.000118281
0.000117463
0.000116765
0.000116011
0.000113869
0.000107106
9.34844e-05
7.56177e-05
6.45192e-05
0.000222269
0.000222569
0.000222819
0.000223003
0.00022307
0.000223022
0.000222875
0.000222643
0.000222348
0.000222001
0.000221581
0.000221049
0.000220383
0.000219586
0.000218681
0.000217692
0.000216629
0.000215488
0.000214259
0.00021293
0.000211507
0.000210002
0.000208425
0.00020678
0.000205066
0.000203289
0.000201448
0.000199546
0.000197588
0.000195582
0.000193532
0.000191442
0.000189318
0.000187164
0.000184987
0.000182791
0.000180584
0.000178369
0.000176153
0.000173941
0.000171739
0.000169558
0.000167404
0.000165281
0.000163197
0.000161158
0.000159174
0.000157251
0.000155398
0.000153623
0.000151934
0.000150339
0.000148843
0.000147452
0.00014617
0.000145001
0.000143947
0.000143008
0.000142182
0.000141468
0.000140858
0.000140345
0.000139915
0.000139555
0.000139252
0.00013899
0.000138754
0.000138524
0.000138274
0.000137981
0.000137629
0.00013722
0.000136747
0.000136234
0.000135681
0.000135062
0.000134342
0.000133501
0.000132528
0.000131438