/*--------------------------------*- C++ -*----------------------------------*\
| =========                 |                                                 |
| \\      /  F ield         | OpenFOAM: The Open Source CFD Toolbox           |
|  \\    /   O peration     | Version:  2412                                  |
|   \\  /    A nd           | Website:  www.openfoam.com                      |
|    \\/     M anipulation  |                                                 |
\*---------------------------------------------------------------------------*/
FoamFile
{
    version     2.0;
    format      ascii;
    arch        "LSB;label=32;scalar=64";
    class       volScalarField;
    location    "360";
    object      nuTilda;
}
// * * * * * * * * * * * * * * * * * * * * * * * * * * * * * * * * * * * * * //

dimensions      [0 2 -1 0 0 0 0];

internalField   nonuniform List<scalar> 
7387
(
1.22544e-06
1.21012e-06
1.19467e-06
1.17912e-06
1.16348e-06
1.14777e-06
1.13199e-06
1.11614e-06
1.1002e-06
1.0842e-06
1.06816e-06
1.05212e-06
1.03603e-06
1.01995e-06
1.00392e-06
9.8794e-07
9.72e-07
9.56132e-07
9.40373e-07
9.24773e-07
9.0933e-07
8.94055e-07
8.79004e-07
8.64171e-07
8.49589e-07
8.35295e-07
8.21274e-07
8.07551e-07
7.94157e-07
7.81102e-07
7.68398e-07
7.56047e-07
7.44078e-07
7.3249e-07
7.21291e-07
7.10489e-07
7.00084e-07
6.90088e-07
6.8051e-07
6.71345e-07
6.62596e-07
6.54301e-07
6.46464e-07
6.39064e-07
6.3207e-07
6.25508e-07
6.19499e-07
6.14179e-07
6.09566e-07
6.05355e-07
6.01372e-07
5.97515e-07
5.94463e-07
5.93121e-07
5.93893e-07
5.97033e-07
6.00986e-07
6.04137e-07
6.06619e-07
6.07652e-07
6.09167e-07
6.16288e-07
6.32196e-07
6.59178e-07
7.01565e-07
7.68963e-07
8.19703e-07
7.97792e-07
6.70482e-07
4.29721e-07
3.45081e-07
3.81461e-07
3.84132e-06
3.79334e-06
3.74494e-06
3.6962e-06
3.6472e-06
3.598e-06
3.54855e-06
3.49886e-06
3.44896e-06
3.39884e-06
3.34858e-06
3.29824e-06
3.24785e-06
3.1975e-06
3.14727e-06
3.09718e-06
3.04723e-06
2.99752e-06
2.94816e-06
2.89927e-06
2.85087e-06
2.80301e-06
2.75583e-06
2.70935e-06
2.66366e-06
2.61883e-06
2.57487e-06
2.53188e-06
2.4899e-06
2.44898e-06
2.40916e-06
2.37046e-06
2.33294e-06
2.29662e-06
2.26151e-06
2.22765e-06
2.19504e-06
2.16372e-06
2.13368e-06
2.10495e-06
2.07754e-06
2.05152e-06
2.02694e-06
2.00374e-06
1.98182e-06
1.96124e-06
1.94238e-06
1.92568e-06
1.91117e-06
1.89793e-06
1.88542e-06
1.87331e-06
1.86371e-06
1.85938e-06
1.8616e-06
1.8711e-06
1.88315e-06
1.89281e-06
1.90043e-06
1.90363e-06
1.90838e-06
1.93028e-06
1.97906e-06
2.06178e-06
2.19133e-06
2.39442e-06
2.54667e-06
2.48498e-06
2.10061e-06
1.35039e-06
1.07797e-06
1.19147e-06
6.81082e-06
6.72582e-06
6.64012e-06
6.55379e-06
6.46702e-06
6.37989e-06
6.29235e-06
6.20438e-06
6.11603e-06
6.02731e-06
5.93829e-06
5.84913e-06
5.75992e-06
5.6708e-06
5.58185e-06
5.49313e-06
5.40469e-06
5.31669e-06
5.22932e-06
5.14273e-06
5.05701e-06
4.97227e-06
4.88871e-06
4.8064e-06
4.72548e-06
4.64605e-06
4.5682e-06
4.49205e-06
4.41769e-06
4.3452e-06
4.27467e-06
4.20612e-06
4.13965e-06
4.07531e-06
4.01312e-06
3.95312e-06
3.89537e-06
3.83988e-06
3.78667e-06
3.73576e-06
3.68719e-06
3.64108e-06
3.59753e-06
3.5564e-06
3.51754e-06
3.48106e-06
3.44759e-06
3.41788e-06
3.392e-06
3.36842e-06
3.34617e-06
3.3247e-06
3.30756e-06
3.29947e-06
3.30267e-06
3.31837e-06
3.33857e-06
3.35495e-06
3.36786e-06
3.37343e-06
3.38178e-06
3.41906e-06
3.50186e-06
3.642e-06
3.86079e-06
4.19665e-06
4.44804e-06
4.36046e-06
3.72887e-06
2.42518e-06
1.90681e-06
2.11034e-06
1.01847e-05
1.00579e-05
9.92993e-06
9.8011e-06
9.6716e-06
9.54157e-06
9.41097e-06
9.27975e-06
9.14793e-06
9.01556e-06
8.88274e-06
8.74974e-06
8.61667e-06
8.48371e-06
8.35099e-06
8.21863e-06
8.08671e-06
7.95546e-06
7.82513e-06
7.69593e-06
7.56802e-06
7.44161e-06
7.31692e-06
7.1941e-06
7.07335e-06
6.95482e-06
6.83867e-06
6.72503e-06
6.61406e-06
6.50588e-06
6.40061e-06
6.29832e-06
6.19912e-06
6.10308e-06
6.01027e-06
5.92073e-06
5.83453e-06
5.75171e-06
5.6723e-06
5.59633e-06
5.52384e-06
5.455e-06
5.38996e-06
5.32854e-06
5.2705e-06
5.216e-06
5.16594e-06
5.12136e-06
5.08235e-06
5.04686e-06
5.01345e-06
4.98137e-06
4.95551e-06
4.94249e-06
4.94564e-06
4.96653e-06
4.99417e-06
5.01696e-06
5.03491e-06
5.04302e-06
5.05532e-06
5.10764e-06
5.22346e-06
5.4191e-06
5.72375e-06
6.17911e-06
6.51954e-06
6.42718e-06
5.58578e-06
3.72309e-06
2.8512e-06
3.16886e-06
1.40204e-05
1.38462e-05
1.36706e-05
1.34938e-05
1.3316e-05
1.31376e-05
1.29583e-05
1.27783e-05
1.25974e-05
1.24158e-05
1.22336e-05
1.20511e-05
1.18685e-05
1.16861e-05
1.1504e-05
1.13224e-05
1.11415e-05
1.09615e-05
1.07827e-05
1.06054e-05
1.043e-05
1.02565e-05
1.00854e-05
9.91694e-06
9.75124e-06
9.58862e-06
9.42925e-06
9.27333e-06
9.12107e-06
8.97262e-06
8.82817e-06
8.68781e-06
8.55171e-06
8.41993e-06
8.29257e-06
8.16971e-06
8.05143e-06
7.9378e-06
7.82886e-06
7.72462e-06
7.62516e-06
7.53068e-06
7.44136e-06
7.35701e-06
7.27732e-06
7.20247e-06
7.13361e-06
7.072e-06
7.01785e-06
6.9686e-06
6.9224e-06
6.87829e-06
6.84229e-06
6.82271e-06
6.82404e-06
6.8481e-06
6.88142e-06
6.90961e-06
6.93186e-06
6.94252e-06
6.95906e-06
7.02506e-06
7.17037e-06
7.41553e-06
7.797e-06
8.34914e-06
8.76078e-06
8.68684e-06
7.69848e-06
5.32326e-06
3.9464e-06
4.40892e-06
1.83831e-05
1.81556e-05
1.79263e-05
1.76954e-05
1.74632e-05
1.723e-05
1.6996e-05
1.67609e-05
1.65247e-05
1.62876e-05
1.60498e-05
1.58116e-05
1.55733e-05
1.53352e-05
1.50976e-05
1.48606e-05
1.46244e-05
1.43895e-05
1.41562e-05
1.39249e-05
1.36959e-05
1.34696e-05
1.32463e-05
1.30264e-05
1.28101e-05
1.25978e-05
1.23898e-05
1.21863e-05
1.19876e-05
1.17939e-05
1.16053e-05
1.14222e-05
1.12445e-05
1.10726e-05
1.09064e-05
1.0746e-05
1.05917e-05
1.04434e-05
1.03013e-05
1.01653e-05
1.00355e-05
9.91216e-06
9.79551e-06
9.68534e-06
9.58128e-06
9.48354e-06
9.39338e-06
9.31232e-06
9.24063e-06
9.17547e-06
9.11458e-06
9.05686e-06
9.00905e-06
8.98075e-06
8.97762e-06
9.00153e-06
9.03747e-06
9.06914e-06
9.09427e-06
9.10724e-06
9.12816e-06
9.20532e-06
9.37378e-06
9.65791e-06
1.01012e-05
1.07188e-05
1.11757e-05
1.11401e-05
1.00868e-05
7.30554e-06
5.26786e-06
5.86467e-06
2.33485e-05
2.30608e-05
2.27709e-05
2.24789e-05
2.21854e-05
2.18906e-05
2.15948e-05
2.12977e-05
2.09995e-05
2.07e-05
2.03996e-05
2.00988e-05
1.97978e-05
1.94971e-05
1.9197e-05
1.88978e-05
1.85997e-05
1.83031e-05
1.80086e-05
1.77165e-05
1.74275e-05
1.71418e-05
1.68599e-05
1.65823e-05
1.63093e-05
1.60413e-05
1.57787e-05
1.55218e-05
1.5271e-05
1.50264e-05
1.47884e-05
1.45572e-05
1.4333e-05
1.4116e-05
1.39062e-05
1.37039e-05
1.35092e-05
1.33221e-05
1.31427e-05
1.29711e-05
1.28074e-05
1.26517e-05
1.25044e-05
1.23653e-05
1.22339e-05
1.21104e-05
1.19962e-05
1.18929e-05
1.18009e-05
1.17173e-05
1.16396e-05
1.15665e-05
1.15049e-05
1.14651e-05
1.14538e-05
1.14727e-05
1.15066e-05
1.15385e-05
1.15642e-05
1.15788e-05
1.16041e-05
1.16886e-05
1.18707e-05
1.21784e-05
1.26624e-05
1.33063e-05
1.3774e-05
1.37882e-05
1.27606e-05
9.74295e-06
6.91525e-06
7.56336e-06
2.90049e-05
2.86491e-05
2.82909e-05
2.793e-05
2.75673e-05
2.72032e-05
2.68377e-05
2.64708e-05
2.61026e-05
2.5733e-05
2.53624e-05
2.49912e-05
2.46198e-05
2.42489e-05
2.38787e-05
2.35097e-05
2.31421e-05
2.27765e-05
2.24133e-05
2.20532e-05
2.16968e-05
2.13446e-05
2.09971e-05
2.06549e-05
2.03184e-05
1.9988e-05
1.96644e-05
1.93477e-05
1.90385e-05
1.87371e-05
1.84438e-05
1.81589e-05
1.78826e-05
1.76153e-05
1.73569e-05
1.71077e-05
1.68678e-05
1.66374e-05
1.64165e-05
1.62051e-05
1.60035e-05
1.58117e-05
1.56301e-05
1.54585e-05
1.52966e-05
1.51443e-05
1.5003e-05
1.48744e-05
1.47589e-05
1.46539e-05
1.45568e-05
1.44663e-05
1.43887e-05
1.43338e-05
1.43094e-05
1.43166e-05
1.43417e-05
1.43691e-05
1.43918e-05
1.44068e-05
1.4436e-05
1.45227e-05
1.47056e-05
1.50162e-05
1.55134e-05
1.61387e-05
1.65735e-05
1.66356e-05
1.57198e-05
1.26718e-05
8.9642e-06
9.51739e-06
3.54609e-05
3.50276e-05
3.45916e-05
3.41525e-05
3.37112e-05
3.32684e-05
3.28241e-05
3.23784e-05
3.19311e-05
3.14825e-05
3.10326e-05
3.05821e-05
3.01317e-05
2.96817e-05
2.92329e-05
2.87855e-05
2.834e-05
2.78969e-05
2.74569e-05
2.70207e-05
2.65889e-05
2.61623e-05
2.57414e-05
2.5327e-05
2.49195e-05
2.45195e-05
2.41276e-05
2.37443e-05
2.337e-05
2.30052e-05
2.26502e-05
2.23054e-05
2.19712e-05
2.16477e-05
2.13351e-05
2.10337e-05
2.07435e-05
2.04649e-05
2.01978e-05
1.99423e-05
1.96985e-05
1.94666e-05
1.92468e-05
1.9039e-05
1.88429e-05
1.86586e-05
1.84869e-05
1.83294e-05
1.81867e-05
1.80569e-05
1.79375e-05
1.78273e-05
1.7731e-05
1.76566e-05
1.76127e-05
1.75994e-05
1.76067e-05
1.76226e-05
1.76372e-05
1.76504e-05
1.76824e-05
1.77648e-05
1.79322e-05
1.82197e-05
1.86967e-05
1.92547e-05
1.96039e-05
1.96945e-05
1.89584e-05
1.60998e-05
1.15032e-05
1.1764e-05
4.28573e-05
4.23344e-05
4.18084e-05
4.12792e-05
4.07475e-05
4.02142e-05
3.96796e-05
3.91435e-05
3.86061e-05
3.80673e-05
3.75274e-05
3.6987e-05
3.64468e-05
3.59074e-05
3.53696e-05
3.48338e-05
3.43005e-05
3.37703e-05
3.32439e-05
3.27222e-05
3.22059e-05
3.16959e-05
3.11929e-05
3.06976e-05
3.02108e-05
2.9733e-05
2.9265e-05
2.88073e-05
2.83605e-05
2.7925e-05
2.75014e-05
2.709e-05
2.66912e-05
2.63053e-05
2.59325e-05
2.55731e-05
2.52273e-05
2.48952e-05
2.45769e-05
2.42724e-05
2.39819e-05
2.37054e-05
2.34431e-05
2.31952e-05
2.29613e-05
2.27412e-05
2.25355e-05
2.23452e-05
2.2171e-05
2.20124e-05
2.18673e-05
2.17347e-05
2.16165e-05
2.15174e-05
2.14458e-05
2.14008e-05
2.13783e-05
2.13732e-05
2.13729e-05
2.13806e-05
2.14134e-05
2.14834e-05
2.16153e-05
2.18485e-05
2.22672e-05
2.271e-05
2.29121e-05
2.29898e-05
2.24831e-05
2.00197e-05
1.46402e-05
1.45694e-05
5.13812e-05
5.07526e-05
5.01211e-05
4.94861e-05
4.88485e-05
4.82095e-05
4.75695e-05
4.69284e-05
4.62863e-05
4.56432e-05
4.49992e-05
4.43551e-05
4.37116e-05
4.30696e-05
4.24299e-05
4.17931e-05
4.11597e-05
4.05303e-05
3.99058e-05
3.92871e-05
3.86752e-05
3.8071e-05
3.74753e-05
3.6889e-05
3.6313e-05
3.57479e-05
3.51945e-05
3.46535e-05
3.41255e-05
3.36111e-05
3.31109e-05
3.26253e-05
3.21547e-05
3.16995e-05
3.12599e-05
3.08361e-05
3.04285e-05
3.00371e-05
2.9662e-05
2.93034e-05
2.89612e-05
2.86353e-05
2.8326e-05
2.80335e-05
2.77576e-05
2.74978e-05
2.7254e-05
2.70264e-05
2.6816e-05
2.6624e-05
2.64493e-05
2.62912e-05
2.61474e-05
2.60171e-05
2.59074e-05
2.58168e-05
2.57496e-05
2.5711e-05
2.56867e-05
2.56838e-05
2.57138e-05
2.5761e-05
2.5833e-05
2.59761e-05
2.62966e-05
2.65849e-05
2.65714e-05
2.65668e-05
2.63223e-05
2.43953e-05
1.85038e-05
1.80807e-05
6.12597e-05
6.05077e-05
5.97526e-05
5.89939e-05
5.82323e-05
5.74695e-05
5.67061e-05
5.59421e-05
5.51775e-05
5.44125e-05
5.36471e-05
5.2882e-05
5.21183e-05
5.1357e-05
5.0599e-05
4.9845e-05
4.90957e-05
4.83518e-05
4.76142e-05
4.68841e-05
4.61624e-05
4.54502e-05
4.47486e-05
4.40584e-05
4.33808e-05
4.27165e-05
4.20662e-05
4.1431e-05
4.08113e-05
4.02079e-05
3.96215e-05
3.90525e-05
3.85013e-05
3.79684e-05
3.74541e-05
3.69586e-05
3.6482e-05
3.60246e-05
3.55865e-05
3.51677e-05
3.47681e-05
3.43875e-05
3.40259e-05
3.36837e-05
3.33611e-05
3.30572e-05
3.27706e-05
3.25006e-05
3.22484e-05
3.20176e-05
3.18086e-05
3.16212e-05
3.1447e-05
3.12778e-05
3.11173e-05
3.0964e-05
3.08336e-05
3.07456e-05
3.06859e-05
3.06655e-05
3.06869e-05
3.06978e-05
3.06806e-05
3.06945e-05
3.08812e-05
3.10012e-05
3.06992e-05
3.05005e-05
3.04948e-05
2.91891e-05
2.32533e-05
2.24568e-05
7.27097e-05
7.18191e-05
7.09252e-05
7.0027e-05
6.91255e-05
6.82225e-05
6.7319e-05
6.64152e-05
6.55112e-05
6.46072e-05
6.37029e-05
6.27994e-05
6.18978e-05
6.09992e-05
6.01051e-05
5.92163e-05
5.83334e-05
5.74574e-05
5.65894e-05
5.57305e-05
5.48821e-05
5.40454e-05
5.32216e-05
5.24118e-05
5.16172e-05
5.08387e-05
5.00772e-05
4.93338e-05
4.86091e-05
4.7904e-05
4.72191e-05
4.65551e-05
4.59123e-05
4.52912e-05
4.46922e-05
4.41155e-05
4.35612e-05
4.30294e-05
4.25203e-05
4.20339e-05
4.15698e-05
4.11277e-05
4.07074e-05
4.03096e-05
3.99345e-05
3.95809e-05
3.92459e-05
3.89273e-05
3.86265e-05
3.83503e-05
3.81016e-05
3.78801e-05
3.76696e-05
3.74515e-05
3.72243e-05
3.69875e-05
3.67718e-05
3.66152e-05
3.65057e-05
3.6459e-05
3.64637e-05
3.64199e-05
3.62781e-05
3.61232e-05
3.6162e-05
3.61711e-05
3.55067e-05
3.49114e-05
3.5082e-05
3.43951e-05
2.90884e-05
2.78697e-05
8.69397e-05
8.59001e-05
8.48585e-05
8.38136e-05
8.27641e-05
8.17105e-05
8.06551e-05
7.95992e-05
7.85433e-05
7.74877e-05
7.64322e-05
7.53767e-05
7.4322e-05
7.32693e-05
7.22203e-05
7.11765e-05
7.01388e-05
6.91084e-05
6.80859e-05
6.70727e-05
6.60703e-05
6.508e-05
6.41034e-05
6.3142e-05
6.21971e-05
6.127e-05
6.0362e-05
5.94741e-05
5.86076e-05
5.77632e-05
5.69419e-05
5.61446e-05
5.53719e-05
5.46244e-05
5.39026e-05
5.32069e-05
5.25374e-05
5.18943e-05
5.12778e-05
5.06878e-05
5.01244e-05
4.95869e-05
4.90748e-05
4.85876e-05
4.81262e-05
4.76914e-05
4.72811e-05
4.68905e-05
4.65153e-05
4.61574e-05
4.58278e-05
4.55322e-05
4.52704e-05
4.50158e-05
4.47365e-05
4.44233e-05
4.40781e-05
4.37508e-05
4.35022e-05
4.33255e-05
4.32412e-05
4.32179e-05
4.30963e-05
4.27899e-05
4.24369e-05
4.23835e-05
4.25572e-05
4.14831e-05
3.99999e-05
4.02233e-05
4.00627e-05
3.62647e-05
3.45349e-05
0.000102215
0.000101008
9.97995e-05
9.85886e-05
9.73731e-05
9.61532e-05
9.49317e-05
9.37104e-05
9.24899e-05
9.12706e-05
9.00524e-05
8.88349e-05
8.76186e-05
8.6405e-05
8.51959e-05
8.39931e-05
8.27976e-05
8.16108e-05
8.04333e-05
7.92666e-05
7.81121e-05
7.69714e-05
7.58463e-05
7.47385e-05
7.36494e-05
7.25805e-05
7.15334e-05
7.05094e-05
6.95097e-05
6.85353e-05
6.75876e-05
6.66673e-05
6.57754e-05
6.49126e-05
6.40794e-05
6.32764e-05
6.25038e-05
6.17618e-05
6.10504e-05
6.03698e-05
5.97199e-05
5.91e-05
5.85089e-05
5.79461e-05
5.74127e-05
5.69099e-05
5.64351e-05
5.59806e-05
5.55401e-05
5.51155e-05
5.47229e-05
5.43718e-05
5.4062e-05
5.37542e-05
5.34003e-05
5.29803e-05
5.24994e-05
5.20307e-05
5.16622e-05
5.13957e-05
5.12585e-05
5.11933e-05
5.09707e-05
5.04671e-05
4.9933e-05
5.0042e-05
5.07229e-05
4.93686e-05
4.61672e-05
4.61313e-05
4.63019e-05
4.43363e-05
4.27441e-05
0.000119683
0.000118284
0.000116886
0.000115488
0.000114085
0.000112678
0.000111271
0.000109864
0.000108461
0.00010706
0.000105662
0.000104266
0.000102873
0.000101484
0.000100102
9.87271e-05
9.73623e-05
9.60085e-05
9.46663e-05
9.33373e-05
9.20228e-05
9.07247e-05
8.94447e-05
8.81848e-05
8.69466e-05
8.57316e-05
8.45414e-05
8.33775e-05
8.22414e-05
8.1134e-05
8.00567e-05
7.90106e-05
7.79964e-05
7.70152e-05
7.60676e-05
7.51541e-05
7.4275e-05
7.34305e-05
7.26206e-05
7.18455e-05
7.11052e-05
7.03987e-05
6.97244e-05
6.90815e-05
6.84715e-05
6.7896e-05
6.73517e-05
6.68285e-05
6.63172e-05
6.58195e-05
6.53564e-05
6.49422e-05
6.45774e-05
6.42099e-05
6.37733e-05
6.32337e-05
6.25981e-05
6.19624e-05
6.14448e-05
6.10608e-05
6.0848e-05
6.07267e-05
6.0396e-05
5.97084e-05
5.91316e-05
5.96739e-05
6.07688e-05
5.92001e-05
5.44942e-05
5.30986e-05
5.32885e-05
5.2904e-05
5.29294e-05
0.000139691
0.000138068
0.000136452
0.000134837
0.00013322
0.000131599
0.000129978
0.000128361
0.000126748
0.00012514
0.000123539
0.000121941
0.000120349
0.000118762
0.000117185
0.000115619
0.000114065
0.000112526
0.000111002
0.000109495
0.000108006
0.000106537
0.000105089
0.000103666
0.000102269
0.000100899
9.95582e-05
9.82481e-05
9.69701e-05
9.57254e-05
9.45153e-05
9.33409e-05
9.22031e-05
9.11027e-05
9.00405e-05
8.90169e-05
8.80322e-05
8.70865e-05
8.61797e-05
8.5312e-05
8.44832e-05
8.36922e-05
8.29369e-05
8.22161e-05
8.15313e-05
8.08847e-05
8.02726e-05
7.96829e-05
7.91034e-05
7.85345e-05
7.80006e-05
7.7521e-05
7.70986e-05
7.66729e-05
7.61606e-05
7.55118e-05
7.47294e-05
7.39237e-05
7.32404e-05
7.27141e-05
7.23978e-05
7.22089e-05
7.17992e-05
7.10165e-05
7.05443e-05
7.14534e-05
7.28696e-05
7.11062e-05
6.51709e-05
6.14189e-05
6.12747e-05
6.20358e-05
6.57131e-05
0.000162665
0.000160782
0.000158913
0.000157049
0.000155183
0.000153315
0.000151448
0.000149587
0.000147733
0.000145888
0.000144051
0.000142222
0.000140401
0.000138589
0.000136788
0.000135002
0.000133234
0.000131484
0.000129754
0.000128044
0.000126357
0.000124696
0.00012306
0.000121454
0.000119879
0.000118337
0.00011683
0.000115359
0.000113925
0.000112531
0.000111177
0.000109865
0.000108595
0.000107368
0.000106185
0.000105046
0.000103951
0.000102901
0.000101895
0.000100934
0.000100016
9.91403e-05
9.8305e-05
9.75078e-05
9.67503e-05
9.60346e-05
9.53574e-05
9.47055e-05
9.4064e-05
9.34308e-05
9.28308e-05
9.22873e-05
9.18079e-05
9.13318e-05
9.07648e-05
9.00414e-05
8.9151e-05
8.82039e-05
8.73627e-05
8.66842e-05
8.62404e-05
8.59774e-05
8.5545e-05
8.47773e-05
8.44274e-05
8.56177e-05
8.73039e-05
8.53362e-05
7.83007e-05
7.14619e-05
7.06319e-05
7.19161e-05
7.87401e-05
0.000189114
0.00018693
0.000184768
0.000182615
0.000180464
0.00017831
0.00017616
0.000174017
0.000171885
0.000169765
0.000167658
0.000165562
0.000163477
0.000161404
0.000159347
0.000157308
0.000155292
0.000153299
0.000151332
0.00014939
0.000147476
0.000145593
0.000143743
0.000141927
0.000140149
0.00013841
0.000136712
0.000135058
0.000133448
0.000131884
0.000130367
0.000128898
0.000127479
0.00012611
0.000124791
0.000123524
0.000122308
0.000121142
0.000120027
0.000118962
0.000117947
0.00011698
0.000116059
0.00011518
0.000114346
0.000113557
0.000112812
0.000112098
0.000111396
0.000110702
0.000110039
0.000109432
0.000108894
0.000108373
0.000107772
0.000107014
0.000106064
0.000105022
0.000104051
0.000103227
0.000102643
0.000102301
0.000101902
0.000101257
0.000101044
0.000102459
0.00010441
0.000102237
9.41459e-05
8.39217e-05
8.18809e-05
8.28593e-05
9.19084e-05
0.000219637
0.000217106
0.000214605
0.00021212
0.000209639
0.000207158
0.000204681
0.000202214
0.000199762
0.000197327
0.000194908
0.000192505
0.000190116
0.000187744
0.000185391
0.000183062
0.00018076
0.000178488
0.000176247
0.000174037
0.000171862
0.000169724
0.000167625
0.000165568
0.000163555
0.000161589
0.000159672
0.000157806
0.000155992
0.000154231
0.000152526
0.000150878
0.000149287
0.000147753
0.000146279
0.000144863
0.000143506
0.000142207
0.000140966
0.000139783
0.000138656
0.000137584
0.000136565
0.000135594
0.000134673
0.000133802
0.000132981
0.000132197
0.000131432
0.000130676
0.000129947
0.000129272
0.000128672
0.000128106
0.000127481
0.000126716
0.000125748
0.000124656
0.000123588
0.000122637
0.00012191
0.000121487
0.000121153
0.000120722
0.000120721
0.000122345
0.000124542
0.000122156
0.000113046
9.97214e-05
9.56201e-05
9.53322e-05
0.000105466
0.000254936
0.000252005
0.000249116
0.000246249
0.00024339
0.000240533
0.000237681
0.000234844
0.000232025
0.000229228
0.000226452
0.000223697
0.00022096
0.000218244
0.000215552
0.00021289
0.000210261
0.000207668
0.000205113
0.000202596
0.000200121
0.000197689
0.000195304
0.000192969
0.000190686
0.000188458
0.000186288
0.000184177
0.000182127
0.00018014
0.000178217
0.000176359
0.000174568
0.000172844
0.000171188
0.000169599
0.000168078
0.000166625
0.000165237
0.000163915
0.000162658
0.000161464
0.00016033
0.000159251
0.000158228
0.000157262
0.000156353
0.000155489
0.000154651
0.000153826
0.000153027
0.000152279
0.000151608
0.000150993
0.000150347
0.000149587
0.000148629
0.00014752
0.000146388
0.00014533
0.00014447
0.000143964
0.000143704
0.000143536
0.000143848
0.000145727
0.00014815
0.000145516
0.000135387
0.000119692
0.000112525
0.000109944
0.00011989
0.000295831
0.000292444
0.000289109
0.000285806
0.000282515
0.000279228
0.00027595
0.00027269
0.000269452
0.000266241
0.000263059
0.000259901
0.000256768
0.00025366
0.000250582
0.000247539
0.000244536
0.000241577
0.000238662
0.000235794
0.000232975
0.000230208
0.000227496
0.000224842
0.000222249
0.000219721
0.000217259
0.000214866
0.000212545
0.000210296
0.000208122
0.000206023
0.000204001
0.000202056
0.000200189
0.0001984
0.000196688
0.000195053
0.000193495
0.000192011
0.000190601
0.000189264
0.000187995
0.00018679
0.000185649
0.000184571
0.000183557
0.000182599
0.000181678
0.000180775
0.000179897
0.000179068
0.000178319
0.000177645
0.000176974
0.000176224
0.000175291
0.000174188
0.000173018
0.000171878
0.000170899
0.000170312
0.000170121
0.00017023
0.000170931
0.000173151
0.000175795
0.000172855
0.000161677
0.000144044
0.000133196
0.000127442
0.000135861
0.000343282
0.000339376
0.000335534
0.000331732
0.000327951
0.000324176
0.000320413
0.000316673
0.000312959
0.000309278
0.000305632
0.000302019
0.000298435
0.000294882
0.000291365
0.00028789
0.000284462
0.000281086
0.000277763
0.000274496
0.000271285
0.000268136
0.000265051
0.000262034
0.000259087
0.000256216
0.000253421
0.000250707
0.000248074
0.000245526
0.000243063
0.000240687
0.000238399
0.000236199
0.000234089
0.000232068
0.000230135
0.000228291
0.000226534
0.000224862
0.000223274
0.00022177
0.000220344
0.000218992
0.000217712
0.000216503
0.000215369
0.0002143
0.000213281
0.000212288
0.000211321
0.000210402
0.000209564
0.000208822
0.000208118
0.000207377
0.000206477
0.000205396
0.00020421
0.000203008
0.000201928
0.000201267
0.000201139
0.000201518
0.000202645
0.000205279
0.000208148
0.000204833
0.000192553
0.00017319
0.000158211
0.000148637
0.000154227
0.00039841
0.000393917
0.000389499
0.000385132
0.000380793
0.000376467
0.000372156
0.000367872
0.00036362
0.000359408
0.000355238
0.000351109
0.000347016
0.00034296
0.000338947
0.000334983
0.000331075
0.000327227
0.000323442
0.000319722
0.000316069
0.000312487
0.000308979
0.00030555
0.000302203
0.000298941
0.000295769
0.000292688
0.000289701
0.000286811
0.000284018
0.000281325
0.000278733
0.000276242
0.000273853
0.000271565
0.000269379
0.000267293
0.000265306
0.000263417
0.000261624
0.000259926
0.000258318
0.000256795
0.000255353
0.000253993
0.000252717
0.00025152
0.000250386
0.000249289
0.000248222
0.000247201
0.000246265
0.000245444
0.000244697
0.000243959
0.000243098
0.000242044
0.000240857
0.000239614
0.000238452
0.000237729
0.00023766
0.000238295
0.000239851
0.000242932
0.000246011
0.000242236
0.000228775
0.000207626
0.000188588
0.000174433
0.000175932
0.000462515
0.000457362
0.000452292
0.000447288
0.000442321
0.000437374
0.000432446
0.000427549
0.000422692
0.000417882
0.000413123
0.000408412
0.000403746
0.000399125
0.000394554
0.00039004
0.000385591
0.000381212
0.000376907
0.000372677
0.000368525
0.000364455
0.000360471
0.000356576
0.000352776
0.000349074
0.000345474
0.000341978
0.00033859
0.000335312
0.000332146
0.000329093
0.000326154
0.000323331
0.000320623
0.000318031
0.000315555
0.000313192
0.000310942
0.000308803
0.000306774
0.000304851
0.000303033
0.000301312
0.000299685
0.000298149
0.00029671
0.000295363
0.000294095
0.000292877
0.000291696
0.000290561
0.000289515
0.000288603
0.000287803
0.000287059
0.00028624
0.000285213
0.000284038
0.00028277
0.000281544
0.000280772
0.000280762
0.000281633
0.000283597
0.00028711
0.000290343
0.000286
0.000271245
0.00024807
0.000224977
0.000205679
0.000201957
0.000537094
0.000531203
0.000525404
0.000519684
0.000514013
0.00050837
0.000502752
0.000497171
0.000491637
0.000486157
0.000480737
0.000475376
0.000470068
0.000464814
0.000459618
0.000454489
0.000449435
0.000444461
0.000439572
0.000434771
0.000430059
0.000425441
0.000420922
0.000416505
0.000412196
0.000407998
0.000403916
0.000399954
0.000396113
0.000392397
0.000388808
0.000385347
0.000382017
0.000378816
0.000375747
0.000372809
0.000370001
0.000367323
0.000364772
0.000362347
0.000360046
0.000357867
0.000355806
0.000353858
0.000352016
0.000350278
0.00034865
0.00034713
0.000345707
0.000344349
0.000343037
0.000341774
0.000340605
0.00033959
0.000338725
0.000337963
0.000337177
0.000336186
0.000335026
0.000333745
0.000332471
0.000331661
0.000331708
0.000332793
0.000335121
0.000339003
0.000342286
0.000337237
0.000321041
0.000295524
0.00026831
0.000243528
0.000233792
0.000630636
0.000623853
0.000617143
0.000610535
0.000604018
0.000597564
0.000591148
0.000584764
0.000578424
0.000572136
0.000565911
0.000559757
0.000553672
0.000547651
0.000541692
0.000535802
0.000529988
0.000524258
0.000518622
0.000513082
0.000507642
0.000502306
0.000497077
0.000491959
0.000486959
0.00048208
0.000477327
0.000472705
0.000468218
0.000463869
0.000459661
0.000455595
0.000451675
0.000447902
0.000444275
0.000440797
0.000437466
0.000434282
0.000431245
0.000428352
0.0004256
0.000422989
0.000420516
0.000418178
0.000415969
0.00041388
0.00041191
0.000410064
0.000408345
0.000406741
0.000405222
0.000403758
0.000402352
0.000401044
0.000399912
0.000398968
0.000398179
0.000397412
0.000396469
0.000395321
0.000394033
0.000392719
0.000391873
0.000391969
0.000393238
0.000395864
0.000400007
0.000403179
0.00039728
0.000379451
0.000351252
0.000319662
0.000288976
0.000272575
0.000732384
0.0007247
0.000717096
0.000709599
0.000702206
0.000694892
0.000687626
0.0006804
0.000673223
0.000666107
0.000659062
0.000652097
0.000645212
0.000638403
0.000631667
0.000625009
0.000618437
0.000611961
0.00060559
0.000599329
0.000593182
0.000587152
0.000581244
0.000575461
0.000569811
0.000564297
0.000558926
0.000553701
0.000548628
0.00054371
0.000538951
0.000534352
0.000529915
0.000525644
0.000521538
0.000517597
0.000513823
0.000510214
0.000506769
0.000503487
0.000500365
0.0004974
0.000494592
0.000491937
0.000489428
0.000487057
0.00048482
0.000482725
0.000480775
0.000478963
0.000477256
0.000475619
0.000474048
0.000472584
0.000471321
0.000470284
0.000469451
0.000468692
0.000467786
0.000466668
0.000465372
0.000464014
0.000463123
0.000463249
0.000464655
0.000467486
0.00047174
0.000474593
0.000467739
0.000448004
0.00041674
0.000380303
0.000343022
0.000318901
0.000850375
0.000841729
0.000833164
0.000824709
0.000816369
0.000808121
0.000799934
0.000791795
0.000783711
0.000775694
0.000767756
0.000759907
0.00075215
0.000744479
0.000736893
0.000729395
0.000721993
0.000714698
0.00070752
0.000700465
0.000693539
0.000686745
0.000680087
0.00067357
0.0006672
0.000660984
0.000654927
0.000649034
0.00064331
0.000637759
0.000632384
0.000627189
0.000622176
0.000617347
0.000612702
0.000608243
0.00060397
0.000599881
0.000595977
0.000592254
0.000588711
0.000585346
0.000582155
0.000579138
0.000576287
0.000573593
0.000571052
0.000568671
0.000566457
0.000564405
0.000562481
0.000560643
0.000558884
0.000557244
0.00055583
0.000554683
0.000553793
0.000553025
0.000552138
0.000551043
0.000549747
0.000548358
0.000547386
0.000547507
0.000548984
0.000551897
0.000556065
0.000558348
0.000550596
0.000528475
0.000493669
0.000451716
0.000406978
0.000373604
0.000986809
0.000977157
0.000967585
0.000958124
0.000948783
0.000939547
0.000930381
0.000921271
0.000912222
0.000903244
0.00089435
0.000885553
0.000876857
0.000868258
0.000859754
0.000851348
0.000843049
0.000834866
0.000826812
0.000818894
0.000811118
0.000803489
0.000796012
0.000788691
0.000781533
0.000774546
0.000767734
0.000761104
0.000754661
0.00074841
0.000742355
0.000736499
0.000730844
0.000725394
0.000720149
0.00071511
0.000710277
0.00070565
0.000701229
0.000697011
0.000692993
0.000689173
0.000685551
0.000682123
0.000678883
0.000675821
0.000672932
0.000670224
0.000667708
0.00066538
0.000663204
0.000661136
0.000659161
0.000657321
0.000655735
0.000654459
0.000653493
0.000652699
0.000651813
0.00065072
0.00064941
0.000647984
0.000646915
0.000646984
0.00064844
0.00065128
0.00065512
0.000656511
0.000647538
0.000622794
0.000583918
0.000535544
0.000482198
0.000437989
0.00114387
0.00113322
0.00112263
0.00111215
0.00110179
0.00109154
0.00108137
0.00107126
0.00106121
0.00105123
0.00104134
0.00103155
0.00102187
0.00101229
0.00100282
0.000993449
0.000984195
0.000975067
0.000966076
0.000957234
0.000948546
0.000940018
0.000931656
0.000923466
0.000915455
0.00090763
0.000899997
0.000892564
0.000885336
0.000878318
0.000871516
0.000864932
0.000858571
0.000852435
0.000846525
0.000840843
0.000835389
0.000830162
0.000825164
0.00082039
0.00081584
0.00081151
0.0008074
0.000803509
0.000799829
0.00079635
0.000793067
0.000789988
0.000787127
0.000784483
0.00078202
0.000779686
0.000777464
0.000775396
0.000773614
0.000772186
0.000771123
0.000770284
0.000769377
0.000768268
0.000766929
0.000765447
0.000764268
0.000764214
0.000765532
0.000768108
0.000771322
0.000771429
0.000760828
0.000733196
0.000689535
0.000633552
0.000570079
0.000513156
0.00132358
0.00131199
0.00130045
0.001289
0.00127766
0.00126642
0.00125526
0.00124416
0.00123312
0.00122214
0.00121125
0.00120045
0.00118977
0.00117919
0.00116872
0.00115836
0.00114812
0.00113801
0.00112804
0.00111823
0.00110859
0.00109911
0.00108981
0.0010807
0.00107178
0.00106306
0.00105455
0.00104626
0.00103818
0.00103034
0.00102273
0.00101536
0.00100823
0.00100134
0.000994704
0.000988316
0.000982179
0.000976291
0.000970654
0.000965266
0.000960124
0.000955226
0.000950572
0.000946162
0.000941989
0.000938042
0.000934315
0.000930816
0.000927565
0.000924563
0.000921772
0.000919136
0.000916633
0.000914306
0.000912299
0.000910696
0.000909511
0.0009086
0.000907658
0.000906514
0.000905127
0.000903574
0.0009023
0.000902013
0.000903049
0.000905138
0.000907384
0.000905674
0.000893068
0.000862127
0.000812669
0.000747546
0.000672026
0.000600094
0.00152752
0.00151516
0.00150282
0.00149053
0.00147832
0.00146619
0.00145413
0.00144213
0.00143016
0.00141825
0.00140641
0.00139466
0.001383
0.00137145
0.00136
0.00134867
0.00133745
0.00132635
0.00131541
0.00130462
0.001294
0.00128355
0.0012733
0.00126323
0.00125337
0.00124372
0.00123429
0.00122509
0.00121613
0.00120741
0.00119894
0.00119073
0.00118278
0.0011751
0.00116768
0.00116053
0.00115365
0.00114705
0.00114072
0.00113466
0.00112887
0.00112334
0.00111809
0.00111311
0.00110839
0.00110392
0.0010997
0.00109573
0.00109205
0.00108864
0.00108548
0.0010825
0.00107968
0.00107706
0.0010748
0.00107299
0.00107166
0.00107066
0.00106966
0.00106847
0.00106702
0.00106538
0.00106403
0.0010634
0.00106399
0.00106535
0.00106621
0.00106194
0.00104679
0.00101205
0.000955435
0.000879274
0.000789397
0.000699677
0.00175658
0.00174373
0.00173084
0.00171796
0.0017051
0.00169229
0.00167952
0.00166678
0.00165406
0.00164136
0.0016287
0.00161611
0.0016036
0.00159117
0.00157883
0.00156659
0.00155446
0.00154245
0.00153057
0.00151884
0.00150728
0.00149589
0.00148469
0.00147368
0.00146289
0.00145231
0.00144195
0.00143184
0.00142197
0.00141236
0.00140301
0.00139393
0.00138513
0.0013766
0.00136837
0.00136042
0.00135276
0.00134539
0.00133832
0.00133154
0.00132506
0.00131887
0.00131297
0.00130736
0.00130205
0.00129701
0.00129225
0.00128777
0.0012836
0.00127975
0.00127618
0.00127282
0.00126965
0.0012667
0.00126414
0.0012621
0.00126059
0.00125948
0.00125841