/*--------------------------------*- C++ -*----------------------------------*\
| =========                 |                                                 |
| \\      /  F ield         | OpenFOAM: The Open Source CFD Toolbox           |
|  \\    /   O peration     | Version:  2412                                  |
|   \\  /    A nd           | Website:  www.openfoam.com                      |
|    \\/     M anipulation  |                                                 |
\*---------------------------------------------------------------------------*/
FoamFile
{
    version     2.0;
    format      ascii;
    arch        "LSB;label=32;scalar=64";
    class       volScalarField;
    location    "360";
    object      p;
}
// * * * * * * * * * * * * * * * * * * * * * * * * * * * * * * * * * * * * * //

dimensions      [0 2 -2 0 0 0 0];

internalField   nonuniform List<scalar> 
7387
(
-136.767
-127.561
-118.532
-109.676
-100.994
-92.4879
-84.1614
-76.0132
-68.0438
-60.2543
-52.646
-45.221
-37.9825
-30.9332
-24.0764
-17.414
-10.9477
-4.67902
1.39032
7.25855
12.9245
18.3873
23.647
28.7039
33.5589
38.2134
42.6694
46.9294
50.9964
54.8737
58.565
62.0747
65.4072
68.5673
71.5601
74.3908
77.0648
79.5875
81.9645
84.2014
86.3041
88.2776
90.127
91.8572
93.4749
94.9864
96.3962
97.7054
98.9156
100.03
101.064
102.022
102.918
103.732
104.46
105.09
105.613
106.068
106.473
106.828
107.181
107.479
107.654
107.65
107.365
106.646
104.823
103.496
103.949
105.177
106.398
106.153
-136.767
-127.56
-118.532
-109.676
-100.993
-92.4878
-84.1614
-76.0131
-68.0438
-60.2543
-52.646
-45.221
-37.9824
-30.9332
-24.0764
-17.4139
-10.9477
-4.67899
1.39034
7.25857
12.9245
18.3873
23.647
28.704
33.5589
38.2134
42.6694
46.9295
50.9964
54.8737
58.5651
62.0748
65.4073
68.5674
71.5601
74.3909
77.0649
79.5876
81.9645
84.2014
86.3041
88.2777
90.1271
91.8573
93.4749
94.9864
96.3962
97.7054
98.9156
100.03
101.064
102.022
102.918
103.732
104.46
105.09
105.613
106.068
106.473
106.828
107.181
107.478
107.654
107.649
107.364
106.644
104.823
103.5
103.954
105.179
106.398
106.152
-136.767
-127.56
-118.532
-109.676
-100.994
-92.4878
-84.1613
-76.0131
-68.0438
-60.2543
-52.646
-45.221
-37.9825
-30.9332
-24.0763
-17.4139
-10.9477
-4.67898
1.39039
7.25857
12.9245
18.3874
23.6471
28.704
33.5589
38.2134
42.6695
46.9295
50.9964
54.8737
58.5651
62.0748
65.4073
68.5674
71.5602
74.3909
77.0649
79.5876
81.9645
84.2014
86.3041
88.2777
90.1271
91.8573
93.475
94.9865
96.3963
97.7054
98.9156
100.031
101.065
102.022
102.918
103.732
104.46
105.09
105.613
106.068
106.473
106.828
107.18
107.478
107.653
107.648
107.362
106.641
104.823
103.505
103.961
105.181
106.398
106.152
-136.767
-127.56
-118.532
-109.676
-100.993
-92.4878
-84.1613
-76.0131
-68.0437
-60.2543
-52.6459
-45.2209
-37.9824
-30.9332
-24.0763
-17.4139
-10.9476
-4.67893
1.3904
7.25863
12.9245
18.3874
23.6471
28.704
33.559
38.2135
42.6695
46.9295
50.9965
54.8738
58.5651
62.0748
65.4073
68.5674
71.5602
74.3909
77.0649
79.5876
81.9646
84.2015
86.3042
88.2777
90.1271
91.8573
93.475
94.9865
96.3963
97.7054
98.9157
100.031
101.065
102.022
102.918
103.732
104.46
105.09
105.613
106.068
106.473
106.828
107.18
107.478
107.653
107.647
107.36
106.638
104.823
103.511
103.969
105.183
106.4
106.154
-136.767
-127.56
-118.532
-109.676
-100.993
-92.4877
-84.1613
-76.0131
-68.0437
-60.2542
-52.6459
-45.2209
-37.9824
-30.9331
-24.0763
-17.4138
-10.9476
-4.67889
1.39044
7.25867
12.9246
18.3874
23.6471
28.7041
33.559
38.2135
42.6695
46.9296
50.9965
54.8738
58.5652
62.0749
65.4074
68.5675
71.5602
74.391
77.065
79.5877
81.9646
84.2015
86.3042
88.2778
90.1272
91.8574
93.4751
94.9865
96.3963
97.7055
98.9157
100.031
101.065
102.022
102.918
103.732
104.46
105.09
105.613
106.068
106.473
106.828
107.18
107.477
107.652
107.646
107.358
106.635
104.823
103.519
103.978
105.188
106.402
106.16
-136.767
-127.56
-118.532
-109.676
-100.993
-92.4877
-84.1612
-76.013
-68.0437
-60.2542
-52.6458
-45.2209
-37.9823
-30.9331
-24.0762
-17.4138
-10.9476
-4.67887
1.39049
7.2587
12.9246
18.3875
23.6472
28.7041
33.5591
38.2135
42.6696
46.9296
50.9966
54.8738
58.5652
62.0749
65.4074
68.5675
71.5603
74.391
77.065
79.5877
81.9646
84.2016
86.3043
88.2778
90.1272
91.8574
93.4751
94.9866
96.3964
97.7055
98.9157
100.031
101.065
102.022
102.918
103.732
104.46
105.09
105.613
106.068
106.473
106.828
107.18
107.477
107.651
107.645
107.356
106.633
104.825
103.529
103.988
105.196
106.403
106.17
-136.767
-127.56
-118.532
-109.676
-100.993
-92.4877
-84.1612
-76.013
-68.0436
-60.2541
-52.6458
-45.2208
-37.9823
-30.933
-24.0762
-17.4138
-10.9475
-4.67879
1.39054
7.25876
12.9247
18.3875
23.6472
28.7042
33.5591
38.2136
42.6696
46.9297
50.9966
54.8739
58.5653
62.075
65.4075
68.5676
71.5603
74.3911
77.0651
79.5878
81.9647
84.2016
86.3043
88.2779
90.1273
91.8575
93.4752
94.9866
96.3964
97.7056
98.9158
100.031
101.065
102.022
102.918
103.732
104.459
105.09
105.613
106.068
106.473
106.828
107.18
107.477
107.651
107.644
107.354
106.63
104.829
103.543
104.002
105.206
106.402
106.182
-136.767
-127.56
-118.532
-109.676
-100.993
-92.4876
-84.1611
-76.0129
-68.0435
-60.254
-52.6457
-45.2207
-37.9822
-30.933
-24.0761
-17.4137
-10.9474
-4.67874
1.39061
7.25882
12.9247
18.3876
23.6473
28.7042
33.5592
38.2137
42.6697
46.9297
50.9967
54.874
58.5653
62.075
65.4075
68.5676
71.5604
74.3911
77.0651
79.5878
81.9648
84.2017
86.3044
88.2779
90.1273
91.8575
93.4752
94.9867
96.3965
97.7056
98.9158
100.031
101.065
102.022
102.918
103.732
104.459
105.09
105.613
106.068
106.473
106.828
107.18
107.477
107.65
107.643
107.353
106.628
104.836
103.562
104.02
105.217
106.401
106.195
-136.767
-127.56
-118.532
-109.676
-100.993
-92.4875
-84.161
-76.0128
-68.0434
-60.254
-52.6456
-45.2207
-37.9821
-30.9329
-24.076
-17.4136
-10.9474
-4.67865
1.39069
7.25891
12.9248
18.3877
23.6474
28.7043
33.5593
38.2137
42.6698
46.9298
50.9967
54.874
58.5654
62.0751
65.4076
68.5677
71.5605
74.3912
77.0652
79.5879
81.9648
84.2017
86.3045
88.278
90.1274
91.8576
93.4753
94.9867
96.3966
97.7057
98.9159
100.031
101.065
102.022
102.918
103.732
104.459
105.09
105.613
106.068
106.473
106.828
107.18
107.476
107.65
107.641
107.351
106.627
104.848
103.59
104.045
105.228
106.402
106.209
-136.767
-127.56
-118.532
-109.676
-100.993
-92.4873
-84.1609
-76.0127
-68.0433
-60.2538
-52.6455
-45.2205
-37.982
-30.9327
-24.0759
-17.4135
-10.9472
-4.67853
1.39081
7.25902
12.9249
18.3878
23.6475
28.7044
33.5594
38.2138
42.6699
46.9299
50.9969
54.8741
58.5655
62.0752
65.4077
68.5678
71.5606
74.3913
77.0653
79.588
81.9649
84.2018
86.3045
88.2781
90.1275
91.8577
93.4754
94.9868
96.3966
97.7058
98.916
100.031
101.065
102.022
102.918
103.732
104.459
105.09
105.613
106.068
106.474
106.828
107.18
107.476
107.649
107.64
107.349
106.628
104.865
103.628
104.078
105.242
106.405
106.227
-136.767
-127.56
-118.532
-109.676
-100.993
-92.4871
-84.1606
-76.0124
-68.0431
-60.2536
-52.6453
-45.2203
-37.9818
-30.9326
-24.0757
-17.4133
-10.9471
-4.67836
1.39097
7.25918
12.9251
18.3879
23.6476
28.7046
33.5595
38.214
42.67
46.93
50.997
54.8743
58.5656
62.0753
65.4078
68.5679
71.5607
74.3914
77.0654
79.5881
81.965
84.2019
86.3047
88.2782
90.1276
91.8578
93.4755
94.9869
96.3967
97.7059
98.9161
100.031
101.065
102.022
102.918
103.732
104.459
105.09
105.613
106.068
106.474
106.829
107.18
107.476
107.648
107.639
107.348
106.63
104.891
103.68
104.122
105.261
106.409
106.248
-136.766
-127.559
-118.531
-109.675
-100.992
-92.4868
-84.1603
-76.0121
-68.0428
-60.2533
-52.645
-45.22
-37.9815
-30.9323
-24.0754
-17.413
-10.9468
-4.67811
1.39122
7.25943
12.9253
18.3882
23.6479
28.7048
33.5597
38.2142
42.6702
46.9302
50.9972
54.8745
58.5658
62.0755
65.408
68.5681
71.5609
74.3916
77.0656
79.5883
81.9652
84.2021
86.3048
88.2783
90.1277
91.8579
93.4756
94.9871
96.3969
97.706
98.9162
100.031
101.065
102.023
102.918
103.732
104.459
105.09
105.613
106.069
106.474
106.829
107.181
107.476
107.648
107.638
107.347
106.635
104.928
103.75
104.182
105.288
106.413
106.268
-136.766
-127.559
-118.531
-109.675
-100.992
-92.4862
-84.1598
-76.0116
-68.0423
-60.2528
-52.6445
-45.2196
-37.9811
-30.9318
-24.075
-17.4126
-10.9464
-4.67772
1.3916
7.25979
12.9257
18.3885
23.6482
28.7051
33.56
38.2145
42.6705
46.9305
50.9975
54.8747
58.5661
62.0758
65.4083
68.5683
71.5611
74.3918
77.0658
79.5885
81.9654
84.2023
86.305
88.2786
90.1279
91.8581
93.4758
94.9873
96.397
97.7061
98.9164
100.031
101.065
102.023
102.918
103.732
104.459
105.09
105.613
106.069
106.475
106.83
107.181
107.476
107.647
107.637
107.347
106.644
104.978
103.843
104.265
105.329
106.418
106.281
-146.158
-136.765
-127.558
-118.53
-109.674
-100.991
-92.4854
-84.159
-76.0109
-68.0415
-60.2521
-52.6438
-45.2189
-37.9804
-30.9312
-24.0744
-17.412
-10.9458
-4.67712
1.39219
7.26036
12.9262
18.3891
23.6487
28.7056
33.5605
38.215
42.671
46.931
50.9979
54.8752
58.5665
62.0762
65.4087
68.5687
71.5615
74.3922
77.0662
79.5888
81.9658
84.2026
86.3053
88.2789
90.1283
91.8584
93.4761
94.9875
96.3973
97.7064
98.9166
100.032
101.066
102.023
102.919
103.732
104.459
105.09
105.614
106.07
106.476
106.832
107.182
107.477
107.647
107.637
107.349
106.658
105.045
103.963
104.375
105.388
106.421
106.284
-146.157
-136.764
-127.557
-118.529
-109.673
-100.99
-92.4844
-84.1579
-76.0098
-68.0405
-60.2511
-52.6428
-45.2179
-37.9794
-30.9302
-24.0734
-17.4111
-10.9449
-4.67621
1.39307
7.26123
12.9271
18.3899
23.6495
28.7064
33.5613
38.2157
42.6717
46.9317
50.9986
54.8758
58.5672
62.0768
65.4093
68.5693
71.5621
74.3928
77.0667
79.5894
81.9663
84.2032
86.3059
88.2794
90.1287
91.8589
93.4766
94.988
96.3977
97.7068
98.917
100.032
101.066
102.024
102.919
103.732
104.459
105.09
105.615
106.071
106.478
106.834
107.184
107.477
107.647
107.636
107.352
106.677
105.132
104.115
104.522
105.476
106.428
106.28
-146.155
-136.762
-127.555
-118.527
-109.671
-100.988
-92.4829
-84.1565
-76.0084
-68.0391
-60.2497
-52.6414
-45.2165
-37.978
-30.9289
-24.0721
-17.4097
-10.9436
-4.67492
1.39435
7.26248
12.9283
18.3911
23.6507
28.7076
33.5625
38.2169
42.6728
46.9328
50.9997
54.8769
58.5682
62.0778
65.4103
68.5703
71.563
74.3937
77.0676
79.5903
81.9672
84.204
86.3067
88.2802
90.1295
91.8597
93.4774
94.9888
96.3984
97.7075
98.9177
100.033
101.067
102.024
102.919
103.732
104.459
105.09
105.615
106.073
106.481
106.838
107.187
107.479
107.647
107.637
107.357
106.704
105.241
104.305
104.713
105.604
106.455
106.274
-146.153
-136.76
-127.553
-118.525
-109.669
-100.987
-92.4811
-84.1547
-76.0066
-68.0373
-60.2479
-52.6396
-45.2147
-37.9763
-30.9271
-24.0703
-17.408
-10.9418
-4.67319
1.39607
7.2642
12.93
18.3928
23.6524
28.7092
33.5641
38.2185
42.6744
46.9344
51.0012
54.8784
58.5697
62.0793
65.4117
68.5717
71.5644
74.3951
77.069
79.5916
81.9685
84.2054
86.308
88.2815
90.1308
91.861
93.4786
94.99
96.3996
97.7085
98.9188
100.034
101.068
102.026
102.92
103.733
104.459
105.09
105.616
106.076
106.485
106.843
107.191
107.48
107.647
107.638
107.365
106.74
105.374
104.533
104.953
105.787
106.525
106.29
-146.151
-136.758
-127.551
-118.523
-109.667
-100.984
-92.4789
-84.1525
-76.0044
-68.0351
-60.2457
-52.6374
-45.2125
-37.9741
-30.9249
-24.0681
-17.4058
-10.9396
-4.67101
1.39825
7.26637
12.9322
18.3949
23.6546
28.7114
33.5662
38.2206
42.6765
46.9365
51.0033
54.8805
58.5718
62.0814
65.4138
68.5738
71.5664
74.3971
77.071
79.5936
81.9705
84.2073
86.3099
88.2833
90.1327
91.8628
93.4804
94.9917
96.4013
97.7101
98.9204
100.036
101.07
102.027
102.921
103.733
104.459
105.09
105.618
106.079
106.49
106.849
107.196
107.483
107.648
107.641
107.378
106.787
105.532
104.802
105.247
106.04
106.665
106.368
-146.148
-136.755
-127.549
-118.52
-109.665
-100.982
-92.4763
-84.1499
-76.0018
-68.0325
-60.2431
-52.6348
-45.2099
-37.9715
-30.9223
-24.0655
-17.4032
-10.937
-4.66838
1.40088
7.26901
12.9348
18.3976
23.6572
28.714
33.5689
38.2233
42.6792
46.9391
51.006
54.8831
58.5744
62.084
65.4164
68.5764
71.5691
74.3997
77.0736
79.5962
81.973
84.2099
86.3124
88.2859
90.1352
91.8653
93.483
94.9942
96.4036
97.7124
98.9226
100.038
101.073
102.03
102.923
103.735
104.46
105.091
105.62
106.083
106.496
106.857
107.203
107.488
107.651
107.647
107.397
106.847
105.719
105.109
105.598
106.378
106.908
106.549
-146.145
-136.752
-127.545
-118.517
-109.662
-100.979
-92.4733
-84.1469
-75.9988
-68.0295
-60.2401
-52.6319
-45.2069
-37.9685
-30.9193
-24.0625
-17.4001
-10.934
-4.66532
1.40395
7.27209
12.9379
18.4007
23.6603
28.7171
33.572
38.2264
42.6823
46.9423
51.0091
54.8863
58.5776
62.0872
65.4196
68.5796
71.5722
74.4029
77.0768
79.5994
81.9762
84.213
86.3156
88.289
90.1383
91.8685
93.4861
94.9973
96.4066
97.7153
98.9255
100.041
101.076
102.033
102.926
103.736
104.461
105.092
105.623
106.088
106.505
106.868
107.213
107.496
107.658
107.659
107.426
106.926
105.936
105.457
105.994
106.808
107.284
106.877
-146.142
-136.749
-127.542
-118.514
-109.658
-100.975
-92.4699
-84.1435
-75.9954
-68.0261
-60.2367
-52.6284
-45.2035
-37.965
-30.9158
-24.059
-17.3967
-10.9305
-4.66181
1.40747
7.27562
12.9415
18.4042
23.6639
28.7207
33.5756
38.23
42.686
46.9459
51.0128
54.89
58.5813
62.0909
65.4233
68.5833
71.5759
74.4066
77.0805
79.6031
81.98
84.2168
86.3194
88.2928
90.1421
91.8722
93.4899
95.001
96.4102
97.7188
98.9291
100.045
101.08
102.037
102.929
103.739
104.463
105.094
105.628
106.096
106.515
106.882
107.227
107.508
107.671
107.679
107.469
107.028
106.188
105.849
106.439
107.314
107.8
107.389
-146.138
-136.745
-127.538
-118.51
-109.654
-100.971
-92.4659
-84.1395
-75.9914
-68.0221
-60.2327
-52.6244
-45.1995
-37.961
-30.9118
-24.055
-17.3927
-10.9265
-4.65779
1.41151
7.27967
12.9455
18.4083
23.668
28.7248
33.5797
38.2341
42.6901
46.95
51.0169
54.8941
58.5854
62.0951
65.4275
68.5875
71.5802
74.4108
77.0847
79.6074
81.9842
84.2211
86.3236
88.297
90.1463
91.8765
93.4942
95.0053
96.4144
97.7229
98.9332
100.049
101.085
102.042
102.934
103.742
104.466
105.098
105.634
106.106
106.529
106.9
107.245
107.525
107.691
107.71
107.531
107.159
106.477
106.286
106.95
107.892
108.455
108.108
-146.133
-136.74
-127.533
-118.505
-109.649
-100.967
-92.4612
-84.1349
-75.9868
-68.0175
-60.2281
-52.6198
-45.1949
-37.9564
-30.9072
-24.0504
-17.388
-10.9218
-4.65315
1.41615
7.28432
12.9502
18.413
23.6726
28.7295
33.5844
38.2388
42.6948
46.9548
51.0216
54.8989
58.5902
62.0998
65.4322
68.5923
71.585
74.4156
77.0896
79.6122
81.9891
84.2259
86.3285
88.3018
90.1512
91.8814
93.4991
95.0102
96.4192
97.7275
98.938
100.055
101.09
102.048
102.938
103.747
104.47
105.103
105.643
106.119
106.546
106.921
107.268
107.55
107.722
107.757
107.615
107.322
106.806
106.769
107.515
108.529
109.249
109.046
-146.127
-136.734
-127.528
-118.5
-109.644
-100.961
-92.4558
-84.1295
-75.9814
-68.0121
-60.2227
-52.6145
-45.1895
-37.9511
-30.9019
-24.0451
-17.3827
-10.9165
-4.64779
1.42152
7.2897
12.9556
18.4184
23.678
28.7349
33.5898
38.2442
42.7002
46.9602
51.0271
54.9043
58.5956
62.1053
65.4377
68.5977
71.5904
74.4211
77.095
79.6176
81.9945
84.2314
86.3339
88.3073
90.1566
91.8869
93.5046
95.0157
96.4245
97.7329
98.9435
100.061
101.096
102.054
102.944
103.752
104.475
105.11
105.654
106.135
106.568
106.949
107.299
107.585
107.766
107.822
107.727
107.523
107.178
107.3
108.139
109.232
110.164
110.194
-146.12
-136.728
-127.521
-118.493
-109.637
-100.955
-92.4494
-84.1231
-75.9751
-68.0058
-60.2164
-52.6082
-45.1833
-37.9448
-30.8956
-24.0388
-17.3765
-10.9102
-4.64154
1.42777
7.29595
12.9618
18.4246
23.6843
28.7412
33.5961
38.2505
42.7065
46.9665
51.0334
54.9106
58.6019
62.1115
65.444
68.604
71.5967
74.4273
77.1013
79.6239
82.0008
84.2376
86.3401
88.3135
90.1628
91.8931
93.5109
95.0219
96.4307
97.739
98.9499
100.067
101.104
102.062
102.952
103.759
104.483
105.12
105.669
106.156
106.595
106.983
107.337
107.63
107.826
107.91
107.871
107.765
107.596
107.88
108.825
110.027
111.18
111.523
-146.113
-136.72
-127.513
-118.485
-109.63
-100.947
-92.4419
-84.1156
-75.9676
-67.9984
-60.2091
-52.6008
-45.1759
-37.9375
-30.8883
-24.0315
-17.3691
-10.9029
-4.63423
1.43509
7.30326
12.9691
18.4319
23.6916
28.7485
33.6034
38.2578
42.7138
46.9738
51.0406
54.9179
58.6092
62.1188
65.4512
68.6112
71.6039
74.4346
77.1085
79.6311
82.008
84.2448
86.3473
88.3206
90.1699
91.9003
93.5181
95.0291
96.4378
97.7461
98.9573
100.075
101.112
102.071
102.96
103.768
104.493
105.133
105.687
106.181
106.628
107.025
107.387
107.689
107.904
108.024
108.05
108.052
108.061
108.511
109.573
110.905
112.283
113.022
-155.686
-146.103
-136.711
-127.504
-118.476
-109.621
-100.938
-92.433
-84.1069
-75.9589
-67.9897
-60.2004
-52.5922
-45.1673
-37.9288
-30.8797
-24.0229
-17.3606
-10.8943
-4.62565
1.44367
7.31184
12.9777
18.4405
23.7002
28.757
33.6119
38.2664
42.7223
46.9823
51.0492
54.9264
58.6177
62.1273
65.4597
68.6197
71.6124
74.443
77.1169
79.6395
82.0163
84.2531
86.3556
88.3289
90.1781
91.9086
93.5264
95.0373
96.446
97.7544
98.9659
100.085
101.123
102.082
102.971
103.779
104.505
105.149
105.711
106.213
106.67
107.077
107.449
107.766
108.006
108.169
108.271
108.389
108.576
109.194
110.385
111.867
113.464
114.672
-155.674
-146.092
-136.7
-127.493
-118.466
-109.61
-100.928
-92.4226
-84.0965
-75.9486
-67.9795
-60.1902
-52.582
-45.1571
-37.9187
-30.8696
-24.0128
-17.3505
-10.8842
-4.61555
1.45375
7.32192
12.9878
18.4506
23.7102
28.7671
33.622
38.2764
42.7324
46.9923
51.0592
54.9363
58.6276
62.1372
65.4696
68.6296
71.6222
74.4528
77.1266
79.6492
82.026
84.2627
86.3651
88.3384
90.1877
91.9181
93.5359
95.0469
96.4555
97.764
98.976
100.096
101.134
102.094
102.984
103.793
104.521
105.17
105.74
106.253
106.721
107.141
107.527
107.863
108.135
108.35
108.536
108.779
109.142
109.93
111.26
112.906
114.727
116.407
-155.661
-146.079
-136.687
-127.481
-118.453
-109.598
-100.916
-92.4104
-84.0843
-75.9365
-67.9674
-60.1781
-52.57
-45.1451
-37.9067
-30.8576
-24.0009
-17.3386
-10.8724
-4.60369
1.46561
7.33377
12.9996
18.4624
23.722
28.7789
33.6338
38.2882
42.7441
47.004
51.0709
54.948
58.6393
62.1488
65.4812
68.6411
71.6337
74.4642
77.138
79.6605
82.0372
84.2739
86.3762
88.3494
90.1987
91.9291
93.547
95.058
96.4665
97.7753
98.9879
100.109
101.148
102.109
102.999
103.81
104.542
105.197
105.777
106.302
106.783
107.22
107.624
107.985
108.297
108.572
108.851
109.223
109.762
110.72
112.196
114.012
116.058
118.143
-155.646
-146.064
-136.672
-127.466
-118.438
-109.583
-100.901
-92.3959
-84.07
-75.9222
-67.9532
-60.164
-52.5559
-45.131
-37.8927
-30.8436
-23.9869
-17.3246
-10.8584
-4.58976
1.47953
7.34768
13.0135
18.4763
23.7359
28.7927
33.6476
38.302
42.7579
47.0178
51.0846
54.9617
58.6529
62.1624
65.4947
68.6545
71.6471
74.4775
77.1512
79.6736
82.0503
84.2869
86.3891
88.3622
90.2114
91.9419
93.5598
95.0708
96.4794
97.7884
99.0018
100.124
101.165
102.127
103.018
103.832
104.568
105.231
105.823
106.362
106.86
107.316
107.743
108.136
108.495
108.839
109.218
109.725
110.434
111.561
113.187
115.175
117.434
119.839
-155.628
-146.046
-136.654
-127.448
-118.421
-109.566
-100.884
-92.379
-84.0531
-75.9055
-67.9366
-60.1474
-52.5393
-45.1145
-37.8762
-30.8272
-23.9705
-17.3083
-10.8421
-4.57343
1.49585
7.36398
13.0298
18.4925
23.7521
28.8089
33.6638
38.3181
42.774
47.0339
51.1006
54.9777
58.6688
62.1782
65.5104
68.6702
71.6626
74.4929
77.1665
79.6888
82.0654
84.3018
86.4039
88.3769
90.226
91.9565
93.5745
95.0855
96.4942
97.8036
99.0179
100.142
101.184
102.149
103.042
103.859
104.601
105.273
105.879
106.435
106.953
107.434
107.889
108.321
108.735
109.156
109.641
110.283
111.158
112.45
114.225
116.378
118.828
121.481
-155.606
-146.025
-136.633
-127.428
-118.401
-109.546
-100.864
-92.3591
-84.0334
-75.8859
-67.9171
-60.128
-52.52
-45.0952
-37.8569
-30.808
-23.9514
-17.2891
-10.823
-4.55436
1.51489
7.383
13.0488
18.5115
23.7711
28.8278
33.6826
38.3369
42.7928
47.0526
51.1192
54.9962
58.6873
62.1966
65.5287
68.6883
71.6806
74.5108
77.1842
79.7063
82.0827
84.319
86.4209
88.3937
90.2427
91.9732
93.5913
95.1023
96.5111
97.821
99.0364
100.162
101.207
102.174
103.07
103.892
104.642
105.326
105.948
106.524
107.065
107.575
108.066
108.543
109.019
109.524
110.12
110.898
111.932
113.381
115.301
117.603
120.214
123.042
-155.581
-146
-136.609
-127.404
-118.377
-109.522
-100.841
-92.3359
-84.0104
-75.863
-67.8944
-60.1054
-52.4975
-45.0727
-37.8345
-30.7856
-23.9291
-17.2669
-10.8008
-4.53221
1.53702
7.40509
13.0708
18.5335
23.7931
28.8498
33.7045
38.3587
42.8145
47.0742
51.1408
55.0176
58.7086
62.2177
65.5497
68.7091
71.7012
74.5312
77.2044
79.7263
82.1024
84.3384
86.4401
88.4127
90.2615
91.9921
93.6101
95.1212
96.5302
97.8409
99.0578
100.186
101.233
102.204
103.104
103.932
104.692
105.39
106.031
106.631
107.2
107.743
108.275
108.806
109.351
109.946
110.654
111.566
112.751
114.349
116.401
118.832
121.567
124.49
-155.552
-145.972
-136.581
-127.376
-118.35
-109.495
-100.813
-92.3091
-83.9838
-75.8366
-67.8681
-60.0793
-52.4714
-45.0467
-37.8086
-30.7598
-23.9033
-17.2412
-10.7752
-4.50664
1.56254
7.43057
13.0963
18.5589
23.8183
28.875
33.7296
38.3838
42.8394
47.099
51.1655
55.0422
58.7329
62.2419
65.5736
68.7328
71.7247
74.5543
77.2272
79.7488
82.1246
84.3603
86.4616
88.4339
90.2825
92.0129
93.6309
95.1422
96.5515
97.8632
99.0819
100.213
101.264
102.239
103.144
103.981
104.753
105.467
106.131
106.758
107.359
107.942
108.521
109.111
109.731
110.419
111.241
112.283
113.61
115.343
117.512
120.045
122.861
125.806
-155.518
-145.939
-136.548
-127.344
-118.318
-109.463
-100.782
-92.278
-83.953
-75.806
-67.8378
-60.0492
-52.4414
-45.0169
-37.7788
-30.7301
-23.8738
-17.2118
-10.7459
-4.47739
1.59171
7.45967
13.1253
18.5878
23.8472
28.9037
33.7583
38.4123
42.8678
47.1272
51.1934
55.0699
58.7604
62.2691
65.6005
68.7594
71.7509
74.5802
77.2526
79.7737
82.1491
84.3843
86.4852
88.4571
90.3054
92.0355
93.6535
95.1649
96.5748
97.8877
99.1087
100.243
101.298
102.279
103.192
104.039
104.826
105.56
106.249
106.906
107.544
108.171
108.804
109.459
110.159
110.942
111.875
113.04
114.501
116.35
118.617
121.223
124.076
126.981
-155.479
-145.9
-136.511
-127.307
-118.281
-109.427
-100.746
-92.2424
-83.9178
-75.7711
-67.8032
-60.0148
-52.4072
-44.9828
-37.7449
-30.6964
-23.8403
-17.1785
-10.7127
-4.44429
1.6247
7.49254
13.158
18.6204
23.8797
28.936
33.7904
38.4442
42.8995
47.1587
51.2246
55.1008
58.791
62.2993
65.6303
68.7887
71.7797
74.6084
77.2803
79.8008
82.1755
84.4101
86.5104
88.4816
90.3294
92.0592
93.6771
95.1888
96.5995
97.914
99.1378
100.276
101.337
102.325
103.247
104.106
104.911
105.668
106.385
107.078
107.757
108.433
109.124
109.848
110.63
111.51
112.551
113.832
115.404
117.362
119.702
122.347
125.196
128.039
-155.434
-145.856
-136.467
-127.264
-118.239
-109.386
-100.705
-92.2019
-83.8777
-75.7315
-67.764
-59.976
-52.3687
-44.9445
-37.7068
-30.6585
-23.8026
-17.1411
-10.6755
-4.40731
1.6615
7.52915
13.1944
18.6566
23.9156
28.9717
33.8258
38.4794
42.9344
47.1932
51.2588
55.1345
58.8242
62.332
65.6624
68.8202
71.8104
74.6384
77.3095
79.8292
82.2031
84.4368
86.5361
88.5064
90.3535
92.083
93.7008
95.2127
96.6245
97.9412
99.1683
100.312
101.378
102.375
103.308
104.184
105.008
105.791
106.54
107.271
107.995
108.725
109.478
110.275
111.141
112.115
113.259
114.647
116.315
118.357
120.749
123.404
126.217
128.977
-155.382
-145.806
-136.418
-127.216
-118.192
-109.339
-100.659
-92.1561
-83.8325
-75.6869
-67.7199
-59.9324
-52.3255
-44.9016
-37.6643
-30.6164
-23.7609
-17.0997
-10.6345
-4.36659
1.70193
7.56928
13.2343
18.6961
23.9548
29.0105
33.8642
38.5174
42.9719
47.2302
51.2952
55.1704
58.8594
62.3664
65.696
68.8529
71.8422
74.6692
77.3392
79.8577
82.2304
84.4629
86.5608
88.53
90.3762
92.105
93.7227
95.2351
96.6481
97.9673
99.1981
100.347
101.422
102.428
103.376
104.269
105.117
105.928
106.712
107.484
108.257
109.042
109.861
110.732
111.681
112.746
113.987
115.467
117.225
119.322
121.74
124.378
127.119
129.747
-155.323
-145.748
-136.361
-127.161
-118.138
-109.286
-100.607
-92.1046
-83.7818
-75.637
-67.6709
-59.8841
-52.2777
-44.8543
-37.6175
-30.5702
-23.7153
-17.0546
-10.5899
-4.32248
1.74558
7.61247
13.277
18.7383
23.9965
29.0517
33.9048
38.5573
43.0111
47.2687
51.333
55.2072
58.8953
62.4013
65.7297
68.8854
71.8734
74.699
77.3675
79.8845
82.2554
84.4861
86.5824
88.55
90.3949
92.1229
93.7403
95.2532
96.6677
97.9893
99.2245
100.38
101.464
102.483
103.446
104.36
105.233
106.075
106.897
107.713
108.536
109.38
110.264
111.209
112.24
113.392
114.722
116.284
118.107
120.244
122.663
125.256
127.897
130.385
-155.255
-145.682
-136.297
-127.098
-118.077
-109.226
-100.548
-92.0469
-83.7254
-75.5817
-67.6166
-59.8309
-52.2253
-44.8027
-37.5666
-30.5201
-23.666
-17.0062
-10.5422
-4.27553
1.79183
7.65801
13.3218
18.7824
24.0397
29.0941
33.9464
38.598
43.0509
47.3074
51.3705
55.2436
58.9303
62.4348
65.7617
68.9157
71.9019
74.7255
77.392
79.9067
82.2752
84.5035
86.5975
88.5631
90.4063
92.1332
93.7501
95.2635
96.679
98.0034
99.2436
100.407
101.501
102.535
103.516
104.451
105.352
106.228
107.089
107.95
108.826
109.728
110.679
111.697
112.806
114.04
115.449
117.08
118.95
121.107
123.504
126.032
128.554
130.908
-155.177
-145.607
-136.225
-127.028
-118.008
-109.159
-100.482
-91.9828
-83.6628
-75.5207
-67.5571
-59.7728
-52.1684
-44.7468
-37.5118
-30.4665
-23.6136
-16.955
-10.4922
-4.22658
1.83973
7.70486
13.3675
18.8271
24.0832
29.1364
33.9875
38.6378
43.0893
47.3443
51.4058
55.2771
58.962
62.4645
65.7892
68.9408
71.9246
74.7456
77.4091
79.9206
82.286
84.5112
86.6022
88.565
90.4059
92.1312
93.7473
95.2601
96.6767
98.0044
99.2504
100.422
101.529
102.577
103.577
104.536
105.467
106.377
107.279
108.187
109.116
110.078
111.094
112.183
113.367
114.675
116.153
117.84
119.741
121.898
124.255
126.701
129.092
131.326
-155.089
-145.521
-136.142
-126.948
-117.932
-109.085
-100.409
-91.9119
-83.594
-75.4539
-67.4925
-59.7101
-52.1074
-44.6873
-37.4538
-30.4101
-23.559
-16.9021
-10.4409
-4.17686
1.88794
7.75154
13.4127
18.8706
24.1251
29.1766
34.0259
38.6743
43.1238
47.3768
51.4361
55.3049
58.9872
62.4869
65.8086
68.9572
71.9375
74.7547
77.4141
79.9214
82.2826
84.5037
86.5906
88.5498
90.3876
92.1106
93.7244
95.2363
96.6541
97.9853
99.2375
100.419
101.538
102.601
103.622
104.607
105.568
106.515
107.459
108.414
109.396
110.417
111.496
112.653
113.907
115.283
116.821
118.549
120.467
122.605
124.906
127.258
129.513
131.653
-154.988
-145.424
-136.049
-126.859
-117.846
-109.001
-100.329
-91.8338
-83.5188
-75.3815
-67.4229
-59.6432
-52.0428
-44.6248
-37.3935
-30.3521
-23.5033
-16.8489
-10.39
-4.12814
1.93452
7.79596
13.4549
18.9105
24.1627
29.2118
34.0586
38.7044
43.1512
47.4012
51.4573
55.3229
59.0016
62.4975
65.8152
68.9594
71.9348
74.7468
77.4008
79.9026
82.2582
84.4737
86.5554
88.5098
90.3437
92.062
93.6726
95.1834
96.6022
97.9369
99.1956
100.387
101.517
102.598
103.641
104.653
105.646
106.63
107.617
108.62
109.655
110.733
111.874
113.096
114.413
115.849
117.436
119.194
121.114
123.22
125.45
127.702
129.822
131.891
-154.873
-145.314
-135.944
-126.759
-117.75
-108.909
-100.24
-91.7486
-83.4373
-75.3039
-67.349
-59.5729
-51.9757
-44.5606
-37.3323
-30.294
-23.4485
-16.7975
-10.3418
-4.08302
1.97664
7.83505
13.4909
18.9434
24.1923
29.238
34.0813
38.7235
43.1664
47.4124
51.4643
55.3253
58.9991
62.4899
65.8021
68.9401
71.9089
74.7139
77.3607
79.8553
82.2036
84.4118
86.4865
88.4349
90.2615
91.974
93.5809
95.0898
96.509
97.8471
99.1124
100.311
101.455
102.555
103.621
104.661
105.687
106.71
107.74
108.792
109.879
111.014
112.215
113.496
114.871
116.359
117.985
119.76
121.67
123.731
125.882
128.028
130.021
132.013
-154.742
-145.189
-135.825
-126.647
-117.645
-108.808
-100.143
-91.6563
-83.3502
-75.2217
-67.272
-59.5008
-51.9078
-44.4967
-37.2724
-30.2384
-23.3975
-16.7511
-10.2999
-4.04528
2.01025
7.86448
13.516
18.9641
24.2086
29.2497
34.0881
38.7253
43.163
47.4035
51.4495
55.3043
58.9715
62.4554
65.7598
68.8894
71.8493
74.6452
77.2826
79.7675
82.1061
84.3049
86.3712
88.3093
90.1268
91.8326
93.4343
94.9403
96.3594
97.7006
98.9698
100.178
101.339
102.458
103.548
104.618
105.679
106.742
107.816
108.916
110.056
111.245
112.502
113.839
115.266
116.797
118.451
120.233
122.123
124.129
126.193
128.231
130.103
131.995
-154.593
-145.048
-135.692
-126.522
-117.528
-108.698
-100.038
-91.5578
-83.2584
-75.1366
-67.1938
-59.4292
-51.8419
-44.4361
-37.2173
-30.1892
-23.3545
-16.7143
-10.2692
-4.02036
2.02952
7.87801
13.5237
18.9658
24.2041
29.2388
34.0707
38.701
43.1316
47.3645
51.4026
55.249
58.9075
62.3815
65.6752
68.7936
71.7419
74.5257
77.1508
79.6232
81.9493
84.1365
86.1893
88.1144
89.9218
91.6189
93.2138
94.7159
96.1344
97.4758
98.751
99.9726
101.148
102.288
103.405
104.507
105.606
106.71
107.83
108.979
110.17
111.412
112.722
114.109
115.58
117.146
118.82
120.597
122.458
124.401
126.374
128.301
130.058
131.835
-154.423
-144.889
-135.543
-126.385
-117.402
-108.58
-99.9269
-91.4545
-83.1641
-75.0512
-67.1175
-59.3617
-51.7822
-44.3835
-37.1721
-30.1518
-23.3255
-16.694
-10.2571
-4.01605
2.02613
7.86681
13.5045
18.9384
24.1682
29.1943
34.0172
38.6382
43.0591
47.2818
51.3092
55.1444
58.7905
62.2511
65.5307
68.6344
71.5674
74.3355
76.9445
79.4008
81.7116
83.8817
85.9167
87.8277
89.6225
91.3086
92.8956
94.3931
95.8082
97.1515
98.437
99.6717
100.865
102.029
103.175
104.313
105.451
106.598
107.765
108.962
110.204
111.496
112.855
114.286
115.796
117.388
119.072
120.838
122.661
124.534
126.412
128.228
129.873
131.544
-154.232
-144.71
-135.378
-126.235
-117.267
-108.455
-99.8109
-91.3492
-83.0706
-74.9694
-67.048
-59.3041
-51.7348
-44.3457
-37.1442
-30.1344
-23.3195
-16.6996
-10.2739
-4.04347
1.9883
7.81836
13.4452
18.8679
24.0863
29.1006
33.9113
38.5197
42.9274
47.1364
51.1495
54.9692
58.5984
62.0411
65.3022
68.3866
71.2997
74.0474
76.636
79.0723
81.3621
83.5087
85.5249
87.4194
89.1985
90.8722
92.4504
93.9412
95.3542
96.7052
98.0021
99.2518
100.467
101.659
102.839
104.014
105.194
106.387
107.6
108.846
110.136
111.477
112.879
114.35
115.89
117.501
119.187
120.936
122.713
124.512
126.295
128
129.537
131.107
-154.017
-144.511
-135.197
-126.074
-117.124
-108.326
-99.6938
-91.2461
-82.9832
-74.8976
-66.9928
-59.2648
-51.7091
-44.3327
-37.1443
-30.1486
-23.3492
-16.7451
-10.3346
-4.1184
1.89933
7.71502
13.3271
18.7347
23.9376
28.9358
33.73
38.3214
42.7113
46.902
50.8957
54.6939
58.3006
61.7201
64.9568
68.0161
70.9037
73.6256
76.1887
78.5997
80.8589
82.9811
84.977
86.8507
88.6126
90.2732
91.842
93.3268
94.7453
96.1072
97.417
98.687
99.9293
101.154
102.371