/*--------------------------------*- C++ -*----------------------------------*\
| =========                 |                                                 |
| \\      /  F ield         | OpenFOAM: The Open Source CFD Toolbox           |
|  \\    /   O peration     | Version:  2412                                  |
|   \\  /    A nd           | Website:  www.openfoam.com                      |
|    \\/     M anipulation  |                                                 |
\*---------------------------------------------------------------------------*/
FoamFile
{
    version     2.0;
    format      ascii;
    arch        "LSB;label=32;scalar=64";
    class       surfaceScalarField;
    location    "360";
    object      phi;
}
// * * * * * * * * * * * * * * * * * * * * * * * * * * * * * * * * * * * * * //

dimensions      [0 3 -1 0 0 0 0];

oriented        oriented;

internalField   nonuniform List<scalar> 
17210
(
1.80836e-06
-1.33637e-09
1.80962e-06
-1.17452e-09
1.81078e-06
-1.06935e-09
1.81191e-06
-1.13908e-09
1.81298e-06
-9.89475e-10
1.81413e-06
-1.1265e-09
1.81524e-06
-1.09482e-09
1.81622e-06
-9.65827e-10
1.81722e-06
-9.88962e-10
1.81823e-06
-9.90685e-10
1.81921e-06
-9.59963e-10
1.82009e-06
-8.7075e-10
1.82093e-06
-8.23534e-10
1.82174e-06
-7.91452e-10
1.82244e-06
-6.73184e-10
1.82317e-06
-7.09201e-10
1.82369e-06
-5.03878e-10
1.82433e-06
-6.05979e-10
1.82485e-06
-4.88822e-10
1.82525e-06
-3.66076e-10
1.82561e-06
-3.32234e-10
1.82594e-06
-2.99301e-10
1.82614e-06
-1.7597e-10
1.82636e-06
-1.76689e-10
1.82652e-06
-1.46447e-10
1.82658e-06
-2.1903e-11
1.82658e-06
1.22088e-11
1.82656e-06
2.89638e-11
1.82641e-06
1.63664e-10
1.82619e-06
2.32549e-10
1.82596e-06
2.52118e-10
1.82562e-06
3.51247e-10
1.82513e-06
5.02959e-10
1.82466e-06
4.77518e-10
1.82398e-06
6.87983e-10
1.8232e-06
7.95027e-10
1.82241e-06
8.09208e-10
1.82147e-06
9.45722e-10
1.82046e-06
1.02144e-09
1.81935e-06
1.11491e-09
1.8181e-06
1.26665e-09
1.81674e-06
1.35651e-09
1.81521e-06
1.53757e-09
1.8136e-06
1.61258e-09
1.81195e-06
1.66344e-09
1.81012e-06
1.83071e-09
1.8082e-06
1.93233e-09
1.80607e-06
2.13463e-09
1.80387e-06
2.21139e-09
1.80142e-06
2.4478e-09
1.79894e-06
2.49853e-09
1.79632e-06
2.61436e-09
1.79358e-06
2.75049e-09
1.79072e-06
2.86308e-09
1.78775e-06
2.97256e-09
1.78471e-06
3.04282e-09
1.78147e-06
3.24661e-09
1.77817e-06
3.30451e-09
1.77479e-06
3.38447e-09
1.77146e-06
3.3304e-09
1.76793e-06
3.53948e-09
1.76442e-06
3.51031e-09
1.76096e-06
3.46333e-09
1.75771e-06
3.2522e-09
1.75461e-06
3.09795e-09
1.75153e-06
3.08151e-09
1.74852e-06
3.0126e-09
1.74539e-06
3.12937e-09
1.74288e-06
2.51838e-09
1.74181e-06
1.0704e-09
1.74261e-06
-7.97554e-10
1.74397e-06
-1.35508e-09
1.74411e-06
-1.40361e-10
1.74166e-06
2.45705e-09
1.73779e-06
3.8677e-09
1.73801e-06
-2.21771e-10
1.74722e-06
-9.20612e-09
1.7694e-06
-2.21769e-08
1.80407e-06
-3.46707e-08
1.83772e-06
-3.36488e-08
1.85764e-06
-1.99112e-08
-2.35574e-09
6.37082e-06
-6.4047e-09
6.37508e-06
-5.31363e-09
6.37938e-06
-5.24185e-09
6.38355e-06
-5.3064e-09
6.38767e-06
-5.0175e-09
6.39153e-06
-4.94927e-09
6.39547e-06
-5.01451e-09
6.39934e-06
-4.81145e-09
6.40295e-06
-4.57996e-09
6.40652e-06
-4.53404e-09
6.40988e-06
-4.29788e-09
6.41322e-06
-4.18386e-09
6.41627e-06
-3.86082e-09
6.41912e-06
-3.61223e-09
6.42179e-06
-3.307e-09
6.42437e-06
-3.25881e-09
6.42662e-06
-2.72546e-09
6.42863e-06
-2.56662e-09
6.43027e-06
-2.091e-09
6.43211e-06
-2.15797e-09
6.43345e-06
-1.63767e-09
6.43458e-06
-1.37858e-09
6.43563e-06
-1.18691e-09
6.43627e-06
-7.5941e-10
6.437e-06
-8.50664e-10
6.43715e-06
-1.26312e-10
6.43729e-06
-1.17066e-10
6.43711e-06
2.39336e-10
6.43655e-06
7.3848e-10
6.43591e-06
8.94166e-10
6.43476e-06
1.42671e-09
6.43356e-06
1.56423e-09
6.43182e-06
2.26514e-09
6.42972e-06
2.59345e-09
6.42757e-06
2.85007e-09
6.425e-06
3.38128e-09
6.42188e-06
3.96376e-09
6.41872e-06
4.10382e-09
6.41498e-06
4.78642e-09
6.41111e-06
4.98293e-09
6.40656e-06
5.8401e-09
6.40174e-06
6.17604e-09
6.39631e-06
6.97936e-09
6.39089e-06
7.03718e-09
6.38471e-06
7.85358e-09
6.37825e-06
8.31004e-09
6.37122e-06
8.97144e-09
6.36386e-06
9.49968e-09
6.35607e-06
1.00188e-08
6.34806e-06
1.04572e-08
6.33939e-06
1.11841e-08
6.33017e-06
1.18393e-08
6.32067e-06
1.22596e-08
6.31083e-06
1.27099e-08
6.30058e-06
1.323e-08
6.28973e-06
1.38896e-08
6.27876e-06
1.423e-08
6.26765e-06
1.44232e-08
6.2562e-06
1.4838e-08
6.24455e-06
1.49861e-08
6.23284e-06
1.52592e-08
6.22087e-06
1.5473e-08
6.20921e-06
1.51326e-08
6.19814e-06
1.43208e-08
6.18762e-06
1.36251e-08
6.17763e-06
1.30693e-08
6.16721e-06
1.34384e-08
6.15681e-06
1.35367e-08
6.14851e-06
1.08171e-08
6.145e-06
4.58271e-09
6.14748e-06
-3.26867e-09
6.15197e-06
-5.8426e-09
6.15279e-06
-9.58206e-10
6.14524e-06
1.0013e-08
6.13243e-06
1.66753e-08
6.13274e-06
-5.30902e-10
6.16302e-06
-3.94822e-08
6.23691e-06
-9.60583e-08
6.3532e-06
-1.50958e-07
6.46778e-06
-1.48226e-07
6.53803e-06
-9.01609e-08
-1.39028e-08
1.26471e-05
-1.65188e-08
1.26563e-05
-1.44381e-08
1.26652e-05
-1.39132e-08
1.26736e-05
-1.3804e-08
1.26818e-05
-1.31133e-08
1.269e-05
-1.3061e-08
1.26982e-05
-1.31554e-08
1.27061e-05
-1.27028e-08
1.27138e-05
-1.22585e-08
1.27211e-05
-1.18017e-08
1.27284e-05
-1.16286e-08
1.27352e-05
-1.09702e-08
1.27417e-05
-1.03382e-08
1.27478e-05
-9.6529e-09
1.2753e-05
-8.48689e-09
1.27582e-05
-8.42709e-09
1.27631e-05
-7.5705e-09
1.27671e-05
-6.49559e-09
1.27712e-05
-6.15759e-09
1.27746e-05
-5.46333e-09
1.27774e-05
-4.45056e-09
1.27799e-05
-3.79784e-09
1.2782e-05
-3.22491e-09
1.27837e-05
-2.49015e-09
1.27847e-05
-1.74748e-09
1.27855e-05
-9.42581e-10
1.27856e-05
-1.64066e-10
1.27851e-05
7.60606e-10
1.27843e-05
1.57965e-09
1.2783e-05
2.19949e-09
1.27807e-05
3.77055e-09
1.2778e-05
4.21921e-09
1.27749e-05
5.45722e-09
1.2771e-05
6.44755e-09
1.27662e-05
7.74495e-09
1.27611e-05
8.49168e-09
1.27549e-05
1.01317e-08
1.2748e-05
1.10313e-08
1.27409e-05
1.19301e-08
1.27327e-05
1.31862e-08
1.27238e-05
1.47341e-08
1.27138e-05
1.6155e-08
1.27034e-05
1.74101e-08
1.2692e-05
1.8489e-08
1.26799e-05
1.99777e-08
1.26671e-05
2.10643e-08
1.26533e-05
2.28353e-08
1.26386e-05
2.4212e-08
1.26229e-05
2.56731e-08
1.26065e-05
2.69025e-08
1.25893e-05
2.83387e-08
1.25714e-05
2.97586e-08
1.25526e-05
3.11314e-08
1.25333e-05
3.19487e-08
1.25131e-05
3.35168e-08
1.24922e-05
3.47228e-08
1.24706e-05
3.5827e-08
1.24486e-05
3.6513e-08
1.24264e-05
3.69802e-08
1.24037e-05
3.76744e-08
1.23808e-05
3.81964e-08
1.23576e-05
3.86732e-08
1.2335e-05
3.77857e-08
1.23134e-05
3.58661e-08
1.22934e-05
3.35958e-08
1.2274e-05
3.25451e-08
1.22539e-05
3.34905e-08
1.22345e-05
3.29976e-08
1.22185e-05
2.67723e-08
1.22116e-05
1.14585e-08
1.2216e-05
-7.58588e-09
1.22249e-05
-1.47291e-08
1.2227e-05
-3.14661e-09
1.22133e-05
2.3768e-08
1.2189e-05
4.09956e-08
1.21894e-05
-9.86771e-10
1.22456e-05
-9.56125e-08
1.23843e-05
-2.34756e-07
1.26041e-05
-3.70761e-07
1.28248e-05
-3.68971e-07
1.29649e-05
-2.30246e-07
-4.36122e-08
2.10645e-05
-3.48893e-08
2.10807e-05
-3.04738e-08
2.10959e-05
-2.89568e-08
2.1111e-05
-2.88441e-08
2.11256e-05
-2.76808e-08
2.11401e-05
-2.75024e-08
2.1154e-05
-2.7036e-08
2.11682e-05
-2.68088e-08
2.11818e-05
-2.58596e-08
2.11951e-05
-2.50908e-08
2.12078e-05
-2.43392e-08
2.12201e-05
-2.32206e-08
2.12315e-05
-2.1669e-08
2.12419e-05
-2.00425e-08
2.12524e-05
-1.88928e-08
2.12613e-05
-1.73095e-08
2.12696e-05
-1.5835e-08
2.12776e-05
-1.44388e-08
2.12844e-05
-1.29364e-08
2.12906e-05
-1.15751e-08
2.12957e-05
-9.54143e-09
2.13003e-05
-8.32936e-09
2.13042e-05
-7.12029e-09
2.13075e-05
-5.70869e-09
2.13096e-05
-3.84039e-09
2.13109e-05
-2.14878e-09
2.13115e-05
-7.43736e-10
2.13108e-05
1.4833e-09
2.13098e-05
2.61243e-09
2.1307e-05
5.01355e-09
2.13038e-05
6.98854e-09
2.12995e-05
8.5431e-09
2.12937e-05
1.13233e-08
2.12868e-05
1.33765e-08
2.12793e-05
1.52929e-08
2.12702e-05
1.75172e-08
2.12602e-05
2.01792e-08
2.12492e-05
2.20214e-08
2.12367e-05
2.45303e-08
2.12228e-05
2.70246e-08
2.12077e-05
2.99216e-08
2.11911e-05
3.2715e-08
2.11734e-05
3.51117e-08
2.11541e-05
3.78126e-08
2.1134e-05
4.00866e-08
2.1112e-05
4.31043e-08
2.10885e-05
4.62941e-08
2.1064e-05
4.87932e-08
2.10381e-05
5.15285e-08
2.10107e-05
5.43411e-08
2.09823e-05
5.67833e-08
2.0952e-05
6.00455e-08
2.09212e-05
6.19461e-08
2.08883e-05
6.48109e-08
2.08548e-05
6.70975e-08
2.08202e-05
6.93254e-08
2.07847e-05
7.13158e-08
2.07485e-05
7.26822e-08
2.07116e-05
7.39439e-08
2.06745e-05
7.47596e-08
2.06368e-05
7.5847e-08
2.05996e-05
7.59519e-08
2.05624e-05
7.49307e-08
2.05271e-05
7.11681e-08
2.0494e-05
6.67192e-08
2.04627e-05
6.38471e-08
2.04308e-05
6.53769e-08
2.03989e-05
6.49118e-08
2.03731e-05
5.25903e-08
2.03617e-05
2.28864e-08
2.03679e-05
-1.38181e-08
2.03824e-05
-2.92169e-08
2.03862e-05
-6.97306e-09
2.03656e-05
4.44472e-08
2.0329e-05
7.75786e-08
2.03279e-05
1.37373e-10
2.04152e-05
-1.82932e-07
2.06325e-05
-4.52097e-07
2.09799e-05
-7.18144e-07
2.13344e-05
-7.2347e-07
2.15683e-05
-4.64133e-07
-1.04328e-07
3.2122e-05
-6.45485e-08
3.21482e-05
-5.65733e-08
3.2174e-05
-5.45536e-08
3.21984e-05
-5.32239e-08
3.22223e-05
-5.14749e-08
3.22453e-05
-5.04887e-08
3.2269e-05
-5.07352e-08
3.22915e-05
-4.92706e-08
3.23139e-05
-4.8208e-08
3.23359e-05
-4.70869e-08
3.23575e-05
-4.58229e-08
3.23772e-05
-4.29241e-08
3.2396e-05
-4.04584e-08
3.24145e-05
-3.84867e-08
3.2431e-05
-3.53121e-08
3.24462e-05
-3.24891e-08
3.246e-05
-2.96259e-08
3.24731e-05
-2.75205e-08
3.24849e-05
-2.46545e-08
3.24949e-05
-2.15412e-08
3.25042e-05
-1.87607e-08
3.25124e-05
-1.64246e-08
3.25191e-05
-1.38287e-08
3.25245e-05
-1.09757e-08
3.25287e-05
-8.06062e-09
3.25316e-05
-4.99073e-09
3.25324e-05
-1.5189e-09
3.25331e-05
8.58145e-10
3.25308e-05
4.92363e-09
3.25281e-05
7.75033e-09
3.25235e-05
1.15469e-08
3.25166e-05
1.55445e-08
3.25085e-05
1.93843e-08
3.24989e-05
2.29921e-08
3.24869e-05
2.73723e-08
3.24729e-05
3.15081e-08
3.24577e-05
3.54397e-08
3.24403e-05
3.94033e-08
3.2421e-05
4.38297e-08
3.24002e-05
4.78603e-08
3.23765e-05
5.36928e-08
3.23513e-05
5.78256e-08
3.23234e-05
6.31177e-08
3.22939e-05
6.72605e-08
3.22618e-05
7.21868e-08
3.22279e-05
7.70057e-08
3.21919e-05
8.23105e-08
3.21541e-05
8.66226e-08
3.21141e-05
9.15555e-08
3.20718e-05
9.66256e-08
3.20275e-05
1.01149e-07
3.19817e-05
1.05816e-07
3.19334e-05
1.10288e-07
3.18841e-05
1.14064e-07
3.18333e-05
1.17902e-07
3.17802e-05
1.22437e-07
3.17261e-05
1.25422e-07
3.16708e-05
1.28016e-07
3.16153e-05
1.29495e-07
3.15586e-05
1.31413e-07
3.15025e-05
1.31983e-07
3.14451e-05
1.33367e-07
3.13898e-05
1.30259e-07
3.1337e-05
1.23951e-07
3.12882e-05
1.1554e-07
3.12412e-05
1.10838e-07
3.11933e-05
1.13224e-07
3.11463e-05
1.11919e-07
3.11081e-05
9.07943e-08
3.10897e-05
4.13309e-08
3.10989e-05
-2.30008e-08
3.11196e-05
-4.9893e-08
3.11268e-05
-1.42218e-08
3.11003e-05
7.1005e-08
3.10481e-05
1.29783e-07
3.10463e-05
1.85448e-09
3.11684e-05
-3.05009e-07
3.14777e-05
-7.6138e-07
3.19757e-05
-1.21617e-06
3.24956e-05
-1.24328e-06
3.28514e-05
-8.1994e-07
-2.1735e-07
4.63923e-05
-1.11339e-07
4.64341e-05
-9.81531e-08
4.6473e-05
-9.32141e-08
4.65118e-05
-9.20005e-08
4.65489e-05
-8.84478e-08
4.65859e-05
-8.75032e-08
4.66213e-05
-8.60396e-08
4.66574e-05
-8.54128e-08
4.66929e-05
-8.3669e-08
4.67277e-05
-8.18223e-08
4.67606e-05
-7.868e-08
4.67933e-05
-7.55814e-08
4.68242e-05
-7.13287e-08
4.68529e-05
-6.7118e-08
4.6879e-05
-6.14182e-08
4.69037e-05
-5.71337e-08
4.69268e-05
-5.26287e-08
4.69471e-05
-4.77586e-08
4.69666e-05
-4.41514e-08
4.69831e-05
-3.79294e-08
4.69985e-05
-3.4101e-08
4.7011e-05
-2.88911e-08
4.70228e-05
-2.55472e-08
4.70322e-05
-2.03382e-08
4.70402e-05
-1.59388e-08
4.70453e-05
-1.00556e-08
4.70489e-05
-5.10402e-09
4.705e-05
-1.83264e-10
4.70487e-05
6.22593e-09
4.70449e-05
1.15838e-08
4.70386e-05
1.78754e-08
4.70304e-05
2.38042e-08
4.70193e-05
3.05414e-08
4.70049e-05
3.74085e-08
4.69885e-05
4.3769e-08
4.69695e-05
5.05354e-08
4.69468e-05
5.81158e-08
4.69218e-05
6.44863e-08
4.68936e-05
7.205e-08
4.6862e-05
7.94186e-08
4.68285e-05
8.72554e-08
4.67913e-05
9.5066e-08
4.67508e-05
1.03555e-07
4.67072e-05
1.10922e-07
4.6661e-05
1.18362e-07
4.66109e-05
1.27137e-07
4.65588e-05
1.34395e-07
4.65026e-05
1.42861e-07
4.64438e-05
1.50392e-07
4.63824e-05
1.57992e-07
4.63179e-05
1.65744e-07
4.62505e-05
1.73178e-07
4.61804e-05
1.80446e-07
4.61083e-05
1.86098e-07
4.60336e-05
1.92699e-07
4.59573e-05
1.98707e-07
4.58784e-05
2.04279e-07
4.57993e-05
2.07173e-07
4.57185e-05
2.1032e-07
4.56383e-05
2.11641e-07
4.55568e-05
2.13412e-07
4.54759e-05
2.14337e-07
4.53963e-05
2.09851e-07
4.53212e-05
1.99055e-07
4.52512e-05
1.85583e-07
4.51845e-05
1.7745e-07
4.51184e-05
1.79395e-07
4.50518e-05
1.7851e-07
4.49979e-05
1.4472e-07
4.49724e-05
6.68059e-08
4.49818e-05
-3.24062e-08
4.50106e-05
-7.86294e-08
4.50234e-05
-2.70519e-08
4.49907e-05
1.03684e-07
4.49245e-05
1.95981e-07
4.49202e-05
6.17407e-09
4.50814e-05
-4.66238e-07
4.54933e-05
-1.17322e-06
4.61646e-05
-1.88743e-06
4.68798e-05
-1.9585e-06
4.73904e-05
-1.33052e-06
-4.08666e-07
6.45146e-05
-1.81372e-07
6.45779e-05
-1.61256e-07
6.46382e-05
-1.53367e-07
6.46961e-05
-1.49866e-07
6.4752e-05
-1.44231e-07
6.48072e-05
-1.4267e-07
6.48621e-05
-1.40881e-07
6.4917e-05
-1.40209e-07
6.49712e-05
-1.37871e-07
6.50248e-05
-1.35389e-07
6.50769e-05
-1.30771e-07
6.51275e-05
-1.26065e-07
6.51749e-05
-1.18788e-07
6.5218e-05
-1.10121e-07
6.52593e-05
-1.02658e-07
6.52978e-05
-9.56356e-08
6.53327e-05
-8.74558e-08
6.5366e-05
-8.1013e-08
6.53952e-05
-7.32817e-08
6.54234e-05
-6.60106e-08
6.54468e-05
-5.74549e-08
6.54688e-05
-5.08132e-08
6.54874e-05
-4.40573e-08
6.55045e-05
-3.73561e-08
6.55167e-05
-2.81301e-08
6.55268e-05
-2.0059e-08
6.55336e-05
-1.19555e-08
6.55375e-05
-4.00555e-09
6.55383e-05
5.5083e-09
6.55351e-05
1.48003e-08
6.55296e-05
2.34233e-08
6.55181e-05
3.52418e-08
6.5504e-05
4.46764e-08
6.54851e-05
5.63736e-08
6.5463e-05
6.58797e-08
6.54367e-05
7.68782e-08
6.54067e-05
8.81074e-08
6.53718e-05
9.94574e-08
6.53325e-05
1.11398e-07
6.52892e-05
1.22665e-07
6.5242e-05
1.34474e-07
6.51893e-05
1.47772e-07
6.51328e-05
1.60141e-07
6.50715e-05
1.72193e-07
6.50053e-05
1.84574e-07
6.49361e-05
1.9632e-07
6.48608e-05
2.09796e-07
6.4782e-05
2.21662e-07
6.46991e-05
2.33273e-07
6.46122e-05
2.44867e-07
6.45211e-05
2.56949e-07
6.4426e-05
2.68238e-07
6.43284e-05
2.781e-07
6.42263e-05
2.88204e-07
6.41221e-05
2.96886e-07
6.4014e-05
3.06789e-07
6.39049e-05
3.13431e-07
6.37927e-05
3.19342e-07
6.36816e-05
3.21401e-07
6.35689e-05
3.24344e-07
6.34565e-05
3.25889e-07
6.33452e-05
3.25658e-07
6.32354e-05
3.19567e-07
6.31327e-05
3.0184e-07
6.30358e-05
2.82421e-07
6.29455e-05
2.67825e-07
6.28549e-05
2.70002e-07
6.27677e-05
2.65707e-07
6.26951e-05
2.17265e-07
6.26579e-05
1.04002e-07
6.26699e-05
-4.43248e-08
6.27082e-05
-1.1697e-07
6.27276e-05
-4.64022e-08
6.26925e-05
1.38758e-07
6.26127e-05
2.75803e-07
6.26075e-05
1.13609e-08
6.28098e-05
-6.68555e-07
6.33327e-05
-1.6961e-06
6.41941e-05
-2.74888e-06
6.5132e-05
-2.89638e-06
6.58342e-05
-2.03271e-06
-7.10636e-07
8.71821e-05
-2.85238e-07
8.7276e-05
-2.54861e-07
8.73657e-05
-2.42867e-07
8.74516e-05
-2.35646e-07
8.75345e-05
-2.27134e-07
8.76164e-05
-2.24484e-07
8.76981e-05
-2.2252e-07
8.77789e-05
-2.20985e-07
8.7859e-05
-2.17938e-07
8.79394e-05
-2.15694e-07
8.80179e-05
-2.09271e-07
8.80926e-05
-2.00723e-07
8.8164e-05
-1.90069e-07
8.82314e-05
-1.77513e-07
8.8295e-05
-1.66204e-07
8.83518e-05
-1.52355e-07
8.84057e-05
-1.41289e-07
8.84555e-05
-1.30706e-07
8.85014e-05
-1.19172e-07
8.85424e-05
-1.06883e-07
8.85805e-05
-9.5495e-08
8.86149e-05
-8.51786e-08
8.86454e-05
-7.44605e-08
8.86719e-05
-6.37235e-08
8.86948e-05
-5.09907e-08
8.87125e-05
-3.77584e-08
8.87264e-05
-2.57773e-08
8.87351e-05
-1.2703e-08
8.87393e-05
1.39412e-09
8.87389e-05
1.52281e-08
8.87325e-05
2.99001e-08
8.87221e-05
4.56686e-08
8.87041e-05
6.27191e-08
8.86821e-05
7.83654e-08
8.86538e-05
9.42386e-08
8.86204e-05
1.1025e-07
8.85808e-05
1.27829e-07
8.85355e-05
1.44753e-07
8.84831e-05
1.6378e-07
8.84257e-05
1.80114e-07
8.83612e-05
1.99012e-07
8.82897e-05
2.1929e-07
8.82126e-05
2.37232e-07
8.8128e-05
2.5677e-07
8.80397e-05
2.72897e-07
8.79425e-05
2.93581e-07
8.78408e-05
3.11464e-07
8.77327e-05
3.29853e-07
8.76182e-05
3.47795e-07
8.74992e-05
3.6388e-07
8.73743e-05
3.81867e-07
8.72437e-05
3.98866e-07
8.71083e-05
4.13428e-07
8.69692e-05
4.27342e-07
8.68258e-05
4.40323e-07
8.66805e-05
4.52121e-07
8.6531e-05
4.62878e-07
8.63807e-05
4.69653e-07
8.62283e-05
4.73857e-07
8.60764e-05
4.76267e-07
8.59238e-05
4.78447e-07
8.57737e-05
4.75741e-07
8.56285e-05
4.64867e-07
8.54894e-05
4.40907e-07
8.53628e-05
4.08995e-07
8.52425e-05
3.88188e-07
8.51257e-05
3.86799e-07
8.5011e-05
3.80427e-07
8.49171e-05
3.11128e-07
8.48686e-05
1.5254e-07
8.48807e-05
-5.64454e-08
8.49282e-05
-1.64437e-07
8.49599e-05
-7.8179e-08
8.4927e-05
1.71659e-07
8.48379e-05
3.64943e-07
8.48346e-05
1.46802e-08
8.50793e-05
-9.13276e-07
8.57173e-05
-2.33411e-06
8.67768e-05
-3.8083e-06
8.796e-05
-4.07963e-06
8.88858e-05
-2.9585e-06
-1.1645e-06
0.000115122
-4.33887e-07
0.000115258
-3.9077e-07
0.000115387
-3.71464e-07
0.000115511
-3.59874e-07
0.000115631
-3.47144e-07
0.00011575
-3.43622e-07
0.000115867
-3.38624e-07
0.000115984
-3.38817e-07
0.000116103
-3.36273e-07
0.000116219
-3.31916e-07
0.000116333
-3.23191e-07
0.000116446
-3.13146e-07
0.00011655
-2.94417e-07
0.000116648
-2.75843e-07
0.000116739
-2.56872e-07
0.000116826
-2.39267e-07
0.000116906
-2.20767e-07
0.000116978
-2.03211e-07
0.000117047
-1.88306e-07
0.00011711
-1.69491e-07
0.000117169
-1.54463e-07
0.000117221
-1.37321e-07
0.000117268
-1.21213e-07
0.000117309
-1.04648e-07
0.000117345
-8.68867e-08
0.000117376
-6.90534e-08
0.000117401
-5.00773e-08
0.00011742
-3.14136e-08
0.000117431
-1.02903e-08
0.000117437
9.91287e-09
0.000117433
3.31214e-08
0.000117424
5.51999e-08
0.000117407
8.00236e-08
0.000117382
1.03534e-07
0.000117349
1.26777e-07
0.000117306
1.53505e-07
0.000117257
1.76892e-07
0.000117198
2.03181e-07
0.000117133
2.29024e-07
0.000117058
2.55698e-07
0.000116973
2.83206e-07
0.000116881
3.11554e-07
0.000116778
3.40221e-07
0.000116668
3.67352e-07
0.000116547
3.93312e-07
0.00011642
4.20663e-07
0.000116283
4.48545e-07
0.00011614
4.73226e-07
0.000115987
5.00686e-07
0.000115826
5.2435e-07
0.000115657
5.5087e-07
0.000115484
5.71958e-07
0.000115304
5.94043e-07
0.000115118
6.13183e-07
0.000114927
6.31667e-07
0.000114731
6.47687e-07
0.000114532
6.61788e-07
0.000114332
6.70064e-07
0.000114129
6.76692e-07
0.000113929
6.75936e-07
0.000113731
6.76631e-07
0.000113533
6.73432e-07
0.000113341
6.57256e-07
0.000113162
6.1966e-07
0.000112996
5.74826e-07
0.000112842
5.42432e-07
0.000112693
5.36207e-07
0.00011255
5.23085e-07
0.000112432
4.29172e-07
0.00011237
2.14917e-07
0.000112381
-6.79696e-08
0.000112442
-2.25236e-07
0.000112489
-1.25156e-07
0.000112464
1.96554e-07
0.000112374
4.5532e-07
0.000112376
1.22755e-08
0.000112667
-1.20392e-06
0.00011342
-3.08706e-06
0.000114683
-5.07123e-06
0.000116123
-5.52014e-06
0.000117299
-4.13379e-06
-1.80949e-06
0.000149069
-6.45434e-07
0.000149262
-5.83674e-07
0.000149446
-5.54768e-07
0.00014962
-5.33847e-07
0.000149791
-5.18374e-07
0.000149957
-5.09879e-07
0.000150125
-5.06023e-07
0.00015029
-5.04406e-07
0.000150458
-5.03375e-07
0.000150624
-4.98482e-07
0.000150789
-4.88094e-07
0.000150945
-4.69306e-07
0.000151095
-4.44e-07
0.000151236
-4.16554e-07
0.000151367
-3.8792e-07
0.000151491
-3.62864e-07
0.000151606
-3.36517e-07
0.000151713
-3.10085e-07
0.000151813
-2.87487e-07
0.000151904
-2.61098e-07
0.000151988
-2.37794e-07
0.000152065
-2.14246e-07
0.000152136
-1.92628e-07
0.000152202
-1.70032e-07
0.000152259
-1.43796e-07
0.000152307
-1.17417e-07
0.00015235
-9.25422e-08
0.000152383
-6.51481e-08
0.000152409
-3.58842e-08
0.000152424
-5.12124e-09
0.00015243
2.70306e-08
0.000152425
6.01625e-08
0.00015241
9.5824e-08
0.000152383
1.30269e-07
0.000152345
1.64329e-07
0.0001523
1.99036e-07
0.00015224
2.37116e-07
0.00015217
2.73298e-07
0.000152087
3.11526e-07
0.000151993
3.49464e-07
0.000151888
3.88826e-07
0.000151769
4.3052e-07
0.000151639
4.70041e-07
0.000151497
5.09421e-07
0.000151343
5.46904e-07
0.000151177
5.87056e-07
0.000151
6.26002e-07
0.00015081
6.6317e-07
0.000150612
6.98469e-07
0.000150401
7.34886e-07
0.000150183
7.69278e-07
0.000149954
8.00704e-07
0.000149717
8.31403e-07
0.000149473
8.57279e-07
0.000149225
8.80015e-07
0.000148968
9.04359e-07
0.000148709
9.20475e-07
0.000148447
9.32723e-07
0.000148186
9.37033e-07
0.000147925
9.3701e-07
0.000147666
9.35593e-07
0.000147414
9.26026e-07
0.00014717
9.01348e-07
0.00014694
8.49549e-07
0.000146729
7.85619e-07
0.000146535
7.36364e-07
0.00014635
7.21011e-07
0.000146176
6.97061e-07
0.000146034
5.71434e-07
0.000145956
2.9246e-07
0.00014597
-8.13075e-08
0.000146046
-3.01913e-07
0.000146115
-1.93445e-07
0.000146107
2.04304e-07
0.000146026
5.361e-07
0.000146043
-4.32059e-09
0.000146384
-1.54513e-06
0.00014725
-3.95257e-06
0.000148709
-6.53059e-06
0.000150407
-7.21857e-06
0.000151855
-5.58119e-06
0.000152722
-2.67682e-06
1.51352e-06
0.000189752
-9.36088e-07
0.000190019
-8.51096e-07
0.000190273
-8.08282e-07
0.000190515
-7.76009e-07
0.000190752
-7.54642e-07
0.000190983
-7.41105e-07
0.000191214
-7.3641e-07
0.000191445
-7.35782e-07
0.000191676
-7.34535e-07
0.000191906
-7.28236e-07
0.000192132
-7.14303e-07
0.000192352
-6.89395e-07
0.000192561
-6.52694e-07
0.000192758
-6.13775e-07
0.000192943
-5.72651e-07
0.000193114
-5.33377e-07
0.000193273
-4.96059e-07
0.000193424
-4.60404e-07
0.000193563
-4.26332e-07
0.000193695
-3.93333e-07
0.000193816
-3.58741e-07
0.00019393
-3.27951e-07
0.000194032
-2.94938e-07
0.000194126
-2.63905e-07
0.000194213
-2.30332e-07
0.00019429
-1.94e-07
0.000194358
-1.60841e-07
0.000194414
-1.20777e-07
0.000194457
-7.93724e-08
0.000194491
-3.86454e-08
0.000194512
5.62979e-09
0.000194518
5.48345e-08
0.000194509
1.04477e-07
0.000194486
1.52888e-07
0.00019445
2.004e-07
0.000194398
2.50865e-07
0.000194333
3.02953e-07
0.000194251
3.54597e-07
0.000194156
4.06953e-07
0.000194041
4.64079e-07
0.000193912
5.18451e-07
0.000193767
5.74962e-07
0.000193606
6.3122e-07
0.000193429
6.86986e-07
0.000193234
7.41698e-07
0.000193024
7.96883e-07
0.000192801
8.49207e-07
0.00019256
9.04125e-07
0.000192306
9.52617e-07
0.000192039
1.00225e-06
0.000191758
1.04976e-06
0.000191465
1.09363e-06
0.000191163
1.13352e-06
0.000190851
1.16928e-06
0.000190527
1.20427e-06
0.000190201
1.23044e-06
0.000189869
1.25219e-06
0.000189535
1.26633e-06
0.0001892
1.27261e-06
0.000188867
1.26974e-06
0.000188541
1.26126e-06
0.00018822
1.24703e-06
0.000187913
1.20882e-06
0.000187624
1.13874e-06
0.000187362
1.04783e-06
0.000187122
9.75801e-07
0.000186899
9.44418e-07
0.000186691
9.05051e-07
0.000186523
7.39575e-07
0.000186433
3.82089e-07
0.000186449
-9.76788e-08
0.000186544
-3.96387e-07
0.000186641
-2.90733e-07
0.000186664
1.81499e-07
0.000186607
5.92945e-07
0.000186655
-5.16545e-08
0.000187051
-1.9417e-06
0.00018803
-4.93119e-06
0.000189677
-8.17825e-06
0.000191626
-9.16761e-06
0.00019335
-7.30468e-06
0.000194471
-3.79742e-06
1.31697e-06
0.000237892
-1.32893e-06
0.000238254
-1.21379e-06
0.000238597
-1.15103e-06
0.000238929
-1.10822e-06
0.000239248
-1.07333e-06
0.000239563
-1.05605e-06
0.000239874
-1.04703e-06
0.000240186
-1.04819e-06
0.0002405
-1.04777e-06
0.00024081
-1.03876e-06
0.000241116
-1.02024e-06
0.000241412
-9.84833e-07
0.000241698
-9.38393e-07
0.000241963
-8.79287e-07
0.000242211
-8.20388e-07
0.000242445
-7.6687e-07
0.000242664
-7.15884e-07
0.000242871
-6.66486e-07
0.000243065
-6.20446e-07
0.000243245
-5.7366e-07
0.000243413
-5.26597e-07
0.00024357
-4.84524e-07
0.000243718
-4.42644e-07
0.000243852
-3.98468e-07
0.000243976
-3.53743e-07
0.000244091
-3.08623e-07
0.000244192
-2.62468e-07
0.000244283
-2.11913e-07
0.000244359
-1.55314e-07
0.000244418
-9.72616e-08
0.000244461
-3.71033e-08
0.000244485
3.0275e-08
0.000244494
9.61051e-08
0.00024448
1.66893e-07
0.00024445
2.29942e-07
0.0002444
3.01255e-07
0.000244332
3.71006e-07
0.000244244
4.42652e-07
0.000244132
5.18739e-07
0.000244005
5.91843e-07
0.000243854
6.69268e-07
0.000243681
7.48062e-07
0.000243486
8.25937e-07
0.000243271
9.01813e-07
0.000243035
9.77588e-07
0.00024278
1.0527e-06
0.000242502
1.12667e-06
0.000242206
1.20049e-06
0.000241887
1.27146e-06
0.000241555
1.33448e-06
0.000241205
1.3997e-06
0.000240838
1.46048e-06
0.000240455
1.51602e-06
0.000240062
1.56325e-06
0.000239659
1.60689e-06
0.000239248
1.64149e-06
0.000238828
1.67177e-06
0.000238406
1.68839e-06
0.000237987
1.69192e-06
0.00023757
1.68646e-06
0.00023716
1.67172e-06
0.000236763
1.64406e-06
0.000236379
1.59216e-06
0.000236023
1.49531e-06
0.000235699
1.37176e-06
0.000235409
1.26622e-06
0.000235142
1.21052e-06
0.000234902
1.1459e-06
0.000234709
9.32029e-07
0.000234608
4.83502e-07
0.00023463
-1.19728e-07
0.000234752
-5.18546e-07
0.000234884
-4.23011e-07
0.00023495
1.15426e-07
0.000234937
6.06636e-07
0.00023503
-1.45042e-07
0.000235499
-2.41045e-06
0.000236592
-6.02468e-06
0.00023842
-1.00062e-05
0.00024061
-1.13569e-05
0.000242607
-9.3018e-06
0.000243997
-5.18751e-06
8.87317e-07
0.000294207
-1.85308e-06
0.000294692
-1.69845e-06
0.000295151
-1.6097e-06
0.000295592
-1.54857e-06
0.000296019
-1.50084e-06
0.000296439
-1.47578e-06
0.000296853
-1.46122e-06
0.000297265
-1.45982e-06
0.00029768
-1.46241e-06
0.000298091
-1.45007e-06
0.000298494
-1.42279e-06
0.000298885
-1.37633e-06
0.000299257
-1.31005e-06
0.00029961
-1.23267e-06
0.000299943
-1.15242e-06
0.000300253
-1.0775e-06
0.000300544
-1.00663e-06
0.00030082
-9.42016e-07
0.000301077
-8.77241e-07
0.00030132
-8.16677e-07
0.000301549
-7.55472e-07
0.000301764
-6.99679e-07
0.000301965
-6.44136e-07
0.000302155
-5.87845e-07
0.000302331
-5.30142e-07
0.000302497
-4.74203e-07
0.000302648
-4.13566e-07
0.000302785
-3.48948e-07
0.000302903
-2.7292e-07
0.000303003
-1.9691e-07
0.000303079
-1.13378e-07
0.000303133
-2.32007e-08
0.000303161
6.78479e-08
0.00030317
1.57298e-07
0.000303153
2.47424e-07
0.000303115
3.39623e-07
0.000303049
4.3683e-07
0.000302958
5.33699e-07
0.000302843
6.33822e-07
0.0003027
7.34818e-07
0.000302529
8.40055e-07
0.000302332
9.45456e-07
0.000302107
1.05068e-06
0.000301855
1.1538e-06
0.000301575
1.25757e-06
0.000301268
1.3597e-06
0.000300935
1.45954e-06
0.000300576
1.5598e-06
0.000300194
1.65314e-06
0.000299787
1.74216e-06
0.000299357
1.82942e-06
0.000298906
1.91117e-06
0.000298438
1.98446e-06
0.000297953
2.04771e-06
0.000297455
2.10526e-06
0.000296943
2.15376e-06
0.000296427
2.18781e-06
0.000295907
2.20824e-06
0.000295384
2.21446e-06
0.000294872
2.19876e-06
0.000294365
2.17864e-06
0.00029387
2.13889e-06
0.000293403
2.05964e-06
0.000292966
1.93227e-06
0.000292573
1.76428e-06
0.000292222
1.61765e-06
0.000291909
1.52399e-06
0.000291629
1.4259e-06
0.000291412
1.14822e-06
0.000291304
5.92371e-07
0.000291338
-1.54103e-07
0.00029149
-6.70619e-07
0.000291673
-6.06122e-07
0.000291798
-9.64321e-09
0.000291846
5.59007e-07
0.000292015
-3.13915e-07
0.000292571
-2.96678e-06
0.000293787
-7.24091e-06
0.000295795
-1.20143e-05
0.000298218
-1.37795e-05
0.000300486
-1.15694e-05
0.000302152
-6.85419e-06
1.9297e-07
0.000359449
-2.53722e-06
0.000360085
-2.33804e-06
0.000360691
-2.21458e-06
0.000361269
-2.12665e-06
0.000361832
-2.06363e-06
0.000362379
-2.02281e-06
0.000362919
-2.00161e-06
0.000363458
-1.99844e-06
0.000363994
-1.99792e-06
0.000364522
-1.97857e-06
0.000365043
-1.94325e-06
0.000365548
-1.88151e-06
0.000366033
-1.79497e-06
0.00036649
-1.69014e-06
0.000366922
-1.58403e-06
0.000367326
-1.48146e-06
0.00036771
-1.39003e-06
0.000368067
-1.2992e-06
0.000368407
-1.21669e-06
0.000368729
-1.1389e-06
0.000369032
-1.05823e-06
0.000369318
-9.85805e-07
0.000369589
-9.15455e-07
0.000369849
-8.47698e-07
0.000370095
-7.75594e-07
0.000370323
-7.02596e-07
0.000370543
-6.32849e-07
0.00037074
-5.46503e-07
0.000370919
-4.51555e-07
0.000371071
-3.49057e-07
0.000371196
-2.3851e-07
0.000371296
-1.22256e-07
0.000371361
2.54649e-09
0.0003714
1.1849e-07
0.000371409
2.38484e-07
0.000371389
3.59104e-07
0.000371338
4.88084e-07
0.000371255
6.16462e-07
0.000371138
7.50732e-07
0.000370991
8.82557e-07
0.000370811
1.02018e-06
0.000370591
1.16526e-06
0.000370339
1.30215e-06
0.000370054
1.43886e-06
0.000369734
1.57755e-06
0.000369378
1.71578e-06
0.000368988
1.84972e-06
0.000368565
1.9829e-06
0.000368109
2.10914e-06
0.000367624
2.22721e-06
0.00036711
2.34372e-06
0.000366569
2.45178e-06
0.000366004
2.55024e-06
0.000365415
2.63618e-06
0.000364811
2.70916e-06
0.000364191
2.77361e-06
0.000363559
2.81975e-06
0.000362922
2.84596e-06
0.000362287
2.84887e-06
0.000361654
2.83186e-06
0.000361036
2.79735e-06
0.000360437
2.73782e-06
0.000359862
2.63386e-06
0.000359332
2.46241e-06
0.000358856
2.24085e-06
0.000358433
2.04053e-06
0.000358061
1.8961e-06
0.000357745
1.74207e-06
0.000357504
1.389e-06
0.000357387
7.08789e-07
0.000357438
-2.05182e-07
0.000357631
-8.63574e-07
0.000357873
-8.47934e-07
0.000358076
-2.12693e-07
0.000358212
4.23275e-07
0.000358477
-5.79037e-07
0.00035915
-3.6401e-06
0.000360507
-8.59793e-06
0.000362705
-1.4212e-05
0.000365354
-1.64287e-05
0.00036789
-1.4105e-05
0.00036984
-8.8044e-06
-7.96618e-07
0.000434413
-3.42747e-06
0.000435238
-3.16506e-06
0.000436019
-2.99512e-06
0.000436772
-2.87961e-06
0.0004375
-2.79171e-06
0.00043821
-2.73201e-06
0.000438905
-2.6968e-06
0.000439593
-2.68699e-06
0.000440274
-2.67872e-06
0.000440949
-2.65312e-06
0.000441609
-2.60293e-06
0.000442252
-2.52436e-06
0.000442866
-2.40929e-06
0.000443451
-2.27559e-06
0.000444003
-2.13528e-06
0.000444523
-2.00198e-06
0.000445015
-1.88119e-06
0.00044548
-1.76467e-06
0.000445919
-1.65554e-06
0.000446333
-1.55268e-06
0.000446733
-1.45795e-06
0.000447111
-1.36337e-06
0.000447474
-1.27831e-06
0.00044782
-1.19442e-06
0.000448151
-1.10662e-06
0.000448469
-1.02055e-06
0.000448773
-9.36417e-07
0.000449059
-8.31863e-07
0.000449311
-7.03554e-07
0.000449536
-5.74121e-07
0.00044973
-4.32367e-07
0.000449888
-2.80661e-07
0.00045001
-1.19121e-07
0.000450092
3.66775e-08
0.000450144
1.85994e-07
0.000450155
3.47793e-07
0.000450132
5.11789e-07
0.00045007
6.78391e-07
0.00044997
8.50798e-07
0.000449825
1.02753e-06
0.000449638
1.20667e-06
0.000449414
1.38981e-06
0.000449141
1.57492e-06
0.000448825
1.75548e-06
0.000448466
1.93583e-06
0.000448066
2.11578e-06
0.000447621
2.29464e-06
0.000447136
2.46815e-06
0.00044661
2.63581e-06
0.000446043
2.79425e-06
0.000445439
2.94688e-06
0.000444801
3.08998e-06
0.000444131
3.22041e-06
0.000443433