/*--------------------------------*- C++ -*----------------------------------*\
| =========                 |                                                 |
| \\      /  F ield         | OpenFOAM: The Open Source CFD Toolbox           |
|  \\    /   O peration     | Version:  2412                                  |
|   \\  /    A nd           | Website:  www.openfoam.com                      |
|    \\/     M anipulation  |                                                 |
\*---------------------------------------------------------------------------*/
FoamFile
{
    version     2.0;
    format      ascii;
    arch        "LSB;label=32;scalar=64";
    class       surfaceScalarField;
    location    "360";
    object      phi;
}
// * * * * * * * * * * * * * * * * * * * * * * * * * * * * * * * * * * * * * //

dimensions      [0 3 -1 0 0 0 0];

oriented        oriented;

internalField   nonuniform List<scalar> 
14599
(
1.16823e-06
3.01596e-08
1.13807e-06
3.01653e-08
1.1081e-06
2.99718e-08
1.07828e-06
2.9821e-08
1.04872e-06
2.95597e-08
1.01941e-06
2.93111e-08
9.90349e-07
2.90656e-08
9.61509e-07
2.88408e-08
9.32942e-07
2.85675e-08
9.04656e-07
2.82867e-08
8.76754e-07
2.7902e-08
8.4923e-07
2.74899e-08
8.22036e-07
2.72293e-08
7.95331e-07
2.66591e-08
7.69096e-07
2.62841e-08
7.4334e-07
2.56971e-08
7.18055e-07
2.53464e-08
6.93329e-07
2.46653e-08
6.69184e-07
2.42105e-08
6.45702e-07
2.34836e-08
6.22805e-07
2.28978e-08
6.00587e-07
2.2219e-08
5.79052e-07
2.15361e-08
5.58184e-07
2.08701e-08
5.38046e-07
2.01385e-08
5.18617e-07
1.94283e-08
4.99877e-07
1.86974e-08
4.81862e-07
1.80597e-08
4.64564e-07
1.72758e-08
4.47984e-07
1.66079e-08
4.32104e-07
1.58802e-08
4.16917e-07
1.51878e-08
4.02437e-07
1.44806e-08
3.88618e-07
1.38197e-08
3.75478e-07
1.31407e-08
3.62976e-07
1.24956e-08
3.51123e-07
1.18605e-08
3.39891e-07
1.12281e-08
3.29283e-07
1.06133e-08
3.19264e-07
1.002e-08
3.09863e-07
9.40184e-09
3.01095e-07
8.76837e-09
2.92921e-07
8.17533e-09
2.85281e-07
7.64043e-09
2.78152e-07
7.12924e-09
2.71681e-07
6.47114e-09
2.66067e-07
5.61396e-09
2.6142e-07
4.64735e-09
2.57417e-07
4.00326e-09
2.53617e-07
3.80017e-09
2.4983e-07
3.78786e-09
2.46608e-07
3.22238e-09
2.45473e-07
1.13504e-09
2.47346e-07
-1.87252e-09
2.52765e-07
-5.41941e-09
2.60479e-07
-7.71371e-09
2.67289e-07
-6.80945e-09
2.72389e-07
-5.09931e-09
2.75315e-07
-2.9266e-09
2.7678e-07
-1.46419e-09
2.84425e-07
-7.64504e-09
3.06274e-07
-2.18484e-08
3.47722e-07
-4.14485e-08
4.16938e-07
-6.92152e-08
5.41783e-07
-1.24845e-07
6.87881e-07
-1.46098e-07
6.81351e-07
6.53e-09
4.47436e-07
2.33916e-07
1.19412e-07
3.28024e-07
-6.97587e-08
1.8917e-07
-9.30407e-08
2.32821e-08
1.8076e-07
4.15566e-06
1.37415e-07
4.04887e-06
1.36956e-07
3.94241e-06
1.36432e-07
3.8367e-06
1.35536e-07
3.73197e-06
1.3429e-07
3.62797e-06
1.3331e-07
3.52482e-06
1.32221e-07
3.42261e-06
1.31049e-07
3.32133e-06
1.29857e-07
3.22108e-06
1.28536e-07
3.12195e-06
1.27032e-07
3.0241e-06
1.25286e-07
2.92795e-06
1.23431e-07
2.83323e-06
1.21319e-07
2.74015e-06
1.19435e-07
2.64875e-06
1.17008e-07
2.55907e-06
1.1512e-07
2.47145e-06
1.12196e-07
2.38585e-06
1.09908e-07
2.3025e-06
1.06831e-07
2.2213e-06
1.04106e-07
2.14247e-06
1.01044e-07
2.06604e-06
9.79737e-08
1.99207e-06
9.48436e-08
1.92057e-06
9.16374e-08
1.85154e-06
8.8456e-08
1.78507e-06
8.51076e-08
1.72118e-06
8.20166e-08
1.65976e-06
7.86554e-08
1.60095e-06
7.54656e-08
1.54461e-06
7.22231e-08
1.49074e-06
6.90576e-08
1.43929e-06
6.593e-08
1.39029e-06
6.28188e-08
1.34358e-06
5.98511e-08
1.29926e-06
5.6811e-08
1.25718e-06
5.39504e-08
1.21734e-06
5.10653e-08
1.17961e-06
4.83451e-08
1.14409e-06
4.55484e-08
1.1107e-06
4.27924e-08
1.07952e-06
3.99475e-08
1.05049e-06
3.72048e-08
1.02333e-06
3.48069e-08
9.98027e-07
3.24286e-08
9.74966e-07
2.95329e-08
9.54966e-07
2.56146e-08
9.38301e-07
2.13123e-08
9.2393e-07
1.8375e-08
9.10334e-07
1.73962e-08
8.96802e-07
1.73205e-08
8.85287e-07
1.47382e-08
8.80918e-07
5.50425e-09
8.86925e-07
-7.87933e-09
9.05171e-07
-2.36651e-08
9.313e-07
-3.38422e-08
9.546e-07
-3.01091e-08
9.72128e-07
-2.26265e-08
9.82136e-07
-1.29347e-08
9.8734e-07
-6.66784e-09
1.01349e-06
-3.37959e-08
1.0878e-06
-9.61537e-08
1.22909e-06
-1.8274e-07
1.46461e-06
-3.04732e-07
1.88703e-06
-5.47268e-07
2.37688e-06
-6.35949e-07
2.36814e-06
1.52734e-08
1.59324e-06
1.00881e-06
4.673e-07
1.45397e-06
-2.05442e-07
8.61912e-07
-3.27475e-07
1.45316e-07
8.09419e-07
8.35457e-06
3.52272e-07
8.13999e-06
3.51543e-07
7.92658e-06
3.49843e-07
7.71453e-06
3.47591e-07
7.50411e-06
3.44709e-07
7.29586e-06
3.41566e-07
7.08915e-06
3.38933e-07
6.88398e-06
3.36216e-07
6.68087e-06
3.32971e-07
6.47975e-06
3.29657e-07
6.28107e-06
3.25713e-07
6.08515e-06
3.21156e-07
5.89194e-06
3.1669e-07
5.70201e-06
3.11181e-07
5.51532e-06
3.06203e-07
5.33198e-06
3.00254e-07
5.15235e-06
2.94844e-07
4.97646e-06
2.8799e-07
4.80497e-06
2.81499e-07
4.63745e-06
2.74361e-07
4.47479e-06
2.66759e-07
4.31667e-06
2.59172e-07
4.16337e-06
2.51273e-07
4.01493e-06
2.43281e-07
3.87148e-06
2.35092e-07
3.73307e-06
2.26866e-07
3.59979e-06
2.18321e-07
3.47148e-06
2.10391e-07
3.34835e-06
2.01755e-07
3.23022e-06
1.9364e-07
3.11718e-06
1.85262e-07
3.00907e-06
1.77168e-07
2.90591e-06
1.69091e-07
2.80752e-06
1.61216e-07
2.7139e-06
1.53473e-07
2.62488e-06
1.45817e-07
2.54045e-06
1.38395e-07
2.46046e-06
1.31047e-07
2.38486e-06
1.23953e-07
2.3135e-06
1.16916e-07
2.24646e-06
1.09828e-07
2.18392e-06
1.02487e-07
2.12559e-06
9.55342e-08
2.07106e-06
8.93373e-08
2.02018e-06
8.33106e-08
1.97391e-06
7.58048e-08
1.93354e-06
6.5983e-08
1.89982e-06
5.50352e-08
1.87061e-06
4.75901e-08
1.84317e-06
4.48366e-08
1.81588e-06
4.46072e-08
1.79268e-06
3.79421e-08
1.78329e-06
1.4895e-08
1.79414e-06
-1.87357e-08
1.82889e-06
-5.84112e-08
1.87901e-06
-8.39655e-08
1.92416e-06
-7.52557e-08
1.95818e-06
-5.66477e-08
1.97763e-06
-3.23787e-08
1.98811e-06
-1.71489e-08
2.03841e-06
-8.40971e-08
2.18166e-06
-2.394e-07
2.45407e-06
-4.55151e-07
2.90749e-06
-7.58156e-07
3.71564e-06
-1.35542e-06
4.65198e-06
-1.57228e-06
4.66115e-06
6.10366e-09
3.20309e-06
2.46686e-06
1.01519e-06
3.64187e-06
-3.40304e-07
2.2174e-06
-6.4698e-07
4.51992e-07
2.0417e-06
1.41597e-05
7.15835e-07
1.37969e-05
7.14272e-07
1.34359e-05
7.10889e-07
1.30775e-05
7.05976e-07
1.2722e-05
7.00269e-07
1.23693e-05
6.94249e-07
1.20199e-05
6.88312e-07
1.16734e-05
6.82731e-07
1.13299e-05
6.76482e-07
1.09896e-05
6.69912e-07
1.06536e-05
6.61729e-07
1.03223e-05
6.52372e-07
9.99597e-06
6.43123e-07
9.67481e-06
6.32272e-07
9.359e-06
6.22082e-07
9.049e-06
6.1017e-07
8.74528e-06
5.98658e-07
8.44801e-06
5.85171e-07
8.1577e-06
5.71904e-07
7.87491e-06
5.57158e-07
7.59955e-06
5.42112e-07
7.3321e-06
5.26631e-07
7.0727e-06
5.1067e-07
6.82178e-06
4.94209e-07
6.57909e-06
4.77787e-07
6.3451e-06
4.60856e-07
6.11951e-06
4.43847e-07
5.90263e-06
4.27336e-07
5.69437e-06
4.09983e-07
5.49461e-06
3.93436e-07
5.30337e-06
3.76511e-07
5.12051e-06
3.6003e-07
4.94596e-06
3.43633e-07
4.7795e-06
3.27679e-07
4.62116e-06
3.11815e-07
4.4705e-06
2.96466e-07
4.32769e-06
2.81217e-07
4.19239e-06
2.66348e-07
4.06444e-06
2.51908e-07
3.94377e-06
2.37595e-07
3.83037e-06
2.2322e-07
3.72446e-06
2.08402e-07
3.62569e-06
1.94306e-07
3.53342e-06
1.81611e-07
3.44728e-06
1.69452e-07
3.36874e-06
1.5434e-07
3.30025e-06
1.3448e-07
3.24264e-06
1.12641e-07
3.1928e-06
9.74286e-08
3.14591e-06
9.17322e-08
3.09962e-06
9.08989e-08
3.06001e-06
7.75542e-08
3.043e-06
3.19015e-08
3.05918e-06
-3.49124e-08
3.11446e-06
-1.13691e-07
3.19525e-06
-1.64761e-07
3.26852e-06
-1.48518e-07
3.32398e-06
-1.12108e-07
3.35581e-06
-6.42086e-08
3.37347e-06
-3.4815e-08
3.45496e-06
-1.65586e-07
3.68619e-06
-4.70627e-07
4.12677e-06
-8.95723e-07
4.85858e-06
-1.48997e-06
6.15243e-06
-2.64927e-06
7.65736e-06
-3.07721e-06
7.72087e-06
-5.74031e-08
5.42476e-06
4.76297e-06
1.85664e-06
7.20999e-06
-4.48447e-07
4.52249e-06
-1.07002e-06
1.07357e-06
4.06012e-06
2.20842e-05
1.28171e-06
2.15208e-05
1.27769e-06
2.0959e-05
1.27271e-06
2.04015e-05
1.26351e-06
1.98484e-05
1.25332e-06
1.93001e-05
1.24253e-06
1.87562e-05
1.23228e-06
1.82171e-05
1.22184e-06
1.76824e-05
1.21115e-06
1.71538e-05
1.19849e-06
1.66312e-05
1.18436e-06
1.61155e-05
1.16799e-06
1.56078e-05
1.1509e-06
1.51079e-05
1.13208e-06
1.46168e-05
1.11327e-06
1.41346e-05
1.09226e-06
1.36617e-05
1.07165e-06
1.31994e-05
1.04738e-06
1.27477e-05
1.02374e-06
1.23077e-05
9.97149e-07
1.18793e-05
9.70496e-07
1.14631e-05
9.42822e-07
1.10596e-05
9.1421e-07
1.06688e-05
8.84966e-07
1.02912e-05
8.55441e-07
9.92692e-06
8.25126e-07
9.57578e-06
7.94937e-07
9.23826e-06
7.64917e-07
8.91382e-06
7.34389e-07
8.60288e-06
7.04416e-07
8.30514e-06
6.74248e-07
8.0206e-06
6.44573e-07
7.7489e-06
6.15336e-07
7.48977e-06
5.86813e-07
7.24301e-06
5.58579e-07
7.00869e-06
5.30777e-07
6.78632e-06
5.03591e-07
6.57578e-06
4.76883e-07
6.37659e-06
4.51111e-07
6.1886e-06
4.25585e-07
6.0121e-06
3.99724e-07
5.8471e-06
3.73398e-07
5.69331e-06
3.48099e-07
5.5494e-06
3.25517e-07
5.41525e-06
3.03605e-07
5.29292e-06
2.76673e-07
5.1857e-06
2.41695e-07
5.09525e-06
2.03101e-07
5.01674e-06
1.75931e-07
4.94312e-06
1.65362e-07
4.87075e-06
1.63263e-07
4.80857e-06
1.39738e-07
4.78024e-06
6.02348e-08
4.80163e-06
-5.63101e-08
4.88163e-06
-1.93691e-07
5.00049e-06
-2.83618e-07
5.1093e-06
-2.57321e-07
5.19201e-06
-1.94817e-07
5.24002e-06
-1.12221e-07
5.26699e-06
-6.1786e-08
5.38756e-06
-2.86156e-07
5.72923e-06
-8.12298e-07
6.37995e-06
-1.54644e-06
7.45932e-06
-2.56934e-06
9.34963e-06
-4.53958e-06
1.15603e-05
-5.2879e-06
1.17351e-05
-2.32206e-07
8.44643e-06
8.05167e-06
3.12484e-06
1.25316e-05
-4.8318e-07
8.13051e-06
-1.61925e-06
2.20964e-06
7.0676e-06
3.27883e-05
2.11801e-06
3.19539e-05
2.1121e-06
3.11239e-05
2.1027e-06
3.02989e-05
2.08854e-06
2.94802e-05
2.07203e-06
2.86688e-05
2.05392e-06
2.78645e-05
2.03653e-06
2.70666e-05
2.01974e-06
2.62762e-05
2.00159e-06
2.5493e-05
1.98165e-06
2.47201e-05
1.95731e-06
2.39568e-05
1.93121e-06
2.32049e-05
1.90284e-06
2.24651e-05
1.87187e-06
2.1738e-05
1.84041e-06
2.10241e-05
1.80611e-06
2.03246e-05
1.77121e-06
1.96393e-05
1.73263e-06
1.89706e-05
1.69246e-06
1.83185e-05
1.64933e-06
1.7684e-05
1.60493e-06
1.70679e-05
1.55891e-06
1.64701e-05
1.51205e-06
1.58912e-05
1.46387e-06
1.53317e-05
1.41497e-06
1.47917e-05
1.36513e-06
1.42717e-05
1.31489e-06
1.37713e-05
1.26536e-06
1.32908e-05
1.21482e-06
1.283e-05
1.16528e-06
1.23889e-05
1.1154e-06
1.1967e-05
1.06641e-06
1.15641e-05
1.01823e-06
1.11804e-05
9.70544e-07
1.08148e-05
9.24181e-07
1.04676e-05
8.78018e-07
1.01379e-05
8.33305e-07
9.82559e-06
7.89139e-07
9.53037e-06
7.46341e-07
9.25185e-06
7.04105e-07
8.99019e-06
6.61387e-07
8.74563e-06
6.17964e-07
8.51725e-06
5.76474e-07
8.304e-06
5.38776e-07
8.10512e-06
5.02483e-07
7.92331e-06
4.58485e-07
7.76365e-06
4.01356e-07
7.62821e-06
3.38547e-07
7.51036e-06
2.93782e-07
7.40027e-06
2.75445e-07
7.29242e-06
2.71121e-07
7.19955e-06
2.32603e-07
7.15454e-06
1.05245e-07
7.18018e-06
-8.19485e-08
7.2891e-06
-3.02611e-07
7.4536e-06
-4.48117e-07
7.60612e-06
-4.09844e-07
7.72271e-06
-3.11408e-07
7.79134e-06
-1.80847e-07
7.83059e-06
-1.01037e-07
7.99948e-06
-4.55045e-07
8.47599e-06
-1.2888e-06
9.38417e-06
-2.45462e-06
1.08869e-05
-4.07211e-06
1.34907e-05
-7.14339e-06
1.65557e-05
-8.3528e-06
1.69261e-05
-6.02626e-07
1.25019e-05
1.24758e-05
5.00597e-06
2.00275e-05
-3.67908e-07
1.35044e-05
-2.31923e-06
4.16096e-06
1.1281e-05
4.70984e-05
3.31183e-06
4.59081e-05
3.30243e-06
4.47222e-05
3.28856e-06
4.35433e-05
3.26742e-06
4.23745e-05
3.24086e-06
4.12154e-05
3.21299e-06
4.0065e-05
3.18695e-06
3.89246e-05
3.16013e-06
3.77942e-05
3.13207e-06
3.6675e-05
3.10079e-06
3.55683e-05
3.06407e-06
3.4477e-05
3.02242e-06
3.34009e-05
2.97903e-06
3.23423e-05
2.93042e-06
3.13019e-05
2.88086e-06
3.02794e-05
2.82849e-06
2.92772e-05
2.77348e-06
2.8297e-05
2.71279e-06
2.73389e-05
2.65063e-06
2.6405e-05
2.58324e-06
2.54958e-05
2.51416e-06
2.46125e-05
2.44222e-06
2.37557e-05
2.36883e-06
2.29261e-05
2.29344e-06
2.21243e-05
2.21675e-06
2.13501e-05
2.13933e-06
2.06043e-05
2.06071e-06
1.98866e-05
1.98311e-06
1.91975e-05
1.90386e-06
1.85366e-05
1.82618e-06
1.79038e-05
1.74825e-06
1.72986e-05
1.67162e-06
1.67211e-05
1.59575e-06
1.61702e-05
1.52145e-06
1.56459e-05
1.44839e-06
1.51475e-05
1.3765e-06
1.46748e-05
1.30599e-06
1.4227e-05
1.23696e-06
1.38033e-05
1.16997e-06
1.34037e-05
1.10378e-06
1.30279e-05
1.0371e-06
1.26768e-05
9.69155e-07
1.23491e-05
9.04105e-07
1.20429e-05
8.4505e-07
1.1757e-05
7.88292e-07
1.14957e-05
7.19827e-07
1.12654e-05
6.3167e-07
1.10689e-05
5.35085e-07
1.08975e-05
4.65161e-07
1.07377e-05
4.35264e-07
1.05824e-05
4.26397e-07
1.04479e-05
3.6705e-07
1.03787e-05
1.74473e-07
1.04057e-05
-1.08926e-07
1.05463e-05
-4.43232e-07
1.07645e-05
-6.66326e-07
1.09691e-05
-6.14462e-07
1.11268e-05
-4.69056e-07
1.12206e-05
-2.74704e-07
1.12765e-05
-1.56885e-07
1.15035e-05
-6.82035e-07
1.21407e-05
-1.92603e-06
1.33563e-05
-3.67016e-06
1.53639e-05
-6.07974e-06
1.87983e-05
-1.05778e-05
2.28692e-05
-1.24236e-05
2.35472e-05
-1.28069e-06
1.788e-05
1.8143e-05
7.75452e-06
3.0153e-05
2.12953e-08
2.12376e-05
-3.18566e-06
7.36792e-06
1.69174e-05
6.60061e-05
4.96704e-06
6.43556e-05
4.95291e-06
6.27115e-05
4.93269e-06
6.10762e-05
4.90273e-06
5.94531e-05
4.86396e-06
5.78415e-05
4.82457e-06
5.62432e-05
4.78525e-06
5.46572e-05
4.74608e-06
5.30848e-05
4.70454e-06
5.15271e-05
4.65844e-06
4.99863e-05
4.60489e-06
4.84657e-05
4.54304e-06
4.69665e-05
4.47824e-06
4.54904e-05
4.4065e-06
4.40383e-05
4.33302e-06
4.26132e-05
4.25343e-06
4.12146e-05
4.17223e-06
3.9845e-05
4.08227e-06
3.8507e-05
3.9887e-06
3.72021e-05
3.88814e-06
3.59319e-05
3.78444e-06
3.46966e-05
3.67753e-06
3.34984e-05
3.56697e-06
3.23381e-05
3.45378e-06
3.12162e-05
3.33869e-06
3.0133e-05
3.22247e-06
2.90887e-05
3.10492e-06
2.80843e-05
2.98762e-06
2.71195e-05
2.86863e-06
2.61939e-05
2.75181e-06
2.53073e-05
2.63488e-06
2.44596e-05
2.51926e-06
2.36503e-05
2.40508e-06
2.28786e-05
2.29318e-06
2.21437e-05
2.18325e-06
2.14452e-05
2.07497e-06
2.07825e-05
1.96878e-06
2.0155e-05
1.86438e-06
1.95611e-05
1.76388e-06
1.90009e-05
1.66405e-06
1.84744e-05
1.56361e-06
1.79815e-05
1.462e-06
1.75219e-05
1.36373e-06
1.70918e-05
1.27515e-06
1.66908e-05
1.18931e-06
1.63236e-05
1.08702e-06
1.59985e-05
9.56778e-07
1.57199e-05
8.13682e-07
1.5476e-05
7.09039e-07
1.52494e-05
6.61901e-07
1.50304e-05
6.45367e-07
1.484e-05
5.57412e-07
1.47355e-05
2.79018e-07
1.47589e-05
-1.32302e-07
1.49323e-05
-6.16641e-07
1.52099e-05
-9.43934e-07
1.54746e-05
-8.7916e-07
1.56804e-05
-6.74911e-07
1.58051e-05
-3.99394e-07
1.58813e-05
-2.33059e-07
1.6177e-05
-9.77735e-07
1.7002e-05
-2.75103e-06
1.85754e-05
-5.24355e-06
2.11686e-05
-8.67296e-06
2.55426e-05
-1.49518e-05
3.07618e-05
-1.76428e-05
3.18839e-05
-2.40277e-06
2.49206e-05
2.51064e-05
1.17077e-05
4.33658e-05
8.71344e-07
3.2074e-05
-4.21169e-06
1.2451e-05
2.41915e-05
9.05988e-05
7.19247e-06
8.83759e-05
7.17578e-06
8.61594e-05
7.14918e-06
8.39524e-05
7.10972e-06
8.17593e-05
7.05705e-06
7.95817e-05
7.00218e-06
7.74182e-05
6.94881e-06
7.52695e-05
6.89474e-06
7.31371e-05
6.83699e-06
7.10229e-05
6.77257e-06
6.89311e-05
6.69673e-06
6.68637e-05
6.61038e-06
6.48238e-05
6.51816e-06
6.28137e-05
6.41663e-06
6.08362e-05
6.31054e-06
5.88911e-05
6.19843e-06
5.69831e-05
6.08036e-06
5.51136e-05
5.95169e-06
5.3285e-05
5.81731e-06
5.15011e-05
5.67204e-06
4.97624e-05
5.52316e-06
4.80723e-05
5.36768e-06
4.64312e-05
5.20805e-06
4.48408e-05
5.04419e-06
4.3302e-05
4.87747e-06
4.18164e-05
4.70809e-06
4.03836e-05
4.53767e-06
3.90049e-05
4.3664e-06
3.76791e-05
4.19445e-06
3.64078e-05
4.02308e-06
3.51896e-05
3.85308e-06
3.40243e-05
3.6846e-06
3.29114e-05
3.51793e-06
3.18499e-05
3.35472e-06
3.0839e-05
3.19414e-06
2.98783e-05
3.03568e-06
2.89665e-05
2.88064e-06
2.81025e-05
2.72836e-06
2.72854e-05
2.58097e-06
2.65137e-05
2.43571e-06
2.57885e-05
2.28887e-06
2.51097e-05
2.14076e-06
2.44756e-05
1.99788e-06
2.38829e-05
1.86779e-06
2.33302e-05
1.74205e-06
2.2823e-05
1.59426e-06
2.23723e-05
1.40742e-06
2.1983e-05
1.20296e-06
2.16418e-05
1.05033e-06
2.13256e-05
9.78067e-07
2.10218e-05
9.49148e-07
2.07566e-05
8.22583e-07
2.06022e-05
4.33473e-07
2.06116e-05
-1.41692e-07
2.08153e-05
-8.20312e-07
2.1155e-05
-1.28372e-06
2.1486e-05
-1.21008e-06
2.17456e-05
-9.34585e-07
2.19057e-05
-5.59504e-07
2.20075e-05
-3.34819e-07
2.23828e-05
-1.353e-06
2.34198e-05
-3.78806e-06
2.53977e-05
-7.22144e-06
2.86518e-05
-1.19271e-05
3.40567e-05
-2.03567e-05
4.05394e-05
-2.41255e-05
4.22542e-05
-4.11758e-06
3.40197e-05
3.33408e-05
1.72928e-05
6.00927e-05
2.44993e-06
4.69169e-05
-5.34182e-06
2.02427e-05
3.33092e-05
0.000121855
1.00861e-05
0.000118963
1.00677e-05
0.000116073
1.00398e-05
0.000113189
9.99355e-06
0.000110318
9.92809e-06
0.000107461
9.85923e-06
0.000104619
9.79045e-06
0.000101793
9.72054e-06
9.89844e-05
9.64585e-06
9.61944e-05
9.56254e-06
9.34289e-05
9.46221e-06
9.06914e-05
9.34787e-06
8.79868e-05
9.22285e-06
8.53192e-05
9.08419e-06
8.26881e-05
8.94162e-06
8.00999e-05
8.78655e-06
7.7556e-05
8.62437e-06
7.50605e-05
8.44711e-06
7.26183e-05
8.25967e-06
7.02305e-05
8.05984e-06
6.79029e-05
7.85077e-06
6.56359e-05
7.63461e-06
6.34338e-05
7.41014e-06
6.12972e-05
7.18081e-06
5.92289e-05
6.94578e-06
5.72287e-05
6.7083e-06
5.52996e-05
6.46675e-06
5.34405e-05
6.22556e-06
5.16535e-05
5.98136e-06
4.99368e-05
5.73981e-06
4.82922e-05
5.49776e-06
4.67177e-05
5.25903e-06
4.52131e-05
5.02258e-06
4.37779e-05
4.78985e-06
4.24101e-05
4.56201e-06
4.11092e-05
4.3365e-06
3.98745e-05
4.11535e-06
3.87043e-05
3.89862e-06
3.75968e-05
3.68851e-06
3.65512e-05
3.48129e-06
3.55679e-05
3.27213e-06
3.46464e-05
3.06224e-06
3.37856e-05
2.85877e-06
3.29807e-05
2.67261e-06
3.22295e-05
2.49326e-06
3.15393e-05
2.28446e-06
3.09231e-05
2.02367e-06
3.03877e-05
1.73835e-06
2.9916e-05
1.52203e-06
2.94799e-05
1.4141e-06
2.90646e-05
1.36446e-06
2.87002e-05
1.18698e-06
2.84751e-05
6.58652e-07
2.8456e-05
-1.22619e-07
2.86797e-05
-1.044e-06
2.9079e-05
-1.68302e-06
2.94764e-05
-1.60755e-06
2.97928e-05
-1.25092e-06
2.99915e-05
-7.58229e-07
3.01235e-05
-4.66787e-07
3.05878e-05
-1.81731e-06
3.18575e-05
-5.05781e-06
3.42771e-05
-9.64105e-06
3.82526e-05
-1.59026e-05
4.47502e-05
-2.68543e-05
5.25667e-05
-3.19419e-05
5.50109e-05
-6.5618e-06
4.56179e-05
4.27338e-05
2.50431e-05
8.06676e-05
5.1432e-06
6.68167e-05
-6.41572e-06
3.18016e-05
4.44608e-05
0.00016033
1.36959e-05
0.000156712
1.36864e-05
0.000153084
1.36671e-05
0.000149458
1.36199e-05
0.00014584
1.35463e-05
0.00014223
1.34687e-05
0.00013863
1.33905e-05
0.000135041
1.33095e-05
0.000131463
1.32239e-05
0.000127904
1.31213e-05
0.000124367
1.3e-05
0.000120857
1.28572e-05
0.000117381
1.26988e-05
0.000113944
1.25211e-05
0.00011055
1.23365e-05
0.000107202
1.21345e-05
0.000103903
1.19225e-05
0.000100662
1.16883e-05
9.74829e-05
1.14391e-05
9.43703e-05
1.11725e-05
9.13284e-05
1.08926e-05
8.83624e-05
1.06006e-05
8.54742e-05
1.02983e-05
8.26695e-05
9.9855e-06
7.99487e-05
9.66658e-06
7.73149e-05
9.34215e-06
7.47706e-05
9.01097e-06
7.23158e-05
8.6804e-06
6.99517e-05
8.34545e-06
6.768e-05
8.01156e-06
6.55e-05
7.67775e-06
6.34115e-05
7.34755e-06
6.14139e-05
7.02015e-06
5.95059e-05
6.69792e-06
5.76872e-05
6.38071e-06
5.59562e-05
6.06748e-06
5.43113e-05
5.76026e-06
5.27509e-05
5.45902e-06
5.12742e-05
5.16518e-06
4.9879e-05
4.87649e-06
4.85649e-05
4.58625e-06
4.73336e-05
4.29353e-06
4.61817e-05
4.01067e-06
4.5104e-05
3.75034e-06
4.4098e-05
3.49927e-06
4.31718e-05
3.21062e-06
4.23412e-05
2.85427e-06
4.16136e-05
2.46593e-06
4.09703e-05
2.1654e-06
4.03771e-05
2.00726e-06
3.9816e-05
1.92555e-06
3.93212e-05
1.68178e-06
3.89979e-05
9.81995e-07
3.89262e-05
-5.09209e-08
3.91519e-05
-1.26974e-06
3.9597e-05
-2.12811e-06
4.00541e-05
-2.06465e-06
4.04235e-05
-1.62034e-06
4.06612e-05
-9.95884e-07
4.08263e-05
-6.31883e-07
4.13873e-05
-2.37835e-06
4.29014e-05
-6.5719e-06
4.57825e-05
-1.25221e-05
5.05159e-05
-2.0636e-05
5.81267e-05
-3.44651e-05
6.72819e-05
-4.10971e-05
7.05441e-05
-9.82404e-06
6.01851e-05
5.30928e-05
3.55722e-05
0.00010528
9.49029e-06
9.28987e-05
-7.09656e-06
4.83885e-05
5.78625e-05
0.000205874
1.80167e-05
0.000201535
1.80258e-05
0.000197176
1.80264e-05
0.000192801
1.79944e-05
0.000188423
1.79245e-05
0.000184045
1.78469e-05
0.000179666
1.77694e-05
0.000175286
1.76891e-05
0.000170912
1.75987e-05
0.000166542
1.74906e-05
0.000162189
1.73537e-05
0.000157855
1.71903e-05
0.000153554
1.70007e-05
0.000149283
1.67917e-05
0.000145056
1.65631e-05
0.000140874
1.63171e-05
0.000136743
1.60532e-05
0.000132672
1.57597e-05
0.000128665
1.54454e-05
0.000124734
1.51038e-05
0.000120881
1.47461e-05
0.000117115
1.43667e-05
0.000113438
1.39751e-05
0.000109857
1.35661e-05
0.000106377
1.31468e-05
0.000103001
1.2718e-05
9.97297e-05
1.22823e-05
9.6569e-05
1.18411e-05
9.35203e-05
1.13942e-05
9.05836e-05
1.09483e-05
8.77609e-05
1.05004e-05
8.50516e-05
1.00569e-05
8.24568e-05
9.61492e-06
7.99745e-05
9.18019e-06
7.76049e-05
8.75035e-06
7.53466e-05
8.32579e-06
7.31985e-05
7.90837e-06
7.11592e-05
7.49833e-06
6.92256e-05
7.09881e-06
6.73967e-05
6.70533e-06
6.56736e-05
6.3094e-06
6.40554e-05
5.9117e-06
6.25404e-05
5.52568e-06
6.11216e-05
5.16913e-06
5.97964e-05
4.82454e-06
5.85731e-05
4.43389e-06
5.74705e-05
3.95689e-06
5.64978e-05
3.43861e-06
5.56325e-05
3.0307e-06
5.48374e-05
2.80232e-06
5.40893e-05
2.67363e-06
5.34274e-05
2.34373e-06
5.29706e-05
1.43883e-06
5.28135e-05
1.0611e-07
5.30105e-05
-1.46674e-06
5.34748e-05
-2.59243e-06
5.3971e-05
-2.5608e-06
5.43805e-05
-2.0298e-06
5.46499e-05
-1.26535e-06
5.48492e-05
-8.31127e-07
5.55097e-05
-3.0389e-06
5.72663e-05
-8.3285e-06
6.06037e-05
-1.58595e-05
6.60929e-05
-2.61252e-05
7.47881e-05
-4.31602e-05
8.52108e-05
-5.15198e-05
8.92905e-05
-1.39038e-05
7.82127e-05
6.41707e-05
4.95987e-05
0.000133894
1.62485e-05
0.000126249
-6.85613e-06
7.14931e-05
7.39122e-05
0.000257855
2.30132e-05
0.000252823
2.30571e-05
0.000247758
2.30923e-05
0.000242671
2.30813e-05
0.000237565
2.30299e-05
0.000232445
2.29668e-05
0.000227312
2.29025e-05
0.00022217
2.28318e-05
0.000217015
2.27532e-05
0.000211856
2.26496e-05
0.000206698
2.25113e-05
0.000201553
2.23358e-05
0.000196425
2.21282e-05
0.000191327
2.18902e-05
0.00018626
2.16306e-05
0.000181231
2.13451e-05
0.00017625
2.10343e-05
0.000171325
2.06854e-05
0.000166465
2.03053e-05
0.000161677
1.98915e-05
0.000156973
1.945e-05
0.000152358
1.89821e-05
0.000147841
1.84917e-05
0.000143427
1.79801e-05
0.000139123
1.74506e-05
0.000134935
1.69064e-05
0.00013087
1.63476e-05
0.000126928
1.57826e-05
0.000123114
1.5208e-05
0.000119433
1.463e-05
0.000115884
1.40491e-05
0.000112472
1.34691e-05
0.000109194
1.28928e-05
0.000106054
1.23204e-05
0.000103049
1.17554e-05
0.000100179
1.11957e-05
9.74437e-05
1.06434e-05
9.48428e-05
1.00993e-05
9.23729e-05
9.56866e-06
9.00334e-05
9.04486e-06
8.7824e-05
8.51883e-06
8.57463e-05
7.98934e-06
8.37976e-05
7.47435e-06
8.19702e-05
6.99659e-06
8.02609e-05
6.53386e-06
7.86797e-05
6.01506e-06
7.72454e-05
5.39113e-06
7.59703e-05
4.71379e-06
7.48312e-05
4.16975e-06
7.37845e-05
3.84903e-06
7.28065e-05
3.65169e-06
7.19361e-05
3.21405e-06
7.13064e-05
2.06861e-06
7.10219e-05
3.90591e-07
7.1147e-05
-1.59186e-06
7.15894e-05
-3.03484e-06
7.20902e-05
-3.06155e-06
7.25164e-05
-2.45606e-06
7.28049e-05
-1.55385e-06
7.30326e-05
-1.05879e-06
7.37869e-05
-3.79323e-06
7.57655e-05
-1.03071e-05
7.95212e-05
-1.96152e-05
8.5716e-05
-3.232e-05
9.54028e-05
-5.2847e-05
0.000106939
-6.30556e-05
0.000111729
-1.86941e-05
0.000100183
7.57162e-05
6.78775e-05
0.0001662
2.6421e-05
0.000167705
-4.92387e-06
0.000102838
9.30348e-05
0.000321515
2.8561e-05
0.000315837
2.86911e-05
0.000310115
2.87787e-05
0.000304352
2.88559e-05
0.000298552
2.88812e-05
0.000292724
2.88583e-05
0.000286877
2.8813e-05
0.000281007
2.87733e-05
0.000275113
2.87253e-05
0.0002692
2.86666e-05
0.000263271
2.85788e-05
0.000257335
2.84467e-05
0.000251401
2.82702e-05
0.000245476
2.80525e-05
0.000239571
2.77954e-05
0.000233691
2.7511e-05
0.000227844
2.71917e-05
0.000222036
2.68421e-05
0.000216279
2.64426e-05
0.000210583
2.60012e-05
0.000204958
2.55167e-05
0.000199414
2.49938e-05
0.000193961
2.44359e-05
0.000188606
2.38459e-05
0.000183361
2.32255e-05
0.000178231
2.2581e-05
0.000173225
2.19117e-05
0.000168347
2.12258e-05
0.000163606
2.05239e-05
0.000159007
1.9807e-05
0.000154552
1.90845e-05
0.000150247
1.83541e-05
0.000146095
1.76218e-05
0.000142097
1.68904e-05
0.000138255
1.6163e-05
0.00013457
1.54402e-05
0.000131042
1.47238e-05
0.000127672
1.40131e-05
0.000124459
1.3312e-05
0.000121402
1.2626e-05
0.0001185
1.19473e-05
0.000115754
1.12646e-05
0.000113164
1.05788e-05
0.00011073
9.90853e-06
0.000108443
9.28335e-06
0.000106302
8.67563e-06
0.000104313
8.00335e-06
0.000102501
7.2035e-06
0.000100876
6.33827e-06
9.94183e-05
5.62788e-06
9.80793e-05
5.18795e-06
9.68328e-05
4.89826e-06
9.5719e-05
4.32779e-06
9.48777e-05
2.90993e-06
9.44244e-05
8.43915e-07
9.44288e-05
-1.59624e-06
9.47994e-05
-3.40547e-06
9.52645e-05
-3.52666e-06
9.5676e-05
-2.86759e-06
9.59652e-05
-1.84304e-06
9.62113e-05
-1.30485e-06
9.70428e-05
-4.62477e-06
9.9201e-05
-1.24652e-05
0.0001033
-2.37147e-05
0.000110098
-3.91175e-05
0.00012061
-6.33594e-05
0.000133024
-7.54689e-05
0.000138332
-2.40023e-05
0.00012655
8.74984e-05
9.11465e-05
0.000201603
4.12675e-05
0.000217584
-7.76096e-08
0.000144183
0.000115814
0.00038658
3.49276e-05
0.000380154
3.51175e-05
0.000373676
3.52564e-05
0.000367146
3.53858e-05
0.000360577
3.54508e-05
0.000353979
3.54558e-05
0.000347352
3.54401e-05
0.000340697
3.54279e-05
0.000334017
3.54061e-05
0.000327309
3.53745e-05
0.000320578
3.53095e-05
0.000313836
3.51893e-05
0.00030709
3.50156e-05
0.000300352
3.47904e-05
0.00029363
3.45179e-05
0.000286928
3.42124e-05
0.000280256
3.38639e-05
0.000273624
3.34747e-05
0.000267039
3.30267e-05
0.000260516
3.25247e-05
0.000254065
3.19674e-05
0.000247697
3.13623e-05
0.000241422
3.07111e-05
0.000235251
3.0017e-05
0.000229192
2.92841e-05
0.000223255
2.8518e-05
0.000217449
2.77174e-05
0.000211782
2.68935e-05
0.00020626
2.60458e-05
0.000200888
2.5178e-05
0.000195677
2.42963e-05
0.000190627
2.34034e-05
0.000185745
2.25039e-05
0.000181034
2.16019e-05
0.000176497
2.07002e-05
0.000172132
1.98045e-05
0.000167946
1.89096e-05
0.000163937
1.80222e-05
0.000160106
1.7143e-05
0.000156453
1.6279e-05
0.000152978
1.54223e-05
0.000149682
1.45615e-05
0.000146566
1.3694e-05
0.000143631
1.28437e-05
0.000140869
1.20453e-05
0.000138276
1.12692e-05
0.000135862
1.04172e-05
0.000133651
9.41463e-06
0.000131657
8.33191e-06
0.000129859
7.42558e-06
0.000128208
6.83916e-06
0.000126674
6.43209e-06
0.000125296
5.70574e-06
0.000124222
3.98479e-06
0.000123569
1.49639e-06
0.000123419
-1.44616e-06
0.000123683
-3.66955e-06
0.000124081
-3.92493e-06
0.000124457
-3.24311e-06
0.000124733
-2.1188e-06
0.000124989
-1.56075e-06
0.000125873
-5.50906e-06
0.000128154
-1.47466e-05
0.000132503
-2.80638e-05
0.00013975
-4.63637e-05
0.000150814
-7.44235e-05
0.00016377
-8.84254e-05
0.000169406
-2.96387e-05
0.00015765
9.92546e-05
0.00012004
0.000239213
6.21248e-05
0.0002755
9.37154e-06
0.000196936
0.000143315
0.000459174
4.21544e-05
0.000451878
4.24137e-05
0.000444527
4.26077e-05
0.000437118
4.27948e-05
0.000429663
4.29049e-05
0.000422177
4.29426e-05
0.000414661
4.29558e-05
0.000407117
4.29718e-05
0.000399539
4.29837e-05
0.000391932
4.29822e-05
0.000384302
4.29389e-05
0.000376657
4.28347e-05
0.000369012
4.266e-05
0.000361373
4.24297e-05
0.000353748
4.2143e-05
0.000346151
4.18092e-05
0.000338585
4.14304e-05
0.000331061
4.09982e-05
0.00032359
4.04978e-05
0.000316186
3.99289e-05
0.00030886
3.92934e-05
0.000301625
3.85968e-05
0.000294491
3.78449e-05
0.000287472
3.70365e-05
0.000280576
3.61805e-05
0.000273814
3.528e-05
0.000267193
3.43382e-05
0.000260726
3.33606e-05
0.000254417
3.23544e-05
0.000248277
3.13182e-05
0.00024231
3.02631e-05
0.000236522
2.91919e-05
0.000230919
2.8107e-05
0.000225504
2.70169e-05
0.000220279
2.59249e-05
0.00021525
2.48332e-05
0.000210416
2.37438e-05
0.000205782
2.26564e-05
0.000201347
2.1578e-05
0.000197111
2.0515e-05
0.000193073
1.94604e-05
0.000189238
1.83964e-05
0.000185607
1.73245e-05
0.000182181
1.62697e-05
0.000178952
1.5275e-05
0.000175915
1.43057e-05
0.000173082
1.32509e-05
0.000170478
1.20185e-05
0.000168121
1.06888e-05
0.000165987
9.55934e-06
0.000164027
8.79905e-06
0.00016221
8.24895e-06
0.000160569
7.3469e-06
0.000159258
5.2958e-06
0.000158405
2.34912e-06
0.000158099
-1.13952e-06
0.000158256
-3.82714e-06
0.000158592
-4.26025e-06
0.000158937
-3.5883e-06
0.000159207
-2.38921e-06
0.000159471
-1.82438e-06
0.000160386
-6.4246e-06
0.000162741
-1.71016e-05
0.000167247
-3.25691e-05
0.000174736
-5.38525e-05
0.000185993
-8.56808e-05
0.000199106
-0.000101539
0.000204933
-3.54655e-05
0.000193562
0.000110626
0.000154932
0.000277843
9.01708e-05
0.000340261
2.52092e-05
0.000261898
0.000177247
0.000540898
5.03991e-05
0.00053258
5.07319e-05
0.000524197
5.09908e-05
0.000515751
5.12405e-05
0.000507256
5.13997e-05
0.000498729
5.14701e-05
0.000490169
5.15151e-05
0.000481577
5.15641e-05
0.000472952
5.16085e-05
0.000464298
5.16364e-05
0.000455616
5.16204e-05
0.000446925
5.15266e-05
0.000438229
5.13559e-05
0.000429544
5.11141e-05
0.000420882
5.08052e-05
0.000412249
5.04424e-05
0.000403655
5.00243e-05
0.000395109
4.95443e-05
0.000386627
4.898e-05
0.00037822
4.83361e-05
0.000369905
4.76083e-05
0.000361693
4.68085e-05
0.000353597
4.59406e-05
0.00034563
4.5004e-05
0.000337803
4.40074e-05
0.000330129
4.29542e-05
0.000322617
4.18503e-05
0.000315274
4.07034e-05
0.000308112
3.9516e-05
0.000301138
3.8292e-05
0.000294359
3.70423e-05
0.000287784
3.57668e-05
0.000281414
3.44771e-05
0.000275257
3.31742e-05
0.000269314
3.18682e-05
0.00026359
3.05573e-05
0.000258087
2.92467e-05
0.000252805
2.79376e-05
0.000247748
2.66353e-05
0.000242915
2.53482e-05
0.000238307
2.40685e-05
0.000233924
2.27797e-05
0.000229773
2.14753e-05
0.000225851
2.01915e-05
0.000222153
1.89735e-05
0.000218671
1.77875e-05
0.00021542
1.65021e-05
0.000212425
1.5013e-05
0.000209707
1.34067e-05
0.000207246
1.20206e-05
0.000204986
1.10594e-05
0.000202889
1.03459e-05
0.00020099
9.24534e-06
0.000199449
6.83704e-06
0.000198405
3.39323e-06
0.000197958
-6.93043e-07
0.000198034
-3.903e-06
0.000198337
-4.56332e-06
0.000198683
-3.93366e-06
0.000198973
-2.67959e-06
0.000199261
-2.11253e-06
0.000200201
-7.36419e-06
0.000202598
-1.94989e-05
0.000207181
-3.71516e-05
0.00021471
-6.13816e-05
0.000225849