/*--------------------------------*- C++ -*----------------------------------*\
| =========                 |                                                 |
| \\      /  F ield         | OpenFOAM: The Open Source CFD Toolbox           |
|  \\    /   O peration     | Version:  2412                                  |
|   \\  /    A nd           | Website:  www.openfoam.com                      |
|    \\/     M anipulation  |                                                 |
\*---------------------------------------------------------------------------*/
FoamFile
{
    version     2.0;
    format      ascii;
    arch        "LSB;label=32;scalar=64";
    class       volVectorField;
    location    "360";
    object      U;
}
// * * * * * * * * * * * * * * * * * * * * * * * * * * * * * * * * * * * * * //

dimensions      [0 1 -1 0 0 0 0];

internalField   nonuniform List<vector> 
7387
(
(0.206141 -0.0592472 1.09932e-18)
(0.200814 -0.0579845 2.12029e-25)
(0.19551 -0.0567 -9.95703e-19)
(0.190239 -0.0554119 0)
(0.185012 -0.0541166 -8.89406e-19)
(0.179837 -0.0528172 -4.16223e-25)
(0.174707 -0.0515147 0)
(0.169623 -0.050211 0)
(0.164585 -0.0489036 -1.33001e-18)
(0.159597 -0.0475968 -6.05666e-19)
(0.154671 -0.0462904 2.41161e-25)
(0.149813 -0.0449925 -2.48469e-25)
(0.145021 -0.0437066 -2.08768e-19)
(0.140308 -0.0424227 0)
(0.135678 -0.0411546 1.41083e-19)
(0.131134 -0.0399 -1.05503e-19)
(0.126675 -0.0386607 0)
(0.12231 -0.037439 3.03699e-20)
(0.118046 -0.0362369 3.83407e-26)
(0.113892 -0.0350567 -2.92244e-26)
(0.109848 -0.0339037 0)
(0.105917 -0.0327745 0)
(0.102106 -0.0316737 0)
(0.0984141 -0.0306031 -1.17604e-19)
(0.0948456 -0.0295607 1.4342e-19)
(0.0914029 -0.0285509 1.7053e-19)
(0.0880832 -0.0275745 -1.99041e-19)
(0.0848886 -0.0266293 3.87484e-26)
(0.0818205 -0.0257174 -2.6077e-19)
(0.0788776 -0.0248399 5.80606e-25)
(0.0760592 -0.023996 -1.64867e-19)
(0.0733627 -0.0231858 1.83668e-19)
(0.0707887 -0.0224086 4.0728e-19)
(0.0683333 -0.0216667 -8.77095e-25)
(0.0659954 -0.0209558 9.25024e-25)
(0.0637715 -0.0202798 -5.43374e-19)
(0.0616606 -0.0196346 -2.97503e-19)
(0.0596601 -0.0190227 0)
(0.0577681 -0.0184412 -1.6539e-26)
(0.0559799 -0.0178922 -1.49327e-24)
(0.0542964 -0.0173727 1.58542e-24)
(0.0527219 -0.0168857 0)
(0.0512563 -0.0164323 0)
(0.0498893 -0.0160091 1.34754e-19)
(0.0486076 -0.0156134 -2.24886e-24)
(0.0474198 -0.0152445 1.58446e-19)
(0.0463635 -0.0149142 1.71663e-19)
(0.0454749 -0.0146335 -2.85442e-24)
(0.0447491 -0.0144072 -1.00568e-19)
(0.0440829 -0.0142084 -1.08769e-19)
(0.0434298 -0.0140204 0)
(0.0427607 -0.0138264 3.89232e-24)
(0.0423137 -0.0136813 -4.16431e-24)
(0.0423575 -0.0136713 7.38625e-20)
(0.0429632 -0.0138234 -1.92286e-26)
(0.044231 -0.0141983 8.55148e-20)
(0.0456027 -0.0146726 9.17659e-20)
(0.0465617 -0.0150798 0)
(0.0473021 -0.0154729 0)
(0.047469 -0.0157101 -5.62128e-20)
(0.0477687 -0.0158752 7.32849e-24)
(0.0500735 -0.0165216 6.37758e-20)
(0.0553344 -0.0179519 0)
(0.0645234 -0.0204166 3.57638e-20)
(0.0795108 -0.0243572 0)
(0.107807 -0.0335624 -9.91736e-24)
(0.126201 -0.0478421 4.09609e-20)
(0.0994401 -0.0516152 -4.15529e-26)
(0.042449 -0.0313491 -4.49338e-20)
(-0.00474422 0.00534712 0)
(-0.00906999 0.0140312 -1.25556e-23)
(-0.00638916 0.0171119 2.63358e-23)
(0.647596 -0.186127 -1.82794e-18)
(0.630911 -0.182161 3.48433e-18)
(0.614293 -0.178149 1.65556e-18)
(0.597781 -0.174111 -7.77436e-25)
(0.581414 -0.170054 0)
(0.565202 -0.165992 -6.31737e-25)
(0.549133 -0.161914 6.05176e-26)
(0.533209 -0.157829 6.07906e-26)
(0.517433 -0.153739 2.21088e-18)
(0.501816 -0.149647 1.00673e-18)
(0.486383 -0.145563 0)
(0.471161 -0.1415 0)
(0.45616 -0.137462 0)
(0.441403 -0.133453 0)
(0.426903 -0.129483 0)
(0.412668 -0.125555 1.35409e-25)
(0.398703 -0.121676 -2.16948e-25)
(0.385035 -0.117848 -5.01713e-20)
(0.371682 -0.114088 0)
(0.358672 -0.110392 1.12848e-25)
(0.346004 -0.106783 6.40712e-26)
(0.333691 -0.103247 -1.88543e-25)
(0.321752 -0.0998005 -3.27377e-25)
(0.310187 -0.0964459 -1.95716e-19)
(0.299008 -0.0931839 -2.38635e-19)
(0.288218 -0.0900223 2.837e-19)
(0.277817 -0.0869614 3.31093e-19)
(0.267809 -0.0840004 6.94533e-25)
(0.258195 -0.0811462 4.33697e-19)
(0.248974 -0.0783957 -2.44684e-19)
(0.240142 -0.075753 2.74153e-19)
(0.231693 -0.0732146 -3.054e-19)
(0.223625 -0.0707817 -3.38589e-19)
(0.215931 -0.0684546 0)
(0.208602 -0.0662304 0)
(0.201632 -0.0641094 -1.87221e-25)
(0.195016 -0.0620898 2.4727e-19)
(0.188747 -0.0601714 -2.09323e-24)
(0.182815 -0.0583513 2.94805e-19)
(0.177209 -0.0566284 0)
(0.171932 -0.0550015 3.49492e-19)
(0.166993 -0.0534754 3.79919e-19)
(0.162396 -0.0520525 0)
(0.158106 -0.0507261 2.23921e-19)
(0.154087 -0.0494841 2.42865e-19)
(0.150358 -0.0483286 2.63261e-19)
(0.147037 -0.04729 -2.8521e-19)
(0.144234 -0.046406 1.54411e-19)
(0.141933 -0.0456887 -5.06886e-24)
(0.139824 -0.0450595 5.54339e-24)
(0.137763 -0.0444663 -1.95286e-19)
(0.135661 -0.0438585 6.40699e-24)
(0.134235 -0.0433994 -1.13803e-19)
(0.134299 -0.0433507 0)
(0.136079 -0.0437973 1.32088e-19)
(0.139871 -0.0449209 -1.41997e-19)
(0.144005 -0.0463541 0)
(0.146916 -0.0475975 8.16549e-20)
(0.149156 -0.0487995 -1.06838e-23)
(0.149676 -0.0495417 2.27864e-23)
(0.150588 -0.0500748 -1.21303e-23)
(0.157497 -0.052056 0)
(0.173321 -0.0564094 0)
(0.200977 -0.0638828 -5.93765e-20)
(0.245931 -0.0758875 7.17768e-26)
(0.329997 -0.103366 -6.5373e-20)
(0.385703 -0.146214 -6.78101e-20)
(0.308733 -0.159187 1.72696e-23)
(0.137966 -0.0999675 -3.64759e-23)
(-0.0086613 0.0110543 3.84593e-23)
(-0.0261088 0.0411587 -8.45415e-20)
(-0.0194115 0.0554048 4.34948e-23)
(1.14972 -0.330436 4.13841e-18)
(1.12016 -0.323407 -1.97213e-18)
(1.09073 -0.316308 0)
(1.06148 -0.309157 1.77477e-18)
(1.03249 -0.301975 -1.67393e-18)
(1.00378 -0.29478 -1.57142e-18)
(0.97532 -0.287566 7.33704e-25)
(0.947119 -0.280334 1.36042e-18)
(0.919183 -0.273092 -1.25139e-18)
(0.891529 -0.265849 5.086e-25)
(0.864197 -0.258624 -9.77263e-25)
(0.837235 -0.25143 4.67454e-25)
(0.810673 -0.244276 3.92686e-19)
(0.784543 -0.237184 -2.7922e-25)
(0.758863 -0.230155 -2.65239e-19)
(0.733653 -0.223202 1.53284e-25)
(0.708925 -0.216333 -1.28828e-19)
(0.684722 -0.209559 5.6794e-20)
(0.661081 -0.2029 1.80635e-20)
(0.638034 -0.196366 -9.59626e-20)
(0.615597 -0.189967 0)
(0.593793 -0.183709 -2.86092e-25)
(0.572645 -0.177607 -7.27712e-26)
(0.552162 -0.171666 5.98708e-25)
(0.532359 -0.165892 -2.70121e-19)
(0.513243 -0.160293 -2.46713e-25)
(0.494819 -0.154869 7.5127e-25)
(0.47709 -0.149628 -7.86142e-25)
(0.460058 -0.144573 4.90895e-19)
(0.443721 -0.139701 -1.57966e-25)
(0.428074 -0.13502 -3.103e-19)
(0.413107 -0.130524 1.35485e-24)
(0.398812 -0.126216 -3.83219e-19)
(0.385179 -0.122093 0)
(0.372193 -0.118155 0)
(0.359845 -0.114396 -2.18949e-24)
(0.348123 -0.11082 2.79842e-19)
(0.337014 -0.107421 0)
(0.326502 -0.104198 2.58103e-24)
(0.31657 -0.101145 7.13101e-26)
(0.307218 -0.0982637 -3.95498e-19)
(0.298464 -0.0955593 -4.29911e-19)
(0.290312 -0.0930369 0)
(0.282706 -0.0906861 -2.5337e-19)
(0.275578 -0.0884843 -8.29226e-24)
(0.268966 -0.0864365 -2.97866e-19)
(0.263067 -0.0845927 -3.22687e-19)
(0.25807 -0.0830188 -3.49389e-19)
(0.25395 -0.0817358 1.35146e-25)
(0.25018 -0.0806104 -1.2409e-23)
(0.246506 -0.0795535 4.41815e-19)
(0.242777 -0.0784769 -1.46274e-23)
(0.240211 -0.0776577 1.56356e-23)
(0.240205 -0.0775433 0)
(0.243164 -0.0782845 -1.49413e-19)
(0.249585 -0.0801903 9.77393e-24)
(0.256638 -0.0826418 -2.10852e-23)
(0.26164 -0.0847914 -9.23179e-20)
(0.265475 -0.086872 0)
(0.266396 -0.088185 2.58079e-23)
(0.267967 -0.0891534 8.26678e-26)
(0.279696 -0.092586 -2.91893e-23)
(0.306638 -0.100084 0)
(0.353734 -0.112955 0)
(0.430066 -0.133683 0)
(0.571565 -0.180225 0)
(0.667244 -0.252975 3.7078e-23)
(0.542285 -0.277532 -3.88823e-23)
(0.252726 -0.179576 8.35595e-20)
(-0.0045028 0.0110638 0)
(-0.0425979 0.0683004 0)
(-0.0331571 0.100945 -5.0019e-20)
(1.72086 -0.494562 -2.34102e-18)
(1.67672 -0.484079 -2.23126e-18)
(1.63276 -0.473475 2.09834e-24)
(1.58908 -0.462802 -2.00808e-18)
(1.54579 -0.452086 1.89404e-18)
(1.50292 -0.44134 3.55617e-18)
(1.46043 -0.430573 0)
(1.41833 -0.419784 6.11641e-25)
(1.37662 -0.408975 -1.42852e-24)
(1.33533 -0.398168 1.15107e-24)
(1.29452 -0.38738 5.79911e-19)
(1.25427 -0.376642 -5.13155e-19)
(1.21461 -0.365973 -8.88778e-19)
(1.1756 -0.355384 -6.31975e-25)
(1.13725 -0.344894 5.77332e-25)
(1.09961 -0.334516 -2.2435e-19)
(1.0627 -0.324261 1.45796e-19)
(1.02656 -0.314156 -6.42748e-20)
(0.991266 -0.304213 3.58202e-25)
(0.956848 -0.294465 1.08603e-19)
(0.923347 -0.284906 0)
(0.890789 -0.275569 0)
(0.859206 -0.266459 0)
(0.828618 -0.257589 2.50724e-19)
(0.799043 -0.248969 6.114e-19)
(0.770494 -0.240608 -3.63423e-19)
(0.742979 -0.232511 -4.2413e-19)
(0.7165 -0.224688 -4.88077e-19)
(0.691063 -0.217136 -1.11108e-18)
(0.666661 -0.209866 3.13419e-19)
(0.643289 -0.202873 3.51155e-19)
(0.620932 -0.196161 -3.06643e-24)
(0.599581 -0.189727 2.97707e-24)
(0.579217 -0.183571 0)
(0.559822 -0.177688 0)
(0.541376 -0.172079 5.78403e-19)
(0.523866 -0.166737 -6.33306e-19)
(0.507273 -0.161662 -3.46026e-19)
(0.491571 -0.156848 -3.77493e-19)
(0.476735 -0.15229 0)
(0.462764 -0.147987 0)
(0.449684 -0.143947 0)
(0.4375 -0.140179 2.64139e-19)
(0.426131 -0.136665 2.86656e-19)
(0.415478 -0.133377 1.27002e-25)
(0.405593 -0.130316 -1.03623e-23)
(0.396759 -0.127558 2.21485e-23)
(0.389248 -0.125195 1.97602e-19)
(0.383027 -0.12326 0)
(0.377344 -0.121562 0)
(0.371825 -0.119974 7.64087e-26)
(0.366249 -0.118368 1.65437e-23)
(0.362356 -0.117136 1.45575e-19)
(0.362155 -0.116921 0)
(0.366255 -0.117948 1.68947e-19)
(0.375359 -0.120656 0)
(0.385449 -0.124175 0)
(0.392665 -0.127297 2.55362e-23)
(0.398182 -0.130325 9.67943e-26)
(0.399564 -0.132283 -1.19343e-19)
(0.401849 -0.133774 -1.27162e-19)
(0.41854 -0.138779 0)
(0.457004 -0.149635 0)
(0.524253 -0.168241 7.57642e-20)
(0.632891 -0.198304 0)
(0.832288 -0.264409 0)
(0.970259 -0.368011 4.17494e-23)
(0.801886 -0.40707 8.88727e-20)
(0.390697 -0.272006 -9.38963e-20)
(0.0109013 0.00259854 9.73175e-23)
(-0.0575243 0.094637 0)
(-0.0473495 0.15479 5.60881e-20)
(2.37028 -0.681174 -2.43646e-24)
(2.30964 -0.666774 2.52106e-18)
(2.24926 -0.652224 2.37111e-24)
(2.18927 -0.637564 2.07745e-24)
(2.1298 -0.622851 -2.14061e-18)
(2.07089 -0.608102 -2.00972e-18)
(2.01253 -0.593314 1.87687e-24)
(1.9547 -0.578499 -1.7402e-18)
(1.89741 -0.563663 0)
(1.84069 -0.548822 1.30138e-24)
(1.78463 -0.534011 -6.55683e-19)
(1.72934 -0.519265 5.80234e-19)
(1.67487 -0.504613 4.91668e-25)
(1.62127 -0.490075 4.22311e-19)
(1.5686 -0.475671 3.39456e-19)
(1.51688 -0.461417 2.53728e-19)
(1.46617 -0.447336 0)
(1.41653 -0.433456 0)
(1.36803 -0.419806 -2.31226e-20)
(1.32075 -0.406407 -3.27052e-25)
(1.27472 -0.393287 3.39779e-25)
(1.22998 -0.38046 0)
(1.18658 -0.367944 2.24296e-19)
(1.14454 -0.355757 2.83625e-19)
(1.1039 -0.343916 -3.4582e-19)
(1.06466 -0.332427 1.66168e-24)
(1.02685 -0.321305 4.79801e-19)
(0.990454 -0.310552 1.10429e-18)
(0.955493 -0.30018 1.25694e-18)
(0.921951 -0.290188 2.79821e-24)
(0.889825 -0.28058 -7.94511e-19)
(0.859096 -0.271356 0)
(0.829749 -0.262516 4.90593e-19)
(0.801757 -0.254058 -8.26583e-24)
(0.775096 -0.245973 5.9619e-19)
(0.749741 -0.238265 4.89969e-24)
(0.725672 -0.230923 -1.93909e-25)
(0.702865 -0.22395 3.91424e-19)
(0.681283 -0.217336 4.2701e-19)
(0.66089 -0.211072 -4.65177e-19)
(0.641686 -0.205159 -7.81414e-24)
(0.623702 -0.199607 -5.50172e-19)
(0.606943 -0.194426 -2.98756e-19)
(0.591305 -0.189595 -3.24212e-19)
(0.576654 -0.185075 -7.03218e-19)
(0.563056 -0.180867 0)
(0.550883 -0.177069 8.25651e-19)
(0.540492 -0.173805 1.35515e-23)
(0.531841 -0.171115 0)
(0.523952 -0.16876 -2.61419e-19)
(0.516318 -0.166562 -2.82526e-19)
(0.508648 -0.164359 -3.05072e-19)
(0.503207 -0.162653 0)
(0.502641 -0.162288 -2.17355e-23)
(0.507791 -0.163577 -1.90944e-19)
(0.519562 -0.167087 -2.51174e-23)
(0.53275 -0.171707 2.68157e-23)
(0.542275 -0.175863 -1.17983e-19)
(0.549536 -0.179903 3.07492e-23)
(0.55145 -0.182593 1.34756e-19)
(0.554506 -0.184704 1.43669e-19)
(0.576212 -0.191396 0)
(0.626396 -0.205782 1.61921e-19)
(0.71415 -0.230397 4.0863e-23)
(0.8554 -0.270303 8.96119e-20)
(1.11165 -0.356086 0)
(1.29356 -0.491023 0)
(1.08885 -0.548086 -9.9598e-20)
(0.556171 -0.37934 1.04965e-19)
(0.0419044 -0.0176566 1.10388e-22)
(-0.0699418 0.119052 -2.33956e-22)
(-0.0619561 0.217993 -6.26555e-20)
(3.10773 -0.893059 0)
(3.02853 -0.874262 -2.61131e-24)
(2.94966 -0.855274 -2.69959e-18)
(2.87129 -0.836138 -2.55738e-18)
(2.79359 -0.816929 2.41285e-18)
(2.71662 -0.797667 2.06224e-24)
(2.64036 -0.778359 -2.11642e-24)
(2.5648 -0.759012 0)
(2.48994 -0.739638 0)
(2.41582 -0.720252 1.46827e-24)
(2.34257 -0.700908 -1.51181e-24)
(2.27031 -0.68165 0)
(2.1991 -0.662505 5.67219e-19)
(2.12905 -0.643512 -4.76763e-19)
(2.06019 -0.624688 3.83278e-19)
(1.99258 -0.606063 0)
(1.92628 -0.587664 1.86226e-19)
(1.86139 -0.569525 8.21094e-20)
(1.79797 -0.551682 0)
(1.73614 -0.534169 0)
(1.67594 -0.517016 0)
(1.61743 -0.500246 0)
(1.56066 -0.483883 -5.06918e-19)
(1.50568 -0.467949 -6.41052e-19)
(1.45251 -0.452463 -2.77098e-24)
(1.40118 -0.437438 0)
(1.3517 -0.422892 0)
(1.30409 -0.408828 6.12275e-25)
(1.25834 -0.395262 -7.1042e-19)
(1.21445 -0.38219 0)
(1.17241 -0.369623 4.49084e-19)
(1.1322 -0.357557 0)
(1.0938 -0.345993 0)
(1.05717 -0.334927 0)
(1.02228 -0.324354 -6.74011e-19)
(0.989102 -0.314267 -1.10787e-23)
(0.957606 -0.304665 4.04957e-19)
(0.927759 -0.295542 -4.42524e-19)
(0.899516 -0.28689 -4.13836e-25)
(0.87283 -0.278696 5.25907e-19)
(0.847699 -0.27096 0)
(0.824158 -0.263697 -3.56358e-25)
(0.802212 -0.256914 0)
(0.781731 -0.250591 3.6647e-19)
(0.76255 -0.244674 2.38504e-23)
(0.744743 -0.239168 -2.6493e-23)
(0.728768 -0.23419 -4.66558e-19)
(0.715072 -0.229892 3.96238e-25)
(0.703609 -0.226332 3.90732e-25)
(0.693172 -0.223216 5.90813e-19)
(0.683113 -0.22032 3.87768e-23)
(0.67307 -0.217442 3.44706e-19)
(0.665823 -0.215191 -1.86017e-19)
(0.664665 -0.214615 -3.61958e-25)
(0.670702 -0.21612 4.31472e-19)
(0.685025 -0.220405 0)
(0.701285 -0.226132 0)
(0.713168 -0.231372 1.33168e-19)
(0.722202 -0.236485 0)
(0.724718 -0.24 0)
(0.728605 -0.242848 0)
(0.755266 -0.251327 8.42102e-23)
(0.817097 -0.269367 -1.8251e-19)
(0.925229 -0.300166 -9.64075e-20)
(1.09861 -0.350275 -1.00726e-19)
(1.40886 -0.455389 2.03911e-22)
(1.63523 -0.621518 1.08191e-19)
(1.4038 -0.700514 1.11336e-19)
(0.753687 -0.503649 -2.33816e-19)
(0.0940985 -0.0538772 -1.23361e-22)
(-0.0782795 0.140432 -1.34643e-19)
(-0.0766092 0.291468 7.00269e-20)
(3.94211 -1.13277 3.33167e-18)
(3.84226 -1.10911 -4.3348e-25)
(3.74282 -1.08519 3.02284e-18)
(3.64398 -1.06109 2.86504e-18)
(3.54595 -1.03688 -2.70445e-18)
(3.44883 -1.01259 -4.62513e-24)
(3.35259 -0.988248 2.37375e-18)
(3.25721 -0.96385 -2.20286e-18)
(3.1627 -0.93941 0)
(3.06913 -0.914958 0)
(2.97662 -0.890543 -2.94456e-24)
(2.88534 -0.866235 -7.36166e-19)
(2.79538 -0.842065 -2.2037e-24)
(2.70685 -0.818076 4.09089e-24)
(2.61982 -0.794301 -2.89321e-24)
(2.53437 -0.770775 0)
(2.45056 -0.747525 -1.02603e-24)
(2.3685 -0.724606 -9.24795e-20)
(2.28831 -0.702051 -1.22503e-25)
(2.2101 -0.679914 0)
(2.13394 -0.658223 -1.33834e-24)
(2.05992 -0.637013 3.25839e-24)
(1.98808 -0.616319 2.85794e-19)
(1.9185 -0.596162 3.61486e-19)
(1.8512 -0.576568 -4.40863e-19)
(1.78622 -0.557558 -5.24228e-19)
(1.72358 -0.539146 -4.90663e-24)
(1.66329 -0.521349 -1.40859e-18)
(1.60536 -0.504175 0)
(1.54978 -0.48763 7.14081e-24)
(1.49654 -0.471719 -7.49774e-24)
(1.44561 -0.456444 0)
(1.39697 -0.441802 0)
(1.35057 -0.427789 -1.07874e-23)
(1.30638 -0.414402 1.1377e-23)
(1.26436 -0.401631 8.3531e-19)
(1.22446 -0.389473 0)
(1.18665 -0.377922 4.99733e-19)
(1.15087 -0.366964 5.45189e-19)
(1.11707 -0.356589 -3.6248e-23)
(1.08523 -0.346793 1.94878e-23)
(1.0554 -0.337592 7.02409e-19)
(1.02757 -0.328998 -2.30473e-23)
(1.00161 -0.320983 -8.2774e-19)
(0.977292 -0.313488 4.48813e-19)
(0.954714 -0.306512 0)
(0.934414 -0.300192 -5.26874e-19)
(0.916927 -0.294713 0)
(0.902204 -0.290145 -3.78789e-23)
(0.888818 -0.286149 4.0654e-23)
(0.875976 -0.282451 -3.6031e-19)
(0.863244 -0.278813 -4.72794e-23)
(0.85389 -0.275935 4.19781e-19)
(0.851846 -0.275065 -2.26242e-19)
(0.858509 -0.276717 -2.4325e-19)
(0.875143 -0.28171 -6.36426e-23)
(0.894326 -0.288518 -6.86049e-23)
(0.908538 -0.294872 -2.95975e-25)
(0.919318 -0.301107 1.60547e-19)
(0.922502 -0.30555 8.35583e-23)
(0.92728 -0.309267 0)
(0.95869 -0.319614 0)
(1.03176 -0.341361 0)
(1.15955 -0.378388 0)
(1.36363 -0.438858 1.12739e-19)
(1.72299 -0.56244 0)
(1.99269 -0.758832 -2.42057e-19)
(1.74627 -0.863822 -2.21572e-22)
(0.987723 -0.646858 1.29398e-19)
(0.174047 -0.111235 -1.39646e-19)
(-0.0795915 0.157113 3.01488e-19)
(-0.090471 0.375208 1.51786e-22)
(4.87846 -1.40174 -3.6773e-18)
(4.75623 -1.37285 0)
(4.63446 -1.34362 0)
(4.51334 -1.31415 3.17245e-18)
(4.39315 -1.28451 2.99768e-18)
(4.27401 -1.25477 2.81906e-18)
(4.15588 -1.22494 -2.63621e-18)
(4.03877 -1.19503 4.89734e-18)
(3.9227 -1.16505 0)
(3.80772 -1.13504 -2.05767e-18)
(3.694 -1.10507 7.06819e-24)
(3.58172 -1.0752 8.21072e-19)
(3.47104 -1.04549 -7.11985e-19)
(3.36207 -1.01599 -5.99081e-19)
(3.25491 -0.986743 -4.821e-19)
(3.14965 -0.957789 3.60744e-19)
(3.04638 -0.929167 -2.34685e-19)
(2.94524 -0.900934 0)
(2.84636 -0.873146 -3.29782e-20)
(2.74989 -0.845857 1.75333e-19)
(2.65592 -0.819111 0)
(2.56455 -0.792951 0)
(2.47587 -0.767415 -2.71476e-24)
(2.38993 -0.742536 2.83076e-24)
(2.3068 -0.718346 -1.01972e-24)
(2.22652 -0.694873 5.89239e-19)
(2.1491 -0.672132 4.98157e-24)
(2.07458 -0.650144 7.92155e-19)
(2.00297 -0.62892 0)
(1.93424 -0.608473 5.09111e-19)
(1.8684 -0.588806 5.70633e-19)
(1.80541 -0.569921 9.969e-24)
(1.74524 -0.551817 7.05107e-19)
(1.68784 -0.534491 1.21495e-23)
(1.63316 -0.517934 -1.28154e-23)
(1.58116 -0.502141 -9.41048e-19)
(1.53179 -0.487102 -5.15243e-19)
(1.485 -0.472813 -1.69206e-23)
(1.44073 -0.45926 -1.22872e-18)
(1.39889 -0.446425 -2.01632e-23)
(1.35948 -0.434307 0)
(1.32254 -0.422919 7.91666e-19)
(1.28808 -0.412278 0)
(1.2559 -0.402354 9.32976e-19)
(1.22579 -0.393075 -5.05837e-19)
(1.19781 -0.384438 5.48208e-19)
(1.1726 -0.376597 1.18767e-18)
(1.15076 -0.369766 -3.89791e-23)
(1.13226 -0.364032 0)
(1.11546 -0.359018 -3.75874e-19)
(1.09943 -0.3544 4.06109e-19)
(1.08365 -0.349906 -5.32634e-23)
(1.07183 -0.346306 -2.36373e-19)
(1.06852 -0.345037 2.54687e-19)
(1.07543 -0.346728 0)
(1.09397 -0.352314 0)
(1.11576 -0.360129 -3.15465e-19)
(1.13216 -0.367597 -1.68864e-19)
(1.14457 -0.374984 9.91983e-26)
(1.14846 -0.380461 0)
(1.15419 -0.385198 0)
(1.18998 -0.39747 2.17837e-19)
(1.27346 -0.42288 -1.1222e-22)
(1.41948 -0.466011 1.17777e-22)
(1.65175 -0.53674 -1.25624e-19)
(2.05321 -0.67739 0)
(2.36284 -0.902186 1.34366e-19)
(2.11442 -1.0369 -1.35594e-19)
(1.26219 -0.810383 -1.41332e-19)
(0.289225 -0.195178 1.5422e-19)
(-0.0703882 0.166053 -3.35849e-19)
(-0.102658 0.467512 0)
(5.91212 -1.69863 3.9616e-18)
(5.76683 -1.66443 1.49781e-23)
(5.62194 -1.62979 0)
(5.47766 -1.5948 -3.43832e-18)
(5.33434 -1.55958 -1.18876e-23)
(5.19212 -1.52419 -3.06683e-18)
(5.05098 -1.48864 0)
(4.91094 -1.45296 -2.67341e-18)
(4.77201 -1.41716 -8.86511e-24)
(4.63428 -1.38129 2.25406e-18)
(4.49793 -1.34543 1.01667e-18)
(4.3632 -1.30965 0)
(4.23027 -1.27403 7.83549e-19)
(4.09928 -1.23863 6.60239e-19)
(3.97039 -1.2035 -3.4873e-24)
(3.84369 -1.16869 1.37225e-24)
(3.7193 -1.13426 -2.59658e-19)
(3.59738 -1.10027 1.14721e-19)
(3.47811 -1.06678 7.31482e-20)
(3.36167 -1.03388 2.56067e-24)
(3.24818 -1.00161 0)
(3.13776 -0.970023 4.65938e-24)
(3.03052 -0.939172 -4.85819e-24)
(2.92656 -0.909099 0)
(2.82594 -0.879844 5.52457e-19)
(2.72872 -0.851438 -6.5765e-19)
(2.63494 -0.82391 0)
(2.54462 -0.797276 0)
(2.45779 -0.771564 0)
(2.37444 -0.746779 -5.6963e-19)
(2.29456 -0.722934 -1.27752e-18)
(2.21811 -0.700028 -2.11335e-23)
(2.14507 -0.678064 -7.9003e-19)
(2.07538 -0.65704 0)
(2.00897 -0.636944 -9.61218e-19)
(1.94581 -0.617771 -6.44201e-23)
(1.88583 -0.599512 1.15619e-18)
(1.82898 -0.582159 -6.31924e-19)
(1.77518 -0.565698 6.89633e-19)
(1.72433 -0.550108 -4.52722e-23)
(1.67642 -0.535384 0)
(1.63149 -0.521543 -8.89018e-19)
(1.58956 -0.508603 0)
(1.55039 -0.49653 -1.04789e-18)
(1.51374 -0.485245 1.1364e-18)
(1.47968 -0.47474 4.93512e-25)
(1.4489 -0.465181 -6.67006e-19)
(1.4221 -0.456807 -8.86968e-23)
(1.39922 -0.449727 -1.1167e-24)
(1.37848 -0.443538 4.22069e-19)
(1.35878 -0.437868 -4.55683e-19)
(1.33955 -0.43241 -2.4029e-22)
(1.32487 -0.427978 -1.07177e-24)
(1.31982 -0.426176 2.86212e-19)
(1.32646 -0.427756 3.07118e-19)
(1.34627 -0.433757 -8.79314e-25)
(1.37013 -0.44244 3.53929e-19)
(1.38841 -0.450981 1.89002e-19)
(1.40223 -0.459524 -2.02167e-19)
(1.40682 -0.466141 2.15682e-19)
(1.41352 -0.472057 0)
(1.45316 -0.486277 -2.43417e-19)
(1.54577 -0.515194 -2.55824e-19)
(1.70778 -0.564095 -3.70328e-25)
(1.96457 -0.644659 -2.71086e-22)
(2.39909 -0.800464 0)
(2.74244 -1.05081 -1.48024e-19)
(2.50473 -1.21805 1.47424e-19)
(1.57982 -0.994845 1.53093e-19)
(0.447646 -0.310451 -1.67921e-19)
(-0.0457246 0.163286 3.71073e-19)
(-0.110846 0.564115 -5.51917e-22)
(7.01986 -2.01674 -4.10084e-18)
(6.85288 -1.97772 3.93752e-18)
(6.6861 -1.93812 3.76901e-18)
(6.51971 -1.89802 0)
(6.35412 -1.85756 -3.41413e-18)
(6.18952 -1.81681 0)
(6.02591 -1.7758 -3.03229e-18)
(5.8633 -1.73455 0)
(5.70175 -1.69309 2.61945e-18)
(5.54134 -1.65147 2.4e-18)
(5.3823 -1.60977 -2.17104e-18)
(5.2249 -1.5681 0)
(5.06936 -1.52654 -5.81149e-24)
(4.91589 -1.48517 6.02954e-24)
(4.76466 -1.44405 -5.73968e-19)
(4.61581 -1.40325 -4.31072e-19)
(4.46948 -1.36283 5.62839e-19)
(4.32588 -1.32287 -1.24606e-19)
(4.18523 -1.28346 -3.98116e-20)
(4.04775 -1.24467 -4.24598e-19)
(3.91361 -1.20658 2.35759e-24)
(3.78296 -1.16926 0)
(3.65594 -1.13277 -6.62878e-24)
(3.53268 -1.09716 -4.9691e-19)
(3.41327 -1.06248 0)
(3.29779 -1.02878 1.44881e-18)
(3.18631 -0.996088 -1.22733e-23)
(3.07886 -0.964436 9.77684e-19)
(2.97549 -0.933855 -1.76795e-23)
(2.8762 -0.904355 3.84814e-23)
(2.78097 -0.875956 7.07705e-19)
(2.6898 -0.848659 2.47631e-23)
(2.60263 -0.822471 -2.60965e-23)
(2.51943 -0.797389 0)
(2.44012 -0.773405 1.06849e-18)
(2.36465 -0.750512 3.51662e-23)
(2.29295 -0.728702 4.07945e-23)
(2.22497 -0.707968 7.03646e-19)
(2.16061 -0.688292 7.68267e-19)
(2.09977 -0.669653 -8.37549e-19)
(2.04243 -0.652042 -1.31136e-24)
(1.98863 -0.635479 9.91664e-19)
(1.93836 -0.619981 -1.31494e-22)
(1.8914 -0.605516 1.1693e-18)
(1.84746 -0.591998 -6.34066e-19)
(1.80661 -0.579411 6.76362e-25)
(1.76958 -0.567925 0)
(1.73713 -0.557805 0)
(1.70923 -0.54918 -1.07042e-22)
(1.68395 -0.541643 -9.42267e-19)
(1.66006 -0.534774 1.23145e-22)
(1.63695 -0.52824 -1.3468e-22)
(1.61896 -0.522855 1.43997e-22)
(1.6116 -0.520356 -6.38142e-19)
(1.61725 -0.52162 -3.42763e-19)
(1.63747 -0.527783 -9.79818e-25)
(1.66259 -0.537115 1.91801e-22)
(1.68223 -0.546627 2.1035e-19)
(1.69705 -0.556292 2.19205e-22)
(1.70223 -0.564145 -2.33952e-22)
(1.7099 -0.571405 2.4846e-22)
(1.75267 -0.587553 2.69742e-19)
(1.85263 -0.619677 5.6614e-19)
(2.0275 -0.673773 2.87836e-22)
(2.30391 -0.763377 -1.39931e-24)
(2.76088 -0.931997 -1.54564e-19)
(3.12863 -1.2041 1.61571e-19)
(2.91214 -1.40507 -2.43867e-22)
(1.94081 -1.20026 3.24118e-19)
(0.656889 -0.461737 -7.23889e-22)
(0.00128967 0.14283 -4.0504e-19)
(-0.110005 0.655937 0)
(8.15212 -2.34181 1.58102e-23)
(7.96775 -2.29925 -2.38159e-23)
(7.78314 -2.25591 -3.71852e-18)
(7.59851 -2.21186 -1.41348e-23)
(7.4143 -2.16726 3.39978e-18)
(7.23073 -2.12221 0)
(7.04783 -2.07672 3.0472e-18)
(6.86563 -2.03083 0)
(6.68418 -1.98457 -1.97832e-23)
(6.50359 -1.93799 -2.44395e-18)
(6.32412 -1.8912 1.11015e-18)
(6.14607 -1.84431 0)
(5.96972 -1.79741 -8.67357e-19)
(5.79534 -1.7506 -1.26316e-24)
(5.62311 -1.70396 5.9662e-19)
(5.45324 -1.65757 -4.49783e-19)
(5.2859 -1.6115 -2.94732e-19)
(5.12136 -1.56585 0)
(4.95987 -1.52072 -9.92209e-25)
(4.8017 -1.47622 2.24659e-19)
(4.64709 -1.43243 3.87058e-24)
(4.49623 -1.38944 -4.05174e-24)
(4.34931 -1.34731 0)
(4.2065 -1.30614 5.32155e-19)
(4.06794 -1.26597 0)
(3.93374 -1.22687 3.54153e-24)
(3.804 -1.18888 0)
(3.67879 -1.15206 -1.05723e-18)
(3.55817 -1.11642 0)
(3.44217 -1.08201 0)
(3.33081 -1.04884 -7.6981e-19)
(3.22407 -1.01692 0)
(3.12192 -0.986267 9.56926e-19)
(3.02434 -0.956881 -1.05974e-18)
(2.93124 -0.928759 7.13691e-23)
(2.84258 -0.901894 1.45002e-24)
(2.7583 -0.87628 -4.10965e-23)
(2.67833 -0.851912 4.78856e-23)
(2.60257 -0.828773 -1.68885e-18)
(2.53091 -0.806841 9.21258e-19)
(2.46333 -0.786107 1.00378e-18)
(2.39987 -0.766589 -1.09224e-18)
(2.34052 -0.748307 -1.44933e-22)
(2.28504 -0.731233 7.88543e-23)
(2.23311 -0.715277 0)
(2.1848 -0.700411 -7.58638e-19)
(2.14087 -0.686806 -1.41069e-24)
(2.10212 -0.674742 1.07926e-22)
(2.06853 -0.664374 0)
(2.0381 -0.655312 1.04048e-18)
(2.0095 -0.647098 5.61828e-19)
(1.98207 -0.639377 -1.48688e-22)
(1.9603 -0.632914 1.58956e-22)
(1.94996 -0.629528 3.52113e-19)
(1.95376 -0.630217 0)
(1.97325 -0.636201 -4.05245e-19)
(1.99849 -0.645873 2.12248e-22)
(2.01867 -0.656177 1.50186e-24)
(2.0339 -0.666886 -2.41119e-22)
(2.03944 -0.676051 -2.63515e-19)
(2.04798 -0.684808 2.79623e-19)
(2.09298 -0.702807 -2.94638e-19)
(2.19797 -0.737677 -6.04427e-22)
(2.38168 -0.796129 3.12637e-22)
(2.67161 -0.893565 -1.63156e-19)
(3.1394 -1.07236 1.65018e-19)
(3.51945 -1.3617 -6.72378e-22)
(3.3305 -1.59538 -1.67191e-19)
(2.34262 -1.42327 -6.71135e-19)
(0.923636 -0.652045 1.87052e-19)
(0.0800989 0.0961348 2.16714e-19)
(-0.0955174 0.726808 8.59118e-22)
(9.23775 -2.65341 0)
(9.04253 -2.60913 -3.55015e-18)
(8.84655 -2.56385 0)
(8.65001 -2.51766 3.30596e-18)
(8.45338 -2.4707 -3.17134e-18)
(8.2569 -2.42309 -2.41471e-23)
(8.06059 -2.37483 -2.0847e-23)
(7.86447 -2.32597 2.70864e-18)
(7.66861 -2.27654 -2.53204e-18)
(7.47313 -2.22658 -1.67287e-23)
(7.27828 -2.17621 -1.07003e-18)
(7.08442 -2.12555 -9.61506e-19)
(6.89184 -2.07471 8.08825e-24)
(6.70084 -2.02379 9.75807e-24)
(6.51166 -1.97287 -5.87694e-19)
(6.32453 -1.92205 4.45398e-19)
(6.13967 -1.87142 3.16785e-24)
(5.95737 -1.8211 -2.65563e-24)
(5.77796 -1.77119 -4.22363e-20)
(5.60176 -1.72181 0)
(5.42905 -1.67309 0)
(5.26009 -1.6251 1.10771e-23)
(5.09513 -1.57796 -2.61568e-23)
(4.93438 -1.53175 1.52662e-23)
(4.77804 -1.48656 -6.73922e-19)
(4.62628 -1.44247 -8.08515e-19)
(4.47923 -1.39952 -2.75652e-23)
(4.33702 -1.35779 0)
(4.19975 -1.31733 1.26657e-18)
(4.06749 -1.27817 -4.54393e-23)
(3.94028 -1.24035 8.11878e-19)
(3.81814 -1.2039 -5.40086e-23)
(3.70108 -1.16883 -1.01457e-18)
(3.58907 -1.13515 -1.40894e-22)
(3.48207 -1.10288 1.5207e-22)
(3.38003 -1.07201 -1.67651e-22)
(3.28291 -1.04254 1.86207e-22)
(3.19064 -1.01446 -9.95321e-23)
(3.10314 -0.987771 9.06555e-19)
(3.0203 -0.96245 9.90326e-19)
(2.94208 -0.938485 -2.16115e-18)
(2.86854 -0.915895 -1.17733e-18)
(2.79967 -0.894708 0)
(2.73522 -0.874901 -6.96537e-19)
(2.67486 -0.856383 -3.08209e-24)
(2.61866 -0.839117 1.98796e-22)
(2.56737 -0.82326 -2.18721e-22)
(2.52182 -0.809103 2.33764e-22)
(2.48199 -0.796832 0)
(2.4459 -0.786101 -5.63752e-19)
(2.41213 -0.776427 -2.98751e-22)
(2.38002 -0.767437 -6.57026e-19)
(2.35404 -0.759789 -3.53578e-19)
(2.34005 -0.75532 -3.71272e-22)
(2.341 -0.755127 4.09159e-19)
(2.35837 -0.76052 4.39102e-19)
(2.3823 -0.770134 0)
(2.40191 -0.780976 -2.50557e-19)
(2.41674 -0.792599 -5.22769e-22)
(2.42225 -0.803125 -2.8435e-19)
(2.43144 -0.813502 -6.01642e-19)
(2.47753 -0.833197 0)
(2.58474 -0.87017 -3.30755e-19)
(2.77245 -0.931879 1.7077e-19)
(3.06873 -1.03554 3.4295e-19)
(3.53536 -1.2217 0)
(3.91388 -1.52341 1.8232e-19)
(3.75278 -1.7864 0)
(2.77928 -1.66022 6.7919e-19)
(1.25318 -0.883634 -3.77952e-19)
(0.202828 0.0109094 -1.77591e-21)
(-0.0618774 0.762931 9.0958e-22)
(10.21 -2.93233 0)
(10.0101 -2.88797 -2.25491e-23)
(9.80913 -2.84247 2.3559e-23)
(9.60715 -2.79588 -2.87927e-18)
(9.40465 -2.74837 4.02265e-23)
(9.20186 -2.70002 0)
(8.99878 -2.65086 0)
(8.79542 -2.60092 -2.40485e-18)
(8.59183 -2.55021 2.25969e-18)
(8.38811 -2.49879 1.5009e-23)
(8.18452 -2.44676 -5.1368e-24)
(7.98138 -2.39424 8.72177e-19)
(7.77901 -2.34135 1.54208e-18)
(7.57773 -2.28818 1.12237e-23)
(7.37778 -2.23483 5.42318e-19)
(7.1794 -2.18139 -2.38279e-24)
(6.98282 -2.12796 -5.39616e-24)
(6.78838 -2.07465 0)
(6.59641 -2.0216 3.98987e-20)
(6.40728 -1.96892 4.59384e-24)
(6.22131 -1.91675 -4.85647e-24)
(6.03882 -1.86519 0)
(5.86008 -1.81437 0)
(5.68538 -1.76438 0)
(5.51495 -1.71533 6.58548e-19)
(5.34902 -1.6673 -2.27952e-23)
(5.18779 -1.62039 0)
(5.03142 -1.57466 0)
(4.88006 -1.53019 -1.26253e-18)
(4.73384 -1.48704 0)
(4.59286 -1.44524 -8.16435e-19)
(4.45716 -1.40486 1.12164e-22)
(4.3268 -1.3659 -6.12237e-23)
(4.20179 -1.32842 2.29224e-18)
(4.08212 -1.29241 -7.92129e-23)
(3.96778 -1.25789 8.42841e-23)
(3.85873 -1.22487 -7.75767e-19)
(3.75495 -1.19335 0)
(3.65637 -1.16334 9.36616e-19)
(3.56288 -1.13482 -1.02602e-18)
(3.47448 -1.10779 1.12174e-18)
(3.39121 -1.08225 1.22452e-18)
(3.31308 -1.05826 0)
(3.23985 -1.0358 1.79054e-22)
(3.17121 -1.01478 -1.91371e-22)
(3.1072 -0.99516 -2.11271e-22)
(3.04856 -0.977069 2.2597e-22)
(2.99611 -0.960803 0)
(2.94985 -0.946587 0)
(2.90787 -0.934142 0)
(2.86877 -0.922985 6.39788e-19)
(2.83185 -0.912723 3.37032e-22)
(2.80145 -0.903844 3.72423e-19)
(2.78327 -0.898132 -3.90451e-22)
(2.78038 -0.896756 5.10194e-26)
(2.7942 -0.901125 0)
(2.81523 -0.910251 -4.93276e-19)
(2.83299 -0.921329 -5.1525e-22)
(2.84647 -0.93371 -2.80032e-19)
(2.85144 -0.945622 2.98807e-19)
(2.86089 -0.957687 3.13837e-19)
(2.90671 -0.978823 -1.37971e-24)
(3.01287 -1.01709 6.69241e-22)
(3.19915 -1.08077 -1.23424e-24)
(3.49383 -1.18871 -1.75552e-19)
(3.94755 -1.37934 -6.7757e-22)
(4.31077 -1.68869 8.38465e-22)
(4.17209 -1.97555 1.38286e-21)
(3.24085 -1.90541 -6.7038e-19)
(1.647 -1.15516 3.69654e-19)
(0.38365 -0.129374 0)
(-0.00330409 0.75443 -9.42786e-22)
(11.2367 -3.21181 -1.97369e-23)
(11.0369 -3.1694 -2.61401e-18)
(10.836 -3.12581 1.87572e-23)
(10.6337 -3.08099 -1.96379e-23)
(10.4303 -3.035 1.76167e-23)
(10.2262 -2.988 2.32383e-18)
(10.0216 -2.94008 -2.23488e-18)
(9.8164 -2.89124 0)
(9.61069 -2.84152 0)
(9.40445 -2.79092 -1.91515e-18)
(9.19778 -2.73948 1.78764e-18)
(8.99088 -2.68731 8.23977e-19)
(8.7841 -2.63451 0)
(8.57773 -2.58121 -1.32691e-18)
(8.37205 -2.52748 0)
(8.16731 -2.47343 0)
(7.96374 -2.41913 -4.46019e-24)
(7.76155 -2.36468 7.3207e-24)
(7.56107 -2.3102 -1.08343e-19)
(7.36265 -2.25582 0)
(7.16665 -2.20166 4.08875e-24)