/*--------------------------------*- C++ -*----------------------------------*\
| =========                 |                                                 |
| \\      /  F ield         | OpenFOAM: The Open Source CFD Toolbox           |
|  \\    /   O peration     | Version:  2412                                  |
|   \\  /    A nd           | Website:  www.openfoam.com                      |
|    \\/     M anipulation  |                                                 |
\*---------------------------------------------------------------------------*/
FoamFile
{
    version     2.0;
    format      ascii;
    arch        "LSB;label=32;scalar=64";
    class       surfaceScalarField;
    location    "300";
    object      phi;
}
// * * * * * * * * * * * * * * * * * * * * * * * * * * * * * * * * * * * * * //

dimensions      [0 3 -1 0 0 0 0];

oriented        oriented;

internalField   nonuniform List<scalar> 
17210
(
2.21726e-06
-4.52971e-10
2.21768e-06
-2.04263e-10
2.21813e-06
-2.10908e-10
2.21863e-06
-7.94814e-10
2.21908e-06
-1.03596e-10
2.21967e-06
-5.47874e-10
2.22022e-06
-5.28569e-10
2.22059e-06
-3.40269e-10
2.22096e-06
-3.49269e-10
2.22134e-06
-3.47168e-10
2.22167e-06
-3.10526e-10
2.22191e-06
-2.14118e-10
2.22211e-06
-1.76885e-10
2.2223e-06
-1.64126e-10
2.2224e-06
-5.87078e-11
2.22257e-06
-1.33417e-10
2.22251e-06
8.47949e-11
2.22263e-06
-5.71565e-11
2.22262e-06
3.81951e-11
2.22249e-06
1.79564e-10
2.22235e-06
1.83409e-10
2.2222e-06
2.02657e-10
2.2219e-06
3.24998e-10
2.22166e-06
3.0376e-10
2.22137e-06
3.13914e-10
2.22099e-06
4.30851e-10
2.22055e-06
4.53867e-10
2.22014e-06
4.34589e-10
2.21961e-06
5.5522e-10
2.21903e-06
6.01038e-10
2.21847e-06
5.84303e-10
2.21783e-06
6.55575e-10
2.21706e-06
7.847e-10
2.21638e-06
7.00449e-10
2.21549e-06
9.06363e-10
2.21453e-06
9.79285e-10
2.21362e-06
9.31753e-10
2.2126e-06
1.03309e-09
2.21157e-06
1.05423e-09
2.21047e-06
1.09553e-09
2.20929e-06
1.20731e-09
2.20805e-06
1.23694e-09
2.20668e-06
1.37938e-09
2.2053e-06
1.38727e-09
2.20395e-06
1.36402e-09
2.20247e-06
1.4815e-09
2.20097e-06
1.51547e-09
2.19931e-06
1.66646e-09
2.19766e-06
1.66523e-09
2.19582e-06
1.84862e-09
2.19403e-06
1.80396e-09
2.1922e-06
1.8295e-09
2.19033e-06
1.88335e-09
2.18843e-06
1.90432e-09
2.1865e-06
1.92878e-09
2.1846e-06
1.90932e-09
2.18254e-06
2.06447e-09
2.18049e-06
2.05392e-09
2.17841e-06
2.08665e-09
2.17644e-06
1.97131e-09
2.17425e-06
2.20244e-09
2.17209e-06
2.16252e-09
2.16996e-06
2.13321e-09
2.16803e-06
1.93259e-09
2.16621e-06
1.82597e-09
2.1643e-06
1.90706e-09
2.16236e-06
1.93912e-09
2.16015e-06
2.22128e-09
2.1585e-06
1.64831e-09
2.15842e-06
8.13122e-11
2.1604e-06
-1.97384e-09
2.16287e-06
-2.46292e-09
2.16372e-06
-8.53049e-10
2.16131e-06
2.41542e-09
2.15715e-06
4.16554e-09
2.15784e-06
-6.89678e-10
2.16931e-06
-1.14697e-08
2.19633e-06
-2.70102e-08
2.23797e-06
-4.16385e-08
2.278e-06
-4.00328e-08
2.30149e-06
-2.34837e-08
-2.39408e-09
7.80362e-06
-2.51603e-09
7.80485e-06
-1.12586e-09
7.80664e-06
-1.6656e-09
7.80858e-06
-3.07239e-09
7.81056e-06
-1.67122e-09
7.81233e-06
-2.25843e-09
7.81424e-06
-2.40691e-09
7.81597e-06
-2.02334e-09
7.81729e-06
-1.63559e-09
7.81853e-06
-1.55177e-09
7.81952e-06
-1.26233e-09
7.82051e-06
-1.17116e-09
7.82123e-06
-8.72954e-10
7.82182e-06
-7.04987e-10
7.82232e-06
-5.09155e-10
7.82284e-06
-5.92707e-10
7.82305e-06
-8.73583e-11
7.82308e-06
-7.88851e-12
7.82277e-06
3.97479e-10
7.82278e-06
2.4014e-10
7.8223e-06
7.19696e-10
7.82165e-06
9.23364e-10
7.82099e-06
1.03393e-09
7.81992e-06
1.44665e-09
7.81908e-06
1.20102e-09
7.81765e-06
1.93153e-09
7.81629e-06
1.83112e-09
7.81468e-06
2.07961e-09
7.81279e-06
2.48132e-09
7.81093e-06
2.48574e-09
7.80862e-06
2.93412e-09
7.80643e-06
2.86939e-09
7.80378e-06
3.46584e-09
7.80089e-06
3.6159e-09
7.79813e-06
3.69017e-09
7.79506e-06
4.06845e-09
7.79156e-06
4.4773e-09
7.78825e-06
4.34582e-09
7.78448e-06
4.85207e-09
7.78082e-06
4.76148e-09
7.77659e-06
5.46634e-09
7.77231e-06
5.51884e-09
7.76757e-06
6.13893e-09
7.76313e-06
5.82977e-09
7.75808e-06
6.43206e-09
7.75298e-06
6.59835e-09
7.74751e-06
6.99848e-09
7.74198e-06
7.21445e-09
7.73625e-06
7.41725e-09
7.73061e-06
7.49087e-09
7.72453e-06
7.90161e-09
7.71817e-06
8.20108e-09
7.71184e-06
8.22542e-09
7.70546e-06
8.28464e-09
7.69894e-06
8.45744e-09
7.69203e-06
8.82516e-09
7.68525e-06
8.85231e-09
7.67856e-06
8.76064e-09
7.67164e-06
9.01333e-09
7.6646e-06
9.01403e-09
7.65755e-06
9.26351e-09
7.65018e-06
9.53966e-09
7.64305e-06
9.26672e-09
7.63644e-06
8.54217e-09
7.63022e-06
8.05047e-09
7.62433e-06
7.80129e-09
7.61753e-06
8.74744e-09
7.61031e-06
9.43962e-09
7.60513e-06
6.83393e-09
7.60516e-06
5.87076e-11
7.61179e-06
-8.5976e-09
7.62032e-06
-1.09921e-08
7.62405e-06
-4.57681e-09
7.61737e-06
9.09757e-09
7.60432e-06
1.72281e-08
7.6068e-06
-3.17407e-09
7.64515e-06
-4.98104e-08
7.73557e-06
-1.17426e-07
7.87563e-06
-1.81701e-07
8.01271e-06
-1.77104e-07
8.0969e-06
-1.0767e-07
-1.65659e-08
1.54714e-05
-6.63761e-09
1.54747e-05
-4.10366e-09
1.54785e-05
-5.03797e-09
1.54824e-05
-7.44067e-09
1.54863e-05
-5.04192e-09
1.54902e-05
-6.1605e-09
1.54943e-05
-6.42651e-09
1.54978e-05
-5.52428e-09
1.55009e-05
-4.67646e-09
1.55034e-05
-4.0189e-09
1.5506e-05
-3.78714e-09
1.55079e-05
-3.09372e-09
1.55097e-05
-2.57596e-09
1.55111e-05
-2.11136e-09
1.55118e-05
-1.14686e-09
1.55127e-05
-1.44432e-09
1.55135e-05
-7.74627e-10
1.55134e-05
2.0006e-10
1.55136e-05
2.08661e-10
1.55131e-05
8.10218e-10
1.55122e-05
1.66625e-09
1.55111e-05
2.15287e-09
1.55096e-05
2.53485e-09
1.5508e-05
3.13164e-09
1.55056e-05
3.66858e-09
1.55033e-05
4.2658e-09
1.55003e-05
4.88518e-09
1.54969e-05
5.52159e-09
1.54934e-05
5.97647e-09
1.54897e-05
6.2323e-09
1.54851e-05
7.60509e-09
1.54805e-05
7.5389e-09
1.54756e-05
8.37975e-09
1.54703e-05
8.93142e-09
1.54641e-05
9.87472e-09
1.54581e-05
1.00831e-08
1.54514e-05
1.12984e-08
1.54441e-05
1.15994e-08
1.54371e-05
1.18603e-08
1.54294e-05
1.25327e-08
1.54213e-05
1.35408e-08
1.54125e-05
1.43561e-08
1.54037e-05
1.49641e-08
1.53942e-05
1.52975e-08
1.53846e-05
1.61021e-08
1.53748e-05
1.64275e-08
1.53642e-05
1.755e-08
1.53533e-05
1.81422e-08
1.53419e-05
1.88285e-08
1.53303e-05
1.91714e-08
1.53184e-05
1.97303e-08
1.53064e-05
2.02289e-08
1.5294e-05
2.06981e-08
1.52817e-05
2.05075e-08
1.52689e-05
2.13052e-08
1.5256e-05
2.17327e-08
1.52427e-05
2.21607e-08
1.52292e-05
2.22402e-08
1.5216e-05
2.22387e-08
1.52023e-05
2.27046e-08
1.51884e-05
2.31906e-08
1.51741e-05
2.38705e-08
1.51602e-05
2.31898e-08
1.51472e-05
2.15451e-08
1.51356e-05
1.96688e-08
1.51239e-05
1.94508e-08
1.51109e-05
2.18045e-08
1.50977e-05
2.25667e-08
1.50879e-05
1.66901e-08
1.50879e-05
4.40023e-12
1.51004e-05
-2.10243e-08
1.51174e-05
-2.80505e-08
1.51259e-05
-1.29825e-08
1.51146e-05
2.03111e-08
1.50908e-05
4.11242e-08
1.50962e-05
-8.59853e-09
1.51679e-05
-1.2157e-07
1.5338e-05
-2.87435e-07
1.56028e-05
-4.46571e-07
1.58676e-05
-4.41885e-07
1.60371e-05
-2.77141e-07
-5.53234e-08
2.57221e-05
-1.50944e-08
2.57283e-05
-9.96358e-09
2.57348e-05
-1.12108e-08
2.57423e-05
-1.5186e-08
2.57496e-05
-1.19408e-08
2.5757e-05
-1.34878e-08
2.57638e-05
-1.31905e-08
2.57705e-05
-1.2184e-08
2.57762e-05
-1.03261e-08
2.57813e-05
-9.10839e-09
2.57857e-05
-8.1081e-09
2.57896e-05
-6.94606e-09
2.57926e-05
-5.58459e-09
2.5795e-05
-4.39517e-09
2.57978e-05
-3.93365e-09
2.57992e-05
-2.77844e-09
2.58003e-05
-1.75247e-09
2.58013e-05
-7.7607e-10
2.58013e-05
2.65093e-10
2.58009e-05
1.3763e-09
2.57995e-05
3.10165e-09
2.57978e-05
3.92934e-09
2.57956e-05
4.75414e-09
2.5793e-05
5.84049e-09
2.57894e-05
7.34465e-09
2.57851e-05
8.61953e-09
2.57804e-05
9.61472e-09
2.57747e-05
1.1307e-08
2.57691e-05
1.15592e-08
2.5762e-05
1.34231e-08
2.57549e-05
1.46975e-08
2.57472e-05
1.53122e-08
2.57383e-05
1.73186e-08
2.57288e-05
1.84623e-08
2.57192e-05
1.94701e-08
2.57086e-05
2.07179e-08
2.56976e-05
2.23515e-08
2.56863e-05
2.29511e-08
2.56739e-05
2.42872e-08
2.56609e-05
2.55643e-08
2.56471e-05
2.7288e-08
2.56327e-05
2.88243e-08
2.56178e-05
2.98605e-08
2.5602e-05
3.11451e-08
2.55862e-05
3.18575e-08
2.55692e-05
3.34954e-08
2.55515e-05
3.52886e-08
2.55335e-05
3.61505e-08
2.5515e-05
3.72817e-08
2.54958e-05
3.84052e-08
2.54766e-05
3.90148e-08
2.54562e-05
4.05683e-08
2.54364e-05
4.05283e-08
2.54152e-05
4.1722e-08
2.53941e-05
4.23703e-08
2.53728e-05
4.31034e-08
2.53512e-05
4.38011e-08
2.53293e-05
4.40723e-08
2.5307e-05
4.45943e-08
2.52847e-05
4.49551e-08
2.52619e-05
4.60981e-08
2.52392e-05
4.65319e-08
2.52162e-05
4.61853e-08
2.51947e-05
4.30553e-08
2.51749e-05
3.94391e-08
2.51563e-05
3.80415e-08
2.51359e-05
4.22448e-08
2.51142e-05
4.43283e-08
2.50982e-05
3.2633e-08
2.5098e-05
2.66747e-10
2.51172e-05
-4.02633e-08
2.51451e-05
-5.59509e-08
2.51594e-05
-2.72919e-08
2.51438e-05
3.58971e-08
2.51094e-05
7.5584e-08
2.51165e-05
-1.57471e-08
2.52286e-05
-2.33599e-07
2.54946e-05
-5.53449e-07
2.59124e-05
-8.64408e-07
2.63377e-05
-8.67094e-07
2.6622e-05
-5.61474e-07
-1.36201e-07
3.91315e-05
-2.94982e-08
3.91424e-05
-2.06205e-08
3.91551e-05
-2.33791e-08
3.91676e-05
-2.802e-08
3.918e-05
-2.39572e-08
3.91918e-05
-2.52502e-08
3.92046e-05
-2.59682e-08
3.92153e-05
-2.2831e-08
3.92252e-05
-2.0122e-08
3.92342e-05
-1.80906e-08
3.92425e-05
-1.63084e-08
3.92487e-05
-1.31109e-08
3.92542e-05
-1.10836e-08
3.926e-05
-1.01614e-08
3.92642e-05
-8.02604e-09
3.92675e-05
-6.00732e-09
3.92697e-05
-3.92063e-09
3.92718e-05
-2.70612e-09
3.92727e-05
-5.89301e-10
3.9272e-05
2.15849e-09
3.92709e-05
4.23167e-09
3.92691e-05
5.8924e-09
3.9266e-05
7.88861e-09
3.92617e-05
1.02014e-08
3.92568e-05
1.23566e-08
3.92508e-05
1.46844e-08
3.92429e-05
1.75625e-08
3.92356e-05
1.86233e-08
3.92257e-05
2.15096e-08
3.92161e-05
2.30185e-08
3.92053e-05
2.55523e-08
3.91926e-05
2.80696e-08
3.91797e-05
3.02479e-08
3.9166e-05
3.21664e-08
3.91505e-05
3.50504e-08
3.91338e-05
3.74147e-08
3.91169e-05
3.92843e-08
3.90988e-05
4.11022e-08
3.90798e-05
4.33691e-08
3.90603e-05
4.5084e-08
3.90387e-05
4.88978e-08
3.90169e-05
5.05701e-08
3.89932e-05
5.36014e-08
3.89693e-05
5.50419e-08
3.89439e-05
5.73176e-08
3.89179e-05
5.95223e-08
3.8891e-05
6.22432e-08
3.88635e-05
6.36174e-08
3.88351e-05
6.57176e-08
3.88057e-05
6.78374e-08
3.87755e-05
6.91957e-08
3.87454e-05
7.06799e-08
3.87139e-05
7.20436e-08
3.86829e-05
7.27163e-08
3.86515e-05
7.37562e-08
3.86187e-05
7.59479e-08
3.85858e-05
7.6718e-08
3.85523e-05
7.76169e-08
3.8519e-05
7.78382e-08
3.84847e-05
7.92805e-08
3.8451e-05
7.9866e-08
3.84152e-05
8.23072e-08
3.83811e-05
8.02875e-08
3.83488e-05
7.53267e-08
3.83199e-05
6.83548e-08
3.82916e-05
6.63675e-08
3.82605e-05
7.33722e-08
3.82284e-05
7.64062e-08
3.82046e-05
5.64673e-08
3.8202e-05
2.86883e-09
3.823e-05
-6.83014e-08
3.827e-05
-9.59628e-08
3.82931e-05
-5.03026e-08
3.82752e-05
5.37991e-08
3.82269e-05
1.23859e-07
3.82375e-05
-2.63608e-08
3.83938e-05
-3.89909e-07
3.87706e-05
-9.30213e-07
3.9367e-05
-1.46082e-06
3.99889e-05
-1.489e-06
4.04218e-05
-9.94359e-07
-2.86681e-07
5.63483e-05
-5.43836e-08
5.6368e-05
-3.98862e-08
5.63873e-05
-4.21902e-08
5.64087e-05
-4.9681e-08
5.64288e-05
-4.36449e-08
5.64495e-05
-4.58488e-08
5.64682e-05
-4.46508e-08
5.6487e-05
-4.15316e-08
5.65037e-05
-3.67863e-08
5.65188e-05
-3.31376e-08
5.65313e-05
-2.87573e-08
5.65437e-05
-2.54808e-08
5.65547e-05
-2.1973e-08
5.6564e-05
-1.94149e-08
5.65715e-05
-1.54353e-08
5.65782e-05
-1.26277e-08
5.65838e-05
-9.4813e-09
5.65871e-05
-5.84753e-09
5.65902e-05
-3.67006e-09
5.65904e-05
2.12071e-09
5.659e-05
4.66301e-09
5.6587e-05
9.02861e-09
5.65837e-05
1.12018e-08
5.65784e-05
1.56147e-08
5.65722e-05
1.86793e-08
5.65634e-05
2.35125e-08
5.65538e-05
2.72783e-08
5.65422e-05
3.02079e-08
5.65292e-05
3.45723e-08
5.65145e-05
3.78279e-08
5.64981e-05
4.19496e-08
5.6481e-05
4.52178e-08
5.64621e-05
4.92166e-08
5.64409e-05
5.33932e-08
5.6419e-05
5.69998e-08
5.63957e-05
6.07282e-08
5.637e-05
6.50248e-08
5.63434e-05
6.7708e-08
5.63152e-05
7.16523e-08
5.62851e-05
7.52383e-08
5.62547e-05
7.92682e-08
5.62222e-05
8.31287e-08
5.6188e-05
8.7752e-08
5.61524e-05
9.06995e-08
5.61162e-05
9.35401e-08
5.60777e-05
9.80862e-08
5.60392e-05
1.00736e-07
5.59982e-05
1.04634e-07
5.59566e-05
1.07385e-07
5.59144e-05
1.10025e-07
5.58709e-05
1.12711e-07
5.58266e-05
1.14988e-07
5.57814e-05
1.1728e-07
5.57362e-05
1.17919e-07
5.56897e-05
1.20223e-07
5.56433e-05
1.22358e-07
5.55953e-05
1.2474e-07
5.55481e-05
1.24893e-07
5.54994e-05
1.26483e-07
5.54517e-05
1.27003e-07
5.54022e-05
1.29352e-07
5.53525e-05
1.32091e-07
5.53029e-05
1.29881e-07
5.52567e-05
1.21521e-07
5.52143e-05
1.10718e-07
5.51736e-05
1.07076e-07
5.51308e-05
1.16213e-07
5.50844e-05
1.22767e-07
5.50497e-05
9.11663e-08
5.50455e-05
7.15197e-09
5.50792e-05
-1.02027e-07
5.51336e-05
-1.50342e-07
5.51679e-05
-8.46245e-08
5.51475e-05
7.42003e-08
5.50877e-05
1.83725e-07
5.5099e-05
-3.77374e-08
5.53036e-05
-5.94518e-07
5.58012e-05
-1.42777e-06
5.65995e-05
-2.25908e-06
5.74506e-05
-2.34015e-06
5.80699e-05
-1.6136e-06
-5.38841e-07
7.80789e-05
-9.36833e-08
7.81114e-05
-7.21834e-08
7.81444e-05
-7.47152e-08
7.81773e-05
-8.28843e-08
7.82089e-05
-7.48077e-08
7.82404e-05
-7.73068e-08
7.82716e-05
-7.58202e-08
7.83013e-05
-7.11192e-08
7.83283e-05
-6.37172e-08
7.83532e-05
-5.80184e-08
7.83758e-05
-5.12776e-08
7.83967e-05
-4.628e-08
7.84149e-05
-4.01489e-08
7.84294e-05
-3.3846e-08
7.84436e-05
-2.95523e-08
7.8456e-05
-2.48888e-08
7.84652e-05
-1.86362e-08
7.84738e-05
-1.43952e-08
7.84787e-05
-8.40068e-09
7.84832e-05
-2.32558e-09
7.84831e-05
4.81975e-09
7.84824e-05
9.87401e-09
7.84785e-05
1.51699e-08
7.84738e-05
2.03921e-08
7.84645e-05
2.80675e-08
7.84538e-05
3.43499e-08
7.84404e-05
4.0676e-08
7.84251e-05
4.55853e-08
7.84079e-05
5.17862e-08
7.83879e-05
5.79106e-08
7.83671e-05
6.27937e-08
7.83415e-05
7.08366e-08
7.83151e-05
7.56594e-08
7.82854e-05
8.32109e-08
7.82542e-05
8.81684e-08
7.82207e-05
9.4344e-08
7.81856e-05
1.00154e-07
7.81475e-05
1.05826e-07
7.81072e-05
1.11943e-07
7.80654e-05
1.17056e-07
7.80221e-05
1.22622e-07
7.79755e-05
1.29777e-07
7.79275e-05
1.35761e-07
7.78773e-05
1.40877e-07
7.78248e-05
1.46046e-07
7.77723e-05
1.50611e-07
7.77159e-05
1.57183e-07
7.7659e-05
1.61589e-07
7.76007e-05
1.65681e-07
7.75412e-05
1.6951e-07
7.74802e-05
1.73756e-07
7.74181e-05
1.77086e-07
7.73564e-05
1.79074e-07
7.72924e-05
1.81879e-07
7.72288e-05
1.83848e-07
7.71629e-05
1.88219e-07
7.70978e-05
1.89916e-07
7.70303e-05
1.9234e-07
7.69649e-05
1.9192e-07
7.68975e-05
1.94387e-07
7.68297e-05
1.97194e-07
7.67617e-05
2.00074e-07
7.66933e-05
1.98369e-07
7.66299e-05
1.84889e-07
7.65701e-05
1.70501e-07
7.65143e-05
1.62867e-07
7.64542e-05
1.76353e-07
7.63937e-05
1.83311e-07
7.63453e-05
1.39542e-07
7.63337e-05
1.87856e-08
7.63753e-05
-1.43674e-07
7.64449e-05
-2.19943e-07
7.64906e-05
-1.30279e-07
7.64712e-05
9.35634e-08
7.63992e-05
2.55718e-07
7.64121e-05
-5.05453e-08
7.66645e-05
-8.46998e-07
7.72886e-05
-2.05177e-06
7.83029e-05
-3.27343e-06
7.94098e-05
-3.44707e-06
8.02555e-05
-2.45928e-06
-9.30386e-07
0.00010507
-1.56043e-07
0.000105123
-1.2379e-07
0.000105175
-1.26459e-07
0.000105226
-1.3433e-07
0.000105275
-1.23641e-07
0.000105324
-1.26026e-07
0.000105373
-1.243e-07
0.000105418
-1.16316e-07
0.000105459
-1.05141e-07
0.000105499
-9.76916e-08
0.000105536
-8.78694e-08
0.000105568
-7.85782e-08
0.000105598
-6.98916e-08
0.000105626
-6.12981e-08
0.000105651
-5.50311e-08
0.000105671
-4.42585e-08
0.000105688
-3.6342e-08
0.000105703
-2.88505e-08
0.000105714
-1.98016e-08
0.000105721
-8.99568e-09
0.000105726
1.57142e-10
0.000105728
8.28442e-09
0.000105726
1.70856e-08
0.00010572
2.59134e-08
0.000105712
3.63221e-08
0.000105699
4.73138e-08
0.000105683
5.67393e-08
0.000105664
6.55937e-08
0.000105641
7.47296e-08
0.000105615
8.37624e-08
0.000105585
9.30392e-08
0.000105553
1.02608e-07
0.000105516
1.13125e-07
0.000105477
1.22009e-07
0.000105434
1.31146e-07
0.000105389
1.39598e-07
0.00010534
1.48933e-07
0.000105289
1.57024e-07
0.000105234
1.67207e-07
0.000105177
1.7387e-07
0.000105116
1.83267e-07
0.000105052
1.94041e-07
0.000104986
2.01972e-07
0.000104915
2.11111e-07
0.000104846
2.15624e-07
0.000104771
2.25741e-07
0.000104696
2.32509e-07
0.000104617
2.3962e-07
0.000104537
2.46239e-07
0.000104456
2.50355e-07
0.000104373
2.56555e-07
0.000104289
2.61723e-07
0.000104203
2.64595e-07
0.000104118
2.67575e-07
0.000104031
2.70838e-07
0.000103945
2.7422e-07
0.000103856
2.78312e-07
0.000103768
2.80115e-07
0.000103679
2.81601e-07
0.000103589
2.8376e-07
0.000103498
2.88766e-07
0.000103407
2.9129e-07
0.000103317
2.8775e-07
0.00010323
2.71882e-07
0.000103153
2.48007e-07
0.000103077
2.38731e-07
0.000102999
2.54085e-07
0.000102917
2.65397e-07
0.000102852
2.04735e-07
0.000102833
3.8116e-08
0.000102878
-1.88698e-07
0.000102959
-3.01738e-07
0.000103021
-1.91712e-07
0.000103005
1.0912e-07
0.000102924
3.37453e-07
0.000102938
-6.47899e-08
0.000103235
-1.14429e-06
0.000103984
-2.80053e-06
0.000105215
-4.50466e-06
0.000106596
-4.82791e-06
0.000107699
-3.56212e-06
-1.50635e-06
0.000138087
-2.49232e-07
0.000138168
-2.0449e-07
0.000138247
-2.04173e-07
0.000138324
-2.11795e-07
0.000138398
-1.97287e-07
0.000138472
-1.9999e-07
0.000138542
-1.94365e-07
0.000138611
-1.85318e-07
0.000138677
-1.70639e-07
0.000138737
-1.57732e-07
0.000138793
-1.43898e-07
0.000138848
-1.33315e-07
0.000138895
-1.17126e-07
0.000138939
-1.04725e-07
0.000138977
-9.30697e-08
0.000139013
-8.069e-08
0.000139044
-6.62793e-08
0.000139067
-5.26481e-08
0.000139089
-4.14319e-08
0.000139105
-2.44307e-08
0.000139118
-1.26164e-08
0.000139124
2.03153e-09
0.000139125
1.57974e-08
0.000139121
3.01799e-08
0.000139113
4.49362e-08
0.0001391
5.9805e-08
0.000139081
7.57943e-08
0.000139058
8.86064e-08
0.00013903
1.02824e-07
0.000138998
1.16138e-07
0.000138959
1.31779e-07
0.000138917
1.44518e-07
0.000138871
1.59657e-07
0.00013882
1.73271e-07
0.000138764
1.86495e-07
0.000138702
2.02576e-07
0.000138637
2.13253e-07
0.000138568
2.26608e-07
0.000138496
2.38798e-07
0.000138419
2.51449e-07
0.000138337
2.64589e-07
0.000138253
2.78333e-07
0.000138163
2.9238e-07
0.00013807
3.03689e-07
0.000137973
3.12671e-07
0.000137875
3.2347e-07
0.000137773
3.34913e-07
0.00013767
3.42331e-07
0.000137563
3.53172e-07
0.000137455
3.59178e-07
0.000137343
3.68398e-07
0.000137233
3.71502e-07
0.000137121
3.7676e-07
0.000137009
3.79916e-07
0.000136895
3.84467e-07
0.000136781
3.88521e-07
0.000136666
3.93303e-07
0.000136551
3.94872e-07
0.000136434
3.98647e-07
0.00013632
3.97888e-07
0.000136205
4.03607e-07
0.000136086
4.09759e-07
0.000135968
4.0598e-07
0.000135859
3.81614e-07
0.000135756
3.50749e-07
0.000135658
3.364e-07
0.000135557
3.55279e-07
0.000135454
3.68762e-07
0.000135368
2.90718e-07
0.000135336
7.00265e-08
0.00013538
-2.33005e-07
0.000135475
-3.96589e-07
0.000135551
-2.67395e-07
0.000135541
1.19008e-07
0.000135454
4.24641e-07
0.000135468
-7.92232e-08
0.000135807
-1.48361e-06
0.000136672
-3.66494e-06
0.000138116
-5.94871e-06
0.000139773
-6.48481e-06
0.000141152
-4.94148e-06
-2.30433e-06
0.00017789
-3.88835e-07
0.000178012
-3.25689e-07
0.000178129
-3.20559e-07
0.00017824
-3.22842e-07
0.00017835
-3.06676e-07
0.000178455
-3.05016e-07
0.000178561
-3.00177e-07
0.00017866
-2.84901e-07
0.000178757
-2.66724e-07
0.000178848
-2.49395e-07
0.000178937
-2.3208e-07
0.000179015
-2.11951e-07
0.000179089
-1.90897e-07
0.000179157
-1.72573e-07
0.000179219
-1.54601e-07
0.000179275
-1.37257e-07
0.000179326
-1.16542e-07
0.000179368
-9.49976e-08
0.000179404
-7.68542e-08
0.000179432
-5.26984e-08
0.000179453
-3.30142e-08
0.000179467
-1.25733e-08
0.000179477
6.17148e-09
0.000179481
2.63525e-08
0.000179477
4.95702e-08
0.000179463
7.30939e-08
0.000179445
9.4377e-08
0.000179419
1.14424e-07
0.000179388
1.34258e-07
0.000179348
1.55923e-07
0.000179303
1.77287e-07
0.00017925
1.97401e-07
0.00017919
2.19258e-07
0.000179124
2.39715e-07
0.000179051
2.59554e-07
0.000178975
2.78336e-07
0.00017889
2.98926e-07
0.0001788
3.1613e-07
0.000178704
3.34718e-07
0.000178604
3.52144e-07
0.000178498
3.70431e-07
0.000178385
3.90837e-07
0.000178269
4.08613e-07
0.000178148
4.24991e-07
0.000178023
4.37665e-07
0.000177893
4.53481e-07
0.00017776
4.67896e-07
0.000177622
4.80017e-07
0.000177485
4.90228e-07
0.000177343
5.01357e-07
0.000177202
5.09953e-07
0.000177057
5.15626e-07
0.000176912
5.21948e-07
0.000176768
5.24682e-07
0.000176625
5.26981e-07
0.000176479
5.34924e-07
0.000176334
5.37673e-07
0.000176188
5.41342e-07
0.000176045
5.41778e-07
0.000175899
5.43437e-07
0.000175752
5.50564e-07
0.000175606
5.55571e-07
0.000175462
5.50821e-07
0.000175322
5.21239e-07
0.000175192
4.80323e-07
0.00017507
4.59031e-07
0.000174944
4.80952e-07
0.000174816
4.96743e-07
0.000174708
3.98514e-07
0.000174659
1.18915e-07
0.000174701
-2.74894e-07
0.000174806
-5.01317e-07
0.000174896
-3.57316e-07
0.000174895
1.20369e-07
0.000174806
5.13088e-07
0.000174822
-9.4768e-08
0.000175199
-1.86052e-06
0.000176165
-4.63085e-06
0.0001778
-7.58413e-06
0.000179719
-8.40366e-06
0.000181386
-6.6084e-06
0.000182428
-3.3464e-06
1.40896e-06
0.00022523
-5.86828e-07
0.000225407
-5.01633e-07
0.000225574
-4.8709e-07
0.000225733
-4.82373e-07
0.000225888
-4.61232e-07
0.000226039
-4.555e-07
0.000226188
-4.48837e-07
0.000226333
-4.29893e-07
0.000226471
-4.05335e-07
0.000226604
-3.82093e-07
0.000226731
-3.59159e-07
0.000226853
-3.33162e-07
0.000226964
-3.02517e-07
0.000227068
-2.76646e-07
0.000227165
-2.50725e-07
0.000227249
-2.21669e-07
0.000227324
-1.91686e-07
0.000227392
-1.62242e-07
0.000227448
-1.32981e-07
0.000227499
-1.02997e-07
0.000227538
-7.20739e-08
0.00022757
-4.49122e-08
0.000227591
-1.41648e-08
0.000227602
1.49706e-08
0.000227606
4.57896e-08
0.000227599
8.026e-08
0.000227583
1.10146e-07
0.000227556
1.4187e-07
0.000227519
1.71291e-07
0.000227475
1.99728e-07
0.000227423
2.29343e-07
0.00022736
2.61117e-07
0.000227287
2.91621e-07
0.000227206
3.20759e-07
0.000227117
3.48565e-07
0.000227018
3.77224e-07
0.000226913
4.04712e-07
0.000226799
4.299e-07
0.000226679
4.54335e-07
0.000226549
4.83026e-07
0.000226412
5.07193e-07
0.00022627
5.32834e-07
0.00022612
5.58023e-07
0.000225964
5.81021e-07
0.000225802
6.00546e-07
0.000225635
6.20225e-07
0.000225466
6.36416e-07
0.000225291
6.55444e-07
0.000225114
6.6741e-07
0.000224935
6.80259e-07
0.000224755
6.90434e-07
0.000224573
6.97261e-07
0.000224393
7.01639e-07
0.000224214
7.04229e-07
0.00022403
7.10671e-07
0.000223853
7.12372e-07
0.000223675
7.15538e-07
0.000223498
7.17759e-07
0.00022332
7.19686e-07
0.000223144
7.20178e-07
0.00022297
7.24582e-07
0.000222792
7.33329e-07
0.000222617
7.25724e-07
0.000222447
6.91404e-07
0.00022229
6.37074e-07
0.000222141
6.08058e-07
0.000221991
6.31418e-07
0.000221836
6.51165e-07
0.000221704
5.30963e-07
0.000221638
1.84394e-07
0.000221674
-3.1006e-07
0.000221782
-6.10139e-07
0.000221886
-4.60728e-07
0.000221898
1.08575e-07
0.000221812
5.98364e-07
0.000221835
-1.17851e-07
0.000222242
-2.26709e-06
0.000223296
-5.68474e-06
0.000225098
-9.38595e-06
0.000227252
-1.05582e-05
0.000229191
-8.54727e-06
0.000230493
-4.64825e-06
1.11297e-06
0.000280862
-8.60493e-07
0.00028111
-7.50818e-07
0.000281341
-7.17625e-07
0.000281567
-7.07811e-07
0.000281779
-6.73587e-07
0.00028199
-6.66046e-07
0.000282195
-6.53522e-07
0.000282397
-6.31669e-07
0.000282593
-6.02048e-07
0.000282783
-5.71751e-07
0.000282967
-5.42609e-07
0.00028314
-5.06367e-07
0.000283307
-4.69e-07
0.000283457
-4.26776e-07
0.000283595
-3.88546e-07
0.000283722
-3.49105e-07
0.000283838
-3.07404e-07
0.000283941
-2.65033e-07
0.000284033
-2.24194e-07
0.00028411
-1.79981e-07
0.000284174
-1.36436e-07
0.000284227
-9.75817e-08
0.00028427
-5.7292e-08
0.000284298
-1.28541e-08
0.000284313
3.11818e-08
0.000284317
7.66773e-08
0.000284305
1.21913e-07
0.000284284
1.63044e-07
0.00028425
2.05056e-07
0.000284202
2.48024e-07
0.000284142
2.89041e-07
0.00028407
3.33196e-07
0.000283989
3.73e-07
0.000283891
4.18763e-07
0.000283785
4.55136e-07
0.000283664
4.975e-07
0.000283535
5.33751e-07
0.000283396
5.69562e-07
0.000283242
6.08093e-07
0.000283084
6.41149e-07
0.000282914
6.77094e-07
0.000282734
7.12905e-07
0.000282545
7.47282e-07
0.000282349
7.77209e-07
0.000282146
8.03716e-07
0.000281938
8.28256e-07
0.000281723
8.50825e-07
0.000281506
8.72912e-07
0.000281281
8.9223e-07
0.00028106
9.01691e-07
0.000280837
9.13378e-07
0.000280613
9.21175e-07
0.000280388
9.25952e-07
0.000280167
9.25348e-07
0.000279951
9.27262e-07
0.000279736
9.26688e-07
0.000279521
9.30688e-07
0.000279309
9.30126e-07
0.000279102
9.27063e-07
0.000278895
9.26987e-07
0.000278688
9.31357e-07
0.000278485
9.36844e-07
0.000278279
9.31206e-07
0.000278082
8.88947e-07
0.000277896
8.22458e-07
0.000277723
7.81506e-07
0.000277549
8.05584e-07
0.000277372
8.27426e-07
0.000277217
6.85845e-07
0.000277133
2.68908e-07
0.000277158
-3.35529e-07
0.000277274
-7.25425e-07
0.000277386
-5.72592e-07
0.000277411
8.31002e-08
0.000277335
6.74427e-07
0.000277366
-1.48689e-07
0.000277804
-2.70523e-06
0.00027893
-6.81076e-06
0.00028087
-1.13261e-05
0.000283227
-1.29152e-05
0.00028541
-1.07303e-05
0.000286963
-6.20062e-06
5.9523e-07
0.000345552
-1.23911e-06
0.000345895
-1.09222e-06
0.000346214
-1.03473e-06
0.000346518
-1.01158e-06
0.00034681
-9.66313e-07
0.000347098
-9.53624e-07
0.000347379
-9.3459e-07
0.000347654
-9.05714e-07
0.000347927
-8.75236e-07
0.000348194
-8.38925e-07
0.000348452
-8.00087e-07
0.000348699
-7.53824e-07
0.000348929
-6.98538e-07
0.000349145
-6.43264e-07
0.000349347
-5.90268e-07
0.000349532
-5.33399e-07
0.000349698
-4.73381e-07
0.000349849
-4.16453e-07
0.000349981
-3.55994e-07
0.000350099
-2.97342e-07
0.000350201
-2.38902e-07
0.000350289
-1.84801e-07
0.00035036
-1.28218e-07
0.000350415
-6.80531e-08
0.000350453
-6.63068e-09
0.000350475
5.47572e-08
0.000350478
1.19294e-07
0.000350466
1.74907e-07
0.000350437
2.34128e-07
0.000350394
2.91655e-07
0.000350331
3.5155e-07
0.000350253
4.11647e-07
0.000350157
4.69179e-07
0.00035005
5.25404e-07
0.000349923
5.81909e-07
0.000349785
6.35954e-07
0.000349629
6.89843e-07
0.000349459
7.39575e-07
0.000349278
7.8948e-07
0.000349081
8.37287e-07
0.000348872
8.86706e-07
0.000348651
9.33436e-07
0.00034842
9.79129e-07
0.000348177
1.01951e-06
0.000347925
1.0559e-06
0.000347666
1.08786e-06
0.000347401
1.11551e-06
0.000347131
1.14282e-06
0.000346861
1.16259e-06
0.000346586
1.17631e-06
0.000346312
1.18727e-06
0.00034604
1.19336e-06
0.000345772
1.19375e-06
0.000345509
1.1883e-06
0.000345251
1.18534e-06
0.000344995
1.18311e-06
0.000344748
1.17764e-06
0.000344506
1.17225e-06
0.000344265
1.16832e-06
0.000344034
1.15803e-06
0.0003438
1.16457e-06
0.000343566
1.17168e-06
0.000343339
1.15766e-06
0.000343117
1.11127e-06
0.00034291
1.02883e-06
0.000342714
9.78035e-07
0.000342521
9.98779e-07
0.000342322
1.02613e-06
0.000342149
8.59254e-07
0.000342049
3.68103e-07
0.000342068
-3.54036e-07
0.000342183
-8.40265e-07
0.000342308
-6.98045e-07
0.000342349
4.25308e-08
0.000342283
7.40428e-07
0.000342333
-1.99125e-07
0.000342798
-3.16971e-06
0.000343982
-7.99517e-06
0.000346037
-1.33813e-05
0.000348563
-1.54409e-05
0.000350956
-1.31237e-05
0.000352734
-7.97784e-06
-1.42545e-07
0.000420115
-1.73523e-06
0.000420578
-1.56774e-06
0.000421009
-1.46432e-06
0.000421416
-1.41896e-06
0.000421812
-1.36185e-06
0.000422196
-1.33727e-06
0.000422574
-1.31251e-06
0.000422949
-1.28031e-06
0.000423319
-1.24574e-06
0.000423683
-1.20262e-06
0.00042404
-1.15708e-06
0.000424383
-1.09664e-06
0.000424708
-1.02279e-06
0.000425008
-9.43993e-07
0.00042529
-8.72219e-07
0.000425549
-7.9177e-07
0.000425789
-7.13115e-07
0.000426001
-6.28703e-07
0.000426195
-5.49302e-07
0.000426369
-4.71552e-07
0.000426522
-3.91256e-07
0.000426654
-3.17036e-07
0.000426767
-2.40666e-07
0.000426862
-1.62838e-07
0.000426934
-7.9278e-08
0.00042698
8.90498e-09
0.00042701
8.99842e-08
0.000427014
1.70634e-07
0.000427002
2.46534e-07
0.000426966
3.27943e-07
0.000426907
4.09807e-07
0.000426831
4.87785e-07
0.00042673
5.70748e-07
0.000426611
6.44698e-07
0.00042647
7.22942e-07
0.00042631
7.95473e-07
0.000426131
8.69625e-07
0.000425932
9.37868e-07
0.000425714
1.00775e-06
0.000425481
1.07027e-06
0.000425233
1.1345e-06
0.000424964
1.20264e-06
0.000424684
1.25967e-06
0.000424391
1.31252e-06
0.000424086
1.36096e-06
0.000423769
1.40429e-06
0.000423446
1.43918e-06
0.000423117
1.47118e-06
0.000422785
1.49509e-06
0.000422454
1.50764e-06
0.000422124
1.51672e-06
0.0004218
1.51747e-06
0.000421482
1.51223e-06
0.00042117
1.5e-06
0.000420871
1.48477e-06
0.000420579
1.47482e-06
0.000420294
1.46212e-06
0.000420019
1.44814e-06
0.000419755
1.43194e-06
0.000419494
1.41928e-06
0.000419241
1.41724e-06
0.000418993
1.41952e-06
0.000418745
1.40581e-06
0.000418508
1.34866e-06
0.000418285
1.25161e-06
0.000418073
1.18994e-06
0.000417864
1.20759e-06
0.000417659
1.23108e-06
0.000417475
1.0438e-06
0.000417364
4.78617e-07
0.000417379
-3.68627e-07
0.000417498
-9.5965e-07
0.000417633
-8.32754e-07
0.000417692
-1.68014e-08
0.000417644
7.8848e-07
0.000417711
-2.65913e-07
0.000418207
-3.66566e-06
0.000419441
-9.22955e-06
0.000421592
-1.55323e-05
0.000424247
-1.80954e-05
0.000426811
-1.56875e-05
0.00042878
-9.9465e-06
-1.08871e-06
0.000505405
-2.40616e-06
0.000506023
-2.19326e-06
0.000506593
-2.03193e-06
0.000507139
-1.96525e-06
0.000507665
-1.88791e-06
0.00050818
-1.85203e-06
0.000508685
-1.81697e-06
0.000509186
-1.78096e-06
0.000509683
-1.7434e-06
0.00051018
-1.69963e-06
0.000510666
-1.6422e-06
0.000511135
-1.56607e-06
0.000511575
-1.46264e-06
0.000511989
-1.35745e-06
0.000512374
-1.25759e-06
0.000512733
-1.15052e-06
0.000513063
-1.04321e-06
0.000513366
-9.31414e-07
0.000513639
-8.2177e-07
0.000513882
-7.14601e-07
0.000514108
-6.17068e-07
0.000514305
-5.13655e-07
0.000514478
-4.13947e-07
0.000514625
-3.091e-07
0.000514743
-1.97761e-07
0.000514835
-8.24814e-08
0.000514899
2.59564e-08
0.000514939
1.30212e-07
0.000514946
2.39834e-07
0.000514929
3.45366e-07
0.000514886
4.53106e-07
0.000514816
5.57877e-07
0.000514719
6.67441e-07
0.000514591
7.72763e-07
0.000514443
8.70891e-07
0.000514264
9.74994e-07
0.000514062
1.07109e-06
0.000513837
1.16318e-06
0.00051359
1.25485e-06
0.000513315
1.345e-06
0.000513019
1.43073e-06
0.000512708
1.51387e-06
0.000512372
1.59601e-06
0.000512017
1.66745e-06
0.000511648
1.72939e-06
0.000511269
1.78337e-06
0.000510879
1.82964e-06
0.000510485
1.86552e-06
0.000510086
1.89315e-06
0.000509688
1.9065e-06
0.000509295
1.90964e-06
0.00050891
1.9024e-06
0.000508536
1.88629e-06
0.000508175
1.86042e-06
0.000507827
1.8332e-06
0.000507494
1.80751e-06
0.000507179
1.77777e-06