/*--------------------------------*- C++ -*----------------------------------*\
| =========                 |                                                 |
| \\      /  F ield         | OpenFOAM: The Open Source CFD Toolbox           |
|  \\    /   O peration     | Version:  2412                                  |
|   \\  /    A nd           | Website:  www.openfoam.com                      |
|    \\/     M anipulation  |                                                 |
\*---------------------------------------------------------------------------*/
FoamFile
{
    version     2.0;
    format      ascii;
    arch        "LSB;label=32;scalar=64";
    class       volVectorField;
    location    "300";
    object      U;
}
// * * * * * * * * * * * * * * * * * * * * * * * * * * * * * * * * * * * * * //

dimensions      [0 1 -1 0 0 0 0];

internalField   nonuniform List<vector> 
7387
(
(0.21663 -0.0622621 1.10771e-18)
(0.211603 -0.0610997 2.07592e-25)
(0.206622 -0.0599227 -1.00484e-18)
(0.201688 -0.0587466 0)
(0.196792 -0.0575622 -8.99381e-19)
(0.191938 -0.0563713 -4.21147e-25)
(0.187121 -0.0551751 0)
(0.182336 -0.0539744 0)
(0.177592 -0.0527685 -1.35332e-18)
(0.172898 -0.0515636 -6.17667e-19)
(0.168264 -0.050359 2.47028e-25)
(0.163691 -0.0491605 -2.54514e-25)
(0.15917 -0.0479705 -2.15239e-19)
(0.154712 -0.0467779 0)
(0.150324 -0.0455971 1.47768e-19)
(0.146009 -0.0444262 -1.12241e-19)
(0.141769 -0.0432675 0)
(0.137611 -0.0421228 3.70963e-20)
(0.133542 -0.0409937 3.86654e-26)
(0.129569 -0.0398823 -2.28189e-26)
(0.125691 -0.0387936 0)
(0.121912 -0.0377239 0)
(0.118238 -0.0366779 0)
(0.114668 -0.0356574 -1.14905e-19)
(0.111207 -0.0346604 1.40962e-19)
(0.107859 -0.0336915 1.68361e-19)
(0.104619 -0.0327512 -1.97212e-19)
(0.101491 -0.0318376 3.96889e-26)
(0.0984766 -0.0309528 -2.59797e-19)
(0.0955744 -0.0300981 5.80335e-25)
(0.0927842 -0.0292727 -1.64944e-19)
(0.0901038 -0.0284768 1.84086e-19)
(0.0875346 -0.0277098 4.08884e-19)
(0.0850729 -0.0269744 -8.82576e-25)
(0.082718 -0.0262661 9.30804e-25)
(0.0804671 -0.0255892 -5.47894e-19)
(0.0783194 -0.0249395 -3.00366e-19)
(0.076273 -0.0243198 0)
(0.0743263 -0.0237274 -1.67419e-26)
(0.0724747 -0.0231643 -1.51387e-24)
(0.07072 -0.0226277 1.60729e-24)
(0.069068 -0.0221212 0)
(0.0675189 -0.0216461 0)
(0.0660612 -0.0211988 1.37099e-19)
(0.0646795 -0.020776 -2.29124e-24)
(0.0633849 -0.0203771 1.61502e-19)
(0.0622227 -0.0200159 1.75128e-19)
(0.0612379 -0.019706 -2.91568e-24)
(0.0604212 -0.019453 -1.02766e-19)
(0.0596488 -0.0192255 -1.11229e-19)
(0.0588597 -0.0190017 0)
(0.0580233 -0.0187616 3.98757e-24)
(0.0574338 -0.0185701 -4.26621e-24)
(0.0574146 -0.018531 7.57457e-20)
(0.0580593 -0.0186803 -2.15835e-26)
(0.0594667 -0.0190888 8.77858e-20)
(0.0609291 -0.0196035 9.42342e-20)
(0.0618181 -0.0200205 0)
(0.0623418 -0.020392 0)
(0.0620634 -0.0205397 -5.77853e-20)
(0.0618861 -0.0205662 7.53939e-24)
(0.0640689 -0.0211383 6.5627e-20)
(0.0697306 -0.0226214 0)
(0.0799576 -0.025298 3.6816e-20)
(0.0970967 -0.0297406 0)
(0.128863 -0.0401096 -1.01944e-23)
(0.145961 -0.0553088 4.19852e-20)
(0.107459 -0.0557253 -1.7753e-26)
(0.037808 -0.0279035 -4.62681e-20)
(-0.0135486 0.014712 0)
(-0.0109218 0.0168933 -1.32045e-23)
(-0.00355444 0.00857287 2.71097e-23)
(0.680284 -0.195522 -1.84178e-18)
(0.664537 -0.19187 3.51333e-18)
(0.648929 -0.188194 1.67063e-18)
(0.633469 -0.184506 -7.8486e-25)
(0.618138 -0.180796 0)
(0.602932 -0.177073 -6.39991e-25)
(0.587839 -0.173328 6.04064e-26)
(0.572855 -0.169565 6.07139e-26)
(0.557999 -0.165793 2.24929e-18)
(0.543302 -0.16202 1.02651e-18)
(0.528784 -0.158254 0)
(0.51445 -0.154502 0)
(0.500297 -0.150764 0)
(0.486342 -0.147041 0)
(0.472599 -0.143344 0)
(0.459085 -0.139679 1.45835e-25)
(0.445807 -0.136052 -2.38152e-25)
(0.432789 -0.132466 -6.12675e-20)
(0.420047 -0.128935 0)
(0.407605 -0.125455 1.02896e-25)
(0.39546 -0.122048 6.47861e-26)
(0.383624 -0.118698 -1.78536e-25)
(0.372116 -0.115424 -3.18731e-25)
(0.360937 -0.112227 -1.91249e-19)
(0.350099 -0.109108 -2.34561e-19)
(0.339607 -0.106075 2.80097e-19)
(0.329459 -0.103129 3.28047e-19)
(0.319664 -0.100268 6.89224e-25)
(0.310221 -0.0974995 4.3205e-19)
(0.301131 -0.0948215 -2.44292e-19)
(0.292392 -0.092238 2.74251e-19)
(0.283998 -0.0897457 -3.06055e-19)
(0.27595 -0.0873462 -3.39872e-19)
(0.26824 -0.0850407 0)
(0.260863 -0.0828262 0)
(0.253814 -0.0807037 -1.90027e-25)
(0.247089 -0.0786717 2.49597e-19)
(0.240681 -0.0767306 -2.1168e-24)
(0.234583 -0.0748779 2.9829e-19)
(0.228785 -0.0731128 0)
(0.223291 -0.0714344 3.54401e-19)
(0.218116 -0.0698491 3.85656e-19)
(0.213263 -0.0683599 0)
(0.208696 -0.06696 2.27747e-19)
(0.20437 -0.0656354 2.47244e-19)
(0.200315 -0.0643884 2.68247e-19)
(0.196669 -0.0632548 -2.90864e-19)
(0.193568 -0.0622809 1.57602e-19)
(0.190986 -0.0614809 -5.17568e-24)
(0.188551 -0.0607635 5.66861e-24)
(0.186073 -0.0600608 -1.99765e-19)
(0.183461 -0.0593126 6.55633e-24)
(0.181595 -0.0587109 -1.16577e-19)
(0.181454 -0.0585703 0)
(0.183336 -0.0590031 1.3547e-19)
(0.187532 -0.0602214 -1.45698e-19)
(0.191931 -0.0617732 0)
(0.194631 -0.0630469 8.38362e-20)
(0.196213 -0.0641843 -1.0975e-23)
(0.195392 -0.0646605 2.34126e-23)
(0.194855 -0.0647771 -1.24663e-23)
(0.201346 -0.0665235 0)
(0.218299 -0.0710139 0)
(0.248969 -0.0790983 -6.10866e-20)
(0.300188 -0.0925676 8.70607e-26)
(0.394274 -0.123381 -6.71391e-20)
(0.44636 -0.168971 -6.94628e-20)
(0.335142 -0.17238 1.76923e-23)
(0.125709 -0.0903794 -3.75808e-23)
(-0.0348896 0.0392445 3.96273e-23)
(-0.0323152 0.0500835 -8.72867e-20)
(-0.0106652 0.0334008 4.4861e-23)
(1.2072 -0.346957 4.16968e-18)
(1.1793 -0.340482 -1.9885e-18)
(1.15164 -0.333977 0)
(1.12425 -0.327443 1.79252e-18)
(1.09709 -0.320873 -1.69251e-18)
(1.07016 -0.314279 -1.59083e-18)
(1.04343 -0.307652 7.43272e-25)
(1.01689 -0.300989 1.38142e-18)
(0.990581 -0.294309 -1.2731e-18)
(0.964555 -0.287629 5.19251e-25)
(0.938839 -0.280965 -9.99158e-25)
(0.913447 -0.274322 4.78716e-25)
(0.888387 -0.267698 4.04744e-19)
(0.863676 -0.261113 -2.90834e-25)
(0.839338 -0.254567 -2.77704e-19)
(0.815404 -0.248079 1.65082e-25)
(0.791892 -0.241657 -1.41431e-19)
(0.768842 -0.235309 6.93532e-20)
(0.746283 -0.229056 5.63153e-21)
(0.724242 -0.222904 -8.37528e-20)
(0.702734 -0.216862 0)
(0.681777 -0.210936 -2.75679e-25)
(0.661395 -0.20514 -7.38138e-26)
(0.641599 -0.199479 5.87118e-25)
(0.622404 -0.193959 -2.65501e-19)
(0.603819 -0.188589 -2.44057e-25)
(0.585849 -0.183367 7.45503e-25)
(0.568501 -0.178305 -7.80105e-25)
(0.551777 -0.173403 4.89013e-19)
(0.535678 -0.168662 -1.55148e-25)
(0.520202 -0.164086 -3.10399e-19)
(0.505338 -0.159674 1.35887e-24)
(0.491083 -0.155427 -3.84655e-19)
(0.477432 -0.151344 0)
(0.464367 -0.147425 0)
(0.451886 -0.143666 -2.20876e-24)
(0.439978 -0.14007 2.82463e-19)
(0.428633 -0.136633 0)
(0.417836 -0.133355 2.61294e-24)
(0.407572 -0.13023 7.53183e-26)
(0.397845 -0.12726 -4.01032e-19)
(0.38868 -0.124453 -4.36377e-19)
(0.380087 -0.121816 0)
(0.371999 -0.119339 -2.57683e-19)
(0.364341 -0.116994 -8.43572e-24)
(0.357161 -0.114787 -3.03487e-19)
(0.350696 -0.112778 -3.29059e-19)
(0.345179 -0.111048 -3.56581e-19)
(0.340565 -0.109619 1.4697e-25)
(0.336227 -0.10834 -1.2679e-23)
(0.331832 -0.107094 4.51908e-19)
(0.32722 -0.105775 -1.49775e-23)
(0.323887 -0.104708 1.60043e-23)
(0.323508 -0.104429 0)
(0.326613 -0.105137 -1.53222e-19)
(0.333691 -0.107193 1.00253e-23)
(0.341177 -0.109841 -2.16424e-23)
(0.345818 -0.112044 -9.47712e-20)
(0.348526 -0.114015 0)
(0.347164 -0.11488 2.6519e-23)
(0.346244 -0.11514 9.91183e-26)
(0.357175 -0.118153 -3.00078e-23)
(0.385911 -0.12585 0)
(0.437953 -0.139719 0)
(0.524601 -0.162865 0)
(0.682467 -0.21482 0)
(0.772457 -0.292148 3.79706e-23)
(0.591021 -0.301232 -3.98187e-23)
(0.234647 -0.164572 8.59773e-20)
(-0.0492604 0.0587641 0)
(-0.0542257 0.0841199 0)
(-0.019512 0.0688182 -5.15275e-20)
(1.80578 -0.518973 -2.35855e-18)
(1.76411 -0.509315 -2.24963e-18)
(1.7228 -0.499592 2.11642e-24)
(1.68189 -0.489836 -2.02803e-18)
(1.64132 -0.480031 1.91493e-18)
(1.60109 -0.470178 3.59985e-18)
(1.56118 -0.460285 0)
(1.52155 -0.450345 6.6208e-25)
(1.48227 -0.440371 -1.45177e-24)
(1.4434 -0.430402 1.17509e-24)
(1.405 -0.42045 5.92867e-19)
(1.36709 -0.41053 -5.26454e-19)
(1.32967 -0.400651 -9.16004e-19)
(1.29277 -0.390816 -6.58212e-25)
(1.25643 -0.381048 5.60599e-25)
(1.22069 -0.371361 -2.38559e-19)
(1.18559 -0.361772 1.60046e-19)
(1.15118 -0.352304 -7.84824e-20)
(1.1175 -0.342966 3.38099e-25)
(1.08458 -0.333787 9.47781e-20)
(1.05247 -0.324763 0)
(1.02118 -0.315921 0)
(0.990745 -0.307267 0)
(0.961186 -0.298815 2.44975e-19)
(0.932524 -0.290575 6.00897e-19)
(0.904773 -0.282557 -3.58769e-19)
(0.877944 -0.274764 -4.20181e-19)
(0.852041 -0.267209 -4.84951e-19)
(0.827071 -0.259889 -1.10674e-18)
(0.803032 -0.252814 3.12879e-19)
(0.779923 -0.245982 3.51239e-19)
(0.757731 -0.239397 -3.07528e-24)
(0.736451 -0.233057 2.98588e-24)
(0.716068 -0.226963 0)
(0.696567 -0.221112 0)
(0.677934 -0.215504 5.8302e-19)
(0.660158 -0.210137 -6.39176e-19)
(0.643225 -0.205009 -3.49658e-19)
(0.627111 -0.200116 -3.81899e-19)
(0.611794 -0.195455 0)
(0.597279 -0.191024 0)
(0.583601 -0.186835 0)
(0.570772 -0.182901 2.68348e-19)
(0.5587 -0.179202 2.91501e-19)
(0.547273 -0.175705 1.36628e-25)
(0.536558 -0.172414 -1.05613e-23)
(0.526896 -0.169414 2.25735e-23)
(0.518619 -0.16682 2.01642e-19)
(0.511669 -0.16467 0)
(0.505153 -0.162747 0)
(0.498583 -0.160883 9.17958e-26)
(0.491727 -0.158926 1.69367e-23)
(0.486706 -0.157331 1.49081e-19)
(0.485929 -0.156867 0)
(0.490191 -0.157832 1.73219e-19)
(0.50018 -0.160736 0)
(0.510859 -0.164524 0)
(0.517556 -0.167723 2.62133e-23)
(0.521448 -0.170594 1.09356e-25)
(0.519576 -0.171924 -1.22568e-19)
(0.518273 -0.172405 -1.30665e-19)
(0.533686 -0.17678 0)
(0.574498 -0.187864 0)
(0.648493 -0.207822 7.78994e-20)
(0.771264 -0.241205 0)
(0.992866 -0.314598 0)
(1.12346 -0.424576 4.2729e-23)
(0.877535 -0.442843 9.09525e-20)
(0.369542 -0.252768 -9.65704e-20)
(-0.0527462 0.0705967 1.00276e-22)
(-0.0759534 0.118235 0)
(-0.029856 0.117487 5.77373e-20)
(2.48531 -0.714243 -2.45518e-24)
(2.42806 -0.700972 2.54139e-18)
(2.3713 -0.687623 2.39112e-24)
(2.31508 -0.674217 2.09882e-24)
(2.25934 -0.660749 -2.16384e-18)
(2.20407 -0.647221 -2.03404e-18)
(2.14923 -0.63363 1.90087e-24)
(2.0948 -0.619978 -1.76661e-18)
(2.04082 -0.606285 0)
(1.98742 -0.592589 1.32829e-24)
(1.93466 -0.578922 -6.70208e-19)
(1.88258 -0.565295 5.9516e-19)
(1.83117 -0.551726 4.74644e-25)
(1.78048 -0.538222 4.37927e-19)
(1.73056 -0.524806 3.55318e-19)
(1.68146 -0.5115 2.69747e-19)
(1.63324 -0.498332 0)
(1.58596 -0.485325 0)
(1.53969 -0.472505 -7.20711e-21)
(1.49447 -0.459889 -2.98126e-25)
(1.45035 -0.4475 3.09727e-25)
(1.40736 -0.435354 0)
(1.36554 -0.423466 2.17292e-19)
(1.32493 -0.411855 2.77071e-19)
(1.28554 -0.400537 -3.39818e-19)
(1.24742 -0.38952 1.64323e-24)
(1.21055 -0.378819 4.75248e-19)
(1.17496 -0.368436 1.09702e-18)
(1.14065 -0.358384 1.2518e-18)
(1.10763 -0.348664 2.79579e-24)
(1.07587 -0.33928 -7.94556e-19)
(1.04539 -0.330234 0)
(1.01615 -0.321527 4.923e-19)
(0.988151 -0.313158 -8.30745e-24)
(0.961362 -0.305122 6.00029e-19)
(0.935767 -0.297421 4.93469e-24)
(0.911352 -0.290049 -1.977e-25)
(0.888098 -0.283009 3.95456e-19)
(0.865971 -0.276292 4.3191e-19)
(0.844939 -0.269893 -4.71037e-19)
(0.82501 -0.263811 -7.92532e-24)
(0.806227 -0.258061 -5.58269e-19)
(0.788605 -0.252658 -3.03452e-19)
(0.772026 -0.24758 -3.2962e-19)
(0.756339 -0.242781 -7.15598e-19)
(0.74163 -0.238264 0)
(0.728343 -0.234142 8.4164e-19)
(0.716916 -0.230565 1.38196e-23)
(0.707277 -0.227584 0)
(0.698265 -0.224924 -2.67088e-19)
(0.689228 -0.222358 -2.88851e-19)
(0.679856 -0.21969 -3.12113e-19)
(0.672896 -0.217497 0)
(0.671511 -0.216787 -2.22725e-23)
(0.676797 -0.217968 -1.95706e-19)
(0.689635 -0.221703 -2.57585e-23)
(0.70354 -0.226657 2.74991e-23)
(0.712378 -0.230913 -1.21043e-19)
(0.7175 -0.23475 3.15515e-23)
(0.715178 -0.236636 1.38339e-19)
(0.713515 -0.237436 1.47563e-19)
(0.733348 -0.243256 0)
(0.786266 -0.257852 1.66411e-19)
(0.882334 -0.284113 4.1907e-23)
(1.0411 -0.328133 9.20123e-20)
(1.32453 -0.422766 0)
(1.4978 -0.565778 0)
(1.19658 -0.597627 -1.01794e-19)
(0.535814 -0.35758 1.07863e-19)
(-0.040786 0.0707972 1.13917e-22)
(-0.0963279 0.151407 -2.41635e-22)
(-0.0418525 0.181619 -6.44115e-20)
(3.2554 -0.935513 0)
(3.18061 -0.918185 -2.63229e-24)
(3.10645 -0.900758 -2.72234e-18)
(3.03299 -0.88325 -2.58125e-18)
(2.96015 -0.865662 2.438e-18)
(2.88792 -0.847991 2.08773e-24)
(2.81627 -0.830241 -2.14256e-24)
(2.74515 -0.812409 0)
(2.67462 -0.794525 0)
(2.60483 -0.776631 1.49799e-24)
(2.53587 -0.758775 -1.5424e-24)
(2.46779 -0.740977 0)
(2.4006 -0.723242 5.84231e-19)
(2.33435 -0.7056 -4.94177e-19)
(2.26909 -0.688066 4.01013e-19)
(2.2049 -0.670679 0)
(2.14187 -0.653472 2.04303e-19)
(2.08006 -0.636473 1.00198e-19)
(2.01956 -0.619715 0)
(1.96044 -0.603225 0)
(1.90275 -0.587031 0)
(1.84654 -0.571152 0)
(1.79186 -0.555613 -4.90888e-19)
(1.73875 -0.540434 -6.25984e-19)
(1.68725 -0.525635 -2.71461e-24)
(1.63738 -0.511231 0)
(1.58917 -0.497238 0)
(1.54262 -0.483663 6.09834e-25)
(1.49776 -0.470521 -7.07236e-19)
(1.45456 -0.45781 0)
(1.41303 -0.445541 4.48935e-19)
(1.37316 -0.433713 0)
(1.33493 -0.42233 0)
(1.29832 -0.411388 0)
(1.26329 -0.400885 -6.7809e-19)
(1.22982 -0.390816 -1.11536e-23)
(1.19791 -0.381183 4.08475e-19)
(1.1675 -0.37198 -4.46909e-19)
(1.13858 -0.363203 -4.35465e-25)
(1.11109 -0.354841 5.32322e-19)
(1.08505 -0.346894 0)
(1.0605 -0.339382 -3.75044e-25)
(1.03746 -0.332319 0)
(1.01578 -0.325682 3.72426e-19)
(0.995286 -0.319413 2.42367e-23)
(0.976069 -0.313515 -2.69835e-23)
(0.958676 -0.308125 -4.7538e-19)
(0.943651 -0.303426 4.29308e-25)
(0.930914 -0.299489 4.24544e-25)
(0.919042 -0.295984 6.0333e-19)
(0.907208 -0.292622 3.96112e-23)
(0.89502 -0.289161 3.52476e-19)
(0.885834 -0.28629 -1.90336e-19)
(0.88357 -0.285256 -4.00884e-25)
(0.889661 -0.286591 4.41974e-19)
(0.905167 -0.291106 0)
(0.922226 -0.297218 0)
(0.93324 -0.30258 1.36531e-19)
(0.939609 -0.307444 0)
(0.936924 -0.309994 0)
(0.934947 -0.311234 0)
(0.959015 -0.318568 8.64763e-23)
(1.02374 -0.336735 -1.87409e-19)
(1.1414 -0.36938 -9.89633e-20)
(1.33503 -0.424226 -1.03299e-19)
(1.6762 -0.539318 2.08782e-22)
(1.89307 -0.715037 1.10502e-19)
(1.54923 -0.765575 1.13553e-19)
(0.739265 -0.481682 -2.39903e-19)
(-0.00753055 0.0549643 -1.2729e-22)
(-0.1134 0.182412 -1.39293e-19)
(-0.0549875 0.262955 7.18434e-20)
(4.12448 -1.1852 3.35192e-18)
(4.03021 -1.16339 -4.31808e-25)
(3.9367 -1.14144 3.04568e-18)
(3.84405 -1.11938 2.88926e-18)
(3.75216 -1.09721 -2.73021e-18)
(3.66103 -1.07494 -4.6781e-24)
(3.57062 -1.05256 2.40264e-18)
(3.48086 -1.03007 -2.23328e-18)
(3.39184 -1.00751 0)
(3.30373 -0.984943 0)
(3.21666 -0.962405 -3.01063e-24)
(3.13067 -0.939942 -7.54074e-19)
(3.0458 -0.917556 -2.27426e-24)
(2.96211 -0.895277 4.23618e-24)
(2.87966 -0.873136 -2.96786e-24)
(2.79855 -0.851179 0)
(2.71889 -0.829439 -1.02549e-24)
(2.64077 -0.807966 -1.1275e-19)
(2.56429 -0.786787 -2.0124e-25)
(2.48954 -0.76595 0)
(2.41659 -0.745477 -1.26528e-24)
(2.34551 -0.725402 3.11169e-24)
(2.27635 -0.705757 2.76515e-19)
(2.20917 -0.686564 3.52685e-19)
(2.14401 -0.667848 -4.32667e-19)
(2.08092 -0.649632 -5.16777e-19)
(2.01992 -0.63193 -4.86171e-24)
(1.96103 -0.614761 -1.39761e-18)
(1.90426 -0.598133 0)
(1.8496 -0.582055 7.1261e-24)
(1.79705 -0.566533 -7.48233e-24)
(1.74659 -0.551571 0)
(1.69821 -0.53717 0)
(1.65188 -0.523326 -1.0837e-23)
(1.60756 -0.51004 1.14292e-23)
(1.56522 -0.497305 8.40846e-19)
(1.52484 -0.48512 0)
(1.48637 -0.473481 5.04298e-19)
(1.44979 -0.46238 5.50805e-19)
(1.41502 -0.451806 -3.66627e-23)
(1.38207 -0.441759 1.97211e-23)
(1.35102 -0.432258 7.11907e-19)
(1.32186 -0.423325 -2.33705e-23)
(1.29444 -0.414929 -8.40529e-19)
(1.26853 -0.407006 4.56155e-19)
(1.24423 -0.399554 0)
(1.22219 -0.392728 -5.36395e-19)
(1.20306 -0.386754 0)
(1.18675 -0.381717 -3.86361e-23)
(1.1716 -0.377241 4.14867e-23)
(1.15659 -0.372976 -3.67858e-19)
(1.14126 -0.368634 -4.82841e-23)
(1.12953 -0.364996 4.2912e-19)
(1.12604 -0.363542 -2.31412e-19)
(1.1326 -0.364935 -2.4892e-19)
(1.15044 -0.370133 -6.51329e-23)
(1.17044 -0.377354 -7.02539e-23)
(1.18358 -0.383847 -3.27739e-25)
(1.19116 -0.389789 1.64464e-19)
(1.18823 -0.393127 8.5602e-23)
(1.18602 -0.394958 0)
(1.21399 -0.403858 0)
(1.28982 -0.425564 0)
(1.42788 -0.464505 0)
(1.65405 -0.530088 1.15402e-19)
(2.04643 -0.664229 0)
(2.30602 -0.871418 -2.46896e-19)
(1.93525 -0.946084 -2.2087e-22)
(0.985737 -0.62756 1.32425e-19)
(0.0542694 0.0179717 -1.43971e-19)
(-0.125483 0.209623 3.12277e-19)
(-0.0690502 0.362604 1.5461e-22)
(5.09656 -1.46446 -3.69384e-18)
(4.98123 -1.43784 0)
(4.86675 -1.41102 0)
(4.75325 -1.38406 3.19393e-18)
(4.64065 -1.35694 3.0211e-18)
(4.52893 -1.32967 2.84449e-18)
(4.41803 -1.30227 -2.66363e-18)
(4.3079 -1.27472 4.95621e-18)
(4.19863 -1.24707 0)
(4.09043 -1.21939 -2.09089e-18)
(3.98345 -1.19173 7.20183e-24)
(3.87777 -1.16415 8.39519e-19)
(3.77342 -1.13665 -7.31324e-19)
(3.67048 -1.10928 -6.19257e-19)
(3.56904 -1.08206 -5.03024e-19)
(3.46922 -1.05506 3.82305e-19)
(3.37114 -1.02831 -2.56765e-19)
(3.27494 -1.00188 0)
(3.18071 -0.975811 -1.02506e-20)
(3.08859 -0.950145 1.52513e-19)
(2.99867 -0.924924 0)
(2.91101 -0.900185 0)
(2.82571 -0.875966 -2.63435e-24)
(2.74284 -0.852298 2.747e-24)
(2.66244 -0.829215 -1.04791e-24)
(2.58458 -0.806745 5.79894e-19)
(2.50928 -0.784904 4.91207e-24)
(2.43657 -0.763714 7.84701e-19)
(2.36646 -0.743188 0)
(2.29896 -0.723341 5.06728e-19)
(2.23405 -0.704177 5.69093e-19)
(2.17173 -0.685702 9.9687e-24)
(2.11197 -0.667917 7.05649e-19)
(2.05473 -0.650824 1.21868e-23)
(1.99998 -0.634415 -1.28549e-23)
(1.94768 -0.61869 -9.45873e-19)
(1.89779 -0.603641 -5.18551e-19)
(1.85028 -0.589269 -1.70401e-23)
(1.80508 -0.575562 -1.23956e-18)
(1.76214 -0.562506 -2.03528e-23)
(1.72145 -0.550101 0)
(1.68308 -0.538368 8.01201e-19)
(1.64706 -0.527332 0)
(1.61317 -0.516962 9.46003e-19)
(1.58117 -0.507182 -5.13353e-19)
(1.55116 -0.497984 5.56826e-19)
(1.52388 -0.489545 1.20732e-18)
(1.50008 -0.48212 -3.96384e-23)
(1.47966 -0.47582 0)
(1.46075 -0.470232 -3.82898e-19)
(1.44216 -0.464944 4.13953e-19)
(1.42333 -0.459628 -5.43064e-23)
(1.40868 -0.455125 -2.4123e-19)
(1.40353 -0.453127 2.6007e-19)
(1.41011 -0.454445 0)
(1.42974 -0.460168 0)
(1.45226 -0.468393 -3.224e-19)
(1.46736 -0.47601 -1.7261e-19)
(1.47605 -0.483064 2.29528e-25)
(1.47297 -0.487327 0)
(1.47066 -0.489928 0)
(1.50206 -0.500422 2.22908e-19)
(1.58784 -0.525527 -1.14791e-22)
(1.74423 -0.57046 1.20378e-22)
(1.99931 -0.646348 -1.28231e-19)
(2.43396 -0.797493 0)
(2.73277 -1.03385 1.36863e-19)
(2.35263 -1.13783 -1.37172e-19)
(1.2804 -0.797147 -1.44051e-19)
(0.153774 -0.0465222 1.59052e-19)
(-0.129652 0.231654 -3.48816e-19)
(-0.0837023 0.481106 0)
(6.16495 -1.77134 3.96904e-18)
(6.02803 -1.73989 1.50096e-23)
(5.89197 -1.70815 0)
(5.75692 -1.67619 -3.45181e-18)
(5.62282 -1.644 -1.19529e-23)
(5.48963 -1.61161 -3.0853e-18)
(5.35733 -1.57902 0)
(5.22583 -1.54622 -2.6972e-18)
(5.09525 -1.51326 -8.96976e-24)
(4.96582 -1.48022 2.28319e-18)
(4.83774 -1.44718 1.03258e-18)
(4.71112 -1.41419 0)
(4.586 -1.38128 8.02208e-19)
(4.46247 -1.34849 6.80237e-19)
(4.34066 -1.31586 -3.65101e-24)
(4.22072 -1.28345 1.45632e-24)
(4.10278 -1.25134 -2.83151e-19)
(3.98701 -1.21958 1.39157e-19)
(3.87356 -1.18822 2.26635e-20)
(3.76257 -1.15732 2.66477e-24)
(3.65416 -1.12695 0)
(3.54843 -1.09714 4.46055e-24)
(3.44548 -1.06793 -4.65114e-24)
(3.34541 -1.03938 0)
(3.24829 -1.01151 5.39571e-19)
(3.15419 -0.984375 -6.45209e-19)
(3.06314 -0.957987 0)
(2.9752 -0.932371 0)
(2.89037 -0.907554 0)
(2.80867 -0.883545 -5.65282e-19)
(2.73009 -0.860358 -1.27034e-18)
(2.65462 -0.837996 -2.10358e-23)
(2.58224 -0.816467 -7.88374e-19)
(2.5129 -0.79577 0)
(2.44656 -0.775899 -9.62133e-19)
(2.38318 -0.756852 -6.45726e-23)
(2.32273 -0.738625 1.16042e-18)
(2.26515 -0.721214 -6.35025e-19)
(2.21037 -0.70461 6.93838e-19)
(2.15833 -0.688794 -4.55752e-23)
(2.10901 -0.673765 0)
(2.0625 -0.659548 -8.9733e-19)
(2.0188 -0.646167 0)
(1.9777 -0.633596 -1.05969e-18)
(1.9389 -0.621745 1.15022e-18)
(1.90252 -0.610604 5.44577e-25)
(1.86937 -0.600358 -6.76221e-19)
(1.84027 -0.591294 -9.00257e-23)
(1.81515 -0.583551 -1.20714e-24)
(1.79196 -0.576694 4.28772e-19)
(1.76931 -0.570256 -4.63187e-19)
(1.74661 -0.563867 -2.44387e-22)
(1.72864 -0.558391 -1.17961e-24)
(1.72132 -0.555702 2.91419e-19)
(1.72728 -0.556762 3.12802e-19)
(1.74795 -0.562784 -9.59524e-25)
(1.77232 -0.571831 3.60594e-19)
(1.78902 -0.580514 1.9259e-19)
(1.7986 -0.58869 -2.06054e-19)
(1.79548 -0.594023 2.19844e-19)
(1.7932 -0.597599 0)
(1.82742 -0.609691 -2.48235e-19)
(1.92149 -0.637923 -2.60785e-19)
(2.09324 -0.688292 -4.27792e-25)
(2.37219 -0.773642 -2.7563e-22)
(2.83793 -0.939175 0)
(3.16922 -1.20124 -1.50618e-19)
(2.79726 -1.33866 1.4815e-19)
(1.62695 -0.991442 1.5509e-19)
(0.301522 -0.147285 -1.73308e-19)
(-0.120898 0.246257 3.87082e-19)
(-0.0974179 0.615031 -5.58543e-22)
(7.30337 -2.09828 -4.0936e-18)
(7.14636 -2.06252 3.93228e-18)
(6.99004 -2.02633 3.76584e-18)
(6.83462 -1.98981 0)
(6.68004 -1.95296 -3.41613e-18)
(6.52627 -1.91578 0)
(6.37328 -1.87829 -3.04056e-18)
(6.22101 -1.8405 0)
(6.06956 -1.80245 2.63476e-18)
(5.91922 -1.76423 2.419e-18)
(5.77022 -1.72594 -2.1939e-18)
(5.62269 -1.68765 0)
(5.47673 -1.64938 -5.93596e-24)
(5.33243 -1.61119 6.1581e-24)
(5.18995 -1.57312 -5.93711e-19)
(5.04946 -1.53527 -4.5287e-19)
(4.91116 -1.49769 6.10422e-19)
(4.77523 -1.46048 -1.50321e-19)
(4.64186 -1.42369 -1.22688e-20)
(4.51124 -1.3874 -3.66106e-19)
(4.38351 -1.35168 2.12379e-24)
(4.25882 -1.31657 0)
(4.13728 -1.28214 -6.37677e-24)
(4.01903 -1.24845 -4.79819e-19)
(3.90417 -1.21553 0)
(3.79277 -1.18344 1.41375e-18)
(3.68492 -1.15222 -1.20004e-23)
(3.58065 -1.12188 9.60424e-19)
(3.48001 -1.09247 -1.74333e-23)
(3.38302 -1.06399 3.79904e-23)
(3.28968 -1.03647 7.00102e-19)
(3.19999 -1.00992 2.45647e-23)
(3.11392 -0.984341 -2.58902e-23)
(3.03144 -0.959739 0)
(2.95249 -0.93611 1.06421e-18)
(2.87705 -0.913452 3.50533e-23)
(2.80506 -0.891763 4.08454e-23)
(2.73647 -0.871039 7.03696e-19)
(2.67122 -0.85127 7.69261e-19)
(2.6092 -0.832438 -8.39606e-19)
(2.55043 -0.814537 -1.37512e-24)
(2.49497 -0.797596 9.96242e-19)
(2.44283 -0.781643 -1.32234e-22)
(2.39378 -0.766651 1.17696e-18)
(2.34751 -0.752528 -6.38787e-19)
(2.30412 -0.739252 7.56302e-25)
(2.26446 -0.727011 0)
(2.22944 -0.716118 0)
(2.199 -0.706742 -1.08206e-22)
(2.17095 -0.698454 -9.52703e-19)
(2.14379 -0.690734 1.24424e-22)
(2.11683 -0.683177 -1.36364e-22)
(2.09513 -0.676618 1.4577e-22)
(2.08504 -0.673069 -6.46587e-19)
(2.0896 -0.673634 -3.47381e-19)
(2.11025 -0.679647 -1.06388e-24)
(2.13551 -0.689247 1.94394e-22)
(2.15321 -0.698872 2.13251e-19)
(2.1633 -0.708144 2.22237e-22)
(2.16017 -0.714689 -2.36874e-22)
(2.1581 -0.719463 2.51978e-22)
(2.1944 -0.733129 2.73584e-19)
(2.2946 -0.764067 5.73875e-19)
(2.47774 -0.819028 2.9136e-22)
(2.77409 -0.91254 -1.66244e-24)
(3.25812 -1.08941 -1.56228e-19)
(3.61164 -1.37269 1.64241e-19)
(3.26292 -1.54574 -2.29352e-22)
(2.02666 -1.2099 3.2559e-19)
(0.509196 -0.291752 -7.46058e-22)
(-0.0934012 0.249596 -4.23957e-19)
(-0.106027 0.751973 0)
(8.45909 -2.43012 1.57163e-23)
(8.2862 -2.39128 -2.38026e-23)
(8.11365 -2.35185 -3.69896e-18)
(7.94168 -2.31191 -1.40584e-23)
(7.77024 -2.27147 3.38465e-18)
(7.59933 -2.23056 0)
(7.42891 -2.18918 3.03831e-18)
(7.25891 -2.14734 0)
(7.08945 -2.10509 -1.99745e-23)
(6.92084 -2.06253 -2.44745e-18)
(6.75336 -2.01977 1.11435e-18)
(6.58718 -1.97689 0)
(6.4224 -1.93393 -8.77069e-19)
(6.25917 -1.89094 -1.24203e-24)
(6.09766 -1.848 6.1249e-19)
(5.93808 -1.80519 -4.68885e-19)
(5.78067 -1.76259 -3.17136e-19)
(5.62566 -1.72031 0)
(5.47329 -1.67842 -7.62178e-25)
(5.32377 -1.63702 1.92119e-19)
(5.17731 -1.59616 3.59091e-24)
(5.03407 -1.55595 -3.75895e-24)
(4.89423 -1.51643 0)
(4.75796 -1.47769 5.09506e-19)
(4.62538 -1.43978 0)
(4.49662 -1.40277 3.79079e-24)
(4.37178 -1.36669 0)
(4.25093 -1.33159 -1.02977e-18)
(4.13415 -1.29751 0)
(4.02147 -1.26448 0)
(3.91292 -1.23252 -7.55164e-19)
(3.8085 -1.20165 0)
(3.70821 -1.17189 9.42236e-19)
(3.61202 -1.14323 -1.04523e-18)
(3.51988 -1.11569 7.05048e-23)
(3.43176 -1.08925 1.48561e-24)
(3.34762 -1.06393 -4.05493e-23)
(3.26742 -1.03972 4.75344e-23)
(3.19106 -1.01661 -1.67757e-18)
(3.11847 -0.994586 9.16211e-19)
(3.04964 -0.973643 9.99429e-19)
(2.98463 -0.953807 -1.08868e-18)
(2.92348 -0.935111 -1.44611e-22)
(2.86592 -0.917535 7.8831e-23)
(2.81163 -0.900983 0)
(2.76071 -0.885422 -7.58986e-19)
(2.71403 -0.871034 -1.49757e-24)
(2.67254 -0.858149 1.08096e-22)
(2.63621 -0.846971 0)
(2.60278 -0.837103 1.04378e-18)
(2.57066 -0.827986 5.63881e-19)
(2.53912 -0.819187 -1.49352e-22)
(2.51331 -0.81145 1.59627e-22)
(2.49983 -0.806857 3.53909e-19)
(2.50204 -0.806646 0)
(2.5214 -0.812259 -4.07459e-19)
(2.54624 -0.822052 2.13457e-22)
(2.56404 -0.832415 1.92803e-24)
(2.5741 -0.842714 -2.42481e-22)
(2.57089 -0.850603 -2.64997e-19)
(2.56916 -0.856801 2.8131e-19)
(2.60669 -0.871975 -2.96321e-19)
(2.71037 -0.905037 -6.07968e-22)
(2.89999 -0.963445 3.13885e-22)
(3.20598 -1.06334 -1.63605e-19)
(3.69466 -1.24825 1.65719e-19)
(4.05719 -1.54752 -6.82012e-22)
(3.74168 -1.75573 -1.64709e-19)
(2.47756 -1.45014 -6.66915e-19)
(0.786392 -0.483689 1.91921e-19)
(-0.0383789 0.234966 2.27629e-19)
(-0.100806 0.873306 8.58103e-22)
(9.55997 -2.74613 0)
(9.37735 -2.70592 -3.52195e-18)
(9.19465 -2.66493 0)
(9.0121 -2.62325 3.27858e-18)
(8.82967 -2.5809 -3.14518e-18)
(8.64735 -2.53789 -2.39373e-23)
(8.46509 -2.49424 -2.07035e-23)
(8.28282 -2.44994 2.68962e-18)
(8.10066 -2.40505 -2.51664e-18)
(7.91892 -2.35967 -1.66709e-23)
(7.73791 -2.31392 -1.06695e-18)
(7.55783 -2.26788 -9.61288e-19)
(7.37879 -2.2216 8.16946e-24)
(7.20097 -2.17514 9.88886e-24)
(7.02455 -2.12858 -5.98249e-19)
(6.84978 -2.082 4.60215e-19)
(6.67693 -2.03553 3.49335e-24)
(6.50627 -1.98924 -2.5958e-24)
(6.33807 -1.94326 -1.27968e-20)
(6.17261 -1.89766 0)
(6.01011 -1.85255 0)
(5.85081 -1.80801 1.03449e-23)
(5.69492 -1.76414 -2.45622e-23)
(5.54265 -1.72101 1.43986e-23)
(5.39418 -1.67871 -6.41639e-19)
(5.24967 -1.6373 -7.73149e-19)
(5.10926 -1.59684 -2.64088e-23)
(4.97308 -1.5574 0)
(4.84122 -1.51903 1.2221e-18)
(4.71376 -1.48176 -4.3989e-23)
(4.59076 -1.44563 7.86767e-19)
(4.47225 -1.41067 -5.23933e-23)
(4.35825 -1.3769 -9.86798e-19)
(4.24876 -1.34435 -1.37684e-22)
(4.14374 -1.31301 1.48391e-22)
(4.04317 -1.28289 -1.63839e-22)
(3.94704 -1.25401 1.82477e-22)
(3.8553 -1.22636 -9.74806e-23)
(3.76788 -1.19994 8.89535e-19)
(3.68469 -1.17475 9.72926e-19)
(3.60574 -1.15076 -2.12565e-18)
(3.5311 -1.12801 -1.15927e-18)
(3.46079 -1.10655 0)
(3.39457 -1.08635 -6.8723e-19)
(3.3321 -1.06734 -3.21015e-24)
(3.27347 -1.04945 1.96397e-22)
(3.21955 -1.03286 -2.16437e-22)
(3.17131 -1.0179 2.31297e-22)
(3.12872 -1.00483 0)
(3.08958 -0.993291 -5.58668e-19)
(3.05224 -0.982721 -2.96292e-22)
(3.01595 -0.972659 -6.51618e-19)
(2.98579 -0.963689 -3.50804e-19)
(2.96836 -0.957892 -3.68404e-22)
(2.96723 -0.956601 4.06301e-19)
(2.98383 -0.961377 4.36107e-19)
(3.00672 -0.970931 0)
(3.02348 -0.98176 -2.48924e-19)
(3.03276 -0.992978 -5.19563e-22)
(3.02931 -1.00232 -2.82457e-19)
(3.02797 -1.01015 -5.97833e-19)
(3.06575 -1.02671 0)
(3.16986 -1.06115 -3.28393e-19)
(3.36027 -1.12159 1.69504e-19)
(3.66707 -1.22569 3.40507e-19)
(4.14693 -1.41531 0)
(4.50385 -1.72518 1.84196e-19)
(4.22482 -1.9653 0)
(2.97301 -1.70906 6.66325e-19)
(1.13887 -0.725734 -3.85195e-19)
(0.0569191 0.190402 -1.87049e-21)
(-0.0780279 0.963742 9.01648e-22)
(10.5418 -3.02784 0)
(10.3551 -2.98773 -2.24035e-23)
(10.168 -2.94671 2.33745e-23)
(9.98076 -2.90487 -2.85637e-18)
(9.79328 -2.86221 3.96318e-23)
(9.60554 -2.81875 0)
(9.41748 -2.7745 0)
(9.22902 -2.72944 -2.38396e-18)
(9.04024 -2.68363 2.24092e-18)
(8.85148 -2.63717 1.4915e-23)
(8.66303 -2.59017 -5.18687e-24)
(8.47507 -2.54271 8.6845e-19)
(8.28775 -2.49486 1.54032e-18)
(8.10123 -2.44666 1.12273e-23)
(7.9157 -2.39818 5.48729e-19)
(7.73141 -2.34954 -2.31067e-24)
(7.54865 -2.30084 -5.60198e-24)
(7.36772 -2.25217 0)
(7.1889 -2.20366 1.19827e-20)
(7.01249 -2.1554 4.02422e-24)
(6.83877 -2.1075 -4.25014e-24)
(6.66799 -2.06006 0)
(6.50041 -2.01317 0)
(6.33626 -1.96694 0)
(6.17577 -1.92145 6.19337e-19)
(6.01916 -1.87678 -2.14773e-23)
(5.86659 -1.83303 0)
(5.71824 -1.79025 0)
(5.57424 -1.74851 -1.20115e-18)
(5.43471 -1.70786 0)
(5.29976 -1.66836 -7.79564e-19)
(5.16944 -1.63005 1.07273e-22)
(5.04382 -1.59295 -5.85947e-23)
(4.92291 -1.55711 2.19865e-18)
(4.80672 -1.52254 -7.61361e-23)
(4.69527 -1.48925 8.10069e-23)
(4.58854 -1.45727 -7.47024e-19)
(4.48652 -1.4266 0)
(4.38916 -1.39724 9.04057e-19)
(4.29638 -1.3692 -9.91454e-19)
(4.2082 -1.34247 1.08511e-18)
(4.12471 -1.31708 1.18573e-18)
(4.04593 -1.29308 0)
(3.97164 -1.27048 1.73788e-22)
(3.90152 -1.24918 -1.85724e-22)
(3.83565 -1.22913 -2.05378e-22)
(3.77485 -1.21047 2.19633e-22)
(3.7201 -1.19353 0)
(3.67139 -1.17861 0)
(3.62663 -1.16546 0)
(3.58419 -1.1535 6.23382e-19)
(3.54331 -1.14226 3.28133e-22)
(3.50885 -1.1321 3.63067e-19)
(3.48715 -1.12501 -3.80656e-22)
(3.48187 -1.12239 -2.16444e-25)
(3.49438 -1.12593 0)
(3.51381 -1.13483 -4.81732e-19)
(3.52832 -1.14584 -5.03436e-22)
(3.53606 -1.15786 -2.73632e-19)
(3.53212 -1.16875 2.91832e-19)
(3.53107 -1.17835 3.06587e-19)
(3.56798 -1.1961 -1.60025e-24)
(3.66923 -1.23106 6.53628e-22)
(3.85441 -1.29198 -2.04896e-24)
(4.15283 -1.39788 -1.72368e-19)
(4.61158 -1.58912 -6.69951e-22)
(4.94929 -1.90472 8.70599e-22)
(4.7039 -2.17127 1.33024e-21)
(3.50198 -1.97727 -6.48604e-19)
(1.56753 -1.01216 3.73289e-19)
(0.208948 0.0992682 0)
(-0.0316521 1.01026 -9.2535e-22)
(11.5629 -3.30533 -1.97413e-23)
(11.3764 -3.26717 -2.61123e-18)
(11.1888 -3.22789 1.87287e-23)
(11.0007 -3.18763 -1.95782e-23)
(10.8123 -3.14648 1.75673e-23)
(10.6235 -3.10445 2.31464e-18)
(10.4343 -3.06152 -2.22482e-18)
(10.2445 -3.01772 0)
(10.0541 -2.97302 0)
(9.86321 -2.92747 -1.90524e-18)
(9.67203 -2.88116 1.77899e-18)
(9.48089 -2.83422 8.20661e-19)
(9.28998 -2.78671 0)
(9.09941 -2.73868 -1.32699e-18)
(8.90933 -2.69019 0)
(8.71992 -2.6413 0)
(8.53143 -2.59212 -4.63258e-24)
(8.34413 -2.54274 7.73491e-24)
(8.15832 -2.49328 -1.27106e-19)
(7.9743 -2.44384 0)
(7.79236 -2.39452 3.56803e-24)
(7.61278 -2.34543 -3.78544e-24)
(7.43584 -2.29667 0)
(7.26179 -2.24835 0)
(7.0909 -2.20057 -4.49523e-19)