/*--------------------------------*- C++ -*----------------------------------*\
| =========                 |                                                 |
| \\      /  F ield         | OpenFOAM: The Open Source CFD Toolbox           |
|  \\    /   O peration     | Version:  2412                                  |
|   \\  /    A nd           | Website:  www.openfoam.com                      |
|    \\/     M anipulation  |                                                 |
\*---------------------------------------------------------------------------*/
FoamFile
{
    version     2.0;
    format      ascii;
    arch        "LSB;label=32;scalar=64";
    class       surfaceScalarField;
    location    "280";
    object      phi;
}
// * * * * * * * * * * * * * * * * * * * * * * * * * * * * * * * * * * * * * //

dimensions      [0 3 -1 0 0 0 0];

oriented        oriented;

internalField   nonuniform List<scalar> 
17125
(
-2.13024e-06
-2.01676e-07
-1.81089e-06
-3.19367e-07
-1.28555e-06
-5.25307e-07
-4.17735e-07
-8.6786e-07
9.3052e-07
-1.34813e-06
3.09163e-06
-2.16127e-06
5.9461e-06
-2.85569e-06
8.44446e-06
-2.49712e-06
9.70886e-06
-1.26521e-06
9.47929e-06
2.30394e-07
8.10931e-06
1.37052e-06
6.45271e-06
1.65612e-06
5.13419e-06
1.32018e-06
4.26807e-06
8.64414e-07
3.70594e-06
5.63666e-07
3.32225e-06
3.82217e-07
3.04519e-06
2.7886e-07
2.83731e-06
2.06127e-07
2.6791e-06
1.59757e-07
2.55736e-06
1.20225e-07
2.46328e-06
9.40864e-08
2.39114e-06
7.21325e-08
2.33677e-06
5.43701e-08
2.29672e-06
4.00648e-08
2.26829e-06
2.84537e-08
2.24926e-06
1.90357e-08
2.23756e-06
1.17021e-08
2.23178e-06
5.8035e-09
2.23056e-06
1.23796e-09
2.233e-06
-2.41911e-09
2.23838e-06
-5.36148e-09
2.24533e-06
-6.93411e-09
2.25336e-06
-7.99675e-09
2.26187e-06
-8.48742e-09
2.2705e-06
-8.61722e-09
2.27911e-06
-8.22056e-09
2.28751e-06
-8.70329e-09
2.29581e-06
-8.07286e-09
2.30385e-06
-8.20599e-09
2.31099e-06
-6.90509e-09
2.31744e-06
-6.64032e-09
2.32331e-06
-5.86689e-09
2.32884e-06
-5.50032e-09
2.33409e-06
-5.11152e-09
2.33912e-06
-5.06739e-09
2.34367e-06
-4.4673e-09
2.34749e-06
-3.84106e-09
2.35067e-06
-2.99902e-09
2.35345e-06
-2.87756e-09
2.3559e-06
-2.31796e-09
2.35816e-06
-2.3406e-09
2.36018e-06
-1.90128e-09
2.3621e-06
-1.98702e-09
2.36411e-06
-1.99682e-09
2.36591e-06
-1.76603e-09
2.3674e-06
-1.4666e-09
2.36867e-06
-1.24347e-09
2.36969e-06
-1.06495e-09
2.37057e-06
-7.80045e-10
2.37138e-06
-8.03348e-10
2.37211e-06
-6.91219e-10
2.37281e-06
-6.54972e-10
2.37353e-06
-7.18409e-10
2.3742e-06
-6.05545e-10
2.37489e-06
-6.7413e-10
2.37564e-06
-7.26223e-10
2.37638e-06
-6.82996e-10
2.37701e-06
-5.65443e-10
2.37764e-06
-6.25328e-10
2.37814e-06
-4.61001e-10
2.37866e-06
-5.07994e-10
2.37922e-06
-5.41991e-10
2.37962e-06
-3.43606e-10
2.38013e-06
-5.19803e-10
2.3806e-06
-4.24746e-10
2.38101e-06
-4.07618e-10
2.38147e-06
-3.87984e-10
2.38189e-06
-4.45362e-10
2.38227e-06
-3.14004e-10
2.38272e-06
-4.64179e-10
2.38311e-06
-2.80681e-10
2.3835e-06
-4.69638e-10
2.38389e-06
-3.06476e-10
2.38426e-06
-5.13065e-10
2.38457e-06
-5.92816e-11
-2.64199e-10
-7.4007e-06
-9.16057e-07
-6.2794e-06
-1.44069e-06
-4.45174e-06
-2.35292e-06
-1.46045e-06
-3.85921e-06
3.1461e-06
-5.95453e-06
1.04758e-05
-9.49123e-06
2.01178e-05
-1.24992e-05
2.86723e-05
-1.10501e-05
3.32005e-05
-5.79449e-06
3.28037e-05
6.28277e-07
2.8493e-05
5.68203e-06
2.29868e-05
7.16159e-06
1.84435e-05
5.86571e-06
1.53849e-05
3.92075e-06
1.33707e-05
2.57985e-06
1.19837e-05
1.76734e-06
1.09742e-05
1.29066e-06
1.02103e-05
9.67735e-07
9.62379e-06
7.48293e-07
9.1682e-06
5.73878e-07
8.81206e-06
4.50218e-07
8.53588e-06
3.48307e-07
8.3241e-06
2.66163e-07
8.16521e-06
1.98966e-07
8.0493e-06
1.44396e-07
7.96847e-06
9.98735e-08
7.91521e-06
6.49759e-08
7.88423e-06
3.68054e-08
7.87135e-06
1.41554e-08
7.87273e-06
-3.77716e-09
7.88493e-06
-1.75255e-08
7.90429e-06
-2.6271e-08
7.92806e-06
-3.17183e-08
7.95474e-06
-3.51344e-08
7.98263e-06
-3.6485e-08
8.01058e-06
-3.56776e-08
8.03871e-06
-3.72175e-08
8.06709e-06
-3.61485e-08
8.09434e-06
-3.56686e-08
8.11931e-06
-3.15801e-08
8.14174e-06
-2.92979e-08
8.16266e-06
-2.67763e-08
8.18204e-06
-2.48405e-08
8.20068e-06
-2.35724e-08
8.21868e-06
-2.30982e-08
8.23518e-06
-2.08718e-08
8.24912e-06
-1.78052e-08
8.26067e-06
-1.43004e-08
8.27071e-06
-1.30356e-08
8.27984e-06
-1.12739e-08
8.28793e-06
-1.0534e-08
8.29537e-06
-9.17147e-09
8.30277e-06
-9.4754e-09
8.30996e-06
-9.15912e-09
8.31668e-06
-8.45067e-09
8.3224e-06
-7.14508e-09
8.32702e-06
-5.81897e-09
8.33088e-06
-4.99095e-09
8.33432e-06
-4.08533e-09
8.33741e-06
-3.87895e-09
8.3404e-06
-3.63117e-09
8.343e-06
-3.18228e-09
8.34557e-06
-3.28679e-09
8.34814e-06
-3.08391e-09
8.35106e-06
-3.58106e-09
8.35375e-06
-3.37332e-09
8.35645e-06
-3.31009e-09
8.35928e-06
-3.30115e-09
8.36121e-06
-2.54207e-09
8.36348e-06
-2.67436e-09
8.36549e-06
-2.50025e-09
8.36722e-06
-2.24393e-09
8.3693e-06
-2.3518e-09
8.371e-06
-2.22551e-09
8.37282e-06
-2.1905e-09
8.37445e-06
-2.02401e-09
8.37611e-06
-1.95393e-09
8.37762e-06
-1.97294e-09
8.37927e-06
-1.88343e-09
8.38082e-06
-2.0201e-09
8.38245e-06
-1.76482e-09
8.38416e-06
-2.273e-09
8.38559e-06
-1.64529e-09
8.38699e-06
-2.06671e-09
8.38842e-06
-1.17354e-09
-1.44559e-09
-1.44778e-05
-2.34693e-06
-1.22501e-05
-3.66842e-06
-8.65023e-06
-5.95272e-06
-2.81108e-06
-9.69843e-06
6.10454e-06
-1.487e-05
2.01826e-05
-2.35695e-05
3.86501e-05
-3.09683e-05
5.52194e-05
-2.76177e-05
6.43525e-05
-1.49287e-05
6.42916e-05
6.90296e-07
5.66535e-05
1.33208e-05
4.63187e-05
1.74957e-05
3.74735e-05
1.47132e-05
3.13668e-05
1.00251e-05
2.72871e-05
6.66167e-06
2.44514e-05
4.60109e-06
2.2371e-05
3.37348e-06
2.07836e-05
2.55278e-06
1.95517e-05
1.98233e-06
1.85846e-05
1.53885e-06
1.78202e-05
1.21463e-06
1.7218e-05
9.50527e-07
1.67493e-05
7.34832e-07
1.63892e-05
5.59073e-07
1.61193e-05
4.14367e-07
1.59237e-05
2.95454e-07
1.57873e-05
2.01403e-07
1.56993e-05
1.24825e-07
1.56505e-05
6.30194e-08
1.56332e-05
1.35235e-08
1.56416e-05
-2.58485e-08
1.56664e-05
-5.10792e-08
1.57032e-05
-6.84294e-08
1.57473e-05
-7.92638e-08
1.57956e-05
-8.47214e-08
1.58464e-05
-8.60171e-08
1.58985e-05
-8.96571e-08
1.59519e-05
-8.92308e-08
1.60045e-05
-8.84724e-08
1.6053e-05
-7.98501e-08
1.60978e-05
-7.42768e-08
1.61391e-05
-6.81199e-08
1.61785e-05
-6.41617e-08
1.62166e-05
-6.14928e-08
1.62534e-05
-5.99603e-08
1.62872e-05
-5.44946e-08
1.63157e-05
-4.64038e-08
1.63403e-05
-3.8636e-08
1.63619e-05
-3.47307e-08
1.63808e-05
-2.99853e-08
1.63983e-05
-2.81344e-08
1.64145e-05
-2.51628e-08
1.64299e-05
-2.50424e-08
1.64458e-05
-2.50076e-08
1.64603e-05
-2.28937e-08
1.64725e-05
-1.93231e-08
1.64825e-05
-1.58051e-08
1.64911e-05
-1.35705e-08
1.64987e-05
-1.1579e-08
1.65056e-05
-1.08073e-08
1.65119e-05
-9.83948e-09
1.65182e-05
-9.41227e-09
1.6524e-05
-9.11939e-09
1.65299e-05
-8.82868e-09
1.6536e-05
-9.6782e-09
1.65424e-05
-9.74243e-09
1.65487e-05
-9.47476e-09
1.65542e-05
-8.72296e-09
1.65596e-05
-7.95338e-09
1.65643e-05
-7.28107e-09
1.65688e-05
-6.97618e-09
1.65732e-05
-6.61122e-09
1.6577e-05
-6.13822e-09
1.65812e-05
-6.38772e-09
1.65849e-05
-5.87839e-09
1.65891e-05
-6.19217e-09
1.65926e-05
-5.35478e-09
1.65962e-05
-5.61102e-09
1.66e-05
-5.58458e-09
1.66037e-05
-5.69142e-09
1.66073e-05
-5.1829e-09
1.66104e-05
-5.55283e-09
1.66141e-05
-5.20221e-09
1.66173e-05
-5.43055e-09
1.66201e-05
-3.63646e-09
-4.81393e-09
-2.36998e-05
-4.76381e-06
-1.99701e-05
-7.39821e-06
-1.40004e-05
-1.19224e-05
-4.41293e-06
-1.92859e-05
1.00847e-05
-2.93675e-05
3.27657e-05
-4.62507e-05
6.24286e-05
-6.06328e-05
8.93131e-05
-5.45006e-05
0.000104741
-3.03574e-05
0.00010587
-4.37519e-07
9.47866e-05
2.44046e-05
7.86928e-05
3.35889e-05
6.43014e-05
2.91068e-05
5.40559e-05
2.02682e-05
4.70924e-05
1.36273e-05
4.21985e-05
9.49298e-06
3.85748e-05
6.99955e-06
3.5781e-05
5.34422e-06
3.35868e-05
4.17865e-06
3.18415e-05
3.28208e-06
3.04418e-05
2.61437e-06
2.93207e-05
2.07165e-06
2.84291e-05
1.6264e-06
2.77292e-05
1.25902e-06
2.71886e-05
9.55004e-07
2.67802e-05
7.03837e-07
2.64811e-05
5.00545e-07
2.6271e-05
3.34982e-07
2.61353e-05
1.98747e-07
2.606e-05
8.87901e-08
2.60334e-05
8.48568e-10
2.60424e-05
-6.00204e-08
2.60761e-05
-1.02138e-07
2.61284e-05
-1.31492e-07
2.61921e-05
-1.48411e-07
2.62635e-05
-1.56867e-07
2.6341e-05
-1.67523e-07
2.64235e-05
-1.71432e-07
2.65068e-05
-1.72015e-07
2.65853e-05
-1.58067e-07
2.66583e-05
-1.47492e-07
2.6728e-05
-1.37822e-07
2.6795e-05
-1.31055e-07
2.686e-05
-1.26335e-07
2.69243e-05
-1.24273e-07
2.69834e-05
-1.1344e-07
2.70347e-05
-9.77206e-08
2.70782e-05
-8.19651e-08
2.71169e-05
-7.34355e-08
2.71518e-05
-6.47957e-08
2.71838e-05
-6.0212e-08
2.72135e-05
-5.46669e-08
2.72423e-05
-5.3879e-08
2.72709e-05
-5.36549e-08
2.72979e-05
-4.97581e-08
2.73207e-05
-4.20745e-08
2.734e-05
-3.51166e-08
2.73563e-05
-2.98528e-08
2.73706e-05
-2.57706e-08
2.73841e-05
-2.42637e-08
2.73971e-05
-2.28108e-08
2.74085e-05
-2.07251e-08
2.74198e-05
-2.03969e-08
2.74309e-05
-1.98248e-08
2.74428e-05
-2.15972e-08
2.74556e-05
-2.2497e-08
2.74676e-05
-2.13198e-08
2.74783e-05
-1.93778e-08
2.74884e-05
-1.80413e-08
2.74977e-05
-1.64743e-08
2.75066e-05
-1.58934e-08
2.7515e-05
-1.49179e-08
2.75232e-05
-1.42829e-08
2.75312e-05
-1.43431e-08
2.75388e-05
-1.34465e-08
2.75463e-05
-1.36852e-08
2.75529e-05
-1.18699e-08
2.756e-05
-1.27002e-08
2.75669e-05
-1.24198e-08
2.75741e-05
-1.28183e-08
2.75812e-05
-1.21802e-08
2.75881e-05
-1.25617e-08
2.7594e-05
-1.09929e-08
2.76004e-05
-1.1997e-08
2.76066e-05
-9.41859e-09
-1.06244e-08
-3.54127e-05
-8.5181e-06
-2.96732e-05
-1.31377e-05
-2.05819e-05
-2.10137e-05
-6.14371e-06
-3.37242e-05
1.54466e-05
-5.09576e-05
4.88473e-05
-7.96516e-05
9.23389e-05
-0.000104126
0.000132093
-9.42533e-05
0.000155761
-5.40261e-05
0.000159246
-3.92222e-06
0.000144981
3.86703e-05
0.000122475
5.60948e-05
0.000101317
5.02664e-05
8.56987e-05
3.58846e-05
7.48536e-05
2.44743e-05
6.71239e-05
1.72208e-05
6.13355e-05
1.27902e-05
5.682e-05
9.85752e-06
5.32253e-05
7.77533e-06
5.03226e-05
6.18283e-06
4.79555e-05
4.98146e-06
4.60241e-05
4.00307e-06
4.44568e-05
3.19368e-06
4.31943e-05
2.52152e-06
4.21903e-05
1.95903e-06
4.14065e-05
1.48773e-06
4.08043e-05
1.10276e-06
4.03556e-05
7.83659e-07
4.00354e-05
5.18972e-07
3.98235e-05
3.00723e-07
3.97008e-05
1.23576e-07
3.96444e-05
-3.56874e-09
3.96372e-05
-9.48259e-08
3.96697e-05
-1.63951e-07
3.97302e-05
-2.0895e-07
3.98102e-05
-2.36354e-07
3.99057e-05
-2.63394e-07
4.00155e-05
-2.80868e-07
4.01311e-05
-2.87796e-07
4.0244e-05
-2.70702e-07
4.03532e-05
-2.56884e-07
4.04585e-05
-2.43153e-07
4.05616e-05
-2.34107e-07
4.06648e-05
-2.2936e-07
4.07667e-05
-2.26177e-07
4.08625e-05
-2.09081e-07
4.09457e-05
-1.8095e-07
4.10186e-05
-1.54655e-07
4.10839e-05
-1.38783e-07
4.1143e-05
-1.23757e-07
4.11978e-05
-1.15079e-07
4.12485e-05
-1.05216e-07
4.12985e-05
-1.03952e-07
4.13483e-05
-1.03372e-07
4.13944e-05
-9.57965e-08
4.1434e-05
-8.169e-08
4.14673e-05
-6.83111e-08
4.14965e-05
-5.91488e-08
4.15227e-05
-5.17809e-08
4.15466e-05
-4.81441e-08
4.15684e-05
-4.46112e-08
4.159e-05
-4.22663e-08
4.16104e-05
-4.07357e-08
4.16312e-05
-4.05185e-08
4.16527e-05
-4.30927e-08
4.16754e-05
-4.51606e-08
4.1697e-05
-4.28141e-08
4.1717e-05
-3.92784e-08
4.17349e-05
-3.5903e-08
4.17515e-05
-3.30219e-08
4.17674e-05
-3.17421e-08
4.17825e-05
-3.00123e-08
4.17969e-05
-2.85833e-08
4.18113e-05
-2.87562e-08
4.18251e-05
-2.71249e-08
4.1838e-05
-2.65943e-08
4.1852e-05
-2.57489e-08
4.18644e-05
-2.51297e-08
4.18769e-05
-2.48498e-08
4.18891e-05
-2.49748e-08
4.19018e-05
-2.47505e-08
4.19137e-05
-2.45178e-08
4.19262e-05
-2.3382e-08
4.19374e-05
-2.33268e-08
4.19479e-05
-1.96171e-08
-2.1967e-08
-4.99499e-05
-1.40622e-05
-4.1556e-05
-2.15316e-05
-2.84129e-05
-3.41568e-05
-7.79848e-06
-5.43386e-05
2.26356e-05
-8.13916e-05
6.90854e-05
-0.000126102
0.000129188
-0.00016423
0.000184479
-0.000149543
0.000218387
-8.7935e-05
0.000225409
-1.09429e-05
0.000208385
5.56953e-05
0.000179194
8.52849e-05
0.000150453
7.9009e-05
0.000128424
5.79122e-05
0.000112728
4.01718e-05
0.00010134
2.86071e-05
9.26862e-05
2.14462e-05
8.58421e-05
1.66994e-05
8.03064e-05
1.33129e-05
7.57609e-05
1.07264e-05
7.1989e-05
8.75339e-06
6.88502e-05
7.14188e-06
6.62457e-05
5.79816e-06
6.40968e-05
4.67044e-06
6.23424e-05
3.71344e-06
6.09268e-05
2.90338e-06
5.97996e-05
2.22996e-06
5.89186e-05
1.66476e-06
5.82499e-05
1.18766e-06
5.77615e-05
7.89155e-07
5.74262e-05
4.58986e-07
5.72104e-05
2.122e-07
5.70892e-05
2.65046e-08
5.70431e-05
-1.17803e-07
5.70542e-05
-2.20015e-07
5.711e-05
-2.91642e-07
5.72014e-05
-3.55178e-07
5.73241e-05
-4.03299e-07
5.7466e-05
-4.29813e-07
5.7612e-05
-4.16411e-07
5.77586e-05
-4.03725e-07
5.79074e-05
-3.91887e-07
5.80567e-05
-3.83329e-07
5.82091e-05
-3.81642e-07
5.83622e-05
-3.79268e-07
5.85079e-05
-3.5463e-07
5.86386e-05
-3.11687e-07
5.87542e-05
-2.69953e-07
5.88578e-05
-2.42508e-07
5.89543e-05
-2.20022e-07
5.90428e-05
-2.03648e-07
5.91274e-05
-1.89704e-07
5.92091e-05
-1.85654e-07
5.92902e-05
-1.84465e-07
5.93667e-05
-1.72254e-07
5.94328e-05
-1.47706e-07
5.94889e-05
-1.24334e-07
5.95382e-05
-1.08488e-07
5.95824e-05
-9.58329e-08
5.96234e-05
-8.9113e-08
5.96624e-05
-8.35705e-08
5.96978e-05
-7.75776e-08
5.97331e-05
-7.5976e-08
5.97687e-05
-7.60436e-08
5.98064e-05
-8.06937e-08
5.98447e-05
-8.34715e-08
5.98822e-05
-8.01951e-08
5.99163e-05
-7.32645e-08
5.99475e-05
-6.70543e-08
5.9976e-05
-6.14347e-08
6.00035e-05
-5.92572e-08
6.00293e-05
-5.56854e-08
6.00548e-05
-5.3965e-08
6.00786e-05
-5.25723e-08
6.01023e-05
-5.08389e-08
6.01252e-05
-4.9394e-08
6.0147e-05
-4.74481e-08
6.01683e-05
-4.64434e-08
6.01905e-05
-4.69037e-08
6.0213e-05
-4.74354e-08
6.02342e-05
-4.58196e-08
6.02559e-05
-4.62911e-08
6.02765e-05
-4.38908e-08
6.02955e-05
-4.2449e-08
6.0314e-05
-3.77825e-08
-4.12417e-08
-6.76037e-05
-2.1972e-05
-5.5751e-05
-3.33843e-05
-3.74242e-05
-5.24836e-05
-9.07347e-06
-8.26894e-05
3.21788e-05
-0.000122644
9.41317e-05
-0.000188055
0.000173635
-0.000243735
0.000247125
-0.000223032
0.000293159
-0.00013397
0.000304516
-2.22994e-05
0.000284703
7.5509e-05
0.000248472
0.000121516
0.000211782
0.0001157
0.000182944
8.6749e-05
0.000161917
6.12005e-05
0.000146351
4.41713e-05
0.000134313
3.34864e-05
0.000124626
2.63837e-05
0.00011665
2.12907e-05
0.000109977
1.73978e-05
0.00010433
1.44011e-05
9.95323e-05
1.19391e-05
9.54604e-05
9.87013e-06
9.20202e-05
8.11063e-06
8.91336e-05
6.60003e-06
8.67391e-05
5.29788e-06
8.47687e-05
4.20046e-06
8.31723e-05
3.26117e-06
8.19024e-05
2.45763e-06
8.09181e-05
1.77347e-06
8.01811e-05
1.19597e-06
7.96444e-05
7.4895e-07
7.92747e-05
3.96283e-07
7.90401e-05
1.16858e-07
7.8915e-05
-9.49009e-08
7.88764e-05
-2.52604e-07
7.89112e-05
-3.9028e-07
7.901e-05
-5.01795e-07
7.91533e-05
-5.73245e-07
7.93179e-05
-5.80774e-07
7.94972e-05
-5.83174e-07
7.96883e-05
-5.82985e-07
7.98899e-05
-5.84824e-07
8.01006e-05
-5.9218e-07
8.03194e-05
-5.98051e-07
8.05324e-05
-5.67509e-07
8.07261e-05
-5.05367e-07
8.09011e-05
-4.44704e-07
8.10627e-05
-4.04157e-07
8.12125e-05
-3.69743e-07
8.13533e-05
-3.44497e-07
8.14862e-05
-3.22407e-07
8.16164e-05
-3.15873e-07
8.17458e-05
-3.13825e-07
8.18662e-05
-2.92645e-07
8.19719e-05
-2.53312e-07
8.20637e-05
-2.16078e-07
8.2144e-05
-1.88858e-07
8.22171e-05
-1.68747e-07
8.22842e-05
-1.56217e-07
8.23476e-05
-1.46867e-07
8.24079e-05
-1.37864e-07
8.24663e-05
-1.34314e-07
8.2525e-05
-1.34631e-07
8.25875e-05
-1.43184e-07
8.26507e-05
-1.46557e-07
8.27123e-05
-1.41671e-07
8.27679e-05
-1.28845e-07
8.28193e-05
-1.18395e-07
8.28676e-05
-1.09676e-07
8.29122e-05
-1.03746e-07
8.29556e-05
-9.91155e-08
8.29966e-05
-9.48232e-08
8.30373e-05
-9.32468e-08
8.30761e-05
-8.95981e-08
8.31142e-05
-8.74189e-08
8.31496e-05
-8.27656e-08
8.31861e-05
-8.28952e-08
8.32208e-05
-8.15821e-08
8.32579e-05
-8.44582e-08
8.32942e-05
-8.19299e-08
8.33291e-05
-8.13072e-08
8.33635e-05
-7.81974e-08
8.33973e-05
-7.63546e-08
8.34269e-05
-6.71022e-08
-7.43746e-08
-8.85962e-05
-3.29678e-05
-7.22947e-05
-4.96858e-05
-4.74321e-05
-7.73461e-05
-9.55791e-06
-0.000120564
4.46633e-05
-0.000176865
0.000124582
-0.000267974
0.00022615
-0.000345304
0.000320486
-0.000317366
0.000380465
-0.00019395
0.000396527
-3.83605e-05
0.000373145
9.88913e-05
0.00032875
0.000165911
0.000283443
0.000161008
0.000247662
0.000122528
0.000221409
8.74552e-05
0.000201753
6.3826e-05
0.000186329
4.89116e-05
0.000173713
3.89982e-05
0.00016313
3.1875e-05
0.000154102
2.64248e-05
0.000146302
2.22015e-05
0.000139524
1.87166e-05
0.000133635
1.57595e-05
0.00012853
1.32156e-05
0.000124135
1.09949e-05
0.00012038
9.05302e-06
0.000117199
7.38145e-06
0.000114533
5.92713e-06
0.000112332
4.65867e-06
0.000110548
3.55688e-06
0.000109136
2.60838e-06
0.000108038
1.84742e-06
0.000107205
1.22887e-06
0.000106603
7.19182e-07
0.000106189
3.19481e-07
0.000105933
3.62368e-09
0.000105813
-2.70439e-07
0.00010581
-4.99193e-07
0.000105896
-6.5875e-07
0.000106038
-7.23068e-07
0.000106223
-7.67816e-07
0.000106442
-8.02604e-07
0.000106691
-8.3375e-07
0.000106967
-8.67284e-07
0.000107262
-8.9289e-07
0.000107556
-8.62091e-07
0.000107834
-7.82898e-07
0.000108091
-7.01409e-07
0.00010833
-6.42923e-07
0.000108555
-5.94971e-07
0.00010877
-5.6002e-07
0.000108975
-5.26624e-07
0.000109176
-5.16606e-07
0.000109373
-5.1159e-07
0.00010956
-4.79015e-07
0.000109725
-4.1858e-07
0.000109868
-3.59205e-07
0.000109996
-3.16444e-07
0.000110111
-2.83491e-07
0.000110219
-2.64332e-07
0.00011032
-2.48139e-07
0.000110417
-2.34474e-07
0.00011051
-2.2751e-07
0.000110605
-2.29354e-07
0.000110703
-2.4133e-07
0.000110805
-2.4854e-07
0.000110902
-2.38485e-07
0.000110992
-2.18728e-07
0.000111074
-1.99555e-07
0.00011115
-1.85883e-07
0.000111222
-1.75534e-07
0.00011129
-1.67533e-07
0.000111355
-1.59759e-07
0.000111418
-1.55797e-07
0.00011148
-1.5168e-07
0.000111539
-1.46208e-07
0.000111597
-1.41259e-07
0.000111653
-1.38591e-07
0.000111712
-1.40658e-07
0.00011177
-1.41757e-07
0.000111829
-1.41128e-07
0.000111886
-1.38344e-07
0.000111942
-1.33859e-07
0.000111994
-1.28689e-07
0.000112044
-1.17116e-07
-1.23988e-07
-0.000113041
-4.79417e-05
-9.10929e-05
-7.16337e-05
-5.81224e-05
-0.000110317
-8.74113e-06
-0.000169945
6.07018e-05
-0.000246308
0.000160928
-0.0003682
0.000287012
-0.000471389
0.000404955
-0.000435308
0.0004809
-0.000269896
0.00050197
-5.94294e-05
0.000473937
0.000126924
0.00041963
0.000220218
0.000364237
0.000216402
0.000320738
0.000166026
0.000289101
0.000119093
0.000265535
8.7391e-05
0.000247028
6.742e-05
0.000231789
5.42363e-05
0.000218873
4.47914e-05
0.000207698
3.75988e-05
0.000197879
3.20207e-05
0.000189177
2.7419e-05
0.000181441
2.34948e-05
0.00017457
2.00866e-05
0.000168489
1.70767e-05
0.000163142
1.43995e-05
0.00015847
1.20541e-05
0.000154425
9.97208e-06
0.000150965
8.11793e-06
0.000148046
6.47629e-06
0.00014563
5.02408e-06
0.000143658
3.82033e-06
0.000142077
2.80972e-06
0.000140844
1.9524e-06
0.000139912
1.25098e-06
0.000139241
6.74853e-07
0.000138797
1.737e-07
0.000138556
-2.57529e-07
0.000138476
-5.78877e-07
0.000138512
-7.59013e-07
0.000138639
-8.94781e-07
0.000138844
-1.00794e-06
0.000139114
-1.10411e-06
0.000139441
-1.19409e-06
0.000139812
-1.26399e-06
0.0001402
-1.24918e-06
0.000140577
-1.16039e-06
0.000140935
-1.05917e-06
0.000141279
-9.8658e-07
0.000141609
-9.24586e-07
0.000141924
-8.75045e-07
0.000142229
-8.31861e-07
0.000142527
-8.14749e-07
0.000142822
-8.0689e-07
0.000143101
-7.57191e-07
0.00014335
-6.68251e-07
0.00014357
-5.78745e-07
0.000143765
-5.11631e-07
0.000143944
-4.61942e-07
0.00014411
-4.30687e-07
0.000144267
-4.0477e-07
0.000144417
-3.84157e-07
0.000144562
-3.73267e-07
0.000144709
-3.75839e-07
0.000144863
-3.95391e-07
0.000145019
-4.04529e-07
0.000145168
-3.87333e-07
0.000145306
-3.56003e-07
0.000145432
-3.26122e-07
0.000145548
-3.01921e-07
0.000145659
-2.86253e-07
0.000145764
-2.7255e-07
0.000145866
-2.6102e-07
0.000145963
-2.53198e-07
0.000146056
-2.44636e-07
0.000146148
-2.38259e-07
0.000146236
-2.28773e-07
0.000146323
-2.26162e-07
0.000146412
-2.29173e-07
0.000146503
-2.33022e-07
0.000146595
-2.33056e-07
0.000146685
-2.28329e-07
0.00014677
-2.18479e-07
0.000146853
-2.11744e-07
0.000146931
-1.94366e-07
-2.02763e-07
-0.000140907
-6.79799e-05
-0.000111895
-0.000100646
-6.90415e-05
-0.00015317
-6.04257e-06
-0.000232944
8.0875e-05
-0.000333225
0.000203503
-0.000490828
0.000356311
-0.000624198
0.000500944
-0.000579941
0.000595406
-0.000364359
0.000622146
-8.61682e-05
0.000588694
0.000160376
0.000522684
0.000286228
0.000455241
0.000283845
0.000402532
0.000218735
0.00036464
0.000156986
0.000336796
0.000115234
0.000315153
8.90645e-05
0.000297442
7.19458e-05
0.000282455
5.978e-05
0.000269461
5.05911e-05
0.000257976
4.35057e-05
0.000247694
3.77015e-05
0.00023842
3.27684e-05
0.000230026
2.84813e-05
0.000222428
2.4674e-05
0.000215569
2.12592e-05
0.000209395
1.82281e-05
0.000203875
1.54922e-05
0.000198984
1.3009e-05
0.0001947
1.07598e-05
0.000191003
8.72144e-06
0.000187849
6.97387e-06
0.000185205
5.45433e-06
0.000183028
4.12904e-06
0.000181279
3.00044e-06
0.000179917
2.03729e-06
0.000178903
1.18731e-06
0.000178207
4.3909e-07
0.000177777
-1.49475e-07
0.000177558
-5.40071e-07
0.000177512
-8.48055e-07
0.000177613
-1.10934e-06
0.00017784
-1.33101e-06
0.000178177
-1.53082e-06
0.000178601
-1.68794e-06
0.000179074
-1.72182e-06
0.000179556
-1.64303e-06
0.000180035
-1.53778e-06
0.000180507
-1.45795e-06
0.000180968
-1.38585e-06
0.000181419
-1.32599e-06
0.000181858
-1.27022e-06
0.00018229
-1.24752e-06
0.000182716
-1.23265e-06
0.00018312
-1.16129e-06
0.000183486
-1.03417e-06
0.000183813
-9.0564e-07
0.000184107
-8.05128e-07
0.000184374
-7.29458e-07
0.000184624
-6.80648e-07
0.000184862
-6.41822e-07
0.000185087
-6.0959e-07
0.000185307
-5.93523e-07
0.00018553
-5.9837e-07
0.000185758
-6.23077e-07
0.00018599
-6.36092e-07
0.000186212
-6.09311e-07
0.000186418
-5.61916e-07
0.000186606
-5.14766e-07
0.000186782
-4.77001e-07
0.000186946
-4.505e-07
0.000187103
-4.29499e-07
0.000187252
-4.10182e-07
0.000187396
-3.97275e-07
0.000187537
-3.85157e-07
0.000187673
-3.73895e-07
0.000187804
-3.59776e-07
0.000187933
-3.55651e-07
0.000188067
-3.62466e-07
0.000188207
-3.72827e-07
0.000188343
-3.6937e-07
0.000188478
-3.63476e-07
0.000188609
-3.4901e-07
0.000188732
-3.35053e-07
0.000188849
-3.10546e-07
-3.18527e-07
-0.000171981
-9.43887e-05
-0.000134277
-0.00013835
-7.96176e-05
-0.000207829
-8.7483e-07
-0.000311687
0.000105658
-0.000439758
0.000252438
-0.000637609
0.000433937
-0.000805697
0.000608882
-0.000754886
0.000725123
-0.0004806
0.000758901
-0.000119946
0.000720043
0.000199235
0.000640765
0.000365506
0.00055912
0.00036549
0.0004953
0.000282554
0.000449796
0.00020249
0.000416792
0.000148237
0.000391484
0.000114374
0.000371012
9.24174e-05
0.000353845
7.69472e-05
0.00033907
6.53658e-05
0.000326065
5.65099e-05
0.000314438
4.93288e-05
0.000303918
4.32884e-05
0.000294327
3.80728e-05
0.000285539
3.34621e-05
0.000277468
2.93294e-05
0.000270048
2.56485e-05
0.000263233
2.23075e-05
0.000257005
1.92368e-05
0.000251359
1.64054e-05
0.000246296
1.37846e-05
0.000241797
1.14729e-05
0.000237851
9.4003e-06
0.000234458
7.52254e-06
0.000231585
5.87294e-06
0.000229217
4.40635e-06
0.000227325
3.07933e-06
0.000225884
1.88021e-06
0.000224842
8.92177e-07
0.000224137
1.65445e-07
0.000223719
-4.30622e-07
0.000223557
-9.47598e-07
0.000223617
-1.39007e-06
0.000223868
-1.78193e-06
0.000224281
-2.10114e-06
0.000224801
-2.24116e-06
0.000225375
-2.21751e-06
0.000225974
-2.13647e-06
0.000226589
-2.07326e-06
0.00022721
-2.00598e-06
0.000227828
-1.94449e-06
0.000228439
-1.8811e-06
0.000229043
-1.85153e-06
0.000229641
-1.8308e-06
0.000230215
-1.73489e-06
0.000230739
-1.55844e-06
0.000231212
-1.37862e-06
0.00023164
-1.23266e-06
0.000232034
-1.12376e-06
0.000232401
-1.04692e-06
0.000232749
-9.90414e-07
0.000233083
-9.42777e-07
0.000233407
-9.17376e-07
0.00023373
-9.21902e-07
0.000234064
-9.56332e-07
0.000234398
-9.70388e-07
0.00023472
-9.31343e-07
0.000235017
-8.58389e-07
0.000235291
-7.89281e-07
0.000235546
-7.32114e-07
0.000235786
-6.89702e-07
0.000236013
-6.56246e-07
0.000236231
-6.28422e-07
0.00023644
-6.06391e-07
0.000236642
-5.87103e-07
0.000236837
-5.68856e-07
0.000237028
-5.50764e-07
0.000237217
-5.44657e-07
0.000237414
-5.59195e-07
0.000237615
-5.73812e-07
0.000237819
-5.73562e-07
0.000238017
-5.61011e-07
0.000238206
-5.38263e-07
0.000238388
-5.1678e-07
0.000238558
-4.798e-07
-4.87614e-07
-0.000205859
-0.00012869
-0.000157666
-0.000186543
-8.92276e-05
-0.000276267
7.25835e-06
-0.000408173
0.000135342
-0.000567842
0.00030771
-0.000809976
0.000519661
-0.00101765
0.000728843
-0.000964067
0.000870598
-0.000622356
0.000914069
-0.000163416
0.000871233
0.000242071
0.000777452
0.000459286
0.000679318
0.000463625
0.000602196
0.000359676
0.000547386
0.0002573
0.000508008
0.000187615
0.000478172
0.00014421
0.000454318
0.00011627
0.000434531
9.6735e-05
0.000417666
8.22305e-05
0.000402957
7.12187e-05
0.000389897
6.23892e-05
0.00037815
5.50355e-05
0.000367465
4.87571e-05
0.000357668
4.32594e-05
0.000348627
3.83702e-05
0.000340229
3.40469e-05
0.000332402
3.01341e-05
0.000325105
2.65341e-05
0.000318315
2.31958e-05
0.000312032
2.00668e-05
0.000306254
1.72511e-05
0.000300988
1.4667e-05
0.000296253
1.22577e-05
0.000292065
1.00605e-05
0.000288432
8.04001e-06
0.000285361
6.1503e-06
0.000282851
4.38963e-06
0.000280874
2.86924e-06
0.000279371
1.66932e-06
0.000278303
6.3717e-07
0.000277628
-2.73043e-07
0.00027731
-1.07215e-06
0.000277308
-1.77921e-06
0.000277576
-2.36894e-06
0.000278048
-2.71344e-06
0.000278653
-2.82233e-06
0.000279346
-2.82882e-06
0.000280098
-2.8255e-06
0.000280891
-2.79866e-06
0.000281706
-2.75981e-06
0.000282527
-2.70179e-06
0.000283348
-2.67268e-06
0.000284166
-2.64874e-06
0.000284955
-2.524e-06
0.000285689
-2.29144e-06
0.000286357
-2.0471e-06
0.00028697
-1.84582e-06
0.000287533
-1.68594e-06
0.000288062
-1.57579e-06
0.000288564
-1.49317e-06
0.000289042
-1.42021e-06
0.000289507
-1.3819e-06
0.000289971
-1.38602e-06
0.000290442
-1.42753e-06
0.00029091
-1.43825e-06
0.000291361
-1.38227e-06
0.000291785
-1.28172e-06
0.000292173
-1.17755e-06
0.000292534
-1.0935e-06
0.000292875
-1.0298e-06
0.000293198
-9.79638e-07
0.000293507
-9.36942e-07
0.000293803
-9.02484e-07
0.000294088
-8.71944e-07
0.000294366
-8.46842e-07
0.000294637
-8.21496e-07
0.000294908
-8.16129e-07
0.000295186
-8.37238e-07
0.000295477
-8.64318e-07
0.000295767
-8.62974e-07
0.000296048
-8.42222e-07
0.000296318
-8.08654e-07
0.000296575
-7.73656e-07
0.000296819
-7.22909e-07
-7.27924e-07
-0.000241955
-0.000172583
-0.000181399
-0.000247099
-9.73087e-05
-0.000360358
1.8644e-05
-0.000524125
0.000169971
-0.000719168
0.000369147
-0.00100915
0.000613284
-0.00126179
0.000859158
-0.00120994
0.001031
-0.000794198
0.00108998
-0.000222394
0.00104587
0.000286178
0.000936828
0.00056833
0.00081981
0.000580644
0.000726856
0.00045263
0.000660712
0.000323444
0.000613458
0.000234869
0.000577972
0.000179696
0.000549881
0.000144361
0.000526791
0.000119825
0.000507281
0.00010174
0.000490418
8.80822e-05
0.000475579
7.72283e-05
0.000462334
6.828e-05
0.000450379
6.07128e-05
0.000439479
5.41586e-05
0.000429462
4.83874e-05
0.000420164
4.33445e-05
0.000411475
3.88236e-05
0.00040331
3.46988e-05
0.000395617
3.08896e-05
0.000388364
2.73199e-05
0.000381529
2.40853e-05
0.000375117
2.10792e-05
0.000369147
1.82283e-05
0.000363653
1.55548e-05
0.000358674
1.30191e-05
0.000354248
1.05761e-05
0.000350422
8.21524e-06
0.0003472
6.09167e-06
0.000344567
4.30264e-06
0.000342501
2.70289e-06
0.00034098
1.2478e-06
0.000339976
-6.78448e-08
0.000339448
-1.25136e-06
0.000339347
-2.2674e-06
0.000339592
-2.95798e-06
0.000340096
-3.32631e-06
0.000340792
-3.52549e-06
0.000341637
-3.67033e-06
0.000342586
-3.74758e-06
0.000343606
-3.7795e-06
0.000344665
-3.76089e-06
0.000345745
-3.75232e-06
0.000346831
-3.73458e-06
0.000347892
-3.58494e-06
0.000348895
-3.29429e-06
0.000349823
-2.97537e-06
0.000350677
-2.69979e-06
0.000351472
-2.48062e-06
0.000352216
-2.31958e-06
0.000352923
-2.2004e-06
0.000353598
-2.09497e-06
0.000354251
-2.03518e-06
0.000354898
-2.03239e-06
0.000355549
-2.07809e-06
0.000356196
-2.08513e-06
0.000356818
-2.00465e-06
0.000357399
-1.86212e-06
0.000357942
-1.72041e-06
0.000358446
-1.59812e-06
0.000358921
-1.50435e-06
0.000359372
-1.43101e-06
0.0003598
-1.36393e-06
0.000360211
-1.31408e-06
0.00036061
-1.27064e-06
0.000360995
-1.23203e-06
0.000361373
-1.19961e-06
0.000361752
-1.19478e-06
0.000362144
-1.22876e-06
0.000362547
-1.2677e-06
0.000362953
-1.2688e-06
0.000363349
-1.23829e-06
0.000363726
-1.18523e-06
0.000364084
-1.13184e-06
0.000364421
-1.05972e-06
-1.05936e-06
-0.000279593
-0.000227851
-0.000204881
-0.00032181
-0.000103521
-0.000461719
3.32501e-05
-0.000660896
0.000209311
-0.00089523
0.000436531
-0.00123637
0.000714791
-0.00154005
0.000996888
-0.00149204
0.00120441
-0.00100172
0.00128909
-0.000307073
0.00124767
0.000327604
0.00112339
0.000692607
0.000985061
0.000718972
0.000873395
0.000564296
0.000793502
0.000403337
0.000736532
0.000291839
0.000694009
0.000222219
0.000660602
0.000177769
0.000633327
0.0001471
0.000610431
0.000124635
0.000590776
0.000107738
0.000573596
9.44084e-05
0.000558383
8.34924e-05
0.000544754
7.43419e-05
0.000532427
6.64862e-05
0.000521179
5.96346e-05
0.000510813
5.37109e-05
0.000501171
4.84659e-05
0.000492134
4.37359e-05
0.000483606
3.94172e-05
0.000475522
3.54038e-05
0.000467826
3.17815e-05
0.000460485
2.84201e-05
0.000453501
2.52121e-05
0.000446889
2.21676e-05
0.000440685
1.92224e-05
0.000434945
1.63162e-05
0.000429733
1.34281e-05
0.000425105
1.07196e-05
0.000421081
8.32649e-06
0.000417696
6.08732e-06
0.000414967
3.97678e-06
0.000412897
2.00307e-06
0.000411475
1.70123e-07
0.000410663
-1.45481e-06
0.000410387
-2.68185e-06
0.000410549
-3.48859e-06
0.00041107
-4.04558e-06
0.000411877
-4.47734e-06
0.000412908
-4.77919e-06
0.000414105
-4.97611e-06
0.000415406
-5.06186e-06
0.000416774
-5.12023e-06
0.000418175
-5.13517e-06
0.000419568
-4.97758e-06
0.000420905
-4.63126e-06
0.000422163
-4.23365e-06
0.000423338
-3.87486e-06
0.000424433
-3.57563e-06
0.000425466
-3.35181e-06
0.000426444
-3.17839e-06
0.000427378
-3.02948e-06
0.000428279
-2.93592e-06
0.000429165
-2.91799e-06
0.000430048
-2.96109e-06
0.00043092
-2.95696e-06
0.000431759
-2.8439e-06
0.000432555
-2.65787e-06
0.000433296
-2.46084e-06
0.000433988
-2.29012e-06
0.000434639
-2.15556e-06
0.000435257
-2.04895e-06
0.000435847
-1.9532e-06
0.00043641
-1.8773e-06
0.000436955
-1.81538e-06