/*--------------------------------*- C++ -*----------------------------------*\
| =========                 |                                                 |
| \\      /  F ield         | OpenFOAM: The Open Source CFD Toolbox           |
|  \\    /   O peration     | Version:  2412                                  |
|   \\  /    A nd           | Website:  www.openfoam.com                      |
|    \\/     M anipulation  |                                                 |
\*---------------------------------------------------------------------------*/
FoamFile
{
    version     2.0;
    format      ascii;
    arch        "LSB;label=32;scalar=64";
    class       volVectorField;
    location    "280";
    object      U;
}
// * * * * * * * * * * * * * * * * * * * * * * * * * * * * * * * * * * * * * //

dimensions      [0 1 -1 0 0 0 0];

internalField   nonuniform List<vector> 
8659
(
(0.331652 -0.23878 2.82108e-25)
(0.284228 -0.228089 0)
(0.216524 -0.197979 1.18656e-24)
(0.118973 -0.128025 -1.47083e-18)
(-0.0119007 0.0163321 -2.85007e-24)
(-0.149731 0.27503 -2.51704e-18)
(-0.246742 0.766575 7.14022e-19)
(-0.106644 1.34659 7.48687e-20)
(0.2995 1.69797 -2.97676e-24)
(0.756857 1.65682 1.90461e-18)
(1.00413 1.28832 0)
(0.987565 0.868243 -1.62345e-23)
(0.85873 0.562169 -4.4515e-18)
(0.742617 0.3803 1.67814e-24)
(0.65809 0.271757 -7.37089e-18)
(0.59712 0.202617 3.34788e-18)
(0.551563 0.155558 0)
(0.516104 0.121695 1.21409e-25)
(0.488391 0.0964105 1.18768e-24)
(0.466701 0.0769186 -1.15154e-24)
(0.449588 0.0614302 0)
(0.436217 0.0487997 1.00879e-18)
(0.425946 0.038278 -4.69513e-19)
(0.418239 0.0293018 2.33963e-26)
(0.412613 0.0214946 8.20807e-19)
(0.408722 0.0145774 1.87296e-25)
(0.406207 0.00833892 1.8119e-19)
(0.404756 0.00263287 -4.27049e-20)
(0.404185 -0.00265485 4.03402e-20)
(0.40427 -0.00760152 -1.52705e-19)
(0.404912 -0.0122595 -2.8951e-19)
(0.405925 -0.0166954 2.74884e-19)
(0.407095 -0.0209156 3.84296e-27)
(0.408398 -0.0249579 1.20522e-25)
(0.409708 -0.02883 -2.328e-25)
(0.411005 -0.032543 4.52942e-19)
(0.412246 -0.0361162 4.32841e-19)
(0.413451 -0.0395522 -4.14058e-19)
(0.414639 -0.0428643 -7.92999e-19)
(0.415685 -0.0460521 -7.60077e-19)
(0.416566 -0.0491077 -7.29167e-19)
(0.417329 -0.0520503 -7.00119e-19)
(0.418004 -0.0548789 0)
(0.418609 -0.0576062 -6.46972e-19)
(0.419185 -0.0602384 -5.93934e-25)
(0.41971 -0.062777 2.89915e-25)
(0.420108 -0.0652127 0)
(0.420371 -0.0675455 1.11425e-18)
(0.420547 -0.0697855 1.07506e-18)
(0.420661 -0.0719393 0)
(0.420731 -0.074009 1.00247e-18)
(0.420764 -0.0760023 0)
(0.420769 -0.0779215 0)
(0.420787 -0.0797731 9.06154e-19)
(0.420807 -0.081563 8.7698e-19)
(0.420775 -0.0832791 8.49106e-19)
(0.420697 -0.0849239 -1.93349e-25)
(0.420582 -0.0865033 7.96986e-19)
(0.420442 -0.0880199 0)
(0.420289 -0.0894778 0)
(0.420133 -0.0908823 0)
(0.419972 -0.0922323 -7.05256e-19)
(0.419813 -0.0935331 1.65658e-25)
(0.419656 -0.0947868 6.64792e-19)
(0.419506 -0.0959961 1.5628e-25)
(0.419375 -0.0971628 0)
(0.419254 -0.0982905 0)
(0.419124 -0.0993761 -5.92809e-19)
(0.418993 -0.100418 -1.15283e-18)
(0.418855 -0.101424 -1.35774e-25)
(0.418716 -0.102391 0)
(0.418584 -0.103325 0)
(0.41845 -0.104227 2.73466e-26)
(0.418318 -0.105094 0)
(0.418197 -0.105935 4.89309e-19)
(0.418072 -0.106745 4.76348e-19)
(0.417953 -0.107529 -4.63757e-19)
(0.417837 -0.108288 2.1903e-25)
(0.417723 -0.109022 2.06013e-25)
(0.417615 -0.109732 -4.2809e-19)
(0.417513 -0.110423 8.33699e-19)
(0.417409 -0.11109 1.90073e-25)
(0.417311 -0.111738 -6.92047e-27)
(0.417214 -0.112368 -1.86995e-25)
(0.417116 -0.112978 3.7489e-19)
(0.417017 -0.11357 -3.65114e-19)
(1.02041 -0.734577 3.88806e-18)
(0.872999 -0.700425 0)
(0.663872 -0.606791 -5.11741e-25)
(0.364789 -0.392215 4.61452e-24)
(-0.0332009 0.0459807 2.4289e-18)
(-0.449204 0.825044 4.17362e-18)
(-0.740162 2.29457 -5.9095e-19)
(-0.320714 4.03464 -2.48965e-19)
(0.903062 5.11668 2.93916e-25)
(2.30482 5.03895 0)
(3.10116 3.9757 -1.51504e-23)
(3.09718 2.7227 -4.70126e-23)
(2.72322 1.78335 7.38053e-18)
(2.36668 1.21246 -6.73835e-18)
(2.10079 0.867811 4.07549e-24)
(1.90634 0.647074 5.55715e-18)
(1.75967 0.496422 0)
(1.64448 0.387858 -3.68532e-24)
(1.55349 0.30675 6.13186e-24)
(1.48154 0.244237 1.95313e-18)
(1.42418 0.194626 -1.68409e-24)
(1.37879 0.154286 7.18665e-26)
(1.34339 0.120738 7.79958e-19)
(1.3163 0.0922423 7.28253e-19)
(1.29603 0.0675306 -1.3637e-18)
(1.28147 0.0457163 3.2e-19)
(1.2715 0.0261087 -3.01067e-19)
(1.26512 0.00823042 7.09621e-20)
(1.26174 -0.00827911 -6.70358e-20)
(1.26065 -0.0236956 2.53774e-19)
(1.26149 -0.0382007 2.40571e-19)
(1.26366 -0.051971 -9.13702e-19)
(1.2665 -0.0650747 6.18559e-25)
(1.26989 -0.0776044 8.27269e-19)
(1.27345 -0.0896069 -7.88731e-19)
(1.27707 -0.101122 7.52883e-19)
(1.2806 -0.112191 -7.19491e-19)
(1.28411 -0.12284 6.88293e-19)
(1.28762 -0.133114 1.78502e-26)
(1.29074 -0.142993 6.11206e-25)
(1.2934 -0.152477 1.21221e-18)
(1.29572 -0.161602 -1.54462e-26)
(1.29779 -0.170387 -1.1185e-18)
(1.29966 -0.178852 1.07565e-18)
(1.30146 -0.187025 1.03517e-18)
(1.30311 -0.194908 1.30885e-26)
(1.30438 -0.202476 1.26054e-26)
(1.30523 -0.209726 8.83663e-25)
(1.3058 -0.216686 1.78759e-18)
(1.30618 -0.223375 0)
(1.30643 -0.22981 -1.66695e-18)
(1.30655 -0.236002 7.68346e-25)
(1.3066 -0.241966 -1.5577e-18)
(1.30669 -0.247726 0)
(1.30678 -0.253287 0)
(1.30672 -0.258622 -1.41207e-18)
(1.3065 -0.263737 -1.30467e-24)
(1.30616 -0.268644 6.41138e-25)
(1.30574 -0.273358 -1.28486e-18)
(1.30529 -0.27789 -5.85654e-25)
(1.30482 -0.282255 5.84837e-25)
(1.30434 -0.286454 -5.21748e-25)
(1.30385 -0.290495 1.13864e-18)
(1.30338 -0.294391 1.10569e-18)
(1.30293 -0.29815 -5.04536e-25)
(1.30255 -0.301782 1.49983e-26)
(1.30219 -0.305287 4.91049e-25)
(1.30181 -0.308662 0)
(1.30142 -0.311907 1.11348e-26)
(1.301 -0.315029 0)
(1.30059 -0.31804 0)
(1.30018 -0.320944 8.82697e-19)
(1.29978 -0.323745 4.29774e-25)
(1.29939 -0.326446 -8.36132e-19)
(1.29902 -0.329059 8.13925e-19)
(1.29865 -0.331581 0)
(1.29829 -0.334019 -3.61655e-25)
(1.29794 -0.336377 7.51097e-19)
(1.29759 -0.338659 0)
(1.29727 -0.340871 7.12114e-19)
(1.29696 -0.343017 -6.93413e-19)
(1.29666 -0.345096 -6.75227e-19)
(1.29637 -0.347115 -6.57536e-19)
(1.29608 -0.349071 2.99689e-25)
(1.29579 -0.350971 -6.23584e-19)
(1.29549 -0.352814 6.07304e-19)
(1.76834 -1.27282 8.32518e-25)
(1.50941 -1.21075 2.40897e-18)
(1.14423 -1.04535 5.22226e-18)
(0.625695 -0.671878 0)
(-0.058801 0.0826866 -2.74248e-18)
(-0.768259 1.41294 -2.3545e-18)
(-1.2592 3.90374 -6.65814e-19)
(-0.546306 6.85916 1.40029e-19)
(1.54369 8.74005 0)
(3.9744 8.6822 -1.5281e-23)
(5.4201 6.9474 -2.28416e-24)
(5.49544 4.83218 -1.76573e-17)
(4.88527 3.20042 1.53924e-23)
(4.26631 2.18643 -8.37897e-25)
(3.79325 1.56742 -4.30399e-24)
(3.44263 1.16886 -6.2628e-18)
(3.17557 0.896076 5.61296e-24)
(2.96393 0.69922 2.60763e-18)
(2.79491 0.552006 -2.39266e-18)
(2.65971 0.438556 -2.20451e-18)
(2.55062 0.34863 0)
(2.46309 0.275671 -1.89214e-18)
(2.39365 0.215173 0)
(2.33941 0.163969 0)
(2.29779 0.119752 7.70268e-19)
(2.26684 0.080893 -3.61538e-19)
(2.24458 0.0461022 1.59415e-25)
(2.2292 0.0145107 -8.01904e-20)
(2.21966 -0.0145557 7.57603e-20)
(2.21466 -0.0416203 -2.86825e-19)
(2.21349 -0.0670287 0)
(2.2151 -0.0910995 5.16422e-19)
(2.21828 -0.113979 0)
(2.22277 -0.135836 -5.42684e-26)
(2.22786 -0.156764 -8.91737e-19)
(2.23328 -0.17684 -6.13634e-26)
(2.23879 -0.196137 7.64918e-25)
(2.24443 -0.214707 -7.78296e-19)
(2.25021 -0.232631 -7.00975e-25)
(2.25545 -0.249867 1.42888e-18)
(2.25999 -0.266428 6.63047e-25)
(2.26401 -0.282368 6.19143e-25)
(2.26765 -0.297722 1.26498e-18)
(2.27098 -0.312519 -1.21655e-18)
(2.27422 -0.326816 -1.17081e-18)
(2.27723 -0.340607 0)
(2.27958 -0.353854 0)
(2.28119 -0.366545 0)
(2.28233 -0.378732 -2.02204e-18)
(2.28313 -0.390446 0)
(2.28367 -0.401715 0)
(2.28401 -0.412561 -1.8224e-18)
(2.28423 -0.423008 4.66289e-26)
(2.28451 -0.433103 1.70469e-18)
(2.28479 -0.442848 0)
(2.28479 -0.452198 1.5975e-18)
(2.2845 -0.461161 0)
(2.28398 -0.469758 -1.49954e-18)
(2.28334 -0.478016 1.45367e-18)
(2.28261 -0.485959 -1.94213e-26)
(2.28187 -0.493605 -1.36754e-18)
(2.28108 -0.500962 1.32714e-18)
(2.28029 -0.508045 -1.28832e-18)
(2.27952 -0.51487 -1.25105e-18)
(2.27882 -0.521461 -1.21517e-18)
(2.27822 -0.527831 1.18077e-18)
(2.27765 -0.533978 1.14761e-18)
(2.27706 -0.539896 0)
(2.27643 -0.545589 6.00766e-25)
(2.27576 -0.551062 1.05521e-18)
(2.2751 -0.556345 0)
(2.27444 -0.561435 -6.79029e-26)
(2.27379 -0.566344 9.72063e-19)
(2.27315 -0.571084 9.46155e-19)
(2.27254 -0.575663 -9.2103e-19)
(2.27193 -0.580087 -4.34759e-25)
(2.27135 -0.584365 0)
(2.27077 -0.5885 -8.4995e-19)
(2.27021 -0.592503 -8.2759e-19)
(2.26969 -0.596386 3.7752e-25)
(2.2692 -0.600151 -3.80909e-25)
(2.26871 -0.6038 7.64111e-19)
(2.26825 -0.607343 7.44091e-19)
(2.26778 -0.610779 3.3914e-25)
(2.26731 -0.614113 -3.42879e-25)
(2.26683 -0.617348 -4.07355e-26)
(2.56549 -1.84632 -2.47848e-18)
(2.18275 -1.75038 -5.43895e-18)
(1.64631 -1.50323 -1.24826e-23)
(0.890679 -0.954945 -3.11277e-18)
(-0.0977478 0.13897 -1.20536e-23)
(-1.11118 2.04795 -2.6534e-18)
(-1.80101 5.59066 1.49672e-18)
(-0.778354 9.79654 -3.13408e-19)
(2.21565 12.5329 1.23347e-23)
(5.75243 12.5625 3.90856e-18)
(7.96335 10.2076 9.49835e-18)
(8.21479 7.22531 9.72391e-18)
(7.39786 4.84829 -5.25696e-23)
(6.4992 3.33195 1.65528e-23)
(5.79136 2.39381 7.6933e-18)
(5.25831 1.78582 0)
(4.84753 1.36821 0)
(4.5186 1.06624 0)
(4.25252 0.840072 2.68939e-18)
(4.03665 0.665744 4.85651e-24)
(3.85997 0.527723 0)
(3.71581 0.415962 2.13093e-18)
(3.5992 0.323619 3.79076e-24)
(3.50601 0.245789 -3.54093e-24)
(3.43254 0.178934 2.50355e-24)
(3.37597 0.1205 -7.93089e-25)
(3.33336 0.0684916 -3.83777e-19)
(3.30209 0.0215121 9.04873e-20)
(3.2805 -0.0215028 -8.55059e-20)
(3.26664 -0.0613892 3.23781e-19)
(3.25936 -0.0986947 0)
(3.25707 -0.133952 0)
(3.25792 -0.167392 5.54588e-19)
(3.2614 -0.199309 -1.05632e-18)
(3.26639 -0.229846 -7.91545e-25)
(3.27242 -0.259124 -9.61605e-19)
(3.27904 -0.287274 -8.64142e-25)
(3.28624 -0.314374 8.79309e-19)
(3.29396 -0.340537 -7.91995e-25)
(3.30117 -0.36572 -3.22898e-18)
(3.30757 -0.389929 1.549e-18)
(3.31339 -0.41325 0)
(3.31878 -0.435726 0)
(3.32381 -0.457406 0)
(3.32879 -0.478365 1.24475e-24)
(3.33348 -0.498597 -1.23227e-24)
(3.33724 -0.518035 1.22801e-18)
(3.33993 -0.536665 -2.36837e-18)
(3.34193 -0.554562 1.07493e-24)
(3.3434 -0.57177 -1.06678e-24)
(3.3445 -0.588324 1.0024e-24)
(3.34531 -0.604262 -7.71784e-25)
(3.34592 -0.61962 1.99166e-18)
(3.34661 -0.634459 -1.92675e-18)
(3.3473 -0.64879 1.86481e-18)
(3.34757 -0.662542 -3.61128e-18)
(3.34737 -0.675719 1.74908e-18)
(3.34682 -0.688358 3.38994e-18)
(3.34606 -0.700499 0)
(3.34517 -0.712174 0)
(3.34425 -0.723416 1.54584e-18)
(3.34326 -0.734233 0)
(3.34225 -0.744646 6.8431e-25)
(3.34126 -0.754684 -1.41421e-18)
(3.34039 -0.764381 2.74733e-18)
(3.33968 -0.773758 -1.33479e-18)
(3.33904 -0.782811 -1.29733e-18)
(3.33832 -0.791525 -6.10724e-25)
(3.33754 -0.799901 -1.05763e-24)
(3.3367 -0.807961 -1.1929e-18)
(3.33585 -0.815736 -1.16052e-18)
(3.33499 -0.823228 -1.12918e-18)
(3.33415 -0.830457 3.37802e-26)
(3.33332 -0.837432 1.03684e-24)
(3.33253 -0.844174 0)
(3.33175 -0.850686 1.01369e-18)
(3.33099 -0.856988 0)
(3.33023 -0.863073 0)
(3.32952 -0.86897 9.35621e-19)
(3.32885 -0.87469 -9.11039e-19)
(3.32823 -0.880242 -8.87119e-19)
(3.32762 -0.885621 -1.64787e-24)
(3.32703 -0.89084 8.17085e-25)
(3.32644 -0.895905 -8.19208e-19)
(3.32585 -0.900822 -7.75271e-25)
(3.32522 -0.90559 -8.11558e-25)
(3.3991 -2.4458 2.79493e-18)
(2.87969 -2.30853 3.06769e-18)
(2.15663 -1.96791 -3.326e-18)
(1.14728 -1.22769 3.51219e-18)
(-0.159338 0.227823 -1.35921e-23)
(-1.48119 2.73703 1.08974e-22)
(-2.36059 7.34247 -1.67539e-18)
(-1.01278 12.802 3.47891e-19)
(2.90691 16.4251 -1.35408e-23)
(7.60332 16.6016 -4.22515e-18)
(10.6872 13.7008 -1.01074e-17)
(11.2363 9.88596 1.03037e-17)
(10.2777 6.73825 -3.79888e-23)
(9.10262 4.66836 9.13095e-18)
(8.14028 3.3658 0)
(7.4007 2.51414 -7.71177e-18)
(6.82241 1.92614 0)
(6.35359 1.49962 3.24673e-18)
(5.96879 1.17942 0)
(5.65158 0.932325 -5.14758e-24)
(5.38771 0.736777 5.00994e-24)
(5.16844 0.578731 0)
(4.98737 0.448551 1.11114e-18)
(4.83925 0.339359 0)
(4.71932 0.246087 -9.74385e-19)
(4.62392 0.165099 4.57862e-19)
(4.54922 0.0935199 2.53407e-25)
(4.49169 0.0292951 0)
(4.44901 -0.0291363 -9.61971e-20)
(4.41852 -0.0830152 -7.28888e-19)
(4.39852 -0.133182 6.49194e-25)
(4.38679 -0.180406 -6.36671e-25)
(4.38074 -0.225087 -1.24985e-18)
(4.37951 -0.267637 -1.19059e-18)
(4.38146 -0.30831 1.13554e-18)
(4.38582 -0.347293 1.01932e-24)
(4.39182 -0.384767 1.03645e-18)
(4.39932 -0.420859 0)
(4.40811 -0.455726 -1.89974e-18)
(4.41676 -0.489315 -1.16556e-24)
(4.42474 -0.521638 -1.74742e-18)
(4.43229 -0.552806 -1.67805e-18)
(4.43952 -0.582874 -1.51711e-24)
(4.44649 -0.611909 -1.551e-18)
(4.45353 -0.64 0)
(4.4603 -0.667141 -1.35253e-24)
(4.46589 -0.693235 -1.38548e-18)
(4.47008 -0.718263 2.67211e-18)
(4.47334 -0.742312 -2.57831e-18)
(4.4759 -0.765444 -2.48923e-18)
(4.47795 -0.787707 1.13098e-24)
(4.47958 -0.809149 4.64787e-18)
(4.48095 -0.829815 2.24715e-18)
(4.48242 -0.849793 -2.17392e-18)
(4.48388 -0.869089 1.45871e-24)
(4.48472 -0.887607 2.03728e-18)
(4.4849 -0.905346 -1.97348e-18)
(4.48455 -0.922361 -3.82488e-18)
(4.48389 -0.938704 1.85399e-18)
(4.48303 -0.954419 0)
(4.48209 -0.969551 -1.74422e-18)
(4.48107 -0.984114 0)
(4.48 -0.998135 0)
(4.47896 -1.01165 -1.12205e-24)
(4.47809 -1.02472 -3.09998e-18)
(4.47747 -1.03737 0)
(4.47693 -1.04958 0)
(4.47626 -1.06133 -1.33658e-24)
(4.47548 -1.07263 1.38384e-18)
(4.47459 -1.0835 0)
(4.47369 -1.09398 1.30949e-18)
(4.47275 -1.10408 0)
(4.47183 -1.11383 0)
(4.47092 -1.12323 -1.20695e-18)
(4.47005 -1.13232 -1.17491e-18)
(4.46919 -1.14111 -2.61327e-25)
(4.46836 -1.14961 -1.04412e-24)
(4.46751 -1.15782 1.0519e-24)
(4.46674 -1.16577 0)
(4.46603 -1.1735 2.41962e-25)
(4.46538 -1.18099 1.00098e-18)
(4.46475 -1.18826 9.74719e-19)
(4.46414 -1.19531 9.49179e-19)
(4.46353 -1.20216 1.84867e-18)
(4.46291 -1.2088 -9.00156e-19)
(4.46222 -1.21524 -8.7665e-19)
(4.25346 -3.05988 -6.2951e-18)
(3.58432 -2.8723 3.45695e-18)
(2.65966 -2.42498 0)
(1.38196 -1.47517 0)
(-0.252548 0.361827 3.93038e-18)
(-1.8796 3.4836 1.15002e-22)
(-2.92963 9.1354 5.63911e-24)
(-1.24388 15.81 -1.28587e-22)
(3.59987 20.3139 1.4626e-23)
(9.46599 20.6654 2.50345e-23)
(13.4818 17.2861 -3.48565e-23)
(14.4353 12.7048 -1.23411e-21)
(13.4374 8.8135 0)
(12.0361 6.17533 -9.30847e-18)
(10.8309 4.47995 -3.23431e-23)
(9.87916 3.3572 8.13085e-18)
(9.12042 2.57571 1.3983e-23)
(8.49554 2.00577 -6.98197e-18)
(7.97389 1.57609 -1.27018e-23)
(7.53606 1.24358 1.12103e-23)
(7.16528 0.980165 -1.0963e-23)
(6.85112 0.767391 2.61756e-18)
(6.58609 0.592548 -1.22504e-18)
(6.36418 0.446456 1.14924e-18)
(6.17987 0.322382 1.08042e-18)
(6.02891 0.215376 -2.6247e-24)
(5.90672 0.12151 4.80245e-19)
(5.80894 0.0379532 1.13504e-19)
(5.73267 -0.0374941 5.05039e-25)
(5.67449 -0.106575 -8.11131e-25)
(5.63212 -0.170503 3.87203e-19)
(5.60266 -0.23039 0)
(5.5827 -0.286838 1.40231e-18)
(5.5709 -0.34044 1.33671e-18)
(5.56503 -0.391592 1.27559e-18)
(5.56386 -0.440576 -1.21852e-18)
(5.56619 -0.487658 -2.33037e-18)
(5.57165 -0.533015 4.25585e-24)
(5.57977 -0.576865 2.13672e-18)
(5.58863 -0.61915 2.0487e-18)
(5.59742 -0.659892 -1.90173e-24)
(5.60626 -0.699234 1.88805e-18)
(5.61518 -0.737238 -1.81458e-18)
(5.62414 -0.773978 3.49047e-18)
(5.63349 -0.809576 1.62439e-24)
(5.6427 -0.844004 0)
(5.65058 -0.877142 0)
(5.6568 -0.908952 3.00662e-18)
(5.66184 -0.93954 5.80206e-18)
(5.66602 -0.968977 1.34858e-24)
(5.66954 -0.997321 -2.7054e-18)
(5.67253 -1.02463 -5.22931e-18)
(5.67516 -1.05097 -2.5282e-18)
(5.6779 -1.07644 2.44575e-18)
(5.6806 -1.10105 -1.06193e-24)
(5.68247 -1.12466 2.29192e-18)
(5.6834 -1.14729 2.2201e-18)
(5.68361 -1.16898 2.15142e-18)
(5.68336 -1.18982 1.11745e-24)
(5.68281 -1.20985 -1.90138e-24)
(5.68214 -1.22914 9.23925e-25)
(5.68132 -1.24771 1.9042e-18)
(5.68044 -1.26559 1.84852e-18)
(5.6796 -1.28284 -9.55483e-25)
(5.679 -1.29953 3.48718e-18)
(5.67874 -1.31569 1.69421e-18)
(5.67857 -1.3313 0)
(5.67821 -1.34632 1.60083e-18)
(5.67766 -1.36075 1.50771e-24)
(5.67693 -1.37464 1.51404e-18)
(5.67615 -1.38802 -2.80973e-24)
(5.67532 -1.40093 1.43313e-18)
(5.67449 -1.41338 -1.30884e-24)
(5.67365 -1.4254 1.35754e-18)
(5.67286 -1.43701 1.32149e-18)
(5.67207 -1.44824 -1.2865e-18)
(5.67131 -1.4591 0)
(5.67053 -1.4696 1.14313e-24)
(5.66983 -1.47977 1.18737e-18)
(5.66923 -1.48965 1.15615e-18)
(5.66873 -1.49925 -1.12577e-18)
(5.66824 -1.50856 -1.09621e-18)
(5.66777 -1.5176 -1.06747e-18)
(5.66729 -1.52636 -2.07902e-18)
(5.66678 -1.53488 4.70609e-25)
(5.66617 -1.54313 0)
(5.1101 -3.67514 3.53881e-18)
(4.27841 -3.42687 -3.89055e-18)
(3.13825 -2.85848 3.25198e-23)
(1.58074 -1.68191 -3.37117e-23)
(-0.385148 0.552035 -4.41776e-18)
(-2.30491 4.2861 3.73882e-18)
(-3.49618 10.9348 1.03065e-18)
(-1.46459 18.7411 -2.07833e-19)
(4.27477 24.0846 0)
(11.2694 24.598 -3.92216e-23)
(16.198 20.7714 3.37419e-23)
(17.5847 15.4824 -9.48436e-18)
(16.6355 10.9162 6.66679e-23)
(15.1047 7.75329 8.64057e-18)
(13.7244 5.67911 3.27126e-23)
(12.5991 4.28313 0)
(11.6795 3.29957 0)
(10.9063 2.57584 3.52722e-18)
(10.2475 2.02617 -3.31756e-18)
(9.68288 1.5984 1.2225e-23)
(9.195 1.25829 0)
(8.77276 0.983032 -2.76975e-18)
(8.40847 0.756832 -2.13251e-25)
(8.0961 0.568232 -1.23505e-18)
(7.83011 0.408701 0)
(7.6062 0.271914 -5.53493e-19)
(7.41955 0.152787 0)
(7.26534 0.0475928 -2.49219e-19)
(7.1403 -0.0465995 1.94649e-25)
(7.04048 -0.132156 4.50745e-19)
(6.96312 -0.210742 1.0074e-24)
(6.9047 -0.28389 -1.58614e-24)
(6.86102 -0.35248 -7.80573e-19)
(6.83024 -0.417379 -1.49048e-18)
(6.80942 -0.479143 -1.42416e-18)
(6.79678 -0.538199 1.36186e-18)
(6.79059 -0.594929 1.30334e-18)
(6.79012 -0.649584 -1.24825e-18)
(6.79452 -0.702456 -2.39281e-18)
(6.80129 -0.753506 0)
(6.80925 -0.802768 0)
(6.81826 -0.850408 0)
(6.8282 -0.896509 4.06814e-18)
(6.83885 -0.941155 -3.91292e-18)
(6.85048 -0.984478 0)
(6.86234 -1.02644 3.41213e-24)
(6.87291 -1.06689 -3.37987e-24)
(6.88165 -1.10577 -3.37016e-18)
(6.88907 -1.1432 -3.25162e-18)
(6.89548 -1.17924 3.13901e-18)
(6.90111 -1.21397 2.46018e-24)
(6.90609 -1.24746 5.86008e-18)
(6.91063 -1.27977 -2.83295e-18)
(6.91526 -1.31103 2.57742e-24)
(6.91979 -1.34124 -5.30394e-18)
(6.92325 -1.37024 -1.02704e-17)
(6.92546 -1.39802 -2.48703e-18)
(6.92669 -1.42465 2.40998e-18)
(6.92727 -1.45023 -2.33622e-18)
(6.92743 -1.47483 2.26556e-18)
(6.92738 -1.49851 2.19774e-18)
(6.92713 -1.52132 4.44406e-25)
(6.92677 -1.54327 -2.07036e-18)
(6.92647 -1.56447 2.01041e-18)
(6.92649 -1.58499 2.43085e-24)
(6.92695 -1.60488 -1.33519e-24)
(6.92751 -1.62411 -1.8439e-18)
(6.92779 -1.6426 -8.08918e-24)
(6.92776 -1.66037 6.64985e-24)
(6.92747 -1.67745 -3.39047e-18)
(6.92708 -1.69392 3.19556e-24)
(6.92658 -1.7098 -1.60455e-18)
(6.92607 -1.72512 -1.56149e-18)
(6.92553 -1.73991 -2.85191e-24)
(6.92502 -1.7542 1.47942e-18)
(6.9245 -1.76802 -1.44021e-18)
(6.924 -1.78139 -1.4021e-18)
(6.92347 -1.79432 0)
(6.92304 -1.80685 -2.65822e-18)
(6.92277 -1.81903 -2.51218e-24)
(6.92263 -1.83088 2.52011e-18)
(6.9225 -1.84238 4.68092e-24)
(6.92239 -1.85354 -2.32085e-24)
(6.92225 -1.86436 1.16337e-18)
(6.92205 -1.87488 1.13286e-18)
(6.92171 -1.88506 1.10321e-18)
(5.94826 -4.27648 -3.97176e-18)
(4.94189 -3.95593 -4.37221e-18)
(3.57434 -3.25156 0)
(1.73017 -1.83289 5.01339e-18)
(-0.562579 0.806498 3.44599e-23)
(-2.75224 5.13672 -3.49088e-23)
(-4.04557 12.6972 -1.13096e-18)
(-1.66769 21.5134 -2.23545e-19)
(4.91456 27.6378 3.29056e-23)
(12.9573 28.2766 -2.74336e-23)
(18.7165 24.0089 9.33363e-18)
(20.4854 18.0437 0)
(19.5967 12.866 7.66042e-18)
(18.0045 9.24652 -7.33345e-18)
(16.5369 6.84608 7.14434e-18)
(15.3171 5.20933 2.73913e-23)
(14.2989 4.0412 -6.73396e-18)
(13.4243 3.17179 -3.2414e-18)
(12.6624 2.50468 3.11284e-18)
(11.9947 1.98087 0)
(11.4047 1.56138 2.86235e-18)
(10.8821 1.22 -2.74332e-18)
(10.4203 0.938419 1.3146e-18)
(10.0141 0.703283 4.90999e-24)
(9.65909 0.504534 1.20758e-18)
(9.35192 0.334637 -4.50177e-24)
(9.08841 0.187415 -5.54514e-19)
(8.8641 0.0582873 2.65665e-19)
(8.67604 -0.0564449 2.54532e-19)
(8.52028 -0.159784 -4.87698e-19)
(8.39401 -0.253932 -4.67171e-19)
(8.29348 -0.340903 1.62756e-24)
(8.21403 -0.421922 -3.32292e-24)
(8.15337 -0.498182 3.83061e-26)
(8.10802 -0.570484 -1.57424e-18)
(8.07563 -0.639443 0)
(8.05389 -0.705594 0)
(8.0416 -0.769304 2.22894e-24)
(8.03746 -0.83096 4.14216e-24)
(8.03834 -0.890562 2.55643e-18)
(8.04254 -0.948171 -2.4555e-18)
(8.04956 -1.00399 -2.35981e-18)
(8.05898 -1.05812 -3.21288e-24)
(8.07034 -1.11065 -1.0511e-24)
(8.08369 -1.16172 4.06383e-24)
(8.09801 -1.21128 2.02346e-18)
(8.1114 -1.25916 1.94986e-18)
(8.12305 -1.30526 0)
(8.13338 -1.34969 0)
(8.14265 -1.39254 3.50138e-18)
(8.15108 -1.43386 4.2297e-24)
(8.15878 -1.47375 2.04585e-24)
(8.16594 -1.51225 3.15862e-18)
(8.17317 -1.54952 -3.05487e-18)
(8.18022 -1.58555 5.91178e-18)
(8.18594 -1.62016 1.32249e-24)
(8.19005 -1.6533 0)
(8.19288 -1.68508 -5.37049e-18)
(8.19483 -1.7156 -2.60284e-18)
(8.19618 -1.74495 -5.04783e-18)
(8.19723 -1.77321 -2.44819e-18)
(8.19799 -1.80042 -2.37565e-18)
(8.19858 -1.82664 -2.30596e-18)
(8.19925 -1.85196 -8.54246e-24)
(8.20032 -1.87649 1.78179e-24)
(8.20195 -1.90029 -4.22523e-18)
(8.20367 -1.9233 2.05297e-18)
(8.20498 -1.94543 -1.9956e-18)
(8.20585 -1.96669 1.94023e-18)
(8.20633 -1.98712 3.77396e-18)
(8.20662 -2.00682 0)
(8.20676 -2.02581 0)
(8.20683 -2.04413 1.7378e-18)
(8.20685 -2.06182 -3.27894e-24)
(8.20687 -2.07891 -3.29254e-18)
(8.20687 -2.09545 3.20509e-18)
(8.20686 -2.11144 1.56006e-18)
(8.20682 -2.12692 2.84742e-24)
(8.2069 -2.14193 -1.13807e-24)
(8.20723 -2.15654 0)
(8.20773 -2.17076 -1.40163e-18)
(8.20825 -2.18457 -2.65041e-24)
(8.20876 -2.19797 2.48811e-24)
(8.2092 -2.21098 1.29377e-18)
(8.20956 -2.22361 0)
(8.20971 -2.23584 -1.59034e-24)
(6.74555 -4.84762 4.44986e-18)
(5.55368 -4.44229 4.90542e-18)
(3.94986 -3.5873 3.97653e-23)
(1.8185 -1.91489 -3.5922e-23)
(-0.786737 1.12854 -3.8453e-23)
(-3.21281 6.02065 1.16412e-23)
(-4.56163 14.3748 2.46375e-18)
(-1.8466 24.0546 9.57876e-19)
(5.50794 30.9068 0)
(14.5016 31.639 -7.96312e-23)
(20.9997 26.9426 -8.74677e-18)
(23.074 20.3341 8.80228e-25)
(22.2095 14.59 -6.41627e-18)
(20.5552 10.5625 0)
(19.0335 7.88372 -5.78996e-18)
(17.7735 6.04753 -4.46367e-23)
(16.7179 4.72694 5.55764e-18)
(15.8025 3.73531 5.43962e-18)
(14.994 2.9672 -1.98036e-23)
(14.2737 2.35833 2.04027e-23)
(13.6253 1.86634 -2.54906e-18)
(13.0389 1.4626 2.49485e-18)
(12.5085 1.12719 -2.44146e-18)
(12.0302 0.845492 0)
(11.6008 0.606502 -2.33403e-18)
(11.2184 0.401893 0)
(10.8805 0.224781 1.11059e-18)
(10.5838 0.0699429 -1.35117e-19)
(10.3267 -0.0668864 -2.62579e-19)
(10.1061 -0.189278 2.01656e-24)
(9.92028 -0.299899 3.70584e-24)
(9.7659 -0.401258 -3.69922e-24)
(9.63864 -0.494972 9.21412e-19)
(9.5363 -0.582576 1.77751e-18)
(9.45526 -0.6652 1.71286e-18)
(9.39288 -0.743688 6.38689e-24)
(9.34646 -0.818794 0)
(9.31434 -0.891037 1.52712e-18)
(9.29477 -0.960938 5.8755e-18)
(9.28404 -1.02857 -1.18069e-23)
(9.27988 -1.09405 2.71805e-18)
(9.28127 -1.15763 2.61499e-18)
(9.2874 -1.21942 -2.51637e-18)
(9.29743 -1.27954 2.42213e-18)
(9.31108 -1.33813 -2.33211e-18)
(9.32698 -1.39513 -2.24626e-18)
(9.34283 -1.45034 -2.16464e-18)
(9.35741 -1.50363 2.19113e-25)
(9.37096 -1.55508 7.78703e-24)
(9.3836 -1.60478 -3.88566e-18)
(9.39546 -1.65278 3.75179e-18)
(9.4066 -1.69916 7.01628e-24)
(9.41714 -1.74397 -1.85885e-25)
(9.42771 -1.78738 3.38682e-18)
(9.438 -1.82936 -3.27622e-18)
(9.44671 -1.8697 1.14057e-23)
(9.45344 -1.90835 0)
(9.45854 -1.94541 2.97443e-18)
(9.46248 -1.981 -5.92872e-24)
(9.46562 -2.01521 2.79489e-18)
(9.46832 -2.04817 2.71066e-18)
(9.47062 -2.07992 -4.94372e-24)
(9.47269 -2.11051 2.5525e-18)
(9.47484 -2.14008 9.45442e-24)
(9.47747 -2.16875 -4.81255e-18)
(9.48075 -2.19658 2.33735e-18)
(9.48409 -2.22349 2.27096e-18)
(9.48689 -2.24938 4.14577e-24)
(9.48907 -2.27424 -4.29125e-18)
(9.4907 -2.29813 -2.0865e-18)
(9.49204 -2.32116 0)
(9.49315 -2.34336 1.97422e-18)
(9.49412 -2.36477 -1.18098e-25)
(9.49498 -2.38544 -3.62416e-24)
(9.49582 -2.40543 3.63885e-18)
(9.4966 -2.42476 -3.54188e-18)
(9.49736 -2.44346 0)
(9.49806 -2.46157 0)
(9.49894 -2.47914 1.63358e-18)
(9.50017 -2.49628 -1.59026e-18)
(9.50164 -2.51298 -1.54807e-18)
(9.50314 -2.5292 0)
(9.50457 -2.54495 0)
(9.50589 -2.56022 -2.72462e-24)
(9.50709 -2.57506 0)
(9.50798 -2.58942 -1.35402e-18)
(7.47897 -5.37177 4.97759e-18)
(6.09272 -4.86875 5.49374e-18)
(4.24821 -3.85009 9.19264e-23)
(1.83725 -1.91817 -1.44787e-22)
(-1.05465 1.51501 -8.53386e-23)
(-3.67432 6.91639 1.1361e-22)
(-5.02789 15.9196 -1.3331e-18)
(-1.99562 26.3077 -2.58329e-19)
(6.0492 33.8578 7.43119e-23)
(15.8963 34.6725 -5.65374e-23)
(23.0587 29.5911 0)
(25.3951 22.3923 0)
(24.5214 16.1199 -5.48425e-18)
(22.7784 11.7127 -3.67031e-23)
(21.1887 8.7815 2.19419e-24)
(19.892 6.77186 6.96232e-23)
(18.8179 5.32326 -3.50795e-23)
(17.8912 4.23102 -9.39385e-23)
(17.0729 3.38021 0)
(16.3413 2.70128 2.13979e-18)
(15.6781 2.14866 0)
(15.0718 1.69164 7.89534e-24)
(14.5152 1.30891 1.05384e-18)
(14.0039 0.985005 1.05151e-18)
(13.5346 0.708314 1.04927e-18)
(13.1059 0.470148 7.98922e-24)
(12.716 0.263263 -5.20761e-19)
(12.363 0.0822018 1.29325e-19)
(12.0466 -0.0775856 1.28135e-19)
(11.7656 -0.219981 1.01266e-18)
(11.5195 -0.347922 -4.98602e-19)
(11.3068 -0.464297 3.67761e-24)
(11.1245 -0.571041 -9.57948e-19)
(10.9713 -0.670061 -1.427e-23)
(10.8445 -0.762785 7.04704e-24)
(10.7417 -0.850367 1.76665e-18)
(10.6604 -0.933821 -1.30682e-23)
(10.5989 -1.01386 6.41266e-24)
(10.5552 -1.09121 -3.20173e-18)
(10.5252 -1.16605 -1.03353e-23)
(10.5061 -1.23861 -1.12203e-23)
(10.4965 -1.3092 2.19455e-23)
(10.4949 -1.37797 -1.07235e-23)
(10.5001 -1.44507 0)
(10.5114 -1.51066 5.14844e-18)
(10.527 -1.57466 9.33561e-24)
(10.5441 -1.63685 -9.24979e-24)
(10.561 -1.69706 8.67667e-24)
(10.5776 -1.75535 -2.33688e-25)
(10.5939 -1.81179 -8.30073e-24)
(10.6096 -1.86639 0)
(10.6248 -1.91923 -8.00146e-18)
(10.6394 -1.97034 0)
(10.654 -2.01988 0)
(10.6682 -2.06783 6.79455e-24)
(10.6806 -2.11395 3.4948e-18)
(10.6908 -2.15815 -6.36229e-24)
(10.6989 -2.20054 6.33944e-24)
(10.7055 -2.24125 6.34911e-18)
(10.7111 -2.28039 0)
(10.7161 -2.31811 -2.98375e-18)
(10.7206 -2.35444 1.08813e-23)
(10.7247 -2.38947 -1.08732e-23)
(10.7289 -2.42335 -2.7259e-18)
(10.7336 -2.45621 2.64626e-18)
(10.7391 -2.48813 9.95202e-24)
(10.7445 -2.519 -6.10348e-24)
(10.7493 -2.54871 0)
(10.7532 -2.57723 5.72731e-24)
(10.7564 -2.60463 8.60775e-24)
(10.7592 -2.63103 -8.63785e-24)
(10.7616 -2.65648 -2.16792e-18)
(10.7638 -2.68104 -7.91703e-24)
(10.7659 -2.70474 7.95729e-24)
(10.7678 -2.72765 -1.99712e-18)
(10.7697 -2.74982 1.94364e-18)
(10.7715 -2.77128 7.33949e-24)
(10.7732 -2.79205 0)
(10.7752 -2.81225 0)
(10.7777 -2.83197 1.74428e-18)
(10.7805 -2.85122 1.69765e-18)
(10.7833 -2.86992 -1.65232e-18)
(10.786 -2.88807 0)
(10.7885 -2.90568 -4.34001e-24)
(10.7908 -2.92277 0)
(10.7927 -2.93932 0)
(8.12595 -5.83241 3.26212e-22)
(6.53945 -5.21922 -6.13835e-18)
(4.456 -4.02717 9.94315e-23)
(1.78304 -1.83839 -6.99731e-18)
(-1.35752 1.95492 -9.40566e-23)
(-4.1216 7.79716 5.43434e-18)
(-5.42861 17.287 -2.87179e-18)
(-2.11215 28.232 -2.75168e-19)
(6.53917 36.4777 -8.05438e-23)
(17.14 37.3796 -4.9315e-18)
(24.9282 32.0043 8.1411e-18)
(27.5219 24.2842 6.06808e-18)
(26.6287 17.5195 4.87461e-18)
(24.7763 12.75 6.69769e-23)
(23.0954 9.57817 0)
(21.7444 7.40681 -3.77179e-18)
(20.6425 5.84251 2.71174e-23)
(19.7035 4.66198 -1.06974e-22)
(18.8815 3.74017 -5.37595e-23)
(18.1509 3.002 -1.74275e-18)
(17.4912 2.39849 1.35902e-23)
(16.8884 1.8967 1.30029e-23)
(16.3334 1.47391 8.76121e-19)
(15.8201 1.11367 -8.84855e-19)
(15.3435 0.803816 6.70748e-24)
(14.9011 0.535308 -7.06338e-24)
(14.4905 0.300698 0)
(14.1094 0.094449 -1.1652e-19)
(13.7579 -0.0880319 1.1779e-19)
(13.4353 -0.250676 -9.50063e-19)
(13.1425 -0.396478 9.54594e-19)
(12.8796 -0.528476 3.70419e-24)
(12.6453 -0.648754 0)
(12.4401 -0.759464 1.88979e-18)
(12.2629 -0.862307 -1.86717e-18)
(12.1128 -0.958701 -1.83732e-18)
(11.9881 -1.04996 1.39472e-23)
(11.888 -1.13705 1.75997e-18)
(11.8107 -1.22091 1.29011e-23)
(11.7524 -1.30195 -3.3332e-18)
(11.7102 -1.38053 1.25105e-23)
(11.6822 -1.45708 1.17825e-23)
(11.6667 -1.53183 -3.02861e-18)
(11.6619 -1.60497 2.9263e-18)
(11.6666 -1.67669 -1.17467e-23)
(11.6785 -1.74694 1.02592e-23)
(11.6945 -1.81546 -1.01737e-23)
(11.7122 -1.88208 9.54793e-24)
(11.731 -1.9468 8.95362e-24)
(11.7505 -2.00963 -1.82705e-23)
(11.7702 -2.07059 -1.71518e-23)
(11.7897 -2.12969 8.80054e-18)
(11.8088 -2.18695 0)
(11.828 -2.24251 -1.5443e-23)
(11.8469 -2.29632 1.53484e-23)
(11.8637 -2.34814 2.84556e-23)
(11.878 -2.39785 -1.43625e-23)
(11.89 -2.44554 0)
(11.9001 -2.49136 -6.9607e-18)
(11.9089 -2.53542 -3.37237e-18)
(11.9169 -2.57787 3.26897e-18)
(11.9242 -2.61879 1.19176e-23)
(11.931 -2.65825 -3.45865e-25)
(11.9378 -2.69642 5.96709e-18)
(11.9452 -2.73347 -2.89533e-18)
(11.9533 -2.76947 0)
(11.9613 -2.80429 -2.729e-18)
(11.9685 -2.83782 0)
(11.9747 -2.86999 2.57571e-18)
(11.9799 -2.90091 -2.50366e-18)
(11.9845 -2.93069 0)
(11.9887 -2.95939 0)
(11.9925 -2.98708 -2.30255e-18)
(11.996 -3.0138 8.68549e-24)
(11.9994 -3.03964 8.17787e-24)
(12.0027 -3.06465 2.12079e-18)
(12.0058 -3.08886 -8.00706e-24)
(12.0089 -3.11231 0)
(12.0124 -3.13515 0)
(12.0165 -3.15749 0)
(12.0209 -3.17931 -1.85027e-18)
(12.0254 -3.20052 1.35296e-23)
(12.0297 -3.2211 -6.80644e-24)
(12.0337 -3.24106 -1.70482e-18)
(12.0375 -3.26044 -6.21055e-24)
(12.0407 -3.27919 1.23213e-23)
(8.66579 -6.21433 4.46386e-22)
(6.87773 -5.48035 -6.83844e-18)
(4.5653 -4.11077 -7.40549e-18)
(1.65936 -1.67873 1.16885e-22)
(-1.68041 2.42908 0)
(-4.53796 8.63316 -1.16964e-17)
(-5.75644 18.4448 1.53315e-18)
(-2.19189 29.8041 -2.91706e-19)
(6.96808 38.7317 0)
(18.2285 39.7363 5.34007e-18)
(26.6481 34.2264 -1.6538e-17)
(29.5208 26.0685 -5.5809e-21)
(28.6176 18.8458 -6.98588e-23)
(26.646 13.7245 0)
(24.8544 10.3157 3.48306e-18)
(23.4292 7.98609 3.26937e-18)
(22.2825 6.31054 4.92079e-23)
(21.3183 5.04697 -1.5128e-18)
(20.4834 4.05978 2.19935e-23)
(19.7482 3.26804 -4.45223e-23)
(19.0898 2.61926 2.26305e-23)
(18.4923 2.07818 1.08077e-23)
(17.9449 1.6205 -7.28503e-19)
(17.4398 1.22874 5.51938e-24)