/*--------------------------------*- C++ -*----------------------------------*\
| =========                 |                                                 |
| \\      /  F ield         | OpenFOAM: The Open Source CFD Toolbox           |
|  \\    /   O peration     | Version:  2412                                  |
|   \\  /    A nd           | Website:  www.openfoam.com                      |
|    \\/     M anipulation  |                                                 |
\*---------------------------------------------------------------------------*/
FoamFile
{
    version     2.0;
    format      ascii;
    arch        "LSB;label=32;scalar=64";
    class       volScalarField;
    location    "140";
    object      nut;
}
// * * * * * * * * * * * * * * * * * * * * * * * * * * * * * * * * * * * * * //

dimensions      [0 2 -1 0 0 0 0];

internalField   nonuniform List<scalar> 
7373
(
1.90207e-11
1.90192e-11
1.90148e-11
1.90072e-11
1.8995e-11
1.8979e-11
1.89598e-11
1.89359e-11
1.89081e-11
1.8877e-11
1.88405e-11
1.87986e-11
1.87508e-11
1.8698e-11
1.8639e-11
1.85724e-11
1.84984e-11
1.84167e-11
1.83268e-11
1.82284e-11
1.81199e-11
1.80001e-11
1.78691e-11
1.77271e-11
1.75729e-11
1.74049e-11
1.72218e-11
1.70242e-11
1.68112e-11
1.65804e-11
1.63331e-11
1.6067e-11
1.57804e-11
1.54741e-11
1.51473e-11
1.47976e-11
1.44248e-11
1.40288e-11
1.36086e-11
1.31633e-11
1.26929e-11
1.21976e-11
1.16781e-11
1.11349e-11
1.05691e-11
9.98165e-12
9.3758e-12
8.75566e-12
8.12542e-12
7.49279e-12
6.8681e-12
6.26087e-12
5.68115e-12
5.13095e-12
4.60184e-12
4.07416e-12
3.51294e-12
2.87104e-12
2.10607e-12
1.22467e-12
4.07382e-13
3.34973e-14
1.22483e-14
7.67389e-13
7.96733e-12
3.89694e-11
1.37335e-10
3.21179e-10
1.81895e-09
1.81879e-09
1.81825e-09
1.81738e-09
1.8162e-09
1.81464e-09
1.81268e-09
1.81033e-09
1.80763e-09
1.80453e-09
1.80092e-09
1.79686e-09
1.79227e-09
1.78713e-09
1.78134e-09
1.77487e-09
1.76774e-09
1.75984e-09
1.75114e-09
1.74161e-09
1.73115e-09
1.71961e-09
1.70701e-09
1.69331e-09
1.67845e-09
1.66229e-09
1.64466e-09
1.62567e-09
1.60516e-09
1.58295e-09
1.55916e-09
1.5336e-09
1.50609e-09
1.47665e-09
1.44524e-09
1.41168e-09
1.3759e-09
1.33787e-09
1.29751e-09
1.25475e-09
1.2096e-09
1.16206e-09
1.11218e-09
1.06e-09
1.00564e-09
9.49212e-10
8.91006e-10
8.31399e-10
7.70789e-10
7.09917e-10
6.49757e-10
5.91216e-10
5.35258e-10
4.82082e-10
4.30906e-10
3.79888e-10
3.25793e-10
2.64354e-10
1.91996e-10
1.10126e-10
3.60961e-11
2.98775e-12
1.17432e-12
6.74134e-11
6.64578e-10
3.1569e-09
1.07879e-08
2.54344e-08
1.7667e-08
1.76644e-08
1.76577e-08
1.7648e-08
1.76352e-08
1.7619e-08
1.75988e-08
1.75751e-08
1.75476e-08
1.7516e-08
1.74799e-08
1.74393e-08
1.73934e-08
1.73421e-08
1.72844e-08
1.72205e-08
1.71501e-08
1.70721e-08
1.69862e-08
1.68921e-08
1.6789e-08
1.66757e-08
1.6552e-08
1.64173e-08
1.62714e-08
1.61125e-08
1.59401e-08
1.5754e-08
1.55527e-08
1.53356e-08
1.51028e-08
1.48526e-08
1.45836e-08
1.42958e-08
1.39887e-08
1.36604e-08
1.33107e-08
1.29388e-08
1.25443e-08
1.21264e-08
1.16852e-08
1.12205e-08
1.07327e-08
1.02222e-08
9.69025e-09
9.13771e-09
8.56764e-09
7.98309e-09
7.38838e-09
6.79049e-09
6.1982e-09
5.62102e-09
5.06824e-09
4.54158e-09
4.03421e-09
3.52915e-09
2.99681e-09
2.40022e-09
1.71317e-09
9.60974e-10
3.08652e-10
2.60005e-11
1.13765e-11
5.69283e-10
5.21361e-09
2.3705e-08
7.74329e-08
1.85614e-07
8.60745e-08
8.60542e-08
8.6014e-08
8.59599e-08
8.58896e-08
8.58031e-08
8.56985e-08
8.5576e-08
8.5435e-08
8.5273e-08
8.50901e-08
8.48841e-08
8.46534e-08
8.43954e-08
8.41073e-08
8.3789e-08
8.3438e-08
8.30509e-08
8.26255e-08
8.21588e-08
8.1648e-08
8.10888e-08
8.04783e-08
7.98147e-08
7.90949e-08
7.83126e-08
7.74646e-08
7.65495e-08
7.55609e-08
7.44956e-08
7.33515e-08
7.21223e-08
7.08025e-08
6.93909e-08
6.78823e-08
6.6272e-08
6.45549e-08
6.27308e-08
6.0794e-08
5.87433e-08
5.6577e-08
5.42951e-08
5.18984e-08
4.93898e-08
4.67724e-08
4.40532e-08
4.12437e-08
3.83591e-08
3.54207e-08
3.24593e-08
2.95189e-08
2.6648e-08
2.38906e-08
2.12562e-08
1.87168e-08
1.61971e-08
1.3567e-08
1.06761e-08
7.44876e-09
4.06438e-09
1.27564e-09
1.09958e-10
5.51185e-11
2.32505e-09
1.95875e-08
8.46562e-08
2.61746e-07
6.32679e-07
2.98023e-07
2.97923e-07
2.97751e-07
2.9753e-07
2.97255e-07
2.96925e-07
2.96533e-07
2.96079e-07
2.9556e-07
2.9497e-07
2.94306e-07
2.93561e-07
2.9273e-07
2.91807e-07
2.90783e-07
2.89653e-07
2.88407e-07
2.87039e-07
2.85537e-07
2.83892e-07
2.82096e-07
2.80132e-07
2.77992e-07
2.75669e-07
2.73148e-07
2.70412e-07
2.67453e-07
2.64258e-07
2.60809e-07
2.57093e-07
2.53102e-07
2.48816e-07
2.44216e-07
2.39296e-07
2.34037e-07
2.28421e-07
2.22437e-07
2.16075e-07
2.09321e-07
2.02166e-07
1.94605e-07
1.86637e-07
1.78264e-07
1.69489e-07
1.60326e-07
1.50796e-07
1.40932e-07
1.30788e-07
1.20432e-07
1.09966e-07
9.95453e-08
8.93447e-08
7.95195e-08
7.01088e-08
6.10461e-08
5.21099e-08
4.29132e-08
3.30579e-08
2.24645e-08
1.18888e-08
3.64175e-09
3.22212e-10
1.89119e-10
6.56822e-09
5.05316e-08
2.06227e-07
5.98254e-07
1.44503e-06
8.37743e-07
8.37344e-07
8.36748e-07
8.36013e-07
8.35128e-07
8.34094e-07
8.32885e-07
8.31501e-07
8.29936e-07
8.28177e-07
8.26207e-07
8.24009e-07
8.21574e-07
8.18882e-07
8.1591e-07
8.12638e-07
8.09043e-07
8.05109e-07
8.00799e-07
7.96092e-07
7.9096e-07
7.85364e-07
7.79276e-07
7.72673e-07
7.65515e-07
7.57761e-07
7.49378e-07
7.40331e-07
7.30573e-07
7.20068e-07
7.08786e-07
6.96668e-07
6.83675e-07
6.69766e-07
6.54901e-07
6.39029e-07
6.22116e-07
6.04122e-07
5.85015e-07
5.64762e-07
5.43347e-07
5.20761e-07
4.97001e-07
4.7207e-07
4.46004e-07
4.18843e-07
3.90679e-07
3.61647e-07
3.31928e-07
3.01796e-07
2.71696e-07
2.4216e-07
2.13638e-07
1.86284e-07
1.60034e-07
1.34408e-07
1.0853e-07
8.163e-08
5.39076e-08
2.76284e-08
8.25397e-09
7.51397e-10
5.24872e-10
1.47496e-08
1.02848e-07
3.93443e-07
1.0616e-06
2.54658e-06
2.03613e-06
2.03478e-06
2.03297e-06
2.03083e-06
2.02832e-06
2.02546e-06
2.02218e-06
2.01848e-06
2.01435e-06
2.00974e-06
2.00463e-06
1.99898e-06
1.99276e-06
1.98592e-06
1.97841e-06
1.97018e-06
1.96118e-06
1.95136e-06
1.94064e-06
1.92897e-06
1.91628e-06
1.90248e-06
1.8875e-06
1.87128e-06
1.85372e-06
1.83473e-06
1.81422e-06
1.79212e-06
1.76829e-06
1.74267e-06
1.71514e-06
1.68559e-06
1.65391e-06
1.62e-06
1.58376e-06
1.54506e-06
1.50379e-06
1.45988e-06
1.41322e-06
1.36373e-06
1.31136e-06
1.25606e-06
1.1978e-06
1.13658e-06
1.07245e-06
1.00548e-06
9.3587e-07
8.63913e-07
7.90017e-07
7.14827e-07
6.39488e-07
5.65394e-07
4.93731e-07
4.25049e-07
3.59578e-07
2.96545e-07
2.34327e-07
1.71785e-07
1.10094e-07
5.45868e-08
1.58962e-08
1.49322e-09
1.2561e-09
2.81738e-08
1.76507e-07
6.27566e-07
1.56121e-06
3.70976e-06
4.41586e-06
4.41183e-06
4.40682e-06
4.40111e-06
4.39462e-06
4.38736e-06
4.37925e-06
4.37025e-06
4.36032e-06
4.3494e-06
4.3374e-06
4.32426e-06
4.3099e-06
4.29424e-06
4.27716e-06
4.25855e-06
4.23834e-06
4.21636e-06
4.1925e-06
4.16663e-06
4.13858e-06
4.10819e-06
4.07533e-06
4.03981e-06
4.00145e-06
3.96004e-06
3.9154e-06
3.86734e-06
3.81563e-06
3.76004e-06
3.70035e-06
3.63632e-06
3.56767e-06
3.49421e-06
3.41566e-06
3.33179e-06
3.24231e-06
3.14703e-06
3.04571e-06
2.93815e-06
2.82417e-06
2.70364e-06
2.57644e-06
2.4425e-06
2.30184e-06
2.15457e-06
2.00102e-06
1.84179e-06
1.67768e-06
1.51009e-06
1.34167e-06
1.17579e-06
1.0153e-06
8.61925e-07
7.17087e-07
5.7994e-07
4.47895e-07
3.19673e-07
1.98606e-07
9.51649e-08
2.70024e-08
2.62874e-09
2.68465e-09
4.7513e-08
2.64722e-07
8.66052e-07
1.98282e-06
4.63473e-06
8.65947e-06
8.64867e-06
8.63607e-06
8.62219e-06
8.6068e-06
8.58996e-06
8.57153e-06
8.55143e-06
8.5296e-06
8.50589e-06
8.48015e-06
8.45225e-06
8.42207e-06
8.38945e-06
8.35416e-06
8.31601e-06
8.27481e-06
8.23033e-06
8.18231e-06
8.13051e-06
8.07463e-06
8.01435e-06
7.94939e-06
7.87942e-06
7.80408e-06
7.72299e-06
7.63574e-06
7.54197e-06
7.44122e-06
7.33302e-06
7.21694e-06
7.09247e-06
6.95907e-06
6.81629e-06
6.66359e-06
6.50042e-06
6.32625e-06
6.14061e-06
5.94296e-06
5.73279e-06
5.5097e-06
5.27326e-06
5.02309e-06
4.75891e-06
4.48057e-06
4.18812e-06
3.88206e-06
3.56343e-06
3.23368e-06
2.89557e-06
2.55488e-06
2.21891e-06
1.894e-06
1.58475e-06
1.29583e-06
1.027e-06
7.74583e-07
5.37692e-07
3.23441e-07
1.49577e-07
4.13513e-08
4.20033e-09
5.23336e-09
7.23278e-08
3.54227e-07
1.05307e-06
2.22658e-06
5.0574e-06
1.54203e-05
1.53953e-05
1.53673e-05
1.53371e-05
1.53045e-05
1.52694e-05
1.52317e-05
1.51912e-05
1.51477e-05
1.51011e-05
1.50512e-05
1.49976e-05
1.49402e-05
1.48787e-05
1.48127e-05
1.4742e-05
1.46662e-05
1.4585e-05
1.44978e-05
1.44043e-05
1.43039e-05
1.41962e-05
1.40807e-05
1.39567e-05
1.38236e-05
1.36808e-05
1.35276e-05
1.33632e-05
1.31869e-05
1.29978e-05
1.2795e-05
1.25777e-05
1.23449e-05
1.20955e-05
1.18288e-05
1.15435e-05
1.12386e-05
1.09132e-05
1.05662e-05
1.01963e-05
9.80273e-06
9.38429e-06
8.94001e-06
8.46902e-06
7.97061e-06
7.44452e-06
6.89128e-06
6.31243e-06
5.71028e-06
5.08994e-06
4.46271e-06
3.84301e-06
3.24376e-06
2.67554e-06
2.15006e-06
1.66921e-06
1.22852e-06
8.28426e-07
4.81687e-07
2.1463e-07
5.78543e-08
6.19489e-09
9.43035e-09
1.00803e-07
4.28394e-07
1.13823e-06
2.2386e-06
4.84617e-06
1.29e-05
2.50746e-05
2.50247e-05
2.49705e-05
2.4913e-05
2.48518e-05
2.47868e-05
2.47179e-05
2.46449e-05
2.45674e-05
2.44851e-05
2.43977e-05
2.43049e-05
2.42064e-05
2.41017e-05
2.39903e-05
2.38717e-05
2.37456e-05
2.36111e-05
2.34678e-05
2.3315e-05
2.31519e-05
2.29776e-05
2.27915e-05
2.25926e-05
2.23798e-05
2.21522e-05
2.19087e-05
2.16479e-05
2.13686e-05
2.10694e-05
2.07489e-05
2.04055e-05
2.00376e-05
1.96436e-05
1.92217e-05
1.87702e-05
1.8287e-05
1.77704e-05
1.72182e-05
1.66284e-05
1.59986e-05
1.53268e-05
1.46105e-05
1.38476e-05
1.30361e-05
1.21748e-05
1.12638e-05
1.03049e-05
9.30127e-06
8.26117e-06
7.20462e-06
6.1574e-06
5.14336e-06
4.18409e-06
3.3046e-06
2.51201e-06
1.80213e-06
1.1784e-06
6.60768e-07
2.83129e-07
7.45783e-08
8.54493e-09
1.58502e-08
1.29919e-07
4.72609e-07
1.10694e-06
2.0302e-06
4.0637e-06
1.17606e-05
2.45296e-05
3.76114e-05
3.75243e-05
3.74317e-05
3.73345e-05
3.7232e-05
3.71244e-05
3.70113e-05
3.68925e-05
3.67677e-05
3.66361e-05
3.64975e-05
3.63514e-05
3.61973e-05
3.60348e-05
3.5863e-05
3.56813e-05
3.54891e-05
3.52856e-05
3.50697e-05
3.48407e-05
3.45975e-05
3.43388e-05
3.40636e-05
3.37706e-05
3.34583e-05
3.31252e-05
3.27695e-05
3.23895e-05
3.19832e-05
3.15484e-05
3.1083e-05
3.05847e-05
3.00508e-05
2.94789e-05
2.88662e-05
2.82097e-05
2.75065e-05
2.67532e-05
2.59463e-05
2.50821e-05
2.41566e-05
2.31655e-05
2.21043e-05
2.09686e-05
1.9754e-05
1.84573e-05
1.70771e-05
1.56149e-05
1.40739e-05
1.24664e-05
1.08241e-05
9.189e-06
7.60124e-06
6.10047e-06
4.73426e-06
3.52029e-06
2.45731e-06
1.55405e-06
8.37762e-07
3.44519e-07
8.91097e-08
1.11568e-08
2.50087e-08
1.56171e-07
4.79809e-07
9.81476e-07
1.672e-06
2.96145e-06
9.13239e-06
2.11942e-05
5.59674e-05
5.26855e-05
5.25493e-05
5.24065e-05
5.22577e-05
5.2102e-05
5.19397e-05
5.17703e-05
5.15934e-05
5.14087e-05
5.12153e-05
5.10128e-05
5.08005e-05
5.05779e-05
5.03444e-05
5.0099e-05
4.98408e-05
4.95689e-05
4.92824e-05
4.898e-05
4.86606e-05
4.83228e-05
4.7965e-05
4.75856e-05
4.71831e-05
4.67553e-05
4.63001e-05
4.58152e-05
4.52982e-05
4.47461e-05
4.41561e-05
4.35251e-05
4.28497e-05
4.21263e-05
4.13511e-05
4.05201e-05
3.96292e-05
3.86736e-05
3.76484e-05
3.6548e-05
3.53665e-05
3.40973e-05
3.27332e-05
3.12667e-05
2.96896e-05
2.79941e-05
2.61735e-05
2.42238e-05
2.21445e-05
1.99379e-05
1.76205e-05
1.52386e-05
1.28546e-05
1.05315e-05
8.33578e-06
6.34988e-06
4.61006e-06
3.12221e-06
1.90258e-06
9.82236e-07
3.87146e-07
9.9243e-08
1.39697e-08
3.72323e-08
1.76693e-07
4.53409e-07
8.07038e-07
1.26312e-06
1.87382e-06
5.89516e-06
1.5546e-05
5.38243e-05
6.97621e-05
6.95665e-05
6.93635e-05
6.91528e-05
6.89338e-05
6.87066e-05
6.84704e-05
6.82251e-05
6.79701e-05
6.77044e-05
6.74273e-05
6.71382e-05
6.68365e-05
6.65212e-05
6.61913e-05
6.58456e-05
6.54832e-05
6.51028e-05
6.47028e-05
6.42818e-05
6.38381e-05
6.33697e-05
6.28747e-05
6.23509e-05
6.17957e-05
6.12063e-05
6.05797e-05
5.99126e-05
5.92014e-05
5.8442e-05
5.76305e-05
5.67623e-05
5.58326e-05
5.48362e-05
5.37678e-05
5.26213e-05
5.13904e-05
5.00679e-05
4.86459e-05
4.71155e-05
4.5467e-05
4.36894e-05
4.17706e-05
3.96982e-05
3.7459e-05
3.50416e-05
3.24376e-05
2.9643e-05
2.66577e-05
2.35021e-05
2.02396e-05
1.69577e-05
1.37491e-05
1.07182e-05
7.99679e-06
5.65052e-06
3.69713e-06
2.15994e-06
1.06327e-06
4.01888e-07
1.03787e-07
1.70484e-08
5.25654e-08
1.90377e-07
4.05816e-07
6.31764e-07
8.94319e-07
1.05661e-06
3.20113e-06
9.46402e-06
4.73621e-05
8.82741e-05
8.80105e-05
8.77391e-05
8.74583e-05
8.71675e-05
8.68668e-05
8.65554e-05
8.62332e-05
8.58992e-05
8.55525e-05
8.51922e-05
8.48177e-05
8.4428e-05
8.40221e-05
8.35989e-05
8.3157e-05
8.26951e-05
8.22118e-05
8.17052e-05
8.11737e-05
8.06151e-05
8.00271e-05
7.94073e-05
7.87529e-05
7.80609e-05
7.73278e-05
7.65497e-05
7.57226e-05
7.48418e-05
7.39024e-05
7.28991e-05
7.18263e-05
7.06778e-05
6.94469e-05
6.81267e-05
6.67092e-05
6.5186e-05
6.35474e-05
6.17827e-05
5.98797e-05
5.78247e-05
5.56021e-05
5.31946e-05
5.05837e-05
4.775e-05
4.46757e-05
4.13461e-05
3.77525e-05
3.38903e-05
2.97841e-05
2.5517e-05
2.12066e-05
1.69839e-05
1.30043e-05
9.46721e-06
6.47891e-06
4.0711e-06
2.26618e-06
1.05954e-06
3.85858e-07
1.03131e-07
2.07672e-08
7.08027e-08
1.98467e-07
3.53312e-07
4.90083e-07
6.22471e-07
6.81908e-07
1.64338e-06
4.73835e-06
3.70488e-05
0.000107734
0.000107395
0.000107048
0.00010669
0.00010632
0.000105938
0.000105544
0.000105137
0.000104717
0.000104281
0.00010383
0.000103362
0.000102876
0.000102372
0.000101847
0.000101301
0.000100731
0.000100137
9.95152e-05
9.88648e-05
9.81827e-05
9.74665e-05
9.67132e-05
9.59195e-05
9.50817e-05
9.41956e-05
9.32566e-05
9.22598e-05
9.11994e-05
9.00695e-05
8.88637e-05
8.7575e-05
8.61957e-05
8.47177e-05
8.31321e-05
8.14291e-05
7.95979e-05
7.7626e-05
7.54994e-05
7.32023e-05
7.07163e-05
6.80205e-05
6.50914e-05
6.19035e-05
5.84297e-05
5.46444e-05
5.05254e-05
4.60569e-05
4.12292e-05
3.60717e-05
3.06905e-05
2.52406e-05
1.99033e-05
1.49027e-05
1.05253e-05
6.928e-06
4.14882e-06
2.18574e-06
9.69054e-07
3.44285e-07
9.92519e-08
2.81176e-08
9.17354e-08
2.04421e-07
3.10767e-07
3.99301e-07
4.82477e-07
5.42328e-07
1.02276e-06
2.43295e-06
2.47693e-05
0.000127781
0.000127359
0.000126929
0.000126486
0.000126029
0.000125559
0.000125075
0.000124575
0.00012406
0.000123528
0.000122977
0.000122408
0.000121818
0.000121206
0.000120571
0.000119911
0.000119225
0.00011851
0.000117765
0.000116986
0.00011617
0.000115316
0.000114419
0.000113475
0.000112481
0.000111431
0.00011032
0.000109141
0.000107889
0.000106556
0.000105134
0.000103615
0.00010199
0.00010025
9.8382e-05
9.63759e-05
9.42175e-05
9.18916e-05
8.93806e-05
8.66644e-05
8.37195e-05
8.0519e-05
7.70323e-05
7.32258e-05
6.90637e-05
6.45113e-05
5.95373e-05
5.41178e-05
4.82373e-05
4.19321e-05
3.53374e-05
2.86573e-05
2.21411e-05
1.61051e-05
1.09443e-05
6.86574e-06
3.88393e-06
1.92587e-06
8.12989e-07
2.89004e-07
9.5133e-08
4.19798e-08
1.15705e-07
2.13595e-07
2.93274e-07
3.85906e-07
4.68042e-07
5.4152e-07
8.7166e-07
1.46836e-06
1.35665e-05
0.000148176
0.000147663
0.000147142
0.000146606
0.000146054
0.000145487
0.000144903
0.000144302
0.000143683
0.000143044
0.000142385
0.000141703
0.000140999
0.000140269
0.000139514
0.00013873
0.000137916
0.000137069
0.000136188
0.000135268
0.000134308
0.000133302
0.000132248
0.000131141
0.000129976
0.000128747
0.000127449
0.000126072
0.000124611
0.000123057
0.000121401
0.000119633
0.000117743
0.000115718
0.000113546
0.000111212
0.000108701
0.000105993
0.000103067
9.98987e-05
9.64586e-05
9.27128e-05
8.8623e-05
8.41467e-05
7.92381e-05
7.38523e-05
6.79478e-05
6.14919e-05
5.44639e-05
4.69119e-05
3.90115e-05
3.10346e-05
2.33271e-05
1.6329e-05
1.05582e-05
6.24395e-06
3.30897e-06
1.54271e-06
6.29588e-07
2.33988e-07
9.48784e-08
6.58362e-08
1.45156e-07
2.38364e-07
3.30056e-07
4.42978e-07
5.40583e-07
6.40408e-07
9.43044e-07
1.17414e-06
6.02688e-06
0.000168773
0.000168158
0.000167537
0.000166897
0.00016624
0.000165564
0.00016487
0.000164157
0.000163423
0.000162666
0.000161886
0.000161081
0.000160249
0.000159389
0.0001585
0.000157579
0.000156623
0.00015563
0.000154598
0.000153522
0.0001524
0.000151228
0.00015
0.000148712
0.000147357
0.00014593
0.000144423
0.000142828
0.000141136
0.000139338
0.000137423
0.00013538
0.000133196
0.000130857
0.000128349
0.000125655
0.000122755
0.000119628
0.000116246
0.000112581
0.000108596
0.000104251
9.94985e-05
9.42856e-05
8.85562e-05
8.22539e-05
7.53259e-05
6.77312e-05
5.94469e-05
5.05426e-05
4.12541e-05
3.19544e-05
2.313e-05
1.53789e-05
9.32848e-06
5.14398e-06
2.54351e-06
1.12527e-06
4.59212e-07
1.90926e-07
1.11766e-07
1.04768e-07
1.96949e-07
3.01861e-07
4.18614e-07
5.63058e-07
6.85019e-07
8.24999e-07
1.14208e-06
1.24468e-06
2.99251e-06
0.000189476
0.000188748
0.000188014
0.000187259
0.000186484
0.000185688
0.000184871
0.000184032
0.000183169
0.00018228
0.000181365
0.000180421
0.000179447
0.000178442
0.000177402
0.000176327
0.000175212
0.000174055
0.000172854
0.000171603
0.0001703
0.000168939
0.000167516
0.000166024
0.000164457
0.000162807
0.000161066
0.000159224
0.000157272
0.000155199
0.000152992
0.00015064
0.000148126
0.000145436
0.000142551
0.000139453
0.000136118
0.00013252
0.000128628
0.000124407
0.000119814
0.000114799
0.000109305
0.000103269
9.66227e-05
8.92977e-05
8.12298e-05
7.23712e-05
6.27046e-05
5.23399e-05
4.16084e-05
3.1042e-05
2.13281e-05
1.32382e-05
7.41507e-06
3.78863e-06
1.76061e-06
7.60105e-07
3.30042e-07
1.84749e-07
1.49648e-07
1.65652e-07
2.80649e-07
4.09543e-07
5.60303e-07
7.41628e-07
8.90127e-07
1.08625e-06
1.42579e-06
1.50595e-06
1.98389e-06
0.000215927
0.000215245
0.000214534
0.000213813
0.000213085
0.000212358
0.000211639
0.000210924
0.000210211
0.000209357
0.000208496
0.000207612
0.000206705
0.000205773
0.000204818
0.000203837
0.000202829
0.000201792
0.000200725
0.000199625
0.00019849
0.00019732
0.000196111
0.000194861
0.000193567
0.000192224
0.000190831
0.000189382
0.000187873
0.000186299
0.000184653
0.00018293
0.00018112
0.000179216
0.000177208
0.000175086
0.000172838
0.000170451
0.000167913
0.000165208
0.000162319
0.000159228
0.000155916
0.000152358
0.000148528
0.000144396
0.000139924
0.000135072
0.000129787
0.00012401
0.000117675
0.000110705
0.00010302
9.4539e-05
8.51863e-05
7.49144e-05
6.37268e-05
5.18096e-05
3.96561e-05
2.80488e-05
1.79342e-05
1.01801e-05
5.1981e-06
2.47946e-06
1.1159e-06
4.99727e-07
2.81442e-07
2.13769e-07
2.14645e-07
2.56954e-07
4.04484e-07
5.65884e-07
7.54307e-07
9.70215e-07
1.14059e-06
1.41246e-06
1.75299e-06
1.82919e-06
1.782e-06
0.000237549
0.000236753
0.000235926
0.000235087
0.000234242
0.000233398
0.000232563
0.000231735
0.000230896
0.000229901
0.000228898
0.000227868
0.000226812
0.000225729
0.000224617
0.000223477
0.000222305
0.0002211
0.00021986
0.000218583
0.000217267
0.00021591
0.000214509
0.000213061
0.000211562
0.000210008
0.000208396
0.000206721
0.000204977
0.000203159
0.000201259
0.000199269
0.000197182
0.000194986
0.000192672
0.000190227
0.000187639
0.000184892
0.000181972
0.000178862
0.000175542
0.000171991
0.000168186
0.000164099
0.000159701
0.000154954
0.000149816
0.000144237
0.000138157
0.000131505
0.000124202
0.00011616
0.000107284
9.74805e-05
8.66686e-05
7.48142e-05
6.19759e-05
4.84858e-05
3.51168e-05
2.30211e-05
1.33704e-05
6.8137e-06
3.16887e-06
1.46559e-06
6.92094e-07
3.93952e-07
2.93734e-07
2.79318e-07
3.14476e-07
3.86521e-07
5.73866e-07
7.70888e-07
9.93549e-07
1.23397e-06
1.41638e-06
1.79082e-06
2.06972e-06
2.14744e-06
1.88838e-06
0.000259145
0.000258223
0.000257265
0.000256295
0.000255319
0.000254343
0.000253376
0.000252413
0.000251426
0.000250273
0.00024911
0.000247917
0.000246693
0.000245437
0.00024415
0.000242829
0.000241472
0.000240077
0.000238641
0.000237164
0.000235641
0.000234071
0.000232451
0.000230777
0.000229045
0.00022725
0.000225388
0.000223454
0.00022144
0.000219341
0.000217148
0.000214853
0.000212445
0.000209913
0.000207245
0.000204428
0.000201446
0.000198283
0.000194921
0.000191342
0.000187522
0.000183438
0.000179063
0.000174364
0.000169306
0.000163847
0.000157937
0.000151515
0.00014451
0.000136841
0.000128414
0.000119127
0.000108873
9.75484e-05
8.50782e-05
7.14778e-05
5.69312e-05
4.2055e-05
2.80795e-05
1.65675e-05
8.5606e-06
3.90379e-06
1.696e-06
8.75761e-07
5.17178e-07
3.85122e-07
3.57598e-07
3.86486e-07
4.56036e-07
5.59345e-07
7.8876e-07
1.01752e-06
1.26402e-06
1.51355e-06
1.69616e-06
2.10336e-06
2.30955e-06
2.40419e-06
2.09714e-06
0.000280592
0.000279527
0.000278425
0.00027731
0.000276186
0.000275063
0.000273945
0.000272823
0.000271656
0.000270325
0.000268983
0.000267605
0.000266192
0.000264743
0.000263257
0.000261731
0.000260165
0.000258554
0.000256897
0.000255192
0.000253434
0.000251622
0.000249752
0.00024782
0.000245821
0.000243749
0.000241601
0.000239368
0.000237045
0.000234622
0.000232092
0.000229443
0.000226664
0.000223743
0.000220665
0.000217415
0.000213976
0.000210329
0.000206454
0.000202329
0.000197929
0.000193224
0.000188185
0.000182772
0.000176946
0.000170655
0.000163842
0.000156434
0.000148348
0.000139488
0.000129744
0.000119003
0.000107146
9.40741e-05
7.97514e-05
6.43231e-05
4.82528e-05
3.26781e-05
1.94062e-05
1.00217e-05
4.63005e-06
1.99118e-06
1.00309e-06
6.36629e-07
4.85552e-07
4.47478e-07
4.7253e-07
5.40041e-07
6.42565e-07
7.75145e-07
1.04182e-06
1.29175e-06
1.54723e-06
1.78934e-06
1.96188e-06
2.33567e-06
2.45183e-06
2.58756e-06
2.33473e-06
0.000301704
0.000300481
0.000299218
0.000297941
0.000296655
0.000295365
0.000294072
0.000292764
0.000291389
0.000289861
0.000288317
0.000286732
0.000285106
0.000283438
0.000281727
0.000279971
0.000278167
0.000276312
0.000274404
0.000272439
0.000270414
0.000268326
0.00026617
0.000263943
0.000261638
0.000259249
0.000256771
0.000254195
0.000251514
0.000248718
0.000245797
0.000242738
0.000239529
0.000236156
0.000232601
0.000228848
0.000224877
0.000220666
0.000216193
0.000211432
0.000206353
0.000200923
0.000195106
0.000188859
0.000182131
0.000174865
0.00016699
0.000158422
0.000149061
0.000138796
0.000127502
0.000115056
0.000101347
8.63086e-05
7.00407e-05
5.30049e-05
3.62339e-05
2.15865e-05
1.09948e-05
4.96211e-06
2.25753e-06
1.14431e-06
7.345e-07
5.8907e-07
5.48411e-07
5.72137e-07
6.39346e-07
7.40458e-07
8.71144e-07
1.02673e-06
1.31879e-06
1.57525e-06
1.8244e-06
2.04571e-06
2.20181e-06
2.49939e-06
2.51858e-06
2.72861e-06
2.62647e-06
0.000322238
0.000320839
0.000319398
0.000317942
0.000316472
0.000314993
0.000313502
0.000311977
0.000310368
0.000308621
0.00030685
0.000305031
0.000303166
0.000301253
0.000299288
0.000297271
0.000295198
0.000293066
0.000290872
0.000288612
0.000286282
0.000283879
0.000281398
0.000278832
0.000276176
0.000273422
0.000270564
0.000267593
0.000264498
0.00026127
0.000257895
0.000254361
0.000250653
0.000246753
0.000242642
0.000238302
0.00023371
0.000228841
0.000223668
0.000218162
0.000212288
0.000206008
0.000199278
0.000192048
0.00018426
0.000175843
0.000166713
0.000156771
0.000145899
0.00013397
0.00012085
0.000106425
9.06317e-05
7.35503e-05
5.56439e-05
3.80633e-05
2.26557e-05
1.14305e-05
4.97078e-06
2.34909e-06
1.26981e-06
8.39391e-07
6.89754e-07
6.58583e-07
6.85589e-07
7.54085e-07
8.54396e-07
9.81401e-07
1.13169e-06
1.30037e-06
1.60144e-06
1.84975e-06
2.0805e-06
2.2736e-06
2.41007e-06
2.61422e-06
2.69095e-06
2.86345e-06
2.86629e-06
0.000341879
0.000340286
0.000338649
0.000336993
0.000335317
0.000333624
0.000331906
0.000330135
0.000328266
0.000326273
0.000324248
0.000322168
0.000320034
0.000317842
0.000315592
0.000313279
0.000310902
0.000308456
0.000305937
0.000303341
0.000300664
0.000297901
0.000295046
0.000292092
0.000289032
0.000285859
0.000282562
0.000279133
0.00027556
0.00027183
0.000267929
0.000263842
0.00025955
0.000255036
0.000250277
0.000245251
0.000239932
0.000234292
0.000228299
0.000221918
0.000215109
0.000207828
0.000200022
0.000191632
0.000182587
0.000172805
0.000162184
0.000150606
0.000137937
0.000124042
0.000108803
9.21759e-05
7.42871e-05
5.56603e-05
3.75663e-05
2.21086e-05
1.10991e-05
4.86469e-06
2.31008e-06
1.33506e-06
9.44152e-07
8.008e-07
7.76735e-07
8.12536e-07
8.84312e-07
9.84211e-07
1.10708e-06
1.24955e-06
1.40834e-06
1.57862e-06
1.87198e-06
2.10096e-06
2.30645e-06
2.47079e-06
2.5838e-06
2.70066e-06
2.75588e-06
2.8901e-06
2.9226e-06
0.000360236
0.000358428
0.000356575
0.000354695
0.000352789
0.000350853
0.000348875
0.000346827
0.000344672
0.000342405
0.000340095
0.000337721
0.000335284
0.00033278
0.000330206
0.00032756
0.000324837
0.000322034
0.000319146
0.000316167
0.000313093
0.000309917
0.000306633
0.000303233
0.000299708
0.00029605
0.000292247
0.000288287
0.000284158
0.000279845
0.000275331
0.000270598
0.000265627
0.000260394
0.000254876
0.000249047
0.000242875
0.000236329
0.000229371
0.00022196
0.000214049
0.000205583
0.000196502
0.000186733
0.000176192
0.00016478
0.000152378
0.00013885
0.00012406
0.000107902
9.037e-05
7.16922e-05
5.25861e-05
3.45424e-05
1.96812e-05
9.76697e-06
4.46823e-06
2.22456e-06
1.36294e-06
1.03662e-06
9.21964e-07
9.09096e-07
9.5264e-07
1.02931e-06
1.12888e-06
1.24708e-06
1.3807e-06
1.52707e-06
1.68303e-06
1.84445e-06
2.117e-06
2.32067e-06
2.49891e-06
2.63446e-06
2.72471e-06
2.77726e-06
2.78282e-06
2.85708e-06
2.9013e-06
0.000376826
0.000374781
0.000372687
0.000370558
0.000368392
0.000366181
0.00036391
0.000361552
0.000359082
0.000356508
0.000353878
0.000351174
0.000348395
0.000345538
0.000342599
0.000339574
0.000336459
0.00033325
0.00032994
0.000326523
0.000322994
0.000319344
0.000315567
0.000311653
0.000307591
0.000303371
0.00029898
0.000294405
0.000289629
0.000284636
0.000279406
0.000273919
0.000268151
0.000262077
0.000255669
0.000248895
0.00024172
0.000234106
0.000226008
0.000217378
0.000208159
0.000198285
0.000187682
0.000176264
0.000163931
0.000150568
0.000136045
0.000120233
0.00010306
8.46121e-05
6.53076e-05
4.61736e-05
2.90289e-05
1.5914e-05
7.60159e-06
3.79262e-06
2.07735e-06
1.38717e-06
1.12833e-06
1.05043e-06
1.05601e-06
1.10766e-06
1.18767e-06
1.28637e-06
1.39901e-06
1.52299e-06
1.65601e-06
1.79587e-06
1.93982e-06
2.08508e-06
2.32927e-06
2.50643e-06
2.65877e-06
2.76763e-06
2.83706e-06
2.87056e-06
2.87166e-06
2.91897e-06
2.95443e-06
0.000391061
0.000388755
0.000386393
0.000383984
0.000381523
0.000379002
0.000376401
0.0003737
0.000370883
0.000367964
0.000364974
0.000361898
0.000358734
0.000355477
0.000352124
0.000348668
0.000345107
0.000341433
0.00033764
0.000333722
0.000329669
0.000325475
0.000321128
0.000316619
0.000311936
0.000307064
0.000301989
0.000296695
0.000291164
0.000285376
0.000279309
0.000272937
0.000266235
0.000259172
0.000251715
0.000243827
0.000235466
0.000226587
0.000217137
0.000207054
0.000196272
0.00018471
0.000172278
0.000158876
0.000144397
0.000128731
0.000111787
9.35802e-05
7.43763e-05
5.49484e-05
3.67597e-05
2.17334e-05
1.1328e-05
5.67119e-06
3.01153e-06
1.89527e-06
1.4142e-06
1.23299e-06
1.19089e-06
1.21573e-06
1.27599e-06
1.35773e-06
1.4536e-06
1.55948e-06
1.67294e-06
1.79225e-06
1.91574e-06
2.04166e-06
2.16799e-06
2.29363e-06
2.5072e-06
2.65986e-06
2.78945e-06
2.8745e-06
2.92542e-06
2.94698e-06
2.95435e-06
3.01226e-06
3.0394e-06
3.05471e-06
0.000402237
0.000399639
0.000396976
0.000394253
0.00039146
0.000388587
0.000385618
0.000382536
0.000379335
0.000376028
0.000372632
0.000369135
0.000365535
0.000361824
0.000357999
0.000354053
0.00034998
0.000345775
0.000341428
0.000336932
0.000332276
0.000327452
0.000322446
0.000317247
0.000311839
0.000306208
0.000300335
0.000294202
0.000287787
0.000281066
0.000274014
0.000266602
0.000258798
0.000250567
0.000241868
0.000232659
0.000222888
0.000212499
0.000201427
0.000189599
0.000176931
0.000163332
0.0001487
0.000132946
0.000116013
9.79193e-05
7.88873e-05
5.95694e-05
4.12086e-05
2.55912e-05
1.42217e-05
7.30633e-06
3.96679e-06
2.42551e-06
1.73934e-06
1.4564e-06
1.35468e-06
1.34688e-06
1.38763e-06
1.45421e-06
1.53572e-06
1.62679e-06
1.72433e-06
1.82649e-06
1.93193e-06
2.03949e-06
2.14797e-06
2.25617e-06
2.36283e-06
2.46846e-06
2.65297e-06
2.78471e-06
2.89535e-06
2.95935e-06
2.99402e-06
3.0068e-06
3.02637e-06
3.07695e-06
3.10449e-06
3.13116e-06
0.000409509
0.000406586
0.000403585
0.000400505
0.000397338
0.00039407
0.00039069
0.000387185
0.000383555
0.000379808
0.000375953
0.000371979
0.000367881
0.000363654
0.000359289
0.00035478
0.000350121
0.000345304
0.000340319
0.000335155
0.000329801
0.000324245
0.000318473
0.000312469
0.000306217
0.000299697
0.000292889
0.00028577
0.000278314
0.000270495
0.000262281
0.000253637
0.000244526
0.000234905
0.000224726
0.000213934
0.000202468
0.000190257
0.000177222
0.000163279
0.00014834
0.000132328
0.000115206
9.70451e-05
7.81373e-05
5.91611e-05
4.13108e-05
2.62204e-05
1.5057e-05
8.10097e-06
4.57066e-06
2.82411e-06
2.03072e-06
1.67422e-06
1.53021e-06
1.49567e-06
1.51696e-06
1.56913e-06
1.6382e-06
1.71679e-06
1.80111e-06
1.88908e-06
1.97938e-06
2.07111e-06
2.1635e-06
2.25577e-06
2.34717e-06
2.43694e-06
2.5245e-06
2.61159e-06
2.7706e-06
2.88543e-06
2.98083e-06
3.02603e-06
3.04655e-06
3.05318e-06
3.09176e-06
3.1243e-06
3.14566e-06
3.16739e-06
0.000414919
0.000411879
0.00040859
0.000405207
0.000401724
0.000398133
0.000394423
0.000390582
0.000386606
0.000382492
0.000378247
0.000373868
0.00036935
0.000364683
0.000359862
0.000354878
0.000349722
0.000344386
0.000338862
0.000333136
0.000327197
0.00032103
0.000314621
0.000307953
0.000301008
0.000293764
0.000286199
0.000278288
0.000270004
0.000261317
0.000252193
0.000242595
0.00023248
0.000221802
0.000210508
0.000198537
0.000185827
0.000172298
0.000157873
0.000142482
0.000126075
0.000108667
9.04125e-05
7.17364e-05
5.3442e-05
3.68009e-05
2.32175e-05
1.34352e-05
7.68927e-06
4.56873e-06
2.97559e-06
2.21205e-06
1.84823e-06
1.69401e-06
1.64634e-06
1.65589e-06
1.69695e-06
1.75508e-06
1.82278e-06
1.89578e-06
1.97171e-06
2.04928e-06
2.12764e-06
2.20618e-06
2.28446e-06
2.362e-06
2.43834e-06
2.513e-06
2.58561e-06
2.65607e-06
2.72698e-06
2.86465e-06
2.96626e-06
3.04961e-06
3.07759e-06
3.08604e-06
3.08871e-06
3.12174e-06
3.15126e-06
3.17291e-06
3.19572e-06
0.000411686
0.000408172
0.000404468
0.000400651
0.000396713
0.000392643
0.000388434
0.000384077
0.000379569
0.000374907
0.000370089
0.000365112
0.000359968
0.000354648
0.000349142
0.000343441
0.000337535
0.000331415
0.000325067
0.000318478
0.000311633
0.000304515
0.000297105
0.000289382
0.000281325