/*--------------------------------*- C++ -*----------------------------------*\
| =========                 |                                                 |
| \\      /  F ield         | OpenFOAM: The Open Source CFD Toolbox           |
|  \\    /   O peration     | Version:  2412                                  |
|   \\  /    A nd           | Website:  www.openfoam.com                      |
|    \\/     M anipulation  |                                                 |
\*---------------------------------------------------------------------------*/
FoamFile
{
    version     2.0;
    format      ascii;
    arch        "LSB;label=32;scalar=64";
    class       volScalarField;
    location    "140";
    object      nuTilda;
}
// * * * * * * * * * * * * * * * * * * * * * * * * * * * * * * * * * * * * * //

dimensions      [0 2 -1 0 0 0 0];

internalField   nonuniform List<scalar> 
8637
(
2.16691e-06
2.16645e-06
2.16591e-06
2.16542e-06
2.16512e-06
2.16481e-06
2.1645e-06
2.16422e-06
2.1639e-06
2.16359e-06
2.16333e-06
2.1631e-06
2.16286e-06
2.16255e-06
2.1623e-06
2.16208e-06
2.16184e-06
2.1616e-06
2.16136e-06
2.16113e-06
2.16093e-06
2.16072e-06
2.16049e-06
2.16026e-06
2.16005e-06
2.15986e-06
2.15967e-06
2.15947e-06
2.15926e-06
2.15906e-06
2.15886e-06
2.15865e-06
2.1585e-06
2.1583e-06
2.15811e-06
2.15793e-06
2.15773e-06
2.15754e-06
2.15734e-06
2.15714e-06
2.15697e-06
2.15677e-06
2.15655e-06
2.15634e-06
2.15615e-06
2.15594e-06
2.15572e-06
2.15551e-06
2.15527e-06
2.155e-06
2.15475e-06
2.15448e-06
2.15422e-06
2.15392e-06
2.15359e-06
2.15325e-06
2.15289e-06
2.15251e-06
2.1521e-06
2.15166e-06
2.1512e-06
2.15068e-06
2.15011e-06
2.14952e-06
2.14888e-06
2.14819e-06
2.14742e-06
2.14657e-06
2.14569e-06
2.14467e-06
2.14358e-06
2.14237e-06
2.14101e-06
2.13952e-06
2.13781e-06
2.13586e-06
2.13366e-06
2.13101e-06
2.12784e-06
2.12396e-06
2.11911e-06
2.11293e-06
2.10494e-06
2.09459e-06
2.08109e-06
2.0631e-06
2.03828e-06
2.00365e-06
6.57581e-06
6.57441e-06
6.57271e-06
6.57124e-06
6.57028e-06
6.56931e-06
6.56837e-06
6.56745e-06
6.56648e-06
6.56557e-06
6.56474e-06
6.56396e-06
6.56315e-06
6.56228e-06
6.56148e-06
6.5607e-06
6.55994e-06
6.55919e-06
6.55844e-06
6.55769e-06
6.55699e-06
6.5563e-06
6.55559e-06
6.55487e-06
6.55417e-06
6.55352e-06
6.55288e-06
6.55222e-06
6.55156e-06
6.55091e-06
6.55027e-06
6.54963e-06
6.54905e-06
6.54838e-06
6.54779e-06
6.54717e-06
6.54658e-06
6.54598e-06
6.54528e-06
6.54467e-06
6.54409e-06
6.54343e-06
6.54279e-06
6.54214e-06
6.54152e-06
6.54085e-06
6.54016e-06
6.53948e-06
6.53878e-06
6.53798e-06
6.53722e-06
6.53641e-06
6.53562e-06
6.53471e-06
6.53377e-06
6.53279e-06
6.53174e-06
6.53066e-06
6.5295e-06
6.52823e-06
6.5269e-06
6.52544e-06
6.52387e-06
6.5222e-06
6.52038e-06
6.51845e-06
6.5163e-06
6.51397e-06
6.51146e-06
6.50867e-06
6.50563e-06
6.50224e-06
6.49845e-06
6.49426e-06
6.48942e-06
6.48383e-06
6.47732e-06
6.46945e-06
6.45989e-06
6.44797e-06
6.43274e-06
6.41308e-06
6.38739e-06
6.35388e-06
6.31e-06
6.25136e-06
6.17054e-06
6.05853e-06
1.10469e-05
1.10445e-05
1.10415e-05
1.10392e-05
1.10375e-05
1.10359e-05
1.10342e-05
1.10326e-05
1.10309e-05
1.10294e-05
1.10279e-05
1.10264e-05
1.10249e-05
1.10234e-05
1.1022e-05
1.10206e-05
1.10192e-05
1.10179e-05
1.10165e-05
1.10152e-05
1.10139e-05
1.10126e-05
1.10113e-05
1.101e-05
1.10088e-05
1.10076e-05
1.10063e-05
1.10051e-05
1.10039e-05
1.10027e-05
1.10016e-05
1.10004e-05
1.09993e-05
1.09981e-05
1.0997e-05
1.09958e-05
1.09947e-05
1.09936e-05
1.09925e-05
1.09914e-05
1.09903e-05
1.09891e-05
1.0988e-05
1.09869e-05
1.09858e-05
1.09846e-05
1.09835e-05
1.09823e-05
1.09811e-05
1.09798e-05
1.09786e-05
1.09773e-05
1.0976e-05
1.09746e-05
1.09731e-05
1.09716e-05
1.097e-05
1.09684e-05
1.09666e-05
1.09647e-05
1.09628e-05
1.09606e-05
1.09584e-05
1.09559e-05
1.09533e-05
1.09505e-05
1.09475e-05
1.09442e-05
1.09406e-05
1.09366e-05
1.09322e-05
1.09274e-05
1.09219e-05
1.09157e-05
1.09085e-05
1.08999e-05
1.08897e-05
1.0877e-05
1.08611e-05
1.08407e-05
1.08139e-05
1.07787e-05
1.07321e-05
1.06706e-05
1.05899e-05
1.04818e-05
1.03334e-05
1.01296e-05
1.5395e-05
1.53916e-05
1.53871e-05
1.53845e-05
1.53822e-05
1.53798e-05
1.53774e-05
1.5375e-05
1.53726e-05
1.53704e-05
1.53682e-05
1.5366e-05
1.53638e-05
1.53616e-05
1.53595e-05
1.53575e-05
1.53554e-05
1.53534e-05
1.53514e-05
1.53494e-05
1.53475e-05
1.53455e-05
1.53436e-05
1.53417e-05
1.53398e-05
1.5338e-05
1.53361e-05
1.53343e-05
1.53326e-05
1.53308e-05
1.5329e-05
1.53273e-05
1.53255e-05
1.53239e-05
1.53222e-05
1.53205e-05
1.53189e-05
1.53172e-05
1.53156e-05
1.5314e-05
1.53124e-05
1.53109e-05
1.53093e-05
1.53078e-05
1.53062e-05
1.53047e-05
1.53032e-05
1.53017e-05
1.53002e-05
1.52986e-05
1.52971e-05
1.52956e-05
1.5294e-05
1.52924e-05
1.52907e-05
1.52891e-05
1.52873e-05
1.52855e-05
1.52837e-05
1.52817e-05
1.52797e-05
1.52776e-05
1.52753e-05
1.52729e-05
1.52703e-05
1.52676e-05
1.52646e-05
1.52614e-05
1.52579e-05
1.52539e-05
1.52496e-05
1.52446e-05
1.52389e-05
1.52322e-05
1.52241e-05
1.5214e-05
1.52014e-05
1.51849e-05
1.51634e-05
1.51344e-05
1.50954e-05
1.50426e-05
1.49715e-05
1.4877e-05
1.47526e-05
1.45862e-05
1.43585e-05
1.40491e-05
1.94948e-05
1.94903e-05
1.94845e-05
1.94823e-05
1.94793e-05
1.94762e-05
1.94731e-05
1.947e-05
1.9467e-05
1.9464e-05
1.94611e-05
1.94582e-05
1.94553e-05
1.94525e-05
1.94497e-05
1.94469e-05
1.94442e-05
1.94415e-05
1.94388e-05
1.94362e-05
1.94335e-05
1.94309e-05
1.94284e-05
1.94259e-05
1.94233e-05
1.94209e-05
1.94184e-05
1.9416e-05
1.94136e-05
1.94113e-05
1.94089e-05
1.94067e-05
1.94044e-05
1.94022e-05
1.94001e-05
1.93979e-05
1.93958e-05
1.93938e-05
1.93918e-05
1.93898e-05
1.93879e-05
1.93861e-05
1.93843e-05
1.93826e-05
1.93808e-05
1.93792e-05
1.93776e-05
1.93761e-05
1.93746e-05
1.93732e-05
1.93718e-05
1.93705e-05
1.93692e-05
1.9368e-05
1.93667e-05
1.93655e-05
1.93643e-05
1.93632e-05
1.9362e-05
1.93609e-05
1.93598e-05
1.93587e-05
1.93576e-05
1.93565e-05
1.93553e-05
1.93541e-05
1.93528e-05
1.93514e-05
1.93497e-05
1.93477e-05
1.93454e-05
1.93424e-05
1.93387e-05
1.93338e-05
1.93269e-05
1.93174e-05
1.93041e-05
1.92854e-05
1.92589e-05
1.92214e-05
1.91688e-05
1.90957e-05
1.89959e-05
1.88625e-05
1.86866e-05
1.84525e-05
1.81331e-05
1.77043e-05
2.32553e-05
2.32498e-05
2.32429e-05
2.32422e-05
2.32387e-05
2.32349e-05
2.32311e-05
2.32274e-05
2.32238e-05
2.32202e-05
2.32166e-05
2.32131e-05
2.32095e-05
2.3206e-05
2.32026e-05
2.31992e-05
2.31958e-05
2.31925e-05
2.31891e-05
2.31859e-05
2.31825e-05
2.31794e-05
2.31762e-05
2.31731e-05
2.31699e-05
2.3167e-05
2.31639e-05
2.3161e-05
2.3158e-05
2.31552e-05
2.31524e-05
2.31497e-05
2.3147e-05
2.31445e-05
2.3142e-05
2.31396e-05
2.31372e-05
2.3135e-05
2.31328e-05
2.31308e-05
2.31288e-05
2.31271e-05
2.31254e-05
2.31239e-05
2.31224e-05
2.31212e-05
2.312e-05
2.3119e-05
2.31181e-05
2.31174e-05
2.31169e-05
2.31166e-05
2.31163e-05
2.31163e-05
2.31164e-05
2.31167e-05
2.31171e-05
2.31179e-05
2.31187e-05
2.31198e-05
2.31211e-05
2.31227e-05
2.31244e-05
2.31265e-05
2.31286e-05
2.31311e-05
2.31337e-05
2.31364e-05
2.31391e-05
2.31418e-05
2.31443e-05
2.31463e-05
2.31474e-05
2.31471e-05
2.31442e-05
2.31378e-05
2.31259e-05
2.31061e-05
2.30752e-05
2.30282e-05
2.29596e-05
2.28619e-05
2.27271e-05
2.25467e-05
2.23095e-05
2.19963e-05
2.15713e-05
2.1008e-05
2.66042e-05
2.65979e-05
2.65904e-05
2.65928e-05
2.65889e-05
2.65846e-05
2.65803e-05
2.65761e-05
2.65719e-05
2.65677e-05
2.65636e-05
2.65595e-05
2.65554e-05
2.65513e-05
2.65474e-05
2.65434e-05
2.65394e-05
2.65356e-05
2.65316e-05
2.65278e-05
2.65239e-05
2.65202e-05
2.65165e-05
2.65129e-05
2.65093e-05
2.65059e-05
2.65024e-05
2.64991e-05
2.64958e-05
2.64927e-05
2.64896e-05
2.64867e-05
2.64838e-05
2.64812e-05
2.64785e-05
2.64761e-05
2.64738e-05
2.64719e-05
2.64699e-05
2.64683e-05
2.64667e-05
2.64656e-05
2.64645e-05
2.64638e-05
2.64632e-05
2.64631e-05
2.64631e-05
2.64635e-05
2.64641e-05
2.64652e-05
2.64665e-05
2.64683e-05
2.64703e-05
2.64728e-05
2.64756e-05
2.64789e-05
2.64826e-05
2.64868e-05
2.64915e-05
2.64968e-05
2.65026e-05
2.65091e-05
2.6516e-05
2.65238e-05
2.65321e-05
2.65412e-05
2.65508e-05
2.6561e-05
2.65716e-05
2.65826e-05
2.65936e-05
2.66042e-05
2.66139e-05
2.66216e-05
2.66258e-05
2.66248e-05
2.66161e-05
2.65959e-05
2.65595e-05
2.65004e-05
2.64109e-05
2.62814e-05
2.61025e-05
2.5864e-05
2.5552e-05
2.51468e-05
2.46e-05
2.3886e-05
2.94828e-05
2.9476e-05
2.94685e-05
2.94765e-05
2.94723e-05
2.94676e-05
2.94631e-05
2.94585e-05
2.9454e-05
2.94494e-05
2.94449e-05
2.94404e-05
2.94358e-05
2.94314e-05
2.9427e-05
2.94226e-05
2.94182e-05
2.94139e-05
2.94095e-05
2.94053e-05
2.9401e-05
2.9397e-05
2.93929e-05
2.93891e-05
2.93851e-05
2.93815e-05
2.93778e-05
2.93744e-05
2.93709e-05
2.93678e-05
2.93647e-05
2.9362e-05
2.93592e-05
2.93569e-05
2.93546e-05
2.93528e-05
2.93511e-05
2.93498e-05
2.93487e-05
2.93481e-05
2.93477e-05
2.93479e-05
2.93483e-05
2.93494e-05
2.93506e-05
2.93526e-05
2.9355e-05
2.9358e-05
2.93614e-05
2.93656e-05
2.93703e-05
2.93757e-05
2.93817e-05
2.93886e-05
2.9396e-05
2.94044e-05
2.94135e-05
2.94237e-05
2.94347e-05
2.9447e-05
2.94601e-05
2.94747e-05
2.94903e-05
2.95074e-05
2.95255e-05
2.95453e-05
2.95661e-05
2.95883e-05
2.96112e-05
2.96352e-05
2.96593e-05
2.9683e-05
2.97054e-05
2.97248e-05
2.9739e-05
2.97455e-05
2.97404e-05
2.97186e-05
2.96734e-05
2.95963e-05
2.94774e-05
2.9305e-05
2.90684e-05
2.87569e-05
2.83529e-05
2.78408e-05
2.71555e-05
2.62754e-05
3.1846e-05
3.18392e-05
3.18325e-05
3.18493e-05
3.18451e-05
3.18404e-05
3.18358e-05
3.18311e-05
3.18265e-05
3.18218e-05
3.18171e-05
3.18124e-05
3.18077e-05
3.1803e-05
3.17984e-05
3.17937e-05
3.17892e-05
3.17847e-05
3.17801e-05
3.17758e-05
3.17713e-05
3.17672e-05
3.1763e-05
3.17592e-05
3.17553e-05
3.17518e-05
3.17482e-05
3.1745e-05
3.17418e-05
3.17392e-05
3.17366e-05
3.17345e-05
3.17325e-05
3.17311e-05
3.17298e-05
3.17292e-05
3.17289e-05
3.17292e-05
3.17298e-05
3.17312e-05
3.1733e-05
3.17357e-05
3.17387e-05
3.17428e-05
3.17473e-05
3.1753e-05
3.17592e-05
3.17665e-05
3.17745e-05
3.17838e-05
3.17939e-05
3.18053e-05
3.18177e-05
3.18314e-05
3.18461e-05
3.18625e-05
3.18801e-05
3.18995e-05
3.19204e-05
3.19434e-05
3.1968e-05
3.19949e-05
3.20236e-05
3.20549e-05
3.2088e-05
3.21237e-05
3.21614e-05
3.22012e-05
3.22423e-05
3.22848e-05
3.23274e-05
3.23693e-05
3.24086e-05
3.2443e-05
3.24692e-05
3.24834e-05
3.248e-05
3.24519e-05
3.23905e-05
3.22848e-05
3.21228e-05
3.1891e-05
3.15782e-05
3.11752e-05
3.06577e-05
3.00247e-05
2.91874e-05
2.81308e-05
3.36619e-05
3.36559e-05
3.36513e-05
3.36823e-05
3.36784e-05
3.36741e-05
3.36697e-05
3.36653e-05
3.36609e-05
3.36564e-05
3.36519e-05
3.36472e-05
3.36426e-05
3.36381e-05
3.36335e-05
3.3629e-05
3.36246e-05
3.36203e-05
3.36157e-05
3.36116e-05
3.36074e-05
3.36036e-05
3.35997e-05
3.35964e-05
3.35929e-05
3.359e-05
3.35871e-05
3.35848e-05
3.35825e-05
3.3581e-05
3.35796e-05
3.35789e-05
3.35784e-05
3.35789e-05
3.35795e-05
3.35812e-05
3.35833e-05
3.35864e-05
3.359e-05
3.35948e-05
3.36002e-05
3.3607e-05
3.36144e-05
3.36233e-05
3.3633e-05
3.36443e-05
3.36567e-05
3.36707e-05
3.36859e-05
3.37029e-05
3.37213e-05
3.37417e-05
3.37636e-05
3.37876e-05
3.38135e-05
3.38417e-05
3.38721e-05
3.39052e-05
3.39408e-05
3.39795e-05
3.40211e-05
3.40661e-05
3.41142e-05
3.4166e-05
3.4221e-05
3.42797e-05
3.43413e-05
3.44058e-05
3.4472e-05
3.45396e-05
3.46066e-05
3.46714e-05
3.47311e-05
3.4782e-05
3.48196e-05
3.48381e-05
3.483e-05
3.47859e-05
3.46947e-05
3.45432e-05
3.43176e-05
3.40043e-05
3.35911e-05
3.30763e-05
3.24215e-05
3.16576e-05
3.06669e-05
2.94369e-05
3.49623e-05
3.49591e-05
3.49556e-05
3.4952e-05
3.49482e-05
3.49445e-05
3.49406e-05
3.49366e-05
3.49325e-05
3.49284e-05
3.49244e-05
3.49204e-05
3.49164e-05
3.49126e-05
3.49088e-05
3.49049e-05
3.49015e-05
3.4898e-05
3.48951e-05
3.48922e-05
3.48899e-05
3.48876e-05
3.48861e-05
3.48846e-05
3.48839e-05
3.48835e-05
3.4884e-05
3.48848e-05
3.48867e-05
3.4889e-05
3.48925e-05
3.48965e-05
3.49018e-05
3.4908e-05
3.49156e-05
3.4924e-05
3.4934e-05
3.49452e-05
3.49582e-05
3.49724e-05
3.49886e-05
3.50062e-05
3.50261e-05
3.50476e-05
3.50715e-05
3.50973e-05
3.51258e-05
3.51564e-05
3.51899e-05
3.52259e-05
3.5265e-05
3.5307e-05
3.53525e-05
3.54014e-05
3.54544e-05
3.55113e-05
3.55728e-05
3.56386e-05
3.57096e-05
3.57853e-05
3.58663e-05
3.59518e-05
3.60424e-05
3.61367e-05
3.62343e-05
3.63333e-05
3.64327e-05
3.65292e-05
3.66201e-05
3.6701e-05
3.67665e-05
3.68099e-05
3.68234e-05
3.67971e-05
3.67193e-05
3.65765e-05
3.63542e-05
3.60371e-05
3.56151e-05
3.50728e-05
3.44293e-05
3.36142e-05
3.27199e-05
3.16017e-05
3.02304e-05
3.56921e-05
3.56902e-05
3.5688e-05
3.56857e-05
3.56832e-05
3.56807e-05
3.56779e-05
3.56751e-05
3.5672e-05
3.5669e-05
3.56661e-05
3.56632e-05
3.56604e-05
3.56577e-05
3.56552e-05
3.56526e-05
3.56507e-05
3.56487e-05
3.56475e-05
3.56464e-05
3.56461e-05
3.56459e-05
3.56468e-05
3.56478e-05
3.565e-05
3.56527e-05
3.56567e-05
3.56612e-05
3.56672e-05
3.56739e-05
3.56823e-05
3.56916e-05
3.57027e-05
3.57151e-05
3.57295e-05
3.57453e-05
3.57633e-05
3.5783e-05
3.58054e-05
3.58295e-05
3.58566e-05
3.58858e-05
3.59181e-05
3.59531e-05
3.59913e-05
3.60324e-05
3.60774e-05
3.61256e-05
3.6178e-05
3.62341e-05
3.62947e-05
3.63597e-05
3.643e-05
3.65052e-05
3.65864e-05
3.66735e-05
3.67673e-05
3.68674e-05
3.69749e-05
3.70889e-05
3.72101e-05
3.73373e-05
3.74704e-05
3.76074e-05
3.77471e-05
3.78863e-05
3.80227e-05
3.81512e-05
3.82674e-05
3.83649e-05
3.84358e-05
3.84714e-05
3.84614e-05
3.83934e-05
3.82541e-05
3.8028e-05
3.77019e-05
3.72583e-05
3.66998e-05
3.59987e-05
3.5223e-05
3.42336e-05
3.32283e-05
3.20627e-05
3.06369e-05
3.58905e-05
3.58905e-05
3.58904e-05
3.58901e-05
3.58895e-05
3.58889e-05
3.5888e-05
3.58869e-05
3.58857e-05
3.58845e-05
3.58834e-05
3.58825e-05
3.58816e-05
3.5881e-05
3.58806e-05
3.58803e-05
3.58808e-05
3.58814e-05
3.58831e-05
3.5885e-05
3.5888e-05
3.58914e-05
3.58962e-05
3.59014e-05
3.59082e-05
3.59158e-05
3.59252e-05
3.59356e-05
3.59479e-05
3.59615e-05
3.59772e-05
3.59945e-05
3.60143e-05
3.60361e-05
3.60606e-05
3.60872e-05
3.61169e-05
3.61492e-05
3.61851e-05
3.62238e-05
3.62664e-05
3.63123e-05
3.63625e-05
3.64165e-05
3.64751e-05
3.65381e-05
3.66064e-05
3.66796e-05
3.67585e-05
3.68431e-05
3.69341e-05
3.70316e-05
3.71365e-05
3.72489e-05
3.73698e-05
3.74991e-05
3.76378e-05
3.77855e-05
3.79429e-05
3.81092e-05
3.8284e-05
3.84658e-05
3.86533e-05
3.88432e-05
3.90327e-05
3.92167e-05
3.93907e-05
3.95475e-05
3.96803e-05
3.978e-05
3.98364e-05
3.98385e-05
3.97739e-05
3.96282e-05
3.93887e-05
3.90375e-05
3.857e-05
3.7961e-05
3.72477e-05
3.63642e-05
3.54855e-05
3.43308e-05
3.32641e-05
3.22234e-05
3.09282e-05
3.55914e-05
3.55943e-05
3.55972e-05
3.55997e-05
3.56019e-05
3.56039e-05
3.56057e-05
3.56073e-05
3.56088e-05
3.56104e-05
3.56123e-05
3.56143e-05
3.56165e-05
3.56191e-05
3.56222e-05
3.56256e-05
3.56299e-05
3.56348e-05
3.5641e-05
3.56477e-05
3.56559e-05
3.56649e-05
3.56757e-05
3.56874e-05
3.57012e-05
3.57165e-05
3.5734e-05
3.57532e-05
3.5775e-05
3.57988e-05
3.58255e-05
3.58546e-05
3.58871e-05
3.59226e-05
3.59616e-05
3.6004e-05
3.60505e-05
3.61009e-05
3.6156e-05
3.62154e-05
3.628e-05
3.63495e-05
3.64249e-05
3.65058e-05
3.65932e-05
3.66868e-05
3.67877e-05
3.68957e-05
3.70119e-05
3.71361e-05
3.72695e-05
3.74124e-05
3.75656e-05
3.77296e-05
3.79054e-05
3.8093e-05
3.82932e-05
3.85054e-05
3.87298e-05
3.89645e-05
3.92084e-05
3.94582e-05
3.97109e-05
3.99609e-05
4.02029e-05
4.04291e-05
4.06322e-05
4.08021e-05
4.09294e-05
4.10023e-05
4.10088e-05
4.09358e-05
4.07711e-05
4.04985e-05
4.01116e-05
3.95871e-05
3.89453e-05
3.81363e-05
3.72789e-05
3.62098e-05
3.53196e-05
3.40563e-05
3.30252e-05
3.24276e-05
3.16522e-05
3.48439e-05
3.48507e-05
3.48574e-05
3.48636e-05
3.48696e-05
3.48754e-05
3.4881e-05
3.48864e-05
3.48919e-05
3.48976e-05
3.49037e-05
3.49102e-05
3.49171e-05
3.49247e-05
3.49329e-05
3.4942e-05
3.49523e-05
3.49636e-05
3.49766e-05
3.49908e-05
3.50068e-05
3.50244e-05
3.50442e-05
3.50658e-05
3.50901e-05
3.51166e-05
3.51462e-05
3.51784e-05
3.5214e-05
3.52527e-05
3.52954e-05
3.53416e-05
3.53924e-05
3.54473e-05
3.55073e-05
3.55719e-05
3.56423e-05
3.57181e-05
3.58004e-05
3.58887e-05
3.59843e-05
3.60867e-05
3.61971e-05
3.63154e-05
3.64425e-05
3.65786e-05
3.67247e-05
3.6881e-05
3.70486e-05
3.72277e-05
3.74198e-05
3.76251e-05
3.78449e-05
3.80797e-05
3.83303e-05
3.85968e-05
3.88792e-05
3.91762e-05
3.94867e-05
3.98073e-05
4.01346e-05
4.04627e-05
4.07857e-05
4.10947e-05
4.13808e-05
4.16329e-05
4.18403e-05
4.19902e-05
4.20706e-05
4.20683e-05
4.19708e-05
4.17645e-05
4.14415e-05
4.09836e-05
4.04025e-05
3.96601e-05
3.88354e-05
3.78117e-05
3.68845e-05
3.56691e-05
3.49633e-05
3.37387e-05
3.29284e-05
3.34299e-05
3.49132e-05
3.37107e-05
3.37224e-05
3.3734e-05
3.37452e-05
3.37561e-05
3.3767e-05
3.37777e-05
3.37886e-05
3.37997e-05
3.38113e-05
3.38236e-05
3.38365e-05
3.38504e-05
3.38654e-05
3.38815e-05
3.38989e-05
3.39183e-05
3.39392e-05
3.39624e-05
3.39876e-05
3.40153e-05
3.40455e-05
3.40787e-05
3.41146e-05
3.41543e-05
3.41973e-05
3.42444e-05
3.42953e-05
3.43509e-05
3.44109e-05
3.44763e-05
3.45468e-05
3.46234e-05
3.47058e-05
3.47951e-05
3.4891e-05
3.49945e-05
3.51058e-05
3.52257e-05
3.53541e-05
3.54922e-05
3.564e-05
3.57987e-05
3.59683e-05
3.615e-05
3.63442e-05
3.65523e-05
3.67746e-05
3.70125e-05
3.72666e-05
3.75386e-05
3.78289e-05
3.81388e-05
3.84686e-05
3.88189e-05
3.91887e-05
3.95768e-05
3.99802e-05
4.03951e-05
4.08153e-05
4.12338e-05
4.16407e-05
4.20258e-05
4.23759e-05
4.26781e-05
4.29178e-05
4.30811e-05
4.31536e-05
4.31227e-05
4.29756e-05
4.27025e-05
4.22927e-05
4.17485e-05
4.10516e-05
4.02485e-05
3.92704e-05
3.8311e-05
3.71055e-05
3.62975e-05
3.50522e-05
3.48905e-05
3.40479e-05
3.54038e-05
3.70788e-05
4.05363e-05
3.22673e-05
3.22852e-05
3.2303e-05
3.23205e-05
3.2338e-05
3.23556e-05
3.23734e-05
3.23918e-05
3.24108e-05
3.24308e-05
3.2452e-05
3.24746e-05
3.24986e-05
3.25244e-05
3.25521e-05
3.2582e-05
3.26145e-05
3.26496e-05
3.26878e-05
3.27291e-05
3.27739e-05
3.28223e-05
3.28749e-05
3.29316e-05
3.29933e-05
3.30598e-05
3.31318e-05
3.32093e-05
3.3293e-05
3.33831e-05
3.34803e-05
3.35846e-05
3.3697e-05
3.38176e-05
3.39473e-05
3.40862e-05
3.42353e-05
3.4395e-05
3.45662e-05
3.47492e-05
3.49452e-05
3.51545e-05
3.53784e-05
3.56174e-05
3.58729e-05
3.61457e-05
3.64373e-05
3.67487e-05
3.70813e-05
3.74362e-05
3.7815e-05
3.82183e-05
3.86469e-05
3.91004e-05
3.95779e-05
4.00767e-05
4.05927e-05
4.11196e-05
4.16494e-05
4.21711e-05
4.26724e-05
4.31384e-05
4.35535e-05
4.39003e-05
4.41619e-05
4.43213e-05
4.43635e-05
4.42753e-05
4.40459e-05
4.36688e-05
4.31394e-05
4.24607e-05
4.1645e-05
4.0692e-05
3.96886e-05
3.85299e-05
3.75864e-05
3.63264e-05
3.60147e-05
3.49976e-05
3.64117e-05
3.72123e-05
4.05605e-05
4.30185e-05
4.6138e-05
3.0601e-05
3.06265e-05
3.0652e-05
3.06777e-05
3.07038e-05
3.07306e-05
3.07583e-05
3.07872e-05
3.08175e-05
3.08497e-05
3.08839e-05
3.09203e-05
3.09591e-05
3.10008e-05
3.10454e-05
3.10933e-05
3.1145e-05
3.12005e-05
3.12605e-05
3.13248e-05
3.13941e-05
3.14685e-05
3.15487e-05
3.16347e-05
3.17273e-05
3.18267e-05
3.19335e-05
3.20478e-05
3.21706e-05
3.23019e-05
3.24427e-05
3.25933e-05
3.27546e-05
3.29269e-05
3.31113e-05
3.33081e-05
3.35185e-05
3.37431e-05
3.3983e-05
3.42388e-05
3.45118e-05
3.48029e-05
3.51135e-05
3.54447e-05
3.5798e-05
3.61748e-05
3.6577e-05
3.70058e-05
3.7463e-05
3.79497e-05
3.84672e-05
3.90154e-05
3.95939e-05
4.02001e-05
4.08304e-05
4.14781e-05
4.21344e-05
4.27876e-05
4.34233e-05
4.40242e-05
4.45718e-05
4.50453e-05
4.54241e-05
4.56877e-05
4.58174e-05
4.57971e-05
4.56137e-05
4.52617e-05
4.4734e-05
4.40456e-05
4.31887e-05
4.22187e-05
4.11178e-05
3.99968e-05
3.8886e-05
3.77803e-05
3.71617e-05
3.61539e-05
3.72883e-05
3.79243e-05
4.10806e-05
4.302e-05
4.61594e-05
4.85585e-05
5.10339e-05
2.88088e-05
2.88438e-05
2.88794e-05
2.89159e-05
2.89539e-05
2.89936e-05
2.90353e-05
2.90793e-05
2.9126e-05
2.91758e-05
2.92288e-05
2.92853e-05
2.93456e-05
2.94101e-05
2.9479e-05
2.95528e-05
2.96318e-05
2.97163e-05
2.98068e-05
2.99035e-05
3.00071e-05
3.01177e-05
3.02361e-05
3.03625e-05
3.04977e-05
3.06419e-05
3.0796e-05
3.09603e-05
3.11356e-05
3.13224e-05
3.15216e-05
3.17337e-05
3.19599e-05
3.22006e-05
3.2457e-05
3.27299e-05
3.30206e-05
3.33299e-05
3.36592e-05
3.40096e-05
3.43828e-05
3.47799e-05
3.52029e-05
3.56532e-05
3.6133e-05
3.6644e-05
3.71883e-05
3.77675e-05
3.8383e-05
3.90355e-05
3.97249e-05
4.04492e-05
4.12049e-05
4.19855e-05
4.27819e-05
4.35813e-05
4.43678e-05
4.51219e-05
4.58216e-05
4.64425e-05
4.69597e-05
4.7348e-05
4.75839e-05
4.76472e-05
4.75214e-05
4.71979e-05
4.66692e-05
4.5952e-05
4.5037e-05
4.40021e-05
4.27867e-05
4.16227e-05
4.028e-05
3.932e-05
3.82583e-05
3.78413e-05
3.84882e-05
3.91206e-05
4.1926e-05
4.36782e-05
4.65641e-05
4.87038e-05
5.12962e-05
5.32047e-05
5.48185e-05
2.69956e-05
2.70431e-05
2.70925e-05
2.71444e-05
2.71994e-05
2.72577e-05
2.73198e-05
2.7386e-05
2.74565e-05
2.75318e-05
2.76119e-05
2.76973e-05
2.77883e-05
2.78852e-05
2.79883e-05
2.80981e-05
2.82151e-05
2.83396e-05
2.84721e-05
2.86131e-05
2.87631e-05
2.89226e-05
2.90923e-05
2.92727e-05
2.94644e-05
2.96681e-05
2.98846e-05
3.01143e-05
3.03582e-05
3.06171e-05
3.08918e-05
3.11832e-05
3.14925e-05
3.18207e-05
3.2169e-05
3.25385e-05
3.29308e-05
3.33472e-05
3.37894e-05
3.4259e-05
3.47581e-05
3.52884e-05
3.58523e-05
3.6452e-05
3.70898e-05
3.77679e-05
3.84882e-05
3.92518e-05
4.0059e-05
4.09087e-05
4.17976e-05
4.27196e-05
4.36656e-05
4.46223e-05
4.55726e-05
4.64949e-05
4.73642e-05
4.81522e-05
4.88291e-05
4.93644e-05
4.97291e-05
4.98971e-05
4.98464e-05
4.95639e-05
4.90412e-05
4.82894e-05
4.73106e-05
4.61728e-05
4.4839e-05
4.3546e-05
4.20313e-05
4.10349e-05
3.95648e-05
3.9619e-05
4.002e-05
4.14041e-05
4.32853e-05
4.48853e-05
4.74489e-05
4.9429e-05
5.18151e-05
5.36496e-05
5.54774e-05
5.66136e-05
5.72038e-05
2.52725e-05
2.53379e-05
2.54076e-05
2.54824e-05
2.55627e-05
2.56488e-05
2.5741e-05
2.58395e-05
2.59444e-05
2.6056e-05
2.61746e-05
2.63004e-05
2.64337e-05
2.6575e-05
2.67246e-05
2.68831e-05
2.70509e-05
2.72286e-05
2.74167e-05
2.76158e-05
2.78265e-05
2.80495e-05
2.82855e-05
2.85351e-05
2.87992e-05
2.90784e-05
2.93737e-05
2.96858e-05
3.00156e-05
3.03642e-05
3.07327e-05
3.11221e-05
3.15339e-05
3.19693e-05
3.24299e-05
3.29174e-05
3.34334e-05
3.39799e-05
3.4559e-05
3.51732e-05
3.58248e-05
3.65164e-05
3.72508e-05
3.80305e-05
3.88581e-05
3.97353e-05
4.0663e-05
4.16406e-05
4.26655e-05
4.37323e-05
4.4832e-05
4.59516e-05
4.70731e-05
4.81737e-05
4.92256e-05
5.01971e-05
5.10534e-05
5.17581e-05
5.22757e-05
5.2573e-05
5.26219e-05
5.2402e-05
5.19003e-05
5.11215e-05
5.0078e-05
4.88134e-05
4.73609e-05
4.58523e-05
4.4242e-05
4.30402e-05
4.14787e-05
4.16077e-05
4.18045e-05
4.36064e-05
4.51282e-05
4.68772e-05
4.89155e-05
5.07012e-05
5.28153e-05
5.45235e-05
5.62338e-05
5.74435e-05
5.83565e-05
5.85402e-05
5.80064e-05
2.3756e-05
2.38491e-05
2.39503e-05
2.40602e-05
2.41789e-05
2.43061e-05
2.4442e-05
2.45863e-05
2.47393e-05
2.4901e-05
2.50715e-05
2.52513e-05
2.54406e-05
2.564e-05
2.58499e-05
2.60708e-05
2.63035e-05
2.65485e-05
2.68065e-05
2.70782e-05
2.73644e-05
2.76658e-05
2.79831e-05
2.83174e-05
2.86693e-05
2.90398e-05
2.94298e-05
2.98404e-05
3.02727e-05
3.07277e-05
3.12069e-05
3.17117e-05
3.22436e-05
3.28045e-05
3.33964e-05
3.40212e-05
3.46814e-05
3.53794e-05
3.61182e-05
3.69007e-05
3.77302e-05
3.86096e-05
3.95421e-05
4.05301e-05
4.15752e-05
4.26775e-05
4.38354e-05
4.50441e-05
4.62956e-05
4.75771e-05
4.88708e-05
5.01531e-05
5.13947e-05
5.25607e-05
5.36118e-05
5.45062e-05
5.5201e-05
5.5655e-05
5.58316e-05
5.57021e-05
5.52474e-05
5.44638e-05
5.33638e-05
5.19761e-05
5.0383e-05
4.86088e-05
4.69104e-05
4.52539e-05
4.39856e-05
4.39323e-05
4.42055e-05
4.60039e-05
4.73263e-05
4.91449e-05
5.09058e-05
5.26136e-05
5.43809e-05
5.58883e-05
5.73828e-05
5.85132e-05
5.94139e-05
5.98015e-05
5.97074e-05
5.88454e-05
5.71665e-05
2.25706e-05
2.27082e-05
2.28587e-05
2.30217e-05
2.31963e-05
2.33818e-05
2.35777e-05
2.37836e-05
2.39997e-05
2.42259e-05
2.44624e-05
2.47098e-05
2.49685e-05
2.5239e-05
2.55221e-05
2.58184e-05
2.61287e-05
2.64538e-05
2.67944e-05
2.71514e-05
2.75257e-05
2.79182e-05
2.83297e-05
2.87613e-05
2.92138e-05
2.96883e-05
3.0186e-05
3.0708e-05
3.12555e-05
3.183e-05
3.24332e-05
3.30668e-05
3.37328e-05
3.44337e-05
3.51718e-05
3.59501e-05
3.67714e-05
3.76392e-05
3.85572e-05
3.9529e-05
4.05583e-05
4.16485e-05
4.28019e-05
4.40199e-05
4.53015e-05
4.66431e-05
4.80377e-05
4.94736e-05
5.09336e-05
5.23943e-05
5.38255e-05
5.51904e-05
5.64463e-05
5.75458e-05
5.84393e-05
5.90771e-05
5.94131e-05
5.94081e-05
5.90329e-05
5.82757e-05
5.71433e-05
5.56575e-05
5.39133e-05
5.19027e-05
5.00235e-05
4.78802e-05
4.68707e-05
4.66333e-05
4.74045e-05
4.87013e-05
4.99189e-05
5.17051e-05
5.32885e-05
5.4917e-05
5.64487e-05
5.77953e-05
5.90268e-05
5.99736e-05
6.0722e-05
6.1094e-05
6.10999e-05
6.05617e-05
5.94334e-05
5.75246e-05
5.47804e-05
2.18545e-05
2.20616e-05
2.22851e-05
2.25228e-05
2.27726e-05
2.30335e-05
2.33047e-05
2.35861e-05
2.38776e-05
2.41798e-05
2.4493e-05
2.48181e-05
2.51556e-05
2.55066e-05
2.58717e-05
2.62521e-05
2.66485e-05
2.7062e-05
2.74935e-05
2.79439e-05
2.84144e-05
2.89059e-05
2.94193e-05
2.99559e-05
3.05167e-05
3.11028e-05
3.17156e-05
3.23564e-05
3.30268e-05
3.37285e-05
3.44635e-05
3.52342e-05
3.60433e-05
3.68938e-05
3.7789e-05
3.87325e-05
3.97282e-05
4.07805e-05
4.18937e-05
4.30722e-05
4.43193e-05
4.56377e-05
4.70277e-05
4.84873e-05
5.00105e-05
5.15871e-05
5.3201e-05
5.48299e-05
5.64439e-05
5.80053e-05
5.9469e-05
6.07834e-05
6.18922e-05
6.27376e-05
6.32636e-05
6.34194e-05
6.31642e-05
6.24739e-05
6.1344e-05
5.97954e-05
5.7912e-05
5.57022e-05
5.35904e-05
5.11575e-05
5.01073e-05
4.96705e-05
5.06947e-05
5.1733e-05
5.29899e-05
5.45575e-05
5.6004e-05
5.75353e-05
5.88932e-05
6.00978e-05
6.1117e-05
6.18807e-05
6.24185e-05
6.26436e-05
6.25704e-05
6.20963e-05
6.11806e-05
5.97008e-05
5.75917e-05
5.47416e-05
5.11499e-05
2.17679e-05
2.20725e-05
2.23912e-05
2.27204e-05
2.30583e-05
2.3404e-05
2.37576e-05
2.41197e-05
2.44911e-05
2.48726e-05
2.52654e-05
2.56706e-05
2.60894e-05
2.65228e-05
2.69721e-05
2.74384e-05
2.79229e-05
2.84266e-05
2.89508e-05
2.94965e-05
3.00649e-05
3.06571e-05
3.12742e-05
3.19174e-05
3.25879e-05
3.32872e-05
3.40166e-05
3.47779e-05
3.5573e-05
3.64041e-05
3.72739e-05
3.81854e-05
3.91421e-05
4.01481e-05
4.12077e-05
4.23254e-05
4.35063e-05
4.47553e-05
4.60773e-05
4.74762e-05
4.89542e-05
5.05109e-05
5.21426e-05
5.38406e-05
5.55908e-05
5.73719e-05
5.91555e-05
6.09041e-05
6.25717e-05
6.41037e-05
6.54386e-05
6.65107e-05
6.72535e-05
6.76045e-05
6.75104e-05
6.69328e-05
6.58533e-05
6.42857e-05
6.2296e-05
5.99267e-05
5.75624e-05
5.492e-05
5.36963e-05
5.32404e-05
5.41972e-05
5.50515e-05
5.63046e-05
5.76842e-05
5.90337e-05
6.04145e-05
6.16236e-05
6.26928e-05
6.35387e-05
6.41372e-05
6.44808e-05
6.45308e-05
6.42956e-05
6.37306e-05
6.28209e-05
6.14971e-05
5.97026e-05
5.73542e-05
5.44126e-05
5.08809e-05
4.69519e-05
2.24933e-05
2.29059e-05
2.33216e-05
2.37389e-05
2.41583e-05
2.4581e-05
2.50087e-05
2.54433e-05
2.58864e-05
2.63398e-05
2.68051e-05
2.7284e-05
2.77778e-05
2.82881e-05
2.88162e-05
2.93635e-05
2.99314e-05
3.0521e-05
3.11337e-05
3.17706e-05
3.24329e-05
3.31219e-05
3.38387e-05
3.45848e-05
3.53615e-05
3.61703e-05
3.70132e-05
3.78921e-05
3.88096e-05
3.97686e-05
4.07726e-05
4.18257e-05
4.29326e-05
4.40983e-05
4.53286e-05
4.66289e-05
4.80049e-05
4.94619e-05
5.1004e-05
5.26332e-05
5.43481e-05
5.6143e-05
5.8006e-05
5.99182e-05
6.18527e-05
6.37732e-05
6.56339e-05
6.73789e-05
6.89432e-05
7.02541e-05
7.12357e-05
7.18129e-05
7.19179e-05
7.14974e-05
7.05197e-05
6.89871e-05
6.69388e-05
6.44462e-05
6.18556e-05
5.90229e-05
5.75651e-05
5.72657e-05
5.79083e-05
5.86197e-05
5.98026e-05
6.10262e-05
6.22776e-05
6.35019e-05
6.45752e-05
6.54998e-05
6.61914e-05
6.66375e-05
6.68105e-05
6.66927e-05
6.62851e-05
6.55741e-05
6.45619e-05
6.3224e-05
6.15336e-05
5.94347e-05
5.68744e-05
5.38127e-05
5.03422e-05
4.68011e-05
4.39703e-05
2.41804e-05
2.46567e-05
2.51293e-05
2.55997e-05
2.60705e-05
2.65444e-05
2.70239e-05
2.75115e-05
2.80094e-05
2.85195e-05
2.90437e-05
2.95838e-05
3.01415e-05
3.07182e-05
3.13155e-05
3.19347e-05
3.25773e-05
3.32444e-05
3.39374e-05
3.46575e-05
3.5406e-05
3.61842e-05
3.69933e-05
3.78348e-05
3.87105e-05
3.96222e-05
4.05723e-05
4.15634e-05
4.2599e-05
4.36828e-05
4.48198e-05
4.60152e-05
4.72751e-05
4.8606e-05
5.00144e-05
5.15067e-05
5.30883e-05
5.47634e-05
5.65337e-05
5.83966e-05
6.03438e-05
6.23598e-05
6.44204e-05
6.64915e-05
6.85282e-05
7.04745e-05
7.2263e-05
7.38166e-05
7.50511e-05
7.58793e-05
7.62184e-05
7.5998e-05
7.51696e-05
7.37195e-05
7.16748e-05
6.91226e-05
6.63251e-05
6.32899e-05
6.15938e-05
6.13647e-05
6.17367e-05
6.2371e-05
6.34146e-05
6.44967e-05
6.56405e-05
6.67216e-05
6.7666e-05
6.84433e-05
6.89891e-05
6.92875e-05
6.93051e-05
6.90308e-05
6.8461e-05
6.75953e-05
6.64446e-05
6.50122e-05
6.32997e-05
6.12862e-05
5.89351e-05
5.61983e-05
5.3057e-05
4.95668e-05
4.65451e-05
4.40254e-05
4.21558e-05
2.67089e-05
2.71889e-05
2.76713e-05
2.81573e-05
2.8649e-05
2.91486e-05
2.96582e-05
3.018e-05
3.07159e-05
3.12677e-05
3.18372e-05
3.2426e-05
3.30356e-05
3.36676e-05
3.43232e-05
3.50039e-05
3.57109e-05
3.64454e-05
3.72088e-05
3.80022e-05
3.88269e-05
3.96844e-05
4.05762e-05
4.15039e-05
4.24697e-05
4.34762e-05
4.45263e-05
4.56239e-05
4.67733e-05
4.798e-05
4.92502e-05
5.05908e-05
5.20094e-05
5.35134e-05
5.51099e-05
5.68048e-05
5.8602e-05
6.05021e-05
6.25011e-05
6.45881e-05
6.67431e-05
6.89358e-05
7.11235e-05
7.32512e-05
7.52508e-05
7.70416e-05
7.8533e-05
7.96276e-05
8.02283e-05
8.02464e-05
7.96142e-05
7.82994e-05
7.63059e-05
7.37354e-05
7.07892e-05
6.76416e-05
6.56325e-05
6.53709e-05
6.55547e-05
6.6116e-05
6.70185e-05
6.79911e-05
6.9016e-05
6.99659e-05
7.07881e-05
7.14292e-05
7.18391e-05
7.19941e-05
7.18656e-05
7.1444e-05
7.07233e-05
6.97086e-05
6.84147e-05
6.68595e-05
6.50635e-05
6.30368e-05
6.07722e-05
5.82364e-05
5.53843e-05
5.22284e-05
4.89182e-05
4.62359e-05
4.40508e-05
4.2422e-05
4.13302e-05
2.97558e-05
3.02199e-05
3.06943e-05
3.11796e-05
3.16772e-05
3.21886e-05
3.27154e-05
3.32593e-05
3.38216e-05
3.4404e-05
3.50079e-05
3.56347e-05
3.62858e-05
3.69623e-05
3.76657e-05
3.83971e-05
3.91577e-05
3.99486e-05
4.07712e-05
4.16268e-05
4.25167e-05
4.34425e-05
4.44062e-05
4.54101e-05
4.64569e-05
4.755e-05
4.86938e-05
4.98932e-05
5.11545e-05
5.24847e-05
5.38917e-05
5.53841e-05
5.69701e-05
5.86577e-05
6.0453e-05
6.23595e-05
6.43766e-05