/*--------------------------------*- C++ -*----------------------------------*\
| =========                 |                                                 |
| \\      /  F ield         | OpenFOAM: The Open Source CFD Toolbox           |
|  \\    /   O peration     | Version:  2412                                  |
|   \\  /    A nd           | Website:  www.openfoam.com                      |
|    \\/     M anipulation  |                                                 |
\*---------------------------------------------------------------------------*/
FoamFile
{
    version     2.0;
    format      ascii;
    arch        "LSB;label=32;scalar=64";
    class       volScalarField;
    location    "140";
    object      p;
}
// * * * * * * * * * * * * * * * * * * * * * * * * * * * * * * * * * * * * * //

dimensions      [0 2 -2 0 0 0 0];

internalField   nonuniform List<scalar> 
7373
(
56.8712
57.3887
57.9743
58.6394
59.3878
60.2229
61.1483
62.1662
63.2772
64.4905
65.8217
67.2754
68.8578
70.5762
72.4379
74.4591
76.6545
79.0296
81.605
84.3919
87.4063
90.6693
94.1953
98.0066
102.124
106.572
111.372
116.549
122.132
128.148
134.629
141.606
149.114
157.184
165.86
175.177
185.181
195.914
207.424
219.764
232.987
247.149
262.316
278.551
295.926
314.517
334.403
355.674
378.421
402.735
428.716
456.488
486.101
517.681
551.259
586.816
624.206
663.08
702.64
741.286
776.086
801.625
804.825
769.284
650.303
367.075
-162.32
-1145.05
56.8712
57.3887
57.9743
58.6394
59.3878
60.2229
61.1483
62.1662
63.2772
64.4905
65.8217
67.2754
68.8578
70.5762
72.4379
74.4591
76.6545
79.0296
81.605
84.3919
87.4063
90.6693
94.1953
98.0066
102.124
106.572
111.372
116.549
122.132
128.148
134.629
141.606
149.113
157.184
165.86
175.177
185.181
195.914
207.424
219.764
232.987
247.149
262.316
278.551
295.926
314.517
334.403
355.674
378.421
402.735
428.716
456.488
486.101
517.681
551.258
586.816
624.206
663.08
702.64
741.286
776.085
801.624
804.823
769.281
650.298
367.073
-162.31
-1144.98
56.8712
57.3887
57.9743
58.6394
59.3878
60.2229
61.1483
62.1662
63.2772
64.4905
65.8217
67.2754
68.8578
70.5762
72.438
74.4591
76.6545
79.0296
81.605
84.3919
87.4063
90.6693
94.1953
98.0066
102.124
106.572
111.372
116.549
122.132
128.148
134.629
141.606
149.113
157.184
165.86
175.177
185.181
195.914
207.424
219.764
232.987
247.149
262.316
278.551
295.926
314.517
334.403
355.674
378.421
402.735
428.716
456.488
486.101
517.681
551.259
586.816
624.206
663.08
702.64
741.285
776.085
801.623
804.821
769.276
650.288
367.057
-162.33
-1144.92
56.8712
57.3887
57.9743
58.6394
59.3878
60.2229
61.1484
62.1662
63.2772
64.4905
65.8217
67.2754
68.8579
70.5762
72.438
74.4592
76.6546
79.0296
81.6051
84.392
87.4064
90.6693
94.1954
98.0067
102.124
106.572
111.372
116.549
122.132
128.148
134.629
141.606
149.114
157.184
165.86
175.177
185.181
195.914
207.424
219.764
232.987
247.149
262.316
278.551
295.926
314.517
334.403
355.674
378.421
402.735
428.716
456.488
486.101
517.681
551.259
586.816
624.206
663.08
702.64
741.285
776.084
801.622
804.819
769.271
650.275
367.04
-162.337
-1144.79
56.8713
57.3888
57.9744
58.6395
59.3879
60.223
61.1484
62.1663
63.2773
64.4906
65.8218
67.2755
68.8579
70.5763
72.4381
74.4592
76.6547
79.0297
81.6052
84.3921
87.4064
90.6694
94.1955
98.0068
102.125
106.572
111.372
116.549
122.132
128.148
134.629
141.607
149.114
157.184
165.86
175.178
185.181
195.914
207.424
219.764
232.987
247.15
262.316
278.551
295.926
314.517
334.403
355.674
378.421
402.735
428.716
456.489
486.101
517.681
551.259
586.816
624.207
663.08
702.64
741.286
776.084
801.621
804.816
769.264
650.262
367.035
-162.288
-1144.49
56.8714
57.3889
57.9745
58.6396
59.388
60.2231
61.1485
62.1664
63.2774
64.4907
65.8219
67.2756
68.8581
70.5764
72.4382
74.4594
76.6548
79.0298
81.6053
84.3922
87.4066
90.6696
94.1957
98.007
102.125
106.572
111.372
116.549
122.132
128.148
134.629
141.607
149.114
157.185
165.86
175.178
185.181
195.914
207.425
219.765
232.988
247.15
262.316
278.552
295.926
314.517
334.403
355.674
378.422
402.735
428.717
456.489
486.101
517.681
551.259
586.817
624.207
663.081
702.641
741.286
776.084
801.62
804.813
769.257
650.253
367.054
-162.173
-1143.94
56.8716
57.3891
57.9747
58.6398
59.3882
60.2233
61.1488
62.1666
63.2777
64.491
65.8221
67.2758
68.8583
70.5767
72.4385
74.4597
76.6551
79.0301
81.6056
84.3926
87.407
90.6699
94.196
98.0073
102.125
106.572
111.372
116.55
122.132
128.149
134.63
141.607
149.114
157.185
165.861
175.178
185.182
195.915
207.425
219.765
232.988
247.151
262.317
278.552
295.927
314.518
334.404
355.675
378.422
402.736
428.717
456.49
486.102
517.682
551.26
586.818
624.208
663.082
702.642
741.287
776.085
801.619
804.81
769.251
650.249
367.107
-161.986
-1143.04
56.8719
57.3894
57.975
58.6401
59.3886
60.2237
61.1491
62.167
63.2781
64.4914
65.8226
67.2763
68.8588
70.5772
72.4389
74.4602
76.6556
79.0307
81.6062
84.3931
87.4075
90.6705
94.1966
98.008
102.126
106.573
111.373
116.551
122.133
128.149
134.631
141.608
149.115
157.186
165.862
175.179
185.183
195.916
207.426
219.766
232.989
247.152
262.318
278.554
295.928
314.519
334.405
355.676
378.424
402.738
428.719
456.491
486.104
517.684
551.262
586.819
624.21
663.084
702.644
741.289
776.086
801.618
804.806
769.244
650.253
367.208
-161.667
-1141.7
56.8724
57.39
57.9756
58.6407
59.3891
60.2242
61.1497
62.1676
63.2787
64.492
65.8232
67.2769
68.8594
70.5779
72.4397
74.4609
76.6564
79.0315
81.607
84.394
87.4084
90.6715
94.1976
98.009
102.127
106.574
111.374
116.552
122.134
128.151
134.632
141.609
149.117
157.188
165.863
175.181
185.185
195.917
207.428
219.768
232.991
247.153
262.32
278.555
295.93
314.521
334.407
355.678
378.426
402.74
428.721
456.494
486.106
517.686
551.265
586.822
624.213
663.087
702.648
741.292
776.088
801.618
804.802
769.239
650.269
367.361
-161.157
-1139.8
56.8732
57.3908
57.9763
58.6415
59.3899
60.2251
61.1506
62.1685
63.2796
64.4929
65.8242
67.2779
68.8604
70.5789
72.4407
74.462
76.6575
79.0327
81.6082
84.3953
87.4098
90.6728
94.199
98.0105
102.128
106.576
111.376
116.554
122.136
128.153
134.634
141.611
149.119
157.19
165.866
175.183
185.187
195.92
207.43
219.771
232.994
247.156
262.323
278.558
295.933
314.524
334.411
355.682
378.429
402.743
428.724
456.497
486.11
517.69
551.269
586.827
624.218
663.092
702.653
741.297
776.091
801.617
804.798
769.235
650.301
367.581
-160.47
-1137.25
-2161.57
56.8743
57.3918
57.9774
58.6426
59.3911
60.2262
61.1518
62.1697
63.2808
64.4942
65.8255
67.2793
68.8619
70.5804
72.4422
74.4636
76.6591
79.0343
81.61
84.397
87.4116
90.6748
94.201
98.0125
102.131
106.578
111.378
116.556
122.139
128.155
134.636
141.614
149.122
157.193
165.869
175.186
185.19
195.923
207.434
219.775
232.998
247.16
262.327
278.563
295.937
314.529
334.415
355.686
378.434
402.748
428.73
456.503
486.116
517.696
551.275
586.833
624.225
663.099
702.66
741.303
776.095
801.617
804.793
769.233
650.349
367.905
-159.643
-1133.97
-2156.61
-3036.9
56.8757
57.3933
57.9789
58.6441
59.3926
60.2278
61.1533
62.1713
63.2825
64.4959
65.8272
67.2811
68.8637
70.5823
72.4442
74.4656
76.6613
79.0365
81.6123
84.3994
87.4141
90.6773
94.2037
98.0153
102.133
106.581
111.381
116.559
122.142
128.159
134.64
141.618
149.126
157.197
165.873
175.191
185.195
195.928
207.439
219.78
233.003
247.166
262.332
278.568
295.943
314.535
334.422
355.693
378.441
402.755
428.737
456.51
486.124
517.705
551.284
586.843
624.235
663.11
702.67
741.312
776.101
801.617
804.787
769.234
650.418
368.358
-158.691
-1129.91
-2150.51
-3029.87
-3567.84
56.8775
57.3951
57.9808
58.646
59.3945
60.2297
61.1554
62.1734
63.2846
64.4981
65.8295
67.2834
68.8661
70.5847
72.4468
74.4683
76.664
79.0394
81.6152
84.4025
87.4172
90.6806
94.2071
98.0189
102.137
106.585
111.385
116.563
122.146
128.163
134.645
141.623
149.131
157.202
165.878
175.196
185.201
195.934
207.445
219.786
233.01
247.173
262.34
278.576
295.951
314.543
334.43
355.702
378.45
402.765
428.747
456.521
486.135
517.717
551.297
586.856
624.249
663.124
702.684
741.324
776.109
801.617
804.781
769.236
650.508
368.938
-157.586
-1125.06
-2143.15
-3021.43
-3560.56
56.8798
57.3974
57.9831
58.6484
59.397
60.2322
61.1579
62.176
63.2873
64.5008
65.8323
67.2863
68.8691
70.5878
72.45
74.4716
76.6674
79.0429
81.6189
84.4063
87.4212
90.6848
94.2114
98.0233
102.142
106.59
111.39
116.569
122.152
128.169
134.651
141.629
149.137
157.209
165.885
175.204
185.208
195.942
207.453
219.795
233.019
247.182
262.35
278.586
295.962
314.554
334.442
355.714
378.463
402.778
428.761
456.536
486.15
517.733
551.314
586.874
624.267
663.143
702.702
741.34
776.119
801.616
804.773
769.241
650.619
369.637
-156.306
-1119.42
-2134.43
-3011.55
-3551.57
56.8825
57.4002
57.986
58.6513
59.3999
60.2353
61.161
62.1792
63.2906
64.5042
65.8358
67.2899
68.8728
70.5917
72.454
74.4757
76.6717
79.0473
81.6235
84.4111
87.4262
90.6899
94.2167
98.0289
102.148
106.596
111.397
116.575
122.159
128.176
134.658
141.637
149.145
157.217
165.894
175.213
185.218
195.952
207.464
219.805
233.03
247.194
262.362
278.599
295.975
314.568
334.456
355.729
378.479
402.795
428.779
456.554
486.17
517.754
551.336
586.897
624.292
663.168
702.726
741.36
776.132
801.616
804.765
769.247
650.751
370.449
-154.849
-1112.98
-2124.34
-3000.15
-3540.76
56.8859
57.4037
57.9895
58.6548
59.4036
60.239
61.1648
62.1831
63.2946
64.5083
65.84
67.2943
68.8773
70.5963
72.4588
74.4807
76.6769
79.0527
81.629
84.4168
87.4322
90.6961
94.2233
98.0357
102.155
106.603
111.404
116.583
122.167
128.185
134.667
141.646
149.155
157.227
165.905
175.224
185.229
195.964
207.476
219.819
233.044
247.208
262.377
278.615
295.992
314.586
334.475
355.749
378.499
402.817
428.802
456.579
486.196
517.781
551.365
586.928
624.324
663.199
702.756
741.385
776.146
801.615
804.754
769.253
650.901
371.361
-153.194
-1105.69
-2112.83
-2987.12
-3528.15
56.89
57.4078
57.9937
58.6591
59.4079
60.2435
61.1694
62.1878
63.2994
64.5133
65.8451
67.2995
68.8828
70.602
72.4646
74.4867
76.6831
79.0592
81.6358
84.4239
87.4395
90.7037
94.2312
98.0439
102.163
106.612
111.413
116.593
122.177
128.195
134.678
141.658
149.167
157.24
165.918
175.238
185.244
195.979
207.492
219.835
233.061
247.226
262.396
278.634
296.012
314.607
334.498
355.773
378.525
402.844
428.831
456.609
486.228
517.816
551.401
586.966
624.363
663.239
702.792
741.414
776.163
801.613
804.741
769.26
651.069
372.363
-151.309
-1097.51
-2099.88
-2972.32
-3513.7
56.8948
57.4128
57.9987
58.6643
59.4132
60.2488
61.1749
62.1934
63.3052
64.5192
65.8513
67.3059
68.8893
70.6087
72.4716
74.494
76.6906
79.067
81.6439
84.4323
87.4483
90.7129
94.2407
98.0538
102.173
106.623
111.425
116.604
122.189
128.208
134.691
141.672
149.181
157.255
165.934
175.254
185.261
195.997
207.511
219.855
233.081
247.248
262.418
278.658
296.038
314.634
334.526
355.802
378.556
402.877
428.866
456.647
486.269
517.859
551.447
587.014
624.412
663.286
702.835
741.448
776.181
801.61
804.724
769.264
651.253
373.457
-149.17
-1088.36
-2085.42
-2955.61
-3497.22
56.9006
57.4186
58.0047
58.6704
59.4194
60.2552
61.1814
62.2001
63.312
64.5263
65.8586
67.3134
68.8971
70.6168
72.48
74.5026
76.6996
79.0763
81.6536
84.4424
87.4587
90.7238
94.252
98.0656
102.186
106.636
111.438
116.618
122.204
128.223
134.707
141.688
149.199
157.273
165.953
175.274
185.282
196.019
207.534
219.879
233.106
247.274
262.446
278.687
296.068
314.666
334.56
355.839
378.595
402.918
428.91
456.694
486.319
517.912
551.503
587.072
624.47
663.342
702.885
741.486
776.202
801.605
804.703
769.266
651.454
374.657
-146.752
-1078.16
-2069.29
-2936.9
-3478.53
56.9075
57.4256
58.0118
58.6776
59.4268
60.2628
61.1892
62.2081
63.3202
64.5348
65.8673
67.3223
68.9063
70.6264
72.4899
74.5129
76.7103
79.0874
81.6651
84.4543
87.4712
90.7367
94.2655
98.0797
102.201
106.651
111.454
116.635
122.221
128.241
134.726
141.708
149.22
157.295
165.975
175.298
185.307
196.045
207.561
219.907
233.136
247.306
262.479
278.722
296.105
314.705
334.601
355.882
378.641
402.968
428.963
456.751
486.38
517.977
551.571
587.141
624.539
663.407
702.942
741.529
776.223
801.597
804.676
769.262
651.671
375.973
-144.02
-1066.79
-2051.3
-2916.05
-3457.46
55.2966
55.2674
55.3035
55.4068
55.5773
55.8125
56.1133
56.4756
56.9156
57.4339
58.0202
58.6862
59.4356
60.2717
61.1984
62.2175
63.3299
64.5447
65.8775
67.3329
68.9173
70.6377
72.5016
74.5251
76.7229
79.1006
81.6787
84.4685
87.486
90.7521
94.2816
98.0965
102.218
106.669
111.473
116.655
122.242
128.263
134.749
141.732
149.244
157.321
166.002
175.326
185.336
196.076
207.594
219.941
233.172
247.343
262.519
278.764
296.149
314.752
334.651
355.935
378.698
403.028
429.027
456.82
486.453
518.054
551.651
587.222
624.618
663.481
703.006
741.577
776.246
801.585
804.642
769.252
651.904
377.41
-140.93
-1054.16
-2031.27
-2892.78
-3433.94
55.3054
55.2763
55.3125
55.4158
55.5863
55.8217
56.1226
56.485
56.9252
57.4436
58.0301
58.6963
59.4459
60.2823
61.2092
62.2286
63.3413
64.5565
65.8896
67.3455
68.9302
70.6511
72.5155
74.5395
76.7378
79.1161
81.6949
84.4853
87.5035
90.7703
94.3006
98.1163
102.239
106.691
111.496
116.679
122.267
128.289
134.776
141.76
149.274
157.351
166.035
175.36
185.371
196.113
207.632
219.982
233.215
247.388
262.566
278.814
296.202
314.808
334.71
355.999
378.765
403.1
429.105
456.902
486.54
518.144
551.743
587.314
624.707
663.564
703.077
741.628
776.269
801.569
804.599
769.232
652.154
378.976
-137.432
-1040.14
-2009.01
-2866.81
-3407.77
55.3158
55.2867
55.323
55.4264
55.597
55.8324
56.1335
56.4961
56.9365
57.455
58.0417
58.7081
59.458
60.2947
61.2219
62.2417
63.3547
64.5703
65.9039
67.3602
68.9454
70.6668
72.5318
74.5564
76.7554
79.1343
81.7139
84.5051
87.5241
90.7918
94.3229
98.1396
102.263
106.716
111.522
116.706
122.296
128.319
134.808
141.793
149.308
157.388
166.073
175.4
185.413
196.157
207.678
220.03
233.266
247.442
262.623
278.874
296.265
314.875
334.781
356.074
378.846
403.187
429.197
457
486.64
518.25
551.849
587.419
624.808
663.656
703.155
741.684
776.291
801.546
804.545
769.201
652.419
380.678
-133.466
-1024.62
-1984.33
-2837.9
-3378.69
55.3279
55.299
55.3354
55.4388
55.6095
55.8451
56.1463
56.5092
56.9497
57.4684
58.0554
58.7221
59.4722
60.3092
61.2369
62.257
63.3705
64.5866
65.9207
67.3775
68.9633
70.6854
72.551
74.5763
76.7761
79.1558
81.7362
84.5283
87.5483
90.817
94.3492
98.167
102.292
106.746
111.553
116.739
122.33
128.355
134.845
141.832
149.349
157.431
166.117
175.447
185.462
196.208
207.733
220.087
233.326
247.505
262.689
278.944
296.34
314.954
334.865
356.164
378.942
403.289
429.305
457.112
486.755
518.37
551.968
587.536
624.92
663.759
703.242
741.745
776.314
801.515
804.476
769.154
652.697
382.53
-128.966
-1007.5
-1957.01
-2805.8
-3346.49
55.3421
55.3134
55.3498
55.4533
55.6242
55.8599
56.1612
56.5244
56.9652
57.4842
58.0714
58.7384
59.4889
60.3263
61.2544
62.275
63.389
64.6056
65.9403
67.3978
68.9843
70.7071
72.5735
74.5997
76.8003
79.181
81.7624
84.5556
87.5767
90.8466
94.3801
98.1993
102.325
106.781
111.59
116.777
122.37
128.397
134.889
141.878
149.397
157.481
166.17
175.502
185.521
196.269
207.797
220.155
233.397
247.58
262.768
279.028
296.428
315.048
334.965
356.27
379.054
403.408
429.43
457.236
486.891
518.503
552.101
587.667
625.045
663.873
703.336
741.809
776.333
801.474
804.388
769.087
652.987
384.541
-123.859
-988.688
-1927
-2770.21
-3310.82
55.3587
55.3301
55.3667
55.4703
55.6413
55.8772
56.1787
56.5423
56.9834
57.5025
58.0901
58.7575
59.5084
60.3463
61.2749
62.296
63.4106
64.6279
65.9633
67.4215
69.0088
70.7325
72.5999
74.627
76.8287
79.2105
81.7931
84.5876
87.61
90.8814
94.4164
98.2371
102.365
106.822
111.633
116.822
122.417
128.446
134.94
141.932
149.454
157.54
166.232
175.567
185.589
196.341
207.872
220.234
233.48
247.668
262.861
279.126
296.532
315.158
335.083
356.395
379.186
403.545
429.573
457.376
487.043
518.653
552.251
587.813
625.184
663.998
703.44
741.877
776.35
801.418
804.278
768.994
653.285
386.675
-118.078
-968.081
-1894.29
-2730.67
-3271.16
55.3781
55.3497
55.3864
55.4902
55.6613
55.8974
56.1992
56.5631
57.0046
57.524
58.112
58.7798
59.5312
60.3696
61.2988
62.3206
63.4359
64.654
65.9902
67.4492
69.0375
70.7622
72.6307
74.659
76.8618
79.2451
81.829
84.6249
87.649
90.922
94.4587
98.2813
102.411
106.871
111.684
116.875
122.472
128.504
135.001
141.995
149.52
157.61
166.305
175.643
185.669
196.425
207.961
220.327
233.579
247.771
262.971
279.242
296.655
315.288
335.22
356.539
379.335
403.699
429.733
457.538
487.209
518.82
552.417
587.976
625.338
664.137
703.552
741.948
776.36
801.344
804.139
768.868
653.585
388.934
-111.567
-945.575
-1858.66
-2686.68
-3227.12
55.4006
55.3725
55.4094
55.5133
55.6846
55.9209
56.223
56.5874
57.0293
57.549
58.1375
58.8058
59.5578
60.3968
61.3267
62.3493
63.4654
64.6844
66.0215
67.4816
69.071
70.7969
72.6666
74.6963
76.9006
79.2854
81.871
84.6686
87.6945
90.9694
94.5082
98.333
102.465
106.927
111.743
116.937
122.537
128.571
135.071
142.069
149.598
157.691
166.39
175.733
185.763
196.524
208.064
220.437
233.694
247.893
263.099
279.377
296.798
315.439
335.377
356.702
379.504
403.873
429.911
457.72
487.394
519.007
552.603
588.157
625.509
664.288
703.672
742.019
776.361
801.247
803.963
768.698
653.88
391.384
-104.275
-921.06
-1819.82
-2637.97
-3178.54
55.4269
55.399
55.4361
55.5402
55.7117
55.9484
56.2508
56.6158
57.0581
57.5782
58.1672
58.8361
59.5888
60.4286
61.3593
62.3827
63.4998
64.7198
66.0581
67.5193
69.11
70.8373
72.7086
74.7398
76.9457
79.3323
81.9198
84.7195
87.7475
91.0247
94.5659
98.3932
102.528
106.993
111.811
117.009
122.612
128.65
135.154
142.156
149.688
157.786
166.49
175.837
185.873
196.639
208.186
220.564
233.828
248.035
263.248
279.534
296.963
315.61
335.555
356.886
379.693
404.068
430.111
457.924
487.602
519.216
552.81
588.358
625.697
664.453
703.801
742.091
776.35
801.12
803.742
768.475
654.162
394.035
-96.1411
-894.428
-1777.49
-2584.48
-3125.2
55.4574
55.4299
55.4672
55.5715
55.7433
55.9803
56.2832
56.6487
57.0916
57.6121
58.2017
58.8713
59.6248
60.4655
61.3971
62.4216
63.5398
64.761
66.1006
67.5633
69.1554
70.8843
72.7574
74.7904
76.9983
79.387
81.9768
84.7787
87.8093
91.0891
94.6332
98.4634
102.601
107.069
111.891
117.092
122.699
128.742
135.25
142.256
149.794
157.896
166.606
175.959
186
196.773
208.327
220.713
233.984
248.199
263.42
279.714
297.149
315.803
335.754
357.091
379.905
404.286
430.335
458.153
487.834
519.448
553.04
588.58
625.903
664.632
703.936
742.158
776.32
800.955
803.463
768.182
654.417
396.891
-87.0858
-865.608
-1731.5
-2526.11
-3066.41
-3247.8
55.4929
55.4658
55.5033
55.6079
55.78
56.0174
56.3208
56.687
57.1306
57.6516
58.2419
58.9123
59.6667
60.5084
61.4412
62.4668
63.5863
64.8089
66.15
67.6143
69.2083
70.939
72.8141
74.8493
77.0594
79.4507
82.0429
84.8477
87.8812
91.164
94.7114
98.5451
102.686
107.158
111.985
117.19
122.802
128.849
135.362
142.373
149.916
158.025
166.741
176.101
186.149
196.93
208.491
220.885
234.164
248.387
263.616
279.916
297.359
316.02
335.978
357.323
380.143
404.531
430.586
458.409
488.092
519.707
553.295
588.824
626.128
664.825
704.076
742.218
776.265
800.74
803.112
767.802
654.628
399.951
-77.0281
-834.568
-1681.74
-2462.56
-3001.55
-3194.47
55.5341
55.5074
55.5453
55.6502
55.8226
56.0605
56.3644
56.7315
57.1758
57.6974
58.2886
58.9599
59.7153
60.5582
61.4923
62.5193
63.6402
64.8646
66.2074
67.6736
69.2696
71.0026
72.88
74.9177
77.1304
79.5245
82.1198
84.9277
87.9646
91.2511
94.8022
98.6399
102.786
107.262
112.093
117.303
122.92
128.973
135.492
142.509
150.059
158.175
166.897
176.265
186.321
197.11
208.679
221.081
234.368
248.598
263.835
280.143
297.594
316.263
336.229
357.582
380.41
404.805
430.866
458.694
488.38
519.994
553.576
589.092
626.372
665.029
704.218
742.264
776.176
800.462
802.671
767.313
654.774
403.205
-65.8894
-801.304
-1628.07
-2393.68
-2930.93
-3135.88
55.662
55.5819
55.5557
55.5939
55.6992
55.872
56.1104
56.415
56.7831
57.2282
57.7505
58.3426
59.0151
59.7718
60.616
61.5516
62.5802
63.7029
64.9291
66.274
67.7424
69.3407
71.0762
72.9564
74.9969
77.2127
79.6102
82.2089
85.0205
88.0614
91.352
94.9075
98.7499
102.9
107.382
112.218
117.434
123.057
129.116
135.642
142.667
150.224
158.347
167.078
176.454
186.518
197.315
208.892
221.302
234.598
248.836
264.081
280.398
297.857
316.535
336.511
357.872
380.709
405.111
431.179
459.011
488.699
520.312
553.886
589.385
626.636
665.245
704.358
742.291
776.041
800.105
802.117
766.687
654.83
406.641
-53.5897
-765.858
-1570.42
-2319.47
-2854.37
-3071.59
55.7172
55.6373
55.6116
55.6502
55.7559
55.9292
56.1683
56.4736
56.8428
57.2889
57.812
58.4053
59.079
59.8371
60.6829
61.6202
62.6507
63.7754
65.0038
66.3511
67.822
69.423
71.1615
73.0448
75.0887
77.3081
79.7094
82.3121
85.128
88.1734
91.4687
95.0294
98.8771
103.033
107.521
112.363
117.586
123.216
129.282
135.816
142.848
150.413
158.545
167.284
176.668
186.741
197.546
209.132
221.55
234.855
249.103
264.358
280.684
298.154
316.842
336.827
358.198
381.043
405.453
431.527
459.364
489.053
520.662
554.225
589.702
626.916
665.467
704.489
742.287
775.846
799.646
801.422
765.889
654.758
410.235
-40.0343
-728.334
-1508.87
-2239.95
-2771.73
-3001.36
55.781
55.7014
55.6763
55.7154
55.8215
55.9954
56.2352
56.5414
56.9119
57.3592
57.8832
58.4778
59.153
59.9127
60.7603
61.6997
62.7323
63.8593
65.0903
66.4403
67.9141
69.5183
71.2602
73.1471
75.1949
77.4182
79.824
82.4314
85.2521
88.3028
91.6036
95.1701
99.024
103.187
107.681
112.531
117.761
123.398
129.473
136.014
143.055
150.628
158.768
167.516
176.909
186.99
197.805
209.401
221.83
235.144
249.403
264.668
281.006
298.486
317.185
337.181
358.561
381.416
405.834
431.915
459.755
489.443
521.046
554.594
590.044
627.213
665.692
704.604
742.24
775.572
799.06
800.552
764.88
654.484
413.952
-25.1403
-688.935
-1443.57
-2155.24
-2683.01
-2924.98
55.8548
55.7754
55.751
55.7906
55.8973
56.0718
56.3126
56.6197
56.9917
57.4403
57.9655
58.5615
59.2384
60
60.8497
61.7914
62.8265
63.9561
65.19
66.5431
68.0203
69.6281
71.374
73.2651
75.3172
77.5453
79.9561
82.5688
85.3952
88.4519
91.759
95.3321
99.1929
103.363
107.865
112.722
117.96
123.605
129.688
136.238
143.288
150.87
159.019
167.776
177.179
187.271
198.096
209.703
222.143
235.47
249.74
265.017
281.367
298.859
317.569
337.576
358.967
381.831
406.258
432.344
460.187
489.873
521.466
554.994
590.409
627.521
665.912
704.692
742.133
775.195
798.314
799.465
763.606
653.964
417.741
-8.99427
-647.927
-1374.78
-2065.54
-2588.28
-2842.33
55.9398
55.8608
55.8371
55.8774
55.9847
56.16
56.4017
56.7101
57.0837
57.5339
58.0603
58.658
59.3368
60.1005
60.9527
61.8971
62.9351
64.0677
65.3049
66.6616
68.1427
69.7547
71.5051
73.4009
75.4581
77.6915
80.1081
82.7268
85.5594
88.6227
91.9366
95.5168
99.3851
103.563
108.072
112.938
118.184
123.839
129.93
136.49
143.549
151.141
159.302
168.07
177.484
187.587
198.424
210.043
222.496
235.835
250.118
265.408
281.77
299.275
317.998
338.017
359.42
382.293
406.727
432.819
460.663
490.343
521.922
555.424
590.794
627.836
666.119
704.739
741.946
774.685
797.367
798.111
762.008
653.329
421.528
8.11689
-605.327
-1302.78
-1971.22
-2487.76
-2753.35
56.0378
55.9592
55.9363
55.9772
56.0852
56.2613
56.5042
56.814
57.1897
57.6415
58.1693
58.7689
59.4498
60.2161
61.0712
62.0188
63.0601
64.1959
65.4369
66.7978
68.2834
69.9002
71.6554
73.5562
75.6191
77.8584
80.2813
82.9064
85.7458
88.8163
92.1376
95.7256
99.602
103.788
108.306
113.181
118.437
124.101
130.203
136.774
143.844
151.447
159.62
168.4
177.826
187.943
198.793
210.425
222.891
236.244
250.541
265.846
282.222
299.741
318.477
338.509
359.922
382.806
407.247
433.342
461.184
490.855
522.414
555.881
591.194
628.148
666.3
704.725
741.652
774.005
796.17
796.428
760.024
652.372
425.272
26.0125
-561.014
-1227.91
-1872.75
-2381.81
-2658.15
56.1502
56.072
56.05
56.0916
56.2005
56.3777
56.6221
56.9336
57.3114
57.7651
58.2944
58.8962
59.5797
60.3491
61.2075
62.1584
63.2028
64.342
65.5875
66.9531
68.4436
70.0655
71.8259
73.7322
75.8017
78.0472
80.4771
83.1093
85.9561
89.0346
92.3641
95.9608
99.8462
104.042
108.57
113.455
118.722
124.397
130.511
137.093
144.176
151.792
159.977
168.771
178.211
188.342
199.207
210.854
223.335
236.703
251.016
266.335
282.727
300.26
319.01
339.055
360.48
383.372
407.819
433.915
461.752
491.408
522.94
556.361
591.602
628.447
666.437
704.626
741.216
773.11
794.663
794.343
757.564
650.813
428.939
44.4466
-515.309
-1150.7
-1770.74
-2270.98
-2557.02
56.2791
56.2013
56.1803
56.2228
56.3328
56.5113
56.7573
57.0704
57.4503
57.9057
58.4366
59.041
59.7277
60.5004
61.3622
62.3164
63.3642
64.5076
65.7582
67.1289
68.6247
70.2521
72.0183
73.9312
76.0076
78.2602
80.6977
83.3378
86.1931
89.2806
92.6193
96.2259
100.122
104.328
108.867
113.764
119.042
124.73
130.857
137.452
144.549
152.179
160.379
169.188
178.644
188.79
199.671
211.335
223.832
237.217
251.546
266.882
283.29
300.839
319.603
339.661
361.097
383.996
408.447
434.541
462.368
492.002
523.497
556.858
592.007
628.717
666.509
704.41
740.597
771.943
792.776
791.77
754.529
648.753
432.395
62.7004
-469.15
-1071.95
-1665.78
-2155.76
-2450.38
56.4254
56.348
56.3279
56.3716
56.4829
56.6629
56.9105
57.2252
57.6072
58.0646
58.5977
59.2051
59.8951
60.6712
61.5367
62.4947
63.5467
64.695
65.951
67.3273
68.8288
70.4625
72.2353
74.1556
76.2398
78.5003
80.9465
83.5956
86.4604
89.5579
92.9071
96.5246
100.432
104.65
109.202
114.111
119.403
125.105
131.246
137.856
144.968
152.615
160.831
169.656
179.129
189.293
200.191
211.873
224.388
237.791
252.138
267.491
283.916
301.481
320.26
340.33
361.776
384.681
409.133
435.22
463.03
492.634
524.078
557.362
592.396
628.937
666.485
704.039
739.741
770.435
790.423
788.608
750.811
646.04
435.546
80.698
-423.089
-992.566
-1558.7
-2036.49
-2338.25
56.5906
56.5137
56.4948
56.5398
56.6526
56.8339
57.0832
57.3998
57.7844
58.2442
58.7799
59.3906
60.0841
60.864
61.7335
62.6958
63.7525
64.9064
66.1686
67.5511
69.0592
70.6998
72.4802
74.4088
76.5016
78.7711
81.227
83.8862
86.7616
89.8705
93.2313
96.8612
100.781
105.013
109.578
114.502
119.809
125.527
131.684
138.311
145.439
153.103
161.337
170.181
179.672
189.855
200.773
212.474
225.009
238.431
252.797
268.169
284.611
302.192
320.985
341.067
362.521
385.429
409.877
435.952
463.736
493.297
524.675
557.86
592.747
629.079
666.329
703.463
738.584
768.505
787.504
784.74
746.285
642.564
438.246
101.318
-374.794
-912.585
-1451.58
-1915.69
-2221.71
56.7771
56.7009
56.6833
56.7298
56.844
57.0269
57.278
57.5968
57.9841
58.4468
58.9855
59.6
60.2975
61.0816
61.9556
62.9227
63.9848
65.145
66.4142
67.8036
69.3191
70.9675
72.7563
74.6943
76.7969
79.0764
81.5432
84.2137
87.1011
90.2225
93.5964
97.2401
101.174
105.421
110.002
114.942
120.266
126.001
132.175
138.821
145.968
153.651
161.905
170.769
180.281
190.484
201.423
213.145
225.701
239.143
253.529
268.921
285.38
302.977
321.784
341.876
363.334
386.242
410.68
436.733
464.481
493.983
525.274
558.331
593.035
629.107
665.994
702.619
737.049
766.055
783.905
780.036
740.815
638.162
440.183
125.806
-322.597
-831.733
-1346.31
-1797.47
-2106.47
56.9873
56.9118
56.8959
56.9441
57.06
57.2447
57.4979
57.819
58.2095
58.6754
59.2175
59.8362
60.5382
61.3271
62.2062
63.1787
64.2469
65.4142
66.6911
68.0883
69.6121
71.2694
73.0677
75.0161
77.1296
79.4205
81.8994
84.5825
87.4833
90.6188
94.0074
97.6664
101.617
105.88
110.478
115.436
120.779
126.533
132.727
139.392
146.561
154.265
162.541
171.426
180.961
191.187
202.148
213.892
226.47
239.934
254.341
269.752
286.229
303.841
322.659
342.758
364.218
387.117
411.538
437.559
465.254
494.679
525.855
558.749
593.224
628.977
665.419
701.434
735.04
762.971
779.494
774.351
734.253
632.713
441.066
57.224
57.1495
57.1354
57.1855
57.3034
57.4903
57.7458
58.0697
58.4637
58.9332
59.4792
60.1026
60.8097
61.6039
62.4888
63.4675
64.5425
65.7178
67.0032
68.4093
69.9424
71.6096
73.4185
75.3786
77.5043
79.8079
82.3004
84.9977
87.9134
91.0646
94.4695
98.1456
102.114
106.395
111.013
115.991
121.354
127.129
133.345
140.033
147.224
154.951
163.251
172.16
181.719
191.969
202.955
214.723
227.324
240.81
255.238
270.668
287.162
304.787
323.614
343.716
365.17
388.054
412.445
438.42
466.044
495.364
526.394
559.082
593.271
628.63
664.533
699.816
732.447
759.121
774.127
767.526
726.44
626.09
441.273
57.4907
57.4174
57.4052
57.4575
57.5777
57.7669
58.0252
58.3523
58.7502
59.2238
59.7742
60.403
61.1157
61.916
62.8073
63.793
64.8757
66.0599
67.3549
68.7709
70.3145
71.9927
73.8136
75.7868
77.9261
80.2438
82.7515
85.4646
88.397
91.5657
94.9887
98.6839
102.672
106.974
111.613
116.613
121.998
127.797
134.037
140.749
147.965
155.718
164.043
172.979
182.563
192.839
203.85
215.643
228.268
241.778
256.226
271.674
288.183
305.818
324.649
344.747
366.188
389.046
413.393
439.301
466.829
496.014
526.855
559.284
593.118
627.995
663.247
697.657
729.142
754.358
767.643
759.397
717.217
618.146
440.45
57.7907
57.7188
57.7089
57.7637
57.8865
58.0785
58.3399
58.6707
59.073
59.5512
60.1067
60.7414
61.4605
62.2676
63.1662
64.1597
65.2511
66.4452
67.7509
69.178
70.7333
72.424
74.2582
76.2459
78.4005
80.734
83.2586
85.9893
88.9402
92.1284
95.5716
99.2879
103.298
107.623
112.285
117.309
122.719
128.544
134.81
141.549
148.792
156.572
164.925
173.888
183.501
193.804
204.841
216.66
229.31
242.841
257.309
272.773
289.293
306.934
325.763
345.85
367.265
390.081
414.366
440.183
467.584
496.593
527.194
559.298
592.694
626.985
661.454
694.831
724.977
748.516
759.876
749.795
706.458
608.77
437.691
58.128
58.0579
58.0505
58.1082
58.234
58.4292
58.6942
59.0291
59.4364
59.9199
60.4811
61.1225
61.8487
62.6634
63.5703
64.5726
65.6738
66.8789
68.1966
69.6361
71.2044
72.909
74.7582
76.762
78.9335
81.2847
83.8281
86.5783
89.5498
92.7595
96.2251
99.9647
103.999
108.349
113.037
118.087
123.525
129.377
135.672
142.44
149.713
157.523
165.905
174.898
184.539
194.87
205.935
217.78
230.453
244.005
258.491
273.968
290.494
308.134
326.952
347.015
368.39
391.145
415.343
441.038
468.271
497.055
527.353
559.053
591.913
625.494
659.029
691.191
719.787
741.42
750.651
738.558
694.069
597.92
433.193
58.5068
58.4389
58.4345
58.4953
58.6246
58.8236
59.0927
59.4324
59.8452
60.3347
60.9025
61.5513
62.2855
63.1088
64.0249
65.0371
66.1494
67.3668
68.6977
70.151
71.734
73.4541
75.3199
77.3417
79.5319
81.9028
84.4669
87.2388
90.2331
93.4666
96.9568
100.722
104.783
109.16
113.877
118.956
124.424
130.306
136.632
143.431
150.735
158.577
166.99
176.014
185.685
196.045
207.138
219.008
231.703
245.273
259.773
275.257
291.783
309.412