/*--------------------------------*- C++ -*----------------------------------*\
| =========                 |                                                 |
| \\      /  F ield         | OpenFOAM: The Open Source CFD Toolbox           |
|  \\    /   O peration     | Version:  2412                                  |
|   \\  /    A nd           | Website:  www.openfoam.com                      |
|    \\/     M anipulation  |                                                 |
\*---------------------------------------------------------------------------*/
FoamFile
{
    version     2.0;
    format      ascii;
    arch        "LSB;label=32;scalar=64";
    class       surfaceScalarField;
    location    "140";
    object      phi;
}
// * * * * * * * * * * * * * * * * * * * * * * * * * * * * * * * * * * * * * //

dimensions      [0 3 -1 0 0 0 0];

oriented        oriented;

internalField   nonuniform List<scalar> 
14564
(
-3.83269e-06
-1.01579e-10
-3.83269e-06
5.27823e-11
-3.83249e-06
-4.86152e-10
-3.83178e-06
-6.91119e-10
-3.83069e-06
-1.3472e-09
-3.82924e-06
-1.53008e-09
-3.82742e-06
-1.9033e-09
-3.82512e-06
-2.38159e-09
-3.8225e-06
-2.69952e-09
-3.81945e-06
-3.1246e-09
-3.81583e-06
-3.71203e-09
-3.81167e-06
-4.23512e-09
-3.8069e-06
-4.85134e-09
-3.80162e-06
-5.35844e-09
-3.79565e-06
-6.06121e-09
-3.78889e-06
-6.83593e-09
-3.78138e-06
-7.59811e-09
-3.77302e-06
-8.43741e-09
-3.76383e-06
-9.28223e-09
-3.75372e-06
-1.01894e-08
-3.74242e-06
-1.13818e-08
-3.72997e-06
-1.25453e-08
-3.71636e-06
-1.37003e-08
-3.70153e-06
-1.49299e-08
-3.68529e-06
-1.6338e-08
-3.66749e-06
-1.78941e-08
-3.64807e-06
-1.95253e-08
-3.62702e-06
-2.11418e-08
-3.60409e-06
-2.30358e-08
-3.57922e-06
-2.49668e-08
-3.5524e-06
-2.69311e-08
-3.52318e-06
-2.93519e-08
-3.49157e-06
-3.17462e-08
-3.45759e-06
-3.41209e-08
-3.42089e-06
-3.6829e-08
-3.38124e-06
-3.97885e-08
-3.33857e-06
-4.28068e-08
-3.29272e-06
-4.60126e-08
-3.24338e-06
-4.94893e-08
-3.19048e-06
-5.30401e-08
-3.1337e-06
-5.69093e-08
-3.07309e-06
-6.07012e-08
-3.00838e-06
-6.48974e-08
-2.93961e-06
-6.87858e-08
-2.86657e-06
-7.32173e-08
-2.7893e-06
-7.7291e-08
-2.70817e-06
-8.12582e-08
-2.62346e-06
-8.47122e-08
-2.53595e-06
-8.76125e-08
-2.44704e-06
-8.89458e-08
-2.35828e-06
-8.88376e-08
-2.27151e-06
-8.68054e-08
-2.18853e-06
-8.30367e-08
-2.10938e-06
-7.92194e-08
-2.0322e-06
-7.72368e-08
-1.95216e-06
-8.01069e-08
-1.86025e-06
-9.19577e-08
-1.74161e-06
-1.18688e-07
-1.5728e-06
-1.68836e-07
-1.31515e-06
-2.57657e-07
-8.98981e-07
-4.16167e-07
-2.29659e-07
-6.69283e-07
8.60188e-07
-1.08981e-06
2.71812e-06
-1.85779e-06
5.69252e-06
-2.97429e-06
1.02914e-05
-4.59868e-06
1.60296e-05
-5.73823e-06
-4.60415e-06
-1.3577e-05
-1.81244e-10
-1.3577e-05
7.19227e-11
-1.35752e-05
-2.72878e-09
-1.35725e-05
-3.4521e-09
-1.3569e-05
-5.24937e-09
-1.35634e-05
-7.22581e-09
-1.35562e-05
-9.19252e-09
-1.35484e-05
-1.03805e-08
-1.35386e-05
-1.25902e-08
-1.35271e-05
-1.48105e-08
-1.35138e-05
-1.71373e-08
-1.34991e-05
-1.90433e-08
-1.34823e-05
-2.18255e-08
-1.34627e-05
-2.51289e-08
-1.34408e-05
-2.80929e-08
-1.34166e-05
-3.1151e-08
-1.33896e-05
-3.47401e-08
-1.33596e-05
-3.86201e-08
-1.33263e-05
-4.27036e-08
-1.32897e-05
-4.68964e-08
-1.32494e-05
-5.18404e-08
-1.32048e-05
-5.73375e-08
-1.3156e-05
-6.26444e-08
-1.31026e-05
-6.84784e-08
-1.30445e-05
-7.45871e-08
-1.29806e-05
-8.20093e-08
-1.29112e-05
-8.91017e-08
-1.28357e-05
-9.68076e-08
-1.27533e-05
-1.05586e-07
-1.26642e-05
-1.14195e-07
-1.25681e-05
-1.23278e-07
-1.24639e-05
-1.33761e-07
-1.2351e-05
-1.44899e-07
-1.22292e-05
-1.5614e-07
-1.20981e-05
-1.68193e-07
-1.19565e-05
-1.81565e-07
-1.18041e-05
-1.95426e-07
-1.16401e-05
-2.10322e-07
-1.14637e-05
-2.26146e-07
-1.12746e-05
-2.42386e-07
-1.1072e-05
-2.5974e-07
-1.08553e-05
-2.77531e-07
-1.06241e-05
-2.9645e-07
-1.03778e-05
-3.15149e-07
-1.01165e-05
-3.34735e-07
-9.84018e-06
-3.53686e-07
-9.54982e-06
-3.71814e-07
-9.24642e-06
-3.88142e-07
-8.93284e-06
-4.01347e-07
-8.61406e-06
-4.07806e-07
-8.29519e-06
-4.0783e-07
-7.9829e-06
-3.99162e-07
-7.68352e-06
-3.82499e-07
-7.39762e-06
-3.65244e-07
-7.11815e-06
-3.5681e-07
-6.82849e-06
-3.69884e-07
-6.49737e-06
-4.23167e-07
-6.07303e-06
-5.43101e-07
-5.47381e-06
-7.68108e-07
-4.56712e-06
-1.16436e-06
-3.1141e-06
-1.86919e-06
-7.97253e-07
-2.98606e-06
2.94819e-06
-4.83518e-06
9.27556e-06
-8.18491e-06
1.93188e-05
-1.30173e-05
3.47458e-05
-2.00254e-05
5.38887e-05
-2.48812e-05
-2.0451e-05
-2.71713e-05
-1.37338e-09
-2.71704e-05
-7.68634e-10
-2.71671e-05
-6.49094e-09
-2.71612e-05
-9.42589e-09
-2.71519e-05
-1.49275e-08
-2.71413e-05
-1.79913e-08
-2.71274e-05
-2.32107e-08
-2.711e-05
-2.7952e-08
-2.70896e-05
-3.31415e-08
-2.7066e-05
-3.85525e-08
-2.70398e-05
-4.34972e-08
-2.7008e-05
-5.09835e-08
-2.69734e-05
-5.65902e-08
-2.69337e-05
-6.49228e-08
-2.68894e-05
-7.25478e-08
-2.68403e-05
-8.04359e-08
-2.67851e-05
-9.00839e-08
-2.67242e-05
-9.96311e-08
-2.66567e-05
-1.10335e-07
-2.65821e-05
-1.21657e-07
-2.65001e-05
-1.34005e-07
-2.641e-05
-1.47568e-07
-2.63107e-05
-1.62108e-07
-2.62027e-05
-1.76661e-07
-2.60843e-05
-1.93209e-07
-2.59555e-05
-2.10904e-07
-2.58149e-05
-2.29894e-07
-2.5662e-05
-2.49914e-07
-2.54961e-05
-2.71656e-07
-2.53166e-05
-2.93886e-07
-2.51218e-05
-3.1822e-07
-2.49111e-05
-3.44692e-07
-2.46834e-05
-3.72875e-07
-2.44381e-05
-4.01719e-07
-2.41725e-05
-4.3397e-07
-2.3887e-05
-4.67365e-07
-2.3579e-05
-5.03677e-07
-2.32485e-05
-5.41057e-07
-2.28929e-05
-5.82054e-07
-2.25114e-05
-6.2413e-07
-2.21028e-05
-6.68589e-07
-2.16655e-05
-7.14936e-07
-2.11985e-05
-7.6375e-07
-2.0702e-05
-8.11709e-07
-2.01739e-05
-8.63166e-07
-1.96159e-05
-9.11751e-07
-1.90286e-05
-9.593e-07
-1.84151e-05
-1.00168e-06
-1.77814e-05
-1.03525e-06
-1.71351e-05
-1.05409e-06
-1.64881e-05
-1.055e-06
-1.58542e-05
-1.03312e-06
-1.52447e-05
-9.92097e-07
-1.46617e-05
-9.48412e-07
-1.40915e-05
-9.27042e-07
-1.35006e-05
-9.60952e-07
-1.28273e-05
-1.09659e-06
-1.19695e-05
-1.40091e-06
-1.07682e-05
-1.9695e-06
-8.96343e-06
-2.96912e-06
-6.09455e-06
-4.73807e-06
-1.5563e-06
-7.52424e-06
5.72478e-06
-1.21162e-05
1.79173e-05
-2.03772e-05
3.71119e-05
-3.22116e-05
6.63576e-05
-4.92708e-05
0.000102546
-6.10695e-05
-5.11457e-05
-4.57766e-05
-3.52591e-09
-4.57741e-05
-3.32346e-09
-4.5767e-05
-1.40247e-08
-4.57561e-05
-2.0355e-08
-4.5741e-05
-3.05116e-08
-4.57202e-05
-3.89129e-08
-4.56949e-05
-4.86453e-08
-4.5666e-05
-5.7068e-08
-4.56309e-05
-6.84485e-08
-4.55897e-05
-7.98404e-08
-4.55423e-05
-9.11112e-08
-4.54898e-05
-1.0361e-07
-4.5429e-05
-1.17619e-07
-4.53613e-05
-1.32716e-07
-4.52845e-05
-1.49587e-07
-4.51998e-05
-1.65256e-07
-4.51057e-05
-1.84421e-07
-4.50013e-05
-2.04187e-07
-4.4886e-05
-2.25755e-07
-4.47585e-05
-2.49337e-07
-4.46183e-05
-2.74364e-07
-4.44646e-05
-3.01496e-07
-4.42959e-05
-3.30966e-07
-4.41118e-05
-3.60944e-07
-4.39102e-05
-3.95028e-07
-4.36899e-05
-4.31397e-07
-4.34515e-05
-4.68528e-07
-4.31919e-05
-5.0971e-07
-4.29101e-05
-5.53715e-07
-4.26043e-05
-5.99827e-07
-4.22733e-05
-6.49448e-07
-4.19155e-05
-7.02858e-07
-4.1529e-05
-7.59634e-07
-4.11112e-05
-8.19774e-07
-4.06621e-05
-8.83344e-07
-4.0176e-05
-9.53797e-07
-3.96543e-05
-1.02561e-06
-3.90918e-05
-1.10388e-06
-3.84884e-05
-1.18576e-06
-3.78403e-05
-1.27255e-06
-3.7146e-05
-1.3632e-06
-3.64036e-05
-1.45753e-06
-3.56117e-05
-1.55597e-06
-3.47667e-05
-1.65677e-06
-3.38704e-05
-1.75981e-06
-3.29215e-05
-1.86073e-06
-3.19223e-05
-1.95865e-06
-3.08776e-05
-2.04651e-06
-2.97956e-05
-2.1174e-06
-2.86922e-05
-2.1576e-06
-2.75862e-05
-2.16113e-06
-2.64997e-05
-2.11972e-06
-2.54541e-05
-2.03779e-06
-2.44514e-05
-1.95122e-06
-2.34691e-05
-1.90955e-06
-2.24527e-05
-1.97743e-06
-2.12983e-05
-2.25112e-06
-1.98372e-05
-2.86212e-06
-1.78063e-05
-4.00044e-06
-1.47802e-05
-5.99524e-06
-1.00115e-05
-9.50674e-06
-2.534e-06
-1.50017e-05
9.35463e-06
-2.40047e-05
2.90618e-05
-4.00841e-05
5.97925e-05
-6.29421e-05
0.00010608
-9.55576e-05
0.000163112
-0.000118102
-0.000100416
-7.07806e-05
-8.23631e-09
-7.0776e-05
-7.86491e-09
-7.07627e-05
-2.77667e-08
-7.07427e-05
-4.04536e-08
-7.07172e-05
-5.64363e-08
-7.06856e-05
-7.06801e-08
-7.06453e-05
-8.90604e-08
-7.0596e-05
-1.06525e-07
-7.05398e-05
-1.24873e-07
-7.04761e-05
-1.43714e-07
-7.04009e-05
-1.6639e-07
-7.03154e-05
-1.89334e-07
-7.02197e-05
-2.13452e-07
-7.0113e-05
-2.39603e-07
-6.9995e-05
-2.67718e-07
-6.98604e-05
-3.00017e-07
-6.97128e-05
-3.32286e-07
-6.95496e-05
-3.6748e-07
-6.9368e-05
-4.07547e-07
-6.91697e-05
-4.47815e-07
-6.89508e-05
-4.93396e-07
-6.87102e-05
-5.42312e-07
-6.84475e-05
-5.93873e-07
-6.81598e-05
-6.48834e-07
-6.78466e-05
-7.08469e-07
-6.75053e-05
-7.72828e-07
-6.7133e-05
-8.4104e-07
-6.67289e-05
-9.14039e-07
-6.62901e-05
-9.92722e-07
-6.58146e-05
-1.07554e-06
-6.53007e-05
-1.16355e-06
-6.47435e-05
-1.26031e-06
-6.41433e-05
-1.36012e-06
-6.34942e-05
-1.4692e-06
-6.27934e-05
-1.58435e-06
-6.20398e-05
-1.70772e-06
-6.12276e-05
-1.8381e-06
-6.03544e-05
-1.97735e-06
-5.94155e-05
-2.12497e-06
-5.84073e-05
-2.28105e-06
-5.73277e-05
-2.44313e-06
-5.61721e-05
-2.61334e-06
-5.49375e-05
-2.79086e-06
-5.36217e-05
-2.97264e-06
-5.22236e-05
-3.15818e-06
-5.07419e-05
-3.3426e-06
-4.9181e-05
-3.51971e-06
-4.75474e-05
-3.68015e-06
-4.58537e-05
-3.81128e-06
-4.41229e-05
-3.88847e-06
-4.23834e-05
-3.90078e-06
-4.06725e-05
-3.83075e-06
-3.90209e-05
-3.68946e-06
-3.74343e-05
-3.538e-06
-3.58787e-05
-3.46525e-06
-3.42692e-05
-3.58707e-06
-3.24481e-05
-4.07235e-06
-3.01574e-05
-5.15288e-06
-2.7e-05
-7.15797e-06
-2.23357e-05
-1.06595e-05
-1.50553e-05
-1.67872e-05
-3.75244e-06
-2.63044e-05
1.40292e-05
-4.17863e-05
4.31569e-05
-6.92115e-05
8.80537e-05
-0.000107839
0.000154641
-0.000162144
0.000236013
-0.000199474
-0.000171213
-0.000103672
-1.99674e-08
-0.000103661
-1.90069e-08
-0.000103641
-4.8448e-08
-0.000103611
-7.04085e-08
-0.000103572
-9.61269e-08
-0.00010352
-1.2279e-07
-0.000103459
-1.49579e-07
-0.000103387
-1.7868e-07
-0.000103303
-2.09382e-07
-0.000103205
-2.42257e-07
-0.000103094
-2.76971e-07
-0.000102969
-3.14875e-07
-0.000102828
-3.54886e-07
-0.000102669
-3.9887e-07
-0.000102491
-4.45205e-07
-0.000102295
-4.96373e-07
-0.000102077
-5.50664e-07
-0.000101835
-6.09283e-07
-0.000101571
-6.72591e-07
-0.000101278
-7.40857e-07
-0.000100957
-8.14635e-07
-0.000100605
-8.94577e-07
-0.000100219
-9.79303e-07
-9.97983e-05
-1.07017e-06
-9.93382e-05
-1.16878e-06
-9.88377e-05
-1.27365e-06
-9.82931e-05
-1.38581e-06
-9.77011e-05
-1.50633e-06
-9.70591e-05
-1.6349e-06
-9.63645e-05
-1.77048e-06
-9.56107e-05
-1.91758e-06
-9.47974e-05
-2.07394e-06
-9.39159e-05
-2.24199e-06
-9.29665e-05
-2.41892e-06
-9.19421e-05
-2.60902e-06
-9.08381e-05
-2.81211e-06
-8.96469e-05
-3.02962e-06
-8.83666e-05
-3.25805e-06
-8.69897e-05
-3.50223e-06
-8.55112e-05
-3.75989e-06
-8.39247e-05
-4.02991e-06
-8.22274e-05
-4.31088e-06
-8.0411e-05
-4.60762e-06
-7.84751e-05
-4.90865e-06
-7.6414e-05
-5.21966e-06
-7.42291e-05
-5.52766e-06
-7.19222e-05
-5.82683e-06
-6.95034e-05
-6.099e-06
-6.69905e-05
-6.32438e-06
-6.44138e-05
-6.46524e-06
-6.18217e-05
-6.4931e-06
-5.92634e-05
-6.3891e-06
-5.6788e-05
-6.16501e-06
-5.4403e-05
-5.92316e-06
-5.20615e-05
-5.80699e-06
-4.9639e-05
-6.00966e-06
-4.6907e-05
-6.80451e-06
-4.34925e-05
-8.56746e-06
-3.88244e-05
-1.18262e-05
-3.19894e-05
-1.74946e-05
-2.14324e-05
-2.73441e-05
-5.22533e-06
-4.25114e-05
1.99618e-05
-6.69734e-05
6.065e-05
-0.000109899
0.000122499
-0.000169687
0.000212485
-0.00025213
0.000321176
-0.000308165
-0.000265465
-0.000145708
-3.73855e-08
-0.000145692
-3.4987e-08
-0.000145658
-8.21077e-08
-0.000145614
-1.15116e-07
-0.000145555
-1.55239e-07
-0.000145485
-1.93439e-07
-0.000145397
-2.36843e-07
-0.000145293
-2.83458e-07
-0.000145174
-3.28157e-07
-0.000145037
-3.79985e-07
-0.000144881
-4.32647e-07
-0.000144705
-4.90914e-07
-0.000144507
-5.53718e-07
-0.000144285
-6.2089e-07
-0.000144038
-6.91906e-07
-0.000143766
-7.68898e-07
-0.000143462
-8.54326e-07
-0.000143127
-9.45063e-07
-0.000142758
-1.0416e-06
-0.000142352
-1.14659e-06
-0.000141906
-1.26112e-06
-0.000141417
-1.38359e-06
-0.000140883
-1.51349e-06
-0.000140298
-1.65536e-06
-0.000139663
-1.80422e-06
-0.000138968
-1.96914e-06
-0.000138213
-2.14089e-06
-0.000137393
-2.32659e-06
-0.000136504
-2.52415e-06
-0.000135538
-2.73603e-06
-0.000134495
-2.96143e-06
-0.000133363
-3.20576e-06
-0.000132142
-3.46364e-06
-0.000130823
-3.73799e-06
-0.000129398
-4.03447e-06
-0.000127863
-4.3478e-06
-0.000126205
-4.687e-06
-0.000124421
-5.04312e-06
-0.000122501
-5.42236e-06
-0.000120437
-5.8244e-06
-0.00011822
-6.24722e-06
-0.000115842
-6.68843e-06
-0.000113299
-7.15176e-06
-0.000110579
-7.62858e-06
-0.00010768
-8.11886e-06
-0.000104599
-8.6088e-06
-0.000101338
-9.08804e-06
-9.79092e-05
-9.52763e-06
-9.43373e-05
-9.89646e-06
-9.0666e-05
-1.01367e-05
-8.69539e-05
-1.02053e-05
-8.32796e-05
-1.00635e-05
-7.97101e-05
-9.73459e-06
-7.62594e-05
-9.37404e-06
-7.28625e-05
-9.20407e-06
-6.93492e-05
-9.52309e-06
-6.53936e-05
-1.07602e-05
-6.04783e-05
-1.34829e-05
-5.38105e-05
-1.8494e-05
-4.41347e-05
-2.71705e-05
-2.93571e-05
-4.21217e-05
-6.95345e-06
-6.4915e-05
2.73799e-05
-0.000101307
8.19539e-05
-0.000164473
0.000163593
-0.000251326
0.000279789
-0.000368325
0.000418389
-0.000446766
-0.000384779
-0.000197399
-6.28433e-08
-0.000197374
-5.93545e-08
-0.000197332
-1.24827e-07
-0.000197271
-1.75914e-07
-0.000197193
-2.33651e-07
-0.000197095
-2.92163e-07
-0.00019698
-3.5197e-07
-0.000196844
-4.19161e-07
-0.000196687
-4.85337e-07
-0.000196508
-5.59788e-07
-0.000196302
-6.38591e-07
-0.00019607
-7.23021e-07
-0.00019581
-8.1371e-07
-0.000195522
-9.09031e-07
-0.000195198
-1.01673e-06
-0.000194837
-1.12958e-06
-0.000194442
-1.24939e-06
-0.000194003
-1.38412e-06
-0.000193521
-1.52404e-06
-0.000192988
-1.67947e-06
-0.000192406
-1.84336e-06
-0.000191767
-2.02298e-06
-0.00019107
-2.2112e-06
-0.000190306
-2.41962e-06
-0.000189471
-2.63953e-06
-0.000188564
-2.87627e-06
-0.000187573
-3.13224e-06
-0.000186499
-3.39993e-06
-0.000185334
-3.68965e-06
-0.000184068
-4.002e-06
-0.000182699
-4.33143e-06
-0.000181215
-4.68982e-06
-0.00017961
-5.06889e-06
-0.000177872
-5.47657e-06
-0.000175998
-5.9089e-06
-0.000173968
-6.37771e-06
-0.000171782
-6.87392e-06
-0.000169421
-7.40375e-06
-0.000166878
-7.9666e-06
-0.000164136
-8.56595e-06
-0.00016119
-9.19391e-06
-0.000158022
-9.8563e-06
-0.000154622
-1.05521e-05
-0.000150982
-1.12695e-05
-0.000147087
-1.20138e-05
-0.000142936
-1.27605e-05
-0.000138527
-1.34967e-05
-0.000133872
-1.41824e-05
-0.000129002
-1.47674e-05
-0.000123967
-1.51713e-05
-0.000118856
-1.53169e-05
-0.00011377
-1.51492e-05
-0.000108802
-1.47029e-05
-0.000103976
-1.42007e-05
-9.92076e-05
-1.39724e-05
-9.42635e-05
-1.44674e-05
-8.87009e-05
-1.6323e-05
-8.18146e-05
-2.03693e-05
-7.25353e-05
-2.77734e-05
-5.91855e-05
-4.05203e-05
-3.90395e-05
-6.22676e-05
-8.91938e-06
-9.5035e-05
3.6512e-05
-0.000146738
0.000107411
-0.000235372
0.000211633
-0.000355547
0.00035656
-0.000513252
0.000527565
-0.00061777
-0.000531446
-0.000258259
-9.11598e-08
-0.000258229
-8.97029e-08
-0.000258177
-1.7719e-07
-0.000258106
-2.46104e-07
-0.00025801
-3.29983e-07
-0.000257896
-4.07099e-07
-0.000257756
-4.92075e-07
-0.00025759
-5.84379e-07
-0.000257398
-6.78217e-07
-0.000257179
-7.78669e-07
-0.000256929
-8.89185e-07
-0.000256646
-1.00551e-06
-0.000256327
-1.1333e-06
-0.000255971
-1.26481e-06
-0.000255578
-1.41014e-06
-0.000255137
-1.57033e-06
-0.000254648
-1.73913e-06
-0.00025411
-1.92228e-06
-0.000253515
-2.11841e-06
-0.000252865
-2.33033e-06
-0.000252146
-2.56251e-06
-0.00025136
-2.80864e-06
-0.000250494
-3.07763e-06
-0.000249554
-3.35975e-06
-0.000248526
-3.6676e-06
-0.000247404
-3.99873e-06
-0.000246184
-4.3525e-06
-0.000244854
-4.72949e-06
-0.000243409
-5.13534e-06
-0.000241843
-5.56764e-06
-0.000240143
-6.03192e-06
-0.0002383
-6.53335e-06
-0.000236302
-7.06627e-06
-0.000234143
-7.63627e-06
-0.000231802
-8.25046e-06
-0.000229272
-8.9081e-06
-0.000226534
-9.61188e-06
-0.000223576
-1.0362e-05
-0.000220379
-1.11635e-05
-0.000216932
-1.2014e-05
-0.00021321
-1.29161e-05
-0.000209202
-1.38638e-05
-0.000204887
-1.4868e-05
-0.000200248
-1.59087e-05
-0.000195268
-1.69938e-05
-0.000189937
-1.80916e-05
-0.00018425
-1.91839e-05
-0.000178214
-2.02184e-05
-0.000171858
-2.11231e-05
-0.000165251
-2.17785e-05
-0.000158494
-2.20746e-05
-0.000151722
-2.19214e-05
-0.000145056
-2.13686e-05
-0.000138534
-2.07228e-05
-0.000132049
-2.04575e-05
-0.000125291
-2.12258e-05
-0.000117669
-2.39455e-05
-0.000108244
-2.9794e-05
-9.56015e-05
-4.04159e-05
-7.7556e-05
-5.85659e-05
-5.06669e-05
-8.91567e-05
-1.10821e-05
-0.00013462
4.75746e-05
-0.000205394
0.000137256
-0.000325053
0.000266731
-0.000485022
0.000442656
-0.000689176
0.000648701
-0.000823816
-0.000708963
-0.000327386
-1.13244e-07
-0.000327363
-1.13383e-07
-0.000327309
-2.31106e-07
-0.000327236
-3.19193e-07
-0.000327137
-4.29935e-07
-0.000327009
-5.35035e-07
-0.000326853
-6.47566e-07
-0.000326669
-7.68706e-07
-0.000326453
-8.95074e-07
-0.000326202
-1.0294e-06
-0.000325917
-1.17472e-06
-0.000325592
-1.33017e-06
-0.000325226
-1.4996e-06
-0.000324816
-1.67483e-06
-0.000324357
-1.86978e-06
-0.000323847
-2.07998e-06
-0.000323281
-2.30507e-06
-0.000322658
-2.54564e-06
-0.000321966
-2.81061e-06
-0.000321202
-3.09504e-06
-0.000320365
-3.3996e-06
-0.000319442
-3.73156e-06
-0.000318435
-4.08486e-06
-0.000317328
-4.46709e-06
-0.000316118
-4.87746e-06
-0.000314802
-5.31499e-06
-0.000313364
-5.79115e-06
-0.000311796
-6.2973e-06
-0.000310094
-6.83754e-06
-0.000308245
-7.41655e-06
-0.000306233
-8.04454e-06
-0.000304054
-8.71221e-06
-0.000301687
-9.43337e-06
-0.000299122
-1.02017e-05
-0.000296344
-1.1029e-05
-0.000293329
-1.19236e-05
-0.000290068
-1.28728e-05
-0.000286534
-1.38965e-05
-0.00028271
-1.49882e-05
-0.000278573
-1.61511e-05
-0.000274101
-1.7388e-05
-0.000269266
-1.86994e-05
-0.000264051
-2.00837e-05
-0.00025842
-2.15398e-05
-0.000252355
-2.30587e-05
-0.000245832
-2.46146e-05
-0.000238837
-2.61789e-05
-0.000231369
-2.76869e-05
-0.000223457
-2.90356e-05
-0.000215163
-3.00724e-05
-0.000206611
-3.06272e-05
-0.000197961
-3.0571e-05
-0.000189365
-2.99648e-05
-0.000180863
-2.92246e-05
-0.000172327
-2.89947e-05
-0.000163348
-3.02044e-05
-0.000153155
-3.41393e-05
-0.000140518
-4.2431e-05
-0.000123603
-5.73308e-05
-9.96298e-05
-8.25392e-05
-6.43844e-05
-0.000124402
-1.33729e-05
-0.000185631
6.07479e-05
-0.000279515
0.00017159
-0.000435894
0.000328789
-0.000642221
0.000537747
-0.000898133
0.000781577
-0.00106765
0.000994488
-0.000921922
-0.000542765
-0.000404464
-1.1889e-07
-0.000404456
-1.20725e-07
-0.00040442
-2.68028e-07
-0.000404348
-3.90665e-07
-0.000404252
-5.25886e-07
-0.000404125
-6.62261e-07
-0.000403967
-8.05805e-07
-0.000403774
-9.61797e-07
-0.000403545
-1.12441e-06
-0.000403279
-1.29535e-06
-0.000402967
-1.48641e-06
-0.000402614
-1.68415e-06
-0.000402215
-1.89789e-06
-0.000401765
-2.12552e-06
-0.000401254
-2.38061e-06
-0.000400687
-2.64716e-06
-0.000400055
-2.93709e-06
-0.000399353
-3.24808e-06
-0.000398576
-3.58763e-06
-0.000397719
-3.9522e-06
-0.000396772
-4.34644e-06
-0.000395729
-4.77442e-06
-0.000394586
-5.22803e-06
-0.000393331
-5.72219e-06
-0.00039196
-6.24852e-06
-0.000390456
-6.81909e-06
-0.000388819
-7.42842e-06
-0.000387035
-8.08177e-06
-0.000385092
-8.78084e-06
-0.000382975
-9.53343e-06
-0.000380676
-1.03433e-05
-0.000378177
-1.12115e-05
-0.000375466
-1.21447e-05
-0.000372522
-1.31453e-05
-0.000369327
-1.42245e-05
-0.000365866
-1.53852e-05
-0.000362106
-1.66326e-05
-0.000358032
-1.7971e-05
-0.000353616
-1.94038e-05
-0.000348831
-2.09365e-05
-0.000343649
-2.257e-05
-0.000338039
-2.43098e-05
-0.000331967
-2.61564e-05
-0.000325401
-2.81055e-05
-0.000318306
-3.01542e-05
-0.000310645
-3.22754e-05
-0.000302396
-3.44279e-05
-0.000293548
-3.65357e-05
-0.000284105
-3.84779e-05
-0.000274137
-4.00411e-05
-0.000263766
-4.09987e-05
-0.000253168
-4.1169e-05
-0.000242504
-4.06286e-05
-0.00023182
-3.99092e-05
-0.00022094
-3.98747e-05
-0.000209337
-4.18076e-05
-0.000196008
-4.74679e-05
-0.000179371
-5.90679e-05
-0.00015709
-7.96119e-05
-0.000125721
-0.000113909
-8.02673e-05
-0.000169856
-1.56944e-05
-0.000250204
7.61608e-05
-0.00037137
0.000210358
-0.000570091
0.000397482
-0.000829344
0.000641366
-0.00114202
0.000925518
-0.0013518
0.00118061
-0.00117706
0.00133625
-0.000698407
-0.000187849
-0.000490171
-1.01515e-07
-0.000490194
-9.7276e-08
-0.000490175
-2.87805e-07
-0.000490131
-4.33913e-07
-0.000490047
-6.10729e-07
-0.000489932
-7.76896e-07
-0.000489778
-9.5992e-07
-0.000489588
-1.1522e-06
-0.000489355
-1.3579e-06
-0.000489079
-1.57111e-06
-0.000488756
-1.80936e-06
-0.000488382
-2.05846e-06
-0.000487953
-2.32682e-06
-0.000487467
-2.61211e-06
-0.000486922
-2.92566e-06
-0.000486304
-3.26479e-06
-0.000485613
-3.62872e-06
-0.000484844
-4.01679e-06
-0.000483987
-4.44455e-06
-0.000483037
-4.90269e-06
-0.00048199
-5.39322e-06
-0.000480834
-5.93142e-06
-0.00047956
-6.50175e-06
-0.000478164
-7.11864e-06
-0.00047663
-7.78282e-06
-0.000474951
-8.4983e-06
-0.000473114
-9.26512e-06
-0.000471113
-1.00831e-05
-0.000468929
-1.09651e-05
-0.000466552
-1.19102e-05
-0.00046397
-1.29258e-05
-0.000461159
-1.40224e-05
-0.000458105
-1.51993e-05
-0.000454787
-1.64628e-05
-0.000451188
-1.78244e-05
-0.000447278
-1.92957e-05
-0.000443036
-2.08745e-05
-0.000438434
-2.25736e-05
-0.000433442
-2.43954e-05
-0.000428026
-2.63528e-05
-0.000422155
-2.84414e-05
-0.000415799
-3.06664e-05
-0.000408912
-3.30434e-05
-0.000401453
-3.55647e-05
-0.000393379
-3.82287e-05
-0.000384649
-4.10055e-05
-0.000375221
-4.38562e-05
-0.000365065
-4.66915e-05
-0.000354182
-4.93607e-05
-0.000342625
-5.15984e-05
-0.0003305
-5.31244e-05
-0.000317982
-5.36869e-05
-0.000305222
-5.33889e-05
-0.000292237
-5.2894e-05
-0.000278777
-5.33354e-05
-0.000264147
-5.64377e-05
-0.000247053
-6.45618e-05
-0.000225484
-8.06372e-05
-0.000196526
-0.00010857
-0.000156033
-0.000154402
-9.83005e-05
-0.000227588
-1.79253e-05
-0.000330579
9.38659e-05
-0.000483161
0.000253386
-0.000729611
0.000472316
-0.00104827
0.00075313
-0.00142283
0.00107953
-0.0016782
0.00138489
-0.00148247
0.00157785
-0.00089136
0.00162666
-0.000236629
0.000309778
-0.000585984
-4.21038e-08
-0.000586042
-3.97192e-08
-0.000586058
-2.7174e-07
-0.000586037
-4.55334e-07
-0.000585983
-6.64624e-07
-0.000585888
-8.71774e-07
-0.000585748
-1.10011e-06
-0.000585564
-1.33609e-06
-0.000585339
-1.58361e-06
-0.00058506
-1.84937e-06
-0.000584731
-2.13893e-06
-0.000584339
-2.45072e-06
-0.000583889
-2.77635e-06
-0.000583375
-3.12627e-06
-0.000582789
-3.51218e-06
-0.000582124
-3.92906e-06
-0.000581378
-4.3757e-06
-0.000580538
-4.85652e-06
-0.000579605
-5.3777e-06
-0.000578568
-5.93992e-06
-0.000577416
-6.54474e-06
-0.000576139
-7.20905e-06
-0.000574733
-7.90787e-06
-0.000573187
-8.66424e-06
-0.000571485
-9.48542e-06
-0.000569618
-1.03653e-05
-0.000567577
-1.13059e-05
-0.000565346
-1.23138e-05
-0.000562916
-1.33953e-05
-0.000560268
-1.45587e-05
-0.000557377
-1.58166e-05
-0.000554237
-1.71631e-05
-0.000550828
-1.86084e-05
-0.00054712
-2.01702e-05
-0.000543092
-2.18533e-05
-0.000538719
-2.3669e-05
-0.000533972
-2.56209e-05
-0.00052882
-2.77264e-05
-0.000523232
-2.99826e-05
-0.000517174
-3.24117e-05
-0.000510606
-3.50091e-05
-0.00050349
-3.77831e-05
-0.00049578
-4.0753e-05
-0.000487434
-4.39109e-05
-0.0004784
-4.7263e-05
-0.000468623
-5.07825e-05
-0.000458057
-5.44221e-05
-0.000446665
-5.80839e-05
-0.000434423
-6.16027e-05
-0.00042136
-6.46619e-05
-0.000407578
-6.69056e-05
-0.000393216
-6.80498e-05
-0.000378385
-6.82196e-05
-0.000363032
-6.82478e-05
-0.000346775
-6.95926e-05
-0.000328677
-7.45353e-05
-0.000307074
-8.61649e-05
-0.000279434
-0.000108278
-0.000242215
-0.000145789
-0.000190614
-0.000206003
-0.000118368
-0.000299834
-1.99371e-05
-0.000429009
0.000113841
-0.000616939
0.000300435
-0.000916204
0.000552866
-0.0013007
0.000873018
-0.00174298
0.00124314
-0.00204832
0.00160729
-0.00184666
0.00184584
-0.0011299
0.00190991
-0.000300683
0.000376122
-0.000693854
5.5194e-08
-0.000693956
6.26094e-08
-0.000694016
-2.116e-07
-0.000694033
-4.38336e-07
-0.00069401
-6.88528e-07
-0.000693938
-9.43961e-07
-0.000693821
-1.21698e-06
-0.000693654
-1.50317e-06
-0.000693433
-1.80501e-06
-0.000693159
-2.12345e-06
-0.00069282
-2.47799e-06
-0.000692423
-2.84787e-06
-0.000691951
-3.24791e-06
-0.000691406
-3.67175e-06
-0.000690781
-4.13739e-06
-0.000690066
-4.64355e-06
-0.00068926
-5.18176e-06
-0.000688354
-5.7627e-06
-0.000687335
-6.39723e-06
-0.000686199
-7.07569e-06
-0.00068493
-7.81426e-06
-0.000683531
-8.60783e-06
-0.000681974
-9.46508e-06
-0.000680258
-1.03803e-05
-0.000678375
-1.1369e-05
-0.000676308
-1.24321e-05
-0.00067404
-1.35746e-05
-0.000671561
-1.47925e-05
-0.000668851
-1.61055e-05
-0.000665899
-1.75107e-05
-0.000662687
-1.90285e-05
-0.000659185
-2.06653e-05
-0.000655377
-2.24168e-05
-0.000651246
-2.43019e-05
-0.000646753
-2.63463e-05
-0.000641874
-2.85483e-05
-0.000636579
-3.0916e-05
-0.000630834
-3.34712e-05
-0.000624603
-3.62142e-05
-0.00061785
-3.91654e-05
-0.000610534
-4.23248e-05
-0.000602615
-4.57021e-05
-0.000594044
-4.93242e-05
-0.00058477
-5.31851e-05
-0.00057474
-5.72937e-05
-0.000563901
-6.16213e-05
-0.000552194
-6.61293e-05
-0.000539572
-7.07061e-05
-0.000526001
-7.51744e-05
-0.000511496
-7.91662e-05
-0.000496126
-8.2276e-05
-0.000479986
-8.41906e-05
-0.000463108
-8.50975e-05
-0.000445307
-8.6049e-05
-0.000425982
-8.89176e-05
-0.000403862
-9.66559e-05
-0.000376794
-0.000113233
-0.000341654
-0.000143419
-0.000294279
-0.000193164
-0.000229339
-0.000270943
-0.000140269
-0.000388903
-2.16226e-05
-0.000547656
0.000136
-0.000774561
0.000351342
-0.00113155
0.000639106
-0.00158847
0.00100155
-0.00210543
0.00141779
-0.00246456
0.00184715
-0.00227606
0.00213785
-0.00142057
0.00222391
-0.000386721
0.000433077
-0.000816048
2.09365e-07
-0.00081621
2.24168e-07
-0.000816313
-1.09041e-07
-0.000816374
-3.76984e-07
-0.000816384
-6.78132e-07
-0.000816346
-9.82816e-07
-0.000816254
-1.30878e-06
-0.000816105
-1.65236e-06
-0.000815898
-2.01192e-06
-0.000815623
-2.39875e-06
-0.000815287
-2.814e-06
-0.00081487
-3.26479e-06
-0.000814381
-3.73628e-06
-0.000813807
-4.24672e-06
-0.000813138
-4.80628e-06
-0.000812373
-5.40818e-06
-0.000811499
-6.05608e-06
-0.000810508
-6.75328e-06
-0.000809397
-7.50889e-06
-0.000808149
-8.32334e-06
-0.000806756
-9.20718e-06
-0.00080521
-1.01538e-05
-0.000803496
-1.11791e-05
-0.000801599
-1.22782e-05
-0.000799508
-1.34601e-05
-0.000797207
-1.47327e-05
-0.000794686
-1.60957e-05
-0.000791924
-1.7555e-05
-0.00078891
-1.91198e-05
-0.000785617
-2.08033e-05
-0.000782032
-2.26139e-05
-0.000778128
-2.45688e-05
-0.000773882
-2.66634e-05
-0.000769267
-2.89166e-05
-0.000764255
-3.13587e-05
-0.000758813
-3.399e-05
-0.000752909
-3.68205e-05
-0.000746505
-3.98753e-05
-0.000739563
-4.3156e-05
-0.000732044
-4.66852e-05
-0.00072391
-5.04584e-05
-0.000715108
-5.45042e-05
-0.000705597
-5.88359e-05
-0.000695326
-6.34558e-05
-0.000684237
-6.83827e-05
-0.000672271
-7.35875e-05
-0.000659373
-7.90277e-05
-0.000645483
-8.45963e-05
-0.000630569
-9.00877e-05
-0.000614625
-9.51103e-05
-0.000597686
-9.9215e-05
-0.000579778
-0.000102099
-0.000560812
-0.000104064
-0.000540392
-0.000106469
-0.000517592
-0.000111719
-0.000490651
-0.000123597
-0.000456821
-0.000147063
-0.000412351
-0.000187889
-0.000352582
-0.000252934
-0.000271924
-0.000351601
-0.000163777
-0.00049705
-2.29365e-05
-0.000688496
0.000160237
-0.000957735
0.000406177
-0.00137749
0.000731717
-0.00191401
0.00114033
-0.00251403
0.00160741
-0.00293165
0.00210548
-0.00277416
0.00245129
-0.00176637
0.00256733
-0.000502755
0.000467358
-0.000955101
4.1711e-07
-0.000955325
4.48144e-07
-0.000955481
4.62634e-08
-0.000955591
-2.66513e-07
-0.000955646
-6.23262e-07
-0.000955644
-9.85508e-07
-0.000955581
-1.37177e-06
-0.000955449
-1.7847e-06
-0.000955254
-2.20683e-06
-0.000954992
-2.66115e-06
-0.000954643
-3.16308e-06
-0.000954219
-3.68902e-06
-0.000953699
-4.25548e-06
-0.000953084
-4.86191e-06
-0.000952371
-5.51954e-06
-0.000951543
-6.23617e-06
-0.000950594
-7.00511e-06
-0.000949517
-7.83127e-06
-0.000948297
-8.72868e-06
-0.000946924
-9.69641e-06
-0.00094539
-1.0741e-05
-0.000943676
-1.18684e-05
-0.000941773
-1.30821e-05
-0.000939669
-1.43821e-05
-0.000937343
-1.5786e-05
-0.000934781
-1.72951e-05
-0.000931972
-1.89044e-05
-0.000928894
-2.06335e-05
-0.000925528
-2.24864e-05
-0.000921855
-2.44763e-05
-0.000917848
-2.66203e-05
-0.000913487
-2.89304e-05
-0.000908745
-3.14054e-05
-0.000903591
-3.40709e-05
-0.000897993
-3.69576e-05
-0.00089192
-4.0063e-05
-0.000885323
-4.34169e-05
-0.000878181
-4.70181e-05
-0.000870441
-5.08958e-05
-0.000862068
-5.50593e-05
-0.000853016
-5.95105e-05
-0.000843242
-6.42778e-05
-0.000832695
-6.93833e-05
-0.000821324
-7.48268e-05
-0.000809079
-8.06286e-05
-0.000795894
-8.67724e-05
-0.00078172
-9.32021e-05
-0.000766494
-9.98222e-05
-0.000750172
-0.00010641
-0.000732743
-0.00011254
-0.000714194
-0.000117764
-0.000694451
-0.000121843
-0.000673249
-0.000125266
-0.000649865
-0.000129853
-0.000622887
-0.000138697
-0.000589916
-0.000156568
-0.000547523
-0.000189456
-0.000491434
-0.000243979
-0.000416774
-0.000327594
-0.000318023
-0.000450352
-0.000188743
-0.00062633
-2.39348e-05
-0.000853304
0.000186509
-0.00116818
0.000465403
-0.00165638
0.00083217
-0.00228077
0.00129206
-0.00297392
0.00181721
-0.0034568
0.00238579
-0.00334277
0.00278724
-0.00216781
0.00294109
-0.000656588
0.000467516
-0.00111382
6.75171e-07
-0.00111412
7.41124e-07
-0.00111434
2.663e-07
-0.0011145
-1.01945e-07
-0.0011146
-5.22854e-07
-0.00111464
-9.50625e-07
-0.0011146
-1.40611e-06
-0.0011145
-1.88603e-06
-0.00111432
-2.39186e-06
-0.00111405
-2.92561e-06
-0.00111371
-3.50897e-06
-0.00111326
-4.14017e-06
-0.00111271
-4.79799e-06
-0.00111206
-5.51538e-06
-0.00111129
-6.29304e-06
-0.00111039
-7.13578e-06
-0.00110935
-8.03906e-06
-0.00110817
-9.01334e-06
-0.00110682
-1.00754e-05
-0.00110531
-1.12084e-05
-0.00110361
-1.24419e-05
-0.00110171
-1.37713e-05
-0.0010996
-1.51958e-05
-0.00109725
-1.67278e-05
-0.00109466
-1.83791e-05
-0.0010918
-2.01519e-05
-0.00108866
-2.20432e-05
-0.00108522
-2.40733e-05
-0.00108146
-2.62487e-05
-0.00107735
-2.85855e-05
-0.00107287
-3.11003e-05
-0.001068
-3.38044e-05
-0.00106269
-3.67122e-05
-0.00105692
-3.98387e-05
-0.00105067
-4.32141e-05
-0.00104387
-4.6861e-05
-0.0010365
-5.07826e-05
-0.00102852
-5.49971e-05
-0.00101989