/*--------------------------------*- C++ -*----------------------------------*\
| =========                 |                                                 |
| \\      /  F ield         | OpenFOAM: The Open Source CFD Toolbox           |
|  \\    /   O peration     | Version:  2412                                  |
|   \\  /    A nd           | Website:  www.openfoam.com                      |
|    \\/     M anipulation  |                                                 |
\*---------------------------------------------------------------------------*/
FoamFile
{
    version     2.0;
    format      ascii;
    arch        "LSB;label=32;scalar=64";
    class       volVectorField;
    location    "140";
    object      U;
}
// * * * * * * * * * * * * * * * * * * * * * * * * * * * * * * * * * * * * * //

dimensions      [0 1 -1 0 0 0 0];

internalField   nonuniform List<vector> 
7373
(
(0.692379 -0.0555879 0)
(0.692333 -0.0566658 4.70995e-26)
(0.692211 -0.057773 -1.95763e-19)
(0.692029 -0.0589117 -1.9536e-19)
(0.691766 -0.0600827 0)
(0.691433 -0.0612895 0)
(0.691028 -0.0625345 -4.72361e-26)
(0.690539 -0.0638187 -1.97662e-19)
(0.689969 -0.0651449 -8.71904e-28)
(0.689321 -0.0665159 2.01188e-19)
(0.688575 -0.0679331 -2.03614e-19)
(0.687722 -0.0693977 -2.06509e-19)
(0.686757 -0.0709117 4.19782e-19)
(0.685679 -0.0724789 5.03475e-26)
(0.684481 -0.0741007 -4.36412e-19)
(0.68314 -0.0757776 4.46424e-19)
(0.681648 -0.0775111 -4.57702e-19)
(0.68 -0.0793025 0)
(0.678182 -0.0811552 0)
(0.676187 -0.083068 1.38544e-26)
(0.673989 -0.0850405 -5.17204e-19)
(0.671568 -0.0870735 -1.38639e-25)
(0.668918 -0.0891662 -1.35571e-25)
(0.666029 -0.09132 1.35728e-25)
(0.66288 -0.0935319 1.05213e-27)
(0.659443 -0.0957998 6.3421e-19)
(0.655697 -0.0981195 -6.65081e-19)
(0.651633 -0.100491 6.98985e-19)
(0.647227 -0.102908 1.4724e-18)
(0.64245 -0.105366 -7.77041e-19)
(0.637291 -0.107863 0)
(0.631711 -0.110385 -5.02628e-27)
(0.625675 -0.112927 -9.25002e-19)
(0.619175 -0.115483 -2.28656e-25)
(0.61218 -0.11804 1.04918e-18)
(0.604642 -0.120583 -1.1205e-18)
(0.596534 -0.123103 -1.19881e-18)
(0.587829 -0.125585 -1.28485e-18)
(0.578488 -0.128009 -1.89117e-26)
(0.568477 -0.13036 2.96686e-18)
(0.55776 -0.132615 0)
(0.546311 -0.13476 0)
(0.534111 -0.13677 -3.72586e-18)
(0.521131 -0.138627 -9.33695e-25)
(0.507366 -0.140305 2.18567e-18)
(0.492797 -0.141786 -6.92424e-26)
(0.477457 -0.14306 2.58025e-18)
(0.461398 -0.144124 1.30035e-24)
(0.444706 -0.144982 0)
(0.42756 -0.145685 0)
(0.410219 -0.146319 0)
(0.392948 -0.146985 4.01474e-18)
(0.376083 -0.147847 -4.40625e-18)
(0.359808 -0.149026 -4.84338e-18)
(0.343923 -0.15054 -5.33135e-18)
(0.327867 -0.152214 -5.87572e-18)
(0.310536 -0.153578 6.48136e-18)
(0.290052 -0.153649 -7.1517e-18)
(0.263579 -0.150599 0)
(0.226983 -0.141093 -8.67282e-18)
(0.173778 -0.118897 -9.48358e-18)
(0.0928913 -0.0710121 -1.02513e-17)
(-0.0232411 0.0205015 9.94378e-24)
(-0.192505 0.199651 5.41965e-18)
(-0.429773 0.556287 -3.5689e-24)
(-0.662706 1.1805 2.87033e-18)
(-0.742797 2.25944 1.34806e-18)
(-0.273384 3.40958 1.25671e-18)
(2.16608 -0.173904 0)
(2.16592 -0.177276 3.29095e-19)
(2.1655 -0.180735 3.27756e-19)
(2.16488 -0.184294 -3.27054e-19)
(2.16404 -0.187956 0)
(2.16298 -0.191729 0)
(2.16167 -0.195619 3.28899e-19)
(2.16012 -0.199635 3.30857e-19)
(2.15831 -0.203781 -7.88011e-26)
(2.15624 -0.208065 -3.36711e-19)
(2.15386 -0.212493 3.40734e-19)
(2.15116 -0.217072 3.45546e-19)
(2.14812 -0.221806 4.47729e-26)
(2.14471 -0.226703 0)
(2.1409 -0.231769 0)
(2.13666 -0.237009 -7.4669e-19)
(2.13196 -0.242427 7.65466e-19)
(2.12676 -0.248024 5.84732e-27)
(2.12102 -0.253812 -3.86387e-25)
(2.11471 -0.259786 1.67153e-18)
(2.10779 -0.265949 8.64509e-19)
(2.10016 -0.272299 -1.97388e-25)
(2.09181 -0.278835 -9.31348e-19)
(2.08271 -0.28556 9.69981e-19)
(2.07279 -0.292467 1.01251e-18)
(2.06196 -0.299545 -2.47309e-25)
(2.05016 -0.306787 -2.70948e-25)
(2.03737 -0.314187 5.57025e-25)
(2.02349 -0.321727 -1.22903e-18)
(2.00844 -0.329394 1.29699e-18)
(1.99219 -0.337177 0)
(1.97463 -0.345043 -1.45344e-18)
(1.95564 -0.352966 0)
(1.93518 -0.360923 0)
(1.91315 -0.368887 -1.94501e-25)
(1.88943 -0.376802 1.86848e-18)
(1.86391 -0.384639 -9.27569e-25)
(1.83651 -0.392344 1.1476e-25)
(1.8071 -0.399868 2.2992e-18)
(1.77557 -0.407154 -2.47221e-18)
(1.74183 -0.414134 -2.6626e-18)
(1.70578 -0.420756 -2.74269e-24)
(1.66735 -0.426946 3.10338e-18)
(1.62645 -0.432634 0)
(1.58306 -0.437758 -7.27998e-18)
(1.53713 -0.442241 0)
(1.48875 -0.446058 -4.29598e-18)
(1.43808 -0.449181 2.3027e-24)
(1.38538 -0.451635 -2.36063e-24)
(1.3312 -0.453571 0)
(1.27636 -0.455234 0)
(1.22168 -0.456946 -6.68005e-18)
(1.16822 -0.459221 0)
(1.11656 -0.462435 -8.05655e-18)
(1.0661 -0.46661 8.86696e-18)
(1.0151 -0.471228 9.77079e-18)
(0.960155 -0.474817 0)
(0.895481 -0.47433 1.18887e-17)
(0.812397 -0.464091 1.31067e-17)
(0.698248 -0.433956 2.88238e-17)
(0.533405 -0.364799 1.52759e-23)
(0.284701 -0.217448 -1.70254e-17)
(-0.0698148 0.0618711 3.58285e-17)
(-0.582259 0.604102 -6.42545e-23)
(-1.2939 1.6742 0)
(-1.98659 3.53426 0)
(-2.21895 6.72385 -3.43239e-18)
(-0.821373 10.1603 -6.25424e-18)
(3.82847 -0.30737 0)
(3.82815 -0.313325 -7.43837e-19)
(3.82733 -0.319433 0)
(3.82616 -0.325717 3.69614e-19)
(3.82463 -0.332185 2.33463e-27)
(3.8227 -0.338848 -1.75323e-25)
(3.82033 -0.345719 -3.71697e-19)
(3.81753 -0.35281 0)
(3.81427 -0.360131 3.76843e-19)
(3.81053 -0.367693 0)
(3.80626 -0.375514 3.8507e-19)
(3.80142 -0.383598 1.88379e-25)
(3.79598 -0.391957 -1.83045e-26)
(3.78988 -0.4006 -1.95256e-25)
(3.78306 -0.409543 1.94172e-25)
(3.7755 -0.418796 8.43826e-19)
(3.76711 -0.428359 8.65042e-19)
(3.75783 -0.438239 0)
(3.74761 -0.448454 -9.15143e-19)
(3.73635 -0.458996 -1.88894e-18)
(3.72401 -0.469871 9.76943e-19)
(3.71044 -0.481078 -1.01286e-18)
(3.69558 -0.492611 -4.65172e-25)
(3.67937 -0.504473 -1.09612e-18)
(3.66171 -0.516656 1.14416e-18)
(3.64244 -0.529141 -1.197e-18)
(3.62147 -0.541912 0)
(3.59872 -0.554957 1.31882e-18)
(3.57403 -0.568249 0)
(3.54728 -0.581764 1.46561e-18)
(3.51839 -0.595475 0)
(3.48717 -0.609333 -1.64236e-18)
(3.45343 -0.623285 -8.10735e-25)
(3.41706 -0.637293 1.8551e-18)
(3.3779 -0.651299 -1.97726e-18)
(3.33574 -0.665224 0)
(3.29039 -0.678991 -1.10829e-24)
(3.24168 -0.692523 2.42029e-18)
(3.1894 -0.705719 -2.59805e-18)
(3.13335 -0.718486 1.29503e-24)
(3.07338 -0.730703 3.00869e-18)
(3.00929 -0.742258 0)
(2.94093 -0.753033 0)
(2.86817 -0.7629 0)
(2.79095 -0.771733 -1.23593e-25)
(2.70919 -0.779416 4.46505e-18)
(2.62304 -0.785869 0)
(2.53274 -0.791051 0)
(2.43878 -0.795013 -5.67663e-24)
(2.34213 -0.797971 -3.74619e-25)
(2.24417 -0.800364 6.37395e-24)
(2.1464 -0.802775 0)
(2.05072 -0.806068 8.16004e-24)
(1.95815 -0.810942 9.104e-18)
(1.86769 -0.817392 -1.00196e-17)
(1.77628 -0.824501 1.10407e-17)
(1.67795 -0.829708 0)
(1.56264 -0.827635 -1.31999e-23)
(1.41528 -0.80836 -1.48095e-17)
(1.21401 -0.754319 -3.64059e-24)
(0.925109 -0.63238 0)
(0.492406 -0.375628 1.92359e-17)
(-0.120048 0.107123 -4.04724e-17)
(-0.998114 1.03663 -5.11896e-23)
(-2.2062 2.85516 1.32998e-23)
(-3.37157 5.99343 5.3115e-18)
(-3.74909 11.3269 2.56172e-18)
(-1.39865 17.117 4.63045e-18)
(5.6964 -0.457338 4.20927e-19)
(5.69582 -0.466189 -2.68193e-25)
(5.69449 -0.475269 -1.99863e-25)
(5.69267 -0.48461 -4.15898e-19)
(5.69028 -0.494223 0)
(5.68729 -0.504127 2.00172e-25)
(5.68369 -0.514341 4.18249e-19)
(5.67942 -0.524883 0)
(5.67447 -0.535764 -4.24045e-19)
(5.66879 -0.547002 -2.0226e-25)
(5.66233 -0.558627 2.6845e-25)
(5.65502 -0.570641 4.3943e-19)
(5.64681 -0.583062 7.86795e-25)
(5.63762 -0.595909 -9.09658e-19)
(5.62737 -0.609198 -9.28402e-19)
(5.61599 -0.622948 2.23334e-25)
(5.60339 -0.637158 -9.73469e-19)
(5.58947 -0.65184 4.69754e-25)
(5.57413 -0.667019 1.02988e-18)
(5.55725 -0.68268 1.06291e-18)
(5.53873 -0.698835 -1.09947e-18)
(5.51842 -0.715486 1.13992e-18)
(5.49617 -0.732616 -1.3445e-24)
(5.4719 -0.750236 0)
(5.44544 -0.768326 1.48461e-24)
(5.4166 -0.786865 -1.45447e-24)
(5.38524 -0.805829 -6.89268e-25)
(5.3512 -0.825195 2.3425e-24)
(5.31428 -0.844928 -7.28549e-25)
(5.2743 -0.864988 -1.64993e-18)
(5.23108 -0.885326 4.14642e-26)
(5.18438 -0.905881 3.6982e-18)
(5.13394 -0.926573 9.12846e-25)
(5.07957 -0.947339 9.94841e-25)
(5.02101 -0.968089 0)
(4.95796 -0.988706 -1.16628e-24)
(4.89013 -1.00908 1.18049e-24)
(4.81728 -1.02909 1.33829e-24)
(4.73908 -1.04859 -1.35718e-24)
(4.65525 -1.06743 -3.1472e-18)
(4.5655 -1.08542 -3.33176e-24)
(4.46959 -1.10241 -3.6573e-18)
(4.36727 -1.11821 3.9521e-18)
(4.25832 -1.13262 4.27741e-18)
(4.14262 -1.14544 4.63671e-18)
(4.02009 -1.1565 -5.03407e-18)
(3.89088 -1.16565 -5.38803e-24)
(3.75534 -1.17284 -5.96151e-18)
(3.61422 -1.17813 6.50266e-18)
(3.46888 -1.18178 0)
(3.32138 -1.18447 -7.65579e-24)
(3.17402 -1.18704 8.51814e-18)
(3.02964 -1.19077 0)
(2.88976 -1.19668 0)
(2.75298 -1.20476 1.13107e-17)
(2.61483 -1.21365 -2.49294e-17)
(2.46649 -1.21951 0)
(2.29317 -1.21441 0)
(2.07288 -1.18377 1.67256e-17)
(1.77386 -1.10186 -3.67867e-17)
(1.34741 -0.92057 0)
(0.713855 -0.543754 0)
(-0.175647 0.158053 2.28515e-17)
(-1.43892 1.49673 -1.14468e-17)
(-3.15773 4.08962 -1.01322e-17)
(-4.79468 8.52506 -1.18963e-17)
(-5.29053 15.9698 1.41977e-18)
(-1.97292 24.0749 5.04198e-18)
(7.77879 -0.624523 -4.68541e-19)
(7.77785 -0.636598 4.65831e-19)
(7.77589 -0.648984 -2.37245e-27)
(7.77323 -0.661725 4.62967e-19)
(7.76982 -0.674838 0)
(7.76561 -0.688349 0)
(7.76054 -0.702283 -9.31236e-19)
(7.75458 -0.716663 0)
(7.74769 -0.731507 4.72096e-19)
(7.7398 -0.74684 -4.76728e-19)
(7.73084 -0.762696 6.95811e-25)
(7.72072 -0.779084 -4.89274e-19)
(7.70936 -0.796027 -9.94513e-19)
(7.69669 -0.813553 1.01293e-18)
(7.68257 -0.831684 1.03385e-18)
(7.66691 -0.850439 0)
(7.64957 -0.869823 -1.08416e-18)
(7.63045 -0.889852 -1.65648e-26)
(7.60938 -0.910557 5.38391e-25)
(7.58621 -0.931919 -1.18401e-18)
(7.5608 -0.953956 5.94907e-25)
(7.53294 -0.976668 1.87794e-24)
(7.50246 -1.00004 1.31985e-18)
(7.4692 -1.02407 -6.69275e-25)
(7.43295 -1.04874 2.03209e-24)
(7.39345 -1.07403 1.50178e-18)
(7.3505 -1.09989 1.5749e-18)
(7.3039 -1.1263 -1.65522e-18)
(7.25336 -1.15321 1.74342e-18)
(7.19863 -1.18056 1.75672e-24)
(7.13946 -1.20829 -1.85824e-24)
(7.07552 -1.2363 -4.12643e-18)
(7.00647 -1.2645 0)
(6.93203 -1.29279 -4.66368e-18)
(6.85183 -1.32106 -2.4862e-18)
(6.76547 -1.34912 2.46588e-24)
(6.67256 -1.37686 2.84197e-18)
(6.57274 -1.40406 3.04669e-18)
(6.46557 -1.43056 1.79037e-25)
(6.35064 -1.45612 3.51963e-18)
(6.22756 -1.48052 -3.72743e-24)
(6.09598 -1.5035 4.09326e-18)
(5.95555 -1.52482 -4.42503e-18)
(5.80593 -1.54418 -4.79136e-18)
(5.64694 -1.56132 0)
(5.47844 -1.57596 5.64425e-18)
(5.30058 -1.5879 -6.14049e-18)
(5.11384 -1.59703 -1.13802e-23)
(4.91916 -1.60339 -7.30212e-18)
(4.71837 -1.60736 -7.98155e-18)
(4.51426 -1.60977 -8.08434e-24)
(4.31006 -1.61179 -9.58062e-18)
(4.10969 -1.61516 -2.00955e-23)
(3.91527 -1.62124 -1.1569e-17)
(3.72502 -1.63001 -1.27397e-17)
(3.53292 -1.63965 1.40456e-17)
(3.32706 -1.64486 0)
(3.08743 -1.63483 0)
(2.78458 -1.58991 -3.77452e-17)
(2.37617 -1.47556 2.07634e-17)
(1.79778 -1.22754 2.27065e-17)
(0.946221 -0.719503 0)
(-0.238192 0.216324 2.57917e-17)
(-1.90194 1.98212 -4.52715e-23)
(-4.13523 5.36203 2.27495e-17)
(-6.22634 11.0806 6.6194e-18)
(-6.79551 20.5187 -3.11085e-18)
(-2.51795 30.7627 -2.68449e-18)
(10.0625 -0.807867 -4.84381e-25)
(10.061 -0.82347 4.85937e-25)
(10.0583 -0.839475 -5.04957e-19)
(10.0547 -0.85594 0)
(10.0501 -0.872887 0)
(10.0445 -0.890349 -4.85144e-25)
(10.0378 -0.908359 5.06889e-19)
(10.03 -0.926946 5.0996e-19)
(10.0209 -0.946133 -5.14016e-19)
(10.0106 -0.965954 5.19101e-19)
(9.99893 -0.986453 -5.25373e-19)
(9.98574 -1.00764 -5.02698e-25)
(9.97098 -1.02954 0)
(9.95453 -1.0522 1.10343e-18)
(9.93625 -1.07565 0)
(9.91598 -1.0999 0)
(9.89353 -1.12497 2.36307e-18)
(9.86881 -1.15088 0)
(9.8416 -1.17766 1.25061e-18)
(9.81168 -1.20529 -3.68595e-24)
(9.77889 -1.2338 -1.33589e-18)
(9.74295 -1.26319 -1.38548e-18)
(9.70364 -1.29343 7.00593e-25)
(9.66076 -1.32453 -1.50057e-18)
(9.61402 -1.35646 4.40196e-24)
(9.56312 -1.38919 -1.64022e-18)
(9.50778 -1.42267 -1.72069e-18)
(9.44772 -1.45687 -1.80913e-18)
(9.38259 -1.49171 -1.90631e-18)
(9.31205 -1.52713 2.01309e-18)
(9.23578 -1.56304 -1.98311e-24)
(9.15332 -1.59932 2.25923e-18)
(9.06428 -1.63585 2.35162e-24)
(8.96825 -1.6725 2.55629e-18)
(8.86474 -1.70911 2.72723e-18)
(8.75325 -1.74547 2.70681e-24)
(8.63327 -1.78139 -3.1219e-18)
(8.50428 -1.81662 -3.34938e-18)
(8.36573 -1.85092 3.33876e-24)
(8.21706 -1.884 0)
(8.05775 -1.91555 -4.10861e-24)
(7.88731 -1.94523 -4.51631e-18)
(7.70525 -1.97271 -4.88747e-18)
(7.51109 -1.99759 -5.29791e-18)
(7.30454 -2.01952 5.65959e-24)
(7.08539 -2.0381 -1.25116e-17)
(6.85374 -2.05306 1.36289e-17)
(6.61014 -2.06419 7.435e-18)
(6.35575 -2.0715 0)
(6.09283 -2.07542 8.89342e-18)
(5.82496 -2.077 1.8041e-23)
(5.55644 -2.07773 -2.10886e-23)
(5.29243 -2.07983 -1.177e-17)
(5.03575 -2.08504 -1.66908e-23)
(4.78429 -2.09337 1.42886e-17)
(4.53044 -2.10241 0)
(4.25884 -2.1053 3.42847e-23)
(3.94384 -2.08802 -3.56725e-23)
(3.54799 -2.02538 2.12639e-17)
(3.01775 -1.87332 -2.34173e-17)
(2.27237 -1.5505 -5.12488e-17)
(1.18586 -0.899884 5.20029e-23)
(-0.309085 0.283482 -2.90885e-17)
(-2.38248 2.48858 5.6632e-23)
(-5.12111 6.65051 -1.27231e-17)
(-7.63149 13.5992 -3.85056e-23)
(-8.21016 24.8315 2.58978e-23)
(-3.01243 36.9304 2.81013e-18)
(12.4901 -1.00277 5.10897e-25)
(12.4881 -1.02212 -5.30279e-19)
(12.4846 -1.04197 5.28206e-19)
(12.4799 -1.0624 5.27174e-19)
(12.4742 -1.08342 -5.0627e-25)
(12.4671 -1.10509 5.00325e-25)
(12.4588 -1.12744 0)
(12.4491 -1.15051 -5.3378e-19)
(12.4379 -1.17433 0)
(12.4251 -1.19893 5.43542e-19)
(12.4107 -1.22439 -5.50217e-19)
(12.3945 -1.2507 5.58184e-19)
(12.3764 -1.27791 -5.47905e-25)
(12.3562 -1.30606 -1.1564e-18)
(12.3338 -1.33519 -1.18077e-18)
(12.309 -1.36533 0)
(12.2815 -1.3965 6.18866e-24)
(12.2513 -1.4287 0)
(12.218 -1.46201 -1.31275e-18)
(12.1815 -1.49639 1.35578e-18)
(12.1414 -1.53186 1.40346e-18)
(12.0975 -1.56844 -1.4157e-24)
(12.0495 -1.60609 1.51458e-18)
(11.9971 -1.64483 1.57892e-18)
(11.9401 -1.68462 -1.64986e-18)
(11.8779 -1.72542 1.72803e-18)
(11.8103 -1.76718 1.69297e-24)
(11.7369 -1.80983 1.90878e-18)
(11.6573 -1.85333 2.01298e-18)
(11.5711 -1.89756 -2.12759e-18)
(11.4778 -1.94243 0)
(11.3769 -1.9878 2.39248e-18)
(11.2679 -2.03349 -2.54519e-18)
(11.1503 -2.07937 2.71326e-18)
(11.0234 -2.12523 2.89839e-18)
(10.8866 -2.17081 -3.10234e-18)
(10.7393 -2.21586 -3.32718e-18)
(10.5807 -2.2601 -3.5752e-18)
(10.4103 -2.3032 -3.849e-18)
(10.2272 -2.3448 4.15154e-18)
(10.0308 -2.38448 0)
(9.82034 -2.42186 4.85641e-18)
(9.59523 -2.45646 1.05336e-17)
(9.35479 -2.4878 5.72211e-18)
(9.09856 -2.51536 -6.22776e-18)
(8.82614 -2.53867 -3.26035e-23)
(8.53758 -2.55727 -7.41616e-18)
(8.23338 -2.57089 3.09962e-23)
(7.91488 -2.57946 8.89284e-18)
(7.5847 -2.58338 0)
(7.24722 -2.5839 2.11464e-23)
(6.90794 -2.58285 -1.18218e-17)
(6.57336 -2.58297 -5.5664e-23)
(6.24712 -2.58636 2.87888e-17)
(5.92691 -2.59307 1.59125e-17)
(5.6035 -2.6001 0)
(5.25778 -2.59879 0)
(4.85805 -2.57162 -4.24499e-23)
(4.35836 -2.48738 2.39066e-17)
(3.69335 -2.29177 2.63757e-17)
(2.76567 -1.88553 2.88928e-17)
(1.42826 -1.08118 0)
(-0.389357 0.360834 -3.27699e-17)
(-2.87368 3.00957 0)
(-6.09336 7.92756 0)
(-8.97209 16.0148 8.0246e-18)
(-9.49394 28.7799 -1.80906e-18)
(-3.44569 42.4224 -2.93371e-18)
(14.9439 -1.19978 0)
(14.9415 -1.22292 -3.82437e-24)
(14.9372 -1.24668 5.21864e-19)
(14.9318 -1.27112 -5.20945e-19)
(14.925 -1.29629 -1.0008e-24)
(14.9168 -1.32223 9.8928e-25)
(14.9071 -1.34899 0)
(14.8958 -1.37663 5.27997e-19)
(14.8828 -1.40516 0)
(14.8681 -1.43466 -1.07596e-18)
(14.8514 -1.46517 5.44769e-19)
(14.8327 -1.49672 -5.52861e-19)
(14.8118 -1.52936 2.14598e-24)
(14.7885 -1.56314 -2.18746e-24)
(14.7626 -1.59811 1.17101e-18)
(14.734 -1.63431 1.19891e-18)
(14.7023 -1.67174 -1.23036e-18)
(14.6675 -1.71045 0)
(14.6291 -1.7505 0)
(14.5869 -1.79186 1.34845e-18)
(14.5407 -1.83456 1.30928e-24)
(14.4901 -1.87861 0)
(14.4347 -1.924 -3.01979e-18)
(14.3743 -1.97071 -1.57547e-18)
(14.3084 -2.01873 -1.64786e-18)
(14.2366 -2.06801 1.72774e-18)
(14.1584 -2.11849 0)
(14.0736 -2.17011 1.91296e-18)
(13.9815 -2.22279 -2.02001e-18)
(13.8817 -2.27642 0)
(13.7736 -2.3309 0)
(13.6566 -2.38604 -4.82383e-18)
(13.53 -2.44167 2.57042e-18)
(13.3933 -2.49759 -2.74541e-18)
(13.2457 -2.55359 1.49955e-23)
(13.0864 -2.60936 -1.58925e-23)
(12.9145 -2.66459 6.7783e-18)
(12.7293 -2.71894 7.3023e-18)
(12.5299 -2.77203 3.9416e-18)
(12.3153 -2.82341 1.80517e-23)
(12.0847 -2.87258 8.56882e-24)
(11.8371 -2.91905 -5.02101e-18)
(11.5716 -2.96226 -5.46518e-18)
(11.2874 -3.00155 0)
(10.9836 -3.03631 6.51466e-18)
(10.6598 -3.06586 -2.16826e-23)
(10.3156 -3.08961 -7.82925e-18)
(9.95148 -3.10711 0)
(9.56873 -3.11816 4.1846e-23)
(9.17021 -3.12311 0)
(8.76097 -3.12329 0)
(8.34773 -3.12085 -5.10099e-23)
(7.93838 -3.11901 -1.11075e-22)
(7.53744 -3.12021 -1.57824e-17)
(7.1426 -3.12458 -3.50712e-17)
(6.743 -3.12847 1.94971e-17)
(6.31562 -3.12118 2.16886e-17)
(5.82227 -3.08143 9.48258e-23)
(5.20804 -2.97144 -5.36043e-17)
(4.39532 -2.72603 -2.96575e-17)
(3.27034 -2.22741 1.21423e-22)
(1.66799 -1.25895 0)
(-0.479502 0.449252 3.68584e-17)
(-3.3663 3.53623 1.27969e-22)
(-7.0266 9.16151 -1.30542e-22)
(-10.2116 18.2636 -1.75085e-17)
(-10.6263 32.2702 3.88338e-18)
(-3.81152 47.18 -6.16473e-18)
(17.2667 -1.38626 9.27768e-25)
(17.2642 -1.41303 4.85787e-19)
(17.2597 -1.44051 -4.84126e-19)
(17.2539 -1.46879 -9.16852e-25)
(17.2466 -1.49792 9.29055e-25)
(17.2378 -1.52796 -9.18693e-25)
(17.2274 -1.55896 0)
(17.2153 -1.59098 4.70295e-24)
(17.2013 -1.62406 4.95056e-19)
(17.1854 -1.65825 5.00423e-19)
(17.1675 -1.69365 5.06995e-19)
(17.1473 -1.73026 9.93327e-25)
(17.1246 -1.76816 -1.04772e-18)
(17.0994 -1.80739 0)
(17.0715 -1.84803 0)
(17.0404 -1.89012 -2.23806e-18)
(17.0061 -1.93368 -1.14921e-18)
(16.9683 -1.97874 1.14641e-24)
(16.9266 -2.0254 3.80881e-26)
(16.8808 -2.07361 1.32257e-23)
(16.8305 -2.12343 -4.46522e-26)
(16.7754 -2.17488 1.36079e-18)
(16.7151 -2.22792 1.41794e-18)
(16.6493 -2.28257 -1.82786e-23)
(16.5773 -2.33882 -1.90912e-23)
(16.4989 -2.3966 -1.62855e-18)
(16.4136 -2.45587 1.71406e-18)
(16.3208 -2.51656 1.82e-23)
(16.2199 -2.5786 1.91294e-18)
(16.1105 -2.64186 1.88061e-25)
(15.9919 -2.70623 -4.01404e-24)
(15.8634 -2.77153 2.2974e-18)
(15.7242 -2.83755 0)
(15.5736 -2.90408 -2.6275e-18)
(15.4108 -2.97089 -2.82001e-18)
(15.2348 -3.03762 3.03388e-18)
(15.0446 -3.10395 -3.27175e-18)
(14.8392 -3.16947 3.54383e-23)
(14.6177 -3.23375 7.10805e-24)
(14.3787 -3.29629 -4.16192e-18)
(14.1213 -3.35651 0)
(13.8442 -3.41381 4.94491e-18)
(13.5462 -3.46753 0)
(13.2262 -3.5169 -1.16718e-23)
(12.8831 -3.56111 1.20806e-23)
(12.5158 -3.59937 7.18977e-18)
(12.1238 -3.63084 1.58903e-17)
(11.707 -3.65488 0)
(11.2667 -3.67108 -9.77644e-18)
(10.8054 -3.67959 -1.08848e-17)
(10.3288 -3.68177 0)
(9.84439 -3.67993 2.71469e-17)
(9.36134 -3.67762 3.03778e-17)
(8.88503 -3.67758 0)
(8.41329 -3.67996 -1.15697e-22)
(7.93372 -3.68036 -2.13621e-17)
(7.41916 -3.6659 -4.7875e-17)
(6.82472 -3.61113 2.68057e-17)
(6.08614 -3.47123 5.98987e-17)
(5.11332 -3.16949 3.32798e-17)
(3.77705 -2.56951 3.65931e-17)
(1.89882 -1.42806 1.48626e-22)
(-0.579283 0.54902 0)
(-3.84885 4.05735 0)
(-7.89399 10.3188 0)
(-11.3163 20.2919 9.51161e-18)
(-11.5774 35.2515 -4.16644e-18)
(-4.10742 51.1933 3.30646e-18)
(19.3306 -1.55196 0)
(19.3285 -1.58199 -4.28936e-19)
(19.3243 -1.61282 -4.27641e-19)
(19.3189 -1.64458 8.19949e-25)
(19.3119 -1.67729 -8.10526e-25)
(19.3033 -1.71104 -8.24447e-25)
(19.293 -1.74588 -1.30617e-26)
(19.2809 -1.78188 -4.34414e-19)
(19.267 -1.81908 -4.38481e-19)
(19.251 -1.85756 -8.37926e-25)
(19.2329 -1.8974 -4.49543e-19)
(19.2124 -1.93864 4.56727e-19)
(19.1894 -1.98133 9.30105e-19)
(19.1637 -2.02557 0)
(19.1351 -2.07141 0)
(19.1033 -2.11892 9.95432e-19)
(19.0681 -2.16811 1.02305e-18)
(19.0292 -2.21904 -2.04277e-24)
(18.9862 -2.27182 -6.79258e-26)
(18.9389 -2.3264 2.41987e-23)
(18.887 -2.38285 -1.1695e-18)
(18.8299 -2.44119 -1.21685e-18)
(18.7674 -2.50141 1.26938e-18)
(18.699 -2.56354 1.32753e-18)
(18.6242 -2.62755 1.39197e-18)
(18.5426 -2.6934 0)
(18.4537 -2.76105 -1.54233e-18)
(18.3568 -2.83044 -1.62984e-18)
(18.2515 -2.90149 -3.45359e-18)
(18.1371 -2.9741 -7.0041e-24)
(18.0129 -3.04814 3.637e-24)
(17.8781 -3.12343 -2.08601e-18)
(17.732 -3.19976 0)
(17.5737 -3.27693 4.79415e-18)
(17.4023 -3.35467 4.79276e-24)
(17.2166 -3.43263 -2.78358e-18)
(17.0157 -3.51047 5.59015e-24)
(16.7984 -3.58776 -6.53353e-18)
(16.5635 -3.66402 0)
(16.3096 -3.73872 3.8757e-18)
(16.0353 -3.81123 -4.23923e-18)
(15.7394 -3.88089 0)
(15.4203 -3.94697 0)
(15.0765 -4.00856 -2.22161e-23)
(14.7064 -4.06478 4.77562e-23)
(14.3088 -4.11462 6.94354e-18)
(13.8823 -4.15708 -7.73867e-18)
(13.4267 -4.19128 3.40821e-23)
(12.9422 -4.21653 -3.59541e-23)
(12.4313 -4.23272 1.09373e-17)
(11.8992 -4.24099 0)
(11.354 -4.24364 -1.39835e-17)
(10.8054 -4.24431 -3.17055e-17)
(10.2594 -4.2458 -1.79874e-17)
(9.71379 -4.24812 2.04063e-17)
(9.15465 -4.24599 -2.3135e-17)
(8.55059 -4.22407 -2.38491e-22)
(7.8498 -4.15236 -2.96196e-17)
(6.97844 -3.9785 -6.67042e-17)
(5.83414 -3.61374 -2.91059e-22)
(4.27444 -2.90374 -8.21387e-17)
(2.11388 -1.58286 6.73094e-22)
(-0.687493 0.659619 -4.62761e-17)
(-4.3081 4.55995 2.25336e-17)
(-8.66965 11.3668 5.39253e-22)
(-12.2622 22.0532 -1.03113e-17)
(-12.3348 37.6961 1.02966e-20)
(-4.3325 54.4541 7.16517e-18)
(11.5581 64.9106 0)
(21.0906 -1.69327 0)
(21.0895 -1.72613 3.70381e-19)
(21.0863 -1.75988 3.6942e-19)
(21.0817 -1.79465 0)
(21.0756 -1.83048 0)
(21.0679 -1.86745 0)
(21.0585 -1.90563 1.43548e-24)
(21.0473 -1.94511 -1.42307e-24)
(21.0341 -1.98591 -3.79863e-19)
(21.0189 -2.02813 -1.45254e-24)
(21.0016 -2.07187 -1.50345e-24)
(20.9818 -2.11716 1.21115e-23)
(20.9594 -2.16407 3.67744e-26)
(20.9344 -2.2127 -3.14711e-24)
(20.9063 -2.26312 1.5891e-24)
(20.875 -2.31541 1.67563e-24)
(20.8402 -2.36958 -1.67413e-24)
(20.8017 -2.42571 1.77922e-24)
(20.759 -2.48391 -1.78102e-24)
(20.7119 -2.54414 -9.82904e-19)
(20.66 -2.6065 1.02094e-18)
(20.6029 -2.671 0)
(20.5402 -2.73765 2.6697e-23)
(20.4715 -2.80649 2.26289e-24)
(20.3963 -2.87749 -2.27973e-24)
(20.3141 -2.95064 -1.28363e-18)
(20.2243 -3.02589 -1.35449e-18)
(20.1264 -3.10321 -1.43311e-18)
(20.0199 -3.18252 -3.25362e-23)
(19.904 -3.26373 -3.01285e-24)
(19.778 -3.34671 0)
(19.6412 -3.43131 -4.16798e-23)
(19.4926 -3.51733 0)
(19.3315 -3.60455 -2.12865e-18)
(19.1568 -3.69274 0)
(18.9674 -3.78152 2.4834e-18)
(18.7622 -3.87058 -2.69404e-18)
(18.5399 -3.95946 2.93107e-18)
(18.2991 -4.04772 3.19875e-18)
(18.0385 -4.13479 -3.50175e-18)
(17.7566 -4.22004 3.846e-18)
(17.4518 -4.30279 -1.66678e-23)
(17.1223 -4.38226 4.6876e-18)
(16.7665 -4.45753 1.9279e-23)
(16.3825 -4.52761 5.79982e-18)
(15.9685 -4.59141 -1.29828e-17)
(15.5228 -4.64778 7.29791e-18)
(15.0442 -4.69565 3.24597e-23)
(14.5327 -4.73407 -3.463e-23)
(13.9895 -4.76258 0)
(13.4193 -4.78203 0)
(12.8296 -4.7944 0)
(12.23 -4.80307 1.61877e-17)
(11.6259 -4.8105 1.8674e-17)
(11.015 -4.8163 2.15316e-17)
(10.3813 -4.81392 4.95716e-17)
(9.68885 -4.78519 5.69312e-17)
(8.87884 -4.69511 2.56049e-22)
(7.8677 -4.48322 3.70274e-17)
(6.54185 -4.04866 3.09447e-22)
(4.74935 -3.22078 4.59763e-17)
(2.30608 -1.71748 0)
(-0.801806 0.779555 1.03116e-16)
(-4.7299 5.03006 -2.48353e-17)
(-9.33134 12.2778 -2.06092e-17)
(-13.032 23.5102 1.1112e-17)
(-12.8997 39.6021 2.39876e-18)
(-4.48545 56.9341 -3.93584e-18)
(12.2117 68.42 -4.43012e-22)
(31.2704 67.7305 1.07881e-21)
(22.5727 -1.81226 0)
(22.5729 -1.84754 0)
(22.5709 -1.88379 0)
(22.5677 -1.92114 3.19997e-19)
(22.5628 -1.95964 0)
(22.5564 -1.99938 0)
(22.5483 -2.04044 0)
(22.5384 -2.0829 0)
(22.5265 -2.1268 3.29921e-19)
(22.5126 -2.17224 0)
(22.4965 -2.21934 -3.38916e-19)
(22.478 -2.26812 -6.89344e-19)
(22.4569 -2.31867 0)
(22.4331 -2.37109 0)
(22.4063 -2.42547 1.42153e-24)
(22.3762 -2.48189 -2.87991e-24)
(22.3426 -2.54038 7.76406e-19)
(22.3052 -2.60101 -3.05668e-24)
(22.2637 -2.66391 1.55459e-24)
(22.2177 -2.72907 -8.5846e-19)
(22.1669 -2.79656 8.92214e-19)
(22.1108 -2.86644 0)
(22.0491 -2.9387 -9.71314e-19)
(21.9814 -3.0134 3.80633e-24)
(21.907 -3.09054 0)
(21.8256 -3.1701 1.12556e-18)
(21.7365 -3.25206 1.18864e-18)
(21.6394 -3.33638 -3.894e-23)
(21.5334 -3.42301 1.33657e-18)
(21.418 -3.51187 -5.30256e-24)
(21.2925 -3.60285 0)
(21.156 -3.6958 -4.85136e-23)
(21.0077 -3.79055 -1.74775e-18)
(20.8467 -3.88689 -6.99776e-24)
(20.6719 -3.9846 0)
(20.4823 -4.08333 -8.64523e-24)
(20.2767 -4.18278 2.39451e-18)
(20.0537 -4.28251 0)
(19.8121 -4.38209 -2.85597e-18)
(19.5502 -4.48099 -3.13509e-18)
(19.2667 -4.57858 -3.45389e-18)
(18.9598 -4.67421 0)
(18.6277 -4.76713 1.03746e-22)
(18.2686 -4.85641 0)
(17.8805 -4.94107 -5.302e-18)
(17.4611 -5.02002 1.19455e-17)
(17.0086 -5.09203 -6.76595e-18)
(16.5212 -5.15595 -7.71103e-18)
(15.998 -5.21064 6.96736e-23)
(15.4394 -5.25539 -7.56113e-23)
(14.8491 -5.29066 0)
(14.2332 -5.31795 -1.38697e-17)
(13.5998 -5.34003 -1.28209e-22)
(12.9531 -5.35861 -1.91269e-17)
(12.2892 -5.37228 -2.24772e-17)
(11.5891 -5.37271 3.01892e-22)
(10.8119 -5.33827 -6.15386e-17)
(9.89128 -5.22838 0)
(8.73427 -4.97396 -4.10162e-17)
(7.21819 -4.46258 -3.62213e-22)
(5.18744 -3.51044 5.13025e-17)
(2.46881 -1.82639 -5.54109e-17)
(-0.91861 0.906213 -1.14268e-16)
(-5.10062 5.4541 0)
(-9.86326 13.0319 2.22348e-17)
(-13.6082 24.6451 0)
(-13.2843 40.9989 0)
(-4.56036 58.6067 1.28447e-17)
(12.7835 71.4323 8.21838e-23)
(32.6907 70.8338 0)
(47.9057 60.41 3.31493e-17)
(23.8312 -1.9133 1.08845e-24)
(23.8328 -1.95067 -1.07463e-24)
(23.8323 -1.98906 -2.82477e-19)
(23.8304 -2.02864 -2.82516e-19)
(23.8271 -2.06944 -1.07335e-24)
(23.8221 -2.11157 0)
(23.8155 -2.15511 0)
(23.807 -2.20013 0)
(23.7966 -2.24671 2.91812e-19)
(23.7843 -2.29493 1.11674e-24)
(23.7697 -2.34492 5.99945e-19)
(23.7526 -2.39672 3.05176e-19)
(23.7331 -2.45041 -6.22394e-19)
(23.7108 -2.50611 0)
(23.6855 -2.56392 0)
(23.657 -2.62391 -6.69106e-19)
(23.6249 -2.68613 -6.88729e-19)
(23.589 -2.75066 0)
(23.549 -2.81765 0)
(23.5044 -2.88707 7.6243e-19)
(23.4551 -2.95902 -7.92731e-19)
(23.4005 -3.03357 -3.09606e-24)
(23.3403 -3.11071 3.36151e-24)
(23.2739 -3.19052 1.39162e-25)
(23.201 -3.27301 -3.55596e-24)
(23.121 -3.35817 0)
(23.0334 -3.44598 4.13367e-24)
(22.9376 -3.53643 2.24409e-18)
(22.8331 -3.62948 4.44431e-24)
(22.7191 -3.72507 4.9678e-24)
(22.595 -3.82309 -1.35721e-18)
(22.4599 -3.92342 1.45432e-18)
(22.3131 -4.0259 -5.89932e-23)
(22.1535 -4.13035 0)
(21.9803 -4.23656 1.82181e-18)
(21.7922 -4.3442 7.3389e-24)
(21.588 -4.45301 1.68811e-23)
(21.3666 -4.56257 -3.58611e-23)
(21.1265 -4.67248 3.92902e-23)
(20.8662 -4.78225 5.65613e-18)
(20.5843 -4.8913 3.12205e-18)
(20.2791 -4.99902 0)
(19.9488 -5.10472 -3.85441e-18)
(19.5914 -5.20752 0)
(19.205 -5.30651 0)
(18.7873 -5.40065 -5.49579e-18)
(18.3362 -5.48877 -6.26378e-18)
(17.8496 -5.56972 -2.08503e-22)
(17.326 -5.64231 6.55748e-23)
(16.7652 -5.7057 -7.19608e-23)
(16.1694 -5.76003 1.14504e-17)
(15.5431 -5.80626 2.71832e-17)
(14.8921 -5.8463 1.62344e-17)
(14.2182 -5.88069 1.94704e-17)
(13.5141 -5.90639 2.33586e-17)
(12.7568 -5.91241 -2.79344e-17)
(11.8988 -5.87284 3.32134e-17)
(10.8659 -5.74075 -3.91139e-17)
(9.55674 -5.43826 -1.01971e-21)
(7.84337 -4.84287 -8.04874e-22)
(5.57437 -3.76246 -1.14003e-16)
(2.59684 -1.90511 6.14556e-17)
(-1.03304 1.03584 6.28833e-17)
(-5.40866 5.82066 -2.94544e-17)
(-10.259 13.6215 -2.37519e-17)
(-13.9926 25.4612 -1.26067e-17)
(-13.5151 41.9448 -2.64091e-18)
(-4.55152 59.5171 -1.37884e-17)
(13.2647 73.9113 0)
(33.8462 73.3341 -3.40043e-17)
(50.0081 63.108 0)
(24.9203 -2.00075 1.95269e-24)
(24.9234 -2.03994 0)
(24.9243 -2.08021 2.55679e-19)
(24.9239 -2.12173 0)
(24.922 -2.16454 0)
(24.9185 -2.20875 0)
(24.9133 -2.25445 2.59405e-19)
(24.9064 -2.30173 -2.61728e-19)
(24.8975 -2.35064 1.21613e-23)
(24.8866 -2.40129 2.06585e-24)
(24.8736 -2.45381 -5.44297e-19)
(24.8581 -2.50824 2.7696e-19)
(24.8401 -2.56468 -2.46926e-23)
(24.8193 -2.62325 5.77617e-19)
(24.7956 -2.68405 0)
(24.7686 -2.74717 -2.9599e-23)
(24.7381 -2.81266 6.25938e-19)
(24.7038 -2.88061 0)
(24.6653 -2.95117 6.68514e-19)
(24.6224 -3.02433 6.935e-19)
(24.5746 -3.10019 2.70406e-24)
(24.5216 -3.17883 2.92458e-24)
(24.4629 -3.26025 -2.94365e-24)
(24.3982 -3.34455 -3.21026e-24)
(24.3268 -3.43173 3.23885e-24)
(24.2484 -3.52181 0)
(24.1624 -3.61477 0)
(24.0683 -3.71061 -1.02288e-18)
(23.9654 -3.80932 1.08716e-18)
(23.8531 -3.91084 8.63393e-24)
(23.7308 -4.01509 1.23849e-18)
(23.5975 -4.12194 0)
(23.4525 -4.23127 1.42753e-18)
(23.2948 -4.3429 0)
(23.1236 -4.45667 -3.33108e-18)
(22.9376 -4.57226 1.80763e-18)
(22.7357 -4.68943 8.38824e-25)
(22.5166 -4.8078 2.15055e-18)
(22.2791 -4.92702 1.85299e-23)
(22.0216 -5.04663 -5.19216e-18)
(21.7427 -5.16611 0)
(21.4409 -5.28492 0)
(21.1144 -5.40243 0)
(20.7613 -5.51786 0)
(20.3797 -5.63039 0)
(19.9673 -5.73911 4.02721e-23)
(19.5221 -5.84294 1.17145e-17)
(19.0419 -5.94086 6.76482e-18)
(18.5248 -6.03174 6.21509e-23)
(17.9702 -6.1147 -6.88601e-23)
(17.379 -6.18976 5.75599e-22)
(16.754 -6.25732 -1.33576e-17)
(16.098 -6.31834 -1.62356e-17)
(15.4092 -6.37179 -1.98655e-17)
(14.6756 -6.4123 -2.43356e-17)
(13.8677 -6.42525 -2.97037e-17)
(12.9305 -6.37941 5.65984e-22)
(11.7814 -6.22072 4.2912e-17)
(10.3127 -5.86301 5.01483e-17)
(8.39743 -5.17676 5.70415e-17)
(5.89746 -3.96773 6.29906e-17)
(2.68756 -1.95116 -6.77198e-17)
(-1.13916 1.16372 0)
(-5.64656 6.12245 3.1598e-17)
(-10.5231 14.0533 2.50527e-17)
(-14.2058 25.9924 2.62542e-17)
(-13.6046 42.5171 2.72458e-18)
(-4.48207 59.8458 -4.72662e-18)
(13.6388 75.7054 0)
(34.6711 75.1228 -4.24197e-17)
(51.9124 65.5557 0)
(25.8838 -2.07813 0)
(25.8883 -2.11893 0)
(25.8905 -2.16087 2.37559e-19)
(25.8915 -2.20411 1.80338e-24)
(25.8909 -2.24871 1.83135e-24)
(25.8888 -2.29477 -1.81492e-24)
(25.8851 -2.34239 -2.41228e-19)
(25.8795 -2.39166 2.43446e-19)
(25.8721 -2.44264 -2.46173e-19)
(25.8626 -2.49545 -1.92256e-24)
(25.851 -2.55022 2.53325e-19)
(25.837 -2.607 1.68971e-23)
(25.8204 -2.66589 5.26136e-19)
(25.8012 -2.727 3.16391e-23)
(25.7789 -2.79047 0)
(25.7534 -2.85637 1.13299e-18)
(25.7244 -2.92476 -5.83402e-19)
(25.6916 -2.99575 -2.26316e-24)
(25.6547 -3.06949 -6.23352e-19)
(25.6132 -3.14597 -6.46774e-19)
(25.567 -3.22531 0)