/*--------------------------------*- C++ -*----------------------------------*\
| =========                 |                                                 |
| \\      /  F ield         | OpenFOAM: The Open Source CFD Toolbox           |
|  \\    /   O peration     | Version:  2412                                  |
|   \\  /    A nd           | Website:  www.openfoam.com                      |
|    \\/     M anipulation  |                                                 |
\*---------------------------------------------------------------------------*/
FoamFile
{
    version     2.0;
    format      ascii;
    arch        "LSB;label=32;scalar=64";
    class       volScalarField;
    location    "100";
    object      p;
}
// * * * * * * * * * * * * * * * * * * * * * * * * * * * * * * * * * * * * * //

dimensions      [0 2 -2 0 0 0 0];

internalField   nonuniform List<scalar> 
8553
(
244.454
97.1358
94.5937
174.099
120.299
-32.6724
-104.376
-57.75
8.06206
29.5805
41.0734
44.8207
44.7885
42.8607
42.8035
43.9618
45.6414
47.6515
48.9469
48.9798
48.2684
47.0718
45.7681
44.7158
43.7532
42.8132
41.7356
40.5099
39.1982
37.8603
36.5348
35.2068
33.8636
32.4978
31.1207
29.7415
28.365
26.9923
25.6243
24.2632
22.9112
21.5711
20.2446
18.933
17.6376
16.3595
15.1
13.8598
12.6397
11.4404
10.2627
9.10721
7.97432
6.86436
5.77774
4.71474
3.67537
2.65955
1.66729
0.698416
-0.246969
-1.16887
-2.06757
-2.94318
-3.79582
-4.62554
-5.43265
-6.21739
-6.9803
-7.7226
-8.44436
-9.14528
-9.82525
-10.4847
-11.1249
-11.7475
-12.3511
-12.933
74.271
74.3691
75.6822
75.1227
71.0021
60.1506
38.6388
-18.2068
-71.1561
-43.7481
62.2527
123.784
99.2812
66.6297
192.997
244.118
97.3402
94.7333
173.95
120.34
-32.4134
-104.172
-57.7449
8.01912
29.5581
41.0633
44.8153
44.7865
42.8607
42.8037
43.9614
45.6406
47.6504
48.9459
48.979
48.2679
47.0716
45.768
44.7156
43.753
42.813
41.7355
40.5098
39.198
37.8602
36.5347
35.2067
33.8635
32.4978
31.1207
29.7415
28.365
26.9923
25.6242
24.2632
22.9112
21.5711
20.2446
18.933
17.6375
16.3595
15.1
13.8598
12.6397
11.4404
10.2627
9.1072
7.97431
6.86436
5.77774
4.71474
3.67537
2.65955
1.66729
0.698418
-0.24697
-1.16887
-2.06756
-2.94318
-3.79582
-4.62554
-5.43265
-6.21738
-6.9803
-7.7226
-8.44435
-9.14528
-9.82525
-10.4847
-11.1249
-11.7475
-12.3511
-12.933
74.2714
74.3694
75.681
75.1189
70.9943
60.1333
38.604
-18.2134
-71.0163
-43.5411
62.2921
123.7
99.2749
66.8848
192.774
243.786
97.5746
94.9383
173.844
120.343
-32.0478
-103.793
-57.6765
7.97911
29.5305
41.0497
44.808
44.784
42.8614
42.8049
43.9618
45.6402
47.6494
48.9445
48.978
48.2673
47.0712
45.7678
44.7155
43.7529
42.8128
41.7353
40.5096
39.1979
37.8601
36.5346
35.2066
33.8634
32.4977
31.1206
29.7415
28.3649
26.9923
25.6242
24.2631
22.9112
21.5711
20.2446
18.933
17.6375
16.3595
15.1
13.8598
12.6397
11.4404
10.2627
9.10722
7.97432
6.86437
5.77775
4.71475
3.67539
2.65957
1.66731
0.698432
-0.246954
-1.16886
-2.06755
-2.94316
-3.7958
-4.62553
-5.43263
-6.21737
-6.98028
-7.72258
-8.44434
-9.14526
-9.82523
-10.4847
-11.1249
-11.7475
-12.3511
-12.933
74.2727
74.3705
75.6796
75.1139
70.9842
60.1125
38.5707
-18.1742
-70.7706
-43.2618
62.3211
123.65
99.2913
67.1689
192.579
243.42
97.9007
95.308
173.79
120.287
-31.4729
-103.138
-57.4696
7.95067
29.4953
41.0297
44.7971
44.7805
42.864
42.8086
43.9642
45.6409
47.6485
48.9427
48.9765
48.2664
47.0709
45.7679
44.7155
43.7528
42.8126
41.7351
40.5095
39.1979
37.8601
36.5346
35.2066
33.8634
32.4977
31.1206
29.7415
28.365
26.9923
25.6243
24.2632
22.9113
21.5711
20.2446
18.933
17.6376
16.3595
15.1
13.8599
12.6398
11.4404
10.2628
9.10727
7.97438
6.86443
5.77781
4.71481
3.67544
2.65962
1.66736
0.698488
-0.246897
-1.1688
-2.06749
-2.94311
-3.79575
-4.62547
-5.43258
-6.21731
-6.98023
-7.72252
-8.44428
-9.14521
-9.82518
-10.4847
-11.1248
-11.7474
-12.3511
-12.933
74.276
74.373
75.6775
75.1064
70.9698
60.0865
38.5464
-18.0279
-70.2932
-42.8165
62.4072
123.614
99.363
67.5339
192.443
243.008
98.3615
95.9331
173.843
120.37
-30.6259
-102.046
-57.0458
7.93591
29.447
40.9988
44.7799
44.7755
42.8701
42.8168
43.9699
45.6437
47.6481
48.9402
48.9743
48.265
47.0705
45.7682
44.7159
43.7529
42.8125
41.7349
40.5094
39.1978
37.8601
36.5346
35.2067
33.8635
32.4978
31.1207
29.7416
28.365
26.9924
25.6244
24.2633
22.9114
21.5712
20.2447
18.9331
17.6377
16.3596
15.1001
13.86
12.6399
11.4406
10.2629
9.10739
7.9745
6.86455
5.77793
4.71493
3.67556
2.65975
1.66749
0.698611
-0.246776
-1.16868
-2.06737
-2.94299
-3.79563
-4.62535
-5.43246
-6.21719
-6.98011
-7.72241
-8.44417
-9.14509
-9.82506
-10.4846
-11.1247
-11.7473
-12.351
-12.9328
74.2829
74.3783
75.6744
75.0943
70.9477
60.0514
38.5365
-17.7087
-69.4478
-42.0725
62.5744
123.555
99.5258
67.9788
192.307
242.492
98.8625
96.9593
174.053
120.572
-29.4061
-100.28
-56.3067
7.92137
29.3822
40.9527
44.754
44.7685
42.8817
42.832
43.981
45.6495
47.6484
48.9366
48.9709
48.263
47.0701
45.7689
44.7166
43.7534
42.8126
41.7348
40.5094
39.198
37.8603
36.5348
35.2068
33.8636
32.498
31.1209
29.7418
28.3653
26.9926
25.6246
24.2635
22.9116
21.5714
20.2449
18.9334
17.6379
16.3599
15.1004
13.8602
12.6401
11.4408
10.2631
9.10763
7.97474
6.86478
5.77816
4.71516
3.6758
2.65998
1.66771
0.698838
-0.24655
-1.16845
-2.06715
-2.94277
-3.7954
-4.62513
-5.43224
-6.21698
-6.97989
-7.72219
-8.44395
-9.14488
-9.82485
-10.4843
-11.1245
-11.7471
-12.3507
-12.9326
74.2953
74.3879
75.6698
75.0758
70.9148
60.0041
38.5481
-17.1525
-68.0959
-40.9062
62.7815
123.5
99.8354
68.4978
191.974
241.819
99.2633
98.4341
174.383
120.674
-27.6346
-97.7543
-55.1479
7.89136
29.2993
40.888
44.7169
44.7595
42.9012
42.8569
43.9994
45.6596
47.6497
48.9315
48.9661
48.2602
47.0697
45.7704
44.7181
43.7543
42.8128
41.7348
40.5094
39.1982
37.8607
36.5352
35.2072
33.864
32.4983
31.1213
29.7421
28.3656
26.993
25.625
24.2639
22.912
21.5718
20.2453
18.9338
17.6383
16.3603
15.1008
13.8606
12.6405
11.4412
10.2635
9.10802
7.97512
6.86517
5.77855
4.71555
3.67618
2.66036
1.66809
0.699213
-0.246175
-1.16808
-2.06678
-2.9424
-3.79504
-4.62477
-5.43188
-6.21662
-6.97954
-7.72184
-8.4436
-9.14452
-9.8245
-10.484
-11.1241
-11.7468
-12.3504
-12.9323
74.3154
74.4037
75.6636
75.0488
70.8684
59.9434
38.5884
-16.3033
-66.0781
-39.2018
63.0146
123.509
100.404
69.0666
191.394
240.889
99.707
100.165
174.827
120.652
-25.2802
-94.4306
-53.4874
7.83146
29.1991
40.8019
44.6669
44.7485
42.9312
42.8945
44.0275
45.6756
47.6524
48.9248
48.9596
48.2565
47.0694
45.7728
44.7205
43.7559
42.8133
41.7349
40.5097
39.1988
37.8614
36.5359
35.2078
33.8646
32.4989
31.1219
29.7428
28.3663
26.9936
25.6256
24.2645
22.9126
21.5724
20.246
18.9344
17.6389
16.3609
15.1014
13.8612
12.6411
11.4418
10.2641
9.10862
7.97572
6.86577
5.77914
4.71613
3.67676
2.66094
1.66867
0.699787
-0.245606
-1.16752
-2.06622
-2.94184
-3.79448
-4.62422
-5.43133
-6.21607
-6.979
-7.7213
-8.44306
-9.14399
-9.82397
-10.4835
-11.1236
-11.7462
-12.3499
-12.9318
74.3455
74.4277
75.6559
75.012
70.8064
59.8696
38.6671
-15.1184
-63.4765
-36.7333
63.3472
123.594
101.285
69.5838
190.635
239.6
100.228
101.921
175.351
120.816
-22.3323
-90.29
-51.2932
7.73467
29.0854
40.6935
44.603
44.7361
42.9743
42.9475
44.0673
45.6986
47.6572
48.9162
48.951
48.2517
47.0692
45.7765
44.7241
43.7583
42.8143
41.7352
40.5102
39.1997
37.8626
36.537
35.2088
33.8655
32.4998
31.1228
29.7437
28.3672
26.9945
25.6265
24.2654
22.9135
21.5733
20.2469
18.9353
17.6398
16.3618
15.1023
13.8621
12.642
11.4427
10.265
9.10948
7.97658
6.86662
5.77999
4.71698
3.6776
2.66177
1.66949
0.700606
-0.244791
-1.16671
-2.06541
-2.94104
-3.79369
-4.62343
-5.43054
-6.21529
-6.97822
-7.72053
-8.4423
-9.14323
-9.82321
-10.4827
-11.1229
-11.7455
-12.3491
-12.931
74.388
74.462
75.6468
74.9643
70.7283
59.785
38.8004
-13.5789
-60.2231
-33.3705
63.9221
123.783
102.469
69.9116
189.769
237.877
100.627
103.558
175.75
121.655
-18.8512
-85.3429
-48.5974
7.63276
28.9639
40.5635
44.5253
44.7231
43.0328
43.0185
44.121
45.73
47.6646
48.9056
48.9403
48.2457
47.0694
45.7816
44.7291
43.7617
42.8158
41.7358
40.511
39.201
37.8642
36.5386
35.2102
33.8668
32.5011
31.1241
29.745
28.3685
26.9958
25.6278
24.2667
22.9148
21.5746
20.2481
18.9365
17.6411
16.363
15.1035
13.8633
12.6432
11.4439
10.2662
9.11066
7.97775
6.86779
5.78115
4.71813
3.67874
2.6629
1.67062
0.701727
-0.243678
-1.1656
-2.06431
-2.93995
-3.7926
-4.62235
-5.42947
-6.21423
-6.97717
-7.71948
-8.44126
-9.14219
-9.82218
-10.4817
-11.1218
-11.7445
-12.3481
-12.93
74.5084
75.6372
74.9059
70.6346
59.6957
38.9539
-11.6301
-56.1475
-29.1508
64.8242
123.955
103.845
70.1164
188.575
235.655
100.587
105.188
175.784
122.792
-15.2293
-79.6474
-45.4314
7.55981
28.8422
40.4144
44.4345
44.7104
43.1093
43.1093
44.1901
45.7711
47.6751
48.8932
48.9273
48.2387
47.07
45.7884
44.7358
43.7664
42.8179
41.7369
40.5123
39.2028
37.8664
36.5407
35.2121
33.8685
32.5028
31.1259
29.7468
28.3703
26.9975
25.6295
24.2684
22.9164
21.5763
20.2498
18.9382
17.6427
16.3646
15.1051
13.8649
12.6448
11.4454
10.2677
9.11222
7.9793
6.86932
5.78267
4.71964
3.68024
2.66439
1.6721
0.703198
-0.242216
-1.16415
-2.06287
-2.93852
-3.79118
-4.62093
-5.42807
-6.21284
-6.97579
-7.71811
-8.43989
-9.14083
-9.82083
-10.4803
-11.1205
-11.7432
-12.3468
-12.9287
-13.4938
-14.0448
-14.5816
74.5687
75.6279
74.8376
70.5277
59.6102
39.1098
-9.23918
-51.4107
-24.12
66.0781
123.682
105.175
70.1198
186.798
232.871
99.7804
106.805
174.926
124.053
-11.665
-73.3082
-41.819
7.53153
28.7443
40.2506
44.3342
44.7035
43.2004
43.2217
44.2761
45.8228
47.6893
48.8791
48.9123
48.2306
47.0712
45.7973
44.7443
43.7724
42.8208
41.7383
40.514
39.2052
37.8693
36.5435
35.2147
33.8708
32.5051
31.1282
29.7491
28.3725
26.9998
25.6317
24.2705
22.9186
21.5784
20.2519
18.9403
17.6448
16.3667
15.1071
13.867
12.6468
11.4474
10.2697
9.1142
7.98127
6.87127
5.78461
4.72157
3.68216
2.66629
1.67399
0.705071
-0.240357
-1.1623
-2.06104
-2.9367
-3.78937
-4.61914
-5.42629
-6.21107
-6.97403
-7.71636
-8.43815
-9.1391
-9.81911
-10.4786
-11.1188
-11.7415
-12.3451
-12.927
-13.4921
-14.0431
-14.5799
74.6443
75.6204
74.7614
70.4117
59.5385
39.3209
-6.45705
-45.9184
-18.4153
67.5007
122.842
106.18
69.8227
184.477
229.508
98.1859
107.895
172.586
126.368
-8.19554
-66.4235
-37.8016
7.58772
28.6738
40.0785
44.2271
44.7025
43.3102
43.3562
44.3796
45.8854
47.7086
48.8638
48.8954
48.2216
47.0732
45.8082
44.755
43.78
42.8245
41.7404
40.5164
39.2084
37.873
36.5471
35.2178
33.8737
32.508
31.1311
29.752
28.3753
27.0025
25.6344
24.2733
22.9213
21.5811
20.2545
18.9429
17.6474
16.3692
15.1097
13.8695
12.6493
11.4499
10.2722
9.11666
7.98371
6.8737
5.78702
4.72396
3.68453
2.66865
1.67632
0.707392
-0.238051
-1.16001
-2.05876
-2.93444
-3.78713
-4.61691
-5.42407
-6.20887
-6.97185
-7.71419
-8.43599
-9.13695
-9.81697
-10.4765
-11.1167
-11.7394
-12.343
-12.9249
-13.49
-14.041
-14.5779
74.7361
75.6165
74.6805
70.2922
59.4948
39.6173
-3.21297
-39.6829
-12.6088
69.6112
121.754
106.493
69.2049
181.623
225.623
95.9946
107.784
169.431
128.908
-4.53162
-59.0618
-33.4303
7.79124
28.6338
39.9065
44.1162
44.7039
43.4461
43.5134
44.5017
45.9627
47.7313
48.8468
48.877
48.2118
47.076
45.8215
44.7678
43.7894
42.8293
41.7431
40.5193
39.2123
37.8775
36.5514
35.2217
33.8773
32.5115
31.1346
29.7555
28.3788
27.0059
25.6377
24.2766
22.9246
21.5843
20.2577
18.946
17.6505
16.3724
15.1128
13.8726
12.6524
11.453
10.2752
9.11964
7.98667
6.87664
5.78994
4.72686
3.68741
2.67151
1.67916
0.71021
-0.235253
-1.15723
-2.056
-2.93169
-3.7844
-4.6142
-5.42139
-6.2062
-6.9692
-7.71156
-8.43337
-9.13435
-9.81439
-10.4739
-11.1141
-11.7368
-12.3405
-12.9224
-13.4875
-14.0385
-14.5753
74.8449
75.6182
74.5988
70.1768
59.4922
40.0707
0.412011
-32.8477
-6.73022
73.1227
120.388
106.305
67.7801
178.271
221.353
92.9158
105.903
167.033
130.168
0.202113
-51.2731
-28.7796
8.22808
28.657
39.743
44.011
44.7136
43.6032
43.6941
44.6439
46.0594
47.7501
48.8327
48.8574
48.2016
47.0799
45.8371
44.783
43.8005
42.8352
41.7465
40.5231
39.2171
37.8829
36.5566
35.2264
33.8816
32.5157
31.1388
29.7597
28.3829
27.01
25.6417
24.2805
22.9285
21.5882
20.2615
18.9498
17.6543
16.3761
15.1165
13.8762
12.656
11.4566
10.2788
9.1232
7.99021
6.88016
5.79343
4.73032
3.69084
2.67491
1.68255
0.713571
-0.231914
-1.15392
-2.05271
-2.92842
-3.78115
-4.61098
-5.41818
-6.20302
-6.96604
-7.70842
-8.43025
-9.13124
-9.8113
-10.4709
-11.1111
-11.7338
-12.3374
-12.9194
-13.4845
-14.0355
-14.5723
74.9714
75.6283
74.5212
70.0755
59.5484
40.7271
4.24112
-25.3956
-0.344456
77.4941
118.734
105.368
65.4788
174.368
216.548
88.6595
101.951
164.95
128.974
5.89454
-43.0614
-23.9028
8.9679
28.7628
39.6006
43.9157
44.7366
43.7829
43.8986
44.8064
46.1734
47.7683
48.8243
48.8369
48.1911
47.085
45.8553
44.8006
43.8136
42.8423
41.7508
40.5276
39.2227
37.8894
36.5627
35.232
33.8867
32.5207
31.1438
29.7647
28.3878
27.0147
25.6464
24.2851
22.933
21.5927
20.266
18.9543
17.6587
16.3805
15.1208
13.8805
12.6603
11.4608
10.283
9.12739
7.99436
6.88428
5.79753
4.73439
3.69488
2.67892
1.68653
0.717524
-0.227988
-1.15002
-2.04884
-2.92458
-3.77733
-4.60718
-5.41441
-6.19927
-6.96232
-7.70472
-8.42657
-9.12758
-9.80766
-10.4673
-11.1075
-11.7302
-12.3339
-12.9158
-13.481
-14.032
-14.5688
75.1166
75.6498
74.454
69.9955
59.6836
41.6157
8.33212
-17.409
6.30231
81.9023
116.514
103.211
63.0208
169.23
210.807
83.2491
95.1121
161.298
124.484
11.8137
-34.4774
-18.8013
10.0527
28.9614
39.4965
43.8353
44.7771
43.987
44.1282
44.9904
46.3028
47.7978
48.8133
48.8164
48.1812
47.0915
45.8761
44.8209
43.8288
42.8507
41.756
40.533
39.2293
37.8968
36.5698
35.2384
33.8927
32.5265
31.1496
29.7704
28.3934
27.0202
25.6518
24.2905
22.9383
21.5979
20.2712
18.9594
17.6638
16.3855
15.1258
13.8855
12.6652
11.4657
10.2879
9.13224
7.99919
6.88908
5.80229
4.73911
3.69957
2.68358
1.69115
0.72212
-0.223422
-1.14548
-2.04433
-2.9201
-3.77288
-4.60276
-5.41002
-6.19491
-6.95799
-7.70042
-8.42229
-9.12332
-9.80342
-10.463
-11.1033
-11.726
-12.3297
-12.9117
-13.4769
-14.0279
-14.5647
75.6867
74.4049
69.95
59.918
42.7578
12.7382
-9.0512
13.5804
85.6324
115.067
101.019
60.9964
163.149
206.056
76.7698
87.584
158.487
118.928
17.8441
-25.598
-13.4723
11.546
29.2478
39.4488
43.7836
44.8408
44.2179
44.3845
45.1974
46.4468
47.8419
48.8013
48.7966
48.172
47.0998
45.8998
44.8439
43.8462
42.8607
41.7623
40.5394
39.237
37.9054
36.578
35.2458
33.8995
32.5332
31.1563
29.777
28.3999
27.0266
25.658
24.2966
22.9444
21.604
20.2772
18.9654
17.6697
16.3914
15.1316
13.8913
12.6709
11.4714
10.2935
9.13784
8.00474
6.89459
5.80777
4.74456
3.70498
2.68895
1.69649
0.727419
-0.218157
-1.14025
-2.03913
-2.91493
-3.76775
-4.59766
-5.40495
-6.18988
-6.95299
-7.69545
-8.41735
-9.11841
-9.79853
-10.4582
-11.0985
-11.7212
-12.3249
-12.9069
-13.4721
-14.0232
-14.5599
69.9604
60.2738
44.1456
17.4752
-0.394721
21.7119
88.4024
116.201
100.114
61.1362
159.207
204.33
70.8379
84.1365
158.203
115.074
23.9662
-16.5124
-7.95634
13.4836
29.6918
39.4765
43.7721
44.9353
44.4793
44.6699
45.4296
46.6052
47.8999
48.7953
48.7788
48.1635
47.1103
45.9265
44.8699
43.8661
42.8723
41.7698
40.5469
39.2459
37.9151
36.5873
35.2543
33.9073
32.5408
31.1639
29.7845
28.4073
27.0338
25.6651
24.3037
22.9514
21.6109
20.284
18.9721
17.6764
16.398
15.1382
13.8978
12.6775
11.4779
10.3
9.14423
8.0111
6.90091
5.81405
4.75079
3.71117
2.6951
1.70259
0.733487
-0.212126
-1.13426
-2.03318
-2.90902
-3.76187
-4.59182
-5.39915
-6.18411
-6.94727
-7.68975
-8.41168
-9.11276
-9.79292
-10.4526
-11.0929
-11.7157
-12.3194
-12.9015
-13.4667
-14.0177
-14.5545
70.0417
60.7782
45.8052
22.5503
8.52954
30.3127
91.178
119.082
102.146
67.2141
161.923
206.451
68.6992
86.1818
155.336
112.946
30.2743
-7.30082
-2.25802
15.8123
30.3809
39.6043
43.8171
45.07
44.7757
44.9876
45.6903
46.7816
47.9735
48.7953
48.7643
48.1573
47.1234
45.9567
44.8993
43.8888
42.8859
41.7788
40.5557
39.256
37.9262
36.5979
35.264
33.9162
32.5494
31.1725
29.7931
28.4156
27.0419
25.6732
24.3116
22.9593
21.6187
20.2917
18.9798
17.684
16.4056
15.1457
13.9053
12.6849
11.4852
10.3073
9.1515
8.01832
6.90809
5.82119
4.75789
3.71822
2.7021
1.70955
0.740403
-0.205252
-1.12743
-2.02639
-2.90227
-3.75516
-4.58515
-5.39252
-6.17753
-6.94073
-7.68325
-8.40521
-9.10632
-9.78651
-10.4462
-11.0866
-11.7093
-12.3131
-12.8952
-13.4604
-14.0115
-14.5483
70.2154
61.463
47.7681
27.9448
17.6807
39.1577
94.6709
122.933
108.76
82.3712
174.299
214.595
74.8607
97.1812
147.074
111.554
36.8581
2.00995
3.72026
18.4697
31.3194
39.865
43.9379
45.2569
45.1134
45.3414
45.9821
46.9793
48.0659
48.8041
48.7545
48.1542
47.14
45.9908
44.9325
43.9147
42.9019
41.7896
40.5661
39.2677
37.9388
36.6099
35.2749
33.9263
32.5592
31.1822
29.8027
28.425
27.0512
25.6823
24.3206
22.9682
21.6275
20.3005
18.9884
17.6926
16.4141
15.1542
13.9137
12.6932
11.4936
10.3156
9.15974
8.02652
6.91624
5.82929
4.76594
3.72622
2.71005
1.71745
0.748259
-0.197443
-1.11967
-2.01867
-2.89459
-3.74753
-4.57757
-5.38499
-6.17004
-6.93329
-7.67585
-8.39784
-9.09899
-9.77922
-10.439
-11.0794
-11.7022
-12.3059
-12.8881
-13.4533
-14.0044
-14.5412
70.511
62.3746
50.1101
33.6718
27.0143
48.2183
98.8397
127.711
121.47
105.711
195.407
231.05
94.3891
113.329
138.081
110.356
43.7331
11.354
9.99968
21.4701
32.5342
40.2894
44.1579
45.5107
45.5001
45.7366
46.3099
47.2038
48.1778
48.8249
48.7518
48.1558
47.1611
46.0295
44.97
43.9443
42.9206
41.8024
40.5782
39.2811
37.9531
36.6234
35.2873
33.9377
32.5703
31.1932
29.8135
28.4357
27.0616
25.6925
24.3308
22.9782
21.6374
20.3103
18.9982
17.7023
16.4238
15.1638
13.9232
12.7027
11.503
10.3249
9.16907
8.0358
6.92547
5.83846
4.77506
3.73528
2.71906
1.72641
0.757162
-0.188589
-1.11087
-2.00992
-2.88589
-3.73888
-4.56896
-5.37644
-6.16155
-6.92485
-7.66746
-8.38948
-9.09067
-9.77094
-10.4308
-11.0712
-11.694
-12.2977
-12.88
-13.4453
-13.9964
-14.5331
39.7416
36.4564
57.412
103.764
132.893
138.719
133.687
221.271
252.855
125.848
131.861
134.997
109.708
50.8662
20.6018
16.5643
24.8701
34.0543
40.9159
44.5037
45.8489
45.9455
46.1793
46.6784
47.4605
48.3123
48.8613
48.7588
48.164
47.1878
46.0735
45.0125
43.9781
42.9427
41.8179
40.5926
39.2965
37.9693
36.6388
35.3013
33.9507
32.5829
31.2056
29.8257
28.4476
27.0733
25.7041
24.3422
22.9895
21.6486
20.3214
19.0092
17.7132
16.4346
15.1746
13.934
12.7134
11.5136
10.3355
9.17961
8.04628
6.93589
5.84883
4.78537
3.74553
2.72925
1.73654
0.76724
-0.178567
-1.1009
-2.00001
-2.87604
-3.72908
-4.55922
-5.36675
-6.15192
-6.91528
-7.65794
-8.38001
-9.08124
-9.76156
-10.4214
-11.0619
-11.6847
-12.2885
-12.8708
-13.4361
-13.9872
-14.524
46.0511
45.8957
66.7001
109.48
138.811
156.202
162.93
248.33
272.251
163.76
152.772
136.861
110.477
58.1883
29.7081
23.3419
28.6574
35.9173
41.7803
45.0061
46.2922
46.4618
46.6774
47.0935
47.7545
48.4745
48.9178
48.7791
48.1813
47.2219
46.1239
45.0608
44.017
42.9687
41.8365
40.6095
39.3143
37.9878
36.6563
35.3173
33.9654
32.5971
31.2196
29.8395
28.4612
27.0865
25.7171
24.355
23.0023
21.6612
20.334
19.0217
17.7256
16.4469
15.1868
13.9461
12.7255
11.5256
10.3475
9.1915
8.05811
6.94767
5.86055
4.79702
3.75712
2.74078
1.748
0.778637
-0.167231
-1.08963
-1.9888
-2.86488
-3.71798
-4.54819
-5.35578
-6.14102
-6.90445
-7.64716
-8.36928
-9.07056
-9.75093
-10.4108
-11.0514
-11.6742
-12.278
-12.8604
-13.4258
-13.9769
-14.5136
52.5827
55.2382
75.9603
115.769
145.778
172.22
191.043
272.771
288.554
200.426
167.207
141.249
112.49
65.6607
38.6431
30.2979
32.8266
38.1471
42.922
45.6982
46.8643
47.0633
47.2402
47.562
48.0917
48.6703
48.9998
48.8168
48.2106
47.2654
46.182
45.1161
44.0617
42.9995
41.859
40.6297
39.3349
38.0089
36.6762
35.3355
33.9822
32.6132
31.2354
29.8551
28.4764
27.1014
25.7318
24.3695
23.0166
21.6755
20.3481
19.0357
17.7395
16.4607
15.2005
13.9598
12.7391
11.5392
10.361
9.20493
8.07148
6.96097
5.87379
4.81019
3.77021
2.7538
1.76095
0.791523
-0.154412
-1.07688
-1.97612
-2.85227
-3.70543
-4.53571
-5.34337
-6.12868
-6.89219
-7.63496
-8.35713
-9.05846
-9.73889
-10.3989
-11.0395
-11.6624
-12.2662
-12.8486
-13.4141
-13.9652
-14.5018
186.851
215.985
293.31
303.81
228.571
176.684
147.212
115.52
73.1765
47.3504
37.3658
37.3572
40.7629
44.3756
46.6143
47.5913
47.7673
47.8793
48.0924
48.4793
48.9062
49.1137
48.8772
48.2561
47.3209
46.2497
45.1795
44.1135
43.0362
41.8862
40.6538
39.3589
38.033
36.6988
35.3562
34.0012
32.6315
31.2533
29.8726
28.4936
27.1182
25.7483
24.3858
23.0327
21.6915
20.3639
19.0514
17.7551
16.4763
15.216
13.9752
12.7544
11.5545
10.3762
9.22008
8.08656
6.97599
5.88873
4.82506
3.785
2.76852
1.77559
0.806088
-0.139919
-1.06246
-1.96178
-2.838
-3.69124
-4.52159
-5.32933
-6.11472
-6.87831
-7.62116
-8.34338
-9.04477
-9.72526
-10.3853
-11.026
-11.6489
-12.2527
-12.8352
-13.4008
-13.9519
-14.4886
199.697
236.08
310.346
316.244
248.105
185.892
153.207
119.426
80.6419
55.7914
44.4803
42.2123
43.768
46.1692
47.7871
48.5003
48.593
48.6079
48.6944
48.9257
49.1904
49.2669
48.9663
48.3222
47.3918
46.329
45.2529
44.1737
43.0799
41.9192
40.6826
39.387
38.0607
36.7248
35.3798
34.023
32.6523
31.2736
29.8925
28.5129
27.1372
25.7669
24.4041
23.0509
21.7095
20.3818
19.0691
17.7728
16.4938
15.2335
13.9925
12.7717
11.5717
10.3934
9.23717
8.10358
6.99294
5.90561
4.84185
3.80171
2.78514
1.79213
0.822552
-0.123535
-1.04616
-1.94556
-2.82186
-3.67518
-4.50561
-5.31344
-6.09893
-6.86261
-7.60553
-8.32782
-9.02927
-9.70984
-10.37
-11.0107
-11.6337
-12.2375
-12.8201
-13.3857
-13.9369
-14.4735
210.194
251.336
321.981
322.252
260.286
195.15
158.791
123.883
87.9533
63.9246
51.5729
47.339
47.1496
48.3199
49.2448
49.618
49.5614
49.4413
49.3794
49.4402
49.5318
49.468
49.0916
48.4148
47.482
46.4227
45.3382
44.244
43.1322
41.9593
40.7172
39.4199
38.0926
36.7544
35.4069
34.0479
32.676
31.2966
29.9149
28.5348
27.1585
25.7878
24.4247
23.0713
21.7297
20.4019
19.0891
17.7926
16.5136
15.2531
14.0121
12.7912
11.5911
10.4127
9.25645
8.12279
7.01207
5.92466
4.86082
3.82059
2.80393
1.81083
0.841162
-0.105012
-1.02773
-1.92721
-2.80361
-3.65701
-4.48754
-5.29547
-6.08105
-6.84483
-7.58784
-8.3102
-9.01173
-9.69237
-10.3526
-10.9934
-11.6164
-12.2203
-12.803
-13.3687
-13.9199
-14.4564
218.252
261.614
327.538
320.92
266.383
202.646
163.959
128.593
95.0063
71.6978
58.5641
52.6678
50.8769
50.8304
51.007
50.9676
50.6933
50.3959
50.1597
50.0338
49.9405
49.7263
49.2612
48.5407
47.5966
46.5343
45.438
44.3264
43.1948
42.008
40.7589
39.4587
38.1296
36.7886
35.4379
34.0764
32.7031
31.3227
29.9403
28.5595
27.1826
25.8114
24.448
23.0943
21.7525
20.4245
19.1116
17.8149
16.5358
15.2753
14.0341
12.8132
11.613
10.4345
9.2782
8.14447
7.03367
5.94618
4.88224
3.84192
2.82516
1.83196
0.862199
-0.0840699
-1.00688
-1.90647
-2.78296
-3.63646
-4.46709
-5.27513
-6.06082
-6.82472
-7.56782
-8.29026
-8.99186
-9.6726
-10.3329
-10.9738
-11.5969
-12.2008
-12.7836
-13.3494
-13.9006
-14.4371
223.944
267.028
327.372
315.202
267.415
207.65
168.457
133.255
101.691
79.0653
65.3768
58.1152
54.8985
53.683
53.0805
52.5658
52.0076
51.4879
51.0488
50.7179
50.4276
50.0521
49.4846
48.7076
47.7415
46.6682
45.5556
44.4235
43.2698
42.0672
40.8091
39.5046
38.1726
36.828
35.4737
34.1092
32.7339
31.3524
29.969
28.5873
27.2097
25.8379
24.4741
23.1201
21.7781
20.4499
19.1368
17.8401
16.5608
15.3002
14.059
12.8379
11.6377
10.4591
9.30273
8.16892
7.05804
5.97046
4.90643
3.866
2.84914
1.85584
0.885978
-0.0603922
-0.983312
-1.883
-2.7596
-3.61321
-4.44396
-5.25211
-6.03792
-6.80194
-7.54515
-8.26768
-8.96937
-9.65021
-10.3106
-10.9516
-11.5747
-12.1787
-12.7616
-13.3275
-13.8787
-14.4152
227.363
268.324
322.282
306.701
264.98
210.11
172.019
137.605
107.893
85.9675
71.9221
63.5831
59.1446
56.8449
55.4583
54.4203
53.5183
52.7318
52.0594
51.5043
51.0044
50.4563
49.7716
48.9242
47.9234
46.8295
45.6948
44.5384
43.3601
42.1389
40.8695
39.5589
38.2226
36.8735
35.5149
34.1468
32.7692
31.3861
30.0015
28.6188
27.2403
25.8678
24.5035
23.1492
21.8069
20.4784
19.1652
17.8683
16.5889
15.3282
14.0869
12.8658
11.6655
10.4869
9.33039
8.1965
7.08554
5.99787
4.93374
3.89321
2.87624
1.88283
0.912857
-0.0336228
-0.956658
-1.85646
-2.73317
-3.58691
-4.41777
-5.22605
-6.012
-6.77616
-7.51948
-8.2421
-8.9439
-9.62484
-10.2854
-10.9265
-11.5497
-12.1537
-12.7367
-13.3027
-13.8539
-14.3903
228.582
266.267
313.421
295.57
259.895
210.5
174.503
141.426
113.501
92.3353
78.1047
68.9781
63.5347
60.2605
58.1126
56.5238
55.231
54.1374
53.2021
52.4037
51.6815
50.9493
50.1326
49.1997
48.15
47.0242
45.8603
44.6748
43.4684
42.2258
40.9424
39.6233
38.281
36.9262
35.5624
34.1901
32.8096
31.4245
30.0383
28.6543
27.2747
25.9015
24.5365
23.1818
21.8392
20.5105
19.197
17.9
16.6205
15.3597
14.1183
12.8971
11.6968
10.5181
9.36155
8.22759
7.11656
6.0288
4.96457
3.92393
2.90685
1.91332
0.943236
-0.00335965
-0.926518
-1.82645
-2.70328
-3.55714
-4.38814
-5.19656
-5.98266
-6.74697
-7.49041
-8.21314
-8.91504
-9.59611
-10.2568
-10.898
-11.5212
-12.1253
-12.7085
-13.2746
-13.8258
-14.3622
227.804
261.581
301.944
282.989
252.709
209.177
175.842
144.56
118.42
98.1024
83.8578
74.2048
67.9703
63.8558
60.9969
58.8535
57.1394
55.7072
54.4834
53.4241
52.4677
51.5399
50.5769
49.543
48.4292
47.2589
46.0573
44.8369
43.5984
42.3309
41.0302
39.6998
38.3493
36.9874
35.6173
34.24
32.8559
31.4682
30.0801
28.6944
27.3135
25.9393
24.5736
23.2184
21.8755
20.5465
19.2328
17.9356
16.656
15.3951
14.1536
12.9324
11.732
10.5533
9.39665
8.26262
7.15152
6.06368
4.99936
3.9586
2.94141
1.94776
0.977564
0.0308471
-0.892441
-1.7925
-2.66947
-3.52346
-4.35461
-5.16318
-5.94944
-6.71391
-7.45749
-8.18034
-8.88236
-9.56356
-10.2243
-10.8657
-11.489
-12.0931
-12.6765
-13.2427
-13.794
-14.3303
225.289
254.799
288.784
269.765
243.931
206.399
176.018
146.899
122.575
103.209
89.1266
79.1775
72.35
67.5415
64.0452
61.3682
59.2226
57.4331
55.9025
54.569
53.3687
52.2353
51.1122
49.9619
48.7684
47.5405
46.2914
45.0292
43.7539
42.4572
41.1356
39.7906
38.4294
37.0584
35.6808
34.2973
32.9089
31.518
30.1273
28.7396
27.3572
25.9818
24.6153
23.2594
21.9161
20.5867
19.2728
17.9755
16.6958
15.4348
14.1933
12.972
11.7716
10.5928
9.43615
8.30207
7.19091
6.103
5.03859
3.99773
2.98042
1.98666
1.01634
0.0695021
-0.85392
-1.75412
-2.63122
-3.48536
-4.31667
-5.1254
-5.91183
-6.67648
-7.42021
-8.14319
-8.84534
-9.52668
-10.1876
-10.8291
-11.4525
-12.0567
-12.6402
-13.2066
-13.7579
-14.294
221.296
246.863
274.784
256.364
234.258
202.436
175.089
148.39
125.912
107.603
93.8516
83.8041
76.5671
71.2186
67.1763
64.0093
61.4437
59.2937
57.4485
55.8339
54.3842
53.0381
51.7437
50.4629
49.174
47.8746
46.5681
45.2568
43.9391
42.6085
41.2614
39.8982
38.5232
37.1411
35.7541
34.3633
32.9694
31.5745
30.1807
28.7906
27.4062
26.0294
24.6619
23.3053
21.9615
20.6318
19.3176
18.0201
16.7403
15.4793
14.2377
13.0164
11.816
10.6372
9.48056
8.34646
7.23526
6.1473
5.0828
4.04185
3.02444
2.03056
1.06013
0.113169
-0.81039
-1.71073
-2.58798
-3.44227
-4.27374
-5.08265
-5.86926
-6.63411
-7.378
-8.10111
-8.8034
-9.48489
-10.146
-10.7877
-11.4111
-12.0154
-12.5991
-13.1656
-13.7169
-14.253
216.108
237.928
260.483
243.261
224.307
197.547
173.166
149.021
128.406
111.261
97.9979
88.0003
80.5183
74.7826
70.2976
66.7035
63.7493
61.253
59.0983
57.2049
55.5061
53.9442
52.4712
51.0486
49.6508
48.2666
46.8915
45.5232
44.1574
42.7879
41.4108
40.0251
38.6329
37.237
35.8389
34.4392
33.0386
31.6386
30.241
28.8479
27.4613
26.0828
24.714
23.3566
22.0121
20.6821
19.3677
18.07
16.7901
15.529
14.2875
13.0662
11.8658
10.6871
9.53045
8.39636
7.28515
6.19716
5.1326
4.09157
3.07408
2.0801
1.10956
0.162478
-0.761215
-1.66169
-2.53909
-3.39354
-4.22519
-5.03428
-5.82109
-6.58614
-7.3302
-8.05346
-8.7559
-9.43756
-10.0988
-10.7407
-11.3642
-11.9685
-12.5525
-13.1191
-13.6704
-14.2064
209.954
227.971
246.158
230.46
213.981
191.982
170.366
148.817
130.057
114.158
101.521
91.703
84.1197
78.1312
73.317
69.373
66.0779
63.2634
60.8166
58.6564
56.7164
54.942
53.2878
51.7162
50.1988
48.7188
47.2653
45.8315
44.4113
42.9979
41.5862
40.1736
38.7606
37.348
35.9364
34.5261
33.1173
31.711
30.3086
28.912
27.5228
26.1423
24.7721
23.4137
22.0686
20.7381
19.4234
18.1256
16.8457
15.5846
14.3431
13.1219
11.9216
10.743
9.58641
8.45237
7.3412
6.25322
5.18864
4.14757
3.13
2.13594
1.16531
0.218125
-0.705694
-1.60631
-2.48386
-3.33846
-4.17028
-4.97957
-5.76659
-6.53185
-7.27609
-7.99951
-8.7021
-9.38394
-10.0454
-10.6874
-11.3111
-11.9154
-12.4996
-13.0664
-13.6177
-14.1535
203.114
218.118
232.017
217.969
203.527
185.814
166.816
147.823
130.883
116.281
104.376
94.8658
87.3009
81.1755
76.1421
71.9329
68.3575
65.2679
62.5586
60.1524
57.9866
56.0095
54.178
52.4555
50.8127
49.2289
47.6892
46.183
44.7023
43.2395
41.7887
40.3454
38.9077
37.4753
36.0478
34.6249
33.2064
31.7926
30.3845
28.9835
27.5911
26.2083
24.8366
23.477
22.1312
20.8002
19.4852
18.1874
16.9075
15.6465
14.4051
13.1841
11.984
10.8055
9.64908
8.51517
7.4041
6.31618
5.25164
4.21056
3.19297
2.19885
1.22816
0.280883
-0.643044
-1.54378
-2.42147
-3.27623
-4.10823
-4.91771
-5.70494
-6.47042
-7.21485
-7.93843
-8.64119
-9.32321
-9.98488
-10.6271
-11.2508
-11.8553
-12.4396
-13.0066
-13.5579
-14.0936
195.8
208.338
218.744
205.624
193.399
179.294
162.669
146.11
130.929
117.642
106.543
97.4477
90.0118
83.8483
78.6833
74.2932
70.5083
67.197
64.2668
61.6466
59.2784
57.1151
55.1169
53.2483
51.4797
49.7888
48.1582
46.5751
45.0294
43.5127
42.018
40.5402
39.0749
37.6199
36.1741
34.7365
33.3063
31.8835
30.4687
29.0628
27.6666
26.2811
24.9076
23.5469
22.2003
20.8688
19.5537
18.2557
16.976
15.7152
14.474
13.2533
12.0535
10.8753
9.71913
8.58544
7.47456
6.38679
5.32234
4.28132
3.26376
2.26964
1.29892
0.351596
-0.572412
-1.47325
-2.35106
-3.20596
-4.03813
-4.8478
-5.63524
-6.40095
-7.14557
-7.86932
-8.57225
-9.25446
-9.91633
-10.5587
-11.1826
-11.7871
-12.3717
-12.9388
-13.4901
-14.0256
-14.5432
188.207
198.577
206.832
194.359
183.615
172.501
158.063
143.758
130.249
118.267
108.019
99.4208
92.211
86.1028
80.884
76.3834
72.4577
68.985
65.8813
63.0856
60.546
58.2197
56.0707
54.0666
52.1786
50.3829
48.6613
46.9996
45.3869
43.8137
42.2723
40.7562
39.2605
37.7809
36.3146
34.8603
33.4169
31.9839
30.5614
29.1497
27.7493
26.3609
24.9852
23.6233
22.276
20.9442
19.6289
18.3311
17.0516
15.7911
14.5504
13.3301
12.1308
10.953
9.79723
8.6639
7.55334
6.46583
5.40158
4.36071
3.34325
2.3492
1.37852
0.431191
-0.492854
-1.39376
-2.27166
-3.12668
-3.95899
-4.76884
-5.55649
-6.32242
-7.06723
-7.79115
-8.49425
-9.17666
-9.83874
-10.4813