/*--------------------------------*- C++ -*----------------------------------*\
| =========                 |                                                 |
| \\      /  F ield         | OpenFOAM: The Open Source CFD Toolbox           |
|  \\    /   O peration     | Version:  2412                                  |
|   \\  /    A nd           | Website:  www.openfoam.com                      |
|    \\/     M anipulation  |                                                 |
\*---------------------------------------------------------------------------*/
FoamFile
{
    version     2.0;
    format      ascii;
    arch        "LSB;label=32;scalar=64";
    class       volScalarField;
    location    "40";
    object      nuTilda;
}
// * * * * * * * * * * * * * * * * * * * * * * * * * * * * * * * * * * * * * //

dimensions      [0 2 -1 0 0 0 0];

internalField   nonuniform List<scalar> 
7421
(
2.30731e-06
2.30655e-06
2.30595e-06
2.30553e-06
2.30533e-06
2.30522e-06
2.30521e-06
2.3053e-06
2.30546e-06
2.30566e-06
2.30593e-06
2.30626e-06
2.30663e-06
2.30705e-06
2.30748e-06
2.30795e-06
2.30846e-06
2.309e-06
2.30954e-06
2.31005e-06
2.31062e-06
2.3112e-06
2.31181e-06
2.31245e-06
2.31305e-06
2.31368e-06
2.31435e-06
2.31502e-06
2.31568e-06
2.31631e-06
2.31699e-06
2.31767e-06
2.31839e-06
2.31904e-06
2.31976e-06
2.32047e-06
2.32121e-06
2.32193e-06
2.32265e-06
2.32339e-06
2.32414e-06
2.32485e-06
2.32559e-06
2.3263e-06
2.32707e-06
2.32784e-06
2.3287e-06
2.3295e-06
2.3304e-06
2.33127e-06
2.33225e-06
2.33322e-06
2.33424e-06
2.33531e-06
2.33655e-06
2.33772e-06
2.3391e-06
2.34054e-06
2.34207e-06
2.34369e-06
2.34548e-06
2.3474e-06
2.34947e-06
2.35172e-06
2.35418e-06
2.35685e-06
2.35969e-06
2.36274e-06
2.36601e-06
2.36951e-06
2.37324e-06
2.3772e-06
2.38137e-06
2.38575e-06
7.13453e-06
7.13231e-06
7.13066e-06
7.12959e-06
7.12911e-06
7.12895e-06
7.12909e-06
7.12951e-06
7.13014e-06
7.13095e-06
7.13196e-06
7.13311e-06
7.13442e-06
7.13586e-06
7.13737e-06
7.13898e-06
7.14071e-06
7.14251e-06
7.14439e-06
7.14622e-06
7.14819e-06
7.15019e-06
7.15223e-06
7.15439e-06
7.15649e-06
7.15865e-06
7.16087e-06
7.16317e-06
7.16549e-06
7.16768e-06
7.17001e-06
7.17229e-06
7.17474e-06
7.1771e-06
7.17955e-06
7.18197e-06
7.18446e-06
7.18694e-06
7.18941e-06
7.19185e-06
7.19435e-06
7.19676e-06
7.19925e-06
7.20168e-06
7.20429e-06
7.20686e-06
7.20972e-06
7.21243e-06
7.21542e-06
7.21839e-06
7.22164e-06
7.22493e-06
7.22843e-06
7.23202e-06
7.23611e-06
7.24014e-06
7.24481e-06
7.24967e-06
7.25486e-06
7.26047e-06
7.2666e-06
7.27314e-06
7.28028e-06
7.28807e-06
7.29661e-06
7.30582e-06
7.31569e-06
7.32632e-06
7.33773e-06
7.34993e-06
7.36296e-06
7.37678e-06
7.3913e-06
7.40655e-06
1.23545e-05
1.23511e-05
1.2349e-05
1.23479e-05
1.23476e-05
1.23479e-05
1.23488e-05
1.235e-05
1.23516e-05
1.23536e-05
1.23559e-05
1.23584e-05
1.23612e-05
1.23643e-05
1.23674e-05
1.23708e-05
1.23743e-05
1.23779e-05
1.23817e-05
1.23855e-05
1.23895e-05
1.23936e-05
1.23977e-05
1.2402e-05
1.24064e-05
1.24107e-05
1.24152e-05
1.24198e-05
1.24245e-05
1.24291e-05
1.24339e-05
1.24386e-05
1.24435e-05
1.24484e-05
1.24533e-05
1.24582e-05
1.24632e-05
1.24682e-05
1.24732e-05
1.2478e-05
1.2483e-05
1.24879e-05
1.24928e-05
1.24977e-05
1.25029e-05
1.25079e-05
1.25135e-05
1.25188e-05
1.25247e-05
1.25306e-05
1.2537e-05
1.25435e-05
1.25504e-05
1.25576e-05
1.25656e-05
1.25737e-05
1.25829e-05
1.25926e-05
1.26031e-05
1.26144e-05
1.26267e-05
1.264e-05
1.26546e-05
1.26705e-05
1.26879e-05
1.27069e-05
1.27273e-05
1.27493e-05
1.27731e-05
1.27985e-05
1.28257e-05
1.28545e-05
1.28848e-05
1.29166e-05
1.7881e-05
1.78774e-05
1.7876e-05
1.78759e-05
1.78769e-05
1.78787e-05
1.78811e-05
1.78841e-05
1.78877e-05
1.78918e-05
1.78963e-05
1.79012e-05
1.79064e-05
1.79119e-05
1.79177e-05
1.79237e-05
1.793e-05
1.79364e-05
1.7943e-05
1.79498e-05
1.79567e-05
1.79639e-05
1.79711e-05
1.79786e-05
1.79863e-05
1.7994e-05
1.80019e-05
1.801e-05
1.80182e-05
1.80264e-05
1.80348e-05
1.80432e-05
1.80519e-05
1.80605e-05
1.80692e-05
1.80778e-05
1.80866e-05
1.80952e-05
1.81037e-05
1.81122e-05
1.81207e-05
1.81291e-05
1.81376e-05
1.81461e-05
1.81548e-05
1.81636e-05
1.81728e-05
1.81821e-05
1.8192e-05
1.8202e-05
1.82128e-05
1.82239e-05
1.82359e-05
1.82483e-05
1.8262e-05
1.82761e-05
1.82918e-05
1.83086e-05
1.83268e-05
1.83467e-05
1.83683e-05
1.83918e-05
1.84175e-05
1.84458e-05
1.84769e-05
1.85108e-05
1.85476e-05
1.85874e-05
1.86304e-05
1.86768e-05
1.87262e-05
1.87784e-05
1.88335e-05
1.88913e-05
2.362e-05
2.36178e-05
2.36189e-05
2.36215e-05
2.36253e-05
2.363e-05
2.36356e-05
2.36418e-05
2.36488e-05
2.36563e-05
2.36644e-05
2.36729e-05
2.36818e-05
2.36911e-05
2.37008e-05
2.37108e-05
2.37211e-05
2.37316e-05
2.37424e-05
2.37534e-05
2.37648e-05
2.37764e-05
2.37882e-05
2.38004e-05
2.38128e-05
2.38254e-05
2.38383e-05
2.38515e-05
2.38649e-05
2.38785e-05
2.38923e-05
2.39061e-05
2.39202e-05
2.39343e-05
2.39484e-05
2.39625e-05
2.39766e-05
2.39904e-05
2.40041e-05
2.40178e-05
2.40313e-05
2.40448e-05
2.40583e-05
2.40719e-05
2.40857e-05
2.40997e-05
2.41142e-05
2.4129e-05
2.41444e-05
2.41604e-05
2.41774e-05
2.41952e-05
2.42143e-05
2.42343e-05
2.42559e-05
2.42789e-05
2.4304e-05
2.43311e-05
2.43607e-05
2.43932e-05
2.44287e-05
2.44674e-05
2.45098e-05
2.45568e-05
2.46086e-05
2.46654e-05
2.47271e-05
2.47941e-05
2.48668e-05
2.49452e-05
2.50289e-05
2.51174e-05
2.52106e-05
2.53082e-05
2.94682e-05
2.94696e-05
2.94757e-05
2.94831e-05
2.94918e-05
2.95015e-05
2.9512e-05
2.95232e-05
2.95354e-05
2.95481e-05
2.95614e-05
2.95752e-05
2.95895e-05
2.96042e-05
2.96194e-05
2.9635e-05
2.96509e-05
2.96672e-05
2.96838e-05
2.97008e-05
2.97183e-05
2.97361e-05
2.97543e-05
2.9773e-05
2.9792e-05
2.98115e-05
2.98315e-05
2.98518e-05
2.98725e-05
2.98936e-05
2.99149e-05
2.99365e-05
2.99582e-05
2.998e-05
3.00015e-05
3.00231e-05
3.00445e-05
3.00657e-05
3.00865e-05
3.01072e-05
3.01277e-05
3.0148e-05
3.01684e-05
3.0189e-05
3.02097e-05
3.02308e-05
3.02524e-05
3.02747e-05
3.02977e-05
3.03218e-05
3.03474e-05
3.03744e-05
3.04034e-05
3.04341e-05
3.04669e-05
3.05023e-05
3.05406e-05
3.05823e-05
3.06282e-05
3.06788e-05
3.07341e-05
3.07948e-05
3.08616e-05
3.09357e-05
3.10177e-05
3.11079e-05
3.12061e-05
3.1313e-05
3.14294e-05
3.1555e-05
3.16891e-05
3.18307e-05
3.19799e-05
3.21361e-05
3.52775e-05
3.53154e-05
3.53235e-05
3.53372e-05
3.5352e-05
3.5368e-05
3.53849e-05
3.54025e-05
3.5421e-05
3.54403e-05
3.54601e-05
3.54806e-05
3.55015e-05
3.55231e-05
3.55451e-05
3.55676e-05
3.55906e-05
3.56141e-05
3.5638e-05
3.56624e-05
3.56873e-05
3.57129e-05
3.5739e-05
3.57656e-05
3.5793e-05
3.5821e-05
3.58496e-05
3.58789e-05
3.59088e-05
3.59393e-05
3.59704e-05
3.60017e-05
3.60336e-05
3.60654e-05
3.60973e-05
3.61288e-05
3.61602e-05
3.61914e-05
3.62221e-05
3.62522e-05
3.62821e-05
3.63115e-05
3.63408e-05
3.63701e-05
3.63997e-05
3.64294e-05
3.64598e-05
3.64907e-05
3.65228e-05
3.65559e-05
3.65907e-05
3.66276e-05
3.66669e-05
3.67091e-05
3.67542e-05
3.68021e-05
3.68543e-05
3.69104e-05
3.69722e-05
3.70403e-05
3.71158e-05
3.71985e-05
3.72896e-05
3.73901e-05
3.75019e-05
3.76258e-05
3.77621e-05
3.79109e-05
3.80734e-05
3.82501e-05
3.8441e-05
3.86446e-05
3.88595e-05
3.90856e-05
3.93222e-05
4.09834e-05
4.10469e-05
4.1065e-05
4.10892e-05
4.11143e-05
4.11401e-05
4.11667e-05
4.11938e-05
4.12217e-05
4.12504e-05
4.12796e-05
4.13092e-05
4.13394e-05
4.13702e-05
4.14016e-05
4.14334e-05
4.14659e-05
4.14988e-05
4.15325e-05
4.15667e-05
4.16017e-05
4.16376e-05
4.16743e-05
4.17117e-05
4.17502e-05
4.17896e-05
4.18299e-05
4.18712e-05
4.19134e-05
4.19564e-05
4.20003e-05
4.20445e-05
4.20893e-05
4.21339e-05
4.21787e-05
4.22227e-05
4.22665e-05
4.23098e-05
4.23524e-05
4.23941e-05
4.24354e-05
4.24759e-05
4.25163e-05
4.25568e-05
4.25977e-05
4.26385e-05
4.26807e-05
4.27231e-05
4.27677e-05
4.28134e-05
4.2862e-05
4.29134e-05
4.29686e-05
4.30278e-05
4.30914e-05
4.31589e-05
4.32331e-05
4.33126e-05
4.34007e-05
4.34982e-05
4.36065e-05
4.37255e-05
4.38567e-05
4.40019e-05
4.41636e-05
4.43427e-05
4.45399e-05
4.47552e-05
4.49901e-05
4.52454e-05
4.5521e-05
4.58142e-05
4.61233e-05
4.64477e-05
4.67868e-05
4.64569e-05
4.65448e-05
4.65769e-05
4.66147e-05
4.66528e-05
4.66912e-05
4.673e-05
4.67692e-05
4.6809e-05
4.68493e-05
4.689e-05
4.69312e-05
4.69728e-05
4.70149e-05
4.70577e-05
4.71009e-05
4.7145e-05
4.71897e-05
4.72353e-05
4.72816e-05
4.73291e-05
4.73778e-05
4.74275e-05
4.74783e-05
4.75307e-05
4.75842e-05
4.7639e-05
4.76952e-05
4.77526e-05
4.7811e-05
4.78708e-05
4.79308e-05
4.79915e-05
4.80517e-05
4.81121e-05
4.81713e-05
4.82301e-05
4.82881e-05
4.8345e-05
4.84005e-05
4.84555e-05
4.85094e-05
4.8563e-05
4.86169e-05
4.86714e-05
4.87258e-05
4.87821e-05
4.88389e-05
4.88987e-05
4.89601e-05
4.90256e-05
4.90952e-05
4.91701e-05
4.92507e-05
4.93378e-05
4.94303e-05
4.95323e-05
4.96418e-05
4.97635e-05
4.98986e-05
5.00489e-05
5.02144e-05
5.03971e-05
5.05992e-05
5.08244e-05
5.10735e-05
5.13474e-05
5.16459e-05
5.1971e-05
5.23236e-05
5.2703e-05
5.31052e-05
5.3528e-05
5.39703e-05
5.4431e-05
5.15844e-05
5.16925e-05
5.17425e-05
5.1797e-05
5.18512e-05
5.1905e-05
5.19587e-05
5.20126e-05
5.20667e-05
5.21211e-05
5.21757e-05
5.22305e-05
5.22858e-05
5.23416e-05
5.2398e-05
5.2455e-05
5.2513e-05
5.25718e-05
5.26317e-05
5.26927e-05
5.27552e-05
5.28195e-05
5.28851e-05
5.29522e-05
5.30213e-05
5.3092e-05
5.31643e-05
5.32386e-05
5.33144e-05
5.33916e-05
5.34704e-05
5.35494e-05
5.36291e-05
5.3708e-05
5.37869e-05
5.3864e-05
5.39405e-05
5.40156e-05
5.40892e-05
5.41609e-05
5.42317e-05
5.43012e-05
5.43705e-05
5.44401e-05
5.45105e-05
5.4581e-05
5.46542e-05
5.47282e-05
5.48064e-05
5.48869e-05
5.49733e-05
5.50652e-05
5.51645e-05
5.52717e-05
5.53879e-05
5.55116e-05
5.56486e-05
5.57957e-05
5.59597e-05
5.61421e-05
5.63451e-05
5.65687e-05
5.68157e-05
5.70888e-05
5.73925e-05
5.77276e-05
5.80951e-05
5.84944e-05
5.89278e-05
5.93959e-05
5.98973e-05
6.04266e-05
6.09805e-05
6.15573e-05
6.21553e-05
5.62517e-05
5.63786e-05
5.64505e-05
5.65249e-05
5.65981e-05
5.66702e-05
5.67417e-05
5.68129e-05
5.68839e-05
5.69549e-05
5.70258e-05
5.70969e-05
5.71682e-05
5.72401e-05
5.73126e-05
5.73858e-05
5.74602e-05
5.75357e-05
5.76129e-05
5.76913e-05
5.7772e-05
5.78548e-05
5.79394e-05
5.80261e-05
5.81153e-05
5.82066e-05
5.83e-05
5.8396e-05
5.84938e-05
5.85932e-05
5.86945e-05
5.8796e-05
5.8898e-05
5.89988e-05
5.90992e-05
5.91971e-05
5.92939e-05
5.93888e-05
5.94815e-05
5.95717e-05
5.96607e-05
5.97481e-05
5.98355e-05
5.99233e-05
6.00124e-05
6.01019e-05
6.01951e-05
6.02897e-05
6.039e-05
6.04937e-05
6.06055e-05
6.07248e-05
6.08541e-05
6.09941e-05
6.11463e-05
6.1309e-05
6.14893e-05
6.16834e-05
6.19002e-05
6.21414e-05
6.24098e-05
6.27054e-05
6.30314e-05
6.33914e-05
6.37904e-05
6.42293e-05
6.47085e-05
6.52271e-05
6.57873e-05
6.63891e-05
6.703e-05
6.77028e-05
6.84032e-05
6.91289e-05
6.98769e-05
6.03537e-05
6.05002e-05
6.05976e-05
6.0695e-05
6.07904e-05
6.08839e-05
6.09761e-05
6.10674e-05
6.11582e-05
6.12485e-05
6.13384e-05
6.14283e-05
6.15184e-05
6.1609e-05
6.17003e-05
6.17924e-05
6.18861e-05
6.19814e-05
6.2079e-05
6.21783e-05
6.22805e-05
6.23855e-05
6.24929e-05
6.26028e-05
6.2716e-05
6.28319e-05
6.29505e-05
6.3072e-05
6.31959e-05
6.33217e-05
6.34494e-05
6.35772e-05
6.37051e-05
6.38312e-05
6.39563e-05
6.40781e-05
6.4198e-05
6.43153e-05
6.44297e-05
6.45409e-05
6.46506e-05
6.47586e-05
6.48667e-05
6.49758e-05
6.50865e-05
6.51985e-05
6.53153e-05
6.54348e-05
6.55618e-05
6.56939e-05
6.58367e-05
6.59896e-05
6.61559e-05
6.63365e-05
6.65334e-05
6.67448e-05
6.69788e-05
6.72316e-05
6.75139e-05
6.7828e-05
6.8177e-05
6.85609e-05
6.89835e-05
6.94488e-05
6.99624e-05
7.05246e-05
7.11353e-05
7.17929e-05
7.24991e-05
7.32529e-05
7.40503e-05
7.48823e-05
7.57435e-05
7.66305e-05
7.75392e-05
6.37945e-05
6.39629e-05
6.40894e-05
6.42131e-05
6.4334e-05
6.4452e-05
6.45681e-05
6.46827e-05
6.47961e-05
6.49086e-05
6.50204e-05
6.5132e-05
6.52436e-05
6.53559e-05
6.5469e-05
6.55833e-05
6.56997e-05
6.58185e-05
6.59402e-05
6.60645e-05
6.61924e-05
6.6324e-05
6.64584e-05
6.6596e-05
6.67377e-05
6.68828e-05
6.70312e-05
6.71832e-05
6.73379e-05
6.74945e-05
6.76532e-05
6.78116e-05
6.79693e-05
6.81245e-05
6.82778e-05
6.84267e-05
6.85728e-05
6.87154e-05
6.88541e-05
6.89892e-05
6.91224e-05
6.92539e-05
6.9386e-05
6.95197e-05
6.9656e-05
6.97946e-05
6.99399e-05
7.00895e-05
7.0249e-05
7.04161e-05
7.05971e-05
7.07918e-05
7.1004e-05
7.12352e-05
7.14878e-05
7.176e-05
7.2061e-05
7.2387e-05
7.27508e-05
7.31549e-05
7.36031e-05
7.40951e-05
7.46349e-05
7.5227e-05
7.5877e-05
7.65846e-05
7.73486e-05
7.81665e-05
7.90388e-05
7.99633e-05
8.09341e-05
8.19405e-05
8.29758e-05
8.40356e-05
8.51146e-05
6.64867e-05
6.66803e-05
6.68392e-05
6.69928e-05
6.71426e-05
6.72885e-05
6.74317e-05
6.75728e-05
6.7712e-05
6.78498e-05
6.79867e-05
6.81231e-05
6.82596e-05
6.83968e-05
6.85352e-05
6.86755e-05
6.88187e-05
6.89654e-05
6.91162e-05
6.92703e-05
6.94289e-05
6.95919e-05
6.97585e-05
6.99291e-05
7.01048e-05
7.02846e-05
7.04685e-05
7.06564e-05
7.08474e-05
7.10403e-05
7.1235e-05
7.14287e-05
7.16209e-05
7.18093e-05
7.19946e-05
7.21741e-05
7.23497e-05
7.25207e-05
7.26869e-05
7.28489e-05
7.30089e-05
7.31676e-05
7.33275e-05
7.34902e-05
7.36567e-05
7.38275e-05
7.40072e-05
7.41938e-05
7.43934e-05
7.46041e-05
7.48328e-05
7.50797e-05
7.53496e-05
7.56442e-05
7.59665e-05
7.6315e-05
7.66998e-05
7.71175e-05
7.75825e-05
7.8098e-05
7.86677e-05
7.92913e-05
7.99728e-05
8.07167e-05
8.15283e-05
8.24059e-05
8.33471e-05
8.43479e-05
8.54074e-05
8.65217e-05
8.76828e-05
8.88785e-05
9.01008e-05
9.13443e-05
9.26026e-05
6.83497e-05
6.85725e-05
6.87673e-05
6.89545e-05
6.91368e-05
6.93142e-05
6.9488e-05
6.96588e-05
6.98271e-05
6.99936e-05
7.01588e-05
7.03235e-05
7.04884e-05
7.06544e-05
7.08223e-05
7.09932e-05
7.11684e-05
7.13486e-05
7.15342e-05
7.17241e-05
7.19193e-05
7.21199e-05
7.23247e-05
7.25346e-05
7.27508e-05
7.29722e-05
7.31982e-05
7.34286e-05
7.36623e-05
7.38977e-05
7.41342e-05
7.43689e-05
7.46003e-05
7.48267e-05
7.50481e-05
7.52621e-05
7.54707e-05
7.56735e-05
7.58707e-05
7.60632e-05
7.6254e-05
7.64443e-05
7.6637e-05
7.68341e-05
7.70372e-05
7.72472e-05
7.74693e-05
7.7702e-05
7.79518e-05
7.82173e-05
7.85061e-05
7.88189e-05
7.91614e-05
7.95361e-05
7.99463e-05
8.03911e-05
8.08807e-05
8.14131e-05
8.20038e-05
8.26567e-05
8.33752e-05
8.41585e-05
8.50104e-05
8.59348e-05
8.6936e-05
8.80109e-05
8.91551e-05
9.03628e-05
9.16314e-05
9.29547e-05
9.43229e-05
9.57223e-05
9.71441e-05
9.85819e-05
0.000100028
6.93101e-05
6.95667e-05
6.98008e-05
7.00253e-05
7.02438e-05
7.04563e-05
7.06641e-05
7.08681e-05
7.10689e-05
7.12674e-05
7.14646e-05
7.16613e-05
7.18585e-05
7.20576e-05
7.22603e-05
7.2468e-05
7.26818e-05
7.29024e-05
7.31299e-05
7.33626e-05
7.36015e-05
7.38467e-05
7.40973e-05
7.43544e-05
7.4619e-05
7.489e-05
7.51662e-05
7.54467e-05
7.57307e-05
7.60159e-05
7.6301e-05
7.65827e-05
7.68591e-05
7.71284e-05
7.73905e-05
7.76431e-05
7.78885e-05
7.8127e-05
7.83592e-05
7.85867e-05
7.88131e-05
7.90405e-05
7.92725e-05
7.95112e-05
7.9759e-05
8.00178e-05
8.02929e-05
8.05838e-05
8.08971e-05
8.12324e-05
8.15976e-05
8.19943e-05
8.24291e-05
8.29053e-05
8.34265e-05
8.39926e-05
8.46139e-05
8.52895e-05
8.60362e-05
8.68578e-05
8.77574e-05
8.87334e-05
8.97886e-05
9.0926e-05
9.21481e-05
9.34496e-05
9.4824e-05
9.62635e-05
9.77632e-05
9.93146e-05
0.000100906
0.000102524
0.000104157
0.000105799
0.000107443
6.9303e-05
6.95981e-05
6.9875e-05
7.01406e-05
7.03989e-05
7.06498e-05
7.08948e-05
7.11353e-05
7.13718e-05
7.16057e-05
7.18385e-05
7.20712e-05
7.23052e-05
7.25429e-05
7.27872e-05
7.30398e-05
7.33008e-05
7.35703e-05
7.38483e-05
7.41323e-05
7.44231e-05
7.47215e-05
7.50271e-05
7.53413e-05
7.56642e-05
7.59944e-05
7.63303e-05
7.66702e-05
7.70134e-05
7.73567e-05
7.76981e-05
7.80338e-05
7.83612e-05
7.86789e-05
7.89865e-05
7.92821e-05
7.95686e-05
7.98472e-05
8.01191e-05
8.0387e-05
8.06554e-05
8.09272e-05
8.12067e-05
8.14968e-05
8.18004e-05
8.21206e-05
8.24631e-05
8.28283e-05
8.3223e-05
8.36477e-05
8.41109e-05
8.46149e-05
8.51674e-05
8.57726e-05
8.64344e-05
8.71532e-05
8.79394e-05
8.87936e-05
8.97326e-05
9.07603e-05
9.18789e-05
9.30854e-05
9.43811e-05
9.57673e-05
9.72436e-05
9.88026e-05
0.000100435
0.000102132
0.000103884
0.000105682
0.000107513
0.000109362
0.00011122
0.000113077
0.000114927
6.82749e-05
6.86136e-05
6.8937e-05
6.92473e-05
6.95486e-05
6.98407e-05
7.01258e-05
7.04052e-05
7.06804e-05
7.09529e-05
7.12246e-05
7.14974e-05
7.17734e-05
7.20568e-05
7.23518e-05
7.26602e-05
7.29791e-05
7.3308e-05
7.36468e-05
7.3992e-05
7.43446e-05
7.4707e-05
7.50795e-05
7.54631e-05
7.5856e-05
7.62572e-05
7.66642e-05
7.70748e-05
7.74878e-05
7.78989e-05
7.83054e-05
7.87026e-05
7.90877e-05
7.94595e-05
7.98176e-05
8.01609e-05
8.04933e-05
8.08169e-05
8.11345e-05
8.14498e-05
8.17684e-05
8.20944e-05
8.24328e-05
8.27874e-05
8.3162e-05
8.35608e-05
8.399e-05
8.44511e-05
8.49511e-05
8.54913e-05
8.60806e-05
8.67224e-05
8.74254e-05
8.81944e-05
8.90338e-05
8.99444e-05
9.09363e-05
9.20112e-05
9.31859e-05
9.44633e-05
9.5844e-05
9.73233e-05
9.89002e-05
0.000100573
0.000102339
0.000104187
0.000106106
0.000108083
0.000110109
0.000112172
0.000114258
0.000116353
0.000118446
0.000120531
0.000122598
6.619e-05
6.65779e-05
6.69523e-05
6.73106e-05
6.76576e-05
6.79929e-05
6.83192e-05
6.86392e-05
6.89549e-05
6.92683e-05
6.95822e-05
6.98991e-05
7.02232e-05
7.05609e-05
7.09185e-05
7.12972e-05
7.16884e-05
7.20894e-05
7.25014e-05
7.29197e-05
7.33459e-05
7.37854e-05
7.42399e-05
7.47089e-05
7.51861e-05
7.56722e-05
7.61646e-05
7.66595e-05
7.71549e-05
7.76451e-05
7.81268e-05
7.8594e-05
7.90437e-05
7.94756e-05
7.98893e-05
8.02853e-05
8.06687e-05
8.10437e-05
8.14144e-05
8.17863e-05
8.21663e-05
8.25598e-05
8.29728e-05
8.341e-05
8.38764e-05
8.43772e-05
8.49193e-05
8.55053e-05
8.61422e-05
8.68322e-05
8.75841e-05
8.84028e-05
8.92977e-05
9.02742e-05
9.13367e-05
9.24865e-05
9.37328e-05
9.50785e-05
9.65387e-05
9.81149e-05
9.98055e-05
0.000101603
0.000103504
0.000105503
0.000107593
0.00010976
0.000111992
0.000114274
0.000116594
0.000118939
0.000121295
0.00012365
0.000125993
0.000128318
0.000130615
6.30404e-05
6.34863e-05
6.39189e-05
6.4329e-05
6.47227e-05
6.51009e-05
6.54675e-05
6.58273e-05
6.61834e-05
6.65385e-05
6.68961e-05
6.72607e-05
6.76391e-05
6.80408e-05
6.8476e-05
6.89454e-05
6.94283e-05
6.99174e-05
7.04175e-05
7.09227e-05
7.14365e-05
7.19691e-05
7.25242e-05
7.30991e-05
7.36784e-05
7.42667e-05
7.48621e-05
7.5458e-05
7.60508e-05
7.66334e-05
7.72018e-05
7.77482e-05
7.82697e-05
7.87674e-05
7.92419e-05
7.96957e-05
8.01364e-05
8.05704e-05
8.10043e-05
8.14455e-05
8.19024e-05
8.2382e-05
8.28914e-05
8.34363e-05
8.4023e-05
8.46578e-05
8.5348e-05
8.60973e-05
8.69125e-05
8.77966e-05
8.87581e-05
8.98029e-05
9.09409e-05
9.2178e-05
9.35183e-05
9.49632e-05
9.65205e-05
9.81933e-05
9.99944e-05
0.000101923
0.000103974
0.000106137
0.000108405
0.000110768
0.000113215
0.000115731
0.000118301
0.000120908
0.000123541
0.000126185
0.000128828
0.000131458
0.000134067
0.000136647
0.000139191
5.88666e-05
5.9388e-05
5.98952e-05
6.03621e-05
6.08023e-05
6.12189e-05
6.16203e-05
6.20145e-05
6.24065e-05
6.27994e-05
6.31987e-05
6.36112e-05
6.40471e-05
6.45208e-05
6.50506e-05
6.56414e-05
6.62451e-05
6.68429e-05
6.74482e-05
6.80559e-05
6.86724e-05
6.93154e-05
6.99941e-05
7.07032e-05
7.1407e-05
7.2118e-05
7.28376e-05
7.35553e-05
7.4264e-05
7.49543e-05
7.56227e-05
7.62582e-05
7.68584e-05
7.74273e-05
7.79675e-05
7.84848e-05
7.89902e-05
7.94935e-05
8.00042e-05
8.05322e-05
8.10878e-05
8.16797e-05
8.23158e-05
8.30032e-05
8.37492e-05
8.45608e-05
8.54457e-05
8.64084e-05
8.74552e-05
8.85892e-05
8.98184e-05
9.11492e-05
9.25916e-05
9.41515e-05
9.58323e-05
9.7635e-05
9.95657e-05
0.000101627
0.000103827
0.000106162
0.000108623
0.000111197
0.000113872
0.000116634
0.000119469
0.000122359
0.000125289
0.000128243
0.000131207
0.000134168
0.000137115
0.000140038
0.000142931
0.000145786
0.000148597
5.38304e-05
5.44592e-05
5.50826e-05
5.56163e-05
5.60978e-05
5.65398e-05
5.69587e-05
5.73688e-05
5.77795e-05
5.81947e-05
5.8622e-05
5.90709e-05
5.9555e-05
6.00962e-05
6.07325e-05
6.14933e-05
6.22673e-05
6.30009e-05
6.373e-05
6.44545e-05
6.51851e-05
6.59525e-05
6.67805e-05
6.76661e-05
6.85231e-05
6.93795e-05
7.02476e-05
7.11135e-05
7.19611e-05
7.27769e-05
7.35607e-05
7.42956e-05
7.49807e-05
7.56251e-05
7.62355e-05
7.68226e-05
7.7402e-05
7.79885e-05
7.85951e-05
7.92347e-05
7.99197e-05
8.06601e-05
8.14649e-05
8.23419e-05
8.32989e-05
8.43435e-05
8.54829e-05
8.67218e-05
8.80657e-05
8.95168e-05
9.10821e-05
9.27681e-05
9.45838e-05
9.65347e-05
9.86232e-05
0.00010085
0.000103218
0.000105728
0.000108383
0.000111176
0.000114094
0.000117119
0.000120236
0.000123426
0.000126674
0.000129962
0.000133273
0.000136593
0.000139907
0.000143204
0.000146475
0.000149713
0.000152911
0.000156064
0.000159165
5.06875e-05
5.09806e-05
5.12724e-05
5.15471e-05
5.18143e-05
5.2077e-05
5.23442e-05
5.26269e-05
5.29378e-05
5.32784e-05
5.36535e-05
5.40666e-05
5.45272e-05
5.5069e-05
5.57667e-05
5.67675e-05
5.78005e-05
5.87007e-05
5.95637e-05
6.04048e-05
6.1241e-05
6.21262e-05
6.31206e-05
6.42524e-05
6.52991e-05
6.63203e-05
6.73601e-05
6.84074e-05
6.94236e-05
7.03845e-05
7.13013e-05
7.2147e-05
7.2922e-05
7.36449e-05
7.43295e-05
7.49934e-05
7.56592e-05
7.63476e-05
7.70765e-05
7.78619e-05
7.8718e-05
7.9656e-05
8.06851e-05
8.1813e-05
8.3047e-05
8.43939e-05
8.58599e-05
8.74489e-05
8.91642e-05
9.1007e-05
9.29821e-05
9.50955e-05
9.73548e-05
9.97641e-05
0.000102325
0.000105037
0.000107901
0.000110914
0.000114075
0.000117369
0.000120781
0.000124291
0.000127877
0.000131522
0.000135205
0.000138911
0.000142624
0.000146329
0.000150015
0.00015367
0.00015729
0.000160867
0.000164397
0.000167875
0.000171295
5.02033e-05
5.01881e-05
5.01788e-05
5.01913e-05
5.02239e-05
5.02755e-05
5.03544e-05
5.04686e-05
5.06342e-05
5.08662e-05
5.11664e-05
5.15243e-05
5.19451e-05
5.24445e-05
5.30502e-05
5.37802e-05
5.45317e-05
5.52613e-05
5.60028e-05
5.67524e-05
5.75273e-05
5.83895e-05
5.94685e-05
6.09533e-05
6.22248e-05
6.33993e-05
6.46072e-05
6.58735e-05
6.70981e-05
6.8222e-05
6.92918e-05
7.0262e-05
7.11307e-05
7.19329e-05
7.26945e-05
7.34431e-05
7.42107e-05
7.50256e-05
7.59115e-05
7.68873e-05
7.79685e-05
7.91661e-05
8.04879e-05
8.19399e-05
8.35273e-05
8.52542e-05
8.71245e-05
8.91396e-05
9.13004e-05
9.36057e-05
9.60587e-05
9.86638e-05
0.000101427
0.000104351
0.000107438
0.000110686
0.000114093
0.000117652
0.000121355
0.000125185
0.000129121
0.000133141
0.000137222
0.000141342
0.000145483
0.000149629
0.000153767
0.000157883
0.000161966
0.000166008
0.000170005
0.000173953
0.000177845
0.000181679
0.000185449
5.28374e-05
5.24778e-05
5.21135e-05
5.18613e-05
5.16727e-05
5.15118e-05
5.13831e-05
5.12938e-05
5.12798e-05
5.13956e-05
5.16145e-05
5.19109e-05
5.22777e-05
5.2708e-05
5.32053e-05
5.37619e-05
5.43481e-05
5.49588e-05
5.55947e-05
5.62584e-05
5.69608e-05
5.77387e-05
5.86397e-05
5.96782e-05
6.06582e-05
6.16575e-05
6.27834e-05
6.4229e-05
6.5692e-05
6.69689e-05
6.82027e-05
6.93123e-05
7.02761e-05
7.11535e-05
7.19912e-05
7.28309e-05
7.37168e-05
7.46865e-05
7.57697e-05
7.69875e-05
7.83549e-05
7.988e-05
8.15671e-05
8.34174e-05
8.54316e-05
8.76096e-05
8.9951e-05
9.24537e-05
9.51156e-05
9.79342e-05
0.000100911
0.00010405
0.000107357
0.000110833
0.000114482
0.000118301
0.000122284
0.00012642
0.000130697
0.00013509
0.000139578
0.000144135
0.000148735
0.000153358
0.000157984
0.000162601
0.000167195
0.000171754
0.000176269
0.000180733
0.000185142
0.000189494
0.000193784
0.000198007
0.000202161
5.76803e-05
5.73364e-05
5.69854e-05
5.66498e-05
5.63176e-05
5.59772e-05
5.56185e-05
5.52384e-05
5.49035e-05
5.4877e-05
5.50649e-05
5.53485e-05
5.5705e-05
5.61104e-05
5.65586e-05
5.70406e-05
5.75466e-05
5.80767e-05
5.86374e-05
5.9239e-05
5.98712e-05
6.05494e-05
6.1286e-05
6.20734e-05
6.28615e-05
6.36879e-05
6.45981e-05
6.56358e-05
6.671e-05
6.78231e-05
6.90952e-05
7.0308e-05
7.13422e-05
7.22703e-05
7.31666e-05
7.40925e-05
7.51053e-05
7.62523e-05
7.75673e-05
7.90709e-05
8.07745e-05
8.26798e-05
8.4784e-05
8.70807e-05
8.95645e-05
9.22298e-05
9.50718e-05
9.80849e-05
0.000101266
0.000104611
0.000108125
0.000111812
0.000115677
0.000119725
0.000123958
0.000128374
0.000132965
0.000137711
0.000142595
0.000147589
0.000152666
0.000157796
0.000162955
0.00016812
0.000173274
0.000178404
0.000183497
0.000188542
0.00019353
0.000198455
0.000203315
0.000208106
0.000212823
0.000217463
0.000222022
6.35405e-05
6.32377e-05
6.29152e-05
6.25808e-05
6.22408e-05
6.19107e-05
6.1595e-05
6.12671e-05
6.1014e-05
6.11487e-05
6.14328e-05
6.17985e-05
6.22076e-05
6.26485e-05
6.31141e-05
6.36007e-05
6.41059e-05
6.46316e-05
6.51868e-05
6.57625e-05
6.6348e-05
6.69481e-05
6.75721e-05
6.82232e-05
6.88928e-05
6.95869e-05
7.03172e-05
7.11054e-05
7.1952e-05
7.28667e-05
7.38699e-05
7.48847e-05
7.58237e-05
7.67095e-05
7.76095e-05
7.85936e-05
7.97239e-05
8.10472e-05
8.2594e-05
8.4379e-05
8.6407e-05
8.86732e-05
9.11684e-05
9.38798e-05
9.67974e-05
9.99118e-05
0.000103216
0.000106703
0.000110372
0.000114221
0.000118257
0.000122486
0.000126917
0.000131555
0.000136405
0.000141459
0.000146704
0.000152114
0.000157663
0.000163317
0.000169042
0.000174808
0.000180585
0.000186351
0.000192088
0.000197783
0.000203423
0.000208995
0.000214492
0.000219907
0.000225237
0.000230478
0.000235627
0.000240679
0.000245632
7.04847e-05
7.03043e-05
7.00921e-05
6.98387e-05
6.95583e-05
6.93744e-05
6.9454e-05
6.9631e-05
6.99131e-05
7.03142e-05
7.07742e-05
7.1267e-05
7.17806e-05
7.23079e-05
7.28454e-05
7.33973e-05
7.39675e-05
7.45509e-05
7.51456e-05
7.57361e-05
7.63087e-05
7.68657e-05
7.74283e-05
7.80212e-05
7.86496e-05
7.92824e-05
7.99045e-05
8.05552e-05
8.13031e-05
8.21319e-05
8.29645e-05
8.37706e-05
8.45597e-05
8.53856e-05
8.6314e-05
8.74041e-05
8.87023e-05
9.02377e-05
9.20249e-05
9.40668e-05
9.63625e-05
9.89073e-05
0.000101696
0.00010472
0.000107971
0.000111441
0.000115125
0.000119021
0.00012313
0.000127456
0.000132007
0.000136791
0.000141819
0.000147097
0.000152627
0.000158396
0.000164379
0.000170542
0.000176844
0.000183243
0.000189697
0.000196168
0.000202625
0.000209043
0.000215403
0.000221688
0.000227885
0.000233981
0.000239968
0.000245842
0.000251598
0.000257233
0.000262746
0.000268131
0.000273388
7.90098e-05
7.92041e-05
7.94358e-05
7.97015e-05
8.00158e-05
8.04037e-05
8.08735e-05
8.13913e-05
8.19517e-05
8.25523e-05
8.31822e-05
8.38387e-05
8.4506e-05
8.51679e-05
8.58153e-05
8.64521e-05
8.70917e-05
8.77495e-05
8.84288e-05
8.90922e-05
8.97014e-05
9.02471e-05
9.07719e-05
9.13519e-05
9.20378e-05
9.26887e-05
9.32293e-05
9.37066e-05
9.41841e-05
9.46894e-05
9.52316e-05
9.5838e-05
9.65521e-05
9.74279e-05
9.85143e-05
9.98473e-05
0.000101445
0.000103311
0.000105438
0.000107821
0.000110456
0.000113343
0.000116483
0.000119874
0.000123513
0.000127397
0.000131524
0.000135895
0.000140516
0.000145393
0.000150538
0.000155962
0.000161679
0.000167694
0.000174004
0.000180588
0.000187406
0.000194408
0.000201536
0.000208733
0.000215946
0.000223132
0.000230253
0.000237285
0.000244204
0.000250995
0.000257644
0.000264143
0.000270485
0.000276668
0.000282691
0.000288554
0.000294257
0.000299798
0.000305177
9.17742e-05
9.23359e-05
9.29261e-05
9.35517e-05
9.42192e-05
9.493e-05
9.56701e-05
9.64257e-05
9.71957e-05
9.79857e-05
9.8802e-05
9.96458e-05
0.000100497
0.000101319
0.000102084
0.000102799
0.000103499
0.000104242
0.000105093
0.000105948
0.000106635
0.000107146
0.000107529
0.000107831
0.000108078
0.000108258
0.000108388
0.00010852
0.000108701
0.000108968
0.00010936
0.000109927
0.000110727
0.000111813
0.00011322
0.000114962
0.000117033
0.00011941
0.000122071
0.000125002
0.0001282
0.000131668
0.000135409
0.000139421
0.000143701
0.000148247
0.000153059
0.00015814
0.000163498
0.00016914
0.00017508
0.00018133
0.0001879
0.000194795
0.000202003
0.00020949
0.000217199
0.000225055
0.000232982
0.000240907
0.000248767
0.000256516
0.000264118
0.00027155
0.000278794
0.000285841
0.000292684
0.000299322
0.000305754
0.000311986
0.000318019
0.000323858
0.000329503
0.000334958
0.000340221
0.000108308
0.000109152
0.000110026
0.000110937
0.000111885
0.000112856
0.000113825
0.000114777
0.000115718
0.000116668
0.000117661
0.00011874
0.00011989
0.000120957
0.000121858
0.000122611
0.000123256
0.000123822
0.000124315
0.000124699
0.000124941
0.000125049
0.000125046
0.000124967
0.000124843
0.000124702
0.000124579
0.000124515
0.000124555
0.00012475
0.000125162
0.000125868
0.000126947
0.000128466
0.000130437
0.000132849
0.000135663
0.000138825
0.000142296
0.00014605
0.000150079
0.000154383
0.000158963
0.000163821
0.000168959
0.000174383
0.000180098
0.000186112
0.000192433
0.000199071
0.000206036
0.000213337
0.000220973
0.000228932
0.000237176
0.000245637
0.00025422
0.000262824
0.000271355
0.00027974
0.000287928
0.000295887
0.000303599
0.000311056
0.000318257
0.000325205
0.000331904
0.000338361
0.000344583
0.000350576
0.000356347
0.000361901
0.000367238
0.000372361
0.000377268
0.000128244
0.000129307
0.000130412
0.000131581
0.00013283
0.000134125
0.000135378
0.000136542
0.000137617
0.000138618
0.000139558
0.000140434
0.000141229
0.00014191
0.000142469
0.000142919
0.000143273
0.000143535
0.000143699
0.00014375
0.000143672
0.000143478
0.000143203
0.000142891
0.000142579
0.000142303
0.000142095
0.000141997
0.000142062
0.000142367
0.00014302
0.000144162
0.000145915
0.00014837
0.000151403
0.000154861
0.000158663
0.000162768
0.000167159
0.000171831
0.000176789
0.000182038
0.000187586
0.000193439
0.000199605
0.000206094
0.000212914
0.000220073
0.000227583
0.000235449
0.00024367
0.000252239
0.000261119
0.000270238
0.000279487
0.000288733
0.000297851
0.000306755
0.00031539
0.000323725
0.000331747
0.000339455
0.000346855
0.000353955
0.000360767
0.000367302
0.000373569
0.000379578
0.000385336
0.000390851
0.000396128
0.000401168
0.00040597
0.000410532
0.000414849
0.000151327
0.000152496
0.000153645
0.000154776
0.00015588
0.000156943
0.000157945
0.00015888
0.000159746
0.000160542
0.000161262
0.000161897
0.000162439
0.000162882
0.000163227
0.00016348
0.000163641
0.000163707
0.000163667
0.000163502
0.00016322
0.000162863
0.000162481
0.000162116
0.000161803
0.000161569
0.00016145
0.000161501
0.000161812
0.000162535
0.000163915
0.00016626
0.000169421
0.000173135
0.000177259
0.000181719
0.000186486
0.000191555
0.000196927
0.000202609
0.000208611
0.000214941
0.000221613
0.000228636
0.000236018
0.000243775
0.000251919
0.000260449
0.000269383
0.0002787
0.000288349
0.000298244