/*--------------------------------*- C++ -*----------------------------------*\
| =========                 |                                                 |
| \\      /  F ield         | OpenFOAM: The Open Source CFD Toolbox           |
|  \\    /   O peration     | Version:  2412                                  |
|   \\  /    A nd           | Website:  www.openfoam.com                      |
|    \\/     M anipulation  |                                                 |
\*---------------------------------------------------------------------------*/
FoamFile
{
    version     2.0;
    format      ascii;
    arch        "LSB;label=32;scalar=64";
    class       volScalarField;
    location    "40";
    object      p;
}
// * * * * * * * * * * * * * * * * * * * * * * * * * * * * * * * * * * * * * //

dimensions      [0 2 -2 0 0 0 0];

internalField   nonuniform List<scalar> 
7421
(
125.188
121.501
117.723
113.857
109.92
105.925
101.875
97.7718
93.6216
89.4324
85.211
80.9634
76.695
72.4125
68.1211
63.8265
59.5323
55.2428
50.9599
46.6863
42.4226
38.1685
33.9247
29.6908
25.4658
21.2483
17.0375
12.8327
8.63091
4.42982
0.22641
-3.97914
-8.18745
-12.4009
-16.6231
-20.8566
-25.1017
-29.359
-33.6319
-37.922
-42.2312
-46.5612
-50.9146
-55.2922
-59.7003
-64.1377
-68.6075
-73.1122
-77.6592
-82.2463
-86.879
-91.5605
-96.2958
-101.082
-105.928
-110.834
-115.802
-120.836
-125.933
-131.098
-136.332
-141.631
-146.997
-152.429
-157.926
-163.485
-169.101
-174.771
-180.496
-186.264
-192.072
-197.914
-203.78
-209.674
125.188
121.501
117.724
113.858
109.921
105.926
101.875
97.7724
93.6223
89.433
85.2116
80.964
76.6956
72.4131
68.1217
63.8271
59.5329
55.2433
50.9604
46.6868
42.4231
38.1691
33.9252
29.6913
25.4664
21.2489
17.0381
12.8332
8.63144
4.43035
0.226935
-3.97861
-8.18696
-12.4004
-16.6226
-20.8561
-25.1012
-29.3585
-33.6314
-37.9215
-42.2307
-46.5607
-50.9141
-55.2918
-59.6998
-64.1373
-68.6071
-73.1117
-77.6588
-82.2459
-86.8786
-91.5601
-96.2954
-101.082
-105.928
-110.833
-115.802
-120.836
-125.933
-131.098
-136.332
-141.631
-146.997
-152.428
-157.925
-163.484
-169.1
-174.771
-180.496
-186.264
-192.072
-197.914
-203.78
-209.674
125.189
121.502
117.725
113.858
109.922
105.927
101.876
97.7733
93.6231
89.4338
85.2125
80.9649
76.6965
72.4139
68.1226
63.8279
59.5338
55.2442
50.9613
46.6876
42.4239
38.1699
33.926
29.6921
25.4672
21.2496
17.0389
12.834
8.6322
4.4311
0.227686
-3.97788
-8.1862
-12.3996
-16.6219
-20.8554
-25.1005
-29.3578
-33.6307
-37.9208
-42.23
-46.56
-50.9134
-55.2911
-59.6992
-64.1366
-68.6064
-73.1111
-77.6581
-82.2453
-86.878
-91.5595
-96.2948
-101.081
-105.927
-110.833
-115.802
-120.835
-125.933
-131.097
-136.331
-141.631
-146.996
-152.428
-157.925
-163.484
-169.1
-174.77
-180.496
-186.263
-192.071
-197.913
-203.78
-209.674
125.19
121.503
117.726
113.859
109.923
105.928
101.877
97.7743
93.6242
89.4349
85.2135
80.9659
76.6975
72.4149
68.1236
63.8289
59.5348
55.2452
50.9622
46.6886
42.4249
38.1709
33.927
29.6931
25.4681
21.2506
17.0398
12.8349
8.63312
4.432
0.228578
-3.97699
-8.18533
-12.3988
-16.6211
-20.8545
-25.0996
-29.357
-33.6299
-37.92
-42.2292
-46.5592
-50.9127
-55.2903
-59.6984
-64.1359
-68.6057
-73.1104
-77.6574
-82.2445
-86.8773
-91.5589
-96.2941
-101.08
-105.927
-110.832
-115.801
-120.834
-125.932
-131.096
-136.331
-141.63
-146.996
-152.427
-157.924
-163.483
-169.099
-174.77
-180.495
-186.263
-192.071
-197.913
-203.78
-209.673
125.191
121.505
117.727
113.861
109.924
105.929
101.879
97.7755
93.6253
89.436
85.2147
80.9671
76.6987
72.4161
68.1247
63.83
59.5359
55.2463
50.9633
46.6897
42.426
38.1719
33.928
29.6941
25.4692
21.2516
17.0408
12.8359
8.63412
4.433
0.229562
-3.97601
-8.18437
-12.3978
-16.6201
-20.8536
-25.0987
-29.3561
-33.629
-37.9191
-42.2283
-46.5584
-50.9118
-55.2895
-59.6976
-64.135
-68.6048
-73.1096
-77.6566
-82.2437
-86.8765
-91.5581
-96.2933
-101.08
-105.926
-110.831
-115.8
-120.834
-125.931
-131.096
-136.33
-141.629
-146.995
-152.427
-157.924
-163.483
-169.099
-174.769
-180.495
-186.262
-192.07
-197.912
-203.779
-209.673
125.193
121.506
117.729
113.862
109.925
105.93
101.88
97.7768
93.6266
89.4373
85.216
80.9683
76.6999
72.4173
68.1259
63.8313
59.5371
55.2475
50.9645
46.6909
42.4272
38.1731
33.9292
29.6953
25.4703
21.2527
17.0419
12.837
8.63523
4.43409
0.230648
-3.97494
-8.1833
-12.3967
-16.6191
-20.8525
-25.0977
-29.355
-33.628
-37.9181
-42.2274
-46.5574
-50.9108
-55.2885
-59.6966
-64.1341
-68.6039
-73.1087
-77.6557
-82.2429
-86.8757
-91.5572
-96.2925
-101.079
-105.925
-110.831
-115.799
-120.833
-125.931
-131.095
-136.329
-141.629
-146.994
-152.426
-157.923
-163.482
-169.098
-174.769
-180.494
-186.262
-192.07
-197.912
-203.779
-209.672
128.874
125.194
121.508
117.73
113.864
109.927
105.932
101.881
97.7782
93.6281
89.4388
85.2174
80.9698
76.7013
72.4187
68.1273
63.8326
59.5385
55.2488
50.9659
46.6922
42.4285
38.1744
33.9305
29.6966
25.4716
21.254
17.0432
12.8383
8.63645
4.43532
0.231859
-3.97375
-8.18212
-12.3956
-16.6179
-20.8514
-25.0965
-29.3539
-33.6269
-37.917
-42.2263
-46.5563
-50.9098
-55.2875
-59.6956
-64.1331
-68.6029
-73.1076
-77.6547
-82.2419
-86.8747
-91.5562
-96.2915
-101.078
-105.924
-110.83
-115.799
-120.832
-125.93
-131.094
-136.328
-141.628
-146.993
-152.425
-157.922
-163.481
-169.097
-174.768
-180.493
-186.261
-192.069
-197.911
-203.778
-209.671
128.876
125.196
121.509
117.732
113.865
109.929
105.934
101.883
97.7799
93.6297
89.4404
85.219
80.9714
76.7029
72.4203
68.1289
63.8342
59.54
55.2504
50.9674
46.6938
42.43
38.1759
33.932
29.6981
25.473
21.2555
17.0446
12.8397
8.63787
4.4367
0.233234
-3.97238
-8.18077
-12.3942
-16.6166
-20.8501
-25.0952
-29.3526
-33.6256
-37.9157
-42.225
-46.5551
-50.9085
-55.2862
-59.6944
-64.1319
-68.6017
-73.1065
-77.6535
-82.2407
-86.8735
-91.5551
-96.2904
-101.077
-105.923
-110.829
-115.797
-120.831
-125.929
-131.093
-136.327
-141.627
-146.992
-152.424
-157.921
-163.48
-169.096
-174.767
-180.492
-186.26
-192.068
-197.91
-203.777
-209.67
128.878
125.198
121.511
117.734
113.867
109.931
105.935
101.885
97.7818
93.6316
89.4423
85.2209
80.9733
76.7048
72.4222
68.1308
63.836
59.5418
55.2522
50.9692
46.6955
42.4318
38.1777
33.9337
29.6998
25.4747
21.2571
17.0463
12.8413
8.63949
4.43832
0.234835
-3.97079
-8.17919
-12.3927
-16.615
-20.8485
-25.0937
-29.3511
-33.6241
-37.9143
-42.2235
-46.5536
-50.9071
-55.2848
-59.6929
-64.1305
-68.6003
-73.1051
-77.6521
-82.2393
-86.8721
-91.5537
-96.289
-101.075
-105.922
-110.827
-115.796
-120.829
-125.927
-131.092
-136.326
-141.625
-146.991
-152.423
-157.92
-163.479
-169.095
-174.765
-180.491
-186.258
-192.066
-197.908
-203.775
-209.669
128.88
125.201
121.514
117.736
113.87
109.933
105.938
101.887
97.7841
93.6339
89.4445
85.2232
80.9755
76.707
72.4244
68.1329
63.8382
59.544
55.2543
50.9713
46.6976
42.4338
38.1797
33.9357
29.7018
25.4767
21.2591
17.0483
12.8433
8.64142
4.44022
0.236731
-3.96892
-8.17734
-12.3908
-16.6132
-20.8467
-25.0919
-29.3493
-33.6223
-37.9125
-42.2218
-46.5519
-50.9054
-55.2831
-59.6912
-64.1287
-68.5986
-73.1034
-77.6504
-82.2376
-86.8704
-91.552
-96.2873
-101.074
-105.92
-110.825
-115.794
-120.828
-125.925
-131.09
-136.324
-141.623
-146.989
-152.421
-157.918
-163.477
-169.093
-174.763
-180.489
-186.256
-192.064
-197.906
-203.773
-209.666
128.883
125.204
121.516
117.739
113.872
109.936
105.941
101.89
97.7868
93.6366
89.4472
85.2258
80.9781
76.7096
72.4269
68.1355
63.8407
59.5465
55.2568
50.9738
46.7001
42.4363
38.1821
33.9382
29.7042
25.4791
21.2615
17.0506
12.8456
8.6437
4.44249
0.238975
-3.96669
-8.17512
-12.3886
-16.611
-20.8446
-25.0898
-29.3472
-33.6202
-37.9104
-42.2197
-46.5498
-50.9033
-55.281
-59.6892
-64.1267
-68.5965
-73.1013
-77.6484
-82.2355
-86.8684
-91.55
-96.2852
-101.072
-105.918
-110.823
-115.792
-120.826
-125.923
-131.088
-136.322
-141.621
-146.987
-152.418
-157.915
-163.474
-169.091
-174.761
-180.486
-186.254
-192.062
-197.903
-203.77
-209.663
128.886
125.207
121.52
117.742
113.875
109.939
105.944
101.893
97.79
93.6397
89.4503
85.2289
80.9812
76.7127
72.43
68.1385
63.8437
59.5495
55.2598
50.9767
46.703
42.4392
38.185
33.941
29.707
25.4819
21.2642
17.0533
12.8483
8.64641
4.44517
0.241631
-3.96405
-8.1725
-12.386
-16.6085
-20.842
-25.0872
-29.3447
-33.6177
-37.9079
-42.2172
-46.5473
-50.9008
-55.2785
-59.6867
-64.1242
-68.5941
-73.0988
-77.6459
-82.2331
-86.8659
-91.5474
-96.2827
-101.069
-105.915
-110.821
-115.79
-120.823
-125.921
-131.085
-136.319
-141.618
-146.984
-152.416
-157.912
-163.471
-169.087
-174.758
-180.483
-186.25
-192.058
-197.9
-203.766
-209.659
128.89
125.212
121.524
117.746
113.879
109.943
105.948
101.897
97.7937
93.6434
89.454
85.2326
80.9848
76.7163
72.4336
68.1421
63.8473
59.553
55.2632
50.9802
46.7064
42.4426
38.1884
33.9443
29.7103
25.4852
21.2675
17.0566
12.8515
8.6496
4.44833
0.24478
-3.96093
-8.1694
-12.383
-16.6054
-20.839
-25.0842
-29.3417
-33.6147
-37.9049
-42.2142
-46.5443
-50.8978
-55.2756
-59.6837
-64.1212
-68.5911
-73.0959
-77.6429
-82.2301
-86.8629
-91.5444
-96.2796
-101.066
-105.912
-110.818
-115.786
-120.82
-125.917
-131.082
-136.316
-141.615
-146.98
-152.412
-157.909
-163.468
-169.083
-174.753
-180.479
-186.246
-192.053
-197.895
-203.761
-209.654
128.895
125.217
121.529
117.75
113.884
109.947
105.952
101.901
97.7981
93.6478
89.4584
85.2369
80.9891
76.7205
72.4378
68.1463
63.8514
59.5571
55.2673
50.9843
46.7104
42.4466
38.1923
33.9483
29.7142
25.4891
21.2713
17.0604
12.8553
8.65334
4.45205
0.24847
-3.95726
-8.16576
-12.3793
-16.6018
-20.8354
-25.0806
-29.3381
-33.6112
-37.9014
-42.2107
-46.5408
-50.8943
-55.2721
-59.6802
-64.1177
-68.5876
-73.0923
-77.6394
-82.2265
-86.8593
-91.5408
-96.276
-101.062
-105.909
-110.814
-115.783
-120.816
-125.913
-131.078
-136.311
-141.611
-146.976
-152.407
-157.904
-163.463
-169.078
-174.748
-180.473
-186.24
-192.048
-197.889
-203.755
-209.648
128.901
125.223
121.534
117.756
113.889
109.953
105.957
101.907
97.8032
93.6529
89.4634
85.2419
80.9941
76.7255
72.4427
68.1511
63.8563
59.5619
55.2721
50.989
46.7151
42.4512
38.1969
33.9529
29.7187
25.4936
21.2758
17.0648
12.8597
8.65772
4.45639
0.252787
-3.95297
-8.16149
-12.3751
-16.5976
-20.8312
-25.0764
-29.334
-33.607
-37.8972
-42.2066
-46.5367
-50.8902
-55.268
-59.6761
-64.1136
-68.5834
-73.0882
-77.6352
-82.2223
-86.855
-91.5365
-96.2716
-101.058
-105.904
-110.809
-115.778
-120.811
-125.909
-131.073
-136.306
-141.606
-146.971
-152.402
-157.898
-163.457
-169.073
-174.742
-180.467
-186.234
-192.041
-197.882
-203.747
-209.64
128.908
125.231
121.541
117.762
113.895
109.959
105.963
101.913
97.8092
93.6589
89.4693
85.2478
80.9999
76.7312
72.4484
68.1568
63.8619
59.5675
55.2777
50.9945
46.7206
42.4566
38.2023
33.9582
29.724
25.4988
21.281
17.07
12.8648
8.66282
4.46145
0.257817
-3.94796
-8.15652
-12.3702
-16.5927
-20.8263
-25.0716
-29.3291
-33.6022
-37.8924
-42.2017
-46.5319
-50.8854
-55.2631
-59.6713
-64.1087
-68.5786
-73.0833
-77.6303
-82.2173
-86.85
-91.5314
-96.2665
-101.053
-105.899
-110.804
-115.772
-120.806
-125.903
-131.067
-136.3
-141.599
-146.964
-152.395
-157.892
-163.45
-169.065
-174.735
-180.459
-186.225
-192.032
-197.873
-203.738
-209.63
128.915
125.239
121.549
117.769
113.903
109.966
105.971
101.92
97.8162
93.6658
89.4762
85.2546
81.0066
76.7379
72.4551
68.1634
63.8685
59.574
55.2841
51.0009
46.7269
42.4629
38.2086
33.9644
29.7302
25.5049
21.2871
17.076
12.8708
8.66874
4.46733
0.263672
-3.94214
-8.15073
-12.3644
-16.5869
-20.8206
-25.0659
-29.3234
-33.5965
-37.8868
-42.1961
-46.5263
-50.8797
-55.2575
-59.6656
-64.1031
-68.5729
-73.0776
-77.6245
-82.2115
-86.8441
-91.5255
-96.2605
-101.047
-105.893
-110.798
-115.766
-120.799
-125.896
-131.06
-136.293
-141.592
-146.957
-152.388
-157.884
-163.442
-169.057
-174.726
-180.45
-186.216
-192.022
-197.862
-203.727
-209.618
128.925
125.25
121.558
117.778
113.911
109.975
105.979
101.928
97.8244
93.6738
89.4842
85.2625
81.0145
76.7457
72.4628
68.1711
63.876
59.5816
55.2916
51.0083
46.7343
42.4702
38.2158
33.9716
29.7373
25.512
21.2941
17.083
12.8777
8.67562
4.47416
0.270463
-3.93538
-8.14401
-12.3577
-16.5803
-20.814
-25.0593
-29.3168
-33.5899
-37.8802
-42.1896
-46.5197
-50.8732
-55.2509
-59.659
-64.0965
-68.5662
-73.0709
-77.6177
-82.2047
-86.8372
-91.5185
-96.2534
-101.039
-105.885
-110.79
-115.758
-120.791
-125.888
-131.052
-136.285
-141.583
-146.948
-152.378
-157.874
-163.432
-169.046
-174.715
-180.438
-186.204
-192.01
-197.849
-203.713
-209.604
128.936
125.262
121.568
117.788
113.921
109.984
105.989
101.937
97.8338
93.6832
89.4934
85.2716
81.0235
76.7547
72.4717
68.1799
63.8848
59.5903
55.3002
51.0169
46.7428
42.4786
38.2242
33.9799
29.7456
25.5202
21.3022
17.0911
12.8857
8.68358
4.48206
0.278329
-3.92756
-8.13623
-12.35
-16.5726
-20.8063
-25.0516
-29.3092
-33.5823
-37.8726
-42.182
-46.5121
-50.8656
-55.2433
-59.6514
-64.0888
-68.5585
-73.0631
-77.6099
-82.1968
-86.8292
-91.5104
-96.2451
-101.031
-105.877
-110.781
-115.749
-120.782
-125.879
-131.042
-136.275
-141.573
-146.937
-152.367
-157.863
-163.42
-169.034
-174.702
-180.425
-186.19
-191.995
-197.834
-203.697
-209.587
128.949
125.275
121.581
117.799
113.932
109.996
106
101.948
97.8446
93.6939
89.5041
85.2822
81.034
76.7651
72.482
68.1901
63.8949
59.6003
55.3101
51.0267
46.7526
42.4883
38.2338
33.9895
29.7551
25.5296
21.3116
17.1004
12.895
8.69277
4.4912
0.287423
-3.9185
-8.12722
-12.341
-16.5637
-20.7974
-25.0427
-29.3004
-33.5735
-37.8638
-42.1732
-46.5033
-50.8568
-55.2345
-59.6425
-64.0799
-68.5495
-73.0541
-77.6008
-82.1875
-86.8199
-91.501
-96.2355
-101.021
-105.867
-110.771
-115.739
-120.771
-125.868
-131.031
-136.263
-141.561
-146.925
-152.355
-157.849
-163.406
-169.019
-174.687
-180.409
-186.173
-191.978
-197.816
-203.678
-209.567
128.963
125.291
121.595
117.813
113.946
110.009
106.013
101.961
97.857
93.7062
89.5163
85.2942
81.046
76.7769
72.4937
68.2018
63.9065
59.6118
55.3216
51.0381
46.7638
42.4995
38.2449
34.0005
29.766
25.5405
21.3224
17.1111
12.9057
8.70337
4.50174
0.297913
-3.90806
-8.11683
-12.3307
-16.5534
-20.7871
-25.0325
-29.2902
-33.5633
-37.8536
-42.163
-46.4931
-50.8466
-55.2243
-59.6322
-64.0695
-68.5391
-73.0436
-77.5902
-82.1769
-86.8091
-91.49
-96.2244
-101.01
-105.855
-110.759
-115.727
-120.759
-125.855
-131.018
-136.25
-141.547
-146.91
-152.34
-157.834
-163.39
-169.003
-174.669
-180.391
-186.154
-191.958
-197.795
-203.656
-209.544
128.98
125.309
121.611
117.828
113.961
110.024
106.027
101.975
97.8712
93.7202
89.5301
85.308
81.0596
76.7905
72.5072
68.2152
63.9198
59.625
55.3346
51.0511
46.7767
42.5123
38.2576
34.0131
29.7786
25.553
21.3348
17.1235
12.9179
8.71556
4.51385
0.309975
-3.89604
-8.10487
-12.3188
-16.5415
-20.7753
-25.0207
-29.2784
-33.5516
-37.8419
-42.1513
-46.4814
-50.8348
-55.2125
-59.6204
-64.0576
-68.5272
-73.0316
-77.578
-82.1645
-86.7966
-91.4773
-96.2115
-100.997
-105.842
-110.746
-115.713
-120.745
-125.84
-131.002
-136.234
-141.531
-146.894
-152.322
-157.816
-163.371
-168.983
-174.649
-180.369
-186.132
-191.934
-197.77
-203.63
-209.517
128.999
125.329
121.629
117.845
113.978
110.041
106.044
101.992
97.8873
93.7361
89.5459
85.3235
81.075
76.8058
72.5224
68.2303
63.9348
59.64
55.3495
51.0658
46.7914
42.5269
38.2721
34.0275
29.7929
25.5672
21.349
17.1376
12.932
8.72951
4.52773
0.323803
-3.88226
-8.09115
-12.3051
-16.5279
-20.7618
-25.0072
-29.2649
-33.5381
-37.8284
-42.1378
-46.4679
-50.8213
-55.199
-59.6068
-64.044
-68.5134
-73.0177
-77.564
-82.1504
-86.7822
-91.4627
-96.1966
-100.982
-105.826
-110.73
-115.697
-120.728
-125.823
-130.985
-136.216
-141.512
-146.874
-152.302
-157.795
-163.349
-168.96
-174.625
-180.344
-186.106
-191.907
-197.742
-203.601
-209.486
129.02
125.352
121.65
117.864
113.997
110.06
106.063
102.01
97.9055
93.7542
89.5637
85.3412
81.0925
76.8232
72.5397
68.2475
63.9519
59.6569
55.3664
51.0826
46.8081
42.5435
38.2886
34.044
29.8092
25.5835
21.3652
17.1537
12.948
8.74544
4.54358
0.3396
-3.86652
-8.07546
-12.2895
-16.5124
-20.7462
-24.9917
-29.2494
-33.5227
-37.813
-42.1224
-46.4525
-50.8058
-55.1835
-59.5912
-64.0283
-68.4976
-73.0018
-77.5479
-82.1341
-86.7657
-91.446
-96.1796
-100.964
-105.809
-110.712
-115.678
-120.709
-125.803
-130.964
-136.195
-141.49
-146.852
-152.278
-157.77
-163.324
-168.934
-174.598
-180.316
-186.076
-191.876
-197.709
-203.566
-209.45
129.044
125.377
121.672
117.886
114.018
110.081
106.084
102.031
97.9257
93.7742
89.5837
85.361
81.1121
76.8427
72.5591
68.2668
63.9711
59.676
55.3854
51.1015
46.8269
42.5622
38.3073
34.0625
29.8277
25.6019
21.3836
17.172
12.9662
8.76356
4.56163
0.357601
-3.84857
-8.05757
-12.2717
-16.4946
-20.7285
-24.974
-29.2318
-33.5051
-37.7954
-42.1047
-46.4348
-50.7882
-55.1657
-59.5734
-64.0104
-68.4795
-72.9836
-77.5295
-82.1154
-86.7468
-91.4268
-96.16
-100.944
-105.788
-110.691
-115.657
-120.687
-125.781
-130.941
-136.171
-141.465
-146.826
-152.252
-157.742
-163.295
-168.903
-174.566
-180.283
-186.041
-191.84
-197.671
-203.527
-209.408
129.07
125.405
121.698
117.91
114.041
110.104
106.107
102.053
97.9482
93.7965
89.6058
85.383
81.1339
76.8644
72.5807
68.2883
63.9926
59.6974
55.4067
51.1228
46.8481
42.5833
38.3283
34.0835
29.8487
25.6228
21.4044
17.1927
12.9869
8.78416
4.58215
0.378073
-3.82814
-8.03722
-12.2514
-16.4744
-20.7084
-24.9539
-29.2117
-33.485
-37.7753
-42.0847
-46.4148
-50.768
-55.1455
-59.5531
-63.9899
-68.4589
-72.9628
-77.5084
-82.0941
-86.7252
-91.4048
-96.1376
-100.921
-105.765
-110.667
-115.632
-120.662
-125.755
-130.914
-136.143
-141.437
-146.796
-152.221
-157.71
-163.261
-168.869
-174.53
-180.245
-186.002
-191.798
-197.628
-203.481
-209.361
129.099
125.435
121.725
117.936
114.067
110.13
106.132
102.079
97.9731
93.8212
89.6304
85.4074
81.1582
76.8886
72.6048
68.3124
64.0166
59.7214
55.4306
51.1466
46.8719
42.6071
38.3521
34.1072
29.8723
25.6464
21.4279
17.2163
13.0103
8.80755
4.60546
0.401348
-3.80492
-8.01407
-12.2284
-16.4514
-20.6854
-24.931
-29.1888
-33.4621
-37.7525
-42.0618
-46.3919
-50.7451
-55.1225
-59.5299
-63.9666
-68.4354
-72.9391
-77.4844
-82.0698
-86.7005
-91.3798
-96.112
-100.895
-105.738
-110.64
-115.604
-120.633
-125.725
-130.884
-136.112
-141.404
-146.762
-152.186
-157.674
-163.223
-168.829
-174.489
-180.202
-185.957
-191.751
-197.578
-203.429
-209.306
129.131
125.468
121.756
117.965
114.096
110.158
106.16
102.106
98.0006
93.8486
89.6576
85.4345
81.1852
76.9156
72.6317
68.3393
64.0434
59.7482
55.4574
51.1735
46.8987
42.6339
38.3789
34.134
29.8991
25.6732
21.4547
17.243
13.037
8.83414
4.63199
0.427824
-3.77849
-7.98772
-12.2021
-16.4253
-20.6593
-24.9049
-29.1628
-33.4362
-37.7265
-42.0358
-46.3659
-50.719
-55.0964
-59.5036
-63.9401
-68.4087
-72.9121
-77.4571
-82.0422
-86.6724
-91.3512
-96.0829
-100.866
-105.708
-110.609
-115.572
-120.6
-125.691
-130.849
-136.076
-141.367
-146.724
-152.146
-157.632
-163.18
-168.784
-174.441
-180.152
-185.905
-191.697
-197.521
-203.37
-209.244
129.166
125.504
121.789
117.997
114.128
110.19
106.191
102.137
98.031
93.8789
89.6879
85.4647
81.2153
76.9456
72.6618
68.3694
64.0736
59.7784
55.4877
51.2037
46.929
42.6643
38.4092
34.1644
29.9295
25.7035
21.4851
17.2734
13.0673
8.8644
4.66216
0.457954
-3.74842
-7.95775
-12.1723
-16.3955
-20.6296
-24.8753
-29.1333
-33.4066
-37.697
-42.0063
-46.3363
-50.6893
-55.0666
-59.4736
-63.9099
-68.3783
-72.8814
-77.426
-82.0107
-86.6405
-91.3187
-96.0498
-100.832
-105.673
-110.573
-115.536
-120.563
-125.653
-130.809
-136.034
-141.324
-146.679
-152.1
-157.585
-163.13
-168.732
-174.387
-180.096
-185.846
-191.635
-197.457
-203.302
-209.172
129.204
125.543
121.826
118.032
114.162
110.224
106.225
102.171
98.0647
93.9126
89.7215
85.4982
81.2489
76.9792
72.6955
68.4032
64.1074
59.8124
55.5217
51.2379
46.9633
42.6986
38.4436
34.1988
29.964
25.738
21.5196
17.3079
13.1018
8.89878
4.69647
0.492203
-3.71424
-7.92367
-12.1383
-16.3617
-20.5959
-24.8416
-29.0997
-33.3731
-37.6635
-41.9727
-46.3027
-50.6556
-55.0328
-59.4396
-63.8756
-68.3437
-72.8465
-77.3907
-81.9749
-86.6041
-91.2818
-96.0121
-100.793
-105.634
-110.533
-115.495
-120.52
-125.609
-130.764
-135.988
-141.276
-146.629
-152.048
-157.53
-163.074
-168.673
-174.326
-180.032
-185.779
-191.565
-197.383
-203.224
-209.091
129.245
125.585
121.865
118.07
114.2
110.262
106.263
102.208
98.1018
93.9497
89.7586
85.5354
81.2861
77.0166
72.733
68.4409
64.1453
59.8505
55.5599
51.2763
47.0018
42.7372
38.4824
34.2377
30.003
25.777
21.5587
17.347
13.1408
8.93776
4.73537
0.531059
-3.67545
-7.885
-12.0998
-16.3233
-20.5576
-24.8034
-29.0615
-33.335
-37.6254
-41.9346
-46.2645
-50.6173
-54.9944
-59.401
-63.8368
-68.3045
-72.807
-77.3506
-81.9342
-86.5629
-91.2398
-95.9693
-100.75
-105.589
-110.487
-115.448
-120.472
-125.559
-130.713
-135.934
-141.221
-146.572
-151.988
-157.468
-163.009
-168.606
-174.256
-179.958
-185.702
-191.484
-197.298
-203.136
-208.998
129.289
125.63
121.908
118.111
114.24
110.302
106.303
102.248
98.1422
93.9902
89.7993
85.5762
81.3271
77.0578
72.7745
68.4827
64.1874
59.8928
55.6025
51.3191
47.0449
42.7805
38.5259
34.2814
30.0468
25.821
21.6028
17.3911
13.185
8.98187
4.77942
0.575066
-3.63151
-7.84119
-12.0562
-16.2798
-20.5142
-24.76
-29.0183
-33.2918
-37.5822
-41.8915
-46.2213
-50.5739
-54.9509
-59.3572
-63.7926
-68.26
-72.762
-77.3051
-81.8881
-86.516
-91.1922
-95.9206
-100.7
-105.538
-110.435
-115.394
-120.417
-125.502
-130.654
-135.874
-141.158
-146.507
-151.92
-157.398
-162.936
-168.529
-174.175
-179.874
-185.614
-191.392
-197.202
-203.034
-208.891
129.335
125.676
121.952
118.154
114.283
110.345
106.346
102.292
98.1855
94.0338
89.8432
85.6205
81.3717
77.1028
72.82
68.5286
64.2337
59.9396
55.6498
51.3668
47.0929
42.8289
38.5747
34.3305
30.0961
25.8705
21.6525
17.4409
13.2348
9.03172
4.82922
0.624843
-3.5818
-7.7916
-12.0067
-16.2305
-20.465
-24.711
-28.9694
-33.2429
-37.5334
-41.8426
-46.1723
-50.5248
-54.9016
-59.3076
-63.7426
-68.2095
-72.7111
-77.2535
-81.8358
-86.4629
-91.138
-95.8654
-100.644
-105.481
-110.376
-115.333
-120.354
-125.438
-130.587
-135.805
-141.086
-146.432
-151.843
-157.317
-162.852
-168.441
-174.084
-179.778
-185.513
-191.287
-197.091
-202.918
-208.769
129.381
125.723
121.998
118.199
114.328
110.39
106.392
102.337
98.2314
94.0802
89.8902
85.668
81.4199
77.1517
72.8695
68.5788
64.2847
59.9913
55.7021
51.4197
47.1464
42.883
38.6292
34.3855
30.1515
25.9262
21.7084
17.4971
13.291
9.08797
4.88546
0.681068
-3.52563
-7.73556
-11.9509
-16.1748
-20.4094
-24.6555
-28.914
-33.1876
-37.4781
-41.7872
-46.1169
-50.4692
-54.8457
-59.2513
-63.686
-68.1523
-72.6533
-77.1949
-81.7763
-86.4024
-91.0765
-95.8026
-100.58
-105.415
-110.308
-115.264
-120.282
-125.364
-130.511
-135.726
-141.004
-146.347
-151.754
-157.225
-162.755
-168.341
-173.979
-179.668
-185.398
-191.166
-196.964
-202.784
-208.628
129.426
125.769
122.042
118.243
114.372
110.435
106.438
102.384
98.2792
94.1289
89.9399
85.7187
81.4715
77.2043
72.9232
68.6336
64.3405
60.048
55.7598
51.4783
47.2059
42.9432
38.6901
34.447
30.2135
25.9887
21.7713
17.5602
13.3543
9.15136
4.94886
0.74449
-3.46225
-7.6723
-11.8878
-16.1119
-20.3467
-24.5928
-28.8514
-33.1251
-37.4155
-41.7246
-46.0541
-50.4061
-54.7824
-59.1876
-63.6217
-68.0874
-72.5877
-77.1284
-81.7088
-86.3338
-91.0066
-95.7311
-100.507
-105.34
-110.231
-115.185
-120.201
-125.28
-130.424
-135.635
-140.91
-146.25
-151.653
-157.119
-162.645
-168.226
-173.858
-179.542
-185.265
-191.026
-196.817
-202.63
-208.466
129.466
125.81
122.084
118.285
114.416
110.48
106.484
102.431
98.328
94.1792
89.9917
85.7719
81.5262
77.2605
72.981
68.6928
64.4012
60.1102
55.8232
51.543
47.2717
43.0101
38.7579
34.5157
30.2829
26.0587
21.8418
17.6311
13.4255
9.22268
5.02024
0.815924
-3.39083
-7.601
-11.8167
-16.041
-20.2758
-24.522
-28.7807
-33.0544
-37.3448
-41.6537
-45.983
-50.3348
-54.7107
-59.1153
-63.5488
-68.0138
-72.5133
-77.0528
-81.6321
-86.2557
-90.927
-95.6496
-100.423
-105.255
-110.144
-115.094
-120.108
-125.183
-130.324
-135.532
-140.803
-146.138
-151.537
-156.998
-162.518
-168.093
-173.719
-179.396
-185.113
-190.866
-196.649
-202.453
-208.279
129.499
125.845
122.119
118.322
114.455
110.522
106.528
102.478
98.3764
94.2298
90.0445
85.8269
81.5834
77.3199
73.0425
68.7564
64.4668
60.1777
55.8926
51.6141
47.3443
43.0842
38.8333
34.5922
30.3605
26.1371
21.9208
17.7107
13.5054
9.30281
5.10049
0.896281
-3.31045
-7.5207
-11.7366
-15.961
-20.1959
-24.4421
-28.7008
-32.9745
-37.2648
-41.5735
-45.9025
-50.2539
-54.6294
-59.0333
-63.466
-67.9301
-72.4286
-76.9668
-81.5447
-86.1666
-90.8361
-95.5566
-100.328
-105.157
-110.043
-114.991
-120.001
-125.073
-130.21
-135.413
-140.68
-146.01
-151.403
-156.858
-162.372
-167.94
-173.559
-179.228
-184.937
-190.681
-196.454
-202.248
-208.063
129.519
125.867
122.144
118.35
114.487
110.557
106.567
102.52
98.422
94.2788
90.0967
85.8823
81.6419
77.3815
73.107
68.8239
64.5371
60.2507
55.9681
51.6918
47.4242
43.166
38.9169
34.6773
30.4468
26.2245
22.0092
17.7998
13.595
9.39271
5.1906
0.986576
-3.22006
-7.43033
-11.6463
-15.8708
-20.1057
-24.3519
-28.6106
-32.8841
-37.1742
-41.4827
-45.8114
-50.1622
-54.5371
-58.9402
-63.3719
-67.8348
-72.3321
-76.8688
-81.4449
-86.0649
-90.7322
-95.4502
-100.219
-105.045
-109.928
-114.872
-119.878
-124.946
-130.078
-135.276
-140.537
-145.862
-151.249
-156.697
-162.204
-167.764
-173.375
-179.034
-184.733
-190.467
-196.228
-202.01
-207.812
129.517
125.87
122.151
118.362
114.505
110.581
106.596
102.555
98.4617
94.3232
90.1458
85.936
81.6999
77.4439
73.1734
68.8945
64.6116
60.3288
56.0496
51.7764
47.5117
43.2561
39.0092
34.7716
30.5428
26.322
22.1078
17.8994
13.6953
9.49344
5.29168
1.08795
-3.11848
-7.32868
-11.5446
-15.7691
-20.0039
-24.25
-28.5086
-32.782
-37.0718
-41.3798
-45.7079
-50.0581
-54.4322
-58.8342
-63.2647
-67.7262
-72.2219
-76.7567
-81.3307
-85.9484
-90.6131
-95.3281
-100.094
-104.916
-109.795
-114.735
-119.736
-124.799
-129.926
-135.118
-140.373
-145.691
-151.07
-156.511
-162.009
-167.56
-173.16
-178.809
-184.496
-190.218
-195.966
-201.733
-207.52
129.483
125.843
122.132
118.351
114.502
110.587
106.61
102.576
98.4905
94.359
90.1883
85.9849
81.7551
77.505
73.2404
68.967
64.6894
60.4115
56.1369
51.8678
47.6069
43.3548
39.1109
34.8758
30.6493
26.4303
22.2177
18.0105
13.8073
9.60617
5.40495
1.20169
-3.0044
-7.21439
-11.4303
-15.6546
-19.8892
-24.135
-28.3933
-32.6663
-36.9556
-41.263
-45.5904
-49.9396
-54.3127
-58.7133
-63.1423
-67.602
-72.0958
-76.6282
-81.1997
-85.8145
-90.4761
-95.1874
-99.9493
-104.767
-109.642
-114.577
-119.573
-124.63
-129.75
-134.936
-140.183
-145.493
-150.864
-156.295
-161.783
-167.323
-172.912
-178.548
-184.221
-189.928
-195.661
-201.411
-207.18
129.402
125.774
122.074
118.305
114.468
110.565
106.599
102.577
98.502
94.3806
90.2194
86.025
81.8039
77.5622
73.3057
69.0398
64.7693
60.4981
56.2295
51.966
47.71
43.4624
39.2224
34.9908
30.7671
26.5505
22.3399
18.1343
13.9324
9.7322
5.53174
1.32917
-2.87635
-7.08593
-11.3015
-15.5255
-19.7596
-24.005
-28.2628
-32.5351
-36.8237
-41.1302
-45.4565
-49.8045
-54.1761
-58.575
-63.002
-67.4596
-71.9509
-76.4804
-81.0488
-85.6602
-90.318
-95.0251
-99.7824
-104.595
-109.465
-114.394
-119.383
-124.433
-129.546
-134.724
-139.962
-145.263
-150.623
-156.044
-161.52
-167.047
-172.623
-178.244
-183.902
-189.592
-195.305
-201.036
-206.783
129.252
125.642
121.96
118.209
114.389
110.503
106.554
102.547
98.4875
94.3806
90.2329
86.0512
81.8422
77.612
73.3663
69.1107
64.8497
60.5873
56.3267
52.0704
47.821
43.5793
39.3442
35.1169
30.8969
26.6834
22.4754
18.2719
14.0717
9.87287
5.67355
1.472
-2.73266
-6.94153
-11.1565
-15.3798
-19.6132
-23.8578
-28.1147
-32.3861
-36.6736
-40.9789
-45.3037
-49.65
-54.0198
-58.4165
-62.841
-67.2958
-71.7841
-76.3101
-80.8748
-85.482
-90.1352
-94.8372
-99.5892
-104.396
-109.259
-114.181
-119.163
-124.205
-129.31
-134.477
-139.706
-144.995
-150.344
-155.752
-161.214
-166.727
-172.286
-177.89
-183.529
-189.199
-194.891
-200.599
-206.321
129.008
125.425
121.768
118.043
114.248
110.386
106.46
102.475
98.4361
94.3493
90.2207
86.0567
81.8641
77.6495
73.4185
69.1765
64.9282
60.6774
56.4274
52.1804
47.9394
43.7053
39.4766
35.2547
31.0395
26.8299
22.6253
18.4246
14.2266
10.0297
5.83196
1.63189
-2.57146
-6.77919
-10.9931
-15.2154
-19.4476
-23.691
-27.9467
-32.2166
-36.5025
-40.8061
-45.129
-49.473
-53.8404
-58.2342
-62.6556
-67.107
-71.5916
-76.1133
-80.6734
-85.2756
-89.9234
-94.6193
-99.365
-104.165
-109.021
-113.934
-118.908
-123.94
-129.035
-134.192
-139.408
-144.685
-150.02
-155.413
-160.859
-166.354
-171.896
-177.48
-183.098
-188.745
-194.413
-200.095
-205.789
128.635
125.091
121.471
117.783
114.022
110.193
106.299
102.345
98.3345
94.2749
90.1723
86.0327
81.8628
77.669
73.4575
69.2336
65.0018
60.7662
56.5297
52.2946
48.0645
43.84
39.6194
35.4046
31.1953
26.9908
22.7905
18.5934
14.3985
10.2041
6.00872
1.81075
-2.3907
-6.59673
-10.809
-15.0297
-19.2603
-23.5018
-27.7557
-32.0237
-36.3074
-40.6086
-44.9289
-49.2701
-53.6343
-58.0246
-62.4421
-66.8892
-71.3692
-75.8858
-80.4403
-85.0365
-89.6778
-94.3665
-99.1047
-103.897
-108.743
-113.648
-118.611
-123.633
-128.716
-133.86
-139.064
-144.326
-149.646
-155.022
-160.45
-165.926
-171.447
-177.008
-182.602
-188.224
-193.865
-199.518
-205.181
128.099
124.605
121.036
117.399
113.686
109.901
106.051
102.137
98.1658
94.143
90.075
85.9682
81.8287
77.663
73.4769
69.2765
65.0663
60.8501
56.6311
52.4111
48.1947
43.9827
39.7721
35.5661
31.3644
27.1664
22.9717
18.7793
14.5884
10.3975
6.20525
2.01016
-2.18864
-6.39224
-10.6023
-14.8206
-19.0487
-23.2878
-27.5391
-31.8043
-36.0851
-40.383
-44.6998
-49.0372
-53.3974
-57.783
-62.1955
-66.6373
-71.1117
-75.622
-80.17
-84.7592
-89.3931
-94.074
-98.8038
-103.587
-108.424
-113.318
-118.27
-123.28
-128.35
-133.481
-138.669
-143.915
-149.217
-154.574
-159.982
-165.436
-170.934
-176.47
-182.038
-187.632
-193.242
-198.863
-204.493
127.357
123.928
120.424
116.854
113.205
109.482
105.687
101.828
97.9086
93.9345
89.9123
85.8483
81.7489
77.62
73.4675
69.2974
65.1147
60.9233
56.7265
52.5268
48.327
44.1298
39.9326
35.7377
31.5457
27.3561
23.1685
18.9823
14.7967
10.6106
6.42258
2.23147
-1.96363
-6.16376
-10.3705
-14.5854
-18.8101
-23.0456
-27.2933
-31.5548
-35.8316
-40.1253
-44.4376
-48.7702
-53.1254
-57.5056
-61.9123
-66.3481
-70.816
-75.3194
-79.86
-84.4414
-89.0669
-93.7387
-98.4591
-103.232
-108.058
-112.941
-117.88
-122.877
-127.933
-133.047
-138.219
-143.447
-148.73
-154.065
-159.451
-164.881