/*--------------------------------*- C++ -*----------------------------------*\
| =========                 |                                                 |
| \\      /  F ield         | OpenFOAM: The Open Source CFD Toolbox           |
|  \\    /   O peration     | Version:  2412                                  |
|   \\  /    A nd           | Website:  www.openfoam.com                      |
|    \\/     M anipulation  |                                                 |
\*---------------------------------------------------------------------------*/
FoamFile
{
    version     2.0;
    format      ascii;
    arch        "LSB;label=32;scalar=64";
    class       volScalarField;
    location    "380";
    object      nut;
}
// * * * * * * * * * * * * * * * * * * * * * * * * * * * * * * * * * * * * * //

dimensions      [0 2 -1 0 0 0 0];

internalField   nonuniform List<scalar> 
8659
(
1.40476e-12
7.30267e-13
2.3232e-13
2.63752e-14
4.16451e-13
4.06983e-12
2.0872e-11
6.11318e-11
1.06836e-10
1.33192e-10
1.24126e-10
9.48382e-11
6.59613e-11
4.59029e-11
3.37854e-11
2.65479e-11
2.18606e-11
1.86724e-11
1.6367e-11
1.45777e-11
1.31325e-11
1.19344e-11
1.09188e-11
1.00445e-11
9.28166e-12
8.61112e-12
8.0166e-12
7.48533e-12
7.00875e-12
6.5777e-12
6.18804e-12
5.83398e-12
5.51014e-12
5.21443e-12
4.94304e-12
4.69441e-12
4.46632e-12
4.25693e-12
4.06558e-12
3.88959e-12
3.72748e-12
3.57841e-12
3.44151e-12
3.31676e-12
3.20376e-12
3.10217e-12
3.01115e-12
2.93036e-12
2.86014e-12
2.80052e-12
2.75146e-12
2.71263e-12
2.68336e-12
2.66337e-12
2.65174e-12
2.64674e-12
2.64734e-12
2.65252e-12
2.66142e-12
2.67331e-12
2.68757e-12
2.70348e-12
2.72059e-12
2.73848e-12
2.75703e-12
2.77607e-12
2.79489e-12
2.81282e-12
2.82975e-12
2.84565e-12
2.86039e-12
2.87449e-12
2.88778e-12
2.90045e-12
2.9128e-12
2.9246e-12
2.93614e-12
2.94769e-12
2.95932e-12
2.97135e-12
2.98354e-12
2.99538e-12
3.00666e-12
3.01733e-12
3.02735e-12
3.03668e-12
1.2304e-10
6.31804e-11
1.99946e-11
2.31992e-12
3.90926e-11
3.5721e-10
1.7351e-09
5.04262e-09
9.02172e-09
1.17528e-08
1.1565e-08
9.19733e-09
6.54058e-09
4.58219e-09
3.37135e-09
2.64321e-09
2.17219e-09
1.85174e-09
1.62036e-09
1.44139e-09
1.29719e-09
1.17791e-09
1.07697e-09
9.90184e-10
9.14536e-10
8.48049e-10
7.89081e-10
7.36339e-10
6.88988e-10
6.46129e-10
6.07272e-10
5.71881e-10
5.39448e-10
5.09753e-10
4.82448e-10
4.57345e-10
4.34252e-10
4.13007e-10
3.93515e-10
3.75544e-10
3.58955e-10
3.43665e-10
3.29598e-10
3.16716e-10
3.04987e-10
2.94373e-10
2.84801e-10
2.76234e-10
2.68708e-10
2.62238e-10
2.56822e-10
2.52433e-10
2.49024e-10
2.4656e-10
2.44952e-10
2.44056e-10
2.4376e-10
2.43967e-10
2.44597e-10
2.45567e-10
2.46816e-10
2.48261e-10
2.49849e-10
2.51538e-10
2.53318e-10
2.55152e-10
2.56966e-10
2.58716e-10
2.60367e-10
2.6192e-10
2.63374e-10
2.64749e-10
2.66057e-10
2.67307e-10
2.68513e-10
2.69673e-10
2.70804e-10
2.7193e-10
2.73068e-10
2.74242e-10
2.75427e-10
2.76586e-10
2.77688e-10
2.78724e-10
2.79704e-10
2.80613e-10
1.03588e-09
5.23636e-10
1.65349e-10
2.02756e-11
3.61508e-10
3.00136e-09
1.35106e-08
3.90136e-08
7.20502e-08
1.0015e-07
1.06177e-07
8.99716e-08
6.62763e-08
4.70382e-08
3.46813e-08
2.71521e-08
2.2276e-08
1.89531e-08
1.6555e-08
1.47069e-08
1.32221e-08
1.19964e-08
1.09615e-08
1.00724e-08
9.29802e-09
8.61733e-09
8.01328e-09
7.47224e-09
6.98553e-09
6.54413e-09
6.14273e-09
5.7758e-09
5.43852e-09
5.12842e-09
4.84217e-09
4.57794e-09
4.33376e-09
4.10817e-09
3.90015e-09
3.70755e-09
3.5292e-09
3.36406e-09
3.21147e-09
3.07096e-09
2.94221e-09
2.82483e-09
2.71824e-09
2.62216e-09
2.53693e-09
2.46272e-09
2.3996e-09
2.34733e-09
2.30552e-09
2.27379e-09
2.25129e-09
2.23668e-09
2.22885e-09
2.22682e-09
2.22977e-09
2.23679e-09
2.24716e-09
2.26004e-09
2.27474e-09
2.29078e-09
2.30797e-09
2.3259e-09
2.34375e-09
2.36104e-09
2.3775e-09
2.39304e-09
2.40765e-09
2.42143e-09
2.43455e-09
2.44712e-09
2.45919e-09
2.47085e-09
2.4822e-09
2.49345e-09
2.50485e-09
2.51656e-09
2.52835e-09
2.53987e-09
2.55083e-09
2.56116e-09
2.5709e-09
2.57995e-09
4.18223e-09
2.07419e-09
6.52594e-10
8.70922e-11
1.64845e-09
1.22488e-08
5.05298e-08
1.43939e-07
2.7366e-07
4.09071e-07
4.76706e-07
4.38668e-07
3.38423e-07
2.44729e-07
1.8129e-07
1.41874e-07
1.16252e-07
9.87384e-08
8.60995e-08
7.63937e-08
6.86212e-08
6.22197e-08
5.68243e-08
5.21957e-08
4.81657e-08
4.4621e-08
4.14729e-08
3.86486e-08
3.61014e-08
3.37846e-08
3.16691e-08
2.97277e-08
2.79353e-08
2.62791e-08
2.47425e-08
2.33164e-08
2.19918e-08
2.07612e-08
1.96195e-08
1.85574e-08
1.75694e-08
1.66504e-08
1.57971e-08
1.50072e-08
1.4279e-08
1.36106e-08
1.29998e-08
1.24458e-08
1.19503e-08
1.15142e-08
1.11379e-08
1.08206e-08
1.05603e-08
1.03548e-08
1.02002e-08
1.00901e-08
1.0019e-08
9.98189e-09
9.9743e-09
9.99133e-09
1.00289e-08
1.00824e-08
1.01479e-08
1.02224e-08
1.03042e-08
1.03912e-08
1.04787e-08
1.05642e-08
1.06462e-08
1.07243e-08
1.0798e-08
1.08675e-08
1.09337e-08
1.09972e-08
1.10581e-08
1.1117e-08
1.11742e-08
1.12307e-08
1.12879e-08
1.13465e-08
1.14054e-08
1.14628e-08
1.15174e-08
1.15689e-08
1.16175e-08
1.16627e-08
1.15716e-08
5.61609e-09
1.75788e-09
2.69151e-10
5.26232e-09
3.47015e-08
1.30048e-07
3.62651e-07
7.04638e-07
1.13197e-06
1.46597e-06
1.49336e-06
1.22377e-06
9.08633e-07
6.78855e-07
5.31994e-07
4.3579e-07
3.69702e-07
3.21961e-07
2.85415e-07
2.56234e-07
2.32255e-07
2.12082e-07
1.94797e-07
1.79754e-07
1.66514e-07
1.54741e-07
1.44162e-07
1.34593e-07
1.25863e-07
1.17856e-07
1.10473e-07
1.03621e-07
9.72538e-08
9.13139e-08
8.5767e-08
8.0583e-08
7.57371e-08
7.1212e-08
6.6979e-08
6.30221e-08
5.93244e-08
5.58752e-08
5.2667e-08
4.9694e-08
4.69514e-08
4.44332e-08
4.21387e-08
4.0074e-08
3.82423e-08
3.66448e-08
3.52783e-08
3.41352e-08
3.32072e-08
3.24793e-08
3.19301e-08
3.15401e-08
3.12906e-08
3.11646e-08
3.11434e-08
3.12106e-08
3.13488e-08
3.15418e-08
3.17771e-08
3.20463e-08
3.23395e-08
3.26405e-08
3.29377e-08
3.32261e-08
3.35028e-08
3.37652e-08
3.40139e-08
3.42507e-08
3.44779e-08
3.46957e-08
3.49058e-08
3.51101e-08
3.53115e-08
3.55148e-08
3.57219e-08
3.59294e-08
3.61317e-08
3.63241e-08
3.65058e-08
3.66773e-08
3.68369e-08
2.5231e-08
1.19582e-08
3.72203e-09
7.42759e-10
1.34437e-08
7.82966e-08
2.64332e-07
7.16638e-07
1.41185e-06
2.42581e-06
3.48391e-06
3.97949e-06
3.53931e-06
2.7347e-06
2.07319e-06
1.63135e-06
1.33772e-06
1.13444e-06
9.87229e-07
8.74797e-07
7.85256e-07
7.1182e-07
6.50156e-07
5.97379e-07
5.51472e-07
5.11052e-07
4.75069e-07
4.42681e-07
4.13304e-07
3.86415e-07
3.61649e-07
3.38696e-07
3.17283e-07
2.97256e-07
2.78459e-07
2.6079e-07
2.44162e-07
2.28512e-07
2.13795e-07
1.99945e-07
1.86931e-07
1.74711e-07
1.6326e-07
1.52566e-07
1.42616e-07
1.33401e-07
1.24918e-07
1.17167e-07
1.10167e-07
1.03925e-07
9.8441e-08
9.37025e-08
8.96838e-08
8.63541e-08
8.36667e-08
8.15606e-08
7.99772e-08
7.88606e-08
7.81576e-08
7.78099e-08
7.77662e-08
7.79724e-08
7.83778e-08
7.89403e-08
7.96283e-08
8.04071e-08
8.12276e-08
8.20534e-08
8.28657e-08
8.36536e-08
8.44062e-08
8.51225e-08
8.58056e-08
8.64611e-08
8.70893e-08
8.7695e-08
8.8283e-08
8.88616e-08
8.94429e-08
9.00326e-08
9.06215e-08
9.11951e-08
9.17416e-08
9.22574e-08
9.27439e-08
9.31983e-08
4.64278e-08
2.14527e-08
6.6503e-09
2.05452e-09
2.93033e-08
1.50258e-07
4.53024e-07
1.18725e-06
2.35387e-06
4.30718e-06
6.78786e-06
8.63147e-06
8.49435e-06
7.01885e-06
5.47791e-06
4.35286e-06
3.58137e-06
3.03956e-06
2.645e-06
2.34389e-06
2.10451e-06
1.90853e-06
1.74424e-06
1.6038e-06
1.48173e-06
1.37423e-06
1.27846e-06
1.19215e-06
1.11367e-06
1.04162e-06
9.74994e-07
9.12942e-07
8.54757e-07
7.9999e-07
7.48246e-07
6.99258e-07
6.52825e-07
6.08794e-07
5.6708e-07
5.27571e-07
4.90226e-07
4.54988e-07
4.21823e-07
3.90731e-07
3.61712e-07
3.34777e-07
3.09943e-07
2.87235e-07
2.66692e-07
2.48324e-07
2.32116e-07
2.18017e-07
2.05946e-07
1.95801e-07
1.87447e-07
1.80727e-07
1.75486e-07
1.7157e-07
1.68837e-07
1.67129e-07
1.6631e-07
1.66236e-07
1.6677e-07
1.67795e-07
1.69215e-07
1.70928e-07
1.72805e-07
1.74746e-07
1.76691e-07
1.78606e-07
1.80454e-07
1.82222e-07
1.83914e-07
1.85538e-07
1.87095e-07
1.88594e-07
1.90046e-07
1.91471e-07
1.92896e-07
1.94336e-07
1.95768e-07
1.97162e-07
1.9849e-07
1.99746e-07
2.0093e-07
2.02039e-07
7.48687e-08
3.36984e-08
1.04542e-08
5.59926e-09
5.64116e-08
2.5402e-07
6.77818e-07
1.7097e-06
3.38559e-06
6.5931e-06
1.12888e-05
1.56664e-05
1.69303e-05
1.53018e-05
1.26652e-05
1.03421e-05
8.60856e-06
7.34217e-06
6.40286e-06
5.68134e-06
5.10648e-06
4.63543e-06
4.24064e-06
3.90329e-06
3.61013e-06
3.35188e-06
3.12166e-06
2.91395e-06
2.72472e-06
2.55059e-06
2.38896e-06
2.23778e-06
2.09532e-06
1.96043e-06
1.83216e-06
1.70988e-06
1.59312e-06
1.48158e-06
1.37511e-06
1.2736e-06
1.1771e-06
1.08558e-06
9.99101e-07
9.1777e-07
8.41687e-07
7.70971e-07
7.05754e-07
6.46138e-07
5.92191e-07
5.439e-07
5.01181e-07
4.63864e-07
4.31701e-07
4.04396e-07
3.81593e-07
3.62904e-07
3.47947e-07
3.36346e-07
3.27742e-07
3.21764e-07
3.18074e-07
3.16337e-07
3.1623e-07
3.17462e-07
3.19786e-07
3.22944e-07
3.2663e-07
3.30596e-07
3.34682e-07
3.38783e-07
3.42795e-07
3.46668e-07
3.50388e-07
3.53965e-07
3.57396e-07
3.60697e-07
3.63885e-07
3.67003e-07
3.70107e-07
3.73224e-07
3.76316e-07
3.79319e-07
3.82184e-07
3.84895e-07
3.87456e-07
3.8986e-07
1.08174e-07
4.74582e-08
1.48827e-08
1.37522e-08
9.78408e-08
3.85784e-07
9.02855e-07
2.18541e-06
4.2823e-06
8.92143e-06
1.6536e-05
2.4636e-05
2.86469e-05
2.80696e-05
2.49791e-05
2.14455e-05
1.83966e-05
1.59687e-05
1.40729e-05
1.25726e-05
1.13549e-05
1.03445e-05
9.4905e-06
8.75631e-06
8.11535e-06
7.54843e-06
7.0413e-06
6.58239e-06
6.16292e-06
5.77561e-06
5.41467e-06
5.07557e-06
4.7545e-06
4.44876e-06
4.15634e-06
3.87576e-06
3.60612e-06
3.34684e-06
3.09771e-06
2.85885e-06
2.63064e-06
2.41339e-06
2.20746e-06
2.01337e-06
1.83154e-06
1.66243e-06
1.50649e-06
1.36401e-06
1.23508e-06
1.11956e-06
1.01718e-06
9.27425e-07
8.49663e-07
7.83129e-07
7.26969e-07
6.80296e-07
6.42233e-07
6.11918e-07
5.88529e-07
5.7124e-07
5.59296e-07
5.51973e-07
5.48575e-07
5.48459e-07
5.51058e-07
5.55789e-07
5.61991e-07
5.69103e-07
5.76737e-07
5.84611e-07
5.92464e-07
6.00139e-07
6.07562e-07
6.14721e-07
6.21595e-07
6.282e-07
6.34565e-07
6.40763e-07
6.46901e-07
6.53028e-07
6.59082e-07
6.64955e-07
6.70559e-07
6.7587e-07
6.80894e-07
6.85628e-07
1.41953e-07
6.0904e-08
1.96999e-08
2.98586e-08
1.54717e-07
5.32063e-07
1.08804e-06
2.51071e-06
4.79421e-06
1.08329e-05
2.18459e-05
3.46553e-05
4.26531e-05
4.44788e-05
4.21134e-05
3.80939e-05
3.39987e-05
3.03859e-05
2.73594e-05
2.48404e-05
2.27165e-05
2.09006e-05
1.93281e-05
1.79491e-05
1.67248e-05
1.5626e-05
1.46304e-05
1.37197e-05
1.28789e-05
1.20958e-05
1.13599e-05
1.06632e-05
9.99885e-06
9.3618e-06
8.7485e-06
8.1564e-06
7.58402e-06
7.0306e-06
6.49608e-06
5.9815e-06
5.48818e-06
5.01729e-06
4.56999e-06
4.14772e-06
3.75162e-06
3.38284e-06
3.04248e-06
2.73121e-06
2.4491e-06
2.19578e-06
1.97049e-06
1.77214e-06
1.59929e-06
1.45031e-06
1.32337e-06
1.21664e-06
1.12831e-06
1.05655e-06
9.99613e-07
9.5578e-07
9.23483e-07
9.01247e-07
8.87675e-07
8.81461e-07
8.81422e-07
8.86355e-07
8.94944e-07
9.06028e-07
9.18732e-07
9.32391e-07
9.46392e-07
9.60323e-07
9.73941e-07
9.87151e-07
9.99864e-07
1.01207e-06
1.0238e-06
1.03518e-06
1.04637e-06
1.05747e-06
1.06839e-06
1.07897e-06
1.08907e-06
1.09866e-06
1.10774e-06
1.11634e-06
1.70689e-07
7.21961e-08
2.52206e-08
5.76981e-08
2.2471e-07
6.69921e-07
1.19976e-06
2.61225e-06
4.71539e-06
1.18789e-05
2.64554e-05
4.46919e-05
5.76691e-05
6.30496e-05
6.2584e-05
5.90845e-05
5.46608e-05
5.03141e-05
4.6408e-05
4.29827e-05
3.9971e-05
3.73031e-05
3.49203e-05
3.27716e-05
3.08153e-05
2.90177e-05
2.73536e-05
2.58014e-05
2.43428e-05
2.29623e-05
2.1646e-05
2.03834e-05
1.91659e-05
1.79865e-05
1.68408e-05
1.57261e-05
1.46412e-05
1.35856e-05
1.25604e-05
1.15687e-05
1.06139e-05
9.69891e-06
8.8266e-06
8.00001e-06
7.22169e-06
6.49409e-06
5.81971e-06
5.20017e-06
4.63583e-06
4.12617e-06
3.66996e-06
3.2654e-06
2.91006e-06
2.60104e-06
2.3351e-06
2.10898e-06
1.91934e-06
1.76273e-06
1.63578e-06
1.53518e-06
1.45786e-06
1.401e-06
1.36195e-06
1.3382e-06
1.32748e-06
1.32748e-06
1.33576e-06
1.35008e-06
1.36863e-06
1.38997e-06
1.41278e-06
1.43609e-06
1.45926e-06
1.48194e-06
1.50388e-06
1.52496e-06
1.54517e-06
1.56466e-06
1.58371e-06
1.60248e-06
1.62086e-06
1.63862e-06
1.65559e-06
1.67171e-06
1.68704e-06
1.70159e-06
1.89356e-07
8.02554e-08
3.70363e-08
1.00209e-07
3.01277e-07
7.75349e-07
1.22065e-06
2.47518e-06
3.96067e-06
1.1749e-05
2.96339e-05
5.37456e-05
7.24797e-05
8.23106e-05
8.46698e-05
8.25804e-05
7.86032e-05
7.41487e-05
6.98466e-05
6.58784e-05
6.2247e-05
5.89184e-05
5.58535e-05
5.30108e-05
5.0353e-05
4.78486e-05
4.54744e-05
4.32104e-05
4.10391e-05
3.89459e-05
3.69165e-05
3.49404e-05
3.30098e-05
3.11178e-05
2.92611e-05
2.74379e-05
2.56484e-05
2.38938e-05
2.21764e-05
2.05027e-05
1.88793e-05
1.73123e-05
1.58068e-05
1.43688e-05
1.30033e-05
1.17154e-05
1.05106e-05
9.39325e-06
8.36528e-06
7.42722e-06
6.57845e-06
5.81729e-06
5.14101e-06
4.54581e-06
4.02724e-06
3.58062e-06
3.20084e-06
2.88233e-06
2.61937e-06
2.40619e-06
2.2373e-06
2.10763e-06
2.0124e-06
1.9471e-06
1.90757e-06
1.88965e-06
1.88907e-06
1.90179e-06
1.92435e-06
1.95384e-06
1.9876e-06
2.02356e-06
2.06025e-06
2.09674e-06
2.13234e-06
2.16664e-06
2.19947e-06
2.23099e-06
2.26158e-06
2.2915e-06
2.32062e-06
2.3487e-06
2.37551e-06
2.40103e-06
2.42535e-06
2.44855e-06
1.95296e-07
8.5468e-08
6.21588e-08
1.57699e-07
3.74511e-07
8.30783e-07
1.15562e-06
2.14959e-06
2.83113e-06
1.04068e-05
3.07585e-05
6.09062e-05
8.60591e-05
0.000101091
0.00010699
0.000106983
0.000104071
0.000100057
9.58326e-05
9.17251e-05
8.78174e-05
8.41202e-05
8.06192e-05
7.72873e-05
7.40951e-05
7.10162e-05
6.80318e-05
6.51267e-05
6.22869e-05
5.95012e-05
5.6758e-05
5.40489e-05
5.13692e-05
4.87135e-05
4.60808e-05
4.3471e-05
4.08862e-05
3.83292e-05
3.58038e-05
3.33194e-05
3.08863e-05
2.85135e-05
2.62096e-05
2.39837e-05
2.18442e-05
1.98003e-05
1.78626e-05
1.60402e-05
1.43395e-05
1.27645e-05
1.13177e-05
1e-05
8.8109e-06
7.74777e-06
6.80673e-06
5.98326e-06
5.27166e-06
4.66477e-06
4.15458e-06
3.73246e-06
3.38979e-06
3.11823e-06
2.90983e-06
2.75692e-06
2.65227e-06
2.58881e-06
2.55935e-06
2.55701e-06
2.57559e-06
2.60963e-06
2.65411e-06
2.7049e-06
2.75891e-06
2.81402e-06
2.8686e-06
2.92155e-06
2.97229e-06
3.02081e-06
3.06754e-06
3.11286e-06
3.15672e-06
3.19886e-06
3.23908e-06
3.27741e-06
3.31401e-06
3.34907e-06
1.89581e-07
9.10221e-08
1.05894e-07
2.26328e-07
4.33914e-07
8.31568e-07
1.02985e-06
1.7281e-06
1.84754e-06
8.12571e-06
2.93859e-05
6.53402e-05
9.75393e-05
0.000118518
0.000128602
0.000131224
0.000129849
0.000126687
0.000122901
0.000118976
0.000115084
0.000111284
0.000107592
0.000103996
0.000100477
9.70129e-05
9.35903e-05
9.01992e-05
8.68301e-05
8.34763e-05
8.01294e-05
7.67841e-05
7.34394e-05
7.0092e-05
6.67431e-05
6.33942e-05
6.00486e-05
5.67098e-05
5.33821e-05
5.00764e-05
4.68051e-05
4.35796e-05
4.04103e-05
3.73091e-05
3.42872e-05
3.13578e-05
2.8537e-05
2.58407e-05
2.32812e-05
2.08688e-05
1.86119e-05
1.65177e-05
1.45913e-05
1.28354e-05
1.12505e-05
9.8362e-06
8.58986e-06
7.5058e-06
6.57597e-06
5.79039e-06
5.13794e-06
4.60703e-06
4.18592e-06
3.86272e-06
3.62577e-06
3.46356e-06
3.36456e-06
3.31752e-06
3.31195e-06
3.33823e-06
3.38732e-06
3.45151e-06
3.52478e-06
3.60273e-06
3.68194e-06
3.75986e-06
3.83491e-06
3.90655e-06
3.97505e-06
4.04091e-06
4.1042e-06
4.16476e-06
4.22246e-06
4.27746e-06
4.33006e-06
4.38064e-06
1.77324e-07
1.14871e-07
1.65151e-07
2.98077e-07
4.72217e-07
7.87859e-07
8.79289e-07
1.30801e-06
1.15405e-06
5.43578e-06
2.53917e-05
6.62665e-05
0.000106122
0.000133883
0.000148855
0.000154653
0.000155239
0.000153263
0.000150189
0.000146684
0.000143023
0.000139323
0.000135633
0.000131959
0.000128294
0.000124623
0.000120935
0.000117228
0.000113494
0.000109732
0.000105937
0.000102107
9.82436e-05
9.43465e-05
9.04178e-05
8.64602e-05
8.24771e-05
7.8472e-05
7.44478e-05
7.0415e-05
6.63862e-05
6.23725e-05
5.83844e-05
5.44339e-05
5.0533e-05
4.66965e-05
4.29441e-05
3.92971e-05
3.57737e-05
3.23905e-05
2.91632e-05
2.61067e-05
2.32351e-05
2.05598e-05
1.80904e-05
1.5836e-05
1.38029e-05
1.19929e-05
1.04035e-05
9.02856e-06
7.85851e-06
6.88151e-06
6.08385e-06
5.44992e-06
4.96312e-06
4.60624e-06
4.36167e-06
4.21187e-06
4.13985e-06
4.12946e-06
4.16522e-06
4.23327e-06
4.32257e-06
4.42475e-06
4.53318e-06
4.64262e-06
4.74937e-06
4.85152e-06
4.94869e-06
5.04128e-06
5.12953e-06
5.2135e-06
5.29328e-06
5.36927e-06
5.44194e-06
5.51202e-06
1.6944e-07
1.6697e-07
2.34277e-07
3.6304e-07
4.8841e-07
7.2033e-07
7.38339e-07
9.61543e-07
8.01051e-07
3.11573e-06
1.92721e-05
6.29805e-05
0.000110999
0.000146518
0.000167203
0.000176817
0.000179833
0.000179381
0.000177273
0.000174391
0.000171133
0.000167691
0.000164151
0.000160546
0.000156879
0.000153145
0.000149339
0.000145461
0.00014151
0.000137488
0.000133395
0.00012923
0.000125
0.000120704
0.000116348
0.000111935
0.000107467
0.000102948
9.83783e-05
9.37671e-05
8.91248e-05
8.44608e-05
7.97834e-05
7.5102e-05
7.04263e-05
6.57695e-05
6.11508e-05
5.6593e-05
5.2117e-05
4.77427e-05
4.34902e-05
3.93808e-05
3.54364e-05
3.16777e-05
2.81254e-05
2.48012e-05
2.17255e-05
1.89142e-05
1.63783e-05
1.41239e-05
1.21516e-05
1.04573e-05
9.03256e-06
7.86334e-06
6.93132e-06
6.21478e-06
5.68976e-06
5.33061e-06
5.11125e-06
5.0057e-06
4.98833e-06
5.03493e-06
5.12605e-06
5.24675e-06
5.38506e-06
5.5311e-06
5.67726e-06
5.81866e-06
5.95307e-06
6.08012e-06
6.20009e-06
6.3134e-06
6.42056e-06
6.52236e-06
6.61957e-06
6.71342e-06
1.93781e-07
2.33795e-07
3.03846e-07
4.13437e-07
4.88244e-07
6.51944e-07
6.32742e-07
7.25261e-07
6.42904e-07
1.63628e-06
1.24151e-05
5.49929e-05
0.000111311
0.000155695
0.000183066
0.000197282
0.000203307
0.000204787
0.000203934
0.00020189
0.00019921
0.000196173
0.000192918
0.000189508
0.000185965
0.000182292
0.000178491
0.000174567
0.000170523
0.000166366
0.0001621
0.000157727
0.000153258
0.000148694
0.000144043
0.000139308
0.000134494
0.000129603
0.000124633
0.000119593
0.00011449
0.000109332
0.000104123
9.88697e-05
9.3577e-05
8.82537e-05
8.29153e-05
7.75818e-05
7.22719e-05
6.70039e-05
6.17973e-05
5.66741e-05
5.16587e-05
4.67766e-05
4.20553e-05
3.75272e-05
3.32259e-05
2.91838e-05
2.543e-05
2.19902e-05
1.88851e-05
1.61306e-05
1.37362e-05
1.17029e-05
1.00221e-05
8.67653e-06
7.64128e-06
6.88487e-06
6.37084e-06
6.05991e-06
5.91084e-06
5.88187e-06
5.93953e-06
6.0582e-06
6.21749e-06
6.40005e-06
6.59172e-06
6.78198e-06
6.96436e-06
7.13604e-06
7.29661e-06
7.44682e-06
7.58787e-06
7.72121e-06
7.84807e-06
7.97045e-06
2.56096e-07
3.04422e-07
3.64226e-07
4.47291e-07
4.82187e-07
6.03198e-07
5.95077e-07
6.49168e-07
6.09595e-07
1.01311e-06
6.68428e-06
4.23037e-05
0.000106222
0.000160577
0.000195743
0.000215517
0.000225279
0.000229213
0.000229983
0.000229046
0.00022715
0.000224687
0.000221865
0.000218784
0.00021549
0.000212
0.000208322
0.000204468
0.000200445
0.000196265
0.000191936
0.000187465
0.000182863
0.000178139
0.0001733
0.000168351
0.000163299
0.000158147
0.000152894
0.000147545
0.000142109
0.000136589
0.000130989
0.000125311
0.000119557
0.000113732
0.000107843
0.000101908
9.59393e-05
8.995e-05
8.39542e-05
7.79687e-05
7.20134e-05
6.61108e-05
6.02871e-05
5.45758e-05
4.90163e-05
4.365e-05
3.85198e-05
3.36698e-05
2.91434e-05
2.49837e-05
2.12313e-05
1.79193e-05
1.50698e-05
1.26911e-05
1.07769e-05
9.30471e-06
8.23581e-06
7.51856e-06
7.09028e-06
6.88006e-06
6.83037e-06
6.89807e-06
7.04958e-06
7.25603e-06
7.49284e-06
7.74024e-06
7.98352e-06
8.21375e-06
8.42756e-06
8.6253e-06
8.80909e-06
8.98148e-06
9.14445e-06
9.3011e-06
9.40935e-06
3.25465e-07
3.68553e-07
4.10059e-07
4.69545e-07
4.8355e-07
5.97718e-07
6.46909e-07
6.96098e-07
6.6974e-07
8.02224e-07
3.11272e-06
2.71222e-05
9.51862e-05
0.000160207
0.000204355
0.000230827
0.000245231
0.000252282
0.000255154
0.000255672
0.000254825
0.00025315
0.00025094
0.000248348
0.000245448
0.000242277
0.000238853
0.000235194
0.000231313
0.000227226
0.000222945
0.000218481
0.000213849
0.000209061
0.000204128
0.000199057
0.000193856
0.000188531
0.000183083
0.000177516
0.000171837
0.000166053
0.000160165
0.000154174
0.00014808
0.000141882
0.000135588
0.000129207
0.000122747
0.000116218
0.000109624
0.000102976
9.6284e-05
8.95624e-05
8.2828e-05
7.61058e-05
6.94285e-05
6.28338e-05
5.63641e-05
5.0068e-05
4.40002e-05
3.82224e-05
3.28037e-05
2.7816e-05
2.33282e-05
1.94012e-05
1.60825e-05
1.33956e-05
1.13329e-05
9.8523e-06
8.87345e-06
8.28242e-06
7.9812e-06
7.89642e-06
7.97308e-06
8.16465e-06
8.42997e-06
8.73522e-06
9.05235e-06
9.35984e-06
9.64578e-06
9.90734e-06
1.01472e-05
1.03697e-05
1.0578e-05
1.07769e-05
1.09265e-05
3.89891e-07
4.20026e-07
4.42971e-07
4.91335e-07
5.25739e-07
6.74034e-07
7.73482e-07
8.31774e-07
8.08431e-07
8.06409e-07
1.68102e-06
1.43481e-05
7.82073e-05
0.000153484
0.000207823
0.000242304
0.000262444
0.00027345
0.000279039
0.000281466
0.000282013
0.000281399
0.000280029
0.000278123
0.000275796
0.000273109
0.000270094
0.000266777
0.000263178
0.000259317
0.00025521
0.000250873
0.000246324
0.000241578
0.000236649
0.000231548
0.000226286
0.000220871
0.000215304
0.000209593
0.000203745
0.000197768
0.000191665
0.000185436
0.000179081
0.0001726
0.000165996
0.000159277
0.000152449
0.000145517
0.000138482
0.000131346
0.000124114
0.000116788
0.000109375
0.000101887
9.4343e-05
8.67654e-05
7.91821e-05
7.16287e-05
6.41491e-05
5.67996e-05
4.96532e-05
4.27988e-05
3.63398e-05
3.0392e-05
2.508e-05
2.05218e-05
1.68055e-05
1.39666e-05
1.19522e-05
1.06093e-05
9.78216e-06
9.34592e-06
9.2084e-06
9.29556e-06
9.53993e-06
9.8834e-06
1.02799e-05
1.06868e-05
1.10728e-05
1.14242e-05
1.17419e-05
1.2032e-05
1.23002e-05
1.25535e-05
1.2755e-05
4.43226e-07
4.59921e-07
4.7236e-07
5.45892e-07
6.33128e-07
8.22822e-07
9.64019e-07
1.03552e-06
1.01301e-06
9.38692e-07
1.22367e-06
6.39693e-06
5.64141e-05
0.000139231
0.000204881
0.000248804
0.000275965
0.000291954
0.000301039
0.00030596
0.000308345
0.000309145
0.000308905
0.000307933
0.0003064
0.000304399
0.000301981
0.000299185
0.000296036
0.000292561
0.000288782
0.000284716
0.000280387
0.000275811
0.000271006
0.000265987
0.000260766
0.000255354
0.000249756
0.000243981
0.000238038
0.000231936
0.000225679
0.000219272
0.000212714
0.000206007
0.000199153
0.000192161
0.000185037
0.000177783
0.000170402
0.000162892
0.000155252
0.000147481
0.000139576
0.000131539
0.000123375
0.000115093
0.0001067
9.82093e-05
8.96409e-05
8.10229e-05
7.24015e-05
6.38429e-05
5.54389e-05
4.73138e-05
3.96358e-05
3.26145e-05
2.64823e-05
2.14516e-05
1.76171e-05
1.48654e-05
1.30028e-05
1.18355e-05
1.12085e-05
1.10025e-05
1.11163e-05
1.14405e-05
1.19004e-05
1.24258e-05
1.29509e-05
1.34346e-05
1.38665e-05
1.42539e-05
1.46061e-05
1.49337e-05
1.52047e-05
4.87454e-07
4.98193e-07
5.36694e-07
6.63959e-07
8.00717e-07
1.03245e-06
1.20392e-06
1.2864e-06
1.26567e-06
1.15512e-06
1.21408e-06
3.2666e-06
3.40446e-05
0.000116688
0.000194179
0.000248941
0.000284563
0.000306771
0.000320324
0.000328478
0.000333272
0.000335935
0.000337192
0.000337466
0.000336999
0.000335931
0.000334339
0.000332277
0.000329785
0.000326892
0.000323626
0.000320009
0.000316067
0.000311822
0.000307291
0.000302495
0.000297447
0.000292161
0.000286646
0.00028091
0.000274966
0.000268823
0.000262491
0.000255973
0.000249273
0.000242393
0.000235339
0.000228119
0.000220741
0.000213212
0.000205532
0.000197702
0.00018972
0.000181585
0.000173291
0.000164834
0.000156214
0.000147427
0.00013847
0.000129338
0.000120026
0.000110532
0.000100865
9.10443e-05
8.1109e-05
7.11297e-05
6.12335e-05
5.16291e-05
4.26255e-05
3.4625e-05
2.79911e-05
2.28371e-05
1.90752e-05
1.64915e-05
1.48573e-05
1.39842e-05
1.3734e-05
1.39382e-05
1.44184e-05
1.50756e-05
1.57968e-05
1.64891e-05
1.71067e-05
1.76489e-05
1.8131e-05
1.85699e-05
1.89391e-05
5.35353e-07
5.81453e-07
6.60044e-07
8.41164e-07
1.01993e-06
1.28547e-06
1.47245e-06
1.5604e-06
1.54328e-06
1.42169e-06
1.34673e-06
2.04031e-06
1.59351e-05
8.681e-05
0.000174567
0.000241135
0.000286712
0.000316576
0.00033578
0.000348094
0.000356018
0.000361114
0.000364332
0.000366239
0.000367175
0.00036734
0.000366849
0.000365782
0.00036419
0.000362113
0.000359584
0.000356632
0.000353284
0.000349566
0.000345499
0.000341104
0.000336399
0.0003314
0.000326116
0.00032056
0.000314745
0.000308681
0.000302381
0.00029585
0.000289095
0.000282119
0.00027493
0.000267538
0.000259955
0.000252189
0.000244245
0.000236124
0.00022783
0.000219362
0.000210715
0.000201888
0.000192876
0.000183676
0.000174279
0.000164673
0.00015484
0.000144762
0.000134419
0.000123793
0.000112869
0.000101644
9.01508e-05
7.84956e-05
6.69075e-05
5.58043e-05
4.57372e-05
3.71586e-05
3.0348e-05
2.52954e-05
2.1791e-05
1.96146e-05
1.8544e-05
1.86086e-05
1.92728e-05
2.02935e-05
2.14905e-05
2.27066e-05
2.38332e-05
2.48315e-05
2.57101e-05
2.64847e-05
2.71445e-05
6.4002e-07
7.23685e-07
8.40214e-07
1.06795e-06
1.2761e-06
1.5584e-06
1.74595e-06
1.83377e-06
1.82212e-06
1.70685e-06
1.54296e-06
1.71291e-06
6.88217e-06
5.41327e-05
0.000145304
0.000223727
0.000280616
0.000319706
0.00034596
0.000363576
0.000375535
0.000383783
0.000389543
0.000393568
0.000396321
0.000398084
0.000399027
0.000399261
0.000398859
0.000397875
0.00039635
0.000394318
0.000391812
0.00038886
0.000385486
0.000381714
0.000377564
0.000373053
0.000368195
0.000363002
0.000357489
0.000351668
0.000345551
0.000339148
0.000332467
0.000325513
0.000318294
0.000310823
0.000303115
0.000295179
0.000287025
0.000278659
0.000270085
0.000261308
0.000252327
0.000243142
0.000233754
0.000224158
0.00021435
0.000204317
0.000194041
0.000183499
0.000172662
0.000161495
0.000149955
0.000137993
0.000125567
0.000112667
9.93658e-05
8.59044e-05
7.27383e-05
6.04506e-05
4.97325e-05
4.10976e-05
3.46558e-05
3.04054e-05
2.86149e-05
2.82624e-05
2.88782e-05
3.02137e-05
3.20161e-05
3.40257e-05
3.59982e-05
3.77776e-05
3.93368e-05
4.0699e-05
4.18601e-05
4.28233e-05
4.36839e-05
4.4418e-05
8.04203e-07
9.21181e-07
1.06912e-06
1.32835e-06
1.54978e-06
1.82621e-06
2.00388e-06
2.08808e-06
2.08325e-06
1.98477e-06
1.80303e-06
1.83135e-06
3.88244e-06
2.71784e-05
0.000106868
0.000195272
0.000264317
0.000314162
0.000349042
0.000373329
0.000390442
0.000402744
0.000411776
0.000418521
0.000423602
0.000427408
0.000430182
0.000432083
0.000433214
0.000433647
0.000433438
0.000432628
0.000431254
0.000429349
0.000426942
0.000424057
0.000420718
0.000416944
0.00041275
0.00040815
0.00040316
0.000397793
0.000392061
0.000385977
0.000379549
0.000372785
0.000365692
0.000358286
0.000350582
0.000342593
0.000334332
0.000325808
0.000317029
0.000308003
0.000298733
0.000289224
0.000279478
0.000269498
0.00025928
0.000248818
0.000238098
0.0002271
0.000215797
0.000204156
0.000192129
0.000179653
0.000166655
0.000153067
0.000138848
0.000124048
0.000108864
9.36855e-05
7.92607e-05
6.66305e-05
5.66538e-05
5.02408e-05
4.66903e-05
4.4992e-05
4.48971e-05
4.61366e-05
4.83888e-05
5.12906e-05
5.44145e-05
5.73533e-05
5.99368e-05
6.21823e-05
6.41204e-05
6.57602e-05
6.71385e-05
6.828e-05
1.02143e-06
1.16367e-06
1.33164e-06
1.60214e-06
1.82083e-06
2.0681e-06
2.23387e-06
2.31318e-06
2.31568e-06
2.23977e-06
2.07707e-06
2.02497e-06
2.66424e-06
1.13865e-05
6.42126e-05
0.000155313
0.000235977
0.000297698
0.000342816
0.000375346
0.000398967
0.000416437
0.000429651
0.000439868
0.000447907
0.000454299
0.000459384
0.000463387
0.000466453
0.000468684
0.000470153
0.000470912
0.000471009
0.00047048
0.000469358
0.000467672
0.000465446
0.000462703
0.00045946
0.000455731
0.000451533
0.00044688
0.000441786
0.000436263
0.000430321
0.000423968
0.000417213
0.000410071
0.000402558
0.000394691
0.000386484
0.000377949
0.000369098
0.00035994
0.000350485
0.000340738
0.000330707
0.000320397
0.000309809
0.000298943
0.000287788
0.000276331
0.000264551
0.000252422
0.000239903
0.000226933
0.000213442
0.000199349
0.000184571
0.000169054
0.000152802
0.000135932
0.000118931
0.000102985
9.00405e-05
8.12e-05
7.48663e-05
7.07275e-05
6.88765e-05
6.91246e-05
7.11503e-05
7.45779e-05
7.88535e-05
8.32346e-05
8.71492e-05
9.04828e-05
9.33913e-05
9.5951e-05
9.80603e-05
9.97429e-05
1.27841e-06
1.43414e-06
1.60789e-06
1.86937e-06
2.07283e-06
2.27354e-06
2.43316e-06
2.50655e-06
2.51597e-06
2.46715e-06
2.34358e-06
2.20136e-06
2.39921e-06
5.56048e-06
2.92592e-05
0.00010538
0.000194341
0.000268079
0.00032476
0.000367188
0.000398884
0.00042287
0.000441391
0.000456011
0.00046779
0.000477435
0.000485414
0.000492038
0.000497515
0.000501988
0.000505555
0.000508287
0.000510242
0.000511467
0.000511999
0.00051187
0.000511108
0.000509739
0.000507781
0.00050525
0.000502164
0.000498536
0.000494381
0.000489713
0.000484541
0.000478873
0.000472721
0.000466098
0.000459021
0.000451508
0.000443576
0.000435238
0.00042651
0.000417404
0.000407931
0.000398102
0.000387925
0.000377411
0.000366563
0.000355385
0.000343873
0.000332015
0.000319798
0.000307204
0.0002942
0.000280734
0.000266744
0.000252158
0.00023689
0.000220854
0.000203974
0.000186207
0.000167766
0.000149673
0.000134483
0.000122908
0.000113511
0.00010628
0.000101633
9.973e-05
0.000100376
0.000103281
0.000108047
0.000113811
0.000119343
0.00012393
0.000127775
0.000131363
0.00013448
0.00013692
1.55608e-06
1.71215e-06
1.87785e-06
2.11461e-06
2.29556e-06
2.45544e-06
2.60533e-06
2.6697e-06
2.68553e-06
2.67097e-06
2.60956e-06
2.44271e-06
2.47446e-06
3.46388e-06
1.16744e-05
5.44357e-05
0.00014
0.000223687
0.000292329
0.00034607
0.000387501
0.000419563
0.000444744
0.000464912
0.000481395
0.000495114
0.000506696
0.000516569
0.000525023
0.000532258
0.000538411
0.000543581
0.000547843
0.000551254
0.00055386
0.000555699
0.000556804
0.000557202
0.000556915
0.00055596
0.000554355
0.000552114
0.000549254
0.000545785
0.00054172
0.000537066
0.000531835
0.000526039
0.000519697
0.000512826
0.000505444
0.000497569
0.000489217
0.000480404
0.000471143
0.000461449
0.000451333
0.000440807
0.000429879
0.000418557
0.000406841
0.000394723
0.000382197
0.000369248
0.000355854
0.000341969
0.000327544
0.000312515
0.000296808
0.000280335
0.000263003
0.000244718
0.000225529
0.000206091
0.000188528
0.000174061
0.000161706
0.000151311
0.000143297
0.000138209
0.000136196
0.000137085
0.000140854
0.000147171
0.000154503
0.000160933
0.000165686
0.000169257
0.000171993
0.000174124
1.8338e-06
1.97862e-06
2.12578e-06
2.32903e-06
2.4851e-06
2.61301e-06
2.75189e-06
2.80454e-06
2.82791e-06
2.86312e-06
2.85304e-06
2.73081e-06
2.67177e-06
2.90288e-06