/*--------------------------------*- C++ -*----------------------------------*\
| =========                 |                                                 |
| \\      /  F ield         | OpenFOAM: The Open Source CFD Toolbox           |
|  \\    /   O peration     | Version:  2412                                  |
|   \\  /    A nd           | Website:  www.openfoam.com                      |
|    \\/     M anipulation  |                                                 |
\*---------------------------------------------------------------------------*/
FoamFile
{
    version     2.0;
    format      ascii;
    arch        "LSB;label=32;scalar=64";
    class       volScalarField;
    location    "380";
    object      nuTilda;
}
// * * * * * * * * * * * * * * * * * * * * * * * * * * * * * * * * * * * * * //

dimensions      [0 2 -1 0 0 0 0];

internalField   nonuniform List<scalar> 
8659
(
1.1299e-06
9.59424e-07
7.20546e-07
4.18253e-07
8.33741e-07
1.47413e-06
2.21836e-06
2.90208e-06
3.33675e-06
3.52585e-06
3.46425e-06
3.23884e-06
2.95777e-06
2.70148e-06
2.50221e-06
2.35586e-06
2.24417e-06
2.15745e-06
2.08753e-06
2.02798e-06
1.97573e-06
1.92904e-06
1.88662e-06
1.84766e-06
1.81154e-06
1.77789e-06
1.74638e-06
1.7167e-06
1.68869e-06
1.66211e-06
1.63692e-06
1.61299e-06
1.59012e-06
1.56835e-06
1.54753e-06
1.52769e-06
1.50879e-06
1.49078e-06
1.47374e-06
1.45753e-06
1.4421e-06
1.42746e-06
1.4136e-06
1.40061e-06
1.38853e-06
1.37739e-06
1.36717e-06
1.35791e-06
1.3497e-06
1.34261e-06
1.33669e-06
1.33195e-06
1.32834e-06
1.32586e-06
1.32441e-06
1.32379e-06
1.32386e-06
1.32451e-06
1.32562e-06
1.3271e-06
1.32886e-06
1.33082e-06
1.33293e-06
1.33511e-06
1.33737e-06
1.33967e-06
1.34193e-06
1.34408e-06
1.3461e-06
1.34799e-06
1.34973e-06
1.35139e-06
1.35295e-06
1.35443e-06
1.35587e-06
1.35724e-06
1.35858e-06
1.35991e-06
1.36125e-06
1.36263e-06
1.36403e-06
1.36538e-06
1.36666e-06
1.36787e-06
1.36901e-06
1.37006e-06
3.45665e-06
2.92609e-06
2.19467e-06
1.28088e-06
2.59517e-06
4.51211e-06
6.69884e-06
8.74715e-06
1.01172e-05
1.08092e-05
1.07657e-05
1.01661e-05
9.33512e-06
8.54017e-06
7.90929e-06
7.44238e-06
7.08594e-06
6.8087e-06
6.58521e-06
6.39529e-06
6.22893e-06
6.0805e-06
5.94581e-06
5.82221e-06
5.70765e-06
5.60095e-06
5.50093e-06
5.4066e-06
5.31749e-06
5.23279e-06
5.15227e-06
5.0755e-06
5.00195e-06
4.93164e-06
4.86422e-06
4.79967e-06
4.73789e-06
4.67885e-06
4.62264e-06
4.56893e-06
4.51761e-06
4.46871e-06
4.42226e-06
4.3784e-06
4.33728e-06
4.29905e-06
4.26366e-06
4.23123e-06
4.20211e-06
4.17658e-06
4.15485e-06
4.13698e-06
4.12294e-06
4.1127e-06
4.10598e-06
4.10222e-06
4.10097e-06
4.10184e-06
4.10449e-06
4.10856e-06
4.11377e-06
4.11978e-06
4.12635e-06
4.13331e-06
4.1406e-06
4.14807e-06
4.15543e-06
4.16248e-06
4.16911e-06
4.17531e-06
4.18109e-06
4.18654e-06
4.19171e-06
4.19662e-06
4.20135e-06
4.20588e-06
4.21028e-06
4.21465e-06
4.21905e-06
4.22358e-06
4.22813e-06
4.23258e-06
4.23678e-06
4.24073e-06
4.24445e-06
4.2479e-06
5.88825e-06
4.96488e-06
3.72173e-06
2.20234e-06
4.52562e-06
7.68266e-06
1.11928e-05
1.4596e-05
1.7022e-05
1.84881e-05
1.87613e-05
1.79974e-05
1.66691e-05
1.52963e-05
1.4172e-05
1.33295e-05
1.2685e-05
1.21823e-05
1.17767e-05
1.1433e-05
1.11325e-05
1.08648e-05
1.06223e-05
1.03999e-05
1.01938e-05
1.00018e-05
9.82158e-06
9.65132e-06
9.49008e-06
9.33639e-06
9.18974e-06
9.04925e-06
8.91408e-06
8.78414e-06
8.65886e-06
8.53819e-06
8.42194e-06
8.31009e-06
8.2028e-06
8.09956e-06
8.00031e-06
7.905e-06
7.81377e-06
7.72684e-06
7.64452e-06
7.56709e-06
7.49465e-06
7.42751e-06
7.36639e-06
7.3119e-06
7.26458e-06
7.22468e-06
7.19229e-06
7.16741e-06
7.1496e-06
7.13797e-06
7.13172e-06
7.13009e-06
7.13246e-06
7.13807e-06
7.14632e-06
7.15654e-06
7.16816e-06
7.18076e-06
7.1942e-06
7.20814e-06
7.22192e-06
7.23521e-06
7.24779e-06
7.25961e-06
7.27067e-06
7.28105e-06
7.29089e-06
7.30029e-06
7.30928e-06
7.31793e-06
7.32632e-06
7.33461e-06
7.34298e-06
7.35156e-06
7.36015e-06
7.36852e-06
7.37646e-06
7.38392e-06
7.39093e-06
7.39743e-06
8.34731e-06
7.00461e-06
5.24583e-06
3.17057e-06
6.61357e-06
1.09216e-05
1.55733e-05
2.02516e-05
2.38066e-05
2.63505e-05
2.73911e-05
2.68204e-05
2.51176e-05
2.31454e-05
2.14612e-05
2.01782e-05
1.91933e-05
1.84223e-05
1.77999e-05
1.72737e-05
1.68151e-05
1.64072e-05
1.60383e-05
1.57004e-05
1.53874e-05
1.50955e-05
1.48213e-05
1.45617e-05
1.43151e-05
1.40793e-05
1.38531e-05
1.36354e-05
1.34247e-05
1.32208e-05
1.30229e-05
1.28308e-05
1.26443e-05
1.24633e-05
1.22881e-05
1.21181e-05
1.19533e-05
1.17937e-05
1.16394e-05
1.1491e-05
1.13488e-05
1.12135e-05
1.10854e-05
1.09653e-05
1.08544e-05
1.07539e-05
1.06648e-05
1.0588e-05
1.05237e-05
1.04721e-05
1.04327e-05
1.04045e-05
1.03861e-05
1.03764e-05
1.03745e-05
1.03789e-05
1.03886e-05
1.04025e-05
1.04193e-05
1.04384e-05
1.04593e-05
1.04813e-05
1.05033e-05
1.05247e-05
1.05451e-05
1.05644e-05
1.05825e-05
1.05995e-05
1.06156e-05
1.0631e-05
1.06457e-05
1.06598e-05
1.06735e-05
1.0687e-05
1.07006e-05
1.07145e-05
1.07284e-05
1.07418e-05
1.07546e-05
1.07666e-05
1.07779e-05
1.07884e-05
1.07672e-05
8.986e-06
6.72072e-06
4.20384e-06
8.84095e-06
1.4174e-05
1.97416e-05
2.55602e-05
3.02476e-05
3.41397e-05
3.64858e-05
3.66603e-05
3.48296e-05
3.22729e-05
2.99621e-05
2.81635e-05
2.67757e-05
2.56849e-05
2.48033e-05
2.40605e-05
2.3415e-05
2.28424e-05
2.23256e-05
2.18528e-05
2.14153e-05
2.10071e-05
2.06233e-05
2.02595e-05
1.99128e-05
1.95801e-05
1.92595e-05
1.89491e-05
1.86469e-05
1.83524e-05
1.80644e-05
1.77826e-05
1.75066e-05
1.72363e-05
1.69721e-05
1.67132e-05
1.646e-05
1.62124e-05
1.59708e-05
1.57358e-05
1.55083e-05
1.52892e-05
1.50795e-05
1.48805e-05
1.46944e-05
1.45232e-05
1.43688e-05
1.42327e-05
1.41157e-05
1.40186e-05
1.3941e-05
1.38816e-05
1.3839e-05
1.38115e-05
1.37975e-05
1.37952e-05
1.38026e-05
1.38179e-05
1.38392e-05
1.38649e-05
1.38943e-05
1.3926e-05
1.39583e-05
1.39901e-05
1.40206e-05
1.40498e-05
1.40773e-05
1.41032e-05
1.41277e-05
1.41511e-05
1.41734e-05
1.41949e-05
1.42156e-05
1.4236e-05
1.42565e-05
1.42773e-05
1.4298e-05
1.43181e-05
1.43372e-05
1.43551e-05
1.4372e-05
1.43876e-05
1.30868e-05
1.08562e-05
8.10746e-06
5.41835e-06
1.11789e-05
1.73807e-05
2.35994e-05
3.03778e-05
3.61339e-05
4.15796e-05
4.57361e-05
4.73829e-05
4.59279e-05
4.2906e-05
3.99109e-05
3.75063e-05
3.56357e-05
3.41588e-05
3.29645e-05
3.19617e-05
3.10935e-05
3.03257e-05
2.96349e-05
2.90043e-05
2.84216e-05
2.78782e-05
2.73672e-05
2.68823e-05
2.64192e-05
2.59735e-05
2.55423e-05
2.51227e-05
2.47118e-05
2.43085e-05
2.39113e-05
2.35192e-05
2.31319e-05
2.27491e-05
2.23708e-05
2.19968e-05
2.16273e-05
2.12626e-05
2.09031e-05
2.05501e-05
2.02046e-05
1.98683e-05
1.9543e-05
1.92311e-05
1.89359e-05
1.86606e-05
1.84084e-05
1.81819e-05
1.7983e-05
1.78131e-05
1.76723e-05
1.75596e-05
1.74735e-05
1.7412e-05
1.73729e-05
1.73535e-05
1.7351e-05
1.73626e-05
1.73852e-05
1.74164e-05
1.74543e-05
1.7497e-05
1.75416e-05
1.75862e-05
1.76297e-05
1.76716e-05
1.77114e-05
1.7749e-05
1.77846e-05
1.78186e-05
1.7851e-05
1.78821e-05
1.79121e-05
1.79415e-05
1.79708e-05
1.80005e-05
1.803e-05
1.80585e-05
1.80856e-05
1.81111e-05
1.8135e-05
1.81573e-05
1.52463e-05
1.2566e-05
9.37405e-06
6.98795e-06
1.35864e-05
2.04715e-05
2.70399e-05
3.45598e-05
4.12538e-05
4.83959e-05
5.47574e-05
5.85436e-05
5.82809e-05
5.52654e-05
5.1638e-05
4.85329e-05
4.60721e-05
4.41157e-05
4.25322e-05
4.12081e-05
4.00669e-05
3.90619e-05
3.81611e-05
3.73417e-05
3.65865e-05
3.58835e-05
3.5223e-05
3.45963e-05
3.39974e-05
3.34199e-05
3.28595e-05
3.23119e-05
3.17732e-05
3.12412e-05
3.07135e-05
3.01887e-05
2.96657e-05
2.9144e-05
2.86236e-05
2.8104e-05
2.75858e-05
2.70695e-05
2.65559e-05
2.60466e-05
2.55434e-05
2.5049e-05
2.45663e-05
2.40991e-05
2.36523e-05
2.32307e-05
2.28389e-05
2.24813e-05
2.21611e-05
2.18811e-05
2.16423e-05
2.14445e-05
2.12863e-05
2.11658e-05
2.10804e-05
2.10266e-05
2.10007e-05
2.09983e-05
2.10153e-05
2.10477e-05
2.10923e-05
2.11458e-05
2.1204e-05
2.12636e-05
2.1323e-05
2.13809e-05
2.14363e-05
2.14889e-05
2.1539e-05
2.15867e-05
2.16321e-05
2.16756e-05
2.17175e-05
2.17583e-05
2.1799e-05
2.18398e-05
2.18802e-05
2.19193e-05
2.19564e-05
2.19913e-05
2.2024e-05
2.20545e-05
1.71866e-05
1.40703e-05
1.04971e-05
8.97926e-06
1.6009e-05
2.33638e-05
2.99505e-05
3.79641e-05
4.53905e-05
5.43202e-05
6.31929e-05
6.95941e-05
7.12467e-05
6.91037e-05
6.53411e-05
6.16225e-05
5.84999e-05
5.59586e-05
5.3885e-05
5.21526e-05
5.06647e-05
4.93594e-05
4.81945e-05
4.71392e-05
4.61701e-05
4.52704e-05
4.4427e-05
4.36281e-05
4.28649e-05
4.2129e-05
4.14136e-05
4.07129e-05
4.00213e-05
3.9335e-05
3.86504e-05
3.79651e-05
3.72773e-05
3.65856e-05
3.58894e-05
3.51885e-05
3.44837e-05
3.37756e-05
3.30654e-05
3.23555e-05
3.16486e-05
3.09484e-05
3.02598e-05
2.95882e-05
2.89401e-05
2.83221e-05
2.77408e-05
2.72023e-05
2.67119e-05
2.6274e-05
2.58912e-05
2.55647e-05
2.52943e-05
2.50786e-05
2.4915e-05
2.47995e-05
2.47274e-05
2.46932e-05
2.46911e-05
2.47153e-05
2.47609e-05
2.48224e-05
2.48936e-05
2.49696e-05
2.50472e-05
2.51243e-05
2.51991e-05
2.52708e-05
2.5339e-05
2.54041e-05
2.54661e-05
2.55253e-05
2.55821e-05
2.56373e-05
2.5692e-05
2.57465e-05
2.58002e-05
2.58521e-05
2.59013e-05
2.59477e-05
2.59912e-05
2.60319e-05
1.88493e-05
1.53304e-05
1.1467e-05
1.12426e-05
1.83802e-05
2.59628e-05
3.22204e-05
4.04624e-05
4.83209e-05
5.90907e-05
7.07386e-05
8.01507e-05
8.42426e-05
8.36704e-05
8.05122e-05
7.66655e-05
7.30818e-05
6.99959e-05
6.74006e-05
6.52011e-05
6.32996e-05
6.16266e-05
6.01328e-05
5.87805e-05
5.75405e-05
5.63907e-05
5.53142e-05
5.42959e-05
5.33238e-05
5.23869e-05
5.14755e-05
5.05815e-05
4.96975e-05
4.88174e-05
4.79364e-05
4.70504e-05
4.61565e-05
4.52524e-05
4.43368e-05
4.34095e-05
4.24715e-05
4.15239e-05
4.05684e-05
3.96082e-05
3.8647e-05
3.76898e-05
3.67432e-05
3.58146e-05
3.49119e-05
3.40434e-05
3.32174e-05
3.24421e-05
3.17248e-05
3.10721e-05
3.04887e-05
2.99783e-05
2.95427e-05
2.91819e-05
2.88946e-05
2.86767e-05
2.85234e-05
2.84281e-05
2.83836e-05
2.83821e-05
2.84162e-05
2.84779e-05
2.85582e-05
2.86494e-05
2.87465e-05
2.88456e-05
2.89435e-05
2.90383e-05
2.9129e-05
2.92158e-05
2.92985e-05
2.93773e-05
2.94526e-05
2.95255e-05
2.95971e-05
2.96681e-05
2.97378e-05
2.98049e-05
2.98686e-05
2.99286e-05
2.9985e-05
3.00379e-05
2.0181e-05
1.63195e-05
1.23007e-05
1.36504e-05
2.06225e-05
2.81645e-05
3.37952e-05
4.19555e-05
4.9809e-05
6.24471e-05
7.71163e-05
8.9934e-05
9.69543e-05
9.84925e-05
9.64957e-05
9.30158e-05
8.93327e-05
8.59369e-05
8.29592e-05
8.03663e-05
7.80824e-05
7.60452e-05
7.42074e-05
7.25304e-05
7.09828e-05
6.95401e-05
6.81833e-05
6.68955e-05
6.56621e-05
6.44702e-05
6.33076e-05
6.21645e-05
6.10315e-05
5.99006e-05
5.87658e-05
5.76217e-05
5.64644e-05
5.52909e-05
5.40993e-05
5.28899e-05
5.16643e-05
5.04239e-05
4.91711e-05
4.79098e-05
4.66443e-05
4.53807e-05
4.41269e-05
4.28916e-05
4.16837e-05
4.05124e-05
3.93873e-05
3.83182e-05
3.73145e-05
3.63849e-05
3.5537e-05
3.47774e-05
3.41114e-05
3.35419e-05
3.30697e-05
3.26927e-05
3.24068e-05
3.22057e-05
3.20812e-05
3.20237e-05
3.20233e-05
3.2069e-05
3.2148e-05
3.22492e-05
3.23641e-05
3.24864e-05
3.26103e-05
3.27324e-05
3.28504e-05
3.29638e-05
3.30718e-05
3.31747e-05
3.32727e-05
3.33669e-05
3.34588e-05
3.35494e-05
3.36378e-05
3.37228e-05
3.38033e-05
3.38793e-05
3.39509e-05
3.40182e-05
2.11384e-05
1.70306e-05
1.30854e-05
1.60998e-05
2.26531e-05
2.98614e-05
3.46529e-05
4.23935e-05
4.95871e-05
6.4132e-05
8.20418e-05
9.86707e-05
0.000109139
0.000113321
0.000112961
0.000110246
0.000106769
0.00010329
0.000100097
9.72335e-05
9.46557e-05
9.23165e-05
9.01754e-05
8.81965e-05
8.63489e-05
8.46075e-05
8.29534e-05
8.13692e-05
7.98399e-05
7.83518e-05
7.68918e-05
7.54489e-05
7.40135e-05
7.25767e-05
7.1132e-05
6.96738e-05
6.81982e-05
6.67018e-05
6.51827e-05
6.3642e-05
6.20819e-05
6.05048e-05
5.8913e-05
5.73108e-05
5.57027e-05
5.40948e-05
5.24956e-05
5.09145e-05
4.93605e-05
4.78431e-05
4.63721e-05
4.49584e-05
4.36127e-05
4.23457e-05
4.11677e-05
4.0089e-05
3.91192e-05
3.82655e-05
3.75327e-05
3.69225e-05
3.64337e-05
3.60622e-05
3.58007e-05
3.5639e-05
3.55654e-05
3.55654e-05
3.56223e-05
3.57201e-05
3.58458e-05
3.59889e-05
3.614e-05
3.62927e-05
3.64427e-05
3.65879e-05
3.67268e-05
3.68589e-05
3.69843e-05
3.71042e-05
3.72203e-05
3.73338e-05
3.74439e-05
3.75495e-05
3.76496e-05
3.77441e-05
3.78333e-05
3.79174e-05
2.16976e-05
1.74887e-05
1.44071e-05
1.84908e-05
2.43911e-05
3.09931e-05
3.48068e-05
4.17993e-05
4.7323e-05
6.39277e-05
8.52095e-05
0.000106042
0.00012052
0.000127927
0.000129698
0.00012813
0.000125141
0.000121782
0.000118522
0.000115494
0.000112701
0.000110117
0.000107712
0.000105456
0.000103321
0.000101283
9.93231e-05
9.7426e-05
9.5577e-05
9.37635e-05
9.19726e-05
9.01937e-05
8.84183e-05
8.66377e-05
8.4846e-05
8.30383e-05
8.12108e-05
7.93605e-05
7.74853e-05
7.55871e-05
7.36688e-05
7.17327e-05
6.97812e-05
6.78181e-05
6.58474e-05
6.38746e-05
6.19083e-05
5.99576e-05
5.80311e-05
5.61377e-05
5.4287e-05
5.24897e-05
5.07571e-05
4.91011e-05
4.7534e-05
4.60696e-05
4.47218e-05
4.3503e-05
4.24237e-05
4.14915e-05
4.07107e-05
4.00824e-05
3.96032e-05
3.92653e-05
3.90568e-05
3.89613e-05
3.89582e-05
3.90261e-05
3.91457e-05
3.93006e-05
3.94759e-05
3.96602e-05
3.98459e-05
4.00284e-05
4.02042e-05
4.03716e-05
4.05301e-05
4.06807e-05
4.08254e-05
4.09656e-05
4.11009e-05
4.12302e-05
4.13526e-05
4.14682e-05
4.15776e-05
4.16812e-05
2.18669e-05
1.7767e-05
1.64032e-05
2.07218e-05
2.57689e-05
3.15435e-05
3.43212e-05
4.02886e-05
4.32984e-05
6.17325e-05
8.62945e-05
0.000111663
0.000130741
0.00014203
0.000146484
0.000146479
0.000144277
0.000141251
0.000138074
0.00013499
0.000132059
0.000129286
0.000126657
0.00012415
0.000121742
0.00011941
0.00011714
0.000114918
0.000112732
0.000110571
0.000108424
0.000106283
0.000104141
0.00010199
9.98264e-05
9.76459e-05
9.54456e-05
9.32229e-05
9.09755e-05
8.87057e-05
8.64168e-05
8.41109e-05
8.17899e-05
7.94568e-05
7.71143e-05
7.47671e-05
7.24229e-05
7.00903e-05
6.77771e-05
6.54907e-05
6.32396e-05
6.10335e-05
5.88835e-05
5.6801e-05
5.47993e-05
5.28942e-05
5.11032e-05
4.94433e-05
4.79309e-05
4.65808e-05
4.54054e-05
4.44141e-05
4.36118e-05
4.29973e-05
4.25628e-05
4.22934e-05
4.21668e-05
4.21567e-05
4.22367e-05
4.23823e-05
4.25705e-05
4.27828e-05
4.30054e-05
4.32295e-05
4.34484e-05
4.3658e-05
4.38564e-05
4.40438e-05
4.42224e-05
4.43939e-05
4.45581e-05
4.47145e-05
4.48623e-05
4.50021e-05
4.51345e-05
4.52603e-05
2.17041e-05
1.80499e-05
1.87488e-05
2.26941e-05
2.67465e-05
3.15511e-05
3.33229e-05
3.80694e-05
3.87342e-05
5.7561e-05
8.49679e-05
0.000115082
0.000139357
0.00015526
0.000163035
0.000165073
0.000164003
0.00016155
0.000158627
0.000155611
0.000152634
0.000149741
0.00014694
0.000144221
0.000141567
0.000138961
0.00013639
0.000133846
0.000131319
0.000128803
0.000126289
0.000123771
0.000121246
0.000118708
0.000116156
0.000113586
0.000110997
0.000108386
0.000105752
0.000103097
0.000100425
9.77374e-05
9.50356e-05
9.23217e-05
8.95974e-05
8.6866e-05
8.41341e-05
8.14098e-05
7.86994e-05
7.60087e-05
7.33446e-05
7.07149e-05
6.8129e-05
6.55969e-05
6.3131e-05
6.07471e-05
5.84642e-05
5.6302e-05
5.42814e-05
5.24234e-05
5.07489e-05
4.92779e-05
4.80274e-05
4.70081e-05
4.62231e-05
4.56651e-05
4.53157e-05
4.51471e-05
4.51271e-05
4.52215e-05
4.53966e-05
4.5623e-05
4.58778e-05
4.61449e-05
4.64123e-05
4.66715e-05
4.69178e-05
4.71497e-05
4.73688e-05
4.7577e-05
4.77749e-05
4.79623e-05
4.81392e-05
4.83062e-05
4.84646e-05
4.86157e-05
2.13421e-05
1.91358e-05
2.09638e-05
2.43255e-05
2.73255e-05
3.11198e-05
3.20035e-05
3.54305e-05
3.43093e-05
5.15299e-05
8.09438e-05
0.000115791
0.000145828
0.000167148
0.000178979
0.000183631
0.000184104
0.000182512
0.000180046
0.000177248
0.00017434
0.000171417
0.000168517
0.000165646
0.000162796
0.000159955
0.000157115
0.000154272
0.000151422
0.000148562
0.000145687
0.000142795
0.000139886
0.000136958
0.00013401
0.000131041
0.000128052
0.000125042
0.000122008
0.000118954
0.000115883
0.000112798
0.000109699
0.000106589
0.000103467
0.000100336
9.72009e-05
9.40701e-05
9.09484e-05
8.78402e-05
8.47502e-05
8.16842e-05
7.86492e-05
7.5653e-05
7.27052e-05
6.98201e-05
6.70151e-05
6.43101e-05
6.17269e-05
5.929e-05
5.70261e-05
5.49647e-05
5.31358e-05
5.15662e-05
5.02763e-05
4.92756e-05
4.85592e-05
4.81068e-05
4.78855e-05
4.78533e-05
4.79637e-05
4.81721e-05
4.84422e-05
4.87466e-05
4.90644e-05
4.938e-05
4.9683e-05
4.99688e-05
5.02368e-05
5.0489e-05
5.07264e-05
5.09498e-05
5.11599e-05
5.1358e-05
5.15457e-05
5.17252e-05
2.10994e-05
2.10216e-05
2.28923e-05
2.55671e-05
2.75599e-05
3.04176e-05
3.06094e-05
3.2743e-05
3.12518e-05
4.44047e-05
7.41405e-05
0.000113267
0.000149524
0.000177115
0.000193839
0.000201787
0.000204302
0.000203924
0.000202166
0.000199771
0.000197075
0.00019424
0.00019134
0.000188401
0.000185428
0.000182418
0.000179366
0.000176275
0.000173143
0.000169973
0.000166766
0.000163522
0.000160246
0.000156937
0.0001536
0.000150235
0.000146845
0.00014343
0.000139988
0.000136523
0.00013304
0.000129541
0.000126029
0.000122502
0.000118962
0.000115411
0.000111853
0.000108295
0.000104741
0.000101196
9.7662e-05
9.4143e-05
9.06437e-05
8.71691e-05
8.37259e-05
8.03251e-05
7.69811e-05
7.37108e-05
7.05337e-05
6.7473e-05
6.45565e-05
6.18182e-05
5.92974e-05
5.70359e-05
5.50742e-05
5.34463e-05
5.21736e-05
5.12574e-05
5.06775e-05
5.03924e-05
5.03452e-05
5.04718e-05
5.07171e-05
5.10376e-05
5.13989e-05
5.17737e-05
5.21424e-05
5.2493e-05
5.28212e-05
5.31269e-05
5.34117e-05
5.36774e-05
5.39258e-05
5.41594e-05
5.43801e-05
5.45913e-05
2.18241e-05
2.28804e-05
2.44434e-05
2.64213e-05
2.75575e-05
2.96556e-05
2.94311e-05
3.04705e-05
2.95505e-05
3.75357e-05
6.49614e-05
0.000107032
0.000149761
0.000184472
0.00020701
0.000219058
0.00022423
0.000225507
0.000224771
0.000223011
0.000220709
0.00021811
0.000215336
0.000212442
0.000209448
0.000206361
0.000203181
0.000199917
0.000196571
0.000193153
0.000189666
0.000186115
0.000182508
0.000178851
0.000175148
0.000171405
0.000167626
0.000163812
0.000159963
0.000156084
0.000152182
0.000148259
0.000144317
0.000140357
0.00013638
0.000132387
0.000128381
0.000124372
0.000120362
0.000116355
0.000112353
0.000108358
0.000104373
0.000100402
9.64462e-05
9.25151e-05
8.8619e-05
8.47704e-05
8.09838e-05
7.72777e-05
7.36758e-05
7.02093e-05
6.69192e-05
6.38549e-05
6.1072e-05
5.86294e-05
5.65827e-05
5.49721e-05
5.38109e-05
5.30785e-05
5.27186e-05
5.2648e-05
5.27883e-05
5.30744e-05
5.34527e-05
5.38785e-05
5.43171e-05
5.47443e-05
5.51465e-05
5.5519e-05
5.58622e-05
5.61788e-05
5.64724e-05
5.67468e-05
5.7005e-05
5.72516e-05
2.34118e-05
2.44551e-05
2.55882e-05
2.69528e-05
2.74705e-05
2.90758e-05
2.89759e-05
2.96234e-05
2.91538e-05
3.31833e-05
5.45259e-05
9.66576e-05
0.000145903
0.000188427
0.000217742
0.000234828
0.000243405
0.000246886
0.000247569
0.000246738
0.000245058
0.000242882
0.000240395
0.000237688
0.000234804
0.00023176
0.000228565
0.000225231
0.000221768
0.000218189
0.000214501
0.000210714
0.00020684
0.000202888
0.000198866
0.000194783
0.000190644
0.000186455
0.000182216
0.000177934
0.000173616
0.000169267
0.00016489
0.000160486
0.000156057
0.000151603
0.00014713
0.000142646
0.000138154
0.000133659
0.000129161
0.000124663
0.000120166
0.000115672
0.000111182
0.000106701
0.000102237
9.77967e-05
9.33903e-05
8.90297e-05
8.47308e-05
8.05171e-05
7.64227e-05
7.24934e-05
6.87883e-05
6.53801e-05
6.23542e-05
5.9797e-05
5.77781e-05
5.63286e-05
5.54203e-05
5.49615e-05
5.48517e-05
5.50011e-05
5.53322e-05
5.57759e-05
5.6275e-05
5.67857e-05
5.72778e-05
5.77348e-05
5.8152e-05
5.85318e-05
5.88801e-05
5.92026e-05
5.95039e-05
5.97904e-05
5.99867e-05
2.48712e-05
2.56647e-05
2.63666e-05
2.72863e-05
2.74902e-05
2.90085e-05
2.95972e-05
3.01539e-05
2.98593e-05
3.12634e-05
4.43933e-05
8.27198e-05
0.000137588
0.000188126
0.000225134
0.000248318
0.000261198
0.000267564
0.000270167
0.000270638
0.000269868
0.000268349
0.000266349
0.000264007
0.000261394
0.000258543
0.000255474
0.000252205
0.00024875
0.000245126
0.000241346
0.000237422
0.000233371
0.000229206
0.000224938
0.000220577
0.000216134
0.000211615
0.000207024
0.000202368
0.000197657
0.000192896
0.000188092
0.000183246
0.00017836
0.000173437
0.000168482
0.000163504
0.000158509
0.0001535
0.00014848
0.000143451
0.000138413
0.000133368
0.000128316
0.00012326
0.000118204
0.000113154
0.000108114
0.000103091
9.80912e-05
9.31289e-05
8.82264e-05
8.34173e-05
7.87503e-05
7.42945e-05
7.0146e-05
6.64254e-05
6.32642e-05
6.07754e-05
5.90009e-05
5.78695e-05
5.72731e-05
5.71027e-05
5.72569e-05
5.7638e-05
5.81566e-05
5.87407e-05
5.9334e-05
5.98971e-05
6.04104e-05
6.08719e-05
6.12885e-05
6.16695e-05
6.20218e-05
6.23541e-05
6.26017e-05
2.60324e-05
2.65272e-05
2.68867e-05
2.76016e-05
2.80792e-05
2.99079e-05
3.09741e-05
3.15531e-05
3.13249e-05
3.13049e-05
3.77983e-05
6.77891e-05
0.000124843
0.00018269
0.000228132
0.000258567
0.000276802
0.000286887
0.000292038
0.000294281
0.000294786
0.000294218
0.000292952
0.000291192
0.000289047
0.000286574
0.000283804
0.000280763
0.000277472
0.000273951
0.000270218
0.000266288
0.000262182
0.000257916
0.000253503
0.000248959
0.000244295
0.00023952
0.000234641
0.000229667
0.000224608
0.000219474
0.00021427
0.000209003
0.000203674
0.000198287
0.000192849
0.00018737
0.000181859
0.000176319
0.000170755
0.000165168
0.000159562
0.000153936
0.000148291
0.00014263
0.000136955
0.00013127
0.000125576
0.000119875
0.000114167
0.000108457
0.000102754
9.70778e-05
9.14572e-05
8.59428e-05
8.06181e-05
7.56092e-05
7.10866e-05
6.72494e-05
6.42467e-05
6.20743e-05
6.0652e-05
5.98719e-05
5.96212e-05
5.97803e-05
6.02215e-05
6.08299e-05
6.15163e-05
6.2204e-05
6.28418e-05
6.3411e-05
6.39165e-05
6.43711e-05
6.47856e-05
6.51722e-05
6.54764e-05
2.68906e-05
2.71435e-05
2.73276e-05
2.83484e-05
2.94357e-05
3.14661e-05
3.27645e-05
3.33697e-05
3.31826e-05
3.25423e-05
3.48289e-05
5.38713e-05
0.000108154
0.000171345
0.000225588
0.000264419
0.000289203
0.00030401
0.000312486
0.000317094
0.000319332
0.000320083
0.000319857
0.000318945
0.000317507
0.000315631
0.000313367
0.000310752
0.000307813
0.000304576
0.000301061
0.000297289
0.000293283
0.000289061
0.000284641
0.000280039
0.000275271
0.000270348
0.000265279
0.000260073
0.000254745
0.000249303
0.000243758
0.000238116
0.000232382
0.00022656
0.00022066
0.000214692
0.000208666
0.000202591
0.000196472
0.000190312
0.000184114
0.000177882
0.000171616
0.000165318
0.000158993
0.000152641
0.000146264
0.000139861
0.000133427
0.00012696
0.00012046
0.000113932
0.000107385
0.000100844
9.43648e-05
8.80498e-05
8.20693e-05
7.66724e-05
7.21165e-05
6.85081e-05
6.58467e-05
6.40639e-05
6.30629e-05
6.27267e-05
6.29128e-05
6.34372e-05
6.41656e-05
6.49778e-05
6.57694e-05
6.64824e-05
6.71064e-05
6.76566e-05
6.81495e-05
6.8602e-05
6.89721e-05
2.75462e-05
2.76987e-05
2.82264e-05
2.97936e-05
3.12484e-05
3.33443e-05
3.46837e-05
3.52791e-05
3.5132e-05
3.43174e-05
3.47586e-05
4.49628e-05
8.93748e-05
0.00015386
0.000216409
0.000264543
0.000297147
0.000317855
0.000330609
0.00033832
0.000342866
0.000345394
0.000346589
0.000346849
0.000346406
0.00034539
0.000343878
0.000341922
0.000339558
0.000336818
0.000333728
0.000330312
0.000326594
0.000322598
0.000318343
0.000313848
0.00030913
0.000304203
0.000299078
0.000293766
0.000288282
0.000282638
0.000276844
0.00027091
0.000264843
0.000258647
0.000252334
0.000245916
0.000239407
0.000232815
0.00022615
0.000219417
0.000212621
0.000205768
0.000198859
0.000191898
0.000184891
0.00017784
0.000170745
0.000163606
0.000156416
0.00014917
0.00014186
0.00013448
0.000127025
0.000119496
0.000111917
0.00010435
9.69309e-05
8.99064e-05
8.35922e-05
7.82148e-05
7.39046e-05
7.06809e-05
6.8497e-05
6.72744e-05
6.69161e-05
6.72088e-05
6.78877e-05
6.87962e-05
6.9768e-05
7.06778e-05
7.14719e-05
7.21562e-05
7.27554e-05
7.32934e-05
7.37409e-05
2.82085e-05
2.8806e-05
2.97488e-05
3.16436e-05
3.32404e-05
3.52725e-05
3.65273e-05
3.70781e-05
3.69726e-05
3.61986e-05
3.56973e-05
3.97453e-05
6.99514e-05
0.000131304
0.000199917
0.000257518
0.00029914
0.000327074
0.000345247
0.000356973
0.000364545
0.000369425
0.00037251
0.00037434
0.000375239
0.000375396
0.000374926
0.000373901
0.000372373
0.000370382
0.000367959
0.000365132
0.00036193
0.000358378
0.000354498
0.000350311
0.000345836
0.00034109
0.000336084
0.000330832
0.000325349
0.000319648
0.000313741
0.00030764
0.000301352
0.000294885
0.000288249
0.00028146
0.000274533
0.000267479
0.000260311
0.000253035
0.000245661
0.000238195
0.000230642
0.000223008
0.0002153
0.000207522
0.000199678
0.000191766
0.000183783
0.000175719
0.000167567
0.000159315
0.000150946
0.000142446
0.000133809
0.00012506
0.000116282
0.000107673
9.95415e-05
9.2188e-05
8.59005e-05
8.08434e-05
7.70547e-05
7.45479e-05
7.32619e-05
7.33406e-05
7.41414e-05
7.53444e-05
7.67164e-05
7.80715e-05
7.92955e-05
8.03569e-05
8.12747e-05
8.20718e-05
8.27424e-05
2.95168e-05
3.04536e-05
3.16344e-05
3.36342e-05
3.52062e-05
3.70658e-05
3.81708e-05
3.86592e-05
3.85954e-05
3.79477e-05
3.69707e-05
3.79826e-05
5.49661e-05
0.00010635
0.00017615
0.000242035
0.000293495
0.000330025
0.000354937
0.000371784
0.000383274
0.00039122
0.000396779
0.000400668
0.00040333
0.000405035
0.000405948
0.000406174
0.000405785
0.000404833
0.000403358
0.000401393
0.000398971
0.000396119
0.000392863
0.000389225
0.000385227
0.000380887
0.000376218
0.000371234
0.000365952
0.000360385
0.000354547
0.000348449
0.000342102
0.000335513
0.000328693
0.00032166
0.000314428
0.000307014
0.00029943
0.000291687
0.000283796
0.000275766
0.000267604
0.00025932
0.000250921
0.000242416
0.000233808
0.000225101
0.000216292
0.000207373
0.000198338
0.000189173
0.000179859
0.00017037
0.000160684
0.000150793
0.000140731
0.000130624
0.000120716
0.000111309
0.000102819
9.56272e-05
8.99345e-05
8.59557e-05
8.42111e-05
8.38621e-05
8.44705e-05
8.57711e-05
8.74885e-05
8.93575e-05
9.11505e-05
9.27367e-05
9.41047e-05
9.52845e-05
9.62797e-05
9.70986e-05
9.78253e-05
9.84415e-05
3.1283e-05
3.23862e-05
3.36436e-05
3.55713e-05
3.70127e-05
3.86178e-05
3.95596e-05
3.99853e-05
3.99612e-05
3.94612e-05
3.84901e-05
3.86459e-05
4.7072e-05
8.27766e-05
0.000146391
0.00021734
0.000278512
0.000324801
0.000357878
0.000381152
0.000397647
0.000409547
0.000418304
0.000424854
0.000429793
0.000433495
0.000436196
0.000438047
0.000439149
0.000439571
0.000439368
0.000438578
0.00043724
0.000435385
0.000433042
0.000430235
0.000426988
0.000423321
0.000419249
0.000414786
0.00040995
0.000404753
0.000399211
0.000393337
0.000387139
0.000380628
0.000373815
0.000366716
0.000359348
0.000351729
0.000343872
0.000335792
0.000327501
0.000319011
0.000310331
0.000301472
0.000292443
0.000283257
0.000273917
0.000264432
0.000254799
0.000245014
0.000235072
0.000224962
0.000214665
0.000204151
0.00019339
0.000182355
0.000171043
0.000159511
0.000147904
0.000136462
0.000125635
0.00011607
0.000108342
0.000103231
0.00010033
9.89214e-05
9.88421e-05
9.98726e-05
0.000101725
0.000104078
0.000106573
0.000108892
0.00011091
0.000112651
0.000114145
0.000115404
0.000116458
0.000117329
3.32529e-05
3.43824e-05
3.5594e-05
3.73317e-05
3.85883e-05
3.98854e-05
4.06944e-05
4.10665e-05
4.1078e-05
4.07224e-05
3.99303e-05
3.96674e-05
4.26131e-05
6.33504e-05
0.000114216
0.000184164
0.000252904
0.000309364
0.000351941
0.000383093
0.00040589
0.000422828
0.00043568
0.000445635
0.00045348
0.000459724
0.000464696
0.000468612
0.000471613
0.000473797
0.000475236
0.000475979
0.000476074
0.000475556
0.000474457
0.000472806
0.000470627
0.000467943
0.00046477
0.000461124
0.000457022
0.000452477
0.000447506
0.00044212
0.000436331
0.000430148
0.000423582
0.000416649
0.000409367
0.000401753
0.000393826
0.000385598
0.000377085
0.0003683
0.000359255
0.000349962
0.000340432
0.000330678
0.000320707
0.000310526
0.000300138
0.00028954
0.000278726
0.00026769
0.000256413
0.000244867
0.000233016
0.000220828
0.000208275
0.000195361
0.000182142
0.000168752
0.000155576
0.000143458
0.000133727
0.000127093
0.000122324
0.000119191
0.000117784
0.000117973
0.000119512
0.000122106
0.000125329
0.000128621
0.000131558
0.000134058
0.000136241
0.000138163
0.000139748
0.000141014
3.52226e-05
3.628e-05
3.73663e-05
3.88524e-05
3.99091e-05
4.08816e-05
4.16125e-05
4.19373e-05
4.19785e-05
4.17638e-05
4.12067e-05
4.05392e-05
4.146e-05
5.18484e-05
8.48441e-05
0.000145266
0.000216547
0.000281956
0.0003348
0.000375251
0.000405809
0.000429081
0.000447121
0.000461397
0.000472921
0.00048237
0.000490195
0.000496697
0.000502076
0.000506471
0.000509977
0.000512664
0.000514587
0.000515792
0.000516315
0.000516188
0.000515439
0.000514092
0.000512166
0.000509678
0.000506644
0.000503079
0.000498998
0.000494414
0.000489339
0.000483781
0.000477751
0.000471265
0.000464341
0.000456997
0.000449252
0.000441121
0.000432622
0.000423768
0.000414574
0.000405052
0.000395217
0.00038508
0.000374651
0.000363939
0.000352947
0.000341673
0.000330113
0.000318261
0.000306102
0.000293603
0.000280733
0.000267451
0.000253719
0.000239506
0.000224805
0.000209652
0.000194302
0.000179633
0.000167617
0.000158632
0.000151435
0.000145947
0.000142438
0.000141005
0.000141491
0.000143681
0.000147285
0.000151664
0.000155892
0.00015942
0.000162393
0.000165181
0.000167614
0.000169527
3.70515e-05
3.79781e-05
3.8898e-05
4.01169e-05
4.09846e-05
4.17118e-05
4.2364e-05
4.2636e-05
4.27022e-05
4.26413e-05
4.2382e-05
4.16552e-05
4.17961e-05
4.56663e-05
6.38098e-05
0.00010659
0.00017195
0.000242
0.000304359
0.000355042
0.000394807
0.000425866
0.000450392
0.000470104
0.000486253
0.000499717
0.000511099
0.000520812
0.000529135
0.000536262
0.000542328
0.000547426
0.000551629
0.000554995
0.000557567
0.000559383
0.000560474
0.000560867
0.000560583
0.00055964
0.000558056
0.000555845
0.000553022
0.0005496
0.00054559
0.000541002
0.000535846
0.000530136
0.00052389
0.000517128
0.000509869
0.000502129
0.000493928
0.000485281
0.000476205
0.000466715
0.000456826
0.000446551
0.000435901
0.000424888
0.000413517
0.000401784
0.00038969
0.000377229
0.000364388
0.000351134
0.000337435
0.00032325
0.000308534
0.000293235
0.000277312
0.000260736
0.000243626
0.000226633
0.000211612
0.000199497
0.000189345
0.000180945
0.000174557
0.00017054
0.000168959
0.000169656
0.000172624
0.000177636
0.000183511
0.000188716
0.000192595
0.000195528
0.000197785
0.000199549
3.86594e-05
3.94294e-05
4.01719e-05
4.11397e-05
4.18431e-05
4.23967e-05
4.29767e-05
4.31911e-05
4.32855e-05
4.34265e-05
4.33863e-05
4.289e-05