/*--------------------------------*- C++ -*----------------------------------*\
| =========                 |                                                 |
| \\      /  F ield         | OpenFOAM: The Open Source CFD Toolbox           |
|  \\    /   O peration     | Version:  2412                                  |
|   \\  /    A nd           | Website:  www.openfoam.com                      |
|    \\/     M anipulation  |                                                 |
\*---------------------------------------------------------------------------*/
FoamFile
{
    version     2.0;
    format      ascii;
    arch        "LSB;label=32;scalar=64";
    class       volScalarField;
    location    "460";
    object      nut;
}
// * * * * * * * * * * * * * * * * * * * * * * * * * * * * * * * * * * * * * //

dimensions      [0 2 -1 0 0 0 0];

internalField   nonuniform List<scalar> 
8702
(
1.8893e-12
1.89987e-12
1.90995e-12
1.91948e-12
1.92853e-12
1.93729e-12
1.94588e-12
1.95411e-12
1.96214e-12
1.97019e-12
1.97813e-12
1.98579e-12
1.9931e-12
2.00011e-12
2.00665e-12
2.01288e-12
2.01862e-12
2.02403e-12
2.02936e-12
2.03423e-12
2.03885e-12
2.04341e-12
2.04776e-12
2.05198e-12
2.05624e-12
2.06034e-12
2.06424e-12
2.06807e-12
2.07169e-12
2.07491e-12
2.07792e-12
2.08065e-12
2.08289e-12
2.08487e-12
2.08649e-12
2.08752e-12
2.08836e-12
2.08888e-12
2.08899e-12
2.08879e-12
2.08814e-12
2.08706e-12
2.08548e-12
2.08337e-12
2.08092e-12
2.07795e-12
2.07441e-12
2.07023e-12
2.06547e-12
2.06001e-12
2.05387e-12
2.04724e-12
2.03995e-12
2.03203e-12
2.0235e-12
2.01448e-12
2.00481e-12
1.99455e-12
1.98385e-12
1.97297e-12
1.96173e-12
1.95012e-12
1.9385e-12
1.92707e-12
1.91605e-12
1.90529e-12
1.89495e-12
1.88475e-12
1.87493e-12
1.86706e-12
1.86258e-12
1.86164e-12
1.86142e-12
1.85964e-12
1.85461e-12
1.8502e-12
1.85656e-12
1.8787e-12
1.92438e-12
1.98716e-12
2.04344e-12
2.07945e-12
1.75563e-10
1.76587e-10
1.77562e-10
1.7849e-10
1.79373e-10
1.80222e-10
1.81045e-10
1.81844e-10
1.82623e-10
1.83395e-10
1.84153e-10
1.84887e-10
1.8559e-10
1.86261e-10
1.8689e-10
1.87488e-10
1.88045e-10
1.88566e-10
1.89068e-10
1.8954e-10
1.89993e-10
1.9043e-10
1.90854e-10
1.91266e-10
1.91678e-10
1.92076e-10
1.92457e-10
1.92831e-10
1.9318e-10
1.93498e-10
1.93791e-10
1.94056e-10
1.94281e-10
1.94472e-10
1.94634e-10
1.94753e-10
1.94843e-10
1.94903e-10
1.94928e-10
1.94921e-10
1.94874e-10
1.94784e-10
1.9465e-10
1.94471e-10
1.94255e-10
1.93984e-10
1.93662e-10
1.93282e-10
1.92848e-10
1.92358e-10
1.91804e-10
1.91192e-10
1.90517e-10
1.89786e-10
1.88997e-10
1.88153e-10
1.8725e-10
1.863e-10
1.85308e-10
1.84287e-10
1.83236e-10
1.82154e-10
1.81066e-10
1.79993e-10
1.78954e-10
1.77945e-10
1.76972e-10
1.76008e-10
1.75089e-10
1.74344e-10
1.739e-10
1.73773e-10
1.73725e-10
1.73558e-10
1.73109e-10
1.72709e-10
1.73259e-10
1.75227e-10
1.79288e-10
1.84885e-10
1.89976e-10
1.93314e-10
1.63087e-09
1.641e-09
1.65067e-09
1.65988e-09
1.66865e-09
1.67703e-09
1.68512e-09
1.693e-09
1.70069e-09
1.70824e-09
1.71564e-09
1.72282e-09
1.7297e-09
1.73626e-09
1.74241e-09
1.74823e-09
1.7537e-09
1.75882e-09
1.76369e-09
1.76835e-09
1.77282e-09
1.77712e-09
1.78132e-09
1.78543e-09
1.78949e-09
1.79344e-09
1.79726e-09
1.80096e-09
1.80444e-09
1.80768e-09
1.81062e-09
1.81326e-09
1.81559e-09
1.81757e-09
1.81925e-09
1.8206e-09
1.82163e-09
1.82234e-09
1.82276e-09
1.82288e-09
1.82262e-09
1.82196e-09
1.82089e-09
1.81944e-09
1.81758e-09
1.81522e-09
1.81237e-09
1.80899e-09
1.8051e-09
1.80068e-09
1.79569e-09
1.7901e-09
1.78391e-09
1.7772e-09
1.76993e-09
1.76209e-09
1.75371e-09
1.7449e-09
1.73568e-09
1.72614e-09
1.71631e-09
1.70621e-09
1.69601e-09
1.68592e-09
1.67613e-09
1.66666e-09
1.65746e-09
1.64839e-09
1.63979e-09
1.6327e-09
1.62821e-09
1.6265e-09
1.62572e-09
1.62411e-09
1.62021e-09
1.61671e-09
1.62126e-09
1.63806e-09
1.67278e-09
1.72091e-09
1.76582e-09
1.79656e-09
7.48039e-09
7.53106e-09
7.57943e-09
7.62537e-09
7.66906e-09
7.7108e-09
7.75091e-09
7.78991e-09
7.82795e-09
7.86516e-09
7.9015e-09
7.93672e-09
7.97046e-09
8.00259e-09
8.03282e-09
8.06137e-09
8.08823e-09
8.11348e-09
8.13752e-09
8.1605e-09
8.18252e-09
8.2038e-09
8.22469e-09
8.24521e-09
8.2654e-09
8.28512e-09
8.3043e-09
8.32279e-09
8.34034e-09
8.35676e-09
8.37167e-09
8.38521e-09
8.39726e-09
8.40768e-09
8.41663e-09
8.42408e-09
8.43005e-09
8.43453e-09
8.43766e-09
8.43933e-09
8.43925e-09
8.43738e-09
8.43373e-09
8.42825e-09
8.42081e-09
8.41116e-09
8.39919e-09
8.38475e-09
8.36791e-09
8.3485e-09
8.32643e-09
8.30159e-09
8.27393e-09
8.24366e-09
8.21065e-09
8.17499e-09
8.13681e-09
8.09641e-09
8.05407e-09
8.01008e-09
7.96467e-09
7.91803e-09
7.87081e-09
7.82385e-09
7.77808e-09
7.73381e-09
7.69081e-09
7.64857e-09
7.60851e-09
7.57479e-09
7.55192e-09
7.54108e-09
7.53524e-09
7.52703e-09
7.5105e-09
7.49582e-09
7.51341e-09
7.58194e-09
7.72348e-09
7.92109e-09
8.11169e-09
8.24933e-09
2.40742e-08
2.42547e-08
2.44269e-08
2.45903e-08
2.47456e-08
2.48934e-08
2.5035e-08
2.51723e-08
2.53058e-08
2.54361e-08
2.55629e-08
2.56854e-08
2.58027e-08
2.59145e-08
2.60203e-08
2.61199e-08
2.62135e-08
2.63018e-08
2.63861e-08
2.64664e-08
2.65436e-08
2.66185e-08
2.66922e-08
2.67646e-08
2.6836e-08
2.69059e-08
2.69739e-08
2.70398e-08
2.71025e-08
2.71612e-08
2.72151e-08
2.72643e-08
2.73083e-08
2.7347e-08
2.73809e-08
2.74097e-08
2.74337e-08
2.74531e-08
2.74678e-08
2.74778e-08
2.74822e-08
2.7481e-08
2.74742e-08
2.74614e-08
2.74422e-08
2.74159e-08
2.73819e-08
2.73402e-08
2.72906e-08
2.72323e-08
2.7165e-08
2.70886e-08
2.70026e-08
2.69077e-08
2.68036e-08
2.66905e-08
2.65687e-08
2.64393e-08
2.6303e-08
2.61608e-08
2.60138e-08
2.58625e-08
2.57088e-08
2.55554e-08
2.54049e-08
2.5259e-08
2.51171e-08
2.49782e-08
2.48461e-08
2.47323e-08
2.46499e-08
2.46029e-08
2.45741e-08
2.45429e-08
2.44932e-08
2.44501e-08
2.44946e-08
2.46832e-08
2.50731e-08
2.56209e-08
2.61699e-08
2.65912e-08
6.23313e-08
6.28538e-08
6.33524e-08
6.3825e-08
6.42731e-08
6.46985e-08
6.51046e-08
6.54967e-08
6.5877e-08
6.62469e-08
6.66056e-08
6.69513e-08
6.72822e-08
6.75983e-08
6.78972e-08
6.81788e-08
6.84439e-08
6.86945e-08
6.89334e-08
6.91611e-08
6.93803e-08
6.95935e-08
6.98032e-08
7.00099e-08
7.02137e-08
7.04139e-08
7.06089e-08
7.07979e-08
7.09781e-08
7.11472e-08
7.13037e-08
7.14469e-08
7.15764e-08
7.1692e-08
7.17942e-08
7.18828e-08
7.19589e-08
7.20228e-08
7.20744e-08
7.21137e-08
7.21391e-08
7.21507e-08
7.2148e-08
7.21299e-08
7.20956e-08
7.20427e-08
7.19706e-08
7.18781e-08
7.17644e-08
7.16277e-08
7.14668e-08
7.1281e-08
7.10695e-08
7.0833e-08
7.05716e-08
7.02854e-08
6.99752e-08
6.96434e-08
6.92921e-08
6.89237e-08
6.85413e-08
6.81466e-08
6.7744e-08
6.73402e-08
6.6942e-08
6.65534e-08
6.61749e-08
6.58048e-08
6.54521e-08
6.51409e-08
6.49001e-08
6.47407e-08
6.46323e-08
6.45318e-08
6.44056e-08
6.43014e-08
6.43818e-08
6.47788e-08
6.56027e-08
6.67662e-08
6.79816e-08
6.89783e-08
1.389e-07
1.4021e-07
1.41461e-07
1.42644e-07
1.43764e-07
1.44823e-07
1.45832e-07
1.46801e-07
1.47739e-07
1.48647e-07
1.49524e-07
1.50367e-07
1.51175e-07
1.51945e-07
1.52675e-07
1.53363e-07
1.54012e-07
1.54626e-07
1.5521e-07
1.55768e-07
1.56305e-07
1.56827e-07
1.57341e-07
1.57848e-07
1.58348e-07
1.58839e-07
1.59317e-07
1.59781e-07
1.60224e-07
1.60641e-07
1.61027e-07
1.61383e-07
1.61706e-07
1.61997e-07
1.62257e-07
1.62487e-07
1.62688e-07
1.62862e-07
1.63008e-07
1.63126e-07
1.63217e-07
1.63278e-07
1.63308e-07
1.63306e-07
1.6327e-07
1.63194e-07
1.63075e-07
1.62911e-07
1.62699e-07
1.62434e-07
1.62114e-07
1.61735e-07
1.61296e-07
1.60798e-07
1.60241e-07
1.59625e-07
1.58951e-07
1.58225e-07
1.57451e-07
1.56634e-07
1.55781e-07
1.54898e-07
1.53992e-07
1.53078e-07
1.5217e-07
1.51277e-07
1.50405e-07
1.49553e-07
1.48737e-07
1.48e-07
1.47393e-07
1.46941e-07
1.46605e-07
1.46315e-07
1.46018e-07
1.45788e-07
1.45882e-07
1.46551e-07
1.47956e-07
1.4994e-07
1.52108e-07
1.54018e-07
2.7676e-07
2.79707e-07
2.8252e-07
2.85179e-07
2.87688e-07
2.90053e-07
2.92297e-07
2.94447e-07
2.96517e-07
2.98513e-07
3.00435e-07
3.02277e-07
3.04039e-07
3.05718e-07
3.07312e-07
3.08818e-07
3.10237e-07
3.1158e-07
3.12857e-07
3.14076e-07
3.15249e-07
3.16389e-07
3.17509e-07
3.18614e-07
3.19702e-07
3.20769e-07
3.21808e-07
3.22813e-07
3.23773e-07
3.24675e-07
3.25514e-07
3.26288e-07
3.26993e-07
3.27633e-07
3.28208e-07
3.28724e-07
3.29182e-07
3.29584e-07
3.29933e-07
3.30229e-07
3.30473e-07
3.30663e-07
3.30799e-07
3.30878e-07
3.30894e-07
3.30836e-07
3.30695e-07
3.30466e-07
3.3014e-07
3.29709e-07
3.29163e-07
3.28496e-07
3.27705e-07
3.26788e-07
3.25744e-07
3.24576e-07
3.23286e-07
3.21882e-07
3.20371e-07
3.18764e-07
3.17074e-07
3.15314e-07
3.13501e-07
3.11657e-07
3.09808e-07
3.07975e-07
3.06174e-07
3.04413e-07
3.0272e-07
3.01153e-07
2.99791e-07
2.98675e-07
2.97781e-07
2.97021e-07
2.96342e-07
2.95845e-07
2.95847e-07
2.96736e-07
2.98676e-07
3.01387e-07
3.04496e-07
3.07469e-07
5.04826e-07
5.10893e-07
5.16691e-07
5.22163e-07
5.27315e-07
5.32152e-07
5.36723e-07
5.41085e-07
5.45268e-07
5.49284e-07
5.53133e-07
5.56811e-07
5.60323e-07
5.6367e-07
5.6685e-07
5.69858e-07
5.72694e-07
5.75374e-07
5.7792e-07
5.80345e-07
5.82674e-07
5.84936e-07
5.87151e-07
5.89327e-07
5.91466e-07
5.93558e-07
5.95591e-07
5.97548e-07
5.99411e-07
6.01161e-07
6.02786e-07
6.04284e-07
6.05654e-07
6.06899e-07
6.08027e-07
6.0904e-07
6.09949e-07
6.1076e-07
6.11477e-07
6.12106e-07
6.1265e-07
6.13109e-07
6.13486e-07
6.13777e-07
6.13972e-07
6.14047e-07
6.13983e-07
6.13764e-07
6.13371e-07
6.12783e-07
6.11983e-07
6.10956e-07
6.09694e-07
6.08191e-07
6.06444e-07
6.04455e-07
6.02231e-07
5.9978e-07
5.97113e-07
5.9425e-07
5.91215e-07
5.8803e-07
5.84725e-07
5.81337e-07
5.77908e-07
5.74475e-07
5.71075e-07
5.67739e-07
5.64509e-07
5.61458e-07
5.5868e-07
5.56226e-07
5.54128e-07
5.52324e-07
5.50812e-07
5.49729e-07
5.49356e-07
5.50168e-07
5.52197e-07
5.54921e-07
5.58233e-07
5.61792e-07
8.56185e-07
8.67777e-07
8.78873e-07
8.89335e-07
8.99162e-07
9.08346e-07
9.16993e-07
9.2521e-07
9.33058e-07
9.40557e-07
9.47709e-07
9.54518e-07
9.61002e-07
9.67178e-07
9.73049e-07
9.78608e-07
9.83854e-07
9.88802e-07
9.93488e-07
9.97941e-07
1.0022e-06
1.00632e-06
1.01034e-06
1.01427e-06
1.01811e-06
1.02185e-06
1.02546e-06
1.02892e-06
1.0322e-06
1.03526e-06
1.0381e-06
1.0407e-06
1.04308e-06
1.04524e-06
1.04719e-06
1.04895e-06
1.05054e-06
1.05196e-06
1.05324e-06
1.05439e-06
1.05542e-06
1.05634e-06
1.05716e-06
1.05788e-06
1.05848e-06
1.05892e-06
1.05914e-06
1.05912e-06
1.05882e-06
1.05819e-06
1.05719e-06
1.05581e-06
1.05402e-06
1.0518e-06
1.04916e-06
1.04608e-06
1.04258e-06
1.03867e-06
1.03436e-06
1.02968e-06
1.02466e-06
1.01936e-06
1.01381e-06
1.00807e-06
1.00219e-06
9.96247e-07
9.90302e-07
9.84433e-07
9.7871e-07
9.73199e-07
9.67985e-07
9.63106e-07
9.58697e-07
9.54802e-07
9.51571e-07
9.49236e-07
9.47874e-07
9.47902e-07
9.48966e-07
9.50066e-07
9.51649e-07
9.54082e-07
9.58826e-07
1.36488e-06
1.38561e-06
1.40552e-06
1.42429e-06
1.44189e-06
1.45825e-06
1.47359e-06
1.48811e-06
1.50192e-06
1.51505e-06
1.5275e-06
1.53931e-06
1.55051e-06
1.56117e-06
1.57131e-06
1.58091e-06
1.58997e-06
1.59849e-06
1.60653e-06
1.61414e-06
1.62138e-06
1.62833e-06
1.63507e-06
1.64162e-06
1.64797e-06
1.65411e-06
1.65999e-06
1.66556e-06
1.67079e-06
1.67564e-06
1.6801e-06
1.68416e-06
1.68784e-06
1.69116e-06
1.69415e-06
1.69684e-06
1.69925e-06
1.70143e-06
1.7034e-06
1.7052e-06
1.70687e-06
1.70843e-06
1.70993e-06
1.71136e-06
1.71267e-06
1.7138e-06
1.71466e-06
1.71517e-06
1.71525e-06
1.71484e-06
1.71385e-06
1.71225e-06
1.70998e-06
1.70703e-06
1.70336e-06
1.69899e-06
1.69392e-06
1.68816e-06
1.68172e-06
1.67463e-06
1.66695e-06
1.65874e-06
1.65007e-06
1.64101e-06
1.63164e-06
1.62204e-06
1.61233e-06
1.60267e-06
1.59317e-06
1.58387e-06
1.5748e-06
1.56592e-06
1.55751e-06
1.54984e-06
1.54336e-06
1.53853e-06
1.53503e-06
1.53297e-06
1.53125e-06
1.52799e-06
1.52439e-06
1.52221e-06
1.52275e-06
2.06166e-06
2.09656e-06
2.13027e-06
2.16211e-06
2.19194e-06
2.21949e-06
2.24524e-06
2.26952e-06
2.2925e-06
2.31422e-06
2.33472e-06
2.35404e-06
2.37231e-06
2.38966e-06
2.40615e-06
2.42177e-06
2.43647e-06
2.45028e-06
2.46324e-06
2.47541e-06
2.48691e-06
2.49786e-06
2.50838e-06
2.51849e-06
2.5282e-06
2.53747e-06
2.54623e-06
2.55443e-06
2.56202e-06
2.56895e-06
2.57522e-06
2.58085e-06
2.58588e-06
2.59035e-06
2.59431e-06
2.59781e-06
2.60092e-06
2.6037e-06
2.60624e-06
2.6086e-06
2.61088e-06
2.61314e-06
2.61545e-06
2.61782e-06
2.62019e-06
2.62241e-06
2.62433e-06
2.62581e-06
2.62669e-06
2.62687e-06
2.62621e-06
2.62464e-06
2.62208e-06
2.61847e-06
2.6138e-06
2.60803e-06
2.60119e-06
2.59328e-06
2.5843e-06
2.57427e-06
2.56325e-06
2.55136e-06
2.53867e-06
2.52527e-06
2.51124e-06
2.4967e-06
2.48183e-06
2.46687e-06
2.45201e-06
2.43726e-06
2.42252e-06
2.40761e-06
2.39293e-06
2.37908e-06
2.36701e-06
2.35762e-06
2.35008e-06
2.34386e-06
2.33671e-06
2.32533e-06
2.31161e-06
2.29932e-06
2.29049e-06
2.96963e-06
3.02507e-06
3.07922e-06
3.13058e-06
3.17874e-06
3.22297e-06
3.26415e-06
3.30282e-06
3.33925e-06
3.37351e-06
3.40562e-06
3.43571e-06
3.46403e-06
3.49085e-06
3.5163e-06
3.54037e-06
3.56299e-06
3.58415e-06
3.60387e-06
3.62223e-06
3.6394e-06
3.65557e-06
3.6709e-06
3.68545e-06
3.6992e-06
3.71211e-06
3.72408e-06
3.73505e-06
3.74495e-06
3.75378e-06
3.76155e-06
3.76832e-06
3.77416e-06
3.77917e-06
3.78343e-06
3.78704e-06
3.79012e-06
3.7928e-06
3.79523e-06
3.79759e-06
3.80002e-06
3.80268e-06
3.80566e-06
3.80899e-06
3.81257e-06
3.81617e-06
3.8195e-06
3.82231e-06
3.82438e-06
3.8255e-06
3.82549e-06
3.82421e-06
3.82154e-06
3.81741e-06
3.81176e-06
3.80457e-06
3.79583e-06
3.78555e-06
3.7737e-06
3.76029e-06
3.74538e-06
3.72909e-06
3.71153e-06
3.6928e-06
3.67298e-06
3.65218e-06
3.63066e-06
3.60876e-06
3.58679e-06
3.5647e-06
3.54222e-06
3.51892e-06
3.49524e-06
3.47218e-06
3.45139e-06
3.43446e-06
3.42005e-06
3.40676e-06
3.39076e-06
3.36679e-06
3.33704e-06
3.30755e-06
3.28217e-06
4.10159e-06
4.18469e-06
4.26736e-06
4.34646e-06
4.42097e-06
4.48903e-06
4.55219e-06
4.61132e-06
4.66675e-06
4.71857e-06
4.76684e-06
4.81177e-06
4.85382e-06
4.89346e-06
4.93099e-06
4.96642e-06
4.99962e-06
5.03049e-06
5.059e-06
5.08526e-06
5.10949e-06
5.13197e-06
5.15294e-06
5.17248e-06
5.19056e-06
5.20711e-06
5.22202e-06
5.23521e-06
5.24665e-06
5.25636e-06
5.26443e-06
5.27097e-06
5.27614e-06
5.28009e-06
5.28299e-06
5.285e-06
5.28634e-06
5.28726e-06
5.28806e-06
5.28904e-06
5.29046e-06
5.29256e-06
5.2955e-06
5.2993e-06
5.30379e-06
5.3086e-06
5.31327e-06
5.31742e-06
5.32068e-06
5.32274e-06
5.32334e-06
5.32229e-06
5.31942e-06
5.31463e-06
5.30784e-06
5.299e-06
5.28809e-06
5.27512e-06
5.26004e-06
5.24279e-06
5.22341e-06
5.20205e-06
5.17882e-06
5.15384e-06
5.12715e-06
5.09885e-06
5.06921e-06
5.03874e-06
5.00784e-06
4.97645e-06
4.94407e-06
4.90991e-06
4.87433e-06
4.8387e-06
4.80547e-06
4.77724e-06
4.75225e-06
4.72814e-06
4.69934e-06
4.65814e-06
4.60636e-06
4.55204e-06
4.50155e-06
5.46091e-06
5.5778e-06
5.69771e-06
5.81428e-06
5.92517e-06
6.02613e-06
6.1197e-06
6.20707e-06
6.28861e-06
6.3644e-06
6.43451e-06
6.49933e-06
6.5596e-06
6.61611e-06
6.66941e-06
6.71958e-06
6.7664e-06
6.80963e-06
6.84912e-06
6.88498e-06
6.91751e-06
6.94712e-06
6.97413e-06
6.99868e-06
7.02074e-06
7.04018e-06
7.05689e-06
7.07078e-06
7.08187e-06
7.09028e-06
7.0962e-06
7.09986e-06
7.10152e-06
7.10144e-06
7.09992e-06
7.09723e-06
7.09375e-06
7.08994e-06
7.08633e-06
7.08343e-06
7.08167e-06
7.08134e-06
7.08263e-06
7.0855e-06
7.08968e-06
7.09463e-06
7.09966e-06
7.1042e-06
7.10772e-06
7.10978e-06
7.11005e-06
7.10828e-06
7.10427e-06
7.09788e-06
7.08902e-06
7.07761e-06
7.06365e-06
7.04712e-06
7.02795e-06
7.00602e-06
6.98131e-06
6.95394e-06
6.92407e-06
6.89178e-06
6.85706e-06
6.81997e-06
6.7808e-06
6.74011e-06
6.69847e-06
6.65582e-06
6.61144e-06
6.56409e-06
6.51387e-06
6.4624e-06
6.4129e-06
6.36914e-06
6.32928e-06
6.29007e-06
6.24427e-06
6.18162e-06
6.10275e-06
6.01691e-06
5.93291e-06
7.04815e-06
7.20047e-06
7.36492e-06
7.52913e-06
7.68822e-06
7.83321e-06
7.96786e-06
8.09353e-06
8.21036e-06
8.31833e-06
8.41757e-06
8.50866e-06
8.59275e-06
8.67111e-06
8.74467e-06
8.81365e-06
8.8777e-06
8.93633e-06
8.98923e-06
9.03644e-06
9.07836e-06
9.11558e-06
9.14859e-06
9.17757e-06
9.20249e-06
9.2232e-06
9.23953e-06
9.25143e-06
9.25899e-06
9.2625e-06
9.26231e-06
9.25882e-06
9.25248e-06
9.24371e-06
9.23298e-06
9.22077e-06
9.20772e-06
9.19461e-06
9.18233e-06
9.17169e-06
9.16326e-06
9.15738e-06
9.15413e-06
9.15334e-06
9.15456e-06
9.15703e-06
9.15983e-06
9.16215e-06
9.16328e-06
9.16266e-06
9.15991e-06
9.15474e-06
9.14694e-06
9.13636e-06
9.12289e-06
9.10649e-06
9.08715e-06
9.06485e-06
9.0395e-06
9.01093e-06
8.97902e-06
8.94384e-06
8.90555e-06
8.86422e-06
8.81979e-06
8.77223e-06
8.72176e-06
8.66901e-06
8.61466e-06
8.55869e-06
8.50021e-06
8.43752e-06
8.37028e-06
8.30012e-06
8.23085e-06
8.16746e-06
8.10832e-06
8.04958e-06
7.98277e-06
7.89537e-06
7.78616e-06
7.66447e-06
7.54073e-06
8.87603e-06
9.0541e-06
9.26456e-06
9.48439e-06
9.70425e-06
9.90628e-06
1.00955e-05
1.02726e-05
1.04369e-05
1.05879e-05
1.07258e-05
1.08516e-05
1.09668e-05
1.10735e-05
1.11731e-05
1.12661e-05
1.1352e-05
1.143e-05
1.14995e-05
1.15602e-05
1.16128e-05
1.1658e-05
1.16967e-05
1.1729e-05
1.17551e-05
1.17747e-05
1.17875e-05
1.17936e-05
1.17932e-05
1.17867e-05
1.17748e-05
1.17582e-05
1.17376e-05
1.17136e-05
1.1687e-05
1.16586e-05
1.16294e-05
1.16007e-05
1.15738e-05
1.15501e-05
1.153e-05
1.15139e-05
1.15016e-05
1.14925e-05
1.1486e-05
1.14811e-05
1.14766e-05
1.14715e-05
1.14649e-05
1.14561e-05
1.14448e-05
1.14308e-05
1.14137e-05
1.13935e-05
1.13702e-05
1.13437e-05
1.1314e-05
1.12812e-05
1.12452e-05
1.12057e-05
1.11626e-05
1.11159e-05
1.10656e-05
1.10119e-05
1.09546e-05
1.08936e-05
1.0829e-05
1.07614e-05
1.06917e-05
1.06198e-05
1.05447e-05
1.04644e-05
1.03779e-05
1.02867e-05
1.01947e-05
1.01081e-05
1.00257e-05
9.94334e-06
9.85203e-06
9.73777e-06
9.59721e-06
9.43855e-06
9.27255e-06
9.09797e-06
1.11664e-05
1.141e-05
1.16856e-05
1.19765e-05
1.22494e-05
1.25097e-05
1.2756e-05
1.29845e-05
1.31936e-05
1.33833e-05
1.35551e-05
1.37115e-05
1.38554e-05
1.39891e-05
1.41134e-05
1.42279e-05
1.43311e-05
1.44217e-05
1.44995e-05
1.4565e-05
1.46194e-05
1.46638e-05
1.46987e-05
1.47242e-05
1.47399e-05
1.47456e-05
1.47414e-05
1.47274e-05
1.47047e-05
1.46742e-05
1.46369e-05
1.45939e-05
1.45464e-05
1.44954e-05
1.44423e-05
1.43888e-05
1.43366e-05
1.42878e-05
1.42439e-05
1.42056e-05
1.41727e-05
1.41446e-05
1.41202e-05
1.40983e-05
1.40779e-05
1.40576e-05
1.40361e-05
1.40125e-05
1.39862e-05
1.39567e-05
1.3924e-05
1.3888e-05
1.38486e-05
1.38059e-05
1.376e-05
1.37109e-05
1.36587e-05
1.36036e-05
1.35451e-05
1.34831e-05
1.34174e-05
1.33482e-05
1.32755e-05
1.31992e-05
1.31191e-05
1.30352e-05
1.2948e-05
1.28582e-05
1.27662e-05
1.26707e-05
1.25696e-05
1.24611e-05
1.23464e-05
1.22292e-05
1.21163e-05
1.20071e-05
1.18976e-05
1.17791e-05
1.16369e-05
1.1466e-05
1.12725e-05
1.10661e-05
1.08557e-05
1.06718e-05
1.05535e-05
1.36265e-05
1.38602e-05
1.41721e-05
1.4535e-05
1.48904e-05
1.52413e-05
1.55804e-05
1.58972e-05
1.61865e-05
1.64471e-05
1.66815e-05
1.68934e-05
1.70871e-05
1.72663e-05
1.74327e-05
1.75857e-05
1.77232e-05
1.78433e-05
1.79447e-05
1.80282e-05
1.80951e-05
1.81472e-05
1.81854e-05
1.82097e-05
1.82199e-05
1.82155e-05
1.81965e-05
1.81635e-05
1.81176e-05
1.80606e-05
1.79939e-05
1.79194e-05
1.78386e-05
1.77535e-05
1.7666e-05
1.75785e-05
1.74937e-05
1.74141e-05
1.73416e-05
1.72764e-05
1.72179e-05
1.71644e-05
1.71142e-05
1.70656e-05
1.70173e-05
1.69679e-05
1.69162e-05
1.68612e-05
1.68023e-05
1.67394e-05
1.66726e-05
1.6602e-05
1.65278e-05
1.64502e-05
1.63694e-05
1.62857e-05
1.61993e-05
1.61104e-05
1.60188e-05
1.59243e-05
1.58266e-05
1.57259e-05
1.56224e-05
1.55158e-05
1.54061e-05
1.52931e-05
1.51771e-05
1.50591e-05
1.49394e-05
1.4817e-05
1.46893e-05
1.45544e-05
1.44123e-05
1.42665e-05
1.41239e-05
1.39845e-05
1.38448e-05
1.36967e-05
1.35263e-05
1.33271e-05
1.31028e-05
1.28611e-05
1.26153e-05
1.23949e-05
1.22223e-05
1.6639e-05
1.67645e-05
1.70526e-05
1.74635e-05
1.79028e-05
1.83642e-05
1.88272e-05
1.9268e-05
1.96718e-05
2.00337e-05
2.03561e-05
2.0645e-05
2.09073e-05
2.11488e-05
2.13728e-05
2.15794e-05
2.17661e-05
2.19292e-05
2.20666e-05
2.21784e-05
2.22664e-05
2.23328e-05
2.23791e-05
2.24055e-05
2.24116e-05
2.23966e-05
2.23607e-05
2.23045e-05
2.22298e-05
2.21389e-05
2.20344e-05
2.19188e-05
2.17948e-05
2.16652e-05
2.15331e-05
2.14017e-05
2.12744e-05
2.11542e-05
2.10428e-05
2.09398e-05
2.08435e-05
2.07513e-05
2.06604e-05
2.05687e-05
2.04746e-05
2.03768e-05
2.02744e-05
2.01667e-05
2.00532e-05
1.99341e-05
1.98098e-05
1.9681e-05
1.95483e-05
1.9412e-05
1.92726e-05
1.91305e-05
1.89863e-05
1.88402e-05
1.86926e-05
1.85431e-05
1.83916e-05
1.82383e-05
1.80834e-05
1.79272e-05
1.77694e-05
1.761e-05
1.74492e-05
1.72882e-05
1.71274e-05
1.69663e-05
1.68022e-05
1.66322e-05
1.64558e-05
1.62754e-05
1.60978e-05
1.59236e-05
1.57497e-05
1.55691e-05
1.5369e-05
1.51425e-05
1.48912e-05
1.46202e-05
1.43432e-05
1.40881e-05
1.38723e-05
2.06091e-05
2.04352e-05
2.05647e-05
2.0943e-05
2.14396e-05
2.20238e-05
2.26485e-05
2.32655e-05
2.38397e-05
2.43544e-05
2.48084e-05
2.52104e-05
2.55711e-05
2.59004e-05
2.62051e-05
2.64874e-05
2.6745e-05
2.69731e-05
2.71674e-05
2.7327e-05
2.74534e-05
2.75495e-05
2.76172e-05
2.76567e-05
2.76674e-05
2.76481e-05
2.75986e-05
2.75199e-05
2.74143e-05
2.72853e-05
2.71366e-05
2.69723e-05
2.67966e-05
2.66137e-05
2.64279e-05
2.62433e-05
2.60639e-05
2.58923e-05
2.57297e-05
2.55746e-05
2.54242e-05
2.52747e-05
2.51224e-05
2.49645e-05
2.47995e-05
2.46264e-05
2.44447e-05
2.4254e-05
2.40545e-05
2.38465e-05
2.36314e-05
2.34103e-05
2.31843e-05
2.29542e-05
2.27207e-05
2.24846e-05
2.22466e-05
2.20076e-05
2.17683e-05
2.15287e-05
2.12888e-05
2.10488e-05
2.08094e-05
2.05714e-05
2.03349e-05
2.00998e-05
1.98669e-05
1.96375e-05
1.94131e-05
1.91936e-05
1.89762e-05
1.87568e-05
1.85333e-05
1.83072e-05
1.8085e-05
1.78676e-05
1.76526e-05
1.74337e-05
1.71983e-05
1.69401e-05
1.66602e-05
1.63615e-05
1.60563e-05
1.57728e-05
1.553e-05
2.6266e-05
2.54592e-05
2.5177e-05
2.53343e-05
2.57932e-05
2.64872e-05
2.73114e-05
2.81765e-05
2.9012e-05
2.97716e-05
3.0439e-05
3.10213e-05
3.15352e-05
3.19969e-05
3.24194e-05
3.28106e-05
3.31713e-05
3.34969e-05
3.37809e-05
3.40202e-05
3.42155e-05
3.437e-05
3.44861e-05
3.45637e-05
3.46009e-05
3.45957e-05
3.4547e-05
3.44561e-05
3.4326e-05
3.41615e-05
3.39683e-05
3.37526e-05
3.35207e-05
3.32789e-05
3.30328e-05
3.27875e-05
3.25464e-05
3.23115e-05
3.20822e-05
3.1856e-05
3.16288e-05
3.1396e-05
3.11533e-05
3.08976e-05
3.06272e-05
3.03417e-05
3.00415e-05
2.97266e-05
2.93974e-05
2.90555e-05
2.87026e-05
2.83409e-05
2.79721e-05
2.75976e-05
2.72183e-05
2.68355e-05
2.64506e-05
2.60647e-05
2.56797e-05
2.52962e-05
2.49141e-05
2.45341e-05
2.41578e-05
2.3787e-05
2.34223e-05
2.30643e-05
2.27145e-05
2.23758e-05
2.20516e-05
2.17434e-05
2.14468e-05
2.1155e-05
2.08634e-05
2.05723e-05
2.02883e-05
2.00128e-05
1.97437e-05
1.94733e-05
1.91866e-05
1.88788e-05
1.85543e-05
1.8216e-05
1.78759e-05
1.75676e-05
1.73182e-05
1.70944e-05
1.69991e-05
1.68987e-05
3.48045e-05
3.28488e-05
3.17475e-05
3.13468e-05
3.15326e-05
3.2266e-05
3.33215e-05
3.45319e-05
3.57747e-05
3.69492e-05
3.79959e-05
3.89037e-05
3.96923e-05
4.03874e-05
4.10107e-05
4.15792e-05
4.21033e-05
4.25831e-05
4.30123e-05
4.33851e-05
4.37008e-05
4.39627e-05
4.41739e-05
4.43343e-05
4.44396e-05
4.44845e-05
4.44664e-05
4.43857e-05
4.42466e-05
4.40556e-05
4.3821e-05
4.35523e-05
4.3259e-05
4.295e-05
4.26327e-05
4.23126e-05
4.19924e-05
4.16718e-05
4.13484e-05
4.10182e-05
4.06766e-05
4.03188e-05
3.99408e-05
3.95393e-05
3.91124e-05
3.86603e-05
3.81846e-05
3.76859e-05
3.71654e-05
3.66244e-05
3.60662e-05
3.54936e-05
3.49094e-05
3.43151e-05
3.37125e-05
3.31038e-05
3.24911e-05
3.18767e-05
3.12635e-05
3.06529e-05
3.0045e-05
2.94415e-05
2.8846e-05
2.82615e-05
2.76902e-05
2.71339e-05
2.65961e-05
2.60841e-05
2.56064e-05
2.51664e-05
2.47548e-05
2.43576e-05
2.39655e-05
2.35781e-05
2.32039e-05
2.28439e-05
2.2496e-05
2.21462e-05
2.17689e-05
2.13647e-05
2.09482e-05
2.05284e-05
2.0123e-05
1.97821e-05
1.95519e-05
1.94629e-05
1.95568e-05
1.96495e-05
4.03724e-05
3.99238e-05
4.05992e-05
4.20687e-05
4.39288e-05
4.59811e-05
4.80522e-05
5.00038e-05
5.17713e-05
5.33514e-05
5.47683e-05
5.60419e-05
5.71839e-05
5.82048e-05
5.91133e-05
5.99121e-05
6.06025e-05
6.11922e-05
6.16924e-05
6.21123e-05
6.24592e-05
6.2729e-05
6.29121e-05
6.29989e-05
6.29872e-05
6.28798e-05
6.26835e-05
6.24069e-05
6.20602e-05
6.16534e-05
6.1196e-05
6.06955e-05
6.01575e-05
5.95855e-05
5.89814e-05
5.83452e-05
5.76762e-05
5.6974e-05
5.62394e-05
5.54729e-05
5.46759e-05
5.38497e-05
5.29946e-05
5.21116e-05
5.12037e-05
5.02729e-05
4.93208e-05
4.83492e-05
4.73625e-05
4.63646e-05
4.53558e-05
4.4341e-05
4.33236e-05
4.23066e-05
4.12926e-05
4.02844e-05
3.92833e-05
3.829e-05
3.73078e-05
3.63429e-05
3.54006e-05
3.44845e-05
3.3599e-05
3.27532e-05
3.19654e-05
3.12558e-05
3.06271e-05
3.00525e-05
2.95008e-05
2.89563e-05
2.842e-05
2.79065e-05
2.74135e-05
2.69364e-05
2.64453e-05
2.5889e-05
2.52892e-05
2.4681e-05
2.40828e-05
2.35409e-05
2.31505e-05
2.29993e-05
2.31495e-05
2.3714e-05
2.4458e-05
5.52599e-05
5.48216e-05
5.56119e-05
5.73742e-05
5.98445e-05
6.28058e-05
6.60093e-05
6.91715e-05
7.2107e-05
7.47497e-05
7.71153e-05
7.92377e-05
8.11303e-05
8.28012e-05
8.42678e-05
8.55511e-05
8.66616e-05
8.76162e-05
8.8441e-05
8.91602e-05
8.97877e-05
9.03199e-05
9.07421e-05
9.10389e-05
9.12012e-05
9.12285e-05
9.11269e-05
9.09056e-05
9.05756e-05
9.01475e-05
8.96316e-05
8.90361e-05
8.83665e-05
8.76265e-05
8.68181e-05
8.59426e-05
8.50008e-05
8.39955e-05
8.29311e-05
8.18134e-05
8.06479e-05
7.94381e-05
7.81856e-05
7.68908e-05
7.55552e-05
7.41813e-05
7.27724e-05
7.13314e-05
6.98607e-05
6.83666e-05
6.68544e-05
6.53283e-05
6.37929e-05
6.2252e-05
6.0709e-05
5.91659e-05
5.76255e-05
5.60892e-05
5.45616e-05
5.30551e-05
5.15762e-05
5.01291e-05
4.87165e-05
4.73434e-05
4.60216e-05
4.47655e-05
4.35836e-05
4.24663e-05
4.13934e-05
4.03512e-05
3.93402e-05
3.83881e-05
3.7525e-05
3.67812e-05
3.61515e-05
3.55626e-05
3.49476e-05
3.4282e-05
3.35584e-05
3.28405e-05
3.23349e-05
3.22057e-05
3.2571e-05
3.35379e-05
3.47841e-05
3.35875e-05
2.82353e-05
2.05642e-05
1.53733e-05
1.58982e-05
7.95611e-05
7.81427e-05
7.82693e-05
7.9797e-05
8.24884e-05
8.61091e-05
9.03744e-05
9.48731e-05
9.91943e-05
0.000103111
0.000106591
0.000109705
0.000112496
0.000114964
0.000117113
0.000118977
0.000120596
0.000121981
0.000123177
0.000124228
0.000125165
0.000126001
0.000126723
0.000127307
0.000127733
0.000127993
0.000128089
0.000128028
0.000127822
0.000127483
0.000127021
0.000126446
0.000125765
0.00012498
0.000124095
0.00012311
0.000122027
0.000120847
0.000119578
0.000118227
0.000116806
0.000115321
0.000113774
0.000112166
0.000110498
0.000108771
0.000106988
0.000105154
0.000103272
0.000101345
9.93748e-05
9.73724e-05
9.53449e-05
9.32972e-05
9.12323e-05
8.91577e-05
8.70733e-05
8.49785e-05
8.2877e-05
8.07919e-05
7.87268e-05
7.66861e-05
7.46735e-05
7.26939e-05
7.0759e-05
6.88844e-05
6.70821e-05
6.53482e-05
6.36644e-05
6.20177e-05
6.04093e-05
5.88845e-05
5.74965e-05
5.62961e-05
5.52965e-05
5.44049e-05
5.35149e-05
5.25635e-05
5.15123e-05
5.04349e-05
4.96276e-05
4.93337e-05
4.97009e-05
5.08075e-05
5.21679e-05
5.03182e-05
4.21112e-05
2.92622e-05
1.94551e-05
1.77464e-05
0.000113382
0.000110181
0.000108846
0.000109352
0.000111505
0.000115123
0.000119963
0.000125623
0.000131411
0.000136782
0.00014154
0.000145749
0.000149538
0.000152946
0.000155942
0.000158518
0.000160706
0.000162552
0.00016412
0.000165481
0.0001667
0.000167811
0.000168816
0.000169694
0.000170416
0.00017096
0.000171318
0.000171494
0.000171496
0.000171333
0.000171016
0.000170554
0.000169956
0.000169226
0.000168367
0.000167381
0.000166267
0.000165027
0.000163669
0.000162201
0.000160639
0.000158993
0.000157268
0.000155465
0.000153583
0.000151625
0.000149593
0.00014749
0.000145321
0.00014309
0.000140802
0.00013846
0.000136077
0.000133659
0.000131209
0.000128732
0.000126233
0.000123708
0.000121159
0.000118597
0.000116034
0.000113478
0.000110934
0.00010841
0.00010592
0.00010348
0.000101107
9.8795e-05
9.65262e-05
9.42862e-05
9.2079e-05
8.99653e-05
8.8007e-05
8.62577e-05
8.47395e-05
8.33552e-05
8.19869e-05
8.05652e-05
7.90427e-05
7.74847e-05
7.62025e-05
7.54603e-05
7.54085e-05
7.60764e-05
7.69196e-05
7.43124e-05
6.32483e-05
4.37885e-05
2.66405e-05
2.0725e-05
0.000156116
0.000150683
0.00014721
0.000145903
0.000146643
0.000149312
0.000153828
0.000159958
0.00016701
0.000173988
0.000180279
0.000185758
0.00019062
0.000195069
0.000199105
0.000202626
0.000205612
0.000208105
0.000210173
0.000211904
0.000213382
0.000214656
0.000215742
0.000216629
0.000217299
0.000217745
0.000217977
0.000218015
0.000217877
0.000217578
0.000217128
0.000216537
0.00021581
0.000214952
0.000213961
0.000212836
0.000211575
0.00021018
0.000208654
0.000207009
0.000205258
0.000203413
0.000201482
0.000199465
0.000197363
0.000195177
0.000192909
0.000190563
0.000188141
0.000185649
0.00018309
0.000180468
0.000177788
0.000175064
0.000172301
0.000169501
0.000166667
0.000163797
0.000160896
0.000157971
0.000155031
0.000152085
0.000149136
0.000146192
0.000143266
0.000140374
0.00013753
0.000134735
0.000131969
0.000129222
0.000126496
0.000123851
0.000121345
0.000119025
0.000116917
0.000114939
0.000112986
0.000110991
0.000108914
0.000106813
0.000104963
0.000103597
0.000102838
0.000102679
0.000102578
9.92052e-05
8.70012e-05
6.40095e-05
3.84483e-05
2.57545e-05
0.000207615
0.000199741
0.000193639
0.000189822
0.000188253
0.000188896
0.000191875
0.000197341
0.000205049
0.000213722
0.00022201
0.000229228
0.000235265
0.00024029
0.000244476
0.000247973
0.000250909
0.000253366
0.000255398
0.000257077
0.000258491
0.000259698
0.000260718
0.00026154
0.000262138
0.000262502
0.00026264
0.000262581
0.000262352
0.000261967
0.000261435
0.000260762
0.000259952
0.000259006
0.000257924
0.000256701
0.000255332
0.000253816
0.000252157
0.000250364
0.000248451
0.000246433
0.000244317
0.000242108
0.000239806
0.000237412
0.000234927
0.000232356
0.000229701
0.000226965
0.000224153
0.00022127
0.000218321
0.000215312
0.000212256
0.000209157
0.000206015
0.00020283
0.000199607
0.00019635
0.00019307
0.000189772
0.000186461
0.000183144
0.000179832
0.000176542
0.000173287
0.000170068
0.000166868
0.000163677
0.0001605
0.000157388
0.000154397
0.000151566
0.000148916
0.000146381
0.000143868
0.00014132
0.000138702
0.000136065
0.000133644
0.000131631