/*--------------------------------*- C++ -*----------------------------------*\
| =========                 |                                                 |
| \\      /  F ield         | OpenFOAM: The Open Source CFD Toolbox           |
|  \\    /   O peration     | Version:  2412                                  |
|   \\  /    A nd           | Website:  www.openfoam.com                      |
|    \\/     M anipulation  |                                                 |
\*---------------------------------------------------------------------------*/
FoamFile
{
    version     2.0;
    format      ascii;
    arch        "LSB;label=32;scalar=64";
    class       volScalarField;
    location    "460";
    object      p;
}
// * * * * * * * * * * * * * * * * * * * * * * * * * * * * * * * * * * * * * //

dimensions      [0 2 -2 0 0 0 0];

internalField   nonuniform List<scalar> 
8702
(
-111.413
-106.951
-102.57
-98.2663
-94.0415
-89.8965
-85.8211
-81.8176
-77.884
-74.0202
-70.2246
-66.4975
-62.8382
-59.2459
-55.7208
-52.2616
-48.8666
-45.5349
-42.2665
-39.061
-35.9181
-32.8377
-29.8195
-26.8645
-23.973
-21.1448
-18.3799
-15.6785
-13.0412
-10.4684
-7.96014
-5.5166
-3.13799
-0.824228
1.42469
3.60878
5.72823
7.78339
9.77505
11.7041
13.5718
15.3792
17.1276
18.8188
20.4542
22.0362
23.5669
25.0481
26.484
27.8757
29.2265
30.5398
31.8169
33.0605
34.273
35.4567
36.6131
37.7438
38.8506
39.9352
40.9982
42.0393
43.0588
44.056
45.0291
45.9752
46.8962
47.7941
48.6724
49.5226
50.3331
51.0917
51.7976
52.4852
53.1564
53.8494
54.4969
55.0305
55.4372
55.5894
55.6162
55.6541
-111.413
-106.951
-102.57
-98.2663
-94.0414
-89.8965
-85.8211
-81.8176
-77.884
-74.0202
-70.2246
-66.4975
-62.8382
-59.2459
-55.7208
-52.2616
-48.8666
-45.5349
-42.2665
-39.061
-35.9181
-32.8377
-29.8195
-26.8645
-23.973
-21.1448
-18.3799
-15.6785
-13.0413
-10.4684
-7.96014
-5.5166
-3.13799
-0.824235
1.4247
3.60878
5.72823
7.78339
9.77505
11.7041
13.5718
15.3792
17.1276
18.8188
20.4542
22.0362
23.5669
25.0481
26.484
27.8757
29.2265
30.5398
31.8169
33.0605
34.273
35.4567
36.6131
37.7438
38.8506
39.9352
40.9982
42.0393
43.0588
44.056
45.0291
45.9752
46.8963
47.7941
48.6724
49.5226
50.3331
51.0917
51.7976
52.4853
53.1564
53.8494
54.4968
55.0304
55.4369
55.5891
55.616
55.654
-111.413
-106.951
-102.57
-98.2663
-94.0415
-89.8965
-85.8211
-81.8176
-77.884
-74.0202
-70.2246
-66.4975
-62.8382
-59.2459
-55.7208
-52.2616
-48.8666
-45.5349
-42.2665
-39.061
-35.9181
-32.8377
-29.8195
-26.8645
-23.973
-21.1448
-18.3799
-15.6785
-13.0412
-10.4684
-7.96014
-5.5166
-3.13799
-0.824228
1.42469
3.60879
5.72823
7.78339
9.77505
11.7041
13.5718
15.3792
17.1276
18.8188
20.4543
22.0362
23.5669
25.0481
26.484
27.8757
29.2266
30.5398
31.8169
33.0605
34.273
35.4568
36.6131
37.7438
38.8506
39.9352
40.9982
42.0393
43.0589
44.0561
45.0291
45.9753
46.8963
47.7942
48.6724
49.5226
50.3332
51.0917
51.7976
52.4853
53.1564
53.8494
54.4967
55.0302
55.4366
55.5888
55.6158
55.654
-111.413
-106.951
-102.57
-98.2663
-94.0414
-89.8965
-85.8211
-81.8176
-77.884
-74.0202
-70.2246
-66.4975
-62.8382
-59.2459
-55.7207
-52.2616
-48.8666
-45.5349
-42.2665
-39.061
-35.9181
-32.8377
-29.8195
-26.8645
-23.973
-21.1448
-18.3799
-15.6785
-13.0412
-10.4684
-7.96014
-5.51659
-3.13799
-0.82423
1.4247
3.60879
5.72823
7.7834
9.77505
11.7041
13.5718
15.3792
17.1276
18.8188
20.4543
22.0362
23.5669
25.0481
26.484
27.8757
29.2266
30.5398
31.8169
33.0605
34.273
35.4568
36.6132
37.7438
38.8506
39.9353
40.9982
42.0393
43.0589
44.0561
45.0292
45.9753
46.8963
47.7942
48.6725
49.5226
50.3332
51.0917
51.7976
52.4853
53.1565
53.8493
54.4966
55.03
55.4363
55.5885
55.6157
55.654
-111.413
-106.951
-102.57
-98.2663
-94.0414
-89.8965
-85.8211
-81.8176
-77.884
-74.0202
-70.2246
-66.4975
-62.8382
-59.2459
-55.7208
-52.2616
-48.8666
-45.5349
-42.2665
-39.061
-35.9181
-32.8377
-29.8195
-26.8645
-23.973
-21.1448
-18.3799
-15.6785
-13.0412
-10.4684
-7.96013
-5.51659
-3.13798
-0.82422
1.4247
3.60879
5.72824
7.7834
9.77506
11.7041
13.5718
15.3792
17.1276
18.8188
20.4543
22.0362
23.567
25.0481
26.484
27.8758
29.2266
30.5398
31.817
33.0605
34.273
35.4568
36.6132
37.7438
38.8507
39.9353
40.9982
42.0393
43.0589
44.0561
45.0292
45.9753
46.8963
47.7942
48.6725
49.5227
50.3332
51.0917
51.7976
52.4853
53.1565
53.8493
54.4966
55.0298
55.436
55.5882
55.6156
55.6542
-111.413
-106.951
-102.57
-98.2663
-94.0414
-89.8965
-85.8211
-81.8176
-77.884
-74.0202
-70.2246
-66.4974
-62.8381
-59.2459
-55.7207
-52.2615
-48.8666
-45.5349
-42.2665
-39.061
-35.9181
-32.8377
-29.8195
-26.8645
-23.9729
-21.1448
-18.3799
-15.6785
-13.0412
-10.4684
-7.96012
-5.51658
-3.13797
-0.824211
1.42472
3.60881
5.72825
7.78342
9.77508
11.7041
13.5718
15.3792
17.1277
18.8189
20.4543
22.0363
23.567
25.0481
26.484
27.8758
29.2266
30.5398
31.817
33.0605
34.2731
35.4568
36.6132
37.7439
38.8507
39.9353
40.9983
42.0394
43.0589
44.0561
45.0292
45.9754
46.8964
47.7943
48.6725
49.5227
50.3332
51.0917
51.7976
52.4854
53.1566
53.8493
54.4964
55.0295
55.4356
55.588
55.6156
55.6545
-111.413
-106.951
-102.57
-98.2663
-94.0414
-89.8965
-85.821
-81.8175
-77.884
-74.0202
-70.2246
-66.4974
-62.8381
-59.2459
-55.7207
-52.2615
-48.8666
-45.5349
-42.2665
-39.061
-35.9181
-32.8376
-29.8194
-26.8645
-23.9729
-21.1447
-18.3799
-15.6785
-13.0412
-10.4684
-7.9601
-5.51656
-3.13795
-0.824189
1.42474
3.60883
5.72828
7.78344
9.7751
11.7042
13.5719
15.3792
17.1277
18.8189
20.4543
22.0363
23.567
25.0482
26.484
27.8758
29.2266
30.5398
31.817
33.0606
34.2731
35.4569
36.6133
37.7439
38.8507
39.9354
40.9983
42.0394
43.059
44.0562
45.0293
45.9754
46.8964
47.7943
48.6726
49.5227
50.3332
51.0918
51.7977
52.4855
53.1567
53.8494
54.4963
55.0292
55.4352
55.5877
55.6158
55.6552
-111.413
-106.951
-102.57
-98.2663
-94.0414
-89.8965
-85.821
-81.8175
-77.884
-74.0202
-70.2246
-66.4974
-62.8381
-59.2458
-55.7207
-52.2615
-48.8666
-45.5349
-42.2664
-39.061
-35.9181
-32.8376
-29.8194
-26.8645
-23.9729
-21.1447
-18.3798
-15.6785
-13.0412
-10.4684
-7.96006
-5.51652
-3.13792
-0.82415
1.42477
3.60887
5.72831
7.78348
9.77514
11.7042
13.5719
15.3793
17.1277
18.8189
20.4544
22.0363
23.567
25.0482
26.4841
27.8759
29.2267
30.5399
31.8171
33.0606
34.2732
35.4569
36.6133
37.744
38.8508
39.9354
40.9984
42.0395
43.0591
44.0563
45.0293
45.9755
46.8965
47.7944
48.6726
49.5228
50.3332
51.0918
51.7978
52.4856
53.1568
53.8494
54.4961
55.0288
55.4346
55.5875
55.6162
55.6564
-111.413
-106.951
-102.57
-98.2662
-94.0413
-89.8964
-85.821
-81.8175
-77.8839
-74.0201
-70.2245
-66.4973
-62.838
-59.2458
-55.7206
-52.2614
-48.8665
-45.5348
-42.2664
-39.0609
-35.918
-32.8376
-29.8194
-26.8644
-23.9728
-21.1446
-18.3798
-15.6784
-13.0411
-10.4683
-7.96001
-5.51646
-3.13785
-0.824091
1.42484
3.60893
5.72838
7.78354
9.7752
11.7043
13.572
15.3793
17.1278
18.819
20.4544
22.0364
23.5671
25.0483
26.4842
27.8759
29.2268
30.54
31.8172
33.0607
34.2732
35.457
36.6134
37.744
38.8509
39.9355
40.9985
42.0396
43.0592
44.0564
45.0294
45.9756
46.8966
47.7945
48.6727
49.5228
50.3333
51.0919
51.7979
52.4858
53.1571
53.8494
54.4958
55.0283
55.434
55.5875
55.6171
55.6583
-111.413
-106.951
-102.57
-98.2661
-94.0413
-89.8963
-85.8209
-81.8174
-77.8838
-74.02
-70.2244
-66.4973
-62.838
-59.2457
-55.7206
-52.2614
-48.8664
-45.5347
-42.2663
-39.0608
-35.9179
-32.8375
-29.8193
-26.8643
-23.9727
-21.1446
-18.3797
-15.6783
-13.041
-10.4682
-7.95991
-5.51637
-3.13776
-0.823997
1.42493
3.60903
5.72847
7.78364
9.7753
11.7044
13.5721
15.3794
17.1279
18.8191
20.4545
22.0365
23.5672
25.0484
26.4843
27.876
29.2269
30.5401
31.8173
33.0608
34.2734
35.4571
36.6135
37.7442
38.851
39.9356
40.9986
42.0397
43.0593
44.0565
45.0296
45.9757
46.8968
47.7947
48.6729
49.5229
50.3334
51.092
51.7982
52.4862
53.1575
53.8495
54.4955
55.0276
55.4332
55.5876
55.6187
55.6613
55.7809
-111.413
-106.951
-102.57
-98.266
-94.0411
-89.8962
-85.8208
-81.8173
-77.8837
-74.0199
-70.2243
-66.4971
-62.8378
-59.2456
-55.7204
-52.2612
-48.8663
-45.5346
-42.2662
-39.0607
-35.9178
-32.8373
-29.8191
-26.8642
-23.9726
-21.1444
-18.3796
-15.6782
-13.0409
-10.4681
-7.95978
-5.51623
-3.13762
-0.823856
1.42507
3.60917
5.72862
7.78378
9.77545
11.7045
13.5722
15.3796
17.128
18.8193
20.4547
22.0367
23.5674
25.0486
26.4844
27.8762
29.227
30.5403
31.8174
33.061
34.2735
35.4573
36.6137
37.7443
38.8512
39.9358
40.9988
42.0399
43.0595
44.0567
45.0298
45.9759
46.897
47.7949
48.6731
49.5231
50.3335
51.0922
51.7985
52.4867
53.158
53.8496
54.4952
55.0268
55.4322
55.5879
55.621
55.6657
55.7869
-111.413
-106.95
-102.57
-98.2658
-94.041
-89.896
-85.8206
-81.8171
-77.8835
-74.0197
-70.2241
-66.497
-62.8377
-59.2454
-55.7203
-52.2611
-48.8661
-45.5344
-42.266
-39.0605
-35.9176
-32.8372
-29.819
-26.864
-23.9724
-21.1442
-18.3794
-15.678
-13.0407
-10.4679
-7.95958
-5.51603
-3.13742
-0.823656
1.42528
3.60937
5.72882
7.78399
9.77566
11.7047
13.5724
15.3798
17.1283
18.8195
20.4549
22.0369
23.5676
25.0488
26.4847
27.8764
29.2273
30.5405
31.8177
33.0612
34.2738
35.4575
36.6139
37.7446
38.8514
39.9361
40.999
42.0402
43.0597
44.0569
45.03
45.9762
46.8973
47.7952
48.6733
49.5233
50.3336
51.0924
51.799
52.4874
53.1588
53.8499
54.4947
55.0257
55.431
55.5886
55.6244
55.672
55.7953
-111.413
-106.95
-102.57
-98.2656
-94.0407
-89.8958
-85.8203
-81.8168
-77.8833
-74.0195
-70.2239
-66.4967
-62.8374
-59.2451
-55.72
-52.2608
-48.8659
-45.5342
-42.2657
-39.0603
-35.9174
-32.8369
-29.8187
-26.8637
-23.9722
-21.144
-18.3791
-15.6777
-13.0404
-10.4676
-7.9593
-5.51576
-3.13714
-0.82337
1.42556
3.60966
5.72911
7.78429
9.77595
11.705
13.5727
15.3801
17.1286
18.8198
20.4552
22.0372
23.5679
25.0491
26.485
27.8768
29.2276
30.5408
31.818
33.0615
34.2741
35.4579
36.6143
37.7449
38.8518
39.9364
40.9994
42.0405
43.0601
44.0573
45.0303
45.9765
46.8977
47.7956
48.6737
49.5236
50.3339
51.0928
51.7997
52.4884
53.1599
53.8503
54.4942
55.0245
55.4297
55.5898
55.6294
55.6806
55.8068
-111.412
-106.95
-102.569
-98.2652
-94.0404
-89.8955
-85.82
-81.8165
-77.883
-74.0192
-70.2236
-66.4964
-62.8371
-59.2448
-55.7197
-52.2605
-48.8655
-45.5338
-42.2654
-39.0599
-35.917
-32.8366
-29.8183
-26.8634
-23.9718
-21.1436
-18.3787
-15.6774
-13.0401
-10.4672
-7.95893
-5.51537
-3.13676
-0.822984
1.42595
3.61005
5.72951
7.78468
9.77635
11.7054
13.5731
15.3805
17.129
18.8202
20.4556
22.0376
23.5683
25.0495
26.4854
27.8772
29.228
30.5413
31.8184
33.062
34.2745
35.4583
36.6147
37.7454
38.8522
39.9369
40.9998
42.041
43.0605
44.0577
45.0308
45.977
46.8982
47.7961
48.6742
49.5239
50.3342
51.0933
51.8007
52.4897
53.1613
53.8509
54.4936
55.0232
55.4282
55.5917
55.6362
55.6922
55.8221
-111.412
-106.949
-102.569
-98.2648
-94.0399
-89.895
-85.8196
-81.816
-77.8825
-74.0187
-70.2231
-66.4959
-62.8366
-59.2444
-55.7192
-52.26
-48.8651
-45.5334
-42.2649
-39.0594
-35.9166
-32.8361
-29.8179
-26.8629
-23.9713
-21.1431
-18.3783
-15.6769
-13.0396
-10.4667
-7.95842
-5.51487
-3.13625
-0.822471
1.42647
3.61057
5.73004
7.78522
9.77689
11.706
13.5737
15.3811
17.1295
18.8208
20.4562
22.0382
23.5689
25.0501
26.486
27.8778
29.2286
30.5418
31.819
33.0626
34.2751
35.4589
36.6153
37.746
38.8528
39.9374
41.0004
42.0416
43.0611
44.0583
45.0314
45.9776
46.8988
47.7968
48.6748
49.5244
50.3347
51.094
51.802
52.4915
53.1633
53.8518
54.4931
55.0217
55.4268
55.5947
55.6455
55.7075
55.842
-111.411
-106.949
-102.568
-98.2642
-94.0393
-89.8944
-85.819
-81.8155
-77.8819
-74.0181
-70.2225
-66.4954
-62.836
-59.2438
-55.7186
-52.2594
-48.8645
-45.5328
-42.2643
-39.0588
-35.9159
-32.8355
-29.8173
-26.8623
-23.9707
-21.1425
-18.3776
-15.6762
-13.0389
-10.4661
-7.95777
-5.51421
-3.13558
-0.821801
1.42714
3.61125
5.73072
7.7859
9.77758
11.7067
13.5744
15.3818
17.1303
18.8215
20.4569
22.0389
23.5696
25.0508
26.4867
27.8785
29.2293
30.5426
31.8198
33.0633
34.2759
35.4596
36.6161
37.7467
38.8536
39.9382
41.0012
42.0423
43.0619
44.059
45.0321
45.9784
46.8997
47.7977
48.6756
49.5251
50.3353
51.095
51.8037
52.4938
53.166
53.853
54.4927
55.0203
55.4255
55.5991
55.6578
55.7274
55.8676
-111.411
-106.948
-102.567
-98.2634
-94.0386
-89.8937
-85.8182
-81.8147
-77.8812
-74.0174
-70.2218
-66.4946
-62.8353
-59.243
-55.7179
-52.2587
-48.8637
-45.532
-42.2636
-39.0581
-35.9152
-32.8347
-29.8165
-26.8615
-23.9699
-21.1417
-18.3768
-15.6754
-13.0381
-10.4653
-7.95694
-5.51337
-3.13474
-0.820949
1.428
3.61212
5.73159
7.78678
9.77847
11.7076
13.5753
15.3827
17.1312
18.8224
20.4578
22.0398
23.5706
25.0518
26.4877
27.8795
29.2303
30.5435
31.8207
33.0643
34.2768
35.4606
36.617
37.7476
38.8545
39.9391
41.0021
42.0433
43.0628
44.06
45.033
45.9794
46.9008
47.7989
48.6766
49.526
50.3361
51.0962
51.8059
52.4968
53.1693
53.8548
54.4925
55.019
55.4247
55.6055
55.6739
55.7527
55.8999
56.1434
-106.947
-102.567
-98.2625
-94.0376
-89.8927
-85.8173
-81.8138
-77.8802
-74.0164
-70.2208
-66.4937
-62.8344
-59.2421
-55.7169
-52.2577
-48.8628
-45.5311
-42.2626
-39.0571
-35.9142
-32.8337
-29.8155
-26.8605
-23.9689
-21.1407
-18.3758
-15.6744
-13.0371
-10.4642
-7.95589
-5.51232
-3.13368
-0.819881
1.42908
3.6132
5.73268
7.78788
9.77958
11.7087
13.5764
15.3838
17.1323
18.8236
20.459
22.041
23.5717
25.053
26.4888
27.8806
29.2315
30.5447
31.8219
33.0654
34.278
35.4618
36.6182
37.7488
38.8556
39.9403
41.0033
42.0444
43.064
44.0611
45.0342
45.9806
46.9021
47.8003
48.6779
49.5271
50.3372
51.0979
51.8088
52.5006
53.1737
53.8572
54.4927
55.0182
55.4247
55.6144
55.6948
55.7846
55.94
56.1831
56.6547
56.8575
-106.946
-102.565
-98.2613
-94.0365
-89.8916
-85.8161
-81.8126
-77.8791
-74.0153
-70.2197
-66.4925
-62.8332
-59.2409
-55.7158
-52.2565
-48.8616
-45.5299
-42.2614
-39.0559
-35.913
-32.8325
-29.8143
-26.8593
-23.9677
-21.1394
-18.3745
-15.6731
-13.0358
-10.463
-7.95461
-5.51102
-3.13237
-0.818568
1.4304
3.61454
5.73403
7.78924
9.78094
11.7101
13.5778
15.3852
17.1337
18.825
20.4604
22.0424
23.5732
25.0544
26.4903
27.8821
29.2329
30.5461
31.8233
33.0669
34.2794
35.4632
36.6196
37.7502
38.8571
39.9417
41.0047
42.0458
43.0654
44.0625
45.0356
45.9821
46.9038
47.802
48.6795
49.5285
50.3386
51.1
51.8124
52.5054
53.1791
53.8605
54.4935
55.0182
55.426
55.6265
55.7212
55.8241
55.9893
56.2326
56.68
56.8675
-106.944
-102.564
-98.2599
-94.035
-89.8902
-85.8147
-81.8112
-77.8776
-74.0139
-70.2183
-66.4911
-62.8318
-59.2395
-55.7143
-52.2551
-48.8602
-45.5284
-42.26
-39.0544
-35.9115
-32.831
-29.8128
-26.8578
-23.9662
-21.1379
-18.373
-15.6716
-13.0343
-10.4614
-7.95305
-5.50945
-3.13079
-0.816972
1.43201
3.61616
5.73566
7.79088
9.7826
11.7117
13.5795
15.3869
17.1354
18.8267
20.4622
22.0442
23.5749
25.0561
26.492
27.8838
29.2347
30.5479
31.8251
33.0686
34.2812
35.4649
36.6213
37.7519
38.8587
39.9434
41.0064
42.0475
43.067
44.0641
45.0373
45.9839
46.9057
47.8041
48.6815
49.5303
50.3405
51.1027
51.817
52.5113
53.1858
53.8649
54.4953
55.0193
55.4292
55.6426
55.7542
55.8726
56.0491
56.2933
56.715
56.8879
-106.943
-102.562
-98.2582
-94.0333
-89.8885
-85.813
-81.8095
-77.876
-74.0122
-70.2166
-66.4894
-62.8301
-59.2378
-55.7126
-52.2534
-48.8584
-45.5267
-42.2582
-39.0527
-35.9098
-32.8293
-29.811
-26.856
-23.9644
-21.1361
-18.3712
-15.6698
-13.0324
-10.4595
-7.95117
-5.50756
-3.12889
-0.815057
1.43394
3.6181
5.73762
7.79286
9.7846
11.7138
13.5815
15.389
17.1375
18.8288
20.4642
22.0463
23.577
25.0582
26.4941
27.8859
29.2367
30.55
31.8271
33.0707
34.2832
35.467
36.6233
37.7539
38.8607
39.9453
41.0084
42.0495
43.069
44.0661
45.0392
45.9861
46.9081
47.8066
48.6839
49.5324
50.3428
51.1062
51.8226
52.5186
53.1941
53.8707
54.4983
55.0222
55.4351
55.6637
55.795
55.9313
56.1208
56.367
56.7625
56.9224
-106.941
-102.56
-98.2562
-94.0313
-89.8864
-85.811
-81.8075
-77.8739
-74.0102
-70.2146
-66.4874
-62.8281
-59.2358
-55.7106
-52.2514
-48.8564
-45.5247
-42.2562
-39.0506
-35.9077
-32.8272
-29.8089
-26.8538
-23.9622
-21.1339
-18.369
-15.6676
-13.0302
-10.4573
-7.94891
-5.50528
-3.12659
-0.812738
1.43627
3.62046
5.74
7.79525
9.78701
11.7162
13.584
15.3914
17.14
18.8312
20.4667
22.0487
23.5795
25.0607
26.4966
27.8884
29.2392
30.5524
31.8296
33.0731
34.2856
35.4693
36.6257
37.7563
38.8631
39.9477
41.0107
42.0519
43.0713
44.0684
45.0416
45.9886
46.9109
47.8096
48.6867
49.5351
50.3458
51.1104
51.8294
52.5274
53.2041
53.8781
54.503
55.0274
55.4444
55.6906
55.8446
56.0014
56.2059
56.4556
56.8255
56.9752
56.8288
56.0198
55.0401
-106.938
-102.558
-98.2539
-94.029
-89.8841
-85.8086
-81.8051
-77.8716
-74.0078
-70.2122
-66.485
-62.8257
-59.2334
-55.7082
-52.249
-48.854
-45.5223
-42.2538
-39.0482
-35.9053
-32.8247
-29.8065
-26.8514
-23.9598
-21.1316
-18.3667
-15.6652
-13.0279
-10.455
-7.94658
-5.50294
-3.12424
-0.81038
1.43865
3.62285
5.74242
7.7977
9.78949
11.7187
13.5865
15.394
17.1426
18.8339
20.4695
22.0516
23.5823
25.0635
26.4994
27.8912
29.242
30.5552
31.8324
33.0759
34.2884
35.4721
36.6285
37.759
38.8658
39.9504
41.0134
42.0546
43.0741
44.0711
45.0444
45.9916
46.9142
47.8132
48.6902
49.5385
50.3496
51.1158
51.8378
52.5382
53.2165
53.8879
54.5103
55.0359
55.4584
55.7245
55.9043
56.0843
56.3057
56.561
56.9073
57.0515
56.9235
56.2209
55.3858
-94.0263
-89.8814
-85.8059
-81.8024
-77.8688
-74.005
-70.2095
-66.4824
-62.8231
-59.2307
-55.7055
-52.2463
-48.8513
-45.5196
-42.2511
-39.0455
-35.9025
-32.822
-29.8037
-26.8487
-23.9571
-21.1289
-18.364
-15.6627
-13.0253
-10.4524
-7.94404
-5.50041
-3.1217
-0.807825
1.44122
3.62545
5.74504
7.80036
9.79217
11.7214
13.5893
15.3968
17.1454
18.8369
20.4726
22.0547
23.5855
25.0667
26.5026
27.8944
29.2452
30.5584
31.8356
33.0791
34.2916
35.4753
36.6316
37.7621
38.8688
39.9534
41.0164
42.0575
43.077
44.074
45.0474
45.9949
46.9178
47.8172
48.6941
49.5424
50.3539
51.1218
51.847
52.5501
53.2303
53.8995
54.5196
55.0475
55.4774
55.7662
55.9745
56.1804
56.4211
56.6845
57.0114
57.1553
57.0592
56.4705
55.8064
-94.0232
-89.8782
-85.8027
-81.7992
-77.8656
-74.0019
-70.2063
-66.4794
-62.8202
-59.2277
-55.7024
-52.2431
-48.8482
-45.5164
-42.2477
-39.0421
-35.8992
-32.8187
-29.8005
-26.8454
-23.9538
-21.1255
-18.3606
-15.6592
-13.0218
-10.4489
-7.94043
-5.49675
-3.11801
-0.804111
1.44496
3.62921
5.74883
7.80417
9.796
11.7253
13.5931
15.4007
17.1493
18.8406
20.4762
22.0584
23.5892
25.0704
26.5063
27.8981
29.2489
30.5621
31.8392
33.0826
34.2951
35.4787
36.635
37.7655
38.8722
39.9567
41.0197
42.0607
43.08
44.077
45.0503
45.9982
46.9216
47.8214
48.6984
49.547
50.3594
51.1296
51.8584
52.5642
53.2467
53.9143
54.5335
55.065
55.5038
55.8166
56.0564
56.2914
56.5526
56.8273
57.1402
57.2924
57.2359
56.7775
56.2824
55.5761
56.1313
59.5113
61.9392
56.971
-94.0196
-89.8746
-85.7991
-81.7956
-77.862
-73.9983
-70.2027
-66.4756
-62.8164
-59.2241
-55.6989
-52.2396
-48.8446
-45.5126
-42.2438
-39.0382
-35.8954
-32.815
-29.7969
-26.8418
-23.95
-21.1217
-18.3567
-15.6552
-13.0178
-10.4448
-7.93635
-5.49263
-3.11386
-0.799926
1.44917
3.63345
5.75309
7.80845
9.80029
11.7296
13.5974
15.405
17.1536
18.8448
20.4803
22.0625
23.5933
25.0745
26.5104
27.9021
29.2529
30.5661
31.8431
33.0866
34.2989
35.4825
36.6388
37.7693
38.8759
39.9606
41.0237
42.0649
43.0843
44.0812
45.0546
46.0029
46.9269
47.8271
48.7044
49.5534
50.3672
51.141
51.8744
52.5832
53.2684
53.9348
54.5539
55.0895
55.5384
55.8772
56.1506
56.4155
56.6993
56.9907
57.2973
57.4665
57.4573
57.1461
56.8125
56.5068
57.2658
60.2375
62.0642
57.5542
-94.0154
-89.8704
-85.795
-81.7914
-77.8578
-73.9941
-70.1984
-66.4714
-62.8121
-59.2199
-55.6948
-52.2355
-48.8405
-45.5086
-42.2399
-39.0344
-35.8916
-32.8112
-29.7929
-26.8377
-23.946
-21.1177
-18.3527
-15.6512
-13.0137
-10.4408
-7.93227
-5.48855
-3.10975
-0.795802
1.45332
3.63763
5.75729
7.81268
9.80455
11.7339
13.6018
15.4093
17.158
18.8492
20.4848
22.067
23.5978
25.079
26.5148
27.9066
29.2573
30.5705
31.8476
33.091
34.3033
35.4869
36.6433
37.7738
38.8804
39.9651
41.0284
42.0697
43.0892
44.0864
45.0599
46.0087
46.9333
47.8342
48.7117
49.561
50.376
51.1528
51.8908
52.6034
53.2916
53.9575
54.5767
55.1182
55.5799
55.9469
56.2557
56.5542
56.8658
57.1767
57.4848
57.68
57.7315
57.5688
57.411
57.4538
58.3747
60.956
62.0168
59.3965
-94.0105
-89.8656
-85.7901
-81.7865
-77.853
-73.9893
-70.1937
-66.4667
-62.8074
-59.2152
-55.6901
-52.2309
-48.8359
-45.5041
-42.2357
-39.0302
-35.8873
-32.8067
-29.7883
-26.8331
-23.9414
-21.113
-18.348
-15.6465
-13.0091
-10.4361
-7.92756
-5.4838
-3.10498
-0.791007
1.45815
3.64248
5.76219
7.8176
9.80951
11.7388
13.6068
15.4144
17.163
18.8543
20.4899
22.0721
23.6029
25.0841
26.5199
27.9117
29.2624
30.5756
31.8526
33.096
34.3084
35.492
36.6483
37.7788
38.8854
39.9702
41.0334
42.0747
43.0943
44.0916
45.0655
46.0148
46.9402
47.8418
48.7197
49.5697
50.3861
51.1657
51.9085
52.6255
53.3177
53.9845
54.6052
55.1551
55.6325
56.0302
56.3772
56.7108
57.0509
57.386
57.7067
57.939
58.062
58.0511
58.0737
58.4079
59.4875
61.6882
62.3168
61.2014
-94.0047
-89.8598
-85.7843
-81.7808
-77.8474
-73.9837
-70.1882
-66.4612
-62.802
-59.2099
-55.6848
-52.2256
-48.8307
-45.4989
-42.2304
-39.0249
-35.882
-32.8015
-29.7831
-26.8279
-23.9361
-21.1078
-18.3428
-15.6412
-13.0038
-10.4307
-7.92221
-5.47843
-3.09959
-0.78558
1.4636
3.64798
5.76772
7.82317
9.81512
11.7445
13.6125
15.4201
17.1688
18.8601
20.4957
22.078
23.6088
25.0899
26.5257
27.9175
29.2682
30.5813
31.8583
33.1017
34.314
35.4976
36.654
37.7844
38.891
39.9758
41.0391
42.0806
43.1004
44.0978
45.0721
46.0222
46.9484
47.8509
48.7295
49.5805
50.3988
51.1821
51.9305
52.6528
53.3496
54.0184
54.6429
55.2034
55.6988
56.1281
56.5137
56.8845
57.2571
57.6223
57.966
58.2452
58.4502
58.59
58.7919
59.3703
60.6085
62.4797
63.5138
62.0895
-93.998
-89.8531
-85.7777
-81.7741
-77.8409
-73.9771
-70.1818
-66.4549
-62.7958
-59.2037
-55.6787
-52.2196
-48.8246
-45.4929
-42.2244
-39.019
-35.8761
-32.7955
-29.7772
-26.822
-23.9302
-21.1018
-18.3368
-15.6353
-12.9978
-10.4247
-7.91618
-5.47239
-3.09352
-0.779482
1.46974
3.65415
5.77393
7.82943
9.82141
11.7508
13.6188
15.4265
17.1753
18.8666
20.5022
22.0845
23.6153
25.0965
26.5323
27.924
29.2746
30.5878
31.8647
33.1081
34.3204
35.5039
36.6603
37.7906
38.8972
39.982
41.0455
42.0871
43.1071
44.1048
45.0795
46.0303
46.9575
47.8611
48.7406
49.5928
50.4135
51.2008
51.9553
52.6833
53.3854
54.0581
54.6883
55.2616
55.7777
56.2401
56.666
57.0763
57.4848
57.8855
58.263
58.5992
58.8945
59.1814
59.5572
60.3414
61.7415
63.4318
65.1368
62.5326
-93.99
-89.8452
-85.7697
-81.7662
-77.8333
-73.9694
-70.1742
-66.4475
-62.7886
-59.1966
-55.6717
-52.2126
-48.8178
-45.486
-42.2176
-39.0122
-35.8694
-32.7888
-29.7705
-26.8152
-23.9234
-21.0951
-18.3301
-15.6286
-12.9911
-10.418
-7.90944
-5.46562
-3.08673
-0.772672
1.47658
3.66103
5.78085
7.83639
9.82842
11.7579
13.6259
15.4337
17.1825
18.8738
20.5094
22.0918
23.6226
25.1037
26.5395
27.9312
29.2818
30.5949
31.8718
33.1151
34.3273
35.5108
36.6671
37.7974
38.904
39.9889
41.0524
42.0942
43.1144
44.1125
45.0877
46.0394
46.9677
47.8725
48.7532
49.607
50.4305
51.2223
51.9833
52.7177
53.4263
54.1047
54.7431
55.3317
55.8709
56.3676
56.8344
57.2861
57.7343
58.1765
58.5979
58.9996
59.3908
59.8183
60.3582
61.3219
62.8776
64.5404
66.6015
64.4713
-93.9806
-89.8358
-85.7605
-81.7568
-77.8241
-73.9603
-70.1652
-66.4387
-62.78
-59.1883
-55.6636
-52.2047
-48.8099
-45.4782
-42.2098
-39.0045
-35.8617
-32.7812
-29.7629
-26.8077
-23.9159
-21.0875
-18.3226
-15.6211
-12.9836
-10.4105
-7.90191
-5.45808
-3.07918
-0.765096
1.48418
3.66867
5.78853
7.84411
9.83619
11.7657
13.6338
15.4416
17.1904
18.8818
20.5174
22.0998
23.6306
25.1117
26.5474
27.9391
29.2896
30.6027
31.8795
33.1227
34.3349
35.5183
36.6745
37.8047
38.9112
39.9962
41.0599
42.1018
43.1222
44.1207
45.0966
46.0492
46.9787
47.8848
48.767
49.6228
50.4496
51.2465
52.0144
52.756
53.4722
54.1583
54.8073
55.4137
55.9781
56.5099
57.0182
57.5133
58.0048
58.4938
58.9678
59.4414
59.9313
60.4921
61.1835
62.3083
64.0111
65.7953
68.1966
68.2131
-93.9693
-89.8247
-85.7494
-81.7459
-77.813
-73.9495
-70.1546
-66.4282
-62.7697
-59.1783
-55.6539
-52.1953
-48.8008
-45.4693
-42.201
-38.9957
-35.853
-32.7726
-29.7543
-26.7991
-23.9074
-21.0791
-18.3141
-15.6126
-12.9752
-10.4021
-7.89351
-5.44967
-3.07077
-0.756681
1.49261
3.67713
5.79703
7.85265
9.84476
11.7743
13.6425
15.4503
17.1992
18.8906
20.5262
22.1085
23.6394
25.1205
26.5561
27.9477
29.2981
30.6112
31.8879
33.1309
34.3429
35.5263
36.6824
37.8124
38.9188
40.0038
41.0676
42.1098
43.1305
44.1294
45.1059
46.0595
46.9902
47.898
48.7819
49.6402
50.4709
51.2733
52.0485
52.7982
53.5232
54.2191
54.8812
55.5073
56.099
56.6666
57.217
57.7567
58.2946
58.8346
59.3677
59.9172
60.5055
61.1898
62.0201
63.2923
65.1362
67.1375
69.9449
71.8798
-93.9558
-89.8113
-85.7361
-81.7328
-77.7999
-73.9366
-70.1418
-66.4156
-62.7574
-59.1663
-55.6422
-52.184
-48.7899
-45.4587
-42.1907
-38.9857
-35.8431
-32.7627
-29.7445
-26.7894
-23.8977
-21.0694
-18.3046
-15.6032
-12.9657
-10.3927
-7.88412
-5.44029
-3.06139
-0.747323
1.50197
3.6865
5.80643
7.86207
9.85421
11.7838
13.652
15.4599
17.2087
18.9002
20.5358
22.1181
23.6489
25.13
26.5655
27.957
29.3072
30.6202
31.8967
33.1396
34.3514
35.5346
36.6905
37.8202
38.9265
40.0115
41.0755
42.1178
43.1388
44.1381
45.1152
46.07
47.0022
47.9116
48.7977
49.6589
50.4939
51.3024
52.0855
52.8441
53.579
54.2866
54.964
55.612
56.2325
56.8363
57.4284
58.0137
58.5999
59.1938
59.7899
60.4166
61.1
61.8967
62.8557
64.2606
66.2335
68.4737
71.6286
74.816
-93.9399
-89.7956
-85.7204
-81.7172
-77.7845
-73.9213
-70.1267
-66.4007
-62.7426
-59.1518
-55.6281
-52.1703
-48.7766
-45.4459
-42.1783
-38.9736
-35.8314
-32.7513
-29.7333
-26.7783
-23.8866
-21.0585
-18.2937
-15.5924
-12.9551
-10.3821
-7.87358
-5.42976
-3.05089
-0.736871
1.51237
3.69689
5.81683
7.87249
9.86464
11.7942
13.6624
15.4703
17.2192
18.9106
20.5462
22.1285
23.6592
25.1402
26.5756
27.9669
29.3169
30.6298
31.9061
33.1486
34.3602
35.543
36.6987
37.828
38.934
40.0189
41.0831
42.1256
43.1467
44.1464
45.1243
46.0801
47.0139
47.9253
48.8138
49.6784
50.5182
51.3332
52.1247
52.8928
53.6387
54.3598
55.0549
55.7263
56.3765
57.0162
57.6497
58.2803
58.9155
59.5643
60.2246
60.927
61.6997
62.5985
63.6743
65.1929
67.2755
69.7301
73.1614
77.2734
-93.9212
-89.777
-85.702
-81.6988
-77.7663
-73.9032
-70.1087
-66.3829
-62.7251
-59.1345
-55.6111
-52.1537
-48.7604
-45.4302
-42.163
-38.9588
-35.8171
-32.7375
-29.7199
-26.7652
-23.8738
-21.0458
-18.2813
-15.5802
-12.943
-10.3701
-7.86164
-5.41787
-3.03905
-0.725112
1.52403
3.70846
5.82837
7.88403
9.87617
11.8058
13.6739
15.4818
17.2306
18.922
20.5574
22.1396
23.6702
25.1511
26.5863
27.9774
29.327
30.6397
31.9156
33.1578
34.3689
35.5514
36.7066
37.8354
38.9408
40.0256
41.0898
42.1323
43.1535
44.1536
45.1323
46.0893
47.0246
47.9382
48.8294
49.6978
50.5428
51.3648
52.1648
52.943
53.7012
54.4375
55.1518
55.8476
56.5279
57.2028
57.8762
58.5511
59.2346
59.9372
60.6604
61.4347
62.2899
63.2808
64.4592
66.0697
68.236
70.8506
74.5117
79.1713
-93.8992
-89.7552
-85.6805
-81.6775
-77.7451
-73.8821
-70.0878
-66.3622
-62.7045
-59.1141
-55.591
-52.134
-48.7411
-45.4112
-42.1444
-38.9406
-35.7993
-32.7203
-29.7032
-26.7491
-23.8581
-21.0305
-18.2665
-15.5659
-12.9289
-10.3562
-7.84802
-5.40439
-3.0256
-0.711753
1.53721
3.72146
5.84127
7.89689
9.88901
11.8185
13.6866
15.4943
17.243
18.9343
20.5696
22.1516
23.682
25.1626
26.5975
27.9883
29.3373
30.6497
31.9251
33.1668
34.3773
35.5593
36.7139
37.8417
38.9463
40.0306
41.0947
42.137
43.1583
44.1587
45.138
46.0961
47.0331
47.9489
48.8431
49.7155
50.566
51.3949
52.2038
52.9932
53.7646
54.5171
55.2516
55.9722
56.6822
57.391
58.1026
58.8198
59.55
60.3047
61.088
61.9285
62.8579
63.9298
65.1934
66.8712
69.089
71.7921
75.6038
80.46
-93.8734
-89.7297
-85.6553
-81.6526
-77.7205
-73.8578
-70.0637
-66.3383
-62.6808
-59.0906
-55.5679
-52.1113
-48.7186
-45.3889
-42.1224
-38.919
-35.7782
-32.6995
-29.6828
-26.729
-23.8385
-21.0114
-18.248
-15.548
-12.9117
-10.3395
-7.83176
-5.38858
-3.01005
-0.69641
1.55226
3.73616
5.85572
7.91129
9.90338
11.8328
13.7007
15.5082
17.2566
18.9476
20.5827
22.1645
23.6944
25.1746
26.609
27.9993
29.3475
30.6594
31.9341
33.1749
34.3847
35.5659
36.7196
37.8461
38.9494
40.033
41.0969
42.1388
43.1597
44.1602
45.14
46.0991
47.0377
47.9557
48.8531
49.7295
50.5852
51.4215
52.2399
53.0408
53.8261
54.5955
55.3508
56.096
56.8347
57.5757
58.3233
59.0805
59.8548
60.6585
61.4974
62.3991
63.3926
64.5322
65.864
67.5811
69.8113
72.5247
76.3481
81.0937
-93.843
-89.6998
-85.6259
-81.6236
-77.6919
-73.8296
-70.0359
-66.3108
-62.6537
-59.0638
-55.5415
-52.0853
-48.6929
-45.3635
-42.0974
-38.8944
-35.7539
-32.6754
-29.6587
-26.7052
-23.8151
-20.9885
-18.2255
-15.5261
-12.8902
-10.3185
-7.81128
-5.36871
-2.99083
-0.677807
1.57026
3.75355
5.8725
7.92771
9.91962
11.8489
13.7165
15.5235
17.2714
18.962
20.5967
22.178
23.7076
25.1872
26.6207
28.0104
29.3576
30.6687
31.942
33.1815
34.3902
35.5704
36.723
37.8474
38.9483
40.0304
41.0937
42.1347
43.155
44.1551
45.135
46.0948
47.0347
47.9548
48.8548
49.735
50.5966
51.4406
52.2685
53.0812
53.8805
54.667
55.4429
56.2119
56.9781
57.7499
58.5316
59.3262
60.1421
60.9914
61.8814
62.8376
63.887
65.0803
66.4628
68.1918
70.3943
73.042
76.7373
81.1619
-93.8073
-89.6648
-85.5916
-81.5899
-77.6587
-73.797
-70.0038
-66.2792
-62.6225
-59.0332
-55.5115
-52.0557
-48.6638
-45.3348
-42.0692
-38.8666
-35.7264
-32.6481
-29.6317
-26.6784
-23.7887
-20.9625
-18.1999
-15.5005
-12.8648
-10.2935
-7.78671
-5.34471
-2.96749
-0.655095
1.59247
3.77527
5.89359
7.94806
9.9393
11.868
13.735
15.5412
17.288
18.9777
20.6117
22.1925
23.721
25.1994
26.6321
28.0203
29.3647
30.6757
31.948
33.1856
34.3923
35.5703
36.7205
37.8423
38.9416
40.0224
41.0846
42.1237
43.1425
44.1418
45.1213
46.0814
47.0221
47.9432
48.8454
49.7296
50.5971
51.4488
52.2864
53.111
53.9247
54.7285
55.5247
56.317
57.1101
57.911
58.7239
59.5531
60.4075
61.2987
62.2355
63.2404
64.3392
65.5739
66.9894
68.7005
70.8348
73.3558
76.8223
80.7953
-93.7654
-89.6237
-85.5515
-81.5507
-77.6203
-73.7593
-69.9668
-66.2429
-62.5869
-58.9983
-55.4772
-52.0221
-48.6308
-45.3024
-42.0374
-38.8354
-35.6957
-32.6178
-29.6018
-26.6489
-23.7596
-20.9338
-18.1714
-15.4722
-12.8368
-10.2659
-7.7596
-5.31812
-2.94138
-0.629242
1.61821
3.80076
5.91858
7.97232
9.96275
11.8906
13.7567
15.562
17.3079
18.9964
20.6291
22.2086
23.7356
25.2126
26.6435
28.0302
29.3731
30.6786
31.9486
33.1847
34.3892
35.5672
36.7159
37.8314
38.9208
39.9976
41.0602
42.097
43.113
44.1103
45.0884
46.0473
46.9874
47.9097
48.8147
49.7027
50.5755
51.4346
52.2816
53.118
53.9456
54.7662
55.583