/*--------------------------------*- C++ -*----------------------------------*\
| =========                 |                                                 |
| \\      /  F ield         | OpenFOAM: The Open Source CFD Toolbox           |
|  \\    /   O peration     | Version:  2412                                  |
|   \\  /    A nd           | Website:  www.openfoam.com                      |
|    \\/     M anipulation  |                                                 |
\*---------------------------------------------------------------------------*/
FoamFile
{
    version     2.0;
    format      ascii;
    arch        "LSB;label=32;scalar=64";
    class       volScalarField;
    location    "480";
    object      p;
}
// * * * * * * * * * * * * * * * * * * * * * * * * * * * * * * * * * * * * * //

dimensions      [0 2 -2 0 0 0 0];

internalField   nonuniform List<scalar> 
7423
(
-2470.79
-3384.22
-3939.02
-3956.91
-3711.65
-3274.32
-2970.37
-2753.03
-2545.71
-2358.86
-2200.68
-2064.22
-1943.69
-1836.4
-1740.55
-1654.28
-1576.14
-1504.9
-1439.57
-1379.34
-1323.48
-1271.44
-1222.72
-1176.92
-1133.71
-1092.82
-1054
-1017.05
-981.804
-948.105
-915.824
-884.844
-855.069
-826.411
-798.791
-772.144
-746.403
-721.522
-697.447
-674.136
-651.548
-629.648
-608.405
-587.788
-567.77
-548.324
-529.421
-511.057
-493.165
-475.816
-458.895
-442.425
-426.38
-410.774
-395.552
-380.702
-366.234
-352.125
-338.35
-324.89
-311.761
-298.929
-286.386
-274.125
-262.119
-250.371
-238.879
-227.623
-216.597
-205.791
-195.188
-184.794
-174.609
-164.619
-154.83
-145.225
-2470.75
-3384.22
-3938.98
-3956.88
-3711.63
-3274.31
-2970.37
-2753.02
-2545.71
-2358.86
-2200.68
-2064.22
-1943.69
-1836.39
-1740.55
-1654.28
-1576.14
-1504.9
-1439.57
-1379.34
-1323.48
-1271.44
-1222.72
-1176.91
-1133.71
-1092.82
-1054
-1017.05
-981.804
-948.105
-915.824
-884.844
-855.069
-826.411
-798.791
-772.144
-746.403
-721.522
-697.447
-674.136
-651.547
-629.648
-608.405
-587.788
-567.77
-548.324
-529.421
-511.057
-493.165
-475.816
-458.895
-442.425
-426.38
-410.774
-395.552
-380.702
-366.234
-352.125
-338.35
-324.89
-311.761
-298.929
-286.386
-274.125
-262.119
-250.371
-238.879
-227.623
-216.597
-205.791
-195.188
-184.794
-174.609
-164.619
-154.83
-145.225
-2470.61
-3384.05
-3938.83
-3956.79
-3711.58
-3274.3
-2970.36
-2753.02
-2545.71
-2358.85
-2200.68
-2064.22
-1943.69
-1836.39
-1740.55
-1654.28
-1576.14
-1504.9
-1439.57
-1379.34
-1323.48
-1271.44
-1222.72
-1176.91
-1133.71
-1092.82
-1054
-1017.05
-981.804
-948.105
-915.824
-884.844
-855.068
-826.411
-798.791
-772.144
-746.403
-721.522
-697.447
-674.136
-651.547
-629.648
-608.405
-587.788
-567.77
-548.324
-529.421
-511.057
-493.165
-475.816
-458.895
-442.425
-426.38
-410.774
-395.552
-380.702
-366.234
-352.125
-338.35
-324.89
-311.761
-298.929
-286.386
-274.125
-262.119
-250.371
-238.879
-227.623
-216.597
-205.791
-195.188
-184.794
-174.609
-164.619
-154.83
-145.225
-2470.26
-3383.62
-3938.46
-3956.58
-3711.47
-3274.25
-2970.33
-2753
-2545.69
-2358.85
-2200.67
-2064.22
-1943.69
-1836.39
-1740.54
-1654.27
-1576.14
-1504.9
-1439.57
-1379.34
-1323.48
-1271.44
-1222.72
-1176.91
-1133.71
-1092.82
-1054
-1017.05
-981.804
-948.105
-915.824
-884.844
-855.068
-826.411
-798.791
-772.144
-746.403
-721.521
-697.447
-674.135
-651.547
-629.648
-608.404
-587.788
-567.77
-548.324
-529.421
-511.057
-493.165
-475.816
-458.895
-442.425
-426.38
-410.773
-395.552
-380.702
-366.234
-352.125
-338.35
-324.89
-311.761
-298.929
-286.386
-274.125
-262.119
-250.371
-238.879
-227.623
-216.597
-205.791
-195.188
-184.794
-174.609
-164.619
-154.83
-145.225
-2469.57
-3382.78
-3937.74
-3956.14
-3711.24
-3274.14
-2970.27
-2752.95
-2545.67
-2358.83
-2200.66
-2064.21
-1943.68
-1836.39
-1740.54
-1654.27
-1576.14
-1504.89
-1439.57
-1379.34
-1323.48
-1271.44
-1222.72
-1176.91
-1133.71
-1092.82
-1054
-1017.05
-981.803
-948.105
-915.824
-884.844
-855.068
-826.411
-798.79
-772.144
-746.403
-721.521
-697.447
-674.135
-651.547
-629.648
-608.404
-587.788
-567.77
-548.324
-529.421
-511.057
-493.165
-475.816
-458.895
-442.425
-426.38
-410.773
-395.552
-380.702
-366.234
-352.125
-338.35
-324.89
-311.761
-298.929
-286.386
-274.125
-262.119
-250.37
-238.878
-227.623
-216.597
-205.791
-195.188
-184.794
-174.609
-164.619
-154.83
-145.225
-2468.38
-3381.39
-3936.55
-3955.4
-3710.84
-3273.94
-2970.15
-2752.87
-2545.62
-2358.79
-2200.63
-2064.19
-1943.67
-1836.38
-1740.53
-1654.26
-1576.13
-1504.89
-1439.56
-1379.33
-1323.48
-1271.44
-1222.71
-1176.91
-1133.71
-1092.81
-1054
-1017.05
-981.802
-948.104
-915.823
-884.843
-855.068
-826.411
-798.79
-772.143
-746.402
-721.521
-697.447
-674.135
-651.547
-629.647
-608.404
-587.788
-567.77
-548.324
-529.421
-511.057
-493.165
-475.816
-458.895
-442.424
-426.379
-410.773
-395.552
-380.702
-366.234
-352.125
-338.35
-324.89
-311.761
-298.929
-286.386
-274.125
-262.119
-250.37
-238.878
-227.623
-216.597
-205.791
-195.188
-184.794
-174.609
-164.619
-154.83
-145.225
-2466.57
-3379.3
-3934.78
-3954.29
-3710.22
-3273.62
-2969.96
-2752.75
-2545.53
-2358.74
-2200.59
-2064.16
-1943.65
-1836.36
-1740.51
-1654.25
-1576.12
-1504.88
-1439.56
-1379.33
-1323.47
-1271.44
-1222.71
-1176.91
-1133.71
-1092.81
-1054
-1017.05
-981.801
-948.103
-915.822
-884.842
-855.067
-826.41
-798.789
-772.143
-746.402
-721.521
-697.446
-674.135
-651.547
-629.647
-608.404
-587.788
-567.769
-548.324
-529.421
-511.057
-493.164
-475.816
-458.894
-442.424
-426.379
-410.773
-395.552
-380.702
-366.234
-352.125
-338.35
-324.89
-311.761
-298.929
-286.386
-274.125
-262.119
-250.37
-238.878
-227.623
-216.597
-205.791
-195.188
-184.794
-174.609
-164.619
-154.83
-145.225
-2464.01
-3376.38
-3932.32
-3952.76
-3709.37
-3273.17
-2969.69
-2752.56
-2545.41
-2358.65
-2200.53
-2064.11
-1943.61
-1836.33
-1740.49
-1654.23
-1576.11
-1504.87
-1439.55
-1379.32
-1323.47
-1271.43
-1222.71
-1176.91
-1133.7
-1092.81
-1053.99
-1017.05
-981.799
-948.101
-915.82
-884.841
-855.066
-826.409
-798.788
-772.142
-746.401
-721.52
-697.445
-674.134
-651.546
-629.647
-608.403
-587.787
-567.769
-548.323
-529.421
-511.057
-493.164
-475.816
-458.894
-442.424
-426.379
-410.773
-395.551
-380.702
-366.234
-352.125
-338.349
-324.89
-311.761
-298.928
-286.386
-274.125
-262.119
-250.37
-238.878
-227.623
-216.596
-205.79
-195.188
-184.794
-174.609
-164.618
-154.83
-145.225
-2460.57
-3372.5
-3929.08
-3950.75
-3708.25
-3272.56
-2969.33
-2752.31
-2545.23
-2358.53
-2200.44
-2064.04
-1943.56
-1836.29
-1740.46
-1654.21
-1576.09
-1504.85
-1439.53
-1379.31
-1323.46
-1271.42
-1222.7
-1176.9
-1133.7
-1092.8
-1053.99
-1017.05
-981.796
-948.098
-915.818
-884.839
-855.063
-826.407
-798.787
-772.14
-746.4
-721.519
-697.444
-674.133
-651.545
-629.646
-608.403
-587.786
-567.768
-548.323
-529.42
-511.056
-493.164
-475.815
-458.894
-442.424
-426.379
-410.773
-395.551
-380.702
-366.233
-352.124
-338.349
-324.89
-311.76
-298.928
-286.385
-274.125
-262.118
-250.37
-238.878
-227.623
-216.596
-205.79
-195.187
-184.794
-174.608
-164.618
-154.83
-145.225
-3367.52
-3924.94
-3948.19
-3706.84
-3271.8
-2968.86
-2752
-2545.02
-2358.37
-2200.32
-2063.96
-1943.49
-1836.23
-1740.41
-1654.17
-1576.06
-1504.83
-1439.51
-1379.29
-1323.44
-1271.41
-1222.69
-1176.89
-1133.69
-1092.8
-1053.98
-1017.04
-981.791
-948.094
-915.814
-884.835
-855.06
-826.404
-798.784
-772.138
-746.398
-721.517
-697.442
-674.131
-651.544
-629.644
-608.401
-587.785
-567.767
-548.322
-529.419
-511.055
-493.163
-475.815
-458.893
-442.423
-426.378
-410.772
-395.551
-380.701
-366.233
-352.124
-338.349
-324.889
-311.76
-298.928
-286.385
-274.125
-262.118
-250.37
-238.878
-227.623
-216.596
-205.79
-195.187
-184.794
-174.608
-164.618
-154.829
-145.225
-3919.76
-3944.97
-3705.07
-3270.84
-2968.29
-2751.61
-2544.74
-2358.17
-2200.18
-2063.85
-1943.41
-1836.17
-1740.36
-1654.13
-1576.02
-1504.8
-1439.48
-1379.27
-1323.42
-1271.39
-1222.67
-1176.88
-1133.68
-1092.79
-1053.97
-1017.03
-981.784
-948.088
-915.808
-884.83
-855.056
-826.4
-798.78
-772.135
-746.394
-721.514
-697.44
-674.129
-651.541
-629.642
-608.399
-587.784
-567.766
-548.32
-529.418
-511.054
-493.162
-475.813
-458.892
-442.422
-426.377
-410.771
-395.55
-380.7
-366.232
-352.123
-338.348
-324.889
-311.759
-298.927
-286.385
-274.124
-262.118
-250.369
-238.877
-227.622
-216.596
-205.79
-195.187
-184.793
-174.608
-164.618
-154.829
-145.225
-3940.99
-3702.89
-3269.67
-2967.58
-2751.14
-2544.41
-2357.94
-2200
-2063.71
-1943.3
-1836.08
-1740.29
-1654.07
-1575.98
-1504.76
-1439.45
-1379.24
-1323.4
-1271.37
-1222.66
-1176.86
-1133.66
-1092.78
-1053.96
-1017.02
-981.775
-948.08
-915.801
-884.823
-855.05
-826.394
-798.775
-772.13
-746.39
-721.51
-697.436
-674.126
-651.538
-629.64
-608.397
-587.781
-567.763
-548.318
-529.416
-511.052
-493.16
-475.812
-458.891
-442.421
-426.376
-410.77
-395.549
-380.699
-366.231
-352.122
-338.347
-324.888
-311.759
-298.927
-286.384
-274.124
-262.117
-250.369
-238.877
-227.622
-216.595
-205.789
-195.186
-184.793
-174.607
-164.617
-154.829
-145.224
-3936.08
-3700.2
-3268.22
-2966.72
-2750.56
-2544.01
-2357.65
-2199.79
-2063.55
-1943.17
-1835.98
-1740.2
-1654
-1575.92
-1504.71
-1439.41
-1379.2
-1323.37
-1271.35
-1222.63
-1176.84
-1133.65
-1092.76
-1053.95
-1017.01
-981.764
-948.069
-915.792
-884.815
-855.042
-826.387
-798.769
-772.124
-746.385
-721.505
-697.432
-674.122
-651.535
-629.636
-608.393
-587.778
-567.76
-548.315
-529.413
-511.05
-493.158
-475.81
-458.889
-442.419
-426.374
-410.768
-395.547
-380.698
-366.23
-352.121
-338.346
-324.887
-311.758
-298.926
-286.383
-274.123
-262.116
-250.368
-238.876
-227.621
-216.594
-205.788
-195.186
-184.792
-174.607
-164.617
-154.828
-145.223
-3930.04
-3696.92
-3266.45
-2965.67
-2749.87
-2543.53
-2357.3
-2199.53
-2063.35
-1943.02
-1835.85
-1740.1
-1653.92
-1575.85
-1504.65
-1439.36
-1379.16
-1323.33
-1271.31
-1222.6
-1176.82
-1133.63
-1092.74
-1053.93
-1016.99
-981.75
-948.057
-915.781
-884.805
-855.033
-826.379
-798.761
-772.117
-746.378
-721.499
-697.426
-674.116
-651.53
-629.631
-608.389
-587.774
-567.757
-548.312
-529.41
-511.047
-493.155
-475.807
-458.886
-442.416
-426.372
-410.766
-395.545
-380.696
-366.228
-352.119
-338.344
-324.885
-311.756
-298.924
-286.382
-274.121
-262.115
-250.367
-238.875
-227.62
-216.593
-205.787
-195.185
-184.791
-174.606
-164.616
-154.827
-3922.58
-3692.91
-3264.29
-2964.39
-2749.03
-2542.94
-2356.88
-2199.22
-2063.11
-1942.83
-1835.71
-1739.98
-1653.82
-1575.77
-1504.58
-1439.3
-1379.11
-1323.29
-1271.28
-1222.57
-1176.79
-1133.6
-1092.72
-1053.91
-1016.98
-981.733
-948.042
-915.767
-884.792
-855.021
-826.368
-798.751
-772.108
-746.37
-721.491
-697.419
-674.11
-651.524
-629.626
-608.384
-587.769
-567.752
-548.308
-529.406
-511.043
-493.151
-475.804
-458.883
-442.413
-426.369
-410.764
-395.543
-380.694
-366.226
-352.117
-338.342
-324.883
-311.754
-298.922
-286.38
-274.119
-262.113
-250.365
-238.873
-227.618
-216.592
-205.786
-195.183
-184.79
-174.604
-164.614
-154.826
-3913.57
-3687.92
-3261.66
-2962.83
-2748.01
-2542.24
-2356.38
-2198.85
-2062.83
-1942.61
-1835.53
-1739.84
-1653.7
-1575.67
-1504.5
-1439.23
-1379.05
-1323.24
-1271.23
-1222.53
-1176.75
-1133.57
-1092.69
-1053.89
-1016.95
-981.714
-948.024
-915.751
-884.777
-855.008
-826.356
-798.74
-772.097
-746.36
-721.482
-697.411
-674.102
-651.516
-629.619
-608.378
-587.763
-567.747
-548.302
-529.401
-511.038
-493.147
-475.8
-458.879
-442.41
-426.366
-410.76
-395.539
-380.691
-366.223
-352.115
-338.34
-324.881
-311.752
-298.92
-286.378
-274.117
-262.111
-250.363
-238.871
-227.616
-216.59
-205.784
-195.181
-184.788
-174.603
-164.613
-154.824
-3903.27
-3681.57
-3258.45
-2960.92
-2746.77
-2541.4
-2355.78
-2198.41
-2062.49
-1942.35
-1835.32
-1739.67
-1653.56
-1575.55
-1504.4
-1439.14
-1378.98
-1323.17
-1271.18
-1222.49
-1176.71
-1133.53
-1092.66
-1053.86
-1016.93
-981.69
-948.003
-915.731
-884.76
-854.992
-826.341
-798.726
-772.085
-746.349
-721.471
-697.401
-674.093
-651.508
-629.611
-608.37
-587.756
-567.74
-548.296
-529.395
-511.033
-493.142
-475.795
-458.875
-442.406
-426.362
-410.757
-395.536
-380.687
-366.22
-352.111
-338.337
-324.878
-311.749
-298.917
-286.375
-274.115
-262.109
-250.361
-238.869
-227.614
-216.588
-205.782
-195.179
-184.786
-174.601
-164.611
-154.822
-3892.09
-3673.37
-3254.52
-2958.6
-2745.28
-2540.38
-2355.06
-2197.87
-2062.09
-1942.04
-1835.07
-1739.47
-1653.39
-1575.41
-1504.28
-1439.04
-1378.89
-1323.1
-1271.11
-1222.43
-1176.66
-1133.49
-1092.62
-1053.82
-1016.9
-981.662
-947.977
-915.708
-884.739
-854.972
-826.323
-798.71
-772.07
-746.335
-721.459
-697.389
-674.082
-651.497
-629.601
-608.361
-587.748
-567.732
-548.289
-529.388
-511.027
-493.136
-475.789
-458.869
-442.401
-426.357
-410.752
-395.531
-380.683
-366.216
-352.108
-338.333
-324.874
-311.746
-298.914
-286.372
-274.112
-262.106
-250.358
-238.866
-227.611
-216.585
-205.779
-195.177
-184.783
-174.598
-164.608
-154.82
-3879.41
-3663.46
-3249.7
-2955.75
-2743.46
-2539.15
-2354.18
-2197.23
-2061.61
-1941.66
-1834.77
-1739.22
-1653.2
-1575.25
-1504.14
-1438.93
-1378.79
-1323.01
-1271.04
-1222.36
-1176.6
-1133.44
-1092.57
-1053.78
-1016.86
-981.629
-947.947
-915.681
-884.714
-854.95
-826.303
-798.691
-772.052
-746.319
-721.444
-697.375
-674.069
-651.485
-629.59
-608.351
-587.738
-567.723
-548.28
-529.38
-511.019
-493.129
-475.783
-458.863
-442.395
-426.351
-410.747
-395.526
-380.678
-366.211
-352.103
-338.329
-324.87
-311.742
-298.91
-286.368
-274.108
-262.102
-250.354
-238.863
-227.608
-216.582
-205.776
-195.174
-184.78
-174.595
-164.605
-154.817
-3864.07
-3652.45
-3243.84
-2952.27
-2741.25
-2537.66
-2353.13
-2196.46
-2061.03
-1941.21
-1834.42
-1738.94
-1652.96
-1575.05
-1503.98
-1438.79
-1378.67
-1322.91
-1270.95
-1222.28
-1176.54
-1133.38
-1092.52
-1053.73
-1016.82
-981.59
-947.912
-915.649
-884.684
-854.923
-826.278
-798.668
-772.031
-746.299
-721.426
-697.358
-674.053
-651.471
-629.577
-608.338
-587.727
-567.712
-548.27
-529.371
-511.01
-493.121
-475.775
-458.855
-442.387
-426.345
-410.74
-395.52
-380.672
-366.206
-352.098
-338.324
-324.865
-311.737
-298.906
-286.364
-274.104
-262.098
-250.35
-238.859
-227.604
-216.578
-205.773
-195.17
-184.777
-174.592
-164.602
-154.813
-3845.87
-3640.53
-3236.65
-2948.02
-2738.56
-2535.86
-2351.86
-2195.54
-2060.33
-1940.67
-1833.99
-1738.59
-1652.68
-1574.82
-1503.78
-1438.62
-1378.53
-1322.79
-1270.84
-1222.19
-1176.45
-1133.3
-1092.45
-1053.68
-1016.76
-981.543
-947.869
-915.61
-884.649
-854.891
-826.248
-798.641
-772.007
-746.276
-721.405
-697.339
-674.035
-651.454
-629.561
-608.324
-587.713
-567.699
-548.258
-529.36
-511
-493.111
-475.765
-458.847
-442.379
-426.337
-410.733
-395.513
-380.666
-366.199
-352.092
-338.318
-324.86
-311.732
-298.901
-286.359
-274.099
-262.093
-250.346
-238.855
-227.6
-216.574
-205.768
-195.166
-184.773
-174.588
-164.598
-154.81
-3825.15
-3627.76
-3227.67
-2942.85
-2735.27
-2533.67
-2350.33
-2194.42
-2059.49
-1940.03
-1833.48
-1738.18
-1652.34
-1574.54
-1503.55
-1438.42
-1378.36
-1322.64
-1270.71
-1222.08
-1176.36
-1133.22
-1092.38
-1053.61
-1016.7
-981.488
-947.819
-915.565
-884.608
-854.853
-826.214
-798.609
-771.977
-746.249
-721.379
-697.315
-674.014
-651.434
-629.542
-608.306
-587.697
-567.684
-548.244
-529.346
-510.987
-493.099
-475.754
-458.836
-442.369
-426.327
-410.724
-395.505
-380.658
-366.192
-352.084
-338.311
-324.853
-311.725
-298.894
-286.353
-274.093
-262.088
-250.341
-238.849
-227.595
-216.569
-205.764
-195.161
-184.768
-174.583
-164.593
-154.805
-3801.82
-3614.02
-3216.66
-2936.59
-2731.27
-2531
-2348.46
-2193.07
-2058.48
-1939.25
-1832.87
-1737.69
-1651.94
-1574.21
-1503.27
-1438.19
-1378.16
-1322.47
-1270.56
-1221.95
-1176.24
-1133.12
-1092.29
-1053.53
-1016.63
-981.422
-947.76
-915.511
-884.559
-854.808
-826.172
-798.571
-771.942
-746.217
-721.35
-697.288
-673.988
-651.41
-629.52
-608.286
-587.678
-567.666
-548.227
-529.331
-510.972
-493.085
-475.741
-458.824
-442.358
-426.316
-410.714
-395.495
-380.648
-366.183
-352.076
-338.303
-324.845
-311.718
-298.887
-286.346
-274.087
-262.081
-250.334
-238.843
-227.589
-216.563
-205.758
-195.156
-184.763
-174.578
-164.588
-154.8
-3775.62
-3598.46
-3204.12
-2929.11
-2726.4
-2527.74
-2346.18
-2191.42
-2057.26
-1938.31
-1832.14
-1737.11
-1651.47
-1573.81
-1502.94
-1437.91
-1377.92
-1322.26
-1270.39
-1221.79
-1176.1
-1132.99
-1092.18
-1053.43
-1016.54
-981.344
-947.689
-915.447
-884.5
-854.754
-826.124
-798.527
-771.901
-746.179
-721.314
-697.255
-673.958
-651.382
-629.494
-608.261
-587.655
-567.645
-548.207
-529.312
-510.955
-493.069
-475.726
-458.809
-442.344
-426.303
-410.701
-395.483
-380.637
-366.172
-352.066
-338.293
-324.836
-311.709
-298.879
-286.338
-274.079
-262.074
-250.327
-238.836
-227.582
-216.556
-205.751
-195.149
-184.756
-174.571
-164.582
-154.794
-3746.32
-3580.16
-3190.78
-2920.26
-2720.57
-2523.76
-2343.42
-2189.43
-2055.78
-1937.18
-1831.25
-1736.4
-1650.89
-1573.34
-1502.55
-1437.57
-1377.64
-1322.02
-1270.17
-1221.61
-1175.94
-1132.85
-1092.05
-1053.32
-1016.44
-981.251
-947.605
-915.37
-884.431
-854.691
-826.066
-798.473
-771.852
-746.134
-721.273
-697.217
-673.922
-651.349
-629.463
-608.233
-587.628
-567.62
-548.184
-529.29
-510.934
-493.049
-475.707
-458.792
-442.328
-426.288
-410.687
-395.469
-380.624
-366.16
-352.054
-338.282
-324.825
-311.698
-298.869
-286.328
-274.069
-262.065
-250.318
-238.827
-227.573
-216.548
-205.743
-195.141
-184.748
-174.564
-164.574
-154.786
-3713.57
-3559.23
-3176.32
-2909.94
-2713.73
-2518.97
-2340.04
-2187
-2053.98
-1935.81
-1830.18
-1735.55
-1650.2
-1572.77
-1502.07
-1437.17
-1377.3
-1321.72
-1269.92
-1221.39
-1175.75
-1132.68
-1091.9
-1053.18
-1016.32
-981.141
-947.506
-915.28
-884.349
-854.616
-825.997
-798.41
-771.794
-746.08
-721.223
-697.171
-673.879
-651.31
-629.427
-608.198
-587.596
-567.59
-548.156
-529.264
-510.91
-493.026
-475.686
-458.772
-442.308
-426.27
-410.669
-395.453
-380.608
-366.145
-352.04
-338.268
-324.812
-311.686
-298.857
-286.317
-274.058
-262.054
-250.308
-238.817
-227.564
-216.538
-205.734
-195.132
-184.739
-174.555
-164.566
-154.778
-3676.95
-3536.13
-3160.09
-2898.24
-2705.76
-2513.29
-2335.95
-2184.04
-2051.79
-1934.15
-1828.89
-1734.52
-1649.37
-1572.09
-1501.5
-1436.69
-1376.89
-1321.37
-1269.61
-1221.12
-1175.51
-1132.47
-1091.72
-1053.02
-1016.17
-981.011
-947.388
-915.173
-884.251
-854.527
-825.915
-798.336
-771.725
-746.017
-721.165
-697.117
-673.829
-651.263
-629.383
-608.158
-587.558
-567.555
-548.123
-529.233
-510.881
-492.999
-475.66
-458.747
-442.286
-426.248
-410.649
-395.434
-380.59
-366.127
-352.023
-338.252
-324.797
-311.671
-298.843
-286.303
-274.045
-262.041
-250.295
-238.805
-227.552
-216.527
-205.723
-195.121
-184.729
-174.545
-164.555
-3635.96
-3510.65
-3141.86
-2885.18
-2696.55
-2506.66
-2331.06
-2180.45
-2049.13
-1932.12
-1827.31
-1733.27
-1648.36
-1571.26
-1500.82
-1436.12
-1376.4
-1320.95
-1269.25
-1220.81
-1175.24
-1132.23
-1091.5
-1052.82
-1016
-980.855
-947.247
-915.046
-884.136
-854.421
-825.819
-798.247
-771.644
-745.942
-721.095
-697.053
-673.77
-651.208
-629.332
-608.11
-587.514
-567.513
-548.084
-529.197
-510.846
-492.967
-475.63
-458.719
-442.259
-426.223
-410.625
-395.411
-380.568
-366.107
-352.003
-338.234
-324.779
-311.654
-298.826
-286.287
-274.03
-262.026
-250.281
-238.791
-227.538
-216.514
-205.71
-195.109
-184.716
-174.532
-164.543
-3589.96
-3482.51
-3121.31
-2870.45
-2686.14
-2499.05
-2325.31
-2176.13
-2045.89
-1929.66
-1825.4
-1731.76
-1647.15
-1570.27
-1499.99
-1435.42
-1375.81
-1320.45
-1268.82
-1220.43
-1174.9
-1131.94
-1091.24
-1052.59
-1015.79
-980.67
-947.08
-914.894
-883.998
-854.296
-825.704
-798.142
-771.547
-745.853
-721.013
-696.977
-673.699
-651.143
-629.271
-608.054
-587.461
-567.464
-548.038
-529.153
-510.806
-492.929
-475.594
-458.685
-442.227
-426.193
-410.597
-395.384
-380.543
-366.082
-351.98
-338.211
-324.758
-311.634
-298.806
-286.268
-274.012
-262.009
-250.264
-238.775
-227.522
-216.498
-205.694
-195.093
-184.702
-174.518
-164.529
-3451.55
-3098.22
-2853.83
-2674.38
-2490.36
-2318.69
-2171.04
-2042
-1926.67
-1823.08
-1729.92
-1645.67
-1569.06
-1498.99
-1434.58
-1375.1
-1319.84
-1268.29
-1219.97
-1174.51
-1131.59
-1090.93
-1052.32
-1015.55
-980.448
-946.88
-914.713
-883.834
-854.146
-825.568
-798.017
-771.432
-745.747
-720.916
-696.887
-673.616
-651.065
-629.199
-607.987
-587.399
-567.406
-547.984
-529.103
-510.758
-492.884
-475.552
-458.646
-442.189
-426.157
-410.563
-395.352
-380.513
-366.054
-351.953
-338.185
-324.732
-311.61
-298.783
-286.246
-273.99
-261.988
-250.244
-238.755
-227.503
-216.48
-205.676
-195.076
-184.684
-174.501
-164.512
-3416.93
-3072.29
-2835.31
-2661.08
-2480.52
-2311.12
-2165.14
-2037.39
-1923.08
-1820.26
-1727.68
-1643.87
-1567.59
-1497.78
-1433.57
-1374.24
-1319.1
-1267.66
-1219.42
-1174.03
-1131.16
-1090.56
-1051.99
-1015.25
-980.183
-946.641
-914.497
-883.638
-853.968
-825.405
-797.868
-771.296
-745.622
-720.8
-696.78
-673.517
-650.974
-629.115
-607.908
-587.325
-567.337
-547.92
-529.042
-510.702
-492.831
-475.502
-458.599
-442.145
-426.116
-410.524
-395.315
-380.477
-366.02
-351.921
-338.154
-324.703
-311.582
-298.756
-286.22
-273.965
-261.964
-250.22
-238.733
-227.481
-216.458
-205.655
-195.055
-184.664
-174.481
-164.493
-3378.02
-3043.16
-2814.79
-2646.06
-2469.4
-2302.55
-2158.4
-2032.05
-1918.82
-1816.86
-1724.96
-1641.68
-1565.8
-1496.3
-1432.33
-1373.19
-1318.21
-1266.89
-1218.76
-1173.45
-1130.66
-1090.11
-1051.59
-1014.9
-979.865
-946.355
-914.239
-883.404
-853.756
-825.211
-797.691
-771.133
-745.472
-720.663
-696.653
-673.4
-650.865
-629.014
-607.814
-587.238
-567.256
-547.844
-528.972
-510.635
-492.769
-475.444
-458.544
-442.093
-426.067
-410.477
-395.271
-380.435
-365.98
-351.883
-338.118
-324.668
-311.548
-298.725
-286.189
-273.936
-261.935
-250.193
-238.706
-227.455
-216.433
-205.63
-195.031
-184.64
-174.458
-164.47
-3334.27
-3010.61
-2791.94
-2629.12
-2456.85
-2292.85
-2150.73
-2025.92
-1913.87
-1812.85
-1721.7
-1639.03
-1563.63
-1494.5
-1430.83
-1371.92
-1317.13
-1265.96
-1217.95
-1172.75
-1130.04
-1089.57
-1051.11
-1014.47
-979.482
-946.011
-913.929
-883.123
-853.501
-824.979
-797.479
-770.939
-745.295
-720.499
-696.502
-673.261
-650.736
-628.894
-607.703
-587.135
-567.16
-547.754
-528.888
-510.557
-492.695
-475.375
-458.479
-442.032
-426.009
-410.422
-395.219
-380.386
-365.933
-351.838
-338.076
-324.628
-311.51
-298.687
-286.153
-273.901
-261.902
-250.16
-238.674
-227.425
-216.403
-205.602
-195.003
-184.613
-174.431
-164.443
-3285.21
-2974.55
-2766.34
-2610.08
-2442.65
-2281.89
-2142.05
-2018.96
-1908.21
-1808.2
-1717.86
-1635.85
-1561.01
-1492.32
-1429.01
-1370.38
-1315.82
-1264.83
-1216.98
-1171.89
-1129.3
-1088.91
-1050.53
-1013.95
-979.02
-945.597
-913.556
-882.786
-853.195
-824.701
-797.225
-770.707
-745.082
-720.304
-696.322
-673.095
-650.583
-628.752
-607.572
-587.012
-567.046
-547.648
-528.788
-510.464
-492.608
-475.293
-458.402
-441.959
-425.941
-410.358
-395.158
-380.328
-365.878
-351.786
-338.026
-324.58
-311.464
-298.644
-286.111
-273.861
-261.863
-250.122
-238.638
-227.389
-216.369
-205.568
-194.97
-184.58
-174.399
-164.413
-3230.33
-2934.7
-2737.67
-2588.65
-2426.59
-2269.51
-2132.24
-2011.07
-1901.78
-1802.88
-1713.42
-1632.13
-1557.88
-1489.69
-1426.79
-1368.51
-1314.22
-1263.46
-1215.79
-1170.86
-1128.39
-1088.11
-1049.82
-1013.33
-978.462
-945.097
-913.106
-882.38
-852.827
-824.367
-796.921
-770.429
-744.827
-720.07
-696.107
-672.897
-650.4
-628.583
-607.415
-586.867
-566.91
-547.521
-528.67
-510.354
-492.505
-475.196
-458.311
-441.874
-425.86
-410.282
-395.086
-380.26
-365.814
-351.725
-337.967
-324.524
-311.411
-298.592
-286.062
-273.813
-261.817
-250.078
-238.595
-227.348
-216.329
-205.529
-194.932
-184.543
-174.363
-164.377
-3169.05
-2890.75
-2705.67
-2564.56
-2408.47
-2255.54
-2121.14
-2002.13
-1894.47
-1796.82
-1708.34
-1627.84
-1554.23
-1486.58
-1424.13
-1366.24
-1312.28
-1261.79
-1214.34
-1169.6
-1127.29
-1087.15
-1048.97
-1012.57
-977.785
-944.491
-912.561
-881.889
-852.383
-823.964
-796.554
-770.095
-744.521
-719.79
-695.85
-672.659
-650.181
-628.381
-607.227
-586.693
-566.749
-547.371
-528.531
-510.223
-492.382
-475.082
-458.204
-441.773
-425.765
-410.193
-395.001
-380.18
-365.738
-351.653
-337.899
-324.459
-311.348
-298.533
-286.005
-273.758
-261.764
-250.027
-238.546
-227.3
-216.282
-205.484
-194.887
-184.5
-174.321
-164.336
-3100.8
-2842.42
-2670.04
-2537.53
-2388.06
-2239.79
-2108.6
-1992.02
-1886.2
-1789.95
-1702.57
-1622.93
-1550.03
-1482.96
-1421.01
-1363.53
-1309.94
-1259.76
-1212.58
-1168.07
-1125.95
-1085.97
-1047.93
-1011.64
-976.962
-943.755
-911.901
-881.294
-851.846
-823.477
-796.112
-769.692
-744.153
-719.452
-695.54
-672.375
-649.919
-628.139
-607.004
-586.486
-566.556
-547.192
-528.364
-510.068
-492.237
-474.946
-458.076
-441.653
-425.652
-410.087
-394.901
-380.085
-365.648
-351.568
-337.818
-324.382
-311.275
-298.463
-285.938
-273.694
-261.702
-249.968
-238.488
-227.245
-216.229
-205.432
-194.836
-184.45
-174.272
-164.289
-3025.01
-2789.43
-2630.54
-2507.22
-2365.09
-2222.03
-2094.44
-1980.57
-1876.82
-1782.16
-1696.01
-1617.36
-1545.24
-1478.82
-1417.4
-1360.37
-1307.17
-1257.33
-1210.46
-1166.21
-1124.32
-1084.53
-1046.66
-1010.52
-975.961
-942.86
-911.098
-880.572
-851.194
-822.887
-795.576
-769.204
-743.708
-719.046
-695.167
-672.032
-649.604
-627.848
-606.735
-586.237
-566.326
-546.978
-528.165
-509.882
-492.064
-474.785
-457.925
-441.511
-425.519
-409.961
-394.783
-379.973
-365.543
-351.468
-337.723
-324.291
-311.189
-298.381
-285.86
-273.619
-261.63
-249.898
-238.422
-227.18
-216.166
-205.371
-194.778
-184.393
-174.217
-164.234
-2941.15
-2731.45
-2586.86
-2473.34
-2339.32
-2202.07
-2078.48
-1967.64
-1866.22
-1773.34
-1688.57
-1611.02
-1539.79
-1474.09
-1413.26
-1356.73
-1303.96
-1254.49
-1207.94
-1163.98
-1122.35
-1082.79
-1045.11
-1009.15
-974.74
-941.769
-910.12
-879.693
-850.401
-822.169
-794.926
-768.613
-743.169
-718.553
-694.717
-671.619
-649.224
-627.498
-606.412
-585.939
-566.05
-546.722
-527.927
-509.661
-491.857
-474.592
-457.745
-441.342
-425.36
-409.813
-394.643
-379.841
-365.418
-351.35
-337.611
-324.185
-311.088
-298.284
-285.768
-273.531
-261.546
-249.817
-238.344
-227.105
-216.094
-205.302
-194.71
-184.327
-174.153
-164.173
-2848.93
-2668.37
-2538.66
-2435.42
-2310.33
-2179.59
-2060.49
-1953.03
-1854.22
-1763.35
-1680.15
-1603.84
-1533.61
-1468.72
-1408.56
-1352.59
-1300.28
-1251.21
-1205.02
-1161.37
-1120.01
-1080.7
-1043.25
-1007.48
-973.255
-940.441
-908.93
-878.622
-849.436
-821.297
-794.135
-767.894
-742.515
-717.956
-694.17
-671.118
-648.764
-627.075
-606.023
-585.579
-565.717
-546.414
-527.641
-509.395
-491.609
-474.362
-457.529
-441.14
-425.171
-409.636
-394.476
-379.684
-365.27
-351.21
-337.479
-324.059
-310.969
-298.171
-285.66
-273.428
-261.447
-249.722
-238.253
-227.018
-216.011
-205.221
-194.632
-184.252
-174.08
-164.102
-2747.7
-2600.4
-2486.16
-2393.4
-2277.95
-2154.38
-2040.24
-1936.53
-1840.65
-1752.04
-1670.6
-1595.7
-1526.59
-1462.62
-1403.22
-1347.87
-1296.09
-1247.47
-1201.66
-1158.35
-1117.29
-1078.25
-1041.04
-1005.49
-971.46
-938.828
-907.48
-877.318
-848.259
-820.233
-793.171
-767.019
-741.719
-717.23
-693.507
-670.511
-648.207
-626.563
-605.551
-585.144
-565.315
-546.042
-527.297
-509.075
-491.311
-474.085
-457.271
-440.898
-424.945
-409.424
-394.278
-379.497
-365.094
-351.045
-337.322
-323.91
-310.828
-298.037
-285.533
-273.308
-261.332
-249.612
-238.147
-226.917
-215.914
-205.128
-194.541
-184.164
-173.996
-164.021
-2635.85
-2526.06
-2428.34
-2346.68
-2241.82
-2126.19
-2017.52
-1917.97
-1825.34
-1739.26
-1659.79
-1586.47
-1518.64
-1455.7
-1397.15
-1342.51
-1291.32
-1243.21
-1197.83
-1154.89
-1114.16
-1075.41
-1038.47
-1003.16
-969.34
-936.902
-905.733
-875.736
-846.829
-818.939
-791.998
-765.953
-740.75
-716.346
-692.7
-669.772
-647.529
-625.941
-604.979
-584.617
-564.829
-545.592
-526.88
-508.689
-490.952
-473.753
-456.961
-440.608
-424.674
-409.171
-394.04
-379.273
-364.884
-350.848
-337.136
-323.734
-310.661
-297.879
-285.383
-273.166
-261.196
-249.482
-238.024
-226.799
-215.801
-205.02
-194.437
-184.064
-173.899
-163.928
-2517.31
-2447.13
-2365.35
-2294.77
-2201.36
-2094.55
-1992
-1897.06
-1808.07
-1724.82
-1647.57
-1576.03
-1509.63
-1447.86
-1390.27
-1336.42
-1285.91
-1238.37
-1193.48
-1150.96
-1110.6
-1072.18
-1035.51
-1000.46
-966.881
-934.655
-903.679
-873.858
-845.113
-817.373
-790.573
-764.656
-739.569
-715.27
-691.717
-668.873
-646.706
-625.185
-604.284
-583.977
-564.239
-545.047
-526.376
-508.222
-490.517
-473.351
-456.586
-440.258
-424.348
-408.867
-393.755
-379.005
-364.633
-350.612
-336.914
-323.524
-310.463
-297.692
-285.206
-272.998
-261.036
-249.33
-237.879
-226.662
-215.67
-204.895
-194.317
-183.948
-173.788
-163.822
52.1959
-393.769
-889.455
-1391.07
-1841.95
-2166.06
-2392.18
-2364.03
-2297.98
-2238.06
-2156.5
-2059.22
-1963.36
-1873.5
-1788.55
-1708.48
-1633.73
-1564.19
-1499.4
-1438.96
-1382.46
-1329.52
-1279.77
-1232.87
-1188.53
-1146.5
-1106.55
-1068.49
-1032.15
-997.384
-964.059
-932.064
-901.299
-871.672
-843.104
-815.527
-788.876
-763.098
-738.14
-713.961
-690.52
-667.778
-645.703
-624.265
-603.439
-583.199
-563.521
-544.385
-525.765
-507.655
-489.991
-472.865
-456.134
-439.836
-423.955
-408.501
-393.413
-378.684
-364.332
-350.331
-336.648
-323.273
-310.228
-297.47
-284.996
-272.8
-260.848
-249.151
-237.709
-226.5
-215.517
-204.749
-194.177
-183.815
-173.661
-163.702
74.8285
-341.165
-803.772
-1276.11
-1709.59
-2033.58
-2258.72
-2271.25
-2224.24
-2175.88
-2106.79
-2019.87
-1931.34
-1847.04
-1766.56
-1690.01
-1618.06
-1550.75
-1487.8
-1428.85
-1373.58
-1321.67
-1272.78
-1226.62
-1182.91
-1141.42
-1101.94
-1064.3
-1028.32
-993.877
-960.84
-929.103
-898.57
-869.155
-840.781
-813.383
-786.897
-761.271
-736.453
-712.404
-689.082
-666.453
-644.484
-623.145
-602.409
-582.252
-562.649
-543.581
-525.022
-506.968
-489.352
-472.277
-455.585
-439.325
-423.479
-408.06
-392.999
-378.296
-363.97
-349.992
-336.331
-322.973
-309.947
-297.205
-284.747
-272.565
-260.625
-248.939
-237.509
-226.312
-215.339
-204.58
-194.015
-183.661
-173.515
-163.564
95.5854
-291.483
-721.335
-1163.5
-1576.47
-1896.29
-2122
-2171.18
-2145.6
-2109.1
-2052.47
-1976.46
-1895.87
-1817.58
-1741.95