/*--------------------------------*- C++ -*----------------------------------*\
| =========                 |                                                 |
| \\      /  F ield         | OpenFOAM: The Open Source CFD Toolbox           |
|  \\    /   O peration     | Version:  2412                                  |
|   \\  /    A nd           | Website:  www.openfoam.com                      |
|    \\/     M anipulation  |                                                 |
\*---------------------------------------------------------------------------*/
FoamFile
{
    version     2.0;
    format      ascii;
    arch        "LSB;label=32;scalar=64";
    class       volScalarField;
    location    "320";
    object      nut;
}
// * * * * * * * * * * * * * * * * * * * * * * * * * * * * * * * * * * * * * //

dimensions      [0 2 -1 0 0 0 0];

internalField   nonuniform List<scalar> 
7387
(
2.04982e-12
1.95522e-12
1.86337e-12
1.77452e-12
1.68847e-12
1.60528e-12
1.52487e-12
1.44712e-12
1.37202e-12
1.29965e-12
1.23011e-12
1.16344e-12
1.09936e-12
1.03795e-12
9.7935e-13
9.23416e-13
8.70059e-13
8.19281e-13
7.71095e-13
7.25526e-13
6.82433e-13
6.41712e-13
6.03397e-13
5.67325e-13
5.33455e-13
5.01739e-13
4.72008e-13
4.44191e-13
4.1823e-13
3.94021e-13
3.7147e-13
3.50467e-13
3.30957e-13
3.12836e-13
2.96019e-13
2.80425e-13
2.65974e-13
2.52599e-13
2.40239e-13
2.28818e-13
2.18273e-13
2.08592e-13
1.99719e-13
1.91577e-13
1.84079e-13
1.77216e-13
1.71075e-13
1.65756e-13
1.61221e-13
1.57121e-13
1.53253e-13
1.49514e-13
1.4655e-13
1.45189e-13
1.45795e-13
1.48612e-13
1.52157e-13
1.54829e-13
1.56686e-13
1.56889e-13
1.57409e-13
1.63554e-13
1.79382e-13
2.09566e-13
2.65215e-13
3.75058e-13
4.6994e-13
4.0105e-13
1.79101e-13
2.59136e-14
1.20601e-14
1.43292e-14
1.97795e-10
1.88667e-10
1.79807e-10
1.71231e-10
1.62934e-10
1.54909e-10
1.47148e-10
1.39647e-10
1.32404e-10
1.25424e-10
1.18713e-10
1.12272e-10
1.06091e-10
1.00172e-10
9.45165e-11
8.91184e-11
8.3969e-11
7.90709e-11
7.44236e-11
7.0026e-11
6.5867e-11
6.19378e-11
5.82395e-11
5.47589e-11
5.14907e-11
4.84277e-11
4.55574e-11
4.28738e-11
4.03682e-11
3.80317e-11
3.58557e-11
3.38293e-11
3.19459e-11
3.0197e-11
2.85736e-11
2.70684e-11
2.56742e-11
2.43837e-11
2.31903e-11
2.20877e-11
2.10705e-11
2.01355e-11
1.9279e-11
1.8493e-11
1.77694e-11
1.71068e-11
1.65135e-11
1.59993e-11
1.55601e-11
1.51635e-11
1.47897e-11
1.44288e-11
1.4142e-11
1.4007e-11
1.4059e-11
1.43199e-11
1.46507e-11
1.49017e-11
1.50761e-11
1.50962e-11
1.51484e-11
1.57267e-11
1.72107e-11
2.00343e-11
2.52022e-11
3.51746e-11
4.36891e-11
3.77775e-11
1.73159e-11
2.49791e-12
1.14606e-12
1.37306e-12
1.95238e-09
1.86234e-09
1.77495e-09
1.69034e-09
1.6085e-09
1.52936e-09
1.45283e-09
1.37884e-09
1.30741e-09
1.23857e-09
1.17235e-09
1.10877e-09
1.04781e-09
9.89435e-10
9.33629e-10
8.80354e-10
8.2955e-10
7.81231e-10
7.35386e-10
6.91973e-10
6.50911e-10
6.12142e-10
5.75628e-10
5.4127e-10
5.09002e-10
4.78746e-10
4.50405e-10
4.23909e-10
3.99164e-10
3.76085e-10
3.54591e-10
3.34579e-10
3.15976e-10
2.98699e-10
2.82662e-10
2.67792e-10
2.54019e-10
2.4127e-10
2.2948e-10
2.18586e-10
2.08535e-10
1.99294e-10
1.90827e-10
1.83057e-10
1.75904e-10
1.69354e-10
1.63483e-10
1.58381e-10
1.54011e-10
1.50072e-10
1.46369e-10
1.42806e-10
1.39957e-10
1.38554e-10
1.38944e-10
1.41318e-10
1.44381e-10
1.46734e-10
1.48366e-10
1.48578e-10
1.49113e-10
1.54546e-10
1.68419e-10
1.9465e-10
2.42129e-10
3.3059e-10
4.05122e-10
3.58506e-10
1.73139e-10
2.56427e-11
1.11614e-11
1.36518e-11
9.74259e-09
9.29401e-09
8.8585e-09
8.43691e-09
8.029e-09
7.63458e-09
7.25333e-09
6.88475e-09
6.52878e-09
6.18565e-09
5.85555e-09
5.53869e-09
5.23481e-09
4.94381e-09
4.66555e-09
4.39986e-09
4.14657e-09
3.90564e-09
3.67698e-09
3.46037e-09
3.2555e-09
3.06207e-09
2.87981e-09
2.70833e-09
2.54725e-09
2.39619e-09
2.25471e-09
2.12239e-09
1.99881e-09
1.88354e-09
1.77615e-09
1.67618e-09
1.58324e-09
1.4969e-09
1.41677e-09
1.34246e-09
1.27361e-09
1.20988e-09
1.15095e-09
1.0965e-09
1.04624e-09
1.00003e-09
9.57668e-10
9.18791e-10
8.8301e-10
8.5023e-10
8.20811e-10
7.95155e-10
7.7309e-10
7.53236e-10
7.34645e-10
7.16852e-10
7.02488e-10
6.94966e-10
6.96e-10
7.06388e-10
7.20217e-10
7.3104e-10
7.38532e-10
7.39695e-10
7.42511e-10
7.67676e-10
8.31527e-10
9.51242e-10
1.165e-09
1.54561e-09
1.8608e-09
1.69345e-09
8.80239e-10
1.40782e-10
5.52326e-11
7.00294e-11
3.48733e-08
3.32723e-08
3.17177e-08
3.02122e-08
2.87557e-08
2.7347e-08
2.59854e-08
2.46692e-08
2.33979e-08
2.2172e-08
2.09927e-08
1.98603e-08
1.87744e-08
1.77344e-08
1.67396e-08
1.57896e-08
1.48839e-08
1.40223e-08
1.32044e-08
1.24293e-08
1.16962e-08
1.10039e-08
1.03513e-08
9.73721e-09
9.16026e-09
8.61913e-09
8.11222e-09
7.63805e-09
7.19514e-09
6.78187e-09
6.39681e-09
6.03831e-09
5.70498e-09
5.39526e-09
5.10774e-09
4.84108e-09
4.594e-09
4.36532e-09
4.15378e-09
3.9583e-09
3.77787e-09
3.61187e-09
3.45962e-09
3.31988e-09
3.19129e-09
3.07347e-09
2.96751e-09
2.8747e-09
2.79449e-09
2.72242e-09
2.65526e-09
2.59143e-09
2.53926e-09
2.50988e-09
2.50925e-09
2.53967e-09
2.58239e-09
2.61678e-09
2.64056e-09
2.64506e-09
2.65575e-09
2.73727e-09
2.94208e-09
3.32234e-09
3.99156e-09
5.11968e-09
6.03216e-09
5.65098e-09
3.21148e-09
5.95244e-10
1.98736e-10
2.64954e-10
1.02539e-07
9.78542e-08
9.3303e-08
8.8894e-08
8.46273e-08
8.05001e-08
7.65106e-08
7.26542e-08
6.89283e-08
6.53349e-08
6.18772e-08
5.8556e-08
5.53701e-08
5.23183e-08
4.93987e-08
4.66101e-08
4.39509e-08
4.14203e-08
3.90169e-08
3.67391e-08
3.45839e-08
3.2548e-08
3.06286e-08
2.88216e-08
2.71233e-08
2.553e-08
2.40371e-08
2.26403e-08
2.13351e-08
2.0117e-08
1.89817e-08
1.79246e-08
1.69414e-08
1.60277e-08
1.51792e-08
1.43922e-08
1.36629e-08
1.29876e-08
1.23629e-08
1.17855e-08
1.12525e-08
1.07618e-08
1.03115e-08
9.89802e-09
9.51772e-09
9.16917e-09
8.85492e-09
8.57815e-09
8.33751e-09
8.12164e-09
7.9216e-09
7.73308e-09
7.57679e-09
7.48139e-09
7.46383e-09
7.52886e-09
7.62991e-09
7.71496e-09
7.77384e-09
7.7875e-09
7.82079e-09
8.03176e-09
8.55384e-09
9.51253e-09
1.11771e-08
1.38077e-08
1.58643e-08
1.52638e-08
9.56965e-09
2.14938e-09
6.0558e-10
8.55391e-10
2.64664e-07
2.52658e-07
2.4099e-07
2.29679e-07
2.18728e-07
2.08135e-07
1.97892e-07
1.87989e-07
1.78419e-07
1.69186e-07
1.60296e-07
1.51755e-07
1.43559e-07
1.35704e-07
1.28188e-07
1.21007e-07
1.14155e-07
1.07633e-07
1.01435e-07
9.55583e-08
8.99952e-08
8.47385e-08
7.97802e-08
7.51101e-08
7.07193e-08
6.65979e-08
6.27346e-08
5.91186e-08
5.57386e-08
5.25829e-08
4.96406e-08
4.68999e-08
4.43499e-08
4.19795e-08
3.97779e-08
3.7735e-08
3.58412e-08
3.40872e-08
3.24642e-08
3.09636e-08
2.95779e-08
2.83017e-08
2.71292e-08
2.60525e-08
2.50624e-08
2.41546e-08
2.33337e-08
2.26061e-08
2.19689e-08
2.13981e-08
2.08726e-08
2.03823e-08
1.99693e-08
1.9695e-08
1.9601e-08
1.96944e-08
1.98796e-08
2.00483e-08
2.01656e-08
2.01998e-08
2.02903e-08
2.07539e-08
2.18748e-08
2.39086e-08
2.74043e-08
3.25222e-08
3.63159e-08
3.57124e-08
2.47429e-08
6.95113e-09
1.73391e-09
2.49041e-09
6.22205e-07
5.94276e-07
5.67112e-07
5.40759e-07
5.15236e-07
4.90533e-07
4.66636e-07
4.43525e-07
4.21184e-07
3.99615e-07
3.78834e-07
3.58857e-07
3.39675e-07
3.21285e-07
3.03678e-07
2.86845e-07
2.70777e-07
2.5547e-07
2.40916e-07
2.27107e-07
2.14027e-07
2.01658e-07
1.89984e-07
1.78984e-07
1.68635e-07
1.58914e-07
1.49797e-07
1.41258e-07
1.33272e-07
1.25813e-07
1.18853e-07
1.12368e-07
1.06331e-07
1.00716e-07
9.54994e-08
9.06565e-08
8.6165e-08
8.20038e-08
7.81515e-08
7.45885e-08
7.12969e-08
6.82626e-08
6.54726e-08
6.29091e-08
6.05521e-08
5.839e-08
5.64281e-08
5.46769e-08
5.31308e-08
5.17468e-08
5.04818e-08
4.93147e-08
4.83143e-08
4.75911e-08
4.72354e-08
4.7252e-08
4.74796e-08
4.7732e-08
4.79099e-08
4.79787e-08
4.81996e-08
4.90896e-08
5.11595e-08
5.48662e-08
6.12239e-08
6.9703e-08
7.54174e-08
7.52858e-08
5.73465e-08
2.06792e-08
4.78312e-09
6.61915e-09
1.36207e-06
1.30182e-06
1.24316e-06
1.18621e-06
1.131e-06
1.07754e-06
1.02578e-06
9.75706e-07
9.27266e-07
8.80465e-07
8.35337e-07
7.91916e-07
7.50195e-07
7.10163e-07
6.71808e-07
6.35111e-07
6.00054e-07
5.66626e-07
5.34815e-07
5.04604e-07
4.75964e-07
4.48857e-07
4.23251e-07
3.99102e-07
3.76364e-07
3.54989e-07
3.34923e-07
3.16116e-07
2.98513e-07
2.82058e-07
2.66696e-07
2.52367e-07
2.39022e-07
2.26602e-07
2.15055e-07
2.04329e-07
1.94376e-07
1.85149e-07
1.76603e-07
1.68694e-07
1.61383e-07
1.54637e-07
1.48427e-07
1.42716e-07
1.37466e-07
1.32648e-07
1.28258e-07
1.24308e-07
1.2079e-07
1.17641e-07
1.14784e-07
1.1218e-07
1.09906e-07
1.0812e-07
1.06997e-07
1.06523e-07
1.06493e-07
1.06666e-07
1.068e-07
1.06898e-07
1.07388e-07
1.08885e-07
1.12129e-07
1.17852e-07
1.27844e-07
1.39618e-07
1.46002e-07
1.46762e-07
1.21603e-07
5.67764e-08
1.27479e-08
1.59687e-08
2.81459e-06
2.69254e-06
2.57358e-06
2.4579e-06
2.34567e-06
2.23689e-06
2.1315e-06
2.02944e-06
1.93064e-06
1.83509e-06
1.74284e-06
1.65399e-06
1.56852e-06
1.48644e-06
1.40771e-06
1.33231e-06
1.26019e-06
1.19136e-06
1.12577e-06
1.06341e-06
1.00422e-06
9.48138e-07
8.951e-07
8.45019e-07
7.97812e-07
7.53386e-07
7.11636e-07
6.72462e-07
6.35758e-07
6.01411e-07
5.69314e-07
5.39349e-07
5.11412e-07
4.85393e-07
4.61179e-07
4.38669e-07
4.17764e-07
3.98369e-07
3.80392e-07
3.63743e-07
3.4834e-07
3.34111e-07
3.20991e-07
3.08918e-07
2.97816e-07
2.87618e-07
2.78286e-07
2.69816e-07
2.62196e-07
2.55373e-07
2.49229e-07
2.43696e-07
2.38776e-07
2.3459e-07
2.31432e-07
2.29242e-07
2.27917e-07
2.27338e-07
2.26983e-07
2.27006e-07
2.27988e-07
2.30121e-07
2.34075e-07
2.40921e-07
2.53878e-07
2.66336e-07
2.68676e-07
2.69635e-07
2.39603e-07
1.40381e-07
3.30225e-08
3.51541e-08
5.53237e-06
5.29918e-06
5.0714e-06
4.84951e-06
4.63389e-06
4.42459e-06
4.22156e-06
4.02471e-06
3.8339e-06
3.64907e-06
3.47038e-06
3.29798e-06
3.13192e-06
2.97221e-06
2.81882e-06
2.67169e-06
2.53077e-06
2.39605e-06
2.26751e-06
2.14509e-06
2.02871e-06
1.91829e-06
1.8137e-06
1.71479e-06
1.62143e-06
1.53343e-06
1.45062e-06
1.37281e-06
1.2998e-06
1.2314e-06
1.16738e-06
1.10756e-06
1.0517e-06
9.99624e-07
9.51106e-07
9.05952e-07
8.63973e-07
8.24983e-07
7.88808e-07
7.55277e-07
7.24221e-07
6.95488e-07
6.6895e-07
6.44499e-07
6.22008e-07
6.01324e-07
5.82304e-07
5.64875e-07
5.4903e-07
5.34821e-07
5.22122e-07
5.10821e-07
5.00578e-07
4.91188e-07
4.83028e-07
4.75971e-07
4.70486e-07
4.67138e-07
4.64958e-07
4.64477e-07
4.66225e-07
4.68424e-07
4.70553e-07
4.74135e-07
4.85423e-07
4.90769e-07
4.77293e-07
4.74071e-07
4.44665e-07
3.14375e-07
8.36178e-08
7.83735e-08
1.03582e-05
9.94073e-06
9.53154e-06
9.13161e-06
8.74187e-06
8.36259e-06
7.99374e-06
7.63528e-06
7.28701e-06
6.94883e-06
6.62104e-06
6.304e-06
5.9979e-06
5.70284e-06
5.41884e-06
5.14582e-06
4.88377e-06
4.63267e-06
4.39255e-06
4.16338e-06
3.94507e-06
3.73747e-06
3.54044e-06
3.35375e-06
3.17717e-06
3.01042e-06
2.85319e-06
2.70519e-06
2.56607e-06
2.43549e-06
2.3131e-06
2.19852e-06
2.09138e-06
1.99133e-06
1.89798e-06
1.81099e-06
1.73001e-06
1.65468e-06
1.5847e-06
1.51976e-06
1.45953e-06
1.4037e-06
1.35204e-06
1.30436e-06
1.26048e-06
1.22006e-06
1.1827e-06
1.14811e-06
1.11631e-06
1.08774e-06
1.06238e-06
1.04005e-06
1.01941e-06
9.99126e-07
9.79399e-07
9.60096e-07
9.43472e-07
9.32213e-07
9.24781e-07
9.2252e-07
9.25131e-07
9.25097e-07
9.17726e-07
9.05445e-07
9.01864e-07
8.83692e-07
8.29409e-07
8.08197e-07
7.92058e-07
6.44495e-07
2.07204e-07
1.77044e-07
1.83666e-05
1.76783e-05
1.70001e-05
1.63339e-05
1.56816e-05
1.5044e-05
1.44213e-05
1.38137e-05
1.3221e-05
1.2643e-05
1.20803e-05
1.15338e-05
1.10041e-05
1.04915e-05
9.99616e-06
9.51824e-06
9.05782e-06
8.61504e-06
8.19011e-06
7.78312e-06
7.39407e-06
7.02293e-06
6.66956e-06
6.33367e-06
6.01502e-06
5.71324e-06
5.42792e-06
5.15861e-06
4.90481e-06
4.666e-06
4.44162e-06
4.23109e-06
4.0338e-06
3.84918e-06
3.67661e-06
3.51547e-06
3.36517e-06
3.22512e-06
3.0948e-06
2.97367e-06
2.86112e-06
2.75658e-06
2.6596e-06
2.56994e-06
2.48732e-06
2.41108e-06
2.34019e-06
2.27384e-06
2.21215e-06
2.15653e-06
2.1075e-06
2.06474e-06
2.02435e-06
1.98203e-06
1.937e-06
1.88942e-06
1.84616e-06
1.81521e-06
1.79463e-06
1.78736e-06
1.79006e-06
1.78121e-06
1.74524e-06
1.6874e-06
1.64053e-06
1.57297e-06
1.42874e-06
1.35188e-06
1.36581e-06
1.22798e-06
5.02506e-07
4.01038e-07
3.16101e-05
3.0569e-05
2.95378e-05
2.85154e-05
2.75051e-05
2.651e-05
2.55318e-05
2.45711e-05
2.36287e-05
2.27044e-05
2.1798e-05
2.09105e-05
2.00434e-05
1.9198e-05
1.83754e-05
1.75762e-05
1.68007e-05
1.60496e-05
1.53232e-05
1.46222e-05
1.39473e-05
1.32986e-05
1.26767e-05
1.20815e-05
1.1513e-05
1.09711e-05
1.04556e-05
9.96598e-06
9.50193e-06
9.06279e-06
8.64798e-06
8.25677e-06
7.8884e-06
7.54206e-06
7.21692e-06
6.91207e-06
6.6266e-06
6.3596e-06
6.11017e-06
5.87749e-06
5.66069e-06
5.45877e-06
5.2707e-06
5.09569e-06
4.93347e-06
4.78375e-06
4.64527e-06
4.51563e-06
4.39293e-06
4.27749e-06
4.173e-06
4.08135e-06
4.00203e-06
3.92544e-06
3.84044e-06
3.74325e-06
3.63519e-06
3.5336e-06
3.45826e-06
3.40775e-06
3.38804e-06
3.3876e-06
3.35432e-06
3.24824e-06
3.08393e-06
2.94699e-06
2.81729e-06
2.48675e-06
2.24425e-06
2.30093e-06
2.20782e-06
1.19445e-06
9.02961e-07
4.89376e-05
4.75272e-05
4.61223e-05
4.47213e-05
4.33283e-05
4.19482e-05
4.05837e-05
3.92361e-05
3.79067e-05
3.65955e-05
3.53021e-05
3.40276e-05
3.27746e-05
3.15453e-05
3.03416e-05
2.91648e-05
2.80157e-05
2.68954e-05
2.5805e-05
2.47459e-05
2.37193e-05
2.27263e-05
2.17678e-05
2.08446e-05
1.99572e-05
1.91059e-05
1.8291e-05
1.75124e-05
1.677e-05
1.60633e-05
1.5392e-05
1.47555e-05
1.41529e-05
1.35836e-05
1.30465e-05
1.25406e-05
1.20648e-05
1.16178e-05
1.11987e-05
1.08061e-05
1.0439e-05
1.00959e-05
9.77511e-06
9.47532e-06
9.19643e-06
8.93833e-06
8.69879e-06
8.47298e-06
8.25675e-06
8.05081e-06
7.86329e-06
7.69922e-06
7.55796e-06
7.41889e-06
7.25697e-06
7.06115e-06
6.83505e-06
6.61688e-06
6.44992e-06
6.33631e-06
6.28791e-06
6.27575e-06
6.18806e-06
5.93578e-06
5.56078e-06
5.30159e-06
5.22689e-06
4.55328e-06
3.74525e-06
3.83549e-06
3.79763e-06
2.76049e-06
2.00687e-06
7.09309e-05
6.91672e-05
6.74047e-05
6.56392e-05
6.38746e-05
6.21173e-05
6.03712e-05
5.86382e-05
5.69203e-05
5.52175e-05
5.35289e-05
5.18558e-05
5.02013e-05
4.85687e-05
4.69607e-05
4.53794e-05
4.38263e-05
4.23028e-05
4.08107e-05
3.93522e-05
3.79292e-05
3.65438e-05
3.51977e-05
3.38927e-05
3.263e-05
3.14106e-05
3.02356e-05
2.91055e-05
2.80209e-05
2.6982e-05
2.59887e-05
2.50409e-05
2.41383e-05
2.32802e-05
2.24661e-05
2.16949e-05
2.09656e-05
2.02769e-05
1.96276e-05
1.90166e-05
1.84425e-05
1.79034e-05
1.73968e-05
1.6921e-05
1.64762e-05
1.60629e-05
1.56777e-05
1.53122e-05
1.49583e-05
1.4617e-05
1.43034e-05
1.40283e-05
1.3792e-05
1.35568e-05
1.32742e-05
1.29176e-05
1.24923e-05
1.20696e-05
1.17337e-05
1.14984e-05
1.13877e-05
1.13459e-05
1.11638e-05
1.06653e-05
9.96138e-06
9.68198e-06
9.78751e-06
8.58206e-06
6.42639e-06
6.39327e-06
6.32044e-06
5.50609e-06
4.3864e-06
9.70077e-05
9.49306e-05
9.28547e-05
9.07693e-05
8.86772e-05
8.65858e-05
8.45002e-05
8.24226e-05
8.03557e-05
7.82997e-05
7.62526e-05
7.42156e-05
7.21922e-05
7.01863e-05
6.82015e-05
6.62407e-05
6.43055e-05
6.23978e-05
6.05198e-05
5.86742e-05
5.68639e-05
5.50916e-05
5.336e-05
5.16717e-05
5.00286e-05
4.84328e-05
4.68861e-05
4.53899e-05
4.39455e-05
4.25538e-05
4.12156e-05
3.99314e-05
3.87013e-05
3.75256e-05
3.64037e-05
3.53354e-05
3.43199e-05
3.3356e-05
3.24427e-05
3.15789e-05
3.07636e-05
2.99943e-05
2.92681e-05
2.85827e-05
2.79387e-05
2.73375e-05
2.6775e-05
2.62386e-05
2.57154e-05
2.52049e-05
2.47297e-05
2.43097e-05
2.39485e-05
2.35906e-05
2.3156e-05
2.25932e-05
2.19007e-05
2.11856e-05
2.0589e-05
2.01506e-05
1.99184e-05
1.98172e-05
1.95198e-05
1.87252e-05
1.76595e-05
1.74755e-05
1.78346e-05
1.58749e-05
1.16543e-05
1.0701e-05
1.02639e-05
9.86015e-06
9.38656e-06
0.000126515
0.000124162
0.000121814
0.000119452
0.000117079
0.000114701
0.000112325
0.000109952
0.000107588
0.000105231
0.000102879
0.000100532
9.81942e-05
9.58699e-05
9.35631e-05
9.12771e-05
8.90139e-05
8.67753e-05
8.45638e-05
8.23824e-05
8.02344e-05
7.81231e-05
7.60519e-05
7.4024e-05
7.2042e-05
7.01088e-05
6.82268e-05
6.63981e-05
6.46247e-05
6.29084e-05
6.12506e-05
5.96526e-05
5.81151e-05
5.6639e-05
5.52245e-05
5.38717e-05
5.25803e-05
5.13497e-05
5.01788e-05
4.90672e-05
4.80139e-05
4.70166e-05
4.60719e-05
4.51767e-05
4.4332e-05
4.35403e-05
4.27976e-05
4.20883e-05
4.13939e-05
4.07107e-05
4.00662e-05
3.94893e-05
3.8991e-05
3.85063e-05
3.79266e-05
3.71706e-05
3.62129e-05
3.51813e-05
3.42693e-05
3.35572e-05
3.31307e-05
3.29321e-05
3.25518e-05
3.15578e-05
3.02285e-05
3.01859e-05
3.08608e-05
2.79729e-05
2.1014e-05
1.7819e-05
1.63313e-05
1.62879e-05
1.85699e-05
0.000159086
0.000156469
0.000153865
0.000151248
0.000148616
0.000145977
0.000143338
0.000140702
0.000138073
0.000135452
0.000132834
0.000130219
0.000127611
0.000125015
0.000122435
0.000119875
0.000117337
0.000114822
0.000112333
0.000109873
0.000107446
0.000105055
0.000102704
0.000100396
9.81356e-05
9.59245e-05
9.37661e-05
9.1663e-05
8.96179e-05
8.76328e-05
8.57098e-05
8.38508e-05
8.20569e-05
8.03296e-05
7.86696e-05
7.70774e-05
7.55533e-05
7.40969e-05
7.27076e-05
7.13851e-05
7.01288e-05
6.89365e-05
6.78047e-05
6.67298e-05
6.57125e-05
6.47561e-05
6.38576e-05
6.30004e-05
6.21622e-05
6.13339e-05
6.05429e-05
5.98243e-05
5.91991e-05
5.86069e-05
5.79238e-05
5.70453e-05
5.59066e-05
5.46297e-05
5.34317e-05
5.24336e-05
5.17645e-05
5.14354e-05
5.10437e-05
5.00836e-05
4.8756e-05
4.88852e-05
4.98904e-05
4.61114e-05
3.61504e-05
2.90702e-05
2.55761e-05
2.52968e-05
3.11563e-05
0.00019479
0.000191891
0.000189016
0.000186132
0.000183232
0.000180325
0.00017742
0.000174519
0.000171628
0.000168746
0.000165871
0.000163
0.000160136
0.000157285
0.000154453
0.000151642
0.000148854
0.000146093
0.000143359
0.000140657
0.000137988
0.000135358
0.00013277
0.000130228
0.000127734
0.000125294
0.000122909
0.000120582
0.000118317
0.000116116
0.000113981
0.000111914
0.000109916
0.00010799
0.000106137
0.000104356
0.00010265
0.000101017
9.9457e-05
9.79702e-05
9.6556e-05
9.52126e-05
9.39363e-05
9.27232e-05
9.15732e-05
9.049e-05
8.9472e-05
8.85038e-05
8.75611e-05
8.66295e-05
8.57312e-05
8.49029e-05
8.41757e-05
8.35054e-05
8.27702e-05
8.18537e-05
8.06538e-05
7.926e-05
7.78774e-05
7.6652e-05
7.57474e-05
7.52757e-05
7.49322e-05
7.42324e-05
7.32556e-05
7.36514e-05
7.49263e-05
7.04723e-05
5.79445e-05
4.58185e-05
3.9208e-05
3.74945e-05
4.64718e-05
0.000234108
0.000230884
0.000227696
0.000224504
0.000221299
0.000218089
0.000214883
0.000211686
0.000208503
0.000205335
0.000202177
0.000199028
0.00019589
0.000192769
0.00018967
0.000186597
0.000183554
0.000180541
0.000177561
0.000174617
0.000171712
0.00016885
0.000166035
0.000163271
0.000160561
0.00015791
0.000155319
0.000152792
0.000150332
0.000147941
0.000145622
0.000143377
0.000141207
0.000139115
0.0001371
0.000135165
0.00013331
0.000131535
0.000129839
0.000128222
0.000126683
0.000125222
0.000123834
0.000122515
0.000121265
0.000120085
0.000118978
0.000117929
0.000116914
0.000115914
0.000114944
0.000114038
0.000113235
0.000112511
0.000111761
0.000110869
0.000109705
0.000108313
0.000106863
0.000105504
0.000104418
0.000103818
0.000103544
0.000103208
0.000102813
0.000103637
0.000105118
0.000100255
8.60423e-05
6.91038e-05
5.82596e-05
5.35514e-05
6.40003e-05
0.000277844
0.000274231
0.000270669
0.00026711
0.000263542
0.000259972
0.00025641
0.000252862
0.000249335
0.000245829
0.00024234
0.000238866
0.000235408
0.000231972
0.000228566
0.000225193
0.000221857
0.000218558
0.0002153
0.000212085
0.000208916
0.000205798
0.000202734
0.000199729
0.000196786
0.000193909
0.0001911
0.000188364
0.000185702
0.000183117
0.000180611
0.000178187
0.000175847
0.000173591
0.000171421
0.000169337
0.000167341
0.000165432
0.000163609
0.000161871
0.000160219
0.000158652
0.000157164
0.000155752
0.000154414
0.000153152
0.000151967
0.000150851
0.000149779
0.00014873
0.000147708
0.000146743
0.000145878
0.000145114
0.000144365
0.000143525
0.000142447
0.000141129
0.000139698
0.00013829
0.000137089
0.000136388
0.000136178
0.000136199
0.000136432
0.0001378
0.000139488
0.000134409
0.00011933
9.89793e-05
8.32957e-05
7.4066e-05
8.36581e-05
0.000327043
0.000322967
0.000318955
0.000314957
0.000310953
0.000306952
0.000302964
0.000298997
0.000295056
0.000291146
0.00028726
0.000283396
0.000279555
0.000275743
0.000271969
0.000268237
0.00026455
0.00026091
0.00025732
0.000253782
0.000250299
0.000246877
0.000243518
0.000240228
0.000237011
0.000233868
0.000230805
0.000227823
0.000224926
0.000222116
0.000219396
0.000216767
0.00021423
0.000211788
0.000209442
0.000207191
0.000205036
0.000202977
0.000201012
0.000199142
0.000197366
0.000195681
0.000194085
0.000192572
0.00019114
0.000189789
0.000188523
0.000187334
0.000186203
0.000185103
0.000184031
0.000183012
0.000182088
0.000181283
0.000180532
0.000179745
0.000178767
0.000177549
0.000176181
0.000174777
0.000173514
0.000172742
0.000172584
0.000172905
0.000173708
0.000175647
0.000177575
0.000172361
0.000156851
0.000134456
0.000114124
9.95823e-05
0.000105813
0.000382945
0.000378322
0.000373779
0.000369259
0.00036474
0.000360228
0.000355734
0.000351268
0.000346836
0.000342443
0.000338085
0.000333755
0.000329457
0.000325197
0.000320982
0.000316819
0.000312711
0.000308662
0.000304672
0.000300745
0.000296884
0.000293095
0.000289381
0.000285746
0.000282195
0.000278732
0.000275359
0.00027208
0.000268898
0.000265814
0.000262832
0.000259953
0.000257178
0.00025451
0.000251947
0.000249492
0.000247143
0.000244901
0.000242764
0.000240732
0.000238803
0.000236975
0.000235245
0.000233609
0.000232061
0.000230602
0.000229235
0.000227957
0.00022675
0.000225585
0.000224452
0.000223369
0.00022238
0.000221524
0.00022076
0.000220011
0.00021913
0.000218006
0.000216713
0.000215339
0.000214047
0.000213228
0.000213114
0.000213683
0.000214974
0.000217453
0.000219632
0.000214257
0.00019836
0.000174567
0.000150156
0.000130119
0.000131063
0.000446973
0.000441717
0.000436551
0.000431421
0.0004263
0.000421191
0.000416107
0.000411056
0.000406048
0.000401089
0.000396174
0.000391298
0.000386461
0.000381671
0.000376936
0.000372263
0.000367658
0.000363121
0.000358656
0.000354266
0.000349955
0.000345726
0.000341586
0.000337538
0.000333587
0.000329736
0.00032599
0.000322351
0.000318822
0.000315406
0.000312104
0.00030892
0.000305853
0.000302906
0.000300078
0.00029737
0.000294782
0.000292313
0.000289961
0.000287726
0.000285605
0.000283598
0.000281701
0.000279907
0.000278212
0.000276616
0.000275122
0.000273729
0.000272421
0.00027117
0.000269957
0.000268794
0.000267724
0.000266802
0.000266007
0.000265279
0.000264475
0.000263436
0.000262216
0.000260881
0.000259578
0.000258726
0.000258657
0.000259438
0.000261147
0.000264109
0.000266502
0.000260863
0.000244373
0.000219179
0.000191109
0.000165668
0.000160032
0.000520741
0.000514757
0.000508875
0.000503042
0.000497227
0.000491431
0.000485665
0.000479941
0.000474268
0.000468654
0.000463095
0.000457585
0.000452124
0.000446719
0.00044138
0.000436114
0.000430927
0.000425822
0.000420801
0.000415868
0.000411027
0.000406283
0.00040164
0.000397104
0.000392679
0.000388369
0.000384179
0.000380111
0.000376169
0.000372355
0.00036867
0.000365118
0.000361699
0.000358415
0.000355265
0.00035225
0.00034937
0.000346623
0.000344008
0.000341523
0.000339166
0.000336936
0.00033483
0.00033284
0.000330962
0.000329194
0.000327539
0.000326
0.000324563
0.000323198
0.000321881
0.000320617
0.000319448
0.000318444
0.0003176
0.000316872
0.000316123
0.000315165
0.000314006
0.000312711
0.000311406
0.000310526
0.000310502
0.000311474
0.000313543
0.000316912
0.00031943
0.000313382
0.000295988
0.000269018
0.000237389
0.000206374
0.000193544
0.000612975
0.000606056
0.000599249
0.000592553
0.000585921
0.000579319
0.000572743
0.000566204
0.000559713
0.000553283
0.000546923
0.000540629
0.000534395
0.000528221
0.000522113
0.000516081
0.000510135
0.00050428
0.000498521
0.000492861
0.000487302
0.000481849
0.000476508
0.000471283
0.000466181
0.000461205
0.000456361
0.000451652
0.000447082
0.000442655
0.000438373
0.000434238
0.000430252
0.000426416
0.000422732
0.000419199
0.000415818
0.000412587
0.000409507
0.000406575
0.000403789
0.000401147
0.000398648
0.000396287
0.000394059
0.000391957
0.000389977
0.000388126
0.000386406
0.000384808
0.000383299
0.000381851
0.000380461
0.000379173
0.000378066
0.000377156
0.00037641
0.000375695
0.000374808
0.000373707
0.000372446
0.000371134
0.000370224
0.000370245
0.000371386
0.000373756
0.000377431
0.000379929
0.000373341
0.000354662
0.000325391
0.000289934
0.000253326
0.000232855
0.000712775
0.000704932
0.000697207
0.000689601
0.000682075
0.000674591
0.000667142
0.000659737
0.000652388
0.000645108
0.000637908
0.000630788
0.000623739
0.000616761
0.00060986
0.000603047
0.00059633
0.00058972
0.000583219
0.000576832
0.000570561
0.000564412
0.00055839
0.000552501
0.00054675
0.000541143
0.000535685
0.000530381
0.000525233
0.000520246
0.000515423
0.000510765
0.000506275
0.000501954
0.000497803
0.000493823
0.000490012
0.000486371
0.000482899
0.000479593
0.00047645
0.00047347
0.000470649
0.000467985
0.000465472
0.000463101
0.000460868
0.00045878
0.000456842
0.000455048
0.000453363
0.000451753
0.000450212
0.00044878
0.000447551
0.000446555
0.000445773
0.000445072
0.000444231
0.00044318
0.000441939
0.00044062
0.000439676
0.000439732
0.000441012
0.000443605
0.000447446
0.00044973
0.000442574
0.000422088
0.000389939
0.000350077
0.000307268
0.000278714
0.000828427
0.000819574
0.000810841
0.000802235
0.000793726
0.000785272
0.000776861
0.000768502
0.000760206
0.000751986
0.000743857
0.000735819
0.000727866
0.000719995
0.000712212
0.000704527
0.000696952
0.000689496
0.000682165
0.000674963
0.000667894
0.000660962
0.000654174
0.000647535
0.000641053
0.000634732
0.000628579
0.000622598
0.000616793
0.000611168
0.000605727
0.000600472
0.000595404
0.000590526
0.000585839
0.000581342
0.000577035
0.000572919
0.000568991
0.00056525
0.000561692
0.000558315
0.000555118
0.000552099
0.000549249
0.000546561
0.000544029
0.000541661
0.000539465
0.000537435
0.000535539
0.000533734
0.000532011
0.00053041
0.000529035
0.000527933
0.000527096
0.00052639
0.000525573
0.000524549
0.000523319
0.000521982
0.000520993
0.000521059
0.000522421
0.000525128
0.00052895
0.000530765
0.000522741
0.000500108
0.000464499
0.000419446
0.000369522
0.000331602
0.000962272
0.000952334
0.000942522
0.000932844
0.000923275
0.000913776
0.000904329
0.000894939
0.000885616
0.000876377
0.000867237
0.000858198
0.000849256
0.000840408
0.000831658
0.000823018
0.000814499
0.000806112
0.000797865
0.000789761
0.000781807
0.000774007
0.000766367
0.000758894
0.000751596
0.000744478
0.000737546
0.000730806
0.000724263
0.00071792
0.000711782
0.000705851
0.00070013
0.00069462
0.000689321
0.000684236
0.000679363
0.000674702
0.000670251
0.000666009
0.000661972
0.000658139
0.000654507
0.000651074
0.000647833
0.000644775
0.000641895
0.000639199
0.0006367
0.000634393
0.000632245
0.00063021
0.000628271
0.00062647
0.000624924
0.000623693
0.000622778
0.000622046
0.000621231
0.000620211
0.00061897
0.000617602
0.000616549
0.000616574
0.000617932
0.000620602
0.000624166
0.000625186
0.000615931
0.000590803
0.000551092
0.00049984
0.000441606
0.000392869
0.00111668
0.00110562
0.0010947
0.0010839
0.00107323
0.00106264
0.0010521
0.00104163
0.00103122
0.0010209
0.00101069
0.00100058
0.000990582
0.000980686
0.000970898
0.000961228
0.000951689
0.000942294
0.000933051
0.000923967
0.000915047
0.000906298
0.000897725
0.000889337
0.00088114
0.000873143
0.000865351
0.000857771
0.000850408
0.000843267
0.000836352
0.000829666
0.000823213
0.000816993
0.000811008
0.000805259
0.000799746
0.000794468
0.000789424
0.000784612
0.000780029
0.000775673
0.000771542
0.000767635
0.000763944
0.00076046
0.000757177
0.000754102
0.000751249
0.00074862
0.000746177
0.00074387
0.000741679
0.000739644
0.000737897
0.000736508
0.000735492
0.000734708
0.000733866
0.000732827
0.000731553
0.000730129
0.000729007
0.000728902
0.000730131
0.00073257
0.000735575
0.000735402
0.000724543
0.0006965
0.000651892
0.000593185
0.000525111
0.000463789
0.00129388
0.00128175
0.00126973
0.00125784
0.00124607
0.00123437
0.00122274
0.00121117
0.00119966
0.00118824
0.00117692
0.00116571
0.00115461
0.00114362
0.00113275
0.001122
0.00111138
0.00110092
0.00109062
0.00108049
0.00107054
0.00106077
0.0010512
0.00104182
0.00103265
0.0010237
0.00101498
0.00100648
0.000998221
0.000990205
0.000982437
0.000974919
0.000967656
0.000960651
0.000953903
0.000947416
0.000941188
0.000935219
0.00092951
0.000924057
0.000918858
0.000913911
0.000909215
0.000904769
0.000900566
0.000896595
0.000892851
0.00088934
0.000886082
0.000883079
0.000880294
0.00087767
0.000875184
0.000872878
0.000870894
0.000869318
0.000868166
0.000867298
0.000866407
0.000865319
0.000863984
0.000862478
0.000861298
0.000860933
0.00086188
0.000863854
0.000865945
0.000864053
0.000851179
0.000819711
0.000769179
0.000701457
0.000621637
0.000545576
0.00149579
0.00148271
0.0014697
0.0014568
0.00144401
0.00143128
0.00141861
0.00140599
0.00139343
0.00138093
0.00136852
0.00135623
0.00134404
0.00133196
0.00131999
0.00130814
0.00129644
0.00128489
0.0012735
0.00126229
0.00125127
0.00124044
0.00122981
0.0012194
0.0012092
0.00119924
0.00118952
0.00118005
0.00117083
0.00116187
0.00115318
0.00114477
0.00113662
0.00112876
0.00112118
0.00111389
0.00110687
0.00110014
0.0010937
0.00108753
0.00108165
0.00107604
0.00107071
0.00106566
0.00106088
0.00105636
0.0010521
0.00104809
0.00104437
0.00104094
0.00103776
0.00103478
0.00103195
0.00102933
0.00102707
0.00102526
0.00102394
0.00102296
0.00102199
0.00102082
0.0010194
0.00101777
0.00101645
0.00101577
0.00101628
0.00101753
0.00101828
0.00101396
0.000998466
0.000963043
0.000905247
0.000826602
0.000732741
0.000639348
0.00172362
0.00170983
0.00169607
0.00168236
0.00166872
0.00165514
0.00164158
0.00162806
0.00161456
0.00160111
0.00158772
0.00157442
0.00156122
0.00154812
0.00153511
0.00152222
0.00150946
0.00149685
0.0014844
0.00147212
0.00146003
0.00144814
0.00143645
0.00142499
0.00141375
0.00140275
0.00139201
0.00138152
0.0013713
0.00136136
0.00135171
0.00134234
0.00133327
0.0013245
0.00131603
0.00130787
0.00130001
0.00129246
0.00128521
0.00127828
0.00127164
0.00126532
0.00125929
0.00125357
0.00124816
0.00124302
0.00123818
0.00123362
0.00122938
0.00122547
0.00122184
0.00121844
0.00121523
0.00121225
0.00120966
0.00120758
0.00120605
0.00120492
0.00120383