/*--------------------------------*- C++ -*----------------------------------*\
| =========                 |                                                 |
| \\      /  F ield         | OpenFOAM: The Open Source CFD Toolbox           |
|  \\    /   O peration     | Version:  2412                                  |
|   \\  /    A nd           | Website:  www.openfoam.com                      |
|    \\/     M anipulation  |                                                 |
\*---------------------------------------------------------------------------*/
FoamFile
{
    version     2.0;
    format      ascii;
    arch        "LSB;label=32;scalar=64";
    class       volScalarField;
    location    "320";
    object      p;
}
// * * * * * * * * * * * * * * * * * * * * * * * * * * * * * * * * * * * * * //

dimensions      [0 2 -2 0 0 0 0];

internalField   nonuniform List<scalar> 
8702
(
-105.838
-101.697
-97.6315
-93.6353
-89.7108
-85.8628
-82.0858
-78.3703
-74.7273
-71.1589
-67.6634
-64.2408
-60.8939
-57.6247
-54.4409
-51.3409
-48.3171
-45.3817
-42.5308
-39.7614
-37.0763
-34.4763
-31.9501
-29.4969
-27.1186
-24.8095
-22.5659
-20.3864
-18.267
-16.1989
-14.1814
-12.2103
-10.2802
-8.38699
-6.52665
-4.69549
-2.88885
-1.1025
0.666706
2.42357
4.17391
5.92052
7.66595
9.41267
11.1619
12.9154
14.6762
16.4457
18.226
20.019
21.8263
23.6486
25.487
27.3423
29.2161
31.1082
33.0192
34.9469
36.8859
38.8326
40.7824
42.728
44.6624
46.5774
48.4648
50.3162
52.1305
53.9076
55.652
57.3499
58.9838
60.5372
62.0124
63.462
64.8989
66.382
67.8058
69.0631
70.12
70.7805
71.2646
71.8006
-105.838
-101.697
-97.6315
-93.6353
-89.7108
-85.8628
-82.0858
-78.3703
-74.7273
-71.1589
-67.6634
-64.2408
-60.8939
-57.6247
-54.4409
-51.3409
-48.3171
-45.3817
-42.5308
-39.7614
-37.0763
-34.4763
-31.9501
-29.4969
-27.1186
-24.8095
-22.5659
-20.3864
-18.267
-16.1989
-14.1814
-12.2103
-10.2802
-8.38699
-6.52665
-4.69548
-2.88885
-1.10249
0.666705
2.42358
4.17391
5.92052
7.66595
9.41268
11.1619
12.9154
14.6762
16.4457
18.226
20.0191
21.8263
23.6486
25.487
27.3424
29.2162
31.1082
33.0192
34.9469
36.8859
38.8326
40.7824
42.7281
44.6624
46.5774
48.4648
50.3162
52.1305
53.9076
55.652
57.3499
58.9838
60.5372
62.0124
63.4621
64.8989
66.382
67.8058
69.0629
70.1197
70.7801
71.2643
71.8006
-105.838
-101.697
-97.6315
-93.6353
-89.7108
-85.8628
-82.0858
-78.3703
-74.7273
-71.1589
-67.6634
-64.2408
-60.8939
-57.6247
-54.4409
-51.3409
-48.3171
-45.3817
-42.5308
-39.7614
-37.0763
-34.4763
-31.9501
-29.4969
-27.1186
-24.8095
-22.5659
-20.3864
-18.267
-16.1989
-14.1814
-12.2103
-10.2802
-8.38698
-6.52665
-4.69548
-2.88885
-1.10249
0.666713
2.42358
4.17392
5.92053
7.66596
9.41268
11.1619
12.9155
14.6762
16.4457
18.226
20.0191
21.8263
23.6486
25.487
27.3424
29.2162
31.1082
33.0192
34.9469
36.8859
38.8327
40.7824
42.7281
44.6624
46.5774
48.4648
50.3162
52.1305
53.9076
55.652
57.3499
58.9838
60.5372
62.0124
63.4621
64.8989
66.382
67.8056
69.0626
70.1193
70.7798
71.2641
71.8006
-105.838
-101.697
-97.6315
-93.6353
-89.7108
-85.8628
-82.0858
-78.3703
-74.7273
-71.1589
-67.6634
-64.2408
-60.8939
-57.6247
-54.4409
-51.3409
-48.3171
-45.3817
-42.5308
-39.7614
-37.0763
-34.4763
-31.9501
-29.4969
-27.1186
-24.8095
-22.5659
-20.3864
-18.267
-16.1989
-14.1814
-12.2103
-10.2802
-8.38698
-6.52664
-4.69547
-2.88884
-1.10248
0.666718
2.42359
4.17393
5.92054
7.66596
9.41269
11.1619
12.9155
14.6762
16.4457
18.2261
20.0191
21.8263
23.6486
25.4871
27.3424
29.2162
31.1083
33.0192
34.947
36.8859
38.8327
40.7824
42.7281
44.6624
46.5774
48.4648
50.3162
52.1305
53.9076
55.652
57.3499
58.9838
60.5372
62.0124
63.4621
64.899
66.382
67.8055
69.0623
70.1188
70.7794
71.264
71.8008
-105.838
-101.697
-97.6315
-93.6353
-89.7108
-85.8628
-82.0858
-78.3703
-74.7273
-71.1589
-67.6634
-64.2408
-60.8939
-57.6246
-54.4409
-51.3408
-48.3171
-45.3817
-42.5308
-39.7614
-37.0763
-34.4763
-31.9501
-29.4969
-27.1185
-24.8095
-22.5659
-20.3864
-18.267
-16.1989
-14.1814
-12.2103
-10.2802
-8.38696
-6.52662
-4.69546
-2.88882
-1.10246
0.666736
2.42361
4.17394
5.92055
7.66598
9.41271
11.162
12.9155
14.6763
16.4457
18.2261
20.0191
21.8263
23.6487
25.4871
27.3424
29.2162
31.1083
33.0193
34.947
36.886
38.8327
40.7825
42.7281
44.6624
46.5774
48.4649
50.3162
52.1306
53.9077
55.652
57.3499
58.9838
60.5372
62.0124
63.4622
64.8991
66.382
67.8054
69.062
70.1183
70.779
71.264
71.8012
-105.838
-101.697
-97.6315
-93.6352
-89.7107
-85.8628
-82.0858
-78.3703
-74.7272
-71.1589
-67.6634
-64.2408
-60.8938
-57.6246
-54.4408
-51.3408
-48.3171
-45.3817
-42.5307
-39.7614
-37.0763
-34.4762
-31.9501
-29.4969
-27.1185
-24.8095
-22.5658
-20.3864
-18.267
-16.1989
-14.1814
-12.2103
-10.2801
-8.38693
-6.52659
-4.69543
-2.88879
-1.10243
0.666767
2.42363
4.17397
5.92059
7.66601
9.41274
11.162
12.9155
14.6763
16.4458
18.2261
20.0191
21.8263
23.6487
25.4871
27.3424
29.2162
31.1083
33.0193
34.947
36.886
38.8327
40.7825
42.7281
44.6625
46.5775
48.4649
50.3163
52.1306
53.9077
55.6521
57.3499
58.9838
60.5372
62.0125
63.4623
64.8992
66.382
67.8051
69.0615
70.1177
70.7787
71.2642
71.8022
-105.838
-101.697
-97.6314
-93.6352
-89.7107
-85.8627
-82.0857
-78.3702
-74.7272
-71.1588
-67.6633
-64.2407
-60.8938
-57.6246
-54.4408
-51.3408
-48.317
-45.3816
-42.5307
-39.7613
-37.0762
-34.4762
-31.95
-29.4968
-27.1185
-24.8094
-22.5658
-20.3863
-18.2669
-16.1988
-14.1813
-12.2102
-10.2801
-8.38688
-6.52654
-4.69538
-2.88874
-1.10238
0.66682
2.42369
4.17403
5.92064
7.66607
9.41279
11.162
12.9156
14.6763
16.4458
18.2262
20.0192
21.8264
23.6487
25.4872
27.3425
29.2163
31.1084
33.0193
34.9471
36.8861
38.8328
40.7826
42.7282
44.6625
46.5775
48.4649
50.3163
52.1307
53.9078
55.6521
57.3499
58.9838
60.5372
62.0126
63.4624
64.8994
66.382
67.8048
69.0609
70.1169
70.7784
71.265
71.8039
-105.838
-101.697
-97.6314
-93.6351
-89.7106
-85.8627
-82.0856
-78.3702
-74.7271
-71.1587
-67.6633
-64.2407
-60.8937
-57.6245
-54.4407
-51.3407
-48.317
-45.3815
-42.5306
-39.7613
-37.0762
-34.4761
-31.9499
-29.4967
-27.1184
-24.8093
-22.5657
-20.3862
-18.2668
-16.1987
-14.1812
-12.2101
-10.28
-8.38679
-6.52645
-4.69529
-2.88865
-1.10229
0.666907
2.42378
4.17412
5.92073
7.66616
9.41288
11.1621
12.9157
14.6764
16.4459
18.2263
20.0193
21.8265
23.6488
25.4873
27.3426
29.2164
31.1085
33.0194
34.9472
36.8861
38.8329
40.7827
42.7283
44.6626
46.5776
48.465
50.3164
52.1308
53.9079
55.6522
57.35
58.9838
60.5373
62.0128
63.4627
64.8997
66.382
67.8044
69.06
70.1159
70.7784
71.2663
71.8067
-105.838
-101.697
-97.6312
-93.635
-89.7105
-85.8625
-82.0855
-78.37
-74.727
-71.1586
-67.6631
-64.2405
-60.8936
-57.6244
-54.4406
-51.3406
-48.3168
-45.3814
-42.5305
-39.7611
-37.076
-34.476
-31.9498
-29.4966
-27.1183
-24.8092
-22.5656
-20.3861
-18.2667
-16.1986
-14.1811
-12.21
-10.2799
-8.38666
-6.52632
-4.69516
-2.88852
-1.10216
0.667046
2.42391
4.17426
5.92087
7.6663
9.41302
11.1623
12.9158
14.6766
16.446
18.2264
20.0194
21.8266
23.649
25.4874
27.3427
29.2165
31.1086
33.0196
34.9473
36.8863
38.833
40.7828
42.7284
44.6628
46.5778
48.4652
50.3166
52.1309
53.908
55.6523
57.3501
58.9838
60.5374
62.0131
63.4632
64.9002
66.382
67.8038
69.0589
70.1146
70.7785
71.2687
71.8112
-105.838
-101.697
-97.631
-93.6348
-89.7103
-85.8624
-82.0853
-78.3699
-74.7268
-71.1584
-67.663
-64.2404
-60.8934
-57.6242
-54.4404
-51.3404
-48.3167
-45.3812
-42.5303
-39.761
-37.0758
-34.4758
-31.9496
-29.4964
-27.1181
-24.809
-22.5654
-20.3859
-18.2665
-16.1984
-14.1809
-12.2098
-10.2797
-8.38646
-6.52612
-4.69495
-2.88832
-1.10195
0.667249
2.42412
4.17446
5.92108
7.66651
9.41323
11.1625
12.916
14.6768
16.4463
18.2266
20.0196
21.8268
23.6492
25.4876
27.3429
29.2167
31.1088
33.0198
34.9475
36.8865
38.8332
40.783
42.7286
44.663
46.578
48.4654
50.3168
52.1312
53.9083
55.6525
57.3502
58.9839
60.5375
62.0135
63.4638
64.9009
66.3821
67.803
69.0574
70.1129
70.7789
71.2723
71.8179
72.5207
-105.838
-101.696
-97.6308
-93.6345
-89.71
-85.8621
-82.0851
-78.3696
-74.7265
-71.1582
-67.6627
-64.2401
-60.8932
-57.6239
-54.4402
-51.3401
-48.3164
-45.381
-42.53
-39.7607
-37.0756
-34.4755
-31.9494
-29.4961
-27.1178
-24.8087
-22.5651
-20.3856
-18.2662
-16.1981
-14.1806
-12.2095
-10.2794
-8.38617
-6.52583
-4.69466
-2.88802
-1.10166
0.667549
2.42442
4.17476
5.92138
7.66681
9.41354
11.1628
12.9163
14.6771
16.4466
18.2269
20.0199
21.8271
23.6495
25.4879
27.3432
29.217
31.1091
33.0201
34.9478
36.8868
38.8335
40.7833
42.7289
44.6633
46.5782
48.4657
50.3171
52.1315
53.9086
55.6528
57.3504
58.984
60.5378
62.0141
63.4648
64.9019
66.3822
67.802
69.0555
70.1109
70.7799
71.2776
71.8275
72.5334
-105.837
-101.696
-97.6304
-93.6341
-89.7096
-85.8617
-82.0847
-78.3692
-74.7262
-71.1578
-67.6623
-64.2397
-60.8928
-57.6236
-54.4398
-51.3398
-48.316
-45.3806
-42.5297
-39.7603
-37.0752
-34.4752
-31.949
-29.4958
-27.1174
-24.8084
-22.5647
-20.3852
-18.2658
-16.1977
-14.1802
-12.2091
-10.279
-8.38577
-6.52542
-4.69425
-2.88761
-1.10124
0.667963
2.42484
4.17518
5.9218
7.66723
9.41396
11.1632
12.9167
14.6775
16.447
18.2273
20.0204
21.8276
23.6499
25.4884
27.3437
29.2175
31.1095
33.0205
34.9482
36.8872
38.8339
40.7837
42.7294
44.6637
46.5787
48.4661
50.3175
52.132
53.9091
55.6532
57.3506
58.9842
60.5382
62.0151
63.4661
64.9033
66.3824
67.8008
69.0532
70.1084
70.7815
71.2852
71.8406
72.5507
-105.837
-101.695
-97.6298
-93.6336
-89.7091
-85.8612
-82.0842
-78.3687
-74.7257
-71.1573
-67.6618
-64.2392
-60.8923
-57.6231
-54.4393
-51.3392
-48.3155
-45.3801
-42.5291
-39.7598
-37.0747
-34.4746
-31.9485
-29.4952
-27.1169
-24.8078
-22.5642
-20.3847
-18.2653
-16.1972
-14.1797
-12.2086
-10.2784
-8.38521
-6.52486
-4.69369
-2.88704
-1.10068
0.668534
2.42541
4.17576
5.92238
7.66781
9.41454
11.1638
12.9173
14.6781
16.4476
18.2279
20.0209
21.8282
23.6505
25.4889
27.3442
29.218
31.1101
33.0211
34.9488
36.8878
38.8345
40.7843
42.7299
44.6642
46.5792
48.4666
50.3181
52.1326
53.9098
55.6538
57.351
58.9845
60.5388
62.0163
63.4679
64.9052
66.3828
67.7993
69.0503
70.1054
70.7842
71.2956
71.8584
72.5737
-105.836
-101.695
-97.6291
-93.6329
-89.7084
-85.8605
-82.0835
-78.368
-74.725
-71.1566
-67.6611
-64.2385
-60.8916
-57.6224
-54.4386
-51.3386
-48.3148
-45.3794
-42.5285
-39.7591
-37.074
-34.4739
-31.9478
-29.4945
-27.1162
-24.8071
-22.5635
-20.384
-18.2646
-16.1965
-14.1789
-12.2078
-10.2777
-8.38447
-6.52412
-4.69294
-2.88629
-1.09992
0.669289
2.42617
4.17652
5.92314
7.66858
9.41531
11.1646
12.9181
14.6789
16.4483
18.2287
20.0217
21.8289
23.6513
25.4897
27.345
29.2188
31.1109
33.0218
34.9495
36.8885
38.8352
40.785
42.7307
44.665
46.5799
48.4673
50.3189
52.1335
53.9107
55.6545
57.3515
58.985
60.5396
62.018
63.4703
64.9078
66.3835
67.7975
69.047
70.1022
70.7882
71.3097
71.8816
72.6037
-105.835
-101.694
-97.6282
-93.632
-89.7075
-85.8596
-82.0826
-78.3671
-74.7241
-71.1557
-67.6603
-64.2377
-60.8907
-57.6215
-54.4377
-51.3377
-48.314
-45.3785
-42.5276
-39.7582
-37.0731
-34.473
-31.9469
-29.4936
-27.1153
-24.8062
-22.5625
-20.3831
-18.2636
-16.1955
-14.178
-12.2069
-10.2767
-8.38351
-6.52315
-4.69197
-2.88532
-1.09894
0.670275
2.42716
4.17751
5.92414
7.66958
9.41631
11.1656
12.9191
14.6799
16.4494
18.2297
20.0227
21.8299
23.6523
25.4907
27.346
29.2198
31.1119
33.0228
34.9505
36.8895
38.8362
40.786
42.7317
44.666
46.5809
48.4683
50.3199
52.1346
53.9118
55.6555
57.3523
58.9856
60.5407
62.0203
63.4734
64.9112
66.3844
67.7956
69.0433
70.0987
70.794
71.3281
71.9114
72.6418
-105.834
-101.693
-97.6271
-93.6309
-89.7064
-85.8585
-82.0815
-78.366
-74.723
-71.1546
-67.6592
-64.2366
-60.8896
-57.6204
-54.4366
-51.3366
-48.3128
-45.3774
-42.5264
-39.7571
-37.072
-34.4719
-31.9457
-29.4925
-27.1141
-24.805
-22.5614
-20.3819
-18.2624
-16.1943
-14.1768
-12.2057
-10.2755
-8.38228
-6.52192
-4.69073
-2.88407
-1.09769
0.67153
2.42842
4.17878
5.92541
7.67085
9.41759
11.1669
12.9204
14.6812
16.4506
18.231
20.024
21.8312
23.6536
25.492
27.3473
29.2211
31.1131
33.0241
34.9518
36.8907
38.8375
40.7873
42.7329
44.6672
46.5821
48.4695
50.3212
52.1361
53.9133
55.6568
57.3532
58.9865
60.5422
62.0233
63.4775
64.9155
66.3858
67.7936
69.0392
70.0953
70.8022
71.3518
71.9491
72.6896
-105.832
-101.691
-97.6256
-93.6294
-89.705
-85.8571
-82.0801
-78.3646
-74.7216
-71.1532
-67.6578
-64.2352
-60.8882
-57.619
-54.4352
-51.3352
-48.3114
-45.376
-42.525
-39.7557
-37.0705
-34.4705
-31.9443
-29.491
-27.1126
-24.8035
-22.5599
-20.3804
-18.2609
-16.1928
-14.1753
-12.2041
-10.274
-8.38074
-6.52036
-4.68917
-2.88251
-1.09612
0.673108
2.43
4.18036
5.927
7.67245
9.41919
11.1685
12.922
14.6828
16.4522
18.2326
20.0256
21.8328
23.6552
25.4936
27.3489
29.2226
31.1147
33.0257
34.9533
36.8923
38.839
40.7889
42.7345
44.6688
46.5837
48.4711
50.3229
52.1379
53.9153
55.6584
57.3545
58.9877
60.5442
62.027
63.4826
64.921
66.3878
67.7916
69.0351
70.0922
70.8134
71.382
71.9958
72.7484
73.7235
-101.689
-97.6238
-93.6277
-89.7032
-85.8553
-82.0783
-78.3629
-74.7199
-71.1515
-67.656
-64.2334
-60.8865
-57.6173
-54.4335
-51.3334
-48.3097
-45.3742
-42.5233
-39.7539
-37.0688
-34.4687
-31.9425
-29.4892
-27.1108
-24.8017
-22.5581
-20.3785
-18.2591
-16.191
-14.1734
-12.2022
-10.2721
-8.37883
-6.51845
-4.68724
-2.88057
-1.09418
0.675057
2.43196
4.18233
5.92897
7.67443
9.42117
11.1704
12.924
14.6848
16.4542
18.2346
20.0276
21.8348
23.6571
25.4956
27.3508
29.2246
31.1167
33.0276
34.9553
36.8942
38.841
40.7908
42.7365
44.6708
46.5856
48.4731
50.325
52.1402
53.9177
55.6606
57.3563
58.9893
60.5468
62.0318
63.4889
64.9279
66.3906
67.7898
69.0312
70.09
70.8283
71.4195
72.0531
72.8197
73.7907
75.1196
76.0481
-101.687
-97.6217
-93.6255
-89.7011
-85.8532
-82.0763
-78.3608
-74.7178
-71.1494
-67.654
-64.2314
-60.8844
-57.6152
-54.4314
-51.3314
-48.3076
-45.3721
-42.5212
-39.7518
-37.0666
-34.4665
-31.9403
-29.487
-27.1086
-24.7995
-22.5558
-20.3763
-18.2568
-16.1887
-14.1711
-12.2
-10.2698
-8.37651
-6.51612
-4.6849
-2.87821
-1.09181
0.677434
2.43434
4.18472
5.93137
7.67684
9.42359
11.1729
12.9264
14.6872
16.4566
18.237
20.03
21.8372
23.6595
25.498
27.3532
29.227
31.119
33.03
34.9577
36.8966
38.8434
40.7932
42.7389
44.6732
46.588
48.4755
50.3277
52.1431
53.9207
55.6632
57.3585
58.9915
60.5502
62.0377
63.4967
64.9363
66.3944
67.7886
69.028
70.0893
70.8478
71.4656
72.122
72.9048
73.8719
75.1522
76.0484
-101.685
-97.6191
-93.623
-89.6986
-85.8507
-82.0737
-78.3583
-74.7153
-71.1469
-67.6515
-64.2289
-60.882
-57.6127
-54.4289
-51.3289
-48.3051
-45.3696
-42.5186
-39.7492
-37.0641
-34.464
-31.9377
-29.4844
-27.106
-24.7969
-22.5532
-20.3736
-18.2541
-16.186
-14.1684
-12.1972
-10.267
-8.37372
-6.51331
-4.68208
-2.87538
-1.08897
0.680287
2.43721
4.1876
5.93426
7.67973
9.42649
11.1758
12.9293
14.6901
16.4596
18.2399
20.0329
21.8401
23.6625
25.5008
27.3561
29.2299
31.1219
33.0329
34.9605
36.8995
38.8462
40.7962
42.7419
44.6762
46.591
48.4785
50.3309
52.1466
53.9244
55.6666
57.3614
58.9944
60.5546
62.0451
63.5062
64.9466
66.3996
67.7882
69.0258
70.0908
70.8728
71.5214
72.204
73.0049
73.9686
75.1974
76.0618
-101.682
-97.6162
-93.6201
-89.6957
-85.8478
-82.0708
-78.3554
-74.7124
-71.144
-67.6486
-64.226
-60.879
-57.6098
-54.426
-51.3259
-48.3021
-45.3667
-42.5156
-39.7462
-37.061
-34.4609
-31.9347
-29.4813
-27.1029
-24.7937
-22.55
-20.3704
-18.2509
-16.1827
-14.165
-12.1938
-10.2636
-8.37032
-6.50989
-4.67864
-2.87194
-1.08553
0.683725
2.44064
4.19103
5.9377
7.68318
9.42995
11.1792
12.9328
14.6935
16.463
18.2433
20.0363
21.8435
23.6658
25.5042
27.3594
29.2332
31.1252
33.0361
34.9638
36.9028
38.8496
40.7996
42.7454
44.6797
46.5946
48.4822
50.3349
52.151
53.9289
55.6707
57.365
58.9981
60.56
62.054
63.5177
64.959
66.4063
67.7891
69.0254
70.0952
70.9038
71.5873
72.2998
73.1214
74.0829
75.2582
76.0932
-101.678
-97.613
-93.6168
-89.6924
-85.8445
-82.0675
-78.3521
-74.709
-71.1407
-67.6452
-64.2226
-60.8757
-57.6064
-54.4226
-51.3225
-48.2987
-45.3632
-42.5122
-39.7427
-37.0575
-34.4574
-31.9311
-29.4778
-27.0994
-24.7902
-22.5465
-20.367
-18.2475
-16.1793
-14.1616
-12.1904
-10.2601
-8.3668
-6.50634
-4.67504
-2.86822
-1.08172
0.687612
2.44461
4.19504
5.94172
7.68721
9.434
11.1833
12.9368
14.6977
16.4671
18.2475
20.0405
21.8477
23.6701
25.5085
27.3638
29.2375
31.1295
33.0404
34.9682
36.9071
38.8539
40.804
42.7498
44.684
46.5988
48.4865
50.3395
52.156
53.9342
55.6757
57.3695
59.0027
60.5666
62.0644
63.5309
64.9734
66.4153
67.792
69.0276
70.1041
70.9437
71.6652
72.4091
73.2516
74.213
75.3392
76.1461
76.456
75.7671
74.7928
-101.674
-97.6089
-93.6128
-89.6884
-85.8406
-82.0636
-78.3482
-74.7052
-71.1368
-67.6414
-64.2188
-60.8718
-57.6026
-54.4187
-51.3186
-48.2948
-45.3593
-42.5082
-39.7387
-37.0535
-34.4533
-31.927
-29.4737
-27.0953
-24.7862
-22.5426
-20.3631
-18.2437
-16.1756
-14.1579
-12.1866
-10.2563
-8.36286
-6.50232
-4.67096
-2.86405
-1.07735
0.692136
2.44924
4.19975
5.94644
7.6919
9.43867
11.188
12.9415
14.7023
16.4716
18.2519
20.0451
21.8526
23.6751
25.5137
27.3689
29.2426
31.1345
33.0455
34.9732
36.9121
38.8589
40.8089
42.7547
44.689
46.6038
48.4915
50.3451
52.1621
53.9405
55.6816
57.3751
59.0087
60.5747
62.0768
63.5464
64.9904
66.4268
67.7978
69.0337
70.1184
70.992
71.7537
72.5315
73.4021
74.3641
75.4424
76.2259
76.5621
76.0481
75.2919
-89.684
-85.8362
-82.0593
-78.3439
-74.7009
-71.1326
-67.6371
-64.2145
-60.8675
-57.5983
-54.4144
-51.3143
-48.2904
-45.3549
-42.5038
-39.7343
-37.049
-34.4488
-31.9224
-29.469
-27.0905
-24.7813
-22.5375
-20.3579
-18.2384
-16.1701
-14.1525
-12.1811
-10.2507
-8.35722
-6.49662
-4.66528
-2.85851
-1.07184
0.697578
2.45459
4.20515
5.95186
7.69734
9.44407
11.1933
12.9468
14.7072
16.4766
18.2568
20.0501
21.8575
23.6799
25.5184
27.3735
29.2471
31.139
33.0499
34.9774
36.9164
38.8636
40.8139
42.76
44.6946
46.6098
48.4977
50.352
52.1692
53.9479
55.6888
57.3818
59.0159
60.5845
62.0913
63.5644
65.0099
66.4407
67.806
69.0434
70.1383
71.0463
71.8534
72.6728
73.5715
74.531
75.5668
76.3413
76.7175
76.3873
75.836
-89.6793
-85.8315
-82.0546
-78.3392
-74.6962
-71.1278
-67.6324
-64.2098
-60.8628
-57.5935
-54.4096
-51.3094
-48.2856
-45.35
-42.4988
-39.7293
-37.044
-34.4437
-31.9173
-29.4637
-27.0851
-24.7757
-22.5318
-20.3521
-18.2324
-16.1641
-14.1463
-12.1749
-10.2445
-8.35101
-6.49043
-4.65915
-2.85249
-1.06597
0.703315
2.4603
4.21097
5.95781
7.70341
9.45017
11.1994
12.9529
14.7133
16.4829
18.2634
20.0567
21.8639
23.6862
25.5245
27.3795
29.2531
31.1449
33.0554
34.9827
36.9217
38.8693
40.8199
42.7662
44.7009
46.6164
48.5046
50.3593
52.1771
53.9564
55.697
57.3898
59.0246
60.5959
62.1077
63.5845
65.0317
66.4576
67.8181
69.0586
70.1659
71.1106
71.965
72.8243
73.7476
74.7165
75.7218
76.4977
76.9268
76.7937
76.4933
76.173
77.7059
83.2079
86.2724
75.669
-89.6739
-85.8262
-82.0493
-78.3339
-74.6909
-71.1226
-67.6271
-64.2045
-60.8575
-57.5882
-54.4043
-51.3041
-48.2802
-45.3445
-42.4934
-39.7238
-37.0384
-34.4381
-31.9116
-29.458
-27.0793
-24.7699
-22.526
-20.3462
-18.2265
-16.1581
-14.1403
-12.1689
-10.2384
-8.3449
-6.48429
-4.65298
-2.84627
-1.0597
0.709669
2.46677
4.21755
5.96448
7.71014
9.45693
11.2062
12.9598
14.7203
16.49
18.2706
20.064
21.8712
23.6935
25.5318
27.3868
29.2604
31.1521
33.0625
34.9897
36.9285
38.876
40.8266
42.773
44.7079
46.6236
48.5121
50.3675
52.1861
53.966
55.7066
57.3994
59.0351
60.6095
62.1267
63.6075
65.0568
66.4785
67.8353
69.0803
70.2024
71.185
72.0877
72.9906
73.9434
74.9246
75.909
76.698
77.1961
77.2705
77.2249
77.4302
79.1349
83.8054
85.1369
77.2796
-89.668
-85.8203
-82.0435
-78.3281
-74.685
-71.1167
-67.6213
-64.1987
-60.8517
-57.5823
-54.3984
-51.2981
-48.2742
-45.3385
-42.4873
-39.7176
-37.0322
-34.4319
-31.9053
-29.4516
-27.0729
-24.7634
-22.5194
-20.3396
-18.2198
-16.1513
-14.1334
-12.1619
-10.2313
-8.33772
-6.47703
-4.64565
-2.83887
-1.05225
0.717172
2.4743
4.2251
5.97204
7.7177
9.46449
11.2138
12.9673
14.7278
16.4974
18.278
20.0712
21.8784
23.7006
25.5388
27.3937
29.2672
31.1588
33.0691
34.9963
36.9353
38.883
40.8337
42.7802
44.7153
46.6313
48.5203
50.3765
52.196
53.9767
55.7174
57.4104
59.0475
60.6253
62.1481
63.6332
65.0849
66.5035
67.858
69.1096
70.2491
71.2707
72.2229
73.1701
74.1533
75.1517
76.13
76.9474
77.5311
77.8163
78.037
78.6801
80.562
84.3538
85.2023
79.7781
-89.6614
-85.8138
-82.0369
-78.3216
-74.6785
-71.1102
-67.6148
-64.1922
-60.8451
-57.5758
-54.3918
-51.2915
-48.2675
-45.3318
-42.4805
-39.7108
-37.0253
-34.4249
-31.8983
-29.4445
-27.0657
-24.7562
-22.512
-20.3321
-18.2123
-16.1437
-14.1258
-12.1542
-10.2235
-8.32985
-6.46911
-4.63766
-2.83083
-1.04415
0.725317
2.48248
4.23332
5.98031
7.72599
9.47278
11.2221
12.9756
14.7361
16.5057
18.2862
20.0794
21.8865
23.7086
25.5466
27.4014
29.2746
31.166
33.0761
35.0031
36.9422
38.89
40.8408
42.7875
44.7229
46.6393
48.5289
50.386
52.2066
53.9882
55.7294
57.423
59.0618
60.6433
62.1718
63.6616
65.1161
66.5331
67.8872
69.1476
70.3071
71.3683
72.3702
73.3632
74.3802
75.4028
76.3901
77.2507
77.9347
78.4308
78.9185
79.9213
81.9901
85.0604
86.8066
80.2748
-89.6542
-85.8066
-82.0298
-78.3144
-74.6713
-71.1031
-67.6077
-64.185
-60.838
-57.5685
-54.3845
-51.2843
-48.2602
-45.3244
-42.4731
-39.7033
-37.0177
-34.4173
-31.8906
-29.4367
-27.0578
-24.7482
-22.504
-20.324
-18.2041
-16.1354
-14.1173
-12.1457
-10.2149
-8.32117
-6.46035
-4.62883
-2.82194
-1.0352
0.734309
2.4915
4.24238
5.9894
7.73507
9.48185
11.2311
12.9846
14.745
16.5145
18.2949
20.088
21.8949
23.7168
25.5546
27.4091
29.282
31.1731
33.0828
35.0097
36.9489
38.8966
40.8476
42.7946
44.7303
46.6471
48.5376
50.3957
52.2175
54.0003
55.7421
57.4366
59.0775
60.6631
62.1975
63.6922
65.1503
66.5673
67.9232
69.1947
70.3766
71.4781
72.5297
73.5697
74.6239
75.6773
76.6894
77.6082
78.4061
79.1099
79.8598
81.1635
83.4306
86.0553
88.6237
80.1092
-89.6462
-85.7986
-82.0219
-78.3065
-74.6635
-71.0952
-67.5998
-64.1772
-60.8301
-57.5606
-54.3766
-51.2763
-48.2522
-45.3163
-42.4649
-39.6951
-37.0094
-34.4089
-31.8822
-29.4282
-27.0492
-24.7395
-22.4951
-20.3151
-18.1951
-16.1263
-14.1081
-12.1364
-10.2056
-8.3117
-6.4508
-4.61921
-2.81225
-1.02546
0.7441
2.50131
4.25221
5.99925
7.74489
9.49164
11.2409
12.9943
14.7545
16.5238
18.304
20.0969
21.9036
23.7252
25.5626
27.4167
29.2892
31.1798
33.0891
35.0157
36.9547
38.9025
40.8536
42.8008
44.7369
46.6543
48.5456
50.4049
52.2281
54.0123
55.7549
57.4506
59.0939
60.6839
62.2245
63.7246
65.1869
66.606
67.9662
69.2511
70.4579
71.5999
72.7009
73.7891
74.8845
75.9768
77.0293
78.0209
78.9432
79.8486
80.8504
82.416
84.8833
87.3616
90.2812
83.2385
-89.6374
-85.79
-82.0133
-78.2979
-74.6549
-71.0867
-67.5913
-64.1686
-60.8215
-57.552
-54.368
-51.2676
-48.2434
-45.3075
-42.4561
-39.6861
-37.0004
-34.3998
-31.873
-29.4189
-27.0398
-24.73
-22.4856
-20.3054
-18.1854
-16.1164
-14.0982
-12.1263
-10.1954
-8.30143
-6.44045
-4.60879
-2.80178
-1.01492
0.754675
2.51189
4.2628
6.00983
7.75543
9.5021
11.2513
13.0045
14.7645
16.5336
18.3135
20.1061
21.9124
23.7335
25.5704
27.4239
29.2957
31.1856
33.0942
35.0204
36.9592
38.9069
40.858
42.8054
44.7419
46.66
48.5522
50.4129
52.2376
54.0232
55.767
57.4641
59.1103
60.705
62.252
63.7579
65.2253
66.6484
68.0156
69.3164
70.5501
71.7325
72.8823
74.0199
75.161
76.3004
77.4081
78.4852
79.54
80.6392
81.8787
83.6856
86.3546
88.9973
92.4001
90.3284
-89.6278
-85.7805
-82.0039
-78.2885
-74.6455
-71.0773
-67.582
-64.1593
-60.8122
-57.5427
-54.3586
-51.2582
-48.2339
-45.298
-42.4465
-39.6764
-36.9906
-34.39
-31.8631
-29.4089
-27.0297
-24.7197
-22.4752
-20.2949
-18.1748
-16.1058
-14.0874
-12.1154
-10.1844
-8.2904
-6.42934
-4.59762
-2.79055
-1.00364
0.765982
2.52319
4.27408
6.02109
7.76661
9.51317
11.2622
13.0152
14.7749
16.5437
18.3232
20.1153
21.921
23.7414
25.5776
27.4301
29.301
31.1899
33.0976
35.0231
36.9614
38.9088
40.8598
42.8073
44.7442
46.6629
48.5562
50.4183
52.2445
54.0316
55.7767
57.4758
59.1252
60.7247
62.2783
63.7904
65.2638
66.6931
68.07
69.389
70.6514
71.874
73.072
74.2603
75.4513
76.6457
77.8212
78.9943
80.1861
81.4718
82.9341
84.9718
87.8498
90.8573
94.8457
96.3024
-89.6172
-85.7702
-81.9936
-78.2783
-74.6353
-71.0672
-67.5719
-64.1493
-60.8021
-57.5326
-54.3485
-51.2481
-48.2237
-45.2877
-42.4361
-39.666
-36.9801
-34.3795
-31.8524
-29.3981
-27.0188
-24.7087
-22.4641
-20.2837
-18.1636
-16.0944
-14.0759
-12.1038
-10.1727
-8.27863
-6.4175
-4.58573
-2.77863
-0.991685
0.777951
2.53512
4.28598
6.03293
7.77832
9.52472
11.2735
13.0263
14.7856
16.5538
18.3328
20.1242
21.9292
23.7486
25.5837
27.435
29.3046
31.192
33.0982
35.0227
36.9603
38.907
40.8576
42.8051
44.7423
46.6616
48.5559
50.4191
52.2469
54.0357
55.7825
57.4837
59.1366
60.7412
62.3015
63.8205
65.301
66.7383
68.1273
69.4664
70.7586
72.021
73.2666
74.5067
75.7521
77.0085
78.2626
79.5395
80.8704
82.3327
84.0068
86.2679
89.3573
92.8018
97.3504
101.281
-89.6055
-85.7588
-81.9823
-78.267
-74.6242
-71.0562
-67.561
-64.1383
-60.7912
-57.5216
-54.3376
-51.2371
-48.2126
-45.2766
-42.4249
-39.6547
-36.9688
-34.3681
-31.841
-29.3865
-27.0071
-24.697
-22.4522
-20.2718
-18.1516
-16.0823
-14.0637
-12.0915
-10.1604
-8.26617
-6.40499
-4.57319
-2.76607
-0.979124
0.790486
2.54757
4.29838
6.04524
7.79045
9.53663
11.2852
13.0375
14.7963
16.5639
18.3421
20.1327
21.9366
23.7548
25.5883
27.4379
29.3056
31.191
33.0952
35.0181
36.9542
38.8999
40.8497
42.7968
44.734
46.6536
48.5486
50.413
52.2423
54.0327
55.7812
57.4848
59.1413
60.7509
62.3179
63.844
65.3323
66.7792
68.1822
69.5437
70.8677
72.17
73.4627
74.7551
76.0578
77.3811
78.7209
80.1071
81.5765
83.2069
85.0874
87.5607
90.8604
94.735
99.8342
105.667
-89.5925
-85.7461
-81.9697
-78.2545
-74.6119
-71.0441
-67.549
-64.1265
-60.7794
-57.5098
-54.3257
-51.2253
-48.2007
-45.2647
-42.4129
-39.6426
-36.9567
-34.356
-31.8287
-29.3741
-26.9947
-24.6844
-22.4396
-20.2591
-18.1389
-16.0694
-14.0508
-12.0785
-10.1473
-8.25308
-6.39186
-4.56007
-2.75297
-0.966053
0.803483
2.56042
4.31112
6.05786
7.80282
9.54872
11.2969
13.0488
14.8069
16.5737
18.3509
20.1404
21.9429
23.7594
25.5909
27.4382
29.3033
31.1858
33.0871
35.0077
36.9416
38.8853
40.8336
42.7797
44.7163
46.6358
48.5312
50.3966
52.2271
54.019
55.7693
57.4753
59.1356
60.7503
62.324
63.8573
65.3542
66.8125
68.2313
69.6159
70.9718
72.313
73.6517
74.9978
76.3621
77.7576
79.1884
80.687
82.2935
84.088
86.1678
88.8385
92.3273
96.5677
102.217
109.197
-89.578
-85.732
-81.9566
-78.2413
-74.5984
-71.0306
-67.5357
-64.1132
-60.7661
-57.4966
-54.3128
-51.2124
-48.1878
-45.2518
-42.4
-39.6296
-36.9437
-34.343
-31.8156
-29.3609
-26.9814
-24.6711
-22.4261
-20.2456
-18.1254
-16.0558
-14.0372
-12.0649
-10.1336
-8.23939
-6.37818
-4.54643
-2.73941
-0.952574
0.816817
2.57353
4.32404
6.07058
7.81522
9.56073
11.3085
13.0597
14.817
16.5829
18.359
20.147
21.9478
23.7622
25.5911
27.4353
29.2969
31.1755
33.0727
34.9898
36.9203
38.861
40.8067
42.7507
44.6858
46.6045
48.4999
50.3656
52.1969
53.9899
55.7417
57.4499
59.1136
60.7324
62.3119
63.8523
65.3584
66.829
68.2653
69.6756
71.0661
72.4477
73.8327
75.2322
76.6583
78.1263
79.6504
81.2646
83.0078
84.9635
87.2387
90.0862
93.7894
98.2496
104.335
111.85
-89.5611
-85.7156
-81.9413
-78.2271
-74.5836
-71.0158
-67.5214
-64.0996
-60.7525
-57.4828
-54.2983
-51.1982
-48.1736
-45.2375
-42.3857
-39.6152
-36.9294
-34.3289
-31.8016
-29.3467
-26.9672
-24.6568
-22.4118
-20.2313
-18.1112
-16.0415
-14.0228
-12.0506
-10.1193
-8.22511
-6.36395
-4.53232
-2.72546
-0.938792
0.830347
2.5867
4.33693
6.08317
7.82743
9.57255
11.3198
13.0703
14.8265
16.5912
18.3658
20.1521
21.9507
23.7624
25.5881
27.4286
29.2856
31.1592
33.0507
34.963
36.8884
38.8243
40.7656
42.7061
44.6386
46.5555
48.4497
50.315
52.1463
53.9398
55.6925
57.4024
59.0688
60.6904
62.2757
63.8216
65.3412
66.829
68.2803
69.7119
71.135
72.5568
73.9896
75.447
76.9433
78.4939
80.1168
81.8479
83.7328
85.8484
88.2988
91.3589
95.0534
99.7944
106.056
113.6
-89.5412
-85.6962
-81.9208
-78.2087
-74.5661
-70.9987
-67.5044
-64.0844
-60.738
-57.4673
-54.2835
-51.1822
-48.1583
-45.2228
-42.3713
-39.6009
-36.9144
-34.3137
-31.7863
-29.3313
-26.9519
-24.6416
-22.3966
-20.2162
-18.0962
-16.0265
-14.0079
-12.0357
-10.1046
-8.21047
-6.34944
-4.51802
-2.71139
-0.924918
0.843935
2.59983
4.34969
6.09556
7.83931
9.58375
11.33
13.0793
14.8343
16.5976
18.3705
20.1551
21.9515
23.7605
25.5827
27.4185
29.2698
31.136
33.0201
34.926
36.8439
38.7725
40.7075
42.6425
44.5704
46.4837
48.3755
50.2392
52.0698
53.8631
55.616
57.3266
58.9948
60.6197
62.2117
63.7703
65.2976
66.7936
68.2617
69.7231
71.1857
72.6525
74.1364
75.6532
77.221
78.8586
80.5839
82.432
84.4549
86.7105
89.3189
92.4354
96.2769
101.079
107.356
114.556
-89.5183
-85.6743
-81.8985
-78.1868
-74.5454
-70.978
-67.4836
-64.0641
-60.7187
-57.4484
-54.2668
-51.1634
-48.141
-45.2068
-42.3556
-39.5842
-36.8983
-34.297
-31.7689
-29.314
-26.9347
-24.6249
-22.38
-20.1996
-18.0799
-16.0102
-13.9916
-12.0195
-10.0885
-8.19452
-6.33369
-4.50258
-2.69633
-0.910333
0.857818
2.61275
4.36193
6.10714
7.8499
9.59293
11.3382
13.0873
14.8418
16.6038
18.3752
20.1574
21.9509
23.7559
25.5729
27.4021
29.2463
31.1073
32.9815
34.8779
36.7862
38.7048
40.6304
42.557
44.4778
46.3854
48.2728
50.1333
51.9617
53.7532
55.5048
57.2154
58.8862
60.5179
62.1114
63.6799
65.2155
66.7278
68.2304
69.7264
71.2234
72.7331
74.2694
75.8481
77.4865
79.2045
81.0279
82.9885
85.1299
87.514
90.2563
93.4744
97.4523
102.074
108.238
114.789
-89.4919
-85.6489
-81.8743
-78.1631
-74.5221
-70.9549
-67.4614
-64.0414
-60.696
-57.4269
-54.246
-51.1425
-48.1189
-45.1847
-42.3338
-39.5627
-36.8789
-34.2776
-31.7487
-29.295
-26.9163
-24.6067
-22.3614
-20.1815
-18.061
-15.9908
-13.9729
-12.0017
-10.0711
-8.17766
-6.31743
-4.48702
-2.68155
-0.896332
0.870674
2.62459
4.37357
6.11812
7.85972
9.6011
11.3452
13.0939
14.8478
16.6081
18.3774
20.1564
21.946
23.7465
25.5582
27.3814
29.2181
31.073
32.9393
34.8195
36.7154
38.6213
40.534
42.4485
44.3583
46.2566
48.1364
49.9911
51.8146
53.6026
55.3525
57.0638
58.7372
60.3758
61.9766
63.5502
65.1033
66.6389
68.1655
69.6917
71.228
72.7846
74.3758
76.0184
77.7303
79.5315
81.4488
83.5101
85.7576
88.2507
91.0903
94.3869
98.3433
103.047
108.635
114.818
-89.461
-85.6193
-81.8456
-78.1352
-74.495
-70.9291
-67.4361
-64.0166
-60.6718
-57.4034
-54.2221
-51.119
-48.0953
-45.161
-42.3107
-39.5408
-36.8576
-34.2568
-31.7275
-29.2745
-26.8958
-24.5862
-22.3413
-20.1626
-18.0415
-15.972
-13.9539
-11.9828
-10.0533
-8.16048
-6.30093
-4.47153
-2.66716
-0.883309
0.881964
2.63601
4.38516
6.12885
7.86947
9.60965
11.352
13.0984
14.8502
16.6086
18.3754
20.1518
21.9383
23.735
25.542
27.3593