/*--------------------------------*- C++ -*----------------------------------*\
| =========                 |                                                 |
| \\      /  F ield         | OpenFOAM: The Open Source CFD Toolbox           |
|  \\    /   O peration     | Version:  2412                                  |
|   \\  /    A nd           | Website:  www.openfoam.com                      |
|    \\/     M anipulation  |                                                 |
\*---------------------------------------------------------------------------*/
FoamFile
{
    version     2.0;
    format      ascii;
    arch        "LSB;label=32;scalar=64";
    class       volVectorField;
    location    "320";
    object      U;
}
// * * * * * * * * * * * * * * * * * * * * * * * * * * * * * * * * * * * * * //

dimensions      [0 1 -1 0 0 0 0];

internalField   nonuniform List<vector> 
8702
(
(0.361263 -0.0989091 3.69456e-19)
(0.361248 -0.099413 0)
(0.361238 -0.0999068 -3.4962e-19)
(0.361242 -0.100391 -3.39876e-19)
(0.36124 -0.100864 0)
(0.361245 -0.101325 -3.2071e-19)
(0.361259 -0.10178 2.96853e-25)
(0.361261 -0.102222 -2.87887e-25)
(0.361253 -0.10265 -2.92509e-19)
(0.361244 -0.10307 0)
(0.361232 -0.10348 2.73994e-19)
(0.361212 -0.103879 -2.64796e-19)
(0.361183 -0.104268 1.18592e-25)
(0.361152 -0.104648 -6.58352e-27)
(0.361111 -0.105018 1.18726e-19)
(0.36107 -0.10538 0)
(0.361018 -0.105733 -1.01425e-25)
(0.360961 -0.106076 1.05249e-19)
(0.360905 -0.106413 8.08383e-27)
(0.360833 -0.106739 9.32794e-27)
(0.360751 -0.107054 0)
(0.360664 -0.107362 -8.7486e-20)
(0.360566 -0.10766 0)
(0.360461 -0.107949 7.85692e-20)
(0.360352 -0.108231 0)
(0.360232 -0.108503 0)
(0.360099 -0.108765 0)
(0.359962 -0.109018 -6.02687e-20)
(0.359815 -0.109262 -1.05875e-25)
(0.359654 -0.109496 2.53193e-20)
(0.359488 -0.109722 2.28146e-20)
(0.359314 -0.109939 3.54886e-26)
(0.359124 -0.110144 1.75534e-20)
(0.358927 -0.11034 2.49879e-26)
(0.358721 -0.110528 -2.57911e-26)
(0.358493 -0.110702 -1.76067e-20)
(0.358262 -0.110868 0)
(0.358021 -0.111025 -2.1922e-21)
(0.357767 -0.11117 0)
(0.357506 -0.111308 -1.36572e-26)
(0.357231 -0.111434 1.41551e-26)
(0.356945 -0.11155 -6.86456e-21)
(0.356643 -0.111654 -9.22149e-21)
(0.356326 -0.111748 1.17576e-20)
(0.356007 -0.111834 0)
(0.355676 -0.11191 1.74394e-20)
(0.355332 -0.111975 2.06276e-20)
(0.354972 -0.11203 -2.40784e-20)
(0.354598 -0.112073 2.78189e-20)
(0.354209 -0.112105 -1.59389e-20)
(0.353804 -0.112126 -1.32822e-25)
(0.353393 -0.112139 0)
(0.352969 -0.112142 0)
(0.352534 -0.112136 0)
(0.352089 -0.112121 2.29181e-25)
(0.35164 -0.112099 3.24429e-20)
(0.351179 -0.112068 0)
(0.350709 -0.112029 0)
(0.350238 -0.111983 -2.1808e-27)
(0.349775 -0.111935 2.45882e-20)
(0.349309 -0.111883 2.71519e-20)
(0.348833 -0.111823 -2.99275e-20)
(0.348365 -0.11176 -6.58581e-20)
(0.347918 -0.111697 -5.44258e-25)
(0.34751 -0.111641 1.98266e-20)
(0.34712 -0.111591 6.50327e-25)
(0.34672 -0.11154 2.37067e-20)
(0.346269 -0.111476 0)
(0.345825 -0.111399 -2.70282e-27)
(0.345566 -0.111354 0)
(0.345637 -0.111394 -1.6623e-20)
(0.346007 -0.111544 1.80047e-20)
(0.346245 -0.111716 3.89239e-20)
(0.346066 -0.111813 -2.10142e-20)
(0.345236 -0.111733 1.39965e-24)
(0.344472 -0.111542 -2.44446e-20)
(0.345258 -0.111653 -1.58953e-24)
(0.348063 -0.112243 -2.1058e-26)
(0.353954 -0.113712 -1.50786e-20)
(0.361436 -0.116036 0)
(0.366687 -0.118231 -1.69419e-20)
(0.368503 -0.119845 0)
(1.12325 -0.30753 -2.98883e-25)
(1.12322 -0.309103 5.98009e-19)
(1.1232 -0.31064 0)
(1.12323 -0.312151 0)
(1.12324 -0.313625 0)
(1.12327 -0.315066 -5.3355e-19)
(1.12331 -0.316479 -5.17841e-19)
(1.12334 -0.317857 2.45094e-25)
(1.12333 -0.319197 4.86636e-19)
(1.12331 -0.320504 -4.71189e-19)
(1.12328 -0.32178 2.22918e-25)
(1.12323 -0.323024 0)
(1.12315 -0.324236 0)
(1.12306 -0.32542 -1.90069e-25)
(1.12294 -0.326573 -1.97481e-19)
(1.12282 -0.327702 -1.86598e-25)
(1.12268 -0.328802 1.82476e-19)
(1.1225 -0.329871 1.61603e-25)
(1.12232 -0.330916 -1.67594e-19)
(1.1221 -0.331931 6.3928e-27)
(1.12186 -0.332918 0)
(1.12159 -0.333875 -1.33514e-25)
(1.1213 -0.334804 1.37995e-19)
(1.12098 -0.335705 -1.30541e-19)
(1.12065 -0.336582 0)
(1.12028 -0.337431 -1.15482e-19)
(1.11987 -0.338246 -2.05657e-25)
(1.11945 -0.339036 1.04909e-25)
(1.11899 -0.339796 0)
(1.1185 -0.340526 -4.2e-20)
(1.11799 -0.341228 -6.70436e-26)
(1.11745 -0.341903 3.35281e-20)
(1.11686 -0.342544 0)
(1.11625 -0.343155 0)
(1.11561 -0.343739 -3.20049e-26)
(1.11493 -0.344288 4.42883e-26)
(1.11422 -0.344807 0)
(1.11348 -0.345297 7.05378e-21)
(1.11271 -0.345757 2.45836e-21)
(1.11191 -0.346187 0)
(1.11108 -0.346586 -7.81479e-21)
(1.1102 -0.346952 5.0228e-26)
(1.10929 -0.347284 -5.21329e-26)
(1.10834 -0.347586 -1.95847e-20)
(1.10737 -0.347861 0)
(1.10636 -0.348105 0)
(1.10531 -0.348316 -3.43091e-20)
(1.10423 -0.348494 -1.44703e-25)
(1.1031 -0.348641 -4.62442e-20)
(1.10195 -0.348758 5.29806e-20)
(1.10075 -0.348843 0)
(1.09952 -0.348898 -3.4126e-20)
(1.09825 -0.348925 0)
(1.09696 -0.348926 3.40804e-25)
(1.09564 -0.3489 2.37083e-26)
(1.0943 -0.34885 -5.38717e-20)
(1.09294 -0.348775 4.71089e-25)
(1.09156 -0.34868 -3.32929e-20)
(1.09018 -0.348567 3.68969e-20)
(1.08882 -0.348442 8.15807e-27)
(1.08745 -0.348304 0)
(1.08605 -0.348145 4.96681e-20)
(1.08467 -0.347974 1.09293e-19)
(1.08336 -0.347803 6.00169e-20)
(1.08215 -0.34765 -3.28986e-20)
(1.08101 -0.347517 0)
(1.07984 -0.347384 1.22135e-24)
(1.07852 -0.347208 -2.61921e-24)
(1.07723 -0.346996 4.67265e-20)
(1.07647 -0.34688 0)
(1.0767 -0.347009 2.75697e-20)
(1.07782 -0.347467 0)
(1.07861 -0.348014 -1.13726e-27)
(1.07819 -0.348356 3.48412e-20)
(1.07587 -0.348184 0)
(1.07367 -0.347661 -2.49824e-24)
(1.07595 -0.347982 5.32145e-24)
(1.08424 -0.349718 -2.33874e-20)
(1.10164 -0.354042 2.49814e-20)
(1.12397 -0.360969 0)
(1.14015 -0.3677 2.80561e-20)
(1.14632 -0.372816 -2.9686e-20)
(1.96766 -0.538719 0)
(1.96765 -0.541488 -6.76808e-19)
(1.96766 -0.54419 -3.07422e-25)
(1.96775 -0.54685 6.3993e-19)
(1.96782 -0.549442 6.21787e-19)
(1.9679 -0.551977 6.03852e-19)
(1.968 -0.554459 1.34769e-26)
(1.96809 -0.556884 -5.68352e-19)
(1.96812 -0.559245 5.50752e-19)
(1.96812 -0.561545 5.33268e-19)
(1.96809 -0.563788 -5.15869e-19)
(1.96803 -0.565976 0)
(1.96793 -0.568111 0)
(1.9678 -0.570193 0)
(1.96762 -0.572221 0)
(1.96742 -0.574204 -1.98926e-25)
(1.9672 -0.57614 -2.06507e-19)
(1.96692 -0.57802 1.98069e-19)
(1.9666 -0.579854 1.74908e-25)
(1.96625 -0.581639 1.8127e-19)
(1.96585 -0.583375 -1.59024e-25)
(1.96539 -0.585056 3.13877e-25)
(1.9649 -0.58669 -1.56159e-19)
(1.96436 -0.588276 2.81794e-25)
(1.96378 -0.589815 1.3924e-19)
(1.96315 -0.591305 1.30677e-19)
(1.96245 -0.592739 0)
(1.96171 -0.594125 1.13199e-19)
(1.96092 -0.595457 9.36807e-26)
(1.96008 -0.596741 -4.75233e-20)
(1.95918 -0.597974 -8.73881e-26)
(1.95823 -0.599155 -3.79355e-20)
(1.95722 -0.600284 3.28927e-20)
(1.95616 -0.601358 -2.76464e-20)
(1.95504 -0.602381 0)
(1.95387 -0.603349 1.64243e-20)
(1.95264 -0.604263 -3.94549e-26)
(1.95135 -0.605124 -3.98997e-21)
(1.95001 -0.605933 2.63168e-26)
(1.94863 -0.606693 0)
(1.94718 -0.607396 8.84014e-21)
(1.94567 -0.608042 -1.29631e-20)
(1.94408 -0.608632 5.89696e-26)
(1.94245 -0.60917 -1.04375e-25)
(1.94077 -0.60966 -1.62654e-26)
(1.93903 -0.610093 3.28195e-20)
(1.93723 -0.610473 3.88028e-20)
(1.93535 -0.610795 4.52785e-20)
(1.93342 -0.611065 -5.22967e-20)
(1.93144 -0.611284 -2.99558e-20)
(1.9294 -0.611452 2.71171e-25)
(1.9273 -0.611567 3.85863e-20)
(1.92514 -0.611632 3.20021e-25)
(1.92295 -0.611655 3.85313e-25)
(1.92072 -0.611635 -4.03463e-25)
(1.91844 -0.61157 -4.79215e-25)
(1.91613 -0.611464 6.77746e-20)
(1.91381 -0.611326 3.76318e-20)
(1.91149 -0.611159 4.17025e-20)
(1.90917 -0.610968 -4.61261e-20)
(1.90686 -0.610753 7.58955e-25)
(1.90452 -0.610507 0)
(1.90219 -0.610237 -6.17443e-20)
(1.89997 -0.609965 0)
(1.89794 -0.609722 3.71655e-20)
(1.89603 -0.609518 -4.06676e-20)
(1.89407 -0.609314 0)
(1.89185 -0.609038 -4.84487e-20)
(1.8897 -0.608706 -5.27583e-20)
(1.88845 -0.608526 -3.45074e-24)
(1.88882 -0.608754 3.85064e-24)
(1.89072 -0.609538 -4.06269e-24)
(1.89215 -0.610506 -3.64216e-20)
(1.89163 -0.611158 0)
(1.88791 -0.610969 4.23967e-20)
(1.88431 -0.610153 4.57101e-20)
(1.88803 -0.610674 -6.06098e-24)
(1.9018 -0.613554 6.38066e-24)
(1.93079 -0.62073 -2.81613e-20)
(1.96836 -0.63238 -2.98831e-20)
(1.99643 -0.644003 3.16193e-20)
(2.00805 -0.653106 3.34333e-20)
(2.89095 -0.791503 -7.86631e-19)
(2.89105 -0.795602 -7.44672e-25)
(2.89116 -0.799601 -7.44399e-19)
(2.89138 -0.803531 -7.23652e-19)
(2.89156 -0.807362 -7.70852e-25)
(2.89175 -0.811108 0)
(2.89197 -0.814777 6.62737e-19)
(2.89218 -0.818362 6.42696e-19)
(2.89231 -0.821855 -6.66899e-26)
(2.89239 -0.825259 0)
(2.89242 -0.828577 5.83337e-19)
(2.89241 -0.831815 0)
(2.89234 -0.834973 0)
(2.89221 -0.838054 0)
(2.89202 -0.841055 0)
(2.89179 -0.843987 0)
(2.89151 -0.846847 0)
(2.89116 -0.849628 -4.47909e-19)
(2.89075 -0.852339 -2.14447e-19)
(2.89028 -0.854978 0)
(2.88973 -0.857541 1.95485e-19)
(2.8891 -0.860025 1.86039e-19)
(2.88842 -0.862438 0)
(2.88767 -0.864782 3.05509e-25)
(2.88684 -0.867055 -3.1484e-19)
(2.88593 -0.869251 1.47736e-19)
(2.88494 -0.87137 -2.50153e-25)
(2.88387 -0.873412 1.27971e-19)
(2.88273 -0.875377 0)
(2.88152 -0.877272 5.3722e-20)
(2.88021 -0.879088 4.83848e-20)
(2.87883 -0.880829 0)
(2.87737 -0.882493 -3.71801e-20)
(2.87581 -0.884076 3.12491e-20)
(2.87419 -0.885583 -8.1855e-26)
(2.87247 -0.88701 -1.85634e-20)
(2.87068 -0.888359 5.8731e-26)
(2.8688 -0.889628 0)
(2.86684 -0.890822 -3.14305e-21)
(2.86482 -0.891941 -5.85641e-26)
(2.8627 -0.892977 6.06936e-26)
(2.86049 -0.893933 1.46483e-20)
(2.85818 -0.894806 0)
(2.8558 -0.895604 2.503e-20)
(2.85335 -0.896328 0)
(2.85082 -0.896975 -3.70786e-20)
(2.84819 -0.897541 4.00973e-26)
(2.84548 -0.898026 -5.115e-20)
(2.84268 -0.898435 5.90746e-20)
(2.8398 -0.898769 5.40049e-25)
(2.83685 -0.89903 4.87558e-26)
(2.83382 -0.899218 5.13785e-26)
(2.83071 -0.899336 -7.22806e-25)
(2.82756 -0.899391 8.70207e-25)
(2.82435 -0.899384 -9.11122e-25)
(2.82109 -0.899315 0)
(2.81779 -0.899191 -1.16161e-24)
(2.81447 -0.899018 -4.24781e-20)
(2.81116 -0.898804 -4.70703e-20)
(2.80786 -0.898555 0)
(2.80457 -0.898273 0)
(2.80124 -0.897948 0)
(2.79793 -0.897589 6.96604e-20)
(2.79476 -0.89722 2.38285e-24)
(2.79187 -0.896893 -5.10407e-24)
(2.78917 -0.896626 9.17275e-20)
(2.7864 -0.896362 -3.11082e-24)
(2.78329 -0.896003 5.46269e-20)
(2.78027 -0.895565 9.31487e-26)
(2.77849 -0.895327 -7.89247e-24)
(2.77897 -0.895652 4.22322e-24)
(2.78165 -0.89677 0)
(2.78378 -0.8982 4.10216e-20)
(2.78327 -0.899226 -5.46687e-24)
(2.77836 -0.899111 -4.77235e-20)
(2.77343 -0.89806 -6.34927e-24)
(2.77843 -0.89875 6.68678e-24)
(2.79745 -0.902711 -7.29765e-24)
(2.83764 -0.912613 6.33253e-20)
(2.89031 -0.928947 3.35931e-20)
(2.931 -0.945729 -3.55149e-20)
(2.94925 -0.959297 0)
(3.88752 -1.06435 8.88064e-19)
(3.88786 -1.06992 -8.07446e-25)
(3.88819 -1.07535 8.40369e-19)
(3.88863 -1.08068 -7.95605e-25)
(3.88902 -1.08587 -1.58753e-18)
(3.88943 -1.09095 7.1886e-25)
(3.88986 -1.09592 -7.48148e-19)
(3.89027 -1.10078 0)
(3.8906 -1.10552 -1.78753e-25)
(3.89086 -1.11014 6.33077e-25)
(3.89105 -1.11465 -6.44055e-25)
(3.89117 -1.11905 -5.90886e-25)
(3.89121 -1.12333 3.18532e-26)
(3.89117 -1.12752 5.80753e-25)
(3.89105 -1.13159 0)
(3.89086 -1.13557 5.07762e-25)
(3.89059 -1.13945 -1.00548e-24)
(3.89023 -1.14323 5.05538e-19)
(3.88978 -1.14691 2.42033e-19)
(3.88924 -1.15048 0)
(3.88859 -1.15396 -1.22703e-25)
(3.88783 -1.15732 -2.09957e-19)
(3.88698 -1.1606 1.99247e-19)
(3.88605 -1.16377 -3.74295e-25)
(3.88501 -1.16685 1.77643e-19)
(3.88384 -1.16982 -1.66711e-19)
(3.88256 -1.17269 -3.11465e-25)
(3.88117 -1.17545 -1.44399e-19)
(3.87967 -1.17811 -2.68162e-25)
(3.87808 -1.18067 2.16563e-25)
(3.87636 -1.18313 -1.09182e-19)
(3.87453 -1.18548 4.83802e-20)
(3.87258 -1.18772 -4.19462e-20)
(3.87051 -1.18986 -1.19242e-25)
(3.86834 -1.19189 1.23061e-25)
(3.86604 -1.19382 2.09407e-20)
(3.86364 -1.19564 1.32317e-20)
(3.86113 -1.19735 -5.08624e-21)
(3.85851 -1.19896 3.54526e-21)
(3.85579 -1.20047 3.44748e-26)
(3.85294 -1.20187 -6.845e-26)
(3.84998 -1.20315 0)
(3.84689 -1.20433 2.21581e-20)
(3.84369 -1.20541 2.82238e-20)
(3.84039 -1.20639 2.86328e-25)
(3.837 -1.20726 4.18037e-20)
(3.83348 -1.20803 -4.5204e-26)
(3.82985 -1.20869 4.168e-25)
(3.82611 -1.20925 -6.65877e-20)
(3.82228 -1.20971 -5.56478e-25)
(3.81835 -1.21007 0)
(3.81432 -1.21034 7.79065e-25)
(3.8102 -1.21052 -8.14439e-25)
(3.80602 -1.21061 0)
(3.80178 -1.21062 -6.94373e-20)
(3.79747 -1.21056 7.21427e-26)
(3.79313 -1.21042 -1.20762e-24)
(3.78876 -1.21022 9.5673e-20)
(3.78441 -1.20997 0)
(3.78008 -1.20967 0)
(3.77577 -1.20933 0)
(3.77143 -1.20893 0)
(3.76711 -1.20849 -7.83811e-20)
(3.76297 -1.20804 -2.57352e-24)
(3.75918 -1.20763 -4.71506e-20)
(3.75567 -1.20731 3.02069e-26)
(3.75209 -1.207 -5.63177e-20)
(3.74809 -1.20658 -6.13997e-20)
(3.74421 -1.20605 6.68373e-20)
(3.74185 -1.20575 0)
(3.74239 -1.20617 0)
(3.74578 -1.20761 0)
(3.74865 -1.20953 -4.60514e-20)
(3.7483 -1.21099 4.96883e-20)
(3.74245 -1.21106 1.46879e-25)
(3.73634 -1.20986 -6.96595e-24)
(3.74236 -1.21066 0)
(3.76613 -1.21558 -3.32176e-20)
(3.8166 -1.22794 -7.09051e-20)
(3.88361 -1.24873 0)
(3.93723 -1.2708 -3.9717e-20)
(3.96327 -1.28927 0)
(4.94914 -1.35501 0)
(4.94991 -1.36219 0)
(4.95061 -1.36918 -9.45887e-19)
(4.95143 -1.37604 8.95481e-25)
(4.95216 -1.38271 8.93391e-19)
(4.95291 -1.38925 0)
(4.95368 -1.39564 1.68401e-18)
(4.95443 -1.40189 0)
(4.95508 -1.408 -1.58237e-18)
(4.95565 -1.41395 7.48713e-25)
(4.95613 -1.41976 0)
(4.95653 -1.42543 0)
(4.95681 -1.43096 -6.9122e-19)
(4.95699 -1.43635 -3.33239e-19)
(4.95705 -1.44161 0)
(4.95702 -1.44674 -5.71311e-25)
(4.95686 -1.45174 5.83115e-25)
(4.95658 -1.4566 -5.68772e-19)
(4.95618 -1.46133 -5.36624e-25)
(4.95565 -1.46594 -2.60231e-19)
(4.95497 -1.47041 -2.48193e-19)
(4.95414 -1.47474 -4.33745e-25)
(4.9532 -1.47895 -2.20809e-25)
(4.95213 -1.48304 4.21025e-25)
(4.95091 -1.48699 -1.99814e-19)
(4.94954 -1.49081 -1.8751e-19)
(4.94799 -1.49449 0)
(4.94631 -1.49804 1.62402e-19)
(4.94448 -1.50145 0)
(4.94251 -1.50473 0)
(4.94038 -1.50788 1.22778e-19)
(4.9381 -1.5109 -5.4403e-20)
(4.93566 -1.51377 4.71653e-20)
(4.93306 -1.51651 2.68143e-25)
(4.93032 -1.51911 -2.76715e-25)
(4.92742 -1.52157 1.44142e-25)
(4.92437 -1.52389 -1.4875e-20)
(4.92118 -1.52608 5.71751e-21)
(4.91784 -1.52813 -7.9702e-21)
(4.91437 -1.53005 1.48481e-25)
(4.91075 -1.53183 -1.53861e-25)
(4.90697 -1.53347 0)
(4.90303 -1.53497 -2.48995e-20)
(4.89895 -1.53634 -3.17137e-20)
(4.89474 -1.53758 3.90519e-20)
(4.89041 -1.53869 1.60536e-25)
(4.88593 -1.53967 -5.55152e-20)
(4.88131 -1.54052 0)
(4.87657 -1.54123 7.47859e-20)
(4.8717 -1.54183 -1.24982e-24)
(4.86672 -1.5423 0)
(4.86162 -1.54265 0)
(4.85642 -1.54289 6.20994e-20)
(4.85115 -1.54303 -6.96761e-20)
(4.84582 -1.54307 7.79267e-20)
(4.84042 -1.54302 8.68946e-20)
(4.83498 -1.54287 -9.66697e-20)
(4.82952 -1.54265 -1.07313e-19)
(4.8241 -1.54236 -5.94337e-20)
(4.81871 -1.54202 -6.57029e-20)
(4.81336 -1.54163 0)
(4.80798 -1.54118 0)
(4.80265 -1.54067 8.78208e-20)
(4.79753 -1.54014 -9.63882e-20)
(4.79284 -1.53968 0)
(4.78851 -1.53931 -1.15473e-19)
(4.78412 -1.53897 6.30256e-20)
(4.77926 -1.53851 6.86859e-20)
(4.77453 -1.53791 0)
(4.77158 -1.53757 8.12074e-20)
(4.77208 -1.53805 -1.06014e-23)
(4.77607 -1.5398 4.76302e-20)
(4.77968 -1.54222 -5.14236e-20)
(4.77963 -1.54418 -5.54519e-20)
(4.77316 -1.54456 1.4423e-23)
(4.76607 -1.5433 0)
(4.77281 -1.54416 -6.91329e-20)
(4.80055 -1.54984 7.40016e-20)
(4.85984 -1.56425 3.94313e-20)
(4.9397 -1.58905 -2.04641e-23)
(5.006 -1.61635 8.82227e-20)
(5.04082 -1.64006 -4.65825e-20)
(6.06438 -1.66035 -1.12008e-18)
(6.06579 -1.66928 0)
(6.06707 -1.67796 2.11952e-18)
(6.06844 -1.68646 -1.92339e-24)
(6.06968 -1.69474 1.00086e-18)
(6.07093 -1.70284 0)
(6.0722 -1.71077 -9.43207e-19)
(6.07345 -1.71853 -1.70359e-24)
(6.0746 -1.72611 1.77239e-18)
(6.07565 -1.73352 1.67716e-24)
(6.07661 -1.74074 0)
(6.07746 -1.7478 0)
(6.07817 -1.75468 1.54814e-18)
(6.07874 -1.76139 7.46322e-19)
(6.07913 -1.76794 -7.92245e-26)
(6.0794 -1.77431 -7.87657e-26)
(6.07951 -1.78053 3.31988e-19)
(6.07944 -1.78658 6.36774e-19)
(6.07921 -1.79246 -3.04836e-19)
(6.0788 -1.79818 5.82625e-19)
(6.0782 -1.80374 0)
(6.07741 -1.80912 0)
(6.07646 -1.81434 -2.50861e-19)
(6.07534 -1.81941 -8.68079e-25)
(6.07403 -1.82432 2.23622e-19)
(6.0725 -1.82905 5.37298e-25)
(6.07077 -1.83362 0)
(6.06884 -1.83801 -1.81719e-19)
(6.06672 -1.84223 -7.34156e-26)
(6.06441 -1.84629 -7.62656e-20)
(6.0619 -1.85019 -6.86795e-20)
(6.05918 -1.85391 6.08592e-20)
(6.05626 -1.85746 0)
(6.05313 -1.86083 0)
(6.04981 -1.86403 3.55422e-20)
(6.04629 -1.86706 0)
(6.04257 -1.86992 0)
(6.03867 -1.87261 0)
(6.03458 -1.87513 8.91236e-21)
(6.03031 -1.87748 -7.93641e-26)
(6.02586 -1.87966 0)
(6.02122 -1.88168 -2.07518e-20)
(6.01638 -1.88352 -3.77504e-25)
(6.01135 -1.88519 0)
(6.00617 -1.88671 -4.36384e-20)
(6.00083 -1.88806 -1.0495e-19)
(5.99533 -1.88926 6.20222e-20)
(5.98965 -1.89029 7.23443e-20)
(5.98383 -1.89117 8.35279e-20)
(5.97787 -1.8919 4.78254e-20)
(5.97177 -1.89249 -3.32416e-24)
(5.96555 -1.89293 1.80771e-24)
(5.95921 -1.89324 -6.93146e-20)
(5.9528 -1.89342 7.77566e-20)
(5.94633 -1.89349 -2.74099e-24)
(5.93979 -1.89345 3.0993e-24)
(5.93322 -1.89331 1.0781e-19)
(5.92665 -1.89308 5.98173e-20)
(5.92014 -1.89277 6.62505e-20)
(5.91369 -1.8924 -1.35342e-25)
(5.9073 -1.89198 8.07739e-20)
(5.90091 -1.89149 -8.89405e-20)
(5.89458 -1.89094 -1.95534e-19)
(5.88851 -1.89036 1.07253e-19)
(5.88294 -1.88984 1.43443e-23)
(5.87781 -1.88945 6.41939e-20)
(5.87266 -1.88911 -7.00527e-20)
(5.86701 -1.88864 7.63094e-20)
(5.86149 -1.888 8.29992e-20)
(5.85795 -1.88762 -1.80243e-19)
(5.85832 -1.88817 0)
(5.86274 -1.89018 1.30865e-23)
(5.86703 -1.8931 1.1391e-19)
(5.86743 -1.89561 0)
(5.8607 -1.89643 -1.63212e-23)
(5.85294 -1.89523 7.11586e-20)
(5.86006 -1.8961 7.63399e-20)
(5.89077 -1.90229 -4.08245e-20)
(5.95696 -1.91822 0)
(6.04742 -1.94639 0)
(6.12542 -1.97861 2.44859e-23)
(6.16957 -2.00772 5.12004e-20)
(7.21816 -1.97625 1.22695e-24)
(7.22048 -1.98705 0)
(7.22258 -1.99754 -1.17986e-18)
(7.2247 -2.0078 -2.23371e-24)
(7.22665 -2.01779 -1.23956e-24)
(7.22858 -2.02756 -1.08181e-18)
(7.23054 -2.03713 -2.04802e-24)
(7.23248 -2.04649 1.01787e-18)
(7.23433 -2.05566 -9.86175e-19)
(7.23608 -2.06462 0)
(7.23773 -2.07337 0)
(7.23926 -2.08192 0)
(7.24062 -2.09027 -8.61092e-19)
(7.24177 -2.0984 -4.15074e-19)
(7.24271 -2.10633 -3.99713e-19)
(7.24346 -2.11406 0)
(7.24401 -2.12159 -3.69187e-19)
(7.24432 -2.1289 -3.54031e-19)
(7.24442 -2.13603 3.38938e-19)
(7.24429 -2.14295 -6.47745e-19)
(7.24391 -2.14967 0)
(7.24329 -2.15618 0)
(7.24246 -2.1625 0)
(7.24142 -2.16862 0)
(7.24013 -2.17455 0)
(7.23855 -2.18027 9.6134e-25)
(7.23671 -2.18578 0)
(7.23463 -2.19108 2.019e-19)
(7.23229 -2.19617 6.68191e-25)
(7.2297 -2.20106 8.47204e-20)
(7.22686 -2.20575 7.6286e-20)
(7.22376 -2.21023 -6.75944e-20)
(7.22038 -2.21449 0)
(7.21674 -2.21854 3.33061e-25)
(7.21286 -2.22238 -3.94666e-20)
(7.20873 -2.22602 2.66243e-25)
(7.20435 -2.22944 1.84659e-20)
(7.19974 -2.23265 8.0504e-27)
(7.19488 -2.23566 -4.94641e-21)
(7.18979 -2.23846 -1.77488e-20)
(7.18448 -2.24107 2.90209e-25)
(7.17894 -2.24346 2.30264e-20)
(7.17315 -2.24565 -3.08769e-20)
(7.16714 -2.24764 -5.45586e-25)
(7.16094 -2.24944 7.97454e-25)
(7.15454 -2.25105 5.81931e-20)
(7.14795 -2.25246 0)
(7.14117 -2.25369 -8.0203e-20)
(7.13422 -2.25473 -9.2582e-20)
(7.12711 -2.2556 3.06554e-25)
(7.11986 -2.2563 -6.02787e-20)
(7.11246 -2.25684 0)
(7.10495 -2.25722 7.67662e-20)
(7.09736 -2.25745 -2.54033e-24)
(7.08972 -2.25756 0)
(7.08205 -2.25755 -1.07267e-19)
(7.07435 -2.25742 -2.38517e-19)
(7.06668 -2.25719 -6.61539e-20)
(7.0591 -2.25689 2.35256e-25)
(7.05162 -2.25651 -5.05723e-24)
(7.04424 -2.25609 -1.78448e-19)
(7.0369 -2.25559 9.82089e-20)
(7.02966 -2.25503 1.07899e-19)
(7.02271 -2.25443 0)
(7.01634 -2.2539 -6.47585e-20)
(7.01047 -2.25352 -8.79606e-24)
(7.00465 -2.25321 7.71591e-20)
(6.99833 -2.25278 -8.39783e-20)
(6.99215 -2.25215 -9.13042e-20)
(6.98806 -2.25177 1.98135e-19)
(6.98821 -2.25237 5.36057e-20)
(6.99289 -2.2546 -2.7576e-25)
(6.99778 -2.25799 1.53067e-23)
(6.99872 -2.26109 0)
(6.99215 -2.2625 0)
(6.9841 -2.26152 -1.55579e-19)
(6.99133 -2.26234 0)
(7.02391 -2.26879 -2.19158e-23)
(7.0947 -2.28562 2.29461e-23)
(7.19287 -2.31632 0)
(7.28076 -2.3529 -5.27388e-20)
(7.33419 -2.38736 2.70479e-23)
(8.39197 -2.29763 1.3782e-18)
(8.39547 -2.31041 -1.3405e-18)
(8.39863 -2.32281 -2.43483e-24)
(8.40173 -2.33491 4.83242e-24)
(8.40459 -2.3467 -2.46097e-18)
(8.40742 -2.35822 1.19467e-18)
(8.41027 -2.36951 0)
(8.4131 -2.38057 -2.24759e-18)
(8.41587 -2.3914 -1.08865e-18)
(8.41856 -2.40201 -8.03989e-24)
(8.42116 -2.41238 3.98689e-24)
(8.42362 -2.42253 3.65663e-24)
(8.42587 -2.43244 -3.72288e-24)
(8.42785 -2.44209 0)
(8.42956 -2.4515 4.40885e-19)
(8.43102 -2.46066 0)
(8.43221 -2.46958 4.07111e-19)
(8.4331 -2.47826 -1.90245e-25)
(8.43371 -2.4867 -3.7366e-19)
(8.43403 -2.4949 3.57008e-19)
(8.43405 -2.50285 0)
(8.43377 -2.51056 0)
(8.43322 -2.51804 2.25278e-24)
(8.4324 -2.52529 -2.30808e-24)
(8.43126 -2.53231 0)
(8.42978 -2.53907 2.56855e-19)
(8.42797 -2.54559 1.91898e-24)
(8.42584 -2.55185 -1.72948e-24)
(8.42339 -2.55786 -2.04674e-19)
(8.42063 -2.56364 0)
(8.41754 -2.56916 -2.1514e-24)
(8.41413 -2.57444 7.44083e-20)
(8.41038 -2.57946 0)
(8.4063 -2.58422 5.41838e-20)
(8.40191 -2.58874 5.6751e-25)
(8.39721 -2.593 -5.85879e-25)
(8.3922 -2.59702 -2.03154e-20)
(8.38689 -2.60079 1.76957e-26)
(8.38128 -2.6043 -1.83056e-26)
(8.37539 -2.60758 1.95194e-20)
(8.36922 -2.61061 -4.19805e-25)
(8.36277 -2.6134 -8.87678e-25)
(8.35603 -2.61595 3.39422e-20)
(8.34901 -2.61827 4.32124e-20)
(8.34176 -2.62035 1.75262e-24)
(8.33429 -2.62221 -3.90818e-24)
(8.32659 -2.62385 2.17026e-24)
(8.31868 -2.62528 0)
(8.31057 -2.62649 -1.01654e-19)
(8.30229 -2.6275 -5.81781e-20)
(8.29385 -2.62832 6.61503e-20)
(8.28527 -2.62895 0)
(8.27658 -2.62941 -8.41975e-20)
(8.26783 -2.62971 1.15334e-23)
(8.25904 -2.62987 -1.28871e-23)
(8.25024 -2.6299 1.17536e-19)
(8.24146 -2.62981 1.30615e-19)
(8.23276 -2.62962 7.24117e-20)
(8.22417 -2.62934 -1.00463e-23)
(8.21576 -2.629 1.76993e-19)
(8.2075 -2.62861 9.75207e-20)
(8.19933 -2.62815 2.62086e-23)
(8.19131 -2.62763 -1.4078e-23)
(8.18363 -2.62707 1.60891e-23)
(8.17659 -2.62658 7.05996e-20)
(8.17014 -2.62626 0)
(8.1638 -2.62604 0)
(8.157 -2.62572 9.14028e-20)
(8.15034 -2.62517 -2.38599e-23)
(8.14583 -2.62482 2.68367e-23)
(8.14573 -2.62547 -5.81973e-20)
(8.15051 -2.6279 -1.25617e-19)
(8.15587 -2.63173 -6.76789e-20)
(8.15747 -2.63546 7.27191e-20)
(8.15145 -2.63757 3.77492e-23)
(8.14358 -2.63697 8.39502e-20)
(8.15076 -2.63777 0)
(8.18411 -2.64422 -4.79529e-20)
(8.25711 -2.66132 -6.02687e-25)
(8.35974 -2.69363 -4.22448e-25)
(8.45492 -2.73378 5.49112e-23)
(8.51677 -2.77323 0)
(9.56474 -2.61874 -5.64764e-24)
(9.56969 -2.63356 2.93723e-18)
(9.57415 -2.64793 5.33403e-24)
(9.57844 -2.66194 -1.05847e-23)
(9.58243 -2.67558 2.69475e-18)
(9.58636 -2.68891 0)
(9.59029 -2.70198 -1.26886e-18)
(9.59422 -2.71479 1.22993e-18)
(9.59815 -2.72736 1.19125e-18)
(9.60203 -2.73969 -1.15283e-18)
(9.60583 -2.75176 0)
(9.60949 -2.76358 -3.99872e-24)
(9.61289 -2.77512 2.15451e-25)
(9.61596 -2.78637 5.00527e-19)
(9.61867 -2.79732 -7.353e-24)
(9.62106 -2.80799 7.06956e-24)
(9.62312 -2.81838 -8.89524e-19)
(9.6248 -2.82847 6.5067e-24)
(9.62613 -2.83829 8.16136e-19)
(9.6271 -2.84783 -2.87227e-24)
(9.62771 -2.85708 2.02603e-25)
(9.62795 -2.86605 3.53507e-19)
(9.62786 -2.87475 -3.3532e-19)
(9.62745 -2.88318 -3.17047e-19)
(9.62664 -2.89134 0)
(9.62542 -2.8992 -2.03942e-24)
(9.62379 -2.90678 1.9616e-25)
(9.62177 -2.91405 -2.42474e-19)
(9.61936 -2.92103 2.23167e-19)
(9.61657 -2.92773 0)
(9.61336 -2.93414 -1.54186e-24)
(9.60976 -2.94026 -8.10923e-20)
(9.60574 -2.94607 7.02733e-20)
(9.60133 -2.95159 -5.90353e-20)
(9.59652 -2.95681 -4.73072e-20)
(9.59134 -2.96174 -4.28952e-25)
(9.58577 -2.96637 2.13356e-25)
(9.57984 -2.97071 2.37426e-25)
(9.57354 -2.97476 2.03806e-25)
(9.56689 -2.97852 -2.10938e-25)
(9.55991 -2.98201 -6.94627e-25)
(9.55258 -2.98521 7.19918e-25)
(9.54491 -2.98813 0)
(9.53692 -2.99078 -4.7002e-20)
(9.52865 -2.99316 0)
(9.52011 -2.99528 6.95147e-20)
(9.51131 -2.99715 0)
(9.50227 -2.99878 -3.08192e-24)
(9.49303 -3.00016 2.20869e-19)
(9.48359 -3.00132 0)
(9.47399 -3.00227 -4.5701e-24)
(9.46425 -3.00301 4.76867e-24)
(9.45442 -3.00356 9.13356e-20)
(9.44453 -3.00394 1.02371e-19)
(9.43465 -3.00417 7.20932e-24)
(9.42481 -3.00427 -1.27332e-19)
(9.41503 -3.00424 -1.72809e-23)
(9.40539 -3.00412 9.31118e-24)
(9.39594 -3.00391 1.08674e-23)
(9.38673 -3.00365 -9.56753e-20)
(9.37776 -3.00336 -1.3177e-23)
(9.36896 -3.00301 1.15862e-19)
(9.36038 -3.00259 -1.51869e-23)
(9.3522 -3.00214 0)
(9.34472 -3.00177 -7.60734e-20)
(9.33789 -3.00159 -8.29349e-20)
(9.33126 -3.00153 9.03305e-20)
(9.32424 -3.0014 -4.73981e-23)
(9.31738 -3.00102 2.55968e-23)
(9.31265 -3.00079 -2.30604e-19)
(9.31237 -3.00153 -6.22945e-20)
(9.31717 -3.00413 6.71447e-20)
(9.32292 -3.00839 7.22597e-20)
(9.32523 -3.01276 -1.55182e-19)
(9.32014 -3.01568 4.11014e-23)
(9.31293 -3.01563 -4.31058e-23)
(9.32009 -3.01646 0)
(9.35328 -3.02274 5.07295e-20)
(9.42628 -3.03956 5.36421e-20)
(9.5301 -3.07257 -5.64611e-20)
(9.62949 -3.11533 5.8222e-23)
(9.69807 -3.15915 -1.22111e-22)
(9.72158 -3.19699 -6.56777e-20)
(10.7146 -2.93356 -1.64159e-18)
(10.7212 -2.95047 -1.59595e-18)
(10.7272 -2.96684 1.55109e-18)
(10.7329 -2.98278 0)
(10.7382 -2.99829 -1.46319e-18)
(10.7434 -3.01347 1.42006e-18)
(10.7486 -3.02834 1.37733e-18)
(10.7539 -3.04293 -4.97237e-24)
(10.7592 -3.05728 5.04952e-24)
(10.7645 -3.07138 8.5764e-25)
(10.7697 -3.0852 4.72857e-24)
(10.7749 -3.09874 1.16701e-18)
(10.7797 -3.11197 -4.411e-24)
(10.7841 -3.12486 -1.08452e-18)
(10.788 -3.1374 -7.96414e-24)
(10.7916 -3.14962 7.65517e-24)
(10.7947 -3.16152 4.81474e-19)
(10.7974 -3.17307 -4.61457e-19)
(10.7996 -3.18431 -4.41558e-19)
(10.8015 -3.19523 -4.21703e-19)
(10.8029 -3.20582 0)
(10.8038 -3.21609 -3.8225e-19)
(10.8044 -3.22605 3.62505e-19)
(10.8046 -3.23571 6.48501e-24)
(10.8043 -3.24505 0)
(10.8035 -3.25406 0)
(10.8023 -3.26273 0)
(10.8005 -3.27106 -1.89216e-24)
(10.7983 -3.27905 2.11473e-25)
(10.7957 -3.28671 1.7809e-24)
(10.7925 -3.29404 -9.88053e-20)
(10.7889 -3.30103 1.44191e-24)
(10.7848 -3.30768 -7.58185e-20)
(10.7802 -3.31398 0)
(10.7751 -3.31994 1.02037e-19)
(10.7696 -3.32555 4.6249e-25)
(10.7636 -3.33083 -4.77614e-25)
(10.7571 -3.33577 0)
(10.7502 -3.34038 6.39047e-21)
(10.7429 -3.34465 2.27308e-25)
(10.7352 -3.3486 0)
(10.7271 -3.35223 0)
(10.7186 -3.35554 -1.35337e-24)
(10.7097 -3.35853 -5.05955e-20)
(10.7005 -3.36123 0)
(10.6909 -3.36362 -7.47888e-20)
(10.6811 -3.36573 -3.23098e-25)
(10.671 -3.36756 -1.02912e-19)
(10.6606 -3.36913 -1.18696e-19)
(10.6501 -3.37045 6.78923e-20)
(10.6394 -3.37153 -4.51767e-24)
(10.6286 -3.3724 0)
(10.6177 -3.37306 -9.8013e-20)
(10.6067 -3.37354 -1.09788e-19)
(10.5959 -3.37387 0)
(10.5851 -3.37406 0)
(10.5744 -3.37414 0)
(10.564 -3.37413 8.38776e-20)
(10.5539 -3.37405 -9.26911e-20)
(10.5441 -3.37393 0)
(10.5346 -3.3738 0)
(10.5254 -3.37363 -2.47067e-19)
(10.5166 -3.37341 -1.35423e-19)
(10.5082 -3.37317 -3.61837e-23)
(10.5006 -3.37301 8.08933e-20)
(10.4937 -3.37305 1.76228e-19)
(10.4871 -3.37326 -9.58119e-20)
(10.4802 -3.37342 -2.08001e-19)
(10.4734 -3.37332 5.50267e-23)
(10.4688 -3.37332 2.43713e-19)
(10.4685 -3.37421 6.57115e-20)
(10.4733 -3.37701 7.07886e-20)
(10.4795 -3.38169 -7.60238e-20)
(10.4826 -3.38672 1.62968e-19)
(10.4787 -3.39054 -4.30965e-23)
(10.4726 -3.39119 4.5121e-23)
(10.48 -3.39217 0)
(10.5124 -3.39818 5.20196e-23)
(10.5836 -3.41433 -5.59089e-20)
(10.6857 -3.44726 -1.52475e-24)
(10.7861 -3.49166 6.14643e-20)
(10.8592 -3.53901 -6.45085e-20)
(10.8893 -3.58166 -8.0584e-23)
(11.8208 -3.23646 2.15684e-23)
(11.8293 -3.25544 1.72271e-18)
(11.837 -3.2738 -7.77537e-24)
(11.8443 -3.29166 0)
(11.8511 -3.30905 1.57811e-18)
(11.8578 -3.32606 -3.06242e-18)
(11.8645 -3.34273 -1.48475e-18)
(11.8712 -3.35912 1.12323e-23)
(11.8781 -3.37525 1.39235e-18)
(11.8851 -3.39113 1.3466e-18)
(11.892 -3.40673 0)
(11.8989 -3.42201 -1.25581e-18)
(11.9053 -3.43695 0)
(11.9113 -3.4515 1.16622e-18)
(11.9167 -3.46566 8.31377e-24)
(11.9216 -3.47944 -8.47201e-24)
(11.926 -3.49286 5.1724e-19)
(11.9299 -3.5059 4.95598e-19)
(11.9333 -3.51858 -4.79013e-25)
(11.9361 -3.5309 4.52624e-19)
(11.9385 -3.54286 4.31278e-19)
(11.9404 -3.55445 6.4906e-24)
(11.9418 -3.56569 0)
(11.9428 -3.5766 7.34783e-19)
(11.9433 -3.58715 3.45944e-19)
(11.9432 -3.59733 3.24358e-19)
(11.9425 -3.60713 4.38959e-24)
(11.9413 -3.61654 -2.80434e-19)
(11.9395 -3.62557 0)
(11.9372 -3.63423 1.17498e-19)
(11.9343 -3.64251 3.45383e-24)
(11.9308 -3.65041 0)
(11.9268 -3.65792 0)
(11.9221 -3.66503 1.84242e-24)
(11.917 -3.67176 -5.45418e-20)
(11.9113 -3.6781 -4.03662e-20)
(11.905 -3.68405 2.54763e-20)
(11.8982 -3.68962 0)
(11.8909 -3.6948 -6.82531e-21)
(11.8831 -3.69961 0)
(11.8748 -3.70405 0)
(11.8661 -3.70813 3.16649e-20)
(11.8568 -3.71184 -4.2421e-20)
(11.8472 -3.7152 5.39625e-20)
(11.8371 -3.71822 0)
(11.8266 -3.7209 0)
(11.8159 -3.72327 -9.40958e-20)
(11.8048 -3.72532 1.09607e-19)
(11.7934 -3.72708 8.09908e-24)
(11.7819 -3.72857 -7.22489e-20)
(11.7702 -3.72981 -1.04412e-23)
(11.7583 -3.73081 -9.2629e-20)
(11.7465 -3.7316 -2.5449e-23)
(11.7346 -3.7322 -9.68902e-25)
(11.7229 -3.73265 -1.02163e-24)
(11.7113 -3.73298 1.71342e-23)
(11.6999 -3.7332 -1.60447e-19)
(11.6889 -3.73335 -8.87897e-20)
(11.6783 -3.73346 9.80122e-20)
(11.6682 -3.73355 -1.08009e-19)
(11.6585 -3.73365 1.1875e-19)
(11.6492 -3.73376 -1.49185e-24)
(11.6404 -3.73383 1.42621e-19)
(11.6322 -3.7339 1.55916e-19)
(11.6248 -3.73406 -4.23102e-23)
(11.6182 -3.73445 -7.20705e-25)
(11.6119 -3.73503 4.81943e-23)
(11.6055 -3.73561 1.08861e-19)
(11.5994 -3.73592 -1.14975e-22)
(11.5952 -3.73627 -1.26976e-19)
(11.5952 -3.73742 -6.85244e-20)
(11.6002 -3.74047 5.88844e-25)
(11.6067 -3.7456 7.79131e-23)
(11.6107 -3.7513 -7.94271e-23)
(11.6084 -3.75608 0)
(11.6039 -3.75757 -9.63459e-20)
(11.6117 -3.75885 0)
(11.6431 -3.76461 1.06734e-22)
(11.7113 -3.77987 -2.22686e-22)
(11.8095 -3.81215 5.97814e-20)
(11.9082 -3.85735 1.29628e-22)
(11.983 -3.9073 6.56238e-20)
(12.018 -3.954 1.16556e-22)