/*--------------------------------*- C++ -*----------------------------------*\
| =========                 |                                                 |
| \\      /  F ield         | OpenFOAM: The Open Source CFD Toolbox           |
|  \\    /   O peration     | Version:  2412                                  |
|   \\  /    A nd           | Website:  www.openfoam.com                      |
|    \\/     M anipulation  |                                                 |
\*---------------------------------------------------------------------------*/
FoamFile
{
    version     2.0;
    format      ascii;
    arch        "LSB;label=32;scalar=64";
    class       volScalarField;
    location    "100";
    object      nuTilda;
}
// * * * * * * * * * * * * * * * * * * * * * * * * * * * * * * * * * * * * * //

dimensions      [0 2 -1 0 0 0 0];

internalField   nonuniform List<scalar> 
7421
(
1.89557e-06
1.89991e-06
1.90437e-06
1.90898e-06
1.91376e-06
1.91864e-06
1.9236e-06
1.92866e-06
1.93379e-06
1.93896e-06
1.94419e-06
1.94946e-06
1.95477e-06
1.96009e-06
1.96539e-06
1.9707e-06
1.97596e-06
1.98121e-06
1.98634e-06
1.99137e-06
1.99633e-06
2.00116e-06
2.00584e-06
2.01037e-06
2.01464e-06
2.0187e-06
2.02256e-06
2.02617e-06
2.02955e-06
2.03269e-06
2.03577e-06
2.03885e-06
2.04216e-06
2.04591e-06
2.05061e-06
2.05683e-06
2.06549e-06
2.07783e-06
2.09501e-06
2.11676e-06
2.13817e-06
2.15061e-06
2.15382e-06
2.15595e-06
2.1601e-06
2.16546e-06
2.17114e-06
2.17685e-06
2.18254e-06
2.18823e-06
2.19397e-06
2.19974e-06
2.20555e-06
2.21147e-06
2.21744e-06
2.22348e-06
2.22959e-06
2.23581e-06
2.24275e-06
2.07183e-06
2.07521e-06
2.0787e-06
2.08223e-06
2.0858e-06
2.0894e-06
2.09304e-06
2.09667e-06
2.10035e-06
2.10406e-06
2.10778e-06
2.1115e-06
2.11523e-06
2.11895e-06
2.12268e-06
5.936e-06
5.94944e-06
5.96321e-06
5.9775e-06
5.99229e-06
6.00736e-06
6.0227e-06
6.03827e-06
6.05408e-06
6.07002e-06
6.08612e-06
6.10228e-06
6.11851e-06
6.13475e-06
6.15085e-06
6.16689e-06
6.1827e-06
6.19832e-06
6.21351e-06
6.22827e-06
6.24254e-06
6.2562e-06
6.2691e-06
6.28121e-06
6.29227e-06
6.30229e-06
6.31127e-06
6.31916e-06
6.32609e-06
6.33199e-06
6.33756e-06
6.34323e-06
6.35015e-06
6.35947e-06
6.37337e-06
6.39471e-06
6.42804e-06
6.4796e-06
6.55599e-06
6.65819e-06
6.76717e-06
6.8429e-06
6.87275e-06
6.88548e-06
6.89968e-06
6.9172e-06
6.93634e-06
6.95595e-06
6.97568e-06
6.99548e-06
7.01539e-06
7.0354e-06
7.05558e-06
7.07601e-06
7.09663e-06
7.11753e-06
7.13869e-06
7.16013e-06
7.18313e-06
6.26238e-06
6.26948e-06
6.27692e-06
6.28449e-06
6.29213e-06
6.29978e-06
6.30744e-06
6.31506e-06
6.32276e-06
6.33044e-06
6.33812e-06
6.34577e-06
6.3534e-06
6.36092e-06
6.36845e-06
1.05045e-05
1.05279e-05
1.05519e-05
1.05769e-05
1.06027e-05
1.06289e-05
1.06557e-05
1.06828e-05
1.07102e-05
1.0738e-05
1.0766e-05
1.0794e-05
1.08222e-05
1.08502e-05
1.0878e-05
1.09055e-05
1.09325e-05
1.0959e-05
1.09846e-05
1.10093e-05
1.10329e-05
1.1055e-05
1.10755e-05
1.10942e-05
1.11107e-05
1.11249e-05
1.11367e-05
1.11461e-05
1.11535e-05
1.11588e-05
1.11634e-05
1.11683e-05
1.11761e-05
1.11895e-05
1.12133e-05
1.12537e-05
1.13211e-05
1.14291e-05
1.15924e-05
1.18132e-05
1.2051e-05
1.22206e-05
1.22914e-05
1.23198e-05
1.23464e-05
1.23779e-05
1.24124e-05
1.24479e-05
1.24838e-05
1.25198e-05
1.25559e-05
1.25922e-05
1.26288e-05
1.26658e-05
1.27031e-05
1.27408e-05
1.27791e-05
1.28177e-05
1.28575e-05
1.07742e-05
1.07833e-05
1.07931e-05
1.08032e-05
1.08133e-05
1.08234e-05
1.08335e-05
1.08436e-05
1.08538e-05
1.08639e-05
1.08741e-05
1.08842e-05
1.08943e-05
1.09043e-05
1.09142e-05
1.56635e-05
1.56977e-05
1.57329e-05
1.57695e-05
1.58072e-05
1.58457e-05
1.58849e-05
1.59246e-05
1.59649e-05
1.60056e-05
1.60466e-05
1.60877e-05
1.61289e-05
1.61698e-05
1.62103e-05
1.62504e-05
1.62896e-05
1.63279e-05
1.63646e-05
1.63999e-05
1.64332e-05
1.64642e-05
1.64925e-05
1.65176e-05
1.65393e-05
1.65571e-05
1.65709e-05
1.65808e-05
1.65873e-05
1.65905e-05
1.65926e-05
1.65953e-05
1.6603e-05
1.66204e-05
1.66553e-05
1.67185e-05
1.68269e-05
1.7003e-05
1.72702e-05
1.76311e-05
1.80199e-05
1.83029e-05
1.84288e-05
1.848e-05
1.8522e-05
1.85693e-05
1.86206e-05
1.86736e-05
1.87271e-05
1.87808e-05
1.88347e-05
1.88888e-05
1.89433e-05
1.89984e-05
1.9054e-05
1.91101e-05
1.91669e-05
1.92243e-05
1.92803e-05
1.57738e-05
1.57868e-05
1.5801e-05
1.58157e-05
1.58306e-05
1.58457e-05
1.58609e-05
1.58764e-05
1.58921e-05
1.59079e-05
1.5924e-05
1.59403e-05
1.59567e-05
1.59731e-05
1.59899e-05
2.14796e-05
2.15255e-05
2.1573e-05
2.16223e-05
2.16731e-05
2.17249e-05
2.17777e-05
2.18314e-05
2.18859e-05
2.1941e-05
2.19964e-05
2.2052e-05
2.21077e-05
2.21631e-05
2.2218e-05
2.22723e-05
2.23253e-05
2.23771e-05
2.24269e-05
2.24746e-05
2.25196e-05
2.25615e-05
2.25997e-05
2.26337e-05
2.26628e-05
2.26868e-05
2.27055e-05
2.27187e-05
2.27275e-05
2.2732e-05
2.2735e-05
2.27391e-05
2.27502e-05
2.27747e-05
2.28233e-05
2.29107e-05
2.30595e-05
2.32997e-05
2.36619e-05
2.41493e-05
2.46803e-05
2.50859e-05
2.52872e-05
2.53745e-05
2.54371e-05
2.5502e-05
2.55713e-05
2.56429e-05
2.57154e-05
2.57883e-05
2.58615e-05
2.59351e-05
2.60091e-05
2.60838e-05
2.61591e-05
2.62353e-05
2.63123e-05
2.63897e-05
2.64603e-05
2.1615e-05
2.16398e-05
2.16664e-05
2.16939e-05
2.1722e-05
2.17508e-05
2.17802e-05
2.18104e-05
2.18411e-05
2.18726e-05
2.19048e-05
2.19377e-05
2.19711e-05
2.20052e-05
2.20399e-05
2.8024e-05
2.80826e-05
2.81436e-05
2.82068e-05
2.82719e-05
2.83385e-05
2.84064e-05
2.84757e-05
2.8546e-05
2.86172e-05
2.8689e-05
2.87612e-05
2.88335e-05
2.89057e-05
2.89774e-05
2.90484e-05
2.91181e-05
2.91864e-05
2.92526e-05
2.93164e-05
2.93772e-05
2.94344e-05
2.94875e-05
2.95358e-05
2.95787e-05
2.96159e-05
2.96472e-05
2.96725e-05
2.96929e-05
2.97085e-05
2.97228e-05
2.97385e-05
2.97622e-05
2.98012e-05
2.98672e-05
2.99766e-05
3.01542e-05
3.0433e-05
3.08472e-05
3.14049e-05
3.20288e-05
3.25429e-05
3.2835e-05
3.29741e-05
3.30641e-05
3.31487e-05
3.32364e-05
3.3327e-05
3.34192e-05
3.35121e-05
3.36053e-05
3.36991e-05
3.37934e-05
3.38885e-05
3.39843e-05
3.40812e-05
3.41789e-05
3.42769e-05
3.43599e-05
2.87546e-05
2.88008e-05
2.88491e-05
2.88987e-05
2.89494e-05
2.90013e-05
2.90543e-05
2.91083e-05
2.91634e-05
2.92197e-05
2.9277e-05
2.93353e-05
2.93946e-05
2.94548e-05
2.95158e-05
3.53046e-05
3.53722e-05
3.54448e-05
3.55206e-05
3.55991e-05
3.56802e-05
3.57632e-05
3.58482e-05
3.5935e-05
3.60233e-05
3.61129e-05
3.62035e-05
3.62948e-05
3.63866e-05
3.64786e-05
3.65704e-05
3.66617e-05
3.6752e-05
3.68411e-05
3.69282e-05
3.70132e-05
3.70955e-05
3.71745e-05
3.72496e-05
3.73202e-05
3.73859e-05
3.74463e-05
3.75014e-05
3.7551e-05
3.75962e-05
3.76373e-05
3.76773e-05
3.77187e-05
3.77676e-05
3.78305e-05
3.79179e-05
3.80446e-05
3.82329e-05
3.85126e-05
3.89169e-05
3.94602e-05
4.00886e-05
4.06506e-05
4.10143e-05
4.12076e-05
4.1329e-05
4.14344e-05
4.15403e-05
4.16492e-05
4.17601e-05
4.18721e-05
4.19846e-05
4.20979e-05
4.22117e-05
4.23264e-05
4.24419e-05
4.25585e-05
4.26761e-05
4.27938e-05
4.28881e-05
3.75612e-05
3.7638e-05
3.77171e-05
3.77979e-05
3.78803e-05
3.79641e-05
3.80494e-05
3.81361e-05
3.82244e-05
3.83141e-05
3.84052e-05
3.84977e-05
3.85913e-05
3.86861e-05
3.87819e-05
4.35128e-05
4.35984e-05
4.36866e-05
4.37789e-05
4.38747e-05
4.39736e-05
4.40752e-05
4.41794e-05
4.42863e-05
4.43952e-05
4.45059e-05
4.46183e-05
4.47319e-05
4.48465e-05
4.49618e-05
4.50775e-05
4.5193e-05
4.53081e-05
4.54224e-05
4.55356e-05
4.56471e-05
4.57566e-05
4.58636e-05
4.59677e-05
4.60683e-05
4.6165e-05
4.62577e-05
4.63462e-05
4.64307e-05
4.65117e-05
4.65897e-05
4.66668e-05
4.67451e-05
4.68288e-05
4.69229e-05
4.70352e-05
4.71764e-05
4.73631e-05
4.76178e-05
4.79667e-05
4.8426e-05
4.89663e-05
4.94806e-05
4.98512e-05
5.00729e-05
5.02199e-05
5.03458e-05
5.04699e-05
5.05965e-05
5.0725e-05
5.08549e-05
5.09855e-05
5.11169e-05
5.1249e-05
5.13822e-05
5.15162e-05
5.16515e-05
5.17879e-05
5.19243e-05
5.20336e-05
4.80248e-05
4.81406e-05
4.82583e-05
4.83779e-05
4.84994e-05
4.86227e-05
4.87479e-05
4.8875e-05
4.9004e-05
4.91349e-05
4.92674e-05
4.94016e-05
4.95372e-05
4.96741e-05
4.98122e-05
5.26415e-05
5.27465e-05
5.2852e-05
5.29629e-05
5.3078e-05
5.31968e-05
5.33194e-05
5.34454e-05
5.35749e-05
5.37072e-05
5.3842e-05
5.39792e-05
5.41183e-05
5.42589e-05
5.44009e-05
5.45439e-05
5.46872e-05
5.48309e-05
5.49743e-05
5.51175e-05
5.52594e-05
5.54004e-05
5.55397e-05
5.5677e-05
5.5812e-05
5.59442e-05
5.60737e-05
5.62004e-05
5.63242e-05
5.64455e-05
5.65647e-05
5.6683e-05
5.68019e-05
5.69239e-05
5.70522e-05
5.71919e-05
5.73498e-05
5.75363e-05
5.77658e-05
5.80555e-05
5.84168e-05
5.88344e-05
5.92425e-05
5.95614e-05
5.97791e-05
5.99422e-05
6.00889e-05
6.02336e-05
6.03803e-05
6.05284e-05
6.06779e-05
6.08281e-05
6.09793e-05
6.11314e-05
6.12848e-05
6.14392e-05
6.15951e-05
6.17522e-05
6.19097e-05
6.20438e-05
5.9574e-05
5.97269e-05
5.98811e-05
6.00374e-05
6.01958e-05
6.03564e-05
6.05191e-05
6.0684e-05
6.08512e-05
6.10204e-05
6.11916e-05
6.13646e-05
6.15392e-05
6.17153e-05
6.18928e-05
6.26483e-05
6.27727e-05
6.28978e-05
6.30293e-05
6.31658e-05
6.33069e-05
6.34527e-05
6.36031e-05
6.37579e-05
6.39161e-05
6.40778e-05
6.42426e-05
6.441e-05
6.45796e-05
6.47512e-05
6.49244e-05
6.50985e-05
6.52737e-05
6.5449e-05
6.56248e-05
6.58e-05
6.59749e-05
6.61488e-05
6.63215e-05
6.64926e-05
6.6662e-05
6.68295e-05
6.6995e-05
6.71587e-05
6.73203e-05
6.74804e-05
6.76393e-05
6.77984e-05
6.79585e-05
6.8122e-05
6.82917e-05
6.84715e-05
6.86675e-05
6.88879e-05
6.91425e-05
6.94374e-05
6.9763e-05
7.00814e-05
7.0348e-05
7.05574e-05
7.07363e-05
7.09067e-05
7.10762e-05
7.12474e-05
7.14196e-05
7.1593e-05
7.17672e-05
7.19426e-05
7.21191e-05
7.2297e-05
7.24763e-05
7.26573e-05
7.28398e-05
7.30232e-05
7.31902e-05
7.18861e-05
7.20735e-05
7.22622e-05
7.2453e-05
7.26462e-05
7.28418e-05
7.30399e-05
7.32404e-05
7.34435e-05
7.36489e-05
7.38564e-05
7.40661e-05
7.42776e-05
7.44908e-05
7.47056e-05
7.34052e-05
7.35509e-05
7.36983e-05
7.38532e-05
7.40139e-05
7.41804e-05
7.43525e-05
7.45304e-05
7.47137e-05
7.49012e-05
7.50931e-05
7.52888e-05
7.54879e-05
7.569e-05
7.58946e-05
7.61016e-05
7.63099e-05
7.652e-05
7.67306e-05
7.69424e-05
7.71539e-05
7.73657e-05
7.7577e-05
7.77876e-05
7.79972e-05
7.82055e-05
7.84125e-05
7.86182e-05
7.88225e-05
7.9025e-05
7.92263e-05
7.94261e-05
7.96256e-05
7.98249e-05
8.00254e-05
8.02289e-05
8.04374e-05
8.06542e-05
8.08839e-05
8.11314e-05
8.13993e-05
8.1681e-05
8.19549e-05
8.21992e-05
8.24144e-05
8.26157e-05
8.28142e-05
8.3013e-05
8.32134e-05
8.34146e-05
8.36171e-05
8.38203e-05
8.4025e-05
8.42308e-05
8.44384e-05
8.46474e-05
8.48586e-05
8.50714e-05
8.52858e-05
8.54902e-05
8.49133e-05
8.51354e-05
8.53591e-05
8.55851e-05
8.58138e-05
8.60452e-05
8.62794e-05
8.65163e-05
8.67561e-05
8.69985e-05
8.72433e-05
8.74904e-05
8.77397e-05
8.79909e-05
8.82441e-05
8.47971e-05
8.49678e-05
8.51418e-05
8.53243e-05
8.55137e-05
8.57099e-05
8.59131e-05
8.61231e-05
8.63396e-05
8.65613e-05
8.67884e-05
8.70201e-05
8.7256e-05
8.74956e-05
8.77386e-05
8.79845e-05
8.82323e-05
8.84825e-05
8.87337e-05
8.89866e-05
8.92397e-05
8.94934e-05
8.97471e-05
9.00004e-05
9.0253e-05
9.05048e-05
9.07556e-05
9.10054e-05
9.12541e-05
9.15009e-05
9.17467e-05
9.19908e-05
9.22342e-05
9.24764e-05
9.27187e-05
9.29618e-05
9.32069e-05
9.34557e-05
9.37106e-05
9.39739e-05
9.42463e-05
9.4523e-05
9.47918e-05
9.50429e-05
9.52803e-05
9.55126e-05
9.57453e-05
9.59791e-05
9.62145e-05
9.64507e-05
9.66882e-05
9.69266e-05
9.71665e-05
9.74077e-05
9.76508e-05
9.78955e-05
9.81426e-05
9.83915e-05
9.86428e-05
9.8889e-05
9.87345e-05
9.89944e-05
9.92566e-05
9.95214e-05
9.97891e-05
0.00010006
0.000100334
0.000100611
0.000100891
0.000101173
0.000101459
0.000101747
0.000102038
0.000102331
0.000102626
9.67726e-05
9.69738e-05
9.71802e-05
9.73961e-05
9.76201e-05
9.78523e-05
9.80928e-05
9.83415e-05
9.85977e-05
9.88602e-05
9.91291e-05
9.94036e-05
9.96833e-05
9.99676e-05
0.000100256
0.000100548
0.000100842
0.00010114
0.000101439
0.000101741
0.000102043
0.000102346
0.000102649
0.000102952
0.000103255
0.000103557
0.000103859
0.000104159
0.000104459
0.000104757
0.000105054
0.000105349
0.000105642
0.000105934
0.000106225
0.000106516
0.000106807
0.000107098
0.000107392
0.000107689
0.00010799
0.000108289
0.000108581
0.000108861
0.000109135
0.000109408
0.000109683
0.000109959
0.000110236
0.000110515
0.000110795
0.000111075
0.000111358
0.000111642
0.000111927
0.000112215
0.000112505
0.000112797
0.000113092
0.000113386
0.000113478
0.000113781
0.000114087
0.000114396
0.000114708
0.000115024
0.000115343
0.000115665
0.000115991
0.00011632
0.000116652
0.000116987
0.000117324
0.000117664
0.000118007
0.00010933
0.000109568
0.000109814
0.000110071
0.000110337
0.000110613
0.000110898
0.000111193
0.000111497
0.000111809
0.000112128
0.000112454
0.000112786
0.000113123
0.000113466
0.000113813
0.000114163
0.000114517
0.000114873
0.000115232
0.000115592
0.000115953
0.000116316
0.000116678
0.00011704
0.000117402
0.000117764
0.000118124
0.000118484
0.000118842
0.000119198
0.000119552
0.000119905
0.000120256
0.000120605
0.000120953
0.000121299
0.000121645
0.000121991
0.000122337
0.000122682
0.000123025
0.00012336
0.000123687
0.000124011
0.000124335
0.000124661
0.000124987
0.000125316
0.000125646
0.000125976
0.000126308
0.000126641
0.000126975
0.000127312
0.000127651
0.000127992
0.000128335
0.000128682
0.00012903
0.000129277
0.00012963
0.000129987
0.000130348
0.000130711
0.000131079
0.00013145
0.000131824
0.000132203
0.000132584
0.000132969
0.000133357
0.000133748
0.000134141
0.000134538
0.000122492
0.000122776
0.00012307
0.000123375
0.000123692
0.00012402
0.00012436
0.000124711
0.000125072
0.000125442
0.00012582
0.000126207
0.000126601
0.000127002
0.000127409
0.000127821
0.000128237
0.000128658
0.000129082
0.000129509
0.000129937
0.000130368
0.0001308
0.000131232
0.000131665
0.000132097
0.000132529
0.00013296
0.000133391
0.000133819
0.000134246
0.00013467
0.000135093
0.000135513
0.000135931
0.000136347
0.00013676
0.000137172
0.000137582
0.000137991
0.000138397
0.000138799
0.000139194
0.000139582
0.000139968
0.000140354
0.000140741
0.000141129
0.000141519
0.000141909
0.0001423
0.000142692
0.000143086
0.00014348
0.000143877
0.000144276
0.000144677
0.000145081
0.000145489
0.000145899
0.000146257
0.000146668
0.000147085
0.000147504
0.000147928
0.000148355
0.000148785
0.00014922
0.000149658
0.0001501
0.000150544
0.000150993
0.000151444
0.000151898
0.000152355
0.000136292
0.000136632
0.000136983
0.000137347
0.000137724
0.000138115
0.000138519
0.000138935
0.000139364
0.000139803
0.000140252
0.00014071
0.000141178
0.000141653
0.000142135
0.000142624
0.000143118
0.000143617
0.00014412
0.000144627
0.000145136
0.000145648
0.000146162
0.000146676
0.000147191
0.000147705
0.00014822
0.000148734
0.000149248
0.000149759
0.000150268
0.000150775
0.000151279
0.00015178
0.000152279
0.000152775
0.000153268
0.000153758
0.000154245
0.00015473
0.000155211
0.000155687
0.000156156
0.00015662
0.00015708
0.00015754
0.000158
0.000158461
0.000158922
0.000159384
0.000159846
0.000160309
0.000160774
0.000161239
0.000161706
0.000162175
0.000162647
0.000163121
0.0001636
0.000164081
0.000164533
0.000165011
0.000165495
0.000165983
0.000166474
0.000166969
0.000167468
0.000167971
0.000168477
0.000168986
0.000169499
0.000170014
0.000170533
0.000171054
0.000171578
0.000150771
0.000151176
0.000151594
0.000152028
0.000152476
0.00015294
0.00015342
0.000153914
0.000154421
0.00015494
0.000155472
0.000156014
0.000156567
0.000157129
0.000157699
0.000158277
0.000158861
0.000159451
0.000160046
0.000160646
0.000161249
0.000161855
0.000162464
0.000163073
0.000163683
0.000164294
0.000164905
0.000165515
0.000166125
0.000166732
0.000167337
0.000167939
0.000168538
0.000169134
0.000169727
0.000170316
0.000170901
0.000171483
0.000172061
0.000172635
0.000173205
0.000173769
0.000174327
0.000174879
0.000175427
0.000175974
0.000176519
0.000177064
0.00017761
0.000178155
0.000178701
0.000179246
0.000179793
0.00018034
0.000180889
0.000181439
0.000181991
0.000182546
0.000183106
0.000183669
0.000184211
0.000184765
0.000185327
0.000185892
0.000186461
0.000187032
0.000187608
0.000188186
0.000188769
0.000189354
0.000189941
0.000190531
0.000191124
0.000191719
0.000192317
0.000165971
0.000166453
0.00016695
0.000167464
0.000167996
0.000168546
0.000169113
0.000169697
0.000170295
0.000170908
0.000171535
0.000172174
0.000172825
0.000173487
0.000174159
0.000174839
0.000175527
0.000176223
0.000176924
0.000177631
0.000178341
0.000179056
0.000179773
0.000180492
0.000181212
0.000181933
0.000182654
0.000183375
0.000184095
0.000184812
0.000185527
0.000186239
0.000186948
0.000187652
0.000188353
0.000189049
0.000189741
0.000190429
0.000191112
0.00019179
0.000192463
0.00019313
0.00019379
0.000194444
0.000195093
0.00019574
0.000196384
0.000197027
0.00019767
0.000198311
0.000198952
0.000199593
0.000200234
0.000200875
0.000201517
0.00020216
0.000202805
0.000203451
0.000204103
0.000204757
0.000205392
0.000206034
0.000206683
0.000207335
0.000207989
0.000208647
0.000209307
0.00020997
0.000210636
0.000211304
0.000211974
0.000212645
0.000213318
0.000213993
0.000214669
0.000181943
0.000182514
0.000183102
0.00018371
0.000184338
0.000184987
0.000185655
0.000186342
0.000187046
0.000187767
0.000188503
0.000189253
0.000190017
0.000190793
0.00019158
0.000192378
0.000193185
0.000194
0.000194822
0.000195651
0.000196484
0.000197322
0.000198163
0.000199007
0.000199852
0.000200699
0.000201546
0.000202392
0.000203238
0.00020408
0.000204921
0.000205757
0.00020659
0.000207418
0.000208242
0.000209061
0.000209874
0.000210682
0.000211485
0.000212281
0.000213072
0.000213857
0.000214634
0.000215404
0.000216169
0.000216929
0.000217686
0.000218441
0.000219194
0.000219945
0.000220695
0.000221444
0.000222192
0.00022294
0.000223687
0.000224434
0.000225182
0.000225932
0.000226687
0.000227442
0.000228178
0.000228917
0.000229663
0.000230411
0.00023116
0.000231912
0.000232665
0.00023342
0.000234177
0.000234934
0.000235692
0.000236449
0.000237207
0.000237965
0.000238722
0.000198746
0.00019942
0.000200114
0.00020083
0.000201569
0.000202331
0.000203115
0.000203919
0.000204744
0.000205586
0.000206446
0.000207323
0.000208215
0.000209121
0.00021004
0.000210971
0.000211912
0.000212862
0.000213821
0.000214788
0.00021576
0.000216737
0.000217719
0.000218703
0.000219689
0.000220677
0.000221666
0.000222654
0.000223641
0.000224625
0.000225606
0.000226583
0.000227556
0.000228524
0.000229486
0.000230443
0.000231393
0.000232337
0.000233275
0.000234205
0.000235129
0.000236046
0.000236954
0.000237855
0.00023875
0.000239639
0.000240523
0.000241404
0.000242282
0.000243156
0.000244028
0.000244898
0.000245766
0.000246632
0.000247497
0.000248361
0.000249224
0.000250088
0.000250956
0.000251821
0.000252667
0.000253514
0.000254365
0.000255217
0.00025607
0.000256923
0.000257776
0.000258629
0.000259482
0.000260333
0.000261182
0.000262029
0.000262874
0.000263716
0.000264554
0.000216458
0.00021725
0.000218064
0.000218903
0.000219768
0.000220658
0.000221574
0.000222512
0.000223472
0.000224453
0.000225454
0.000226473
0.00022751
0.000228562
0.000229629
0.000230709
0.000231801
0.000232904
0.000234016
0.000235137
0.000236265
0.000237398
0.000238536
0.000239678
0.000240822
0.000241968
0.000243115
0.000244262
0.000245407
0.000246548
0.000247687
0.000248821
0.00024995
0.000251073
0.00025219
0.0002533
0.000254403
0.000255499
0.000256587
0.000257667
0.000258739
0.000259803
0.000260858
0.000261904
0.000262943
0.000263975
0.000265
0.000266021
0.000267037
0.000268048
0.000269055
0.000270059
0.000271059
0.000272056
0.00027305
0.000274042
0.000275031
0.00027602
0.00027701
0.000277995
0.000278959
0.000279921
0.000280886
0.00028185
0.000282811
0.000283771
0.000284729
0.000285683
0.000286635
0.000287581
0.000288523
0.000289459
0.000290389
0.000291312
0.000292227
0.000235175
0.000236101
0.000237052
0.00023803
0.000239037
0.000240073
0.000241136
0.000242226
0.000243339
0.000244475
0.000245633
0.000246812
0.00024801
0.000249226
0.000250458
0.000251705
0.000252965
0.000254238
0.000255521
0.000256813
0.000258113
0.00025942
0.000260732
0.000262048
0.000263367
0.000264689
0.000266011
0.000267332
0.000268652
0.000269968
0.00027128
0.000272587
0.000273888
0.000275183
0.00027647
0.00027775
0.000279021
0.000280284
0.000281538
0.000282782
0.000284018
0.000285243
0.000286459
0.000287665
0.000288863
0.000290051
0.000291231
0.000292405
0.000293572
0.000294733
0.000295888
0.000297037
0.000298181
0.00029932
0.000300454
0.000301583
0.000302707
0.000303829
0.000304949
0.00030606
0.000307149
0.000308233
0.000309317
0.000310396
0.00031147
0.000312538
0.000313602
0.000314658
0.000315707
0.000316746
0.000317776
0.000318796
0.000319804
0.0003208
0.000321781
0.000255019
0.000256096
0.000257201
0.000258337
0.000259504
0.000260703
0.000261932
0.00026319
0.000264474
0.000265784
0.000267117
0.000268474
0.000269851
0.000271248
0.000272663
0.000274095
0.000275541
0.000277001
0.000278472
0.000279954
0.000281444
0.000282941
0.000284444
0.000285952
0.000287463
0.000288976
0.00029049
0.000292003
0.000293513
0.00029502
0.000296522
0.000298018
0.000299507
0.000300988
0.000302462
0.000303926
0.00030538
0.000306824
0.000308259
0.000309682
0.000311095
0.000312496
0.000313886
0.000315265
0.000316633
0.00031799
0.000319338
0.000320676
0.000322006
0.000323327
0.00032464
0.000325945
0.000327242
0.000328532
0.000329813
0.000331087
0.000332353
0.000333613
0.000334868
0.00033611
0.000337327
0.000338535
0.000339738
0.000340933
0.000342118
0.000343294
0.000344458
0.000345611
0.00034675
0.000347875
0.000348983
0.000350074
0.000351145
0.000352197
0.000353225
0.000276148
0.000277395
0.000278672
0.000279983
0.000281329
0.00028271
0.000284124
0.000285568
0.000287041
0.000288543
0.00029007
0.000291623
0.000293198
0.000294794
0.00029641
0.000298044
0.000299694
0.000301358
0.000303035
0.000304723
0.00030642
0.000308125
0.000309836
0.000311551
0.000313271
0.000314992
0.000316713
0.000318433
0.000320149
0.000321861
0.000323567
0.000325267
0.000326958
0.000328641
0.000330313
0.000331976
0.000333626
0.000335266
0.000336893
0.000338507
0.000340109
0.000341698
0.000343274
0.000344836
0.000346386
0.000347922
0.000349446
0.000350959
0.00035246
0.00035395
0.000355428
0.000356895
0.000358351
0.000359796
0.000361229
0.000362651
0.000364062
0.000365462
0.000366852
0.000368223
0.000369566
0.000370896
0.000372215
0.00037352
0.000374809
0.000376082
0.000377337
0.000378574
0.000379789
0.00038098
0.000382147
0.000383288
0.000384399
0.000385479
0.000386524
0.000298756
0.000300192
0.000301661
0.000303167
0.000304711
0.000306292
0.000307909
0.000309559
0.000311241
0.000312952
0.000314692
0.000316458
0.000318248
0.000320062
0.000321896
0.000323749
0.00032562
0.000327506
0.000329404
0.000331315
0.000333235
0.000335162
0.000337096
0.000339035
0.000340976
0.000342919
0.000344862
0.000346802
0.000348738
0.000350668
0.000352591
0.000354506
0.000356412
0.000358307
0.000360191
0.000362062
0.00036392
0.000365764
0.000367594
0.000369409
0.000371209
0.000372994
0.000374763
0.000376516
0.000378254
0.000379976
0.000381682
0.000383374
0.000385051
0.000386713
0.000388359
0.000389991
0.000391607
0.000393207
0.000394791
0.000396359
0.00039791
0.000399445
0.000400964
0.000402457
0.000403918
0.000405359
0.000406781
0.000408182
0.000409559
0.000410912
0.000412238
0.000413535
0.000414801
0.000416033
0.000417228
0.000418384
0.000419498
0.000420565
0.000421582
0.000323084
0.000324729
0.000326409
0.000328129
0.00032989
0.000331691
0.00033353
0.000335404
0.000337311
0.00033925
0.000341219
0.000343217
0.000345239
0.000347286
0.000349355
0.000351443
0.000353549
0.00035567
0.000357806
0.000359952
0.000362108
0.000364272
0.000366441
0.000368614
0.00037079
0.000372967
0.000375141
0.000377312
0.000379477
0.000381635
0.000383784
0.000385923
0.000388051
0.000390166
0.000392268
0.000394354
0.000396425
0.00039848
0.000400518
0.000402539
0.000404541
0.000406525
0.000408491
0.000410438
0.000412365
0.000414273
0.000416162
0.000418032
0.000419883
0.000421714
0.000423525
0.000425315
0.000427085
0.000428834
0.00043056
0.000432263
0.000433944
0.000435601
0.000437233
0.000438832
0.000440392
0.000441924
0.000443428
0.0004449
0.000446338
0.000447741
0.000449105
0.000450428
0.000451706
0.000452936
0.000454114
0.000455237
0.0004563
0.000457298
0.000458225
0.000349423
0.000351296
0.000353207
0.000355159
0.000357155
0.000359193
0.000361271
0.000363385
0.000365534
0.000367717
0.000369931
0.000372173
0.000374442
0.000376736
0.000379051
0.000381387
0.00038374
0.000386109
0.000388491
0.000390883
0.000393285
0.000395693
0.000398106
0.000400523
0.00040294
0.000405356
0.000407768
0.000410174
0.000412573
0.000414963
0.000417342
0.000419708
0.00042206
0.000424398
0.000426719
0.000429021
0.000431306
0.000433571
0.000435816
0.000438039
0.000440242
0.000442422
0.00044458
0.000446714
0.000448825
0.000450913
0.000452976
0.000455015
0.00045703
0.000459018
0.000460981
0.000462917
0.000464825
0.000466705
0.000468554
0.000470373
0.00047216
0.000473915
0.000475635
0.000477311
0.00047894
0.00048053
0.00048208
0.000483585
0.000485043
0.000486451
0.000487806
0.000489104
0.00049034
0.000491509
0.000492607
0.000493629
0.000494568
0.000495418
0.000496171
0.000378114
0.000380232
0.000382389
0.00038459
0.000386836
0.000389126
0.000391456
0.000393824
0.000396228
0.000398666
0.000401135
0.000403633
0.000406158
0.000408707
0.000411278
0.000413868
0.000416475
0.000419097
0.00042173
0.000424373
0.000427024
0.000429679
0.000432338
0.000434998
0.000437657
0.000440312
0.00044296
0.000445601
0.000448231
0.000450849
0.000453454
0.000456042
0.000458614
0.000461167
0.0004637
0.000466212
0.000468701
0.000471167
0.000473609
0.000476025
0.000478416
0.000480779
0.000483115
0.000485423
0.000487702
0.000489951
0.000492171
0.000494359
0.000496516
0.00049864
0.00050073
0.000502786
0.000504804
0.000506785
0.000508727
0.000510627
0.000512486
0.0005143
0.000516066
0.000517777
0.00051943
0.000521029
0.000522572
0.000524055
0.000525475
0.000526826
0.000528106
0.000529307
0.000530425
0.000531453
0.000532386
0.000533216
0.000533936
0.000534535
0.000535004
0.00040954
0.000411917
0.000414332
0.000416793
0.000419299
0.00042185
0.000424441
0.00042707
0.000429735
0.000432433
0.000435162
0.00043792
0.000440703
0.000443509
0.000446335
0.000449179
0.000452039
0.000454911
0.000457793
0.000460682
0.000463576
0.000466473
0.00046937
0.000472266
0.000475157
0.000478041
0.000480916
0.000483779
0.000486628
0.000489461
0.000492277
0.000495073
0.000497848
0.000500601
0.000503329
0.00050603
0.000508705
0.000511352
0.000513969
0.000516555
0.00051911
0.000521633
0.000524121
0.000526575
0.000528993
0.000531374
0.000533718
0.000536023
0.000538287
0.00054051
0.000542689
0.000544823
0.00054691
0.000548947
0.000550934
0.000552866
0.000554743
0.000556562
0.000558317
0.000560002
0.000561613
0.000563153
0.000564619
0.000566005
0.000567306
0.000568517
0.000569631
0.000570643
0.000571544
0.000572326
0.000572982
0.000573503
0.000573877
0.000574093
0.000574138
0.000444112
0.000446752
0.00044943
0.000452153
0.000454921
0.000457733
0.000460584
0.000463473
0.000466395
0.000469349
0.000472333
0.000475343
0.000478376
0.00048143
0.000484502
0.000487589
0.000490689
0.000493798
0.000496913
0.000500033
0.000503154
0.000506274
0.000509391
0.000512503
0.000515606
0.000518697
0.000521774
0.000524836
0.000527879
0.000530902
0.000533902
0.000536878
0.000539828
0.00054275
0.000545641
0.000548502
0.000551329
0.000554122
0.00055688
0.0005596
0.000562281
0.000564923
0.000567523
0.000570081
0.000572594
0.000575062
0.000577483
0.000579854
0.000582175
0.000584442
0.000586655
0.000588809
0.000590903
0.000592934
0.000594899
0.000596795
0.000598619
0.000600366
0.000602031
0.000603608
0.000605092
0.000606483
0.000607776
0.000608965
0.000610043
0.000611003
0.000611838
0.000612538
0.000613093
0.000613496
0.000613734
0.000613795
0.000613666
0.000613332
0.000612776
0.000482224
0.000485121
0.000488053
0.000491029
0.000494047
0.000497108
0.000500206
0.000503338
0.000506502
0.000509695
0.000512914
0.000516156
0.000519418
0.000522697
0.00052599
0.000529295
0.000532608
0.000535926
0.000539246
0.000542566
0.000545883
0.000549195
0.000552498
0.000555791
0.00055907
0.000562331
0.000565574
0.000568795
0.000571993
0.000575164
0.000578307
0.00058142
0.0005845
0.000587546
0.000590556
0.000593527
0.000596458
0.000599347
0.000602194
0.000604994
0.000607748
0.000610452
0.000613106
0.000615708
0.000618255
0.000620745
0.000623177
0.000625547
0.000627853
0.000630093
0.000632262
0.000634359
0.000636379
0.000638319
0.000640175
0.000641943
0.000643618
0.000645196
0.000646668
0.000648029
0.000649274
0.000650399
0.000651398
0.000652262
0.000652984
0.000653554
0.000653962
0.000654197
0.000654247
0.000654099
0.000653741
0.000653156
0.000652327
0.000651235
0.000649858
0.000524188
0.000527317
0.000530478
0.000533679
0.00053692
0.0005402
0.000543514
0.000546858
0.000550229
0.000553626
0.000557044
0.000560481
0.000563934
0.000567399
0.000570873
0.000574353
0.000577836
0.000581319
0.000584799
0.000588274
0.000591739
0.000595193
0.000598633
0.000602056
0.000605459
0.000608838
0.000612192
0.000615518
0.000618813
0.000622076
0.000625303
0.000628492
0.000631642
0.00063475
0.000637813
0.00064083
0.000643798
0.000646715
0.00064958
0.000652389
0.000655142
0.000657834
0.000660464
0.00066303
0.000665529
0.000667957
0.000670313
0.000672593
0.000674792
0.000676908
0.000678937
0.000680874
0.000682715
0.000684456
0.00068609
0.000687613
0.000689019
0.000690301
0.000691451
0.000692461
0.000693325
0.000694038
0.000694589
0.000694969
0.000695167
0.000695172
0.000694971
0.00069455
0.000693895
0.000692988
0.000691814
0.000690352
0.00068858
0.000686474
0.000684009
0.00057012
0.000573438
0.000576783
0.000580162
0.000583579
0.000587029
0.000590508
0.000594013
0.000597541
0.000601088
0.000604652
0.000608229
0.000611816
0.000615409
0.000619006
0.000622602
0.000626196
0.000629783
0.00063336
0.000636925
0.000640474
0.000644005
0.000647514
0.000650999
0.000654457
0.000657884
0.000661277
0.000664635
0.000667955
0.000671233
0.000674468
0.000677657
0.000680797
0.000683885
0.00068692
0.000689898
0.000692817
0.000695675
0.000698469
0.000701195
0.000703852
0.000706436
0.000708944
0.000711373
0.00071372
0.00071598
0.00071815
0.000720226
0.000722203
0.000724076
0.00072584
0.000727491
0.000729021