/*--------------------------------*- C++ -*----------------------------------*\
| =========                 |                                                 |
| \\      /  F ield         | OpenFOAM: The Open Source CFD Toolbox           |
|  \\    /   O peration     | Version:  2412                                  |
|   \\  /    A nd           | Website:  www.openfoam.com                      |
|    \\/     M anipulation  |                                                 |
\*---------------------------------------------------------------------------*/
FoamFile
{
    version     2.0;
    format      ascii;
    arch        "LSB;label=32;scalar=64";
    class       volScalarField;
    location    "100";
    object      nuTilda;
}
// * * * * * * * * * * * * * * * * * * * * * * * * * * * * * * * * * * * * * //

dimensions      [0 2 -1 0 0 0 0];

internalField   nonuniform List<scalar> 
8659
(
2.15626e-06
2.09544e-06
2.00501e-06
1.86281e-06
1.63708e-06
1.28184e-06
7.61337e-07
1.31263e-06
1.95333e-06
2.28044e-06
2.40172e-06
2.37408e-06
2.30528e-06
2.27979e-06
2.27986e-06
2.28977e-06
2.30352e-06
2.31844e-06
2.33309e-06
2.34651e-06
2.35781e-06
2.36696e-06
2.37425e-06
2.38009e-06
2.38478e-06
2.38857e-06
2.39154e-06
2.39403e-06
2.39608e-06
2.39746e-06
2.39826e-06
2.3981e-06
2.39703e-06
2.39554e-06
2.39386e-06
2.39214e-06
2.39048e-06
2.3888e-06
2.3872e-06
2.38562e-06
2.38405e-06
2.3825e-06
2.38097e-06
2.37948e-06
2.37799e-06
2.37651e-06
2.37503e-06
2.37355e-06
2.37213e-06
2.37071e-06
2.36932e-06
2.36795e-06
2.3666e-06
2.36526e-06
2.36397e-06
2.36266e-06
2.36144e-06
2.36022e-06
2.35902e-06
2.35783e-06
2.35669e-06
2.35556e-06
2.35452e-06
2.35348e-06
2.35248e-06
2.35149e-06
2.35053e-06
2.34958e-06
2.34868e-06
2.34778e-06
2.34691e-06
2.3461e-06
2.34531e-06
2.34448e-06
2.34376e-06
2.34302e-06
2.34233e-06
2.34163e-06
2.34098e-06
2.34033e-06
2.33973e-06
2.33909e-06
2.33851e-06
2.33793e-06
2.33734e-06
2.33682e-06
6.42359e-06
6.23599e-06
5.95877e-06
5.52729e-06
4.85644e-06
3.81988e-06
2.31607e-06
4.11351e-06
5.95924e-06
6.91621e-06
7.2818e-06
7.19179e-06
6.95615e-06
6.84284e-06
6.81708e-06
6.83081e-06
6.86334e-06
6.90417e-06
6.94744e-06
6.98898e-06
7.02478e-06
7.05418e-06
7.07788e-06
7.09706e-06
7.11281e-06
7.12581e-06
7.13632e-06
7.14537e-06
7.15299e-06
7.15838e-06
7.16171e-06
7.16186e-06
7.15898e-06
7.15456e-06
7.14953e-06
7.14427e-06
7.1392e-06
7.13419e-06
7.12938e-06
7.12468e-06
7.12008e-06
7.11555e-06
7.11108e-06
7.10669e-06
7.10236e-06
7.09806e-06
7.0938e-06
7.0895e-06
7.08533e-06
7.08119e-06
7.07713e-06
7.07309e-06
7.06919e-06
7.06528e-06
7.06148e-06
7.0577e-06
7.05411e-06
7.05055e-06
7.04703e-06
7.04357e-06
7.04024e-06
7.03695e-06
7.03386e-06
7.03081e-06
7.02792e-06
7.02503e-06
7.02219e-06
7.01945e-06
7.01679e-06
7.01412e-06
7.01161e-06
7.00918e-06
7.00688e-06
7.0045e-06
7.00234e-06
7.00016e-06
6.99812e-06
6.99606e-06
6.99413e-06
6.99222e-06
6.99045e-06
6.98861e-06
6.9869e-06
6.98522e-06
6.98349e-06
6.982e-06
1.0528e-05
1.02092e-05
9.74156e-06
9.02259e-06
7.93106e-06
6.28253e-06
3.99774e-06
7.23161e-06
1.01219e-05
1.16438e-05
1.22229e-05
1.20515e-05
1.15972e-05
1.13259e-05
1.12226e-05
1.12073e-05
1.12398e-05
1.1297e-05
1.13659e-05
1.14367e-05
1.14998e-05
1.15525e-05
1.15956e-05
1.16309e-05
1.16605e-05
1.16855e-05
1.17063e-05
1.17248e-05
1.17406e-05
1.17521e-05
1.17599e-05
1.17617e-05
1.17578e-05
1.17508e-05
1.17426e-05
1.17338e-05
1.17253e-05
1.17171e-05
1.17092e-05
1.17016e-05
1.16943e-05
1.16871e-05
1.168e-05
1.16731e-05
1.16663e-05
1.16595e-05
1.16528e-05
1.16461e-05
1.16396e-05
1.16331e-05
1.16267e-05
1.16203e-05
1.16141e-05
1.1608e-05
1.1602e-05
1.15961e-05
1.15904e-05
1.15847e-05
1.15792e-05
1.15737e-05
1.15684e-05
1.15632e-05
1.15583e-05
1.15535e-05
1.15489e-05
1.15444e-05
1.15399e-05
1.15355e-05
1.15313e-05
1.15271e-05
1.15231e-05
1.15192e-05
1.15155e-05
1.15118e-05
1.15083e-05
1.15048e-05
1.15016e-05
1.14983e-05
1.14952e-05
1.14922e-05
1.14893e-05
1.14864e-05
1.14837e-05
1.1481e-05
1.14782e-05
1.14759e-05
1.42899e-05
1.38395e-05
1.31832e-05
1.21886e-05
1.07159e-05
8.55448e-06
5.99094e-06
1.07177e-05
1.44247e-05
1.64029e-05
1.71363e-05
1.68388e-05
1.60895e-05
1.55664e-05
1.53143e-05
1.52234e-05
1.5227e-05
1.52844e-05
1.5372e-05
1.54714e-05
1.55639e-05
1.56427e-05
1.57082e-05
1.57623e-05
1.58084e-05
1.58481e-05
1.58822e-05
1.5913e-05
1.59399e-05
1.59598e-05
1.59742e-05
1.59797e-05
1.5976e-05
1.59672e-05
1.59563e-05
1.59443e-05
1.59325e-05
1.59213e-05
1.59107e-05
1.59005e-05
1.58908e-05
1.58815e-05
1.58723e-05
1.58634e-05
1.58547e-05
1.58461e-05
1.58375e-05
1.5829e-05
1.58206e-05
1.58123e-05
1.5804e-05
1.57959e-05
1.57879e-05
1.57801e-05
1.57723e-05
1.57647e-05
1.57573e-05
1.575e-05
1.57428e-05
1.57358e-05
1.57289e-05
1.57223e-05
1.57159e-05
1.57097e-05
1.57037e-05
1.56979e-05
1.56921e-05
1.56864e-05
1.56809e-05
1.56755e-05
1.56703e-05
1.56652e-05
1.56604e-05
1.56556e-05
1.56509e-05
1.56465e-05
1.56422e-05
1.56379e-05
1.56339e-05
1.563e-05
1.56263e-05
1.56224e-05
1.56188e-05
1.56153e-05
1.56116e-05
1.56087e-05
1.76097e-05
1.70278e-05
1.6187e-05
1.49368e-05
1.31345e-05
1.05897e-05
8.72465e-06
1.45976e-05
1.88725e-05
2.11865e-05
2.20088e-05
2.15346e-05
2.04038e-05
1.95146e-05
1.902e-05
1.87884e-05
1.87206e-05
1.87523e-05
1.88458e-05
1.89707e-05
1.90939e-05
1.92019e-05
1.92925e-05
1.93681e-05
1.94336e-05
1.94909e-05
1.95412e-05
1.95875e-05
1.96282e-05
1.96592e-05
1.96832e-05
1.96945e-05
1.96927e-05
1.96832e-05
1.96706e-05
1.96557e-05
1.96408e-05
1.96268e-05
1.96137e-05
1.96013e-05
1.95897e-05
1.95787e-05
1.9568e-05
1.95578e-05
1.95479e-05
1.95381e-05
1.95283e-05
1.95186e-05
1.9509e-05
1.94996e-05
1.94901e-05
1.94808e-05
1.94716e-05
1.94626e-05
1.94536e-05
1.94448e-05
1.94363e-05
1.94279e-05
1.94196e-05
1.94115e-05
1.94035e-05
1.93958e-05
1.93883e-05
1.93811e-05
1.93742e-05
1.93675e-05
1.93609e-05
1.93542e-05
1.93478e-05
1.93415e-05
1.93354e-05
1.93295e-05
1.93239e-05
1.93183e-05
1.93128e-05
1.93076e-05
1.93026e-05
1.92976e-05
1.92928e-05
1.92883e-05
1.92838e-05
1.92794e-05
1.9275e-05
1.92709e-05
1.92664e-05
1.92634e-05
2.04219e-05
1.97089e-05
1.86902e-05
1.72184e-05
1.51578e-05
1.24139e-05
1.24965e-05
1.88579e-05
2.34619e-05
2.59991e-05
2.68587e-05
2.61724e-05
2.45797e-05
2.31939e-05
2.2335e-05
2.18719e-05
2.16702e-05
2.16355e-05
2.17126e-05
2.18549e-05
2.2009e-05
2.21487e-05
2.22678e-05
2.23676e-05
2.24553e-05
2.25334e-05
2.26033e-05
2.26683e-05
2.27258e-05
2.27705e-05
2.28072e-05
2.28274e-05
2.28296e-05
2.28211e-05
2.2808e-05
2.27907e-05
2.27728e-05
2.2756e-05
2.27404e-05
2.27262e-05
2.2713e-05
2.27008e-05
2.26892e-05
2.26784e-05
2.26679e-05
2.26578e-05
2.26476e-05
2.26374e-05
2.26274e-05
2.26175e-05
2.26075e-05
2.25977e-05
2.25879e-05
2.25784e-05
2.25689e-05
2.25595e-05
2.25503e-05
2.25414e-05
2.25325e-05
2.25239e-05
2.25152e-05
2.2507e-05
2.24989e-05
2.24913e-05
2.24838e-05
2.24767e-05
2.24696e-05
2.24625e-05
2.24555e-05
2.24488e-05
2.24421e-05
2.24358e-05
2.24296e-05
2.24236e-05
2.24176e-05
2.2412e-05
2.24065e-05
2.24011e-05
2.23958e-05
2.23908e-05
2.23859e-05
2.23811e-05
2.23762e-05
2.23717e-05
2.23667e-05
2.23637e-05
2.26838e-05
2.18418e-05
2.06601e-05
1.90266e-05
1.68156e-05
1.42077e-05
1.70188e-05
2.34431e-05
2.81661e-05
3.08364e-05
3.17115e-05
3.08124e-05
2.87059e-05
2.66909e-05
2.53185e-05
2.45012e-05
2.40746e-05
2.39105e-05
2.39325e-05
2.40755e-05
2.42569e-05
2.44305e-05
2.45811e-05
2.47076e-05
2.48205e-05
2.49227e-05
2.50159e-05
2.51033e-05
2.51804e-05
2.52416e-05
2.52946e-05
2.53269e-05
2.53353e-05
2.53304e-05
2.53186e-05
2.52995e-05
2.52785e-05
2.52588e-05
2.52407e-05
2.52247e-05
2.52101e-05
2.51971e-05
2.51851e-05
2.51744e-05
2.51643e-05
2.51546e-05
2.51448e-05
2.51351e-05
2.51253e-05
2.51158e-05
2.5106e-05
2.50964e-05
2.50868e-05
2.50775e-05
2.5068e-05
2.50587e-05
2.50495e-05
2.50407e-05
2.50318e-05
2.50231e-05
2.50144e-05
2.50062e-05
2.4998e-05
2.49903e-05
2.49828e-05
2.49758e-05
2.49687e-05
2.49616e-05
2.49545e-05
2.49477e-05
2.49408e-05
2.49344e-05
2.49281e-05
2.4922e-05
2.49158e-05
2.49101e-05
2.49044e-05
2.4899e-05
2.48934e-05
2.48883e-05
2.48832e-05
2.48783e-05
2.48731e-05
2.48685e-05
2.4863e-05
2.48604e-05
2.43763e-05
2.34147e-05
2.21039e-05
2.04142e-05
1.82381e-05
1.71734e-05
2.19687e-05
2.82547e-05
3.29263e-05
3.56709e-05
3.65814e-05
3.55211e-05
3.29052e-05
3.0154e-05
2.81023e-05
2.67733e-05
2.59942e-05
2.56051e-05
2.55081e-05
2.56181e-05
2.58159e-05
2.60231e-05
2.62075e-05
2.63629e-05
2.65038e-05
2.66339e-05
2.67546e-05
2.68679e-05
2.69669e-05
2.70463e-05
2.71192e-05
2.71674e-05
2.71842e-05
2.71864e-05
2.71786e-05
2.71582e-05
2.71339e-05
2.71106e-05
2.70897e-05
2.7072e-05
2.70559e-05
2.70423e-05
2.70304e-05
2.70205e-05
2.70115e-05
2.70033e-05
2.69949e-05
2.69865e-05
2.69779e-05
2.69696e-05
2.69609e-05
2.69524e-05
2.69436e-05
2.69352e-05
2.69265e-05
2.6918e-05
2.69094e-05
2.69013e-05
2.68929e-05
2.68849e-05
2.68766e-05
2.68689e-05
2.68611e-05
2.6854e-05
2.68468e-05
2.68404e-05
2.68338e-05
2.68272e-05
2.68204e-05
2.6814e-05
2.68074e-05
2.68012e-05
2.67951e-05
2.67893e-05
2.67832e-05
2.67777e-05
2.67721e-05
2.67669e-05
2.67614e-05
2.67565e-05
2.67514e-05
2.67467e-05
2.67414e-05
2.67369e-05
2.67312e-05
2.67292e-05
2.55095e-05
2.44551e-05
2.30905e-05
2.15235e-05
1.97608e-05
2.17296e-05
2.71687e-05
3.31534e-05
3.76475e-05
4.04431e-05
4.14552e-05
4.03482e-05
3.73096e-05
3.37792e-05
3.08944e-05
2.88699e-05
2.75697e-05
2.68172e-05
2.64981e-05
2.65124e-05
2.66996e-05
2.69341e-05
2.7153e-05
2.73387e-05
2.75103e-05
2.76725e-05
2.78253e-05
2.79676e-05
2.80893e-05
2.81871e-05
2.82824e-05
2.835e-05
2.83764e-05
2.83916e-05
2.83908e-05
2.83695e-05
2.83412e-05
2.83133e-05
2.82889e-05
2.82692e-05
2.82513e-05
2.82369e-05
2.82253e-05
2.82169e-05
2.82101e-05
2.82043e-05
2.81984e-05
2.81925e-05
2.81861e-05
2.818e-05
2.81733e-05
2.81667e-05
2.81595e-05
2.81528e-05
2.81457e-05
2.81387e-05
2.81313e-05
2.81245e-05
2.81174e-05
2.81105e-05
2.81033e-05
2.80966e-05
2.80897e-05
2.80836e-05
2.80773e-05
2.80719e-05
2.80664e-05
2.80607e-05
2.80547e-05
2.80491e-05
2.80431e-05
2.80376e-05
2.8032e-05
2.80269e-05
2.80213e-05
2.80163e-05
2.80111e-05
2.80065e-05
2.80012e-05
2.79967e-05
2.79919e-05
2.79876e-05
2.79824e-05
2.79782e-05
2.79726e-05
2.79712e-05
2.61336e-05
2.50494e-05
2.37877e-05
2.26483e-05
2.30084e-05
2.73026e-05
3.24317e-05
3.79656e-05
4.21999e-05
4.50563e-05
4.6279e-05
4.53017e-05
4.20245e-05
3.77778e-05
3.39662e-05
3.10647e-05
2.90422e-05
2.77387e-05
2.70413e-05
2.68489e-05
2.69671e-05
2.72093e-05
2.74589e-05
2.76755e-05
2.78808e-05
2.808e-05
2.82689e-05
2.84416e-05
2.85838e-05
2.86964e-05
2.88143e-05
2.89047e-05
2.89394e-05
2.89765e-05
2.89855e-05
2.89628e-05
2.89288e-05
2.88942e-05
2.88657e-05
2.88437e-05
2.88229e-05
2.88072e-05
2.8796e-05
2.87897e-05
2.87861e-05
2.87839e-05
2.87817e-05
2.87795e-05
2.87765e-05
2.87738e-05
2.87702e-05
2.87665e-05
2.87619e-05
2.87577e-05
2.87529e-05
2.87481e-05
2.87426e-05
2.87377e-05
2.87324e-05
2.87273e-05
2.87217e-05
2.87165e-05
2.87111e-05
2.87065e-05
2.87016e-05
2.86976e-05
2.86936e-05
2.86894e-05
2.86846e-05
2.86802e-05
2.86752e-05
2.86708e-05
2.8666e-05
2.86619e-05
2.86571e-05
2.86529e-05
2.86483e-05
2.86445e-05
2.86398e-05
2.86359e-05
2.86315e-05
2.86278e-05
2.86231e-05
2.86192e-05
2.86138e-05
2.86131e-05
2.6359e-05
2.53711e-05
2.4527e-05
2.4764e-05
2.81512e-05
3.29143e-05
3.75387e-05
4.24952e-05
4.64239e-05
4.9377e-05
5.09506e-05
5.03284e-05
4.709e-05
4.2323e-05
3.76074e-05
3.3705e-05
3.07601e-05
2.8681e-05
2.73878e-05
2.68074e-05
2.67399e-05
2.69419e-05
2.72095e-05
2.74571e-05
2.77e-05
2.79408e-05
2.81679e-05
2.83684e-05
2.8523e-05
2.8641e-05
2.87771e-05
2.88938e-05
2.89303e-05
2.9003e-05
2.90224e-05
2.89947e-05
2.89511e-05
2.89058e-05
2.88733e-05
2.88488e-05
2.88229e-05
2.88042e-05
2.87929e-05
2.87891e-05
2.87898e-05
2.87927e-05
2.87958e-05
2.87989e-05
2.88008e-05
2.88027e-05
2.88034e-05
2.88038e-05
2.88028e-05
2.88021e-05
2.88004e-05
2.87987e-05
2.87958e-05
2.87935e-05
2.87905e-05
2.87877e-05
2.87842e-05
2.87811e-05
2.87775e-05
2.87748e-05
2.87717e-05
2.87696e-05
2.87675e-05
2.87652e-05
2.8762e-05
2.87592e-05
2.87555e-05
2.87523e-05
2.87487e-05
2.87458e-05
2.8742e-05
2.87389e-05
2.87351e-05
2.87322e-05
2.87283e-05
2.87252e-05
2.87214e-05
2.87185e-05
2.87142e-05
2.87109e-05
2.87058e-05
2.87057e-05
2.63917e-05
2.5734e-05
2.60743e-05
2.91156e-05
3.36556e-05
3.82828e-05
4.22546e-05
4.65331e-05
5.01394e-05
5.32407e-05
5.53193e-05
5.53044e-05
5.24527e-05
4.74916e-05
4.20504e-05
3.71496e-05
3.31503e-05
3.00805e-05
2.79322e-05
2.66998e-05
2.62327e-05
2.62901e-05
2.65439e-05
2.68223e-05
2.71086e-05
2.73943e-05
2.76563e-05
2.78734e-05
2.8023e-05
2.81281e-05
2.82715e-05
2.84208e-05
2.84432e-05
2.8571e-05
2.85944e-05
2.85508e-05
2.84893e-05
2.84256e-05
2.83915e-05
2.83642e-05
2.8328e-05
2.83031e-05
2.82901e-05
2.82888e-05
2.82948e-05
2.83042e-05
2.83144e-05
2.83248e-05
2.83335e-05
2.83418e-05
2.83484e-05
2.83543e-05
2.83583e-05
2.83621e-05
2.83646e-05
2.83666e-05
2.83671e-05
2.83679e-05
2.83678e-05
2.83678e-05
2.83668e-05
2.8366e-05
2.83647e-05
2.83642e-05
2.83631e-05
2.83631e-05
2.83632e-05
2.83631e-05
2.83619e-05
2.83608e-05
2.83587e-05
2.8357e-05
2.83546e-05
2.83531e-05
2.83505e-05
2.83485e-05
2.83456e-05
2.83438e-05
2.83407e-05
2.83384e-05
2.83353e-05
2.83332e-05
2.83295e-05
2.83268e-05
2.8322e-05
2.83221e-05
2.65992e-05
2.71544e-05
3.00572e-05
3.44196e-05
3.89899e-05
4.31515e-05
4.63457e-05
4.98787e-05
5.31605e-05
5.64634e-05
5.91933e-05
6.00371e-05
5.79587e-05
5.32278e-05
4.73929e-05
4.16677e-05
3.66277e-05
3.24483e-05
2.92154e-05
2.70168e-05
2.58078e-05
2.5505e-05
2.56754e-05
2.59814e-05
2.63194e-05
2.66483e-05
2.69314e-05
2.71399e-05
2.72536e-05
2.73179e-05
2.74501e-05
2.76486e-05
2.76283e-05
2.78322e-05
2.78381e-05
2.77529e-05
2.76552e-05
2.75583e-05
2.75317e-05
2.74997e-05
2.74412e-05
2.74031e-05
2.73847e-05
2.73844e-05
2.73962e-05
2.74135e-05
2.74331e-05
2.74531e-05
2.74712e-05
2.74882e-05
2.75029e-05
2.75161e-05
2.75266e-05
2.75362e-05
2.75439e-05
2.75507e-05
2.75552e-05
2.75595e-05
2.75627e-05
2.75657e-05
2.75675e-05
2.75692e-05
2.75702e-05
2.75721e-05
2.75732e-05
2.75754e-05
2.75777e-05
2.75801e-05
2.75809e-05
2.75817e-05
2.75813e-05
2.75811e-05
2.758e-05
2.75797e-05
2.75784e-05
2.75775e-05
2.75756e-05
2.75746e-05
2.75724e-05
2.75708e-05
2.75683e-05
2.75667e-05
2.75636e-05
2.75612e-05
2.75568e-05
2.75564e-05
2.79757e-05
3.10892e-05
3.51721e-05
3.96846e-05
4.3842e-05
4.72769e-05
4.95925e-05
5.23637e-05
5.53163e-05
5.88578e-05
6.23512e-05
6.42729e-05
6.33645e-05
5.93425e-05
5.35564e-05
4.73389e-05
4.14598e-05
3.62339e-05
3.18348e-05
2.84252e-05
2.60483e-05
2.49681e-05
2.49108e-05
2.52251e-05
2.56277e-05
2.59916e-05
2.62676e-05
2.6425e-05
2.64591e-05
2.6447e-05
2.65514e-05
2.68353e-05
2.6732e-05
2.70175e-05
2.69544e-05
2.67749e-05
2.66051e-05
2.64468e-05
2.64508e-05
2.64058e-05
2.62976e-05
2.62312e-05
2.61985e-05
2.61942e-05
2.62101e-05
2.62359e-05
2.62669e-05
2.62995e-05
2.63301e-05
2.63589e-05
2.63845e-05
2.64076e-05
2.64267e-05
2.64436e-05
2.64579e-05
2.64702e-05
2.64794e-05
2.64877e-05
2.64945e-05
2.65007e-05
2.65055e-05
2.65099e-05
2.65134e-05
2.65177e-05
2.65212e-05
2.65256e-05
2.65304e-05
2.65352e-05
2.65383e-05
2.65412e-05
2.65424e-05
2.65436e-05
2.65437e-05
2.65445e-05
2.65442e-05
2.65441e-05
2.65428e-05
2.65423e-05
2.65406e-05
2.65393e-05
2.6537e-05
2.65355e-05
2.65325e-05
2.653e-05
2.65255e-05
2.6524e-05
3.19661e-05
3.59933e-05
4.03319e-05
4.45103e-05
4.79426e-05
5.04554e-05
5.18502e-05
5.38793e-05
5.64805e-05
6.02599e-05
6.4561e-05
6.77048e-05
6.83588e-05
6.55426e-05
6.03003e-05
5.40245e-05
4.76589e-05
4.16499e-05
3.62361e-05
3.16134e-05
2.77898e-05
2.52468e-05
2.47307e-05
2.50102e-05
2.55035e-05
2.58758e-05
2.60867e-05
2.61243e-05
2.60196e-05
2.58857e-05
2.59693e-05
2.63944e-05
2.61588e-05
2.64814e-05
2.62445e-05
2.58779e-05
2.55686e-05
2.52975e-05
2.53822e-05
2.52976e-05
2.50794e-05
2.49523e-05
2.48851e-05
2.48636e-05
2.48761e-05
2.49073e-05
2.49499e-05
2.49972e-05
2.5044e-05
2.50884e-05
2.51286e-05
2.51649e-05
2.51955e-05
2.5222e-05
2.52446e-05
2.52638e-05
2.52789e-05
2.52922e-05
2.53037e-05
2.53143e-05
2.53234e-05
2.53318e-05
2.53392e-05
2.53469e-05
2.53538e-05
2.53614e-05
2.53692e-05
2.5377e-05
2.53827e-05
2.53877e-05
2.53905e-05
2.53929e-05
2.53936e-05
2.53947e-05
2.53946e-05
2.53943e-05
2.53926e-05
2.53914e-05
2.5389e-05
2.53868e-05
2.53835e-05
2.53808e-05
2.53768e-05
2.5373e-05
2.53673e-05
2.53634e-05
3.67786e-05
4.10068e-05
4.50863e-05
4.85882e-05
5.10825e-05
5.25549e-05
5.30646e-05
5.44062e-05
5.6611e-05
6.05691e-05
6.5612e-05
6.99745e-05
7.25863e-05
7.1469e-05
6.7272e-05
6.14101e-05
5.49864e-05
4.85841e-05
4.2503e-05
3.69636e-05
3.19212e-05
2.78498e-05
2.64605e-05
2.64601e-05
2.71283e-05
2.75931e-05
2.78079e-05
2.77924e-05
2.76106e-05
2.73762e-05
2.72589e-05
2.73084e-05
2.69163e-05
2.68281e-05
2.6195e-05
2.5488e-05
2.49166e-05
2.444e-05
2.46956e-05
2.4501e-05
2.40485e-05
2.37955e-05
2.36482e-05
2.35769e-05
2.35639e-05
2.35869e-05
2.36346e-05
2.36961e-05
2.37628e-05
2.38276e-05
2.38875e-05
2.39421e-05
2.39889e-05
2.40296e-05
2.4065e-05
2.4096e-05
2.41226e-05
2.41467e-05
2.41691e-05
2.41904e-05
2.42098e-05
2.42275e-05
2.42432e-05
2.42578e-05
2.42706e-05
2.42828e-05
2.42942e-05
2.43048e-05
2.43125e-05
2.43181e-05
2.43207e-05
2.43218e-05
2.43205e-05
2.43188e-05
2.43159e-05
2.43122e-05
2.43069e-05
2.43017e-05
2.42954e-05
2.4289e-05
2.42817e-05
2.42748e-05
2.42668e-05
2.42589e-05
2.42493e-05
2.42405e-05
4.16856e-05
4.56477e-05
4.91022e-05
5.16998e-05
5.31421e-05
5.35491e-05
5.32915e-05
5.40373e-05
5.57881e-05
5.97915e-05
6.53651e-05
7.0656e-05
7.56918e-05
7.67239e-05
7.40544e-05
6.90803e-05
6.30423e-05
5.66672e-05
5.03409e-05
4.43168e-05
3.86302e-05
3.32757e-05
3.02988e-05
2.94076e-05
3.01975e-05
3.08538e-05
3.11984e-05
3.13021e-05
3.12076e-05
3.10028e-05
3.08281e-05
3.0665e-05
3.01675e-05
2.96558e-05
2.84755e-05
2.7369e-05
2.65052e-05
2.5686e-05
2.52266e-05
2.45755e-05
2.3636e-05
2.31266e-05
2.27997e-05
2.26014e-05
2.25064e-05
2.24815e-05
2.25093e-05
2.25776e-05
2.26693e-05
2.27606e-05
2.28466e-05
2.29272e-05
2.29998e-05
2.30666e-05
2.31294e-05
2.31895e-05
2.32479e-05
2.33039e-05
2.33572e-05
2.34069e-05
2.34509e-05
2.34887e-05
2.35196e-05
2.35449e-05
2.35645e-05
2.35786e-05
2.3589e-05
2.35958e-05
2.3598e-05
2.35962e-05
2.35901e-05
2.35811e-05
2.35692e-05
2.3556e-05
2.35416e-05
2.35262e-05
2.35094e-05
2.34925e-05
2.3475e-05
2.34575e-05
2.34394e-05
2.34219e-05
2.34038e-05
2.33858e-05
2.33665e-05
2.33482e-05
4.62051e-05
4.95632e-05
5.21572e-05
5.37363e-05
5.41171e-05
5.35433e-05
5.27151e-05
5.29661e-05
5.4219e-05
5.80424e-05
6.38181e-05
6.968e-05
7.73792e-05
8.0876e-05
8.01855e-05
7.65757e-05
7.13616e-05
6.54162e-05
5.92393e-05
5.31481e-05
4.72461e-05
4.16309e-05
3.66647e-05
3.40136e-05
3.35285e-05
3.41622e-05
3.46074e-05
3.48858e-05
3.49994e-05
3.49776e-05
3.49228e-05
3.47968e-05
3.43924e-05
3.38422e-05
3.28115e-05
3.16451e-05
3.05326e-05
2.93676e-05
2.83118e-05
2.70947e-05
2.54019e-05
2.45048e-05
2.38638e-05
2.3416e-05
2.3125e-05
2.29563e-05
2.28931e-05
2.29064e-05
2.29746e-05
2.30715e-05
2.31831e-05
2.32983e-05
2.34049e-05
2.34998e-05
2.35822e-05
2.365e-05
2.37035e-05
2.37445e-05
2.37744e-05
2.37944e-05
2.38045e-05
2.38055e-05
2.37976e-05
2.37828e-05
2.37609e-05
2.3736e-05
2.37069e-05
2.36759e-05
2.36412e-05
2.36033e-05
2.35623e-05
2.35192e-05
2.34746e-05
2.34295e-05
2.33844e-05
2.33392e-05
2.32941e-05
2.325e-05
2.32064e-05
2.31637e-05
2.31216e-05
2.30811e-05
2.30409e-05
2.30017e-05
2.29616e-05
2.29245e-05
2.28839e-05
4.99934e-05
5.2531e-05
5.41539e-05
5.47172e-05
5.41313e-05
5.27579e-05
5.1672e-05
5.1425e-05
5.21697e-05
5.54728e-05
6.12118e-05
6.77385e-05
7.73615e-05
8.34381e-05
8.5156e-05
8.34108e-05
7.94687e-05
7.43327e-05
6.86505e-05
6.28321e-05
5.70488e-05
5.13831e-05
4.60287e-05
4.11009e-05
3.83427e-05
3.76007e-05
3.79106e-05
3.8274e-05
3.86066e-05
3.88239e-05
3.89907e-05
3.90565e-05
3.88632e-05
3.84417e-05
3.7614e-05
3.65562e-05
3.53884e-05
3.40707e-05
3.27022e-05
3.12179e-05
2.95061e-05
2.82063e-05
2.71448e-05
2.63009e-05
2.56724e-05
2.52366e-05
2.49754e-05
2.48534e-05
2.48439e-05
2.49101e-05
2.5028e-05
2.51753e-05
2.53257e-05
2.54684e-05
2.55977e-05
2.57047e-05
2.57863e-05
2.58439e-05
2.58779e-05
2.58892e-05
2.58787e-05
2.58476e-05
2.57987e-05
2.57366e-05
2.566e-05
2.55889e-05
2.55139e-05
2.54413e-05
2.53662e-05
2.52891e-05
2.521e-05
2.51294e-05
2.50486e-05
2.49683e-05
2.48886e-05
2.48096e-05
2.47317e-05
2.46558e-05
2.45814e-05
2.45085e-05
2.4437e-05
2.43678e-05
2.42999e-05
2.42336e-05
2.41665e-05
2.41045e-05
2.40456e-05
5.28488e-05
5.44701e-05
5.51325e-05
5.47938e-05
5.34066e-05
5.14572e-05
5.03553e-05
4.96115e-05
4.98813e-05
5.28709e-05
5.80984e-05
6.4833e-05
7.54236e-05
8.39241e-05
8.84172e-05
8.90631e-05
8.68791e-05
8.29397e-05
7.80635e-05
7.27971e-05
6.73972e-05
6.19543e-05
5.65473e-05
5.1313e-05
4.61704e-05
4.30545e-05
4.14767e-05
4.1573e-05
4.19523e-05
4.22863e-05
4.26934e-05
4.30298e-05
4.31342e-05
4.29864e-05
4.24593e-05
4.16483e-05
4.06029e-05
3.93138e-05
3.78505e-05
3.62319e-05
3.44511e-05
3.28442e-05
3.14037e-05
3.01591e-05
2.91489e-05
2.83749e-05
2.78354e-05
2.75033e-05
2.73531e-05
2.73382e-05
2.74261e-05
2.75838e-05
2.77699e-05
2.79656e-05
2.81614e-05
2.83385e-05
2.84885e-05
2.86122e-05
2.87084e-05
2.87772e-05
2.88202e-05
2.88393e-05
2.88369e-05
2.88162e-05
2.87793e-05
2.87313e-05
2.86724e-05
2.86056e-05
2.85303e-05
2.84472e-05
2.83573e-05
2.82614e-05
2.81615e-05
2.80591e-05
2.79549e-05
2.78493e-05
2.77433e-05
2.7638e-05
2.75334e-05
2.74295e-05
2.73266e-05
2.72256e-05
2.7126e-05
2.70281e-05
2.69293e-05
2.6836e-05
2.67501e-05
5.47178e-05
5.54429e-05
5.5264e-05
5.4212e-05
5.21757e-05
4.98566e-05
4.89223e-05
4.78916e-05
4.80247e-05
5.09241e-05
5.5152e-05
6.13042e-05
7.17425e-05
8.20481e-05
8.94573e-05
9.29745e-05
9.30704e-05
9.07582e-05
8.70101e-05
8.25469e-05
7.77553e-05
7.27768e-05
6.76552e-05
6.24567e-05
5.72008e-05
5.23565e-05
4.81383e-05
4.5627e-05
4.54567e-05
4.53926e-05
4.5924e-05
4.64488e-05
4.68653e-05
4.70772e-05
4.69366e-05
4.6498e-05
4.5742e-05
4.46664e-05
4.33165e-05
4.17367e-05
3.9958e-05
3.81738e-05
3.64442e-05
3.48347e-05
3.3419e-05
3.22325e-05
3.13046e-05
3.06338e-05
3.02117e-05
2.99966e-05
2.99565e-05
3.00524e-05
3.0226e-05
3.04483e-05
3.07035e-05
3.09562e-05
3.11866e-05
3.13935e-05
3.15715e-05
3.1716e-05
3.1828e-05
3.19092e-05
3.19616e-05
3.19881e-05
3.19921e-05
3.19772e-05
3.19454e-05
3.18988e-05
3.18385e-05
3.17656e-05
3.16814e-05
3.15871e-05
3.14847e-05
3.13762e-05
3.12629e-05
3.11456e-05
3.10255e-05
3.09041e-05
3.07819e-05
3.06591e-05
3.05362e-05
3.04141e-05
3.02928e-05
3.01728e-05
3.00518e-05
2.99356e-05
2.98259e-05
5.56877e-05
5.5635e-05
5.48039e-05
5.32254e-05
5.05781e-05
4.8217e-05
4.80059e-05
4.71381e-05
4.72417e-05
5.00324e-05
5.28899e-05
5.78635e-05
6.64505e-05
7.80245e-05
8.80078e-05
9.46077e-05
9.74606e-05
9.7258e-05
9.50165e-05
9.16303e-05
8.76608e-05
8.33562e-05
7.87841e-05
7.39669e-05
6.89324e-05
6.3786e-05
5.88795e-05
5.37662e-05
5.07685e-05
4.87634e-05
4.90935e-05
4.93056e-05
4.99299e-05
5.04369e-05
5.0695e-05
5.07029e-05
5.03675e-05
4.96713e-05
4.863e-05
4.7285e-05
4.56637e-05
4.38835e-05
4.20251e-05
4.0167e-05
3.84032e-05
3.67997e-05
3.54211e-05
3.43041e-05
3.34736e-05
3.29125e-05
3.2606e-05
3.2521e-05
3.25884e-05
3.27708e-05
3.30476e-05
3.33597e-05
3.36677e-05
3.39678e-05
3.42466e-05
3.44888e-05
3.46926e-05
3.48586e-05
3.49867e-05
3.50793e-05
3.51403e-05
3.51732e-05
3.5181e-05
3.51664e-05
3.51315e-05
3.50787e-05
3.50096e-05
3.4926e-05
3.48298e-05
3.47233e-05
3.46083e-05
3.44863e-05
3.43586e-05
3.4227e-05
3.40925e-05
3.39555e-05
3.38166e-05
3.36769e-05
3.35369e-05
3.33971e-05
3.3256e-05
3.31181e-05
3.29845e-05
5.59499e-05
5.52955e-05
5.40071e-05
5.19839e-05
4.87675e-05
4.73974e-05
4.77261e-05
4.69994e-05
4.71156e-05
4.97795e-05
5.13599e-05
5.51236e-05
6.14605e-05
7.26838e-05
8.41872e-05
9.35526e-05
9.94314e-05
0.000101822
0.000101542
9.95773e-05
9.66754e-05
9.32455e-05
8.9437e-05
8.52728e-05
8.07576e-05
7.59188e-05
7.09355e-05
6.57492e-05
6.11095e-05
5.62281e-05
5.37079e-05
5.2154e-05
5.27427e-05
5.30573e-05
5.36032e-05
5.39692e-05
5.41032e-05
5.38805e-05
5.33044e-05
5.23774e-05
5.11059e-05
4.95446e-05
4.77756e-05
4.58674e-05
4.39133e-05
4.1996e-05
4.02054e-05
3.86139e-05
3.72861e-05
3.62465e-05
3.55168e-05
3.509e-05
3.4904e-05
3.4925e-05
3.51344e-05
3.54478e-05
3.57984e-05
3.61797e-05
3.65673e-05
3.69232e-05
3.7239e-05
3.7515e-05
3.77462e-05
3.79317e-05
3.80749e-05
3.81792e-05
3.82476e-05
3.82833e-05
3.82898e-05
3.82709e-05
3.82294e-05
3.81673e-05
3.8087e-05
3.79911e-05
3.7882e-05
3.77618e-05
3.76324e-05
3.74958e-05
3.73536e-05
3.72063e-05
3.70547e-05
3.69e-05
3.67432e-05
3.65849e-05
3.64246e-05
3.62654e-05
3.61082e-05
5.57312e-05
5.46544e-05
5.30468e-05
5.05236e-05
4.76199e-05
4.71874e-05
4.78018e-05
4.71581e-05
4.7292e-05
4.98027e-05
5.02289e-05
5.31782e-05
5.74642e-05
6.69023e-05
7.83937e-05
8.96384e-05
9.84256e-05
0.000103769
0.000105944
0.000105835
0.00010432
0.000101995
9.91488e-05
9.58581e-05
9.21196e-05
8.79298e-05
8.3359e-05
7.84659e-05
7.34718e-05
6.84263e-05
6.38713e-05
5.92548e-05
5.69005e-05
5.55194e-05
5.61287e-05
5.63004e-05
5.68243e-05
5.69706e-05
5.69274e-05
5.65215e-05
5.57733e-05
5.46353e-05
5.31959e-05
5.14883e-05
4.95824e-05
4.75614e-05
4.55215e-05
4.35543e-05
4.17527e-05
4.01835e-05
3.89154e-05
3.79864e-05
3.73681e-05
3.70528e-05
3.70413e-05
3.72346e-05
3.75375e-05
3.79455e-05
3.84213e-05
3.88851e-05
3.93155e-05
3.97162e-05
4.00746e-05
4.03804e-05
4.06351e-05
4.08401e-05
4.09969e-05
4.11087e-05
4.11796e-05
4.1215e-05
4.12192e-05
4.1195e-05
4.11449e-05
4.10719e-05
4.09794e-05
4.08703e-05
4.07475e-05
4.06134e-05
4.047e-05
4.03181e-05
4.01587e-05
3.99932e-05
3.98228e-05
3.96487e-05
3.9471e-05
3.9292e-05
3.91127e-05
3.88948e-05
3.86809e-05
3.84587e-05
5.52183e-05
5.38614e-05
5.19971e-05
4.92075e-05
4.6957e-05
4.73083e-05
4.79883e-05
4.73677e-05
4.75276e-05
4.98756e-05
4.97978e-05
5.19114e-05
5.48366e-05
6.159e-05
7.15889e-05
8.32423e-05
9.41891e-05
0.000102478
0.000107504
0.000109736
0.00011002
0.000109098
0.000107433
0.000105217
0.000102479
9.92001e-05
9.53892e-05
9.11026e-05
8.64354e-05
8.15263e-05
7.65095e-05
7.15553e-05
6.70799e-05
6.243e-05
6.00466e-05
5.84219e-05
5.91051e-05
5.90064e-05
5.93879e-05
5.9388e-05
5.92303e-05
5.86333e-05
5.77206e-05
5.64689e-05
5.48809e-05
5.30305e-05
5.10038e-05
4.88889e-05
4.67846e-05
4.47814e-05
4.29827e-05
4.14747e-05
4.02822e-05
3.94484e-05
3.90154e-05
3.88999e-05
3.89946e-05
3.93119e-05
3.9805e-05
4.03268e-05
4.08314e-05
4.13366e-05
4.18278e-05
4.22675e-05
4.2655e-05
4.29881e-05
4.32625e-05
4.34797e-05
4.36432e-05
4.3759e-05
4.38331e-05
4.38689e-05
4.38687e-05
4.38361e-05
4.37754e-05
4.36909e-05
4.35868e-05
4.34663e-05
4.33318e-05
4.31844e-05
4.30252e-05
4.28558e-05
4.26778e-05
4.2493e-05
4.2302e-05
4.21071e-05
4.19091e-05
4.16895e-05
4.14641e-05
4.12297e-05
5.45197e-05
5.29851e-05
5.09017e-05
4.83796e-05
4.65783e-05
4.75508e-05
4.81205e-05
4.74835e-05
4.76916e-05
4.98282e-05
4.9816e-05
5.12152e-05
5.32135e-05
5.75422e-05
6.52752e-05
7.56515e-05
8.72211e-05
9.77189e-05
0.000105596
0.000110549
0.000113087
0.000113948
0.000113739
0.000112808
0.000111274
0.000109137
0.000106369
0.000102988
9.9045e-05
9.46537e-05
8.9895e-05
8.49532e-05
7.99379e-05
7.4948e-05
7.04802e-05
6.5704e-05
6.30274e-05
6.10444e-05
6.14035e-05
6.11893e-05
6.13512e-05
6.12209e-05
6.08586e-05
6.02556e-05
5.92125e-05
5.78033e-05
5.60876e-05
5.41291e-05
5.20124e-05
4.98261e-05
4.76791e-05
4.56839e-05
4.39151e-05
4.24725e-05
4.14506e-05
4.08187e-05
4.04969e-05
4.05398e-05
4.09123e-05
4.13808e-05
4.18482e-05
4.23617e-05
4.29506e-05
4.34976e-05
4.40055e-05
4.44742e-05
4.48825e-05
4.52276e-05
4.55099e-05
4.57326e-05
4.59029e-05
4.60246e-05
4.60987e-05
4.61284e-05
4.61188e-05
4.60764e-05
4.60071e-05
4.59155e-05
4.58042e-05
4.56742e-05
4.55269e-05
4.5364e-05
4.51879e-05
4.50007e-05
4.48041e-05
4.46001e-05
4.43899e-05
4.41655e-05
4.39317e-05
4.36877e-05
5.36824e-05
5.20662e-05
4.9941e-05
4.78402e-05
4.63461e-05
4.78058e-05
4.81224e-05
4.74576e-05
4.77362e-05
4.96398e-05
4.99134e-05
5.07952e-05
5.22356e-05
5.49312e-05
6.04407e-05
6.85629e-05
7.89823e-05
9.01192e-05
0.000100072
0.000107688
0.0001128
0.000115847
0.000117431
0.00011803
0.000117899
0.000117108
0.000115629
0.00011344
0.000110547
0.000107018
0.000102931
9.84317e-05
9.35927e-05
8.85827e-05
8.35426e-05
7.8456e-05
7.39357e-05
6.93143e-05
6.56838e-05
6.34503e-05
6.27946e-05
6.27801e-05
6.24871e-05
6.25522e-05
6.21079e-05
6.13092e-05
6.01503e-05
5.86384e-05
5.6831e-05
5.48003e-05
5.26297e-05
5.04249e-05
4.82838e-05
4.63397e-05
4.47254e-05
4.34762e-05
4.2579e-05
4.21458e-05
4.21959e-05
4.24564e-05
4.27116e-05
4.30168e-05
4.36172e-05
4.41664e-05
4.4697e-05
4.52531e-05
4.57685e-05
4.62301e-05
4.66375e-05
4.69806e-05
4.72647e-05
4.74942e-05
4.7666e-05
4.77801e-05
4.78424e-05
4.78611e-05
4.7845e-05
4.78008e-05
4.77307e-05
4.7635e-05
4.75147e-05
4.7372e-05
4.72102e-05
4.70324e-05
4.68413e-05
4.66389e-05
4.64267e-05
4.62018e-05
4.59655e-05
4.57176e-05
5.27359e-05
5.11525e-05
4.92311e-05
4.74671e-05
4.61883e-05
4.80345e-05
4.79594e-05
4.73077e-05
4.76791e-05
4.93241e-05
4.97688e-05
5.04182e-05
5.15975e-05
5.31178e-05
5.7038e-05
6.29401e-05
7.12207e-05
8.12665e-05
9.17283e-05
0.000101156
0.000108675
0.000114127
0.000117826
0.00012023
0.000121707
0.000122439
0.000122452
0.000121707
0.000120167
0.000117841
0.00011478
0.00011109
0.000106867
0.000102253
9.73363e-05
9.22651e-05
8.71949e-05
8.19983e-05
7.72077e-05
7.27672e-05
6.82369e-05
6.53943e-05
6.35483e-05
6.39236e-05
6.36412e-05
6.32926e-05
6.27766e-05
6.18732e-05
6.05984e-05
5.90234e-05
5.71851e-05
5.51464e-05
5.3001e-05
5.08773e-05
4.89129e-05
4.71907e-05
4.57697e-05
4.47681e-05
4.4252e-05
4.42201e-05
4.41501e-05
4.39311e-05
4.44808e-05
4.48022e-05
4.50836e-05
4.55403e-05
4.60541e-05
4.65335e-05
4.70115e-05
4.7446e-05
4.78261e-05
4.8161e-05
4.84389e-05
4.86489e-05
4.87955e-05
4.88888e-05
4.89408e-05
4.89614e-05
4.89517e-05
4.89089e-05
4.88326e-05
4.87252e-05
4.85916e-05
4.84371e-05
4.82654e-05
4.80787e-05
4.78784e-05
4.76638e-05
4.74353e-05
4.71929e-05
5.17195e-05
5.02739e-05
4.86752e-05
4.7183e-05
4.60692e-05
4.78444e-05
4.76232e-05
4.70797e-05
4.7511e-05
4.89129e-05
4.94157e-05