/*--------------------------------*- C++ -*----------------------------------*\
| =========                 |                                                 |
| \\      /  F ield         | OpenFOAM: The Open Source CFD Toolbox           |
|  \\    /   O peration     | Version:  2412                                  |
|   \\  /    A nd           | Website:  www.openfoam.com                      |
|    \\/     M anipulation  |                                                 |
\*---------------------------------------------------------------------------*/
FoamFile
{
    version     2.0;
    format      ascii;
    arch        "LSB;label=32;scalar=64";
    class       surfaceScalarField;
    location    "100";
    object      phi;
}
// * * * * * * * * * * * * * * * * * * * * * * * * * * * * * * * * * * * * * //

dimensions      [0 3 -1 0 0 0 0];

oriented        oriented;

internalField   nonuniform List<scalar> 
17125
(
-5.46255e-06
-1.70038e-07
-5.21168e-06
-2.50878e-07
-4.81639e-06
-3.95288e-07
-4.15259e-06
-6.6381e-07
-3.03981e-06
-1.1127e-06
-1.28278e-06
-1.75715e-06
1.15999e-06
-2.44346e-06
3.72178e-06
-2.56113e-06
5.45423e-06
-1.73333e-06
6.15598e-06
-7.00902e-07
6.13222e-06
2.3794e-08
5.83558e-06
2.96605e-07
5.69957e-06
1.35946e-07
5.75933e-06
-5.96796e-08
5.8676e-06
-1.08262e-07
5.97005e-06
-1.02453e-07
6.05643e-06
-8.64054e-08
6.12831e-06
-7.18633e-08
6.18733e-06
-5.905e-08
6.23447e-06
-4.71028e-08
6.2713e-06
-3.68261e-08
6.29967e-06
-2.83838e-08
6.3214e-06
-2.1736e-08
6.33773e-06
-1.63117e-08
6.34966e-06
-1.19211e-08
6.35788e-06
-8.2221e-09
6.36298e-06
-5.0928e-09
6.36628e-06
-3.26717e-09
6.36847e-06
-2.17963e-09
6.36972e-06
-1.21601e-09
6.36938e-06
3.43885e-10
6.36636e-06
3.05045e-09
6.3621e-06
4.28873e-09
6.35696e-06
5.1899e-09
6.35146e-06
5.51748e-09
6.34601e-06
5.40894e-09
6.3402e-06
5.95815e-09
6.33417e-06
6.01415e-09
6.32836e-06
5.89347e-09
6.32219e-06
6.12978e-09
6.31611e-06
6.1827e-09
6.30987e-06
6.2103e-09
6.30385e-06
6.1048e-09
6.29775e-06
6.08641e-09
6.29164e-06
6.2081e-09
6.2855e-06
6.13603e-09
6.2794e-06
6.16295e-09
6.27335e-06
6.01109e-09
6.26745e-06
6.02689e-09
6.26155e-06
5.86728e-09
6.25588e-06
5.74857e-09
6.2502e-06
5.62683e-09
6.24451e-06
5.82807e-09
6.23911e-06
5.37592e-09
6.23367e-06
5.51602e-09
6.22839e-06
5.2308e-09
6.22341e-06
5.11756e-09
6.21835e-06
5.03825e-09
6.2134e-06
5.03077e-09
6.2086e-06
4.75971e-09
6.20385e-06
4.8298e-09
6.19938e-06
4.42187e-09
6.19515e-06
4.36282e-09
6.19091e-06
4.21657e-09
6.18669e-06
4.3881e-09
6.18264e-06
4.10126e-09
6.17869e-06
4.02999e-09
6.17481e-06
3.86008e-09
6.17121e-06
3.73455e-09
6.16747e-06
3.69482e-09
6.16402e-06
3.55812e-09
6.16082e-06
3.17233e-09
6.15735e-06
3.59566e-09
6.15429e-06
2.98354e-09
6.1513e-06
3.10905e-09
6.14828e-06
2.95252e-09
6.14551e-06
2.93499e-09
6.14277e-06
2.64552e-09
6.14002e-06
2.91268e-09
6.13752e-06
2.43889e-09
6.13494e-06
2.76577e-09
6.13247e-06
2.3668e-09
6.13014e-06
2.51524e-09
6.12781e-06
2.28277e-09
6.12544e-06
2.55981e-09
2.78629e-09
-1.88965e-05
-7.70377e-07
-1.80141e-05
-1.13326e-06
-1.66322e-05
-1.77719e-06
-1.43293e-05
-2.96677e-06
-1.0503e-05
-4.93885e-06
-4.51825e-06
-7.74207e-06
3.75167e-06
-1.07143e-05
1.24482e-05
-1.12568e-05
1.84343e-05
-7.72057e-06
2.10248e-05
-3.2903e-06
2.11466e-05
-9.80574e-08
2.02671e-05
1.17615e-06
1.98352e-05
5.67778e-07
2.00355e-05
-2.59909e-07
2.03993e-05
-4.72101e-07
2.07468e-05
-4.49929e-07
2.10416e-05
-3.81266e-07
2.12877e-05
-3.17924e-07
2.14907e-05
-2.62101e-07
2.16534e-05
-2.09685e-07
2.17802e-05
-1.63649e-07
2.18791e-05
-1.27315e-07
2.19543e-05
-9.69511e-08
2.20119e-05
-7.38895e-08
2.20544e-05
-5.4439e-08
2.20843e-05
-3.80927e-08
2.21032e-05
-2.39395e-08
2.21153e-05
-1.53576e-08
2.21249e-05
-1.17651e-08
2.21313e-05
-7.52341e-09
2.21299e-05
1.75597e-09
2.21205e-05
1.24546e-08
2.21057e-05
1.91781e-08
2.20887e-05
2.2227e-08
2.20705e-05
2.36903e-08
2.20513e-05
2.46378e-08
2.2032e-05
2.54755e-08
2.20122e-05
2.5734e-08
2.19918e-05
2.64081e-08
2.19717e-05
2.61499e-08
2.1951e-05
2.70657e-08
2.19307e-05
2.65203e-08
2.19098e-05
2.7082e-08
2.18891e-05
2.67609e-08
2.18684e-05
2.70418e-08
2.18481e-05
2.64285e-08
2.18278e-05
2.6548e-08
2.18073e-05
2.65018e-08
2.1787e-05
2.64778e-08
2.17674e-05
2.5423e-08
2.17477e-05
2.55979e-08
2.17283e-05
2.49245e-08
2.17098e-05
2.45503e-08
2.16908e-05
2.42886e-08
2.16725e-05
2.39099e-08
2.1655e-05
2.26846e-08
2.16377e-05
2.259e-08
2.16206e-05
2.21219e-08
2.1604e-05
2.17374e-08
2.15877e-05
2.10151e-08
2.15721e-05
2.05371e-08
2.15566e-05
1.9853e-08
2.15418e-05
1.93568e-08
2.15274e-05
1.8634e-08
2.15138e-05
1.81942e-08
2.14995e-05
1.84814e-08
2.14858e-05
1.78608e-08
2.14736e-05
1.60292e-08
2.14601e-05
1.74318e-08
2.14482e-05
1.55049e-08
2.14365e-05
1.54544e-08
2.14246e-05
1.50147e-08
2.14141e-05
1.4295e-08
2.1403e-05
1.39279e-08
2.13929e-05
1.34099e-08
2.13827e-05
1.30461e-08
2.1373e-05
1.28502e-08
2.13634e-05
1.21851e-08
2.13544e-05
1.2033e-08
2.13455e-05
1.12895e-08
2.1337e-05
1.14963e-08
2.13292e-05
1.01379e-08
2.13211e-05
1.08268e-08
2.1313e-05
1.02639e-08
2.13056e-05
1.03035e-08
1.28261e-08
-3.66848e-05
-1.96094e-06
-3.49372e-05
-2.88088e-06
-3.22075e-05
-4.50695e-06
-2.76844e-05
-7.48983e-06
-2.02318e-05
-1.23914e-05
-8.68128e-06
-1.92928e-05
7.18239e-06
-2.65788e-05
2.38663e-05
-2.79398e-05
3.54725e-05
-1.93279e-05
4.06844e-05
-8.50108e-06
4.11362e-05
-5.49889e-07
3.95502e-05
2.76217e-06
3.86989e-05
1.41899e-06
3.90387e-05
-5.9961e-07
3.97146e-05
-1.14803e-06
4.03736e-05
-1.10897e-06
4.09396e-05
-9.47298e-07
4.14169e-05
-7.95183e-07
4.18122e-05
-6.57404e-07
4.21316e-05
-5.28993e-07
4.23838e-05
-4.15917e-07
4.25799e-05
-3.23401e-07
4.2733e-05
-2.5007e-07
4.28491e-05
-1.89955e-07
4.29364e-05
-1.41698e-07
4.29995e-05
-1.01209e-07
4.30413e-05
-6.57143e-08
4.30701e-05
-4.4114e-08
4.30921e-05
-3.37807e-08
4.31068e-05
-2.21801e-08
4.3109e-05
-4.03854e-10
4.30935e-05
2.80267e-08
4.30684e-05
4.43144e-08
4.30371e-05
5.35835e-08
4.30026e-05
5.81906e-08
4.29681e-05
5.90837e-08
4.2932e-05
6.17679e-08
4.28945e-05
6.33046e-08
4.28568e-05
6.42043e-08
4.2819e-05
6.39106e-08
4.27814e-05
6.48013e-08
4.27422e-05
6.56597e-08
4.27038e-05
6.55503e-08
4.26657e-05
6.49495e-08
4.26269e-05
6.59495e-08
4.25882e-05
6.51422e-08
4.25491e-05
6.57109e-08
4.25115e-05
6.404e-08
4.24744e-05
6.38009e-08
4.24363e-05
6.34242e-08
4.23997e-05
6.23034e-08
4.23638e-05
6.07832e-08
4.23279e-05
6.06731e-08
4.22933e-05
5.88433e-08
4.22589e-05
5.84624e-08
4.22254e-05
5.60617e-08
4.21926e-05
5.55832e-08
4.21603e-05
5.44729e-08
4.21289e-05
5.32132e-08
4.20982e-05
5.16837e-08
4.20677e-05
5.11343e-08
4.20395e-05
4.79931e-08
4.20116e-05
4.74485e-08
4.19844e-05
4.58316e-08
4.19577e-05
4.50958e-08
4.19314e-05
4.48322e-08
4.19059e-05
4.35166e-08
4.18809e-05
4.09718e-08
4.18578e-05
4.07826e-08
4.18343e-05
3.89476e-08
4.18119e-05
3.79765e-08
4.17905e-05
3.6384e-08
4.17687e-05
3.63429e-08
4.17485e-05
3.40317e-08
4.17284e-05
3.36603e-08
4.17103e-05
3.1021e-08
4.16913e-05
3.20541e-08
4.16735e-05
2.99192e-08
4.16568e-05
2.8924e-08
4.16403e-05
2.77268e-08
4.1624e-05
2.80535e-08
4.16075e-05
2.65623e-08
4.15932e-05
2.53685e-08
4.1578e-05
2.53767e-08
4.15629e-05
2.57154e-08
3.09375e-08
-5.93401e-05
-3.93868e-06
-5.64352e-05
-5.78579e-06
-5.1901e-05
-9.0412e-06
-4.44233e-05
-1.49675e-05
-3.2211e-05
-2.46036e-05
-1.34792e-05
-3.80247e-05
1.20556e-05
-5.21145e-05
3.88428e-05
-5.47262e-05
5.75851e-05
-3.80713e-05
6.61749e-05
-1.70898e-05
6.70509e-05
-1.42586e-06
6.44772e-05
5.33582e-06
6.29325e-05
2.96363e-06
6.33199e-05
-9.86927e-07
6.43299e-05
-2.15805e-06
6.53594e-05
-2.13847e-06
6.62633e-05
-1.85124e-06
6.7036e-05
-1.56779e-06
6.76842e-05
-1.30569e-06
6.82143e-05
-1.05906e-06
6.86377e-05
-8.3929e-07
6.89714e-05
-6.57093e-07
6.92315e-05
-5.10167e-07
6.94349e-05
-3.93331e-07
6.95902e-05
-2.97003e-07
6.97027e-05
-2.13687e-07
6.97833e-05
-1.46303e-07
6.98403e-05
-1.01045e-07
6.9887e-05
-8.05362e-08
6.99209e-05
-5.59895e-08
6.993e-05
-9.47911e-09
6.99131e-05
4.49857e-08
6.98762e-05
8.12608e-08
6.98304e-05
9.944e-08
6.97788e-05
1.09876e-07
6.9725e-05
1.12875e-07
6.96707e-05
1.16249e-07
6.96139e-05
1.20105e-07
6.95564e-05
1.21847e-07
6.94981e-05
1.22114e-07
6.94384e-05
1.24686e-07
6.9379e-05
1.25001e-07
6.93198e-05
1.2486e-07
6.92596e-05
1.25233e-07
6.92006e-05
1.25076e-07
6.91406e-05
1.25166e-07
6.90815e-05
1.24882e-07
6.90219e-05
1.23564e-07
6.89632e-05
1.22724e-07
6.89053e-05
1.21315e-07
6.8848e-05
1.19684e-07
6.87917e-05
1.17061e-07
6.87359e-05
1.16647e-07
6.86806e-05
1.14159e-07
6.8627e-05
1.12108e-07
6.85748e-05
1.08292e-07
6.85245e-05
1.06032e-07
6.84739e-05
1.0512e-07
6.8424e-05
1.03144e-07
6.83762e-05
9.94521e-08
6.83307e-05
9.68269e-08
6.82846e-05
9.39797e-08
6.82408e-05
9.15127e-08
6.81974e-05
8.91508e-08
6.81558e-05
8.70283e-08
6.81155e-05
8.51767e-08
6.80751e-05
8.40883e-08
6.80359e-05
8.01292e-08
6.79987e-05
7.82052e-08
6.79622e-05
7.54329e-08
6.79274e-05
7.28523e-08
6.78934e-05
7.04246e-08
6.78605e-05
6.94089e-08
6.78285e-05
6.58959e-08
6.77976e-05
6.47266e-08
6.77681e-05
6.05014e-08
6.77376e-05
6.27339e-08
6.77097e-05
5.77437e-08
6.76826e-05
5.62915e-08
6.76567e-05
5.35582e-08
6.76315e-05
5.34883e-08
6.7607e-05
5.09872e-08
6.75816e-05
5.09525e-08
6.75582e-05
4.87517e-08
6.75359e-05
4.83884e-08
6.1592e-08
-8.7273e-05
-6.94482e-06
-8.2846e-05
-1.02128e-05
-7.59244e-05
-1.59628e-05
-6.4563e-05
-2.63289e-05
-4.61981e-05
-4.29685e-05
-1.83632e-05
-6.58598e-05
1.92278e-05
-8.97062e-05
5.84587e-05
-9.39564e-05
8.59659e-05
-6.55795e-05
9.86897e-05
-2.98126e-05
9.99568e-05
-2.69286e-06
9.58992e-05
9.39339e-06
9.31585e-05
5.70428e-06
9.3351e-05
-1.1794e-06
9.46493e-05
-3.45627e-06
9.60805e-05
-3.56973e-06
9.73812e-05
-3.15194e-06
9.85181e-05
-2.70469e-06
9.94918e-05
-2.27942e-06
0.0001003
-1.8676e-06
0.000100954
-1.49275e-06
0.000101476
-1.17888e-06
0.000101891
-9.2595e-07
0.000102218
-7.19634e-07
0.000102471
-5.50184e-07
0.000102664
-4.06905e-07
0.000102804
-2.8647e-07
0.000102911
-2.07585e-07
0.000102997
-1.66981e-07
0.000103065
-1.23755e-07
0.000103097
-4.17294e-08
0.000103086
5.70222e-08
0.000103039
1.27831e-07
0.000102979
1.59669e-07
0.000102911
1.77523e-07
0.000102838
1.85867e-07
0.000102762
1.92604e-07
0.000102684
1.98359e-07
0.000102603
2.02671e-07
0.000102522
2.03161e-07
0.000102442
2.05113e-07
0.000102358
2.08746e-07
0.000102274
2.0894e-07
0.000102192
2.07395e-07
0.000102108
2.08929e-07
0.000102025
2.081e-07
0.00010194
2.0974e-07
0.000101858
2.05989e-07
0.000101776
2.04446e-07
0.000101695
2.03132e-07
0.000101614
2.00037e-07
0.000101534
1.97149e-07
0.000101457
1.94322e-07
0.00010138
1.91085e-07
0.000101304
1.88375e-07
0.00010123
1.82105e-07
0.000101157
1.7893e-07
0.000101087
1.7572e-07
0.000101017
1.72535e-07
0.000100949
1.67597e-07
0.000100881
1.6477e-07
0.000100818
1.56837e-07
0.000100756
1.54015e-07
0.000100696
1.49145e-07
0.000100637
1.46545e-07
0.000100579
1.42932e-07
0.000100522
1.41437e-07
0.000100468
1.34524e-07
0.000100414
1.3207e-07
0.000100362
1.27626e-07
0.000100312
1.22915e-07
0.000100263
1.1873e-07
0.000100216
1.1734e-07
0.00010017
1.11041e-07
0.000100126
1.08888e-07
0.000100083
1.03841e-07
0.000100044
1.01804e-07
0.000100004
9.81819e-08
9.9965e-05
9.51549e-08
9.99265e-05
9.20616e-08
9.98902e-05
9.00442e-08
9.98536e-05
8.7469e-08
9.98212e-05
8.36144e-08
9.97867e-05
8.31854e-08
9.97538e-05
8.16101e-08
1.04073e-07
-0.000120768
-1.12813e-05
-0.00011435
-1.66303e-05
-0.000104295
-2.60184e-05
-8.78772e-05
-4.27465e-05
-6.16591e-05
-6.91866e-05
-2.24697e-05
-0.000105049
2.98445e-05
-0.000142021
8.40173e-05
-0.000148128
0.000121987
-0.00010355
0.000139586
-4.74115e-05
0.000141071
-4.17774e-06
0.000134775
1.569e-05
0.000130035
1.04443e-05
0.000129553
-6.97401e-07
0.000130965
-4.8685e-06
0.000132775
-5.37966e-06
0.000134508
-4.88486e-06
0.000136077
-4.27362e-06
0.000137453
-3.656e-06
0.00013862
-3.03426e-06
0.000139582
-2.45428e-06
0.000140361
-1.95852e-06
0.000140989
-1.55364e-06
0.00014149
-1.22046e-06
0.00014189
-9.5022e-07
0.0001422
-7.16699e-07
0.000142436
-5.22799e-07
0.000142619
-3.90756e-07
0.000142773
-3.21208e-07
0.000142895
-2.45711e-07
0.000142966
-1.12163e-07
0.000142973
4.9963e-08
0.000142932
1.69171e-07
0.000142863
2.28987e-07
0.000142778
2.62401e-07
0.000142687
2.77052e-07
0.00014259
2.89375e-07
0.000142489
2.99427e-07
0.000142386
3.05672e-07
0.000142281
3.08211e-07
0.000142175
3.11642e-07
0.000142069
3.14819e-07
0.00014196
3.17302e-07
0.000141854
3.1411e-07
0.000141744
3.18206e-07
0.000141635
3.17632e-07
0.000141527
3.17948e-07
0.000141419
3.13571e-07
0.00014131
3.13725e-07
0.000141204
3.08946e-07
0.000141097
3.07911e-07
0.000140994
2.99769e-07
0.000140891
2.97987e-07
0.000140788
2.93578e-07
0.000140689
2.8755e-07
0.000140592
2.79328e-07
0.000140496
2.74875e-07
0.000140402
2.69443e-07
0.00014031
2.64968e-07
0.00014022
2.57451e-07
0.000140133
2.51468e-07
0.000140046
2.43886e-07
0.000139964
2.36484e-07
0.000139884
2.29168e-07
0.000139807
2.24254e-07
0.000139729
2.20685e-07
0.000139654
2.16514e-07
0.000139581
2.07281e-07
0.000139511
2.02776e-07
0.000139441
1.97348e-07
0.000139375
1.8891e-07
0.00013931
1.83659e-07
0.000139249
1.79404e-07
0.000139187
1.73016e-07
0.000139128
1.67145e-07
0.000139072
1.60306e-07
0.000139016
1.57917e-07
0.000138962
1.52242e-07
0.000138912
1.45609e-07
0.000138863
1.40479e-07
0.000138813
1.4052e-07
0.000138766
1.34046e-07
0.000138721
1.2915e-07
0.000138674
1.30319e-07
0.000138631
1.25243e-07
1.61799e-07
-0.000159963
-1.73423e-05
-0.000150946
-2.56477e-05
-0.000136785
-4.0179e-05
-0.000113829
-6.57025e-05
-7.77111e-05
-0.000105305
-2.4579e-05
-0.000158182
4.53381e-05
-0.000211939
0.000117005
-0.000219794
0.000167158
-0.000153704
0.000190382
-7.06344e-05
0.000191805
-5.60128e-06
0.000182261
2.52342e-05
0.000174343
1.83623e-05
0.000172373
1.27253e-06
0.000173516
-6.01138e-06
0.000175572
-7.43549e-06
0.000177725
-7.03782e-06
0.000179769
-6.3177e-06
0.000181627
-5.51403e-06
0.000183244
-4.65187e-06
0.000184604
-3.8135e-06
0.000185729
-3.08401e-06
0.000186649
-2.47364e-06
0.000187399
-1.97021e-06
0.000188002
-1.55366e-06
0.000188488
-1.2023e-06
0.000188866
-9.01117e-07
0.000189173
-6.973e-07
0.000189431
-5.7903e-07
0.000189642
-4.57345e-07
0.000189782
-2.5131e-07
0.000189828
3.27344e-09
0.000189807
1.90624e-07
0.000189739
2.97583e-07
0.000189646
3.55107e-07
0.000189537
3.86284e-07
0.00018942
4.05914e-07
0.000189299
4.21168e-07
0.000189174
4.29939e-07
0.000189047
4.3603e-07
0.000188919
4.39778e-07
0.000188787
4.46352e-07
0.000188655
4.49357e-07
0.00018852
4.48962e-07
0.000188387
4.51881e-07
0.000188253
4.51454e-07
0.000188117
4.54476e-07
0.000187982
4.4863e-07
0.000187849
4.46135e-07
0.000187716
4.42077e-07
0.000187584
4.3997e-07
0.000187453
4.31077e-07
0.000187324
4.26662e-07
0.000187198
4.20044e-07
0.000187071
4.14166e-07
0.000186949
4.02269e-07
0.00018683
3.93531e-07
0.000186712
3.87602e-07
0.000186597
3.80082e-07
0.000186483
3.71303e-07
0.000186372
3.62487e-07
0.000186266
3.50344e-07
0.000186162
3.40675e-07
0.00018606
3.31202e-07
0.000185963
3.21503e-07
0.000185864
3.19113e-07
0.00018577
3.1138e-07
0.000185676
3.00605e-07
0.000185587
2.92356e-07
0.000185501
2.83076e-07
0.000185416
2.74343e-07
0.000185336
2.63764e-07
0.000185256
2.59842e-07
0.00018518
2.48598e-07
0.000185106
2.41427e-07
0.000185035
2.3076e-07
0.000184963
2.30143e-07
0.000184897
2.1817e-07
0.00018483
2.13478e-07
0.000184768
2.02391e-07
0.000184705
2.03149e-07
0.000184644
1.9594e-07
0.000184586
1.86996e-07
0.00018453
1.86386e-07
0.000184472
1.8296e-07
2.33115e-07
-0.000204845
-2.56541e-05
-0.000192409
-3.80836e-05
-0.000172862
-5.97267e-05
-0.000141514
-9.70507e-05
-9.30756e-05
-0.000153743
-2.31188e-05
-0.000228139
6.7358e-05
-0.000302417
0.000158991
-0.000311426
0.000223048
-0.000217762
0.000252716
-0.000100302
0.000253789
-6.67434e-06
0.000239792
3.92318e-05
0.000227127
3.10267e-05
0.000222408
5.99171e-06
0.000222585
-6.18857e-06
0.00022457
-9.42073e-06
0.000227028
-9.49556e-06
0.000229546
-8.8357e-06
0.000231947
-7.91505e-06
0.000234111
-6.81603e-06
0.00023598
-5.68222e-06
0.000237556
-4.65995e-06
0.000238871
-3.78903e-06
0.000239957
-3.05587e-06
0.000240855
-2.4519e-06
0.000241586
-1.93281e-06
0.000242178
-1.49328e-06
0.000242664
-1.18329e-06
0.00024308
-9.94709e-07
0.00024343
-8.07369e-07
0.000243681
-5.02572e-07
0.000243809
-1.24457e-07
0.000243828
1.71357e-07
0.000243784
3.4254e-07
0.000243692
4.46659e-07
0.000243577
5.01723e-07
0.000243449
5.33951e-07
0.000243311
5.59466e-07
0.000243164
5.76815e-07
0.000243016
5.84403e-07
0.000242865
5.90103e-07
0.000242712
6.00079e-07
0.000242556
6.04716e-07
0.000242401
6.0492e-07
0.000242243
6.09593e-07
0.000242083
6.1159e-07
0.000241923
6.13995e-07
0.000241766
6.06565e-07
0.000241605
6.07304e-07
0.000241444
6.02414e-07
0.000241288
5.96059e-07
0.000241131
5.8806e-07
0.000240978
5.79925e-07
0.000240825
5.73167e-07
0.000240675
5.64591e-07
0.000240529
5.48483e-07
0.000240384
5.38619e-07
0.000240242
5.29189e-07
0.000240101
5.21362e-07
0.000239966
5.06403e-07
0.000239832
4.96411e-07
0.000239704
4.78955e-07
0.000239577
4.67764e-07
0.000239454
4.53604e-07
0.000239334
4.42545e-07
0.000239218
4.34962e-07
0.000239101
4.28079e-07
0.000238991
4.11432e-07
0.000238881
4.02656e-07
0.000238775
3.88332e-07
0.000238673
3.76645e-07
0.000238575
3.62309e-07
0.000238477
3.57858e-07
0.000238381
3.44295e-07
0.000238292
3.30585e-07
0.000238203
3.19438e-07
0.00023812
3.1357e-07
0.000238035
3.0291e-07
0.00023796
2.89554e-07
0.00023788
2.82393e-07
0.000237805
2.77841e-07
0.00023773
2.70865e-07
0.00023766
2.57123e-07
0.000237588
2.59223e-07
0.000237522
2.48418e-07
3.24918e-07
-0.000255211
-3.69485e-05
-0.00023824
-5.50548e-05
-0.000211634
-8.6332e-05
-0.000169613
-0.000139072
-0.000106095
-0.000217261
-1.62658e-05
-0.000317968
9.7606e-05
-0.000416289
0.000211471
-0.000425291
0.00029117
-0.000297461
0.000328288
-0.00013742
0.000328866
-7.25196e-06
0.000309164
5.89341e-05
0.000289847
5.03435e-05
0.000280602
1.52369e-05
0.000278654
-4.24112e-06
0.000279953
-1.07193e-05
0.000282424
-1.19665e-05
0.000285308
-1.17202e-05
0.000288268
-1.08747e-05
0.000291058
-9.60625e-06
0.000293548
-8.17228e-06
0.000295704
-6.81528e-06
0.00029754
-5.62504e-06
0.00029909
-4.60639e-06
0.000300389
-3.75089e-06
0.000301474
-3.01777e-06
0.00030237
-2.38895e-06
0.000303122
-1.9354e-06
0.000303774
-1.64628e-06
0.000304324
-1.35728e-06
0.000304748
-9.27387e-07
0.00030501
-3.85542e-07
0.000305121
5.95435e-08
0.000305128
3.36128e-07
0.000305066
5.08367e-07
0.000304962
6.06247e-07
0.000304829
6.67111e-07
0.000304681
7.07681e-07
0.000304522
7.35238e-07
0.000304358
7.48905e-07
0.000304188
7.60586e-07
0.000304015
7.72904e-07
0.00030384
7.80099e-07
0.000303663
7.81413e-07
0.000303485
7.87743e-07
0.000303304
7.92363e-07
0.000303123
7.9529e-07
0.000302939
7.90783e-07
0.000302758
7.88418e-07
0.000302577
7.83575e-07
0.000302392
7.81045e-07
0.000302214
7.66646e-07
0.000302035
7.58905e-07
0.00030186
7.4836e-07
0.000301685
7.39668e-07
0.000301515
7.18185e-07
0.000301348
7.05374e-07
0.000301182
6.95529e-07
0.00030102
6.83554e-07
0.000300861
6.65218e-07
0.000300704
6.53424e-07
0.000300553
6.29934e-07
0.000300406
6.14951e-07
0.000300262
5.98232e-07
0.000300125
5.79489e-07
0.000299989
5.71219e-07
0.000299853
5.6455e-07
0.000299721
5.43586e-07
0.000299594
5.29569e-07
0.000299468
5.14814e-07
0.000299348
4.96499e-07
0.000299232
4.78648e-07
0.000299119
4.70298e-07
0.000299009
4.54398e-07
0.0002989
4.39646e-07
0.000298799
4.20404e-07
0.000298697
4.15876e-07
0.0002986
3.99866e-07
0.000298505
3.84493e-07
0.000298414
3.73728e-07
0.000298326
3.66747e-07
0.000298239
3.5783e-07
0.000298152
3.44312e-07
0.000298068
3.42982e-07
0.00029799
3.26534e-07
4.2866e-07
-0.000310617
-5.22451e-05
-0.000287592
-7.80801e-05
-0.000251791
-0.000122133
-0.000196397
-0.000194466
-0.000114834
-0.000298824
-2.18452e-06
-0.000430617
0.000137585
-0.000556059
0.000275709
-0.000563415
0.000372888
-0.00039464
0.000418782
-0.000183314
0.000419038
-7.50837e-06
0.000392534
8.5438e-05
0.000364488
7.83902e-05
0.000348432
3.12926e-05
0.000342615
1.57565e-06
0.000342159
-1.02633e-05
0.000344044
-1.38509e-05
0.000347008
-1.46847e-05
0.000350428
-1.42944e-05
0.000353871
-1.30491e-05
0.000357079
-1.13808e-05
0.000359948
-9.68431e-06
0.000362455
-8.13215e-06
0.000364615
-6.76634e-06
0.000366467
-5.60242e-06
0.00036804
-4.59085e-06
0.000369366
-3.7154e-06
0.000370499
-3.06751e-06
0.000371485
-2.63299e-06
0.00037234
-2.21208e-06
0.000373027
-1.6141e-06
0.000373502
-8.60148e-07
0.000373778
-2.16226e-07
0.000373893
2.21326e-07
0.000373897
5.03883e-07
0.000373831
6.72096e-07
0.000373717
7.81471e-07
0.000373573
8.52349e-07
0.000373409
8.99187e-07
0.000373237
9.20379e-07
0.000373057
9.40635e-07
0.000372872
9.58741e-07
0.000372681
9.71075e-07
0.00037249
9.72094e-07
0.000372296
9.82001e-07
0.000372099
9.89458e-07
0.000371898
9.96991e-07
0.000371698
9.9045e-07
0.000371498
9.88418e-07
0.000371296
9.85466e-07
0.000371095
9.82397e-07
0.000370894
9.67311e-07
0.000370699
9.5483e-07
0.000370502
9.45463e-07
0.000370306
9.3573e-07
0.000370114
9.10141e-07
0.000369928
8.90982e-07
0.000369744
8.79766e-07
0.000369561
8.66996e-07
0.000369381
8.44842e-07
0.000369206
8.29212e-07
0.000369034
8.0189e-07
0.000368868
7.81386e-07
0.000368707
7.5877e-07
0.000368548
7.39434e-07
0.000368393
7.2578e-07
0.00036824
7.18199e-07
0.000368092
6.91845e-07
0.000367946
6.74858e-07
0.000367805
6.56226e-07
0.000367667
6.35165e-07
0.000367535
6.10823e-07
0.000367404
6.01411e-07
0.000367277
5.81381e-07
0.000367156
5.60276e-07
0.000367039
5.37621e-07
0.000366923
5.31968e-07
0.000366809
5.13452e-07
0.000366701
4.93325e-07
0.0003666
4.7478e-07
0.000366493
4.73861e-07
0.000366392
4.59155e-07
0.000366296
4.40199e-07
0.000366196
4.43024e-07
0.000366107
4.1655e-07
5.47023e-07
-0.000370287
-7.29688e-05
-0.000339198
-0.000109169
-0.000291581
-0.00016975
-0.000219843
-0.000266204
-0.000117358
-0.000401308
2.06182e-05
-0.000568594
0.000188348
-0.000723789
0.000352651
-0.000727717
0.000469395
-0.000511385
0.000525823
-0.000239741
0.0005264
-8.08631e-06
0.000492344
0.000119495
0.000453573
0.000117162
0.000428069
5.67963e-05
0.000416016
1.36284e-05
0.000412119
-6.3662e-06
0.000412354
-1.40863e-05
0.000414777
-1.71072e-05
0.00041835
-1.7867e-05
0.000422349
-1.70483e-05
0.000426309
-1.5341e-05
0.000430008
-1.33828e-05
0.00043334
-1.14645e-05
0.000436287
-9.7133e-06
0.000438864
-8.17922e-06
0.000441098
-6.82547e-06
0.000443026
-5.64255e-06
0.00044469
-4.73227e-06
0.000446154
-4.0966e-06
0.000447442
-3.50033e-06
0.000448521
-2.69229e-06
0.000449331
-1.67001e-06
0.000449864
-7.49269e-07
0.000450183
-9.77247e-08
0.000450323
3.6371e-07
0.000450346
6.49538e-07
0.000450288
8.39834e-07
0.000450177
9.62982e-07
0.000450031
1.04536e-06
0.000449865
1.08643e-06
0.000449682
1.12338e-06
0.000449493
1.14826e-06
0.000449296
1.16787e-06
0.000449095
1.17391e-06
0.000448894
1.18295e-06
0.000448687
1.19628e-06
0.000448478
1.20627e-06
0.000448264
1.20497e-06
0.000448052
1.20029e-06
0.000447837
1.19992e-06
0.000447622
1.19765e-06
0.000447408
1.18117e-06
0.000447194
1.16902e-06
0.000446983
1.15695e-06
0.000446776
1.14299e-06
0.000446569
1.11704e-06
0.000446368
1.09226e-06
0.000446167
1.08068e-06
0.000445972
1.06214e-06
0.000445775
1.04188e-06
0.000445584
1.02088e-06
0.000445398
9.87767e-07
0.000445216
9.63533e-07
0.000445036
9.38679e-07
0.000444865
9.10545e-07
0.000444696
8.94742e-07
0.000444531
8.83866e-07
0.000444364
8.58717e-07
0.000444205
8.3448e-07
0.00044405
8.11468e-07
0.000443897
7.87894e-07
0.000443749
7.59156e-07
0.000443607
7.43135e-07
0.000443467
7.21211e-07
0.000443332
6.96154e-07
0.000443199
6.70182e-07
0.000443072
6.59377e-07
0.000442946
6.39741e-07
0.000442827
6.11927e-07
0.000442708
5.94438e-07
0.000442595
5.87131e-07
0.00044248
5.73905e-07
0.00044237
5.50964e-07
0.000442259
5.53589e-07
0.000442157
5.18627e-07
6.73521e-07
-0.000433033
-0.000101021
-0.000391349
-0.000150853
-0.000328943
-0.000232156
-0.000237965
-0.000357183
-0.000112166
-0.000527107
5.29837e-05
-0.000733744
0.000250389
-0.000921195
0.000442933
-0.00092026
0.000581718
-0.000650171
0.00065099
-0.000309013
0.000653111
-1.02069e-05
0.000611222
0.000161384
0.000560048
0.000168335
0.000522427
9.44175e-05
0.000501279
3.47768e-05
0.00049156
3.35301e-06
0.000488433
-1.09601e-05
0.000489185
-1.78593e-05
0.000492241
-2.09226e-05
0.000496449
-2.12564e-05
0.000501043
-1.99354e-05
0.00050559
-1.79292e-05
0.000509871
-1.57462e-05
0.000513778
-1.36197e-05
0.000517282
-1.1683e-05
0.00052039
-9.93376e-06
0.000523118
-8.37018e-06
0.000525517
-7.1311e-06
0.00052765
-6.2299e-06
0.000529547
-5.39694e-06
0.000531182
-4.32708e-06
0.000532496
-2.98389e-06
0.000533455
-1.70856e-06
0.000534097
-7.39698e-07
0.000534492
-3.12317e-08
0.000534692
4.49996e-07
0.000534755
7.7741e-07
0.000534724
9.93409e-07
0.000534634
1.13546e-06
0.000534495
1.22575e-06
0.000534333
1.28522e-06
0.000534151
1.33036e-06
0.000533962
1.35778e-06
0.000533763
1.3724e-06
0.000533559
1.38771e-06
0.000533352
1.40336e-06
0.000533139
1.41863e-06
0.000532925
1.41912e-06
0.000532707
1.41877e-06
0.000532489
1.41813e-06
0.000532271
1.41544e-06
0.000532053
1.39998e-06
0.000531834
1.38802e-06
0.000531618
1.3729e-06
0.000531402
1.35885e-06
0.000531189
1.33043e-06
0.000530979
1.30223e-06
0.000530776
1.28401e-06
0.000530568
1.27017e-06
0.000530367
1.2433e-06
0.000530169
1.21901e-06
0.00052997
1.18623e-06
0.000529778
1.15597e-06
0.000529592
1.12505e-06
0.000529411
1.09166e-06
0.000529229
1.07678e-06
0.000529051
1.06225e-06
0.000528881
1.02901e-06
0.000528709
1.00652e-06
0.000528542
9.78468e-07
0.00052838
9.50677e-07
0.000528224
9.15504e-07
0.000528071
8.95874e-07
0.000527921
8.70818e-07
0.000527774
8.4367e-07
0.000527635
8.09769e-07
0.000527497
7.97389e-07
0.000527364
7.73051e-07
0.00052723
7.45581e-07
0.000527105
7.19582e-07
0.000526979
7.14065e-07
0.000526852
7.0062e-07
0.000526732
6.71388e-07
0.000526607
6.78114e-07
0.000526499
6.27301e-07
8.01174e-07
-0.000497193
-0.000138862
-0.000441976
-0.00020607
-0.000361908
-0.000312225
-0.000249331
-0.000469759
-9.85814e-05
-0.000677856
9.49966e-05
-0.000927322
0.000323708
-0.00114991
0.000546918
-0.00114347
0.000710746
-0.000813999
0.000795839
-0.000394105
0.000801413
-1.57809e-05
0.000751933
0.000210864
0.000687103
0.000233166
0.000634972
0.000146549
0.000601739
6.80096e-05
0.00058326
2.18315e-05
0.00057432
-2.01981e-06
0.000571581
-1.51202e-05
0.000572877
-2.22192e-05
0.000576519
-2.48983e-05
0.000581322
-2.47382e-05
0.000586557
-2.3164e-05
0.000591785
-2.0974e-05
0.000596765
-1.85999e-05
0.000601375
-1.6293e-05
0.000605574
-1.41329e-05
0.000609343
-1.21392e-05
0.000612719
-1.05061e-05
0.000615755
-9.26652e-06
0.000618494
-8.13589e-06
0.000620914
-6.74648e-06
0.000622953
-5.02248e-06
0.000624552
-3.30787e-06
0.000625721
-1.90879e-06
0.000626538
-8.48222e-07
0.000627064
-7.5247e-08
0.000627357
4.84445e-07
0.000627499
8.5106e-07
0.000627526
1.1094e-06
0.000627472
1.27909e-06
0.000627361
1.39722e-06
0.000627211
1.48015e-06
0.000627042
1.52676e-06
0.000626859
1.55572e-06
0.000626668
1.57893e-06
0.000626469
1.60226e-06
0.000626265
1.62229e-06
0.000626058
1.62655e-06
0.000625852
1.62539e-06
0.00062564
1.63007e-06
0.000625427
1.62865e-06
0.000625214
1.61282e-06
0.000625002
1.60047e-06
0.00062479
1.58435e-06
0.00062458
1.56963e-06
0.000624374
1.53604e-06
0.000624173
1.50408e-06
0.000623968
1.48876e-06
0.00062377
1.46854e-06
0.000623569
1.44423e-06
0.00062337
1.41775e-06
0.000623175
1.3819e-06
0.000622983
1.34779e-06
0.000622793
1.31494e-06
0.000622609
1.27641e-06
0.000622431
1.25516e-06
0.000622254
1.23963e-06
0.000622073
1.21008e-06
0.000621903
1.17688e-06
0.000621734
1.14707e-06
0.000621569
1.11643e-06
0.00062141
1.07441e-06
0.000621249
1.05682e-06
0.000621095
1.02497e-06
0.000620947
9.91853e-07
0.000620799
9.57206e-07
0.000620656
9.40932e-07
0.000620515
9.14715e-07
0.000620377
8.82986e-07
0.000620242
8.55329e-07
0.000620111
8.45275e-07
0.000619983
8.28823e-07
0.000619855
7.99575e-07
0.000619723
8.10448e-07
0.000619604
7.46486e-07
9.30615e-07
-0.000560781
-0.000189342
-0.000489132
-0.000277719
-0.000389161
-0.000412196
-0.000253491
-0.00060543
-7.68666e-05
-0.00085448
0.000146087
-0.00115028
0.000407926
-0.00141175
0.000664719
-0.00140026
0.000857191
-0.00100647
0.000961856
-0.00049877
0.000973663
-2.75875e-05
0.000917414
0.000267113
0.000838015
0.000312564
0.000769413
0.000215151
0.000721412
0.000116011
0.000691084
5.21592e-05
0.000673305
1.576e-05
0.000664487
-6.30262e-06
0.000662025
-1.97577e-05
0.000663684
-2.65565e-05
0.000667763
-2.88178e-05
0.000673127
-2.85274e-05
0.000679048
-2.68959e-05
0.00068505
-2.46017e-05
0.000690853
-2.2096e-05
0.000696314
-1.95934e-05
0.000701356
-1.71816e-05
0.000705967
-1.51167e-05
0.000710184
-1.34831e-05
0.00071404
-1.19919e-05
0.000717524
-1.0231e-05
0.00072058
-8.07815e-06
0.0007231
-5.82732e-06
0.000725073
-3.88206e-06
0.000726573
-2.34779e-06
0.000727645
-1.1467e-06
0.000728358
-2.28958e-07
0.000728811
3.98592e-07
0.000729082
8.3824e-07
0.000729192
1.1692e-06
0.000729196
1.39332e-06
0.000729129
1.54775e-06
0.000729012
1.64348e-06
0.000728871
1.69759e-06
0.000728708
1.74197e-06
0.000728535
1.77471e-06
0.000728352
1.80593e-06
0.000728165
1.81321e-06
0.000727974
1.81722e-06
0.000727782
1.82154e-06
0.000727593
1.81837e-06
0.000727399
1.80661e-06
0.000727209
1.79095e-06
0.000727019
1.77495e-06
0.000726831
1.75755e-06
0.000726643
1.72427e-06
0.000726459
1.68763e-06
0.000726279
1.66958e-06
0.000726096
1.65158e-06
0.000725917
1.62336e-06
0.000725732
1.60281e-06
0.000725552
1.56164e-06
0.000725374
1.52642e-06
0.000725196
1.49293e-06
0.000725021
1.45185e-06
0.000724851
1.42562e-06
0.00072468
1.41034e-06
0.000724518
1.37273e-06
0.000724354
1.34157e-06
0.000724193
1.30806e-06
0.000724033
1.27621e-06
0.000723877
1.23028e-06
0.000723726
1.20886e-06
0.000723573
1.17733e-06
0.000723425
1.14015e-06
0.000723283
1.0997e-06
0.00072314
1.08391e-06
0.000723003
1.05157e-06
0.000722865
1.02116e-06
0.000722735
9.86204e-07
0.000722602
9.78104e-07
0.000722468
9.63061e-07
0.000722335
9.32573e-07
0.000722203
9.43396e-07
0.000722079
8.71088e-07
1.05159e-06
-0.000621848
-0.000255339
-0.000531718
-0.000367848
-0.000410531
-0.000533384
-0.000251102
-0.000764859
-4.80707e-05
-0.00105751
0.000205228