/*--------------------------------*- C++ -*----------------------------------*\
| =========                 |                                                 |
| \\      /  F ield         | OpenFOAM: The Open Source CFD Toolbox           |
|  \\    /   O peration     | Version:  2412                                  |
|   \\  /    A nd           | Website:  www.openfoam.com                      |
|    \\/     M anipulation  |                                                 |
\*---------------------------------------------------------------------------*/
FoamFile
{
    version     2.0;
    format      ascii;
    arch        "LSB;label=32;scalar=64";
    class       volVectorField;
    location    "100";
    object      U;
}
// * * * * * * * * * * * * * * * * * * * * * * * * * * * * * * * * * * * * * //

dimensions      [0 1 -1 0 0 0 0];

internalField   nonuniform List<vector> 
7418
(
(-0.07958 -0.327176 0)
(-0.28551 -0.583232 -3.30127e-20)
(-0.145252 -0.170873 -6.37756e-20)
(-0.110145 -0.0828542 -6.37087e-20)
(-0.340356 -0.171732 5.73321e-20)
(-0.227193 -0.0689106 4.50497e-20)
(0.447036 0.0562211 1.57314e-20)
(0.989203 0.0114908 -1.78304e-24)
(1.02872 -0.04875 0)
(0.828484 -0.0430795 1.99264e-20)
(0.725984 -0.0310502 -1.21591e-24)
(0.671322 -0.0237779 9.49262e-21)
(0.644416 -0.0196092 8.88999e-21)
(0.643084 -0.0181752 -8.20244e-21)
(0.660856 -0.0194925 7.5553e-21)
(0.677473 -0.0223327 0)
(0.682981 -0.0245158 2.72e-27)
(0.681709 -0.0257731 2.50456e-20)
(0.67281 -0.0258853 0)
(0.6616 -0.0250073 2.21736e-20)
(0.65491 -0.0241525 0)
(0.65272 -0.0237312 0)
(0.654183 -0.0237735 -3.52151e-20)
(0.656855 -0.0241763 4.12005e-27)
(0.658379 -0.0245442 4.57665e-25)
(0.658909 -0.0247751 -1.39544e-20)
(0.659091 -0.0248772 0)
(0.659874 -0.0249767 -3.61574e-25)
(0.661382 -0.0251494 2.20339e-20)
(0.663295 -0.0253882 2.03513e-20)
(0.665277 -0.025653 2.84775e-25)
(0.667252 -0.025915 -1.73832e-20)
(0.669316 -0.0261811 0)
(0.671522 -0.0264647 -2.24772e-25)
(0.673864 -0.0267703 -5.49826e-20)
(0.676281 -0.0270966 -5.08863e-20)
(0.678746 -0.0274372 0)
(0.68126 -0.0277947 0)
(0.683808 -0.0281675 0)
(0.686377 -0.0285591 0)
(0.688961 -0.0289665 3.48516e-20)
(0.691559 -0.0293918 -1.22196e-25)
(0.694158 -0.0298345 -3.00993e-20)
(0.69675 -0.0302947 0)
(0.699329 -0.0307723 -5.21576e-20)
(0.701888 -0.0312684 0)
(0.704433 -0.0317817 0)
(0.706953 -0.0323139 0)
(0.709428 -0.0328632 -3.95857e-20)
(0.711852 -0.033429 6.66745e-26)
(0.714255 -0.0340129 6.9395e-20)
(0.716612 -0.0346154 6.5078e-20)
(0.718926 -0.0352345 -6.11015e-20)
(0.721195 -0.0358731 -1.2351e-27)
(0.723401 -0.0365277 -1.03163e-25)
(0.725569 -0.0372008 9.72335e-26)
(0.727687 -0.0378921 -9.17729e-26)
(0.729751 -0.0386008 4.3824e-26)
(0.731748 -0.039326 -8.60672e-20)
(0.733676 -0.0400671 -1.63194e-19)
(0.735551 -0.0408256 -1.17584e-26)
(0.737386 -0.0416029 -1.47398e-19)
(0.739145 -0.0423971 7.02214e-20)
(0.740835 -0.043207 -1.34054e-19)
(0.742477 -0.044034 -9.25894e-27)
(0.744061 -0.0448782 6.1406e-20)
(0.745587 -0.0457407 1.17882e-19)
(0.747044 -0.0466206 0)
(0.748427 -0.0475169 0)
(0.749757 -0.0484317 -1.05509e-19)
(0.751022 -0.0493653 1.02085e-19)
(0.752211 -0.0503169 -9.89792e-20)
(0.753341 -0.0512882 -2.49177e-28)
(0.754394 -0.0522789 -5.72e-26)
(0.7554 -0.0532912 -5.71758e-26)
(0.756395 -0.0543301 4.26781e-26)
(0.757318 -0.0553922 0)
(0.758179 -0.0564785 0)
(0.758986 -0.057591 4.04869e-26)
(0.759717 -0.058731 -3.97992e-26)
(0.76038 -0.0598998 -1.65287e-19)
(-0.0603906 0.582971 1.58289e-20)
(0.0747274 0.603433 0)
(-0.237454 -0.901081 0)
(-0.832671 -1.68369 5.39512e-20)
(-0.472122 -0.568227 -5.20365e-23)
(-0.349963 -0.263736 1.03906e-19)
(-0.977225 -0.49348 -9.36458e-20)
(-0.554305 -0.180353 1.98354e-23)
(1.49535 0.174495 -2.55083e-20)
(3.02418 0.0294262 2.8938e-24)
(3.10405 -0.145558 0)
(2.54481 -0.128898 -1.6281e-20)
(2.25478 -0.0947434 -3.86313e-24)
(2.09973 -0.0735291 1.89251e-24)
(2.02498 -0.0613137 -1.78819e-24)
(2.02346 -0.0573513 0)
(2.07468 -0.0615211 1.51022e-24)
(2.12135 -0.0701246 -1.41882e-24)
(2.13608 -0.0767029 1.6721e-26)
(2.13096 -0.0804903 -4.11613e-20)
(2.10441 -0.080829 0)
(2.072 -0.078202 -1.82362e-20)
(2.05288 -0.0756475 1.69633e-20)
(2.04691 -0.0744137 1.57014e-20)
(2.05139 -0.0745709 -2.13163e-26)
(2.0592 -0.0758127 -5.36029e-20)
(2.06367 -0.0769425 7.38695e-27)
(2.06533 -0.0776589 2.29845e-20)
(2.06609 -0.0779876 -6.45038e-25)
(2.06866 -0.0783089 1.19967e-24)
(2.07337 -0.0788523 -3.63112e-20)
(2.07926 -0.0795998 -3.35429e-20)
(2.08535 -0.0804223 3.09997e-20)
(2.09145 -0.0812416 2.86578e-20)
(2.09782 -0.0820706 4.07795e-25)
(2.10465 -0.0829553 0)
(2.11187 -0.0839098 4.53411e-20)
(2.11932 -0.084925 4.19684e-20)
(2.12691 -0.0859882 0)
(2.13466 -0.0871005 7.20319e-20)
(2.14251 -0.0882644 6.6787e-20)
(2.15043 -0.0894832 -6.19645e-20)
(2.15841 -0.0907555 -5.75305e-20)
(2.16641 -0.0920817 0)
(2.17442 -0.0934613 4.97043e-20)
(2.18241 -0.0948971 1.78478e-25)
(2.19036 -0.0963871 -5.81679e-26)
(2.19825 -0.0979333 0)
(2.2061 -0.099536 0)
(2.21386 -0.101195 0)
(2.22151 -0.102909 -1.23489e-25)
(2.22902 -0.104677 6.12805e-20)
(2.23643 -0.1065 -1.14847e-19)
(2.24371 -0.10838 4.11163e-25)
(2.25085 -0.110315 -1.9526e-25)
(2.25785 -0.112307 0)
(2.26469 -0.114353 0)
(2.27137 -0.116455 0)
(2.2779 -0.118613 0)
(2.28427 -0.120825 0)
(2.29045 -0.123091 -1.42923e-19)
(2.29642 -0.125407 2.71141e-19)
(2.30221 -0.127777 1.28802e-19)
(2.30786 -0.130204 1.22576e-19)
(2.31331 -0.132685 -1.16857e-19)
(2.31856 -0.135218 2.2321e-19)
(2.32364 -0.137802 2.13566e-19)
(2.32852 -0.140439 -1.02355e-19)
(2.33323 -0.143134 0)
(2.33774 -0.145883 0)
(2.34204 -0.148686 -8.65805e-26)
(2.34613 -0.151544 8.44583e-26)
(2.35002 -0.15446 -1.70643e-19)
(2.35371 -0.157436 0)
(2.3572 -0.160472 1.60991e-19)
(2.36046 -0.163569 1.56855e-19)
(2.36357 -0.166733 1.53126e-19)
(2.36663 -0.169979 -1.49821e-19)
(2.36947 -0.173298 1.40169e-25)
(2.37211 -0.176693 -6.88121e-26)
(2.37459 -0.18017 0)
(2.37685 -0.183733 0)
(2.37887 -0.187385 0)
(-0.177286 1.71361 -2.60753e-20)
(0.197082 1.68964 2.43622e-25)
(-0.412246 -1.39584 0)
(-1.36536 -2.75615 5.95077e-23)
(-0.85631 -1.0496 -1.15912e-19)
(-0.631254 -0.474518 5.54686e-23)
(-1.59135 -0.80415 -5.26786e-23)
(-0.725903 -0.265725 0)
(2.79415 0.301408 6.74654e-24)
(5.2302 0.0396839 3.20395e-21)
(5.30608 -0.245412 1.69272e-20)
(4.42379 -0.218505 -4.17662e-24)
(3.95991 -0.16363 -4.4568e-24)
(3.71159 -0.128642 4.22706e-24)
(3.59453 -0.108443 -1.97729e-24)
(3.59587 -0.102175 1.86501e-24)
(3.67924 -0.109564 -1.39221e-20)
(3.7532 -0.124334 0)
(3.7753 -0.135599 -1.22417e-20)
(3.76454 -0.142061 2.31247e-20)
(3.71985 -0.14265 2.65705e-24)
(3.66694 -0.138216 0)
(3.63614 -0.133909 -1.90821e-20)
(3.62703 -0.131855 -1.76739e-20)
(3.63484 -0.132167 -3.32636e-26)
(3.64779 -0.134332 6.03564e-20)
(3.65526 -0.1363 3.41222e-24)
(3.65821 -0.13756 2.58911e-20)
(3.65991 -0.138157 0)
(3.66467 -0.138742 4.43063e-20)
(3.67298 -0.139708 0)
(3.6832 -0.141027 -2.71632e-26)
(3.6938 -0.142474 -3.49541e-20)
(3.70444 -0.14392 -3.23183e-20)
(3.71556 -0.14538 5.97703e-20)
(3.72748 -0.14694 -8.36244e-25)
(3.74005 -0.148622 -5.11491e-20)
(3.753 -0.150409 -7.29486e-25)
(3.7662 -0.152283 6.62857e-25)
(3.77966 -0.15424 -8.12841e-20)
(3.79329 -0.156291 -1.50743e-19)
(3.80707 -0.158435 6.99345e-20)
(3.82095 -0.160678 -5.64097e-26)
(3.83485 -0.163014 -4.55496e-25)
(3.84878 -0.165444 4.32927e-25)
(3.86268 -0.167974 -1.0444e-19)
(3.87651 -0.170601 1.94565e-19)
(3.89024 -0.173326 0)
(3.90387 -0.176151 0)
(3.91735 -0.179074 0)
(3.93067 -0.182096 7.3926e-20)
(3.94376 -0.185215 5.28156e-25)
(3.95665 -0.18843 2.59385e-19)
(3.96933 -0.191744 1.21673e-19)
(3.98175 -0.195158 1.14285e-19)
(3.99394 -0.19867 -2.07358e-25)
(4.00586 -0.202281 -1.91019e-25)
(4.0175 -0.205989 3.64217e-25)
(4.02885 -0.209796 -9.01193e-20)
(4.03993 -0.213699 1.60965e-25)
(4.05069 -0.217697 3.22865e-19)
(4.06112 -0.221785 -1.53132e-19)
(4.07121 -0.225968 1.4549e-19)
(4.08103 -0.23025 1.38459e-19)
(4.09053 -0.234629 1.32e-19)
(4.09969 -0.2391 -1.26069e-19)
(4.10853 -0.243661 -1.20623e-19)
(4.11703 -0.248316 -1.15624e-19)
(4.12523 -0.253072 2.22085e-19)
(4.1331 -0.257927 1.02531e-25)
(4.14059 -0.262876 9.78067e-26)
(4.1477 -0.267921 -1.99121e-19)
(4.15447 -0.273069 0)
(4.16093 -0.278324 0)
(4.16701 -0.283685 -1.81872e-19)
(4.17271 -0.289154 -1.772e-19)
(4.1781 -0.294742 -8.24176e-26)
(4.18338 -0.300471 1.69255e-19)
(4.18828 -0.30633 7.91531e-26)
(4.19284 -0.312321 0)
(4.19711 -0.318459 0)
(4.20102 -0.324751 0)
(4.20446 -0.331195 -3.13584e-19)
(-0.280641 2.8469 -2.84765e-23)
(0.283847 2.67628 -1.0773e-24)
(-0.602533 -1.77452 3.4873e-23)
(-1.86182 -3.7533 1.3408e-19)
(-1.29437 -1.61445 1.27968e-19)
(-0.963331 -0.723927 0)
(-2.15597 -1.0929 -1.17867e-19)
(-0.671394 -0.313869 2.95005e-23)
(4.38259 0.434998 3.08265e-20)
(7.59436 0.0410301 -3.51531e-21)
(7.61856 -0.346307 -1.14483e-24)
(6.47012 -0.311362 -5.00479e-24)
(5.8557 -0.237882 2.0088e-20)
(5.52671 -0.189617 -1.93675e-20)
(5.37584 -0.16164 0)
(5.38341 -0.153388 0)
(5.49573 -0.164362 1.54984e-20)
(5.59229 -0.185646 7.09353e-24)
(5.61903 -0.201843 -6.67358e-24)
(5.60068 -0.211124 6.30161e-24)
(5.53806 -0.21202 -5.94838e-24)
(5.46644 -0.205765 5.58355e-24)
(5.4254 -0.199682 -2.13328e-20)
(5.41418 -0.196822 -4.82307e-24)
(5.42559 -0.19734 3.65075e-20)
(5.44352 -0.200513 -3.37772e-20)
(5.45395 -0.203397 1.9009e-24)
(5.45841 -0.205264 -2.90022e-20)
(5.46147 -0.206178 0)
(5.46887 -0.207075 -4.96514e-20)
(5.48117 -0.208523 -4.58805e-20)
(5.49608 -0.210478 8.47994e-20)
(5.51152 -0.212623 0)
(5.52707 -0.214764 3.62499e-20)
(5.54334 -0.216931 1.10483e-24)
(5.56075 -0.219244 -9.38332e-25)
(5.57905 -0.221734 8.17442e-25)
(5.5979 -0.224381 -8.0349e-25)
(5.6171 -0.227153 7.5866e-25)
(5.63667 -0.230052 6.8945e-25)
(5.6565 -0.233086 8.46255e-20)
(5.67655 -0.236265 -5.93045e-25)
(5.69674 -0.239585 7.29227e-20)
(5.71697 -0.243044 5.11562e-25)
(5.73721 -0.246645 6.30197e-20)
(5.75743 -0.250392 1.1731e-19)
(5.77756 -0.254285 -2.18556e-19)
(5.79754 -0.258325 3.84396e-25)
(5.81737 -0.262511 -3.66988e-25)
(5.83698 -0.266845 0)
(5.85636 -0.271324 -8.30569e-20)
(5.87541 -0.275949 -3.00098e-25)
(5.89418 -0.280718 -1.45721e-19)
(5.91264 -0.285634 -1.36714e-19)
(5.93076 -0.290698 -1.28418e-19)
(5.94852 -0.29591 0)
(5.96589 -0.301266 1.13731e-19)
(5.98285 -0.306771 2.0683e-25)
(5.99939 -0.312419 1.01271e-19)
(6.01553 -0.318213 0)
(6.0312 -0.324145 5.80862e-25)
(6.04642 -0.330214 -1.65753e-25)
(6.06115 -0.336426 3.91429e-25)
(6.07548 -0.342783 -1.55603e-19)
(6.0893 -0.349285 0)
(6.10265 -0.355922 0)
(6.11554 -0.362696 -1.35561e-19)
(6.12795 -0.369609 2.59886e-19)
(6.1399 -0.376672 -2.49589e-19)
(6.15136 -0.383882 0)
(6.16226 -0.391231 0)
(6.17262 -0.398724 2.23782e-19)
(6.18249 -0.406372 -2.16649e-19)
(6.19189 -0.414179 2.10179e-19)
(6.20078 -0.422146 9.62028e-28)
(6.20911 -0.430274 1.99146e-19)
(6.21692 -0.438572 0)
(6.22454 -0.44708 -1.81389e-25)
(6.2316 -0.45578 3.55925e-25)
(6.23817 -0.464678 -1.83344e-19)
(6.2443 -0.473792 3.6116e-19)
(6.24987 -0.483135 3.56422e-19)
(6.25474 -0.492702 -1.59696e-24)
(-0.367376 3.93613 0)
(0.312678 3.48437 -4.29732e-20)
(-0.801229 -2.00194 4.71839e-20)
(-2.29903 -4.62629 1.87957e-22)
(-1.77015 -2.24302 0)
(-1.35155 -1.01885 1.44865e-19)
(-2.63886 -1.34837 2.63036e-19)
(-0.309504 -0.305512 -4.14212e-23)
(6.28442 0.573237 -3.24632e-20)
(10.0867 0.0329514 3.74536e-21)
(10.0185 -0.446416 -2.00937e-20)
(8.68111 -0.407194 5.41085e-24)
(7.94979 -0.317673 -4.37014e-20)
(7.55885 -0.256898 6.41195e-24)
(7.3856 -0.221461 1.99217e-20)
(7.40227 -0.211502 0)
(7.53788 -0.226336 4.13733e-24)
(7.65028 -0.254427 -7.15093e-27)
(7.67807 -0.275789 -3.65713e-24)
(7.65027 -0.288046 2.83679e-20)
(7.57099 -0.289365 0)
(7.48378 -0.281336 0)
(7.43486 -0.273489 4.70385e-20)
(7.42283 -0.26985 2.64549e-24)
(7.43802 -0.270618 -2.47602e-24)
(7.46049 -0.274881 3.73048e-20)
(7.47374 -0.278759 3.45794e-20)
(7.47993 -0.281303 0)
(7.48483 -0.28259 -2.97016e-20)
(7.49532 -0.283849 1.688e-24)
(7.51191 -0.285833 1.01572e-19)
(7.53173 -0.288491 -4.69478e-20)
(7.55222 -0.291402 0)
(7.57291 -0.294311 -4.01617e-20)
(7.59459 -0.297256 -7.43106e-20)
(7.61771 -0.300396 0)
(7.64198 -0.303774 8.49031e-25)
(7.66694 -0.307364 -9.07861e-25)
(7.69236 -0.311123 0)
(7.71825 -0.315054 0)
(7.74452 -0.31917 7.0906e-25)
(7.77107 -0.323483 -1.38853e-26)
(7.79778 -0.327987 -8.09059e-20)
(7.82455 -0.332682 -5.67609e-25)
(7.85134 -0.337569 6.86805e-25)
(7.87809 -0.342655 0)
(7.90474 -0.34794 1.21272e-19)
(7.93121 -0.353426 1.13074e-19)
(7.95747 -0.359112 0)
(7.98343 -0.365 -7.43786e-25)
(8.00909 -0.371086 7.1164e-25)
(8.03435 -0.377371 8.62951e-20)
(8.05923 -0.383854 -1.61741e-19)
(8.0837 -0.390537 0)
(8.10774 -0.397423 0)
(8.13128 -0.404511 -5.05904e-25)
(8.15431 -0.411796 -1.26232e-19)
(8.17681 -0.419282 -1.19033e-19)
(8.19876 -0.426969 -4.24477e-25)
(8.22017 -0.434849 4.09788e-25)
(8.24095 -0.442922 1.04593e-24)
(8.26115 -0.451181 1.90993e-19)
(8.28072 -0.459636 6.3171e-25)
(8.29972 -0.468288 -1.72692e-19)
(8.31806 -0.477138 0)
(8.33577 -0.486174 1.57235e-19)
(8.35287 -0.495395 1.5044e-19)
(8.36934 -0.504809 -1.44203e-19)
(8.38518 -0.514425 2.76975e-19)
(8.40035 -0.524241 -2.55737e-25)
(8.41481 -0.534248 0)
(8.42855 -0.544454 2.35841e-25)
(8.44162 -0.55487 2.40402e-19)
(8.45407 -0.565503 -2.33219e-19)
(8.4659 -0.576359 -2.26799e-19)
(8.47698 -0.587435 2.11199e-25)
(8.48724 -0.598737 2.15715e-19)
(8.49722 -0.610321 0)
(8.50647 -0.622168 0)
(8.51505 -0.634286 2.03426e-19)
(8.52301 -0.646695 -4.00717e-19)
(8.53019 -0.659413 -7.90916e-19)
(8.53636 -0.672433 3.91011e-19)
(-0.435904 4.95499 0)
(0.268363 4.02631 4.6023e-20)
(-1.00678 -2.0677 -4.85571e-20)
(-2.66294 -5.3295 -1.6315e-19)
(-2.25037 -2.89612 -1.51738e-19)
(-1.79394 -1.35873 -1.60545e-19)
(-3 -1.55612 -2.90512e-19)
(0.452808 -0.226035 -1.52993e-22)
(8.49419 0.711216 2.24339e-23)
(12.6543 0.0155261 -3.87837e-21)
(12.4705 -0.544098 5.46191e-24)
(11.0348 -0.505095 2.26809e-20)
(10.2298 -0.40248 2.30484e-20)
(9.8014 -0.330293 2.24021e-20)
(9.61915 -0.28784 -2.11756e-20)
(9.64642 -0.276391 4.83812e-24)
(9.79703 -0.295224 0)
(9.91671 -0.330297 -4.14641e-24)
(9.94143 -0.356994 3.90775e-24)
(9.90295 -0.37239 -3.0347e-20)
(9.80978 -0.374315 0)
(9.71155 -0.36464 0)
(9.65786 -0.355089 -5.05014e-20)
(9.64653 -0.350713 0)
(9.66538 -0.351766 0)
(9.69159 -0.35718 2.02519e-25)
(9.70732 -0.362118 1.3958e-25)
(9.71538 -0.365406 0)
(9.72258 -0.367118 6.40478e-20)
(9.73647 -0.368786 3.6422e-24)
(9.75741 -0.371353 -1.0963e-19)
(9.78205 -0.374766 0)
(9.80748 -0.378497 0)
(9.83327 -0.382231 4.33958e-20)
(9.86029 -0.386011 8.0314e-20)
(9.88903 -0.390035 0)
(9.91914 -0.394365 6.88124e-20)
(9.9501 -0.398963 6.37306e-20)
(9.98161 -0.40378 1.82013e-24)
(10.0137 -0.408816 0)
(10.0462 -0.414092 0)
(10.0791 -0.419617 0)
(10.1122 -0.425391 8.75488e-20)
(10.1454 -0.43141 1.25543e-24)
(10.1786 -0.43768 -7.56794e-20)
(10.2117 -0.444203 -1.08723e-24)
(10.2448 -0.450985 0)
(10.2776 -0.458026 -2.44756e-19)
(10.3101 -0.465326 1.14208e-19)
(10.3423 -0.472885 8.23601e-25)
(10.3741 -0.480702 9.97645e-20)
(10.4055 -0.488776 -9.33878e-20)
(10.4364 -0.497107 3.50056e-19)
(10.4667 -0.505697 1.64203e-19)
(10.4966 -0.514548 -1.54229e-19)
(10.5258 -0.523658 0)
(10.5544 -0.533027 0)
(10.5823 -0.542655 -1.08976e-25)
(10.6096 -0.552541 -4.68901e-25)
(10.6362 -0.56268 4.34347e-25)
(10.662 -0.573065 -2.1779e-19)
(10.6871 -0.583693 -2.06575e-19)
(10.7114 -0.594573 -1.96253e-19)
(10.735 -0.605711 3.73514e-19)
(10.7578 -0.617102 -1.78033e-19)
(10.7798 -0.628734 -1.70019e-19)
(10.801 -0.640606 0)
(10.8215 -0.652725 0)
(10.8411 -0.665108 -5.98884e-19)
(10.8599 -0.677747 0)
(10.8779 -0.690635 2.7783e-19)
(10.8949 -0.703781 2.68425e-19)
(10.9111 -0.717197 -2.59852e-19)
(10.9265 -0.730897 2.52076e-19)
(10.9412 -0.744888 2.45123e-19)
(10.955 -0.759164 -4.54781e-25)
(10.9676 -0.773723 -4.66253e-19)
(10.9798 -0.788642 0)
(10.9911 -0.803902 0)
(11.0016 -0.819512 -2.19834e-19)
(11.0112 -0.835496 -8.26192e-25)
(11.0198 -0.851875 4.2735e-19)
(11.0271 -0.868639 -8.06282e-25)
(-0.485394 5.85892 3.7548e-20)
(0.154049 4.26611 4.77229e-20)
(-1.22282 -2.00017 4.79655e-20)
(-2.94862 -5.83692 -1.97301e-22)
(-2.6868 -3.51434 1.61387e-19)
(-2.27102 -1.73441 0)
(-3.18512 -1.70852 1.57568e-19)
(1.71011 -0.0603816 1.01107e-19)
(10.9618 0.839969 3.22585e-20)
(15.2191 -0.0101453 -4.49275e-24)
(14.9175 -0.636182 4.4636e-24)
(13.4715 -0.602684 -4.5457e-20)
(12.6411 -0.490226 -2.31964e-20)
(12.2025 -0.40813 0)
(12.0245 -0.359293 -1.07121e-20)
(12.0619 -0.346536 -1.98947e-20)
(12.2178 -0.369336 0)
(12.3357 -0.411349 1.72951e-20)
(12.3536 -0.443412 0)
(12.3045 -0.462072 0)
(12.2015 -0.464829 0)
(12.0978 -0.453722 0)
(12.0428 -0.442595 6.59752e-24)
(12.0335 -0.437541 -5.91154e-24)
(12.0555 -0.438895 -5.41368e-24)
(12.0843 -0.445479 -4.13374e-20)
(12.1019 -0.451512 2.42028e-25)
(12.1118 -0.455584 4.32742e-24)
(12.1214 -0.457759 -3.30513e-20)
(12.1387 -0.459862 -6.12142e-20)
(12.1636 -0.463034 5.66318e-20)
(12.1925 -0.46722 5.23944e-20)
(12.2223 -0.471795 0)
(12.2526 -0.476373 0)
(12.2844 -0.481009 -8.30989e-20)
(12.3181 -0.48594 2.36873e-24)
(12.3534 -0.491243 -7.12331e-20)
(12.3896 -0.496874 2.33822e-24)
(12.4265 -0.502773 0)
(12.4641 -0.508941 -1.71345e-24)
(12.5022 -0.515405 1.62194e-24)
(12.5406 -0.522175 9.76391e-20)
(12.5794 -0.529253 0)
(12.6182 -0.536634 0)
(12.6571 -0.544323 0)
(12.6959 -0.552327 0)
(12.7345 -0.56065 1.35946e-19)
(12.773 -0.569294 1.26747e-19)
(12.8111 -0.578259 -1.1828e-19)
(12.8488 -0.587545 0)
(12.8861 -0.59715 -1.03305e-19)
(12.9229 -0.607074 7.29554e-25)
(12.9591 -0.617316 -3.62404e-19)
(12.9947 -0.627878 -1.69976e-19)
(13.0297 -0.638764 -1.64131e-24)
(13.064 -0.649972 5.79197e-25)
(13.0976 -0.661501 -1.4133e-19)
(13.1304 -0.67335 -1.43502e-24)
(13.1624 -0.685519 4.85108e-25)
(13.1936 -0.698002 0)
(13.2239 -0.710789 2.25265e-19)
(13.2533 -0.723878 0)
(13.2819 -0.73728 -7.67373e-25)
(13.3096 -0.751 -1.93097e-19)
(13.3363 -0.765035 -2.20242e-24)
(13.3621 -0.77937 6.75998e-25)
(13.387 -0.794 -1.68135e-19)
(13.411 -0.808939 -1.61138e-19)
(13.434 -0.824202 3.09453e-19)
(13.4561 -0.839783 0)
(13.4771 -0.855673 -2.87072e-19)
(13.497 -0.871884 -2.77334e-19)
(13.5159 -0.88843 2.68458e-19)
(13.534 -0.90533 -2.60407e-19)
(13.5513 -0.922595 -2.5321e-19)
(13.5675 -0.940215 -4.71534e-25)
(13.5821 -0.958174 4.81594e-19)
(13.5962 -0.976578 -2.35589e-19)
(13.6093 -0.995404 -4.40683e-25)
(13.6213 -1.01466 2.27063e-19)
(13.6323 -1.03438 -4.47287e-19)
(13.6421 -1.05459 -4.41436e-19)
(13.6502 -1.07527 4.15224e-25)
(-0.517344 6.57943 -3.97746e-20)
(-0.0245117 4.26123 -4.74717e-20)
(-1.45822 -1.86081 -1.33928e-19)
(-3.14538 -6.1421 -3.64024e-22)
(-3.04033 -4.03383 -1.13119e-23)
(-2.743 -2.12711 1.43881e-24)
(-3.12299 -1.78663 -1.64931e-19)
(3.52008 0.194495 -1.87639e-19)
(13.5869 0.944377 -5.97728e-20)
(17.6797 -0.0421564 8.5791e-24)
(17.2727 -0.718615 -1.38619e-23)
(15.8807 -0.695239 2.1534e-20)
(15.0677 -0.576462 2.19926e-20)
(14.6426 -0.486467 0)
(14.4791 -0.432222 2.03963e-20)
(14.525 -0.418407 1.8967e-20)
(14.6779 -0.444959 -1.75925e-20)
(14.787 -0.49352 1.83166e-23)
(14.7956 -0.530717 -7.6795e-24)
(14.7372 -0.552625 0)
(14.6289 -0.556408 -6.9378e-24)
(14.5245 -0.544153 -2.67585e-20)
(14.4713 -0.531657 2.50198e-20)
(14.4647 -0.526013 6.48223e-26)
(14.4888 -0.527663 1.05294e-23)
(14.5188 -0.535373 -5.08489e-26)
(14.5374 -0.542469 -4.1866e-24)
(14.5487 -0.547319 3.45414e-20)
(14.5605 -0.549961 0)
(14.5805 -0.552493 1.18758e-19)
(14.6085 -0.556246 5.49663e-20)
(14.6406 -0.561174 -5.08785e-20)
(14.6736 -0.566556 0)
(14.7073 -0.571946 0)
(14.7427 -0.577401 0)
(14.7802 -0.5832 0)
(14.8194 -0.589433 -4.94898e-25)
(14.8596 -0.596054 -6.4177e-20)
(14.9006 -0.60299 1.79814e-24)
(14.9422 -0.610246 -1.10318e-19)
(14.9845 -0.617849 1.02343e-19)
(15.0272 -0.62582 -9.50003e-20)
(15.0702 -0.634153 -8.82399e-20)
(15.1134 -0.642846 0)
(15.1565 -0.651905 7.62755e-20)
(15.1997 -0.661341 1.41997e-19)
(15.2427 -0.671155 -1.32267e-19)
(15.2854 -0.681352 -1.90365e-24)
(15.3278 -0.69193 1.15069e-19)
(15.3698 -0.702892 0)
(15.4113 -0.714235 -1.00482e-19)
(15.4522 -0.725957 9.40412e-20)
(15.4925 -0.738057 -2.99359e-24)
(15.5322 -0.75054 1.27577e-24)
(15.5712 -0.76341 1.55205e-19)
(15.6094 -0.776664 0)
(15.6468 -0.790299 -2.44948e-24)
(15.6833 -0.804318 1.29502e-19)
(15.719 -0.818718 0)
(15.7538 -0.83349 -1.15576e-19)
(15.7876 -0.848629 -2.1886e-19)
(15.8204 -0.864126 -2.07546e-19)
(15.8522 -0.879997 0)
(15.8832 -0.896249 0)
(15.913 -0.912876 3.57508e-19)
(15.9418 -0.929861 -6.56462e-25)
(15.9695 -0.947199 1.63261e-19)
(15.9963 -0.964905 3.12914e-19)
(16.0219 -0.982999 3.00453e-19)
(16.0465 -1.00147 2.89073e-19)
(16.0699 -1.02032 -5.29069e-25)
(16.0921 -1.03954 1.02743e-24)
(16.1132 -1.05917 -2.60615e-19)
(16.1334 -1.07922 4.839e-25)
(16.1527 -1.09972 2.45792e-19)
(16.1708 -1.12064 -4.55989e-25)
(16.187 -1.14195 -2.33753e-19)
(16.2026 -1.1638 2.28714e-19)
(16.217 -1.18615 4.28109e-25)
(16.2303 -1.20902 2.20483e-19)
(16.2425 -1.23244 -6.69005e-24)
(16.2531 -1.25644 4.28752e-19)
(16.2619 -1.28101 0)
(-0.529801 7.04861 4.18639e-20)
(-0.257248 4.14007 4.41653e-20)
(-1.72122 -1.70664 6.23099e-22)
(-3.25335 -6.21215 -7.74804e-22)
(-3.28915 -4.43673 3.38858e-22)
(-3.16508 -2.5073 0)
(-2.68165 -1.74189 1.59643e-19)
(5.82404 0.513609 8.1334e-20)
(16.2251 1.02536 2.67658e-20)
(19.9269 -0.0777212 -2.75338e-23)
(19.429 -0.786604 0)
(18.1192 -0.776231 -9.61306e-24)
(17.351 -0.655067 9.3461e-24)
(16.9543 -0.55976 0)
(16.811 -0.501558 -1.82416e-20)
(16.8642 -0.487123 0)
(17.0095 -0.517006 3.1612e-20)
(17.106 -0.571267 -1.49562e-20)
(17.1044 -0.612988 0)
(17.0383 -0.637881 2.6986e-20)
(16.9278 -0.642764 1.24638e-23)
(16.8257 -0.629689 1.08707e-24)
(16.7756 -0.616116 -2.26105e-20)
(16.7716 -0.61001 1.03204e-23)
(16.7968 -0.611938 3.89886e-20)
(16.8267 -0.620651 3.61938e-20)
(16.8454 -0.6287 -3.36488e-20)
(16.8573 -0.634258 -7.42223e-24)
(16.8705 -0.637328 0)
(16.8923 -0.640249 -5.38364e-20)
(16.9221 -0.64452 -4.985e-20)
(16.9559 -0.650105 0)
(16.9909 -0.656203 -5.17922e-24)
(17.0266 -0.662313 9.66856e-24)
(17.0642 -0.668495 -7.3352e-20)
(17.1041 -0.675065 0)
(17.1456 -0.682124 -6.80195e-25)
(17.1883 -0.689625 5.83149e-20)
(17.2318 -0.697487 6.40322e-26)
(17.2762 -0.705713 1.00283e-19)
(17.3211 -0.714337 -1.86094e-19)
(17.3666 -0.72338 0)
(17.4123 -0.732839 -9.38728e-25)
(17.4583 -0.742712 7.4587e-20)
(17.5043 -0.753005 -1.25824e-24)
(17.5503 -0.76373 -1.29155e-19)
(17.5961 -0.77489 -1.8159e-24)
(17.6417 -0.786489 3.42465e-24)
(17.687 -0.798526 -1.04683e-19)
(17.7318 -0.811005 0)
(17.7761 -0.823922 1.82833e-19)
(17.8199 -0.837275 -8.55574e-20)
(17.863 -0.851064 -2.21965e-24)
(17.9054 -0.865293 -1.5038e-19)
(17.9471 -0.879967 0)
(17.988 -0.895084 0)
(18.0281 -0.910639 1.24994e-19)
(18.0673 -0.926636 0)
(18.1055 -0.943072 -1.11237e-19)
(18.1428 -0.959938 1.05163e-19)
(18.179 -0.977225 0)
(18.2142 -0.994926 1.88856e-19)
(18.2484 -1.01306 -1.79388e-19)
(18.2816 -1.03163 1.70678e-19)
(18.3136 -1.05063 -1.62677e-19)
(18.3446 -1.07005 5.97455e-25)
(18.3744 -1.08988 -1.48598e-19)
(18.4032 -1.11012 -2.84827e-19)
(18.4308 -1.13082 -5.47007e-19)
(18.4573 -1.15196 -2.63167e-19)
(18.4825 -1.17352 2.53754e-19)
(18.5064 -1.19553 2.45168e-19)
(18.5291 -1.218 2.37341e-19)
(18.5509 -1.24097 8.81496e-25)
(18.5718 -1.26444 8.52257e-25)
(18.5915 -1.28841 -8.33991e-25)
(18.609 -1.31284 8.11869e-25)
(18.626 -1.33788 -2.08466e-19)
(18.6416 -1.36351 1.56074e-24)
(18.6561 -1.38974 -2.01062e-19)
(18.6693 -1.4166 3.96231e-19)
(18.681 -1.44414 7.44775e-25)
(18.6905 -1.47234 7.40837e-25)
(-0.534546 7.26403 -4.26221e-20)
(-0.526164 3.98343 -3.82251e-20)
(-2.01266 -1.56254 6.50355e-20)
(-3.26978 -6.06534 6.83021e-22)
(-3.44545 -4.71209 -6.84362e-22)
(-3.46561 -2.81417 0)
(-1.74072 -1.54993 2.48809e-22)
(8.50296 0.85092 6.85133e-20)
(18.7123 1.06323 -1.08261e-22)
(21.8732 -0.112078 0)
(21.2981 -0.835749 -4.15549e-24)
(20.0742 -0.840409 1.64109e-20)
(19.3634 -0.721203 1.59564e-23)
(19.0023 -0.623583 -1.59434e-23)
(18.8816 -0.563226 1.56481e-20)
(18.9408 -0.548726 -1.45911e-20)
(19.0761 -0.58132 -1.36059e-20)
(19.1581 -0.640035 0)
(19.1459 -0.685344 1.225e-20)
(19.0732 -0.712725 -2.32543e-20)
(18.9618 -0.718665 0)
(18.8631 -0.705133 1.29791e-24)
(18.8165 -0.690849 7.20091e-25)
(18.8144 -0.684452 8.78183e-24)
(18.8398 -0.686631 -7.41701e-24)
(18.8686 -0.696168 -3.11841e-20)
(18.8864 -0.704999 -6.9227e-26)
(18.8982 -0.711154 -6.30253e-24)
(18.9119 -0.714595 0)
(18.9345 -0.717852 -4.64054e-20)
(18.9651 -0.722559 4.29798e-20)
(18.9997 -0.728693 -4.82401e-24)
(19.0354 -0.735388 4.53728e-24)
(19.0722 -0.742099 3.41667e-20)
(19.1109 -0.74889 1.26604e-19)
(19.152 -0.756107 0)
(19.1949 -0.763861 5.43404e-20)
(19.239 -0.772104 -1.00741e-19)
(19.284 -0.780746 -2.82385e-24)
(19.3298 -0.789792 2.67169e-24)
(19.3764 -0.799281 8.04315e-20)
(19.4236 -0.809235 -4.55986e-24)
(19.4711 -0.819652 9.81335e-25)
(19.5188 -0.83053 -6.45208e-20)
(19.5666 -0.841875 -6.00291e-20)
(19.6145 -0.853702 0)
(19.6622 -0.866013 1.57199e-24)
(19.7097 -0.878814 -3.36323e-26)
(19.7569 -0.892105 -2.76787e-24)
(19.8037 -0.905886 2.95856e-26)
(19.85 -0.920157 -7.92105e-20)
(19.8957 -0.934915 -7.41554e-20)
(19.9408 -0.950159 1.38984e-19)
(19.9852 -0.965894 1.30389e-19)
(20.0288 -0.982126 0)
(20.0717 -0.998852 -1.15179e-19)
(20.1137 -1.01607 -1.08455e-19)
(20.1548 -1.03378 -1.54436e-24)
(20.1949 -1.05198 9.65603e-20)
(20.2341 -1.07066 0)
(20.2722 -1.08981 0)
(20.3093 -1.10943 -1.64056e-19)
(20.3453 -1.12952 -4.79463e-24)
(20.3803 -1.15011 -1.48332e-19)
(20.4141 -1.17118 -1.08838e-24)
(20.4468 -1.19272 1.35072e-19)
(20.4784 -1.21471 1.29244e-19)
(20.5088 -1.23718 2.47802e-19)
(20.5381 -1.26016 2.38014e-19)
(20.5662 -1.28362 1.74854e-24)
(20.593 -1.30757 -4.41918e-19)
(20.6185 -1.33201 -2.13546e-19)
(20.6427 -1.35697 7.86111e-25)
(20.666 -1.38249 -7.68278e-25)
(20.6884 -1.40857 1.95199e-19)
(20.7096 -1.43522 0)
(20.7286 -1.4624 0)
(20.747 -1.49025 1.8194e-19)
(20.7641 -1.51877 -3.90499e-28)
(20.7799 -1.54797 6.69562e-25)
(20.7946 -1.57788 3.46303e-19)
(20.8077 -1.60856 -2.93356e-27)
(20.8185 -1.63998 6.44338e-25)
(-0.527327 7.23047 0)
(-0.814262 3.83936 3.07071e-20)
(-2.32655 -1.42661 5.2123e-20)
(-3.2477 -5.80308 -6.8454e-23)
(-3.48217 -4.84097 -6.66995e-22)
(-3.55555 -3.02211 0)
(-0.23326 -1.18752 -1.08569e-19)
(11.3822 1.16075 -5.68648e-20)
(20.8931 1.04889 1.34476e-22)
(23.4846 -0.141456 -4.262e-23)
(22.8531 -0.865445 3.48711e-24)
(21.718 -0.886691 -1.37774e-20)
(21.0693 -0.773697 -1.40488e-20)
(20.7463 -0.676691 5.9585e-26)
(20.6472 -0.615963 -6.6238e-21)
(20.7098 -0.601904 2.47165e-20)
(20.8327 -0.636473 0)
(20.8989 -0.698266 1.09262e-20)
(20.876 -0.746142 -1.03733e-20)
(20.7975 -0.775459 -1.96454e-20)
(20.6862 -0.782393 1.86376e-20)
(20.5916 -0.768783 1.75439e-20)
(20.5484 -0.754178 1.64309e-20)
(20.5478 -0.747676 -1.52862e-20)
(20.5724 -0.750085 7.82215e-24)
(20.5994 -0.760255 -2.63636e-20)
(20.6157 -0.769689 0)
(20.6268 -0.776329 -2.27865e-20)
(20.6406 -0.78009 -5.13224e-24)
(20.6634 -0.783639 7.84362e-20)
(20.6942 -0.788709 -3.63273e-20)
(20.7288 -0.795287 3.36584e-20)
(20.7648 -0.802466 -3.83663e-24)
(20.8019 -0.809667 4.07727e-24)
(20.8411 -0.816958 -5.35586e-20)
(20.8829 -0.824705 5.35201e-26)
(20.9265 -0.83303 2.83377e-24)
(20.9714 -0.841882 4.26555e-20)
(21.0174 -0.851168 -4.87739e-24)
(21.0642 -0.860891 0)
(21.1119 -0.871096 6.81682e-20)
(21.1602 -0.881806 8.07437e-26)
(21.209 -0.89302 5.8865e-20)
(21.258 -0.904734 5.47479e-20)
(21.3072 -0.916957 0)
(21.3565 -0.929704 9.49221e-20)
(21.4057 -0.942978 8.84817e-20)
(21.4548 -0.956785 -8.25494e-20)
(21.5035 -0.971126 2.37992e-24)
(21.5519 -0.986002 7.20392e-20)
(21.5998 -1.00141 0)
(21.6471 -1.01735 -1.62395e-24)
(21.6939 -1.03382 0)
(21.7399 -1.05082 -1.67627e-24)
(21.7853 -1.06837 3.57345e-26)
(21.8298 -1.08645 9.81874e-20)
(21.8736 -1.10507 -3.97675e-24)
(21.9164 -1.12423 2.84977e-26)
(21.9582 -1.14392 1.27124e-24)
(21.9991 -1.16414 1.17805e-24)
(22.0389 -1.18487 -1.13875e-24)
(22.0777 -1.20611 1.40189e-19)
(22.1155 -1.22787 2.66494e-19)
(22.1522 -1.25017 0)
(22.1877 -1.273 1.20997e-19)
(22.2221 -1.29634 -2.31223e-19)
(22.2554 -1.32018 0)
(22.2875 -1.34454 4.30682e-24)
(22.3186 -1.36945 2.03988e-19)
(22.3483 -1.3949 0)
(22.3768 -1.42087 3.79057e-19)
(22.4039 -1.44739 7.02452e-25)
(22.4298 -1.47449 0)
(22.4547 -1.50218 1.72356e-19)
(22.4788 -1.5305 -1.67714e-19)
(22.5016 -1.55945 0)
(22.5224 -1.58898 -1.59824e-19)
(22.5425 -1.61925 -1.5656e-19)
(22.5613 -1.65026 5.86454e-25)
(22.579 -1.68201 1.51297e-19)
(22.5955 -1.71455 -5.96929e-19)
(22.6103 -1.74794 5.61613e-25)
(22.6229 -1.78214 0)
(-0.513748 6.99067 -3.63027e-20)
(-1.13416 3.70618 -1.85264e-22)
(-2.65849 -1.29397 -4.17304e-20)
(-3.22836 -5.50657 0)
(-3.40321 -4.8254 6.40992e-22)
(-3.38766 -3.10842 1.90634e-19)
(1.82889 -0.684716 8.3627e-20)
(14.2722 1.43022 0)
(22.7132 0.984984 0)
(24.7887 -0.163147 2.34998e-21)
(24.135 -0.879493 -1.80007e-23)
(23.0946 -0.917566 -1.3378e-24)
(22.5072 -0.814314 1.19389e-20)
(22.2205 -0.720343 -1.17715e-20)
(22.1393 -0.660688 -5.62119e-21)
(22.2013 -0.647427 -1.05693e-20)
(22.3097 -0.683273 -9.8549e-21)
(22.3598 -0.746925 -9.31596e-21)
(22.3269 -0.796499 0)
(22.2441 -0.827304 1.67171e-20)
(22.1344 -0.835214 1.45437e-23)
(22.0443 -0.821888 -1.49585e-20)
(22.0044 -0.807319 -1.39755e-20)
(22.0047 -0.80088 1.30252e-20)
(22.0281 -0.803505 -2.41307e-20)
(22.0528 -0.814145 4.4864e-20)
(22.0674 -0.824037 0)
(22.0777 -0.831075 0)
(22.0913 -0.835125 8.73827e-24)
(22.1141 -0.838939 -7.56541e-24)
(22.1446 -0.844316 0)
(22.1791 -0.851257 -2.86724e-20)
(22.2149 -0.85883 -2.65612e-20)
(22.252 -0.866432 6.35908e-25)
(22.2915 -0.874134 -4.56479e-20)
(22.3336 -0.882317 4.23131e-20)
(22.3776 -0.891111 -3.9232e-20)
(22.4231 -0.900464 3.6389e-20)
(22.4697 -0.91028 0)
(22.5173 -0.920564 0)
(22.5658 -0.931362 -5.82204e-20)
(22.6151 -0.942698 -5.41121e-20)
(22.6648 -0.954573 0)
(22.715 -0.966984 -4.68143e-20)
(22.7653 -0.979938 -2.63215e-24)
(22.8158 -0.993453 -8.1233e-20)
(22.8663 -1.00753 2.33837e-24)
(22.9167 -1.02218 7.07065e-20)
(22.9668 -1.0374 0)
(23.0166 -1.0532 -6.17611e-20)
(23.066 -1.06956 -1.7446e-24)
(23.1148 -1.08649 5.41618e-20)
(23.1631 -1.10399 1.53322e-24)