/*--------------------------------*- C++ -*----------------------------------*\
| =========                 |                                                 |
| \\      /  F ield         | OpenFOAM: The Open Source CFD Toolbox           |
|  \\    /   O peration     | Version:  2412                                  |
|   \\  /    A nd           | Website:  www.openfoam.com                      |
|    \\/     M anipulation  |                                                 |
\*---------------------------------------------------------------------------*/
FoamFile
{
    version     2.0;
    format      ascii;
    arch        "LSB;label=32;scalar=64";
    class       volVectorField;
    location    "100";
    object      U;
}
// * * * * * * * * * * * * * * * * * * * * * * * * * * * * * * * * * * * * * //

dimensions      [0 1 -1 0 0 0 0];

internalField   nonuniform List<vector> 
7421
(
(0.518459 0.0709427 0)
(0.521057 0.0711507 -2.89006e-26)
(0.523698 0.0713633 -1.08885e-24)
(0.526446 0.0715805 -2.70297e-19)
(0.529302 0.0717991 0)
(0.53222 0.0720098 1.12194e-19)
(0.535189 0.0722187 -1.02095e-19)
(0.538208 0.0724202 0)
(0.541285 0.072618 0)
(0.544403 0.0728059 -5.70312e-25)
(0.547564 0.072987 1.3841e-19)
(0.550763 0.0731573 0)
(0.553997 0.073318 1.12869e-19)
(0.557263 0.0734667 0)
(0.560541 0.0736016 1.82365e-19)
(0.563854 0.0737241 0)
(0.567172 0.0738311 -7.27224e-20)
(0.570519 0.0739246 -1.29071e-19)
(0.573854 0.0739978 1.1393e-19)
(0.577196 0.0740563 -9.99151e-20)
(0.580552 0.0740991 -8.69344e-20)
(0.583909 0.0741223 -7.48996e-20)
(0.587268 0.0741294 -1.13858e-25)
(0.590628 0.0741154 1.09488e-25)
(0.593968 0.0740812 4.37217e-20)
(0.597305 0.0740283 0)
(0.600644 0.0739554 -4.36079e-26)
(0.603971 0.0738606 7.42461e-20)
(0.607291 0.0737462 0)
(0.610585 0.0736104 8.85619e-21)
(0.613888 0.0734549 4.8314e-27)
(0.617182 0.0732783 -3.19824e-20)
(0.62047 0.0730777 -1.313e-27)
(0.623735 0.072856 3.79675e-20)
(0.627005 0.0726154 2.55332e-26)
(0.630274 0.0723516 -2.48252e-26)
(0.633544 0.0720668 3.42616e-26)
(0.636813 0.0717575 -3.33674e-26)
(0.640072 0.0714261 4.21575e-26)
(0.643327 0.0710701 -3.64981e-19)
(0.646558 0.0706867 1.97515e-19)
(0.649737 0.0702718 -4.8246e-26)
(0.652884 0.0698309 2.25887e-19)
(0.656007 0.0693581 5.48613e-26)
(0.659155 0.0688659 2.52447e-19)
(0.662352 0.0683456 2.65196e-19)
(0.665592 0.067801 0)
(0.66886 0.067226 0)
(0.672169 0.0666231 -3.01875e-19)
(0.675515 0.0659864 0)
(0.678907 0.0653181 -7.96132e-26)
(0.682331 0.0646102 1.60763e-25)
(0.685796 0.0638656 -8.11661e-26)
(0.689313 0.0630792 -2.43268e-25)
(0.692876 0.0622482 -3.95608e-27)
(0.696482 0.0613695 7.67814e-19)
(0.700145 0.0604414 3.95767e-19)
(0.703885 0.0594617 -4.07762e-19)
(0.707812 0.0584333 4.1991e-19)
(0.71156 0.0573358 1.05029e-25)
(0.715359 0.0561594 -8.27213e-26)
(0.719273 0.0549158 0)
(0.723259 0.053598 -4.70671e-19)
(0.72731 0.0521997 -9.68089e-19)
(0.731423 0.0507161 4.97742e-19)
(0.735599 0.0491393 5.11788e-19)
(0.739829 0.0474624 -5.26196e-19)
(0.744118 0.0456833 5.40999e-19)
(0.748467 0.0437923 -5.56233e-19)
(0.752868 0.0417826 0)
(0.757314 0.0396465 5.8802e-19)
(0.7618 0.0373792 -6.04628e-19)
(0.766317 0.0349687 -2.07159e-27)
(0.77087 0.0324118 7.5183e-26)
(1.62648 0.222545 -1.47875e-19)
(1.6345 0.223178 1.97328e-24)
(1.64266 0.22383 -1.74802e-24)
(1.65117 0.224497 2.24913e-19)
(1.66 0.225163 0)
(1.66903 0.225812 1.61768e-25)
(1.67823 0.226448 1.69901e-19)
(1.68757 0.227067 -2.35766e-24)
(1.69711 0.227671 1.09304e-24)
(1.70678 0.228249 0)
(1.7166 0.228802 -4.60659e-19)
(1.72653 0.229324 0)
(1.73657 0.229815 1.87829e-19)
(1.74671 0.23027 6.26748e-25)
(1.7569 0.230681 -3.03482e-19)
(1.7672 0.231055 -3.41795e-26)
(1.77752 0.23138 -4.78424e-25)
(1.78793 0.231662 2.14805e-19)
(1.79831 0.231886 -3.4676e-25)
(1.80874 0.232062 3.32089e-25)
(1.81919 0.232187 -1.44702e-19)
(1.82966 0.232254 2.49358e-19)
(1.84012 0.232266 1.06101e-19)
(1.85058 0.232218 1.57109e-25)
(1.86101 0.232103 -1.5123e-25)
(1.87141 0.231931 -9.8859e-26)
(1.88181 0.231693 1.68031e-25)
(1.89218 0.231394 -1.23805e-19)
(1.90256 0.231031 -4.66404e-26)
(1.91284 0.2306 -1.488e-20)
(1.92315 0.230107 0)
(1.93341 0.229545 2.64531e-20)
(1.94367 0.228917 -4.24202e-26)
(1.95389 0.22822 -2.94112e-26)
(1.9641 0.22746 0)
(1.9743 0.226631 -9.56187e-20)
(1.98449 0.225733 -1.10662e-19)
(1.99469 0.224763 1.27285e-25)
(2.00484 0.223721 -1.24066e-25)
(2.01495 0.222598 3.03268e-19)
(2.02494 0.221389 -3.28266e-19)
(2.03478 0.220085 0)
(2.04454 0.218694 -1.546e-24)
(2.05427 0.217216 -3.97908e-19)
(2.06411 0.215667 4.19679e-19)
(2.0741 0.214038 4.40884e-19)
(2.08423 0.21233 -2.27041e-25)
(2.09446 0.21053 -4.81901e-19)
(2.10481 0.208641 5.01898e-19)
(2.11528 0.206647 -2.55468e-25)
(2.12588 0.20455 2.51318e-25)
(2.13658 0.202335 0)
(2.14742 0.2 -5.7998e-19)
(2.1584 0.197534 -5.99352e-19)
(2.16952 0.19493 -1.44234e-25)
(2.18079 0.192179 -6.38326e-19)
(2.19225 0.18927 -6.58048e-19)
(2.20392 0.186196 6.77997e-19)
(2.21615 0.182968 0)
(2.22854 0.179543 0)
(2.24045 0.175863 -1.47881e-18)
(2.2527 0.171967 6.5901e-27)
(2.26517 0.167841 6.6107e-27)
(2.27787 0.163463 -9.71188e-25)
(2.29075 0.158815 2.00598e-25)
(2.30381 0.153875 -1.70139e-18)
(2.31705 0.148625 1.74927e-18)
(2.33048 0.143051 -8.99222e-19)
(2.34409 0.137129 0)
(2.35785 0.130834 0)
(2.37177 0.124147 0)
(2.38581 0.117044 -2.4302e-25)
(2.39995 0.109497 3.67826e-25)
(2.41421 0.101488 -1.24948e-25)
(2.88241 0.394362 1.66903e-19)
(2.89643 0.395457 1.52473e-19)
(2.91073 0.396592 1.56466e-25)
(2.92565 0.397754 1.90702e-24)
(2.94112 0.398909 -5.96649e-26)
(2.95695 0.400038 -2.10844e-19)
(2.97308 0.401143 0)
(2.98948 0.402218 0)
(3.00621 0.403268 0)
(3.02321 0.404276 0)
(3.04045 0.405236 2.60187e-19)
(3.05791 0.406145 0)
(3.07557 0.406998 2.81095e-25)
(3.09341 0.407789 0)
(3.11134 0.408501 1.71442e-19)
(3.12947 0.409151 6.04882e-25)
(3.14764 0.409711 1.36749e-19)
(3.16594 0.410197 -4.81147e-25)
(3.18425 0.410585 0)
(3.20264 0.410887 -3.42221e-25)
(3.22105 0.411096 2.23959e-26)
(3.2395 0.411206 -2.81789e-19)
(3.25794 0.411214 2.36786e-25)
(3.27638 0.41112 0)
(3.29478 0.410914 -8.22819e-20)
(3.31313 0.410596 0)
(3.33147 0.410169 -8.21455e-26)
(3.34976 0.40963 6.99582e-20)
(3.36806 0.408984 4.25108e-20)
(3.38623 0.408214 -2.3193e-26)
(3.40442 0.407336 7.2735e-21)
(3.42253 0.406333 -2.98953e-20)
(3.44063 0.405218 -1.02332e-19)
(3.45868 0.403979 -7.12085e-20)
(3.47669 0.402625 -7.58222e-26)
(3.49467 0.40115 1.43323e-25)
(3.51265 0.399551 1.25064e-19)
(3.53059 0.397825 0)
(3.54842 0.395959 0)
(3.56609 0.393949 0)
(3.5835 0.391777 3.71101e-19)
(3.6006 0.389436 1.81334e-25)
(3.61761 0.386942 -8.4918e-19)
(3.63471 0.384318 4.49961e-19)
(3.65209 0.381568 -4.74582e-19)
(3.66973 0.378686 -4.9856e-19)
(3.68763 0.375659 5.21976e-19)
(3.70569 0.372474 1.08987e-18)
(3.72399 0.36913 -2.7831e-25)
(3.74248 0.3656 -5.89863e-19)
(3.76119 0.361883 -6.11963e-19)
(3.78007 0.357961 3.098e-25)
(3.7992 0.353825 6.55838e-19)
(3.81856 0.349455 -6.77738e-19)
(3.83818 0.344843 -6.99704e-19)
(3.85805 0.33997 3.516e-25)
(3.87826 0.33482 1.48819e-18)
(3.89883 0.329374 0)
(3.92033 0.323656 -7.89486e-19)
(3.94426 0.317773 0)
(3.96535 0.311258 8.35022e-19)
(3.98701 0.304364 -4.02176e-25)
(4.00908 0.297059 -8.83503e-19)
(4.03152 0.28931 1.81711e-18)
(4.05429 0.281079 -9.34211e-19)
(4.07739 0.272335 9.60513e-19)
(4.10081 0.263044 7.14029e-25)
(4.12455 0.253175 0)
(4.14859 0.242693 0)
(4.17293 0.231549 0)
(4.19753 0.219714 -2.6689e-25)
(4.22236 0.20714 2.66568e-25)
(4.24737 0.193783 0)
(4.27257 0.179608 0)
(4.30284 0.588653 1.87717e-19)
(4.32349 0.590251 0)
(4.3446 0.591914 -3.13169e-19)
(4.36663 0.593615 2.85708e-19)
(4.38944 0.595305 4.04287e-24)
(4.4128 0.596954 0)
(4.43662 0.598572 0)
(4.46084 0.600144 0)
(4.48558 0.601682 0)
(4.51072 0.603156 -2.4135e-24)
(4.53623 0.604562 4.4715e-24)
(4.56207 0.605892 2.64794e-19)
(4.58821 0.607139 4.24602e-25)
(4.61462 0.608293 0)
(4.6412 0.609336 -1.93031e-19)
(4.66805 0.61028 0)
(4.69498 0.611095 -1.53974e-19)
(4.72212 0.611798 -2.73299e-19)
(4.74925 0.612356 2.41254e-19)
(4.77653 0.612789 0)
(4.80384 0.613081 1.84118e-19)
(4.8312 0.613229 1.58643e-19)
(4.85858 0.613226 -1.35006e-19)
(4.88594 0.613067 0)
(4.91325 0.612748 9.26416e-20)
(4.94052 0.612259 -7.36353e-20)
(4.96774 0.61161 1.1183e-19)
(4.9949 0.610789 -7.87584e-20)
(5.02206 0.609812 -4.78558e-20)
(5.04907 0.608656 -6.26272e-26)
(5.07609 0.607334 -3.81497e-25)
(5.10299 0.60583 3.3649e-20)
(5.12988 0.60415 5.75874e-20)
(5.15666 0.602292 -1.29387e-25)
(5.1834 0.600262 -1.01443e-19)
(5.21008 0.598047 2.43226e-19)
(5.2367 0.595644 0)
(5.2632 0.59304 -1.58957e-19)
(5.28945 0.590225 0)
(5.31534 0.58718 -3.86011e-19)
(5.34068 0.583877 -1.8909e-24)
(5.36548 0.580313 -2.04396e-25)
(5.39028 0.576542 4.78764e-19)
(5.41551 0.5726 -5.07436e-19)
(5.44129 0.568496 5.3521e-19)
(5.46753 0.564196 5.62241e-19)
(5.49415 0.559681 -2.17831e-24)
(5.52099 0.55493 -6.14533e-19)
(5.54817 0.549937 0)
(5.57562 0.54467 6.65181e-19)
(5.60337 0.53912 6.90094e-19)
(5.63138 0.533265 0)
(5.65975 0.527092 0)
(5.68845 0.52057 1.52848e-18)
(5.71754 0.513687 7.88995e-19)
(5.74699 0.506411 -8.13895e-19)
(5.77692 0.498727 -2.1293e-24)
(5.80738 0.490601 0)
(5.83912 0.482059 8.90156e-19)
(5.87943 0.473668 0)
(5.91089 0.46396 9.37136e-19)
(5.94314 0.453683 -9.63952e-19)
(5.97596 0.442785 3.06689e-25)
(6.00932 0.431228 -1.0193e-18)
(6.04318 0.418954 1.04796e-18)
(6.07753 0.405916 0)
(6.11236 0.392063 -1.10746e-18)
(6.14765 0.377345 -1.13839e-18)
(6.18341 0.361719 5.49434e-25)
(6.2196 0.345103 2.9111e-25)
(6.25616 0.327456 -5.89649e-25)
(6.29307 0.308714 -1.27119e-18)
(6.33025 0.288801 0)
(6.36772 0.26767 3.24721e-25)
(5.90194 0.807348 -2.09385e-19)
(5.92981 0.809479 -1.91342e-19)
(5.95837 0.811708 1.74724e-19)
(5.98815 0.813985 -3.18848e-19)
(6.01901 0.816245 -2.90718e-19)
(6.0506 0.818449 0)
(6.08283 0.820611 -2.41066e-19)
(6.11563 0.822715 3.27921e-24)
(6.14916 0.824774 -3.10303e-24)
(6.18323 0.826744 0)
(6.21782 0.828623 0)
(6.25286 0.830397 -2.95657e-19)
(6.28831 0.832058 -2.66742e-19)
(6.32415 0.833594 2.40096e-19)
(6.36023 0.83498 -2.14694e-24)
(6.39668 0.836231 2.94445e-24)
(6.43325 0.837306 -1.35908e-24)
(6.4701 0.838227 6.10201e-19)
(6.50695 0.838951 -5.38622e-19)
(6.54401 0.839506 0)
(6.58112 0.839868 2.05502e-19)
(6.6183 0.840034 -7.14618e-25)
(6.65552 0.839996 0)
(6.69271 0.839741 0)
(6.72982 0.839265 0)
(6.76687 0.838566 8.21395e-20)
(6.80389 0.837642 -1.24727e-19)
(6.84082 0.836488 8.78281e-20)
(6.87774 0.835115 2.04523e-25)
(6.91447 0.833502 -5.82085e-26)
(6.95122 0.831662 -9.12483e-21)
(6.9878 0.829571 0)
(7.02434 0.82724 0)
(7.06074 0.824666 -1.95715e-25)
(7.09705 0.821849 2.25993e-19)
(7.13325 0.818782 -1.35455e-19)
(7.16931 0.815446 3.22553e-25)
(7.20511 0.81183 1.77085e-19)
(7.24049 0.807917 3.9306e-19)
(7.27521 0.803668 8.61055e-19)
(7.30896 0.799047 -2.90009e-24)
(7.3419 0.794062 0)
(7.37502 0.788815 0)
(7.40909 0.783376 3.52425e-24)
(7.44418 0.777741 -5.99234e-19)
(7.47993 0.771843 -6.29466e-19)
(7.51617 0.76565 -6.58978e-19)
(7.55271 0.75913 6.87919e-19)
(7.58964 0.752275 7.16425e-19)
(7.62691 0.745043 0)
(7.66457 0.737422 0)
(7.70259 0.729388 -7.81993e-25)
(7.74109 0.720914 7.7036e-25)
(7.78001 0.711963 -1.71051e-18)
(7.81945 0.702519 -4.30379e-25)
(7.85939 0.69254 2.79306e-24)
(7.89996 0.681999 -9.38782e-19)
(7.94121 0.670851 4.70524e-25)
(7.98405 0.659122 9.95809e-19)
(8.04575 0.648174 -4.70993e-25)
(8.08867 0.634883 -2.07161e-18)
(8.13254 0.620797 2.13029e-18)
(8.17716 0.605864 1.09507e-18)
(8.22249 0.590026 -5.2749e-25)
(8.26851 0.573214 0)
(8.3152 0.555351 1.18903e-18)
(8.36252 0.536374 5.92047e-25)
(8.41046 0.516219 -7.914e-26)
(8.45903 0.494821 -1.29028e-18)
(8.50818 0.472068 0)
(8.55783 0.44791 0)
(8.60794 0.422252 2.80039e-18)
(8.65843 0.394999 -6.76591e-25)
(8.70928 0.366079 3.57419e-25)
(7.68391 1.05101 2.29686e-19)
(7.71942 1.05368 2.09925e-19)
(7.75588 1.05648 -5.94084e-24)
(7.79388 1.05935 0)
(7.83324 1.06218 3.19054e-19)
(7.87357 1.06495 2.90679e-19)
(7.91472 1.06766 2.64591e-19)
(7.95664 1.0703 3.59917e-24)
(7.99949 1.07287 2.18487e-19)
(8.04305 1.07534 2.95736e-24)
(8.08728 1.07768 -1.30051e-25)
(8.1321 1.07989 -3.24427e-19)
(8.17745 1.08196 -2.92668e-19)
(8.2233 1.08386 -2.63395e-19)
(8.26949 1.08557 -8.56117e-25)
(8.31614 1.0871 0)
(8.36295 1.0884 0)
(8.4101 1.08951 -3.34479e-19)
(8.45729 1.09036 2.95183e-19)
(8.50473 1.09099 -1.03369e-24)
(8.55225 1.09137 3.88115e-25)
(8.59984 1.09149 1.93919e-19)
(8.64746 1.09135 -1.64963e-19)
(8.69505 1.09093 5.66576e-25)
(8.74254 1.09023 3.94389e-25)
(8.78996 1.08923 -3.79818e-25)
(8.83734 1.08795 -1.36398e-19)
(8.88458 1.08636 9.60116e-20)
(8.9318 1.08449 2.23494e-25)
(8.97879 1.08231 -7.62633e-26)
(9.02578 1.07984 0)
(9.07257 1.07704 4.0924e-20)
(9.11929 1.07393 0)
(9.16581 1.0705 -9.73715e-20)
(9.21217 1.06675 -1.23204e-19)
(9.25839 1.06268 2.54657e-25)
(9.30439 1.05826 0)
(9.35004 1.05348 0)
(9.39512 1.04831 -4.28817e-19)
(9.43938 1.04271 -4.70237e-19)
(9.48245 1.03664 -3.61782e-24)
(9.52452 1.0301 -5.01248e-25)
(9.56685 1.02323 5.84385e-25)
(9.61053 1.01612 6.24604e-19)
(9.65561 1.00876 4.50445e-26)
(9.70153 1.00107 -6.92002e-19)
(9.748 0.992979 0)
(9.79481 0.984467 -7.55966e-19)
(9.84208 0.975516 -7.87146e-19)
(9.88973 0.966069 -7.58709e-25)
(9.93786 0.956121 0)
(9.98644 0.945636 0)
(10.0356 0.934578 0)
(10.0853 0.922906 9.38823e-19)
(10.1356 0.910592 9.03465e-25)
(10.1866 0.897589 2.63878e-24)
(10.2384 0.883852 -1.00269e-24)
(10.2909 0.869328 9.91098e-25)
(10.3453 0.854029 -1.09181e-18)
(10.4268 0.839964 1.08096e-18)
(10.4817 0.822688 2.22247e-18)
(10.5377 0.804363 -1.14207e-18)
(10.5945 0.784945 1.1735e-18)
(10.6522 0.764353 0)
(10.7109 0.742503 0)
(10.7703 0.719295 -1.27193e-18)
(10.8305 0.694644 0)
(10.8915 0.668476 2.68298e-18)
(10.9533 0.640696 1.37765e-18)
(11.0158 0.611172 0)
(11.0789 0.579833 0)
(11.1426 0.546558 -1.49206e-18)
(11.2067 0.511224 7.20491e-25)
(11.2713 0.473742 0)
(9.58819 1.31403 0)
(9.62893 1.3169 -2.44404e-19)
(9.672 1.32006 2.23425e-19)
(9.71633 1.32339 -1.2645e-23)
(9.76251 1.32679 0)
(9.81031 1.33014 -1.01906e-23)
(9.8593 1.3334 -3.09321e-19)
(9.90933 1.3366 2.8153e-19)
(9.96032 1.33971 0)
(10.0124 1.34273 -2.32398e-19)
(10.0654 1.34561 0)
(10.1192 1.34834 3.81548e-19)
(10.1737 1.35091 3.79752e-24)
(10.2289 1.35328 3.10953e-19)
(10.2847 1.35546 4.39377e-24)
(10.3409 1.35739 5.01985e-19)
(10.3976 1.3591 3.54021e-24)
(10.4545 1.36053 0)
(10.5119 1.3617 -3.54691e-19)
(10.5692 1.36256 4.77791e-24)
(10.6269 1.36315 -4.18756e-24)
(10.6846 1.36342 5.57364e-24)
(10.7425 1.36337 -2.05229e-19)
(10.8003 1.36298 3.48978e-19)
(10.858 1.36225 0)
(10.9157 1.36116 1.195e-19)
(10.9732 1.35971 -9.4882e-20)
(11.0306 1.3579 1.43933e-19)
(11.0879 1.35571 -1.01251e-19)
(11.1451 1.35317 1.66312e-25)
(11.202 1.35025 -1.60643e-25)
(11.2589 1.34695 0)
(11.3155 1.34326 -4.30416e-20)
(11.3721 1.33918 7.35738e-20)
(11.4283 1.3347 1.02281e-19)
(11.4844 1.32983 -5.50081e-25)
(11.5404 1.32457 1.54951e-19)
(11.5961 1.31888 1.08991e-25)
(11.6515 1.31276 2.02546e-19)
(11.7065 1.30618 0)
(11.7609 1.29912 0)
(11.8145 1.29154 -5.3747e-19)
(11.8673 1.28344 5.28511e-25)
(11.9202 1.2749 -6.21763e-19)
(11.9742 1.26599 -6.60259e-19)
(12.0294 1.25673 0)
(12.0853 1.24701 7.31135e-19)
(12.1418 1.23679 0)
(12.1986 1.22604 0)
(12.256 1.21474 0)
(12.3137 1.20283 0)
(12.372 1.19028 8.74716e-25)
(12.4309 1.17707 -8.60483e-25)
(12.4904 1.16315 0)
(12.5505 1.14847 9.87838e-19)
(12.6114 1.13298 0)
(12.673 1.11664 1.05032e-18)
(12.7355 1.09939 -1.05327e-24)
(12.7988 1.08116 -1.11362e-18)
(12.8641 1.06193 1.07075e-24)
(12.9504 1.04322 -1.10782e-18)
(13.0164 1.0216 -3.6873e-24)
(13.0836 0.998669 1.16841e-18)
(13.1518 0.974383 -2.399e-18)
(13.2211 0.948645 0)
(13.2913 0.921347 1.22538e-24)
(13.3625 0.892378 -1.29655e-18)
(13.4346 0.861627 1.33032e-18)
(13.5075 0.829 -1.36488e-18)
(13.5814 0.794389 -1.31495e-24)
(13.6561 0.757626 0)
(13.7315 0.718624 0)
(13.8075 0.677241 0)
(13.884 0.633321 -7.50095e-25)
(13.9611 0.586758 -2.06821e-26)
(11.6273 1.59327 2.71173e-19)
(11.6748 1.5965 2.48022e-19)
(11.7245 1.59999 -4.53425e-19)
(11.7758 1.6037 0)
(11.8292 1.60747 -3.77828e-19)
(11.8844 1.61118 -3.44424e-19)
(11.9411 1.61477 0)
(11.9989 1.61828 -2.85395e-19)
(12.0579 1.62167 -2.59366e-19)
(12.1181 1.62495 1.43734e-23)
(12.1794 1.62807 4.26677e-19)
(12.2415 1.63099 -7.72168e-19)
(12.3046 1.63371 -2.37913e-24)
(12.3683 1.6362 0)
(12.4328 1.63843 0)
(12.4977 1.64038 -2.53353e-19)
(12.5631 1.64204 2.27986e-25)
(12.6289 1.64338 -2.01555e-19)
(12.695 1.64439 3.57249e-19)
(12.7612 1.64503 -3.14893e-19)
(12.8276 1.64533 -2.00867e-24)
(12.8941 1.64525 4.81595e-24)
(12.9606 1.64479 -2.0606e-19)
(13.0271 1.64392 -1.75045e-19)
(13.0935 1.64263 1.03492e-24)
(13.1598 1.64091 -1.19676e-19)
(13.2258 1.63876 9.49381e-20)
(13.2917 1.63617 0)
(13.3574 1.63313 1.01139e-19)
(13.4229 1.62966 -6.13294e-20)
(13.4881 1.62573 0)
(13.5532 1.62136 -1.03391e-25)
(13.618 1.61652 9.99554e-26)
(13.6826 1.61121 -7.31558e-20)
(13.747 1.60543 -1.01604e-19)
(13.8112 1.5992 9.77965e-25)
(13.8753 1.59251 -1.53681e-19)
(13.9393 1.58532 0)
(14.0031 1.57765 -2.00614e-19)
(14.0669 1.56949 0)
(14.1306 1.56083 0)
(14.1943 1.55166 0)
(14.258 1.54195 -1.14468e-24)
(14.3215 1.53168 6.19259e-24)
(14.3851 1.52085 6.53545e-19)
(14.4491 1.50948 -6.88907e-19)
(14.5135 1.49751 0)
(14.5783 1.48493 1.48586e-24)
(14.6433 1.4717 7.87077e-19)
(14.7089 1.45782 8.18339e-19)
(14.7749 1.44319 8.49081e-19)
(14.8416 1.42782 8.79394e-19)
(14.9087 1.41166 -9.09393e-19)
(14.9766 1.39464 0)
(15.0452 1.37671 -1.93756e-18)
(15.1146 1.35782 9.98341e-19)
(15.1848 1.33792 2.0029e-24)
(15.2559 1.31692 -1.97514e-24)
(15.3279 1.29475 4.39085e-24)
(15.4016 1.27135 1.11716e-18)
(15.4757 1.2466 0)
(15.5504 1.22044 -1.09833e-18)
(15.6264 1.19271 -1.12662e-18)
(15.7034 1.16337 1.15535e-18)
(15.7814 1.13231 -1.18456e-18)
(15.8606 1.09941 1.13856e-24)
(15.9408 1.06452 1.2447e-18)
(16.0219 1.02752 -1.27567e-18)
(16.104 0.988308 1.26642e-24)
(16.1871 0.946751 3.92904e-26)
(16.271 0.902649 -2.61852e-24)
(16.3556 0.855909 -1.40674e-18)
(16.4409 0.806357 1.44152e-18)
(16.5267 0.753817 -2.81757e-24)
(16.613 0.698164 1.42401e-24)
(13.658 1.87125 -2.5928e-19)
(13.7106 1.87464 -2.37165e-19)
(13.7652 1.87823 4.33466e-19)
(13.8216 1.88207 -2.45249e-23)
(13.8803 1.88595 3.60942e-19)
(13.9409 1.88974 6.57787e-19)
(14.0031 1.89339 1.7954e-23)
(14.0666 1.89692 -6.26649e-25)
(14.1313 1.90031 4.94483e-19)
(14.1974 1.90357 2.06851e-23)
(14.2646 1.90661 -4.06221e-19)
(14.3328 1.90942 3.67287e-19)
(14.4019 1.91198 3.31466e-19)
(14.4717 1.91427 -2.98496e-19)
(14.5423 1.91626 -8.18794e-24)
(14.6134 1.91791 2.40206e-19)
(14.685 1.91922 0)
(14.7568 1.92013 1.90739e-19)
(14.8291 1.92068 3.37754e-19)
(14.9014 1.92079 2.97411e-19)
(14.9739 1.92049 0)
(15.0464 1.91975 -4.51614e-19)
(15.1189 1.91857 1.94037e-19)
(15.1914 1.91691 1.64676e-19)
(15.2636 1.91476 0)
(15.3357 1.91212 -1.12359e-19)
(15.4075 1.90897 -6.08434e-25)
(15.479 1.90532 1.34831e-19)
(15.5503 1.90114 6.13425e-24)
(15.6213 1.89647 -5.85361e-24)
(15.692 1.89128 -2.49139e-26)
(15.7625 1.88558 2.40408e-26)
(15.8327 1.87933 -3.99252e-20)
(15.9027 1.87254 0)
(15.9723 1.86524 9.4539e-20)
(16.0418 1.85741 1.19328e-19)
(16.1112 1.84906 1.42688e-19)
(16.1806 1.84016 -6.7809e-25)
(16.25 1.83072 6.59463e-25)
(16.3196 1.82076 0)
(16.3896 1.81028 4.51359e-19)
(16.4602 1.79928 -4.90079e-19)
(16.5313 1.78772 -5.2822e-19)
(16.6021 1.77551 5.64778e-19)
(16.6722 1.76258 5.9872e-19)
(16.7419 1.74893 6.30361e-19)
(16.8116 1.73456 -1.217e-24)
(16.8815 1.71947 -1.35643e-24)
(16.9517 1.70364 -7.17679e-19)
(17.0224 1.68705 -5.76831e-24)
(17.0936 1.66961 -7.72375e-19)
(17.1653 1.65132 -5.75738e-24)
(17.2376 1.63211 8.25236e-19)
(17.3106 1.61192 0)
(17.3843 1.59069 5.81023e-24)
(17.4589 1.56836 -9.02603e-19)
(17.5342 1.54486 9.28189e-19)
(17.6105 1.52012 9.53808e-19)
(17.6877 1.49402 9.7955e-19)
(17.766 1.46647 -2.00985e-18)
(17.8295 1.43615 0)
(17.9095 1.40553 -1.93823e-24)
(17.9907 1.37312 -1.0222e-18)
(18.073 1.33887 0)
(18.1564 1.30265 1.07254e-18)
(18.2408 1.26434 0)
(18.3264 1.22377 -1.12457e-18)
(18.4129 1.1808 -1.1157e-24)
(18.5003 1.13531 2.24807e-24)
(18.5888 1.08716 3.5383e-26)
(18.6781 1.03612 1.23493e-18)
(18.7681 0.98209 1.26406e-18)
(18.8587 0.924874 -1.29387e-18)
(18.9498 0.864275 1.28072e-24)
(19.0414 0.800151 -1.27529e-24)
(15.5539 2.13066 2.34346e-19)
(15.6095 2.13393 -2.14226e-19)
(15.6667 2.13735 -1.95791e-19)
(15.7259 2.14105 2.1486e-23)
(15.7874 2.14477 -6.35992e-25)
(15.851 2.14836 -2.96719e-19)
(15.9162 2.15176 2.69941e-19)
(15.9827 2.15503 0)
(16.0505 2.15813 -2.22629e-19)
(16.1197 2.16104 2.01784e-19)
(16.1901 2.16371 -3.65246e-19)
(16.2615 2.16611 3.29972e-19)
(16.3337 2.16822 1.81702e-23)
(16.4067 2.17 5.35446e-19)
(16.4805 2.17144 -7.12693e-24)
(16.5547 2.17249 -4.30102e-19)
(16.6295 2.17315 0)
(16.7045 2.17336 5.02049e-24)
(16.7798 2.17315 -6.03103e-19)
(16.8551 2.17245 -2.65285e-19)
(16.9306 2.17129 0)
(17.0061 2.16963 2.01024e-19)
(17.0816 2.16747 3.00204e-25)
(17.1569 2.16478 6.97778e-24)
(17.232 2.16155 0)
(17.3069 2.15776 9.96544e-20)
(17.3814 2.15341 -1.33411e-24)
(17.4556 2.14849 -1.19367e-19)
(17.5296 2.143 6.56459e-24)
(17.6032 2.13696 5.06868e-20)
(17.6764 2.13034 0)
(17.7495 2.12315 8.58201e-21)
(17.8221 2.11536 3.51952e-20)
(17.8945 2.10699 -5.55642e-25)
(17.9666 2.09803 8.31865e-20)
(18.0385 2.0885 -1.0491e-19)
(18.1103 2.07839 -2.50637e-19)
(18.1821 2.06768 1.18968e-24)
(18.2538 2.05638 1.62779e-19)
(18.3258 2.0445 -3.60329e-19)
(18.3983 2.03206 -7.87617e-19)
(18.4715 2.01905 1.05875e-23)
(18.5453 2.00544 4.58068e-19)
(18.6189 1.99112 -4.88364e-19)
(18.6916 1.97599 -5.16735e-19)
(18.7638 1.96007 0)
(18.8358 1.94334 -5.68682e-19)
(18.9079 1.9258 7.17254e-26)
(18.9803 1.90744 6.16788e-19)
(19.0532 1.88824 -6.39901e-19)
(19.1265 1.86811 6.62469e-19)
(19.2004 1.84702 -1.36921e-18)
(19.2748 1.82492 0)
(19.35 1.80175 0)
(19.4258 1.77741 1.49829e-18)
(19.5025 1.75187 1.50189e-24)
(19.5799 1.72503 -8.78764e-24)
(19.6583 1.69681 -8.12325e-19)
(19.7376 1.66709 8.33386e-19)
(19.8178 1.63577 8.5424e-19)
(19.8821 1.60144 0)
(19.9645 1.56673 0)
(20.048 1.53007 8.84837e-19)
(20.1326 1.49138 -1.69701e-24)
(20.2183 1.45052 -9.26952e-19)
(20.3051 1.40735 0)
(20.3929 1.36169 9.70425e-19)
(20.4817 1.3134 -1.86303e-24)
(20.5715 1.26233 0)
(20.6622 1.20834 1.03862e-18)
(20.7537 1.15119 -1.06231e-18)
(20.846 1.09075 -1.08649e-18)
(20.9388 1.02681 -1.11124e-18)
(21.0321 0.959168 1.09909e-24)
(21.1258 0.887664 -2.21735e-24)
(17.2298 2.3598 -2.0429e-19)
(17.2863 2.36275 1.86735e-19)
(17.3444 2.36584 0)
(17.4045 2.3692 1.5561e-19)
(17.467 2.37256 2.83631e-19)
(17.5315 2.37575 0)
(17.5976 2.37873 -1.03715e-23)
(17.6651 2.38153 -2.13269e-19)
(17.7339 2.38414 0)
(17.8041 2.38653 -1.75256e-19)
(17.8754 2.38864 3.17021e-19)
(17.9477 2.39044 -2.86237e-19)
(18.021 2.3919 2.57941e-19)
(18.0949 2.39301 -2.31932e-19)
(18.1696 2.39373 0)
(18.2447 2.39401 1.86057e-19)
(18.3203 2.39386 0)
(18.3962 2.39323 0)
(18.4723 2.39212 2.6035e-19)
(18.5484 2.39048 2.28868e-19)
(18.6247 2.38834 3.19352e-24)
(18.7009 2.38566 1.73203e-19)
(18.7771 2.38242 1.48597e-19)
(18.8531 2.37862 -2.51803e-19)
(18.9289 2.37422 0)
(19.0043 2.36923 8.56358e-20)
(19.0795 2.36362 -9.26036e-25)
(19.1543 2.35741 8.89063e-25)
(19.2288 2.35059 -7.18273e-20)
(19.303 2.34316 2.35262e-25)
(19.3768 2.33512 -2.2649e-25)
(19.4503 2.32647 -7.49729e-24)
(19.5235 2.31717 -3.01046e-20)
(19.5964 2.30724 7.80454e-25)
(19.6689 2.29669 -7.10996e-20)
(19.7413 2.28553 -8.95983e-20)
(19.8135 2.27374 2.13918e-19)
(19.8856 2.2613 0)
(19.9577 2.24822 -1.38677e-19)
(20.0299 2.23451 6.13103e-19)
(20.1024 2.22017 1.02593e-23)
(20.1755 2.20521 3.61243e-19)
(20.2492 2.18959 0)
(20.3228 2.17323 8.23463e-19)
(20.3958 2.15605 4.34994e-19)
(20.4685 2.13804 4.5701e-19)
(20.541 2.11917 4.78044e-19)
(20.6136 2.09944 -4.98284e-19)
(20.6865 2.07881 -1.05943e-23)
(20.7598 2.05728 5.36983e-19)
(20.8336 2.03475 -1.11121e-18)
(20.9079 2.01119 5.73839e-19)
(20.9828 1.98655 0)
(21.0584 1.96074 0)
(21.1346 1.93368 -6.26862e-19)
(21.2118 1.90533 0)
(21.2897 1.87558 -1.32278e-18)
(21.3686 1.84435 0)
(21.4482 1.8115 -1.39161e-18)
(21.5288 1.77693 7.12934e-19)
(21.5995 1.73969 0)
(21.6827 1.70148 0)
(21.7668 1.66116 0)
(21.8521 1.61866 0)
(21.9384 1.57384 1.5707e-18)
(22.0259 1.52653 0)
(22.1144 1.47655 -8.21539e-19)
(22.2039 1.42375 -1.57663e-24)
(22.2943 1.36797 -8.59004e-19)
(22.3857 1.30905 -1.75663e-18)
(22.478 1.24674 -8.97999e-19)
(22.5709 1.18091 9.18136e-19)
(22.6644 1.11134 1.87742e-18)
(22.7583 1.0378 4.79876e-19)
(22.8527 0.960131 0)
(18.668 2.55627 1.76226e-19)
(18.7245 2.55883 3.88119e-23)
(18.7824 2.5615 1.47094e-19)
(18.8423 2.56445 -1.34209e-19)
(18.9046 2.56738 -2.44605e-19)
(18.969 2.5701 2.76419e-23)
(19.0349 2.57258 -2.02386e-19)
(19.1022 2.57486 1.83779e-19)
(19.1708 2.57691 1.66646e-19)
(19.2408 2.57872 1.88207e-23)
(19.3119 2.58022 1.62928e-23)
(19.384 2.58137 -2.46361e-19)
(19.4569 2.58216 -4.43832e-19)
(19.5306 2.58255 1.18541e-23)
(19.605 2.58252 -1.78862e-19)
(19.6798 2.58202 1.59889e-19)
(19.7551 2.58105 8.98888e-24)
(19.8306 2.57957 7.44975e-24)
(19.9064 2.57756 2.2348e-19)
(19.9822 2.575 1.19971e-23)
(20.0581 2.5719 -5.47868e-24)
(20.1339 2.56822 6.66162e-24)
(20.2097 2.56396 -1.27366e-19)
(20.2853 2.55909 2.15763e-19)
(20.3606 2.55359 -1.27191e-24)
(20.4356 2.54747 6.6529e-24)
(20.5103 2.54069 -5.80084e-20)
(20.5847 2.53328 0)
(20.6588 2.52522 3.83392e-25)
(20.7325 2.51652 3.71759e-20)
(20.8059 2.50718 -1.4652e-20)
(20.879 2.4972 -6.27371e-21)
(20.9517 2.48654 2.57238e-20)
(21.0242 2.47521 -2.60752e-25)
(21.0963 2.46322 0)
(21.1683 2.4506 7.64929e-20)
(21.24 2.43731 -6.93066e-24)
(21.3116 2.42334 0)
(21.3832 2.40868 0)
(21.4548 2.39335 -2.61146e-19)
(21.5266 2.37734 2.846e-19)
(21.5987 2.36065 0)
(21.6713 2.34326 0)
(21.7441 2.3251 -1.09891e-23)
(21.8165 2.30612 -3.6828e-19)
(21.8889 2.2863 -3.86757e-19)
(21.9612 2.26559 0)
(22.0337 2.24396 8.10926e-24)
(22.1063 2.22139 -9.73855e-24)
(22.1795 2.19787 -7.8527e-24)
(22.2531 2.17329 4.69705e-19)
(22.3272 2.14762 1.80189e-24)
(22.402 2.12081 1.95501e-24)
(22.4774 2.09276 -1.91691e-24)
(22.5536 2.06341 0)
(22.6306 2.03267 -5.44059e-19)
(22.7084 2.00047 5.58525e-19)
(22.7873 1.9667 -2.13994e-24)
(22.8668 1.93121 5.87404e-19)
(22.9473 1.89391 -1.08956e-23)
(23.0235 1.85429 2.28473e-24)
(23.1069 1.81314 0)
(23.1912 1.76976 0)
(23.2766 1.72408 0)
(23.3631 1.67594 -6.69617e-19)
(23.4508 1.62518 -2.65686e-24)
(23.5395 1.5716 7.00433e-19)
(23.6292 1.51503 0)
(23.7199 1.45533 1.46467e-18)
(23.8115 1.39232 7.48791e-19)
(23.904 1.32573 7.65577e-19)
(23.9972 1.25543 1.51488e-24)
(24.091 1.18118 -1.75158e-23)
(24.1852 1.10276 -4.09119e-19)
(24.2798 1.01998 -1.57406e-24)
(19.8971 2.72396 -3.07209e-19)
(19.9529 2.72612 -3.4755e-23)
(20.0102 2.72838 -1.2824e-19)
(20.0695 2.73093 2.8136e-23)
(20.1312 2.73342 -8.32318e-25)
(20.1949 2.73569 -1.94059e-19)
(20.2602 2.73767 -1.76404e-19)
(20.3268 2.73945 -1.91914e-23)
(20.3948 2.74098 -1.45231e-19)
(20.4641 2.74223 1.57234e-23)
(20.5346 2.74315 -1.48473e-23)
(20.606 2.74369 2.14644e-19)
(20.6783 2.74384 1.93355e-19)
(20.7513 2.74357 1.73769e-19)
(20.8249 2.74285 1.55792e-19)
(20.8991 2.74163 -1.39278e-19)
(20.9736 2.73992 1.51575e-23)
(21.0484 2.73765 -1.34534e-23)
(21.1235 2.73485 -3.89195e-19)
(21.1985 2.73145 -5.44186e-24)
(21.2737 2.72748 0)
(21.3488 2.72291 -1.29278e-19)
(21.4238 2.71773 0)
(21.4986 2.71191 -9.38916e-20)
(21.5732 2.70543 2.56842e-24)
(21.6475 2.6983 -6.3806e-20)
(21.7214 2.69049 5.04714e-20)
(21.7951 2.68202 -1.32397e-24)
(21.8684 2.67287 0)
(21.9415 2.66306 -6.46864e-20)
(22.0141 2.65258 2.54985e-20)
(22.0865 2.64144 0)
(22.1586 2.62958 0)
(22.2304 2.61704 3.81012e-20)
(22.3019 2.60381 0)
(22.3731 2.58992 6.65018e-20)
(22.4442 2.57534 -7.9357e-20)
(22.5152 2.56004 -1.28224e-24)
(22.5861 2.54403 0)
(22.657 2.52731 0)
(22.728 2.50988 2.47154e-19)
(22.7992 2.49171 0)
(22.8708 2.47281 0)
(22.9426 2.45313 -6.04725e-19)
(23.0144 2.43262 3.19068e-19)
(23.0863 2.41125 2.46393e-24)
(23.1583 2.38896 3.50381e-19)
(23.2304 2.36571 7.30329e-19)
(23.3028 2.3415 -4.86008e-24)
(23.3757 2.31629 -1.34603e-23)
(23.4491 2.28997 -1.59448e-24)
(23.523 2.26252 1.56127e-24)
(23.5975 2.23387 -4.33293e-19)
(23.6728 2.20394 0)
(23.7488 2.17264 4.58881e-19)
(23.8257 2.1399 4.71519e-19)
(23.9035 2.10563 -4.8407e-19)
(23.9822 2.06971 0)
(24.0617 2.03201 0)
(24.1421 1.99241 -1.25175e-23)
(24.2217 1.95068 1.99142e-24)
(24.3052 1.90705 5.44923e-19)
(24.3897 1.86111 -5.57783e-19)
(24.4753 1.81275 -5.70804e-19)
(24.562 1.76183 5.84019e-19)
(24.6499 1.70816 -2.24069e-24)
(24.7389 1.65155 2.36973e-24)
(24.8289 1.59183 -6.25019e-19)
(24.9199 1.52883 -6.39209e-19)
(25.0118 1.46238 0)
(25.1047 1.39219 -6.68481e-19)
(25.1983 1.31813 0)
(25.2924 1.23996 -1.55845e-23)
(25.3871 1.15743 1.38276e-24)
(25.4821 1.07036 -1.37569e-24)
(20.9595 2.86872 2.7344e-19)
(21.0146 2.87051 -3.09344e-23)
(21.0712 2.87239 -2.74813e-23)
(21.1298 2.87456 1.0419e-19)
(21.1907 2.87666 0)
(21.2537 2.87851 1.72823e-19)
(21.3182 2.88006 1.57161e-19)
(21.3842 2.88138 -1.77556e-23)
(21.4514 2.88244 0)
(21.52 2.8832 0)
(21.5898 2.8836 0)
(21.6605 2.88361 1.14063e-23)
(21.732 2.8832 -1.07912e-23)
(21.8043 2.88235 -1.54922e-19)
(21.8773 2.88103 -8.72689e-24)
(21.9507 2.87918 0)
(22.0245 2.87681 0)
(22.0986 2.87387 0)
(22.1729 2.87035 1.73575e-19)
(22.2472 2.86623 0)
(22.3217 2.86151 0)
(22.3961 2.85617 -3.34389e-24)
(22.4704 2.85018 -9.89185e-20)
(22.5445 2.84354 0)
(22.6184 2.83622 -6.98305e-20)
(22.6919 2.82822 5.69515e-20)
(22.7652 2.81952 1.23137e-24)
(22.8381 2.81012 6.81011e-20)
(22.9108 2.80003 0)
(22.9831 2.78927 2.88758e-20)
(23.0551 2.7778 -1.13858e-20)
(23.1269 2.76565 -4.84741e-21)
(23.1984 2.75277 -1.99522e-20)
(23.2696 2.73918 -3.40217e-20)
(23.3405 2.72489 -1.43528e-24)
(23.4112 2.7099 -8.59826e-24)
(23.4817 2.69421 9.77666e-25)
(23.5522 2.67777 0)
(23.6226 2.6606 0)
(23.6929 2.6427 -2.02624e-19)
(23.7633 2.62404 -4.41421e-19)
(23.8339 2.60463 -1.9031e-24)
(23.9048 2.58445 1.85162e-24)
(23.9759 2.56346 2.69823e-19)
(24.0472 2.54163 -1.25911e-23)
(24.1187 2.51893 -2.98976e-19)
(24.1904 2.49529 -6.25407e-19)
(24.2624 2.47066 -1.43309e-23)