/*--------------------------------*- C++ -*----------------------------------*\
| =========                 |                                                 |
| \\      /  F ield         | OpenFOAM: The Open Source CFD Toolbox           |
|  \\    /   O peration     | Version:  2412                                  |
|   \\  /    A nd           | Website:  www.openfoam.com                      |
|    \\/     M anipulation  |                                                 |
\*---------------------------------------------------------------------------*/
FoamFile
{
    version     2.0;
    format      ascii;
    arch        "LSB;label=32;scalar=64";
    class       volScalarField;
    location    "500";
    object      nut;
}
// * * * * * * * * * * * * * * * * * * * * * * * * * * * * * * * * * * * * * //

dimensions      [0 2 -1 0 0 0 0];

internalField   nonuniform List<scalar> 
7387
(
1.84784e-12
1.74444e-12
1.64487e-12
1.54909e-12
1.45685e-12
1.3681e-12
1.28278e-12
1.20099e-12
1.12284e-12
1.04833e-12
9.7739e-13
9.09978e-13
8.45836e-13
7.85042e-13
7.27707e-13
6.73706e-13
6.22918e-13
5.75271e-13
5.30706e-13
4.89161e-13
4.50473e-13
4.14508e-13
3.81216e-13
3.50419e-13
3.22015e-13
2.95893e-13
2.71873e-13
2.49837e-13
2.29673e-13
2.11247e-13
1.94435e-13
1.79108e-13
1.6517e-13
1.52504e-13
1.41008e-13
1.30585e-13
1.21144e-13
1.12607e-13
1.04898e-13
9.79424e-14
9.1674e-14
8.60529e-14
8.10248e-14
7.65263e-14
7.24949e-14
6.89046e-14
6.57746e-14
6.31275e-14
6.09369e-14
5.90401e-14
5.73519e-14
5.58161e-14
5.46928e-14
5.43283e-14
5.4859e-14
5.64361e-14
5.85014e-14
6.0402e-14
6.22118e-14
6.35931e-14
6.5368e-14
6.99464e-14
7.94239e-14
9.69445e-14
1.29377e-13
1.96749e-13
2.71635e-13
2.68748e-13
1.64956e-13
4.88272e-14
1.26503e-14
2.29049e-14
1.7862e-10
1.68634e-10
1.59019e-10
1.49767e-10
1.40863e-10
1.32293e-10
1.24051e-10
1.16151e-10
1.08603e-10
1.01406e-10
9.45508e-11
8.80301e-11
8.18336e-11
7.59631e-11
7.04208e-11
6.51999e-11
6.02894e-11
5.56838e-11
5.13762e-11
4.73583e-11
4.36163e-11
4.01376e-11
3.69165e-11
3.39373e-11
3.11892e-11
2.86601e-11
2.63349e-11
2.42026e-11
2.22507e-11
2.04669e-11
1.88394e-11
1.73556e-11
1.60057e-11
1.47791e-11
1.36655e-11
1.26558e-11
1.17415e-11
1.09146e-11
1.01676e-11
9.49347e-12
8.88625e-12
8.34129e-12
7.85386e-12
7.41777e-12
7.02702e-12
6.67884e-12
6.37514e-12
6.11817e-12
5.9052e-12
5.72085e-12
5.55675e-12
5.40752e-12
5.29806e-12
5.26133e-12
5.31051e-12
5.45962e-12
5.6555e-12
5.83631e-12
6.00842e-12
6.14005e-12
6.31021e-12
6.74638e-12
7.64677e-12
9.30696e-12
1.23637e-11
1.85961e-11
2.54306e-11
2.52883e-11
1.57967e-11
4.75963e-12
1.21136e-12
2.16989e-12
1.76848e-09
1.66982e-09
1.57483e-09
1.48342e-09
1.39545e-09
1.31078e-09
1.22936e-09
1.15129e-09
1.07668e-09
1.00553e-09
9.37735e-10
8.73223e-10
8.11939e-10
7.53875e-10
6.99023e-10
6.47335e-10
5.98722e-10
5.53123e-10
5.10467e-10
4.7065e-10
4.33557e-10
3.99083e-10
3.6714e-10
3.37593e-10
3.10328e-10
2.85222e-10
2.62143e-10
2.40974e-10
2.21587e-10
2.03866e-10
1.87693e-10
1.72948e-10
1.59528e-10
1.4733e-10
1.36254e-10
1.26209e-10
1.17112e-10
1.08882e-10
1.01444e-10
9.47316e-11
8.86837e-11
8.32532e-11
7.83949e-11
7.40469e-11
7.015e-11
6.66766e-11
6.36438e-11
6.10726e-11
5.89356e-11
5.70866e-11
5.54414e-11
5.39474e-11
5.28445e-11
5.24496e-11
5.28937e-11
5.43058e-11
5.61756e-11
5.79119e-11
5.95628e-11
6.08336e-11
6.24857e-11
6.66793e-11
7.5304e-11
9.11166e-11
1.19974e-10
1.77088e-10
2.38606e-10
2.39665e-10
1.54862e-10
4.8708e-11
1.20448e-11
2.1055e-11
8.86298e-09
8.37036e-09
7.89599e-09
7.4395e-09
7.00012e-09
6.57724e-09
6.17059e-09
5.78053e-09
5.40762e-09
5.05183e-09
4.71275e-09
4.39009e-09
4.08349e-09
3.79287e-09
3.5182e-09
3.25926e-09
3.01571e-09
2.78717e-09
2.57328e-09
2.37351e-09
2.18735e-09
2.01428e-09
1.85382e-09
1.70534e-09
1.56827e-09
1.442e-09
1.32588e-09
1.21932e-09
1.12169e-09
1.03241e-09
9.50882e-10
8.7653e-10
8.08833e-10
7.47271e-10
6.9135e-10
6.40615e-10
5.94642e-10
5.53038e-10
5.15427e-10
4.81469e-10
4.50856e-10
4.23354e-10
3.98733e-10
3.76688e-10
3.56922e-10
3.39291e-10
3.23876e-10
3.10767e-10
2.99829e-10
2.90362e-10
2.81945e-10
2.74321e-10
2.68633e-10
2.66404e-10
2.68293e-10
2.74881e-10
2.83729e-10
2.92023e-10
2.99897e-10
3.06033e-10
3.14077e-10
3.34177e-10
3.75327e-10
4.50194e-10
5.85291e-10
8.42362e-10
1.11303e-09
1.13162e-09
7.6601e-10
2.5834e-10
6.21159e-11
1.03566e-10
3.18991e-08
3.01361e-08
2.8438e-08
2.68035e-08
2.52302e-08
2.37156e-08
2.22588e-08
2.0861e-08
1.95239e-08
1.82476e-08
1.7031e-08
1.58728e-08
1.4772e-08
1.3728e-08
1.27407e-08
1.18095e-08
1.09332e-08
1.01106e-08
9.34019e-09
8.62031e-09
7.9491e-09
7.32468e-09
6.74532e-09
6.20898e-09
5.71351e-09
5.25681e-09
4.83661e-09
4.45072e-09
4.09699e-09
3.77324e-09
3.47745e-09
3.20755e-09
2.96166e-09
2.73789e-09
2.5345e-09
2.34986e-09
2.18246e-09
2.03089e-09
1.89377e-09
1.76989e-09
1.65815e-09
1.55767e-09
1.46763e-09
1.38695e-09
1.31458e-09
1.24997e-09
1.19336e-09
1.14502e-09
1.10448e-09
1.06936e-09
1.03816e-09
1.00999e-09
9.88674e-10
9.79381e-10
9.84474e-10
1.00576e-09
1.03505e-09
1.0629e-09
1.08931e-09
1.11025e-09
1.13807e-09
1.20617e-09
1.34479e-09
1.59476e-09
2.04022e-09
2.84828e-09
3.67561e-09
3.78241e-09
2.70638e-09
1.00489e-09
2.41457e-10
3.68476e-10
9.44137e-08
8.92371e-08
8.42491e-08
7.94463e-08
7.48221e-08
7.03691e-08
6.60845e-08
6.19714e-08
5.80342e-08
5.42743e-08
5.06887e-08
4.72735e-08
4.40253e-08
4.09431e-08
3.80263e-08
3.52733e-08
3.2681e-08
3.02457e-08
2.79633e-08
2.5829e-08
2.38376e-08
2.19837e-08
2.02622e-08
1.8667e-08
1.71922e-08
1.58317e-08
1.4579e-08
1.34276e-08
1.23713e-08
1.14037e-08
1.0519e-08
9.71109e-09
8.97439e-09
8.30346e-09
7.69312e-09
7.13861e-09
6.63548e-09
6.17948e-09
5.76668e-09
5.39339e-09
5.0564e-09
4.75307e-09
4.48088e-09
4.23675e-09
4.0176e-09
3.82176e-09
3.64966e-09
3.50197e-09
3.37729e-09
3.26913e-09
3.17312e-09
3.08676e-09
3.02029e-09
2.98778e-09
2.9962e-09
3.04985e-09
3.12675e-09
3.2015e-09
3.27244e-09
3.32998e-09
3.40806e-09
3.59458e-09
3.9717e-09
4.64525e-09
5.83068e-09
7.86436e-09
9.87543e-09
1.02653e-08
7.8017e-09
3.26405e-09
8.22958e-10
1.09835e-09
2.4556e-07
2.32242e-07
2.19402e-07
2.07032e-07
1.95117e-07
1.83639e-07
1.7259e-07
1.61974e-07
1.51804e-07
1.42085e-07
1.3281e-07
1.23971e-07
1.15557e-07
1.07566e-07
9.99981e-08
9.28483e-08
8.61099e-08
7.9774e-08
7.38301e-08
6.82667e-08
6.30705e-08
5.82288e-08
5.37282e-08
4.95535e-08
4.56899e-08
4.21218e-08
3.8833e-08
3.58071e-08
3.30282e-08
3.04802e-08
2.81478e-08
2.60158e-08
2.40696e-08
2.22954e-08
2.06798e-08
1.92105e-08
1.78758e-08
1.66649e-08
1.55676e-08
1.45742e-08
1.36765e-08
1.28673e-08
1.21401e-08
1.14869e-08
1.09002e-08
1.0375e-08
9.91186e-09
9.51197e-09
9.17174e-09
8.876e-09
8.61371e-09
8.37889e-09
8.19456e-09
8.09326e-09
8.09301e-09
8.20202e-09
8.37008e-09
8.53933e-09
8.70055e-09
8.8357e-09
9.02539e-09
9.46565e-09
1.03493e-08
1.19134e-08
1.46356e-08
1.90177e-08
2.316e-08
2.42279e-08
1.95695e-08
9.38862e-09
2.5575e-09
3.00283e-09
5.8233e-07
5.51204e-07
5.21172e-07
4.92219e-07
4.64313e-07
4.37417e-07
4.11501e-07
3.86578e-07
3.62679e-07
3.39815e-07
3.17977e-07
2.97144e-07
2.77297e-07
2.58427e-07
2.40534e-07
2.23611e-07
2.07643e-07
1.92611e-07
1.78492e-07
1.6526e-07
1.52888e-07
1.41344e-07
1.30599e-07
1.2062e-07
1.11373e-07
1.02823e-07
9.49299e-08
8.7659e-08
8.0973e-08
7.48348e-08
6.92085e-08
6.40586e-08
5.93519e-08
5.50557e-08
5.11386e-08
4.75715e-08
4.43271e-08
4.13799e-08
3.87056e-08
3.62815e-08
3.40876e-08
3.21068e-08
3.03234e-08
2.87193e-08
2.72761e-08
2.59823e-08
2.48367e-08
2.38404e-08
2.2985e-08
2.22396e-08
2.1579e-08
2.09906e-08
2.05185e-08
2.02282e-08
2.01618e-08
2.03311e-08
2.06365e-08
2.09638e-08
2.12789e-08
2.15565e-08
2.19684e-08
2.28949e-08
2.47409e-08
2.79844e-08
3.35874e-08
4.19821e-08
4.94303e-08
5.17626e-08
4.42754e-08
2.46032e-08
7.40791e-09
8.08179e-09
1.28735e-06
1.21983e-06
1.15462e-06
1.09169e-06
1.03099e-06
9.72432e-07
9.15955e-07
8.61572e-07
8.09353e-07
7.59335e-07
7.11502e-07
6.6582e-07
6.22244e-07
5.80757e-07
5.4136e-07
5.04043e-07
4.68779e-07
4.35534e-07
4.0426e-07
3.74908e-07
3.47418e-07
3.21729e-07
2.9778e-07
2.75502e-07
2.54825e-07
2.35673e-07
2.17967e-07
2.01629e-07
1.86582e-07
1.72745e-07
1.60041e-07
1.48395e-07
1.37734e-07
1.27988e-07
1.19088e-07
1.10971e-07
1.03576e-07
9.68487e-08
9.07344e-08
8.51834e-08
8.01511e-08
7.55988e-08
7.14909e-08
6.77887e-08
6.44532e-08
6.14566e-08
5.87906e-08
5.64531e-08
5.4426e-08
5.26536e-08
5.1084e-08
4.96926e-08
4.85506e-08
4.77702e-08
4.7443e-08
4.7577e-08
4.80009e-08
4.85223e-08
4.90398e-08
4.95348e-08
5.03455e-08
5.21148e-08
5.56161e-08
6.17495e-08
7.2338e-08
8.699e-08
9.87514e-08
1.028e-07
9.24295e-08
5.95636e-08
2.03096e-08
2.13573e-08
2.6901e-06
2.55238e-06
2.4192e-06
2.29052e-06
2.16625e-06
2.04625e-06
1.93035e-06
1.81859e-06
1.71109e-06
1.60796e-06
1.50919e-06
1.41472e-06
1.32446e-06
1.23839e-06
1.1565e-06
1.07879e-06
1.00523e-06
9.3575e-07
8.7027e-07
8.08698e-07
7.5092e-07
6.96823e-07
6.46292e-07
5.99194e-07
5.55391e-07
5.1474e-07
4.77082e-07
4.42267e-07
4.10137e-07
3.80535e-07
3.53305e-07
3.28294e-07
3.05355e-07
2.84344e-07
2.65121e-07
2.47555e-07
2.31525e-07
2.16912e-07
2.03607e-07
1.91504e-07
1.80511e-07
1.70543e-07
1.61525e-07
1.53378e-07
1.46026e-07
1.39404e-07
1.33481e-07
1.28241e-07
1.23646e-07
1.19612e-07
1.16042e-07
1.12891e-07
1.10243e-07
1.08252e-07
1.07101e-07
1.0677e-07
1.07018e-07
1.07585e-07
1.08213e-07
1.08937e-07
1.1038e-07
1.13462e-07
1.19541e-07
1.30258e-07
1.48988e-07
1.72823e-07
1.88717e-07
1.9357e-07
1.81004e-07
1.34229e-07
5.32953e-08
5.53155e-08
5.35754e-06
5.092e-06
4.83465e-06
4.58555e-06
4.34457e-06
4.11148e-06
3.88597e-06
3.66805e-06
3.45799e-06
3.25603e-06
3.06224e-06
2.87652e-06
2.69873e-06
2.52884e-06
2.36684e-06
2.21276e-06
2.06658e-06
1.92819e-06
1.79749e-06
1.67431e-06
1.55844e-06
1.44971e-06
1.34791e-06
1.25279e-06
1.16412e-06
1.08163e-06
1.00504e-06
9.34061e-07
8.68401e-07
8.07765e-07
7.51861e-07
7.00395e-07
6.53083e-07
6.09652e-07
5.69827e-07
5.33356e-07
4.99997e-07
4.6952e-07
4.41708e-07
4.16356e-07
3.93273e-07
3.72286e-07
3.53242e-07
3.35993e-07
3.20391e-07
3.06299e-07
2.93618e-07
2.82288e-07
2.72237e-07
2.63368e-07
2.5552e-07
2.4862e-07
2.42685e-07
2.37824e-07
2.34368e-07
2.32229e-07
2.31171e-07
2.31009e-07
2.31156e-07
2.31822e-07
2.34086e-07
2.38949e-07
2.4862e-07
2.66138e-07
2.97925e-07
3.35613e-07
3.51946e-07
3.51391e-07
3.3709e-07
2.833e-07
1.34993e-07
1.40913e-07
1.01907e-05
9.70977e-06
9.24191e-06
8.78743e-06
8.34636e-06
7.91845e-06
7.50316e-06
7.10045e-06
6.71093e-06
6.33521e-06
5.97357e-06
5.62596e-06
5.29222e-06
4.97233e-06
4.66638e-06
4.3745e-06
4.09672e-06
3.833e-06
3.58319e-06
3.34708e-06
3.12436e-06
2.91475e-06
2.71792e-06
2.53349e-06
2.36108e-06
2.20023e-06
2.05046e-06
1.91128e-06
1.78217e-06
1.66261e-06
1.55209e-06
1.45006e-06
1.35602e-06
1.26947e-06
1.1899e-06
1.11684e-06
1.04984e-06
9.88474e-07
9.32327e-07
8.81019e-07
8.34172e-07
7.9145e-07
7.52551e-07
7.17209e-07
6.8516e-07
6.56116e-07
6.2981e-07
6.06056e-07
5.84725e-07
5.65793e-07
5.49035e-07
5.34338e-07
5.21397e-07
5.09971e-07
5.00596e-07
4.93044e-07
4.874e-07
4.84004e-07
4.81689e-07
4.81078e-07
4.83952e-07
4.90717e-07
5.048e-07
5.32329e-07
5.86871e-07
6.52083e-07
6.56658e-07
6.2514e-07
6.04585e-07
5.64262e-07
3.32044e-07
3.5133e-07
1.84017e-05
1.75999e-05
1.68152e-05
1.60484e-05
1.53001e-05
1.45701e-05
1.38578e-05
1.3163e-05
1.24871e-05
1.18313e-05
1.11967e-05
1.05836e-05
9.99188e-06
9.42188e-06
8.87395e-06
8.34863e-06
7.84628e-06
7.36717e-06
6.91131e-06
6.47858e-06
6.06868e-06
5.68133e-06
5.31614e-06
4.97263e-06
4.65028e-06
4.34844e-06
4.06638e-06
3.80335e-06
3.55852e-06
3.33105e-06
3.12008e-06
2.92471e-06
2.74407e-06
2.5773e-06
2.42352e-06
2.28191e-06
2.15166e-06
2.032e-06
1.9222e-06
1.82157e-06
1.72941e-06
1.64508e-06
1.568e-06
1.49773e-06
1.43381e-06
1.37567e-06
1.32264e-06
1.27421e-06
1.23018e-06
1.19084e-06
1.15599e-06
1.12545e-06
1.09793e-06
1.07201e-06
1.04837e-06
1.02669e-06
1.00816e-06
9.94804e-07
9.84599e-07
9.7905e-07
9.8099e-07
9.88768e-07
1.00803e-06
1.05334e-06
1.16042e-06
1.31498e-06
1.28495e-06
1.11297e-06
1.05735e-06
1.07115e-06
7.92456e-07
8.55308e-07
3.24092e-05
3.11906e-05
2.99842e-05
2.87946e-05
2.76236e-05
2.64724e-05
2.53415e-05
2.42297e-05
2.3137e-05
2.20651e-05
2.10169e-05
1.99944e-05
1.89988e-05
1.80305e-05
1.70904e-05
1.61795e-05
1.52994e-05
1.44512e-05
1.36361e-05
1.28549e-05
1.21081e-05
1.13958e-05
1.07182e-05
1.00752e-05
9.46662e-06
8.89209e-06
8.35104e-06
7.84272e-06
7.36622e-06
6.92049e-06
6.50439e-06
6.11671e-06
5.75615e-06
5.4214e-06
5.1111e-06
4.8239e-06
4.55844e-06
4.31338e-06
4.08744e-06
3.87942e-06
3.68811e-06
3.51228e-06
3.35075e-06
3.20251e-06
3.06683e-06
2.943e-06
2.82988e-06
2.7259e-06
2.62986e-06
2.54142e-06
2.46185e-06
2.39123e-06
2.32929e-06
2.27219e-06
2.21546e-06
2.15948e-06
2.10429e-06
2.05388e-06
2.01445e-06
1.98307e-06
1.96305e-06
1.95917e-06
1.96579e-06
1.99551e-06
2.09109e-06
2.35906e-06
2.72422e-06
2.63662e-06
2.07318e-06
1.826e-06
1.96031e-06
1.79327e-06
2.03103e-06
5.08871e-05
4.92465e-05
4.76118e-05
4.59881e-05
4.43785e-05
4.27849e-05
4.12082e-05
3.96468e-05
3.80998e-05
3.65696e-05
3.506e-05
3.35748e-05
3.21161e-05
3.06849e-05
2.92825e-05
2.79109e-05
2.65727e-05
2.52705e-05
2.40069e-05
2.2784e-05
2.16035e-05
2.04667e-05
1.93747e-05
1.83287e-05
1.73293e-05
1.63773e-05
1.54727e-05
1.46156e-05
1.38054e-05
1.30415e-05
1.2323e-05
1.16487e-05
1.10173e-05
1.04273e-05
9.87695e-06
9.36462e-06
8.88844e-06
8.44653e-06
8.03703e-06
7.65818e-06
7.30816e-06
6.98498e-06
6.68662e-06
6.41141e-06
6.15833e-06
5.92638e-06
5.71343e-06
5.51612e-06
5.33175e-06
5.15983e-06
5.00384e-06
4.86494e-06
4.74275e-06
4.6279e-06
4.50913e-06
4.38506e-06
4.25784e-06
4.13666e-06
4.03624e-06
3.95376e-06
3.89655e-06
3.87542e-06
3.88278e-06
3.95913e-06
4.22071e-06
4.8305e-06
5.58754e-06
5.4071e-06
4.11761e-06
3.15276e-06
3.49913e-06
3.73613e-06
4.67626e-06
7.44947e-05
7.24769e-05
7.04554e-05
6.8436e-05
6.64224e-05
6.44176e-05
6.24228e-05
6.04355e-05
5.84534e-05
5.64786e-05
5.45158e-05
5.257e-05
5.06442e-05
4.87397e-05
4.6858e-05
4.50014e-05
4.31734e-05
4.1378e-05
3.96191e-05
3.79e-05
3.62239e-05
3.45934e-05
3.30108e-05
3.14789e-05
2.99998e-05
2.85754e-05
2.72077e-05
2.58977e-05
2.46463e-05
2.34542e-05
2.23213e-05
2.12474e-05
2.0232e-05
1.9274e-05
1.83725e-05
1.75258e-05
1.67322e-05
1.59897e-05
1.52964e-05
1.46503e-05
1.40491e-05
1.34902e-05
1.29706e-05
1.24881e-05
1.20414e-05
1.16295e-05
1.1249e-05
1.08934e-05
1.05574e-05
1.02402e-05
9.94939e-06
9.68888e-06
9.45861e-06
9.23934e-06
9.00692e-06
8.75564e-06
8.49319e-06
8.23564e-06
8.01157e-06
7.82104e-06
7.68005e-06
7.62161e-06
7.65475e-06
7.87347e-06
8.45667e-06
9.64647e-06
1.10573e-05
1.07397e-05
8.21714e-06
5.57417e-06
6.15332e-06
7.1456e-06
1.02992e-05
0.000102522
0.0001002
9.78658e-05
9.5525e-05
9.31822e-05
9.08411e-05
8.85035e-05
8.61657e-05
8.38235e-05
8.1478e-05
7.91342e-05
7.6798e-05
7.4473e-05
7.21602e-05
6.98608e-05
6.75769e-05
6.53123e-05
6.30715e-05
6.08593e-05
5.86799e-05
5.65377e-05
5.44358e-05
5.23779e-05
5.03676e-05
4.84084e-05
4.65038e-05
4.46568e-05
4.28702e-05
4.11464e-05
3.94873e-05
3.78945e-05
3.63691e-05
3.49118e-05
3.35229e-05
3.22023e-05
3.09495e-05
2.97636e-05
2.86432e-05
2.75869e-05
2.65931e-05
2.56599e-05
2.47844e-05
2.39633e-05
2.31937e-05
2.24749e-05
2.18066e-05
2.11841e-05
2.05971e-05
2.00361e-05
1.94998e-05
1.90023e-05
1.85526e-05
1.81523e-05
1.77682e-05
1.73559e-05
1.69009e-05
1.64202e-05
1.59391e-05
1.55068e-05
1.51293e-05
1.48373e-05
1.47106e-05
1.47954e-05
1.52447e-05
1.63111e-05
1.83607e-05
2.07157e-05
2.02164e-05
1.58575e-05
1.04555e-05
1.07115e-05
1.26969e-05
1.93747e-05
0.000134221
0.000131653
0.000129067
0.00012647
0.000123867
0.000121261
0.000118656
0.000116047
0.000113427
0.000110797
0.000108161
0.000105525
0.000102894
0.000100268
9.76486e-05
9.5036e-05
9.24341e-05
8.98472e-05
8.72806e-05
8.4739e-05
8.22268e-05
7.97477e-05
7.73057e-05
7.4905e-05
7.25496e-05
7.02438e-05
6.79917e-05
6.5797e-05
6.36632e-05
6.15934e-05
5.95903e-05
5.76563e-05
5.57933e-05
5.40027e-05
5.22857e-05
5.06428e-05
4.90742e-05
4.75795e-05
4.61577e-05
4.48084e-05
4.35303e-05
4.23208e-05
4.11763e-05
4.00938e-05
3.90734e-05
3.81158e-05
3.72164e-05
3.63609e-05
3.55352e-05
3.4736e-05
3.39844e-05
3.32967e-05
3.26793e-05
3.20853e-05
3.14449e-05
3.07276e-05
2.99582e-05
2.91739e-05
2.84518e-05
2.78085e-05
2.72958e-05
2.70584e-05
2.71931e-05
2.79263e-05
2.96116e-05
3.27187e-05
3.6193e-05
3.54792e-05
2.88303e-05
1.95197e-05
1.83278e-05
2.12065e-05
3.18739e-05
0.000169225
0.000166432
0.000163619
0.000160794
0.000157962
0.000155128
0.000152296
0.000149461
0.000146614
0.000143754
0.000140885
0.000138015
0.000135147
0.000132282
0.000129421
0.000126563
0.000123712
0.000120871
0.000118047
0.000115243
0.000112464
0.000109713
0.000106996
0.000104315
0.000101675
9.90804e-05
9.65357e-05
9.4045e-05
9.16123e-05
8.92411e-05
8.6935e-05
8.46969e-05
8.25294e-05
8.04348e-05
7.84149e-05
7.64711e-05
7.46043e-05
7.28148e-05
7.11023e-05
6.94669e-05
6.79082e-05
6.6424e-05
6.50106e-05
6.36649e-05
6.23873e-05
6.11796e-05
6.0038e-05
5.89465e-05
5.78865e-05
5.6851e-05
5.58642e-05
5.49493e-05
5.41205e-05
5.33275e-05
5.24792e-05
5.15238e-05
5.04792e-05
4.93887e-05
4.83568e-05
4.74178e-05
4.66492e-05
4.62685e-05
4.64265e-05
4.7422e-05
4.97272e-05
5.38888e-05
5.84307e-05
5.74856e-05
4.85414e-05
3.47133e-05
3.04168e-05
3.35796e-05
4.7662e-05
0.000207693
0.000204657
0.000201603
0.000198538
0.000195469
0.000192402
0.000189342
0.000186282
0.000183213
0.000180133
0.000177046
0.000173959
0.000170877
0.000167801
0.00016473
0.000161664
0.000158605
0.000155558
0.000152528
0.000149518
0.000146535
0.00014358
0.000140659
0.000137775
0.000134931
0.000132133
0.000129384
0.000126689
0.000124052
0.000121477
0.000118967
0.000116525
0.000114155
0.000111858
0.000109637
0.000107493
0.000105429
0.000103443
0.000101537
9.97109e-05
9.79642e-05
9.62952e-05
9.47005e-05
9.31766e-05
9.17235e-05
9.03437e-05
8.90348e-05
8.77814e-05
8.65626e-05
8.53664e-05
8.42145e-05
8.31335e-05
8.21467e-05
8.12139e-05
8.02379e-05
7.91502e-05
7.79423e-05
7.66504e-05
7.53883e-05
7.42096e-05
7.32172e-05
7.26996e-05
7.28609e-05
7.40376e-05
7.67974e-05
8.17384e-05
8.70402e-05
8.5913e-05
7.52128e-05
5.72952e-05
4.83082e-05
5.06837e-05
6.66646e-05
0.000250231
0.000246909
0.000243572
0.000240227
0.000236883
0.000233547
0.000230222
0.000226906
0.000223586
0.000220259
0.000216929
0.000213603
0.000210287
0.000206983
0.000203689
0.000200406
0.000197134
0.000193879
0.000190644
0.000187435
0.000184256
0.000181111
0.000178004
0.000174938
0.000171918
0.000168946
0.000166029
0.000163169
0.00016037
0.000157637
0.000154973
0.000152381
0.000149863
0.000147423
0.000145061
0.000142781
0.000140582
0.000138467
0.000136433
0.000134483
0.000132615
0.000130829
0.00012912
0.000127485
0.000125923
0.000124436
0.000123024
0.000121674
0.000120364
0.000119078
0.00011783
0.000116648
0.000115562
0.00011455
0.000113524
0.000112412
0.000111164
0.000109806
0.000108437
0.000107123
0.000105985
0.000105371
0.000105541
0.000106831
0.000109838
0.000115192
0.000120871
0.000119562
0.000107752
8.69679e-05
7.27905e-05
7.3134e-05
8.89667e-05
0.000297768
0.000294101
0.000290424
0.000286744
0.000283068
0.000279406
0.000275765
0.000272139
0.000268517
0.000264893
0.00026127
0.000257657
0.000254062
0.000250485
0.000246926
0.000243384
0.00023986
0.000236359
0.000232885
0.000229443
0.000226039
0.000222677
0.000219359
0.000216089
0.000212872
0.000209711
0.000206611
0.000203576
0.000200608
0.000197713
0.000194894
0.000192152
0.000189492
0.000186915
0.000184423
0.000182017
0.000179699
0.000177469
0.000175327
0.000173273
0.000171306
0.000169424
0.000167626
0.000165905
0.000164261
0.000162696
0.000161209
0.000159791
0.000158421
0.000157079
0.000155773
0.000154525
0.000153373
0.000152315
0.000151279
0.000150195
0.00014898
0.000147644
0.000146258
0.000144893
0.000143677
0.000143009
0.0001432
0.000144577
0.000147706
0.000153217
0.000158995
0.00015745
0.000144947
0.000122419
0.000104035
0.000101098
0.000114772
0.000351454
0.000347376
0.000343294
0.000339213
0.000335143
0.000331092
0.000327069
0.000323072
0.000319085
0.000315103
0.000311127
0.000307168
0.000303233
0.000299324
0.000295441
0.000291583
0.000287751
0.000283949
0.000280181
0.000276453
0.000272772
0.00026914
0.000265562
0.00026204
0.00025858
0.000255185
0.000251859
0.000248607
0.000245431
0.000242337
0.000239326
0.000236402
0.000233568
0.000230825
0.000228175
0.000225619
0.000223159
0.000220794
0.000218524
0.000216348
0.000214267
0.000212278
0.000210378
0.000208562
0.000206828
0.000205176
0.000203609
0.00020212
0.000200688
0.000199291
0.000197929
0.000196621
0.000195407
0.000194306
0.000193263
0.000192215
0.000191054
0.000189768
0.000188402
0.000187022
0.000185765
0.000185063
0.000185282
0.000186743
0.000189962
0.000195528
0.000201267
0.000199388
0.000186241
0.000162549
0.000141206
0.000134297
0.000144353
0.000412606
0.000408049
0.000403494
0.000398945
0.000394412
0.000389905
0.000385435
0.000380999
0.000376583
0.000372176
0.000367783
0.000363411
0.000359072
0.000354767
0.000350497
0.000346259
0.000342055
0.000337888
0.000333764
0.000329689
0.000325668
0.000321706
0.000317807
0.000313975
0.000310213
0.000306526
0.000302917
0.000299392
0.000295954
0.000292607
0.000289353
0.000286197
0.000283139
0.000280183
0.000277329
0.000274579
0.000271934
0.000269394
0.000266957
0.000264623
0.000262391
0.000260261
0.000258228
0.000256287
0.000254434
0.00025267
0.000250998
0.000249413
0.000247898
0.000246427
0.000244991
0.000243608
0.000242319
0.00024116
0.000240094
0.000239067
0.000237951
0.000236708
0.000235363
0.000233975
0.000232681
0.000231949
0.000232195
0.000233745
0.000237063
0.00024267
0.000248303
0.000245954
0.000232012
0.000207203
0.000183692
0.000172372
0.00017835
0.000482688
0.000477583
0.000472488
0.000467406
0.000462343
0.000457312
0.000452327
0.000447386
0.000442474
0.000437578
0.000432701
0.000427852
0.000423042
0.000418276
0.000413552
0.00040887
0.00040423
0.000399635
0.00039509
0.000390602
0.000386179
0.000381823
0.00037754
0.000373334
0.000369208
0.000365168
0.000361216
0.000357358
0.000353598
0.00034994
0.000346386
0.00034294
0.000339604
0.00033638
0.00033327
0.000330275
0.000327395
0.00032463
0.000321979
0.000319441
0.000317016
0.000314702
0.000312495
0.00031039
0.000308382
0.00030647
0.00030466
0.000302948
0.000301319
0.000299745
0.000298212
0.00029673
0.000295343
0.000294105
0.000292994
0.000291964
0.000290878
0.000289658
0.000288319
0.000286911
0.000285573
0.000284806
0.000285073
0.00028671
0.000290136
0.000295781
0.000301246
0.000298257
0.000283281
0.000257114
0.000231546
0.000216242
0.000217549
0.000563309
0.000557589
0.000551891
0.00054621
0.000540554
0.000534936
0.00052937
0.000523858
0.000518385
0.000512937
0.000507513
0.000502123
0.000496778
0.000491486
0.000486246
0.000481055
0.000475915
0.000470828
0.0004658
0.000460837
0.000455947
0.000451136
0.000446407
0.000441764
0.000437213
0.000432758
0.000428403
0.000424152
0.00042001
0.000415982
0.000412069
0.000408277
0.000404606
0.00040106
0.000397639
0.000394345
0.000391178
0.000388138
0.000385225
0.000382436
0.000379771
0.000377228
0.000374804
0.000372494
0.000370292
0.000368195
0.00036621
0.000364337
0.000362563
0.000360856
0.000359196
0.000357589
0.000356081
0.00035474
0.000353561
0.000352505
0.000351442
0.000350212
0.000348861
0.00034742
0.000346025
0.00034521
0.000345484
0.000347197
0.000350717
0.000356367
0.000361564
0.000357735
0.000341467
0.0003136
0.000285616
0.000266074
0.000262467
0.000662657
0.000656215
0.000649822
0.000643462
0.000637125
0.000630817
0.000624551
0.000618345
0.000612203
0.000606109
0.000600047
0.000594016
0.000588024
0.000582085
0.000576206
0.000570388
0.000564629
0.000558928
0.000553289
0.000547716
0.000542218
0.000536802
0.000531474
0.000526238
0.0005211
0.000516064
0.000511134
0.000506316
0.000501614
0.000497033
0.000492576
0.000488249
0.000484054
0.000479993
0.000476069
0.000472284
0.000468639
0.000465134
0.00046177
0.000458544
0.000455457
0.000452506
0.00044969
0.000447007
0.000444451
0.000442014
0.000439695
0.000437499
0.000435431
0.000433478
0.000431608
0.000429793
0.000428037
0.000426384
0.000424917
0.000423647
0.000422544
0.000421478
0.000420233
0.000418851
0.00041736
0.000415893
0.000415015
0.000415277
0.000417034
0.000420604
0.00042618
0.000430957
0.000426069
0.000408254
0.000378345
0.000347389
0.000322906
0.000313589
0.000770448
0.000763268
0.000756157
0.00074909
0.000742051
0.000735045
0.000728082
0.000721185
0.000714359
0.000707591
0.000700865
0.000694173
0.000687527
0.000680939
0.000674417
0.000667965
0.000661582
0.000655265
0.000649018
0.000642845
0.000636755
0.000630756
0.000624854
0.000619055
0.000613364
0.000607786
0.000602326
0.000596989
0.000591779
0.000586702
0.000581763
0.000576966
0.000572313
0.000567809
0.000563455
0.000559254
0.000555207
0.000551314
0.000547575
0.00054399
0.000540557
0.000537275
0.000534142
0.000531158
0.000528314
0.000525604
0.000523024
0.000520583
0.000518285
0.000516122
0.000514059
0.000512063
0.000510131
0.000508311
0.000506697
0.000505316
0.000504147
0.000503056
0.000501802
0.000500368
0.000498811
0.000497256
0.000496293
0.000496512
0.000498268
0.000501811
0.000507183
0.000511333
0.000505178
0.000485567
0.000453269
0.000418686
0.000388552
0.000371954
0.000894338
0.000886406
0.000878555
0.000870757
0.00086299
0.000855256
0.000847566
0.000839943
0.000832396
0.000824916
0.000817484
0.000810092
0.000802749
0.000795468
0.000788259
0.000781128
0.000774072
0.000767091
0.000760188
0.000753366
0.000746634
0.000740002
0.000733476
0.000727062
0.000720767
0.000714595
0.000708552
0.000702643
0.000696873
0.000691249
0.000685775
0.000680456
0.000675295
0.000670296
0.000665462
0.000660794
0.000656295
0.000651965
0.000647805
0.000643814
0.00063999
0.000636332
0.00063284
0.000629511
0.000626341
0.000623319
0.000620443
0.00061772
0.00061516
0.000612756
0.000610472
0.000608267
0.000606138
0.000604129
0.00060235
0.00060084
0.000599588
0.000598457
0.000597197
0.000595705
0.000594068
0.000592407
0.000591331
0.000591469
0.000593159
0.000596564
0.000601557
0.00060483
0.000597266
0.000575584
0.000540485
0.000501447
0.000464639
0.000439153
0.00103621
0.00102755
0.00101898
0.00101046
0.00100197
0.000993509
0.000985089
0.000976732
0.000968452
0.000960243
0.000952087
0.000943974
0.000935911
0.000927912
0.000919987
0.000912145
0.000904385
0.000896706
0.00088911
0.000881602
0.000874191
0.000866885
0.000859693
0.000852623
0.00084568
0.00083887
0.000832199
0.000825674
0.000819299
0.000813081
0.000807026
0.000801138
0.000795422
0.000789881
0.00078452
0.000779339
0.000774343
0.00076953
0.000764904
0.000760462
0.000756203
0.000752128
0.000748235
0.000744523
0.000740986
0.000737616
0.000734408
0.000731372
0.000728519
0.000725844
0.000723311
0.000720875
0.000718526
0.000716309
0.000714348
0.000712695
0.000711348
0.000710166
0.00070888
0.00070738
0.00070565
0.000703863
0.000702639
0.000702644
0.000704187
0.000707322
0.000711719
0.000713818
0.00070492
0.000680704
0.000642241
0.000597645
0.000552745
0.000516573
0.0011978
0.0011885
0.00117926
0.00117008
0.00116092
0.00115178
0.00114267
0.00113361
0.00112463
0.00111571
0.00110684
0.00109802
0.00108925
0.00108053
0.00107189
0.00106333
0.00105486
0.00104647
0.00103816
0.00102995
0.00102184
0.00101384
0.00100596
0.000998202
0.000990582
0.000983104
0.000975773
0.000968597
0.000961582
0.000954735
0.000948061
0.000941567
0.000935257
0.000929136
0.000923208
0.000917475
0.00091194
0.000906606
0.000901473
0.000896541
0.000891809
0.000887277
0.000882946
0.000878815
0.000874878
0.000871125
0.000867554
0.000864174
0.000860998
0.000858028
0.000855223
0.000852535
0.000849947
0.000847508
0.000845351
0.000843546
0.000842097
0.000840859
0.00083954
0.000838015
0.000836262
0.000834358
0.000832934
0.00083275
0.000834056
0.000836767
0.000840312
0.000840882
0.000830554
0.000803413
0.000760792
0.000709219
0.000654398
0.000605292
0.00138047
0.00137068
0.00136093
0.00135122
0.00134151
0.0013318
0.0013221
0.00131244
0.00130282
0.00129326
0.00128376
0.00127428
0.00126485
0.00125546
0.00124614
0.00123689
0.00122773
0.00121865
0.00120966
0.00120076
0.00119195
0.00118326
0.00117469
0.00116625
0.00115794
0.00114979
0.00114178
0.00113394
0.00112627
0.00111877
0.00111146
0.00110434
0.00109741
0.00109068
0.00108416
0.00107785
0.00107174
0.00106586
0.00106019
0.00105474
0.0010495
0.00104448
0.00103968
0.0010351
0.00103073
0.00102657
0.00102261
0.00101886
0.00101534
0.00101206
0.00100896
0.001006
0.00100317
0.0010005
0.000998138
0.000996177
0.000994624
0.000993331
0.000991994
0.00099045
0.000988669
0.000986727
0.000985086
0.000984659
0.000985633
0.000987757
0.000990165
0.000988682
0.000976423
0.000946141
0.000898251
0.000837963
0.000771015
0.000706175
0.00158504
0.00157501
0.00156498
0.00155495
0.0015449
0.00153482
0.00152471
0.0015146
0.00150452
0.00149446
0.00148444
0.00147443
0.00146445
0.0014545
0.00144459
0.00143474
0.00142497
0.00141527
0.00140565
0.00139611
0.00138666
0.00137732
0.0013681
0.001359
0.00135004
0.00134123
0.00133257
0.00132408
0.00131576
0.00130762
0.00129967
0.00129192
0.00128437
0.00127703
0.0012699
0.001263
0.00125632
0.00124987
0.00124364
0.00123765
0.0012319
0.00122637
0.00122109
0.00121604
0.00121123
0.00120664
0.00120227
0.00119814
0.00119426
0.00119064
0.00118725
0.00118402
0.00118093
0.00117802
0.00117547
0.00117335
0.0011717
0.00117038
0.00116904
0.00116751
0.00116572
0.00116375
0.00116199
0.00116127
0.00116181
0.00116318
0.00116411
0.00115976
0.00114513
0.00111097
0.00105647
0.000985477
0.000903848
0.000819916
0.00181156
0.00180165
0.00179168
0.00178165
0.00177156
0.00176139
0.00175115
0.00174085
0.00173053
0.00172021
0.00170988
0.00169955
0.0016892
0.00167885
0.00166853
0.00165823
0.00164799
0.0016378
0.00162767
0.0016176
0.00160762
0.00159773
0.00158793
0.00157826
0.00156872
0.00155931
0.00155006
0.00154097
0.00153205
0.00152331
0.00151476
0.00150641
0.00149826
0.00149033
0.00148263
0.00147515
0.0014679
0.00146089
0.00145412
0.0014476
0.00144133
0.0014353
0.00142953
0.00142401
0.00141875
0.00141373
0.00140895
0.00140443
0.00140019
0.00139625
0.00139256
0.00138906
0.00138572
0.00138259
0.00137983
0.00137758
0.00137586
0.00137453
0.00137323
0.00137175
0.00137001
0.00136806