/*--------------------------------*- C++ -*----------------------------------*\
| =========                 |                                                 |
| \\      /  F ield         | OpenFOAM: The Open Source CFD Toolbox           |
|  \\    /   O peration     | Version:  2412                                  |
|   \\  /    A nd           | Website:  www.openfoam.com                      |
|    \\/     M anipulation  |                                                 |
\*---------------------------------------------------------------------------*/
FoamFile
{
    version     2.0;
    format      ascii;
    arch        "LSB;label=32;scalar=64";
    class       surfaceScalarField;
    location    "500";
    object      phi;
}
// * * * * * * * * * * * * * * * * * * * * * * * * * * * * * * * * * * * * * //

dimensions      [0 3 -1 0 0 0 0];

oriented        oriented;

internalField   nonuniform List<scalar> 
14599
(
1.12923e-06
3.38761e-08
1.09556e-06
3.36648e-08
1.06223e-06
3.33338e-08
1.02909e-06
3.31439e-08
9.96167e-07
3.29245e-08
9.63446e-07
3.2722e-08
9.30994e-07
3.24539e-08
8.98867e-07
3.21281e-08
8.6715e-07
3.17184e-08
8.35831e-07
3.13201e-08
8.04963e-07
3.08685e-08
7.74521e-07
3.04996e-08
7.44478e-07
2.99889e-08
7.15011e-07
2.95128e-08
6.86137e-07
2.88293e-08
6.57888e-07
2.82844e-08
6.30259e-07
2.75957e-08
6.03327e-07
2.69547e-08
5.77107e-07
2.61993e-08
5.51675e-07
2.54327e-08
5.26972e-07
2.47026e-08
5.03089e-07
2.38841e-08
4.80034e-07
2.30554e-08
4.57799e-07
2.22361e-08
4.36439e-07
2.13605e-08
4.15937e-07
2.05023e-08
3.96276e-07
1.96614e-08
3.77482e-07
1.87946e-08
3.59546e-07
1.79359e-08
3.42465e-07
1.7083e-08
3.26218e-07
1.62469e-08
3.10794e-07
1.54236e-08
2.96197e-07
1.45974e-08
2.82384e-07
1.38131e-08
2.6936e-07
1.30242e-08
2.57086e-07
1.22736e-08
2.45563e-07
1.15239e-08
2.34759e-07
1.08043e-08
2.24667e-07
1.00922e-08
2.15252e-07
9.41444e-09
2.06529e-07
8.72299e-09
1.98502e-07
8.02729e-09
1.91133e-07
7.36936e-09
1.84366e-07
6.7667e-09
1.78175e-07
6.1909e-09
1.72665e-07
5.51014e-09
1.67987e-07
4.67764e-09
1.64226e-07
3.76131e-09
1.61135e-07
3.09031e-09
1.58378e-07
2.75717e-09
1.55799e-07
2.57853e-09
1.53791e-07
2.00841e-09
1.53519e-07
2.71666e-10
1.55682e-07
-2.16345e-09
1.60741e-07
-5.05946e-09
1.67883e-07
-7.14118e-09
1.74743e-07
-6.86032e-09
1.80759e-07
-6.01646e-09
1.85653e-07
-4.89452e-09
1.89861e-07
-4.20803e-09
1.99051e-07
-9.18971e-09
2.19277e-07
-2.02259e-08
2.5528e-07
-3.60037e-08
3.1452e-07
-5.92398e-08
4.22632e-07
-1.08113e-07
5.59566e-07
-1.36933e-07
5.90188e-07
-3.0623e-08
4.39369e-07
1.5082e-07
1.83315e-07
2.56053e-07
-9.80194e-09
1.93117e-07
-9.92767e-08
8.94747e-08
1.11565e-07
4.01879e-06
1.54283e-07
3.89958e-06
1.52871e-07
3.78121e-06
1.51713e-07
3.66372e-06
1.5064e-07
3.54707e-06
1.49578e-07
3.43099e-06
1.48796e-07
3.31584e-06
1.47607e-07
3.20198e-06
1.45991e-07
3.08952e-06
1.44183e-07
2.97851e-06
1.42333e-07
2.86888e-06
1.40503e-07
2.76071e-06
1.38749e-07
2.65443e-06
1.36193e-07
2.54991e-06
1.34098e-07
2.44747e-06
1.31204e-07
2.34723e-06
1.28575e-07
2.24922e-06
1.25558e-07
2.15376e-06
1.22454e-07
2.06077e-06
1.19153e-07
1.9705e-06
1.15704e-07
1.88287e-06
1.12334e-07
1.79812e-06
1.08636e-07
1.71628e-06
1.049e-07
1.63742e-06
1.01093e-07
1.56157e-06
9.72135e-08
1.48873e-06
9.33509e-08
1.41895e-06
8.94375e-08
1.35225e-06
8.54913e-08
1.28855e-06
8.16402e-08
1.22791e-06
7.77242e-08
1.17022e-06
7.39345e-08
1.11547e-06
7.01811e-08
1.06357e-06
6.64908e-08
1.01454e-06
6.28482e-08
9.68212e-07
5.93497e-08
9.24635e-07
5.58507e-08
8.83676e-07
5.24837e-08
8.45292e-07
4.9189e-08
8.09366e-07
4.60185e-08
7.75917e-07
4.28632e-08
7.44882e-07
3.9758e-08
7.16289e-07
3.66201e-08
6.90059e-07
3.35999e-08
6.65942e-07
3.08836e-08
6.43901e-07
2.82317e-08
6.24211e-07
2.52002e-08
6.07481e-07
2.14077e-08
5.93936e-07
1.7306e-08
5.82768e-07
1.42577e-08
5.72816e-07
1.27088e-08
5.63505e-07
1.189e-08
5.56229e-07
9.28361e-09
5.54935e-07
1.56566e-09
5.62078e-07
-9.30708e-09
5.7925e-07
-2.22319e-08
6.03594e-07
-3.14849e-08
6.27156e-07
-3.04226e-08
6.47886e-07
-2.6747e-08
6.64707e-07
-2.17151e-08
6.79341e-07
-1.88422e-08
7.10992e-07
-4.0842e-08
7.80274e-07
-8.95071e-08
9.03717e-07
-1.59448e-07
1.10625e-06
-2.61768e-07
1.47365e-06
-4.75515e-07
1.93433e-06
-5.97615e-07
2.04741e-06
-1.43699e-07
1.55091e-06
6.47319e-07
6.79025e-07
1.12793e-06
1.45581e-09
8.70686e-07
-3.34662e-07
4.25592e-07
4.91709e-07
8.08418e-06
3.95472e-07
7.84473e-06
3.92326e-07
7.60743e-06
3.89016e-07
7.37178e-06
3.8629e-07
7.13752e-06
3.83844e-07
6.90509e-06
3.81229e-07
6.67435e-06
3.78345e-07
6.44586e-06
3.7449e-07
6.22035e-06
3.69691e-07
5.99767e-06
3.65018e-07
5.77793e-06
3.6024e-07
5.56131e-06
3.55463e-07
5.34784e-06
3.49574e-07
5.13828e-06
3.43732e-07
4.93283e-06
3.36588e-07
4.73175e-06
3.29708e-07
4.53539e-06
3.21868e-07
4.34376e-06
3.14114e-07
4.15743e-06
3.05455e-07
3.97604e-06
2.97095e-07
3.80044e-06
2.8793e-07
3.6304e-06
2.78681e-07
3.46621e-06
2.69087e-07
3.30794e-06
2.59361e-07
3.15572e-06
2.49445e-07
3.00958e-06
2.39491e-07
2.86959e-06
2.29418e-07
2.73563e-06
2.19459e-07
2.60781e-06
2.09456e-07
2.48598e-06
1.99557e-07
2.37017e-06
1.89748e-07
2.2602e-06
1.80146e-07
2.15605e-06
1.70644e-07
2.05751e-06
1.61384e-07
1.96455e-06
1.52319e-07
1.87696e-06
1.43438e-07
1.79467e-06
1.3477e-07
1.71752e-06
1.26339e-07
1.6454e-06
1.18146e-07
1.57812e-06
1.10143e-07
1.5157e-06
1.0217e-07
1.45823e-06
9.40968e-08
1.40542e-06
8.64101e-08
1.35688e-06
7.94168e-08
1.31245e-06
7.26664e-08
1.2728e-06
6.48456e-08
1.23893e-06
5.5278e-08
1.21141e-06
4.48283e-08
1.18858e-06
3.70832e-08
1.16833e-06
3.29632e-08
1.14937e-06
3.08511e-08
1.13452e-06
2.41318e-08
1.13131e-06
4.7724e-09
1.14464e-06
-2.26378e-08
1.17762e-06
-5.52089e-08
1.22462e-06
-7.8482e-08
1.27044e-06
-7.62448e-08
1.31081e-06
-6.71175e-08
1.34357e-06
-5.44797e-08
1.37238e-06
-4.76484e-08
1.43383e-06
-1.02295e-07
1.5683e-06
-2.23971e-07
1.80767e-06
-3.98823e-07
2.1995e-06
-6.53601e-07
2.90544e-06
-1.18145e-06
3.78793e-06
-1.48011e-06
4.02351e-06
-3.79275e-07
3.09553e-06
1.5753e-06
1.41291e-06
2.81055e-06
6.58455e-08
2.21775e-06
-6.34418e-07
1.12586e-06
1.2318e-06
1.37124e-05
8.03439e-07
1.33076e-05
7.97062e-07
1.29062e-05
7.90409e-07
1.2508e-05
7.84498e-07
1.21123e-05
7.79624e-07
1.17189e-05
7.74639e-07
1.1329e-05
7.68248e-07
1.0943e-05
7.60407e-07
1.05617e-05
7.51018e-07
1.01851e-05
7.4168e-07
9.81351e-06
7.31797e-07
9.4473e-06
7.21753e-07
9.08669e-06
7.10113e-07
8.73237e-06
6.9811e-07
8.38487e-06
6.84025e-07
8.04487e-06
6.69758e-07
7.71284e-06
6.5386e-07
7.38891e-06
6.38069e-07
7.07351e-06
6.20829e-07
6.76717e-06
6.0344e-07
6.46992e-06
5.85181e-07
6.18225e-06
5.66349e-07
5.90439e-06
5.46947e-07
5.63673e-06
5.2702e-07
5.37911e-06
5.07068e-07
5.13192e-06
4.86682e-07
4.89492e-06
4.66426e-07
4.66831e-06
4.46072e-07
4.45199e-06
4.25776e-07
4.24581e-06
4.05732e-07
4.04973e-06
3.85836e-07
3.86356e-06
3.66312e-07
3.68718e-06
3.47025e-07
3.52031e-06
3.28254e-07
3.36288e-06
3.09748e-07
3.21447e-06
2.9185e-07
3.07509e-06
2.74149e-07
2.94438e-06
2.57049e-07
2.82212e-06
2.40412e-07
2.70812e-06
2.24138e-07
2.60232e-06
2.07966e-07
2.50478e-06
1.91639e-07
2.41514e-06
1.76053e-07
2.33277e-06
1.61784e-07
2.2573e-06
1.48134e-07
2.1898e-06
1.32346e-07
2.13209e-06
1.12992e-07
2.08486e-06
9.20541e-08
2.04565e-06
7.62963e-08
2.01073e-06
6.7881e-08
1.97821e-06
6.33742e-08
1.9525e-06
4.98405e-08
1.94596e-06
1.13117e-08
1.96667e-06
-4.3345e-08
2.01968e-06
-1.08225e-07
2.09595e-06
-1.54748e-07
2.17069e-06
-1.50981e-07
2.23672e-06
-1.33155e-07
2.2904e-06
-1.08154e-07
2.33798e-06
-9.52282e-08
2.43838e-06
-2.02701e-07
2.65723e-06
-4.42817e-07
3.04696e-06
-7.88559e-07
3.68317e-06
-1.28981e-06
4.81928e-06
-2.31756e-06
6.2405e-06
-2.90132e-06
6.65464e-06
-7.93417e-07
5.20462e-06
3.02532e-06
2.47999e-06
5.53518e-06
2.22785e-07
4.47495e-06
-1.00043e-06
2.34907e-06
2.44601e-06
2.14084e-05
1.43816e-06
2.07797e-05
1.42576e-06
2.01552e-05
1.41489e-06
1.95359e-05
1.40383e-06
1.89205e-05
1.39502e-06
1.83091e-05
1.38605e-06
1.77023e-05
1.37504e-06
1.7102e-05
1.36068e-06
1.65086e-05
1.34442e-06
1.59234e-05
1.32688e-06
1.53456e-05
1.30964e-06
1.47757e-05
1.29174e-06
1.42148e-05
1.27094e-06
1.36634e-05
1.24955e-06
1.3123e-05
1.22439e-06
1.25941e-05
1.19869e-06
1.20771e-05
1.17078e-06
1.15733e-05
1.14196e-06
1.10824e-05
1.11166e-06
1.06057e-05
1.08017e-06
1.01431e-05
1.04776e-06
9.69532e-06
1.01412e-06
9.26287e-06
9.79399e-07
8.84594e-06
9.43951e-07
8.44485e-06
9.08162e-07
8.05983e-06
8.71696e-07
7.69068e-06
8.35576e-07
7.33776e-06
7.98998e-07
7.00057e-06
7.62966e-07
6.67936e-06
7.26944e-07
6.3738e-06
6.9139e-07
6.08379e-06
6.56331e-07
5.8089e-06
6.21911e-07
5.5488e-06
5.88354e-07
5.30318e-06
5.55364e-07
5.07195e-06
5.23084e-07
4.85457e-06
4.91525e-07
4.65079e-06
4.60837e-07
4.46005e-06
4.31144e-07
4.28211e-06
4.02084e-07
4.11702e-06
3.73059e-07
3.96467e-06
3.43988e-07
3.82466e-06
3.16061e-07
3.69581e-06
2.90632e-07
3.57783e-06
2.66114e-07
3.47222e-06
2.37953e-07
3.38149e-06
2.03722e-07
3.30692e-06
1.66625e-07
3.2447e-06
1.38518e-07
3.18932e-06
1.23262e-07
3.13786e-06
1.14838e-07
3.09686e-06
9.08384e-08
3.08479e-06
2.33832e-08
3.11382e-06
-7.23819e-08
3.19156e-06
-1.8596e-07
3.30469e-06
-2.6788e-07
3.41632e-06
-2.62616e-07
3.51522e-06
-2.32052e-07
3.59594e-06
-1.88878e-07
3.66771e-06
-1.66996e-07
3.81779e-06
-3.52778e-07
4.14417e-06
-7.69197e-07
4.72448e-06
-1.36887e-06
5.66966e-06
-2.23499e-06
7.34e-06
-3.98791e-06
9.43266e-06
-4.99398e-06
1.01001e-05
-1.46081e-06
8.04282e-06
5.08256e-06
4.00979e-06
9.56821e-06
5.35095e-07
7.94964e-06
-1.4278e-06
4.31197e-06
4.2722e-06
3.18243e-05
2.37598e-06
3.08935e-05
2.35658e-06
2.99709e-05
2.33751e-06
2.90547e-05
2.32004e-06
2.8144e-05
2.30563e-06
2.72396e-05
2.2905e-06
2.63426e-05
2.27201e-06
2.54544e-05
2.24893e-06
2.4577e-05
2.22176e-06
2.37102e-05
2.19372e-06
2.28556e-05
2.16426e-06
2.20122e-05
2.13525e-06
2.11817e-05
2.10135e-06
2.03656e-05
2.06571e-06
1.95655e-05
2.02446e-06
1.87823e-05
1.98194e-06
1.80173e-05
1.93567e-06
1.72703e-05
1.88895e-06
1.65436e-05
1.83841e-06
1.58368e-05
1.7869e-06
1.51515e-05
1.7331e-06
1.44883e-05
1.67734e-06
1.38473e-05
1.62037e-06
1.32293e-05
1.56198e-06
1.26347e-05
1.5028e-06
1.20636e-05
1.4428e-06
1.15164e-05
1.38276e-06
1.09928e-05
1.32263e-06
1.04928e-05
1.26288e-06
1.00163e-05
1.2035e-06
9.56298e-06
1.14469e-06
9.13251e-06
1.08681e-06
8.72437e-06
1.03005e-06
8.33852e-06
9.74199e-07
7.97397e-06
9.19916e-07
7.63065e-06
8.66407e-07
7.30772e-06
8.14451e-07
7.00486e-06
7.63697e-07
6.7215e-06
7.14508e-07
6.45714e-06
6.66444e-07
6.21169e-06
6.18505e-07
5.98514e-06
5.70536e-07
5.77658e-06
5.24622e-07
5.58486e-06
4.82359e-07
5.40917e-06
4.41802e-07
5.25149e-06
3.95627e-07
5.11566e-06
3.39551e-07
5.00332e-06
2.7897e-07
4.90914e-06
2.32701e-07
4.82539e-06
2.07005e-07
4.74765e-06
1.92583e-07
4.68534e-06
1.53142e-07
4.66434e-06
4.43896e-08
4.70218e-06
-1.10228e-07
4.80969e-06
-2.93466e-07
4.96797e-06
-4.26167e-07
5.12562e-06
-4.20266e-07
5.26576e-06
-3.72187e-07
5.38074e-06
-3.03864e-07
5.48341e-06
-2.69664e-07
5.69591e-06
-5.65279e-07
6.15616e-06
-1.22945e-06
6.97388e-06
-2.18659e-06
8.30142e-06
-3.56253e-06
1.06197e-05
-6.30623e-06
1.35297e-05
-7.90399e-06
1.45484e-05
-2.47945e-06
1.18121e-05
7.81889e-06
6.1763e-06
1.5204e-05
1.0981e-06
1.30278e-05
-1.89767e-06
7.30775e-06
6.87433e-06
4.57808e-05
3.71428e-06
4.44528e-05
3.68455e-06
4.31348e-05
3.65559e-06
4.18258e-05
3.62896e-06
4.05261e-05
3.60543e-06
3.92344e-05
3.5822e-06
3.79517e-05
3.55466e-06
3.66822e-05
3.51846e-06
3.54274e-05
3.47658e-06
3.41884e-05
3.43271e-06
3.29648e-05
3.38784e-06
3.17587e-05
3.3414e-06
3.057e-05
3.28996e-06
2.94021e-05
3.23369e-06
2.82568e-05
3.16968e-06
2.71348e-05
3.10398e-06
2.60385e-05
3.03195e-06
2.49694e-05
2.95813e-06
2.39275e-05
2.88024e-06
2.29149e-05
2.79957e-06
2.19321e-05
2.71584e-06
2.09807e-05
2.62876e-06
2.00614e-05
2.53969e-06
1.91749e-05
2.44842e-06
1.8322e-05
2.35577e-06
1.75023e-05
2.26243e-06
1.67167e-05
2.16843e-06
1.59648e-05
2.07454e-06
1.52468e-05
1.9808e-06
1.45624e-05
1.88791e-06
1.39112e-05
1.79595e-06
1.32926e-05
1.70543e-06
1.27064e-05
1.61626e-06
1.21514e-05
1.52912e-06
1.16276e-05
1.44379e-06
1.11337e-05
1.36031e-06
1.06695e-05
1.27864e-06
1.02339e-05
1.19925e-06
9.82614e-06
1.12229e-06
9.44559e-06
1.04699e-06
9.092e-06
9.72092e-07
8.7655e-06
8.9704e-07
8.465e-06
8.25121e-07
8.1884e-06
7.58956e-07
7.93468e-06
6.95523e-07
7.70676e-06
6.23549e-07
7.50962e-06
5.36682e-07
7.34546e-06
4.43134e-07
7.20722e-06
3.70946e-07
7.08413e-06
3.30086e-07
6.97049e-06
3.06229e-07
6.87854e-06
2.4509e-07
6.84349e-06
7.94378e-08
6.88939e-06
-1.56128e-07
7.03114e-06
-4.3521e-07
7.24378e-06
-6.38815e-07
7.45737e-06
-6.33849e-07
7.64814e-06
-5.62965e-07
7.80535e-06
-4.61075e-07
7.94726e-06
-4.11573e-07
8.23647e-06
-8.54486e-07
8.8601e-06
-1.85308e-06
9.9672e-06
-3.29369e-06
1.17594e-05
-5.35468e-06
1.48451e-05
-9.392e-06
1.87254e-05
-1.17842e-05
2.02156e-05
-3.96965e-06
1.67594e-05
1.12751e-05
9.20966e-06
2.27537e-05
2.05333e-06
2.01842e-05
-2.36757e-06
1.17286e-05
1.04387e-05
6.42687e-05
5.56928e-06
6.24272e-05
5.52609e-06
6.05993e-05
5.48349e-06
5.87833e-05
5.44493e-06
5.69784e-05
5.41035e-06
5.51827e-05
5.37791e-06
5.34004e-05
5.33697e-06
5.16344e-05
5.28448e-06
4.98882e-05
5.2228e-06
4.81629e-05
5.15801e-06
4.64586e-05
5.0921e-06
4.47773e-05
5.02278e-06
4.31205e-05
4.94671e-06
4.14911e-05
4.86321e-06
3.98916e-05
4.76904e-06
3.83263e-05
4.66934e-06
3.67949e-05
4.56331e-06
3.52999e-05
4.45314e-06
3.38435e-05
4.33664e-06
3.24271e-05
4.21596e-06
3.10526e-05
4.09042e-06
2.97205e-05
3.96079e-06
2.84333e-05
3.82689e-06
2.71918e-05
3.68999e-06
2.59965e-05
3.55102e-06
2.4848e-05
3.41096e-06
2.37463e-05
3.27016e-06
2.2692e-05
3.1288e-06
2.16849e-05
2.98787e-06
2.07245e-05
2.84836e-06
1.98102e-05
2.71023e-06
1.89418e-05
2.57383e-06
1.81184e-05
2.43967e-06
1.7339e-05
2.30848e-06
1.66027e-05
2.18012e-06
1.59086e-05
2.05438e-06
1.52558e-05
1.93146e-06
1.46435e-05
1.81158e-06
1.40698e-05
1.696e-06
1.35343e-05
1.5825e-06
1.30366e-05
1.46972e-06
1.25764e-05
1.35723e-06
1.21528e-05
1.24875e-06
1.17624e-05
1.1494e-06
1.14042e-05
1.05366e-06
1.10819e-05
9.45882e-07
1.08017e-05
8.1686e-07
1.05671e-05
6.77771e-07
1.03683e-05
5.69732e-07
1.01913e-05
5.07053e-07
1.00284e-05
4.69193e-07
9.89541e-06
3.78045e-07
9.83838e-06
1.36471e-07
9.89011e-06
-2.07856e-07
1.00697e-05
-6.14805e-07
1.03449e-05
-9.14013e-07
1.06247e-05
-9.13682e-07
1.08762e-05
-8.14395e-07
1.10848e-05
-6.69706e-07
1.12745e-05
-6.01266e-07
1.16564e-05
-1.2364e-06
1.24761e-05
-2.67275e-06
1.39289e-05
-4.7465e-06
1.6273e-05
-7.69879e-06
2.02455e-05
-1.33645e-05
2.52458e-05
-1.67846e-05
2.73461e-05
-6.06997e-06
2.31722e-05
1.5449e-05
1.34075e-05
3.25184e-05
3.60767e-06
2.9984e-05
-2.75472e-06
1.8091e-05
1.51819e-05
8.83835e-05
8.06339e-06
8.59025e-05
8.00717e-06
8.3437e-05
7.9489e-06
8.09853e-05
7.89672e-06
7.85458e-05
7.84987e-06
7.61182e-05
7.80547e-06
7.37043e-05
7.75088e-06
7.13098e-05
7.67897e-06
6.89395e-05
7.59317e-06
6.65953e-05
7.50215e-06
6.42789e-05
7.4085e-06
6.19907e-05
7.31107e-06
5.97337e-05
7.20363e-06
5.7512e-05
7.08503e-06
5.53305e-05
6.95042e-06
5.3191e-05
6.80894e-06
5.10982e-05
6.65602e-06
4.90538e-05
6.49756e-06
4.70599e-05
6.33055e-06
4.51199e-05
6.15594e-06
4.32349e-05
5.97539e-06
4.14086e-05
5.78718e-06
3.96417e-05
5.59372e-06
3.79363e-05
5.39545e-06
3.62933e-05
5.19402e-06
3.47141e-05
4.99009e-06
3.31986e-05
4.78566e-06
3.17477e-05
4.57975e-06
3.03602e-05
4.37539e-06
2.90372e-05
4.17132e-06
2.77772e-05
3.97023e-06
2.65797e-05
3.77139e-06
2.54438e-05
3.57556e-06
2.43681e-05
3.38416e-06
2.33515e-05
3.19665e-06
2.23932e-05
3.01275e-06
2.14914e-05
2.83328e-06
2.06447e-05
2.65826e-06
1.98517e-05
2.48898e-06
1.91107e-05
2.32356e-06
1.84217e-05
2.15868e-06
1.77844e-05
1.99457e-06
1.71965e-05
1.83658e-06
1.6655e-05
1.69095e-06
1.61578e-05
1.55084e-06
1.57092e-05
1.39453e-06
1.53176e-05
1.20846e-06
1.49867e-05
1.00862e-06
1.47052e-05
8.51222e-07
1.44545e-05
7.57742e-07
1.42242e-05
6.99492e-07
1.40347e-05
5.67564e-07
1.39446e-05
2.26594e-07
1.39959e-05
-2.59155e-07
1.42146e-05
-8.33525e-07
1.4559e-05
-1.25842e-06
1.49147e-05
-1.26941e-06
1.52363e-05
-1.13592e-06
1.55052e-05
-9.38597e-07
1.57526e-05
-8.48758e-07
1.62444e-05
-1.72818e-06
1.72933e-05
-3.72164e-06
1.91498e-05
-6.60302e-06
2.21358e-05
-1.06847e-05
2.71072e-05
-1.83359e-05
3.33595e-05
-2.30368e-05
3.62156e-05
-8.92607e-06
3.13828e-05
2.02817e-05
1.91405e-05
4.47607e-05
6.05516e-06
4.30693e-05
-2.90852e-06
2.70547e-05
2.13548e-05
0.000119122
1.13063e-05
0.000115892
1.12373e-05
0.000112674
1.11667e-05
0.000109467
1.1103e-05
0.000106271
1.10461e-05
0.000103084
1.09931e-05
9.99094e-05
1.0925e-05
9.67555e-05
1.08328e-05
9.36277e-05
1.0721e-05
9.05283e-05
1.06015e-05
8.746e-05
1.04768e-05
8.4424e-05
1.03472e-05
8.14251e-05
1.02025e-05
7.84696e-05
1.00406e-05
7.55602e-05
9.85974e-06
7.27053e-05
9.66396e-06
6.99072e-05
9.45404e-06
6.71702e-05
9.2346e-06
6.44986e-05
9.0021e-06
6.1894e-05
8.76058e-06
5.93621e-05
8.50724e-06
5.69044e-05
8.2449e-06
5.45253e-05
7.97287e-06
5.22259e-05
7.69483e-06
5.00091e-05
7.41078e-06
4.78751e-05
7.12411e-06
4.58265e-05
6.83428e-06
4.38623e-05
6.54392e-06
4.19842e-05
6.25351e-06
4.01903e-05
5.96524e-06
3.84816e-05
5.67891e-06
3.68562e-05
5.39673e-06
3.53133e-05
5.11852e-06
3.38518e-05
4.8456e-06
3.24694e-05
4.57908e-06
3.11651e-05
4.31708e-06
2.99373e-05
4.06104e-06
2.8784e-05
3.81162e-06
2.77028e-05
3.57017e-06
2.66923e-05
3.33405e-06
2.5752e-05
3.09895e-06
2.48808e-05
2.86574e-06
2.40769e-05
2.64053e-06
2.33356e-05
2.4323e-06
2.2654e-05
2.23234e-06
2.20379e-05
2.01071e-06
2.14971e-05
1.74923e-06
2.1037e-05
1.46875e-06
2.06427e-05
1.24551e-06
2.0291e-05
1.10936e-06
1.99696e-05
1.02092e-06
1.97025e-05
8.34673e-07
1.95626e-05
3.66474e-07
1.96036e-05
-3.00133e-07
1.98572e-05
-1.0871e-06
2.02739e-05
-1.6751e-06
2.07114e-05
-1.70698e-06
2.11108e-05
-1.53524e-06
2.14477e-05
-1.27558e-06
2.17626e-05
-1.1636e-06
2.23811e-05
-2.34669e-06
2.36923e-05
-5.03281e-06
2.60086e-05
-8.9194e-06
2.97227e-05
-1.43988e-05
3.57884e-05
-2.44016e-05
4.33905e-05
-3.0639e-05
4.7133e-05
-1.26685e-05
4.17566e-05
2.56582e-05
2.68632e-05
5.96541e-05
9.80369e-06
6.01289e-05
-2.567e-06
3.94254e-05
2.92478e-05
0.000157054
1.5352e-05
0.00015301
1.52812e-05
0.000148969
1.52077e-05
0.000144933
1.51388e-05
0.0001409
1.50787e-05
0.000136868
1.50257e-05
0.00013284
1.49528e-05
0.000128826
1.48466e-05
0.000124833
1.47145e-05
0.000120868
1.45658e-05
0.000116932
1.44131e-05
0.000113028
1.42511e-05
0.000109162
1.4069e-05
0.000105341
1.38618e-05
0.000101572
1.36283e-05
9.78638e-05
1.33723e-05
9.42205e-05
1.30972e-05
9.06494e-05
1.28057e-05
8.71554e-05
1.24961e-05
8.37433e-05
1.21726e-05
8.04181e-05
1.18325e-05
7.71855e-05
1.14775e-05
7.40486e-05
1.11098e-05
7.10133e-05
1.07301e-05
6.80808e-05
1.03433e-05
6.52542e-05
9.95069e-06
6.25362e-05
9.55232e-06
5.99267e-05
9.15341e-06
5.74267e-05
8.75349e-06
5.50374e-05
8.35452e-06
5.27579e-05
7.95844e-06
5.05874e-05
7.5672e-06
4.85249e-05
7.18101e-06
4.65685e-05
6.80205e-06
4.47171e-05
6.43048e-06
4.29685e-05
6.06566e-06
4.13205e-05
5.70907e-06
3.97707e-05
5.36141e-06
3.83174e-05
5.02353e-06
3.69576e-05
4.69382e-06
3.56901e-05
4.3664e-06
3.45153e-05
4.04055e-06
3.34293e-05
3.72654e-06
3.24265e-05
3.43506e-06
3.15039e-05
3.15496e-06
3.06675e-05
2.84712e-06
2.99297e-05
2.48709e-06
2.9296e-05
2.10241e-06
2.87497e-05
1.79184e-06
2.8262e-05
1.59707e-06
2.78176e-05
1.46533e-06
2.74446e-05
1.20763e-06
2.72315e-05
5.79541e-07
2.7244e-05
-3.12592e-07
2.75218e-05
-1.36487e-06
2.80055e-05
-2.15889e-06
2.85255e-05
-2.22697e-06
2.90054e-05
-2.01511e-06
2.94155e-05
-1.68571e-06
2.98053e-05
-1.55343e-06
3.05662e-05
-3.10754e-06
3.21684e-05
-6.63502e-06
3.49932e-05
-1.17442e-05
3.95114e-05
-1.8917e-05
4.67387e-05
-3.16289e-05
5.57338e-05
-3.96341e-05
6.04441e-05
-1.73788e-05
5.46867e-05
3.14156e-05
3.70984e-05
7.72423e-05
1.54021e-05
8.18252e-05
-1.30864e-06
5.61362e-05
3.92049e-05
0.000202016
2.01923e-05
0.000197166
2.01313e-05
0.000192307
2.00666e-05
0.000187436
2.00102e-05
0.000182552
1.99623e-05
0.000177655
1.99229e-05
0.000172748
1.98597e-05
0.000167841
1.9754e-05
0.000162946
1.96096e-05
0.000158065
1.94461e-05
0.000153206
1.92723e-05
0.000148369
1.90878e-05
0.000143566
1.88727e-05
0.000138798
1.86292e-05
0.000134084
1.83422e-05
0.000129428
1.80283e-05
0.00012484
1.76851e-05
0.000120328
1.73177e-05
0.000115899
1.69258e-05
0.000111561
1.65101e-05
0.00010732
1.60734e-05
0.000103186
1.56113e-05
9.91633e-05
1.51328e-05
9.52587e-05
1.46347e-05
9.14778e-05
1.41243e-05
8.78249e-05
1.36036e-05
8.4301e-05
1.30762e-05
8.09119e-05
1.25425e-05
7.76589e-05
1.20065e-05
7.45422e-05
1.14712e-05
7.15632e-05
1.09375e-05
6.87208e-05
1.04096e-05
6.60156e-05
9.88617e-06
6.34452e-05
9.37253e-06
6.10086e-05
8.86708e-06
5.87038e-05
8.37046e-06
5.65287e-05
7.8841e-06
5.4481e-05
7.40911e-06
5.25569e-05
6.94768e-06
5.07542e-05
6.49653e-06
4.90724e-05
6.0482e-06
4.75097e-05
5.60319e-06
4.60632e-05
5.17305e-06
4.47255e-05
4.77274e-06
4.3493e-05
4.38745e-06
4.23721e-05
3.96809e-06
4.13774e-05
3.48174e-06
4.0516e-05
2.96382e-06
3.97672e-05
2.54062e-06
3.90985e-05
2.26576e-06
3.84902e-05
2.07361e-06
3.79755e-05
1.72238e-06
3.76568e-05
8.98195e-07
3.76136e-05
-2.69345e-07
3.78934e-05
-1.64471e-06
3.84281e-05
-2.69352e-06
3.90196e-05
-2.81855e-06
3.95743e-05
-2.56973e-06
4.00552e-05
-2.16666e-06
4.05244e-05
-2.02263e-06
4.14388e-05
-4.02195e-06
4.33525e-05
-8.54871e-06
4.67206e-05
-1.51123e-05
5.20958e-05
-2.42922e-05
6.05112e-05
-4.00443e-05
7.08683e-05
-4.99912e-05
7.65415e-05
-2.3052e-05
7.05782e-05
3.73789e-05
5.04242e-05
9.73963e-05
2.35655e-05
0.000108684
1.48475e-06
7.82169e-05
5.16017e-05
0.000253317
2.57866e-05
0.000247695
2.57529e-05
0.00024205
2.57121e-05
0.000236384
2.56761e-05
0.000230688
2.56588e-05
0.000224958
2.56523e-05
0.000219202
2.56161e-05
0.000213432
2.55234e-05
0.000207656
2.53856e-05
0.000201883
2.52195e-05
0.000196114
2.50415e-05
0.000190355
2.48465e-05
0.000184612
2.46154e-05
0.0001789
2.43418e-05
0.000173226
2.40166e-05
0.000167602
2.36514e-05
0.000162041
2.32461e-05
0.000156552
2.28074e-05
0.000151145
2.2333e-05
0.000145827
2.18278e-05
0.000140612
2.12883e-05
0.000135507
2.07165e-05
0.000130523
2.01164e-05
0.000125667
1.94906e-05
0.000120948
1.88436e-05
0.000116372
1.81799e-05
0.000111947
1.75012e-05
0.000107675
1.68142e-05
0.000103561
1.61208e-05
9.96081e-05
1.54238e-05
9.58183e-05
1.47273e-05
9.21943e-05
1.40335e-05
8.8734e-05
1.33465e-05
8.54397e-05
1.26669e-05
8.23085e-05
1.19982e-05
7.93396e-05
1.13394e-05
7.65316e-05
1.06921e-05
7.38825e-05
1.00582e-05
7.13884e-05
9.44173e-06
6.90473e-05
8.83766e-06
6.68575e-05
8.23796e-06
6.4819e-05
7.64171e-06
6.29276e-05
7.06442e-06
6.1175e-05
6.5254e-06
5.95568e-05
6.00565e-06
5.80805e-05
5.44435e-06
5.67614e-05
4.80085e-06
5.56084e-05
4.11681e-06
5.45996e-05
3.54949e-06
5.36957e-05
3.16963e-06
5.28761e-05
2.89324e-06
5.21753e-05
2.42311e-06
5.17107e-05
1.36278e-06
5.15729e-05
-1.31497e-07
5.1819e-05
-1.89077e-06
5.23729e-05
-3.24749e-06
5.30109e-05
-3.45649e-06
5.36229e-05
-3.18181e-06
5.41642e-05
-2.70797e-06
5.47088e-05
-2.56715e-06
5.57794e-05
-5.09263e-06
5.80107e-05
-1.078e-05
6.19333e-05
-1.90348e-05
6.81771e-05
-3.0536e-05
7.77333e-05
-4.96005e-05
8.93176e-05
-6.15756e-05
9.58444e-05
-2.95788e-05
8.9827e-05
4.33962e-05
6.74308e-05
0.000119792
3.51646e-05
0.00014095
6.7729e-06
0.000106609
6.68248e-05
0.000316818
3.20913e-05
0.00031046
3.21447e-05
0.000304067
3.21459e-05
0.000297644
3.21353e-05
0.000291185
3.21355e-05
0.000284681
3.21619e-05
0.000278138
3.21958e-05
0.000271552
3.22014e-05
0.000264939
3.21372e-05
0.000258309
3.20153e-05
0.00025167
3.1859e-05
0.000245024
3.16867e-05
0.000238375
3.14956e-05
0.000231731
3.12601e-05
0.000225103
3.09697e-05
0.000218504
3.06155e-05
0.000211948
3.02072e-05
0.000205444
2.97502e-05
0.000199004
2.92469e-05
0.00019264
2.86969e-05
0.000186363
2.81055e-05
0.000180184
2.74675e-05
0.000174114
2.67859e-05
0.000168167
2.60638e-05
0.000162353
2.53045e-05
0.000156681
2.45155e-05
0.000151163
2.36979e-05
0.000145803
2.28613e-05
0.000140611
2.20058e-05
0.000135595
2.11375e-05
0.000130756
2.02622e-05
0.000126101
1.9382e-05
0.000121633
1.85014e-05
0.000117355
1.76248e-05
0.000113266
1.67556e-05
0.000109369
1.58953e-05
0.000105663
1.50461e-05
0.000102147
1.42078e-05
9.88201e-05
1.33852e-05
9.56794e-05
1.25824e-05
9.2723e-05
1.17941e-05
8.9951e-05
1.10099e-05
8.73617e-05
1.0231e-05
8.49523e-05
9.47383e-06
8.27139e-05
8.76373e-06
8.06426e-05
8.07697e-06
7.87447e-05
7.34227e-06
7.70385e-05
6.50708e-06
7.55327e-05
5.62256e-06
7.42056e-05
4.8766e-06
7.30138e-05
4.36142e-06
7.19336e-05
3.9734e-06
7.10022e-05
3.35451e-06
7.03463e-05
2.01874e-06
7.00685e-05
1.46289e-07
7.02325e-05
-2.05475e-06
7.0759e-05
-3.774e-06
7.14053e-05
-4.10285e-06
7.20441e-05
-3.82052e-06
7.26247e-05
-3.2886e-06
7.32318e-05
-3.17432e-06
7.44485e-05
-6.30925e-06
7.69804e-05
-1.33119e-05
8.1426e-05
-2.34804e-05
8.84695e-05
-3.75795e-05
9.89941e-05
-6.0125e-05
0.000111538
-7.41197e-05
0.000118719
-3.67599e-05
0.000112777
4.93388e-05
8.86568e-05
0.000143912
5.11866e-05
0.00017842
1.5817e-05
0.000141978
8.53175e-05
0.000380965
3.92471e-05
0.000373763
3.93471e-05
0.00036652
3.93885e-05
0.000359239
3.9416e-05
0.000351919
3.94557e-05
0.000344553
3.95275e-05
0.000337133
3.96166e-05
0.000329665
3.96694e-05
0.000322164
3.96377e-05
0.000314641
3.95381e-05
0.000307102
3.93981e-05
0.000299551
3.92375e-05
0.000291991
3.90556e-05
0.000284431
3.88205e-05
0.000276882
3.85186e-05
0.000269357
3.81404e-05
0.00026187
3.7694e-05
0.000254436
3.71851e-05
0.000247062
3.66201e-05
0.000239763
3.5996e-05
0.000232551
3.53179e-05
0.000225437
3.45817e-05
0.000218434
3.37883e-05
0.000211557
3.29409e-05
0.000204816
3.20452e-05
0.000198224
3.11081e-05
0.000191791
3.01309e-05
0.000185526
2.91258e-05
0.00017944
2.80922e-05
0.000173538
2.70392e-05
0.000167831
2.59698e-05
0.000162322
2.4891e-05
0.000157017
2.38063e-05
0.00015192
2.27214e-05
0.000147036
2.16402e-05
0.000142363
2.05684e-05
0.000137906
1.9503e-05
0.000133663
1.84502e-05
0.000129636
1.74123e-05
0.000125823
1.63953e-05
0.000122224
1.53936e-05
0.000118836
1.43972e-05
0.000115663
1.34042e-05
0.000112701
1.24362e-05
0.000109941
1.15233e-05
0.000107379
1.06395e-05
0.000105022
9.69918e-06
0.00010289
8.63931e-06
0.000100993
7.51914e-06
9.93099e-05
6.55978e-06
9.7794e-05
5.87738e-06
9.64195e-05
5.34785e-06
9.52231e-05
4.5509e-06
9.43403e-05
2.90151e-06
9.38799e-05
6.0676e-07
9.39155e-05
-2.09037e-06
9.43678e-05
-4.2263e-06
9.49807e-05
-4.71582e-06
9.56144e-05
-4.45421e-06
9.62104e-05
-3.88457e-06
9.68632e-05
-3.82712e-06
9.81992e-05
-7.64528e-06
0.000100978
-1.60908e-05
0.000105842
-2.83439e-05
0.000113479
-4.52165e-05
0.000124623
-7.12696e-05
0.000137721
-8.72176e-05
0.000145313
-4.43523e-05
0.000139604
5.50486e-05
0.000114494
0.000169022
7.2578e-05
0.000220336
3.02197e-05
0.000184336
0.000107904
0.000452515
4.73824e-05
0.000444325
4.75372e-05
0.000436096
4.7618e-05
0.000427826
4.7686e-05
0.000419512
4.777e-05
0.000411145
4.7894e-05
0.000402721
4.80411e-05
0.000394246
4.81439e-05
0.000385732
4.81519e-05
0.000377194
4.80762e-05
0.000368642
4.79495e-05
0.000360076
4.78039e-05
0.000351504
4.76281e-05
0.000342928
4.73961e-05
0.000334363
4.70839e-05
0.00032583
4.66738e-05
0.000317337
4.61865e-05
0.000308902
4.56204e-05
0.000300534
4.49881e-05
0.000292247
4.42823e-05
0.000284054
4.35109e-05
0.00027597
4.26662e-05
0.000268006
4.17523e-05
0.000260179
4.07682e-05
0.0002525
3.9724e-05
0.000244983
3.86249e-05
0.000237638
3.74764e-05
0.000230477
3.62859e-05
0.00022351
3.50601e-05
0.000216745
3.38038e-05
0.00021019
3.25244e-05
0.000203852
3.12294e-05
0.000197738
2.99207e-05
0.000191851
2.86082e-05
0.000186195
2.72962e-05
0.000180775
2.59881e-05
0.000175591
2.46871e-05
0.000170647
2.33938e-05
0.000165943
2.21163e-05
0.000161478
2.08602e-05
0.000157251
1.96211e-05
0.000153265
1.83836e-05
0.000149519
1.71494e-05
0.000146014
1.59417e-05
0.000142739
1.47978e-05
0.000139691
1.36876e-05
0.000136877
1.25135e-05
0.000134319
1.11973e-05
0.00013203
9.80792e-06
0.000129987
8.60316e-06
0.000128142
7.72171e-06
0.00012647
7.02023e-06
0.000125002
6.01943e-06
0.000123879
4.02423e-06
0.000123218
1.26718e-06
0.000123102
-1.97348e-06
0.000123454
-4.57888e-06
0.000124014
-5.27547e-06
0.000124629
-5.06978e-06
0.000125235
-4.49004e-06
0.00012592
-4.51247e-06
0.000127333
-9.05812e-06
0.000130254
-1.90118e-05
0.000135334
-3.34235e-05
0.000143225
-5.31079e-05
0.000154534
-8.25784e-05
0.000167733
-0.000100417
0.000175486
-5.21052e-05
0.000170218
6.03166e-05
0.000145041
0.000194199
9.99805e-05
0.000265397
5.13335e-05
0.000232983
0.0001359
0.000533114
5.66764e-05
0.000523762
5.68893e-05
0.000514365
5.7015e-05
0.000504926
5.71251e-05
0.000495439
5.72565e-05
0.000485898
5.74351e-05
0.000476292
5.76466e-05
0.000466629
5.7807e-05
0.000456927
5.78542e-05
0.000447203
5.77997e-05
0.000437463
5.76896e-05
0.000427715
5.75525e-05
0.000417955
5.73874e-05
0.000408199
5.71527e-05
0.000398461
5.6822e-05
0.000388757
5.63777e-05
0.000379105
5.58381e-05
0.000369519
5.52068e-05
0.000360014
5.44925e-05
0.000350603
5.36938e-05
0.000341302
5.2812e-05
0.000332124
5.1844e-05
0.000323085
5.0791e-05
0.000314201
4.96526e-05
0.000305486
4.84388e-05
0.000296955
4.71556e-05
0.00028862
4.58112e-05
0.000280491
4.44152e-05
0.000272581
4.29706e-05
0.000264897
4.14873e-05
0.000257449
3.99727e-05
0.000250246
3.84321e-05
0.000243291
3.68757e-05
0.000236592
3.53071e-05
0.000230151
3.3737e-05
0.000223974
3.21656e-05
0.000218062
3.05991e-05
0.000212416
2.90395e-05
0.000207038
2.7494e-05
0.000201928
2.59703e-05
0.000197086
2.44633e-05
0.000192511
2.29588e-05
0.000188208
2.14521e-05
0.000184173
1.99763e-05
0.0001804
1.85713e-05
0.00017688
1.72072e-05
0.000173626
1.57682e-05
0.000170657
1.41656e-05
0.000167991
1.24745e-05
0.000165606
1.09884e-05
0.00016345
9.87716e-06
0.000161492
8.97848e-06
0.000159764
7.74768e-06
0.000158409
5.3785e-06
0.000157554
2.12269e-06
0.000157287
-1.70698e-06
0.000157543
-4.83493e-06
0.000158058
-5.79036e-06
0.000158669
-5.68069e-06
0.0001593
-5.12046e-06
0.000160023
-5.2361e-06
0.000161469
-1.0504e-05
0.000164407
-2.195e-05
0.000169483
-3.84994e-05
0.000177303