/*--------------------------------*- C++ -*----------------------------------*\
| =========                 |                                                 |
| \\      /  F ield         | OpenFOAM: The Open Source CFD Toolbox           |
|  \\    /   O peration     | Version:  2412                                  |
|   \\  /    A nd           | Website:  www.openfoam.com                      |
|    \\/     M anipulation  |                                                 |
\*---------------------------------------------------------------------------*/
FoamFile
{
    version     2.0;
    format      ascii;
    arch        "LSB;label=32;scalar=64";
    class       volVectorField;
    location    "500";
    object      U;
}
// * * * * * * * * * * * * * * * * * * * * * * * * * * * * * * * * * * * * * //

dimensions      [0 1 -1 0 0 0 0];

internalField   nonuniform List<vector> 
7387
(
(0.199663 -0.0573853 1.09138e-18)
(0.193713 -0.0559339 2.20834e-25)
(0.187818 -0.0544691 -9.86526e-19)
(0.181972 -0.053004 0)
(0.17617 -0.05153 -8.79098e-19)
(0.170406 -0.0500473 -4.1111e-25)
(0.164685 -0.0485593 0)
(0.15902 -0.0470725 0)
(0.153426 -0.0455879 -1.30426e-18)
(0.147907 -0.0441103 -5.92097e-19)
(0.142465 -0.0426372 2.34327e-25)
(0.137101 -0.0411743 -2.41428e-25)
(0.131811 -0.0397255 -2.01023e-19)
(0.126612 -0.0382817 0)
(0.121517 -0.0368591 1.32727e-19)
(0.116531 -0.0354566 -9.68597e-20)
(0.111657 -0.0340772 0)
(0.106901 -0.0327223 2.12455e-20)
(0.10227 -0.0313942 3.81657e-26)
(0.0977712 -0.0300943 -3.83285e-26)
(0.0934053 -0.0288287 0)
(0.0891773 -0.0275944 0)
(0.085094 -0.0263963 0)
(0.0811555 -0.0252363 -1.22304e-19)
(0.0773665 -0.0241127 1.48024e-19)
(0.0737288 -0.0230298 1.74992e-19)
(0.0702398 -0.0219885 -2.03311e-19)
(0.0669015 -0.0209867 3.78675e-26)
(0.063714 -0.020026 -2.64484e-19)
(0.0606757 -0.0191077 5.86406e-25)
(0.0577851 -0.0182305 -1.66313e-19)
(0.0550392 -0.0173946 1.84852e-19)
(0.0524374 -0.016599 4.09037e-19)
(0.049975 -0.0158457 -8.783e-25)
(0.0476501 -0.0151302 9.26295e-25)
(0.0454584 -0.014456 -5.42704e-19)
(0.0433978 -0.013819 -2.96649e-19)
(0.0414648 -0.013221 0)
(0.0396563 -0.0126591 -1.59015e-26)
(0.0379669 -0.0121348 -1.48132e-24)
(0.0363962 -0.0116451 1.57273e-24)
(0.034946 -0.0111922 0)
(0.0336149 -0.0107765 0)
(0.0323938 -0.0103947 1.3309e-19)
(0.0312706 -0.0100444 -2.21729e-24)
(0.0302501 -0.00972453 1.5614e-19)
(0.0293607 -0.00944465 1.68986e-19)
(0.0286292 -0.00921252 -2.80574e-24)
(0.0280543 -0.00903213 -9.88091e-20)
(0.0275545 -0.00888104 -1.06773e-19)
(0.0270972 -0.0087477 0)
(0.0266536 -0.00861825 3.81299e-24)
(0.0264007 -0.00853618 -4.07944e-24)
(0.0265489 -0.00856899 7.22766e-20)
(0.0271461 -0.00873444 -1.65284e-26)
(0.0282933 -0.00908256 8.35858e-20)
(0.0295923 -0.00952163 8.96663e-20)
(0.0306471 -0.00992599 0)
(0.0316271 -0.0103459 0)
(0.0322628 -0.0106781 -5.4877e-20)
(0.0330485 -0.0109839 7.14965e-24)
(0.035403 -0.011682 6.22072e-20)
(0.0400373 -0.0129903 0)
(0.047932 -0.0151679 3.48862e-20)
(0.060682 -0.0185935 0)
(0.0854094 -0.026598 -9.69127e-24)
(0.104877 -0.0397815 4.01763e-20)
(0.090168 -0.0468589 -6.16213e-26)
(0.0477286 -0.0353482 -4.38976e-20)
(0.00627702 -0.0066403 0)
(-0.0059912 0.00940859 -1.18295e-23)
(-0.00896133 0.024294 2.57244e-23)
(0.627533 -0.180359 -1.81513e-18)
(0.608894 -0.175803 3.4567e-18)
(0.590427 -0.171226 1.64073e-18)
(0.572116 -0.166634 -7.70053e-25)
(0.553945 -0.162019 0)
(0.535894 -0.157383 -6.232e-25)
(0.517974 -0.152725 6.07963e-26)
(0.500236 -0.148067 6.10799e-26)
(0.482718 -0.143423 2.16903e-18)
(0.465435 -0.138796 9.84656e-19)
(0.448388 -0.13419 0)
(0.431579 -0.129611 0)
(0.415019 -0.125063 0)
(0.398742 -0.120553 0)
(0.382783 -0.116099 0)
(0.367164 -0.111708 1.21943e-25)
(0.351896 -0.107389 -1.89168e-25)
(0.337002 -0.103144 -3.5204e-20)
(0.322496 -0.098988 0)
(0.308402 -0.0949172 1.2744e-25)
(0.294722 -0.0909544 6.36001e-26)
(0.281475 -0.087088 -2.03818e-25)
(0.268679 -0.0833357 -3.4197e-25)
(0.256338 -0.0797001 -2.03489e-19)
(0.244463 -0.0761824 -2.46263e-19)
(0.233057 -0.0727903 2.91109e-19)
(0.22212 -0.0695248 3.38202e-19)
(0.211656 -0.0663846 7.08021e-25)
(0.201661 -0.0633757 4.39929e-19)
(0.192135 -0.0604954 -2.47503e-19)
(0.18307 -0.0577465 2.76616e-19)
(0.174459 -0.0551256 -3.07443e-19)
(0.166296 -0.0526327 -3.40143e-19)
(0.158572 -0.0502676 0)
(0.151276 -0.0480265 0)
(0.144399 -0.0459089 -1.84519e-25)
(0.137932 -0.0439121 2.46656e-19)
(0.131865 -0.0420347 -2.08325e-24)
(0.126186 -0.0402732 2.93195e-19)
(0.120881 -0.0386254 0)
(0.115948 -0.037089 3.46635e-19)
(0.11139 -0.0356669 3.76332e-19)
(0.107205 -0.0343596 0)
(0.103364 -0.03316 2.21276e-19)
(0.0998306 -0.0320575 2.39727e-19)
(0.0966172 -0.0310526 2.59579e-19)
(0.0938112 -0.0301694 -2.8093e-19)
(0.0914938 -0.0294356 1.51945e-19)
(0.0896611 -0.0288609 -4.98555e-24)
(0.0880663 -0.0283793 5.44287e-24)
(0.0866082 -0.0279543 -1.91669e-19)
(0.0851995 -0.0275446 6.28574e-24)
(0.0843754 -0.0272805 -1.11519e-19)
(0.0847749 -0.0273675 0)
(0.0865507 -0.0278615 1.29266e-19)
(0.0900041 -0.0289126 -1.38897e-19)
(0.0939369 -0.0302458 0)
(0.0971465 -0.031483 7.98248e-20)
(0.100123 -0.0327689 -1.04397e-23)
(0.102067 -0.0337969 2.22617e-23)
(0.104465 -0.0347552 -1.18488e-23)
(0.111586 -0.036904 0)
(0.125615 -0.0409129 0)
(0.149495 -0.0475601 -5.79705e-20)
(0.187917 -0.0580555 5.24718e-26)
(0.261658 -0.0820823 -6.39796e-20)
(0.320374 -0.121684 -6.65646e-20)
(0.278603 -0.144104 1.69573e-23)
(0.152106 -0.11104 -3.5606e-23)
(0.0249437 -0.0247257 3.75392e-23)
(-0.0160825 0.0264109 -8.22827e-20)
(-0.0264667 0.0733747 4.2406e-23)
(1.11474 -0.320379 4.10947e-18)
(1.08173 -0.312307 -1.95651e-18)
(1.04902 -0.304209 0)
(1.01659 -0.296078 1.75693e-18)
(0.984407 -0.287908 -1.65506e-18)
(0.952444 -0.279701 -1.55149e-18)
(0.920716 -0.271462 7.23802e-25)
(0.889307 -0.263217 1.33807e-18)
(0.858286 -0.254995 -1.22773e-18)
(0.827684 -0.246805 4.9657e-25)
(0.797494 -0.238656 -9.5228e-25)
(0.767724 -0.23055 4.54472e-25)
(0.738405 -0.222493 3.78384e-19)
(0.709583 -0.214516 -2.64983e-25)
(0.68132 -0.206631 -2.49776e-19)
(0.653657 -0.198858 1.38044e-25)
(0.626619 -0.191211 -1.1232e-19)
(0.600241 -0.183696 3.98519e-20)
(0.574554 -0.176336 3.53627e-20)
(0.549583 -0.169136 -1.13534e-19)
(0.525351 -0.16211 0)
(0.501886 -0.155267 -3.02733e-25)
(0.479214 -0.148621 -7.19791e-26)
(0.457349 -0.142181 6.16061e-25)
(0.436305 -0.135951 -2.78764e-19)
(0.41609 -0.129943 -2.49139e-25)
(0.396708 -0.124153 7.65886e-25)
(0.378161 -0.118592 -8.01438e-25)
(0.360444 -0.11326 4.97967e-19)
(0.343555 -0.108156 -1.62952e-25)
(0.327484 -0.103283 -3.13099e-19)
(0.312216 -0.0986375 1.36247e-24)
(0.297741 -0.0942198 -3.84993e-19)
(0.284043 -0.090025 0)
(0.271102 -0.0860534 0)
(0.258903 -0.0822964 -2.18462e-24)
(0.247431 -0.0787563 2.79161e-19)
(0.236666 -0.0754258 0)
(0.226587 -0.072302 2.56519e-24)
(0.217172 -0.0693771 6.70641e-26)
(0.208413 -0.0666515 -3.92288e-19)
(0.200317 -0.0641265 -4.25877e-19)
(0.192882 -0.0618042 0)
(0.186053 -0.0596734 -2.50394e-19)
(0.17977 -0.0577136 -8.19614e-24)
(0.174053 -0.0559274 -2.93722e-19)
(0.169052 -0.0543544 -3.17869e-19)
(0.164905 -0.0530434 -3.43837e-19)
(0.161607 -0.0520106 1.22796e-25)
(0.158735 -0.0511433 -1.21954e-23)
(0.156112 -0.0503794 4.33674e-19)
(0.153587 -0.0496464 -1.43406e-23)
(0.152075 -0.0491678 1.53375e-23)
(0.152677 -0.0492958 0)
(0.155665 -0.0501302 -1.46238e-19)
(0.16155 -0.0519271 9.56401e-24)
(0.168289 -0.0542184 -2.06181e-23)
(0.173818 -0.0563611 -9.02615e-20)
(0.178935 -0.0585897 0)
(0.1823 -0.0603897 2.52126e-23)
(0.186443 -0.0620854 6.96152e-26)
(0.198634 -0.0658243 -2.85054e-23)
(0.222672 -0.072774 0)
(0.263545 -0.0842868 0)
(0.329092 -0.102522 0)
(0.453688 -0.143446 0)
(0.554106 -0.210797 3.64105e-23)
(0.487267 -0.250711 -3.81953e-23)
(0.273733 -0.197122 8.17159e-20)
(0.0528016 -0.050265 0)
(-0.0240807 0.0418486 0)
(-0.0440736 0.125732 -4.88574e-20)
(1.66982 -0.479883 -2.32472e-18)
(1.62052 -0.467844 -2.21367e-18)
(1.57167 -0.455751 2.08076e-24)
(1.52325 -0.443618 -1.98798e-18)
(1.4752 -0.431432 1.87278e-18)
(1.42749 -0.41918 3.51124e-18)
(1.38013 -0.406888 0)
(1.33325 -0.394592 5.26113e-25)
(1.28694 -0.382321 -1.40343e-24)
(1.24125 -0.370104 1.12391e-24)
(1.19618 -0.357939 5.65105e-19)
(1.15174 -0.345841 -4.97667e-19)
(1.10797 -0.333828 -8.5646e-19)
(1.06494 -0.321919 -5.99789e-25)
(1.02274 -0.310152 6.12245e-25)
(0.981436 -0.298551 -2.06245e-19)
(0.941069 -0.287133 1.27121e-19)
(0.901681 -0.275924 -4.51041e-20)
(0.863324 -0.264932 3.94285e-25)
(0.826028 -0.254189 1.28499e-19)
(0.789838 -0.243694 0)
(0.75479 -0.23348 0)
(0.720921 -0.223556 0)
(0.688256 -0.213936 2.60708e-19)
(0.656816 -0.204634 6.3101e-19)
(0.626611 -0.195657 -3.72955e-19)
(0.597649 -0.187011 -4.33285e-19)
(0.56993 -0.178704 -4.96742e-19)
(0.543453 -0.170735 -1.12718e-18)
(0.518206 -0.163111 3.17067e-19)
(0.49418 -0.155827 3.54353e-19)
(0.471354 -0.148886 -3.08394e-24)
(0.449711 -0.142281 2.99336e-24)
(0.429226 -0.136012 0)
(0.409873 -0.130072 0)
(0.391627 -0.124458 5.77978e-19)
(0.374464 -0.119163 -6.31823e-19)
(0.358358 -0.114182 -3.44689e-19)
(0.343276 -0.109509 -3.75488e-19)
(0.329185 -0.105134 0)
(0.316073 -0.101055 0)
(0.303948 -0.0972749 0)
(0.292806 -0.0937975 2.61372e-19)
(0.28257 -0.0906043 2.83323e-19)
(0.27315 -0.0876684 1.12014e-25)
(0.264572 -0.0849898 -1.02139e-23)
(0.257053 -0.0826282 2.18383e-23)
(0.250793 -0.0806518 1.9449e-19)
(0.245783 -0.0790854 0)
(0.24142 -0.0777677 0)
(0.237437 -0.0766085 5.4864e-26)
(0.233619 -0.075503 1.62221e-23)
(0.231278 -0.0747713 1.42694e-19)
(0.232002 -0.0749203 0)
(0.236208 -0.0761014 1.6539e-19)
(0.244616 -0.0786787 0)
(0.254311 -0.0819862 0)
(0.262309 -0.0851061 2.49695e-23)
(0.269698 -0.0883534 8.66486e-26)
(0.274599 -0.0910069 -1.16645e-19)
(0.280614 -0.0935391 -1.24237e-19)
(0.29813 -0.0990152 0)
(0.332704 -0.109152 0)
(0.391427 -0.12591 7.40171e-20)
(0.485247 -0.152547 0)
(0.661648 -0.211056 0)
(0.805776 -0.307168 4.10054e-23)
(0.717341 -0.366991 8.73905e-20)
(0.415614 -0.294856 -9.18731e-20)
(0.0929317 -0.0853696 9.49769e-23)
(-0.028576 0.0545623 0)
(-0.0611935 0.180863 5.48334e-20)
(2.30226 -0.661609 -2.41858e-24)
(2.23455 -0.64508 2.50141e-18)
(2.16746 -0.628488 2.35147e-24)
(2.10096 -0.611829 2.05563e-24)
(2.03498 -0.595103 -2.11681e-18)
(1.96945 -0.578295 -1.98456e-18)
(1.90442 -0.561422 1.85186e-24)
(1.84003 -0.544543 -1.71192e-18)
(1.77643 -0.527704 0)
(1.71367 -0.510928 1.27085e-24)
(1.65177 -0.494231 -6.39036e-19)
(1.59073 -0.477621 5.62806e-19)
(1.53062 -0.461128 5.30268e-25)
(1.47151 -0.44478 4.03347e-19)
(1.41354 -0.428624 3.19739e-19)
(1.35679 -0.41269 2.3329e-19)
(1.30133 -0.397013 0)
(1.24721 -0.381614 0)
(1.1945 -0.366522 -4.52772e-20)
(1.14324 -0.351756 -3.69441e-25)
(1.09351 -0.337345 3.83818e-25)
(1.04533 -0.32331 0)
(0.998768 -0.309672 2.35738e-19)
(0.95386 -0.296452 2.9497e-19)
(0.910628 -0.283667 -3.56973e-19)
(0.869094 -0.271326 1.7014e-24)
(0.829262 -0.259443 4.90243e-19)
(0.791137 -0.248019 1.12409e-18)
(0.754714 -0.237063 1.27537e-18)
(0.71998 -0.226577 2.82752e-24)
(0.686922 -0.21656 -8.01886e-19)
(0.655512 -0.207011 0)
(0.625726 -0.197926 4.92995e-19)
(0.597531 -0.189302 -8.28998e-24)
(0.57089 -0.181127 5.96875e-19)
(0.545768 -0.173402 4.90098e-24)
(0.522136 -0.166112 -1.8881e-25)
(0.499955 -0.159256 3.89986e-19)
(0.479181 -0.152822 4.24826e-19)
(0.459767 -0.146798 -4.62156e-19)
(0.441698 -0.14118 -7.74796e-24)
(0.424983 -0.135971 -5.45185e-19)
(0.409612 -0.131176 -2.9569e-19)
(0.395485 -0.126772 -3.20514e-19)
(0.382481 -0.122722 -6.94426e-19)
(0.370632 -0.119025 0)
(0.360223 -0.115759 8.13635e-19)
(0.351519 -0.113015 1.33477e-23)
(0.344507 -0.110826 0)
(0.338394 -0.108982 -2.56923e-19)
(0.332821 -0.10736 -2.77446e-19)
(0.327501 -0.105825 -2.99355e-19)
(0.324156 -0.104792 0)
(0.324888 -0.104932 -2.12904e-23)
(0.330274 -0.106455 -1.86987e-19)
(0.341249 -0.109833 -2.45823e-23)
(0.354006 -0.114205 2.62455e-23)
(0.364602 -0.118369 -1.15427e-19)
(0.37437 -0.122709 3.00793e-23)
(0.380913 -0.126304 1.31764e-19)
(0.388922 -0.12978 1.40424e-19)
(0.411954 -0.137137 0)
(0.457462 -0.150689 1.58217e-19)
(0.534658 -0.173043 4.00461e-23)
(0.657487 -0.2087 8.76974e-20)
(0.885485 -0.285209 0)
(1.0746 -0.410697 0)
(0.969589 -0.493128 -9.80765e-20)
(0.58083 -0.40579 1.02806e-19)
(0.148879 -0.132761 1.07478e-22)
(-0.0279446 0.0628017 -2.27597e-22)
(-0.0770471 0.237783 -6.1346e-20)
(3.0222 -0.868455 0)
(2.93378 -0.846884 -2.59014e-24)
(2.84616 -0.825235 -2.67637e-18)
(2.75929 -0.803495 -2.53263e-18)
(2.67311 -0.781668 2.38662e-18)
(2.58753 -0.759729 2.03529e-24)
(2.50258 -0.737708 -2.08881e-24)
(2.41847 -0.715673 0)
(2.33537 -0.693687 0)
(2.25336 -0.671778 1.43429e-24)
(2.17247 -0.649973 -1.47684e-24)
(2.0927 -0.628285 0)
(2.01413 -0.606737 5.4687e-19)
(1.93688 -0.585384 -4.55517e-19)
(1.86109 -0.564272 3.61146e-19)
(1.78689 -0.543451 0)
(1.71436 -0.522963 1.62459e-19)
(1.64359 -0.502835 5.76497e-20)
(1.57464 -0.483104 0)
(1.5076 -0.463798 0)
(1.44252 -0.444953 0)
(1.37949 -0.426597 0)
(1.31856 -0.40876 -5.3298e-19)
(1.25978 -0.391466 -6.66947e-19)
(1.20318 -0.374736 -2.87111e-24)
(1.1488 -0.358585 0)
(1.09664 -0.343031 0)
(1.04672 -0.328077 6.2741e-25)
(0.999009 -0.313736 -7.21106e-19)
(0.953508 -0.300004 0)
(0.910195 -0.286886 4.53421e-19)
(0.869038 -0.274378 0)
(0.830002 -0.262479 0)
(0.793045 -0.251178 0)
(0.75812 -0.240469 -6.75035e-19)
(0.725184 -0.230341 -1.10858e-23)
(0.694193 -0.220789 4.04236e-19)
(0.6651 -0.211801 -4.41065e-19)
(0.637848 -0.203364 -3.90944e-25)
(0.612374 -0.195464 5.22693e-19)
(0.588659 -0.188093 0)
(0.566708 -0.181258 -3.29934e-25)
(0.54651 -0.174961 0)
(0.527937 -0.169175 3.62438e-19)
(0.510838 -0.163852 2.35959e-23)
(0.495246 -0.158992 -2.61311e-23)
(0.481515 -0.154689 -4.59971e-19)
(0.469976 -0.151058 3.61441e-25)
(0.460616 -0.14814 3.55337e-25)
(0.452448 -0.145678 5.80934e-19)
(0.445008 -0.143513 3.81138e-23)
(0.43794 -0.14148 3.38422e-19)
(0.433378 -0.140089 -1.8249e-19)
(0.433953 -0.140177 -3.2304e-25)
(0.440428 -0.142021 4.22775e-19)
(0.453942 -0.146203 0)
(0.469803 -0.151669 0)
(0.483084 -0.156938 1.30368e-19)
(0.495302 -0.162439 0)
(0.503578 -0.167064 0)
(0.513683 -0.1716 0)
(0.542331 -0.180976 8.23417e-23)
(0.598993 -0.198146 -1.78493e-19)
(0.694963 -0.226393 -9.43434e-20)
(0.84699 -0.271611 -9.86972e-20)
(1.12495 -0.366198 2.00212e-22)
(1.35922 -0.521139 1.06318e-19)
(1.24419 -0.629029 1.09882e-19)
(0.772543 -0.531364 -2.29421e-19)
(0.224929 -0.195624 -1.20068e-22)
(-0.0198386 0.0643143 -1.30656e-19)
(-0.0903607 0.294921 6.8733e-20)
(3.83912 -1.10313 3.31031e-18)
(3.72766 -1.07598 -4.36247e-25)
(3.61718 -1.04872 2.99808e-18)
(3.50762 -1.02134 2.83862e-18)
(3.39892 -0.993836 -2.67638e-18)
(3.29096 -0.966188 -4.56714e-24)
(3.18378 -0.938433 2.34205e-18)
(3.07761 -0.91065 -2.16904e-18)
(2.9727 -0.882914 0)
(2.86914 -0.855278 0)
(2.76696 -0.827755 -2.86632e-24)
(2.6662 -0.80038 -7.14811e-19)
(2.56692 -0.773178 -2.11745e-24)
(2.46928 -0.746207 3.91162e-24)
(2.37347 -0.719537 -2.84322e-24)
(2.27965 -0.693231 0)
(2.18792 -0.667331 -1.0675e-24)
(2.09839 -0.641889 -6.49823e-20)
(2.01115 -0.616936 -1.42048e-26)
(1.9263 -0.59252 0)
(1.84392 -0.568677 -1.44887e-24)
(1.76411 -0.545447 3.48473e-24)
(1.68695 -0.522872 3.00728e-19)
(1.61249 -0.500977 3.76387e-19)
(1.54079 -0.479792 -4.55614e-19)
(1.47187 -0.459338 -5.38696e-19)
(1.40576 -0.43963 -5.00912e-24)
(1.34246 -0.420685 -1.4355e-18)
(1.28197 -0.402506 0)
(1.22426 -0.385101 7.2238e-24)
(1.16932 -0.368469 -7.58485e-24)
(1.1171 -0.352609 0)
(1.06757 -0.337517 0)
(1.02066 -0.32318 -1.08211e-23)
(0.976329 -0.309594 1.14125e-23)
(0.934512 -0.296742 8.35775e-19)
(0.895156 -0.284618 0)
(0.8582 -0.273207 4.9845e-19)
(0.823575 -0.262493 5.43004e-19)
(0.791202 -0.252459 -3.60522e-23)
(0.761053 -0.243095 1.93699e-23)
(0.733132 -0.234406 6.96836e-19)
(0.707421 -0.226396 -2.28505e-23)
(0.683767 -0.219031 -8.19256e-19)
(0.661983 -0.212256 4.4373e-19)
(0.642103 -0.206066 0)
(0.624549 -0.200572 -5.19849e-19)
(0.609718 -0.195913 0)
(0.597595 -0.19214 -3.72902e-23)
(0.587005 -0.18895 3.99922e-23)
(0.577369 -0.186148 -3.5432e-19)
(0.568263 -0.183538 -4.64774e-23)
(0.562224 -0.181718 4.12204e-19)
(0.562414 -0.181694 -2.22007e-19)
(0.569808 -0.183818 -2.38581e-19)
(0.585737 -0.188777 -6.24135e-23)
(0.604653 -0.195342 -6.72397e-23)
(0.620642 -0.20176 -2.6926e-25)
(0.635321 -0.20848 1.57305e-19)
(0.645391 -0.214229 8.18618e-23)
(0.65767 -0.21995 0)
(0.691913 -0.231468 0)
(0.759708 -0.252419 0)
(0.874344 -0.286781 0)
(1.05508 -0.341983 1.10678e-19)
(1.37971 -0.454324 0)
(1.65778 -0.638123 -2.38034e-19)
(1.54049 -0.774247 -2.24006e-22)
(0.993709 -0.672805 1.27349e-19)
(0.326095 -0.277563 -1.35932e-19)
(-0.00108527 0.0560567 2.91876e-19)
(-0.100024 0.349792 1.50138e-22)
(4.75889 -1.36732 -3.65548e-18)
(4.62244 -1.33416 0)
(4.4871 -1.30083 0)
(4.35284 -1.26734 3.14571e-18)
(4.21955 -1.23368 2.96922e-18)
(4.08712 -1.19983 2.78874e-18)
(3.95557 -1.16582 -2.60376e-18)
(3.8252 -1.13175 4.82764e-18)
(3.69628 -1.09772 0)
(3.56896 -1.06378 -2.01754e-18)
(3.44329 -1.02998 6.90513e-24)
(3.3193 -0.996324 7.98349e-19)
(3.19709 -0.962877 -6.87921e-19)
(3.07684 -0.929692 -5.73651e-19)
(2.95879 -0.896864 -4.55288e-19)
(2.84313 -0.864462 3.32571e-19)
(2.73 -0.832551 -2.05212e-19)
(2.61954 -0.801181 0)
(2.51186 -0.77041 -6.47487e-20)
(2.40708 -0.740283 2.08061e-19)
(2.30533 -0.710852 0)
(2.2067 -0.682169 0)
(2.11131 -0.654278 -2.84438e-24)
(2.01923 -0.62722 2.96591e-24)
(1.93053 -0.601029 -1.02753e-24)
(1.84525 -0.575736 6.06444e-19)
(1.76341 -0.551355 5.11445e-24)
(1.68503 -0.527909 8.08522e-19)
(1.6101 -0.505405 0)
(1.53861 -0.483853 5.16487e-19)
(1.47051 -0.463253 5.77437e-19)
(1.40578 -0.443603 1.00537e-23)
(1.34435 -0.424898 7.10385e-19)
(1.28618 -0.407129 1.22051e-23)
(1.23118 -0.390282 -1.28739e-23)
(1.17928 -0.374345 -9.42911e-19)
(1.13043 -0.359303 -5.1543e-19)
(1.08454 -0.345143 -1.69133e-23)
(1.04154 -0.331845 -1.22551e-18)
(1.00131 -0.319385 -2.00961e-23)
(0.963841 -0.307755 0)
(0.929115 -0.296955 7.86478e-19)
(0.897112 -0.286992 0)
(0.86765 -0.277827 9.24709e-19)
(0.840505 -0.269392 -5.00814e-19)
(0.815714 -0.26168 5.42206e-19)
(0.793756 -0.254819 1.17352e-18)
(0.775098 -0.248968 -3.84978e-23)
(0.759722 -0.24419 0)
(0.746268 -0.240143 -3.70462e-19)
(0.734043 -0.23659 3.99973e-19)
(0.722554 -0.233308 -5.24424e-23)
(0.714717 -0.230974 -2.32479e-19)
(0.714215 -0.230755 2.50322e-19)
(0.722261 -0.233089 0)
(0.74035 -0.238763 0)
(0.76214 -0.246396 -3.09784e-19)
(0.780764 -0.253985 -1.65795e-19)
(0.79783 -0.261962 -2.35516e-26)
(0.809704 -0.268924 0)
(0.824195 -0.275962 0)
(0.863866 -0.289725 2.13736e-19)
(0.942474 -0.314562 -1.10166e-22)
(1.07515 -0.355155 1.1578e-22)
(1.28332 -0.420594 -1.23677e-19)
(1.64955 -0.54993 0)
(1.96804 -0.761197 1.32276e-19)
(1.85677 -0.927911 -1.35003e-19)
(1.24662 -0.830891 -1.39753e-19)
(0.457958 -0.382488 1.50159e-19)
(0.0324985 0.0337602 -3.24354e-19)
(-0.10419 0.399083 0)
(5.77796 -1.65999 3.94023e-18)
(5.61571 -1.62071 1.48971e-23)
(5.4546 -1.58118 0)
(5.29459 -1.5414 -3.41337e-18)
(5.13559 -1.50136 -1.17827e-23)
(4.97745 -1.46106 -3.0385e-18)
(4.82021 -1.42051 0)
(4.66419 -1.37983 -2.64027e-18)
(4.50975 -1.33915 -8.72275e-24)
(4.35707 -1.29854 2.21486e-18)
(4.20624 -1.25804 9.95445e-19)
(4.05728 -1.21768 0)
(3.91034 -1.17753 7.58945e-19)
(3.76562 -1.13765 6.33839e-19)
(3.62343 -1.09816 -3.2684e-24)
(3.48398 -1.05915 1.1265e-24)
(3.34749 -1.0207 -2.2768e-19)
(3.2141 -0.982862 8.09635e-20)
(3.08398 -0.945717 1.44028e-19)
(2.95728 -0.909321 2.55316e-24)
(2.83414 -0.873742 0)
(2.71471 -0.839041 4.95974e-24)
(2.59912 -0.805274 -5.17139e-24)
(2.48748 -0.772494 0)
(2.37986 -0.740746 5.73512e-19)
(2.27634 -0.710064 -6.78828e-19)
(2.17694 -0.680478 0)
(2.08169 -0.652005 0)
(1.99059 -0.624667 0)
(1.90362 -0.59847 -5.79518e-19)
(1.82076 -0.573421 -1.29638e-18)
(1.74195 -0.549515 -2.14188e-23)
(1.66714 -0.526749 -7.98128e-19)
(1.59626 -0.505115 0)
(1.52922 -0.484594 -9.67363e-19)
(1.46594 -0.465174 -6.47175e-23)
(1.40635 -0.446839 1.15966e-18)
(1.35036 -0.429572 -6.32838e-19)
(1.29785 -0.41335 6.89615e-19)
(1.24873 -0.398145 -4.5238e-23)
(1.20294 -0.383943 0)
(1.16048 -0.370749 -8.85451e-19)
(1.12131 -0.358563 0)
(1.08522 -0.347347 -1.04125e-18)
(1.05195 -0.337019 1.12799e-18)
(1.02154 -0.327571 4.30168e-25)
(0.994512 -0.319139 -6.60758e-19)
(0.971404 -0.311907 -8.77455e-23)
(0.952192 -0.305947 -1.02056e-24)
(0.935354 -0.300887 4.17096e-19)
(0.92007 -0.296449 -4.50008e-19)
(0.905788 -0.292385 -2.37139e-22)
(0.895765 -0.289433 -9.61105e-25)
(0.894165 -0.288907 2.82084e-19)
(0.902469 -0.291345 3.02582e-19)
(0.92229 -0.297619 -8.02949e-25)
(0.946596 -0.30624 3.48589e-19)
(0.967646 -0.314987 1.86126e-19)
(0.986904 -0.324235 -1.99053e-19)
(1.00051 -0.332491 2.12313e-19)
(1.01719 -0.340977 0)
(1.06195 -0.357059 -2.39632e-19)
(1.1507 -0.385809 -2.52017e-19)
(1.30019 -0.432614 -2.36254e-25)
(1.53361 -0.508325 -2.67882e-22)
(1.93459 -0.653443 0)
(2.28766 -0.88992 -1.45948e-19)
(2.19011 -1.08871 1.47845e-19)
(1.53236 -1.00566 1.52464e-19)
(0.626349 -0.514327 -1.63703e-19)
(0.0863338 -0.00808151 3.57366e-19)
(-0.0994871 0.437833 -5.50883e-22)
(6.8742 -1.97476 -4.07943e-18)
(6.68766 -1.92991 3.91659e-18)
(6.50207 -1.88464 3.74802e-18)
(6.31739 -1.83898 0)
(6.13354 -1.79293 -3.39185e-18)
(5.95037 -1.74645 0)
(5.76791 -1.6996 -3.00687e-18)
(5.58653 -1.65249 0)
(5.40664 -1.60528 2.58856e-18)
(5.2285 -1.55805 2.36567e-18)
(5.05221 -1.51085 -2.13295e-18)
(4.87784 -1.46374 0)
(4.70555 -1.41678 -5.62741e-24)
(4.53561 -1.37006 5.84065e-24)
(4.36836 -1.32372 -5.45789e-19)
(4.20409 -1.27785 -4.00246e-19)
(4.04307 -1.23257 4.9577e-19)
(3.8855 -1.18795 -8.83518e-20)
(3.73159 -1.14408 -7.8762e-20)
(3.58152 -1.10104 -5.0778e-19)
(3.4355 -1.05891 2.6916e-24)
(3.29371 -1.01776 0)
(3.15631 -0.977675 -7.00096e-24)
(3.02347 -0.938717 -5.22377e-19)
(2.89528 -0.900941 0)
(2.77185 -0.864397 1.50311e-18)
(2.65322 -0.829123 -1.27017e-23)
(2.53945 -0.795147 1.00585e-18)
(2.43054 -0.762496 -1.81023e-23)
(2.32649 -0.731182 3.93448e-23)
(2.22727 -0.701217 7.21745e-19)
(2.13285 -0.672599 2.51671e-23)
(2.04315 -0.645327 -2.65201e-23)
(1.95811 -0.619393 0)
(1.87763 -0.59478 1.08051e-18)
(1.80162 -0.571472 3.55277e-23)
(1.73 -0.549454 4.10083e-23)
(1.66266 -0.528705 7.07978e-19)
(1.59949 -0.509202 7.71831e-19)
(1.54035 -0.490911 -8.40229e-19)
(1.48518 -0.473815 -1.24084e-24)
(1.43397 -0.457918 9.92204e-19)
(1.38667 -0.443221 -1.31403e-22)
(1.34306 -0.429679 1.16717e-18)
(1.30283 -0.417206 -6.32227e-19)
(1.26602 -0.405783 5.84772e-25)
(1.23318 -0.395555 0)
(1.20492 -0.386726 0)
(1.18119 -0.37938 -1.06294e-22)
(1.16036 -0.373127 -9.35454e-19)
(1.14146 -0.367648 1.22345e-22)
(1.12391 -0.362673 -1.33487e-22)
(1.11124 -0.358977 1.42748e-22)
(1.10802 -0.358001 -6.319e-19)
(1.11603 -0.360386 -3.39318e-19)
(1.13694 -0.367084 -8.99036e-25)
(1.16317 -0.376547 1.89864e-22)
(1.18624 -0.38639 2.08175e-19)
(1.20734 -0.396885 2.16932e-22)
(1.22249 -0.406496 -2.31775e-22)
(1.24124 -0.416554 2.45847e-22)
(1.29055 -0.43499 2.66959e-19)
(1.38835 -0.467582 5.60785e-19)
(1.55276 -0.520415 2.85642e-22)
(1.8083 -0.606152 -1.04636e-24)
(2.23561 -0.765413 -1.53734e-19)
(2.61468 -1.02398 1.59667e-19)
(2.53644 -1.25494 -2.60954e-22)
(1.85017 -1.19608 3.26029e-19)
(0.836799 -0.676554 -7.12976e-22)
(0.167248 -0.0763513 -3.88949e-19)
(-0.0826279 0.45698 0)
(7.99842 -2.29748 1.57152e-23)
(7.79239 -2.24846 -2.41226e-23)
(7.58682 -2.19882 -3.69769e-18)
(7.38171 -2.14856 -1.40657e-23)
(7.17699 -2.09769 3.3811e-18)
(6.97248 -2.04619 0)
(6.76823 -1.9941 3.02793e-18)
(6.56462 -1.94155 0)
(6.36212 -1.8887 -1.99463e-23)
(6.16106 -1.83567 -2.41772e-18)
(5.96158 -1.78252 1.09514e-18)
(5.76376 -1.72931 0)
(5.56782 -1.67612 -8.47554e-19)
(5.37406 -1.62305 -1.28375e-24)
(5.1829 -1.57025 5.70607e-19)
(4.99469 -1.51786 -4.20185e-19)
(4.80976 -1.46601 -2.61295e-19)
(4.62839 -1.41478 0)
(4.45084 -1.3643 -1.31871e-24)
(4.27737 -1.31466 2.70638e-19)
(4.10822 -1.26595 4.26187e-24)
(3.94365 -1.21829 -4.46251e-24)
(3.78388 -1.17176 0)
(3.62911 -1.12645 5.63918e-19)
(3.47953 -1.08243 0)
(3.33524 -1.03978 3.3872e-24)
(3.19636 -0.99854 0)
(3.06295 -0.958761 -1.09674e-18)
(2.93508 -0.920471 0)
(2.81275 -0.883702 0)
(2.69595 -0.848467 -7.91632e-19)
(2.58466 -0.814778 0)
(2.47883 -0.782637 9.79551e-19)
(2.37839 -0.752037 -1.08256e-18)
(2.28323 -0.722968 7.27627e-23)
(2.19328 -0.695413 1.40946e-24)
(2.10844 -0.669358 -4.19189e-23)
(2.0286 -0.644783 4.85315e-23)
(1.95363 -0.621661 -1.71026e-18)
(1.88339 -0.599959 9.31556e-19)
(1.8178 -0.579657 1.01358e-18)
(1.75684 -0.560755 -1.10143e-18)
(1.70047 -0.543256 -1.45966e-22)
(1.64842 -0.527113 7.92479e-23)
(1.60037 -0.512234 0)
(1.55633 -0.498591 -7.61535e-19)
(1.51691 -0.486332 -1.31321e-24)
(1.48272 -0.475673 1.08189e-22)
(1.45374 -0.466717 0)
(1.42821 -0.459069 1.04101e-18)
(1.40509 -0.452374 5.61785e-19)
(1.38373 -0.446347 -1.48535e-22)
(1.36788 -0.441761 1.58831e-22)
(1.3624 -0.440154 3.51408e-19)
(1.36937 -0.442274 0)
(1.39048 -0.449138 -4.04299e-19)
(1.41775 -0.459214 2.11706e-22)
(1.44218 -0.470023 1.10917e-24)
(1.46454 -0.481694 -2.40516e-22)
(1.48088 -0.492694 -2.62781e-19)
(1.50145 -0.504428 2.78872e-19)
(1.55454 -0.525197 -2.94009e-19)
(1.65985 -0.561439 -6.03489e-22)
(1.83656 -0.619927 3.12595e-22)
(2.11006 -0.715103 -1.63437e-19)
(2.55401 -0.886476 1.65136e-19)
(2.94785 -1.16327 -6.66353e-22)
(2.89085 -1.42465 -1.71353e-19)
(2.19691 -1.39982 -6.84127e-19)
(1.09363 -0.871482 1.83982e-19)
(0.283434 -0.179791 2.07574e-19)
(-0.048592 0.44504 8.72592e-22)
(9.07812 -2.60731 0)
(8.85999 -2.55621 -3.51794e-18)
(8.64171 -2.50424 0)
(8.42327 -2.45141 3.28171e-18)
(8.2046 -2.39772 -3.15001e-18)
(7.9855 -2.34315 -2.4012e-23)
(7.76599 -2.28773 -2.06968e-23)
(7.54646 -2.2316 2.69118e-18)
(7.32742 -2.17493 -2.51395e-18)
(7.10921 -2.11782 -1.65581e-23)
(6.89201 -2.06037 -1.0588e-18)
(6.67593 -2.00263 -9.48392e-19)
(6.46118 -1.94468 8.32256e-24)
(6.24812 -1.88665 9.44751e-24)
(6.03721 -1.8287 -5.65409e-19)
(5.82888 -1.77098 4.18848e-19)
(5.6235 -1.71365 2.65998e-24)
(5.42143 -1.65681 -2.71568e-24)
(5.223 -1.60059 -8.48478e-20)
(5.02852 -1.54513 0)
(4.83831 -1.49053 0)
(4.65271 -1.43693 1.20624e-23)
(4.472 -1.38445 -2.82994e-23)
(4.29647 -1.33319 1.64307e-23)
(4.12636 -1.28325 -7.169e-19)
(3.96185 -1.23473 -8.55524e-19)
(3.80312 -1.18769 -2.91053e-23)
(3.65029 -1.1422 0)
(3.50347 -1.09832 1.32575e-18)
(3.36271 -1.05609 -4.73699e-23)
(3.22806 -1.01553 8.45403e-19)
(3.0995 -0.976676 -5.61709e-23)
(2.97703 -0.939535 -1.0518e-18)
(2.86059 -0.904117 -1.45364e-22)
(2.75011 -0.870411 1.57029e-22)
(2.64551 -0.838412 -1.72803e-22)
(2.5467 -0.808109 1.91352e-22)
(2.45359 -0.779485 -1.02321e-22)
(2.36603 -0.752516 9.29802e-19)
(2.28388 -0.727171 1.01419e-18)
(2.20707 -0.703427 -2.21005e-18)
(2.13557 -0.681284 -1.20232e-18)
(2.06933 -0.660749 0)
(2.00807 -0.641776 -7.09558e-19)
(1.95144 -0.62427 -2.92887e-24)
(1.89946 -0.608193 2.0218e-22)
(1.85272 -0.593687 -2.21998e-22)
(1.81187 -0.58098 2.37288e-22)
(1.77689 -0.570191 0)
(1.74597 -0.560947 -5.71163e-19)
(1.71798 -0.552863 -3.0239e-22)
(1.69227 -0.545641 -6.64992e-19)
(1.67265 -0.540011 -3.57688e-19)
(1.66418 -0.53756 -3.75366e-22)
(1.66918 -0.539139 4.13389e-19)
(1.68931 -0.545827 4.43544e-19)
(1.71642 -0.556197 0)
(1.74124 -0.567762 -2.53003e-19)
(1.76403 -0.580476 -5.27687e-22)
(1.781 -0.592859 -2.87042e-19)
(1.80296 -0.606335 -6.07467e-19)
(1.85882 -0.629348 0)
(1.9696 -0.668902 -3.34231e-19)
(2.15522 -0.732456 1.72599e-19)
(2.44139 -0.836067 3.46628e-19)
(2.89129 -1.01712 0)
(3.28662 -1.30771 1.8102e-19)
(3.24808 -1.59581 0)
(2.56666 -1.61313 7.03765e-19)
(1.39874 -1.09941 -3.7534e-19)
(0.444172 -0.328579 -1.69516e-21)
(0.00811272 0.389851 9.29886e-22)
(10.044 -2.88434 0)
(9.82078 -2.83303 -2.21886e-23)
(9.59697 -2.78067 2.32391e-23)
(9.37252 -2.72726 -2.84229e-18)
(9.1473 -2.67281 4.10737e-23)
(8.9211 -2.61727 0)
(8.6939 -2.56065 0)
(8.46607 -2.50311 -2.38167e-18)
(8.23809 -2.44479 2.23801e-18)
(8.01032 -2.38581 1.48312e-23)
(7.7829 -2.32624 -4.3914e-24)
(7.55594 -2.26614 8.60309e-19)
(7.32966 -2.2056 1.51509e-18)
(7.10439 -2.14473 1.10083e-23)
(6.88063 -2.08369 5.23236e-19)
(6.65881 -2.02265 -2.44638e-24)
(6.43936 -1.96176 -5.00179e-24)
(6.22265 -1.90115 0)
(6.00905 -1.84097 8.07041e-20)
(5.79895 -1.78134 5.37241e-24)
(5.59271 -1.72242 -5.68975e-24)
(5.39071 -1.66433 0)
(5.19333 -1.60723 0)
(5.0009 -1.55124 0)
(4.81376 -1.4965 7.09199e-19)
(4.63216 -1.4431 -2.45005e-23)
(4.45634 -1.39116 0)
(4.2865 -1.34075 0)
(4.12283 -1.29196 -1.34145e-18)
(3.96543 -1.24485 0)
(3.81442 -1.19948 -8.6384e-19)
(3.66985 -1.15588 1.18451e-22)
(3.53174 -1.11408 -6.46083e-23)
(3.4001 -1.07412 2.41248e-18)
(3.27489 -1.036 -8.31581e-23)
(3.15607 -0.999717 8.84928e-23)
(3.04358 -0.965279 -8.12595e-19)
(2.93734 -0.932678 0)
(2.83723 -0.901898 9.78204e-19)
(2.74313 -0.872913 -1.07008e-18)
(2.65496 -0.845703 1.16835e-18)
(2.5727 -0.820273 1.27376e-18)
(2.49631 -0.796633 0)
(2.42551 -0.774748 1.85704e-22)
(2.35997 -0.754522 -1.9849e-22)
(2.29965 -0.73591 -2.18676e-22)
(2.24517 -0.719038 2.33913e-22)
(2.19717 -0.704141 0)
(2.15563 -0.691362 0)
(2.11877 -0.680372 0)
(2.08541 -0.670769 6.60152e-19)
(2.05488 -0.662249 3.47995e-22)
(2.03099 -0.655442 3.83973e-19)
(2.01877 -0.651928 -4.02345e-22)
(2.02075 -0.65265 1.81352e-25)
(2.03853 -0.658755 0)
(2.06399 -0.669022 -5.07118e-19)
(2.08794 -0.681054 -5.29421e-22)
(2.1101 -0.694625 -2.87695e-19)
(2.12691 -0.708342 3.06973e-19)
(2.14961 -0.723568 3.22491e-19)
(2.2069 -0.748643 -1.23801e-24)
(2.32061 -0.791008 6.86797e-22)
(2.51095 -0.858794 -8.2351e-25)
(2.80305 -0.969276 -1.78883e-19)
(3.24683 -1.15697 -6.84926e-22)
(3.62941 -1.45657 8.04104e-22)
(3.6026 -1.76622 1.45254e-21)
(2.95072 -1.8309 -7.07669e-19)
(1.75028 -1.35776 3.72029e-19)
(0.658262 -0.532778 0)
(0.0969153 0.270752 -9.62821e-22)
(11.086 -3.16835 -1.91986e-23)
(10.8627 -3.11899 -2.54745e-18)
(10.6383 -3.0684 1.82973e-23)
(10.4132 -3.01668 -1.92036e-23)
(10.1872 -2.96383 1.72306e-23)
(9.96018 -2.90983 2.27704e-18)
(9.73192 -2.85463 -2.19225e-18)
(9.50236 -2.79825 0)
(9.27184 -2.74081 0)
(9.04082 -2.68246 -1.88246e-18)
(8.80962 -2.62331 1.75704e-18)
(8.57836 -2.56343 8.09292e-19)
(8.34712 -2.50285 0)