/*--------------------------------*- C++ -*----------------------------------*\
| =========                 |                                                 |
| \\      /  F ield         | OpenFOAM: The Open Source CFD Toolbox           |
|  \\    /   O peration     | Version:  2412                                  |
|   \\  /    A nd           | Website:  www.openfoam.com                      |
|    \\/     M anipulation  |                                                 |
\*---------------------------------------------------------------------------*/
FoamFile
{
    version     2.0;
    format      ascii;
    arch        "LSB;label=32;scalar=64";
    class       volVectorField;
    location    "500";
    object      U;
}
// * * * * * * * * * * * * * * * * * * * * * * * * * * * * * * * * * * * * * //

dimensions      [0 1 -1 0 0 0 0];

internalField   nonuniform List<vector> 
8702
(
(0.205936 -0.0563828 3.9172e-19)
(0.206418 -0.0568046 0)
(0.206875 -0.0572151 -3.6991e-19)
(0.207307 -0.0576121 -3.59199e-19)
(0.207719 -0.0579983 0)
(0.208108 -0.0583719 -3.38115e-19)
(0.20848 -0.0587364 3.12512e-25)
(0.208834 -0.0590916 -3.02603e-25)
(0.209177 -0.0594378 -3.06933e-19)
(0.209513 -0.0597782 0)
(0.209841 -0.0601117 2.86223e-19)
(0.210156 -0.0604379 -2.75838e-19)
(0.210454 -0.0607548 1.22886e-25)
(0.210737 -0.0610634 -7.34604e-27)
(0.210998 -0.0613626 1.22174e-19)
(0.211243 -0.0616525 0)
(0.211467 -0.0619335 -1.0258e-25)
(0.211675 -0.0622047 1.05976e-19)
(0.211872 -0.0624703 1.08964e-26)
(0.212051 -0.0627277 9.44708e-27)
(0.212218 -0.0629766 0)
(0.212378 -0.0632203 -8.32272e-20)
(0.212529 -0.0634583 0)
(0.212672 -0.0636897 7.11824e-20)
(0.212812 -0.0639178 0)
(0.212944 -0.0641392 0)
(0.213067 -0.0643552 0)
(0.213185 -0.0645653 -4.53074e-20)
(0.213294 -0.0647694 -7.31934e-26)
(0.213388 -0.0649657 1.56249e-20)
(0.213471 -0.0651547 1.19443e-20)
(0.213543 -0.0653373 1.15987e-26)
(0.213596 -0.0655103 4.20749e-21)
(0.213637 -0.0656756 -3.71716e-27)
(0.213664 -0.0658338 3.83664e-27)
(0.213671 -0.0659813 1.696e-20)
(0.213667 -0.0661214 0)
(0.21365 -0.0662545 1.77876e-20)
(0.213617 -0.0663779 0)
(0.21357 -0.0664938 -5.73064e-26)
(0.213504 -0.0665998 5.93958e-26)
(0.213421 -0.0666968 -1.94651e-20)
(0.213318 -0.0667834 -2.24192e-20)
(0.213192 -0.0668597 2.55169e-20)
(0.213049 -0.0669258 0)
(0.212881 -0.0669811 3.21889e-20)
(0.212688 -0.067024 3.57876e-20)
(0.212464 -0.067054 -3.95794e-20)
(0.212211 -0.0670705 4.35794e-20)
(0.211924 -0.067073 -2.39016e-20)
(0.211602 -0.06706 -1.94996e-25)
(0.211248 -0.0670336 0)
(0.210858 -0.0669919 0)
(0.21043 -0.0669348 0)
(0.209966 -0.0668624 2.82968e-25)
(0.209467 -0.0667754 3.94771e-20)
(0.20893 -0.0666734 0)
(0.208356 -0.0665561 0)
(0.207753 -0.0664257 -3.30305e-27)
(0.207126 -0.0662848 2.67569e-20)
(0.206474 -0.0661331 2.88073e-20)
(0.205795 -0.06597 -3.09909e-20)
(0.205105 -0.0658003 -6.66389e-20)
(0.204419 -0.0656277 -5.47169e-25)
(0.203756 -0.0654587 1.92223e-20)
(0.203107 -0.0652939 6.24114e-25)
(0.20246 -0.0651317 2.21259e-20)
(0.201798 -0.0649655 0)
(0.201164 -0.0647995 -4.46127e-27)
(0.200681 -0.064667 0)
(0.20045 -0.0646024 -1.45539e-20)
(0.200466 -0.064625 1.55516e-20)
(0.200444 -0.0646732 3.31957e-20)
(0.200222 -0.0646911 -1.77043e-20)
(0.199657 -0.0646172 1.15812e-24)
(0.199188 -0.0644984 -2.01109e-20)
(0.19979 -0.0646106 -1.30012e-24)
(0.201679 -0.0650375 -1.3955e-26)
(0.205556 -0.0660381 -1.20292e-20)
(0.210557 -0.0675984 0)
(0.214277 -0.0690903 -1.33263e-20)
(0.215915 -0.0702209 0)
(0.641643 -0.175674 -3.17047e-25)
(0.643165 -0.176996 6.33377e-19)
(0.64461 -0.178279 0)
(0.645982 -0.179523 0)
(0.647291 -0.180733 0)
(0.648526 -0.181905 -5.62492e-19)
(0.649697 -0.183044 -5.45135e-19)
(0.650824 -0.184156 2.57821e-25)
(0.651912 -0.185242 5.10632e-19)
(0.652974 -0.186307 -4.93412e-19)
(0.654008 -0.187351 2.33158e-25)
(0.655002 -0.18837 0)
(0.655947 -0.189362 0)
(0.65684 -0.190328 -1.96117e-25)
(0.65767 -0.191263 -2.03262e-19)
(0.658446 -0.192172 -1.91506e-25)
(0.659161 -0.193052 1.85411e-19)
(0.65982 -0.193902 1.61981e-25)
(0.660439 -0.194731 -1.67097e-19)
(0.661011 -0.195535 -9.40723e-28)
(0.661548 -0.196318 0)
(0.662056 -0.19708 -1.25807e-25)
(0.662539 -0.197825 1.28564e-19)
(0.662999 -0.198552 -1.18441e-19)
(0.663445 -0.199264 0)
(0.663867 -0.199959 -9.74788e-20)
(0.664262 -0.200634 -1.65127e-25)
(0.66464 -0.201293 7.08724e-26)
(0.664985 -0.201932 0)
(0.66529 -0.202547 -2.60064e-20)
(0.665558 -0.203139 -3.14199e-26)
(0.665786 -0.20371 1.35579e-20)
(0.665964 -0.204253 0)
(0.666096 -0.20477 0)
(0.666187 -0.205264 1.9596e-26)
(0.666227 -0.20573 -1.58133e-26)
(0.666224 -0.20617 0)
(0.666179 -0.206586 -5.91475e-20)
(0.666086 -0.206976 3.78027e-20)
(0.66595 -0.207339 0)
(0.665757 -0.207674 -2.76793e-20)
(0.665508 -0.207979 1.30384e-25)
(0.665197 -0.208254 -1.3533e-25)
(0.664824 -0.208496 -4.24371e-20)
(0.664391 -0.208708 0)
(0.663878 -0.208883 0)
(0.663286 -0.20902 -5.95176e-20)
(0.662604 -0.209118 -2.4396e-25)
(0.661832 -0.209175 -7.24758e-20)
(0.660961 -0.209189 7.95011e-20)
(0.659984 -0.209158 0)
(0.658898 -0.209081 -4.73941e-20)
(0.657698 -0.208956 0)
(0.656387 -0.208785 4.34683e-25)
(0.654961 -0.208566 1.53596e-26)
(0.653422 -0.208301 -6.56451e-20)
(0.651767 -0.207988 5.49184e-25)
(0.650009 -0.207631 -3.82899e-20)
(0.648156 -0.207234 4.12902e-20)
(0.646225 -0.206801 1.39277e-26)
(0.644215 -0.206336 0)
(0.642129 -0.205837 5.15199e-20)
(0.640003 -0.205316 1.10776e-19)
(0.637889 -0.204785 5.95097e-20)
(0.635841 -0.204264 -3.19494e-20)
(0.633841 -0.203758 0)
(0.63185 -0.20326 1.13149e-24)
(0.629808 -0.202749 -2.40585e-24)
(0.627859 -0.202241 4.22272e-20)
(0.626362 -0.201833 0)
(0.625616 -0.201626 2.41784e-20)
(0.625616 -0.201682 0)
(0.625535 -0.201827 2.85294e-27)
(0.624878 -0.201891 2.94044e-20)
(0.623206 -0.201688 0)
(0.621789 -0.201341 -2.04707e-24)
(0.623522 -0.201663 4.33706e-24)
(0.629121 -0.20293 -1.8866e-20)
(0.640657 -0.205904 1.99697e-20)
(0.65565 -0.210581 0)
(0.66705 -0.215139 2.21169e-20)
(0.672316 -0.218671 -2.32325e-20)
(1.12692 -0.308537 0)
(1.12965 -0.310878 -7.1704e-19)
(1.13225 -0.313146 -3.25168e-25)
(1.13473 -0.31535 6.76486e-19)
(1.13709 -0.317494 6.56546e-19)
(1.13932 -0.319571 6.36789e-19)
(1.14143 -0.321584 -1.65163e-26)
(1.14346 -0.323552 -5.97582e-19)
(1.14542 -0.325476 5.78077e-19)
(1.14733 -0.327359 5.58581e-19)
(1.14918 -0.329202 -5.3907e-19)
(1.15097 -0.331003 0)
(1.15267 -0.332759 0)
(1.15427 -0.334465 0)
(1.15576 -0.336119 0)
(1.15715 -0.337723 -2.02909e-25)
(1.15844 -0.339279 -2.09891e-19)
(1.15963 -0.340785 1.99599e-19)
(1.16074 -0.342247 1.73388e-25)
(1.16178 -0.343668 1.7855e-19)
(1.16275 -0.345053 -1.52929e-25)
(1.16367 -0.346401 2.98961e-25)
(1.16454 -0.347717 -1.45533e-19)
(1.16538 -0.349003 2.55698e-25)
(1.16618 -0.350261 1.22351e-19)
(1.16695 -0.351489 1.10341e-19)
(1.16767 -0.352684 0)
(1.16835 -0.353848 8.53437e-20)
(1.16897 -0.354975 6.1665e-26)
(1.16953 -0.356064 -2.94363e-20)
(1.17002 -0.357112 -5.02526e-26)
(1.17044 -0.358117 -1.53454e-20)
(1.17077 -0.359079 7.93833e-21)
(1.17102 -0.359994 -2.66345e-22)
(1.1712 -0.360866 0)
(1.17129 -0.361693 -1.59482e-20)
(1.17131 -0.362474 9.36284e-26)
(1.17124 -0.36321 3.34694e-20)
(1.1711 -0.363901 9.04276e-27)
(1.17088 -0.364547 0)
(1.17056 -0.365142 3.13234e-20)
(1.17015 -0.365685 -3.66317e-20)
(1.16963 -0.366176 1.53139e-25)
(1.16901 -0.366612 -1.92636e-25)
(1.16827 -0.366992 -1.58639e-26)
(1.1674 -0.367308 6.05738e-20)
(1.16638 -0.36756 6.73427e-20)
(1.16522 -0.367741 7.44758e-20)
(1.16389 -0.367852 -8.19995e-20)
(1.1624 -0.367888 -4.49721e-20)
(1.16072 -0.367846 3.83507e-25)
(1.15885 -0.367722 5.36154e-20)
(1.15678 -0.367515 4.36543e-25)
(1.15451 -0.367226 4.91715e-25)
(1.15205 -0.366855 -5.14892e-25)
(1.14938 -0.366399 -5.75349e-25)
(1.14651 -0.365861 8.02392e-20)
(1.14346 -0.365247 4.33061e-20)
(1.14025 -0.364562 4.66972e-20)
(1.13689 -0.363814 -5.031e-20)
(1.1334 -0.363007 8.16966e-25)
(1.12977 -0.362144 0)
(1.12608 -0.36124 -6.26279e-20)
(1.12239 -0.360318 0)
(1.11882 -0.359412 3.6122e-20)
(1.11534 -0.358533 -3.87599e-20)
(1.11187 -0.357667 0)
(1.10832 -0.35678 -4.45511e-20)
(1.10493 -0.355902 -4.77235e-20)
(1.1023 -0.355188 -3.0966e-24)
(1.10094 -0.354814 3.35681e-24)
(1.10086 -0.354888 -3.54199e-24)
(1.10069 -0.355132 -3.11504e-20)
(1.09958 -0.355254 0)
(1.09678 -0.354936 3.54035e-20)
(1.09435 -0.354362 3.77241e-20)
(1.09716 -0.354884 -4.92017e-24)
(1.10652 -0.357009 5.18043e-24)
(1.1259 -0.362005 -2.25466e-20)
(1.15129 -0.369927 -2.37539e-20)
(1.17102 -0.377791 2.49686e-20)
(1.18054 -0.384011 2.62118e-20)
(1.66159 -0.454926 -8.34886e-19)
(1.66576 -0.458414 -7.8995e-25)
(1.66974 -0.461802 -7.88398e-19)
(1.67354 -0.465091 -7.65569e-19)
(1.67716 -0.46829 -7.44632e-25)
(1.68057 -0.471388 0)
(1.68379 -0.474393 6.98397e-19)
(1.6869 -0.477326 6.76264e-19)
(1.68991 -0.480194 4.36862e-28)
(1.69282 -0.483001 0)
(1.69564 -0.485746 6.10038e-19)
(1.69836 -0.488428 0)
(1.70095 -0.491041 0)
(1.70339 -0.493581 0)
(1.70566 -0.496044 0)
(1.70778 -0.498431 0)
(1.70975 -0.500745 0)
(1.71158 -0.502987 -4.51722e-19)
(1.71328 -0.505163 -2.14045e-19)
(1.71486 -0.50728 0)
(1.71635 -0.509339 1.89821e-19)
(1.71775 -0.511343 1.77371e-19)
(1.7191 -0.513301 0)
(1.72039 -0.515215 2.73215e-25)
(1.72162 -0.517087 -2.76874e-19)
(1.72279 -0.518912 1.24846e-19)
(1.7239 -0.52069 -1.95171e-25)
(1.72494 -0.522421 9.65592e-20)
(1.72591 -0.524096 0)
(1.72678 -0.525718 3.33033e-20)
(1.72754 -0.527276 2.54618e-20)
(1.72818 -0.528772 0)
(1.72872 -0.530203 -8.98063e-21)
(1.72912 -0.531567 3.01292e-22)
(1.72942 -0.532865 5.01793e-26)
(1.7296 -0.534097 1.8041e-20)
(1.72966 -0.535263 -8.87825e-26)
(1.72961 -0.536363 0)
(1.72944 -0.537396 -4.8392e-20)
(1.72915 -0.538363 -2.43971e-25)
(1.72873 -0.539255 2.52848e-25)
(1.72817 -0.540073 4.14317e-20)
(1.72746 -0.540814 0)
(1.72659 -0.541476 5.43096e-20)
(1.72556 -0.542055 0)
(1.72434 -0.542542 -6.85006e-20)
(1.72291 -0.542934 3.63895e-26)
(1.72126 -0.543224 -8.42168e-20)
(1.71937 -0.543409 9.27204e-20)
(1.71723 -0.543485 7.94627e-25)
(1.71483 -0.543445 3.76116e-26)
(1.71214 -0.543286 3.79776e-26)
(1.70916 -0.543005 -9.87053e-25)
(1.70589 -0.542602 1.11174e-24)
(1.70233 -0.542077 -1.16408e-24)
(1.69846 -0.541427 0)
(1.69431 -0.540658 -1.36634e-24)
(1.68988 -0.539775 -4.8943e-20)
(1.68521 -0.538787 -5.27742e-20)
(1.68033 -0.537704 0)
(1.67524 -0.536535 0)
(1.66996 -0.535284 0)
(1.66457 -0.533971 7.07577e-20)
(1.65919 -0.532628 2.34247e-24)
(1.65397 -0.531305 -4.95969e-24)
(1.64888 -0.530024 8.75621e-20)
(1.64381 -0.528761 -2.88915e-24)
(1.63862 -0.527471 5.03174e-20)
(1.63368 -0.526193 2.08881e-26)
(1.62979 -0.525144 -7.04176e-24)
(1.6277 -0.524573 3.74075e-24)
(1.62744 -0.524645 0)
(1.62715 -0.524987 3.51571e-20)
(1.62557 -0.525176 -4.60082e-24)
(1.62162 -0.524764 -3.99409e-20)
(1.61814 -0.523973 -5.22157e-24)
(1.62191 -0.524673 5.50041e-24)
(1.63497 -0.527646 -5.8827e-24)
(1.66214 -0.534652 5.0837e-20)
(1.69808 -0.54587 2.67789e-20)
(1.72669 -0.557242 -2.8128e-20)
(1.74116 -0.566443 0)
(2.24479 -0.614603 9.44144e-19)
(2.25068 -0.619387 -8.57091e-25)
(2.25632 -0.624035 8.91552e-19)
(2.26171 -0.628553 -8.43596e-25)
(2.26686 -0.632948 -1.68039e-18)
(2.27171 -0.637203 7.59384e-25)
(2.27629 -0.641325 -7.89739e-19)
(2.2807 -0.645348 0)
(2.28495 -0.64928 -3.99395e-26)
(2.28906 -0.653125 6.6398e-25)
(2.29304 -0.656885 -6.75498e-25)
(2.29687 -0.660556 -6.16271e-25)
(2.30051 -0.66413 3.53624e-26)
(2.30394 -0.667605 6.03531e-25)
(2.30716 -0.670974 0)
(2.31016 -0.674242 5.19216e-25)
(2.31294 -0.677406 -1.02432e-24)
(2.31552 -0.680472 5.10716e-19)
(2.31794 -0.683452 2.41994e-19)
(2.32019 -0.686344 0)
(2.3223 -0.689159 -3.77295e-26)
(2.32429 -0.691899 -2.0052e-19)
(2.3262 -0.694576 1.86159e-19)
(2.32803 -0.697191 -3.45271e-25)
(2.32978 -0.699748 1.56495e-19)
(2.33144 -0.702242 -1.41127e-19)
(2.33301 -0.704672 -2.57489e-25)
(2.3345 -0.707035 -1.09147e-19)
(2.33588 -0.709325 -1.94931e-25)
(2.33713 -0.71154 1.24857e-25)
(2.33822 -0.713669 -5.75578e-20)
(2.33916 -0.715715 1.96217e-20)
(2.33995 -0.717671 -1.015e-20)
(2.34057 -0.719537 1.78159e-26)
(2.34103 -0.721314 -1.83869e-26)
(2.34134 -0.723002 -2.03882e-20)
(2.34149 -0.7246 -3.1362e-20)
(2.34149 -0.726111 4.27826e-20)
(2.34133 -0.727533 5.46825e-20)
(2.34102 -0.728863 3.93355e-26)
(2.34053 -0.730097 -2.85692e-25)
(2.33985 -0.731231 0)
(2.33899 -0.732264 5.39122e-20)
(2.33791 -0.733192 6.13562e-20)
(2.33662 -0.734008 5.48059e-25)
(2.33508 -0.734702 7.73797e-20)
(2.33326 -0.735269 -4.11045e-26)
(2.33114 -0.7357 7.05106e-25)
(2.32872 -0.735991 -1.04722e-19)
(2.32596 -0.736134 -8.55338e-25)
(2.32284 -0.736121 0)
(2.31933 -0.735949 1.06604e-24)
(2.31543 -0.73561 -1.11454e-24)
(2.31114 -0.735107 0)
(2.30645 -0.734436 -8.75724e-20)
(2.30135 -0.7336 4.49162e-26)
(2.29586 -0.7326 -1.4854e-24)
(2.29 -0.731446 1.10489e-19)
(2.2838 -0.730149 0)
(2.27731 -0.72872 0)
(2.27054 -0.727175 0)
(2.26353 -0.72552 0)
(2.25635 -0.723778 -7.98231e-20)
(2.24917 -0.721993 -2.59148e-24)
(2.24217 -0.720229 -4.60226e-20)
(2.23536 -0.718519 3.36115e-26)
(2.22858 -0.716835 -5.29353e-20)
(2.22166 -0.715119 -5.67261e-20)
(2.21503 -0.713416 6.07535e-20)
(2.20977 -0.712001 0)
(2.20682 -0.711201 0)
(2.20627 -0.711242 0)
(2.20578 -0.711673 -3.96086e-20)
(2.20372 -0.711941 4.22304e-20)
(2.19866 -0.711468 5.81305e-26)
(2.19411 -0.710477 -5.81828e-24)
(2.19864 -0.711317 0)
(2.21519 -0.715093 -2.70195e-20)
(2.24983 -0.724022 -5.71793e-20)
(2.29614 -0.738493 0)
(2.334 -0.753516 -3.16098e-20)
(2.35413 -0.765984 0)
(2.87476 -0.78709 0)
(2.88271 -0.793325 0)
(2.89035 -0.799394 -1.00675e-18)
(2.89767 -0.805298 9.52568e-25)
(2.90469 -0.811045 9.48698e-19)
(2.9113 -0.816607 0)
(2.91752 -0.821991 1.78334e-18)
(2.9235 -0.827243 0)
(2.92927 -0.832371 -1.6703e-18)
(2.93483 -0.837383 7.89527e-25)
(2.9402 -0.84228 0)
(2.94535 -0.847058 0)
(2.95025 -0.851708 -7.22025e-19)
(2.95489 -0.856228 -3.46728e-19)
(2.95923 -0.860615 0)
(2.96328 -0.864865 -5.86081e-25)
(2.96705 -0.868982 5.98198e-25)
(2.97055 -0.872971 -5.76454e-19)
(2.97382 -0.876845 -5.41137e-25)
(2.97687 -0.880606 -2.57802e-19)
(2.97973 -0.884261 -2.42201e-19)
(2.98244 -0.887822 -4.11197e-25)
(2.98503 -0.891298 -3.50815e-26)
(2.98751 -0.894696 3.89641e-25)
(2.98988 -0.898014 -1.766e-19)
(2.99214 -0.901252 -1.59253e-19)
(2.99428 -0.904406 0)
(2.9963 -0.907473 1.23156e-19)
(2.99818 -0.910447 0)
(2.99988 -0.913319 0)
(3.00139 -0.916085 6.49382e-20)
(3.0027 -0.91874 -2.21372e-20)
(3.00381 -0.921282 1.14506e-20)
(3.0047 -0.923708 -4.01963e-26)
(3.0054 -0.92602 4.14825e-26)
(3.00589 -0.928218 -2.19017e-25)
(3.00619 -0.930302 3.53745e-20)
(3.00629 -0.932274 -4.82535e-20)
(3.00621 -0.934132 -1.23343e-19)
(3.00592 -0.935877 6.2178e-25)
(3.00542 -0.9375 -6.44343e-25)
(3.00469 -0.938999 0)
(3.00373 -0.940374 -6.07888e-20)
(3.00251 -0.941614 -6.91789e-20)
(3.00102 -0.942714 7.79834e-20)
(2.99921 -0.943662 6.37967e-26)
(2.99707 -0.944449 -9.69669e-20)
(2.99456 -0.945065 0)
(2.99165 -0.945504 1.18031e-19)
(2.98831 -0.945753 -1.92788e-24)
(2.98451 -0.945803 0)
(2.98023 -0.945649 0)
(2.97544 -0.945282 8.38825e-20)
(2.97015 -0.944704 -9.10441e-20)
(2.96434 -0.943913 9.86493e-20)
(2.95801 -0.942907 1.0671e-19)
(2.95118 -0.941691 -1.1529e-19)
(2.94387 -0.940275 -1.2442e-19)
(2.93612 -0.938675 -6.70614e-20)
(2.92799 -0.936904 -7.2223e-20)
(2.9195 -0.934981 0)
(2.91068 -0.932917 0)
(2.90164 -0.930738 8.98262e-20)
(2.89259 -0.928498 -9.64717e-20)
(2.88375 -0.926278 0)
(2.87514 -0.924124 -1.1106e-19)
(2.86655 -0.922002 5.95254e-20)
(2.85781 -0.919843 6.37715e-20)
(2.84942 -0.917697 0)
(2.84266 -0.915891 7.30754e-20)
(2.8387 -0.914828 -9.4724e-24)
(2.83772 -0.9148 4.1711e-20)
(2.83696 -0.915307 -4.44828e-20)
(2.8344 -0.915663 -4.74073e-20)
(2.82829 -0.91517 1.22612e-23)
(2.82266 -0.914007 0)
(2.82771 -0.914937 -5.71601e-20)
(2.84735 -0.919428 6.06012e-20)
(2.88884 -0.93011 3.20227e-20)
(2.94493 -0.947675 -1.64531e-23)
(2.99214 -0.966402 7.07445e-20)
(3.01861 -0.982392 -3.71009e-20)
(3.5486 -0.971591 -1.20112e-18)
(3.55896 -0.979439 0)
(3.569 -0.987099 2.26799e-18)
(3.57865 -0.994559 -2.05459e-24)
(3.58794 -1.00183 1.06847e-18)
(3.59669 -1.00886 0)
(3.60492 -1.01567 -1.00412e-18)
(3.61282 -1.0223 -1.80933e-24)
(3.62042 -1.02877 1.88072e-18)
(3.62773 -1.03509 1.77788e-24)
(3.63477 -1.04126 0)
(3.64152 -1.04727 0)
(3.64793 -1.05313 1.62562e-18)
(3.654 -1.05881 7.80606e-19)
(3.65968 -1.06433 -9.01015e-26)
(3.665 -1.06967 -9.02724e-26)
(3.66995 -1.07485 3.41143e-19)
(3.67457 -1.07987 6.48764e-19)
(3.67888 -1.08474 -3.07379e-19)
(3.6829 -1.08946 5.80221e-19)
(3.68668 -1.09406 0)
(3.69024 -1.09853 0)
(3.69365 -1.10289 -2.36383e-19)
(3.69691 -1.10715 -7.84308e-25)
(3.70003 -1.11131 1.98683e-19)
(3.703 -1.11537 1.79944e-25)
(3.70581 -1.11932 0)
(3.70847 -1.12317 -1.38532e-19)
(3.71094 -1.12689 -9.44466e-26)
(3.71319 -1.13049 -4.77689e-20)
(3.71521 -1.13396 -3.6517e-20)
(3.71697 -1.13729 2.48953e-20)
(3.71847 -1.14048 0)
(3.71972 -1.14352 0)
(3.72071 -1.14642 -1.24685e-20)
(3.72146 -1.14919 0)
(3.72198 -1.15181 0)
(3.72226 -1.1543 0)
(3.7223 -1.15665 1.38648e-19)
(3.72211 -1.15886 -5.99156e-25)
(3.72167 -1.16093 0)
(3.72098 -1.16285 -5.93204e-20)
(3.72 -1.16462 -9.91754e-25)
(3.71873 -1.16623 0)
(3.71714 -1.16767 -8.76128e-20)
(3.71517 -1.16893 -1.95995e-19)
(3.7128 -1.16999 1.08922e-19)
(3.70999 -1.17085 1.20421e-19)
(3.70669 -1.17149 1.32551e-19)
(3.70288 -1.17189 7.26741e-20)
(3.6985 -1.17206 -4.84885e-24)
(3.69353 -1.17197 2.58843e-24)
(3.68793 -1.17162 -9.41574e-20)
(3.68171 -1.17101 1.02182e-19)
(3.67485 -1.17013 -3.43454e-24)
(3.66735 -1.16899 3.72266e-24)
(3.65921 -1.16759 1.29336e-19)
(3.65049 -1.16594 6.97687e-20)
(3.64123 -1.16406 7.52081e-20)
(3.63147 -1.16197 -8.83126e-26)
(3.62127 -1.15968 8.71328e-20)
(3.61065 -1.15722 -9.36753e-20)
(3.59975 -1.15462 -2.01308e-19)
(3.5888 -1.15193 1.08063e-19)
(3.57808 -1.14925 1.41575e-23)
(3.56761 -1.14664 6.21721e-20)
(3.55719 -1.14408 -6.6636e-20)
(3.54658 -1.14148 7.13696e-20)
(3.53637 -1.13888 7.63986e-20)
(3.52803 -1.13667 -1.63447e-19)
(3.52293 -1.13531 0)
(3.52134 -1.13517 1.14758e-23)
(3.5202 -1.13573 9.93634e-20)
(3.51713 -1.13619 0)
(3.51006 -1.13572 -1.38331e-23)
(3.50338 -1.13443 6.00114e-20)
(3.50865 -1.13539 6.37152e-20)
(3.53083 -1.14046 -3.37589e-20)
(3.57817 -1.15264 0)
(3.643 -1.173 0)
(3.69928 -1.19536 1.93684e-23)
(3.73257 -1.21506 4.12256e-20)
(4.26193 -1.16691 3.79032e-25)
(4.27505 -1.17652 0)
(4.28788 -1.18594 -1.27228e-18)
(4.30032 -1.19513 -2.40717e-24)
(4.31232 -1.20411 -3.907e-25)
(4.32366 -1.21279 -1.16213e-18)
(4.33433 -1.22119 -2.19837e-24)
(4.34455 -1.22936 1.0901e-18)
(4.35436 -1.23734 -1.05428e-18)
(4.36377 -1.24512 0)
(4.37282 -1.2527 0)
(4.38147 -1.26009 0)
(4.38968 -1.26727 -9.10902e-19)
(4.39744 -1.27425 -4.37362e-19)
(4.40473 -1.28102 -4.19144e-19)
(4.41156 -1.28758 0)
(4.41793 -1.29393 -3.82175e-19)
(4.42388 -1.30008 -3.63364e-19)
(4.42944 -1.30605 3.4429e-19)
(4.43462 -1.31184 -6.49838e-19)
(4.43948 -1.31747 0)
(4.44407 -1.32294 0)
(4.44846 -1.32827 0)
(4.45265 -1.33348 0)
(4.45665 -1.33857 0)
(4.46045 -1.34353 3.44861e-25)
(4.46405 -1.34835 0)
(4.46745 -1.35304 1.55052e-19)
(4.47062 -1.35759 4.48032e-25)
(4.47352 -1.36198 5.34552e-20)
(4.47613 -1.36621 4.08602e-20)
(4.47842 -1.37028 -2.78539e-20)
(4.4804 -1.37417 0)
(4.48207 -1.37789 -5.0565e-26)
(4.48345 -1.38144 1.39472e-20)
(4.48454 -1.38483 -1.66151e-25)
(4.48534 -1.38805 -4.44766e-20)
(4.48588 -1.39111 -5.18122e-25)
(4.48614 -1.394 -7.75129e-20)
(4.48614 -1.39674 -9.50876e-20)
(4.48586 -1.39931 9.21652e-25)
(4.48529 -1.40171 6.63072e-20)
(4.48442 -1.40393 -7.63436e-20)
(4.48321 -1.40597 -1.26854e-24)
(4.48164 -1.40782 1.55127e-24)
(4.47965 -1.40946 1.09477e-19)
(4.47719 -1.41086 0)
(4.47422 -1.41203 -1.3449e-19)
(4.47068 -1.41293 -1.4801e-19)
(4.46654 -1.41357 1.31896e-25)
(4.46172 -1.41391 -8.867e-20)
(4.45619 -1.41395 0)
(4.44993 -1.41368 1.05068e-19)
(4.44291 -1.4131 -3.41747e-24)
(4.43513 -1.41219 0)
(4.42658 -1.41097 -1.33526e-19)
(4.41727 -1.40944 -2.88391e-19)
(4.40725 -1.40761 -7.7774e-20)
(4.39656 -1.40549 1.3192e-25)
(4.38528 -1.40312 -5.58161e-24)
(4.37344 -1.40051 -1.94103e-19)
(4.3611 -1.39768 1.04316e-19)
(4.3484 -1.39468 1.12048e-19)
(4.33561 -1.39157 0)
(4.32304 -1.38845 -6.45095e-20)
(4.31074 -1.38542 -8.51542e-24)
(4.2985 -1.38243 7.409e-20)
(4.28606 -1.3794 -7.93033e-20)
(4.27405 -1.37637 -8.48781e-20)
(4.26407 -1.37375 1.81502e-19)
(4.25771 -1.37207 4.84434e-20)
(4.25533 -1.37177 -9.67195e-26)
(4.25369 -1.37236 1.34875e-23)
(4.25009 -1.37292 0)
(4.24218 -1.37254 0)
(4.23455 -1.37117 -1.32782e-19)
(4.23971 -1.3721 0)
(4.2637 -1.37759 -1.8268e-23)
(4.31558 -1.39091 1.9157e-23)
(4.38759 -1.41364 0)
(4.45213 -1.4394 -4.33348e-20)
(4.49244 -1.46289 2.21634e-23)
(5.00859 -1.37136 1.50413e-18)
(5.02469 -1.38284 -1.46134e-18)
(5.04067 -1.39416 -2.64959e-24)
(5.0563 -1.40525 5.2548e-24)
(5.07151 -1.4161 -2.67243e-18)
(5.0859 -1.42662 1.29543e-18)
(5.09948 -1.43678 0)
(5.11246 -1.44667 -2.42923e-18)
(5.1249 -1.45631 -1.17447e-18)
(5.13682 -1.4657 -8.65494e-24)
(5.14823 -1.47485 4.28679e-24)
(5.15912 -1.48375 3.90955e-24)
(5.16945 -1.4924 -3.98028e-24)
(5.17921 -1.5008 0)
(5.18839 -1.50894 4.66446e-19)
(5.197 -1.51683 0)
(5.20504 -1.52447 4.25178e-19)
(5.21256 -1.53187 -2.26015e-25)
(5.21958 -1.53904 -3.82919e-19)
(5.22613 -1.546 3.61323e-19)
(5.23227 -1.55275 0)
(5.23807 -1.55931 0)
(5.24359 -1.5657 2.12982e-24)
(5.24885 -1.57194 -2.18212e-24)
(5.25387 -1.57803 0)
(5.25863 -1.58396 2.22849e-19)
(5.26314 -1.58973 1.6259e-24)
(5.2674 -1.59533 -6.56533e-25)
(5.27136 -1.60076 -1.45884e-19)
(5.275 -1.606 0)
(5.27827 -1.61105 -9.43591e-25)
(5.28118 -1.61591 3.09287e-20)
(5.28372 -1.62056 0)
(5.2859 -1.62501 5.35465e-22)
(5.28772 -1.62926 -3.57232e-25)
(5.28922 -1.63332 3.68807e-25)
(5.29039 -1.63719 4.93552e-20)
(5.29127 -1.64087 -1.14976e-24)
(5.29184 -1.64437 1.18943e-24)
(5.29212 -1.64768 1.05475e-19)
(5.29211 -1.65081 -1.79568e-24)
(5.29179 -1.65375 -2.36919e-24)
(5.29115 -1.6565 8.46423e-20)
(5.29015 -1.65904 9.62815e-20)
(5.28875 -1.66136 3.4384e-24)
(5.2869 -1.66344 -7.40481e-24)
(5.28453 -1.66527 3.98476e-24)
(5.28159 -1.66682 0)
(5.278 -1.66807 -1.63891e-19)
(5.2737 -1.66901 -8.98216e-20)
(5.26864 -1.66961 9.81365e-20)
(5.26276 -1.66986 0)
(5.25603 -1.66975 -1.1623e-19)
(5.24842 -1.66927 1.53909e-23)
(5.23992 -1.66842 -1.6665e-23)
(5.23052 -1.66719 1.47595e-19)
(5.22023 -1.6656 1.59331e-19)
(5.2091 -1.66366 8.58974e-20)
(5.19719 -1.66138 -1.14434e-23)
(5.18456 -1.65879 1.99199e-19)
(5.17127 -1.65593 1.07078e-19)
(5.15738 -1.65281 2.80946e-23)
(5.14305 -1.64947 -1.49275e-23)
(5.12856 -1.64599 1.63403e-23)
(5.11428 -1.64249 7.10507e-20)
(5.10026 -1.63906 0)
(5.08631 -1.63569 0)
(5.07214 -1.63229 8.72704e-20)
(5.05842 -1.62886 -2.26117e-23)
(5.04684 -1.62585 2.46661e-23)
(5.03916 -1.62384 -5.32264e-20)
(5.03582 -1.62335 -1.13498e-19)
(5.03355 -1.62394 -6.04504e-20)
(5.02941 -1.62461 6.42469e-20)
(5.02081 -1.62438 3.31962e-23)
(5.01236 -1.62302 7.26425e-20)
(5.01711 -1.62386 0)
(5.04209 -1.62957 -4.0753e-20)
(5.09694 -1.64361 -1.64618e-25)
(5.17412 -1.66814 -4.42286e-26)
(5.24551 -1.69691 4.59857e-23)
(5.29254 -1.72409 0)
(5.78041 -1.58271 -6.22508e-24)
(5.79947 -1.5961 3.23535e-18)
(5.81876 -1.60939 5.86421e-24)
(5.8379 -1.6225 -1.16261e-23)
(5.8567 -1.63538 2.95525e-18)
(5.8746 -1.64787 0)
(5.89155 -1.65997 -1.38671e-18)
(5.90775 -1.67174 1.34173e-18)
(5.92326 -1.6832 1.29696e-18)
(5.93809 -1.69436 -1.25232e-18)
(5.95226 -1.70521 0)
(5.96575 -1.71575 -4.31332e-24)
(5.97851 -1.72599 2.47352e-25)
(5.99056 -1.73592 5.36791e-19)
(6.00191 -1.74555 -7.84598e-24)
(6.01256 -1.75488 7.49874e-24)
(6.02254 -1.76392 -9.36979e-19)
(6.03187 -1.77267 6.79376e-24)
(6.04058 -1.78114 8.4346e-19)
(6.04871 -1.78935 -2.91013e-24)
(6.05632 -1.79731 2.50981e-25)
(6.06349 -1.80504 3.48929e-19)
(6.07029 -1.81256 -3.23778e-19)
(6.07677 -1.8199 -2.98128e-19)
(6.08293 -1.82705 0)
(6.08877 -1.83402 -1.74223e-24)
(6.09429 -1.84079 2.56022e-25)
(6.09949 -1.84736 -1.89386e-19)
(6.10433 -1.85372 1.60373e-19)
(6.10877 -1.85986 0)
(6.11279 -1.86578 -6.21468e-25)
(6.11638 -1.87147 -3.39827e-20)
(6.11954 -1.87692 1.7569e-20)
(6.12228 -1.88214 -5.88167e-22)
(6.12463 -1.88714 1.70032e-20)
(6.1266 -1.89191 6.71302e-25)
(6.12822 -1.89647 2.67557e-25)
(6.12951 -1.90082 -9.93258e-25)
(6.13048 -1.90497 1.57546e-24)
(6.13115 -1.90891 -1.63062e-24)
(6.13152 -1.91266 -2.24268e-24)
(6.13158 -1.9162 2.32434e-24)
(6.13131 -1.91953 0)
(6.13067 -1.92263 -1.05549e-19)
(6.12962 -1.9255 0)
(6.12809 -1.92811 1.3291e-19)
(6.12601 -1.93043 0)
(6.12329 -1.93245 -5.12025e-24)
(6.11986 -1.93413 3.58819e-19)
(6.11566 -1.93546 0)
(6.11059 -1.9364 -6.69849e-24)
(6.1046 -1.93695 6.9911e-24)
(6.09765 -1.93709 1.27045e-19)
(6.08971 -1.93681 1.37774e-19)
(6.08076 -1.93611 9.25318e-24)
(6.07079 -1.93498 -1.61144e-19)
(6.0598 -1.93343 -2.12311e-23)
(6.04785 -1.93147 1.12858e-23)
(6.035 -1.92913 1.24795e-23)
(6.02131 -1.92643 -1.08574e-19)
(6.00686 -1.92341 -1.44077e-23)
(5.9917 -1.92009 1.25332e-19)
(5.976 -1.91651 -1.62471e-23)
(5.96009 -1.91275 0)
(5.94433 -1.90895 -7.72825e-20)
(5.92883 -1.90522 -8.27156e-20)
(5.91338 -1.90154 8.85544e-20)
(5.89771 -1.89783 -4.59193e-23)
(5.88248 -1.89409 2.45182e-23)
(5.86945 -1.89075 -2.16088e-19)
(5.86045 -1.88843 -5.76286e-20)
(5.85606 -1.88772 6.1392e-20)
(5.85306 -1.8883 6.53375e-20)
(5.84838 -1.88909 -1.38844e-19)
(5.83927 -1.88908 3.61877e-23)
(5.8302 -1.8878 -3.80243e-23)
(5.83431 -1.88854 0)
(5.85941 -1.89427 4.37414e-20)
(5.91552 -1.9086 4.59447e-20)
(5.99555 -1.93428 -4.8107e-20)
(6.07184 -1.96548 4.91732e-23)
(6.12472 -1.99607 -1.02883e-22)
(6.14555 -2.02166 -5.50429e-20)
(6.56731 -1.7982 -1.82591e-18)
(6.58887 -1.81338 -1.77298e-18)
(6.61129 -1.82863 1.72052e-18)
(6.63397 -1.84378 0)
(6.65658 -1.85876 -1.61714e-18)
(6.67831 -1.87335 1.56635e-18)
(6.69898 -1.8875 1.51598e-18)
(6.7188 -1.90128 -5.45673e-24)
(6.73779 -1.91469 5.53851e-24)
(6.75593 -1.92774 -2.94374e-24)
(6.77322 -1.94042 5.16137e-24)
(6.78963 -1.95273 1.26841e-18)
(6.80513 -1.96467 -4.78544e-24)
(6.81976 -1.97623 -1.16976e-18)
(6.83352 -1.98744 -8.54572e-24)
(6.84646 -1.9983 8.16446e-24)
(6.8586 -2.00881 5.09884e-19)
(6.86995 -2.01899 -4.84441e-19)
(6.88056 -2.02884 -4.58701e-19)
(6.89045 -2.03837 -4.32599e-19)
(6.89969 -2.04761 0)
(6.90837 -2.05657 -3.7917e-19)
(6.9166 -2.06529 3.51744e-19)
(6.92441 -2.07378 4.14269e-24)
(6.93182 -2.08204 0)
(6.93882 -2.09008 0)
(6.94543 -2.09789 0)
(6.95164 -2.10546 -1.42799e-24)
(6.95741 -2.11279 2.80036e-25)
(6.96271 -2.11987 1.22017e-24)
(6.96752 -2.12668 -5.40733e-20)
(6.97184 -2.13323 7.03585e-25)
(6.97566 -2.13952 -1.90443e-20)
(6.97902 -2.14554 0)
(6.98194 -2.15131 -3.68475e-20)
(6.98444 -2.15683 -7.27233e-25)
(6.98657 -2.16211 7.51015e-25)
(6.98834 -2.16717 0)
(6.9898 -2.172 1.02169e-19)
(6.99095 -2.17662 1.76485e-24)
(6.99182 -2.18103 0)
(6.99238 -2.18522 0)
(6.99262 -2.18919 -3.21237e-24)
(6.9925 -2.19292 -1.141e-19)
(6.99197 -2.1964 0)
(6.99095 -2.1996 -1.43584e-19)
(6.98934 -2.20249 -3.04707e-25)
(6.98707 -2.20505 -1.76062e-19)
(6.98404 -2.20724 -1.9358e-19)
(6.98016 -2.20904 1.06021e-19)
(6.97535 -2.21042 -6.90831e-24)
(6.96954 -2.21137 0)
(6.96266 -2.21186 -1.36847e-19)
(6.9547 -2.21188 -1.48315e-19)
(6.94562 -2.21143 0)
(6.93541 -2.21051 0)
(6.92408 -2.20912 0)
(6.91167 -2.20727 1.00705e-19)
(6.89824 -2.20499 -1.08371e-19)
(6.88388 -2.2023 0)
(6.86864 -2.19925 0)
(6.8526 -2.19586 -2.68549e-19)
(6.83594 -2.19216 -1.44006e-19)
(6.81898 -2.18826 -3.76788e-23)
(6.80212 -2.18428 8.26448e-20)
(6.78548 -2.18036 1.76816e-19)
(6.76888 -2.17649 -9.45246e-20)
(6.75206 -2.17259 -2.0201e-19)
(6.73565 -2.16864 5.26559e-23)
(6.72142 -2.16506 2.30095e-19)
(6.71125 -2.16248 6.12755e-20)
(6.70581 -2.16159 6.52748e-20)
(6.70205 -2.16215 -6.93577e-20)
(6.69687 -2.16309 1.47175e-19)
(6.68745 -2.16336 -3.83193e-23)
(6.67801 -2.16227 4.02153e-23)
(6.68136 -2.16292 0)
(6.70582 -2.16851 4.51541e-23)
(6.76152 -2.1827 -4.84557e-20)
(6.842 -2.20889 -3.82905e-25)
(6.92087 -2.24184 5.27659e-20)
(6.97815 -2.27537 -5.50687e-20)
(7.00386 -2.30451 -6.25123e-23)
(7.35784 -2.0147 1.84371e-23)
(7.38079 -2.03138 1.92026e-18)
(7.40561 -2.04837 -3.05216e-24)
(7.43144 -2.06547 0)
(7.45771 -2.08252 1.74851e-18)
(7.4833 -2.09921 -3.38467e-18)
(7.50788 -2.11546 -1.6367e-18)
(7.53158 -2.13132 1.23592e-23)
(7.55434 -2.14678 1.52677e-18)
(7.57609 -2.16181 1.4724e-18)
(7.5968 -2.17641 0)
(7.61641 -2.19056 -1.36444e-18)
(7.6349 -2.20426 0)
(7.65231 -2.21753 1.25683e-18)
(7.66869 -2.23037 8.88698e-24)
(7.6841 -2.24281 -9.05254e-24)
(7.69855 -2.25486 5.46974e-19)
(7.71209 -2.26651 5.19438e-19)
(7.72474 -2.27779 -5.81848e-25)
(7.73652 -2.28869 4.63425e-19)
(7.74752 -2.29925 4.34868e-19)
(7.75784 -2.30948 6.48544e-24)
(7.76757 -2.31941 0)
(7.77679 -2.32908 6.92711e-19)
(7.78551 -2.33848 3.15718e-19)
(7.79374 -2.34762 2.84426e-19)
(7.80149 -2.35649 3.5535e-24)
(7.80874 -2.36508 -2.19541e-19)
(7.81548 -2.37339 0)
(7.82167 -2.38141 7.55699e-20)
(7.8273 -2.38913 2.06227e-24)
(7.83237 -2.39656 0)
(7.8369 -2.40369 0)
(7.84091 -2.41052 -2.85252e-25)
(7.84444 -2.41708 1.96506e-20)
(7.84753 -2.42337 4.07197e-20)
(7.85022 -2.4294 -6.25714e-20)
(7.85255 -2.43519 0)
(7.85457 -2.44074 -1.08865e-19)
(7.85631 -2.44606 0)
(7.85777 -2.45116 0)
(7.85896 -2.45605 9.28621e-20)
(7.85984 -2.4607 -1.06802e-19)
(7.86039 -2.46511 1.21372e-19)
(7.86053 -2.46925 0)
(7.86018 -2.4731 0)
(7.85924 -2.47662 -1.69353e-19)
(7.85761 -2.47978 1.86946e-19)
(7.85519 -2.48256 1.2868e-23)
(7.85188 -2.48491 -1.12463e-19)
(7.84759 -2.48682 -1.53116e-23)
(7.84223 -2.48825 -1.33475e-19)
(7.83574 -2.48918 -3.53829e-23)
(7.82808 -2.48962 -6.80827e-25)
(7.81922 -2.48953 -6.87483e-25)
(7.80914 -2.48894 2.20161e-23)
(7.79786 -2.48783 -1.9743e-19)
(7.7854 -2.48622 -1.06284e-19)
(7.77184 -2.48414 1.14266e-19)
(7.75725 -2.48161 -1.22782e-19)
(7.7417 -2.47867 1.31777e-19)
(7.72526 -2.47535 -8.31561e-25)
(7.70811 -2.47171 1.51375e-19)
(7.69059 -2.46781 1.62154e-19)
(7.6731 -2.4638 -4.2735e-23)
(7.65578 -2.45983 -2.54903e-25)
(7.63849 -2.45592 4.79505e-23)
(7.62097 -2.45198 1.05726e-19)
(7.60383 -2.44797 -1.10073e-22)
(7.58878 -2.44428 -1.19995e-19)
(7.57772 -2.44155 -6.39922e-20)
(7.57137 -2.44052 3.49428e-25)
(7.56691 -2.4411 7.0815e-23)