/*--------------------------------*- C++ -*----------------------------------*\
| =========                 |                                                 |
| \\      /  F ield         | OpenFOAM: The Open Source CFD Toolbox           |
|  \\    /   O peration     | Version:  2412                                  |
|   \\  /    A nd           | Website:  www.openfoam.com                      |
|    \\/     M anipulation  |                                                 |
\*---------------------------------------------------------------------------*/
FoamFile
{
    version     2.0;
    format      ascii;
    arch        "LSB;label=32;scalar=64";
    class       volScalarField;
    location    "460";
    object      nut;
}
// * * * * * * * * * * * * * * * * * * * * * * * * * * * * * * * * * * * * * //

dimensions      [0 2 -1 0 0 0 0];

internalField   nonuniform List<scalar> 
7373
(
9.77852e-12
9.80677e-12
9.83557e-12
9.86427e-12
9.89283e-12
9.92165e-12
9.95059e-12
9.97891e-12
1.00072e-11
1.00365e-11
1.0066e-11
1.0095e-11
1.01232e-11
1.01514e-11
1.01797e-11
1.02076e-11
1.02342e-11
1.02594e-11
1.02839e-11
1.03078e-11
1.03291e-11
1.03474e-11
1.03639e-11
1.03776e-11
1.03873e-11
1.03925e-11
1.03927e-11
1.03875e-11
1.03755e-11
1.03555e-11
1.03274e-11
1.02892e-11
1.0239e-11
1.01764e-11
1.01e-11
1.00069e-11
9.89542e-12
9.76411e-12
9.61044e-12
9.43174e-12
9.22578e-12
8.99036e-12
8.72359e-12
8.42328e-12
8.08768e-12
7.71501e-12
7.3057e-12
6.8614e-12
6.38483e-12
5.88364e-12
5.36764e-12
4.85083e-12
4.34965e-12
3.87355e-12
3.42194e-12
2.97853e-12
2.50913e-12
1.97299e-12
1.34393e-12
6.66364e-13
1.50463e-13
3.25955e-15
8.19858e-14
1.78964e-12
1.30048e-11
5.39598e-11
1.73361e-10
3.87996e-10
9.39757e-10
9.42491e-10
9.45226e-10
9.47939e-10
9.50704e-10
9.53481e-10
9.56223e-10
9.58938e-10
9.61661e-10
9.64436e-10
9.67235e-10
9.70016e-10
9.72732e-10
9.75417e-10
9.78079e-10
9.80718e-10
9.83256e-10
9.85648e-10
9.87957e-10
9.90196e-10
9.922e-10
9.93924e-10
9.95457e-10
9.96699e-10
9.97558e-10
9.97994e-10
9.97927e-10
9.97337e-10
9.9608e-10
9.94031e-10
9.91206e-10
9.87418e-10
9.82484e-10
9.76325e-10
9.68811e-10
9.5971e-10
9.4884e-10
9.36032e-10
9.21054e-10
9.03661e-10
8.83658e-10
8.60817e-10
8.3494e-10
8.05818e-10
7.73295e-10
7.37233e-10
6.97652e-10
6.5471e-10
6.08675e-10
5.60289e-10
5.10486e-10
4.60593e-10
4.12175e-10
3.66148e-10
3.22452e-10
2.79561e-10
2.34328e-10
1.8307e-10
1.23646e-10
6.07016e-11
1.36612e-11
3.07454e-13
7.37415e-12
1.52551e-10
1.07081e-09
4.3437e-09
1.3562e-08
3.06858e-08
9.20789e-09
9.23462e-09
9.26111e-09
9.28751e-09
9.31438e-09
9.34148e-09
9.3682e-09
9.39471e-09
9.42115e-09
9.44789e-09
9.47509e-09
9.50204e-09
9.52829e-09
9.55415e-09
9.57975e-09
9.60526e-09
9.62967e-09
9.65257e-09
9.67462e-09
9.69576e-09
9.71459e-09
9.73078e-09
9.745e-09
9.75606e-09
9.76337e-09
9.76631e-09
9.76458e-09
9.75735e-09
9.74327e-09
9.72176e-09
9.69231e-09
9.65319e-09
9.60279e-09
9.54026e-09
9.4642e-09
9.37232e-09
9.26307e-09
9.13449e-09
8.98452e-09
8.8108e-09
8.61131e-09
8.38386e-09
8.12632e-09
7.83678e-09
7.51395e-09
7.15625e-09
6.76422e-09
6.33903e-09
5.88383e-09
5.40574e-09
4.91347e-09
4.42021e-09
3.94099e-09
3.48465e-09
3.05083e-09
2.6255e-09
2.18012e-09
1.68283e-09
1.11925e-09
5.40299e-10
1.21142e-10
2.90943e-12
6.46707e-11
1.23497e-09
8.24773e-09
3.23057e-08
9.66623e-08
2.23333e-07
4.54482e-08
4.55792e-08
4.5709e-08
4.58388e-08
4.597e-08
4.61026e-08
4.62335e-08
4.63633e-08
4.64926e-08
4.6623e-08
4.67556e-08
4.68861e-08
4.70136e-08
4.7139e-08
4.72632e-08
4.73863e-08
4.75036e-08
4.76136e-08
4.77191e-08
4.78189e-08
4.7907e-08
4.79825e-08
4.80474e-08
4.80961e-08
4.81251e-08
4.81324e-08
4.81163e-08
4.80723e-08
4.79939e-08
4.78786e-08
4.77218e-08
4.75165e-08
4.72553e-08
4.69334e-08
4.65422e-08
4.6073e-08
4.55157e-08
4.48631e-08
4.41026e-08
4.32245e-08
4.22174e-08
4.10711e-08
3.97753e-08
3.83212e-08
3.67004e-08
3.49083e-08
3.29455e-08
3.08185e-08
2.8544e-08
2.61552e-08
2.36957e-08
2.12303e-08
1.88306e-08
1.65407e-08
1.43608e-08
1.2229e-08
1.00209e-08
7.60711e-09
4.95663e-09
2.34205e-09
5.23227e-10
1.36732e-11
2.76166e-10
4.80403e-09
3.03218e-08
1.13975e-07
3.23537e-07
7.57134e-07
1.60222e-07
1.60681e-07
1.61134e-07
1.61587e-07
1.62045e-07
1.62508e-07
1.62964e-07
1.63416e-07
1.63865e-07
1.6432e-07
1.64779e-07
1.65229e-07
1.65669e-07
1.66101e-07
1.6653e-07
1.66953e-07
1.67352e-07
1.67726e-07
1.68083e-07
1.68416e-07
1.68708e-07
1.68955e-07
1.69161e-07
1.69308e-07
1.69383e-07
1.69379e-07
1.69292e-07
1.69102e-07
1.68789e-07
1.68342e-07
1.67743e-07
1.6697e-07
1.65998e-07
1.64806e-07
1.63365e-07
1.61642e-07
1.59609e-07
1.5723e-07
1.54468e-07
1.51284e-07
1.47642e-07
1.43504e-07
1.38835e-07
1.33601e-07
1.27778e-07
1.21348e-07
1.14312e-07
1.06695e-07
9.85563e-08
9.00104e-08
8.12112e-08
7.23832e-08
6.37727e-08
5.55395e-08
4.76981e-08
4.00699e-08
3.22895e-08
2.40144e-08
1.52728e-08
7.04586e-09
1.5696e-09
4.53161e-11
8.19278e-10
1.28663e-08
7.63242e-08
2.73667e-07
7.30442e-07
1.71587e-06
4.61471e-07
4.62777e-07
4.64066e-07
4.65353e-07
4.66656e-07
4.67969e-07
4.69262e-07
4.70541e-07
4.71813e-07
4.73098e-07
4.74392e-07
4.75655e-07
4.76887e-07
4.78098e-07
4.79298e-07
4.8047e-07
4.81571e-07
4.82601e-07
4.83572e-07
4.84473e-07
4.85247e-07
4.85888e-07
4.86406e-07
4.86745e-07
4.86866e-07
4.8676e-07
4.86401e-07
4.85734e-07
4.84703e-07
4.83277e-07
4.81403e-07
4.79011e-07
4.76036e-07
4.72409e-07
4.68051e-07
4.62869e-07
4.56774e-07
4.49666e-07
4.4144e-07
4.31982e-07
4.21187e-07
4.0895e-07
3.95168e-07
3.79744e-07
3.62614e-07
3.43724e-07
3.23082e-07
3.0076e-07
2.76929e-07
2.51909e-07
2.26144e-07
2.00274e-07
1.74992e-07
1.5079e-07
1.27777e-07
1.05589e-07
8.34202e-08
6.06072e-08
3.75362e-08
1.68881e-08
3.75563e-09
1.21367e-10
1.9396e-09
2.72724e-08
1.51113e-07
5.13573e-07
1.27761e-06
2.99589e-06
1.15883e-06
1.16205e-06
1.16523e-06
1.16841e-06
1.17162e-06
1.17484e-06
1.17802e-06
1.18116e-06
1.18428e-06
1.18742e-06
1.19057e-06
1.19364e-06
1.19663e-06
1.19956e-06
1.20244e-06
1.20525e-06
1.20786e-06
1.21029e-06
1.21256e-06
1.21463e-06
1.21636e-06
1.21776e-06
1.21882e-06
1.2194e-06
1.21942e-06
1.21885e-06
1.21761e-06
1.21557e-06
1.21259e-06
1.20859e-06
1.20342e-06
1.19691e-06
1.1889e-06
1.17921e-06
1.16765e-06
1.15397e-06
1.13794e-06
1.11933e-06
1.09786e-06
1.07326e-06
1.04526e-06
1.0136e-06
9.78018e-07
9.38299e-07
8.94269e-07
8.45812e-07
7.92945e-07
7.35855e-07
6.74975e-07
6.11089e-07
5.45316e-07
4.79242e-07
4.1461e-07
3.52775e-07
2.94262e-07
2.38603e-07
1.84384e-07
1.30613e-07
7.86748e-08
3.45072e-08
7.67123e-09
2.80912e-10
3.92364e-09
4.89395e-08
2.51423e-07
8.04355e-07
1.84959e-06
4.32149e-06
2.62847e-06
2.6356e-06
2.64263e-06
2.64966e-06
2.65674e-06
2.66383e-06
2.67081e-06
2.67768e-06
2.68451e-06
2.69139e-06
2.69824e-06
2.70489e-06
2.71133e-06
2.71762e-06
2.72379e-06
2.72972e-06
2.7352e-06
2.74022e-06
2.74486e-06
2.74897e-06
2.75229e-06
2.75481e-06
2.75649e-06
2.75702e-06
2.75622e-06
2.75402e-06
2.75022e-06
2.7445e-06
2.7366e-06
2.72627e-06
2.71318e-06
2.69697e-06
2.67723e-06
2.65357e-06
2.62552e-06
2.59257e-06
2.55417e-06
2.50978e-06
2.45882e-06
2.40064e-06
2.33468e-06
2.26035e-06
2.1771e-06
2.08445e-06
1.98206e-06
1.86967e-06
1.74737e-06
1.61559e-06
1.47533e-06
1.32835e-06
1.17718e-06
1.02541e-06
8.77062e-07
7.356e-07
6.02866e-07
4.7881e-07
3.61367e-07
2.49299e-07
1.45938e-07
6.23901e-08
1.389e-08
5.83626e-10
7.04787e-09
7.71235e-08
3.64164e-07
1.08831e-06
2.31436e-06
5.34631e-06
5.48974e-06
5.50403e-06
5.51813e-06
5.53223e-06
5.54638e-06
5.56049e-06
5.57434e-06
5.58795e-06
5.60146e-06
5.61499e-06
5.62838e-06
5.6413e-06
5.65373e-06
5.6658e-06
5.67752e-06
5.68862e-06
5.6987e-06
5.70774e-06
5.71586e-06
5.72275e-06
5.72786e-06
5.73119e-06
5.73258e-06
5.73138e-06
5.72726e-06
5.72003e-06
5.70924e-06
5.69423e-06
5.67443e-06
5.6493e-06
5.61817e-06
5.58023e-06
5.53466e-06
5.4806e-06
5.41709e-06
5.34305e-06
5.25738e-06
5.15899e-06
5.04665e-06
4.91913e-06
4.77529e-06
4.614e-06
4.43421e-06
4.23503e-06
4.01584e-06
3.77628e-06
3.51658e-06
3.23774e-06
2.94189e-06
2.63262e-06
2.31529e-06
1.99734e-06
1.68739e-06
1.39354e-06
1.12091e-06
8.71117e-07
6.41541e-07
4.30703e-07
2.44873e-07
1.0202e-07
2.28007e-08
1.11428e-09
1.15115e-08
1.09064e-07
4.68507e-07
1.29597e-06
2.55924e-06
5.77713e-06
1.06314e-05
1.06572e-05
1.06826e-05
1.0708e-05
1.07334e-05
1.07585e-05
1.07831e-05
1.08071e-05
1.08309e-05
1.08545e-05
1.08777e-05
1.08998e-05
1.09208e-05
1.09409e-05
1.09602e-05
1.09779e-05
1.09935e-05
1.10069e-05
1.10182e-05
1.10267e-05
1.10316e-05
1.10327e-05
1.10295e-05
1.1021e-05
1.10065e-05
1.09856e-05
1.09573e-05
1.09202e-05
1.08735e-05
1.08159e-05
1.07461e-05
1.06626e-05
1.05638e-05
1.04481e-05
1.03135e-05
1.01582e-05
9.97994e-06
9.77684e-06
9.54666e-06
9.28724e-06
8.99657e-06
8.6727e-06
8.31388e-06
7.91876e-06
7.48636e-06
7.01633e-06
6.5093e-06
5.96731e-06
5.39454e-06
4.79773e-06
4.18716e-06
3.57709e-06
2.98453e-06
2.42656e-06
1.91509e-06
1.45574e-06
1.04555e-06
6.8256e-07
3.76551e-07
1.52848e-07
3.44112e-08
1.9858e-09
1.73712e-08
1.40323e-07
5.41924e-07
1.37065e-06
2.52868e-06
5.47754e-06
1.42706e-05
1.90477e-05
1.9089e-05
1.91294e-05
1.91696e-05
1.92096e-05
1.92489e-05
1.92871e-05
1.93241e-05
1.93603e-05
1.93959e-05
1.94303e-05
1.94624e-05
1.94924e-05
1.95205e-05
1.95463e-05
1.9569e-05
1.95875e-05
1.96015e-05
1.96113e-05
1.96154e-05
1.96125e-05
1.96022e-05
1.95836e-05
1.95546e-05
1.95143e-05
1.94618e-05
1.93952e-05
1.93123e-05
1.92112e-05
1.909e-05
1.89461e-05
1.87769e-05
1.85798e-05
1.83517e-05
1.80894e-05
1.77897e-05
1.74491e-05
1.70642e-05
1.66315e-05
1.61476e-05
1.56094e-05
1.50139e-05
1.43584e-05
1.36412e-05
1.28609e-05
1.20174e-05
1.11119e-05
1.0148e-05
9.13298e-06
8.07819e-06
7.00146e-06
5.92775e-06
4.88785e-06
3.9144e-06
3.03175e-06
2.25357e-06
1.57738e-06
1.00017e-06
5.34683e-07
2.11408e-07
4.81869e-08
3.34054e-09
2.45077e-08
1.65917e-07
5.68341e-07
1.29175e-06
2.24441e-06
4.53312e-06
1.29533e-05
2.61324e-05
3.14812e-05
3.15389e-05
3.15953e-05
3.16509e-05
3.17058e-05
3.17591e-05
3.18102e-05
3.18591e-05
3.19063e-05
3.19518e-05
3.19945e-05
3.20332e-05
3.20679e-05
3.20986e-05
3.21249e-05
3.21452e-05
3.21579e-05
3.21626e-05
3.21593e-05
3.21458e-05
3.212e-05
3.20811e-05
3.20273e-05
3.19557e-05
3.18646e-05
3.17522e-05
3.16158e-05
3.14516e-05
3.12564e-05
3.10273e-05
3.07601e-05
3.04507e-05
3.00947e-05
2.96875e-05
2.92241e-05
2.86995e-05
2.81083e-05
2.74457e-05
2.67065e-05
2.58856e-05
2.49787e-05
2.39815e-05
2.28906e-05
2.17034e-05
2.04185e-05
1.90357e-05
1.75568e-05
1.59873e-05
1.43381e-05
1.26263e-05
1.08801e-05
9.13913e-06
7.4549e-06
5.88453e-06
4.47331e-06
3.2498e-06
2.21404e-06
1.36103e-06
7.03742e-07
2.71047e-07
6.30172e-08
5.35114e-09
3.26537e-08
1.81986e-07
5.44769e-07
1.09674e-06
1.79377e-06
3.24339e-06
1.00469e-05
2.23875e-05
5.74896e-05
4.81362e-05
4.82075e-05
4.82766e-05
4.83441e-05
4.84097e-05
4.84724e-05
4.85314e-05
4.85865e-05
4.86383e-05
4.86866e-05
4.87298e-05
4.87663e-05
4.8796e-05
4.88186e-05
4.88333e-05
4.88381e-05
4.88304e-05
4.88096e-05
4.87753e-05
4.87245e-05
4.86541e-05
4.85627e-05
4.84473e-05
4.83039e-05
4.81299e-05
4.79226e-05
4.76776e-05
4.73895e-05
4.70538e-05
4.66658e-05
4.62195e-05
4.57089e-05
4.51277e-05
4.44691e-05
4.3726e-05
4.28913e-05
4.19578e-05
4.09184e-05
3.97662e-05
3.84945e-05
3.70971e-05
3.55686e-05
3.39042e-05
3.21007e-05
3.01559e-05
2.80692e-05
2.58428e-05
2.34836e-05
2.10058e-05
1.84334e-05
1.58064e-05
1.31838e-05
1.06455e-05
8.28428e-06
6.17818e-06
4.38089e-06
2.89878e-06
1.72289e-06
8.59559e-07
3.22761e-07
7.73943e-08
8.22638e-09
4.15023e-08
1.87292e-07
4.82731e-07
8.54902e-07
1.29824e-06
1.9984e-06
6.42314e-06
1.64105e-05
5.4787e-05
6.86536e-05
6.87318e-05
6.88067e-05
6.88786e-05
6.89472e-05
6.90109e-05
6.90687e-05
6.91204e-05
6.91665e-05
6.92065e-05
6.92382e-05
6.92597e-05
6.92706e-05
6.92702e-05
6.92573e-05
6.92292e-05
6.91826e-05
6.91163e-05
6.90293e-05
6.89178e-05
6.87776e-05
6.86064e-05
6.83997e-05
6.81528e-05
6.78616e-05
6.75222e-05
6.71287e-05
6.66736e-05
6.61509e-05
6.55539e-05
6.48746e-05
6.41047e-05
6.32359e-05
6.2259e-05
6.11647e-05
5.99434e-05
5.85857e-05
5.70825e-05
5.54246e-05
5.36034e-05
5.16109e-05
4.94396e-05
4.70834e-05
4.45376e-05
4.17985e-05
3.88644e-05
3.57367e-05
3.24227e-05
2.89394e-05
2.53172e-05
2.16101e-05
1.79005e-05
1.43055e-05
1.09672e-05
8.01146e-06
5.53064e-06
3.54203e-06
2.02771e-06
9.73532e-07
3.57365e-07
8.98247e-08
1.22363e-08
5.0887e-08
1.838e-07
4.03166e-07
6.30052e-07
8.6919e-07
1.09132e-06
3.40925e-06
1.01016e-05
4.77066e-05
9.23317e-05
9.2408e-05
9.24797e-05
9.25465e-05
9.26077e-05
9.26617e-05
9.27071e-05
9.27437e-05
9.27715e-05
9.27896e-05
9.27956e-05
9.27872e-05
9.27635e-05
9.27231e-05
9.26644e-05
9.25842e-05
9.24782e-05
9.23446e-05
9.21818e-05
9.19848e-05
9.17486e-05
9.14695e-05
9.11419e-05
9.07596e-05
9.03176e-05
8.98103e-05
8.92301e-05
8.85675e-05
8.78146e-05
8.69631e-05
8.60026e-05
8.49226e-05
8.37123e-05
8.23605e-05
8.08551e-05
7.91844e-05
7.73365e-05
7.53e-05
7.30636e-05
7.06161e-05
6.79472e-05
6.50474e-05
6.19079e-05
5.85218e-05
5.48829e-05
5.09869e-05
4.68328e-05
4.24267e-05
3.77871e-05
3.29506e-05
2.79862e-05
2.30055e-05
1.81731e-05
1.36976e-05
9.77067e-06
6.53895e-06
4.03304e-06
2.21332e-06
1.02047e-06
3.68529e-07
9.93759e-08
1.77998e-08
6.10087e-08
1.76014e-07
3.27725e-07
4.60625e-07
5.67673e-07
6.76343e-07
1.70168e-06
5.25339e-06
3.68253e-05
0.000118445
0.00011851
0.000118569
0.000118619
0.000118662
0.000118695
0.000118715
0.000118724
0.00011872
0.000118701
0.000118666
0.000118612
0.000118536
0.000118437
0.000118313
0.000118161
0.000117973
0.000117749
0.000117486
0.000117178
0.000116819
0.000116403
0.000115923
0.000115373
0.000114747
0.000114036
0.000113231
0.000112321
0.000111297
0.000110148
0.000108861
0.000107424
0.000105824
0.000104046
0.000102078
9.99047e-05
9.75116e-05
9.48854e-05
9.2012e-05
8.8878e-05
8.54701e-05
8.17757e-05
7.77832e-05
7.34818e-05
6.88617e-05
6.3914e-05
5.86333e-05
5.30226e-05
4.71e-05
4.09076e-05
3.45322e-05
2.81211e-05
2.19016e-05
1.617e-05
1.1206e-05
7.22469e-06
4.26291e-06
2.23138e-06
9.88029e-07
3.55507e-07
1.06146e-07
2.58857e-08
7.27462e-08
1.6967e-07
2.72423e-07
3.63673e-07
4.45682e-07
5.20306e-07
1.02211e-06
2.60249e-06
2.41389e-05
0.000146478
0.000146521
0.000146555
0.000146579
0.000146591
0.000146589
0.000146572
0.000146538
0.000146486
0.000146415
0.000146322
0.000146203
0.000146056
0.000145878
0.000145667
0.000145419
0.000145126
0.000144786
0.000144394
0.000143946
0.000143432
0.000142847
0.000142181
0.000141428
0.000140578
0.000139623
0.000138553
0.000137353
0.000136012
0.000134518
0.000132856
0.000131013
0.000128972
0.000126717
0.000124233
0.000121503
0.000118511
0.000115241
0.000111675
0.000107799
0.000103595
9.90473e-05
9.41405e-05
8.88589e-05
8.31872e-05
7.71103e-05
7.06159e-05
6.37014e-05
5.63827e-05
4.87076e-05
4.0784e-05
3.28067e-05
2.5087e-05
1.80387e-05
1.20543e-05
7.42229e-06
4.15689e-06
2.0674e-06
8.83629e-07
3.23968e-07
1.11456e-07
4.02361e-08
8.88461e-08
1.71868e-07
2.62125e-07
3.55906e-07
4.39683e-07
5.08541e-07
8.46931e-07
1.49021e-06
1.28668e-05
0.000176194
0.000176203
0.000176201
0.000176184
0.000176151
0.0001761
0.000176028
0.000175934
0.000175817
0.000175674
0.000175502
0.000175296
0.000175055
0.000174773
0.000174449
0.000174076
0.000173648
0.00017316
0.000172607
0.000171983
0.000171277
0.000170482
0.000169589
0.000168588
0.000167469
0.000166223
0.000164836
0.000163293
0.000161581
0.000159686
0.000157592
0.000155282
0.00015274
0.000149947
0.000146885
0.000143536
0.000139881
0.000135903
0.000131583
0.0001269
0.000121837
0.000116371
0.000110484
0.000104153
9.73556e-05
9.00693e-05
8.22723e-05
7.39538e-05
6.5126e-05
5.58433e-05
4.62425e-05
3.65845e-05
2.72981e-05
1.89562e-05
1.2087e-05
7.03093e-06
3.70883e-06
1.75341e-06
7.33943e-07
2.84128e-07
1.17773e-07
6.49641e-08
1.21241e-07
2.05402e-07
3.03138e-07
4.15397e-07
5.15319e-07
5.93856e-07
8.90833e-07
1.12496e-06
5.58288e-06
0.000207588
0.000207549
0.000207494
0.00020742
0.000207324
0.000207205
0.000207058
0.000206884
0.000206678
0.000206438
0.000206161
0.000205841
0.000205475
0.000205059
0.000204587
0.000204055
0.000203454
0.000202778
0.000202022
0.000201177
0.000200232
0.000199179
0.000198005
0.000196702
0.000195257
0.000193659
0.000191893
0.000189942
0.000187792
0.000185427
0.000182829
0.000179979
0.000176861
0.000173452
0.000169735
0.000165689
0.000161294
0.000156529
0.000151374
0.000145806
0.000139803
0.000133339
0.000126388
0.000118922
0.000110911
0.00010232
9.3116e-05
8.32788e-05
7.28155e-05
6.17911e-05
5.03854e-05
3.89583e-05
2.81097e-05
1.86272e-05
1.11774e-05
6.06885e-06
3.00214e-06
1.36278e-06
5.75297e-07
2.47224e-07
1.30185e-07
1.06115e-07
1.77011e-07
2.74527e-07
3.93419e-07
5.34992e-07
6.59181e-07
7.5686e-07
1.0623e-06
1.13314e-06
2.72195e-06
0.000240798
0.000240691
0.000240563
0.00024041
0.000240228
0.000240016
0.000239769
0.000239485
0.000239161
0.000238793
0.000238377
0.000237908
0.000237381
0.000236789
0.000236128
0.000235392
0.000234571
0.000233657
0.000232644
0.000231523
0.000230281
0.000228907
0.000227389
0.000225716
0.000223874
0.000221851
0.000219629
0.000217192
0.000214521
0.000211601
0.000208412
0.000204934
0.000201148
0.000197032
0.000192565
0.000187725
0.000182491
0.000176842
0.000170753
0.0001642
0.000157155
0.000149589
0.00014147
0.000132762
0.000123423
0.000113408
0.000102668
9.11719e-05
7.89228e-05
6.60056e-05
5.2671e-05
3.94358e-05
2.7156e-05
1.68942e-05
9.38448e-06
4.70924e-06
2.19522e-06
9.83199e-07
4.39874e-07
2.23686e-07
1.64906e-07
1.71324e-07
2.64398e-07
3.85367e-07
5.35028e-07
7.10846e-07
8.61021e-07
9.83435e-07
1.321e-06
1.38575e-06
1.82554e-06
0.000276549
0.000276552
0.000276531
0.000276492
0.000276436
0.000276361
0.000276266
0.000276153
0.000276017
0.000275817
0.00027559
0.000275329
0.000275032
0.000274695
0.000274314
0.000273885
0.000273405
0.000272869
0.000272272
0.000271609
0.000270873
0.000270056
0.000269154
0.000268158
0.000267057
0.000265844
0.000264511
0.000263045
0.000261435
0.000259666
0.000257726
0.000255602
0.00025328
0.000250743
0.000247976
0.000244957
0.000241669
0.000238094
0.000234211
0.000229998
0.000225435
0.0002205
0.00021517
0.000209422
0.000203233
0.000196579
0.000189436
0.000181774
0.000173564
0.00016477
0.000155352
0.000145266
0.000134458
0.000122868
0.000110431
9.71013e-05
8.28854e-05
6.79087e-05
5.25462e-05
3.75759e-05
2.42329e-05
1.3863e-05
7.01891e-06
3.25254e-06
1.46165e-06
6.82004e-07
3.49078e-07
2.41393e-07
2.28339e-07
2.69148e-07
3.9145e-07
5.42839e-07
7.27152e-07
9.34937e-07
1.10663e-06
1.25632e-06
1.6337e-06
1.72757e-06
1.69033e-06
0.000314671
0.000314606
0.000314513
0.000314397
0.000314256
0.000314091
0.0003139
0.000313683
0.000313436
0.000313111
0.000312751
0.000312346
0.000311895
0.000311393
0.000310835
0.000310217
0.000309534
0.000308781
0.000307951
0.000307038
0.000306034
0.000304932
0.000303723
0.0003024
0.000300951
0.000299365
0.000297633
0.000295743
0.00029368
0.000291428
0.000288975
0.000286305
0.000283403
0.000280251
0.000276832
0.000273122
0.000269105
0.000264758
0.000260061
0.000254991
0.000249526
0.000243642
0.000237317
0.000230526
0.000223244
0.000215447
0.000207107
0.000198192
0.000188668
0.000178492
0.000167619
0.00015599
0.00014354
0.000130188
0.000115853
0.000100478
8.40847e-05
6.68853e-05
4.94869e-05
3.31067e-05
1.94809e-05
1.00306e-05
4.60472e-06
2.00856e-06
9.17355e-07
4.96667e-07
3.36665e-07
2.99757e-07
3.2827e-07
4.0738e-07
5.63375e-07
7.47006e-07
9.62747e-07
1.19302e-06
1.37708e-06
1.55564e-06
1.96548e-06
2.1008e-06
1.86067e-06
0.000355399
0.000355241
0.000355047
0.000354823
0.000354568
0.000354279
0.000353957
0.000353599
0.0003532
0.000352709
0.000352173
0.000351581
0.000350928
0.000350212
0.000349425
0.000348563
0.00034762
0.000346587
0.000345461
0.000344232
0.000342892
0.00034143
0.00033984
0.00033811
0.000336228
0.000334182
0.000331962
0.000329553
0.000326939
0.000324103
0.00032103
0.000317705
0.00031411
0.000310226
0.000306032
0.000301507
0.00029663
0.00029138
0.000285733
0.000279665
0.000273154
0.000266175
0.000258705
0.000250716
0.000242185
0.000233084
0.000223383
0.000213047
0.000202035
0.000190301
0.000177785
0.000164418
0.000150115
0.000134776
0.000118301
0.000100628
8.18328e-05
6.23169e-05
4.31296e-05
2.61813e-05
1.36213e-05
6.25259e-06
2.66157e-06
1.15692e-06
6.39196e-07
4.4479e-07
3.8556e-07
4.02655e-07
4.71732e-07
5.9059e-07
7.79747e-07
9.90964e-07
1.22814e-06
1.4666e-06
1.6519e-06
1.86298e-06
2.28374e-06
2.45537e-06
2.14178e-06
0.000398876
0.000398591
0.000398262
0.000397893
0.000397484
0.000397031
0.000396534
0.000395989
0.000395386
0.000394681
0.000393916
0.000393081
0.00039217
0.000391179
0.000390101
0.000388929
0.000387655
0.000386273
0.000384774
0.000383151
0.000381392
0.000379486
0.000377424
0.000375195
0.000372783
0.000370177
0.000367363
0.000364326
0.000361049
0.000357512
0.000353699
0.000349594
0.000345176
0.000340426
0.000335321
0.000329839
0.000323957
0.000317653
0.000310901
0.000303678
0.000295959
0.00028772
0.000278934
0.000269575
0.000259617
0.00024903
0.000237782
0.000225834
0.000213139
0.000199639
0.000185265
0.000169928
0.000153524
0.000135927
0.000117022
9.6772e-05
7.5402e-05
5.37291e-05
3.36143e-05
1.77839e-05
7.97439e-06
3.3631e-06
1.45155e-06
7.80098e-07
5.52546e-07
4.82642e-07
4.91315e-07
5.54406e-07
6.61848e-07
8.1758e-07
1.03301e-06
1.26106e-06
1.50538e-06
1.73734e-06
1.91322e-06
2.16572e-06
2.55958e-06
2.74664e-06
2.4296e-06
0.00044516
0.000444708
0.000444199
0.000443641
0.000443029
0.000442362
0.000441637
0.000440849
0.000439983
0.000439003
0.000437948
0.000436804
0.000435566
0.000434229
0.000432785
0.000431225
0.000429541
0.000427724
0.000425766
0.000423656
0.000421383
0.000418933
0.000416296
0.00041346
0.000410409
0.000407127
0.0004036
0.000399812
0.000395743
0.000391372
0.000386681
0.000381654
0.000376268
0.000370501
0.00036433
0.000357731
0.00035068
0.000343154
0.000335126
0.000326571
0.000317463
0.000307777
0.000297486
0.000286564
0.00027498
0.000262705
0.000249703
0.000235927
0.000221325
0.000205826
0.000189343
0.000171766
0.000152963
0.000132788
0.000111127
8.8057e-05
6.41903e-05
4.12326e-05
2.22211e-05
9.88465e-06
3.83464e-06
1.74586e-06
9.39566e-07
6.6241e-07
5.85102e-07
5.92901e-07
6.53034e-07
7.55135e-07
8.95209e-07
1.07992e-06
1.30895e-06
1.53958e-06
1.77628e-06
1.99122e-06
2.14862e-06
2.45899e-06
2.76608e-06
2.94338e-06
2.66467e-06
0.000494215
0.000493544
0.000492803
0.000492001
0.00049113
0.000490189
0.000489172
0.000488074
0.000486877
0.000485552
0.000484132
0.000482603
0.000480958
0.000479191
0.000477294
0.000475256
0.000473067
0.000470717
0.000468198
0.000465497
0.000462599
0.000459492
0.000456162
0.000452597
0.000448778
0.000444689
0.000440314
0.000435633
0.000430627
0.000425272
0.00041955
0.000413442
0.000406923
0.00039997
0.000392559
0.000384664
0.00037626
0.000367323
0.000357826
0.000347742
0.000337044
0.000325706
0.000313701
0.000301
0.000287572
0.000273385
0.000258396
0.000242554
0.000225792
0.000208026
0.000189143
0.000169007
0.000147455
0.000124333
9.96174e-05
7.37448e-05
4.82851e-05
2.64613e-05
1.17417e-05
4.45622e-06
1.93218e-06
1.09593e-06
7.83935e-07
6.95355e-07
7.05069e-07
7.66734e-07
8.66039e-07
9.97951e-07
1.16095e-06
1.36266e-06
1.58962e-06
1.80887e-06
2.02629e-06
2.21645e-06
2.35155e-06
2.64593e-06
2.87266e-06
3.03592e-06
2.82063e-06
0.000545891
0.000544941
0.000543908
0.000542795
0.000541598
0.000540311
0.000538929
0.000537444
0.000535835
0.000534082
0.000532212
0.000530208
0.000528063
0.000525771
0.00052332
0.0005207
0.000517897
0.000514902
0.000511705
0.000508291
0.000504644
0.000500749
0.000496592
0.000492158
0.000487428
0.000482384
0.000477005
0.000471274
0.000465166
0.000458659
0.00045173
0.000444361
0.000436524
0.000428196
0.000419349
0.000409958
0.000399998
0.000389441
0.00037826
0.000366429
0.00035392
0.000340704
0.000326754
0.000312039
0.000296525
0.000280177
0.000262946
0.000244769
0.000225563
0.00020522
0.000183597
0.000160522
0.000135816
0.000109403
8.16228e-05
5.39505e-05
2.98053e-05
1.32469e-05
4.97468e-06
2.13492e-06
1.21219e-06
9.09925e-07
8.18575e-07
8.29537e-07
8.94296e-07
9.9305e-07
1.11886e-06
1.26879e-06
1.44236e-06
1.64751e-06
1.85764e-06
2.05505e-06
2.24667e-06
2.40907e-06
2.52128e-06
2.76933e-06
2.90278e-06
3.05714e-06
2.92386e-06
0.000599911
0.000598612
0.000597213
0.000595715
0.000594111
0.000592396
0.000590563
0.0005886
0.000586488
0.000584213
0.000581792
0.00057921
0.000576459
0.000573529
0.00057041
0.000567087
0.000563547
0.000559779
0.00055577
0.000551505
0.000546966
0.000542136
0.000536999
0.000531539
0.000525734
0.000519565
0.000513009
0.000506047
0.000498654
0.000490803
0.000482472
0.00047364
0.000464279
0.000454363
0.000443864
0.000432756
0.000421011
0.000408603
0.000395503
0.000381685
0.000367119
0.000351778
0.000335631
0.000318644
0.000300781
0.000282
0.000262242
0.000241428
0.000219451
0.000196169
0.000171399
0.000144946
0.000116705
8.7009e-05
5.74028e-05
3.15514e-05
1.39289e-05
5.25417e-06
2.28058e-06
1.33099e-06
1.02858e-06
9.52561e-07
9.68635e-07
1.036e-06
1.13445e-06
1.255e-06
1.39386e-06
1.54904e-06
1.72072e-06
1.91724e-06
2.09994e-06
2.27003e-06
2.4343e-06
2.56954e-06
2.6607e-06
2.85005e-06
2.88884e-06
3.04678e-06
3.07807e-06
0.000655847
0.000654119
0.000652268
0.000650296
0.000648195
0.000645957
0.000643572
0.000641029
0.000638309
0.0006354
0.000632315
0.000629037
0.000625556
0.000621862
0.000617942
0.00061378
0.000609361
0.000604673
0.0005997
0.000594428
0.000588834
0.0005829
0.00057661
0.000569944
0.00056288
0.000555396
0.000547467
0.000539072
0.000530184
0.000520776
0.000510824
0.000500305
0.000489189
0.000477449
0.000465056
0.000451984
0.000438205
0.000423692
0.000408415
0.000392347
0.00037546
0.000357724
0.000339106
0.000319568
0.000299068
0.000277554
0.000254951
0.000231155
0.000206023
0.000179367
0.00015098
0.000120753
8.90759e-05
5.7789e-05
3.1087e-05
1.34939e-05
5.16725e-06
2.33794e-06
1.43599e-06
1.15538e-06
1.09339e-06
1.1209e-06
1.19151e-06
1.28859e-06
1.40337e-06
1.53156e-06
1.67088e-06
1.81999e-06
1.97975e-06
2.15938e-06
2.30951e-06
2.45136e-06
2.59029e-06
2.70087e-06
2.77419e-06
2.90637e-06
2.91036e-06
3.01662e-06
3.05665e-06
0.000713096
0.000710844
0.000708445
0.000705897
0.000703192
0.00070032
0.000697271
0.00069403
0.000690579
0.000686911
0.000683031
0.000678921
0.000674569
0.000669965
0.000665094
0.000659937
0.000654478
0.000648702
0.000642594
0.000636135
0.000629302
0.000622075
0.000614434
0.00060636
0.000597828
0.000588813
0.000579291
0.000569236
0.000558621
0.000547416
0.000535598
0.000523141
0.000510014
0.000496189
0.000481638
0.000466333
0.000450246
0.000433349
0.000415615
0.000397015
0.00037752
0.000357099
0.000335716
0.000313326
0.000289873
0.000265294
0.000239484
0.000212298
0.000183544
0.000153016
0.000120642
8.69979e-05
5.44551e-05
2.7964e-05
1.1838e-05
4.71119e-06
2.29777e-06
1.52383e-06
1.28762e-06
1.2458e-06
1.28345e-06
1.35807e-06
1.45275e-06
1.56058e-06
1.6777e-06
1.80197e-06
1.93198e-06
2.06702e-06
2.20877e-06
2.36767e-06
2.48485e-06
2.60066e-06
2.71811e-06
2.8071e-06
2.86483e-06
2.95229e-06
2.93017e-06
2.96333e-06
2.9775e-06
2.98107e-06
0.000770846
0.000767961
0.0007649
0.00076166
0.000758229
0.000754597
0.000750751
0.000746677
0.000742358
0.000737786
0.000732961
0.000727863
0.000722481
0.0007168
0.000710805
0.000704475
0.000697792
0.000690738
0.000683298
0.00067545
0.000667169
0.000658433
0.000649221
0.00063951
0.000629276
0.000618489
0.000607124
0.000595155
0.000582553
0.000569287
0.000555332
0.000540659
0.00052524
0.000509044
0.000492045
0.000474214
0.000455523
0.000435946
0.000415455
0.000394021
0.000371615
0.000348201
0.000323738
0.000298168
0.000271417
0.000243391
0.000213939
0.000182864
0.000149974
0.00011532
7.99328e-05
4.71762e-05
2.25758e-05
9.06976e-06
3.99791e-06
2.19039e-06
1.59894e-06
1.42525e-06
1.40795e-06
1.45521e-06
1.53161e-06
1.62271e-06
1.72241e-06
1.82789e-06
1.93747e-06
2.05004e-06
2.16485e-06
2.28178e-06
2.40331e-06
2.54127e-06
2.62817e-06
2.72165e-06
2.82203e-06
2.89229e-06
2.93639e-06
2.98987e-06
2.9761e-06
2.98217e-06
3.01441e-06
3.04511e-06
0.000828033
0.000824389
0.000820536
0.000816468
0.000812171
0.000807634
0.000802842
0.000797781
0.000792433
0.000786792
0.000780851
0.000774588
0.000767992
0.000761045
0.00075373
0.000746024
0.000737908
0.000729362
0.000720368
0.000710901
0.000700936
0.000690449
0.000679415
0.000667812
0.000655611
0.000642783
0.000629301
0.000615136
0.000600259
0.000584638
0.000568247
0.000551058
0.000533039
0.000514164
0.000494405
0.000473734
0.000452126
0.000429554
0.000405992
0.00038141
0.000355776
0.000329047
0.000301168
0.000272056
0.000241605
0.000209667
0.000176041
0.000140593
0.000103684
6.73082e-05
3.63386e-05
1.61663e-05
6.5782e-06
3.20143e-06
2.06693e-06
1.67442e-06
1.56929e-06
1.57724e-06
1.63227e-06
1.70802e-06
1.79354e-06
1.8841e-06
1.97759e-06
2.07294e-06
2.1694e-06
2.26647e-06
2.36385e-06
2.46193e-06
2.56383e-06
2.68285e-06
2.74349e-06
2.81877e-06
2.90616e-06
2.96014e-06
2.99244e-06
3.01653e-06
3.01798e-06
3.05726e-06
3.0913e-06
3.1235e-06
0.000887555
0.000883291
0.000878744
0.00087395
0.000868898
0.000863575
0.000857967
0.000852058
0.000845832
0.000839275
0.000832375
0.000825121
0.000817492
0.000809472
0.000801044
0.000792186
0.000782875
0.00077309
0.000762807
0.000752008
0.000740665
0.000728751
0.00071624
0.000703107
0.000689324
0.000674865
0.000659697
0.000643792
0.000627121
0.000609655
0.000591361
0.000572211
0.000552179
0.000531234
0.000509351
0.000486504
0.000462669
0.000437819
0.000411932
0.00038498
0.000356932
0.000327745
0.000297362
0.000265693
0.000232602
0.000197947
0.000161553
0.000123493
8.49437e-05
4.96967e-05
2.37959e-05
9.86709e-06
4.55892e-06
2.6296e-06
1.97514e-06
1.76401e-06
1.72103e-06
1.75021e-06
1.80978e-06
1.8823e-06
1.96042e-06
2.04098e-06
2.12252e-06
2.20437e-06
2.28614e-06
2.36754e-06
2.44838e-06
2.5287e-06
2.60927e-06
2.69365e-06
2.79668e-06
2.83531e-06
2.89634e-06
2.97438e-06
3.01375e-06
3.03599e-06
3.04955e-06
3.05776e-06
3.09957e-06
3.13143e-06
3.16288e-06
0.000940199
0.000934893
0.000929277
0.00092337
0.000917157
0.000910624
0.000903755
0.000896534
0.000888943
0.000880967
0.000872593
0.000863804
0.000854578
0.000844899
0.000834744
0.000824092
0.000812918
0.000801196
0.000788905
0.000776018
0.000762511
0.000748353
0.000733516
0.000717973
0.000701696