/*--------------------------------*- C++ -*----------------------------------*\
| =========                 |                                                 |
| \\      /  F ield         | OpenFOAM: The Open Source CFD Toolbox           |
|  \\    /   O peration     | Version:  2412                                  |
|   \\  /    A nd           | Website:  www.openfoam.com                      |
|    \\/     M anipulation  |                                                 |
\*---------------------------------------------------------------------------*/
FoamFile
{
    version     2.0;
    format      ascii;
    arch        "LSB;label=32;scalar=64";
    class       volScalarField;
    location    "420";
    object      nuTilda;
}
// * * * * * * * * * * * * * * * * * * * * * * * * * * * * * * * * * * * * * //

dimensions      [0 2 -1 0 0 0 0];

internalField   nonuniform List<scalar> 
8702
(
1.29111e-06
1.29239e-06
1.29361e-06
1.29476e-06
1.29584e-06
1.29692e-06
1.29799e-06
1.29904e-06
1.30008e-06
1.30114e-06
1.3022e-06
1.30322e-06
1.30419e-06
1.30512e-06
1.30598e-06
1.3068e-06
1.30754e-06
1.30824e-06
1.30893e-06
1.30954e-06
1.31012e-06
1.31068e-06
1.31119e-06
1.31168e-06
1.31216e-06
1.31261e-06
1.31302e-06
1.31341e-06
1.31377e-06
1.31407e-06
1.31433e-06
1.31455e-06
1.3147e-06
1.3148e-06
1.31485e-06
1.31481e-06
1.31474e-06
1.31462e-06
1.31443e-06
1.3142e-06
1.31389e-06
1.31351e-06
1.31306e-06
1.31253e-06
1.31195e-06
1.3113e-06
1.31058e-06
1.30976e-06
1.30887e-06
1.30789e-06
1.30682e-06
1.3057e-06
1.30451e-06
1.30324e-06
1.30191e-06
1.30053e-06
1.29907e-06
1.29756e-06
1.29601e-06
1.29446e-06
1.29287e-06
1.29126e-06
1.28966e-06
1.28811e-06
1.28665e-06
1.28524e-06
1.2839e-06
1.28259e-06
1.28133e-06
1.28038e-06
1.27997e-06
1.28013e-06
1.28037e-06
1.28029e-06
1.2796e-06
1.27894e-06
1.28e-06
1.28366e-06
1.29114e-06
1.30117e-06
1.30987e-06
1.31515e-06
4.00607e-06
4.01024e-06
4.01419e-06
4.01795e-06
4.02152e-06
4.02501e-06
4.02846e-06
4.03187e-06
4.03526e-06
4.03869e-06
4.04208e-06
4.04539e-06
4.04854e-06
4.05153e-06
4.05431e-06
4.05694e-06
4.05937e-06
4.06164e-06
4.06381e-06
4.06582e-06
4.06772e-06
4.06952e-06
4.07122e-06
4.07283e-06
4.07441e-06
4.07591e-06
4.07729e-06
4.07862e-06
4.07981e-06
4.08083e-06
4.08173e-06
4.08248e-06
4.08302e-06
4.08339e-06
4.08361e-06
4.0836e-06
4.08344e-06
4.08312e-06
4.0826e-06
4.08191e-06
4.081e-06
4.07988e-06
4.07851e-06
4.07692e-06
4.07515e-06
4.07312e-06
4.07085e-06
4.06831e-06
4.06554e-06
4.06253e-06
4.05925e-06
4.05574e-06
4.05199e-06
4.04803e-06
4.04386e-06
4.0395e-06
4.03493e-06
4.03021e-06
4.02538e-06
4.02048e-06
4.01552e-06
4.01047e-06
4.00547e-06
4.00062e-06
3.99601e-06
3.99161e-06
3.98742e-06
3.9833e-06
3.97941e-06
3.97645e-06
3.9751e-06
3.97544e-06
3.97609e-06
3.97593e-06
3.97403e-06
3.97215e-06
3.97531e-06
3.98619e-06
4.00831e-06
4.03808e-06
4.0643e-06
4.08072e-06
6.98612e-06
6.99392e-06
7.00132e-06
7.00837e-06
7.01508e-06
7.02159e-06
7.028e-06
7.03439e-06
7.04074e-06
7.0471e-06
7.0534e-06
7.05953e-06
7.0654e-06
7.07096e-06
7.07611e-06
7.08097e-06
7.08551e-06
7.08972e-06
7.0937e-06
7.09747e-06
7.10105e-06
7.10442e-06
7.10765e-06
7.11073e-06
7.11373e-06
7.11659e-06
7.1193e-06
7.12187e-06
7.1242e-06
7.12628e-06
7.12807e-06
7.12957e-06
7.13075e-06
7.1316e-06
7.13215e-06
7.13236e-06
7.13225e-06
7.13181e-06
7.13106e-06
7.13e-06
7.12853e-06
7.12666e-06
7.12438e-06
7.12171e-06
7.11866e-06
7.11516e-06
7.11122e-06
7.1068e-06
7.10195e-06
7.09668e-06
7.09096e-06
7.08479e-06
7.07819e-06
7.07122e-06
7.06389e-06
7.05616e-06
7.04809e-06
7.03979e-06
7.03129e-06
7.02264e-06
7.01388e-06
7.00502e-06
6.99622e-06
6.98767e-06
6.97955e-06
6.97185e-06
6.96451e-06
6.95735e-06
6.95067e-06
6.94551e-06
6.94295e-06
6.94317e-06
6.94416e-06
6.94408e-06
6.94137e-06
6.93867e-06
6.94381e-06
6.96129e-06
6.99658e-06
7.04433e-06
7.08762e-06
7.11609e-06
1.02087e-05
1.02212e-05
1.02331e-05
1.02443e-05
1.02551e-05
1.02655e-05
1.02757e-05
1.02859e-05
1.0296e-05
1.03061e-05
1.03161e-05
1.03258e-05
1.03351e-05
1.03439e-05
1.03521e-05
1.03598e-05
1.03669e-05
1.03736e-05
1.03799e-05
1.03859e-05
1.03916e-05
1.0397e-05
1.04023e-05
1.04073e-05
1.04122e-05
1.04169e-05
1.04214e-05
1.04257e-05
1.04297e-05
1.04333e-05
1.04364e-05
1.0439e-05
1.04412e-05
1.04429e-05
1.0444e-05
1.04447e-05
1.04449e-05
1.04446e-05
1.04439e-05
1.04426e-05
1.04407e-05
1.04382e-05
1.04351e-05
1.04313e-05
1.0427e-05
1.0422e-05
1.04163e-05
1.04099e-05
1.04028e-05
1.03951e-05
1.03867e-05
1.03776e-05
1.03679e-05
1.03576e-05
1.03467e-05
1.03352e-05
1.03233e-05
1.0311e-05
1.02983e-05
1.02855e-05
1.02725e-05
1.02594e-05
1.02464e-05
1.02337e-05
1.02217e-05
1.02103e-05
1.01995e-05
1.0189e-05
1.01794e-05
1.01718e-05
1.01676e-05
1.01673e-05
1.01684e-05
1.01685e-05
1.01656e-05
1.01627e-05
1.01696e-05
1.01925e-05
1.02381e-05
1.03e-05
1.03583e-05
1.0399e-05
1.36487e-05
1.36674e-05
1.36851e-05
1.37019e-05
1.37179e-05
1.37334e-05
1.37485e-05
1.37635e-05
1.37784e-05
1.37933e-05
1.38079e-05
1.38221e-05
1.38357e-05
1.38486e-05
1.38606e-05
1.38718e-05
1.38822e-05
1.38921e-05
1.39013e-05
1.39101e-05
1.39185e-05
1.39266e-05
1.39344e-05
1.3942e-05
1.39494e-05
1.39566e-05
1.39636e-05
1.39702e-05
1.39765e-05
1.39821e-05
1.39872e-05
1.39915e-05
1.39952e-05
1.39982e-05
1.40004e-05
1.4002e-05
1.40028e-05
1.4003e-05
1.40025e-05
1.40013e-05
1.39992e-05
1.39963e-05
1.39925e-05
1.39879e-05
1.39823e-05
1.39758e-05
1.39684e-05
1.39599e-05
1.39506e-05
1.39402e-05
1.39289e-05
1.39167e-05
1.39035e-05
1.38895e-05
1.38747e-05
1.38591e-05
1.38429e-05
1.38261e-05
1.38088e-05
1.37913e-05
1.37736e-05
1.37557e-05
1.3738e-05
1.37207e-05
1.37042e-05
1.36887e-05
1.3674e-05
1.366e-05
1.3647e-05
1.36366e-05
1.36304e-05
1.36289e-05
1.36296e-05
1.36298e-05
1.36272e-05
1.36251e-05
1.36335e-05
1.36602e-05
1.37122e-05
1.3783e-05
1.38524e-05
1.39043e-05
1.72775e-05
1.73041e-05
1.73294e-05
1.73533e-05
1.7376e-05
1.73979e-05
1.74192e-05
1.74403e-05
1.74612e-05
1.7482e-05
1.75024e-05
1.75222e-05
1.75412e-05
1.75591e-05
1.75758e-05
1.75914e-05
1.76059e-05
1.76195e-05
1.76325e-05
1.76448e-05
1.76565e-05
1.76679e-05
1.7679e-05
1.76898e-05
1.77005e-05
1.7711e-05
1.77213e-05
1.77311e-05
1.77404e-05
1.77489e-05
1.77566e-05
1.77633e-05
1.77691e-05
1.77739e-05
1.77778e-05
1.77808e-05
1.77828e-05
1.77839e-05
1.7784e-05
1.77832e-05
1.77813e-05
1.77783e-05
1.77742e-05
1.77688e-05
1.77622e-05
1.77544e-05
1.77452e-05
1.77348e-05
1.77231e-05
1.771e-05
1.76957e-05
1.76801e-05
1.76632e-05
1.76452e-05
1.76262e-05
1.76061e-05
1.7585e-05
1.75633e-05
1.75409e-05
1.75181e-05
1.74951e-05
1.74719e-05
1.74489e-05
1.74264e-05
1.74049e-05
1.73846e-05
1.73654e-05
1.73473e-05
1.73307e-05
1.7317e-05
1.7308e-05
1.73042e-05
1.73038e-05
1.73037e-05
1.7302e-05
1.73011e-05
1.73109e-05
1.73396e-05
1.73937e-05
1.7467e-05
1.75418e-05
1.7602e-05
2.10615e-05
2.10983e-05
2.11331e-05
2.1166e-05
2.11972e-05
2.12271e-05
2.12562e-05
2.12848e-05
2.13131e-05
2.13411e-05
2.13686e-05
2.13951e-05
2.14205e-05
2.14444e-05
2.14668e-05
2.14876e-05
2.1507e-05
2.15253e-05
2.15426e-05
2.15591e-05
2.1575e-05
2.15904e-05
2.16056e-05
2.16206e-05
2.16354e-05
2.165e-05
2.16644e-05
2.16783e-05
2.16916e-05
2.17038e-05
2.17149e-05
2.17248e-05
2.17334e-05
2.17407e-05
2.17469e-05
2.17518e-05
2.17555e-05
2.17581e-05
2.17594e-05
2.17595e-05
2.17582e-05
2.17555e-05
2.17514e-05
2.17457e-05
2.17383e-05
2.17294e-05
2.17187e-05
2.17064e-05
2.16924e-05
2.16767e-05
2.16593e-05
2.16402e-05
2.16195e-05
2.15972e-05
2.15736e-05
2.15486e-05
2.15223e-05
2.14951e-05
2.1467e-05
2.14384e-05
2.14095e-05
2.13803e-05
2.13513e-05
2.1323e-05
2.12956e-05
2.12697e-05
2.12453e-05
2.12225e-05
2.12015e-05
2.11839e-05
2.1171e-05
2.11639e-05
2.1161e-05
2.11599e-05
2.11587e-05
2.11596e-05
2.11705e-05
2.11994e-05
2.12512e-05
2.132e-05
2.13932e-05
2.14569e-05
2.49629e-05
2.50123e-05
2.5059e-05
2.51031e-05
2.51447e-05
2.51845e-05
2.5223e-05
2.52606e-05
2.52978e-05
2.53344e-05
2.53701e-05
2.54046e-05
2.54375e-05
2.54685e-05
2.54974e-05
2.55244e-05
2.55495e-05
2.55731e-05
2.55955e-05
2.56169e-05
2.56376e-05
2.56579e-05
2.56779e-05
2.56978e-05
2.57177e-05
2.57374e-05
2.57568e-05
2.57757e-05
2.57938e-05
2.58106e-05
2.58259e-05
2.58397e-05
2.58519e-05
2.58625e-05
2.58715e-05
2.5879e-05
2.58851e-05
2.58897e-05
2.58928e-05
2.58942e-05
2.58941e-05
2.58922e-05
2.58885e-05
2.58829e-05
2.58753e-05
2.58655e-05
2.58537e-05
2.58398e-05
2.58237e-05
2.58054e-05
2.5785e-05
2.57624e-05
2.57378e-05
2.57112e-05
2.56827e-05
2.56525e-05
2.56207e-05
2.55875e-05
2.55533e-05
2.55183e-05
2.54827e-05
2.54468e-05
2.54111e-05
2.5376e-05
2.5342e-05
2.53095e-05
2.52789e-05
2.52503e-05
2.52241e-05
2.52015e-05
2.51836e-05
2.51715e-05
2.51645e-05
2.51607e-05
2.51592e-05
2.51616e-05
2.51731e-05
2.52004e-05
2.5246e-05
2.53037e-05
2.53674e-05
2.54278e-05
2.89394e-05
2.90043e-05
2.90656e-05
2.91233e-05
2.91775e-05
2.92291e-05
2.92788e-05
2.93272e-05
2.93746e-05
2.94211e-05
2.94663e-05
2.95098e-05
2.95511e-05
2.95901e-05
2.96264e-05
2.96603e-05
2.96918e-05
2.97214e-05
2.97496e-05
2.97765e-05
2.98027e-05
2.98285e-05
2.98541e-05
2.98797e-05
2.99054e-05
2.9931e-05
2.99564e-05
2.99811e-05
3.00048e-05
3.00269e-05
3.00472e-05
3.00656e-05
3.0082e-05
3.00964e-05
3.01089e-05
3.01195e-05
3.01284e-05
3.01356e-05
3.01409e-05
3.01444e-05
3.01459e-05
3.01454e-05
3.01426e-05
3.01376e-05
3.01301e-05
3.01201e-05
3.01075e-05
3.00924e-05
3.00746e-05
3.00541e-05
3.00309e-05
3.00051e-05
2.99766e-05
2.99457e-05
2.99123e-05
2.98767e-05
2.98391e-05
2.97997e-05
2.97588e-05
2.97167e-05
2.96739e-05
2.96306e-05
2.95873e-05
2.95445e-05
2.95028e-05
2.94626e-05
2.94245e-05
2.93888e-05
2.93562e-05
2.93272e-05
2.93028e-05
2.92837e-05
2.92702e-05
2.92616e-05
2.9258e-05
2.92606e-05
2.92717e-05
2.92957e-05
2.93317e-05
2.93728e-05
2.94191e-05
2.9468e-05
3.29461e-05
3.30296e-05
3.31084e-05
3.31822e-05
3.32513e-05
3.33169e-05
3.33796e-05
3.34402e-05
3.34993e-05
3.35569e-05
3.36126e-05
3.3666e-05
3.37166e-05
3.37642e-05
3.38087e-05
3.385e-05
3.38885e-05
3.39247e-05
3.39591e-05
3.39921e-05
3.40243e-05
3.4056e-05
3.40878e-05
3.41198e-05
3.41519e-05
3.41841e-05
3.42159e-05
3.42471e-05
3.42769e-05
3.43049e-05
3.43306e-05
3.4354e-05
3.4375e-05
3.43936e-05
3.44099e-05
3.44241e-05
3.44361e-05
3.44462e-05
3.44542e-05
3.446e-05
3.44636e-05
3.44649e-05
3.44636e-05
3.44596e-05
3.44528e-05
3.44431e-05
3.44304e-05
3.44145e-05
3.43956e-05
3.43734e-05
3.43479e-05
3.43192e-05
3.42872e-05
3.42522e-05
3.42141e-05
3.41732e-05
3.41296e-05
3.40838e-05
3.40359e-05
3.39865e-05
3.39358e-05
3.38843e-05
3.38326e-05
3.37812e-05
3.37306e-05
3.36814e-05
3.36343e-05
3.35901e-05
3.35492e-05
3.35121e-05
3.34792e-05
3.34508e-05
3.34283e-05
3.34119e-05
3.34031e-05
3.34035e-05
3.34123e-05
3.34309e-05
3.34548e-05
3.34749e-05
3.34968e-05
3.35255e-05
3.35755e-05
3.69362e-05
3.70418e-05
3.71412e-05
3.7234e-05
3.73203e-05
3.74018e-05
3.74793e-05
3.75538e-05
3.76259e-05
3.76956e-05
3.77626e-05
3.78266e-05
3.7887e-05
3.79438e-05
3.79968e-05
3.80461e-05
3.8092e-05
3.81351e-05
3.8176e-05
3.82154e-05
3.82538e-05
3.82919e-05
3.83302e-05
3.83688e-05
3.84077e-05
3.84467e-05
3.84853e-05
3.8523e-05
3.8559e-05
3.85929e-05
3.8624e-05
3.86524e-05
3.86779e-05
3.87007e-05
3.87209e-05
3.87385e-05
3.87537e-05
3.87667e-05
3.87774e-05
3.87857e-05
3.87916e-05
3.87949e-05
3.87954e-05
3.87929e-05
3.87873e-05
3.87784e-05
3.87661e-05
3.87502e-05
3.87308e-05
3.87076e-05
3.86805e-05
3.86495e-05
3.86147e-05
3.8576e-05
3.85336e-05
3.84877e-05
3.84384e-05
3.83862e-05
3.83312e-05
3.82741e-05
3.82152e-05
3.8155e-05
3.80941e-05
3.80331e-05
3.79725e-05
3.79129e-05
3.78552e-05
3.78004e-05
3.77493e-05
3.77019e-05
3.76583e-05
3.76181e-05
3.75833e-05
3.75555e-05
3.75376e-05
3.7532e-05
3.75355e-05
3.7546e-05
3.75551e-05
3.75514e-05
3.75434e-05
3.75437e-05
3.75616e-05
4.08638e-05
4.09952e-05
4.11185e-05
4.1233e-05
4.13391e-05
4.14386e-05
4.15327e-05
4.16225e-05
4.17086e-05
4.17913e-05
4.18704e-05
4.19453e-05
4.2016e-05
4.20823e-05
4.21441e-05
4.22015e-05
4.22549e-05
4.23051e-05
4.23527e-05
4.23986e-05
4.24433e-05
4.24877e-05
4.25324e-05
4.25775e-05
4.2623e-05
4.26684e-05
4.27134e-05
4.27571e-05
4.27988e-05
4.28378e-05
4.28737e-05
4.29064e-05
4.29358e-05
4.29621e-05
4.29854e-05
4.30059e-05
4.30237e-05
4.30391e-05
4.3052e-05
4.30625e-05
4.30703e-05
4.30755e-05
4.30778e-05
4.3077e-05
4.30728e-05
4.30651e-05
4.30538e-05
4.30387e-05
4.30195e-05
4.29961e-05
4.29683e-05
4.29359e-05
4.2899e-05
4.28574e-05
4.28114e-05
4.2761e-05
4.27065e-05
4.26481e-05
4.25863e-05
4.25215e-05
4.24541e-05
4.23847e-05
4.2314e-05
4.22426e-05
4.21708e-05
4.20995e-05
4.20296e-05
4.19624e-05
4.18987e-05
4.18387e-05
4.17817e-05
4.17269e-05
4.16764e-05
4.1633e-05
4.16012e-05
4.15846e-05
4.15782e-05
4.15769e-05
4.15686e-05
4.15388e-05
4.14971e-05
4.1462e-05
4.14439e-05
4.46868e-05
4.48479e-05
4.49986e-05
4.5138e-05
4.52664e-05
4.53858e-05
4.54982e-05
4.56046e-05
4.5706e-05
4.58025e-05
4.5894e-05
4.59802e-05
4.60613e-05
4.61372e-05
4.62078e-05
4.62735e-05
4.63345e-05
4.63917e-05
4.64459e-05
4.64979e-05
4.65486e-05
4.65988e-05
4.66494e-05
4.67002e-05
4.67513e-05
4.68023e-05
4.68523e-05
4.69006e-05
4.69465e-05
4.69891e-05
4.70281e-05
4.70633e-05
4.7095e-05
4.71232e-05
4.71481e-05
4.717e-05
4.7189e-05
4.72054e-05
4.72192e-05
4.72306e-05
4.72395e-05
4.72457e-05
4.72491e-05
4.72496e-05
4.72468e-05
4.72405e-05
4.72306e-05
4.72167e-05
4.71985e-05
4.71757e-05
4.7148e-05
4.71152e-05
4.7077e-05
4.70336e-05
4.69847e-05
4.69307e-05
4.68717e-05
4.68078e-05
4.67395e-05
4.66672e-05
4.65914e-05
4.65127e-05
4.64318e-05
4.63492e-05
4.62655e-05
4.61812e-05
4.60975e-05
4.60159e-05
4.59374e-05
4.5862e-05
4.57889e-05
4.57164e-05
4.56467e-05
4.55835e-05
4.55325e-05
4.54987e-05
4.54766e-05
4.54584e-05
4.54291e-05
4.53713e-05
4.52936e-05
4.52179e-05
4.51593e-05
4.83714e-05
4.85666e-05
4.87488e-05
4.89162e-05
4.90695e-05
4.9211e-05
4.93432e-05
4.94677e-05
4.95854e-05
4.96964e-05
4.98007e-05
4.98985e-05
4.999e-05
5.00754e-05
5.0155e-05
5.02288e-05
5.02972e-05
5.03612e-05
5.04215e-05
5.04791e-05
5.0535e-05
5.059e-05
5.0645e-05
5.07001e-05
5.0755e-05
5.08092e-05
5.0862e-05
5.09123e-05
5.09595e-05
5.10029e-05
5.1042e-05
5.10771e-05
5.11081e-05
5.11353e-05
5.11591e-05
5.11796e-05
5.11972e-05
5.1212e-05
5.12243e-05
5.12343e-05
5.1242e-05
5.12474e-05
5.12504e-05
5.12509e-05
5.12488e-05
5.12436e-05
5.1235e-05
5.12225e-05
5.12057e-05
5.11841e-05
5.11573e-05
5.11247e-05
5.10863e-05
5.10418e-05
5.09911e-05
5.09342e-05
5.08715e-05
5.08029e-05
5.07287e-05
5.06494e-05
5.05654e-05
5.04774e-05
5.03861e-05
5.02921e-05
5.01957e-05
5.00975e-05
4.99987e-05
4.99008e-05
4.98052e-05
4.9712e-05
4.96198e-05
4.95269e-05
4.94345e-05
4.93471e-05
4.92714e-05
4.92138e-05
4.91691e-05
4.91278e-05
4.9073e-05
4.89849e-05
4.88697e-05
4.87503e-05
4.86459e-05
5.18978e-05
5.21322e-05
5.23505e-05
5.25497e-05
5.27308e-05
5.28964e-05
5.30502e-05
5.31943e-05
5.33294e-05
5.34558e-05
5.35735e-05
5.3683e-05
5.3785e-05
5.388e-05
5.39683e-05
5.40501e-05
5.41258e-05
5.4196e-05
5.42617e-05
5.43238e-05
5.43833e-05
5.44413e-05
5.44985e-05
5.45551e-05
5.46107e-05
5.46648e-05
5.47166e-05
5.4765e-05
5.48092e-05
5.48489e-05
5.48838e-05
5.4914e-05
5.49399e-05
5.49617e-05
5.49799e-05
5.49947e-05
5.50065e-05
5.50156e-05
5.50224e-05
5.5027e-05
5.50299e-05
5.50311e-05
5.50308e-05
5.50292e-05
5.50259e-05
5.50205e-05
5.50125e-05
5.50011e-05
5.49855e-05
5.49651e-05
5.49392e-05
5.49072e-05
5.48689e-05
5.48238e-05
5.47718e-05
5.47128e-05
5.4647e-05
5.45743e-05
5.44949e-05
5.44091e-05
5.43173e-05
5.42203e-05
5.41186e-05
5.40128e-05
5.39034e-05
5.37907e-05
5.36757e-05
5.35602e-05
5.34456e-05
5.33322e-05
5.32185e-05
5.31022e-05
5.29841e-05
5.28686e-05
5.2763e-05
5.26752e-05
5.26004e-05
5.25288e-05
5.2443e-05
5.23217e-05
5.2168e-05
5.20031e-05
5.18491e-05
5.52662e-05
5.55468e-05
5.58071e-05
5.60427e-05
5.62552e-05
5.64473e-05
5.66247e-05
5.67901e-05
5.69442e-05
5.70869e-05
5.72187e-05
5.73403e-05
5.74529e-05
5.75575e-05
5.76545e-05
5.77441e-05
5.78264e-05
5.79021e-05
5.79719e-05
5.80367e-05
5.80976e-05
5.81558e-05
5.82119e-05
5.82661e-05
5.8318e-05
5.8367e-05
5.84123e-05
5.8453e-05
5.84883e-05
5.85181e-05
5.85423e-05
5.85612e-05
5.85753e-05
5.85852e-05
5.85912e-05
5.85939e-05
5.85935e-05
5.85906e-05
5.85855e-05
5.85788e-05
5.85711e-05
5.85629e-05
5.85549e-05
5.85473e-05
5.85399e-05
5.8532e-05
5.85226e-05
5.85106e-05
5.8495e-05
5.84746e-05
5.84486e-05
5.84165e-05
5.83776e-05
5.83315e-05
5.82779e-05
5.82167e-05
5.81478e-05
5.80712e-05
5.79868e-05
5.78947e-05
5.77954e-05
5.76894e-05
5.75774e-05
5.746e-05
5.73372e-05
5.72096e-05
5.7078e-05
5.69439e-05
5.6809e-05
5.66735e-05
5.65362e-05
5.63943e-05
5.62481e-05
5.61013e-05
5.59616e-05
5.58376e-05
5.57256e-05
5.56166e-05
5.54935e-05
5.53353e-05
5.51419e-05
5.49314e-05
5.47256e-05
5.8504e-05
5.88407e-05
5.91512e-05
5.94297e-05
5.96786e-05
5.99006e-05
6.01042e-05
6.02933e-05
6.04682e-05
6.06289e-05
6.07756e-05
6.09099e-05
6.10334e-05
6.11477e-05
6.12534e-05
6.13504e-05
6.14387e-05
6.15185e-05
6.15905e-05
6.16555e-05
6.17146e-05
6.1769e-05
6.18194e-05
6.18658e-05
6.19079e-05
6.19451e-05
6.19768e-05
6.20021e-05
6.20205e-05
6.20319e-05
6.20368e-05
6.20357e-05
6.20292e-05
6.2018e-05
6.20027e-05
6.19841e-05
6.19625e-05
6.19385e-05
6.19126e-05
6.18859e-05
6.18593e-05
6.18343e-05
6.1812e-05
6.1793e-05
6.17769e-05
6.17624e-05
6.1748e-05
6.17321e-05
6.17131e-05
6.16897e-05
6.16608e-05
6.16256e-05
6.15836e-05
6.15342e-05
6.14771e-05
6.1412e-05
6.13388e-05
6.12572e-05
6.1167e-05
6.1068e-05
6.09607e-05
6.08454e-05
6.07229e-05
6.05934e-05
6.04573e-05
6.03147e-05
6.01662e-05
6.00132e-05
5.98572e-05
5.96988e-05
5.95365e-05
5.93678e-05
5.91918e-05
5.90119e-05
5.88352e-05
5.86707e-05
5.85157e-05
5.83627e-05
5.81964e-05
5.79972e-05
5.77629e-05
5.75075e-05
5.72501e-05
5.69941e-05
6.20797e-05
6.2453e-05
6.27841e-05
6.30774e-05
6.33345e-05
6.35687e-05
6.3785e-05
6.39839e-05
6.41649e-05
6.43282e-05
6.44759e-05
6.46107e-05
6.47348e-05
6.4849e-05
6.4953e-05
6.50462e-05
6.51284e-05
6.52e-05
6.52617e-05
6.53147e-05
6.53602e-05
6.53989e-05
6.54308e-05
6.54555e-05
6.54726e-05
6.54815e-05
6.54818e-05
6.54731e-05
6.54556e-05
6.54302e-05
6.53976e-05
6.53588e-05
6.53146e-05
6.52659e-05
6.52136e-05
6.51583e-05
6.51009e-05
6.50421e-05
6.49835e-05
6.49272e-05
6.48755e-05
6.48304e-05
6.47926e-05
6.47609e-05
6.47335e-05
6.47079e-05
6.4682e-05
6.46536e-05
6.46209e-05
6.4583e-05
6.4539e-05
6.44882e-05
6.44301e-05
6.43645e-05
6.4291e-05
6.42095e-05
6.41196e-05
6.40207e-05
6.39124e-05
6.37949e-05
6.36687e-05
6.35342e-05
6.33918e-05
6.32416e-05
6.30836e-05
6.29182e-05
6.27463e-05
6.25695e-05
6.23881e-05
6.2201e-05
6.20053e-05
6.17997e-05
6.15865e-05
6.1372e-05
6.11651e-05
6.09639e-05
6.07626e-05
6.05486e-05
6.03051e-05
6.00286e-05
5.97295e-05
5.9423e-05
5.91233e-05
5.88526e-05
5.86517e-05
6.53717e-05
6.58261e-05
6.62261e-05
6.65771e-05
6.68787e-05
6.71513e-05
6.74015e-05
6.763e-05
6.78355e-05
6.80183e-05
6.81812e-05
6.83282e-05
6.84624e-05
6.85849e-05
6.86951e-05
6.87918e-05
6.88742e-05
6.89421e-05
6.89962e-05
6.90377e-05
6.9068e-05
6.9088e-05
6.90974e-05
6.90959e-05
6.90829e-05
6.90584e-05
6.90221e-05
6.89741e-05
6.8915e-05
6.88458e-05
6.87678e-05
6.86822e-05
6.859e-05
6.84924e-05
6.83905e-05
6.82854e-05
6.81784e-05
6.8071e-05
6.79658e-05
6.78661e-05
6.77758e-05
6.76975e-05
6.76312e-05
6.75749e-05
6.75251e-05
6.74785e-05
6.74324e-05
6.7384e-05
6.73315e-05
6.72737e-05
6.72099e-05
6.71397e-05
6.70628e-05
6.6979e-05
6.68881e-05
6.679e-05
6.66842e-05
6.657e-05
6.64465e-05
6.63137e-05
6.6172e-05
6.60219e-05
6.58635e-05
6.5697e-05
6.55222e-05
6.53391e-05
6.51485e-05
6.49513e-05
6.47479e-05
6.45372e-05
6.43164e-05
6.40835e-05
6.38396e-05
6.35897e-05
6.33422e-05
6.30957e-05
6.28461e-05
6.25838e-05
6.22948e-05
6.19755e-05
6.1634e-05
6.12824e-05
6.09365e-05
6.06164e-05
6.03364e-05
6.8866e-05
6.94312e-05
6.99276e-05
7.03599e-05
7.07232e-05
7.10488e-05
7.13459e-05
7.16148e-05
7.18537e-05
7.20625e-05
7.22449e-05
7.24066e-05
7.25522e-05
7.26834e-05
7.27995e-05
7.28984e-05
7.29785e-05
7.3039e-05
7.30805e-05
7.31045e-05
7.31127e-05
7.31061e-05
7.30845e-05
7.3047e-05
7.29933e-05
7.29235e-05
7.28378e-05
7.27367e-05
7.26212e-05
7.24929e-05
7.23532e-05
7.22036e-05
7.20454e-05
7.18801e-05
7.17091e-05
7.15344e-05
7.13582e-05
7.11834e-05
7.10143e-05
7.08561e-05
7.07142e-05
7.05909e-05
7.04847e-05
7.03913e-05
7.03056e-05
7.02232e-05
7.0141e-05
7.00561e-05
6.99664e-05
6.98711e-05
6.97698e-05
6.96625e-05
6.95495e-05
6.94307e-05
6.93062e-05
6.91762e-05
6.90404e-05
6.88979e-05
6.87474e-05
6.85887e-05
6.8422e-05
6.82478e-05
6.80664e-05
6.78779e-05
6.76819e-05
6.74782e-05
6.72671e-05
6.70494e-05
6.68252e-05
6.65934e-05
6.63511e-05
6.60957e-05
6.5827e-05
6.55486e-05
6.52677e-05
6.49833e-05
6.4693e-05
6.43894e-05
6.40598e-05
6.36997e-05
6.33163e-05
6.2922e-05
6.2534e-05
6.21722e-05
6.18446e-05
7.27574e-05
7.34796e-05
7.41184e-05
7.46736e-05
7.51294e-05
7.55357e-05
7.59039e-05
7.62349e-05
7.65258e-05
7.67756e-05
7.69885e-05
7.71724e-05
7.73343e-05
7.74775e-05
7.7601e-05
7.77021e-05
7.77782e-05
7.78281e-05
7.78524e-05
7.78529e-05
7.7832e-05
7.77909e-05
7.77295e-05
7.76466e-05
7.75414e-05
7.74142e-05
7.72656e-05
7.70966e-05
7.6909e-05
7.67045e-05
7.64849e-05
7.6252e-05
7.60073e-05
7.57527e-05
7.54903e-05
7.52232e-05
7.49555e-05
7.46931e-05
7.44428e-05
7.4212e-05
7.4006e-05
7.38253e-05
7.36651e-05
7.35183e-05
7.33777e-05
7.3238e-05
7.30964e-05
7.29499e-05
7.27972e-05
7.26376e-05
7.24717e-05
7.23002e-05
7.21239e-05
7.19434e-05
7.17592e-05
7.15719e-05
7.13819e-05
7.11882e-05
7.09895e-05
7.07852e-05
7.05753e-05
7.03607e-05
7.01417e-05
6.99184e-05
6.96907e-05
6.94581e-05
6.92208e-05
6.8979e-05
6.87329e-05
6.84815e-05
6.82217e-05
6.79504e-05
6.76664e-05
6.73712e-05
6.70709e-05
6.67651e-05
6.64533e-05
6.61292e-05
6.57778e-05
6.5388e-05
6.49637e-05
6.4523e-05
6.40946e-05
6.37101e-05
6.33843e-05
7.73142e-05
7.82563e-05
7.91117e-05
7.98622e-05
8.04675e-05
8.10055e-05
8.14898e-05
8.19233e-05
8.23033e-05
8.26267e-05
8.28969e-05
8.31236e-05
8.3317e-05
8.3483e-05
8.36215e-05
8.37292e-05
8.38029e-05
8.3841e-05
8.38446e-05
8.38164e-05
8.37595e-05
8.36762e-05
8.35663e-05
8.34283e-05
8.32609e-05
8.30638e-05
8.2838e-05
8.25852e-05
8.23078e-05
8.20082e-05
8.16885e-05
8.13507e-05
8.09965e-05
8.06283e-05
8.02494e-05
7.9865e-05
7.94831e-05
7.91143e-05
7.87691e-05
7.84548e-05
7.81741e-05
7.79225e-05
7.76905e-05
7.74679e-05
7.7246e-05
7.70191e-05
7.6785e-05
7.65418e-05
7.62891e-05
7.60274e-05
7.57582e-05
7.54832e-05
7.5204e-05
7.49221e-05
7.46386e-05
7.4355e-05
7.40723e-05
7.37903e-05
7.35081e-05
7.32246e-05
7.29401e-05
7.26553e-05
7.23714e-05
7.20888e-05
7.18076e-05
7.15274e-05
7.12483e-05
7.09708e-05
7.0695e-05
7.04201e-05
7.01435e-05
6.98615e-05
6.95718e-05
6.92745e-05
6.89749e-05
6.86734e-05
6.83736e-05
6.80707e-05
6.77413e-05
6.73575e-05
6.69074e-05
6.64096e-05
6.59248e-05
6.55315e-05
6.52806e-05
6.51112e-05
6.50816e-05
6.48592e-05
8.30839e-05
8.4322e-05
8.55182e-05
8.66025e-05
8.74814e-05
8.82673e-05
8.89696e-05
8.95962e-05
9.01495e-05
9.06251e-05
9.10227e-05
9.13508e-05
9.16219e-05
9.18451e-05
9.20226e-05
9.21512e-05
9.22278e-05
9.22516e-05
9.22252e-05
9.21533e-05
9.20417e-05
9.18945e-05
9.17125e-05
9.14943e-05
9.12378e-05
9.0942e-05
9.06077e-05
9.02373e-05
8.98345e-05
8.9403e-05
8.89455e-05
8.8464e-05
8.79608e-05
8.74393e-05
8.69052e-05
8.63677e-05
8.58412e-05
8.53438e-05
8.48887e-05
8.44781e-05
8.41069e-05
8.37616e-05
8.34277e-05
8.30932e-05
8.27493e-05
8.23913e-05
8.20173e-05
8.16272e-05
8.12224e-05
8.08053e-05
8.03786e-05
7.99449e-05
7.95067e-05
7.90664e-05
7.86263e-05
7.81887e-05
7.77559e-05
7.73283e-05
7.69065e-05
7.64901e-05
7.6079e-05
7.56742e-05
7.5278e-05
7.4892e-05
7.45166e-05
7.4152e-05
7.37985e-05
7.34571e-05
7.31289e-05
7.28139e-05
7.25099e-05
7.22133e-05
7.19211e-05
7.16327e-05
7.13537e-05
7.10867e-05
7.0845e-05
7.06272e-05
7.03979e-05
7.0104e-05
6.96989e-05
6.91711e-05
6.86078e-05
6.81669e-05
6.80819e-05
6.83979e-05
6.91303e-05
7.00749e-05
9.80181e-05
9.93465e-05
0.000100539
0.000101592
0.000102523
0.00010335
0.000104078
0.000104703
0.000105228
0.000105664
0.000106021
0.000106304
0.000106514
0.000106646
0.000106701
0.000106685
0.000106605
0.000106469
0.000106285
0.000106055
0.000105778
0.000105451
0.000105071
0.000104639
0.000104158
0.000103633
0.000103068
0.000102468
0.000101834
0.000101169
0.000100473
9.97505e-05
9.90065e-05
9.82483e-05
9.74865e-05
9.67343e-05
9.59983e-05
9.52794e-05
9.45734e-05
9.38739e-05
9.31746e-05
9.24708e-05
9.17591e-05
9.10386e-05
9.03091e-05
8.95726e-05
8.88321e-05
8.80902e-05
8.73489e-05
8.66103e-05
8.58772e-05
8.51524e-05
8.44389e-05
8.37395e-05
8.30546e-05
8.2386e-05
8.17336e-05
8.10975e-05
8.04793e-05
7.98829e-05
7.93111e-05
7.87646e-05
7.82439e-05
7.77503e-05
7.7286e-05
7.68541e-05
7.64566e-05
7.60925e-05
7.57578e-05
7.54494e-05
7.51672e-05
7.49218e-05
7.47231e-05
7.46031e-05
7.45762e-05
7.46035e-05
7.4627e-05
7.46095e-05
7.45356e-05
7.44592e-05
7.45399e-05
7.49522e-05
7.57758e-05
7.7111e-05
7.87294e-05
0.000113766
0.000115749
0.000117543
0.000119115
0.000120485
0.000121697
0.000122781
0.000123746
0.000124587
0.000125301
0.000125897
0.000126383
0.000126758
0.000127021
0.000127174
0.000127226
0.00012719
0.000127078
0.000126901
0.000126663
0.000126363
0.000125999
0.000125565
0.000125062
0.000124493
0.000123864
0.000123182
0.000122453
0.000121679
0.000120862
0.000120002
0.000119101
0.000118164
0.000117194
0.0001162
0.000115191
0.000114174
0.000113154
0.00011213
0.0001111
0.000110062
0.000109016
0.000107961
0.000106897
0.000105824
0.000104745
0.000103661
0.000102577
0.000101496
0.00010042
9.93525e-05
9.82956e-05
9.72532e-05
9.6228e-05
9.52206e-05
9.42374e-05
9.32786e-05
9.2344e-05
9.14362e-05
9.05593e-05
8.97172e-05
8.89132e-05
8.8149e-05
8.74273e-05
8.6753e-05
8.61322e-05
8.557e-05
8.50662e-05
8.46153e-05
8.42133e-05
8.38607e-05
8.35767e-05
8.33841e-05
8.33105e-05
8.33945e-05
8.35905e-05
8.38311e-05
8.40772e-05
8.43058e-05
8.45572e-05
8.50075e-05
8.58103e-05
8.70474e-05
8.87819e-05
9.07137e-05
9.0257e-05
8.47712e-05
7.41643e-05
6.53903e-05
6.62725e-05
0.000133436
0.000136341
0.00013901
0.000141351
0.00014336
0.000145096
0.000146634
0.000148029
0.000149295
0.000150421
0.000151395
0.000152211
0.000152868
0.000153363
0.0001537
0.000153894
0.000153966
0.000153935
0.000153816
0.000153617
0.000153337
0.000152972
0.000152519
0.000151975
0.000151343
0.000150631
0.000149848
0.000149004
0.0001481
0.00014714
0.000146124
0.000145052
0.000143927
0.000142753
0.000141536
0.000140287
0.000139012
0.000137717
0.000136403
0.000135069
0.000133717
0.000132348
0.000130964
0.000129565
0.000128153
0.000126731
0.000125302
0.000123866
0.000122431
0.000120999
0.000119571
0.000118151
0.000116743
0.000115351
0.00011398
0.000112633
0.000111312
0.000110018
0.000108754
0.000107526
0.00010634
0.0001052
0.00010411
0.000103073
0.000102098
0.000101193
0.000100368
9.96215e-05
9.89482e-05
9.83431e-05
9.7808e-05
9.73708e-05
9.70646e-05
9.69068e-05
9.69478e-05
9.71297e-05
9.73801e-05
9.76611e-05
9.7958e-05
9.83376e-05
9.90372e-05
0.000100226
0.000101791
0.000103708
0.000105672
0.000105248
9.89835e-05
8.56094e-05
7.183e-05
6.86575e-05
0.000156753
0.000160873
0.000164731
0.000168173
0.000171107
0.000173547
0.000175626
0.000177481
0.000179207
0.000180834
0.000182326
0.000183631
0.00018472
0.00018558
0.000186215
0.000186646
0.000186906
0.000187025
0.000187025
0.000186918
0.000186705
0.000186383
0.000185948
0.000185395
0.000184728
0.000183956
0.00018309
0.000182143
0.000181122
0.000180028
0.000178862
0.000177623
0.000176314
0.000174935
0.000173495
0.000172004
0.000170472
0.000168905
0.000167305
0.000165672
0.000164009
0.000162317
0.000160601
0.000158861
0.000157101
0.000155326
0.000153537
0.000151736
0.000149926
0.000148114
0.000146301
0.000144491
0.000142687
0.000140895
0.000139121
0.000137369
0.000135642
0.000133942
0.000132271
0.000130637
0.000129047
0.000127506
0.000126019
0.00012459
0.00012323
0.000121951
0.000120764
0.000119669
0.00011866
0.000117732
0.000116888
0.000116164
0.000115598
0.000115199
0.000115006
0.000114966
0.000115011
0.000115096
0.000115195
0.000115347
0.000115696
0.000116375
0.000117424
0.000118836
0.000120289
0.000119661
0.000113336
9.89649e-05
8.0887e-05
7.24786e-05
0.000183408
0.000188937
0.000194322
0.000199197
0.00020352
0.000207074
0.000209938
0.0002123
0.000214281
0.000215949
0.00021736
0.000218559
0.000219561
0.000220359
0.000220944
0.000221326
0.00022154
0.00022162
0.000221587
0.000221448
0.000221202
0.000220841
0.000220356
0.00021974
0.000218993
0.000218124
0.000217146
0.000216076
0.00021492
0.000213682
0.000212361
0.000210955
0.000209463
0.000207885
0.00020623
0.000204507
0.000202731
0.000200907
0.000199039
0.000197125
0.000195168
0.000193172
0.000191141
0.000189077
0.000186984
0.000184867
0.000182729
0.000180573
0.000178398
0.000176211
0.000174018
0.00017182
0.000169623
0.000167431
0.000165251
0.000163088
0.000160945
0.000158824
0.000156731
0.000154673
0.000152657
0.000150688
0.000148772
0.000146914
0.000145126
0.00014342
0.000141809
0.000140293
0.000138868
0.00013753
0.000136282
0.000135162
0.000134208
0.00013344
0.000132857
0.000132431
0.0001321
0.000131825
0.000131579
0.0001314
0.000131378
0.000131644
0.000132244
0.000133157
0.000134081
0.000133206
0.000127116
0.000112862
9.22981e-05
7.81634e-05
0.000213536
0.000220243
0.000227624
0.00023378
0.000238591
0.000242303
0.000245221
0.000247585
0.000249529
0.000251113
0.000252418
0.000253527
0.000254473
0.000255242
0.000255807
0.000256164
0.000256345
0.000256398
0.000256347
0.000256195
0.000255935
0.000255554
0.000255039
0.000254381
0.000253576
0.000252631
0.000251562
0.000250386
0.000249116
0.000247755
0.000246301
0.00024475
0.000243097
0.000241342
0.000239489
0.000237553
0.000235547
0.000233481
0.000231358
0.000229178
0.000226942
0.000224656
0.000222323
0.000219947
0.000217531
0.00021508
0.0002126
0.000210094
0.000207562
0.000205005
0.000202433
0.000199848
0.000197254
0.000194658
0.000192065
0.00018948
0.000186909
0.000184353
0.000181819
0.000179315
0.000176847
0.000174422
0.000172044
0.00016972
0.00016746
0.000165279
0.000163188
0.000161191
0.000159282
0.00015746
0.00015573
0.000154128
0.000152693
0.000151452
0.000150385
0.000149477
0.000148676
0.00014795
0.000147289
0.0001467
0.00014627
0.000146106
0.000146239
0.000146631
0.000147007
0.00014584
0.000140049