/*--------------------------------*- C++ -*----------------------------------*\
| =========                 |                                                 |
| \\      /  F ield         | OpenFOAM: The Open Source CFD Toolbox           |
|  \\    /   O peration     | Version:  2412                                  |
|   \\  /    A nd           | Website:  www.openfoam.com                      |
|    \\/     M anipulation  |                                                 |
\*---------------------------------------------------------------------------*/
FoamFile
{
    version     2.0;
    format      ascii;
    arch        "LSB;label=32;scalar=64";
    class       surfaceScalarField;
    location    "420";
    object      phi;
}
// * * * * * * * * * * * * * * * * * * * * * * * * * * * * * * * * * * * * * //

dimensions      [0 3 -1 0 0 0 0];

oriented        oriented;

internalField   nonuniform List<scalar> 
14599
(
1.13755e-06
3.17855e-08
1.10588e-06
3.16766e-08
1.07441e-06
3.14684e-08
1.04302e-06
3.13884e-08
1.01183e-06
3.11867e-08
9.80919e-07
3.09157e-08
9.50314e-07
3.06053e-08
9.19996e-07
3.03188e-08
8.90003e-07
2.99932e-08
8.6033e-07
2.9673e-08
8.31055e-07
2.92752e-08
8.02173e-07
2.88745e-08
7.73667e-07
2.85134e-08
7.4571e-07
2.7945e-08
7.18297e-07
2.74265e-08
6.91437e-07
2.68336e-08
6.65117e-07
2.63467e-08
6.39414e-07
2.56684e-08
6.14353e-07
2.50982e-08
5.90015e-07
2.4339e-08
5.66335e-07
2.36804e-08
5.43402e-07
2.29328e-08
5.21225e-07
2.21782e-08
4.99788e-07
2.1437e-08
4.79152e-07
2.06365e-08
4.59295e-07
1.98559e-08
4.402e-07
1.90618e-08
4.21897e-07
1.83373e-08
4.04376e-07
1.75003e-08
3.87639e-07
1.67612e-08
3.71664e-07
1.59744e-08
3.56444e-07
1.52208e-08
3.41986e-07
1.44583e-08
3.28247e-07
1.37392e-08
3.15238e-07
1.30093e-08
3.02919e-07
1.2312e-08
2.91297e-07
1.16289e-08
2.80342e-07
1.09506e-08
2.70052e-07
1.02955e-08
2.60393e-07
9.65989e-09
2.51385e-07
9.00775e-09
2.4304e-07
8.34591e-09
2.35318e-07
7.72211e-09
2.28164e-07
7.15387e-09
2.21554e-07
6.61011e-09
2.15612e-07
5.9423e-09
2.1051e-07
5.10203e-09
2.06344e-07
4.16578e-09
2.02837e-07
3.5073e-09
1.99607e-07
3.22977e-09
1.96486e-07
3.12107e-09
1.93937e-07
2.54957e-09
1.93279e-07
6.58267e-10
1.95306e-07
-2.02703e-09
2.00513e-07
-5.20682e-09
2.07895e-07
-7.38211e-09
2.1473e-07
-6.83559e-09
2.20356e-07
-5.62525e-09
2.24419e-07
-4.0637e-09
2.27493e-07
-3.07334e-09
2.36137e-07
-8.64453e-09
2.5726e-07
-2.11222e-08
2.9576e-07
-3.85004e-08
3.59289e-07
-6.35292e-08
4.7462e-07
-1.1533e-07
6.15896e-07
-1.41276e-07
6.31135e-07
-1.52395e-08
4.44409e-07
1.86726e-07
1.55106e-07
2.89303e-07
-3.81928e-08
1.93299e-07
-1.00073e-07
6.18806e-08
1.42622e-07
4.04761e-06
1.448e-07
3.93545e-06
1.43838e-07
3.82368e-06
1.43235e-07
3.71241e-06
1.42659e-07
3.60192e-06
1.4168e-07
3.49224e-06
1.40598e-07
3.38363e-06
1.39218e-07
3.27617e-06
1.37773e-07
3.16983e-06
1.36341e-07
3.06466e-06
1.34843e-07
2.96067e-06
1.33265e-07
2.85802e-06
1.31507e-07
2.7572e-06
1.29345e-07
2.65804e-06
1.27095e-07
2.56078e-06
1.24707e-07
2.46546e-06
1.22107e-07
2.3721e-06
1.19748e-07
2.28101e-06
1.16714e-07
2.19214e-06
1.14016e-07
2.10576e-06
1.10726e-07
2.02176e-06
1.07677e-07
1.94039e-06
1.04301e-07
1.86167e-06
1.00904e-07
1.78566e-06
9.74436e-08
1.71239e-06
9.39129e-08
1.64184e-06
9.04059e-08
1.57409e-06
8.67646e-08
1.50915e-06
8.33225e-08
1.44694e-06
7.96859e-08
1.38754e-06
7.61949e-08
1.33084e-06
7.26748e-08
1.27682e-06
6.92343e-08
1.22544e-06
6.58432e-08
1.17669e-06
6.24846e-08
1.13044e-06
5.92677e-08
1.08673e-06
5.60087e-08
1.04544e-06
5.29244e-08
1.00655e-06
4.9836e-08
9.6994e-07
4.69162e-08
9.35653e-07
4.39473e-08
9.03633e-07
4.10281e-08
8.73931e-07
3.80486e-08
8.46477e-07
3.51761e-08
8.21011e-07
3.26211e-08
7.97515e-07
3.01064e-08
7.76309e-07
2.71485e-08
7.58097e-07
2.33144e-08
7.43128e-07
1.91348e-08
7.30496e-07
1.61389e-08
7.18892e-07
1.48343e-08
7.07685e-07
1.43284e-08
6.98517e-07
1.17177e-08
6.95844e-07
3.33112e-09
7.02456e-07
-8.6388e-09
7.20059e-07
-2.28101e-08
7.45145e-07
-3.24681e-08
7.68575e-07
-3.02655e-08
7.87929e-07
-2.49787e-08
8.01862e-07
-1.79967e-08
8.12584e-07
-1.37952e-08
8.42266e-07
-3.83267e-08
9.14371e-07
-9.32269e-08
1.04601e-06
-1.70141e-07
1.26273e-06
-2.80251e-07
1.6539e-06
-5.06493e-07
2.12846e-06
-6.15836e-07
2.19109e-06
-7.78746e-08
1.57436e-06
8.03456e-07
5.85669e-07
1.278e-06
-9.67137e-08
8.75682e-07
-3.44291e-07
3.09458e-07
6.33298e-07
8.14004e-06
3.71211e-07
7.91469e-06
3.69189e-07
7.69064e-06
3.67283e-07
7.46747e-06
3.65828e-07
7.24554e-06
3.63614e-07
7.0259e-06
3.60241e-07
6.80825e-06
3.5687e-07
6.59257e-06
3.53448e-07
6.37932e-06
3.49594e-07
6.16834e-06
3.45822e-07
5.95992e-06
3.41686e-07
5.75437e-06
3.37043e-07
5.55183e-06
3.31896e-07
5.35299e-06
3.25917e-07
5.15792e-06
3.19805e-07
4.96672e-06
3.13262e-07
4.77969e-06
3.06818e-07
4.59684e-06
2.99518e-07
4.41878e-06
2.92129e-07
4.24517e-06
2.84334e-07
4.07689e-06
2.75957e-07
3.91365e-06
2.67547e-07
3.75574e-06
2.58815e-07
3.60321e-06
2.49977e-07
3.45616e-06
2.40955e-07
3.31466e-06
2.31905e-07
3.17878e-06
2.22596e-07
3.04836e-06
2.13791e-07
2.92358e-06
2.04442e-07
2.80426e-06
1.95551e-07
2.69046e-06
1.86469e-07
2.58203e-06
1.77669e-07
2.47895e-06
1.68927e-07
2.38103e-06
1.60405e-07
2.28825e-06
1.52045e-07
2.20044e-06
1.43808e-07
2.11755e-06
1.35826e-07
2.03943e-06
1.27953e-07
1.96598e-06
1.20366e-07
1.89707e-06
1.12867e-07
1.83273e-06
1.05367e-07
1.77308e-06
9.7692e-08
1.71787e-06
9.03942e-08
1.66668e-06
8.38062e-08
1.61937e-06
7.7418e-08
1.57675e-06
6.97725e-08
1.53993e-06
6.01276e-08
1.50958e-06
4.94862e-08
1.48384e-06
4.1883e-08
1.46032e-06
3.83497e-08
1.43762e-06
3.70314e-08
1.41904e-06
3.02993e-08
1.41306e-06
9.31273e-09
1.42523e-06
-2.0815e-08
1.4589e-06
-5.6479e-08
1.50718e-06
-8.07476e-08
1.55266e-06
-7.57423e-08
1.59028e-06
-6.26007e-08
1.61738e-06
-4.50951e-08
1.63856e-06
-3.49778e-08
1.69596e-06
-9.57276e-08
1.83546e-06
-2.32722e-07
2.09003e-06
-4.24714e-07
2.50838e-06
-6.98602e-07
3.25851e-06
-1.25662e-06
4.16668e-06
-1.52401e-06
4.30856e-06
-2.19756e-07
3.15179e-06
1.96023e-06
1.23768e-06
3.1921e-06
-1.27347e-07
2.24071e-06
-6.66018e-07
8.48129e-07
1.59119e-06
1.38022e-05
7.54293e-07
1.34212e-05
7.50122e-07
1.30422e-05
7.46282e-07
1.26651e-05
7.42946e-07
1.22902e-05
7.38582e-07
1.19183e-05
7.32113e-07
1.15504e-05
7.24725e-07
1.11862e-05
7.17724e-07
1.08255e-05
7.10228e-07
1.04686e-05
7.02713e-07
1.01162e-05
6.94135e-07
9.76869e-06
6.84536e-07
9.42653e-06
6.74069e-07
9.09032e-06
6.62108e-07
8.76034e-06
6.49804e-07
8.43705e-06
6.36516e-07
8.1208e-06
6.23104e-07
7.81173e-06
6.08542e-07
7.51033e-06
5.93584e-07
7.21719e-06
5.77471e-07
6.93232e-06
5.60826e-07
6.65618e-06
5.43687e-07
6.38896e-06
5.26035e-07
6.13105e-06
5.07887e-07
5.88225e-06
4.8976e-07
5.64297e-06
4.71182e-07
5.41294e-06
4.52579e-07
5.19241e-06
4.34369e-07
4.98129e-06
4.15536e-07
4.77945e-06
3.9743e-07
4.58685e-06
3.79067e-07
4.40336e-06
3.61162e-07
4.22887e-06
3.43416e-07
4.06313e-06
3.26145e-07
3.90612e-06
3.09052e-07
3.75742e-06
2.92498e-07
3.61712e-06
2.76139e-07
3.48486e-06
2.60203e-07
3.36047e-06
2.44764e-07
3.24382e-06
2.29523e-07
3.13487e-06
2.14312e-07
3.03376e-06
1.98803e-07
2.94015e-06
1.84008e-07
2.85341e-06
1.70544e-07
2.77319e-06
1.57641e-07
2.70074e-06
1.42227e-07
2.63814e-06
1.2272e-07
2.58619e-06
1.01443e-07
2.54212e-06
8.59477e-08
2.50177e-06
7.87027e-08
2.46305e-06
7.57462e-08
2.43113e-06
6.22239e-08
2.41989e-06
2.05512e-08
2.43849e-06
-3.94147e-08
2.49235e-06
-1.1034e-07
2.57044e-06
-1.58837e-07
2.64442e-06
-1.49725e-07
2.70585e-06
-1.24026e-07
2.7502e-06
-8.94408e-08
2.78529e-06
-7.00751e-08
2.87873e-06
-1.89164e-07
3.10488e-06
-4.58874e-07
3.51805e-06
-8.37882e-07
4.19546e-06
-1.37601e-06
5.39986e-06
-2.46103e-06
6.8611e-06
-2.98524e-06
7.1303e-06
-4.88953e-07
5.31544e-06
3.77509e-06
2.20622e-06
6.30132e-06
-9.74759e-08
4.54441e-06
-1.077e-06
1.82765e-06
3.15929e-06
2.15387e-05
1.3505e-06
2.0947e-05
1.34188e-06
2.03573e-05
1.33597e-06
1.97708e-05
1.3295e-06
1.91876e-05
1.32169e-06
1.86096e-05
1.31017e-06
1.80369e-05
1.29737e-06
1.74702e-05
1.28443e-06
1.6909e-05
1.27149e-06
1.63545e-05
1.25717e-06
1.58064e-05
1.24228e-06
1.52655e-05
1.22539e-06
1.47333e-05
1.20633e-06
1.421e-05
1.18536e-06
1.36968e-05
1.16301e-06
1.31939e-05
1.13936e-06
1.27015e-05
1.11553e-06
1.22208e-05
1.0892e-06
1.17518e-05
1.06267e-06
1.12957e-05
1.0336e-06
1.08524e-05
1.00408e-06
1.04227e-05
9.73456e-07
1.00068e-05
9.41842e-07
9.60516e-06
9.09575e-07
9.21789e-06
8.77026e-07
8.8453e-06
8.43778e-07
8.48712e-06
8.10707e-07
8.1438e-06
7.7774e-07
7.81481e-06
7.44498e-07
7.50048e-06
7.1179e-07
7.20051e-06
6.79041e-07
6.91482e-06
6.4685e-07
6.64304e-06
6.15192e-07
6.38487e-06
5.84316e-07
6.14006e-06
5.53866e-07
5.90859e-06
5.23965e-07
5.68995e-06
4.94782e-07
5.48396e-06
4.66189e-07
5.29011e-06
4.3862e-07
5.10821e-06
4.11428e-07
4.93842e-06
3.84101e-07
4.78071e-06
3.56516e-07
4.63473e-06
3.29989e-07
4.49926e-06
3.06016e-07
4.37409e-06
2.8281e-07
4.26099e-06
2.5533e-07
4.16281e-06
2.20897e-07
4.08101e-06
1.83246e-07
4.01136e-06
1.55596e-07
3.9477e-06
1.42362e-07
3.88683e-06
1.36612e-07
3.83636e-06
1.12698e-07
3.81699e-06
3.99258e-08
3.84248e-06
-6.49095e-08
3.92097e-06
-1.8883e-07
4.03634e-06
-2.74205e-07
4.14652e-06
-2.59909e-07
4.23831e-06
-2.15809e-07
4.305e-06
-1.56136e-07
4.35801e-06
-1.23085e-07
4.49706e-06
-3.2821e-07
4.83285e-06
-7.9467e-07
5.44569e-06
-1.45072e-06
6.44874e-06
-2.37906e-06
8.21452e-06
-4.22681e-06
1.03639e-05
-5.13458e-06
1.0828e-05
-9.53074e-07
8.2405e-06
6.36257e-06
3.62371e-06
1.09181e-05
4.94871e-08
8.11864e-06
-1.58708e-06
3.46422e-06
5.50274e-06
3.20005e-05
2.23171e-06
3.11241e-05
2.21822e-06
3.02529e-05
2.20717e-06
2.93852e-05
2.19727e-06
2.85222e-05
2.18469e-06
2.76668e-05
2.16552e-06
2.68202e-05
2.14404e-06
2.59814e-05
2.12314e-06
2.51516e-05
2.10132e-06
2.43302e-05
2.07856e-06
2.35195e-05
2.05298e-06
2.2719e-05
2.02588e-06
2.19309e-05
1.99448e-06
2.11564e-05
1.95987e-06
2.03965e-05
1.92285e-06
1.96519e-05
1.884e-06
1.89234e-05
1.84403e-06
1.82108e-05
1.80179e-06
1.75164e-05
1.75708e-06
1.68403e-05
1.70975e-06
1.61837e-05
1.66067e-06
1.55473e-05
1.60984e-06
1.49311e-05
1.55801e-06
1.43358e-05
1.50485e-06
1.37619e-05
1.45099e-06
1.32094e-05
1.39629e-06
1.26787e-05
1.34133e-06
1.21695e-05
1.28697e-06
1.1682e-05
1.23195e-06
1.12159e-05
1.17792e-06
1.07712e-05
1.12379e-06
1.03474e-05
1.07064e-06
9.94417e-06
1.01845e-06
9.56152e-06
9.66958e-07
9.19849e-06
9.16899e-07
8.85514e-06
8.67309e-07
8.53067e-06
8.19266e-07
8.22485e-06
7.71999e-07
7.93721e-06
7.26264e-07
7.66735e-06
6.81293e-07
7.41529e-06
6.36159e-07
7.18116e-06
5.90652e-07
6.96406e-06
5.4709e-07
6.7629e-06
5.07178e-07
6.57693e-06
4.68775e-07
6.40847e-06
4.23794e-07
6.26189e-06
3.67469e-07
6.13906e-06
3.06084e-07
6.03409e-06
2.6056e-07
5.9384e-06
2.3805e-07
5.84711e-06
2.27905e-07
5.77113e-06
1.88679e-07
5.73934e-06
7.17155e-08
5.77154e-06
-9.71113e-08
5.8793e-06
-2.96587e-07
6.03987e-06
-4.34775e-07
6.1949e-06
-4.14938e-07
6.3246e-06
-3.45509e-07
6.41961e-06
-2.51141e-07
6.49561e-06
-1.99092e-07
6.69156e-06
-5.24154e-07
7.1626e-06
-1.26571e-06
8.02223e-06
-2.31035e-06
9.42541e-06
-3.78224e-06
1.1868e-05
-6.66934e-06
1.48529e-05
-8.11949e-06
1.56047e-05
-1.70492e-06
1.21432e-05
9.82412e-06
5.6703e-06
1.7391e-05
4.00825e-07
1.33881e-05
-2.19666e-06
6.0617e-06
8.81179e-06
4.60049e-05
3.48976e-06
4.47545e-05
3.46866e-06
4.35098e-05
3.45189e-06
4.227e-05
3.43705e-06
4.1038e-05
3.41666e-06
3.98161e-05
3.38742e-06
3.8605e-05
3.35515e-06
3.74062e-05
3.32201e-06
3.62193e-05
3.28823e-06
3.50453e-05
3.25254e-06
3.38845e-05
3.21374e-06
3.27399e-05
3.17052e-06
3.16117e-05
3.12263e-06
3.05033e-05
3.06829e-06
2.94158e-05
3.01038e-06
2.83491e-05
2.95069e-06
2.73051e-05
2.88798e-06
2.62854e-05
2.82143e-06
2.52903e-05
2.75231e-06
2.43217e-05
2.67833e-06
2.33804e-05
2.60197e-06
2.24677e-05
2.52254e-06
2.15842e-05
2.44144e-06
2.07308e-05
2.3583e-06
1.99079e-05
2.27391e-06
1.91153e-05
2.18887e-06
1.83537e-05
2.10287e-06
1.7623e-05
2.01777e-06
1.69234e-05
1.93154e-06
1.62544e-05
1.84686e-06
1.56159e-05
1.76227e-06
1.50074e-05
1.67914e-06
1.44288e-05
1.59707e-06
1.3879e-05
1.51678e-06
1.33579e-05
1.43801e-06
1.28645e-05
1.36071e-06
1.23987e-05
1.28507e-06
1.19595e-05
1.21118e-06
1.15462e-05
1.1396e-06
1.11583e-05
1.06915e-06
1.07958e-05
9.9866e-07
1.0459e-05
9.27463e-07
1.01469e-05
8.59209e-07
9.85736e-06
7.96716e-07
9.58947e-06
7.36665e-07
9.34665e-06
6.66615e-07
9.1346e-06
5.79521e-07
8.95576e-06
4.84922e-07
8.80245e-06
4.13874e-07
8.66272e-06
3.77777e-07
8.53034e-06
3.60282e-07
8.41937e-06
2.99655e-07
8.36896e-06
1.22125e-07
8.40613e-06
-1.34284e-07
8.54683e-06
-4.37284e-07
8.76123e-06
-6.49176e-07
8.97025e-06
-6.23961e-07
9.14621e-06
-5.21465e-07
9.27596e-06
-3.80892e-07
9.38152e-06
-3.04655e-07
9.64671e-06
-7.89347e-07
1.0281e-05
-1.89998e-06
1.14385e-05
-3.46786e-06
1.33238e-05
-5.66753e-06
1.65619e-05
-9.90745e-06
2.05354e-05
-1.2093e-05
2.16926e-05
-2.86212e-06
1.72891e-05
1.42276e-05
8.5859e-06
2.60942e-05
1.08689e-06
2.08871e-05
-2.88861e-06
1.00372e-05
1.32925e-05
6.45378e-05
5.23447e-06
6.28034e-05
5.20311e-06
6.10772e-05
5.17812e-06
5.93572e-05
5.15705e-06
5.76462e-05
5.1276e-06
5.5947e-05
5.08661e-06
5.42638e-05
5.03837e-06
5.2596e-05
4.98987e-06
5.09443e-05
4.93986e-06
4.93098e-05
4.88711e-06
4.76932e-05
4.8303e-06
4.60977e-05
4.76606e-06
4.45254e-05
4.69489e-06
4.29791e-05
4.61457e-06
4.14606e-05
4.52896e-06
3.99729e-05
4.43835e-06
3.85151e-05
4.34575e-06
3.70898e-05
4.24678e-06
3.56991e-05
4.14299e-06
3.4345e-05
4.03249e-06
3.3029e-05
3.91795e-06
3.17518e-05
3.79978e-06
3.05155e-05
3.67773e-06
2.93208e-05
3.55297e-06
2.81684e-05
3.42633e-06
2.70586e-05
3.29868e-06
2.59914e-05
3.16999e-06
2.49677e-05
3.04156e-06
2.39871e-05
2.91205e-06
2.30493e-05
2.78472e-06
2.21538e-05
2.65775e-06
2.13005e-05
2.53242e-06
2.04887e-05
2.40891e-06
1.97175e-05
2.28801e-06
1.8986e-05
2.1695e-06
1.82936e-05
2.05309e-06
1.76395e-05
1.93919e-06
1.70231e-05
1.82756e-06
1.64426e-05
1.72009e-06
1.58979e-05
1.61388e-06
1.53888e-05
1.50774e-06
1.49151e-05
1.40115e-06
1.44762e-05
1.29813e-06
1.40686e-05
1.20435e-06
1.36916e-05
1.11365e-06
1.33493e-05
1.00888e-06
1.3049e-05
8.79848e-07
1.27945e-05
7.39438e-07
1.25752e-05
6.33131e-07
1.23757e-05
5.77234e-07
1.21876e-05
5.4845e-07
1.20289e-05
4.58328e-07
1.19505e-05
2.00525e-07
1.19892e-05
-1.72952e-07
1.21652e-05
-6.13339e-07
1.24404e-05
-9.24382e-07
1.27126e-05
-8.96131e-07
1.29434e-05
-7.52301e-07
1.31154e-05
-5.52901e-07
1.32569e-05
-4.4614e-07
1.3605e-05
-1.13738e-06
1.44326e-05
-2.72761e-06
1.59417e-05
-4.97694e-06
1.83936e-05
-8.11947e-06
2.25426e-05
-1.40564e-05
2.76523e-05
-1.72027e-05
2.93537e-05
-4.56348e-06
2.39888e-05
1.95924e-05
1.26841e-05
3.73989e-05
2.30165e-06
3.12696e-05
-3.61474e-06
1.59536e-05
1.91648e-05
8.86881e-05
7.58166e-06
8.63506e-05
7.54064e-06
8.40221e-05
7.50662e-06
8.16998e-05
7.47929e-06
7.93871e-05
7.44032e-06
7.70897e-05
7.38406e-06
7.48096e-05
7.31846e-06
7.25482e-05
7.25123e-06
7.03066e-05
7.18143e-06
6.80863e-05
7.10741e-06
6.58898e-05
7.02679e-06
6.3719e-05
6.93693e-06
6.15778e-05
6.83605e-06
5.94701e-05
6.72223e-06
5.73999e-05
6.59917e-06
5.53674e-05
6.4709e-06
5.33765e-05
6.33662e-06
5.14287e-05
6.1946e-06
4.95261e-05
6.04558e-06
4.76727e-05
5.88588e-06
4.58694e-05
5.72124e-06
4.41197e-05
5.54952e-06
4.24242e-05
5.3732e-06
4.07847e-05
5.1925e-06
3.92021e-05
5.00896e-06
3.76778e-05
4.82299e-06
3.62115e-05
4.63627e-06
3.48042e-05
4.44886e-06
3.34548e-05
4.26141e-06
3.21647e-05
4.07484e-06
3.09323e-05
3.89013e-06
2.97573e-05
3.70743e-06
2.86391e-05
3.52714e-06
2.75763e-05
3.35077e-06
2.65682e-05
3.17765e-06
2.56139e-05
3.00734e-06
2.47121e-05
2.84102e-06
2.38615e-05
2.67814e-06
2.3061e-05
2.52063e-06
2.23089e-05
2.36596e-06
2.16058e-05
2.2108e-06
2.09516e-05
2.05536e-06
2.03443e-05
1.90546e-06
1.97808e-05
1.76791e-06
1.92593e-05
1.63514e-06
1.87847e-05
1.48347e-06
1.83667e-05
1.29785e-06
1.80095e-05
1.09664e-06
1.77009e-05
9.41726e-07
1.74206e-05
8.57553e-07
1.71572e-05
8.11828e-07
1.69337e-05
6.81773e-07
1.68146e-05
3.19621e-07
1.68466e-05
-2.04953e-07
1.70575e-05
-8.24225e-07
1.73983e-05
-1.26517e-06
1.77415e-05
-1.23935e-06
1.80348e-05
-1.04558e-06
1.82559e-05
-7.73967e-07
1.84411e-05
-6.31327e-07
1.88862e-05
-1.58248e-06
1.99362e-05
-3.77761e-06
2.18496e-05
-6.89039e-06
2.49519e-05
-1.12217e-05
3.01157e-05
-1.92203e-05
3.64875e-05
-2.35745e-05
3.88816e-05
-6.95759e-06
3.26023e-05
2.58718e-05
1.83602e-05
5.16409e-05
4.32787e-06
4.5302e-05
-4.27122e-06
2.45527e-05
2.6664e-05
0.000119448
1.06361e-05
0.000116404
1.0585e-05
0.000113364
1.05463e-05
0.000110327
1.05164e-05
0.000107297
1.04707e-05
0.000104279
1.04015e-05
0.000101281
1.03169e-05
9.83028e-05
1.02293e-05
9.53459e-05
1.01383e-05
9.24116e-05
1.00417e-05
8.95036e-05
9.93477e-06
8.66249e-05
9.81569e-06
8.37816e-05
9.67938e-06
8.09798e-05
9.52402e-06
7.82207e-05
9.35825e-06
7.5511e-05
9.18058e-06
7.28518e-05
8.99582e-06
7.02469e-05
8.79953e-06
6.77007e-05
8.59173e-06
6.52152e-05
8.37139e-06
6.27962e-05
8.14024e-06
6.04447e-05
7.90108e-06
5.81648e-05
7.65307e-06
5.59575e-05
7.3998e-06
5.38255e-05
7.14093e-06
5.17688e-05
6.87973e-06
4.979e-05
6.61502e-06
4.78882e-05
6.35076e-06
4.60651e-05
6.08447e-06
4.43189e-05
5.82107e-06
4.2651e-05
5.55806e-06
4.10595e-05
5.29894e-06
3.95437e-05
5.04293e-06
3.8103e-05
4.79142e-06
3.67352e-05
4.54551e-06
3.54395e-05
4.303e-06
3.42148e-05
4.06571e-06
3.30592e-05
3.83373e-06
3.19708e-05
3.6091e-06
3.09483e-05
3.38841e-06
2.99919e-05
3.16727e-06
2.91006e-05
2.94666e-06
2.82729e-05
2.7331e-06
2.75044e-05
2.53638e-06
2.67926e-05
2.34699e-06
2.61438e-05
2.13231e-06
2.55693e-05
1.8723e-06
2.50753e-05
1.59068e-06
2.46459e-05
1.37106e-06
2.42561e-05
1.24737e-06
2.38924e-05
1.17556e-06
2.35816e-05
9.9259e-07
2.34032e-05
4.98017e-07
2.34164e-05
-2.18221e-07
2.3655e-05
-1.06283e-06
2.40617e-05
-1.67181e-06
2.44791e-05
-1.6568e-06
2.48401e-05
-1.40657e-06
2.51158e-05
-1.04962e-06
2.53518e-05
-8.67343e-07
2.59072e-05
-2.13785e-06
2.72065e-05
-5.07697e-06
2.95717e-05
-9.25554e-06
3.33995e-05
-1.50495e-05
3.96603e-05
-2.54811e-05
4.73823e-05
-3.12965e-05
5.06043e-05
-1.01796e-05
4.35262e-05
3.29498e-05
2.61035e-05
6.90636e-05
7.56781e-06
6.38377e-05
-4.64859e-06
3.67691e-05
3.60435e-05
0.000157396
1.44504e-05
0.000153582
1.4399e-05
0.000149763
1.43652e-05
0.000145939
1.434e-05
0.000142115
1.42948e-05
0.000138297
1.42193e-05
0.000134492
1.41221e-05
0.000130703
1.40187e-05
0.000126929
1.39121e-05
0.000123178
1.37925e-05
0.00011945
1.36628e-05
0.000115751
1.35144e-05
0.000112089
1.33422e-05
0.00010847
1.31428e-05
0.0001049
1.29279e-05
0.000101385
1.26955e-05
9.79279e-05
1.24531e-05
9.45346e-05
1.21928e-05
9.12103e-05
1.19161e-05
8.79603e-05
1.16214e-05
8.47892e-05
1.13113e-05
8.17025e-05
1.09878e-05
7.87027e-05
1.06529e-05
7.57955e-05
1.03071e-05
7.29815e-05
9.9549e-06
7.02638e-05
9.59742e-06
6.76449e-05
9.23388e-06
6.51247e-05
8.87099e-06
6.27043e-05
8.5049e-06
6.0385e-05
8.1404e-06
5.8166e-05
7.77702e-06
5.60469e-05
7.41806e-06
5.40268e-05
7.06301e-06
5.21041e-05
6.71417e-06
5.02781e-05
6.3715e-06
4.85469e-05
6.03416e-06
4.69086e-05
5.70399e-06
4.53613e-05
5.38106e-06
4.39036e-05
5.06677e-06
4.25331e-05
4.75892e-06
4.12489e-05
4.45145e-06
4.00521e-05
4.14346e-06
3.89391e-05
3.8461e-06
3.79046e-05
3.57089e-06
3.69459e-05
3.30573e-06
3.607e-05
3.00822e-06
3.52908e-05
2.65149e-06
3.46149e-05
2.26663e-06
3.40246e-05
1.96136e-06
3.34891e-05
1.78285e-06
3.2992e-05
1.67265e-06
3.25641e-05
1.42045e-06
3.23011e-05
7.61101e-07
3.22745e-05
-1.91657e-07
3.25265e-05
-1.31489e-06
3.29896e-05
-2.13491e-06
3.34781e-05
-2.14529e-06
3.39064e-05
-1.8348e-06
3.42392e-05
-1.38243e-06
3.45312e-05
-1.15931e-06
3.52082e-05
-2.81488e-06
3.6777e-05
-6.64574e-06
3.96288e-05
-1.21074e-05
4.42415e-05
-1.96622e-05
5.16484e-05
-3.28881e-05
6.07502e-05
-4.03983e-05
6.48863e-05
-1.43157e-05
5.71885e-05
4.06476e-05
3.6484e-05
8.97681e-05
1.25805e-05
8.77412e-05
-4.35222e-06
5.37018e-05
4.76091e-05
0.000202393
1.9019e-05
0.000197815
1.89771e-05
0.00019322
1.89599e-05
0.000188603
1.89576e-05
0.00018397
1.89278e-05
0.000179332
1.88574e-05
0.000174695
1.87586e-05
0.000170062
1.86519e-05
0.000165438
1.85365e-05
0.000160822
1.84081e-05
0.000156223
1.82619e-05
0.000151644
1.80932e-05
0.000147098
1.78883e-05
0.000142588
1.76529e-05
0.000138129
1.73869e-05
0.000133723
1.71018e-05
0.000129377
1.6799e-05
0.000125098
1.64715e-05
0.000120893
1.61215e-05
0.000116771
1.57431e-05
0.000112737
1.53455e-05
0.0001088
1.49243e-05
0.000104964
1.44891e-05
0.000101235
1.40358e-05
9.76185e-05
1.35716e-05
9.41181e-05
1.30979e-05
9.07341e-05
1.26178e-05
8.74727e-05
1.21324e-05
8.4335e-05
1.16427e-05
8.1321e-05
1.11543e-05
7.84325e-05
1.06655e-05
7.56686e-05
1.0182e-05
7.30301e-05
9.70153e-06
7.05147e-05
9.22956e-06
6.81221e-05
8.76413e-06
6.58505e-05
8.30572e-06
6.36984e-05
7.85607e-06
6.16639e-05
7.41556e-06
5.97436e-05
6.98712e-06
5.79359e-05
6.5666e-06
5.62411e-05
6.14627e-06
5.46579e-05
5.72662e-06
5.31841e-05
5.31999e-06
5.18125e-05
4.9425e-06
5.054e-05
4.57817e-06
4.93741e-05
4.17413e-06
4.83313e-05
3.69429e-06
4.74197e-05
3.17826e-06
4.66179e-05
2.76309e-06
4.58918e-05
2.509e-06
4.52201e-05
2.34431e-06
4.46387e-05
2.00187e-06
4.42569e-05
1.1429e-06
4.41604e-05
-9.51614e-08
4.43993e-05
-1.55383e-06
4.48973e-05
-2.6329e-06
4.5441e-05
-2.68895e-06
4.59268e-05
-2.32062e-06
4.63118e-05
-1.76739e-06
4.66619e-05
-1.50949e-06
4.74669e-05
-3.61982e-06
4.93138e-05
-8.49264e-06
5.26683e-05
-1.54619e-05
5.80957e-05
-2.50896e-05
6.66553e-05
-4.14478e-05
7.70933e-05
-5.08362e-05
8.21424e-05
-1.93648e-05
7.40316e-05
4.87584e-05
5.0141e-05
0.000113659
2.01184e-05
0.000117764
-2.79855e-06
7.66188e-05
6.17929e-05
0.000253784
2.43036e-05
0.000248474
2.42873e-05
0.000243131
2.43021e-05
0.000237758
2.43313e-05
0.000232351
2.43348e-05
0.000226922
2.42864e-05
0.00022148
2.42e-05
0.000216032
2.40999e-05
0.000210575
2.39934e-05
0.000205116
2.38676e-05
0.000199657
2.37208e-05
0.000194208
2.35424e-05
0.000188776
2.33197e-05
0.000183377
2.30523e-05
0.000178015
2.27487e-05
0.000172701
2.24161e-05
0.000167442
2.20581e-05
0.000162246
2.16675e-05
0.000157123
2.12437e-05
0.000152082
2.07844e-05
0.000147135
2.02929e-05
0.000142287
1.97721e-05
0.00013755
1.92261e-05
0.000132928
1.86572e-05
0.000128431
1.80693e-05
0.000124062
1.74663e-05
0.000119831
1.68489e-05
0.000115738
1.62253e-05
0.000111788
1.55931e-05
0.000107984
1.49583e-05
0.000104328
1.43218e-05
0.000100822
1.36876e-05
9.7465e-05
1.30585e-05
9.42593e-05
1.24353e-05
9.12023e-05
1.18211e-05
8.82934e-05
1.12146e-05
8.5532e-05
1.06175e-05
8.29164e-05
1.00311e-05
8.04435e-05
9.46007e-06
7.81116e-05
8.89842e-06
7.59201e-05
8.33783e-06
7.38696e-05
7.77714e-06
7.19567e-05
7.23285e-06
7.01735e-05
6.72568e-06
6.85164e-05
6.23526e-06
6.69941e-05
5.69643e-06
6.56235e-05
5.06493e-06
6.4415e-05
4.38675e-06
6.33466e-05
3.83154e-06
6.23773e-05
3.47826e-06
6.14854e-05
3.23625e-06
6.07072e-05
2.78004e-06
6.01662e-05
1.68386e-06
5.99587e-05
1.12361e-07
6.01444e-05
-1.73946e-06
6.06402e-05
-3.12875e-06
6.12085e-05
-3.25726e-06
6.1731e-05
-2.84313e-06
6.21558e-05
-2.1922e-06
6.25585e-05
-1.91216e-06
6.34885e-05
-4.54982e-06
6.5605e-05
-1.06092e-05
6.94504e-05
-1.93072e-05
7.56804e-05
-3.13196e-05
8.53338e-05
-5.11011e-05
9.69722e-05
-6.24746e-05
0.000102826
-2.52185e-05
9.44932e-05
5.70911e-05
6.77415e-05
0.00014041
3.11269e-05
0.000154378
8.69293e-07
0.000106876
7.90237e-05
0.000317095
3.02947e-05
0.000311088
3.03101e-05
0.000305048
3.03272e-05
0.000298969
3.03816e-05
0.00029284
3.04596e-05
0.000286665
3.05097e-05
0.000280463
3.04886e-05
0.000274237
3.04266e-05
0.00026799
3.03467e-05
0.000261725
3.0258e-05
0.000255446
3.01471e-05
0.000249158
3.00091e-05
0.000242866
2.98341e-05
0.000236582
2.96036e-05
0.000230319
2.93153e-05
0.000224086
2.89816e-05
0.000217894
2.86081e-05
0.000211748
2.8204e-05
0.00020566
2.77561e-05
0.000199639
2.72643e-05
0.000193697
2.67263e-05
0.000187846
2.61442e-05
0.000182095
2.55227e-05
0.000176456
2.48652e-05
0.000170939
2.41746e-05
0.00016555
2.34576e-05
0.000160302
2.27148e-05
0.000155196
2.19548e-05
0.000150243
2.11784e-05
0.000145448
2.03879e-05
0.000140815
1.95918e-05
0.000136347
1.87891e-05
0.000132049
1.79856e-05
0.000127923
1.71846e-05
0.000123969
1.63896e-05
0.000120189
1.56012e-05
0.000116582
1.48216e-05
0.000113149
1.40505e-05
0.000109888
1.32917e-05
0.000106798
1.25504e-05
0.000103876
1.18197e-05
0.000101125
1.10891e-05
9.85429e-05
1.03595e-05
9.61277e-05
9.648e-06
9.38715e-05
8.98189e-06
9.1771e-05
8.33572e-06
8.98338e-05
7.63371e-06
8.80799e-05
6.81885e-06
8.65197e-05
5.94693e-06
8.51319e-05
5.2193e-06
8.38721e-05
4.73812e-06
8.27152e-05
4.39307e-06
8.16996e-05
3.79562e-06
8.09566e-05
2.4269e-06
8.05935e-05
4.75474e-07
8.06758e-05
-1.8218e-06
8.11196e-05
-3.57255e-06
8.1672e-05
-3.80966e-06
8.21988e-05
-3.36987e-06
8.26426e-05
-2.63606e-06
8.30852e-05
-2.35477e-06
8.4125e-05
-5.58955e-06
8.64799e-05
-1.29641e-05
9.07664e-05
-2.35938e-05
9.77247e-05
-3.82779e-05
0.000108312
-6.16886e-05
0.000120901
-7.50636e-05
0.000127364
-3.16813e-05
0.000118975
6.54799e-05
8.99175e-05
0.000169468
4.66973e-05
0.000197599
7.95124e-06
0.000145622
9.98182e-05
0.000381409
3.70597e-05
0.000374609
3.71108e-05
0.000367769
3.7167e-05
0.00036088
3.72708e-05
0.000353936
3.74033e-05
0.000346943
3.75022e-05
0.000339911
3.75212e-05
0.000332851
3.74866e-05
0.000325767
3.74302e-05
0.000318659
3.73663e-05
0.000311529
3.72773e-05
0.000304383
3.71546e-05
0.000297229
3.6988e-05
0.000290079
3.67535e-05
0.000282946
3.64488e-05
0.000275839
3.60889e-05
0.000268768
3.5679e-05
0.000261744
3.52283e-05
0.000254774
3.47259e-05
0.000247871
3.41674e-05
0.000241048
3.35495e-05
0.000234315
3.28766e-05
0.000227686
3.21515e-05
0.000221173
3.13785e-05
0.000214785
3.05626e-05
0.000208532
2.97103e-05
0.000202426
2.88216e-05
0.000196472
2.79081e-05
0.000190681
2.69698e-05
0.000185057
2.60114e-05
0.00017961
2.50388e-05
0.000174344
2.40558e-05
0.000169263
2.30669e-05
0.00016437
2.2077e-05
0.000159671
2.10891e-05
0.000155163
2.01091e-05
0.000150852
1.91327e-05
0.000146736
1.81666e-05
0.000142816
1.72117e-05
0.000139091
1.6275e-05
0.000135562
1.53492e-05
0.000132227
1.4424e-05
0.000129089
1.3497e-05
0.000126147
1.25907e-05
0.000123392
1.17369e-05
0.000120819
1.09083e-05
0.000118439
1.0014e-05
0.000116271
8.98602e-06
0.00011433
7.88813e-06
0.000112594
6.95593e-06
0.000111015
6.31718e-06
0.000109566
5.84145e-06
0.000108285
5.07658e-06
0.000107311
3.4014e-06
0.000106754
1.03168e-06
0.000106692
-1.75937e-06
0.000107041
-3.92181e-06
0.00010754
-4.30786e-06
0.000108042
-3.87279e-06
0.000108485
-3.07863e-06
0.000108954
-2.82332e-06
0.000110076
-6.71232e-06
0.000112616
-1.55037e-05
0.000117253
-2.82304e-05
0.000124766
-4.57915e-05
0.000135972
-7.28946e-05
0.00014913
-8.82215e-05
0.000155984
-3.85353e-05
0.000147735
7.37294e-05
0.000117172
0.00020003
6.7954e-05
0.000246817
2.00237e-05
0.000193553
0.000124971
0.000453142
4.47441e-05
0.000445416
4.48373e-05
0.00043765
4.4933e-05
0.000429829
4.50911e-05
0.000421947
4.52855e-05
0.000414009
4.54408e-05
0.000406029
4.55007e-05
0.000398022
4.54937e-05
0.000389985
4.54672e-05
0.000381921
4.54305e-05
0.000373836
4.53621e-05
0.000365732
4.52589e-05
0.000357622
4.50979e-05
0.000349513
4.48618e-05
0.000341421
4.45414e-05
0.000333362
4.41473e-05
0.000325342
4.3699e-05
0.000317373
4.31974e-05
0.000309463
4.26359e-05
0.000301627
4.20039e-05
0.000293876
4.13002e-05
0.000286226
4.05265e-05
0.000278688
3.96901e-05
0.000271275
3.87907e-05
0.000264
3.78382e-05
0.000256873
3.68369e-05
0.000249903
3.57915e-05
0.000243103
3.47082e-05
0.000236479
3.35943e-05
0.00023004
3.24501e-05
0.000223793
3.1286e-05
0.000217743
3.01058e-05
0.000211897
2.89125e-05
0.000206259
2.7715e-05
0.000200831
2.6517e-05
0.000195619
2.53214e-05
0.000190621
2.41305e-05
0.000185843
2.29447e-05
0.000181284
2.17711e-05
0.000176943
2.06159e-05
0.000172819
1.9473e-05
0.000168916
1.83264e-05
0.000165236
1.71773e-05
0.000161777
1.60494e-05
0.000158532
1.49826e-05
0.000155495
1.39445e-05
0.000152677
1.28323e-05
0.000150101
1.15619e-05
0.000147783
1.02067e-05
0.000145698
9.04053e-06
0.000143801
8.21466e-06
0.000142062
7.58017e-06
0.000140513
6.62501e-06
0.000139301
4.614e-06
0.000138544
1.78877e-06
0.000138325
-1.54066e-06
0.000138569
-4.1653e-06
0.000139006
-4.74485e-06
0.000139481
-4.34857e-06
0.000139924
-3.521e-06
0.000140411
-3.31064e-06
0.000141588
-7.88923e-06
0.000144243
-1.81586e-05
0.000149086
-3.30738e-05
0.000156871
-5.35758e-05
0.000168268
-8.42923e-05
0.000181559
-0.000101512
0.000188597
-4.55736e-05
0.000180754
8.15728e-05
0.000149734
0.00023105
9.58351e-05
0.000300716
3.8868e-05
0.00025052
0.000156054
0.000533906
5.35169e-05
0.000525091
5.36525e-05
0.00051623
5.37941e-05
0.00050731
5.40104e-05
0.000498323
5.4273e-05
0.000489276
5.44882e-05
0.000480183
5.45932e-05
0.000471059
5.46182e-05
0.000461906
5.46197e-05
0.000452728
5.46086e-05
0.000443525
5.45656e-05
0.000434307
5.44765e-05
0.000425079
5.43263e-05
0.000415858
5.40825e-05
0.000406661
5.37379e-05
0.000397501
5.33075e-05
0.00038839
5.28101e-05
0.000379336
5.22511e-05
0.000370354
5.16177e-05
0.000361456
5.09028e-05
0.000352658
5.00978e-05
0.000343974
4.92102e-05
0.000335419
4.82452e-05
0.000327006
4.72035e-05
0.00031875
4.60951e-05
0.000310662
4.49248e-05
0.000302753
4.36999e-05
0.000295033
4.24289e-05
0.000287512
4.11149e-05
0.000280199
3.97632e-05
0.000273101
3.83843e-05
0.000266227
3.69794e-05
0.00025958
3.556e-05
0.000253166
3.41283e-05
0.000246989
3.26947e-05
0.000241052
3.12582e-05
0.000235358
2.98244e-05
0.000229908
2.83951e-05
0.000224703
2.69761e-05
0.000219743
2.55757e-05
0.000215029
2.4187e-05
0.00021056
2.2795e-05
0.000206343
2.13941e-05
0.000202375
2.00183e-05
0.000198648
1.87096e-05
0.000195155
1.74365e-05
0.000191911
1.6077e-05
0.000188937
1.45357e-05
0.000186251
1.28922e-05
0.000183835
1.14574e-05
0.000181634
1.04157e-05
0.000179614
9.5997e-06
0.000177809
8.42956e-06
0.000176369
6.05449e-06
0.000175422
2.73537e-06
0.000175063
-1.1815e-06
0.000175222
-4.32389e-06
0.000175624
-5.1467e-06
0.0001761
-4.82445e-06
0.000176566
-3.98749e-06
0.000177087
-3.83186e-06
0.0001783
-9.1022e-06
0.000180999
-2.0857e-05
0.000185888
-3.79632e-05
0.000193655