/*--------------------------------*- C++ -*----------------------------------*\
| =========                 |                                                 |
| \\      /  F ield         | OpenFOAM: The Open Source CFD Toolbox           |
|  \\    /   O peration     | Version:  2412                                  |
|   \\  /    A nd           | Website:  www.openfoam.com                      |
|    \\/     M anipulation  |                                                 |
\*---------------------------------------------------------------------------*/
FoamFile
{
    version     2.0;
    format      ascii;
    arch        "LSB;label=32;scalar=64";
    class       volScalarField;
    location    "300";
    object      nut;
}
// * * * * * * * * * * * * * * * * * * * * * * * * * * * * * * * * * * * * * //

dimensions      [0 2 -1 0 0 0 0];

internalField   nonuniform List<scalar> 
7423
(
1.09111e-09
1.68548e-09
2.25211e-09
2.26069e-09
1.59836e-09
9.98695e-10
6.68308e-10
7.30864e-11
6.39542e-11
5.47213e-11
4.63306e-11
3.91631e-11
3.36048e-11
8.1592e-11
2.63582e-11
2.37574e-11
2.16629e-11
3.62191e-11
1.87797e-11
1.77556e-11
1.68945e-11
1.61577e-11
1.55159e-11
1.49454e-11
1.44239e-11
1.39366e-11
1.3477e-11
1.30394e-11
1.26195e-11
1.22142e-11
1.18211e-11
1.14392e-11
1.1068e-11
1.0707e-11
1.03554e-11
1.00135e-11
9.68131e-12
9.35805e-12
9.04358e-12
8.73875e-12
8.47289e-12
8.16393e-12
7.93052e-12
7.65491e-12
7.36766e-12
7.09368e-12
6.83134e-12
6.57932e-12
6.33824e-12
6.1067e-12
5.88329e-12
5.66835e-12
5.46241e-12
5.26437e-12
5.07288e-12
4.8881e-12
4.71058e-12
4.53934e-12
4.37341e-12
4.21287e-12
4.05791e-12
3.90836e-12
3.7634e-12
3.62263e-12
3.48588e-12
3.35316e-12
3.22464e-12
3.09984e-12
2.97883e-12
2.86087e-12
2.74578e-12
2.63408e-12
2.52592e-12
2.42081e-12
2.31882e-12
2.22021e-12
9.77333e-08
1.49325e-07
2.00102e-07
2.09297e-07
1.60477e-07
1.09046e-07
7.68981e-08
5.11322e-09
4.23473e-09
3.50812e-09
2.91999e-09
2.46794e-09
2.1606e-09
1.00635e-08
1.82621e-09
1.70087e-09
1.59745e-09
4.21467e-09
1.45901e-09
1.40846e-09
1.36527e-09
1.32717e-09
1.29309e-09
1.26187e-09
1.23214e-09
1.20307e-09
1.17444e-09
1.14607e-09
1.11784e-09
1.08967e-09
1.06154e-09
1.03343e-09
1.00545e-09
9.77643e-10
9.50066e-10
9.22793e-10
8.95907e-10
8.6941e-10
8.43331e-10
8.1782e-10
8.39541e-10
8.0662e-10
7.77622e-10
7.42809e-10
7.12346e-10
6.85243e-10
6.59735e-10
6.35314e-10
6.1198e-10
5.89575e-10
5.67963e-10
5.47182e-10
5.27272e-10
5.08123e-10
4.89615e-10
4.71764e-10
4.546e-10
4.38047e-10
4.2202e-10
4.06518e-10
3.91552e-10
3.771e-10
3.63106e-10
3.49523e-10
3.36312e-10
3.23494e-10
3.11096e-10
2.99059e-10
2.87373e-10
2.75988e-10
2.64885e-10
2.541e-10
2.4366e-10
2.33517e-10
2.23677e-10
2.14168e-10
6.74387e-07
1.04288e-06
1.42147e-06
1.53581e-06
1.26513e-06
9.21996e-07
6.79975e-07
6.38691e-08
5.20415e-08
4.27206e-08
3.51444e-08
2.90253e-08
2.42997e-08
1.05068e-07
1.78503e-08
1.57199e-08
1.42192e-08
4.5748e-08
1.25891e-08
1.2099e-08
1.17282e-08
1.14303e-08
1.11843e-08
1.09706e-08
1.07728e-08
1.058e-08
1.03893e-08
1.01979e-08
1.0004e-08
9.80687e-09
9.60584e-09
9.40124e-09
9.19363e-09
8.98387e-09
8.77261e-09
8.56065e-09
8.34884e-09
8.13791e-09
7.9282e-09
7.72139e-09
8.57305e-09
8.2115e-09
7.83543e-09
7.38367e-09
7.0465e-09
6.77001e-09
6.51571e-09
6.27353e-09
6.0423e-09
5.82059e-09
5.60672e-09
5.40115e-09
5.20425e-09
5.01489e-09
4.83183e-09
4.65544e-09
4.48582e-09
4.32228e-09
4.16395e-09
4.01083e-09
3.86309e-09
3.72036e-09
3.58213e-09
3.44806e-09
3.31768e-09
3.1912e-09
3.06886e-09
2.95011e-09
2.83479e-09
2.7225e-09
2.61298e-09
2.50656e-09
2.40353e-09
2.30349e-09
2.20649e-09
2.11273e-09
2.01242e-06
3.21683e-06
4.58495e-06
5.13456e-06
4.55861e-06
3.55702e-06
2.73946e-06
4.20176e-07
3.35954e-07
2.71865e-07
2.20679e-07
1.79578e-07
1.48004e-07
5.15273e-07
1.04315e-07
8.96279e-08
7.86128e-08
2.38515e-07
6.41799e-08
5.9399e-08
5.58813e-08
5.32971e-08
5.13937e-08
4.99405e-08
4.87639e-08
4.77559e-08
4.68534e-08
4.60193e-08
4.52213e-08
4.44392e-08
4.36593e-08
4.28762e-08
4.20848e-08
4.12866e-08
4.0481e-08
3.96698e-08
3.88552e-08
3.80403e-08
3.7226e-08
3.64212e-08
4.445e-08
4.24508e-08
4.00301e-08
3.71325e-08
3.52294e-08
3.3796e-08
3.25126e-08
3.12986e-08
3.01411e-08
2.90323e-08
2.79636e-08
2.69359e-08
2.59517e-08
2.50059e-08
2.40918e-08
2.32109e-08
2.2364e-08
2.1548e-08
2.07581e-08
1.9994e-08
1.92571e-08
1.85451e-08
1.78556e-08
1.71871e-08
1.65373e-08
1.59069e-08
1.5297e-08
1.47052e-08
1.41305e-08
1.35711e-08
1.30256e-08
1.24954e-08
1.1982e-08
1.14835e-08
1.10004e-08
1.05334e-08
4.06326e-06
6.60318e-06
9.77035e-06
1.14747e-05
1.10556e-05
9.2377e-06
7.42684e-06
1.91877e-06
1.51398e-06
1.21824e-06
9.84082e-07
7.96079e-07
6.47841e-07
1.7199e-06
4.45144e-07
3.77757e-07
3.27054e-07
8.50793e-07
2.58439e-07
2.34502e-07
2.15862e-07
2.01015e-07
1.89103e-07
1.79486e-07
1.71682e-07
1.65321e-07
1.60092e-07
1.55718e-07
1.51961e-07
1.48638e-07
1.4561e-07
1.42788e-07
1.40106e-07
1.37524e-07
1.35015e-07
1.32556e-07
1.30139e-07
1.27762e-07
1.2542e-07
1.23133e-07
1.64579e-07
1.56849e-07
1.46292e-07
1.33739e-07
1.26171e-07
1.20858e-07
1.16221e-07
1.11865e-07
1.07717e-07
1.03747e-07
9.99238e-08
9.62469e-08
9.27246e-08
8.93425e-08
8.60753e-08
8.29257e-08
7.98979e-08
7.6982e-08
7.4161e-08
7.14316e-08
6.87985e-08
6.62556e-08
6.37933e-08
6.14067e-08
5.90869e-08
5.68365e-08
5.46591e-08
5.25472e-08
5.04961e-08
4.85001e-08
4.65541e-08
4.46621e-08
4.28295e-08
4.10502e-08
3.93265e-08
3.76599e-08
6.71157e-06
1.10088e-05
1.68487e-05
2.08592e-05
2.13137e-05
1.88674e-05
1.58421e-05
7.03775e-06
5.47874e-06
4.39049e-06
3.53501e-06
2.84555e-06
2.2988e-06
4.50865e-06
1.5614e-06
1.31403e-06
1.1277e-06
2.38527e-06
8.75054e-07
7.86081e-07
7.16279e-07
6.59642e-07
6.13037e-07
5.74231e-07
5.41607e-07
5.13969e-07
4.90428e-07
4.70257e-07
4.52867e-07
4.3777e-07
4.24548e-07
4.12852e-07
4.02386e-07
3.92901e-07
3.84206e-07
3.7614e-07
3.68589e-07
3.61474e-07
3.54735e-07
3.4837e-07
4.93654e-07
4.69981e-07
4.34817e-07
3.93781e-07
3.7014e-07
3.54202e-07
3.40525e-07
3.27738e-07
3.15575e-07
3.03941e-07
2.92744e-07
2.81977e-07
2.7166e-07
2.61758e-07
2.52197e-07
2.42979e-07
2.34116e-07
2.25583e-07
2.17331e-07
2.09347e-07
2.01643e-07
1.94204e-07
1.87002e-07
1.80023e-07
1.7324e-07
1.66658e-07
1.60289e-07
1.54112e-07
1.48114e-07
1.42278e-07
1.36589e-07
1.31056e-07
1.25693e-07
1.20488e-07
1.15446e-07
1.10569e-07
9.61478e-06
1.60673e-05
2.55877e-05
3.31567e-05
3.55194e-05
3.34318e-05
2.9473e-05
1.97925e-05
1.63918e-05
1.3477e-05
1.09404e-05
8.79669e-06
7.07249e-06
9.98062e-06
4.77263e-06
3.99944e-06
3.41633e-06
5.62945e-06
2.62393e-06
2.34224e-06
2.12156e-06
1.94197e-06
1.79341e-06
1.6688e-06
1.56297e-06
1.47214e-06
1.39353e-06
1.32499e-06
1.26482e-06
1.21171e-06
1.16456e-06
1.12248e-06
1.08474e-06
1.05069e-06
1.0198e-06
9.91627e-07
9.6581e-07
9.42066e-07
9.20151e-07
8.99938e-07
1.27139e-06
1.21061e-06
1.11606e-06
1.00977e-06
9.49073e-07
9.08159e-07
8.73104e-07
8.40363e-07
8.09226e-07
7.79456e-07
7.50822e-07
7.2328e-07
6.96885e-07
6.71559e-07
6.47118e-07
6.23549e-07
6.00883e-07
5.79062e-07
5.57968e-07
5.37558e-07
5.17855e-07
4.98832e-07
4.80418e-07
4.62574e-07
4.45235e-07
4.28402e-07
4.12107e-07
3.96307e-07
3.80965e-07
3.66039e-07
3.51488e-07
3.37327e-07
3.23595e-07
3.10267e-07
2.9736e-07
2.84867e-07
1.22191e-05
2.10065e-05
3.50571e-05
4.72851e-05
5.27828e-05
5.24355e-05
4.8625e-05
3.99961e-05
3.52763e-05
3.06639e-05
2.62406e-05
2.21634e-05
1.854e-05
1.9752e-05
1.29805e-05
1.09426e-05
9.35966e-06
1.16915e-05
7.16928e-06
6.38228e-06
5.76398e-06
5.25968e-06
4.84146e-06
4.4895e-06
4.18936e-06
3.93033e-06
3.70459e-06
3.50604e-06
3.33005e-06
3.17301e-06
3.03199e-06
2.90468e-06
2.78919e-06
2.68392e-06
2.58755e-06
2.49901e-06
2.4174e-06
2.34204e-06
2.27231e-06
2.20775e-06
2.90127e-06
2.76722e-06
2.55918e-06
2.33646e-06
2.20488e-06
2.11205e-06
2.03121e-06
1.95543e-06
1.8833e-06
1.81434e-06
1.74806e-06
1.68428e-06
1.62314e-06
1.56449e-06
1.50793e-06
1.45336e-06
1.40086e-06
1.35033e-06
1.30149e-06
1.25423e-06
1.20858e-06
1.16451e-06
1.12185e-06
1.08051e-06
1.04034e-06
1.00133e-06
9.63545e-07
9.26904e-07
8.91323e-07
8.5671e-07
8.22958e-07
7.9009e-07
7.582e-07
7.27235e-07
6.97253e-07
6.68209e-07
1.39234e-05
2.48948e-05
4.40625e-05
6.17874e-05
7.14649e-05
7.41257e-05
7.17971e-05
6.52029e-05
6.02491e-05
5.48549e-05
4.92336e-05
4.36541e-05
3.82739e-05
3.63321e-05
2.88905e-05
2.50729e-05
2.19144e-05
2.24718e-05
1.72335e-05
1.54791e-05
1.40537e-05
1.28672e-05
1.18671e-05
1.1014e-05
1.02779e-05
9.63588e-06
9.07065e-06
8.56862e-06
8.11927e-06
7.71441e-06
7.34741e-06
7.01292e-06
6.70664e-06
6.42499e-06
6.16494e-06
5.92406e-06
5.70033e-06
5.4921e-06
5.29795e-06
5.11653e-06
6.01072e-06
5.75128e-06
5.37621e-06
4.99149e-06
4.74235e-06
4.55112e-06
4.37968e-06
4.21786e-06
4.06353e-06
3.916e-06
3.77422e-06
3.63777e-06
3.50689e-06
3.38137e-06
3.26035e-06
3.14354e-06
3.0311e-06
2.92289e-06
2.81834e-06
2.71712e-06
2.6193e-06
2.52484e-06
2.43339e-06
2.34478e-06
2.25866e-06
2.17497e-06
2.09385e-06
2.01518e-06
1.93877e-06
1.86444e-06
1.79193e-06
1.72127e-06
1.65264e-06
1.58599e-06
1.52144e-06
1.45884e-06
2.68407e-05
5.14626e-05
7.53336e-05
9.00171e-05
9.66621e-05
9.69353e-05
9.28578e-05
8.87102e-05
8.35983e-05
7.78049e-05
7.16534e-05
6.52989e-05
6.06519e-05
5.29365e-05
4.7404e-05
4.25371e-05
4.03686e-05
3.47707e-05
3.17043e-05
2.9114e-05
2.68989e-05
2.49894e-05
2.33292e-05
2.1873e-05
2.05843e-05
1.94346e-05
1.84012e-05
1.74658e-05
1.6614e-05
1.58341e-05
1.51163e-05
1.4453e-05
1.38377e-05
1.32647e-05
1.27296e-05
1.22285e-05
1.17584e-05
1.13164e-05
1.08996e-05
1.16005e-05
1.11399e-05
1.05592e-05
9.97759e-06
9.54495e-06
9.18032e-06
8.84362e-06
8.52334e-06
8.21704e-06
7.92398e-06
7.64227e-06
7.37085e-06
7.11019e-06
6.86012e-06
6.61898e-06
6.386e-06
6.1615e-06
5.94533e-06
5.73643e-06
5.53403e-06
5.33824e-06
5.14905e-06
4.96581e-06
4.78817e-06
4.61549e-06
4.44747e-06
4.28446e-06
4.12632e-06
3.97265e-06
3.8231e-06
3.67715e-06
3.53473e-06
3.39626e-06
3.26167e-06
3.13134e-06
3.00462e-06
5.62717e-05
8.68562e-05
0.000107273
0.000118687
0.000122409
0.000121187
0.000118637
0.000114665
0.000109608
0.000103811
9.73985e-05
9.13603e-05
8.36018e-05
7.68729e-05
7.06304e-05
6.60299e-05
5.99872e-05
5.55639e-05
5.16949e-05
4.82962e-05
4.52987e-05
4.26398e-05
4.02666e-05
3.81337e-05
3.62046e-05
3.44486e-05
3.28409e-05
3.13613e-05
2.9993e-05
2.87221e-05
2.7537e-05
2.64283e-05
2.53876e-05
2.4408e-05
2.34837e-05
2.26097e-05
2.17818e-05
2.09948e-05
2.11071e-05
2.03375e-05
1.94898e-05
1.86514e-05
1.79431e-05
1.73033e-05
1.66996e-05
1.61212e-05
1.55659e-05
1.50332e-05
1.45202e-05
1.40246e-05
1.35472e-05
1.30884e-05
1.26453e-05
1.22162e-05
1.18016e-05
1.14016e-05
1.10146e-05
1.06389e-05
1.02747e-05
9.92207e-06
9.58004e-06
9.248e-06
8.92477e-06
8.60965e-06
8.30331e-06
8.00569e-06
7.7161e-06
7.434e-06
7.15832e-06
6.8888e-06
6.6262e-06
6.37061e-06
6.12295e-06
5.88108e-06
9.5476e-05
0.000122377
0.000139315
0.000147201
0.000149192
0.000148832
0.000146624
0.000142973
0.000138242
0.000132522
0.000126287
0.00011877
0.00011147
0.000104372
9.81528e-05
9.15612e-05
8.59893e-05
8.09753e-05
7.64678e-05
7.24112e-05
6.87483e-05
6.54268e-05
6.23997e-05
5.96267e-05
5.70734e-05
5.47112e-05
5.25157e-05
5.04668e-05
4.85471e-05
4.67426e-05
4.50411e-05
4.34321e-05
4.19067e-05
4.04572e-05
3.90771e-05
3.77607e-05
3.65008e-05
3.58424e-05
3.466e-05
3.34588e-05
3.22797e-05
3.12014e-05
3.01882e-05
2.92192e-05
2.82848e-05
2.73831e-05
2.65147e-05
2.56757e-05
2.48616e-05
2.40739e-05
2.33142e-05
2.25782e-05
2.18625e-05
2.11682e-05
2.04961e-05
1.98438e-05
1.92083e-05
1.85898e-05
1.79889e-05
1.74043e-05
1.68351e-05
1.62793e-05
1.57355e-05
1.5205e-05
1.4688e-05
1.41835e-05
1.36909e-05
1.32082e-05
1.27346e-05
1.22714e-05
1.18194e-05
1.13805e-05
1.09484e-05
0.000100381
0.000134618
0.000157915
0.000170687
0.000176348
0.0001787
0.000178753
0.000177016
0.000173886
0.000169425
0.000163821
0.00015687
0.000149511
0.000142012
0.000134878
0.00012776
0.000121312
0.000115379
0.000109946
0.000104978
0.000100428
9.62497e-05
9.23989e-05
8.88355e-05
8.55238e-05
8.24339e-05
7.95392e-05
7.68172e-05
7.4249e-05
7.18184e-05
6.9512e-05
6.73174e-05
6.52243e-05
6.32238e-05
6.13079e-05
5.94701e-05
5.77017e-05
5.6294e-05
5.46466e-05
5.30305e-05
5.14491e-05
4.99449e-05
4.85028e-05
4.71119e-05
4.57634e-05
4.44552e-05
4.31899e-05
4.19627e-05
4.07662e-05
3.96025e-05
3.84756e-05
3.73798e-05
3.63093e-05
3.52653e-05
3.42506e-05
3.32621e-05
3.22948e-05
3.13487e-05
3.04255e-05
2.95235e-05
2.86419e-05
2.77777e-05
2.6928e-05
2.6095e-05
2.52799e-05
2.44813e-05
2.36984e-05
2.29282e-05
2.21689e-05
2.14225e-05
2.06907e-05
1.99781e-05
1.92675e-05
0.000100733
0.000143291
0.000173921
0.000192392
0.000202315
0.000207925
0.000210718
0.000211356
0.000210292
0.000207575
0.000203211
0.000197185
0.000190178
0.000182623
0.000175017
0.000167449
0.000160319
0.000153636
0.000147424
0.000141672
0.00013635
0.000131419
0.000126837
0.000122568
0.000118575
0.000114827
0.000111297
0.00010796
0.000104797
0.00010179
9.8923e-05
9.61838e-05
9.35602e-05
9.10422e-05
8.86211e-05
8.6289e-05
8.40368e-05
8.20004e-05
7.98971e-05
7.78567e-05
7.58614e-05
7.39305e-05
7.20606e-05
7.02475e-05
6.84819e-05
6.67615e-05
6.50911e-05
6.34655e-05
6.18737e-05
6.03181e-05
5.8806e-05
5.73305e-05
5.58826e-05
5.44639e-05
5.30792e-05
5.17254e-05
5.0395e-05
4.90873e-05
4.78056e-05
4.65481e-05
4.53142e-05
4.40996e-05
4.28993e-05
4.17167e-05
4.05543e-05
3.94104e-05
3.82845e-05
3.71718e-05
3.60689e-05
3.49786e-05
3.39041e-05
3.28542e-05
9.56106e-05
0.000147622
0.000186717
0.000211813
0.000226742
0.000236245
0.000242307
0.000245799
0.000247273
0.000246789
0.000244218
0.000239551
0.000233315
0.000226034
0.000218265
0.000210348
0.00020265
0.000195296
0.000188364
0.000181876
0.000175821
0.000170173
0.000164896
0.000159956
0.000155317
0.000150949
0.000146822
0.00014291
0.000139192
0.000135649
0.000132264
0.000129022
0.000125911
0.000122918
0.000120035
0.000117251
0.000114559
0.000112014
0.000109491
0.00010705
0.000104663
0.000102337
0.000100074
9.78735e-05
9.57244e-05
9.36237e-05
9.15789e-05
8.95842e-05
8.76248e-05
8.57031e-05
8.38297e-05
8.19971e-05
8.01927e-05
7.84178e-05
7.66798e-05
7.49756e-05
7.32952e-05
7.16368e-05
7.00052e-05
6.83986e-05
6.68173e-05
6.52549e-05
6.37042e-05
6.21696e-05
6.06551e-05
5.91588e-05
5.76806e-05
5.6214e-05
5.4753e-05
5.33008e-05
5.18628e-05
5.04531e-05
8.39705e-05
0.00014677
0.000195574
0.000228333
0.000249166
0.000263315
0.000273264
0.000280151
0.000284677
0.00028695
0.000286743
0.000283969
0.00027901
0.000272419
0.00026482
0.000256727
0.000248574
0.000240603
0.000232963
0.000225725
0.00021891
0.000212511
0.000206504
0.000200858
0.000195543
0.000190526
0.00018578
0.000181275
0.000176989
0.000172902
0.000168994
0.00016525
0.000161656
0.000158197
0.000154863
0.000151644
0.00014853
0.00014554
0.000142619
0.000139792
0.000137031
0.000134335
0.000131708
0.000129151
0.000126651
0.000124203
0.000121818
0.00011949
0.000117198
0.000114946
0.000112748
0.000110595
0.000108471
0.000106376
0.000104321
0.000102303
0.000100308
9.83344e-05
9.63876e-05
9.44662e-05
9.25708e-05
9.06939e-05
8.88249e-05
8.69693e-05
8.51324e-05
8.33124e-05
8.15095e-05
7.97156e-05
7.79214e-05
7.61303e-05
7.43495e-05
7.25994e-05
6.61091e-05
0.000139907
0.000199631
0.000241168
0.000268954
0.000288642
0.000303206
0.000314114
0.000322268
0.000327869
0.000330637
0.00033037
0.000327302
0.000321949
0.000314973
0.000307012
0.000298608
0.000290128
0.000281817
0.000273819
0.0002662
0.000258986
0.000252173
0.000245742
0.000239668
0.000233924
0.00022848
0.00022331
0.000218389
0.000213694
0.000209207
0.00020491
0.000200785
0.000196819
0.000192998
0.000189311
0.000185749
0.000182314
0.000178975
0.000175745
0.000172594
0.000169521
0.000166526
0.000163612
0.000160764
0.000157975
0.000155258
0.000152607
0.000149997
0.000147431
0.000144925
0.000142471
0.000140049
0.000137659
0.000135312
0.000133006
0.000130726
0.000128467
0.000126236
0.000124032
0.000121856
0.000119699
0.000117548
0.000115408
0.000113285
0.00011118
0.000109091
0.000107009
0.000104922
0.000102832
0.000100749
9.86987e-05
4.41328e-05
0.000126388
0.000197894
0.000249343
0.000285274
0.00031154
0.000331577
0.000347235
0.000359673
0.000369232
0.000375624
0.000378539
0.00037806
0.000374617
0.000368864
0.000361513
0.000353211
0.000344457
0.00033561
0.000326906
0.000318482
0.000310412
0.000302723
0.000295419
0.000288489
0.000281913
0.000275667
0.000269726
0.000264065
0.000258663
0.0002535
0.000248556
0.000243814
0.000239257
0.000234871
0.000230644
0.000226566
0.000222629
0.000218814
0.000215123
0.000211531
0.000208032
0.000204627
0.000201318
0.000198087
0.000194926
0.000191849
0.00018885
0.000185902
0.000183003
0.000180175
0.000177408
0.00017468
0.000171987
0.000169343
0.000166749
0.000164185
0.000161644
0.000159135
0.000156656
0.00015421
0.000151787
0.000149368
0.000146961
0.000144573
0.000142203
0.000139851
0.000137508
0.000135155
0.000132796
0.000130442
0.000128125
2.40844e-05
0.0001059
0.000189223
0.000251688
0.000297073
0.000331104
0.00035761
0.000378867
0.000396342
0.000410566
0.000421285
0.000428105
0.000430966
0.000430195
0.000426392
0.000420294
0.000412625
0.000403999
0.000394898
0.000385667
0.000376532
0.000367633
0.00035905
0.000350821
0.000342956
0.000335454
0.0003283
0.000321476
0.00031496
0.000308733
0.000302776
0.000297071
0.000291598
0.000286342
0.000281285
0.000276414
0.000271722
0.000267193
0.00026281
0.000258572
0.000254455
0.000250453
0.000246563
0.000242787
0.000239106
0.00023551
0.000232012
0.00022861
0.00022527
0.000221988
0.00021879
0.000215667
0.00021259
0.000209557
0.000206582
0.000203666
0.000200788
0.000197938
0.000195126
0.00019235
0.000189615
0.000186907
0.000184207
0.00018152
0.000178856
0.000176214
0.000173595
0.000170987
0.00016837
0.000165744
0.000163123
0.000160546
1.07303e-05
7.90722e-05
0.000172397
0.000246871
0.000303075
0.000346185
0.0003803
0.000408141
0.000431524
0.000451212
0.000467033
0.000478533
0.000485534
0.00048825
0.000487213
0.000483141
0.000476798
0.000468885
0.00045999
0.000450573
0.000440962
0.000431383
0.000421982
0.000412846
0.000404025
0.000395544
0.000387406
0.000379605
0.000372129
0.000364965
0.000358098
0.00035151
0.000345186
0.000339108
0.00033326
0.000327628
0.000322206
0.000316973
0.000311912
0.000307019
0.000302274
0.000297668
0.000293195
0.000288859
0.000284638
0.000280519
0.000276517
0.00027263
0.00026882
0.000265081
0.00026144
0.000257891
0.0002544
0.000250962
0.000247594
0.000244298
0.00024105
0.000237838
0.000234671
0.000231549
0.000228476
0.000225441
0.000222417
0.00021941
0.000216433
0.000213482
0.000210562
0.000207659
0.000204748
0.000201829
0.000198917
0.000196057
5.51648e-06
4.97642e-05
0.000146548
0.000233518
0.000301801
0.000355372
0.000398372
0.000433926
0.000464219
0.000490288
0.000512078
0.000529111
0.000541106
0.000548174
0.000550775
0.000549589
0.00054539
0.000538929
0.00053088
0.000521801
0.000512124
0.000502168
0.00049216
0.000482253
0.000472549
0.000463111
0.000453973
0.00044515
0.000436646
0.000428459
0.000420582
0.000413005
0.000405715
0.000398698
0.000391939
0.000385424
0.000379149
0.000373092
0.000367233
0.000361568
0.000356078
0.000350754
0.000345587
0.000340583
0.000335716
0.00033097
0.000326363
0.000321894
0.000317519
0.00031323
0.000309057
0.000304994
0.000301005
0.00029708
0.000293238
0.000289484
0.00028579
0.000282142
0.000278549
0.000275012
0.000271535
0.000268106
0.000264695
0.000261308
0.000257956
0.00025464
0.000251362
0.000248109
0.000244853
0.000241591
0.000238339
0.000235146
3.33486e-06
2.50742e-05
0.000112235
0.000210511
0.000291642
0.000356988
0.000410257
0.0004548
0.000493151
0.000526645
0.00055539
0.000578908
0.000596832
0.000609181
0.000616343
0.000618962
0.000617806
0.000613655
0.000607239
0.000599193
0.00059004
0.00058019
0.000569954
0.000559564
0.000549182
0.000538925
0.000528867
0.000519056
0.000509521
0.000500279
0.000491338
0.000482698
0.000474354
0.000466299
0.000458522
0.000451012
0.000443769
0.000436769
0.000429992
0.000423434
0.00041708
0.000410918
0.00040494
0.00039915
0.000393522
0.000388037
0.000382713
0.000377553
0.000372507
0.000367564
0.000362755
0.000358078
0.000353493
0.000348986
0.000344577
0.000340273
0.000336044
0.000331874
0.00032777
0.000323732
0.00031977
0.000315867
0.000311992
0.000308147
0.000304346
0.000300589
0.000296882
0.000293209
0.000289538
0.000285864
0.000282205
0.000278613
2.47184e-06
1.07587e-05
7.33853e-05
0.000177374
0.000271016
0.000349132
0.000414068
0.000469007
0.000516717
0.000558825
0.000595639
0.000626717
0.000651617
0.000670266
0.000682986
0.000690388
0.000693235
0.00069233
0.00068844
0.00068226
0.000674382
0.000665296
0.000655394
0.000644981
0.000634293
0.000623503
0.00061274
0.000602093
0.000591625
0.000581381
0.000571392
0.000561675
0.000552239
0.000543089
0.00053422
0.00052563
0.000517323
0.000509278
0.000501475
0.000493911
0.000486578
0.000479462
0.000472555
0.000465861
0.000459355
0.000453014
0.000446857
0.00044089
0.000435061
0.000429351
0.000423796
0.000418397
0.00041311
0.000407916
0.000402836
0.00039788
0.000393018
0.000388227
0.000383516
0.000378884
0.000374342
0.000369876
0.000365447
0.000361057
0.00035672
0.000352437
0.000348216
0.000344041
0.000339876
0.00033571
0.000331566
0.000327491
2.38113e-06
5.69332e-06
3.90083e-05
0.000134548
0.000238629
0.000329806
0.000407631
0.000474438
0.000532946
0.000585009
0.000631151
0.000671
0.000704056
0.000730148
0.000749529
0.000762778
0.00077066
0.000774
0.000773605
0.000770218
0.00076449
0.000756974
0.00074813
0.000738334
0.000727887
0.000717026
0.000705936
0.000694755
0.000683589
0.000672518
0.000661604
0.00065089
0.000640405
0.00063017
0.000620196
0.000610489
0.000601064
0.000591905
0.000582996
0.000574339
0.00056593
0.000557758
0.000549815
0.000542107
0.000534611
0.0005273
0.000520195
0.000513306
0.000506579
0.000499989
0.000493573
0.000487339
0.000481238
0.000475246
0.000469385
0.00046367
0.000458067
0.000452551
0.000447129
0.000441801
0.000436579
0.00043145
0.00042637
0.000421338
0.00041637
0.000411468
0.000406641
0.000401872
0.000397123
0.000392377
0.00038766
0.000383006
2.53716e-06
3.96793e-06
1.70708e-05
8.49497e-05
0.000193866
0.000297188
0.000388586
0.000468637
0.000539469
0.000602965
0.000659842
0.000709822
0.000752361
0.000787189
0.000814476
0.00083476
0.000848809
0.000857479
0.000861621
0.00086203
0.000859413
0.000854381
0.000847453
0.000839063
0.000829571
0.000819274
0.00080841
0.00079717
0.000785705
0.000774138
0.000762565
0.000751062
0.000739686
0.000728481
0.000717477
0.000706696
0.000696168
0.000685886
0.000675843
0.000666047
0.000656503
0.000647204
0.000638145
0.000629336
0.000620755
0.000612376
0.000604219
0.000596302
0.000588568
0.000580989
0.0005736
0.000566417
0.00055939
0.00055249
0.000545737
0.00053915
0.000532697
0.000526347
0.000520106
0.000513974
0.000507965
0.000502068
0.000496234
0.000490458
0.000484758
0.000479136
0.000473602
0.000468143
0.000462713
0.000457293
0.000451909
0.000446567
2.62368e-06
3.17858e-06
7.84599e-06
4.04869e-05
0.000137671
0.00025014
0.000354696
0.000448907
0.000533518
0.000610013
0.000679163
0.000740781
0.000794291
0.000839316
0.000875921
0.000904589
0.00092608
0.000941285
0.000951105
0.0009564
0.000957936
0.000956386
0.000952327
0.000946246
0.000938557
0.000929609
0.000919688
0.000909035
0.000897845
0.000886283
0.000874485
0.000862562
0.000850602
0.000838678
0.000826845
0.000815148
0.000803634
0.000792312
0.000781188
0.000770281
0.000759607
0.000749165
0.000738959
0.000729001
0.000719277
0.000709762
0.000700476
0.000691446
0.000682617
0.000673954
0.000665495
0.000657261
0.000649205
0.000641291
0.000633539
0.000625972
0.000618559
0.000611267
0.000604098
0.000597054
0.00059015
0.000583377
0.000576683
0.000570058
0.00056352
0.000557073
0.000550729
0.000544476
0.000538266
0.000532071
0.000525922
0.000519772
2.77456e-06
2.86396e-06
4.44233e-06
1.55458e-05
7.70314e-05
0.000189405
0.000304535
0.000412631
0.000512032
0.000603017
0.000686055
0.000760946
0.000827069
0.000883925
0.00093145
0.000970041
0.00100044
0.00102355
0.00104033
0.00105172
0.00105855
0.00106157
0.00106142
0.00105864
0.0010537
0.001047
0.00103888
0.0010296
0.00101942
0.00100853
0.000997114
0.00098531
0.000973243
0.000961017
0.000948714
0.000936405
0.000924159
0.000912007
0.000899972
0.000888087
0.000876382
0.00086487
0.000853561
0.000842478
0.000831616
0.000820951
0.000810508
0.000800322
0.000790345
0.000780539
0.000770939
0.000761576
0.000752407
0.000743393
0.00073455
0.000725907
0.000717437
0.000709104
0.000700907
0.000692847
0.000684943
0.000677189
0.000669531
0.000661953
0.000654473
0.000647096
0.000639837
0.000632685
0.000625592
0.000618521
0.000611508
3.0436e-06
3.00647e-06
3.56593e-06
6.95541e-06
3.1514e-05
0.000119706
0.000238726
0.000358045
0.000471998
0.000578501
0.000676942
0.000766799
0.000847305
0.000917796
0.000978037
0.0010283
0.00106928
0.00110187
0.0011271
0.00114595
0.00115937
0.00116817
0.00117306
0.00117467
0.00117353
0.00117007
0.00116469
0.0011577
0.00114939
0.00113999
0.00112971
0.00111872
0.0011072
0.00109525
0.00108301
0.00107056
0.001058
0.00104539
0.00103276
0.00102017
0.00100766
0.000995274
0.000983021
0.000970939
0.000959034
0.000947294
0.000935743
0.000924428
0.000913314
0.000902361
0.000891601
0.000881077
0.000870753
0.000860588
0.000850595
0.000840808
0.000831207
0.000821755
0.000812448
0.000803287
0.000794293
0.000785465
0.000776748
0.000768123
0.000759605
0.0007512
0.000742925
0.000734775
0.000726698
0.000718654
0.000710678
3.0517e-06
3.04827e-06
3.2841e-06
4.42105e-06
1.15538e-05
5.54957e-05
0.000161358
0.000285646
0.000411298
0.000533015
0.000647858
0.000754238
0.000850938
0.000936999
0.00101194
0.00107586
0.00112932
0.00117322
0.0012086
0.00123652
0.001258
0.00127396
0.00128519
0.00129241
0.0012962
0.00129708
0.00129549
0.00129179
0.00128631
0.00127931
0.00127105
0.00126172
0.00125152
0.0012406
0.00122911
0.00121716
0.00120487
0.00119233
0.0011796
0.00116674
0.00115383
0.0011409
0.00112801
0.00111519
0.00110247
0.00108985
0.00107735
0.00106504
0.00105289
0.00104088
0.00102902
0.00101737
0.00100592
0.000994614
0.000983468
0.000972521
0.000961761
0.000951153
0.000940691
0.000930377
0.000920233
0.000910264
0.00090042
0.000890675
0.000881041
0.000871528
0.000862153
0.000852916
0.000843769
0.000834663
0.000825636
3.00773e-06
3.12187e-06
3.55051e-06
5.72654e-06
1.94342e-05
8.33256e-05
0.00019974
0.000330328
0.000464087
0.000594869
0.000718724
0.000833241
0.000936834
0.00102861
0.00110835
0.00117647
0.00123376
0.00128127
0.00132012
0.0013514
0.00137612
0.00139519
0.0014094
0.00141943
0.00142587
0.00142923
0.00142992
0.00142832
0.00142475
0.00141948
0.00141275
0.00140478
0.00139575
0.00138583
0.00137516
0.00136389
0.00135212
0.00133993
0.00132741
0.00131465
0.0013017
0.00128864
0.00127551
0.00126235
0.00124919
0.00123606
0.00122302
0.00121007
0.0011972
0.00118443
0.00117181
0.00115935
0.00114701
0.00113479
0.00112275
0.00111087
0.00109914
0.00108754
0.00107608
0.00106478
0.00105365
0.00104266
0.00103176
0.00102097
0.0010103
0.000999772
0.000989389
0.000979109
0.000968877
0.000958731
3.07524e-06
3.04824e-06
3.21626e-06
3.95111e-06
7.71427e-06
2.97357e-05
0.000110006
0.00023399
0.000372144
0.000515188
0.000655796
0.000789018
0.000911851
0.00102258
0.00112049
0.00120565
0.0012787
0.00134062
0.00139255
0.00143565
0.00147102
0.00149967
0.0015225
0.00154029
0.0015537
0.00156333
0.00156967
0.00157314
0.00157412
0.00157292
0.00156982
0.00156508
0.0015589
0.00155149
0.001543
0.00153361
0.00152343
0.00151257
0.00150114
0.00148924
0.00147695
0.00146435
0.0014515
0.00143847
0.00142528
0.00141197
0.00139864
0.00138529
0.00137192
0.00135855
0.00134526
0.00133204
0.0013189
0.00130582
0.00129285
0.00128002
0.00126729
0.00125467
0.00124216
0.00122977
0.00121755
0.00120544
0.00119342
0.0011815
0.00116969
0.00115801
0.00114647
0.00113504
0.00112366
0.00111237
3.14926e-06
3.08572e-06
3.13536e-06
3.40225e-06
4.52949e-06
1.01647e-05
4.06145e-05
0.000132706
0.000263151
0.000409528
0.000562441
0.000713261
0.000856119
0.000987593
0.00110597
0.00121071
0.00130214
0.00138105
0.00144855
0.00150582
0.00155405
0.00159435
0.00162772
0.00165504
0.00167709
0.00169453
0.00170796
0.00171786
0.00172466
0.00172875
0.00173045
0.00173004
0.00172779
0.0017239
0.00171859
0.00171203
0.00170438
0.00169576
0.00168629
0.00167609
0.00166526
0.00165389
0.00164206
0.00162985
0.0016173
0.00160447
0.00159143
0.00157823
0.00156489
0.00155142
0.00153789
0.00152435
0.00151078
0.00149719
0.00148363
0.00147013
0.00145667
0.00144327
0.00142992
0.00141665
0.00140349
0.00139043
0.00137742
0.00136449
0.00135163
0.00133888
0.00132625
0.00131373
0.00130125
0.00128884
3.18763e-06
3.17193e-06
3.17467e-06
3.27363e-06
3.62973e-06
5.16476e-06
1.26018e-05
4.99867e-05
0.000149665
0.0002856
0.000440082
0.000602912
0.000764108
0.000916923
0.00105759
0.00118439
0.00129693
0.00139568
0.00148156
0.00155572
0.00161939
0.00167376
0.00171993
0.00175889
0.00179154
0.00181863
0.00184085
0.00185877
0.0018729
0.00188369
0.0018915
0.0018967
0.00189956
0.00190036
0.00189932
0.00189666
0.00189256
0.00188717
0.00188063
0.00187307
0.00186461
0.00185536
0.0018454
0.00183484
0.00182373
0.00181213
0.00180013
0.0017878
0.00177516
0.00176223
0.00174909
0.00173579
0.00172235
0.00170876
0.00169509
0.00168137
0.00166761
0.00165382
0.00164
0.00162618
0.0016124
0.00159866
0.00158493
0.00157122
0.00155755
0.00154392
0.00153038
0.00151692
0.00150348
0.0014901
3.20056e-06
3.20863e-06
3.21462e-06
3.25887e-06
3.37902e-06
3.84585e-06
5.71872e-06
1.45109e-05
5.60359e-05
0.000159297
0.000299178
0.000460787
0.00063306
0.00080464
0.000967837
0.00111847
0.00125472
0.00137625
0.00148358
0.00157769
0.00165975
0.00173101
0.00179264
0.00184575
0.00189132
0.00193025
0.00196329
0.00199113
0.00201436
0.00203349
0.00204899
0.00206125
0.00207063
0.00207742
0.00208192
0.00208436
0.00208496
0.0020839
0.00208136
0.00207747
0.00207239
0.00206623
0.0020591
0.00205111
0.00204234
0.00203285
0.00202274
0.00201209
0.00200095
0.00198933
0.00197733
0.001965
0.00195237
0.00193946
0.00192631
0.00191298
0.0018995
0.00188586
0.0018721
0.00185822
0.00184429
0.00183031
0.00181628
0.00180218
0.00178805
0.0017739
0.00175976
0.00174565
0.00173153
0.00171742
3.2101e-06
3.22121e-06