/*--------------------------------*- C++ -*----------------------------------*\
| =========                 |                                                 |
| \\      /  F ield         | OpenFOAM: The Open Source CFD Toolbox           |
|  \\    /   O peration     | Version:  2412                                  |
|   \\  /    A nd           | Website:  www.openfoam.com                      |
|    \\/     M anipulation  |                                                 |
\*---------------------------------------------------------------------------*/
FoamFile
{
    version     2.0;
    format      ascii;
    arch        "LSB;label=32;scalar=64";
    class       volScalarField;
    location    "300";
    object      nuTilda;
}
// * * * * * * * * * * * * * * * * * * * * * * * * * * * * * * * * * * * * * //

dimensions      [0 2 -1 0 0 0 0];

internalField   nonuniform List<scalar> 
8553
(
1.14764e-06
1.44337e-06
9.49922e-07
5.69371e-07
7.88186e-07
9.34245e-07
1.80785e-06
2.10184e-06
1.99959e-06
1.85649e-06
1.79176e-06
1.75262e-06
1.74241e-06
1.75083e-06
1.76132e-06
1.76176e-06
1.75492e-06
1.74216e-06
1.72643e-06
1.71376e-06
1.70629e-06
1.70235e-06
1.70073e-06
1.69897e-06
1.69609e-06
1.69253e-06
1.68892e-06
1.68598e-06
1.68372e-06
1.68186e-06
1.68003e-06
1.67822e-06
1.67649e-06
1.67485e-06
1.67337e-06
1.67204e-06
1.67081e-06
1.66958e-06
1.66844e-06
1.6674e-06
1.6664e-06
1.66546e-06
1.66453e-06
1.66367e-06
1.66287e-06
1.66209e-06
1.66136e-06
1.66068e-06
1.66005e-06
1.65942e-06
1.65884e-06
1.65832e-06
1.65785e-06
1.65741e-06
1.65702e-06
1.65668e-06
1.65639e-06
1.65613e-06
1.65588e-06
1.65571e-06
1.65559e-06
1.65548e-06
1.65543e-06
1.65538e-06
1.65538e-06
1.6554e-06
1.6554e-06
1.65544e-06
1.65553e-06
1.65562e-06
1.65571e-06
1.65584e-06
1.65596e-06
1.65612e-06
1.65629e-06
1.65651e-06
1.65678e-06
1.6571e-06
1.57653e-06
1.57024e-06
1.5664e-06
1.57817e-06
1.61349e-06
1.6741e-06
1.79922e-06
1.88744e-06
1.67302e-06
9.30471e-07
7.77407e-07
5.44758e-07
7.14492e-07
1.35998e-06
1.30538e-06
3.47706e-06
4.23784e-06
3.01038e-06
1.78835e-06
2.36609e-06
2.94363e-06
5.56947e-06
6.36803e-06
6.09846e-06
5.71708e-06
5.53418e-06
5.4264e-06
5.39879e-06
5.42202e-06
5.44926e-06
5.44855e-06
5.42717e-06
5.38932e-06
5.3439e-06
5.30746e-06
5.28578e-06
5.27426e-06
5.26915e-06
5.26358e-06
5.25479e-06
5.24419e-06
5.23353e-06
5.22479e-06
5.21802e-06
5.21235e-06
5.20688e-06
5.2014e-06
5.1962e-06
5.19134e-06
5.18692e-06
5.18292e-06
5.17916e-06
5.17551e-06
5.17211e-06
5.16895e-06
5.16593e-06
5.1631e-06
5.16037e-06
5.15779e-06
5.15537e-06
5.15306e-06
5.15087e-06
5.14883e-06
5.14687e-06
5.14503e-06
5.14333e-06
5.14177e-06
5.14038e-06
5.13909e-06
5.13793e-06
5.13694e-06
5.13611e-06
5.13537e-06
5.13472e-06
5.13426e-06
5.13394e-06
5.13371e-06
5.13361e-06
5.13357e-06
5.13367e-06
5.1338e-06
5.13395e-06
5.13421e-06
5.13456e-06
5.13496e-06
5.13538e-06
5.1359e-06
5.13641e-06
5.13702e-06
5.13772e-06
5.13852e-06
5.13948e-06
5.14059e-06
4.87211e-06
4.85601e-06
4.84577e-06
4.87863e-06
4.97758e-06
5.14935e-06
5.4871e-06
5.72395e-06
5.14197e-06
2.9447e-06
2.33298e-06
1.70454e-06
2.22323e-06
4.02826e-06
3.83017e-06
5.93205e-06
6.91063e-06
5.3837e-06
3.25106e-06
3.9598e-06
5.51735e-06
9.55319e-06
1.0723e-05
1.03666e-05
9.84457e-06
9.57162e-06
9.41824e-06
9.37943e-06
9.41158e-06
9.44571e-06
9.43962e-06
9.40271e-06
9.34219e-06
9.27247e-06
9.21685e-06
9.18331e-06
9.16512e-06
9.15609e-06
9.14619e-06
9.13152e-06
9.1143e-06
9.09729e-06
9.08326e-06
9.0722e-06
9.06283e-06
9.05383e-06
9.04489e-06
9.03637e-06
9.02851e-06
9.02136e-06
9.0148e-06
9.00864e-06
9.00273e-06
8.99718e-06
8.99198e-06
8.98707e-06
8.98248e-06
8.97808e-06
8.97388e-06
8.96992e-06
8.96617e-06
8.96263e-06
8.9593e-06
8.95615e-06
8.95322e-06
8.95049e-06
8.94798e-06
8.94575e-06
8.94371e-06
8.9419e-06
8.94036e-06
8.93909e-06
8.93803e-06
8.93714e-06
8.93654e-06
8.9362e-06
8.93608e-06
8.93612e-06
8.93631e-06
8.93672e-06
8.93722e-06
8.93781e-06
8.93859e-06
8.93948e-06
8.94051e-06
8.94162e-06
8.94288e-06
8.94419e-06
8.94564e-06
8.94724e-06
8.94902e-06
8.95108e-06
8.95339e-06
8.43094e-06
8.41148e-06
8.39849e-06
8.44679e-06
8.59173e-06
8.84919e-06
9.32032e-06
9.64393e-06
8.79792e-06
5.49944e-06
3.90017e-06
3.06919e-06
4.02527e-06
6.60608e-06
6.24103e-06
8.57826e-06
9.42372e-06
7.94147e-06
5.10842e-06
5.54028e-06
8.92301e-06
1.35988e-05
1.50571e-05
1.47169e-05
1.41639e-05
1.38397e-05
1.36692e-05
1.3625e-05
1.36568e-05
1.36861e-05
1.36708e-05
1.36193e-05
1.3542e-05
1.34569e-05
1.33893e-05
1.33477e-05
1.33245e-05
1.33113e-05
1.32969e-05
1.32771e-05
1.32545e-05
1.32326e-05
1.32145e-05
1.31999e-05
1.31874e-05
1.31754e-05
1.31636e-05
1.31524e-05
1.31421e-05
1.31327e-05
1.3124e-05
1.31158e-05
1.31081e-05
1.31008e-05
1.30939e-05
1.30875e-05
1.30814e-05
1.30757e-05
1.30702e-05
1.3065e-05
1.30601e-05
1.30554e-05
1.30511e-05
1.3047e-05
1.30433e-05
1.30398e-05
1.30366e-05
1.30338e-05
1.30313e-05
1.30291e-05
1.30273e-05
1.30258e-05
1.30248e-05
1.3024e-05
1.30236e-05
1.30236e-05
1.30239e-05
1.30245e-05
1.30254e-05
1.30266e-05
1.30279e-05
1.30295e-05
1.30313e-05
1.30333e-05
1.30355e-05
1.30379e-05
1.30405e-05
1.30433e-05
1.30463e-05
1.30495e-05
1.30529e-05
1.30568e-05
1.3061e-05
1.21858e-05
1.21704e-05
1.216e-05
1.22173e-05
1.23849e-05
1.26922e-05
1.32039e-05
1.35321e-05
1.24944e-05
8.69279e-06
5.44381e-06
4.75428e-06
6.25085e-06
9.01816e-06
8.50011e-06
1.20736e-05
1.18028e-05
1.04974e-05
7.39035e-06
7.11342e-06
1.31058e-05
1.75568e-05
1.9311e-05
1.90945e-05
1.86073e-05
1.8273e-05
1.81111e-05
1.80639e-05
1.80847e-05
1.80992e-05
1.80733e-05
1.80115e-05
1.79264e-05
1.78372e-05
1.77663e-05
1.77214e-05
1.76952e-05
1.76782e-05
1.766e-05
1.76367e-05
1.76109e-05
1.75863e-05
1.75659e-05
1.75492e-05
1.75347e-05
1.75208e-05
1.75072e-05
1.74944e-05
1.74826e-05
1.74719e-05
1.74619e-05
1.74526e-05
1.74437e-05
1.74354e-05
1.74276e-05
1.74203e-05
1.74134e-05
1.74068e-05
1.74006e-05
1.73947e-05
1.73892e-05
1.7384e-05
1.73791e-05
1.73746e-05
1.73704e-05
1.73667e-05
1.73633e-05
1.73604e-05
1.73579e-05
1.73558e-05
1.73542e-05
1.73532e-05
1.73526e-05
1.73525e-05
1.73529e-05
1.73538e-05
1.73552e-05
1.73571e-05
1.73593e-05
1.73619e-05
1.73649e-05
1.73682e-05
1.73718e-05
1.73758e-05
1.73801e-05
1.73848e-05
1.73897e-05
1.73949e-05
1.74005e-05
1.74064e-05
1.74126e-05
1.74194e-05
1.74265e-05
1.60674e-05
1.60622e-05
1.60604e-05
1.61217e-05
1.62892e-05
1.66083e-05
1.70758e-05
1.73207e-05
1.61041e-05
1.24143e-05
6.95972e-06
6.82349e-06
8.93709e-06
1.12481e-05
1.08658e-05
1.64785e-05
1.4114e-05
1.29751e-05
1.00087e-05
8.73142e-06
1.76169e-05
2.13007e-05
2.34541e-05
2.34595e-05
2.31085e-05
2.28011e-05
2.26652e-05
2.26136e-05
2.26139e-05
2.26084e-05
2.25744e-05
2.25098e-05
2.24284e-05
2.23473e-05
2.22818e-05
2.22387e-05
2.22121e-05
2.21926e-05
2.21723e-05
2.21481e-05
2.21222e-05
2.2098e-05
2.20778e-05
2.2061e-05
2.20462e-05
2.20321e-05
2.20184e-05
2.20056e-05
2.19938e-05
2.19831e-05
2.19733e-05
2.1964e-05
2.19552e-05
2.1947e-05
2.19393e-05
2.19321e-05
2.19253e-05
2.19188e-05
2.19127e-05
2.1907e-05
2.19016e-05
2.18966e-05
2.1892e-05
2.18878e-05
2.1884e-05
2.18806e-05
2.18778e-05
2.18755e-05
2.18737e-05
2.18725e-05
2.18719e-05
2.1872e-05
2.18728e-05
2.18741e-05
2.18762e-05
2.18789e-05
2.18824e-05
2.18864e-05
2.18909e-05
2.18961e-05
2.19018e-05
2.1908e-05
2.19147e-05
2.19219e-05
2.19296e-05
2.19378e-05
2.19465e-05
2.19556e-05
2.19652e-05
2.19753e-05
2.1986e-05
2.19972e-05
2.20087e-05
2.00056e-05
2.00135e-05
2.00255e-05
2.00885e-05
2.02381e-05
2.05342e-05
2.08918e-05
2.09712e-05
1.95256e-05
1.63507e-05
8.49733e-06
9.28252e-06
1.18496e-05
1.34519e-05
1.42403e-05
2.16491e-05
1.6458e-05
1.53568e-05
1.26285e-05
1.10612e-05
2.21233e-05
2.48016e-05
2.74728e-05
2.77742e-05
2.75994e-05
2.73476e-05
2.72454e-05
2.71861e-05
2.71603e-05
2.71355e-05
2.70998e-05
2.70428e-05
2.69779e-05
2.69164e-05
2.68647e-05
2.68283e-05
2.68043e-05
2.67847e-05
2.67652e-05
2.67436e-05
2.67216e-05
2.67015e-05
2.66844e-05
2.66701e-05
2.66574e-05
2.66454e-05
2.66339e-05
2.66232e-05
2.66136e-05
2.66048e-05
2.65967e-05
2.65891e-05
2.6582e-05
2.65754e-05
2.65692e-05
2.65634e-05
2.6558e-05
2.6553e-05
2.65482e-05
2.65437e-05
2.65396e-05
2.65359e-05
2.65326e-05
2.65296e-05
2.65272e-05
2.65252e-05
2.65239e-05
2.65232e-05
2.65231e-05
2.65238e-05
2.65252e-05
2.65275e-05
2.65307e-05
2.65347e-05
2.65396e-05
2.65454e-05
2.65521e-05
2.65596e-05
2.65679e-05
2.65771e-05
2.6587e-05
2.65976e-05
2.6609e-05
2.66211e-05
2.6634e-05
2.66476e-05
2.66619e-05
2.66769e-05
2.66927e-05
2.67091e-05
2.67263e-05
2.67441e-05
2.67622e-05
2.39315e-05
2.39513e-05
2.39796e-05
2.40437e-05
2.41643e-05
2.44092e-05
2.46155e-05
2.44632e-05
2.2683e-05
2.02541e-05
1.06654e-05
1.2094e-05
1.46806e-05
1.57303e-05
1.85092e-05
2.74041e-05
1.9451e-05
1.76841e-05
1.51737e-05
1.41741e-05
2.64623e-05
2.81219e-05
3.13597e-05
3.1993e-05
3.20067e-05
3.18295e-05
3.17612e-05
3.16918e-05
3.164e-05
3.16028e-05
3.15752e-05
3.15382e-05
3.15024e-05
3.14707e-05
3.14398e-05
3.14152e-05
3.13972e-05
3.13809e-05
3.13663e-05
3.1352e-05
3.13382e-05
3.13261e-05
3.13158e-05
3.13072e-05
3.12995e-05
3.12924e-05
3.12859e-05
3.12801e-05
3.12749e-05
3.12703e-05
3.12662e-05
3.12625e-05
3.1259e-05
3.12558e-05
3.1253e-05
3.12503e-05
3.12479e-05
3.12457e-05
3.12437e-05
3.1242e-05
3.12406e-05
3.12395e-05
3.12387e-05
3.12383e-05
3.12385e-05
3.12392e-05
3.12406e-05
3.12428e-05
3.12457e-05
3.12496e-05
3.12544e-05
3.12603e-05
3.12672e-05
3.12754e-05
3.12847e-05
3.12951e-05
3.13068e-05
3.13196e-05
3.13335e-05
3.13486e-05
3.13647e-05
3.13819e-05
3.14001e-05
3.14194e-05
3.14397e-05
3.14612e-05
3.14837e-05
3.15072e-05
3.15317e-05
3.15574e-05
3.1584e-05
3.16112e-05
3.16386e-05
2.77774e-05
2.78037e-05
2.78475e-05
2.79123e-05
2.79984e-05
2.81719e-05
2.82095e-05
2.77873e-05
2.56087e-05
2.39833e-05
1.35069e-05
1.48274e-05
1.73518e-05
1.81367e-05
2.35758e-05
3.35515e-05
2.37043e-05
2.00266e-05
1.75918e-05
1.81401e-05
3.05385e-05
3.13409e-05
3.51006e-05
3.60564e-05
3.62496e-05
3.6157e-05
3.61199e-05
3.60415e-05
3.59705e-05
3.59328e-05
3.59257e-05
3.59217e-05
3.59266e-05
3.59326e-05
3.59286e-05
3.59206e-05
3.59129e-05
3.59047e-05
3.59001e-05
3.58982e-05
3.58977e-05
3.58981e-05
3.58985e-05
3.58991e-05
3.59e-05
3.59012e-05
3.59029e-05
3.5905e-05
3.59072e-05
3.59096e-05
3.5912e-05
3.59145e-05
3.59169e-05
3.59194e-05
3.5922e-05
3.59245e-05
3.5927e-05
3.59295e-05
3.59321e-05
3.59348e-05
3.59376e-05
3.59407e-05
3.59441e-05
3.59479e-05
3.59522e-05
3.59572e-05
3.59629e-05
3.59694e-05
3.5977e-05
3.59857e-05
3.59956e-05
3.60068e-05
3.60194e-05
3.60335e-05
3.60492e-05
3.60664e-05
3.60852e-05
3.61056e-05
3.61274e-05
3.61509e-05
3.61758e-05
3.62022e-05
3.62301e-05
3.62594e-05
3.62903e-05
3.63227e-05
3.63567e-05
3.6392e-05
3.64289e-05
3.64673e-05
3.6507e-05
3.65475e-05
3.6588e-05
3.1477e-05
3.15e-05
3.15541e-05
3.16175e-05
3.16671e-05
3.17567e-05
3.16276e-05
3.09347e-05
2.83464e-05
2.74505e-05
1.70654e-05
1.73454e-05
1.99017e-05
2.07942e-05
2.93948e-05
3.98898e-05
2.88992e-05
2.24132e-05
1.98954e-05
2.30422e-05
3.43068e-05
3.45495e-05
3.86618e-05
3.98863e-05
4.02388e-05
4.02348e-05
4.02271e-05
4.01467e-05
4.007e-05
4.00478e-05
4.00748e-05
4.01162e-05
4.01708e-05
4.02208e-05
4.0249e-05
4.02626e-05
4.02704e-05
4.02762e-05
4.02877e-05
4.03039e-05
4.03218e-05
4.03394e-05
4.03548e-05
4.03689e-05
4.03823e-05
4.03957e-05
4.04093e-05
4.04227e-05
4.04356e-05
4.0448e-05
4.04599e-05
4.04714e-05
4.04825e-05
4.04932e-05
4.05035e-05
4.05134e-05
4.05231e-05
4.05325e-05
4.05417e-05
4.05507e-05
4.05598e-05
4.0569e-05
4.05784e-05
4.05882e-05
4.05986e-05
4.06096e-05
4.06215e-05
4.06344e-05
4.06485e-05
4.06641e-05
4.06811e-05
4.06999e-05
4.07205e-05
4.07431e-05
4.07676e-05
4.07942e-05
4.08229e-05
4.08537e-05
4.08866e-05
4.09216e-05
4.09585e-05
4.09976e-05
4.10387e-05
4.10819e-05
4.11272e-05
4.11746e-05
4.12241e-05
4.12756e-05
4.13294e-05
4.13851e-05
4.14427e-05
4.15013e-05
4.15599e-05
3.49709e-05
3.50252e-05
3.50814e-05
3.50934e-05
3.50929e-05
3.4811e-05
3.38861e-05
3.09433e-05
3.06064e-05
2.14002e-05
1.96476e-05
2.24418e-05
2.45329e-05
3.59613e-05
4.62232e-05
3.48139e-05
2.48916e-05
2.20318e-05
2.90973e-05
3.77401e-05
3.77451e-05
4.19824e-05
4.33886e-05
4.38792e-05
4.39652e-05
4.39902e-05
4.39218e-05
4.38584e-05
4.38695e-05
4.39436e-05
4.40407e-05
4.41517e-05
4.42499e-05
4.4315e-05
4.43558e-05
4.43854e-05
4.44122e-05
4.44464e-05
4.44867e-05
4.45285e-05
4.45682e-05
4.46034e-05
4.46355e-05
4.4666e-05
4.46959e-05
4.47255e-05
4.4754e-05
4.47812e-05
4.48071e-05
4.48318e-05
4.48555e-05
4.48782e-05
4.48999e-05
4.49208e-05
4.49408e-05
4.49601e-05
4.49788e-05
4.4997e-05
4.50147e-05
4.50323e-05
4.50498e-05
4.50675e-05
4.50855e-05
4.5104e-05
4.51234e-05
4.51437e-05
4.51654e-05
4.51886e-05
4.52135e-05
4.52404e-05
4.52695e-05
4.53009e-05
4.53349e-05
4.53716e-05
4.54109e-05
4.5453e-05
4.5498e-05
4.55457e-05
4.55962e-05
4.56495e-05
4.57055e-05
4.57644e-05
4.58261e-05
4.58907e-05
4.59582e-05
4.60285e-05
4.61018e-05
4.6178e-05
4.6257e-05
4.63385e-05
4.64215e-05
4.65047e-05
4.65759e-05
4.66789e-05
4.67906e-05
3.81482e-05
3.81886e-05
3.82274e-05
3.81987e-05
3.81054e-05
3.76889e-05
3.66014e-05
3.34382e-05
3.3419e-05
2.66965e-05
2.21192e-05
2.50532e-05
2.92547e-05
4.33232e-05
5.23831e-05
4.12865e-05
2.8477e-05
2.39979e-05
3.48067e-05
4.08229e-05
4.08196e-05
4.4977e-05
4.64615e-05
4.70742e-05
4.72539e-05
4.73221e-05
4.7286e-05
4.72581e-05
4.73199e-05
4.74516e-05
4.76116e-05
4.77826e-05
4.79322e-05
4.80388e-05
4.81132e-05
4.81719e-05
4.82275e-05
4.82914e-05
4.8362e-05
4.84332e-05
4.85001e-05
4.85603e-05
4.86154e-05
4.86679e-05
4.8719e-05
4.8769e-05
4.88169e-05
4.88624e-05
4.89056e-05
4.89467e-05
4.89861e-05
4.90238e-05
4.90598e-05
4.90943e-05
4.91274e-05
4.91592e-05
4.919e-05
4.92198e-05
4.9249e-05
4.92776e-05
4.93061e-05
4.93346e-05
4.93634e-05
4.93929e-05
4.94232e-05
4.94549e-05
4.94881e-05
4.95233e-05
4.95608e-05
4.96008e-05
4.96437e-05
4.96897e-05
4.9739e-05
4.97917e-05
4.98481e-05
4.99081e-05
4.99718e-05
5.00392e-05
5.01104e-05
5.01852e-05
5.02639e-05
5.03462e-05
5.04325e-05
5.05225e-05
5.06165e-05
5.07144e-05
5.08162e-05
5.0922e-05
5.10317e-05
5.11447e-05
5.12601e-05
5.13764e-05
5.14866e-05
5.16301e-05
5.17849e-05
4.0967e-05
4.09763e-05
4.0983e-05
4.09061e-05
4.0718e-05
4.01836e-05
3.90174e-05
3.58061e-05
3.58617e-05
3.17545e-05
2.44058e-05
2.77825e-05
3.49246e-05
5.15939e-05
5.82642e-05
4.82111e-05
3.3134e-05
2.62518e-05
3.98768e-05
4.3539e-05
4.36647e-05
4.75405e-05
4.90046e-05
4.97323e-05
5.00142e-05
5.01436e-05
5.01644e-05
5.0194e-05
5.03206e-05
5.05167e-05
5.07433e-05
5.0976e-05
5.11794e-05
5.13329e-05
5.1448e-05
5.15441e-05
5.16366e-05
5.17374e-05
5.18445e-05
5.19506e-05
5.20501e-05
5.21406e-05
5.22243e-05
5.2304e-05
5.23814e-05
5.24564e-05
5.25283e-05
5.25964e-05
5.26611e-05
5.27227e-05
5.27817e-05
5.2838e-05
5.2892e-05
5.29435e-05
5.2993e-05
5.30406e-05
5.30867e-05
5.31314e-05
5.3175e-05
5.32179e-05
5.32603e-05
5.33028e-05
5.33456e-05
5.33891e-05
5.34339e-05
5.34803e-05
5.35287e-05
5.35797e-05
5.36337e-05
5.36909e-05
5.3752e-05
5.38172e-05
5.38866e-05
5.39607e-05
5.40394e-05
5.4123e-05
5.42114e-05
5.43047e-05
5.4403e-05
5.45062e-05
5.46144e-05
5.47276e-05
5.48458e-05
5.49691e-05
5.50976e-05
5.52314e-05
5.53704e-05
5.55149e-05
5.56645e-05
5.58187e-05
5.59765e-05
5.61366e-05
5.62963e-05
5.6492e-05
5.67017e-05
4.33645e-05
4.33257e-05
4.32825e-05
4.31457e-05
4.28591e-05
4.22192e-05
4.10541e-05
3.79648e-05
3.79408e-05
3.6248e-05
2.65676e-05
3.06478e-05
4.16204e-05
6.09405e-05
6.38441e-05
5.5543e-05
3.88573e-05
2.96147e-05
4.42187e-05
4.58639e-05
4.61558e-05
4.95609e-05
5.09276e-05
5.17714e-05
5.21703e-05
5.23839e-05
5.24858e-05
5.25923e-05
5.27927e-05
5.30559e-05
5.335e-05
5.36449e-05
5.39053e-05
5.41117e-05
5.42757e-05
5.44179e-05
5.45554e-05
5.47e-05
5.48495e-05
5.49961e-05
5.51338e-05
5.52605e-05
5.53785e-05
5.54911e-05
5.56e-05
5.57051e-05
5.58057e-05
5.59012e-05
5.5992e-05
5.60785e-05
5.61613e-05
5.62405e-05
5.63163e-05
5.63889e-05
5.64586e-05
5.65258e-05
5.65908e-05
5.6654e-05
5.67157e-05
5.67765e-05
5.68367e-05
5.68969e-05
5.69575e-05
5.70192e-05
5.70824e-05
5.71478e-05
5.7216e-05
5.72875e-05
5.7363e-05
5.74428e-05
5.75277e-05
5.76179e-05
5.77138e-05
5.78157e-05
5.79238e-05
5.80381e-05
5.81589e-05
5.8286e-05
5.84196e-05
5.85597e-05
5.87063e-05
5.88594e-05
5.90191e-05
5.91855e-05
5.93588e-05
5.95389e-05
5.9726e-05
5.99202e-05
6.01213e-05
6.03287e-05
6.05416e-05
6.07592e-05
6.09825e-05
6.12444e-05
6.15233e-05
4.52814e-05
4.51801e-05
4.50697e-05
4.48582e-05
4.44674e-05
4.37298e-05
4.26272e-05
3.9817e-05
3.96664e-05
3.99528e-05
2.8861e-05
3.46402e-05
4.95157e-05
7.15512e-05
6.91654e-05
6.33369e-05
4.57518e-05
3.42209e-05
4.77001e-05
4.7753e-05
4.81543e-05
5.09324e-05
5.21551e-05
5.31225e-05
5.3657e-05
5.39784e-05
5.41822e-05
5.43788e-05
5.46558e-05
5.4986e-05
5.53467e-05
5.57045e-05
5.6026e-05
5.62926e-05
5.65141e-05
5.67111e-05
5.69014e-05
5.70963e-05
5.7294e-05
5.74867e-05
5.76685e-05
5.78374e-05
5.79958e-05
5.8147e-05
5.8293e-05
5.84337e-05
5.85682e-05
5.86962e-05
5.8818e-05
5.89344e-05
5.90458e-05
5.91524e-05
5.92547e-05
5.93527e-05
5.94471e-05
5.95383e-05
5.96266e-05
5.97127e-05
5.9797e-05
5.98801e-05
5.99626e-05
6.00451e-05
6.01284e-05
6.02132e-05
6.03001e-05
6.039e-05
6.04837e-05
6.05818e-05
6.06851e-05
6.07944e-05
6.09102e-05
6.10331e-05
6.11635e-05
6.13017e-05
6.14479e-05
6.16024e-05
6.17651e-05
6.19362e-05
6.21156e-05
6.23033e-05
6.24995e-05
6.2704e-05
6.29172e-05
6.3139e-05
6.33696e-05
6.36091e-05
6.38579e-05
6.41158e-05
6.43829e-05
6.46586e-05
6.49422e-05
6.5234e-05
6.55381e-05
6.58831e-05
6.62482e-05
4.66628e-05
4.64891e-05
4.62978e-05
4.59976e-05
4.54969e-05
4.46673e-05
4.36635e-05
4.12635e-05
4.10274e-05
4.27858e-05
3.24333e-05
3.99685e-05
5.8994e-05
8.35865e-05
7.42876e-05
7.18065e-05
5.42088e-05
4.01823e-05
5.03638e-05
4.91301e-05
4.9512e-05
5.15665e-05
5.26291e-05
5.37293e-05
5.44174e-05
5.48661e-05
5.51858e-05
5.54782e-05
5.58292e-05
5.6225e-05
5.66511e-05
5.70738e-05
5.74618e-05
5.77965e-05
5.80839e-05
5.8344e-05
5.85941e-05
5.88452e-05
5.90967e-05
5.93414e-05
5.95733e-05
5.97907e-05
5.99957e-05
6.01916e-05
6.03806e-05
6.05625e-05
6.07366e-05
6.09026e-05
6.1061e-05
6.12126e-05
6.13579e-05
6.14973e-05
6.16312e-05
6.176e-05
6.18843e-05
6.20046e-05
6.21216e-05
6.22358e-05
6.2348e-05
6.24589e-05
6.25694e-05
6.26802e-05
6.27922e-05
6.29064e-05
6.30237e-05
6.31451e-05
6.32715e-05
6.34041e-05
6.35437e-05
6.36912e-05
6.38473e-05
6.40127e-05
6.41879e-05
6.43733e-05
6.45691e-05
6.47754e-05
6.49925e-05
6.52202e-05
6.54586e-05
6.57076e-05
6.59674e-05
6.62379e-05
6.65194e-05
6.6812e-05
6.71157e-05
6.7431e-05
6.77581e-05
6.80971e-05
6.84479e-05
6.88103e-05
6.91839e-05
6.95701e-05
6.99754e-05
7.04237e-05
7.08947e-05
4.7462e-05
4.72104e-05
4.69324e-05
4.65339e-05
4.59226e-05
4.50097e-05
4.4115e-05
4.22176e-05
4.19835e-05
4.4794e-05
3.72769e-05
4.67914e-05
7.07752e-05
9.70359e-05
7.92094e-05
8.13652e-05
6.29291e-05
4.58286e-05
5.22199e-05
4.98411e-05
5.00762e-05
5.13999e-05
5.23112e-05
5.35484e-05
5.44017e-05
5.49888e-05
5.54295e-05
5.58168e-05
5.62364e-05
5.66956e-05
5.71867e-05
5.76771e-05
5.81378e-05
5.85483e-05
5.89096e-05
5.92397e-05
5.95556e-05
5.98683e-05
6.0179e-05
6.04813e-05
6.07696e-05
6.10418e-05
6.12997e-05
6.15467e-05
6.17846e-05
6.20138e-05
6.22336e-05
6.24438e-05
6.26449e-05
6.28378e-05
6.30231e-05
6.32014e-05
6.3373e-05
6.35387e-05
6.36991e-05
6.38548e-05
6.40068e-05
6.41558e-05
6.43026e-05
6.44483e-05
6.45938e-05
6.47403e-05
6.48888e-05
6.50405e-05
6.51967e-05
6.53586e-05
6.55275e-05
6.57047e-05
6.58913e-05
6.60883e-05
6.62968e-05
6.65174e-05
6.67507e-05
6.69971e-05
6.7257e-05
6.75304e-05
6.78173e-05
6.81178e-05
6.84318e-05
6.87592e-05
6.91001e-05
6.94545e-05
6.98228e-05
7.02051e-05
7.06015e-05
7.10125e-05
7.14384e-05
7.18795e-05
7.23358e-05
7.28071e-05
7.32938e-05
7.37981e-05
7.43283e-05
7.49027e-05
7.55022e-05
4.73216e-05
4.69565e-05
4.64574e-05
4.57481e-05
4.47712e-05
4.39737e-05
4.26253e-05
4.24487e-05
4.60217e-05
4.1933e-05
5.53563e-05
8.32514e-05
0.000108763
8.38355e-05
9.21104e-05
7.13536e-05
5.07021e-05
5.32445e-05
4.98677e-05
4.97547e-05
5.04001e-05
5.11849e-05
5.2552e-05
5.35682e-05
5.42942e-05
5.48521e-05
5.53281e-05
5.58101e-05
5.63302e-05
5.68866e-05
5.74483e-05
5.79873e-05
5.84799e-05
5.89209e-05
5.93264e-05
5.97126e-05
6.00916e-05
6.04665e-05
6.08319e-05
6.11826e-05
6.15158e-05
6.1833e-05
6.21372e-05
6.24304e-05
6.27133e-05
6.29853e-05
6.32464e-05
6.3497e-05
6.3738e-05
6.39703e-05
6.41945e-05
6.44112e-05
6.46211e-05
6.48251e-05
6.5024e-05
6.52189e-05
6.54107e-05
6.56006e-05
6.57898e-05
6.59795e-05
6.61711e-05
6.6366e-05
6.65657e-05
6.67719e-05
6.69861e-05
6.72098e-05
6.74448e-05
6.76923e-05
6.79536e-05
6.82298e-05
6.85218e-05
6.88301e-05
6.91553e-05
6.94975e-05
6.98568e-05
7.02333e-05
7.06266e-05
7.10367e-05
7.14635e-05
7.19072e-05
7.23676e-05
7.28453e-05
7.33403e-05
7.3853e-05
7.43839e-05
7.49334e-05
7.55017e-05
7.60891e-05
7.66955e-05
7.73219e-05
7.79715e-05
7.86527e-05
7.93785e-05
8.01307e-05
4.58032e-05
4.50243e-05
4.40187e-05
4.32906e-05
4.24791e-05
4.2473e-05
4.64912e-05
4.59429e-05
6.40148e-05
9.53564e-05
0.000118915
8.79727e-05
0.000101033
7.88174e-05
5.41727e-05
5.34421e-05
4.92332e-05
4.85471e-05
4.85727e-05
4.92603e-05
5.07338e-05
5.18923e-05
5.27458e-05
5.34085e-05
5.39637e-05
5.45016e-05
5.50803e-05
5.57019e-05
5.63368e-05
5.69571e-05
5.7535e-05
5.80587e-05
5.85423e-05
5.90017e-05
5.94502e-05
5.98933e-05
6.03268e-05
6.07452e-05
6.11451e-05
6.15274e-05
6.18948e-05
6.22498e-05
6.2593e-05
6.29243e-05
6.32435e-05
6.3551e-05
6.3848e-05
6.41353e-05
6.44138e-05
6.4684e-05
6.4947e-05
6.52037e-05
6.54553e-05
6.57029e-05
6.59478e-05
6.61913e-05
6.6435e-05
6.66804e-05
6.69293e-05
6.71834e-05
6.74447e-05
6.77151e-05
6.79967e-05
6.82913e-05
6.86009e-05
6.8927e-05
6.92713e-05
6.96348e-05
7.00186e-05
7.04233e-05
7.08493e-05
7.12967e-05
7.17655e-05
7.22555e-05
7.27662e-05
7.32975e-05
7.38494e-05
7.44218e-05
7.50149e-05
7.5629e-05
7.62643e-05
7.69213e-05
7.76005e-05
7.83023e-05
7.90271e-05
7.97749e-05
8.05461e-05
8.13419e-05
8.2166e-05
8.30259e-05
8.39293e-05
8.48593e-05
4.46838e-05
4.38758e-05
4.28938e-05
4.21937e-05
4.18033e-05
4.20875e-05
4.6314e-05
4.89962e-05
7.20417e-05
0.000106925
0.000127329
9.04053e-05
0.000108513
8.43866e-05
5.64053e-05
5.28351e-05
4.79306e-05
4.64852e-05
4.59715e-05
4.65837e-05
4.81194e-05
4.9383e-05
5.03393e-05
5.10872e-05
5.17088e-05
5.2296e-05
5.29291e-05
5.36128e-05
5.43188e-05
5.50184e-05
5.56796e-05
5.62845e-05
5.68453e-05
5.73781e-05
5.78973e-05
5.84111e-05
5.89157e-05
5.94057e-05
5.98767e-05
6.0329e-05
6.07653e-05
6.1188e-05
6.15983e-05
6.1996e-05
6.2381e-05
6.27538e-05
6.31154e-05
6.34669e-05
6.38091e-05
6.41431e-05
6.44697e-05
6.47902e-05
6.5106e-05
6.54184e-05
6.5729e-05
6.60395e-05
6.63516e-05
6.66675e-05
6.69891e-05
6.73187e-05
6.76587e-05
6.80116e-05
6.83798e-05
6.87655e-05
6.91711e-05
6.95983e-05
7.00489e-05
7.05242e-05
7.10252e-05
7.15525e-05
7.21065e-05
7.26869e-05
7.32935e-05
7.39259e-05
7.45834e-05
7.52658e-05
7.5973e-05
7.6705e-05
7.74618e-05
7.82439e-05
7.90515e-05
7.9885e-05
8.07449e-05
8.16315e-05
8.25451e-05
8.34857e-05
8.44535e-05
8.54499e-05
8.64782e-05
8.75442e-05
8.86505e-05
8.97814e-05
4.3281e-05
4.25314e-05
4.16308e-05
4.08902e-05
4.06763e-05
4.13232e-05
4.56263e-05
5.0705e-05
7.86092e-05
0.000117725
0.000133551
9.14517e-05
0.000114905
8.76995e-05
5.74254e-05
5.14477e-05
4.59416e-05
4.36471e-05
4.27091e-05
4.32541e-05
4.47904e-05
4.61058e-05
4.71259e-05
4.79319e-05
4.86024e-05
4.92311e-05
4.99101e-05
5.06469e-05
5.14145e-05
5.21836e-05
5.29187e-05
5.35971e-05
5.42295e-05
5.48318e-05
5.54197e-05
5.60033e-05
5.65793e-05
5.7142e-05
5.76863e-05
5.82118e-05
5.8721e-05
5.92167e-05
5.97001e-05
6.01712e-05
6.06298e-05
6.10764e-05
6.1512e-05
6.19378e-05
6.23548e-05
6.2764e-05
6.31667e-05
6.35642e-05
6.39581e-05
6.435e-05
6.47418e-05
6.51356e-05
6.55335e-05
6.5938e-05
6.63517e-05
6.67773e-05
6.72176e-05
6.76757e-05
6.81545e-05
6.86566e-05
6.91844e-05
6.97401e-05
7.03256e-05
7.09423e-05
7.15911e-05
7.22726e-05
7.29868e-05
7.3733e-05
7.45108e-05
7.53194e-05
7.61578e-05
7.70258e-05
7.79231e-05
7.88497e-05
7.98056e-05
8.07912e-05
8.18066e-05
8.28521e-05
8.39279e-05
8.50342e-05
8.61708e-05
8.73372e-05
8.85336e-05
8.97607e-05
9.1021e-05
9.23173e-05
9.36479e-05
9.49985e-05
4.19863e-05
4.14206e-05
4.05779e-05
3.97814e-05
3.94375e-05
4.03393e-05
4.45577e-05
5.14323e-05
8.27141e-05
0.000127249
0.000137012
9.182e-05
0.000120403
8.86252e-05
5.72328e-05
4.92095e-05
4.32801e-05
4.01762e-05
3.89597e-05
3.94376e-05
4.09017e-05
4.22021e-05
4.32362e-05
4.40669e-05
4.47641e-05
4.54203e-05
4.61292e-05
4.69013e-05
4.77112e-05
4.85302e-05
4.93208e-05
5.00573e-05
5.07491e-05
5.14115e-05
5.20609e-05
5.27087e-05
5.33518e-05
5.39843e-05
5.46004e-05
5.51992e-05
5.57831e-05
5.63549e-05
5.69159e-05
5.74662e-05
5.80055e-05
5.85341e-05
5.90532e-05
5.95639e-05
6.00674e-05
6.05648e-05
6.10575e-05
6.1547e-05
6.20352e-05
6.25239e-05
6.30154e-05
6.35121e-05
6.40166e-05
6.45319e-05
6.5061e-05
6.56073e-05
6.61742e-05
6.67651e-05
6.73833e-05
6.80316e-05
6.87129e-05
6.94296e-05
7.01837e-05
7.09764e-05
7.18086e-05
7.26806e-05
7.35918e-05
7.45412e-05
7.55277e-05
7.65502e-05
7.76075e-05
7.86991e-05
7.98248e-05
8.09842e-05
8.21773e-05
8.34043e-05
8.46651e-05
8.59594e-05
8.72873e-05
8.8648e-05
9.00408e-05
9.14644e-05
9.29182e-05
9.4402e-05
9.59161e-05
9.74605e-05
9.90297e-05
0.00010061
4.06942e-05
3.96389e-05
3.97454e-05
4.32546e-05
5.12301e-05
8.41443e-05
0.000135153
0.000137229
9.20203e-05
0.000124767
8.70407e-05
5.58357e-05
4.62904e-05
4.00512e-05
3.63578e-05
3.49621e-05
3.53705e-05
3.66896e-05
3.79033e-05
3.88965e-05
3.97126e-05
4.04091e-05
4.10701e-05
4.1785e-05
4.25652e-05
4.33884e-05
4.42276e-05
4.50461e-05
4.58173e-05
4.65492e-05
4.72559e-05
4.79535e-05
4.86537e-05
4.93537e-05
5.00475e-05
5.07291e-05
5.13969e-05
5.20533e-05
5.27009e-05
5.33412e-05
5.3974e-05
5.45989e-05
5.52163e-05
5.58272e-05
5.64328e-05
5.70343e-05
5.76331e-05
5.82304e-05
5.88281e-05
5.94281e-05
6.00328e-05
6.06447e-05
6.12665e-05
6.19015e-05
6.25529e-05
6.32245e-05
6.39201e-05
6.46437e-05
6.53989e-05
6.61889e-05
6.70174e-05
6.78875e-05
6.88016e-05
6.97617e-05
7.07688e-05
7.18235e-05
7.29254e-05
7.40733e-05
7.52655e-05
7.65006e-05
7.77768e-05
7.90927e-05
8.04477e-05
8.18413e-05
8.32727e-05
8.47417e-05
8.6248e-05
8.77909e-05
8.93695e-05
9.09829e-05
9.26295e-05
9.4307e-05
9.60134e-05
9.77465e-05
9.95044e-05
0.000101285
0.000103085
0.000104896
0.000106705
4.4153e-05
4.20099e-05
4.01572e-05
4.22034e-05
5.03469e-05
8.28803e-05
0.000140781
0.000134235
9.29648e-05
0.000126867
8.36751e-05
5.34222e-05
4.29127e-05
3.643e-05
3.24567e-05
3.10032e-05
3.13534e-05
3.24634e-05
3.35245e-05
3.44238e-05
3.51838e-05
3.58479e-05
3.64864e-05
3.71777e-05
3.79331e-05
3.87342e-05
3.95575e-05
4.037e-05
4.11467e-05
4.18938e-05
4.26236e-05
4.33507e-05
4.40862e-05
4.48274e-05
4.55687e-05
4.63042e-05
4.7032e-05
4.77541e-05
4.8473e-05
4.91899e-05
4.99046e-05
5.06167e-05
5.13264e-05
5.20347e-05
5.27427e-05
5.34519e-05
5.41634e-05
5.48788e-05
5.56001e-05
5.63294e-05
5.70694e-05
5.78228e-05
5.85929e-05
5.93832e-05
6.01977e-05
6.10403e-05
6.19155e-05
6.28272e-05
6.37791e-05
6.47751e-05
6.58193e-05
6.69147e-05
6.80638e-05
6.92681e-05
7.05284e-05
7.18445e-05
7.32154e-05
7.46391e-05
7.61131e-05
7.76354e-05
7.92039e-05
8.08168e-05
8.24733e-05
8.41722e-05
8.59125e-05
8.7693e-05
8.95128e-05
9.13702e-05
9.3263e-05
9.5189e-05
9.7145e-05
9.91272e-05
0.000101132
0.000103154
0.000105191
0.000107236
0.000109284
0.000111324
0.000113343
4.99402e-05
4.66742e-05
4.23105e-05
4.1911e-05
4.90547e-05
7.96954e-05
0.000142357
0.000128869
9.31478e-05
0.000126111
7.91567e-05
5.02401e-05
3.92754e-05
3.27085e-05
2.88137e-05
2.74797e-05
2.77272e-05
2.85845e-05
2.94414e-05
3.02025e-05
3.08704e-05
3.14728e-05
3.20626e-05
3.27016e-05
3.34002e-05
3.4145e-05
3.49177e-05
3.56911e-05
3.64443e-05
3.71817e-05
3.79128e-05
3.86497e-05
3.94016e-05
4.0166e-05
4.09381e-05
4.17127e-05
4.24879e-05
4.32652e-05
4.40466e-05
4.48332e-05
4.56247e-05
4.64209e-05
4.72219e-05
4.80287e-05
4.88425e-05
4.96646e-05
5.04964e-05
5.13397e-05
5.21964e-05
5.30691e-05
5.39606e-05
5.48739e-05
5.58127e-05
5.67809e-05
5.77827e-05
5.88223e-05
5.99041e-05
6.10319e-05
6.221e-05
6.3443e-05
6.47348e-05
6.60883e-05
6.75057e-05
6.89879e-05
7.0535e-05
7.21462e-05
7.38196e-05
7.55522e-05
7.73411e-05
7.91838e-05
8.10776e-05
8.30203e-05
8.50103e-05
8.70461e-05
8.91253e-05
9.12458e-05
9.34053e-05
9.56006e-05
9.78277e-05
0.000100082
0.000102359
0.000104651
0.000106954
0.000109259
0.00011156
0.000113849
0.000116118
0.000118352
0.000120542
7.56954e-05
0.000139086
0.000122322
9.27803e-05
0.000122168
7.37238e-05
4.64411e-05
3.55852e-05
2.9227e-05
2.57665e-05
2.46959e-05
2.48574e-05
2.54391e-05
2.60551e-05
2.6646e-05
2.71992e-05
2.77241e-05
2.825e-05
2.8819e-05
2.94401e-05
3.01059e-05
3.08044e-05
3.15166e-05
3.22269e-05
3.29377e-05
3.36553e-05
3.43878e-05
3.51415e-05
3.59144e-05
3.67028e-05
3.75025e-05
3.83121e-05
3.91327e-05
3.99657e-05
4.08119e-05
4.16714e-05
4.25441e-05
4.34304e-05
4.43313e-05
4.52482e-05
4.61824e-05
4.71357e-05
4.81098e-05
4.91071e-05
5.01302e-05
5.11821e-05
5.22663e-05
5.33866e-05
5.45469e-05
5.57516e-05
5.70049e-05
5.83105e-05
5.96731e-05
6.10976e-05
6.25885e-05
6.41494e-05
6.57827e-05
6.74899e-05
6.92717e-05
7.11272e-05
7.30551e-05
7.50526e-05
7.71161e-05
7.92422e-05
8.14279e-05
8.36699e-05
8.59652e-05
8.83111e-05
9.07049e-05
9.31425e-05
9.56201e-05
9.81333e-05
0.000100676
0.000103242
0.000105825
0.000108415
0.000111003
0.000113581
0.000116139
0.000118667
0.000121154
0.000123588
0.000125956
0.000128248
7.13151e-05
0.000132356
0.000115791
9.20964e-05
0.000115103
6.76743e-05
4.23139e-05
3.21093e-05
2.63951e-05
2.37215e-05
2.30535e-05
2.31617e-05
2.34458e-05
2.37879e-05
2.41748e-05
2.45878e-05
2.50132e-05
2.5502e-05
2.60174e-05
2.65589e-05
2.71442e-05
2.77672e-05
2.84168e-05
2.90833e-05
2.97667e-05
3.04691e-05
3.11939e-05
3.19441e-05
3.27181e-05
3.35138e-05
3.43286e-05
3.5162e-05
3.60147e-05
3.68876e-05
3.77818e-05
3.86975e-05
3.96354e-05
4.05962e-05
4.15813e-05
4.25921e-05
4.36304e-05
4.46981e-05
4.57973e-05
4.69305e-05
4.81007e-05
4.9311e-05
5.0565e-05
5.18666e-05
5.32198e-05
5.46285e-05
5.60966e-05
5.76286e-05
5.92295e-05