/*--------------------------------*- C++ -*----------------------------------*\
| =========                 |                                                 |
| \\      /  F ield         | OpenFOAM: The Open Source CFD Toolbox           |
|  \\    /   O peration     | Version:  2412                                  |
|   \\  /    A nd           | Website:  www.openfoam.com                      |
|    \\/     M anipulation  |                                                 |
\*---------------------------------------------------------------------------*/
FoamFile
{
    version     2.0;
    format      ascii;
    arch        "LSB;label=32;scalar=64";
    class       volScalarField;
    location    "200";
    object      nut;
}
// * * * * * * * * * * * * * * * * * * * * * * * * * * * * * * * * * * * * * //

dimensions      [0 2 -1 0 0 0 0];

internalField   nonuniform List<scalar> 
8637
(
1.17794e-11
1.17685e-11
1.1757e-11
1.17498e-11
1.17438e-11
1.17375e-11
1.17311e-11
1.17253e-11
1.17188e-11
1.17127e-11
1.17077e-11
1.17035e-11
1.16989e-11
1.16932e-11
1.16888e-11
1.16851e-11
1.16812e-11
1.16773e-11
1.16736e-11
1.16707e-11
1.16681e-11
1.16658e-11
1.16631e-11
1.16609e-11
1.16593e-11
1.16583e-11
1.16577e-11
1.16571e-11
1.16567e-11
1.16568e-11
1.16575e-11
1.16584e-11
1.16607e-11
1.16629e-11
1.16657e-11
1.16693e-11
1.1673e-11
1.16777e-11
1.16827e-11
1.16887e-11
1.16959e-11
1.17034e-11
1.17115e-11
1.17207e-11
1.17314e-11
1.1743e-11
1.17553e-11
1.17693e-11
1.17842e-11
1.17996e-11
1.18173e-11
1.18362e-11
1.18571e-11
1.18792e-11
1.19023e-11
1.19277e-11
1.19545e-11
1.19832e-11
1.20136e-11
1.20457e-11
1.20794e-11
1.2114e-11
1.21495e-11
1.21862e-11
1.22233e-11
1.22607e-11
1.22969e-11
1.23318e-11
1.23655e-11
1.23954e-11
1.24217e-11
1.24432e-11
1.24575e-11
1.24642e-11
1.24598e-11
1.24424e-11
1.24106e-11
1.23565e-11
1.22785e-11
1.21683e-11
1.2019e-11
1.1825e-11
1.15637e-11
1.1236e-11
1.07927e-11
1.0227e-11
9.49905e-12
8.51881e-12
1.05017e-09
1.04923e-09
1.0482e-09
1.04764e-09
1.04708e-09
1.04651e-09
1.04596e-09
1.04543e-09
1.04487e-09
1.04436e-09
1.0439e-09
1.04348e-09
1.04305e-09
1.0426e-09
1.0422e-09
1.04183e-09
1.04148e-09
1.04116e-09
1.04085e-09
1.04056e-09
1.04033e-09
1.04012e-09
1.03992e-09
1.03973e-09
1.03959e-09
1.0395e-09
1.03945e-09
1.03942e-09
1.03942e-09
1.03948e-09
1.03958e-09
1.03972e-09
1.03994e-09
1.04016e-09
1.04049e-09
1.04086e-09
1.0413e-09
1.0418e-09
1.04232e-09
1.04296e-09
1.0437e-09
1.04449e-09
1.04536e-09
1.04634e-09
1.04745e-09
1.04863e-09
1.04993e-09
1.05136e-09
1.05291e-09
1.05456e-09
1.05638e-09
1.05836e-09
1.06051e-09
1.06278e-09
1.06523e-09
1.06786e-09
1.07065e-09
1.07365e-09
1.0768e-09
1.0801e-09
1.08355e-09
1.08711e-09
1.09077e-09
1.09451e-09
1.09826e-09
1.102e-09
1.10563e-09
1.10909e-09
1.11236e-09
1.11526e-09
1.11775e-09
1.11968e-09
1.12089e-09
1.12127e-09
1.12052e-09
1.11842e-09
1.11475e-09
1.10886e-09
1.10063e-09
1.08915e-09
1.07384e-09
1.05422e-09
1.02808e-09
9.95732e-10
9.52395e-10
8.97844e-10
8.28969e-10
7.37406e-10
9.04976e-09
9.0419e-09
9.03318e-09
9.02969e-09
9.02489e-09
9.01999e-09
9.01518e-09
9.01052e-09
9.00586e-09
9.00151e-09
8.99749e-09
8.99364e-09
8.98975e-09
8.98596e-09
8.98261e-09
8.97939e-09
8.97631e-09
8.97356e-09
8.97098e-09
8.96859e-09
8.96655e-09
8.96483e-09
8.96325e-09
8.96188e-09
8.96092e-09
8.96041e-09
8.96008e-09
8.96016e-09
8.96072e-09
8.96166e-09
8.96299e-09
8.96488e-09
8.96723e-09
8.97009e-09
8.97372e-09
8.97781e-09
8.98262e-09
8.98804e-09
8.99402e-09
9.00104e-09
9.00882e-09
9.01742e-09
9.0269e-09
9.0374e-09
9.04905e-09
9.06185e-09
9.07567e-09
9.09092e-09
9.10747e-09
9.12524e-09
9.14467e-09
9.1658e-09
9.18846e-09
9.21288e-09
9.239e-09
9.26705e-09
9.29689e-09
9.32866e-09
9.36202e-09
9.39701e-09
9.43343e-09
9.47097e-09
9.50932e-09
9.54817e-09
9.58701e-09
9.62523e-09
9.66219e-09
9.69711e-09
9.72935e-09
9.7576e-09
9.78086e-09
9.79796e-09
9.80713e-09
9.80712e-09
9.79504e-09
9.76866e-09
9.72583e-09
9.66005e-09
9.57062e-09
9.4478e-09
9.28792e-09
9.08631e-09
8.82165e-09
8.50028e-09
8.07624e-09
7.55321e-09
6.9115e-09
6.0749e-09
3.75118e-08
3.74797e-08
3.74447e-08
3.74392e-08
3.74198e-08
3.73998e-08
3.738e-08
3.73605e-08
3.73417e-08
3.7324e-08
3.73074e-08
3.72912e-08
3.72751e-08
3.72599e-08
3.72463e-08
3.72333e-08
3.72211e-08
3.72099e-08
3.71996e-08
3.71909e-08
3.71832e-08
3.71767e-08
3.71715e-08
3.71678e-08
3.71656e-08
3.71652e-08
3.71659e-08
3.71689e-08
3.71742e-08
3.71813e-08
3.71904e-08
3.72023e-08
3.72164e-08
3.72336e-08
3.72539e-08
3.72769e-08
3.73031e-08
3.7333e-08
3.73663e-08
3.74041e-08
3.74461e-08
3.74928e-08
3.75437e-08
3.76e-08
3.76621e-08
3.77301e-08
3.78041e-08
3.78852e-08
3.79731e-08
3.80681e-08
3.81718e-08
3.8284e-08
3.84048e-08
3.85347e-08
3.86734e-08
3.88221e-08
3.89801e-08
3.91474e-08
3.93232e-08
3.95071e-08
3.96972e-08
3.98927e-08
4.00912e-08
4.02911e-08
4.04891e-08
4.06824e-08
4.08672e-08
4.10393e-08
4.11946e-08
4.13271e-08
4.14321e-08
4.15026e-08
4.15298e-08
4.15079e-08
4.14215e-08
4.12624e-08
4.10181e-08
4.06566e-08
4.01795e-08
3.95359e-08
3.87188e-08
3.77064e-08
3.63983e-08
3.48455e-08
3.28307e-08
3.04041e-08
2.75239e-08
2.38478e-08
1.06802e-07
1.06713e-07
1.06622e-07
1.06639e-07
1.06586e-07
1.0653e-07
1.06476e-07
1.06423e-07
1.06372e-07
1.06324e-07
1.06278e-07
1.06234e-07
1.0619e-07
1.0615e-07
1.06113e-07
1.06079e-07
1.06047e-07
1.06019e-07
1.05993e-07
1.05973e-07
1.05955e-07
1.05942e-07
1.05934e-07
1.05931e-07
1.05932e-07
1.0594e-07
1.05952e-07
1.05972e-07
1.05999e-07
1.06033e-07
1.06074e-07
1.06124e-07
1.06183e-07
1.06252e-07
1.06331e-07
1.06421e-07
1.06523e-07
1.06638e-07
1.06765e-07
1.06907e-07
1.07065e-07
1.0724e-07
1.07431e-07
1.07641e-07
1.07871e-07
1.08124e-07
1.08399e-07
1.087e-07
1.09025e-07
1.09378e-07
1.09762e-07
1.10176e-07
1.10623e-07
1.11102e-07
1.11614e-07
1.12161e-07
1.1274e-07
1.13351e-07
1.13992e-07
1.14658e-07
1.15343e-07
1.16044e-07
1.16752e-07
1.17458e-07
1.18151e-07
1.18819e-07
1.19449e-07
1.20025e-07
1.2053e-07
1.20948e-07
1.21258e-07
1.21434e-07
1.21453e-07
1.2129e-07
1.20889e-07
1.20233e-07
1.19279e-07
1.17913e-07
1.16165e-07
1.13849e-07
1.10983e-07
1.07498e-07
1.03071e-07
9.79364e-08
9.13933e-08
8.37031e-08
7.48867e-08
6.38613e-08
2.40497e-07
2.40311e-07
2.40134e-07
2.40263e-07
2.40153e-07
2.40036e-07
2.39923e-07
2.39815e-07
2.39711e-07
2.3961e-07
2.39515e-07
2.39424e-07
2.39337e-07
2.39257e-07
2.39185e-07
2.39119e-07
2.39061e-07
2.39011e-07
2.38969e-07
2.38939e-07
2.38917e-07
2.38909e-07
2.38912e-07
2.38929e-07
2.38958e-07
2.39006e-07
2.39067e-07
2.39148e-07
2.39246e-07
2.39366e-07
2.39507e-07
2.39672e-07
2.39861e-07
2.4008e-07
2.40326e-07
2.40604e-07
2.40915e-07
2.41263e-07
2.41646e-07
2.42073e-07
2.42543e-07
2.43063e-07
2.43629e-07
2.44253e-07
2.44934e-07
2.4568e-07
2.4649e-07
2.47374e-07
2.48332e-07
2.49373e-07
2.50498e-07
2.51714e-07
2.5302e-07
2.5442e-07
2.55913e-07
2.57502e-07
2.59179e-07
2.60942e-07
2.62779e-07
2.64678e-07
2.66622e-07
2.68594e-07
2.70564e-07
2.72512e-07
2.74398e-07
2.76192e-07
2.77851e-07
2.79333e-07
2.80588e-07
2.8157e-07
2.82223e-07
2.82477e-07
2.82272e-07
2.81544e-07
2.80132e-07
2.78024e-07
2.75104e-07
2.71049e-07
2.66026e-07
2.59474e-07
2.51595e-07
2.42187e-07
2.30441e-07
2.17134e-07
2.00486e-07
1.81387e-07
1.6025e-07
1.34304e-07
4.59796e-07
4.59484e-07
4.59224e-07
4.59685e-07
4.595e-07
4.59307e-07
4.59121e-07
4.58942e-07
4.58771e-07
4.58609e-07
4.58456e-07
4.58311e-07
4.58176e-07
4.58057e-07
4.57954e-07
4.57864e-07
4.57793e-07
4.57742e-07
4.57705e-07
4.57695e-07
4.57705e-07
4.57749e-07
4.57815e-07
4.57917e-07
4.58048e-07
4.58221e-07
4.58424e-07
4.58675e-07
4.58968e-07
4.59315e-07
4.59708e-07
4.60161e-07
4.60671e-07
4.61253e-07
4.61898e-07
4.62623e-07
4.63425e-07
4.6432e-07
4.65301e-07
4.66387e-07
4.67579e-07
4.68894e-07
4.70325e-07
4.71898e-07
4.7361e-07
4.75484e-07
4.77518e-07
4.79734e-07
4.82133e-07
4.84737e-07
4.87546e-07
4.90575e-07
4.93822e-07
4.97294e-07
5.00984e-07
5.04893e-07
5.09001e-07
5.13295e-07
5.17739e-07
5.22299e-07
5.26926e-07
5.31576e-07
5.36169e-07
5.40646e-07
5.44912e-07
5.48893e-07
5.5248e-07
5.55579e-07
5.58066e-07
5.59844e-07
5.60785e-07
5.60716e-07
5.59531e-07
5.57091e-07
5.52999e-07
5.47337e-07
5.39828e-07
5.29685e-07
5.17532e-07
5.01921e-07
4.83712e-07
4.62349e-07
4.36148e-07
4.07151e-07
3.71543e-07
3.31686e-07
2.89106e-07
2.3772e-07
7.77329e-07
7.76912e-07
7.7665e-07
7.77879e-07
7.77634e-07
7.77381e-07
7.77141e-07
7.76911e-07
7.76696e-07
7.76495e-07
7.76312e-07
7.76145e-07
7.75998e-07
7.75881e-07
7.75796e-07
7.75738e-07
7.75716e-07
7.75733e-07
7.75783e-07
7.75889e-07
7.76037e-07
7.76251e-07
7.76513e-07
7.7685e-07
7.7725e-07
7.77733e-07
7.78284e-07
7.78936e-07
7.79676e-07
7.8053e-07
7.81483e-07
7.82565e-07
7.83768e-07
7.85123e-07
7.86617e-07
7.88282e-07
7.90114e-07
7.92145e-07
7.94366e-07
7.96816e-07
7.99497e-07
8.02445e-07
8.05652e-07
8.09167e-07
8.12992e-07
8.1717e-07
8.21703e-07
8.26632e-07
8.31964e-07
8.3774e-07
8.43956e-07
8.50642e-07
8.57787e-07
8.65399e-07
8.73451e-07
8.81934e-07
8.90794e-07
8.99986e-07
9.09417e-07
9.19008e-07
9.28633e-07
9.38179e-07
9.47473e-07
9.56372e-07
9.64675e-07
9.72216e-07
9.78774e-07
9.84157e-07
9.88099e-07
9.90435e-07
9.90923e-07
9.89163e-07
9.85064e-07
9.78346e-07
9.68112e-07
9.54869e-07
9.37957e-07
9.15702e-07
8.89924e-07
8.57284e-07
8.20439e-07
7.77919e-07
7.26727e-07
6.71406e-07
6.04745e-07
5.32034e-07
4.57021e-07
3.6795e-07
1.1919e-06
1.1915e-06
1.19146e-06
1.19421e-06
1.19398e-06
1.19376e-06
1.19355e-06
1.19336e-06
1.19319e-06
1.19305e-06
1.19294e-06
1.19285e-06
1.19281e-06
1.19282e-06
1.19288e-06
1.193e-06
1.19318e-06
1.19344e-06
1.19377e-06
1.1942e-06
1.1947e-06
1.19534e-06
1.19607e-06
1.19694e-06
1.19792e-06
1.19908e-06
1.20036e-06
1.20184e-06
1.20349e-06
1.20536e-06
1.20743e-06
1.20975e-06
1.2123e-06
1.21515e-06
1.21828e-06
1.22175e-06
1.22555e-06
1.22974e-06
1.23431e-06
1.23934e-06
1.24483e-06
1.25085e-06
1.2574e-06
1.26457e-06
1.27236e-06
1.28086e-06
1.29006e-06
1.30006e-06
1.31086e-06
1.32252e-06
1.33504e-06
1.34846e-06
1.36274e-06
1.37787e-06
1.39379e-06
1.41044e-06
1.42768e-06
1.44541e-06
1.46341e-06
1.48149e-06
1.49938e-06
1.51683e-06
1.5335e-06
1.54909e-06
1.56323e-06
1.57558e-06
1.58575e-06
1.5934e-06
1.59802e-06
1.59941e-06
1.59714e-06
1.59039e-06
1.57932e-06
1.56336e-06
1.54067e-06
1.51301e-06
1.47882e-06
1.4349e-06
1.38575e-06
1.32435e-06
1.2574e-06
1.18134e-06
1.09149e-06
9.96815e-07
8.84843e-07
7.66201e-07
6.47814e-07
5.09544e-07
1.68564e-06
1.68553e-06
1.68614e-06
1.69168e-06
1.69164e-06
1.69163e-06
1.69165e-06
1.6917e-06
1.69179e-06
1.69192e-06
1.6921e-06
1.69233e-06
1.69263e-06
1.69302e-06
1.6935e-06
1.69408e-06
1.69478e-06
1.69561e-06
1.69656e-06
1.69769e-06
1.69897e-06
1.70047e-06
1.70214e-06
1.70407e-06
1.70621e-06
1.70864e-06
1.71132e-06
1.71435e-06
1.71769e-06
1.72142e-06
1.72552e-06
1.73007e-06
1.73507e-06
1.7406e-06
1.74664e-06
1.75331e-06
1.76059e-06
1.7686e-06
1.77732e-06
1.78689e-06
1.79733e-06
1.80876e-06
1.82118e-06
1.83475e-06
1.8495e-06
1.86554e-06
1.88292e-06
1.90174e-06
1.92201e-06
1.94385e-06
1.9672e-06
1.9921e-06
2.01844e-06
2.04619e-06
2.07515e-06
2.10517e-06
2.13595e-06
2.1672e-06
2.19851e-06
2.22947e-06
2.25956e-06
2.2883e-06
2.31504e-06
2.33928e-06
2.36035e-06
2.37767e-06
2.39066e-06
2.39875e-06
2.40103e-06
2.39749e-06
2.38738e-06
2.3691e-06
2.34376e-06
2.31015e-06
2.26472e-06
2.21225e-06
2.14923e-06
2.07005e-06
1.98446e-06
1.87886e-06
1.76785e-06
1.64366e-06
1.49973e-06
1.35222e-06
1.1808e-06
1.00542e-06
8.35472e-07
6.40671e-07
2.2375e-06
2.23798e-06
2.23855e-06
2.23914e-06
2.23979e-06
2.2405e-06
2.24127e-06
2.24213e-06
2.24307e-06
2.24414e-06
2.24536e-06
2.24672e-06
2.24826e-06
2.24999e-06
2.25194e-06
2.2541e-06
2.25656e-06
2.25929e-06
2.26237e-06
2.26577e-06
2.26959e-06
2.27378e-06
2.27845e-06
2.28358e-06
2.28928e-06
2.29553e-06
2.30244e-06
2.30999e-06
2.31833e-06
2.32744e-06
2.33746e-06
2.3484e-06
2.36041e-06
2.37352e-06
2.38789e-06
2.40354e-06
2.42067e-06
2.43935e-06
2.45976e-06
2.48195e-06
2.50615e-06
2.53241e-06
2.56094e-06
2.59177e-06
2.62506e-06
2.66083e-06
2.69916e-06
2.73995e-06
2.78317e-06
2.82859e-06
2.876e-06
2.92501e-06
2.97522e-06
3.02603e-06
3.07685e-06
3.12688e-06
3.17537e-06
3.22138e-06
3.26407e-06
3.30239e-06
3.33554e-06
3.36247e-06
3.38224e-06
3.39424e-06
3.39751e-06
3.3906e-06
3.3742e-06
3.34701e-06
3.30605e-06
3.25492e-06
3.19096e-06
3.10774e-06
3.01641e-06
2.90935e-06
2.77752e-06
2.64001e-06
2.47232e-06
2.30261e-06
2.11571e-06
1.90303e-06
1.69211e-06
1.4505e-06
1.21428e-06
9.90133e-07
7.39446e-07
2.78713e-06
2.78864e-06
2.7903e-06
2.79202e-06
2.79381e-06
2.79571e-06
2.79771e-06
2.79985e-06
2.80213e-06
2.80462e-06
2.80734e-06
2.81031e-06
2.81355e-06
2.81711e-06
2.82102e-06
2.8253e-06
2.83005e-06
2.83524e-06
2.84099e-06
2.84728e-06
2.85423e-06
2.86181e-06
2.87016e-06
2.87927e-06
2.88931e-06
2.90027e-06
2.9123e-06
2.92542e-06
2.93981e-06
2.95551e-06
2.97271e-06
2.99146e-06
3.012e-06
3.03439e-06
3.05889e-06
3.08558e-06
3.11475e-06
3.14654e-06
3.18124e-06
3.21894e-06
3.25999e-06
3.30448e-06
3.35267e-06
3.40461e-06
3.46048e-06
3.52024e-06
3.58391e-06
3.65121e-06
3.72193e-06
3.79556e-06
3.87157e-06
3.94916e-06
4.02748e-06
4.10541e-06
4.18186e-06
4.25543e-06
4.32482e-06
4.38859e-06
4.44534e-06
4.49355e-06
4.53215e-06
4.55956e-06
4.57458e-06
4.57685e-06
4.56473e-06
4.53619e-06
4.49379e-06
4.43496e-06
4.35449e-06
4.26155e-06
4.1501e-06
4.00931e-06
3.86231e-06
3.69345e-06
3.48927e-06
3.28417e-06
3.03677e-06
2.79593e-06
2.53531e-06
2.24343e-06
1.96586e-06
1.65018e-06
1.36047e-06
1.08694e-06
7.92249e-07
3.29047e-06
3.29373e-06
3.29724e-06
3.30084e-06
3.30456e-06
3.30845e-06
3.31251e-06
3.31678e-06
3.32129e-06
3.32612e-06
3.33132e-06
3.33691e-06
3.34293e-06
3.34945e-06
3.35653e-06
3.36419e-06
3.37258e-06
3.38168e-06
3.39165e-06
3.40248e-06
3.41432e-06
3.42719e-06
3.44126e-06
3.45655e-06
3.4733e-06
3.49152e-06
3.51143e-06
3.5331e-06
3.5568e-06
3.58261e-06
3.61083e-06
3.64157e-06
3.67519e-06
3.71185e-06
3.7519e-06
3.79556e-06
3.84322e-06
3.89515e-06
3.95174e-06
4.0132e-06
4.07995e-06
4.15214e-06
4.23007e-06
4.31374e-06
4.40326e-06
4.49843e-06
4.59902e-06
4.70442e-06
4.81399e-06
4.92668e-06
5.04138e-06
5.15655e-06
5.27063e-06
5.38168e-06
5.48785e-06
5.58691e-06
5.6769e-06
5.75573e-06
5.82137e-06
5.87194e-06
5.90629e-06
5.92205e-06
5.9182e-06
5.89532e-06
5.8503e-06
5.78082e-06
5.69345e-06
5.5828e-06
5.44019e-06
5.28574e-06
5.10635e-06
4.88475e-06
4.66488e-06
4.4164e-06
4.12077e-06
3.83594e-06
3.49578e-06
3.17718e-06
2.84008e-06
2.46627e-06
2.13096e-06
1.74687e-06
1.42586e-06
1.11516e-06
8.01953e-07
3.69915e-06
3.70511e-06
3.71142e-06
3.71788e-06
3.72455e-06
3.73148e-06
3.73868e-06
3.74621e-06
3.75414e-06
3.76255e-06
3.77153e-06
3.7811e-06
3.79134e-06
3.80236e-06
3.81421e-06
3.82699e-06
3.84086e-06
3.85583e-06
3.87211e-06
3.88972e-06
3.90888e-06
3.92962e-06
3.95219e-06
3.97667e-06
4.00337e-06
4.03237e-06
4.06398e-06
4.09836e-06
4.13587e-06
4.17673e-06
4.22133e-06
4.26994e-06
4.32307e-06
4.38101e-06
4.4443e-06
4.51329e-06
4.58857e-06
4.67053e-06
4.7597e-06
4.8564e-06
4.96111e-06
5.07396e-06
5.19521e-06
5.32466e-06
5.46217e-06
5.60712e-06
5.75877e-06
5.91581e-06
6.07681e-06
6.23979e-06
6.40262e-06
6.56268e-06
6.71728e-06
6.86342e-06
6.99823e-06
7.11852e-06
7.22168e-06
7.30508e-06
7.36595e-06
7.40262e-06
7.41426e-06
7.39722e-06
7.35189e-06
7.28076e-06
7.17757e-06
7.04088e-06
6.88461e-06
6.69735e-06
6.46552e-06
6.22877e-06
5.96031e-06
5.63423e-06
5.32784e-06
4.98595e-06
4.58455e-06
4.21647e-06
3.78073e-06
3.38684e-06
2.9838e-06
2.53557e-06
2.16713e-06
1.73064e-06
1.4152e-06
1.08453e-06
7.93811e-07
3.97328e-06
3.98309e-06
3.99336e-06
4.00389e-06
4.01475e-06
4.02601e-06
4.0377e-06
4.04991e-06
4.06273e-06
4.07629e-06
4.09069e-06
4.10598e-06
4.1223e-06
4.13977e-06
4.15851e-06
4.17864e-06
4.20038e-06
4.22379e-06
4.24913e-06
4.27648e-06
4.30613e-06
4.33819e-06
4.37298e-06
4.41069e-06
4.45171e-06
4.49625e-06
4.54475e-06
4.59751e-06
4.65504e-06
4.71773e-06
4.78618e-06
4.86084e-06
4.94243e-06
5.03147e-06
5.12871e-06
5.23472e-06
5.35029e-06
5.47596e-06
5.61239e-06
5.75991e-06
5.91899e-06
6.08956e-06
6.27159e-06
6.46444e-06
6.66729e-06
6.87871e-06
7.09691e-06
7.3194e-06
7.54339e-06
7.76542e-06
7.98188e-06
8.18866e-06
8.3816e-06
8.5565e-06
8.70943e-06
8.83626e-06
8.9342e-06
9.00034e-06
9.03116e-06
9.02672e-06
8.98684e-06
8.90544e-06
8.78753e-06
8.63818e-06
8.44439e-06
8.20913e-06
7.95788e-06
7.66767e-06
7.31834e-06
6.98194e-06
6.60717e-06
6.15716e-06
5.75966e-06
5.32e-06
4.80824e-06
4.36792e-06
3.84983e-06
3.39361e-06
2.95281e-06
2.44819e-06
2.08702e-06
1.62474e-06
1.3601e-06
1.03094e-06
8.93968e-07
4.08703e-06
4.10198e-06
4.11753e-06
4.13349e-06
4.14998e-06
4.16707e-06
4.18484e-06
4.2034e-06
4.2229e-06
4.2435e-06
4.26531e-06
4.28846e-06
4.31313e-06
4.3395e-06
4.36774e-06
4.39803e-06
4.43066e-06
4.46578e-06
4.50371e-06
4.54462e-06
4.58889e-06
4.63676e-06
4.68866e-06
4.74493e-06
4.80612e-06
4.8726e-06
4.945e-06
5.02386e-06
5.1099e-06
5.20379e-06
5.30636e-06
5.41839e-06
5.54087e-06
5.67464e-06
5.82068e-06
5.97983e-06
6.15304e-06
6.34098e-06
6.54427e-06
6.76313e-06
6.99767e-06
7.24732e-06
7.51127e-06
7.78787e-06
8.07503e-06
8.36977e-06
8.66858e-06
8.96702e-06
9.2603e-06
9.54294e-06
9.80941e-06
1.00538e-05
1.02705e-05
1.04544e-05
1.06006e-05
1.07045e-05
1.07646e-05
1.07776e-05
1.07396e-05
1.06555e-05
1.05253e-05
1.03381e-05
1.01106e-05
9.84929e-06
9.52812e-06
9.16238e-06
8.79326e-06
8.37755e-06
7.88662e-06
7.44316e-06
6.95493e-06
6.37193e-06
5.8942e-06
5.36796e-06
4.75521e-06
4.27318e-06
3.7062e-06
3.20808e-06
2.77779e-06
2.24481e-06
1.93978e-06
1.49118e-06
1.33754e-06
1.18971e-06
1.21104e-06
4.03239e-06
4.05384e-06
4.07603e-06
4.0989e-06
4.12257e-06
4.14716e-06
4.17278e-06
4.19959e-06
4.22779e-06
4.25758e-06
4.28915e-06
4.32268e-06
4.35842e-06
4.39662e-06
4.43753e-06
4.48145e-06
4.52873e-06
4.57963e-06
4.63459e-06
4.69393e-06
4.75814e-06
4.82765e-06
4.90307e-06
4.98497e-06
5.07411e-06
5.17113e-06
5.27696e-06
5.39245e-06
5.51868e-06
5.65665e-06
5.80761e-06
5.97271e-06
6.15332e-06
6.3506e-06
6.56582e-06
6.80001e-06
7.05418e-06
7.32887e-06
7.62436e-06
7.9403e-06
8.27589e-06
8.62935e-06
8.9983e-06
9.37918e-06
9.76766e-06
1.01583e-05
1.0545e-05
1.09205e-05
1.12775e-05
1.16082e-05
1.19051e-05
1.21606e-05
1.23681e-05
1.25226e-05
1.26188e-05
1.26528e-05
1.26268e-05
1.25363e-05
1.23778e-05
1.2167e-05
1.19007e-05
1.15597e-05
1.11861e-05
1.07816e-05
1.02971e-05
9.77614e-06
9.27744e-06
8.72522e-06
8.07984e-06
7.53967e-06
6.94841e-06
6.23999e-06
5.71375e-06
5.13309e-06
4.44433e-06
3.97115e-06
3.40935e-06
2.88714e-06
2.53702e-06
2.01425e-06
1.82307e-06
1.59099e-06
1.60226e-06
1.61034e-06
1.81229e-06
3.82089e-06
3.85009e-06
3.88028e-06
3.91151e-06
3.94394e-06
3.97775e-06
4.01309e-06
4.05019e-06
4.0893e-06
4.13072e-06
4.17468e-06
4.22148e-06
4.27144e-06
4.32495e-06
4.38235e-06
4.44407e-06
4.5106e-06
4.58238e-06
4.65998e-06
4.74393e-06
4.83496e-06
4.93373e-06
5.04115e-06
5.15811e-06
5.2857e-06
5.42499e-06
5.57732e-06
5.744e-06
5.92659e-06
6.12662e-06
6.34581e-06
6.58579e-06
6.84833e-06
7.13488e-06
7.44686e-06
7.78525e-06
8.15069e-06
8.54308e-06
8.96166e-06
9.40462e-06
9.86925e-06
1.03514e-05
1.08459e-05
1.1346e-05
1.18441e-05
1.23312e-05
1.27976e-05
1.32333e-05
1.3628e-05
1.39718e-05
1.42562e-05
1.44726e-05
1.4615e-05
1.46804e-05
1.46631e-05
1.45632e-05
1.439e-05
1.4134e-05
1.37953e-05
1.34099e-05
1.29621e-05
1.24191e-05
1.18735e-05
1.13067e-05
1.0632e-05
9.94885e-06
9.33006e-06
8.65144e-06
7.85704e-06
7.25602e-06
6.59679e-06
5.79127e-06
5.2696e-06
4.69035e-06
3.9659e-06
3.56059e-06
3.07628e-06
2.53098e-06
2.3756e-06
2.09744e-06
2.09574e-06
2.05618e-06
2.18907e-06
2.36555e-06
2.49262e-06
3.48294e-06
3.52092e-06
3.56029e-06
3.60121e-06
3.64392e-06
3.68863e-06
3.73557e-06
3.78507e-06
3.83745e-06
3.89311e-06
3.95239e-06
4.01573e-06
4.08359e-06
4.15648e-06
4.23494e-06
4.31957e-06
4.41107e-06
4.51013e-06
4.61755e-06
4.73419e-06
4.86107e-06
4.99929e-06
5.15018e-06
5.31509e-06
5.49565e-06
5.69351e-06
5.91062e-06
6.14895e-06
6.41068e-06
6.69799e-06
7.01314e-06
7.35825e-06
7.73529e-06
8.14576e-06
8.59075e-06
9.0705e-06
9.58444e-06
1.01307e-05
1.07062e-05
1.13062e-05
1.19246e-05
1.25531e-05
1.31824e-05
1.38014e-05
1.43978e-05
1.49586e-05
1.54707e-05
1.59211e-05
1.62978e-05
1.65904e-05
1.67908e-05
1.68908e-05
1.68888e-05
1.67858e-05
1.65741e-05
1.62655e-05
1.58797e-05
1.53915e-05
1.48157e-05
1.42202e-05
1.35565e-05
1.27733e-05
1.20558e-05
1.13323e-05
1.04605e-05
9.63692e-06
8.93898e-06
8.17452e-06
7.25776e-06
6.66183e-06
5.99868e-06
5.1463e-06
4.69079e-06
4.19313e-06
3.48591e-06
3.20312e-06
2.93737e-06
2.70827e-06
2.75309e-06
2.65984e-06
2.7833e-06
2.95771e-06
3.07166e-06
3.07911e-06
2.99016e-06
3.06436e-06
3.11188e-06
3.16135e-06
3.21312e-06
3.26745e-06
3.32465e-06
3.38507e-06
3.44913e-06
3.51729e-06
3.59007e-06
3.66799e-06
3.75167e-06
3.84176e-06
3.939e-06
4.04417e-06
4.15817e-06
4.28201e-06
4.41674e-06
4.56354e-06
4.72375e-06
4.89891e-06
5.0907e-06
5.3011e-06
5.53221e-06
5.78636e-06
6.06608e-06
6.37412e-06
6.71328e-06
7.0865e-06
7.4966e-06
7.94624e-06
8.43766e-06
8.97255e-06
9.55159e-06
1.01744e-05
1.08392e-05
1.15424e-05
1.22786e-05
1.30404e-05
1.38182e-05
1.46003e-05
1.5373e-05
1.61214e-05
1.68291e-05
1.74794e-05
1.80556e-05
1.85421e-05
1.89253e-05
1.91929e-05
1.93376e-05
1.93543e-05
1.92363e-05
1.8994e-05
1.86319e-05
1.81363e-05
1.75488e-05
1.68955e-05
1.61146e-05
1.52663e-05
1.44565e-05
1.3569e-05
1.25301e-05
1.16834e-05
1.0848e-05
9.80589e-06
8.89691e-06
8.19875e-06
7.42487e-06
6.42446e-06
5.92834e-06
5.35589e-06
4.523e-06
4.18982e-06
3.91942e-06
3.55937e-06
3.57779e-06
3.49946e-06
3.46244e-06
3.72795e-06
3.7759e-06
3.866e-06
3.8426e-06
3.74706e-06
3.49505e-06
3.13515e-06
2.62016e-06
2.67767e-06
2.73801e-06
2.80161e-06
2.86886e-06
2.94018e-06
3.01606e-06
3.09709e-06
3.18391e-06
3.27723e-06
3.37783e-06
3.48659e-06
3.60446e-06
3.73251e-06
3.87191e-06
4.02402e-06
4.19032e-06
4.3724e-06
4.57208e-06
4.7914e-06
5.0327e-06
5.29856e-06
5.5919e-06
5.91583e-06
6.27376e-06
6.66926e-06
7.1061e-06
7.58792e-06
8.11827e-06
8.70022e-06
9.33619e-06
1.00275e-05
1.07741e-05
1.15742e-05
1.24238e-05
1.33166e-05
1.42437e-05
1.51934e-05
1.61517e-05
1.7102e-05
1.80258e-05
1.8903e-05
1.97129e-05
2.04346e-05
2.10485e-05
2.15363e-05
2.18835e-05
2.20784e-05
2.21121e-05
2.19867e-05
2.17002e-05
2.12496e-05
2.06727e-05
1.9966e-05
1.91039e-05
1.81973e-05
1.72545e-05
1.61392e-05
1.50334e-05
1.40604e-05
1.29857e-05
1.17095e-05
1.08326e-05
9.98181e-06
8.84297e-06
7.92158e-06
7.33883e-06
6.66892e-06
5.60876e-06
5.3475e-06
5.04563e-06
4.65662e-06
4.68608e-06
4.59889e-06
4.47164e-06
4.74179e-06
4.8578e-06
4.87275e-06
4.96173e-06
4.83233e-06
4.68432e-06
4.3759e-06
3.98875e-06
3.469e-06
2.88753e-06
2.20603e-06
2.27406e-06
2.34612e-06
2.42277e-06
2.50455e-06
2.59206e-06
2.686e-06
2.7872e-06
2.89656e-06
3.01512e-06
3.14402e-06
3.28453e-06
3.43809e-06
3.60627e-06
3.79086e-06
3.9939e-06
4.21763e-06
4.46451e-06
4.73727e-06
5.03907e-06
5.37342e-06
5.74419e-06
6.15559e-06
6.61209e-06
7.11835e-06
7.6791e-06
8.2989e-06
8.98184e-06
9.73122e-06
1.05491e-05
1.14359e-05
1.23898e-05
1.34064e-05
1.44782e-05
1.55944e-05
1.67412e-05
1.79012e-05
1.90542e-05
2.0178e-05
2.12482e-05
2.22392e-05
2.31257e-05
2.38834e-05
2.44898e-05
2.49258e-05
2.51761e-05
2.52321e-05
2.50876e-05
2.47425e-05
2.4218e-05
2.3508e-05
2.26206e-05
2.16482e-05
2.05408e-05
1.92598e-05
1.80642e-05
1.68694e-05
1.54065e-05
1.41456e-05
1.31394e-05
1.1978e-05
1.05113e-05
9.76185e-06
9.05061e-06
7.94657e-06
7.06716e-06
6.77646e-06
6.49037e-06
6.13419e-06
6.08993e-06
5.99101e-06
5.90185e-06
6.31128e-06
6.35959e-06
6.29576e-06
6.39071e-06
6.27214e-06
6.0871e-06
5.84766e-06
5.43208e-06
4.96133e-06
4.36222e-06
3.72175e-06
3.0272e-06
2.35972e-06
1.87031e-06
1.95009e-06
2.03556e-06
2.12745e-06
2.22654e-06
2.3337e-06
2.44995e-06
2.57646e-06
2.71459e-06
2.86583e-06
3.0319e-06
3.2147e-06
3.41639e-06
3.63937e-06
3.88636e-06
4.16045e-06
4.46507e-06
4.80395e-06
5.18125e-06
5.60168e-06
6.0704e-06
6.59292e-06
7.17506e-06
7.82268e-06
8.54154e-06
9.33693e-06
1.02132e-05
1.11734e-05
1.22182e-05
1.3346e-05
1.45517e-05
1.58267e-05
1.7158e-05
1.85287e-05
1.99177e-05
2.13006e-05
2.26498e-05
2.39361e-05
2.51292e-05
2.61987e-05
2.71149e-05
2.78507e-05
2.83827e-05
2.86924e-05
2.87665e-05
2.85986e-05
2.8194e-05
2.75519e-05
2.66928e-05
2.56688e-05
2.44415e-05
2.30656e-05
2.17193e-05
2.02131e-05
1.85243e-05
1.71909e-05
1.58709e-05
1.40688e-05
1.2875e-05
1.20603e-05
1.1002e-05
9.37725e-06
8.98475e-06
8.71234e-06
8.35916e-06
7.99372e-06
7.93342e-06
7.93593e-06
8.21183e-06
8.37967e-06
8.35847e-06
8.30404e-06
8.38753e-06
8.2054e-06
7.9245e-06
7.64813e-06
7.19321e-06
6.67323e-06
6.06531e-06
5.34971e-06
4.60386e-06
3.81332e-06
3.0649e-06
2.35716e-06
1.76333e-06
1.64986e-06
1.74446e-06
1.84708e-06
1.95872e-06
2.08053e-06
2.2138e-06
2.36004e-06
2.521e-06
2.69866e-06
2.8953e-06
3.11349e-06
3.35613e-06
3.62647e-06
3.92819e-06
4.26544e-06
4.64288e-06
5.06567e-06
5.53935e-06
6.07002e-06
6.66442e-06
7.32966e-06
8.07297e-06
8.90149e-06
9.8218e-06
1.08395e-05
1.19584e-05
1.31802e-05
1.45029e-05
1.5921e-05
1.74243e-05
1.89974e-05
2.06198e-05
2.22662e-05
2.39066e-05
2.55077e-05
2.70341e-05
2.8449e-05
2.97166e-05
3.08026e-05
3.16755e-05
3.23069e-05
3.26741e-05
3.27618e-05
3.25625e-05
3.20751e-05
3.13111e-05
3.02977e-05
2.90291e-05
2.75875e-05
2.60444e-05
2.42611e-05
2.2474e-05
2.0921e-05
1.90934e-05
1.71158e-05
1.59733e-05
1.47844e-05
1.26202e-05
1.18585e-05
1.16276e-05
1.13694e-05
1.0598e-05
1.05051e-05
1.0594e-05
1.1099e-05
1.10707e-05
1.11054e-05
1.11378e-05
1.11523e-05
1.10164e-05
1.07472e-05
1.03994e-05
1.0017e-05
9.45256e-06
8.79316e-06
8.08248e-06
7.26524e-06
6.41153e-06
5.52085e-06
4.61458e-06
3.75717e-06
2.94863e-06
2.27842e-06
1.72201e-06
1.38471e-06
1.57358e-06
1.68947e-06
1.81675e-06
1.9569e-06
2.11161e-06
2.28283e-06
2.47284e-06
2.68423e-06
2.92003e-06
3.18366e-06
3.47899e-06
3.81043e-06
4.18289e-06
4.60189e-06
5.07362e-06
5.60495e-06
6.2033e-06
6.87654e-06
7.63302e-06
8.48155e-06
9.43084e-06
1.0489e-05
1.16628e-05
1.29573e-05
1.43746e-05
1.5913e-05
1.75663e-05
1.93224e-05
2.11632e-05
2.30643e-05
2.49954e-05
2.69203e-05
2.87991e-05
3.05886e-05
3.22451e-05
3.37254e-05
3.49891e-05
3.60003e-05
3.67278e-05
3.71468e-05
3.72373e-05
3.69908e-05
3.6407e-05
3.54996e-05
3.42839e-05
3.28118e-05
3.11255e-05
2.91792e-05
2.72566e-05
2.53242e-05
2.30035e-05
2.11526e-05
1.97737e-05
1.77656e-05
1.57691e-05
1.54405e-05
1.51161e-05
1.41529e-05
1.38494e-05
1.4204e-05
1.50039e-05
1.47448e-05
1.47808e-05
1.4898e-05
1.49996e-05
1.47304e-05
1.44803e-05
1.41598e-05
1.36784e-05
1.307e-05
1.23448e-05
1.15208e-05
1.06252e-05
9.62621e-06
8.57467e-06
7.50615e-06
6.43159e-06
5.39025e-06
4.41196e-06
3.50752e-06
2.7462e-06
2.08766e-06
1.67679e-06
1.38174e-06
1.21943e-06
1.67359e-06
1.8226e-06
1.98805e-06
2.17212e-06
2.37736e-06
2.60671e-06
2.86358e-06
3.15189e-06
3.47616e-06
3.84149e-06
4.25369e-06
4.71926e-06
5.24544e-06
5.84023e-06
6.51248e-06
7.2717e-06
8.1279e-06
9.09124e-06
1.01719e-05
1.13796e-05
1.27229e-05
1.42078e-05
1.58372e-05
1.76095e-05
1.95177e-05
2.1548e-05
2.36794e-05
2.58833e-05
2.81234e-05
3.0357e-05
3.25363e-05
3.46101e-05
3.65259e-05
3.82324e-05
3.96816e-05
4.08308e-05
4.16455e-05
4.2099e-05
4.21734e-05
4.18604e-05
4.11565e-05
4.00824e-05
3.86595e-05
3.69331e-05
3.49302e-05
3.28164e-05
3.05698e-05
2.80196e-05
2.60751e-05
2.41278e-05
2.12761e-05
2.02329e-05
1.98637e-05
1.90449e-05
1.82538e-05
1.9132e-05
1.98048e-05
1.95403e-05
1.94798e-05
1.97999e-05
2.00617e-05
1.96818e-05
1.94026e-05
1.90883e-05
1.85736e-05
1.78055e-05
1.70025e-05
1.60854e-05
1.49932e-05
1.38179e-05
1.25649e-05
1.12561e-05
9.93017e-06
8.60254e-06
7.31374e-06
6.09681e-06
4.98635e-06
3.98465e-06
3.14625e-06
2.4218e-06
1.94269e-06
1.5959e-06
1.38448e-06
1.25735e-06
1.21132e-06
1.9997e-06
2.20107e-06
2.4264e-06
2.67892e-06
2.96241e-06
3.28126e-06
3.64052e-06
4.04597e-06
4.50422e-06
5.02271e-06
5.60981e-06
6.27478e-06
7.02774e-06
7.87965e-06
8.84223e-06
9.92753e-06
1.11476e-05
1.25136e-05
1.40354e-05
1.57207e-05
1.75734e-05
1.9592e-05
2.17689e-05
2.40886e-05
2.65272e-05
2.90515e-05
3.16195e-05
3.41811e-05
3.66798e-05
3.9055e-05
4.12446e-05
4.3188e-05
4.48286e-05
4.61165e-05
4.70107e-05
4.74797e-05
4.75105e-05
4.7094e-05
4.62433e-05
4.49724e-05
4.33061e-05
4.13237e-05
3.90714e-05
3.66352e-05
3.39947e-05
3.16909e-05
2.93303e-05
2.64203e-05
2.55926e-05
2.48146e-05
2.39042e-05
2.46469e-05
2.55157e-05
2.55052e-05
2.53533e-05
2.58817e-05
2.62402e-05
2.59223e-05
2.55814e-05
2.53493e-05
2.48864e-05
2.39931e-05
2.30647e-05
2.20193e-05
2.07484e-05
1.93105e-05
1.78231e-05
1.62449e-05
1.45717e-05
1.28963e-05
1.12354e-05
9.62618e-06
8.1066e-06
6.70698e-06
5.4507e-06
4.35127e-06
3.4456e-06
2.67315e-06
2.16382e-06
1.78751e-06
1.54159e-06
1.38599e-06
1.30741e-06
1.28646e-06
1.3173e-06
2.62803e-06
2.90977e-06
3.2263e-06
3.58233e-06
3.98336e-06
4.43575e-06
4.94673e-06
5.52457e-06
6.17858e-06
6.91916e-06
7.75775e-06
8.70679e-06
9.77945e-06
1.09895e-05
1.23508e-05
1.38767e-05
1.55789e-05
1.74664e-05
1.95442e-05
2.18118e-05
2.42613e-05
2.68757e-05
2.96284e-05
3.24817e-05
3.53878e-05
3.8289e-05
4.11198e-05
4.3809e-05
4.62838e-05
4.84725e-05
5.03083e-05
5.17329e-05
5.26984e-05
5.31713e-05
5.31307e-05
5.25725e-05
5.15289e-05
5.00076e-05
4.81077e-05
4.58297e-05
4.32759e-05
4.05833e-05
3.7929e-05
3.53649e-05
3.25878e-05
3.13977e-05
3.0585e-05
3.06307e-05
3.182e-05
3.21574e-05
3.22278e-05
3.27455e-05
3.33735e-05
3.33326e-05
3.30454e-05
3.28939e-05
3.25186e-05
3.16321e-05
3.05917e-05
2.94762e-05
2.80997e-05
2.64215e-05
2.46525e-05
2.27627e-05
2.07226e-05
1.86174e-05
1.65225e-05
1.44411e-05
1.24109e-05
1.05028e-05
8.7406e-06
7.16172e-06
5.77024e-06
4.59819e-06
3.62543e-06
2.83751e-06
2.32304e-06
1.93359e-06
1.67673e-06
1.50762e-06
1.41077e-06
1.37061e-06
1.37717e-06
1.4223e-06
1.501e-06
3.65412e-06
4.05244e-06
4.50037e-06
5.00457e-06
5.57278e-06
6.21383e-06
6.93776e-06
7.75583e-06
8.68056e-06
9.72563e-06
1.09058e-05
1.22363e-05
1.37329e-05
1.54107e-05
1.72835e-05
1.93624e-05
2.16544e-05
2.41602e-05
2.6872e-05
2.97725e-05
3.2833e-05
3.60118e-05
3.92552e-05
4.24979e-05
4.56649e-05
4.86745e-05
5.14416e-05
5.38819e-05
5.59168e-05
5.7477e-05
5.85059e-05
5.89655e-05
5.88318e-05
5.81157e-05
5.68264e-05
5.50216e-05
5.27986e-05
5.0156e-05