/*--------------------------------*- C++ -*----------------------------------*\
| =========                 |                                                 |
| \\      /  F ield         | OpenFOAM: The Open Source CFD Toolbox           |
|  \\    /   O peration     | Version:  2412                                  |
|   \\  /    A nd           | Website:  www.openfoam.com                      |
|    \\/     M anipulation  |                                                 |
\*---------------------------------------------------------------------------*/
FoamFile
{
    version     2.0;
    format      ascii;
    arch        "LSB;label=32;scalar=64";
    class       volScalarField;
    location    "200";
    object      p;
}
// * * * * * * * * * * * * * * * * * * * * * * * * * * * * * * * * * * * * * //

dimensions      [0 2 -2 0 0 0 0];

internalField   nonuniform List<scalar> 
8637
(
25.1588
23.8185
22.4958
21.1979
19.9283
18.6854
17.4742
16.2999
15.168
14.0849
13.0596
12.1004
11.2122
10.3973
9.65477
8.98503
8.38554
7.85109
7.37219
6.95178
6.56412
6.18405
5.85324
5.5454
5.26085
5.01259
4.77948
4.58106
4.40292
4.26481
4.15643
4.07741
4.04407
4.03978
4.09128
4.18978
4.33298
4.53889
4.79999
5.13191
5.53438
6.005
6.5649
7.21111
7.9469
8.78718
9.73443
10.7965
11.9823
13.2972
14.7536
16.3598
18.1211
20.0532
22.1685
24.47
26.9713
29.6923
32.6427
35.8301
39.2736
42.9959
47.0056
51.3164
55.9606
60.9514
66.3085
72.0625
78.2363
84.865
91.9675
99.5932
107.776
116.552
125.992
136.125
147.029
158.769
171.426
185.094
199.864
215.856
233.194
252.017
272.443
294.607
318.583
344.273
25.1588
23.8185
22.4958
21.1979
19.9283
18.6854
17.4742
16.2999
15.168
14.0849
13.0596
12.1004
11.2122
10.3973
9.65477
8.98503
8.38554
7.85109
7.37219
6.95178
6.56412
6.18405
5.85324
5.54541
5.26085
5.01259
4.77948
4.58106
4.40292
4.26481
4.15643
4.07741
4.04407
4.03978
4.09128
4.18978
4.33298
4.53889
4.79999
5.13191
5.53438
6.005
6.5649
7.21112
7.9469
8.78719
9.73444
10.7965
11.9823
13.2972
14.7536
16.3598
18.1211
20.0532
22.1685
24.47
26.9713
29.6923
32.6427
35.8301
39.2736
42.9959
47.0056
51.3164
55.9606
60.9514
66.3085
72.0625
78.2364
84.865
91.9675
99.5932
107.776
116.552
125.992
136.125
147.029
158.769
171.426
185.094
199.864
215.856
233.194
252.017
272.443
294.607
318.583
344.273
25.1588
23.8185
22.4958
21.1979
19.9283
18.6854
17.4742
16.2999
15.168
14.0849
13.0596
12.1004
11.2122
10.3973
9.65477
8.98503
8.38554
7.8511
7.3722
6.95179
6.56412
6.18405
5.85325
5.54541
5.26085
5.0126
4.77949
4.58107
4.40292
4.26482
4.15644
4.07742
4.04408
4.03979
4.09129
4.18979
4.33299
4.5389
4.8
5.13192
5.53439
6.00501
6.56491
7.21113
7.94691
8.7872
9.73445
10.7965
11.9823
13.2972
14.7536
16.3598
18.1211
20.0532
22.1685
24.47
26.9713
29.6923
32.6427
35.8302
39.2737
42.996
47.0056
51.3164
55.9606
60.9515
66.3086
72.0625
78.2364
84.8651
91.9676
99.5933
107.777
116.552
125.992
136.125
147.029
158.77
171.426
185.094
199.865
215.856
233.194
252.018
272.443
294.607
318.583
344.273
25.1588
23.8185
22.4959
21.198
19.9283
18.6854
17.4743
16.3
15.168
14.0849
13.0596
12.1004
11.2122
10.3974
9.65479
8.98505
8.38556
7.85112
7.37221
6.95181
6.56414
6.18407
5.85327
5.54543
5.26087
5.01262
4.77951
4.58109
4.40295
4.26484
4.15646
4.07745
4.0441
4.03982
4.09132
4.18982
4.33302
4.53893
4.80003
5.13196
5.53443
6.00505
6.56495
7.21117
7.94695
8.78724
9.73449
10.7966
11.9823
13.2973
14.7537
16.3598
18.1212
20.0533
22.1685
24.4701
26.9714
29.6924
32.6428
35.8302
39.2738
42.996
47.0057
51.3165
55.9607
60.9516
66.3087
72.0627
78.2365
84.8652
91.9677
99.5934
107.777
116.553
125.992
136.125
147.029
158.77
171.426
185.094
199.865
215.857
233.195
252.018
272.444
294.607
318.584
344.274
25.1588
23.8185
22.4959
21.198
19.9284
18.6855
17.4743
16.3
15.168
14.085
13.0596
12.1004
11.2122
10.3974
9.65483
8.98509
8.3856
7.85116
7.37226
6.95185
6.56419
6.18412
5.85332
5.54548
5.26092
5.01267
4.77956
4.58114
4.403
4.26489
4.15652
4.0775
4.04416
4.03988
4.09138
4.18988
4.33309
4.539
4.8001
5.13203
5.5345
6.00512
6.56503
7.21125
7.94704
8.78733
9.73459
10.7967
11.9824
13.2974
14.7538
16.36
18.1213
20.0534
22.1687
24.4702
26.9716
29.6925
32.643
35.8304
39.2739
42.9962
47.0059
51.3167
55.9609
60.9518
66.3089
72.0629
78.2368
84.8655
91.968
99.5938
107.777
116.553
125.992
136.126
147.03
158.77
171.427
185.095
199.866
215.857
233.196
252.019
272.445
294.609
318.585
344.275
25.1589
23.8186
22.496
21.1981
19.9284
18.6856
17.4744
16.3001
15.1681
14.085
13.0597
12.1005
11.2123
10.3975
9.65491
8.98517
8.38568
7.85124
7.37233
6.95193
6.56427
6.1842
5.8534
5.54556
5.26101
5.01276
4.77965
4.58124
4.4031
4.26499
4.15662
4.07761
4.04427
4.03999
4.09149
4.19
4.33321
4.53913
4.80024
5.13217
5.53465
6.00527
6.56519
7.21141
7.9472
8.78751
9.73477
10.7968
11.9826
13.2976
14.754
16.3602
18.1215
20.0537
22.1689
24.4705
26.9718
29.6928
32.6433
35.8307
39.2743
42.9966
47.0063
51.3171
55.9614
60.9522
66.3094
72.0634
78.2373
84.8661
91.9686
99.5944
107.778
116.554
125.993
136.127
147.031
158.771
171.428
185.096
199.867
215.859
233.197
252.021
272.447
294.611
318.588
344.279
25.159
23.8187
22.4961
21.1982
19.9286
18.6857
17.4745
16.3002
15.1682
14.0852
13.0598
12.1006
11.2124
10.3976
9.65504
8.9853
8.38581
7.85137
7.37247
6.95207
6.56441
6.18434
5.85355
5.54571
5.26116
5.01292
4.77981
4.5814
4.40326
4.26516
4.1568
4.07779
4.04446
4.04018
4.0917
4.19021
4.33343
4.53935
4.80047
5.13241
5.53489
6.00553
6.56545
7.21169
7.94749
8.78781
9.73508
10.7972
11.983
13.2979
14.7544
16.3606
18.1219
20.0541
22.1694
24.471
26.9723
29.6933
32.6438
35.8313
39.2749
42.9972
47.0069
51.3178
55.9621
60.953
66.3102
72.0643
78.2383
84.8671
91.9697
99.5955
107.779
116.555
125.995
136.128
147.032
158.773
171.43
185.099
199.869
215.862
233.2
252.024
272.451
294.616
318.593
344.284
25.1592
23.8189
22.4963
21.1984
19.9288
18.6859
17.4747
16.3004
15.1684
14.0854
13.06
12.1008
11.2126
10.3978
9.65525
8.98551
8.38603
7.85159
7.37269
6.9523
6.56464
6.18458
5.85378
5.54596
5.26141
5.01317
4.78007
4.58167
4.40354
4.26544
4.15709
4.07809
4.04476
4.0405
4.09202
4.19055
4.33377
4.53971
4.80084
5.13279
5.53529
6.00595
6.56588
7.21214
7.94796
8.78829
9.73559
10.7977
11.9835
13.2985
14.755
16.3612
18.1226
20.0548
22.1701
24.4717
26.9731
29.6941
32.6447
35.8322
39.2758
42.9982
47.008
51.3189
55.9633
60.9543
66.3116
72.0657
78.2398
84.8687
91.9714
99.5974
107.781
116.557
125.997
136.131
147.035
158.776
171.433
185.102
199.873
215.866
233.205
252.03
272.457
294.623
318.601
344.293
25.1596
23.8192
22.4966
21.1987
19.9291
18.6862
17.475
16.3007
15.1687
14.0857
13.0604
12.1012
11.213
10.3981
9.65557
8.98584
8.38636
7.85192
7.37303
6.95264
6.56499
6.18493
5.85415
5.54633
5.26179
5.01356
4.78047
4.58207
4.40395
4.26587
4.15753
4.07854
4.04523
4.04098
4.09252
4.19106
4.3343
4.54026
4.80141
5.13338
5.53591
6.00658
6.56654
7.21282
7.94867
8.78903
9.73636
10.7985
11.9844
13.2994
14.7559
16.3621
18.1236
20.0558
22.1712
24.4729
26.9743
29.6954
32.646
35.8336
39.2773
42.9998
47.0096
51.3207
55.9651
60.9562
66.3136
72.0679
78.2421
84.8711
91.974
99.6002
107.784
116.56
126
136.134
147.039
158.781
171.438
185.108
199.879
215.873
233.213
252.038
272.466
294.633
318.613
344.307
25.16
23.8197
22.497
21.1991
19.9295
18.6866
17.4755
16.3011
15.1692
14.0861
13.0608
12.1016
11.2134
10.3986
9.65604
8.98631
8.38684
7.85241
7.37353
6.95314
6.5655
6.18545
5.85468
5.54687
5.26234
5.01412
4.78105
4.58267
4.40456
4.2665
4.15817
4.07921
4.04591
4.04169
4.09325
4.19181
4.33508
4.54107
4.80224
5.13424
5.5368
6.00751
6.56751
7.21383
7.94972
8.79012
9.73749
10.7997
11.9856
13.3007
14.7572
16.3635
18.125
20.0573
22.1728
24.4745
26.9761
29.6972
32.6479
35.8356
39.2794
43.002
47.012
51.3232
55.9678
60.959
66.3166
72.0711
78.2455
84.8748
91.9779
99.6043
107.788
116.565
126.006
136.14
147.045
158.787
171.446
185.116
199.888
215.882
233.224
252.05
272.48
294.648
318.63
344.325
21.1998
19.9302
18.6873
17.4761
16.3018
15.1698
14.0868
13.0615
12.1023
11.2141
10.3992
9.65671
8.98698
8.38752
7.8531
7.37422
6.95385
6.56622
6.18618
5.85542
5.54763
5.26312
5.01492
4.78186
4.5835
4.40542
4.26738
4.15908
4.08014
4.04687
4.04268
4.09427
4.19287
4.33617
4.5422
4.80342
5.13546
5.53806
6.00882
6.56887
7.21524
7.95119
8.79165
9.73909
10.8013
11.9873
13.3025
14.7591
16.3655
18.1271
20.0595
22.1751
24.4769
26.9786
29.6999
32.6507
35.8385
39.2825
43.0052
47.0154
51.3268
55.9716
60.9631
66.3209
72.0756
78.2503
84.8799
91.9834
99.6102
107.795
116.572
126.013
136.148
147.054
158.797
171.456
185.127
199.901
215.896
233.239
252.067
272.499
294.669
318.653
344.351
21.2006
19.931
18.6881
17.477
16.3027
15.1707
14.0877
13.0623
12.1032
11.215
10.4001
9.65761
8.9879
8.38844
7.85404
7.37517
6.95482
6.5672
6.18718
5.85644
5.54867
5.26418
5.016
4.78297
4.58464
4.40659
4.26858
4.16031
4.08141
4.04819
4.04403
4.09567
4.19431
4.33767
4.54375
4.80502
5.13712
5.53979
6.01061
6.57073
7.21717
7.9532
8.79375
9.74127
10.8036
11.9897
13.305
14.7617
16.3682
18.13
20.0625
22.1782
24.4802
26.982
29.7035
32.6545
35.8425
39.2867
43.0097
47.0201
51.3317
55.9768
60.9686
66.3268
72.0819
78.257
84.887
91.991
99.6183
107.803
116.581
126.023
136.159
147.066
158.809
171.47
185.142
199.917
215.915
233.259
252.09
272.524
294.697
318.683
344.384
21.2018
19.9322
18.6893
17.4781
16.3038
15.1719
14.0888
13.0635
12.1043
11.2161
10.4013
9.65881
8.98911
8.38967
7.85528
7.37644
6.9561
6.5685
6.18851
5.85779
5.55005
5.26559
5.01744
4.78445
4.58616
4.40815
4.27018
4.16195
4.0831
4.04993
4.04583
4.09753
4.19623
4.33965
4.5458
4.80715
5.13933
5.54208
6.01299
6.57321
7.21975
7.95589
8.79654
9.74419
10.8067
11.9929
13.3083
14.7652
16.3719
18.1338
20.0665
22.1823
24.4846
26.9866
29.7083
32.6596
35.8479
39.2924
43.0156
47.0264
51.3384
55.9839
60.9761
66.3347
72.0902
78.2659
84.8965
92.0011
99.6292
107.815
116.594
126.036
136.173
147.082
158.827
171.488
185.162
199.939
215.939
233.286
252.119
272.556
294.733
318.722
344.425
21.2033
19.9337
18.6908
17.4796
16.3053
15.1734
14.0903
13.065
12.1058
11.2177
10.4029
9.66037
8.99068
8.39126
7.85689
7.37808
6.95776
6.57019
6.19023
5.85955
5.55184
5.26742
5.01932
4.78636
4.58812
4.41016
4.27225
4.16409
4.0853
4.05219
4.04817
4.09994
4.19873
4.34224
4.54848
4.80993
5.14221
5.54507
6.0161
6.57644
7.22311
7.95939
8.80019
9.74799
10.8106
11.997
13.3126
14.7697
16.3766
18.1387
20.0717
22.1878
24.4903
26.9926
29.7147
32.6663
35.8549
39.2998
43.0235
47.0346
51.3471
55.9931
60.9858
66.345
72.1012
78.2776
84.909
92.0144
99.6434
107.83
116.61
126.054
136.192
147.102
158.849
171.512
185.188
199.968
215.97
233.32
252.157
272.597
294.777
318.77
344.474
21.2052
19.9356
18.6927
17.4815
16.3072
15.1753
14.0922
13.0669
12.1078
11.2196
10.4048
9.66236
8.99269
8.39329
7.85895
7.38016
6.95988
6.57235
6.19242
5.86178
5.55412
5.26976
5.0217
4.78881
4.59063
4.41274
4.2749
4.16681
4.0881
4.05509
4.05115
4.10303
4.20192
4.34554
4.5519
4.81347
5.14589
5.5489
6.02008
6.58057
7.22742
7.96388
8.80487
9.75288
10.8157
12.0023
13.3182
14.7755
16.3827
18.1451
20.0784
22.1949
24.4977
27.0004
29.7229
32.6749
35.864
39.3093
43.0336
47.0453
51.3584
56.005
60.9984
66.3584
72.1154
78.2926
84.9249
92.0314
99.6615
107.85
116.631
126.076
136.216
147.128
158.877
171.543
185.221
200.004
216.009
233.362
252.203
272.647
294.83
318.826
344.533
21.2076
19.938
18.6951
17.4839
16.3096
15.1777
14.0946
13.0694
12.1102
11.2221
10.4073
9.66485
8.9952
8.39584
7.86153
7.38278
6.96254
6.57505
6.19517
5.86459
5.55698
5.27268
5.0247
4.79188
4.59378
4.41597
4.27822
4.17023
4.09163
4.05872
4.05491
4.10691
4.20593
4.34969
4.55621
4.81794
5.15053
5.55372
6.02509
6.58579
7.23286
7.96955
8.81079
9.75906
10.8222
12.0091
13.3253
14.7829
16.3905
18.1533
20.087
22.2038
24.5072
27.0103
29.7333
32.6859
35.8755
39.3215
43.0464
47.0588
51.3726
56.02
61.0143
66.3752
72.1332
78.3116
84.9451
92.0529
99.6844
107.874
116.657
126.104
136.246
147.16
158.911
171.58
185.262
200.048
216.056
233.413
252.257
272.704
294.893
318.891
344.598
21.2105
19.9409
18.698
17.4868
16.3125
15.1806
14.0976
13.0723
12.1132
11.2251
10.4104
9.66792
8.99831
8.39898
7.86471
7.38601
6.96582
6.57839
6.19857
5.86806
5.56052
5.2763
5.0284
4.79567
4.59767
4.41997
4.28234
4.17446
4.09599
4.06322
4.05956
4.11172
4.21091
4.35485
4.56156
4.82349
5.15629
5.55971
6.03133
6.59229
7.23964
7.97662
8.81817
9.76677
10.8303
12.0175
13.3341
14.7922
16.4002
18.1635
20.0977
22.2151
24.5189
27.0227
29.7463
32.6996
35.89
39.3367
43.0624
47.0756
51.3904
56.0388
61.0342
66.3962
72.1554
78.3351
84.97
92.0794
99.7126
107.904
116.689
126.139
136.283
147.2
158.954
171.626
185.311
200.1
216.113
233.475
252.317
272.773
294.966
318.964
344.67
21.2141
19.9445
18.7016
17.4904
16.3161
15.1842
14.1012
13.076
12.1169
11.2288
10.4141
9.67167
9.0021
8.40281
7.8686
7.38995
6.96983
6.58247
6.20272
5.87229
5.56485
5.28073
5.03294
4.80031
4.60244
4.42487
4.28738
4.17965
4.10134
4.06875
4.06527
4.11763
4.21702
4.36118
4.56814
4.83032
5.16339
5.5671
6.03903
6.60031
7.248
7.98536
8.8273
9.77632
10.8403
12.028
13.345
14.8037
16.4122
18.1761
20.1109
22.229
24.5336
27.0381
29.7624
32.7165
35.9078
39.3554
43.0821
47.0964
51.4123
56.0619
61.0586
66.422
72.1827
78.3639
85.0006
92.1118
99.7471
107.941
116.728
126.18
136.327
147.247
159.004
171.68
185.369
200.162
216.179
233.545
252.392
272.853
295.046
319.045
344.749
21.2185
19.9488
18.7059
17.4947
16.3204
15.1885
14.1056
13.0804
12.1213
11.2332
10.4185
9.6762
9.00667
8.40744
7.8733
7.39472
6.97468
6.5874
6.20774
5.87742
5.57009
5.28608
5.03842
4.80593
4.60821
4.43081
4.29349
4.18594
4.10783
4.07545
4.0722
4.12481
4.22446
4.36889
4.57615
4.83865
5.17205
5.57612
6.04843
6.61011
7.25824
7.99605
8.83849
9.78802
10.8525
12.0408
13.3585
14.8178
16.427
18.1916
20.1271
22.246
24.5514
27.0568
29.7822
32.7372
35.9295
39.3783
43.1062
47.1217
51.439
56.0899
61.0881
66.4532
72.2156
78.3988
85.0374
92.1508
99.7884
107.984
116.775
126.229
136.38
147.303
159.064
171.743
185.435
200.233
216.254
233.623
252.476
272.938
295.133
319.132
344.833
21.2236
19.9539
18.711
17.4999
16.3256
15.1937
14.1108
13.0856
12.1265
11.2385
10.4239
9.68161
9.01214
8.41299
7.87892
7.40043
6.98049
6.59331
6.21376
5.88356
5.57637
5.29251
5.04501
4.81269
4.61515
4.43795
4.30084
4.19352
4.11565
4.08354
4.08057
4.13348
4.23344
4.37821
4.58585
4.84874
5.18255
5.58706
6.05984
6.62202
7.27068
8.00906
8.85208
9.80225
10.8674
12.0564
13.3748
14.8349
16.445
18.2104
20.1469
22.2667
24.5731
27.0796
29.806
32.7623
35.9558
39.4059
43.1352
47.1522
51.471
56.1236
61.1236
66.4906
72.255
78.4403
85.0811
92.197
99.8372
108.036
116.829
126.287
136.441
147.367
159.132
171.815
185.511
200.312
216.337
233.711
252.565
273.032
295.228
319.227
344.924
21.2297
19.96
18.7171
17.506
16.3317
15.1999
14.117
13.0918
12.1328
11.2448
10.4303
9.68803
9.01864
8.41956
7.88559
7.40721
6.98739
6.60033
6.22092
5.89088
5.58384
5.30017
5.05286
4.82074
4.62344
4.44648
4.30962
4.20258
4.12501
4.09322
4.0906
4.14388
4.24423
4.38942
4.59751
4.86088
5.19519
5.60025
6.07361
6.63639
7.2857
8.02476
8.86851
9.81943
10.8854
12.0752
13.3945
14.8556
16.4666
18.2331
20.1706
22.2916
24.5992
27.1069
29.8346
32.7923
35.9873
39.4389
43.1697
47.1885
51.5091
56.1636
61.1656
66.5347
72.3013
78.489
85.1323
92.251
99.8939
108.096
116.892
126.353
136.51
147.44
159.208
171.895
185.595
200.401
216.429
233.807
252.665
273.134
295.332
319.33
345.023
21.2369
19.9672
18.7243
17.5131
16.3389
15.2071
14.1242
13.0991
12.1401
11.2522
10.4377
9.69559
9.02629
8.42732
7.89347
7.41521
6.99553
6.60863
6.22939
5.89953
5.5927
5.30925
5.06217
4.8303
4.63327
4.45661
4.32007
4.21337
4.13617
4.10477
4.10257
4.1563
4.25713
4.40282
4.61147
4.87541
5.21034
5.61606
6.09011
6.65363
7.30371
8.0436
8.88821
9.84004
10.9069
12.0978
13.4182
14.8803
16.4924
18.2601
20.1989
22.3212
24.6302
27.1394
29.8686
32.8278
36.0245
39.4779
43.2105
47.2312
51.5539
56.2105
61.2146
66.5861
72.3552
78.5454
85.1914
92.3128
99.9587
108.163
116.963
126.427
136.588
147.521
159.293
171.984
185.689
200.498
216.531
233.912
252.774
273.245
295.445
319.441
345.129
21.2452
19.9755
18.7326
17.5215
16.3473
15.2155
14.1327
13.1076
12.1487
11.2609
10.4465
9.70445
9.03525
8.43641
7.9027
7.42461
7.00511
6.61839
6.23935
5.90972
5.60313
5.31995
5.07316
4.84159
4.6449
4.4686
4.33245
4.22615
4.1494
4.11848
4.11679
4.17107
4.27248
4.41879
4.6281
4.89275
5.22841
5.63492
6.10981
6.67419
7.3252
8.06606
8.91169
9.86459
10.9326
12.1246
13.4462
14.9096
16.5231
18.2922
20.2324
22.3562
24.6668
27.1776
29.9086
32.8696
36.0681
39.5234
43.2581
47.2808
51.6058
56.2646
61.2711
66.6451
72.4167
78.6096
85.2583
92.3827
100.031
108.239
117.042
126.51
136.674
147.612
159.388
172.083
185.791
200.605
216.642
234.028
252.893
273.367
295.568
319.564
345.246
21.2549
19.9852
18.7423
17.5312
16.357
15.2253
14.1425
13.1175
12.1587
11.2709
10.4567
9.71476
9.0457
8.44702
7.91349
7.43559
7.0163
6.62982
6.25102
5.92167
5.61538
5.33252
5.08608
4.85488
4.65861
4.48274
4.34706
4.24126
4.16505
4.13471
4.13364
4.18859
4.29068
4.43773
4.64785
4.91333
5.24986
5.65732
6.13318
6.69859
7.35069
8.09269
8.9395
9.89364
10.963
12.1563
13.4793
14.9442
16.5592
18.3299
20.2717
22.3972
24.7095
27.2222
29.9551
32.918
36.1186
39.576
43.3128
47.3378
51.665
56.3262
61.3352
66.7117
72.4859
78.6816
85.3331
92.4606
100.113
108.324
117.13
126.602
136.77
147.711
159.491
172.191
185.904
200.723
216.764
234.155
253.024
273.502
295.704
319.698
345.374
21.2661
19.9963
18.7535
17.5424
16.3683
15.2366
14.1539
13.129
12.1703
11.2826
10.4685
9.72674
9.05785
8.45936
7.92605
7.44839
7.02937
6.64317
6.26466
5.93566
5.62973
5.34726
5.10125
4.87049
4.67472
4.49939
4.36427
4.25907
4.18351
4.15387
4.15354
4.20928
4.3122
4.46012
4.67119
4.93765
5.27521
5.68377
6.16078
6.72738
7.38074
8.12405
8.97222
9.92778
10.9986
12.1935
13.518
14.9845
16.6013
18.3737
20.3174
22.4447
24.759
27.2737
30.0085
32.9735
36.1762
39.6358
43.3748
47.4021
51.7318
56.3954
61.4069
66.7861
72.5631
78.7617
85.4162
92.547
100.202
108.417
117.228
126.703
136.875
147.821
159.606
172.31
186.028
200.852
216.899
234.295
253.169
273.65
295.855
319.847
345.516
21.2789
20.0091
18.7663
17.5553
16.3812
15.2496
14.167
13.1422
12.1836
11.2961
10.4822
9.74062
9.07193
8.4737
7.94065
7.46328
7.04459
6.65873
6.28058
5.952
5.64651
5.36452
5.11903
4.88881
4.69364
4.51894
4.3845
4.28003
4.20524
4.17642
4.17697
4.23365
4.33754
4.48649
4.69867
4.96628
5.30503
5.71486
6.19319
6.76116
7.41596
8.16077
9.01048
9.96762
11.0401
12.2367
13.563
15.0314
16.6499
18.4243
20.3699
22.4992
24.8154
27.3322
30.0691
33.0362
36.2411
39.703
43.4443
47.474
51.8062
56.4724
61.4866
66.8687
72.6487
78.8505
85.5083
92.6426
100.302
108.52
117.335
126.814
136.992
147.942
159.732
172.442
186.166
200.996
217.049
234.45
253.33
273.816
296.022
320.012
345.671
21.2936
20.0238
18.781
17.5701
16.3961
15.2646
14.1821
13.1575
12.199
11.3117
10.498
9.75669
9.08826
8.49032
7.95761
7.48059
7.0623
6.67686
6.29915
5.97108
5.66611
5.38471
5.13983
4.91026
4.71582
4.54188
4.40825
4.30462
4.23075
4.20291
4.20449
4.26227
4.36729
4.51743
4.7309
4.99982
5.33994
5.75123
6.23107
6.80056
7.45697
8.20347
9.05489
10.0139
11.0881
12.2866
13.6148
15.085
16.7055
18.4818
20.4295
22.5607
24.879
27.3979
30.137
33.1063
36.3135
39.7778
43.5216
47.5538
51.8888
56.5577
61.5749
66.9602
72.7434
78.9487
85.61
92.7483
100.411
108.634
117.454
126.938
137.12
148.077
159.873
172.589
186.319
201.156
217.216
234.624
253.509
273.999
296.207
320.194
345.842
21.3104
20.0407
18.798
17.5871
16.4132
15.2818
14.1995
13.1751
12.2168
11.3297
10.5163
9.77527
9.10716
8.50959
7.97728
7.50071
7.08291
6.69797
6.32079
5.99333
5.689
5.40829
5.16416
4.93535
4.74177
4.56873
4.43606
4.33343
4.26063
4.23394
4.23671
4.29576
4.40208
4.55359
4.76854
5.03895
5.38061
5.79353
6.27501
6.84622
7.50464
8.25284
9.10613
10.067
11.1431
12.3434
13.6736
15.1458
16.7682
18.5466
20.4963
22.6296
24.9501
27.4711
30.2125
33.1842
36.3939
39.8608
43.6072
47.6422
51.9803
56.6523
61.6726
67.0614
72.8482
79.0574
85.7227
92.8653
100.533
108.761
117.586
127.075
137.264
148.226
160.029
172.753
186.491
201.335
217.402
234.818
253.709
274.204
296.412
320.395
346.029
21.3297
20.06
18.8174
17.6066
16.4329
15.3016
14.2196
13.1953
12.2373
11.3505
10.5374
9.79677
9.12905
8.53194
8.00012
7.52407
7.10688
6.72256
6.346
6.01929
5.71571
5.43582
5.19258
4.96467
4.77211
4.60011
4.46857
4.3671
4.29556
4.27017
4.27431
4.33483
4.44263
4.5957
4.81227
5.0843
5.42773
5.8427
6.32584
6.89914
7.55908
8.30924
9.16443
10.1271
11.2052
12.4075
13.7396
15.2138
16.8383
18.6188
20.5706
22.7061
25.0289
27.5524
30.2963
33.2705
36.4829
39.9527
43.702
47.7401
52.0815
56.7569
61.7809
67.1735
72.9644
79.1779
85.8478
92.9954
100.668
108.902
117.733
127.228
137.424
148.394
160.204
172.936
186.682
201.535
217.611
235.034
253.932
274.431
296.64
320.616
346.232
21.3517
20.0821
18.8396
17.629
16.4555
15.3244
14.2426
13.2187
12.261
11.3745
10.5618
9.82165
9.1544
8.55785
8.02663
7.55122
7.13475
6.75117
6.37535
6.04953
5.74685
5.46794
5.22575
4.99889
4.80752
4.63674
4.5065
4.40637
4.33626
4.31239
4.31809
4.38022
4.48965
4.64443
4.86298
5.13691
5.48256
5.89871
6.38385
6.95929
7.62052
8.37296
9.23003
10.1947
11.2748
12.479
13.8132
15.2895
16.9162
18.6989
20.653
22.7909
25.1162
27.6424
30.3889
33.366
36.5814
40.0544
43.807
47.8485
52.1936
56.8729
61.901
67.2981
73.0936
79.3121
85.9872
93.1405
100.82
109.059
117.897
127.4
137.603
148.581
160.401
173.141
186.896
201.758
217.843
235.274
254.179
274.682
296.891
320.859
346.453
21.377
20.1075
18.8652
17.6548
16.4815
15.3507
14.2692
13.2456
12.2883
11.4022
10.5901
9.85043
9.18377
8.58789
8.05739
7.58274
7.16715
6.78445
6.40952
6.08476
5.78313
5.50537
5.26441
5.03878
4.8488
4.67941
4.55067
4.45208
4.38359
4.36135
4.36869
4.43273
4.5443
4.70106
4.92114
5.19688
5.54478
5.96165
6.44938
7.02669
7.68992
8.44437
9.30332
10.27
11.3521
12.5584
13.8948
15.3734
17.0023
18.7875
20.7442
22.8846
25.2127
27.7418
30.4914
33.4716
36.6904
40.167
43.9233
47.9687
52.3182
57.002
62.0347
67.4369
73.2379
79.4622
86.1432
93.3031
100.989
109.236
118.082
127.593
137.805
148.792
160.62
173.371
187.136
202.008
218.102
235.542
254.454
274.961
297.167
321.124
346.691
21.4061
20.1367
18.8946
17.6844
16.5113
15.3809
14.2998
13.2767
12.3198
11.4342
10.6227
9.88373
9.21777
8.62272
8.09308
7.61934
7.20482
6.82318
6.44928
6.12579
5.82538
5.54896
5.30943
5.08521
4.89684
4.72904
4.60197
4.505
4.43827
4.41817
4.42751
4.49381
4.60632
4.7653
4.98661
5.26448
5.61428
6.03298
6.52297
7.10198
7.76713
8.52358
9.38455
10.3533
11.4376
12.6462
13.9849
15.4659
17.0974
18.8853
20.8449
22.9881
25.3194
27.8519
30.6049
33.5887
36.8114
40.2922
44.0528
48.1028
52.4573
57.1462
62.1844
67.5925
73.3996
79.6305
86.3183
93.4857
101.179
109.434
118.289
127.809
138.03
149.027
160.866
173.628
187.403
202.286
218.391
235.84
254.759
275.268
297.47
321.411
346.944
21.4393
20.1702
18.9283
17.7185
16.5457
15.4157
14.3351
13.3124
12.3561
11.4712
10.6604
9.92225
9.25715
8.6631
8.1345
7.66186
7.24861
6.86822
6.49553
6.17353
5.87455
5.59968
5.36183
5.13921
4.95256
4.78638
4.66131
4.56659
4.50217
4.48309
4.49431
4.56269
4.67583
4.83736
5.06041
5.34062
5.69194
6.11246
6.60446
7.1853
7.85245
8.61107
9.47419
10.4452
11.5319
12.7429
14.0843
15.568
17.2023
18.9934
20.9561
23.1027
25.4376
27.9739
30.7309
33.7189
36.9462
40.4319
44.1975
48.2528
52.6131
57.3079
62.3524
67.7672
73.5813
79.8196
86.5151
93.6908
101.393
109.657
118.522
128.051
138.283
149.291
161.142
173.915
187.702
202.596
218.712
236.17
255.095
275.605
297.801
321.721
347.212
21.4774
20.2085
18.967
17.7575
16.5852
15.4557
14.3756
13.3536
12.398
11.5139
10.704
9.96681
9.30275
8.70991
8.18255
7.7112
7.29948
6.92061
6.54933
6.22907
5.93172
5.65862
5.42253
5.20155
5.01717
4.85331
4.73049
4.6364
4.5743
4.5557
4.5694
4.63958
4.75469
4.91804
5.14266
5.42478
5.77774
6.20016
6.69434
7.27713
7.9464
8.70737
9.57286
10.5464
11.6357
12.8495
14.1939
15.6807
17.3183
19.113
21.0795
23.2299
25.569
28.1099
30.8716
33.8645
37.0972
40.5885
44.3598
48.4212
52.7882
57.4897
62.5413
67.9637
73.7856
80.0322
86.7362
93.9212
101.633
109.907
118.782
128.323
138.567
149.587
161.45
174.235
188.035
202.942
219.068
236.535
255.466
275.975
298.159
322.052
347.491
21.5211
20.2525
19.0113
17.8024
16.6306
15.5017
14.4223
13.4011
12.4463
11.5631
10.7544
10.0184
9.35555
8.76418
8.23834
7.76856
7.35863
6.98141
6.61173
6.29354
5.99796
5.72677
5.49307
5.27462
5.09143
4.92907
4.80801
4.7144
4.65489
4.63789
4.6539
4.7252
4.84191
5.00696
5.23332
5.51745
5.87216
6.29658
6.7931
7.37802
8.04965
8.81325
9.68141
10.6578
11.7501
12.9672
14.3151
15.8056
17.447
19.2459
21.2169
23.3719
25.716
28.2623
31.0294
34.028
37.2668
40.7646
44.5425
48.6107
52.9851
57.6943
62.7538
68.1846
74.0153
80.2712
86.9847
94.18
101.902
110.187
119.075
128.627
138.884
149.917
161.793
174.593
188.405
203.325
219.463
236.938
255.872
276.377
298.546
322.403
347.776
21.5709
20.3028
19.0622
17.8538
16.6827
15.5545
14.4761
13.4558
12.502
11.62
10.8127
10.078
9.41671
8.8271
8.30293
7.83483
7.42712
7.05225
6.68436
6.36812
6.07475
5.80675
5.57336
5.35682
5.17415
5.01388
4.89467
4.80297
4.74482
4.72897
4.74675
4.81939
4.93779
5.1047
5.33285
5.61911
5.97574
6.40237
6.9015
7.48885
8.16318
8.92981
9.80109
10.7808
11.8768
13.0977
14.4497
15.9446
17.5907
19.3946
21.3708
23.5312
25.881
28.4335
31.2069
34.2119
37.4576
40.9627
44.748
48.824
53.2067
57.9243
62.9927
68.433
74.2734
80.5396
87.2637
94.4704
102.205
110.502
119.402
128.968
139.238
150.286
162.176
174.99
188.817
203.749
219.898
237.38
256.316
276.813
298.959
322.77
348.061
21.6279
20.3603
19.1203
17.9127
16.7425
15.6152
14.5378
13.5187
12.5661
11.6856
10.8799
10.1469
9.48736
8.89983
8.37802
7.91248
7.50687
7.13323
6.76759
6.45525
6.16235
5.89633
5.66238
5.44863
5.26769
5.10946
4.99072
4.90023
4.84344
4.82901
4.84873
4.92271
5.04284
5.21177
5.44192
5.73056
6.0894
6.51858
7.02071
7.61096
8.2885
9.05876
9.9338
10.9176
12.0179
13.2433
14.6004
16.1004
17.7519
19.5616
21.5438
23.7103
26.0667
28.6261
31.4066
34.419
37.6724
41.1857
44.9792
49.0639
53.456
58.183
63.2613
68.712
74.5633
80.841
87.5768
94.796
102.543
110.854
119.768
129.348
139.634
150.697
162.603
175.431
189.272
204.217
220.376
237.864
256.798
277.282
299.396
323.147
348.336
21.6927
20.4258
19.1867
17.9801
16.8108
15.6847
14.6086
13.5909
12.6399
11.761
10.9574
10.2264
9.56916
8.98452
8.46456
7.99944
7.59733
7.22794
6.86516
6.55251
6.25862
5.99573
5.7637
5.55133
5.37071
5.21382
5.09602
5.00698
4.95164
4.93857
4.96033
5.03586
5.15797
5.32921
5.56167
5.85308
6.21459
6.64684
7.15259
7.74636
8.42781
9.20241
10.082
11.0705
12.1759
13.4068
14.7695
16.2755
17.9332
19.7495
21.7386
23.912
26.2758
28.843
31.6315
34.652
37.9142
41.4366
45.2394
49.3337
53.7362
58.4738
63.563
69.0254
74.8887
81.179
87.9277
95.1607
102.922
111.247
120.178
129.772
140.075
151.153
163.075
175.92
189.775
204.732
220.899
238.39
257.318
277.781
299.853
323.527
348.588
20.5004
19.2623
18.0568
16.8889
15.7642
14.6897
13.6737
12.7245
11.8477
11.0465
10.3179
9.66314
9.07939
8.56118
8.10263
7.70628
7.33398
6.96957
6.6583
6.36888
6.10685
5.8746
5.66328
5.48375
5.32845
5.21146
5.12381
5.07012
5.05867
5.08277
5.16015
5.28458
5.4586
5.69389
5.98864
6.35346
6.78944
7.29949
7.89751
8.5836
9.36333
10.2481
11.2423
12.3536
13.5906
14.9599
16.4727
18.1373
19.9611
21.9578
24.1391
26.5112
29.0872
31.8845
34.9142
38.1862
41.7188
45.5319
49.637
54.051
58.8003
63.9017
69.377
75.2536
81.5577
88.3206
95.5688
103.346
111.686
120.634
130.245
140.564
151.66
163.599
176.459
190.328
205.296
221.469
238.959
257.874
278.307
300.322
323.898
348.802
20.5848
19.348
18.144
16.9775
15.8545
14.782
13.7681
12.8211
11.9467
11.1483
10.4219
9.7678
9.18835
8.67764
8.22099
7.82007
7.44693
7.08918
6.77913
6.48943
6.22764
5.99643
5.78646
5.60771
5.454
5.33811
5.25218
5.20043
5.1909
5.21773
5.29745
5.42475
5.60214
5.84088
6.13962
6.50845
6.94887
7.46398
8.06701
8.7585
9.54413
10.435
11.4355
12.5536
13.7975
15.1742
16.6946
18.3672
20.1993
22.2046
24.3947
26.7761
29.3619
32.1692
35.2091
38.492
42.0359
45.8605
49.9777
54.4044
59.1667
64.2816
69.771
75.6623
81.9816
88.7601
96.0247
103.818
112.176
121.142
130.77
141.108
152.221
164.177
177.052
190.933
205.91
222.087
239.57
258.464
278.853
300.793
324.246
348.955
20.6798
19.4445
18.2422
17.0776
15.9566
14.8862
13.8747
12.9302
12.0584
11.2627
10.5376
9.88812
9.31471
8.80379
8.34673
7.94866
7.57768
7.22076
6.9097
6.6218
6.36115
6.1304
5.92168
5.74411
5.59232
5.47776
5.39383
5.34444
5.33733
5.36744
5.45007
5.58082
5.76225
6.00513
6.30857
6.68213
7.12774
7.64866
8.25746
8.95514
9.74749
10.6452
11.653
12.7786
14.0305
15.4154
16.9444
18.6258
20.4673
22.4824
24.6823
27.0741
29.6708
32.4893
35.5406
38.8355
42.3921
46.2295
50.3599
54.8008
59.5774
64.7072
70.2122
76.1194
82.4554
89.2508
96.5333
104.345
112.721
121.705
131.353
141.709
152.84
164.812
177.702
191.594
206.577
222.75
240.219
259.081
279.412
301.253
324.55
349.019
20.7859
19.5524
18.352
17.1895
16.0708
15.0029
13.994
13.0522
12.1832
11.3903
10.6689
10.0245
9.45201
8.94342
8.48962
8.09059
7.71966
7.36541
7.05505
6.76802
6.50793
6.27809
6.07106
5.89485
5.74522
5.63241
5.55095
5.50445
5.5003
5.53427
5.62045
5.75532
5.94149
6.1892
6.49807
6.87712
7.32868
7.85622
8.47161
9.17633
9.97628
10.8818
11.8977
13.0319
14.2926
15.6869
17.2255
18.9169
20.7689
22.7947
25.0057
27.4091
30.018
32.8488
35.9129
39.2212
42.7917
46.6432
50.7884
55.2448
60.0372
65.1833
70.7054
76.6301
82.9841
89.7978
97.0995
104.93
113.326
122.33
131.996
142.371
153.52
165.508
178.41
192.31
207.293
223.457
240.902
259.717
279.969
301.684
324.784
348.959
20.9035
19.6721
18.4738
17.3136
16.1974
15.1324
14.1264
13.1877
12.3219
11.5323
10.8152
10.1744
9.60509
9.09928
8.64685
8.24792
7.87802
7.5255
7.21492
6.92924
6.67045
6.44168
6.23646
6.06198
5.91498
5.80439
5.72589
5.68285
5.68226
5.72075
5.81114
5.95082
6.14247
6.39577
6.71084
7.0962
7.55456
8.08959
8.71246
9.42515
10.2337
11.148
12.173
13.3168
14.5875
15.9923
17.5416
19.2441
21.1079
23.1458
25.369
27.7853
30.4078
33.2523
36.3305
39.6538
43.2397
47.1068
51.2682
55.7417
60.5514
65.7153
71.2559
77.1995
83.573
90.4063
97.7284
105.579
113.996
123.02
132.706
143.099
154.265
166.266
179.178
193.08
208.058
224.203
241.609
260.359
280.506
302.06
324.917
348.733
21.033
19.8037
18.6079
17.4503
16.337
15.2751
14.2725
13.3374
12.4755