/*--------------------------------*- C++ -*----------------------------------*\
| =========                 |                                                 |
| \\      /  F ield         | OpenFOAM: The Open Source CFD Toolbox           |
|  \\    /   O peration     | Version:  2412                                  |
|   \\  /    A nd           | Website:  www.openfoam.com                      |
|    \\/     M anipulation  |                                                 |
\*---------------------------------------------------------------------------*/
FoamFile
{
    version     2.0;
    format      ascii;
    arch        "LSB;label=32;scalar=64";
    class       surfaceScalarField;
    location    "200";
    object      phi;
}
// * * * * * * * * * * * * * * * * * * * * * * * * * * * * * * * * * * * * * //

dimensions      [0 3 -1 0 0 0 0];

oriented        oriented;

internalField   nonuniform List<scalar> 
14564
(
-3.40953e-06
-1.91521e-10
-3.40938e-06
-4.84755e-12
-3.4091e-06
-5.12304e-10
-3.40844e-06
-5.87582e-10
-3.40749e-06
-1.11525e-09
-3.40627e-06
-1.24103e-09
-3.40478e-06
-1.523e-09
-3.40291e-06
-1.90171e-09
-3.40082e-06
-2.12086e-09
-3.39842e-06
-2.42106e-09
-3.39559e-06
-2.86676e-09
-3.39235e-06
-3.26805e-09
-3.38863e-06
-3.74618e-09
-3.38454e-06
-4.11534e-09
-3.37994e-06
-4.63687e-09
-3.37474e-06
-5.22372e-09
-3.36897e-06
-5.80684e-09
-3.36254e-06
-6.45472e-09
-3.35548e-06
-7.0935e-09
-3.34773e-06
-7.77281e-09
-3.33907e-06
-8.69947e-09
-3.32949e-06
-9.61036e-09
-3.31902e-06
-1.05011e-08
-3.30761e-06
-1.14442e-08
-3.2951e-06
-1.25425e-08
-3.28135e-06
-1.37842e-08
-3.26631e-06
-1.50845e-08
-3.24997e-06
-1.63761e-08
-3.23209e-06
-1.79123e-08
-3.21264e-06
-1.9484e-08
-3.19159e-06
-2.10871e-08
-3.16855e-06
-2.30914e-08
-3.14351e-06
-2.50861e-08
-3.11649e-06
-2.7069e-08
-3.08718e-06
-2.93507e-08
-3.05537e-06
-3.18583e-08
-3.021e-06
-3.44252e-08
-2.9839e-06
-3.71519e-08
-2.94379e-06
-4.01676e-08
-2.90055e-06
-4.32883e-08
-2.85384e-06
-4.67631e-08
-2.80361e-06
-5.02676e-08
-2.74948e-06
-5.41807e-08
-2.69131e-06
-5.82047e-08
-2.62865e-06
-6.2715e-08
-2.56125e-06
-6.74211e-08
-2.48905e-06
-7.2249e-08
-2.41181e-06
-7.72534e-08
-2.32971e-06
-8.21296e-08
-2.24368e-06
-8.60496e-08
-2.15524e-06
-8.8473e-08
-2.06702e-06
-8.82362e-08
-1.98192e-06
-8.51211e-08
-1.90114e-06
-8.08096e-08
-1.82333e-06
-7.78332e-08
-1.74304e-06
-8.03153e-08
-1.6498e-06
-9.32682e-08
-1.52642e-06
-1.23394e-07
-1.34612e-06
-1.80311e-07
-1.06603e-06
-2.8009e-07
-6.11668e-07
-4.54363e-07
1.05719e-07
-7.17369e-07
1.25223e-06
-1.14649e-06
3.19223e-06
-1.93993e-06
6.28907e-06
-3.09678e-06
1.10541e-05
-4.76497e-06
1.6962e-05
-5.90785e-06
-4.68181e-06
-1.20826e-05
-6.03781e-10
-1.20821e-05
-3.05411e-10
-1.20802e-05
-2.74019e-09
-1.20777e-05
-3.00277e-09
-1.20747e-05
-4.34332e-09
-1.20701e-05
-5.90596e-09
-1.20642e-05
-7.43143e-09
-1.20579e-05
-8.26378e-09
-1.20502e-05
-9.94076e-09
-1.20411e-05
-1.15704e-08
-1.20307e-05
-1.32995e-08
-1.20193e-05
-1.47006e-08
-1.20062e-05
-1.68586e-08
-1.1991e-05
-1.94219e-08
-1.19741e-05
-2.15973e-08
-1.19555e-05
-2.38602e-08
-1.19347e-05
-2.66235e-08
-1.19116e-05
-2.96259e-08
-1.1886e-05
-3.27475e-08
-1.18579e-05
-3.59015e-08
-1.1827e-05
-3.97022e-08
-1.17926e-05
-4.40326e-08
-1.1755e-05
-4.81365e-08
-1.17139e-05
-5.26536e-08
-1.16691e-05
-5.73998e-08
-1.16196e-05
-6.33557e-08
-1.15657e-05
-6.8989e-08
-1.1507e-05
-7.51827e-08
-1.14426e-05
-8.23294e-08
-1.13728e-05
-8.93341e-08
-1.12972e-05
-9.67732e-08
-1.12149e-05
-1.05451e-07
-1.11253e-05
-1.1476e-07
-1.10283e-05
-1.2418e-07
-1.09234e-05
-1.34331e-07
-1.08097e-05
-1.45669e-07
-1.06867e-05
-1.57472e-07
-1.05538e-05
-1.70204e-07
-1.04101e-05
-1.83933e-07
-1.02552e-05
-1.98212e-07
-1.00883e-05
-2.13787e-07
-9.90844e-06
-2.30197e-07
-9.7147e-06
-2.48013e-07
-9.50599e-06
-2.66973e-07
-9.28158e-06
-2.87221e-07
-9.04025e-06
-3.08797e-07
-8.78159e-06
-3.3098e-07
-8.50472e-06
-3.54146e-07
-8.21045e-06
-3.76451e-07
-7.90202e-06
-3.94526e-07
-7.5845e-06
-4.0603e-07
-7.26732e-06
-4.05453e-07
-6.96071e-06
-3.91767e-07
-6.66929e-06
-3.72282e-07
-6.3879e-06
-3.59272e-07
-6.09777e-06
-3.70489e-07
-5.76251e-06
-4.28562e-07
-5.32238e-06
-5.63554e-07
-4.68417e-06
-8.18543e-07
-3.70102e-06
-1.26325e-06
-2.11806e-06
-2.03732e-06
3.60966e-07
-3.19636e-06
4.29555e-06
-5.08105e-06
1.08951e-05
-8.53941e-06
2.13416e-05
-1.35431e-05
3.73125e-05
-2.07357e-05
5.70185e-05
-2.56139e-05
-2.082e-05
-2.41943e-05
-2.20416e-09
-2.41928e-05
-1.64922e-09
-2.41895e-05
-6.39964e-09
-2.41842e-05
-8.14699e-09
-2.41765e-05
-1.23899e-08
-2.41678e-05
-1.45797e-08
-2.41567e-05
-1.8655e-08
-2.41427e-05
-2.22882e-08
-2.41265e-05
-2.61652e-08
-2.4108e-05
-3.0105e-08
-2.40877e-05
-3.36498e-08
-2.40629e-05
-3.95573e-08
-2.40361e-05
-4.37344e-08
-2.40054e-05
-5.01845e-08
-2.39712e-05
-5.58012e-08
-2.39335e-05
-6.16599e-08
-2.3891e-05
-6.91547e-08
-2.38442e-05
-7.64981e-08
-2.37923e-05
-8.47155e-08
-2.37349e-05
-9.33246e-08
-2.36719e-05
-1.02807e-07
-2.36025e-05
-1.13446e-07
-2.35259e-05
-1.24817e-07
-2.34425e-05
-1.36059e-07
-2.33509e-05
-1.49051e-07
-2.32512e-05
-1.63136e-07
-2.3142e-05
-1.78328e-07
-2.30227e-05
-1.94456e-07
-2.2893e-05
-2.12122e-07
-2.27522e-05
-2.30249e-07
-2.25987e-05
-2.50292e-07
-2.2432e-05
-2.72236e-07
-2.22511e-05
-2.95794e-07
-2.20553e-05
-3.19988e-07
-2.18425e-05
-3.47255e-07
-2.16127e-05
-3.75553e-07
-2.13637e-05
-4.06543e-07
-2.10955e-05
-4.38524e-07
-2.08054e-05
-4.74131e-07
-2.04925e-05
-5.11158e-07
-2.01553e-05
-5.51067e-07
-1.97918e-05
-5.93797e-07
-1.94e-05
-6.39958e-07
-1.89787e-05
-6.88306e-07
-1.85244e-05
-7.41637e-07
-1.80365e-05
-7.9672e-07
-1.75128e-05
-8.54715e-07
-1.69526e-05
-9.14393e-07
-1.63577e-05
-9.71407e-07
-1.57326e-05
-1.01966e-06
-1.50888e-05
-1.04987e-06
-1.44456e-05
-1.04871e-06
-1.38221e-05
-1.01529e-06
-1.32285e-05
-9.65919e-07
-1.2655e-05
-9.32839e-07
-1.20637e-05
-9.61782e-07
-1.13832e-05
-1.10915e-06
-1.04957e-05
-1.45109e-06
-9.21949e-06
-2.09477e-06
-7.26762e-06
-3.21512e-06
-4.149e-06
-5.15593e-06
6.98677e-07
-8.04401e-06
8.33666e-06
-1.2719e-05
2.1039e-05
-2.12416e-05
4.09818e-05
-3.34858e-05
7.12271e-05
-5.09809e-05
0.00010846
-6.28468e-05
-5.2112e-05
-4.07998e-05
-4.59497e-09
-4.07966e-05
-4.59039e-09
-4.07902e-05
-1.31952e-08
-4.0781e-05
-1.72248e-08
-4.07687e-05
-2.49573e-08
-4.0752e-05
-3.13185e-08
-4.07319e-05
-3.88351e-08
-4.07091e-05
-4.51326e-08
-4.06816e-05
-5.37669e-08
-4.06496e-05
-6.21578e-08
-4.06128e-05
-7.04925e-08
-4.05723e-05
-8.00907e-08
-4.05252e-05
-9.09211e-08
-4.04731e-05
-1.02402e-07
-4.04138e-05
-1.15082e-07
-4.03489e-05
-1.26708e-07
-4.02765e-05
-1.41578e-07
-4.01962e-05
-1.56843e-07
-4.01076e-05
-1.73403e-07
-4.00095e-05
-1.9145e-07
-3.99017e-05
-2.10724e-07
-3.97832e-05
-2.31995e-07
-3.9653e-05
-2.55074e-07
-3.95108e-05
-2.78337e-07
-3.93547e-05
-3.05214e-07
-3.91837e-05
-3.34253e-07
-3.89982e-05
-3.63875e-07
-3.87956e-05
-3.9715e-07
-3.85748e-05
-4.32955e-07
-3.83344e-05
-4.707e-07
-3.80732e-05
-5.11653e-07
-3.77895e-05
-5.56e-07
-3.74819e-05
-6.03496e-07
-3.71479e-05
-6.54094e-07
-3.67874e-05
-7.07794e-07
-3.63954e-05
-7.67715e-07
-3.59731e-05
-8.28967e-07
-3.55155e-05
-8.96179e-07
-3.50224e-05
-9.67311e-07
-3.44899e-05
-1.0438e-06
-3.39159e-05
-1.12523e-06
-3.32975e-05
-1.21223e-06
-3.26319e-05
-1.30562e-06
-3.19137e-05
-1.40662e-06
-3.11415e-05
-1.51392e-06
-3.03108e-05
-1.62753e-06
-2.94189e-05
-1.74668e-06
-2.84641e-05
-1.86924e-06
-2.7448e-05
-1.98754e-06
-2.63808e-05
-2.08688e-06
-2.52812e-05
-2.14957e-06
-2.41799e-05
-2.15007e-06
-2.31115e-05
-2.08372e-06
-2.20918e-05
-1.98564e-06
-2.11045e-05
-1.92023e-06
-2.00885e-05
-1.97783e-06
-1.89236e-05
-2.27413e-06
-1.74153e-05
-2.95937e-06
-1.52641e-05
-4.24602e-06
-1.20009e-05
-6.47836e-06
-6.83068e-06
-1.03261e-05
1.14026e-06
-1.60149e-05
1.3591e-05
-2.51697e-05
3.40917e-05
-4.17422e-05
6.59706e-05
-6.53646e-05
0.000113763
-9.8773e-05
0.000172358
-0.000121442
-0.000102354
-6.31828e-05
-8.69466e-09
-6.31783e-05
-8.91971e-09
-6.31671e-05
-2.47868e-08
-6.31508e-05
-3.34024e-08
-6.31307e-05
-4.53487e-08
-6.3106e-05
-5.60203e-08
-6.30745e-05
-7.03691e-08
-6.3036e-05
-8.37856e-08
-6.29923e-05
-9.74794e-08
-6.29433e-05
-1.11194e-07
-6.28854e-05
-1.28435e-07
-6.28194e-05
-1.46174e-07
-6.27457e-05
-1.64744e-07
-6.26636e-05
-1.84563e-07
-6.25732e-05
-2.05491e-07
-6.24698e-05
-2.30199e-07
-6.23563e-05
-2.5508e-07
-6.22309e-05
-2.82304e-07
-6.20911e-05
-3.13332e-07
-6.19386e-05
-3.44005e-07
-6.177e-05
-3.79346e-07
-6.15842e-05
-4.17838e-07
-6.13812e-05
-4.58196e-07
-6.11585e-05
-5.0114e-07
-6.09156e-05
-5.48174e-07
-6.06503e-05
-5.99618e-07
-6.03599e-05
-6.54365e-07
-6.00437e-05
-7.13422e-07
-5.96991e-05
-7.77598e-07
-5.93243e-05
-8.45572e-07
-5.89177e-05
-9.1831e-07
-5.84749e-05
-9.98936e-07
-5.7996e-05
-1.08247e-06
-5.74757e-05
-1.17448e-06
-5.69116e-05
-1.27199e-06
-5.63025e-05
-1.37694e-06
-5.56431e-05
-1.48841e-06
-5.49313e-05
-1.60817e-06
-5.41621e-05
-1.73662e-06
-5.33316e-05
-1.87437e-06
-5.24368e-05
-2.02012e-06
-5.14719e-05
-2.1772e-06
-5.04318e-05
-2.3459e-06
-4.93109e-05
-2.5276e-06
-4.81039e-05
-2.72097e-06
-4.68041e-05
-2.92734e-06
-4.54087e-05
-3.14225e-06
-4.39139e-05
-3.36402e-06
-4.23222e-05
-3.57932e-06
-4.06481e-05
-3.76099e-06
-3.89196e-05
-3.8781e-06
-3.71869e-05
-3.88289e-06
-3.55011e-05
-3.76957e-06
-3.3889e-05
-3.59775e-06
-3.23263e-05
-3.48299e-06
-3.07183e-05
-3.5859e-06
-2.88831e-05
-4.1094e-06
-2.65241e-05
-5.31837e-06
-2.31897e-05
-7.58048e-06
-1.81762e-05
-1.14918e-05
-1.0307e-05
-1.81954e-05
1.71267e-06
-2.80345e-05
2.02984e-05
-4.37554e-05
5.05431e-05
-7.19868e-05
9.702e-05
-0.000111841
0.000165615
-0.000167368
0.000249017
-0.000204844
-0.000174453
-9.2777e-05
-1.77281e-08
-9.27677e-05
-1.80578e-08
-9.27518e-05
-4.10589e-08
-9.27286e-05
-5.64792e-08
-9.26985e-05
-7.57498e-08
-9.26583e-05
-9.6255e-08
-9.26119e-05
-1.16865e-07
-9.25564e-05
-1.3933e-07
-9.24916e-05
-1.6243e-07
-9.2416e-05
-1.86836e-07
-9.23314e-05
-2.13058e-07
-9.22352e-05
-2.42503e-07
-9.21265e-05
-2.73454e-07
-9.20041e-05
-3.07043e-07
-9.18679e-05
-3.41742e-07
-9.17174e-05
-3.80842e-07
-9.15495e-05
-4.23039e-07
-9.13632e-05
-4.68635e-07
-9.11591e-05
-5.17533e-07
-9.09331e-05
-5.70045e-07
-9.06852e-05
-6.2738e-07
-9.04126e-05
-6.90465e-07
-9.01139e-05
-7.5702e-07
-8.97867e-05
-8.28371e-07
-8.94285e-05
-9.06517e-07
-8.90376e-05
-9.90536e-07
-8.86112e-05
-1.08087e-06
-8.8146e-05
-1.17872e-06
-8.76398e-05
-1.28385e-06
-8.70901e-05
-1.39539e-06
-8.6491e-05
-1.51748e-06
-8.58421e-05
-1.64794e-06
-8.51355e-05
-1.78918e-06
-8.43716e-05
-1.93857e-06
-8.35438e-05
-2.09991e-06
-8.26478e-05
-2.27298e-06
-8.16769e-05
-2.45944e-06
-8.0629e-05
-2.65626e-06
-7.94966e-05
-2.8691e-06
-7.82743e-05
-3.09683e-06
-7.69546e-05
-3.33998e-06
-7.55324e-05
-3.59949e-06
-7.39966e-05
-3.88179e-06
-7.23421e-05
-4.18221e-06
-7.05572e-05
-4.50593e-06
-6.86355e-05
-4.84914e-06
-6.65681e-05
-5.20978e-06
-6.43505e-05
-5.58164e-06
-6.19856e-05
-5.9443e-06
-5.94919e-05
-6.25474e-06
-5.69162e-05
-6.4538e-06
-5.43264e-05
-6.47277e-06
-5.18009e-05
-6.29509e-06
-4.93787e-05
-6.02008e-06
-4.70262e-05
-5.83558e-06
-4.46059e-05
-6.00621e-06
-4.18552e-05
-6.86014e-06
-3.83463e-05
-8.82732e-06
-3.34315e-05
-1.24953e-05
-2.61109e-05
-1.88124e-05
-1.47398e-05
-2.95665e-05
2.44749e-06
-4.52218e-05
2.87138e-05
-7.00216e-05
7.08681e-05
-0.000114141
0.000134725
-0.000175698
0.000227161
-0.000259805
0.00033823
-0.000315912
-0.000270128
-0.000130909
-2.99132e-08
-0.000130897
-2.99007e-08
-0.000130871
-6.68734e-08
-0.000130837
-9.02732e-08
-0.000130793
-1.20673e-07
-0.000130739
-1.49843e-07
-0.000130672
-1.83705e-07
-0.000130592
-2.2007e-07
-0.000130501
-2.53546e-07
-0.000130395
-2.9251e-07
-0.000130276
-3.32495e-07
-0.00013014
-3.78001e-07
-0.000129987
-4.26961e-07
-0.000129815
-4.78436e-07
-0.000129625
-5.31929e-07
-0.000129415
-5.90908e-07
-0.00012918
-6.57896e-07
-0.00012892
-7.28869e-07
-0.000128634
-8.03683e-07
-0.000128319
-8.84875e-07
-0.000127972
-9.74505e-07
-0.000127591
-1.07153e-06
-0.000127174
-1.17399e-06
-0.000126717
-1.28615e-06
-0.000126219
-1.40438e-06
-0.000125672
-1.53742e-06
-0.000125077
-1.67624e-06
-0.000124428
-1.8276e-06
-0.000123722
-1.98971e-06
-0.000122953
-2.16488e-06
-0.000122118
-2.35246e-06
-0.000121209
-2.55722e-06
-0.000120224
-2.77447e-06
-0.000119155
-3.00677e-06
-0.000117996
-3.25914e-06
-0.000116743
-3.52673e-06
-0.000115384
-3.81824e-06
-0.000113914
-4.12587e-06
-0.000112327
-4.45704e-06
-0.000110611
-4.81299e-06
-0.000108756
-5.19423e-06
-0.000106754
-5.60202e-06
-0.000104593
-6.04319e-06
-0.000102257
-6.51784e-06
-9.97359e-05
-7.02729e-06
-9.70152e-05
-7.5699e-06
-9.40823e-05
-8.14281e-06
-9.09293e-05
-8.73469e-06
-8.75596e-05
-9.314e-06
-8.40008e-05
-9.81363e-06
-8.03094e-05
-1.01452e-05
-7.65879e-05
-1.01943e-05
-7.29452e-05
-9.93791e-06
-6.94388e-05
-9.52648e-06
-6.60228e-05
-9.25166e-06
-6.25095e-05
-9.51962e-06
-5.85277e-05
-1.08419e-05
-5.34847e-05
-1.38704e-05
-4.6485e-05
-1.9495e-05
-3.616e-05
-2.91375e-05
-2.03042e-05
-4.54223e-05
3.38066e-06
-6.89066e-05
3.90927e-05
-0.000105734
9.54869e-05
-0.000170535
0.000179516
-0.000259727
0.000298505
-0.000378793
0.000439718
-0.000457125
-0.000390799
-0.000178324
-4.78952e-08
-0.000178306
-4.81533e-08
-0.000178273
-9.92855e-08
-0.000178227
-1.36632e-07
-0.000178167
-1.80707e-07
-0.000178091
-2.26133e-07
-0.000178002
-2.72728e-07
-0.000177897
-3.25377e-07
-0.000177775
-3.75488e-07
-0.000177636
-4.31807e-07
-0.000177476
-4.92474e-07
-0.000177295
-5.58824e-07
-0.000177092
-6.29854e-07
-0.000176868
-7.03014e-07
-0.000176614
-7.85381e-07
-0.000176333
-8.72589e-07
-0.000176024
-9.66603e-07
-0.00017568
-1.07291e-06
-0.000175302
-1.1819e-06
-0.000174884
-1.30318e-06
-0.000174426
-1.4319e-06
-0.000173923
-1.57513e-06
-0.000173373
-1.72426e-06
-0.000172769
-1.89014e-06
-0.000172107
-2.06608e-06
-0.000171387
-2.25763e-06
-0.000170597
-2.46605e-06
-0.00016974
-2.68493e-06
-0.000168806
-2.92379e-06
-0.000167788
-3.18331e-06
-0.000166682
-3.45851e-06
-0.000165479
-3.76e-06
-0.000164173
-4.08047e-06
-0.000162753
-4.42703e-06
-0.000161217
-4.79584e-06
-0.000159546
-5.19771e-06
-0.000157739
-5.62494e-06
-0.000155781
-6.0839e-06
-0.000153662
-6.57642e-06
-0.000151367
-7.108e-06
-0.000148887
-7.67485e-06
-0.000146201
-8.28737e-06
-0.000143295
-8.94994e-06
-0.00014015
-9.66242e-06
-0.000136745
-1.04331e-05
-0.00013306
-1.12544e-05
-0.000129077
-1.2126e-05
-0.000124779
-1.30328e-05
-0.000120169
-1.39246e-05
-0.000115276
-1.47063e-05
-0.000110183
-1.52379e-05
-0.000105024
-1.53534e-05
-9.9947e-05
-1.50153e-05
-9.5035e-05
-1.44385e-05
-9.023e-05
-1.40568e-05
-8.52763e-05
-1.44734e-05
-7.96729e-05
-1.64454e-05
-7.26146e-05
-2.09288e-05
-6.2899e-05
-2.92106e-05
-4.87077e-05
-4.33288e-05
-2.71822e-05
-6.69477e-05
4.55168e-06
-0.00010064
5.16721e-05
-0.000152854
0.000124727
-0.00024359
0.000231641
-0.000366641
0.000379613
-0.000526765
0.000553416
-0.000630928
-0.000538666
-0.000234786
-7.0176e-08
-0.000234761
-7.37997e-08
-0.000234718
-1.42009e-07
-0.000234662
-1.92767e-07
-0.000234585
-2.57986e-07
-0.000234493
-3.17842e-07
-0.000234381
-3.84849e-07
-0.000234249
-4.57559e-07
-0.000234095
-5.29493e-07
-0.000233921
-6.05753e-07
-0.000233722
-6.91747e-07
-0.000233497
-7.83737e-07
-0.000233242
-8.84713e-07
-0.000232959
-9.86213e-07
-0.000232647
-1.0976e-06
-0.000232297
-1.22277e-06
-0.000231907
-1.35642e-06
-0.000231479
-1.50131e-06
-0.000231005
-1.65523e-06
-0.000230487
-1.82108e-06
-0.000229914
-2.00514e-06
-0.000229287
-2.20207e-06
-0.000228595
-2.41717e-06
-0.000227843
-2.64203e-06
-0.000227019
-2.88984e-06
-0.000226117
-3.15921e-06
-0.000225135
-3.44832e-06
-0.000224062
-3.75831e-06
-0.000222891
-4.09447e-06
-0.00022162
-4.45475e-06
-0.000220234
-4.84432e-06
-0.000218727
-5.26761e-06
-0.000217088
-5.71968e-06
-0.000215309
-6.20541e-06
-0.000213374
-6.7311e-06
-0.000211276
-7.29597e-06
-0.000208998
-7.90335e-06
-0.000206527
-8.55438e-06
-0.000203847
-9.25696e-06
-0.000200943
-1.00122e-05
-0.000197791
-1.08271e-05
-0.000194375
-1.17035e-05
-0.000190665
-1.26591e-05
-0.000186638
-1.36897e-05
-0.000182263
-1.48089e-05
-0.00017751
-1.6007e-05
-0.00017235
-1.72861e-05
-0.000166755
-1.86282e-05
-0.000160718
-1.99617e-05
-0.000154278
-2.11464e-05
-0.000147528
-2.19875e-05
-0.000140642
-2.22391e-05
-0.000133815
-2.18424e-05
-0.000127161
-2.10929e-05
-0.000120606
-2.06121e-05
-0.000113815
-2.12644e-05
-0.000106124
-2.41365e-05
-9.6466e-05
-3.05865e-05
-8.32598e-05
-4.24168e-05
-6.41511e-05
-6.24376e-05
-3.555e-05
-9.55489e-05
6.00253e-06
-0.000142193
6.66529e-05
-0.000213504
0.000158783
-0.000335719
0.000291152
-0.00049901
0.00047031
-0.000705923
0.0006794
-0.000840018
-0.000717228
-0.000299371
-9.44649e-08
-0.000299343
-1.01176e-07
-0.000299292
-1.93594e-07
-0.000299226
-2.58661e-07
-0.000299139
-3.45404e-07
-0.000299028
-4.27983e-07
-0.000298896
-5.1731e-07
-0.000298741
-6.13141e-07
-0.000298559
-7.10893e-07
-0.000298351
-8.13764e-07
-0.000298116
-9.27431e-07
-0.000297848
-1.0512e-06
-0.000297547
-1.18573e-06
-0.000297212
-1.32173e-06
-0.000296837
-1.47224e-06
-0.000296423
-1.63701e-06
-0.000295963
-1.81614e-06
-0.000295458
-2.00689e-06
-0.000294897
-2.2162e-06
-0.000294278
-2.44006e-06
-0.000293601
-2.68194e-06
-0.000292854
-2.94897e-06
-0.00029204
-3.23184e-06
-0.000291144
-3.53827e-06
-0.000290164
-3.86966e-06
-0.000289097
-4.22619e-06
-0.000287929
-4.61681e-06
-0.000286653
-5.03432e-06
-0.000285265
-5.48268e-06
-0.000283753
-5.96634e-06
-0.000282103
-6.49481e-06
-0.000280311
-7.05912e-06
-0.000278359
-7.67216e-06
-0.000276237
-8.32778e-06
-0.000273931
-9.03654e-06
-0.000271421
-9.80592e-06
-0.0002687
-1.06252e-05
-0.00026574
-1.15144e-05
-0.000262525
-1.24715e-05
-0.000259034
-1.35038e-05
-0.00025524
-1.46206e-05
-0.000251112
-1.58321e-05
-0.000246624
-1.71476e-05
-0.000241729
-1.85845e-05
-0.000236393
-2.01445e-05
-0.000230571
-2.18299e-05
-0.000224215
-2.3642e-05
-0.000217281
-2.55623e-05
-0.000209753
-2.74898e-05
-0.000201655
-2.92437e-05
-0.000193099
-3.05443e-05
-0.000184288
-3.10503e-05
-0.000175464
-3.06659e-05
-0.000166767
-2.97901e-05
-0.000158108
-2.92712e-05
-0.000149055
-3.03173e-05
-0.000138746
-3.44459e-05
-0.000125793
-4.35396e-05
-0.00010816
-6.00491e-05
-8.28753e-05
-8.77227e-05
-4.55643e-05
-0.00013286
7.776e-06
-0.000195533
8.41702e-05
-0.000289898
0.000197699
-0.000449248
0.000357906
-0.000659217
0.000570287
-0.000918304
0.00081752
-0.00108725
0.00103134
-0.000931073
-0.000545102
-0.000371456
-1.18802e-07
-0.000371428
-1.28729e-07
-0.000371377
-2.44315e-07
-0.000371299
-3.37444e-07
-0.000371201
-4.43182e-07
-0.000371078
-5.51174e-07
-0.00037093
-6.6566e-07
-0.000370753
-7.89717e-07
-0.000370548
-9.16152e-07
-0.000370314
-1.04751e-06
-0.000370043
-1.19829e-06
-0.000369738
-1.35614e-06
-0.000369398
-1.52595e-06
-0.000369016
-1.70353e-06
-0.000368587
-1.90178e-06
-0.000368113
-2.11085e-06
-0.000367587
-2.34223e-06
-0.000367004
-2.58951e-06
-0.000366363
-2.85803e-06
-0.000365657
-3.14529e-06
-0.00036488
-3.45917e-06
-0.000364025
-3.80387e-06
-0.00036309
-4.16721e-06
-0.000362064
-4.56391e-06
-0.000360945
-4.98894e-06
-0.000359717
-5.45475e-06
-0.000358379
-5.9543e-06
-0.00035692
-6.4933e-06
-0.000355329
-7.0736e-06
-0.000353593
-7.7025e-06
-0.000351705
-8.38353e-06
-0.000349647
-9.11723e-06
-0.000347409
-9.9097e-06
-0.000344974
-1.07627e-05
-0.000342325
-1.16861e-05
-0.000339448
-1.26823e-05
-0.000336316
-1.37574e-05
-0.000332913
-1.49174e-05
-0.000329215
-1.61704e-05
-0.000325191
-1.75275e-05
-0.000320813
-1.89985e-05
-0.000316044
-2.06009e-05
-0.000310842
-2.23503e-05
-0.000305161
-2.42658e-05
-0.000298945
-2.63599e-05
-0.000292134
-2.86412e-05
-0.000284665
-3.11115e-05
-0.000276472
-3.37548e-05
-0.000267508
-3.64543e-05
-0.000257789
-3.89625e-05
-0.00024742
-4.09136e-05
-0.000236624
-4.18458e-05
-0.000225672
-4.16185e-05
-0.000214723
-4.07387e-05
-0.000203656
-4.03379e-05
-0.000191919
-4.20545e-05
-0.000178407
-4.79586e-05
-0.000161345
-6.06012e-05
-0.000138168
-8.32268e-05
-0.000105219
-0.000120672
-5.73404e-05
-0.000180738
9.91405e-06
-0.000262788
0.000104284
-0.000384268
0.000241346
-0.00058631
0.000431537
-0.000849407
0.000679077
-0.00116584
0.000967127
-0.0013753
0.00122304
-0.001187
0.00137785
-0.000699912
-0.000194851
-0.000451395
-1.44109e-07
-0.000451374
-1.50041e-07
-0.000451317
-3.00885e-07
-0.000451243
-4.11485e-07
-0.000451135
-5.51562e-07
-0.000451003
-6.83231e-07
-0.000450838
-8.30277e-07
-0.000450645
-9.83395e-07
-0.000450417
-1.14417e-06
-0.000450156
-1.30846e-06
-0.000449857
-1.49693e-06
-0.000449517
-1.69646e-06
-0.000449133
-1.91017e-06
-0.000448703
-2.13307e-06
-0.000448229
-2.37621e-06
-0.000447697
-2.64317e-06
-0.000447105
-2.9338e-06
-0.000446452
-3.24217e-06
-0.00044573
-3.58061e-06
-0.000444934
-3.94157e-06
-0.000444062
-4.33133e-06
-0.000443101
-4.76444e-06
-0.000442048
-5.22078e-06
-0.000440897
-5.71486e-06
-0.000439635
-6.2507e-06
-0.000438256
-6.8336e-06
-0.000436749
-7.46115e-06
-0.000435109
-8.13422e-06
-0.000433317
-8.8649e-06
-0.000431367
-9.6526e-06
-0.000429247
-1.05039e-05
-0.000426936
-1.14281e-05
-0.000424421
-1.24244e-05
-0.000421687
-1.34976e-05
-0.000418715
-1.46578e-05
-0.000415482
-1.59151e-05
-0.000411971
-1.72692e-05
-0.000408154
-1.87345e-05
-0.000404005
-2.03193e-05
-0.000399489
-2.20435e-05
-0.000394574
-2.39141e-05
-0.000389222
-2.59523e-05
-0.00038338
-2.81925e-05
-0.000376989
-3.06565e-05
-0.000369985
-3.33645e-05
-0.000362295
-3.63314e-05
-0.00035383
-3.9576e-05
-0.000344499
-4.30865e-05
-0.000334233
-4.67204e-05
-0.000323023
-5.01719e-05
-0.000310949
-5.29881e-05
-0.000298236
-5.45592e-05
-0.000285155
-5.46996e-05
-0.000271855
-5.40387e-05
-0.000258146
-5.40462e-05
-0.000243315
-5.68858e-05
-0.000225952
-6.53217e-05
-0.000203829
-8.27244e-05
-0.000173778
-0.000113278
-0.000131433
-0.000163016
-7.09319e-05
-0.000241239
1.24553e-05
-0.000346175
0.000126959
-0.000498771
0.00028948
-0.000748832
0.000511514
-0.00107144
0.000796339
-0.00145067
0.0011272
-0.00170617
0.00143332
-0.00149314
0.00162518
-0.000891764
0.00167506
-0.000244715
0.000294368
-0.000540447
-1.58879e-07
-0.000540429
-1.68136e-07
-0.000540378
-3.52097e-07
-0.000540297
-4.92645e-07
-0.00054019
-6.58232e-07
-0.00054005
-8.23471e-07
-0.000539872
-1.00802e-06
-0.000539659
-1.19649e-06
-0.000539414
-1.3897e-06
-0.000539127
-1.59551e-06
-0.000538799
-1.82461e-06
-0.00053842
-2.07537e-06
-0.000537996
-2.3344e-06
-0.000537521
-2.60778e-06
-0.00053699
-2.90707e-06
-0.000536398
-3.23506e-06
-0.000535741
-3.5913e-06
-0.00053501
-3.97328e-06
-0.000534206
-4.38424e-06
-0.000533322
-4.8261e-06
-0.000532347
-5.30569e-06
-0.000531273
-5.83906e-06
-0.000530098
-6.39612e-06
-0.000528813
-6.9996e-06
-0.000527403
-7.66024e-06
-0.000525863
-8.3744e-06
-0.000524183
-9.14085e-06
-0.00052235
-9.96692e-06
-0.000520356
-1.08588e-05
-0.000518185
-1.18241e-05
-0.000515815
-1.28743e-05
-0.00051324
-1.40031e-05
-0.000510445
-1.52194e-05
-0.000507404
-1.65386e-05
-0.000504098
-1.79638e-05
-0.000500508
-1.95049e-05
-0.00049661
-2.11669e-05
-0.000492376
-2.29689e-05
-0.000487779
-2.4916e-05
-0.000482784
-2.70386e-05
-0.000477352
-2.93464e-05
-0.000471436
-3.1868e-05
-0.000464982
-3.46467e-05
-0.000457927
-3.77113e-05
-0.000450195
-4.10967e-05
-0.000441695
-4.48321e-05
-0.000432325
-4.89455e-05
-0.000421975
-5.34366e-05
-0.000410541
-5.81539e-05
-0.000397979
-6.27346e-05
-0.000384354
-6.66132e-05
-0.000369855
-6.90581e-05
-0.000354724
-6.98301e-05
-0.000339046
-6.97173e-05
-0.000322507
-7.05854e-05
-0.000304152
-7.52406e-05
-0.000282192
-8.72814e-05
-0.000253861
-0.000111056
-0.000215351
-0.000151788
-0.000161641
-0.000216727
-8.63142e-05
-0.000316566
1.54329e-05
-0.000447922
0.000152093
-0.000635432
0.000341814
-0.000938552
0.000597401
-0.00132703
0.000921903
-0.00177517
0.00129719
-0.00208145
0.00166228
-0.00185825
0.00189954
-0.00112902
0.00196493
-0.000310097
0.00035696
-0.000640421
-1.71777e-07
-0.000640411
-1.78148e-07
-0.000640368
-3.95289e-07
-0.00064029
-5.7052e-07
-0.00064018
-7.68923e-07
-0.000640029
-9.74037e-07
-0.000639842
-1.19506e-06
-0.000639615
-1.42426e-06
-0.000639344
-1.66058e-06
-0.000639032
-1.90703e-06
-0.000638668
-2.18837e-06
-0.000638259
-2.48516e-06
-0.000637789
-2.80414e-06
-0.000637262
-3.13505e-06
-0.000636673
-3.49549e-06
-0.000636015
-3.89326e-06
-0.000635285
-4.32135e-06
-0.000634477
-4.78153e-06
-0.000633581
-5.28081e-06
-0.000632595
-5.81188e-06
-0.000631504
-6.39616e-06
-0.000630314
-7.02941e-06
-0.000628999
-7.71114e-06
-0.000627561
-8.43783e-06
-0.000625992
-9.22879e-06
-0.00062428
-1.0087e-05
-0.000622407
-1.10137e-05
-0.000620368
-1.20062e-05
-0.000618143
-1.30833e-05
-0.000615726
-1.42419e-05
-0.000613099
-1.55009e-05
-0.000610237
-1.68648e-05
-0.000607128
-1.83286e-05
-0.000603759
-1.99083e-05
-0.000600096
-2.1626e-05
-0.000596123
-2.34787e-05
-0.000591814
-2.5476e-05
-0.000587141
-2.76418e-05
-0.000582072
-2.99854e-05
-0.000576572
-3.2538e-05
-0.000570602
-3.53169e-05
-0.000564113
-3.83571e-05
-0.000557044
-4.17158e-05
-0.000549324
-4.54313e-05
-0.00054087
-4.95504e-05
-0.000531589
-5.41134e-05
-0.000521358
-5.91766e-05
-0.000510046
-6.47492e-05
-0.000497525
-7.06743e-05
-0.000483728
-7.65323e-05
-0.000468677
-8.16642e-05
-0.000452523
-8.52118e-05
-0.000435433
-8.69203e-05
-0.00041736
-8.77907e-05
-0.000397769
-9.01758e-05
-0.00037537
-9.76398e-05
-0.000347878
-0.000114774
-0.000311922
-0.000147011
-0.000263079
-0.000200631
-0.000195807
-0.000283999
-0.000103385
-0.000408987
1.8871e-05
-0.000570178
0.000179556
-0.000796116
0.000398194
-0.00115719
0.000689229
-0.00161806
0.0010564
-0.00214234
0.00147856
-0.00250362
0.00190929
-0.00228899
0.00219864
-0.00141836
0.00228616
-0.00039761
0.000409729
-0.00075347
-1.6919e-07
-0.000753477
-1.71021e-07
-0.000753436
-4.36152e-07
-0.000753363
-6.43755e-07
-0.000753248
-8.83741e-07
-0.000753093
-1.12914e-06
-0.000752895
-1.39373e-06
-0.000752649
-1.66962e-06
-0.000752359
-1.95122e-06
-0.000752014
-2.25165e-06
-0.000751622
-2.58018e-06
-0.000751164
-2.94289e-06
-0.000750651
-3.31774e-06
-0.00075007
-3.71615e-06
-0.000749417
-4.14874e-06
-0.00074869
-4.62007e-06
-0.000747877
-5.13447e-06
-0.000746973
-5.68517e-06
-0.000745977
-6.27694e-06
-0.000744877
-6.91206e-06
-0.000743665
-7.60807e-06
-0.000742335
-8.35939e-06
-0.000740876
-9.17045e-06
-0.000739275
-1.00389e-05
-0.000737525
-1.09788e-05
-0.000735612
-1.20002e-05
-0.000733527
-1.30986e-05
-0.000731252
-1.42808e-05
-0.00072878
-1.55554e-05
-0.000726087
-1.69345e-05
-0.000723163
-1.84253e-05
-0.000719986
-2.00419e-05
-0.000716536
-2.17784e-05
-0.000712794
-2.36502e-05
-0.000708738
-2.56826e-05
-0.000704342
-2.78741e-05
-0.000699582
-3.02363e-05
-0.000694427
-3.27964e-05
-0.000688846
-3.55668e-05
-0.000682801
-3.85834e-05
-0.000676254
-4.18633e-05
-0.000669147
-4.54647e-05
-0.000661423
-4.944e-05
-0.000653009
-5.38445e-05
-0.000643815
-5.87449e-05
-0.000633732
-6.41962e-05
-0.000622634
-7.02743e-05
-0.000610367
-7.70166e-05
-0.000596794
-8.42473e-05
-0.000581812
-9.15149e-05
-0.00056541
-9.8066e-05
-0.000547677
-0.000102945
-0.00052866
-0.000105938
-0.000508097
-0.000108353
-0.00048512
-0.000113153
-0.000457939
-0.000124821
-0.00042366
-0.000149053
-0.000378288
-0.000192383
-0.000316911
-0.000262008
-0.000233733
-0.000367178
-0.000121989
-0.000520731
2.27815e-05
-0.000714948
0.000209267
-0.000982602
0.000458782
-0.0014067
0.000787816
-0.0019471
0.00120166
-0.00255619
0.00167554
-0.00297749
0.00217537
-0.00278884
0.00252015
-0.00176314
0.00263763
-0.000515083
0.000439827
-0.000882002
-1.56985e-07
-0.000882026
-1.47143e-07
-0.000881994
-4.68376e-07
-0.000881927
-7.11075e-07
-0.000881814
-9.96334e-07
-0.000881654
-1.28917e-06
-0.000881444
-1.60352e-06
-0.000881178
-1.93634e-06
-0.000880862
-2.26658e-06
-0.000880495
-2.61881e-06
-0.000880058
-3.01714e-06
-0.000879562
-3.43913e-06
-0.00087899
-3.88997e-06
-0.000878344
-4.36253e-06
-0.000877624
-4.86863e-06
-0.000876815
-5.42848e-06
-0.000875913
-6.03706e-06
-0.000874911
-6.68705e-06
-0.000873801
-7.38694e-06
-0.000872575
-8.13814e-06
-0.000871227
-8.95603e-06
-0.00086974
-9.84656e-06
-0.00086811
-1.08009e-05
-0.000866327
-1.18214e-05
-0.000864375
-1.29311e-05
-0.00086224
-1.41348e-05
-0.000859916
-1.54225e-05
-0.000857384
-1.68136e-05
-0.000854627
-1.83123e-05
-0.000851632
-1.99299e-05
-0.000848375
-2.16814e-05
-0.000844842
-2.35757e-05
-0.000841011
-2.5609e-05
-0.000836859
-2.78021e-05
-0.000832362
-3.01796e-05
-0.0008275
-3.27369e-05
-0.000822232
-3.55037e-05
-0.000816545
-3.84835e-05
-0.000810396
-4.17164e-05
-0.000803751
-4.52287e-05
-0.000796566
-4.90482e-05
-0.000788791
-5.32398e-05
-0.000780358
-5.78727e-05
-0.000771192
-6.30106e-05
-0.000761204
-6.87337e-05
-0.000750273
-7.51265e-05
-0.000738269
-8.22782e-05
-0.000725023
-9.02629e-05
-0.000710375
-9.88958e-05
-0.000694208
-0.000107682
-0.000676467
-0.000115807
-0.000657152
-0.000122259
-0.000636142
-0.000126948
-0.000612838
-0.000131657
-0.00058587
-0.000140122
-0.000552782
-0.000157908
-0.000509981
-0.000191854
-0.000452951
-0.000249414
-0.000376575
-0.000338384
-0.000275126
-0.000468626
-0.000141983
-0.000653875
2.71608e-05
-0.000884091
0.000241307
-0.00119675
0.000524223
-0.00168962
0.000894853
-0.00231773
0.00136067
-0.003022
0.00189365
-0.00351047
0.00246404
-0.00335925
0.00286444
-0.00216353
0.00301985
-0.000670487
0.000435602
-0.00102869
-1.39346e-07
-0.00102873
-1.03037e-07
-0.00102872
-4.83255e-07
-0.00102866
-7.70124e-07
-0.00102855
-1.10784e-06
-0.00102838
-1.4548e-06
-0.00102816
-1.82649e-06
-0.00102788
-2.21313e-06
-0.00102754
-2.61016e-06
-0.00102713
-3.02356e-06
-0.00102666
-3.48526e-06
-0.00102611
-3.99272e-06
-0.00102549
-4.51435e-06
-0.00102478
-5.07244e-06
-0.00102398
-5.66941e-06
-0.00102308
-6.32525e-06
-0.00102208
-7.03723e-06
-0.00102097
-7.80071e-06
-0.00101973
-8.62568e-06
-0.00101837
-9.49944e-06
-0.00101686
-1.04603e-05
-0.0010152
-1.15046e-05
-0.00101339
-1.26173e-05
-0.0010114
-1.38124e-05
-0.00100922
-1.51089e-05
-0.00100684
-1.6513e-05
-0.00100425
-1.80156e-05
-0.00100142
-1.96367e-05
-0.000998353
-2.13826e-05
-0.000995016
-2.32671e-05
-0.000991393
-2.53042e-05
-0.000987468
-2.75012e-05
-0.000983209
-2.98678e-05
-0.000978597
-3.24138e-05
-0.000973615
-3.51622e-05
-0.000968221
-3.81307e-05
-0.0009624
-4.13243e-05