/*--------------------------------*- C++ -*----------------------------------*\
| =========                 |                                                 |
| \\      /  F ield         | OpenFOAM: The Open Source CFD Toolbox           |
|  \\    /   O peration     | Version:  2412                                  |
|   \\  /    A nd           | Website:  www.openfoam.com                      |
|    \\/     M anipulation  |                                                 |
\*---------------------------------------------------------------------------*/
FoamFile
{
    version     2.0;
    format      ascii;
    arch        "LSB;label=32;scalar=64";
    class       surfaceScalarField;
    location    "360";
    object      phi;
}
// * * * * * * * * * * * * * * * * * * * * * * * * * * * * * * * * * * * * * //

dimensions      [0 3 -1 0 0 0 0];

oriented        oriented;

internalField   nonuniform List<scalar> 
17125
(
-1.55736e-06
-2.15902e-07
-1.21173e-06
-3.45642e-07
-6.44107e-07
-5.67587e-07
2.94098e-07
-9.38244e-07
1.7448e-06
-1.45058e-06
4.05369e-06
-2.30904e-06
7.04914e-06
-2.99619e-06
9.57631e-06
-2.5264e-06
1.07853e-05
-1.20953e-06
1.04745e-05
3.11377e-07
9.05764e-06
1.41705e-06
7.38979e-06
1.6677e-06
5.99587e-06
1.39557e-06
5.00466e-06
9.89509e-07
4.34353e-06
6.62653e-07
3.88882e-06
4.53239e-07
3.55853e-06
3.32107e-07
3.30987e-06
2.4689e-07
3.11125e-06
2.00243e-07
2.94427e-06
1.65384e-07
2.80035e-06
1.43923e-07
2.6741e-06
1.26249e-07
2.56197e-06
1.12126e-07
2.46155e-06
1.00432e-07
2.37124e-06
9.03194e-08
2.28991e-06
8.13328e-08
2.21642e-06
7.34996e-08
2.1501e-06
6.63324e-08
2.09021e-06
5.99037e-08
2.0363e-06
5.3918e-08
1.98814e-06
4.81781e-08
1.9449e-06
4.32556e-08
1.9064e-06
3.85238e-08
1.87221e-06
3.42039e-08
1.84206e-06
3.01616e-08
1.81576e-06
2.68829e-08
1.79298e-06
2.22489e-08
1.77365e-06
1.97353e-08
1.75752e-06
1.57771e-08
1.744e-06
1.39249e-08
1.73298e-06
1.06389e-08
1.72424e-06
8.96539e-09
1.71772e-06
6.32209e-09
1.7132e-06
4.80337e-09
1.7105e-06
2.48535e-09
1.70924e-06
1.48367e-09
1.70901e-06
4.49718e-11
1.70964e-06
-3.35527e-10
1.71106e-06
-1.65046e-09
1.71315e-06
-1.83785e-09
1.71586e-06
-2.91638e-09
1.71902e-06
-2.91736e-09
1.72259e-06
-3.77385e-09
1.72659e-06
-3.82893e-09
1.73069e-06
-4.23334e-09
1.73471e-06
-3.84912e-09
1.7386e-06
-4.02301e-09
1.74227e-06
-3.58046e-09
1.74577e-06
-3.55445e-09
1.74914e-06
-3.31488e-09
1.75238e-06
-3.28814e-09
1.75552e-06
-3.0433e-09
1.7586e-06
-3.12321e-09
1.76163e-06
-2.9299e-09
1.76468e-06
-3.07881e-09
1.76772e-06
-2.99194e-09
1.77063e-06
-2.90778e-09
1.77333e-06
-2.64243e-09
1.7759e-06
-2.57556e-09
1.77821e-06
-2.25694e-09
1.7804e-06
-2.20719e-09
1.78252e-06
-2.10929e-09
1.78447e-06
-1.90958e-09
1.78642e-06
-1.94065e-09
1.78827e-06
-1.83738e-09
1.79003e-06
-1.74938e-09
1.7918e-06
-1.72693e-09
1.79356e-06
-1.75688e-09
1.79531e-06
-1.71763e-09
1.79716e-06
-1.85378e-09
1.79896e-06
-1.73152e-09
1.80071e-06
-1.7842e-09
1.80239e-06
-1.60969e-09
1.80398e-06
-1.63557e-09
1.80546e-06
-1.35827e-09
-1.4557e-09
-5.41291e-06
-9.76094e-07
-4.20578e-06
-1.55278e-06
-2.23975e-06
-2.53357e-06
9.83774e-07
-4.16182e-06
5.928e-06
-6.39465e-06
1.37429e-05
-1.01241e-05
2.38506e-05
-1.3105e-05
3.2521e-05
-1.11958e-05
3.68989e-05
-5.5881e-06
3.6279e-05
9.3206e-07
3.18605e-05
5.83576e-06
2.63298e-05
7.19826e-06
2.15121e-05
6.21537e-06
1.80008e-05
4.49861e-06
1.56276e-05
3.03781e-06
1.39884e-05
2.09055e-06
1.27942e-05
1.52867e-06
1.18914e-05
1.14737e-06
1.11697e-05
9.24019e-07
1.05633e-05
7.69699e-07
1.00406e-05
6.66675e-07
9.58264e-06
5.842e-07
9.17563e-06
5.19139e-07
8.81143e-06
4.64647e-07
8.48376e-06
4.18007e-07
8.1884e-06
3.76699e-07
7.92105e-06
3.40853e-07
7.67917e-06
3.08228e-07
7.46071e-06
2.78386e-07
7.26358e-06
2.51062e-07
7.08617e-06
2.25619e-07
6.92676e-06
2.02678e-07
6.78395e-06
1.81371e-07
6.65686e-06
1.61315e-07
6.54427e-06
1.42768e-07
6.44512e-06
1.26771e-07
6.35903e-06
1.07683e-07
6.28546e-06
9.38174e-08
6.22309e-06
7.77054e-08
6.17072e-06
6.68022e-08
6.12729e-06
5.36028e-08
6.09252e-06
4.40211e-08
6.0656e-06
3.29948e-08
6.04623e-06
2.45332e-08
6.03366e-06
1.47924e-08
6.02665e-06
8.7669e-09
6.02366e-06
2.8128e-09
6.02388e-06
-1.84159e-10
6.02714e-06
-5.20093e-09
6.03325e-06
-7.62289e-09
6.04156e-06
-1.14785e-08
6.05181e-06
-1.28519e-08
6.06393e-06
-1.61574e-08
6.07736e-06
-1.7047e-08
6.09156e-06
-1.85899e-08
6.10568e-06
-1.77443e-08
6.11922e-06
-1.77325e-08
6.1322e-06
-1.64558e-08
6.14472e-06
-1.61346e-08
6.15677e-06
-1.52949e-08
6.16855e-06
-1.51231e-08
6.17977e-06
-1.41358e-08
6.19075e-06
-1.4146e-08
6.20166e-06
-1.37114e-08
6.21284e-06
-1.43009e-08
6.22365e-06
-1.37373e-08
6.23407e-06
-1.33118e-08
6.24412e-06
-1.26091e-08
6.25302e-06
-1.14818e-08
6.26161e-06
-1.07856e-08
6.26954e-06
-1.01505e-08
6.27693e-06
-9.46956e-09
6.28434e-06
-9.27649e-09
6.2912e-06
-8.78522e-09
6.29791e-06
-8.52897e-09
6.3043e-06
-8.12307e-09
6.31063e-06
-7.99603e-09
6.31688e-06
-8.0072e-09
6.32338e-06
-8.16638e-09
6.32994e-06
-8.41753e-09
6.33657e-06
-8.25993e-09
6.34306e-06
-8.31884e-09
6.34909e-06
-7.55303e-09
6.35485e-06
-7.4359e-09
6.36037e-06
-6.72723e-09
-6.67589e-09
-1.06008e-05
-2.49028e-06
-8.21415e-06
-3.93947e-06
-4.3574e-06
-6.39027e-06
1.91626e-06
-1.04355e-05
1.14657e-05
-1.59439e-05
2.64462e-05
-2.51048e-05
4.57844e-05
-3.24441e-05
6.26028e-05
-2.80132e-05
7.15076e-05
-1.44936e-05
7.11046e-05
1.33583e-06
6.335e-05
1.35906e-05
5.3001e-05
1.75471e-05
4.3603e-05
1.56155e-05
3.65781e-05
1.15212e-05
3.17686e-05
7.84948e-06
2.84308e-05
5.42626e-06
2.59938e-05
3.96827e-06
2.41465e-05
2.99213e-06
2.2668e-05
2.40483e-06
2.14267e-05
2.00876e-06
2.03577e-05
1.7357e-06
1.94202e-05
1.52166e-06
1.85882e-05
1.35116e-06
1.78421e-05
1.21078e-06
1.71702e-05
1.08988e-06
1.65638e-05
9.83166e-07
1.60137e-05
8.90888e-07
1.55149e-05
8.07128e-07
1.50623e-05
7.30971e-07
1.46521e-05
6.61232e-07
1.42823e-05
5.95522e-07
1.39478e-05
5.37154e-07
1.36471e-05
4.82106e-07
1.33774e-05
4.31003e-07
1.31368e-05
3.83423e-07
1.29241e-05
3.40295e-07
1.27374e-05
2.93638e-07
1.25761e-05
2.5567e-07
1.24382e-05
2.15168e-07
1.23208e-05
1.84737e-07
1.22225e-05
1.51367e-07
1.21418e-05
1.25064e-07
1.20781e-05
9.63682e-08
1.20305e-05
7.2597e-08
1.19971e-05
4.78516e-08
1.19756e-05
3.05328e-08
1.19631e-05
1.517e-08
1.19583e-05
4.92911e-09
1.19605e-05
-7.69062e-09
1.19685e-05
-1.53042e-08
1.19822e-05
-2.53793e-08
1.20003e-05
-3.06622e-08
1.20223e-05
-3.84433e-08
1.20481e-05
-4.25688e-08
1.20755e-05
-4.6177e-08
1.2103e-05
-4.50519e-08
1.21299e-05
-4.47158e-08
1.21559e-05
-4.23467e-08
1.21811e-05
-4.14905e-08
1.22057e-05
-3.97798e-08
1.22295e-05
-3.89646e-08
1.22529e-05
-3.73764e-08
1.22755e-05
-3.68193e-08
1.2298e-05
-3.60859e-08
1.23207e-05
-3.70544e-08
1.23432e-05
-3.61933e-08
1.23648e-05
-3.48927e-08
1.2385e-05
-3.26698e-08
1.24041e-05
-3.06224e-08
1.24216e-05
-2.8176e-08
1.24379e-05
-2.65323e-08
1.24536e-05
-2.50658e-08
1.24683e-05
-2.39598e-08
1.24827e-05
-2.31868e-08
1.24963e-05
-2.21308e-08
1.25099e-05
-2.17046e-08
1.25229e-05
-2.08519e-08
1.25359e-05
-2.10959e-08
1.25495e-05
-2.16227e-08
1.25632e-05
-2.21193e-08
1.25768e-05
-2.17925e-08
1.25898e-05
-2.1311e-08
1.26025e-05
-2.02478e-08
1.26145e-05
-1.94239e-08
1.26256e-05
-1.76786e-08
-1.78783e-08
-1.73867e-05
-5.03297e-06
-1.34107e-05
-7.91548e-06
-7.04178e-06
-1.27591e-05
3.22631e-06
-2.07037e-05
1.87239e-05
-3.14414e-05
4.28051e-05
-4.91861e-05
7.38166e-05
-6.34566e-05
0.000101128
-5.53234e-05
0.000116266
-2.96326e-05
0.000116966
6.36428e-07
0.000105842
2.47152e-05
8.98036e-05
3.35852e-05
7.45055e-05
3.09158e-05
6.27136e-05
2.33108e-05
5.45119e-05
1.60532e-05
4.87857e-05
1.11504e-05
4.45944e-05
8.16204e-06
4.1408e-05
6.1762e-06
3.88556e-05
4.95935e-06
3.67143e-05
4.14795e-06
3.48705e-05
3.57948e-06
3.32539e-05
3.13831e-06
3.18166e-05
2.78848e-06
3.05278e-05
2.49953e-06
2.93649e-05
2.25285e-06
2.83112e-05
2.0369e-06
2.73538e-05
1.84825e-06
2.64815e-05
1.67947e-06
2.56873e-05
1.52521e-06
2.49638e-05
1.38476e-06
2.43061e-05
1.25326e-06
2.37089e-05
1.1344e-06
2.31671e-05
1.02388e-06
2.26783e-05
9.19865e-07
2.22385e-05
8.2327e-07
2.18455e-05
7.34021e-07
2.14978e-05
6.40655e-07
2.11937e-05
5.60324e-07
2.093e-05
4.78435e-07
2.07023e-05
4.12953e-07
2.0508e-05
3.45172e-07
2.0346e-05
2.87361e-07
2.02144e-05
2.27674e-07
2.01114e-05
1.76003e-07
2.00353e-05
1.23744e-07
1.99809e-05
8.51263e-08
1.99443e-05
5.16103e-08
1.99222e-05
2.73995e-08
1.99138e-05
4.38704e-10
1.99177e-05
-1.89386e-08
1.99324e-05
-4.0307e-08
1.99563e-05
-5.41769e-08
1.99882e-05
-7.06475e-08
2.00272e-05
-8.13434e-08
2.00707e-05
-8.97925e-08
2.01153e-05
-8.9463e-08
2.01599e-05
-8.94938e-08
2.02036e-05
-8.59112e-08
2.02464e-05
-8.43713e-08
2.02887e-05
-8.20244e-08
2.03306e-05
-8.09086e-08
2.03708e-05
-7.74313e-08
2.04104e-05
-7.64276e-08
2.04497e-05
-7.52198e-08
2.04895e-05
-7.69424e-08
2.05293e-05
-7.59055e-08
2.05671e-05
-7.267e-08
2.06026e-05
-6.8025e-08
2.0636e-05
-6.40219e-08
2.06669e-05
-5.90168e-08
2.06959e-05
-5.5561e-08
2.07233e-05
-5.24524e-08
2.07498e-05
-5.03789e-08
2.07751e-05
-4.85248e-08
2.07994e-05
-4.63844e-08
2.0823e-05
-4.52803e-08
2.08457e-05
-4.34264e-08
2.08688e-05
-4.42332e-08
2.08923e-05
-4.50896e-08
2.09165e-05
-4.62697e-08
2.09407e-05
-4.58521e-08
2.0964e-05
-4.46723e-08
2.09856e-05
-4.17747e-08
2.10068e-05
-4.06394e-08
2.10268e-05
-3.75338e-08
-3.70176e-08
-2.60515e-05
-8.95959e-06
-1.99638e-05
-1.40032e-05
-1.03072e-05
-2.24157e-05
5.10282e-06
-3.61137e-05
2.81374e-05
-5.44759e-05
6.35078e-05
-8.45567e-05
0.000108872
-0.000108821
0.000149249
-9.56999e-05
0.000172551
-5.29354e-05
0.000175512
-2.32312e-06
0.000161345
3.88816e-05
0.000139056
5.58746e-05
0.000116617
5.33564e-05
9.86891e-05
4.12367e-05
8.59615e-05
2.87827e-05
7.69904e-05
2.01196e-05
7.03957e-05
1.47591e-05
6.53631e-05
1.12065e-05
6.13274e-05
8.99712e-06
5.79414e-05
7.53187e-06
5.50244e-05
6.49651e-06
5.24652e-05
5.69751e-06
5.01891e-05
5.06451e-06
4.81429e-05
4.54579e-06
4.62915e-05
4.10431e-06
4.46104e-05
3.71796e-06
4.30752e-05
3.38343e-06
4.16711e-05
3.08364e-06
4.03846e-05
2.81174e-06
3.92062e-05
2.5632e-06
3.81281e-05
2.33132e-06
3.71404e-05
2.12215e-06
3.62363e-05
1.92804e-06
3.54136e-05
1.74254e-06
3.46673e-05
1.56967e-06
3.3993e-05
1.40903e-06
3.33887e-05
1.24429e-06
3.28535e-05
1.09607e-06
3.23822e-05
9.49316e-07
3.19694e-05
8.26264e-07
3.16122e-05
7.01865e-07
3.13071e-05
5.92775e-07
3.10525e-05
4.81974e-07
3.0847e-05
3.81933e-07
3.06859e-05
2.84565e-07
3.05636e-05
2.07733e-07
3.0472e-05
1.42979e-07
3.04082e-05
9.15777e-08
3.03695e-05
3.88259e-08
3.03534e-05
-2.5179e-09
3.03577e-05
-4.48411e-08
3.03792e-05
-7.53069e-08
3.04167e-05
-1.0846e-07
3.04679e-05
-1.32283e-07
3.05279e-05
-1.49983e-07
3.05923e-05
-1.53608e-07
3.06581e-05
-1.55431e-07
3.07249e-05
-1.52623e-07
3.07918e-05
-1.51285e-07
3.08583e-05
-1.48506e-07
3.09241e-05
-1.467e-07
3.09895e-05
-1.42733e-07
3.10535e-05
-1.40477e-07
3.11178e-05
-1.39321e-07
3.11824e-05
-1.41655e-07
3.12469e-05
-1.4028e-07
3.13085e-05
-1.34253e-07
3.13667e-05
-1.26189e-07
3.14211e-05
-1.18351e-07
3.14716e-05
-1.09482e-07
3.1519e-05
-1.02938e-07
3.1564e-05
-9.73933e-08
3.1607e-05
-9.33536e-08
3.16486e-05
-9.01165e-08
3.16884e-05
-8.61377e-08
3.17266e-05
-8.34896e-08
3.17652e-05
-8.19595e-08
3.18029e-05
-8.18913e-08
3.18414e-05
-8.35271e-08
3.18803e-05
-8.51794e-08
3.19196e-05
-8.50455e-08
3.19572e-05
-8.22934e-08
3.19938e-05
-7.82677e-08
3.2028e-05
-7.48981e-08
3.20603e-05
-6.9625e-08
-6.87971e-08
-3.68793e-05
-1.47261e-05
-2.80202e-05
-2.28624e-05
-1.41226e-05
-3.63133e-05
7.79776e-06
-5.80341e-05
4.02032e-05
-8.68812e-05
8.92466e-05
-0.0001336
0.000151747
-0.000171323
0.000207837
-0.000151789
0.000241233
-8.6332e-05
0.000247504
-8.59315e-06
0.00023061
5.57756e-05
0.000201801
8.46839e-05
0.000171469
8.36895e-05
0.00014637
6.63343e-05
0.000128096
4.70579e-05
0.000115025
3.31888e-05
0.000105333
2.44532e-05
9.7892e-05
1.86457e-05
9.19029e-05
1.49883e-05
8.687e-05
1.25627e-05
8.25291e-05
1.08374e-05
7.87142e-05
9.51237e-06
7.53133e-05
8.46547e-06
7.22481e-05
7.61097e-06
6.94677e-05
6.8848e-06
6.6931e-05
6.25462e-06
6.46051e-05
5.70931e-06
6.24648e-05
5.22399e-06
6.04928e-05
4.7838e-06
5.86724e-05
4.3836e-06
5.69937e-05
4.01004e-06
5.54432e-05
3.67268e-06
5.40128e-05
3.35854e-06
5.26965e-05
3.05881e-06
5.14888e-05
2.77738e-06
5.03865e-05
2.51205e-06
4.93863e-05
2.24385e-06
4.84875e-05
1.99548e-06
4.76848e-05
1.75159e-06
4.69706e-05
1.54092e-06
4.63416e-05
1.33048e-06
4.57954e-05
1.13919e-06
4.53285e-05
9.48647e-07
4.49392e-05
7.71579e-07
4.46217e-05
6.01839e-07
4.43678e-05
4.61959e-07
4.41679e-05
3.42654e-07
4.40156e-05
2.44297e-07
4.39066e-05
1.47516e-07
4.38389e-05
6.54757e-08
4.38067e-05
-1.27655e-08
4.38073e-05
-7.57029e-08
4.38361e-05
-1.37422e-07
4.389e-05
-1.86019e-07
4.39628e-05
-2.22848e-07
4.4046e-05
-2.36648e-07
4.41354e-05
-2.44944e-07
4.42294e-05
-2.46485e-07
4.43261e-05
-2.48031e-07
4.44248e-05
-2.4718e-07
4.4525e-05
-2.46935e-07
4.46237e-05
-2.41271e-07
4.47224e-05
-2.39254e-07
4.48217e-05
-2.38461e-07
4.49225e-05
-2.42403e-07
4.50221e-05
-2.39894e-07
4.51184e-05
-2.30518e-07
4.52093e-05
-2.16907e-07
4.52946e-05
-2.03712e-07
4.53739e-05
-1.88629e-07
4.54485e-05
-1.77549e-07
4.55189e-05
-1.67783e-07
4.5587e-05
-1.6142e-07
4.56517e-05
-1.54787e-07
4.57144e-05
-1.48759e-07
4.57749e-05
-1.43975e-07
4.5834e-05
-1.40972e-07
4.5893e-05
-1.40939e-07
4.59538e-05
-1.44186e-07
4.60156e-05
-1.47036e-07
4.60764e-05
-1.45694e-07
4.61359e-05
-1.41829e-07
4.61923e-05
-1.346e-07
4.62455e-05
-1.28017e-07
4.62959e-05
-1.19932e-07
-1.18105e-07
-5.01376e-05
-2.29118e-05
-3.76861e-05
-3.53139e-05
-1.83945e-05
-5.56048e-05
1.16319e-05
-8.80605e-05
5.54683e-05
-0.000130718
0.00012067
-0.000198802
0.000203052
-0.000253706
0.000277472
-0.000226208
0.000322752
-0.000131613
0.000332895
-1.87352e-05
0.000312881
7.57894e-05
0.000276909
0.000120657
0.000238289
0.00012231
0.000205755
9.88667e-05
0.00018157
7.12442e-05
0.000163955
5.08027e-05
0.000150717
3.76928e-05
0.000140441
2.89197e-05
0.000132113
2.33187e-05
0.000125082
1.95915e-05
0.000118993
1.69268e-05
0.000113624
1.48812e-05
0.00010882
1.327e-05
0.000104474
1.19564e-05
0.000100511
1.08478e-05
9.6881e-05
9.88477e-06
9.35317e-05
9.05859e-06
9.04325e-05
8.32323e-06
8.75551e-05
7.66127e-06
8.48788e-05
7.05986e-06
8.2389e-05
6.49992e-06
8.00667e-05
5.99498e-06
7.79047e-05
5.52064e-06
7.5893e-05
5.0705e-06
7.40273e-05
4.64316e-06
7.23022e-05
4.23776e-06
7.07174e-05
3.82807e-06
6.92732e-05
3.44022e-06
6.79643e-05
3.06009e-06
6.67822e-05
2.72346e-06
6.57247e-05
2.38756e-06
6.47883e-05
2.07582e-06
6.39715e-05
1.76524e-06
6.32707e-05
1.47274e-06
6.2682e-05
1.19038e-06
6.21937e-05
9.50523e-07
6.1792e-05
7.44163e-07
6.14697e-05
5.6692e-07
6.12222e-05
3.94811e-07
6.10428e-05
2.451e-07
6.0926e-05
1.03834e-07
6.08647e-05
-1.40454e-08
6.08543e-05
-1.2721e-07
6.0889e-05
-2.20595e-07
6.09578e-05
-2.91718e-07
6.10503e-05
-3.28922e-07
6.11597e-05
-3.54514e-07
6.12813e-05
-3.67983e-07
6.14126e-05
-3.79382e-07
6.15506e-05
-3.85084e-07
6.16936e-05
-3.90038e-07
6.18391e-05
-3.86569e-07
6.19852e-05
-3.85418e-07
6.21331e-05
-3.86167e-07
6.22842e-05
-3.9358e-07
6.2434e-05
-3.89583e-07
6.25792e-05
-3.75704e-07
6.27163e-05
-3.53932e-07
6.2846e-05
-3.33334e-07
6.29676e-05
-3.10198e-07
6.30808e-05
-2.90699e-07
6.3189e-05
-2.75979e-07
6.32922e-05
-2.64533e-07
6.3392e-05
-2.54526e-07
6.34873e-05
-2.44095e-07
6.358e-05
-2.36612e-07
6.36697e-05
-2.30559e-07
6.37605e-05
-2.31771e-07
6.38513e-05
-2.34886e-07
6.39448e-05
-2.40501e-07
6.40373e-05
-2.3807e-07
6.41264e-05
-2.30953e-07
6.42118e-05
-2.1992e-07
6.42936e-05
-2.09857e-07
6.4369e-05
-1.9514e-07
-1.93388e-07
-6.60542e-05
-3.42429e-05
-4.90023e-05
-5.23658e-05
-2.29479e-05
-8.16592e-05
1.69941e-05
-0.000128002
7.44983e-05
-0.000188222
0.000158332
-0.000282636
0.000263192
-0.000358567
0.00035857
-0.000321586
0.000417511
-0.000190555
0.000431662
-3.28857e-05
0.000407309
0.000100143
0.000362552
0.000165413
0.000314648
0.000170215
0.000274504
0.000139009
0.000244633
0.000101116
0.000222692
7.27424e-05
0.000206011
5.43757e-05
0.000192904
4.20243e-05
0.000182175
3.40497e-05
0.000173048
2.87169e-05
0.00016509
2.48848e-05
0.000158027
2.19439e-05
0.000151672
1.96251e-05
0.000145888
1.77405e-05
0.000140586
1.61498e-05
0.000135694
1.47769e-05
0.000131154
1.35983e-05
0.000126921
1.25569e-05
0.00012296
1.16221e-05
0.000119245
1.07749e-05
0.000115755
9.98949e-06
0.000112469
9.28112e-06
0.000109373
8.617e-06
0.000106463
7.98079e-06
0.000103728
7.37751e-06
0.00010117
6.79695e-06
9.87875e-05
6.20981e-06
9.65835e-05
5.64461e-06
9.45538e-05
5.08944e-06
9.2694e-05
4.58378e-06
9.10024e-05
4.07872e-06
8.94782e-05
3.60027e-06
8.81215e-05
3.12172e-06
8.69314e-05
2.66317e-06
8.5903e-05
2.21865e-06
8.50236e-05
1.83016e-06
8.42793e-05
1.48832e-06
8.36599e-05
1.18668e-06
8.31573e-05
8.97131e-07
8.27659e-05
6.36838e-07
8.24783e-05
3.91227e-07
8.2283e-05
1.81576e-07
8.21737e-05
-1.81903e-08
8.21409e-05
-1.87533e-07
8.21706e-05
-3.21569e-07
8.22472e-05
-4.05244e-07
8.23585e-05
-4.66021e-07
8.24991e-05
-5.08406e-07
8.26617e-05
-5.4199e-07
8.28433e-05
-5.66694e-07
8.30381e-05
-5.84808e-07
8.32414e-05
-5.89772e-07
8.34494e-05
-5.93372e-07
8.36632e-05
-5.99806e-07
8.38817e-05
-6.12092e-07
8.41018e-05
-6.09589e-07
8.43145e-05
-5.88401e-07
8.4518e-05
-5.57305e-07
8.47097e-05
-5.25048e-07
8.48903e-05
-4.90656e-07
8.50596e-05
-4.6005e-07
8.52205e-05
-4.36825e-07
8.53743e-05
-4.18186e-07
8.55215e-05
-4.01704e-07
8.5664e-05
-3.86612e-07
8.58009e-05
-3.73441e-07
8.5936e-05
-3.65603e-07
8.60692e-05
-3.64892e-07
8.62061e-05
-3.71733e-07
8.63423e-05
-3.76717e-07
8.64793e-05
-3.74885e-07
8.6611e-05
-3.62687e-07
8.67372e-05
-3.46006e-07
8.68562e-05
-3.28872e-07
8.69691e-05
-3.07917e-07
-3.02001e-07
-8.47856e-05
-4.962e-05
-6.19157e-05
-7.52356e-05
-2.75133e-05
-0.000116062
2.43301e-05
-0.000179846
9.78456e-05
-0.000261737
0.000202647
-0.000387437
0.000332365
-0.000488285
0.000451528
-0.000440748
0.000526232
-0.000265259
0.00054456
-5.12133e-05
0.000514419
0.000130285
0.000458673
0.000221159
0.000399533
0.000229356
0.000350658
0.000187884
0.000314796
0.000136979
0.000288687
9.88502e-05
0.000268871
7.41933e-05
0.000253239
5.76551e-05
0.000240375
4.69141e-05
0.000229367
3.97249e-05
0.000219708
3.45432e-05
0.000211084
3.05686e-05
0.000203274
2.74343e-05
0.000196127
2.48882e-05
0.000189528
2.27481e-05
0.000183403
2.09019e-05
0.000177678
1.9324e-05
0.0001723
1.79346e-05
0.00016723
1.66926e-05
0.000162427
1.5577e-05
0.000157876
1.45408e-05
0.000153546
1.3611e-05
0.000149423
1.27407e-05
0.000145497
1.19061e-05
0.000141765
1.11096e-05
0.000138225
1.03373e-05
0.000134879
9.55549e-06
0.000131736
8.78822e-06
0.000128795
8.02977e-06
0.000126055
7.32435e-06
0.000123519
6.61515e-06
0.000121191
5.92797e-06
0.000119077
5.23553e-06
0.000117181
4.55991e-06
0.000115501
3.89851e-06
0.000114026
3.30459e-06
0.000112744
2.7704e-06
0.000111643
2.28814e-06
0.000110719
1.82094e-06
0.000109964
1.39249e-06
0.000109366
9.88881e-07
0.000108917
6.30441e-07
0.000108605
2.93877e-07
0.000108419
-1.39485e-09
0.000108339
-2.4127e-07
0.000108344
-4.10133e-07
0.000108417
-5.39653e-07
0.000108548
-6.38661e-07
0.000108726
-7.20365e-07
0.000108943
-7.83885e-07
0.000109191
-8.32309e-07
0.00010946
-8.58973e-07
0.000109744
-8.77651e-07
0.000110041
-8.9654e-07
0.000110351
-9.21602e-07
0.000110663
-9.21782e-07
0.000110968
-8.9309e-07
0.00011126
-8.49734e-07
0.000111539
-8.04026e-07
0.000111801
-7.52323e-07
0.000112048
-7.07311e-07
0.000112283
-6.71469e-07
0.000112508
-6.4353e-07
0.000112724
-6.17511e-07
0.00011293
-5.92772e-07
0.000113131
-5.74233e-07
0.000113326
-5.60332e-07
0.00011352
-5.59298e-07
0.000113716
-5.67269e-07
0.000113914
-5.74309e-07
0.00011411
-5.71288e-07
0.0001143
-5.52897e-07
0.00011448
-5.25864e-07
0.000114653
-5.01364e-07
0.000114815
-4.69787e-07
-4.59664e-07
-0.000106383
-7.01426e-05
-7.62543e-05
-0.000105364
-3.17196e-05
-0.000160596
3.41158e-05
-0.000245681
0.000126
-0.000353621
0.000253866
-0.000515303
0.00041057
-0.00064499
0.000556782
-0.00058696
0.000650028
-0.000358506
0.000673197
-7.43819e-05
0.00063621
0.000167273
0.000567264
0.000290105
0.000494459
0.000302162
0.000434895
0.000247446
0.000391813
0.000180062
0.000360936
0.000129726
0.000337771
9.73595e-05
0.000319623
7.58024e-05
0.000304735
6.18031e-05
0.00029201
5.2449e-05
0.000280842
4.57106e-05
0.000270858
4.05532e-05
0.000261799
3.64929e-05
0.000253484
3.32028e-05
0.000245789
3.04431e-05
0.000238618
2.80733e-05
0.000231887
2.60552e-05
0.000225535
2.42863e-05
0.000219512
2.27158e-05
0.000213776
2.13134e-05
0.000208296
2.00209e-05
0.000203039
1.88679e-05
0.000197988
1.77916e-05
0.000193126
1.67678e-05
0.000188448
1.57877e-05
0.000183954
1.48318e-05
0.000179645
1.38642e-05
0.000175531
1.29025e-05
0.000171616
1.19442e-05
0.000167905
1.10359e-05
0.000164405
1.0115e-05
0.000161128
9.20552e-06
0.000158086
8.27727e-06
0.000155294
7.35251e-06
0.000152757
6.43524e-06
0.000150472
5.58913e-06
0.000148431
4.81134e-06
0.000146631
4.08836e-06
0.000145071
3.38163e-06
0.000143744
2.71886e-06
0.000142647
2.08625e-06
0.000141767
1.5111e-06
0.000141094
9.66272e-07
0.000140614
4.79174e-07
0.000140303
6.90905e-08
0.000140136
-2.43044e-07
0.000140092
-4.95398e-07
0.000140152
-6.98758e-07
0.000140301
-8.69366e-07
0.000140526
-1.00837e-06
0.000140812
-1.11891e-06
0.000141145
-1.19141e-06
0.000141513
-1.24533e-06
0.000141909
-1.29327e-06
0.000142328
-1.34019e-06
0.000142758
-1.35175e-06
0.000143183
-1.31821e-06
0.000143596
-1.26194e-06
0.00014399
-1.19888e-06
0.000144365
-1.12627e-06
0.000144717
-1.0598e-06
0.000145053
-1.00726e-06
0.000145374
-9.64422e-07
0.000145682
-9.25321e-07
0.000145978
-8.8896e-07
0.000146263
-8.59702e-07
0.000146541
-8.37923e-07
0.000146816
-8.33897e-07
0.000147092
-8.43444e-07
0.000147372
-8.53744e-07
0.000147645
-8.4493e-07
0.000147912
-8.19417e-07
0.000148167
-7.80797e-07
0.000148408
-7.42591e-07
0.000148636
-6.97401e-07
-6.80253e-07
-0.000130751
-9.71351e-05
-9.17073e-05
-0.000144408
-3.51048e-05
-0.000217199
4.68111e-05
-0.000327597
0.00015934
-0.00046615
0.000312075
-0.000668038
0.000497627
-0.000830542
0.000674772
-0.000764105
0.000790187
-0.000473921
0.000819637
-0.000103832
0.00077561
0.0002113
0.000691498
0.000374216
0.000602417
0.000391244
0.000529786
0.000320077
0.000477716
0.000232133
0.000440885
0.000166556
0.000413614
0.000124631
0.000392468
9.69483e-05
0.000375261
7.90103e-05
0.000360652
6.70574e-05
0.000347893
5.84698e-05
0.000336532
5.19137e-05
0.000326254
4.67713e-05
0.000316845
4.2612e-05
0.000308152
3.91359e-05
0.000300063
3.61618e-05
0.000292482
3.36361e-05
0.000285328
3.14405e-05
0.000278541
2.95025e-05
0.000272072
2.77827e-05
0.00026588
2.62131e-05
0.000259919
2.48287e-05
0.000254159
2.35517e-05
0.00024859
2.23374e-05
0.000243183
2.11942e-05
0.00023794
2.00754e-05
0.000232856
1.89478e-05
0.000227938
1.78207e-05
0.000223187
1.66953e-05
0.000218606
1.5617e-05
0.000214204
1.45164e-05
0.00021
1.341e-05
0.000206011
1.22664e-05
0.000202258
1.11054e-05
0.000198762
9.93109e-06
0.000195528
8.8235e-06
0.00019256
7.77954e-06
0.000189863
6.78512e-06
0.000187452
5.79241e-06
0.000185332
4.83908e-06
0.000183506
3.91195e-06
0.000181972
3.04605e-06
0.000180722
2.21602e-06
0.000179748
1.45317e-06
0.000179028
7.88934e-07
0.000178531
2.54541e-07
0.000178232
-1.96604e-07
0.000178108
-5.7544e-07
0.000178142
-9.02634e-07
0.000178308
-1.17423e-06
0.000178588
-1.39981e-06
0.00017896
-1.56315e-06
0.000179403
-1.68755e-06
0.000179902
-1.79231e-06
0.000180449
-1.88704e-06
0.000181021
-1.92393e-06
0.000181597
-1.89439e-06
0.00018216
-1.8251e-06
0.000182707
-1.74527e-06
0.000183228
-1.64759e-06
0.000183722
-1.5533e-06
0.000184191
-1.47687e-06
0.000184643
-1.41551e-06
0.000185074
-1.35678e-06
0.000185488
-1.3023e-06
0.000185885
-1.25732e-06
0.000186273
-1.22528e-06
0.000186654
-1.21505e-06
0.000187036
-1.2259e-06
0.000187417
-1.23466e-06
0.000187796
-1.2233e-06
0.000188161
-1.18459e-06
0.00018851
-1.12964e-06
0.000188843
-1.07547e-06
0.000189156
-1.01034e-06
-9.84645e-07
-0.000157628
-0.000132149
-0.000107829
-0.000194207
-3.71575e-05
-0.00028787
6.27977e-05
-0.000427553
0.00019807
-0.000601422
0.000377184
-0.000847152
0.000593216
-0.00104658
0.000805688
-0.000976576
0.000947435
-0.000615668
0.000985755
-0.000142152
0.00093605
0.000261005
0.000835203
0.000475063
0.000727088
0.00049936
0.000638706
0.000408458
0.000575538
0.000295301
0.000531237
0.000210857
0.000498792
0.000157077
0.000473881
0.000121859
0.000453794
9.90969e-05
0.000436874
8.39775e-05
0.000422199
7.31449e-05
0.000409205
6.49077e-05
0.000397522
5.84545e-05
0.000386882
5.32522e-05
0.000377102
4.89154e-05
0.000368049
4.52149e-05
0.0003596
4.20855e-05
0.000351664
3.93758e-05
0.000344169
3.69983e-05
0.000337046
3.49055e-05
0.000330247
3.30122e-05
0.000323718
3.1357e-05
0.000317417
2.98531e-05
0.000311313
2.84412e-05
0.000305384
2.71231e-05
0.00029961
2.58504e-05
0.00029398
2.45768e-05
0.000288493
2.33084e-05
0.000283142
2.20456e-05
0.000277918
2.08413e-05
0.000272832
1.96026e-05
0.000267889
1.83526e-05
0.000263112
1.70438e-05
0.000258519
1.56981e-05
0.000254135
1.43156e-05
0.000249975
1.29839e-05
0.00024605
1.17041e-05
0.000242382
1.04534e-05
0.000238995
9.17917e-06
0.000235916
7.91854e-06
0.000233164
6.66304e-06
0.000230753
5.45741e-06
0.000228692
4.27696e-06
0.000226986
3.16013e-06
0.000225619
2.15551e-06
0.000224569
1.30432e-06
0.000223813
5.59171e-07
0.000223332
-9.35028e-08
0.000223095
-6.66059e-07
0.000223083
-1.16184e-06
0.000223266
-1.58296e-06
0.000223609
-1.9066e-06
0.000224086
-2.16402e-06
0.000224672
-2.37866e-06
0.000225347
-2.56142e-06
0.000226075
-2.65231e-06
0.000226827
-2.64598e-06
0.00022758
-2.57776e-06
0.000228316
-2.4811e-06
0.000229025
-2.35655e-06
0.000229701
-2.2295e-06
0.000230347
-2.12299e-06
0.000230966
-2.03466e-06
0.000231559
-1.94942e-06
0.000232125
-1.86862e-06
0.000232671
-1.8031e-06
0.0002332
-1.75355e-06
0.000233719
-1.73442e-06
0.000234233
-1.74022e-06
0.000234748
-1.74933e-06
0.000235254
-1.72925e-06
0.000235744
-1.67418e-06
0.000236214
-1.59919e-06
0.000236661
-1.52245e-06
0.000237085
-1.43435e-06
-1.39705e-06
-0.000186577
-0.000176939
-0.000124074
-0.00025671
-3.73918e-05
-0.000374552
8.23064e-05
-0.000547251
0.000242162
-0.000761277
0.000448983
-0.00105397
0.000697106
-0.0012947
0.000948275
-0.00122774
0.00112072
-0.000788111
0.00117321
-0.000194647
0.00112123
0.000312984
0.00100269
0.000593606
0.000872659
0.000629392
0.000765471
0.000515645
0.000688735
0.000372037
0.00063516
0.000264432
0.000596239
0.000195998
0.000566613
0.000151485
0.000542925
0.000122785
0.00052312
0.000103782
0.000506061
9.02033e-05
0.000491057
7.99123e-05
0.000477639
7.18722e-05
0.000465493
6.53984e-05
0.000454393
6.00152e-05
0.00044418
5.54285e-05
0.000434703
5.15618e-05
0.000425857
4.82218e-05
0.000417549
4.53066e-05
0.000409701
4.2753e-05
0.000402249
4.04643e-05
0.000395129
3.8477e-05
0.00038829
3.66921e-05
0.000381688
3.50433e-05
0.000375292
3.35196e-05
0.000369075
3.20677e-05
0.000363012
3.06393e-05
0.000357099
2.92217e-05
0.000351312
2.7832e-05
0.000345641
2.65125e-05
0.000340076
2.51674e-05
0.000334618
2.38115e-05
0.000329276
2.23851e-05
0.000324065
2.09092e-05
0.000319001
1.93794e-05
0.000314095
1.78904e-05
0.000309358
1.64411e-05
0.000304813
1.49983e-05
0.000300496
1.34966e-05
0.00029644
1.19747e-05
0.000292685
1.04179e-05
0.000289265
8.87741e-06
0.000286212
7.32971e-06
0.000283552
5.81984e-06
0.000281295
4.41265e-06
0.000279438
3.16196e-06
0.00027797
2.02637e-06
0.00027688
9.96498e-07
0.000276155
5.97507e-08
0.000275766
-7.72667e-07
0.000275686
-1.5032e-06
0.000275875
-2.09621e-06
0.000276294
-2.58265e-06
0.000276906
-2.99038e-06
0.000277677
-3.33253e-06
0.000278561
-3.53585e-06
0.000279505
-3.59039e-06
0.000280471
-3.543e-06
0.000281438
-3.4488e-06
0.000282382
-3.29989e-06
0.000283289
-3.13662e-06
0.00028416
-2.99387e-06
0.000284993
-2.8679e-06
0.000285793
-2.74875e-06
0.000286558
-2.63372e-06
0.00028729
-2.53527e-06
0.000287998
-2.46119e-06
0.000288689
-2.4255e-06
0.000289372
-2.42346e-06
0.000290049
-2.42617e-06
0.000290717
-2.39652e-06
0.000291364
-2.3218e-06
0.000291984
-2.21851e-06
0.000292575
-2.11391e-06
0.000293136
-1.99506e-06
-1.94312e-06
-0.000217026
-0.000233386
-0.000139901
-0.000333835
-3.54633e-05
-0.000478989
0.000105353
-0.000688067
0.000291351
-0.000947275
0.00052726
-0.00128988
0.000809488
-0.00157693
0.00109886
-0.00151712
0.00130721
-0.000996457
0.00138439
-0.000271829
0.00133494
0.000362433
0.00119868
0.000729866
0.00104383
0.000784237
0.000914393
0.000645087
0.000821176
0.000465254
0.000756152
0.000329455
0.000709187
0.000242964
0.000673698
0.000186973
0.000645533
0.000150952
0.000622153
0.000127161
0.000602143
0.000110213
0.000584636
9.74198e-05
0.000569072
8.74356e-05
0.000555054
7.94166e-05
0.00054231
7.27597e-05
0.000530642
6.70964e-05
0.000519878
6.23252e-05
0.000509885
5.82153e-05
0.000500555
5.4637e-05
0.000491791
5.15165e-05
0.000483518
4.87374e-05
0.00047566
4.6335e-05
0.000468151
4.42009e-05
0.000460946
4.2249e-05
0.000453997
4.04688e-05
0.000447271
3.87931e-05
0.000440742
3.71688e-05
0.000434386
3.55773e-05
0.00042819
3.40286e-05
0.000422117
3.25856e-05
0.000416159
3.11246e-05
0.000410304
2.96668e-05
0.000404547
2.81419e-05
0.000398897
2.65598e-05
0.000393354
2.49226e-05
0.000387919
2.33247e-05
0.000382591
2.17699e-05
0.000377382
2.02067e-05
0.000372319
1.85599e-05
0.000367438
1.68564e-05
0.00036278
1.50753e-05
0.000358387
1.32706e-05
0.000354311
1.14061e-05
0.000350597
9.53345e-06
0.000347285
7.72462e-06
0.000344399
6.04874e-06
0.000341961
4.46418e-06
0.000339988
2.9691e-06
0.000338485
1.5627e-06
0.000337449
2.63139e-07
0.000336859
-9.12479e-07
0.000336682
-1.91897e-06
0.000336871
-2.7721e-06
0.000337382
-3.50141e-06
0.000338166
-4.11665e-06
0.000339157
-4.52644e-06
0.00034028
-4.71346e-06
0.000341481
-4.74324e-06
0.000342711
-4.67858e-06
0.000343933
-4.52258e-06
0.000345124
-4.32687e-06
0.000346273
-4.14359e-06
0.000347381
-3.97535e-06
0.000348441
-3.80859e-06
0.000349454
-3.64645e-06
0.000350424
-3.50537e-06
0.000351357
-3.39376e-06
0.000352265
-3.33427e-06
0.000353156
-3.31434e-06
0.000354038
-3.30771e-06
0.000354902
-3.26039e-06
0.000355739
-3.15832e-06
0.000356542
-3.02142e-06
0.000357313
-2.88529e-06
0.000358045