/*--------------------------------*- C++ -*----------------------------------*\
| =========                 |                                                 |
| \\      /  F ield         | OpenFOAM: The Open Source CFD Toolbox           |
|  \\    /   O peration     | Version:  2412                                  |
|   \\  /    A nd           | Website:  www.openfoam.com                      |
|    \\/     M anipulation  |                                                 |
\*---------------------------------------------------------------------------*/
FoamFile
{
    version     2.0;
    format      ascii;
    arch        "LSB;label=32;scalar=64";
    class       volScalarField;
    location    "260";
    object      nuTilda;
}
// * * * * * * * * * * * * * * * * * * * * * * * * * * * * * * * * * * * * * //

dimensions      [0 2 -1 0 0 0 0];

internalField   nonuniform List<scalar> 
8702
(
1.65756e-06
1.65766e-06
1.65772e-06
1.6578e-06
1.65788e-06
1.65798e-06
1.65814e-06
1.65825e-06
1.65831e-06
1.65838e-06
1.65844e-06
1.65846e-06
1.65846e-06
1.65846e-06
1.65843e-06
1.65841e-06
1.65837e-06
1.65832e-06
1.6583e-06
1.65822e-06
1.65812e-06
1.65803e-06
1.65791e-06
1.65778e-06
1.65766e-06
1.65752e-06
1.65735e-06
1.65719e-06
1.65702e-06
1.65682e-06
1.65663e-06
1.65644e-06
1.65621e-06
1.65599e-06
1.65577e-06
1.65548e-06
1.65522e-06
1.65496e-06
1.65469e-06
1.65442e-06
1.65414e-06
1.65385e-06
1.65353e-06
1.65321e-06
1.65291e-06
1.65261e-06
1.65229e-06
1.65195e-06
1.6516e-06
1.65122e-06
1.65082e-06
1.65044e-06
1.65005e-06
1.64965e-06
1.64923e-06
1.64883e-06
1.64841e-06
1.64796e-06
1.64752e-06
1.64712e-06
1.64671e-06
1.64629e-06
1.6459e-06
1.64558e-06
1.64535e-06
1.64515e-06
1.64501e-06
1.64487e-06
1.64474e-06
1.6449e-06
1.64564e-06
1.64693e-06
1.64823e-06
1.64906e-06
1.64908e-06
1.6491e-06
1.65105e-06
1.65602e-06
1.6654e-06
1.67762e-06
1.68816e-06
1.6948e-06
5.11788e-06
5.1183e-06
5.11858e-06
5.11891e-06
5.11927e-06
5.11967e-06
5.12019e-06
5.12063e-06
5.12093e-06
5.12119e-06
5.1214e-06
5.12153e-06
5.12158e-06
5.12161e-06
5.12158e-06
5.12157e-06
5.1215e-06
5.12137e-06
5.12126e-06
5.12107e-06
5.12083e-06
5.12055e-06
5.12022e-06
5.11983e-06
5.11946e-06
5.11903e-06
5.11852e-06
5.11802e-06
5.11746e-06
5.11685e-06
5.11623e-06
5.11559e-06
5.11487e-06
5.11412e-06
5.11337e-06
5.11254e-06
5.11169e-06
5.11084e-06
5.10997e-06
5.1091e-06
5.10819e-06
5.10723e-06
5.10623e-06
5.1052e-06
5.10423e-06
5.10319e-06
5.10212e-06
5.10099e-06
5.09984e-06
5.09866e-06
5.09742e-06
5.09616e-06
5.09486e-06
5.09354e-06
5.0922e-06
5.09084e-06
5.08942e-06
5.088e-06
5.08659e-06
5.08523e-06
5.08389e-06
5.08252e-06
5.08124e-06
5.08014e-06
5.07929e-06
5.0786e-06
5.07808e-06
5.07751e-06
5.07705e-06
5.07744e-06
5.07945e-06
5.08304e-06
5.08677e-06
5.08928e-06
5.08957e-06
5.08977e-06
5.09526e-06
5.10937e-06
5.13596e-06
5.17086e-06
5.20175e-06
5.222e-06
8.8424e-06
8.84355e-06
8.84432e-06
8.8451e-06
8.84592e-06
8.84681e-06
8.84786e-06
8.84888e-06
8.84966e-06
8.85028e-06
8.8508e-06
8.85118e-06
8.85144e-06
8.85162e-06
8.85167e-06
8.85172e-06
8.85171e-06
8.85157e-06
8.85139e-06
8.85115e-06
8.8508e-06
8.85034e-06
8.84981e-06
8.84918e-06
8.84852e-06
8.84776e-06
8.84688e-06
8.84596e-06
8.84494e-06
8.84387e-06
8.84272e-06
8.8415e-06
8.84022e-06
8.83884e-06
8.83744e-06
8.83595e-06
8.83439e-06
8.83279e-06
8.83117e-06
8.82955e-06
8.82784e-06
8.82605e-06
8.82418e-06
8.82229e-06
8.82041e-06
8.81844e-06
8.8164e-06
8.81426e-06
8.81206e-06
8.80983e-06
8.80752e-06
8.80513e-06
8.80265e-06
8.80016e-06
8.79762e-06
8.79499e-06
8.79229e-06
8.78961e-06
8.78694e-06
8.78431e-06
8.78171e-06
8.7791e-06
8.77661e-06
8.7744e-06
8.77258e-06
8.77111e-06
8.76986e-06
8.7686e-06
8.7676e-06
8.76788e-06
8.77057e-06
8.77573e-06
8.78138e-06
8.78548e-06
8.78635e-06
8.787e-06
8.79518e-06
8.8162e-06
8.85579e-06
8.90833e-06
8.95675e-06
8.99053e-06
1.2757e-05
1.27595e-05
1.27613e-05
1.27628e-05
1.27643e-05
1.2766e-05
1.27679e-05
1.27698e-05
1.27714e-05
1.27727e-05
1.27738e-05
1.27747e-05
1.27753e-05
1.27758e-05
1.27761e-05
1.27764e-05
1.27765e-05
1.27765e-05
1.27764e-05
1.27761e-05
1.27757e-05
1.27751e-05
1.27743e-05
1.27735e-05
1.27725e-05
1.27714e-05
1.27701e-05
1.27686e-05
1.27671e-05
1.27654e-05
1.27636e-05
1.27617e-05
1.27597e-05
1.27576e-05
1.27553e-05
1.2753e-05
1.27505e-05
1.2748e-05
1.27454e-05
1.27428e-05
1.27401e-05
1.27372e-05
1.27342e-05
1.27312e-05
1.27281e-05
1.27249e-05
1.27216e-05
1.27181e-05
1.27145e-05
1.27108e-05
1.2707e-05
1.27031e-05
1.26991e-05
1.2695e-05
1.26908e-05
1.26865e-05
1.26821e-05
1.26777e-05
1.26732e-05
1.26688e-05
1.26644e-05
1.26601e-05
1.26559e-05
1.2652e-05
1.26486e-05
1.26456e-05
1.26431e-05
1.26406e-05
1.26385e-05
1.26379e-05
1.26403e-05
1.26457e-05
1.26522e-05
1.26572e-05
1.26587e-05
1.26599e-05
1.26694e-05
1.26941e-05
1.27405e-05
1.28029e-05
1.28632e-05
1.29085e-05
1.67888e-05
1.67936e-05
1.67969e-05
1.67996e-05
1.68023e-05
1.68051e-05
1.68083e-05
1.68115e-05
1.68142e-05
1.68166e-05
1.68186e-05
1.68203e-05
1.68216e-05
1.68227e-05
1.68235e-05
1.68242e-05
1.68246e-05
1.68248e-05
1.68249e-05
1.68247e-05
1.68242e-05
1.68235e-05
1.68226e-05
1.68215e-05
1.68202e-05
1.68186e-05
1.68168e-05
1.68148e-05
1.68126e-05
1.68102e-05
1.68076e-05
1.68049e-05
1.68019e-05
1.67988e-05
1.67955e-05
1.67921e-05
1.67885e-05
1.67848e-05
1.6781e-05
1.6777e-05
1.67729e-05
1.67686e-05
1.67642e-05
1.67596e-05
1.67549e-05
1.67501e-05
1.6745e-05
1.67397e-05
1.67343e-05
1.67287e-05
1.6723e-05
1.6717e-05
1.67109e-05
1.67046e-05
1.66981e-05
1.66915e-05
1.66847e-05
1.66779e-05
1.6671e-05
1.66641e-05
1.66572e-05
1.66503e-05
1.66436e-05
1.66372e-05
1.66313e-05
1.6626e-05
1.66212e-05
1.66165e-05
1.66124e-05
1.66098e-05
1.66104e-05
1.66144e-05
1.66199e-05
1.66245e-05
1.66262e-05
1.66276e-05
1.66367e-05
1.66612e-05
1.67074e-05
1.67705e-05
1.68351e-05
1.68876e-05
2.08665e-05
2.08744e-05
2.08801e-05
2.08846e-05
2.08889e-05
2.08935e-05
2.08984e-05
2.09033e-05
2.09078e-05
2.09117e-05
2.0915e-05
2.09179e-05
2.09202e-05
2.09222e-05
2.09238e-05
2.0925e-05
2.0926e-05
2.09266e-05
2.0927e-05
2.0927e-05
2.09266e-05
2.09259e-05
2.09248e-05
2.09234e-05
2.09217e-05
2.09196e-05
2.09172e-05
2.09145e-05
2.09115e-05
2.09082e-05
2.09047e-05
2.09009e-05
2.08968e-05
2.08924e-05
2.08878e-05
2.0883e-05
2.08779e-05
2.08727e-05
2.08673e-05
2.08616e-05
2.08558e-05
2.08497e-05
2.08433e-05
2.08368e-05
2.083e-05
2.0823e-05
2.08157e-05
2.08081e-05
2.08003e-05
2.07922e-05
2.07838e-05
2.07751e-05
2.07661e-05
2.07569e-05
2.07475e-05
2.07378e-05
2.07278e-05
2.07177e-05
2.07075e-05
2.06971e-05
2.06868e-05
2.06764e-05
2.06661e-05
2.0656e-05
2.06465e-05
2.06375e-05
2.06292e-05
2.06211e-05
2.06135e-05
2.06075e-05
2.06045e-05
2.06048e-05
2.06072e-05
2.06095e-05
2.06099e-05
2.06106e-05
2.06174e-05
2.06378e-05
2.0677e-05
2.07315e-05
2.07911e-05
2.08444e-05
2.49207e-05
2.49331e-05
2.49421e-05
2.49491e-05
2.49557e-05
2.49625e-05
2.49698e-05
2.49771e-05
2.49838e-05
2.49897e-05
2.49949e-05
2.49994e-05
2.50032e-05
2.50065e-05
2.50091e-05
2.50113e-05
2.50131e-05
2.50143e-05
2.50152e-05
2.50155e-05
2.50153e-05
2.50145e-05
2.50133e-05
2.50116e-05
2.50095e-05
2.50068e-05
2.50037e-05
2.50001e-05
2.49962e-05
2.49918e-05
2.4987e-05
2.49819e-05
2.49764e-05
2.49705e-05
2.49642e-05
2.49577e-05
2.49508e-05
2.49436e-05
2.49362e-05
2.49284e-05
2.49204e-05
2.4912e-05
2.49033e-05
2.48942e-05
2.48848e-05
2.48751e-05
2.4865e-05
2.48544e-05
2.48434e-05
2.48321e-05
2.48204e-05
2.48082e-05
2.47956e-05
2.47827e-05
2.47693e-05
2.47556e-05
2.47415e-05
2.47271e-05
2.47124e-05
2.46975e-05
2.46825e-05
2.46674e-05
2.46522e-05
2.46372e-05
2.46226e-05
2.46084e-05
2.45949e-05
2.45818e-05
2.45692e-05
2.4558e-05
2.45491e-05
2.45432e-05
2.45397e-05
2.45372e-05
2.45344e-05
2.45326e-05
2.45349e-05
2.45473e-05
2.45731e-05
2.46101e-05
2.46551e-05
2.47009e-05
2.88838e-05
2.8902e-05
2.89156e-05
2.8926e-05
2.89356e-05
2.89454e-05
2.89557e-05
2.8966e-05
2.89757e-05
2.89843e-05
2.8992e-05
2.89987e-05
2.90044e-05
2.90094e-05
2.90135e-05
2.9017e-05
2.90198e-05
2.90219e-05
2.90234e-05
2.90242e-05
2.90243e-05
2.90236e-05
2.90223e-05
2.90203e-05
2.90176e-05
2.90142e-05
2.90102e-05
2.90057e-05
2.90005e-05
2.89948e-05
2.89885e-05
2.89818e-05
2.89745e-05
2.89667e-05
2.89584e-05
2.89497e-05
2.89406e-05
2.89311e-05
2.89212e-05
2.89108e-05
2.89001e-05
2.88889e-05
2.88772e-05
2.8865e-05
2.88525e-05
2.88394e-05
2.88257e-05
2.88114e-05
2.87966e-05
2.87813e-05
2.87654e-05
2.87488e-05
2.87317e-05
2.87141e-05
2.86958e-05
2.8677e-05
2.86576e-05
2.86377e-05
2.86174e-05
2.85967e-05
2.85757e-05
2.85544e-05
2.85329e-05
2.85113e-05
2.84899e-05
2.84688e-05
2.84482e-05
2.84282e-05
2.84086e-05
2.83899e-05
2.83729e-05
2.8358e-05
2.83455e-05
2.8335e-05
2.83262e-05
2.83195e-05
2.83146e-05
2.83151e-05
2.83219e-05
2.83336e-05
2.83542e-05
2.83829e-05
3.26888e-05
3.27142e-05
3.27337e-05
3.27487e-05
3.27622e-05
3.27758e-05
3.27899e-05
3.2804e-05
3.28172e-05
3.28293e-05
3.284e-05
3.28496e-05
3.28579e-05
3.28651e-05
3.28712e-05
3.28763e-05
3.28805e-05
3.28838e-05
3.28862e-05
3.28876e-05
3.2888e-05
3.28875e-05
3.2886e-05
3.28837e-05
3.28804e-05
3.28762e-05
3.28712e-05
3.28654e-05
3.28588e-05
3.28514e-05
3.28433e-05
3.28346e-05
3.28251e-05
3.2815e-05
3.28043e-05
3.2793e-05
3.27812e-05
3.27688e-05
3.27559e-05
3.27424e-05
3.27284e-05
3.27137e-05
3.26985e-05
3.26826e-05
3.26661e-05
3.26489e-05
3.26309e-05
3.26122e-05
3.25928e-05
3.25725e-05
3.25515e-05
3.25296e-05
3.25069e-05
3.24835e-05
3.24592e-05
3.24341e-05
3.24082e-05
3.23816e-05
3.23542e-05
3.23262e-05
3.22976e-05
3.22685e-05
3.2239e-05
3.22091e-05
3.21791e-05
3.2149e-05
3.21192e-05
3.20899e-05
3.2061e-05
3.20325e-05
3.20046e-05
3.19776e-05
3.19527e-05
3.19307e-05
3.19123e-05
3.18974e-05
3.18822e-05
3.18671e-05
3.18499e-05
3.18296e-05
3.18168e-05
3.18182e-05
3.62682e-05
3.63023e-05
3.63292e-05
3.63499e-05
3.63684e-05
3.63867e-05
3.64054e-05
3.6424e-05
3.64417e-05
3.64579e-05
3.64726e-05
3.64857e-05
3.64972e-05
3.65072e-05
3.65158e-05
3.6523e-05
3.65291e-05
3.65338e-05
3.65373e-05
3.65395e-05
3.65405e-05
3.65401e-05
3.65385e-05
3.65357e-05
3.65318e-05
3.65266e-05
3.65204e-05
3.6513e-05
3.65047e-05
3.64953e-05
3.6485e-05
3.64738e-05
3.64618e-05
3.64489e-05
3.64352e-05
3.64207e-05
3.64056e-05
3.63897e-05
3.63732e-05
3.6356e-05
3.6338e-05
3.63192e-05
3.62997e-05
3.62793e-05
3.62581e-05
3.62361e-05
3.6213e-05
3.61889e-05
3.61639e-05
3.61378e-05
3.61106e-05
3.60823e-05
3.60529e-05
3.60225e-05
3.59909e-05
3.59582e-05
3.59244e-05
3.58895e-05
3.58536e-05
3.58167e-05
3.57788e-05
3.57402e-05
3.57007e-05
3.56606e-05
3.56197e-05
3.55784e-05
3.55371e-05
3.5496e-05
3.54551e-05
3.5414e-05
3.53723e-05
3.53301e-05
3.52892e-05
3.52517e-05
3.52195e-05
3.51921e-05
3.51628e-05
3.51282e-05
3.50828e-05
3.50253e-05
3.49715e-05
3.49358e-05
3.49164e-05
3.95549e-05
3.95994e-05
3.9635e-05
3.96628e-05
3.96874e-05
3.97113e-05
3.97353e-05
3.97593e-05
3.97823e-05
3.98036e-05
3.98229e-05
3.98403e-05
3.98557e-05
3.98692e-05
3.98809e-05
3.98908e-05
3.98991e-05
3.99057e-05
3.99106e-05
3.99138e-05
3.99154e-05
3.99153e-05
3.99136e-05
3.99103e-05
3.99055e-05
3.98992e-05
3.98914e-05
3.98823e-05
3.98718e-05
3.986e-05
3.9847e-05
3.98329e-05
3.98176e-05
3.98013e-05
3.9784e-05
3.97658e-05
3.97466e-05
3.97267e-05
3.97058e-05
3.9684e-05
3.96614e-05
3.96377e-05
3.96131e-05
3.95874e-05
3.95606e-05
3.95328e-05
3.95036e-05
3.94732e-05
3.94415e-05
3.94084e-05
3.9374e-05
3.93381e-05
3.93008e-05
3.9262e-05
3.92218e-05
3.918e-05
3.91367e-05
3.9092e-05
3.90459e-05
3.89983e-05
3.89493e-05
3.88991e-05
3.88476e-05
3.8795e-05
3.87411e-05
3.86861e-05
3.86306e-05
3.8575e-05
3.85193e-05
3.84626e-05
3.84039e-05
3.8343e-05
3.82825e-05
3.82253e-05
3.81747e-05
3.81298e-05
3.80819e-05
3.80236e-05
3.79461e-05
3.78478e-05
3.77475e-05
3.76662e-05
3.76096e-05
4.24847e-05
4.25409e-05
4.25866e-05
4.26226e-05
4.26541e-05
4.26844e-05
4.27147e-05
4.27448e-05
4.27739e-05
4.28009e-05
4.28258e-05
4.28482e-05
4.28684e-05
4.28861e-05
4.29016e-05
4.29148e-05
4.29258e-05
4.29346e-05
4.29413e-05
4.29458e-05
4.29482e-05
4.29485e-05
4.29467e-05
4.29428e-05
4.29371e-05
4.29293e-05
4.29198e-05
4.29085e-05
4.28954e-05
4.28806e-05
4.28643e-05
4.28466e-05
4.28275e-05
4.28071e-05
4.27854e-05
4.27625e-05
4.27386e-05
4.27136e-05
4.26876e-05
4.26604e-05
4.26321e-05
4.26027e-05
4.25719e-05
4.25399e-05
4.25065e-05
4.24718e-05
4.24356e-05
4.23977e-05
4.23581e-05
4.23169e-05
4.22739e-05
4.22291e-05
4.21825e-05
4.21339e-05
4.20835e-05
4.20311e-05
4.19767e-05
4.19204e-05
4.18621e-05
4.18019e-05
4.17398e-05
4.16759e-05
4.16102e-05
4.15427e-05
4.14733e-05
4.14021e-05
4.13297e-05
4.12566e-05
4.11829e-05
4.11072e-05
4.10283e-05
4.09455e-05
4.08615e-05
4.07804e-05
4.07064e-05
4.06387e-05
4.05668e-05
4.04802e-05
4.03672e-05
4.02255e-05
4.00755e-05
3.99428e-05
3.9841e-05
4.4999e-05
4.50677e-05
4.51242e-05
4.51692e-05
4.52082e-05
4.52455e-05
4.52826e-05
4.53193e-05
4.53551e-05
4.53886e-05
4.54197e-05
4.5448e-05
4.54736e-05
4.54965e-05
4.55165e-05
4.55337e-05
4.55482e-05
4.55599e-05
4.55687e-05
4.55749e-05
4.55784e-05
4.55792e-05
4.55774e-05
4.55729e-05
4.5566e-05
4.55567e-05
4.5545e-05
4.55311e-05
4.5515e-05
4.54966e-05
4.54763e-05
4.54542e-05
4.54304e-05
4.54049e-05
4.53779e-05
4.53494e-05
4.53197e-05
4.52886e-05
4.52563e-05
4.52226e-05
4.51875e-05
4.5151e-05
4.5113e-05
4.50734e-05
4.50322e-05
4.49894e-05
4.49447e-05
4.4898e-05
4.48492e-05
4.47984e-05
4.47455e-05
4.46903e-05
4.46328e-05
4.45729e-05
4.45106e-05
4.44458e-05
4.43785e-05
4.43087e-05
4.42363e-05
4.41614e-05
4.4084e-05
4.40041e-05
4.39218e-05
4.38371e-05
4.37496e-05
4.36594e-05
4.35671e-05
4.34735e-05
4.33785e-05
4.32806e-05
4.31779e-05
4.30696e-05
4.29586e-05
4.28495e-05
4.27473e-05
4.26509e-05
4.25494e-05
4.24295e-05
4.22775e-05
4.20907e-05
4.18901e-05
4.17029e-05
4.15499e-05
4.70492e-05
4.71302e-05
4.71974e-05
4.72511e-05
4.72973e-05
4.73415e-05
4.73853e-05
4.74289e-05
4.74715e-05
4.7512e-05
4.75498e-05
4.75847e-05
4.76168e-05
4.76457e-05
4.76713e-05
4.76935e-05
4.77123e-05
4.77276e-05
4.77393e-05
4.77477e-05
4.77527e-05
4.77544e-05
4.77527e-05
4.77478e-05
4.77397e-05
4.77285e-05
4.77143e-05
4.76974e-05
4.76776e-05
4.7655e-05
4.76298e-05
4.76023e-05
4.75726e-05
4.75409e-05
4.75073e-05
4.7472e-05
4.7435e-05
4.73965e-05
4.73564e-05
4.73147e-05
4.72714e-05
4.72264e-05
4.71796e-05
4.71308e-05
4.70802e-05
4.70276e-05
4.69729e-05
4.69158e-05
4.68563e-05
4.67942e-05
4.67296e-05
4.66622e-05
4.65921e-05
4.65191e-05
4.64431e-05
4.6364e-05
4.62818e-05
4.61964e-05
4.61079e-05
4.6016e-05
4.5921e-05
4.58227e-05
4.57213e-05
4.56166e-05
4.55084e-05
4.53965e-05
4.52815e-05
4.51641e-05
4.50445e-05
4.49209e-05
4.4791e-05
4.46539e-05
4.45123e-05
4.43714e-05
4.42364e-05
4.4106e-05
4.39689e-05
4.38106e-05
4.36159e-05
4.33829e-05
4.3132e-05
4.28905e-05
4.26835e-05
4.86027e-05
4.86939e-05
4.87697e-05
4.88304e-05
4.88821e-05
4.89317e-05
4.89812e-05
4.90309e-05
4.908e-05
4.91272e-05
4.91719e-05
4.92141e-05
4.92536e-05
4.92899e-05
4.93226e-05
4.93513e-05
4.93757e-05
4.93957e-05
4.94113e-05
4.94228e-05
4.943e-05
4.94331e-05
4.94321e-05
4.94269e-05
4.94176e-05
4.94045e-05
4.93874e-05
4.93669e-05
4.93427e-05
4.9315e-05
4.92838e-05
4.92497e-05
4.92128e-05
4.91734e-05
4.91316e-05
4.90876e-05
4.90416e-05
4.89937e-05
4.89439e-05
4.88922e-05
4.88387e-05
4.87831e-05
4.87254e-05
4.86654e-05
4.86032e-05
4.85387e-05
4.84719e-05
4.84024e-05
4.833e-05
4.82546e-05
4.81763e-05
4.80947e-05
4.80099e-05
4.79217e-05
4.78298e-05
4.77343e-05
4.7635e-05
4.75318e-05
4.74247e-05
4.73136e-05
4.71985e-05
4.70794e-05
4.69563e-05
4.68291e-05
4.66973e-05
4.65609e-05
4.64203e-05
4.62763e-05
4.61288e-05
4.59762e-05
4.58157e-05
4.56465e-05
4.54712e-05
4.52951e-05
4.51233e-05
4.4954e-05
4.47761e-05
4.45743e-05
4.43334e-05
4.40532e-05
4.37535e-05
4.34602e-05
4.31999e-05
4.96526e-05
4.97485e-05
4.98281e-05
4.98911e-05
4.9944e-05
4.99954e-05
5.00479e-05
5.01014e-05
5.01552e-05
5.02078e-05
5.0259e-05
5.03092e-05
5.03578e-05
5.04036e-05
5.04456e-05
5.04828e-05
5.05147e-05
5.05412e-05
5.05622e-05
5.05779e-05
5.05885e-05
5.0594e-05
5.05942e-05
5.05892e-05
5.0579e-05
5.05638e-05
5.05435e-05
5.05187e-05
5.04893e-05
5.04553e-05
5.0417e-05
5.03746e-05
5.03287e-05
5.02795e-05
5.02272e-05
5.01722e-05
5.01147e-05
5.00548e-05
4.99925e-05
4.99281e-05
4.98614e-05
4.97924e-05
4.9721e-05
4.96469e-05
4.95702e-05
4.9491e-05
4.94092e-05
4.93244e-05
4.92364e-05
4.91451e-05
4.90504e-05
4.8952e-05
4.88499e-05
4.87439e-05
4.86338e-05
4.85193e-05
4.84004e-05
4.82769e-05
4.81488e-05
4.8016e-05
4.78783e-05
4.77358e-05
4.75885e-05
4.7436e-05
4.72781e-05
4.71146e-05
4.69457e-05
4.67722e-05
4.65941e-05
4.64096e-05
4.62157e-05
4.60116e-05
4.58e-05
4.5586e-05
4.53743e-05
4.51624e-05
4.49393e-05
4.469e-05
4.44e-05
4.40719e-05
4.37256e-05
4.33847e-05
4.3075e-05
5.02319e-05
5.03236e-05
5.03974e-05
5.04537e-05
5.04992e-05
5.05452e-05
5.05946e-05
5.0647e-05
5.0701e-05
5.07558e-05
5.08125e-05
5.08721e-05
5.09327e-05
5.09914e-05
5.10459e-05
5.10947e-05
5.11368e-05
5.1172e-05
5.12004e-05
5.12222e-05
5.12376e-05
5.12466e-05
5.12491e-05
5.12449e-05
5.12341e-05
5.12168e-05
5.1193e-05
5.11632e-05
5.11275e-05
5.10859e-05
5.10385e-05
5.09859e-05
5.09285e-05
5.08669e-05
5.08012e-05
5.0732e-05
5.06595e-05
5.05838e-05
5.05053e-05
5.0424e-05
5.03402e-05
5.02538e-05
5.01646e-05
5.00724e-05
4.99772e-05
4.98791e-05
4.97783e-05
4.96744e-05
4.9567e-05
4.94561e-05
4.93413e-05
4.92227e-05
4.90999e-05
4.89729e-05
4.88412e-05
4.87048e-05
4.85633e-05
4.84167e-05
4.82648e-05
4.81074e-05
4.79446e-05
4.77761e-05
4.7602e-05
4.74219e-05
4.72356e-05
4.70427e-05
4.68434e-05
4.66383e-05
4.64274e-05
4.6209e-05
4.59798e-05
4.5739e-05
4.54895e-05
4.5236e-05
4.49828e-05
4.47262e-05
4.44556e-05
4.41567e-05
4.38165e-05
4.34406e-05
4.30501e-05
4.26668e-05
4.23143e-05
4.19757e-05
5.05164e-05
5.05667e-05
5.06002e-05
5.06231e-05
5.06506e-05
5.06854e-05
5.07263e-05
5.07717e-05
5.08222e-05
5.08833e-05
5.0956e-05
5.10337e-05
5.11105e-05
5.1182e-05
5.1246e-05
5.13014e-05
5.13478e-05
5.13855e-05
5.14151e-05
5.14368e-05
5.14507e-05
5.14564e-05
5.14539e-05
5.1443e-05
5.14237e-05
5.1396e-05
5.13604e-05
5.1317e-05
5.1266e-05
5.12076e-05
5.11422e-05
5.10704e-05
5.09928e-05
5.09099e-05
5.08221e-05
5.07299e-05
5.06336e-05
5.05335e-05
5.043e-05
5.03233e-05
5.02136e-05
5.01009e-05
4.99849e-05
4.98653e-05
4.97427e-05
4.96171e-05
4.94884e-05
4.93562e-05
4.92203e-05
4.90805e-05
4.89366e-05
4.87885e-05
4.86358e-05
4.84785e-05
4.8316e-05
4.81481e-05
4.79747e-05
4.77957e-05
4.76107e-05
4.74198e-05
4.72227e-05
4.70194e-05
4.68096e-05
4.65929e-05
4.6369e-05
4.6138e-05
4.59002e-05
4.56556e-05
4.54026e-05
4.51381e-05
4.4861e-05
4.45741e-05
4.42818e-05
4.39875e-05
4.36869e-05
4.33696e-05
4.30225e-05
4.2634e-05
4.22125e-05
4.17802e-05
4.13594e-05
4.09714e-05
4.06071e-05
4.0208e-05
3.9734e-05
5.05393e-05
5.05352e-05
5.05191e-05
5.04939e-05
5.048e-05
5.04792e-05
5.04894e-05
5.05087e-05
5.05441e-05
5.06114e-05
5.07054e-05
5.08086e-05
5.09099e-05
5.10024e-05
5.10839e-05
5.11538e-05
5.12121e-05
5.12596e-05
5.12973e-05
5.13257e-05
5.13449e-05
5.13545e-05
5.13542e-05
5.13437e-05
5.13227e-05
5.12909e-05
5.12489e-05
5.11968e-05
5.11347e-05
5.1063e-05
5.09821e-05
5.08926e-05
5.07951e-05
5.06902e-05
5.05786e-05
5.0461e-05
5.03376e-05
5.02092e-05
5.0076e-05
4.99388e-05
4.97979e-05
4.96536e-05
4.95057e-05
4.93538e-05
4.91984e-05
4.90398e-05
4.88781e-05
4.87131e-05
4.85445e-05
4.83722e-05
4.81958e-05
4.80153e-05
4.78305e-05
4.76411e-05
4.74468e-05
4.72472e-05
4.7042e-05
4.68313e-05
4.66147e-05
4.63921e-05
4.61634e-05
4.59284e-05
4.56868e-05
4.54383e-05
4.51825e-05
4.49195e-05
4.46495e-05
4.43721e-05
4.40862e-05
4.3789e-05
4.3479e-05
4.31588e-05
4.2832e-05
4.25014e-05
4.2162e-05
4.18043e-05
4.14167e-05
4.09884e-05
4.05269e-05
4.00537e-05
3.95954e-05
3.91753e-05
3.87877e-05
3.83742e-05
3.78822e-05
5.08011e-05
5.06962e-05
5.05869e-05
5.04714e-05
5.03772e-05
5.03034e-05
5.02472e-05
5.02089e-05
5.02153e-05
5.03001e-05
5.04305e-05
5.05682e-05
5.0696e-05
5.08071e-05
5.09013e-05
5.09798e-05
5.10438e-05
5.10954e-05
5.11364e-05
5.11678e-05
5.11899e-05
5.12022e-05
5.12038e-05
5.11938e-05
5.11717e-05
5.11367e-05
5.10889e-05
5.10281e-05
5.09546e-05
5.08688e-05
5.07709e-05
5.06613e-05
5.05406e-05
5.04096e-05
5.0269e-05
5.01197e-05
4.99623e-05
4.97975e-05
4.96261e-05
4.9449e-05
4.92668e-05
4.90802e-05
4.88895e-05
4.86944e-05
4.8495e-05
4.8292e-05
4.80858e-05
4.78765e-05
4.76638e-05
4.74477e-05
4.7228e-05
4.70046e-05
4.67774e-05
4.65463e-05
4.6311e-05
4.60712e-05
4.58266e-05
4.5577e-05
4.53225e-05
4.50628e-05
4.47978e-05
4.45275e-05
4.42515e-05
4.39695e-05
4.36813e-05
4.33868e-05
4.30862e-05
4.27791e-05
4.24644e-05
4.21402e-05
4.18047e-05
4.14599e-05
4.11087e-05
4.0753e-05
4.03879e-05
4.00053e-05
3.95961e-05
3.91497e-05
3.86646e-05
3.81501e-05
3.76409e-05
3.71699e-05
3.67569e-05
3.63487e-05
3.58985e-05
5.21579e-05
5.18605e-05
5.1572e-05
5.1285e-05
5.10351e-05
5.08154e-05
5.06229e-05
5.04679e-05
5.04302e-05
5.05597e-05
5.07405e-05
5.09087e-05
5.10457e-05
5.11515e-05
5.12326e-05
5.12937e-05
5.13388e-05
5.13723e-05
5.13983e-05
5.14189e-05
5.14342e-05
5.14429e-05
5.14431e-05
5.14328e-05
5.14106e-05
5.13747e-05
5.13243e-05
5.12586e-05
5.11775e-05
5.10812e-05
5.09694e-05
5.08419e-05
5.06991e-05
5.05414e-05
5.03699e-05
5.01855e-05
4.9989e-05
4.97813e-05
4.95636e-05
4.93371e-05
4.91027e-05
4.88617e-05
4.8615e-05
4.8363e-05
4.81055e-05
4.78432e-05
4.7577e-05
4.73073e-05
4.70343e-05
4.6758e-05
4.64785e-05
4.6196e-05
4.59105e-05
4.56221e-05
4.53308e-05
4.50366e-05
4.47392e-05
4.44385e-05
4.41347e-05
4.38277e-05
4.35176e-05
4.32044e-05
4.28879e-05
4.25681e-05
4.22447e-05
4.19177e-05
4.15874e-05
4.12535e-05
4.0915e-05
4.05709e-05
4.02203e-05
3.98642e-05
3.95045e-05
3.91422e-05
3.87744e-05
3.83953e-05
3.80014e-05
3.75841e-05
3.71232e-05
3.65771e-05
3.59853e-05
3.5354e-05
3.49056e-05
3.45432e-05
3.42459e-05
5.75995e-05
5.70811e-05
5.65796e-05
5.60792e-05
5.56321e-05
5.52224e-05
5.48451e-05
5.44998e-05
5.42132e-05
5.40193e-05
5.38874e-05
5.37773e-05
5.3676e-05
5.35773e-05
5.34798e-05
5.33831e-05
5.32901e-05
5.32069e-05
5.31391e-05
5.30892e-05
5.30527e-05
5.30242e-05
5.29984e-05
5.29709e-05
5.29378e-05
5.28955e-05
5.28416e-05
5.27738e-05
5.26907e-05
5.25918e-05
5.24753e-05
5.23395e-05
5.21835e-05
5.2007e-05
5.18105e-05
5.15945e-05
5.136e-05
5.11081e-05
5.08403e-05
5.05579e-05
5.02621e-05
4.99546e-05
4.96368e-05
4.93104e-05
4.89757e-05
4.86335e-05
4.82848e-05
4.79305e-05
4.75713e-05
4.72079e-05
4.68408e-05
4.64705e-05
4.60977e-05
4.5723e-05
4.53472e-05
4.49708e-05
4.45938e-05
4.42165e-05
4.38392e-05
4.34623e-05
4.30862e-05
4.2711e-05
4.23371e-05
4.19647e-05
4.15939e-05
4.1225e-05
4.08581e-05
4.04935e-05
4.01311e-05
3.97706e-05
3.9413e-05
3.90592e-05
3.87097e-05
3.83639e-05
3.80222e-05
3.76896e-05
3.73725e-05
3.70828e-05
3.67985e-05
3.64921e-05
3.61569e-05
3.58014e-05
3.54646e-05
3.5193e-05
3.50215e-05
3.49722e-05
3.51055e-05
3.53903e-05
6.73239e-05
6.66066e-05
6.59008e-05
6.5178e-05
6.45156e-05
6.38852e-05
6.32828e-05
6.27081e-05
6.21713e-05
6.16892e-05
6.12572e-05
6.0861e-05
6.04915e-05
6.01416e-05
5.98061e-05
5.94849e-05
5.91894e-05
5.89392e-05
5.87443e-05
5.86004e-05
5.8497e-05
5.84234e-05
5.83701e-05
5.83295e-05
5.82946e-05
5.82597e-05
5.82199e-05
5.81716e-05
5.8112e-05
5.80403e-05
5.79534e-05
5.78469e-05
5.77179e-05
5.75634e-05
5.738e-05
5.71655e-05
5.69195e-05
5.66431e-05
5.63384e-05
5.60075e-05
5.56526e-05
5.52755e-05
5.48795e-05
5.44679e-05
5.40427e-05
5.3605e-05
5.31557e-05
5.26963e-05
5.22281e-05
5.17524e-05
5.12704e-05
5.07831e-05
5.02917e-05
4.97975e-05
4.93019e-05
4.88063e-05
4.83115e-05
4.78183e-05
4.73272e-05
4.68391e-05
4.63548e-05
4.58749e-05
4.54004e-05
4.4932e-05
4.447e-05
4.40148e-05
4.35668e-05
4.3127e-05
4.26969e-05
4.22778e-05
4.18705e-05
4.14748e-05
4.10897e-05
4.07155e-05
4.0358e-05
4.00279e-05
3.9745e-05
3.95278e-05
3.93931e-05
3.93331e-05
3.92088e-05
3.89857e-05
3.87188e-05
3.84898e-05
3.8363e-05
3.83807e-05
3.85822e-05
3.89078e-05
7.83914e-05
7.7517e-05
7.66599e-05
7.58242e-05
7.50093e-05
7.42165e-05
7.34514e-05
7.27164e-05
7.2009e-05
7.1324e-05
7.06517e-05
6.99849e-05
6.9334e-05
6.87458e-05
6.82749e-05
6.79265e-05
6.76752e-05
6.74963e-05
6.73719e-05
6.72882e-05
6.72342e-05
6.72003e-05
6.71777e-05
6.71597e-05
6.7141e-05
6.71179e-05
6.70887e-05
6.70526e-05
6.70097e-05
6.6959e-05
6.68938e-05
6.67984e-05
6.66573e-05
6.64629e-05
6.6215e-05
6.59168e-05
6.55728e-05
6.51871e-05
6.47629e-05
6.43046e-05
6.38182e-05
6.33085e-05
6.27778e-05
6.22276e-05
6.16592e-05
6.10748e-05
6.04763e-05
5.98658e-05
5.92449e-05
5.86155e-05
5.79791e-05
5.7338e-05
5.66947e-05
5.6051e-05
5.54083e-05
5.47678e-05
5.41305e-05
5.34977e-05
5.2871e-05
5.22517e-05
5.16413e-05
5.10404e-05
5.04493e-05
4.98688e-05
4.93009e-05
4.87488e-05
4.8215e-05
4.76991e-05
4.71974e-05
4.67068e-05
4.62275e-05
4.57707e-05
4.53447e-05
4.49661e-05
4.46416e-05
4.43543e-05
4.40731e-05
4.37689e-05
4.34264e-05
4.30623e-05
4.27431e-05
4.25248e-05
4.24432e-05
4.25224e-05
4.26928e-05
9.22762e-05
9.12699e-05
9.02719e-05
8.92882e-05
8.83211e-05
8.73736e-05
8.64517e-05
8.55629e-05
8.47141e-05
8.39113e-05
8.31569e-05
8.24519e-05
8.17991e-05
8.12101e-05
8.0702e-05
8.02834e-05
7.99505e-05
7.96943e-05
7.95047e-05
7.93706e-05
7.92808e-05
7.92234e-05
7.91866e-05
7.91593e-05
7.91317e-05
7.90951e-05
7.90417e-05
7.89654e-05
7.88609e-05
7.87239e-05
7.85502e-05
7.83353e-05
7.80757e-05
7.77698e-05
7.74174e-05
7.70198e-05
7.65785e-05
7.60953e-05
7.5572e-05
7.50115e-05
7.44185e-05
7.37969e-05
7.31493e-05
7.24772e-05
7.17825e-05
7.1067e-05
7.03329e-05
6.95823e-05
6.88172e-05
6.80396e-05
6.72514e-05
6.64552e-05
6.56536e-05
6.48492e-05
6.40436e-05
6.32386e-05
6.24357e-05
6.16365e-05
6.08428e-05
6.00565e-05
5.92794e-05
5.85125e-05
5.77563e-05
5.70117e-05
5.62814e-05
5.55687e-05
5.48767e-05
5.42046e-05
5.35478e-05
5.29029e-05
5.22694e-05
5.16593e-05
5.10808e-05
5.05448e-05
5.00548e-05
4.95925e-05
4.91346e-05
4.86664e-05
4.81785e-05
4.76827e-05
4.72333e-05
4.68751e-05
4.66341e-05
4.65213e-05
4.64702e-05
4.5928e-05
4.37091e-05
3.96886e-05
3.693e-05
4.11347e-05
0.00010627
0.000105165
0.000104056
0.000102948
0.000101845
0.000100751
9.96726e-05
9.86201e-05
9.76046e-05
9.66375e-05
9.5728e-05
9.48828e-05
9.41062e-05
9.34034e-05
9.2781e-05
9.22445e-05
9.17951e-05
9.14302e-05
9.11445e-05
9.09297e-05
9.07754e-05
9.06687e-05
9.05956e-05
9.0542e-05
9.04947e-05
9.04418e-05
9.03725e-05
9.02786e-05
9.01535e-05
8.99919e-05
8.97898e-05
8.95439e-05
8.92516e-05
8.8911e-05
8.85208e-05
8.80807e-05
8.75909e-05
8.70524e-05
8.64661e-05
8.58343e-05
8.51612e-05
8.44508e-05
8.37063e-05
8.29301e-05
8.21242e-05
8.12908e-05
8.04323e-05
7.9551e-05
7.86493e-05
7.77294e-05
7.67937e-05
7.58448e-05
7.48859e-05
7.39199e-05
7.29494e-05
7.19763e-05
7.10026e-05
7.00303e-05
6.90615e-05
6.80985e-05
6.71435e-05
6.61979e-05
6.52624e-05
6.43383e-05
6.34285e-05
6.25365e-05
6.16656e-05
6.0815e-05
5.99805e-05
5.91587e-05
5.83494e-05
5.75641e-05
5.6815e-05
5.61013e-05
5.54298e-05
5.47852e-05
5.41494e-05
5.35119e-05
5.2866e-05
5.22212e-05
5.162e-05
5.10958e-05
5.06652e-05
5.03298e-05
5.0032e-05
4.9344e-05
4.70883e-05
4.27884e-05
3.85856e-05
4.04484e-05
0.000120162
0.00011899
0.000117798
0.000116588
0.000115365
0.000114136
0.000112906
0.000111686
0.00011049
0.000109332
0.000108225
0.000107181
0.000106208
0.000105312
0.0001045
0.000103776
0.000103147
0.000102613
0.000102175
0.000101828
0.000101564
0.00010137
0.000101231
0.000101132
0.000101055
0.000100986
0.000100911
0.000100821
0.000100705
0.000100557
0.000100369
0.000100139
9.98594e-05
9.95281e-05
9.91417e-05
9.8698e-05
9.8196e-05
9.76357e-05
9.70173e-05
9.63423e-05
9.56143e-05
9.48378e-05
9.40168e-05
9.31543e-05
9.2253e-05
9.13155e-05
9.03446e-05
8.93429e-05
8.83131e-05
8.72577e-05
8.61795e-05
8.50814e-05
8.39671e-05
8.28403e-05
8.1704e-05
8.05608e-05
7.94133e-05
7.82636e-05
7.71146e-05
7.59689e-05
7.48291e-05
7.36969e-05
7.25738e-05
7.14612e-05
7.03622e-05
6.92808e-05
6.82202e-05
6.71802e-05
6.6157e-05
6.51481e-05
6.41534e-05
6.31841e-05
6.22526e-05
6.13556e-05
6.04971e-05
5.96653e-05
5.88468e-05
5.80341e-05
5.72232e-05
5.6421e-05
5.56579e-05
5.49557e-05
5.43232e-05
5.37554e-05
5.32093e-05
5.23715e-05
5.01484e-05
4.58923e-05
4.08188e-05
4.02982e-05
0.00013371
0.000132504
0.000131257
0.000129973
0.000128656
0.000127311
0.000125945
0.000124567
0.000123191
0.000121834
0.000120511
0.000119237
0.000118024
0.000116882
0.000115819
0.000114845
0.000113968
0.000113197
0.000112538
0.000111991
0.000111552
0.000111213
0.000110958
0.000110771
0.000110633
0.000110527
0.000110437
0.000110349
0.000110251
0.000110131
0.000109981
0.000109791
0.000109555
0.000109264
0.000108914
0.0001085
0.000108018
0.000107468
0.000106848
0.000106158
0.000105402
0.000104584
0.000103709
0.000102781
0.000101802
0.000100777
9.97083e-05
9.85989e-05
9.74519e-05
9.62705e-05
9.50575e-05
9.38163e-05
9.25512e-05
9.12667e-05
8.99665e-05
8.86539e-05
8.73319e-05
8.60037e-05
8.46723e-05
8.3341e-05
8.20128e-05
8.06903e-05
7.93752e-05
7.80696e-05
7.6777e-05
7.55015e-05
7.42465e-05
7.30124e-05
7.17962e-05
7.05964e-05
6.94134e-05
6.82574e-05
6.71399e-05
6.60585e-05
6.50116e-05
6.39911e-05
6.29885e-05
6.19995e-05
6.10224e-05
6.00619e-05
5.91356e-05
5.82547e-05
5.74208e-05
5.66266e-05
5.58477e-05
5.48716e-05
5.27364e-05
4.87408e-05
4.33374e-05
4.0872e-05
0.000146585
0.000145376
0.000144109
0.000142783
0.000141403
0.000139972
0.000138496
0.000136983
0.000135446
0.000133901
0.000132364
0.000130853
0.000129383
0.000127965
0.000126613
0.000125339
0.000124158
0.000123084
0.000122129
0.000121304
0.000120611
0.000120047
0.000119602
0.00011926
0.000119002
0.00011881
0.000118666
0.000118553
0.000118456
0.000118359
0.000118248
0.000118111
0.000117935
0.000117708
0.00011742
0.000117064
0.000116633
0.000116123
0.000115533
0.000114859
0.000114105
0.000113274
0.000112372
0.000111402
0.000110369
0.000109277
0.000108129
0.00010693
0.000105682
0.000104389
0.000103054
0.000101681
0.000100275
9.8841e-05
9.73837e-05
9.59073e-05
9.44156e-05
9.29122e-05
9.14011e-05
8.98862e-05
8.83712e-05
8.68592e-05
8.53528e-05
8.38549e-05
8.23693e-05
8.09003e-05
7.94517e-05
7.80243e-05
7.66165e-05
7.52276e-05
7.38587e-05
7.25189e-05
7.12181e-05
6.9956e-05
6.87244e-05
6.75191e-05
6.6337e-05
6.5177e-05
6.40396e-05
6.29273e-05
6.18454e-05
6.0795e-05
5.97727e-05
5.87725e-05