/*--------------------------------*- C++ -*----------------------------------*\
| =========                 |                                                 |
| \\      /  F ield         | OpenFOAM: The Open Source CFD Toolbox           |
|  \\    /   O peration     | Version:  2412                                  |
|   \\  /    A nd           | Website:  www.openfoam.com                      |
|    \\/     M anipulation  |                                                 |
\*---------------------------------------------------------------------------*/
FoamFile
{
    version     2.0;
    format      ascii;
    arch        "LSB;label=32;scalar=64";
    class       volScalarField;
    location    "260";
    object      p;
}
// * * * * * * * * * * * * * * * * * * * * * * * * * * * * * * * * * * * * * //

dimensions      [0 2 -2 0 0 0 0];

internalField   nonuniform List<scalar> 
8702
(
-101.705
-98.1129
-94.6159
-91.2135
-87.8938
-84.6545
-81.4911
-78.4044
-75.3862
-72.4325
-69.5369
-66.6999
-63.9175
-61.1851
-58.5012
-55.8638
-53.2662
-50.7071
-48.185
-45.6973
-43.242
-40.8181
-38.4243
-36.06
-33.7237
-31.4138
-29.129
-26.8678
-24.6288
-22.4096
-20.2072
-18.0185
-15.8401
-13.6684
-11.4996
-9.32979
-7.15594
-4.97297
-2.77666
-0.56707
1.65869
3.90093
6.15883
8.43026
10.712
13.0006
15.2919
17.5821
19.8672
22.1429
24.4075
26.6581
28.8915
31.1063
33.3006
35.47
37.6164
39.7429
41.8485
43.9329
45.9965
48.0406
50.0664
52.0729
54.0571
56.0149
57.95
59.8679
61.7754
63.6565
65.4878
67.2437
68.9243
70.595
72.2724
74.0257
75.7144
77.1885
78.3861
79.0532
79.4679
79.939
-101.705
-98.1129
-94.6159
-91.2135
-87.8938
-84.6545
-81.4911
-78.4044
-75.3862
-72.4325
-69.5369
-66.6999
-63.9175
-61.1851
-58.5012
-55.8638
-53.2662
-50.7071
-48.185
-45.6972
-43.242
-40.8181
-38.4243
-36.06
-33.7237
-31.4138
-29.129
-26.8678
-24.6288
-22.4096
-20.2072
-18.0185
-15.8401
-13.6684
-11.4996
-9.32979
-7.15594
-4.97296
-2.77666
-0.567066
1.65869
3.90094
6.15883
8.43026
10.712
13.0006
15.2919
17.5821
19.8672
22.1429
24.4075
26.6581
28.8915
31.1063
33.3006
35.47
37.6164
39.743
41.8485
43.9329
45.9965
48.0406
50.0664
52.0729
54.0571
56.0149
57.95
59.8679
61.7754
63.6565
65.4878
67.2437
68.9243
70.595
72.2724
74.0256
75.7142
77.1882
78.3857
79.0527
79.4676
79.9389
-101.705
-98.1129
-94.6159
-91.2135
-87.8938
-84.6545
-81.4911
-78.4044
-75.3862
-72.4325
-69.5369
-66.6999
-63.9175
-61.1851
-58.5012
-55.8638
-53.2662
-50.7071
-48.185
-45.6972
-43.242
-40.8181
-38.4243
-36.06
-33.7237
-31.4138
-29.129
-26.8678
-24.6288
-22.4096
-20.2072
-18.0185
-15.8401
-13.6684
-11.4996
-9.32978
-7.15594
-4.97296
-2.77665
-0.567065
1.6587
3.90094
6.15884
8.43026
10.712
13.0006
15.2919
17.5821
19.8672
22.1429
24.4076
26.6581
28.8915
31.1063
33.3006
35.47
37.6164
39.743
41.8485
43.9329
45.9965
48.0406
50.0664
52.0729
54.0571
56.0149
57.95
59.8679
61.7754
63.6565
65.4878
67.2436
68.9243
70.595
72.2724
74.0256
75.7141
77.1879
78.3852
79.0522
79.4673
79.939
-101.705
-98.1129
-94.6159
-91.2135
-87.8938
-84.6545
-81.4911
-78.4044
-75.3862
-72.4325
-69.5369
-66.6999
-63.9175
-61.1851
-58.5011
-55.8638
-53.2662
-50.7071
-48.185
-45.6972
-43.242
-40.8181
-38.4243
-36.06
-33.7236
-31.4137
-29.1289
-26.8678
-24.6288
-22.4096
-20.2072
-18.0185
-15.8401
-13.6684
-11.4995
-9.32977
-7.15593
-4.97295
-2.77664
-0.567053
1.65871
3.90095
6.15885
8.43027
10.7121
13.0006
15.2919
17.5821
19.8672
22.1429
24.4076
26.6581
28.8915
31.1063
33.3006
35.47
37.6165
39.743
41.8485
43.9329
45.9965
48.0406
50.0664
52.0729
54.0571
56.0149
57.9501
59.8679
61.7754
63.6565
65.4877
67.2436
68.9243
70.5951
72.2725
74.0255
75.7139
77.1875
78.3846
79.0517
79.4671
79.9392
-101.705
-98.1129
-94.6159
-91.2135
-87.8938
-84.6545
-81.4911
-78.4044
-75.3862
-72.4325
-69.5369
-66.6999
-63.9175
-61.185
-58.5011
-55.8638
-53.2661
-50.7071
-48.185
-45.6972
-43.242
-40.818
-38.4243
-36.06
-33.7236
-31.4137
-29.1289
-26.8678
-24.6288
-22.4096
-20.2071
-18.0184
-15.8401
-13.6683
-11.4995
-9.32975
-7.1559
-4.97293
-2.77662
-0.567027
1.65873
3.90098
6.15887
8.4303
10.7121
13.0006
15.2919
17.5821
19.8672
22.1429
24.4076
26.6581
28.8915
31.1063
33.3006
35.47
37.6165
39.743
41.8485
43.933
45.9966
48.0407
50.0664
52.0729
54.0571
56.0149
57.9501
59.8679
61.7754
63.6564
65.4877
67.2436
68.9243
70.5951
72.2726
74.0255
75.7136
77.1869
78.3839
79.0513
79.4672
79.94
-101.705
-98.1128
-94.6158
-91.2134
-87.8937
-84.6544
-81.4911
-78.4043
-75.3861
-72.4325
-69.5368
-66.6998
-63.9174
-61.185
-58.5011
-55.8637
-53.2661
-50.707
-48.1849
-45.6972
-43.242
-40.818
-38.4242
-36.06
-33.7236
-31.4137
-29.1289
-26.8678
-24.6287
-22.4095
-20.2071
-18.0184
-15.84
-13.6683
-11.4995
-9.3297
-7.15586
-4.97288
-2.77657
-0.566987
1.65878
3.90102
6.15892
8.43034
10.7121
13.0007
15.292
17.5822
19.8673
22.143
24.4076
26.6582
28.8915
31.1064
33.3007
35.4701
37.6165
39.743
41.8486
43.933
45.9966
48.0407
50.0665
52.073
54.0572
56.015
57.9501
59.868
61.7755
63.6565
65.4877
67.2436
68.9244
70.5953
72.2727
74.0254
75.7133
77.1863
78.383
79.051
79.4678
79.9415
-101.705
-98.1128
-94.6157
-91.2133
-87.8937
-84.6544
-81.491
-78.4042
-75.3861
-72.4324
-69.5368
-66.6997
-63.9174
-61.1849
-58.501
-55.8637
-53.266
-50.7069
-48.1849
-45.6971
-43.2419
-40.8179
-38.4242
-36.0599
-33.7235
-31.4136
-29.1288
-26.8677
-24.6287
-22.4095
-20.207
-18.0183
-15.8399
-13.6682
-11.4994
-9.32963
-7.15578
-4.97281
-2.7765
-0.566908
1.65885
3.9011
6.159
8.43042
10.7122
13.0008
15.292
17.5823
19.8673
22.143
24.4077
26.6583
28.8916
31.1064
33.3008
35.4701
37.6166
39.7431
41.8487
43.9331
45.9967
48.0408
50.0665
52.073
54.0572
56.015
57.9502
59.868
61.7755
63.6565
65.4877
67.2436
68.9245
70.5955
72.273
74.0254
75.7128
77.1853
78.3819
79.0508
79.4691
79.9443
-101.705
-98.1126
-94.6156
-91.2132
-87.8935
-84.6542
-81.4909
-78.4041
-75.386
-72.4323
-69.5366
-66.6996
-63.9173
-61.1848
-58.5009
-55.8635
-53.2659
-50.7068
-48.1847
-45.697
-43.2418
-40.8178
-38.4241
-36.0598
-33.7234
-31.4135
-29.1287
-26.8676
-24.6285
-22.4093
-20.2069
-18.0182
-15.8398
-13.6681
-11.4993
-9.32951
-7.15566
-4.97268
-2.77637
-0.566781
1.65898
3.90122
6.15913
8.43055
10.7123
13.0009
15.2922
17.5824
19.8675
22.1432
24.4078
26.6584
28.8918
31.1066
33.3009
35.4703
37.6167
39.7433
41.8488
43.9332
45.9968
48.0409
50.0667
52.0732
54.0573
56.0152
57.9503
59.8682
61.7756
63.6565
65.4877
67.2437
68.9247
70.5959
72.2734
74.0253
75.7121
77.1841
78.3804
79.0508
79.4714
79.9489
-101.705
-98.1124
-94.6154
-91.213
-87.8934
-84.6541
-81.4907
-78.4039
-75.3858
-72.4321
-69.5365
-66.6995
-63.9171
-61.1846
-58.5007
-55.8634
-53.2657
-50.7067
-48.1846
-45.6968
-43.2416
-40.8176
-38.4239
-36.0596
-33.7232
-31.4133
-29.1285
-26.8674
-24.6284
-22.4092
-20.2067
-18.018
-15.8396
-13.6679
-11.4991
-9.32932
-7.15546
-4.97249
-2.77617
-0.566586
1.65918
3.90142
6.15932
8.43075
10.7125
13.0011
15.2924
17.5826
19.8677
22.1434
24.408
26.6586
28.892
31.1068
33.3011
35.4705
37.6169
39.7435
41.849
43.9334
45.997
48.0411
50.0669
52.0733
54.0575
56.0154
57.9506
59.8684
61.7758
63.6566
65.4877
67.2438
68.9251
70.5965
72.2741
74.0253
75.7111
77.1824
78.3785
79.0512
79.4753
79.9561
-101.705
-98.1122
-94.6152
-91.2128
-87.8931
-84.6538
-81.4904
-78.4037
-75.3855
-72.4318
-69.5362
-66.6992
-63.9168
-61.1844
-58.5005
-55.8631
-53.2655
-50.7064
-48.1843
-45.6965
-43.2413
-40.8174
-38.4236
-36.0593
-33.7229
-31.413
-29.1282
-26.8671
-24.6281
-22.4089
-20.2064
-18.0177
-15.8393
-13.6676
-11.4988
-9.32903
-7.15518
-4.9722
-2.77589
-0.566294
1.65947
3.90171
6.15962
8.43105
10.7128
13.0014
15.2927
17.5829
19.868
22.1437
24.4084
26.6589
28.8923
31.1071
33.3014
35.4708
37.6172
39.7438
41.8493
43.9337
45.9973
48.0414
50.0672
52.0736
54.0578
56.0157
57.9509
59.8687
61.776
63.6567
65.4878
67.244
68.9258
70.5975
72.2751
74.0253
75.7099
77.1801
78.3761
79.0522
79.4811
79.9665
80.6295
-101.704
-98.1117
-94.6148
-91.2124
-87.8927
-84.6534
-81.4901
-78.4033
-75.3851
-72.4315
-69.5358
-66.6988
-63.9164
-61.184
-58.5001
-55.8627
-53.2651
-50.706
-48.1839
-45.6962
-43.241
-40.817
-38.4232
-36.0589
-33.7226
-31.4126
-29.1278
-26.8667
-24.6277
-22.4085
-20.206
-18.0173
-15.8389
-13.6672
-11.4984
-9.32862
-7.15477
-4.97179
-2.77547
-0.565881
1.65989
3.90214
6.16004
8.43147
10.7133
13.0018
15.2931
17.5833
19.8684
22.1441
24.4088
26.6593
28.8927
31.1075
33.3018
35.4712
37.6177
39.7442
41.8497
43.9342
45.9978
48.0419
50.0676
52.074
54.0582
56.0161
57.9514
59.8692
61.7764
63.657
65.4879
67.2444
68.9267
70.5989
72.2766
74.0255
75.7084
77.1773
78.3731
79.0539
79.4895
79.9813
80.6491
-101.704
-98.1112
-94.6142
-91.2118
-87.8922
-84.6529
-81.4895
-78.4028
-75.3846
-72.4309
-69.5353
-66.6983
-63.9159
-61.1835
-58.4996
-55.8622
-53.2646
-50.7055
-48.1834
-45.6956
-43.2404
-40.8165
-38.4227
-36.0584
-33.722
-31.4121
-29.1273
-26.8662
-24.6271
-22.4079
-20.2055
-18.0168
-15.8384
-13.6667
-11.4978
-9.32805
-7.1542
-4.97121
-2.7749
-0.565303
1.66046
3.90271
6.16062
8.43205
10.7138
13.0024
15.2937
17.5839
19.869
22.1447
24.4094
26.6599
28.8933
31.1081
33.3024
35.4718
37.6183
39.7448
41.8503
43.9348
45.9984
48.0425
50.0682
52.0746
54.0588
56.0167
57.952
59.8699
61.777
63.6573
65.4882
67.245
68.928
70.6008
72.2786
74.0258
75.7065
77.1738
78.3696
79.0567
79.5013
80.0015
80.6756
-101.703
-98.1104
-94.6135
-91.2111
-87.8914
-84.6521
-81.4888
-78.4021
-75.3839
-72.4302
-69.5346
-66.6976
-63.9152
-61.1828
-58.4989
-55.8615
-53.2639
-50.7048
-48.1827
-45.6949
-43.2397
-40.8157
-38.422
-36.0577
-33.7213
-31.4114
-29.1266
-26.8654
-24.6264
-22.4072
-20.2047
-18.016
-15.8376
-13.6659
-11.4971
-9.32729
-7.15343
-4.97045
-2.77413
-0.564529
1.66124
3.9035
6.16141
8.43284
10.7146
13.0032
15.2945
17.5847
19.8698
22.1455
24.4102
26.6608
28.8941
31.1089
33.3032
35.4726
37.6191
39.7456
41.8511
43.9356
45.9992
48.0433
50.069
52.0754
54.0596
56.0175
57.9529
59.8708
61.7777
63.6579
65.4886
67.2458
68.9299
70.6034
72.2814
74.0264
75.7043
77.1697
78.3655
79.0611
79.5173
80.0282
80.7104
-101.702
-98.1094
-94.6125
-91.2101
-87.8905
-84.6512
-81.4879
-78.4011
-75.383
-72.4293
-69.5337
-66.6967
-63.9143
-61.1819
-58.498
-55.8606
-53.263
-50.7039
-48.1818
-45.694
-43.2388
-40.8148
-38.4211
-36.0568
-33.7204
-31.4104
-29.1256
-26.8645
-24.6254
-22.4062
-20.2038
-18.015
-15.8366
-13.6649
-11.4961
-9.32629
-7.15243
-4.96944
-2.77311
-0.563509
1.66227
3.90452
6.16244
8.43388
10.7157
13.0042
15.2955
17.5858
19.8709
22.1466
24.4112
26.6618
28.8952
31.11
33.3043
35.4737
37.6202
39.7467
41.8522
43.9366
46.0003
48.0444
50.07
52.0764
54.0606
56.0186
57.9541
59.8721
61.7788
63.6586
65.4892
67.247
68.9323
70.6069
72.2852
74.0273
75.7018
77.165
78.3611
79.0675
79.5384
80.0629
80.7552
-101.701
-98.1082
-94.6112
-91.2089
-87.8892
-84.65
-81.4866
-78.3999
-75.3818
-72.4281
-69.5325
-66.6955
-63.9131
-61.1807
-58.4968
-55.8594
-53.2618
-50.7027
-48.1806
-45.6928
-43.2376
-40.8136
-38.4198
-36.0555
-33.7191
-31.4092
-29.1244
-26.8632
-24.6242
-22.405
-20.2025
-18.0138
-15.8354
-13.6636
-11.4948
-9.325
-7.15113
-4.96813
-2.7718
-0.562197
1.66358
3.90585
6.16377
8.43522
10.717
13.0056
15.2969
17.5871
19.8722
22.1479
24.4126
26.6632
28.8965
31.1114
33.3057
35.4751
37.6215
39.7481
41.8536
43.938
46.0016
48.0457
50.0714
52.0778
54.0619
56.0201
57.9557
59.8737
61.7802
63.6596
65.4901
67.2486
68.9356
70.6114
72.29
74.0287
75.6992
77.1598
78.3565
79.0765
79.5658
80.1068
80.8116
-101.699
-98.1066
-94.6096
-91.2073
-87.8877
-84.6484
-81.4851
-78.3984
-75.3803
-72.4266
-69.531
-66.694
-63.9116
-61.1792
-58.4953
-55.8579
-53.2603
-50.7012
-48.1791
-45.6913
-43.2361
-40.8121
-38.4183
-36.054
-33.7176
-31.4077
-29.1228
-26.8617
-24.6226
-22.4034
-20.2009
-18.0122
-15.8338
-13.662
-11.4932
-9.32337
-7.14949
-4.96649
-2.77015
-0.560537
1.66525
3.90752
6.16545
8.43691
10.7187
13.0073
15.2986
17.5888
19.8739
22.1496
24.4143
26.6649
28.8983
31.1131
33.3074
35.4768
37.6233
39.7498
41.8553
43.9397
46.0034
48.0475
50.0732
52.0795
54.0636
56.0219
57.9577
59.8758
61.782
63.661
65.4914
67.2508
68.9398
70.6171
72.2962
74.0307
75.6965
77.1543
78.3521
79.0888
79.6005
80.1615
80.8811
-101.697
-98.1046
-94.6077
-91.2054
-87.8858
-84.6465
-81.4832
-78.3965
-75.3784
-72.4247
-69.5291
-66.6921
-63.9098
-61.1773
-58.4934
-55.8561
-53.2584
-50.6993
-48.1772
-45.6894
-43.2342
-40.8102
-38.4164
-36.0521
-33.7157
-31.4057
-29.1209
-26.8597
-24.6207
-22.4014
-20.1989
-18.0102
-15.8318
-13.66
-11.4912
-9.32134
-7.14746
-4.96445
-2.7681
-0.558475
1.66732
3.90961
6.16755
8.43901
10.7208
13.0094
15.3007
17.591
19.8761
22.1518
24.4165
26.6671
28.9004
31.1153
33.3096
35.479
37.6255
39.752
41.8575
43.9419
46.0056
48.0497
50.0753
52.0816
54.0658
56.0242
57.9602
59.8784
61.7842
63.6629
65.4931
67.2536
68.9451
70.6242
72.304
74.0337
75.6939
77.1489
78.3485
79.1053
79.6437
80.2285
80.9656
81.9421
-98.1022
-94.6053
-91.203
-87.8834
-84.6442
-81.4809
-78.3942
-75.3761
-72.4225
-69.5269
-66.6899
-63.9075
-61.1751
-58.4912
-55.8538
-53.2562
-50.697
-48.1749
-45.6872
-43.2319
-40.8079
-38.4141
-36.0498
-33.7133
-31.4034
-29.1185
-26.8574
-24.6183
-22.399
-20.1965
-18.0078
-15.8293
-13.6576
-11.4887
-9.31887
-7.14497
-4.96195
-2.76559
-0.555951
1.66986
3.91215
6.17011
8.44158
10.7234
13.012
15.3033
17.5936
19.8787
22.1544
24.4191
26.6697
28.9031
31.1179
33.3123
35.4817
37.6281
39.7547
41.8602
43.9446
46.0083
48.0524
50.0781
52.0843
54.0685
56.0271
57.9633
59.8816
61.7871
63.6652
65.4954
67.2573
68.9517
70.633
72.3135
74.0378
75.6918
77.1439
78.3461
79.1269
79.6967
80.3092
81.0664
82.0377
83.3985
84.1979
-98.0993
-94.6025
-91.2002
-87.8806
-84.6415
-81.4782
-78.3915
-75.3734
-72.4197
-69.5242
-66.6872
-63.9048
-61.1724
-58.4884
-55.8511
-53.2534
-50.6943
-48.1722
-45.6844
-43.2291
-40.8051
-38.4113
-36.047
-33.7105
-31.4005
-29.1157
-26.8545
-24.6154
-22.3961
-20.1936
-18.0048
-15.8264
-13.6546
-11.4857
-9.31588
-7.14197
-4.95893
-2.76256
-0.552908
1.67292
3.91523
6.17319
8.44468
10.7265
13.0151
15.3065
17.5967
19.8819
22.1576
24.4223
26.6729
28.9063
31.1212
33.3155
35.4849
37.6314
39.7579
41.8634
43.9479
46.0116
48.0557
50.0813
52.0875
54.0718
56.0306
57.9672
59.8856
61.7907
63.6682
65.4984
67.2619
68.9598
70.6436
72.3251
74.0433
75.6905
77.1399
78.3459
79.1543
79.7606
80.4051
81.185
82.1515
83.4497
84.2071
-98.0961
-94.5993
-91.197
-87.8774
-84.6382
-81.4749
-78.3882
-75.3701
-72.4165
-69.5209
-66.6839
-63.9016
-61.1691
-58.4852
-55.8478
-53.2501
-50.691
-48.1688
-45.681
-43.2258
-40.8017
-38.4079
-36.0435
-33.7071
-31.3971
-29.1122
-26.851
-24.6119
-22.3926
-20.19
-18.0012
-15.8227
-13.6509
-11.482
-9.31219
-7.13826
-4.95522
-2.75883
-0.549169
1.67667
3.91899
6.17698
8.44848
10.7303
13.019
15.3103
17.6006
19.8857
22.1615
24.4262
26.6768
28.9102
31.1251
33.3194
35.4889
37.6353
39.7618
41.8673
43.9518
46.0155
48.0597
50.0853
52.0914
54.0757
56.0348
57.9717
59.8904
61.795
63.672
65.5022
67.2676
68.9694
70.6562
72.3388
74.0505
75.6904
77.1374
78.3487
79.1888
79.8363
80.5171
81.3225
82.285
83.5187
84.2367
-98.0925
-94.5956
-91.1932
-87.8736
-84.6344
-81.4711
-78.3845
-75.3664
-72.4128
-69.5172
-66.6802
-63.8979
-61.1655
-58.4816
-55.8443
-53.2466
-50.6876
-48.1654
-45.6776
-43.2224
-40.7983
-38.4045
-36.0401
-33.7036
-31.3936
-29.1087
-26.8475
-24.6084
-22.389
-20.1865
-17.9977
-15.8192
-13.6473
-11.4784
-9.30848
-7.13452
-4.95145
-2.75504
-0.54536
1.6805
3.92286
6.18087
8.4524
10.7343
13.0229
15.3143
17.6046
19.8898
22.1656
24.4303
26.681
28.9144
31.1293
33.3237
35.4932
37.6397
39.7662
41.8718
43.9563
46.0201
48.0644
50.0899
52.096
54.0804
56.0398
57.9772
59.8961
61.8002
63.6765
65.5069
67.2747
68.981
70.6709
72.3551
74.0594
75.6915
77.137
78.3553
79.231
79.9252
80.6456
81.4788
82.4386
83.6116
84.2916
-98.0877
-94.591
-91.1887
-87.8692
-84.63
-81.4668
-78.3801
-75.362
-72.4083
-69.5128
-66.6758
-63.8935
-61.1612
-58.4774
-55.8402
-53.2426
-50.6836
-48.1615
-45.6737
-43.2185
-40.7944
-38.4005
-36.0361
-33.6995
-31.3895
-29.1045
-26.8433
-24.6041
-22.3847
-20.1822
-17.9933
-15.8149
-13.643
-11.4741
-9.30413
-7.13012
-4.94701
-2.75054
-0.5408
1.68513
3.92755
6.18562
8.45719
10.7391
13.0278
15.3192
17.6095
19.8947
22.1705
24.4353
26.686
28.9195
31.1344
33.3288
35.4983
37.6448
39.7714
41.877
43.9616
46.0255
48.0698
50.0953
52.1015
54.0859
56.0457
57.9836
59.9029
61.8066
63.6822
65.5125
67.2825
68.9939
70.6879
72.3733
74.0721
75.6958
77.1405
78.3679
79.2823
80.0272
80.7934
81.6531
82.6156
83.731
84.3789
84.2311
82.7646
80.4654
-98.0824
-94.5858
-91.1836
-87.8642
-84.6251
-81.4619
-78.3751
-75.3569
-72.4032
-69.5077
-66.6707
-63.8883
-61.156
-58.4721
-55.8348
-53.2371
-50.678
-48.1559
-45.668
-43.2127
-40.7886
-38.3946
-36.0301
-33.6935
-31.3834
-29.0984
-26.8371
-24.5978
-22.3784
-20.1758
-17.9869
-15.8084
-13.6366
-11.4677
-9.29772
-7.12369
-4.94055
-2.74404
-0.534253
1.69174
3.93421
6.19229
8.46383
10.7458
13.0345
15.3259
17.6163
19.9015
22.1773
24.4421
26.6928
28.9262
31.1411
33.3354
35.5048
37.6513
39.7778
41.8833
43.9678
46.0317
48.0759
50.1015
52.1076
54.0919
56.052
57.9904
59.9101
61.8136
63.6885
65.5186
67.2904
69.0075
70.7067
72.3939
74.0879
75.7036
77.1483
78.3876
79.3435
80.1437
80.9584
81.8466
82.8177
83.8779
84.5095
84.42
83.1953
81.296
-87.8587
-84.6196
-81.4564
-78.3696
-75.3515
-72.3978
-69.5024
-66.6654
-63.8829
-61.1505
-58.4665
-55.8291
-53.2313
-50.6721
-48.1498
-45.6619
-43.2066
-40.7824
-38.3885
-36.024
-33.6873
-31.3772
-29.0922
-26.8309
-24.5917
-22.3722
-20.1696
-17.9806
-15.8021
-13.6303
-11.4613
-9.29131
-7.11725
-4.9341
-2.73758
-0.527791
1.6982
3.94067
6.19872
8.47024
10.7522
13.041
15.3324
17.6228
19.9081
22.1839
24.4487
26.6994
28.9329
31.1478
33.3421
35.5115
37.658
39.7845
41.8901
43.9746
46.0386
48.0829
50.1084
52.1145
54.0989
56.0593
57.9982
59.9183
61.8212
63.6954
65.5259
67.3008
69.0239
70.7276
72.4175
74.1045
75.7134
77.1596
78.4131
79.4144
80.2737
81.1374
82.0626
83.0427
84.0589
84.6887
84.6785
83.7221
82.2426
-87.8526
-84.6135
-81.4504
-78.3637
-75.3456
-72.392
-69.4966
-66.6595
-63.877
-61.1445
-58.4605
-55.8231
-53.2254
-50.6661
-48.1439
-45.6559
-43.2006
-40.7764
-38.3825
-36.0179
-33.6813
-31.3711
-29.0861
-26.8248
-24.5856
-22.3661
-20.1634
-17.9744
-15.7958
-13.624
-11.455
-9.28493
-7.11083
-4.92766
-2.7311
-0.521284
1.70472
3.94721
6.2053
8.47687
10.7589
13.0477
15.3392
17.6296
19.9149
22.1907
24.4556
26.7064
28.9399
31.1548
33.3493
35.5187
37.6652
39.7919
41.8975
43.9821
46.0461
48.0905
50.1161
52.1221
54.1066
56.0675
58.007
59.9274
61.8297
63.7034
65.5345
67.3129
69.0422
70.7504
72.4423
74.1232
75.7265
77.1766
78.4469
79.4969
80.4181
81.3355
82.2992
83.2937
84.2808
84.9261
85.0187
84.354
83.3221
82.5002
84.1626
91.3315
97.2901
94.5687
-87.8459
-84.6069
-81.4437
-78.357
-75.3389
-72.3853
-69.4898
-66.6528
-63.8702
-61.1377
-58.4537
-55.8163
-53.2185
-50.6592
-48.1369
-45.6489
-43.1935
-40.7693
-38.3752
-36.0106
-33.6739
-31.3637
-29.0786
-26.8173
-24.578
-22.3584
-20.1557
-17.9667
-15.788
-13.6161
-11.4471
-9.27702
-7.10289
-4.9197
-2.7231
-0.513264
1.71277
3.9553
6.21342
8.48501
10.7671
13.0559
15.3474
17.6379
19.9232
22.1991
24.464
26.7148
28.9484
31.1633
33.3578
35.5272
37.6737
39.8003
41.9059
43.9905
46.0545
48.0988
50.1243
52.1302
54.1147
56.076
58.016
59.9367
61.8385
63.7117
65.5438
67.3259
69.0616
70.7748
72.4692
74.145
75.7443
77.2004
78.491
79.5916
80.5771
81.5508
82.5564
83.5726
84.5477
85.2279
85.4478
85.0921
84.5136
84.4196
86.4395
92.3735
97.14
95.9936
-87.8386
-84.5996
-81.4364
-78.3497
-75.3316
-72.378
-69.4825
-66.6454
-63.8629
-61.1303
-58.4463
-55.8088
-53.2109
-50.6516
-48.1293
-45.6412
-43.1857
-40.7615
-38.3674
-36.0027
-33.666
-31.3557
-29.0706
-26.8092
-24.5698
-22.3502
-20.1474
-17.9584
-15.7797
-13.6077
-11.4387
-9.2686
-7.09445
-4.91125
-2.71463
-0.504779
1.72128
3.96382
6.22196
8.49359
10.7757
13.0646
15.3562
17.6467
19.932
22.2079
24.4729
26.7238
28.9574
31.1724
33.3669
35.5363
37.6828
39.8094
41.9149
43.9995
46.0635
48.1079
50.1333
52.139
54.1236
56.0853
58.0259
59.9469
61.8482
63.721
65.5541
67.3401
69.0825
70.8008
72.498
74.1698
75.767
77.232
78.5464
79.6996
80.7514
81.7847
82.8365
83.883
84.8661
85.6035
85.9747
85.9384
85.8147
86.3381
88.6987
93.6543
98.6437
94.9296
-87.8306
-84.5916
-81.4284
-78.3417
-75.3236
-72.37
-69.4745
-66.6374
-63.8548
-61.1222
-58.4381
-55.8006
-53.2027
-50.6433
-48.1209
-45.6328
-43.1772
-40.7529
-38.3588
-35.994
-33.6572
-31.3468
-29.0617
-26.8002
-24.5608
-22.3411
-20.1383
-17.9492
-15.7705
-13.5985
-11.4294
-9.25933
-7.08516
-4.90198
-2.70533
-0.495474
1.73059
3.97315
6.23131
8.50298
10.7851
13.074
15.3657
17.6562
19.9416
22.2176
24.4826
26.7336
28.9672
31.1823
33.3769
35.5463
37.6926
39.8193
41.9248
44.0093
46.0733
48.1175
50.1427
52.1483
54.1329
56.095
58.0361
59.9573
61.8581
63.7307
65.5651
67.3553
69.1043
70.8281
72.5284
74.1981
75.7957
77.2728
78.6147
79.822
80.9416
82.0377
83.1409
84.2279
85.2407
86.0581
86.6028
86.8912
87.2111
88.2609
90.9308
95.1916
100.264
92.9968
-87.8219
-84.5829
-81.4197
-78.333
-75.3149
-72.3613
-69.4658
-66.6286
-63.846
-61.1134
-58.4292
-55.7916
-53.1937
-50.6342
-48.1117
-45.6235
-43.1679
-40.7435
-38.3493
-35.9844
-33.6475
-31.3371
-29.0519
-26.7904
-24.5509
-22.3312
-20.1283
-17.9392
-15.7604
-13.5885
-11.4194
-9.24928
-7.07512
-4.89197
-2.69531
-0.485476
1.74058
3.98315
6.24131
8.51301
10.7952
13.0841
15.3758
17.6664
19.9519
22.2279
24.493
26.744
28.9777
31.1928
33.3875
35.5569
37.7031
39.8297
41.9351
44.0195
46.0835
48.1276
50.1526
52.158
54.1425
56.105
58.0464
59.9679
61.8683
63.7407
65.5767
67.3711
69.1268
70.8562
72.5605
74.2301
75.831
77.3236
78.6969
79.9599
81.1486
82.3113
83.4722
84.6115
85.6767
86.5973
87.335
87.9476
88.6919
90.1938
93.1409
97.029
101.921
95.2995
-87.8124
-84.5734
-81.4103
-78.3236
-75.3055
-72.3519
-69.4563
-66.6191
-63.8364
-61.1038
-58.4196
-55.7819
-53.1839
-50.6244
-48.1017
-45.6134
-43.1577
-40.7332
-38.3389
-35.974
-33.637
-31.3265
-29.0412
-26.7797
-24.5402
-22.3204
-20.1175
-17.9283
-15.7495
-13.5776
-11.4085
-9.23846
-7.06432
-4.88124
-2.68458
-0.474798
1.75123
3.99378
6.25194
8.52365
10.8059
13.0948
15.3865
17.6772
19.9627
22.2387
24.5039
26.7549
28.9887
31.2038
33.3986
35.5679
37.714
39.8405
41.9458
44.0301
46.0939
48.1378
50.1626
52.1677
54.1521
56.1148
58.0565
59.9781
61.8782
63.7506
65.5882
67.3869
69.1495
70.885
72.5941
74.266
75.8736
77.3853
78.794
80.1143
81.3736
82.6066
83.8327
85.0372
86.1775
87.2232
88.169
89.1006
90.2441
92.1436
95.3558
99.232
104.287
102.222
-87.8021
-84.5632
-81.4001
-78.3134
-75.2953
-72.3417
-69.4461
-66.6089
-63.8261
-61.0934
-58.4091
-55.7714
-53.1733
-50.6137
-48.0909
-45.6025
-43.1467
-40.7221
-38.3277
-35.9627
-33.6256
-31.315
-29.0297
-26.768
-24.5285
-22.3087
-20.1057
-17.9166
-15.7378
-13.5659
-11.3969
-9.22686
-7.05278
-4.86982
-2.6732
-0.463503
1.76246
4.00496
6.26309
8.53478
10.817
13.106
15.3977
17.6884
19.9739
22.25
24.5152
26.7662
29
31.2152
33.41
35.5793
37.7251
39.8515
41.9566
44.0407
46.1042
48.1478
50.1722
52.1769
54.161
56.1238
58.0658
59.9874
61.8871
63.7596
65.5991
67.4025
69.1719
70.9141
72.629
74.306
75.924
77.4589
78.9069
80.2863
81.6175
82.925
84.2248
85.5083
86.7453
87.9362
89.1015
90.3424
91.8565
94.1169
97.6005
101.726
107.23
108.635
-87.791
-84.5522
-81.3891
-78.3024
-75.2843
-72.3307
-69.4351
-66.5978
-63.815
-61.0822
-58.3979
-55.7601
-53.1619
-50.6022
-48.0793
-45.5908
-43.1349
-40.7102
-38.3156
-35.9504
-33.6132
-31.3026
-29.0171
-26.7554
-24.5158
-22.296
-20.093
-17.9039
-15.7252
-13.5533
-11.3844
-9.21451
-7.04054
-4.85777
-2.66122
-0.451672
1.77418
4.01659
6.27465
8.54629
10.8285
13.1174
15.4091
17.6998
19.9854
22.2614
24.5266
26.7777
29.0114
31.2267
33.4216
35.5906
37.7359
39.8621
41.9669
44.0507
46.1139
48.1571
50.1809
52.1851
54.1689
56.1317
58.0736
59.9951
61.8944
63.7671
65.6089
67.417
69.1934
70.9428
72.6651
74.3503
75.9825
77.5446
79.0357
80.4759
81.8809
83.2679
84.6505
86.0265
87.3796
88.732
90.1234
91.6625
93.5186
96.1127
99.8829
104.401
110.456
114.35
-87.7791
-84.5404
-81.3772
-78.2906
-75.2725
-72.3189
-69.4233
-66.586
-63.8031
-61.0703
-58.3859
-55.748
-53.1497
-50.5899
-48.0669
-45.5783
-43.1222
-40.6973
-38.3026
-35.9373
-33.5999
-31.2892
-29.0036
-26.7419
-24.5022
-22.2823
-20.0794
-17.8903
-15.7116
-13.5399
-11.3711
-9.2014
-7.02763
-4.84512
-2.64871
-0.439388
1.78626
4.02853
6.28646
8.55799
10.8401
13.1289
15.4206
17.7112
19.9968
22.2725
24.5377
26.7887
29.0224
31.2376
33.4326
35.6015
37.7462
39.8722
41.9765
44.0598
46.1223
48.1649
50.188
52.1915
54.1746
56.137
58.0787
59.9998
61.899
63.7722
65.6166
67.4298
69.2133
70.9709
72.7022
74.3988
76.0494
77.6425
79.1807
80.6843
82.1658
83.6374
85.1119
86.5935
88.079
89.6058
91.2257
93.0489
95.2219
98.1298
102.202
107.181
113.864
120.08
-87.7661
-84.5276
-81.3644
-78.2778
-75.2598
-72.3063
-69.4106
-66.5733
-63.7904
-61.0575
-58.373
-55.7351
-53.1367
-50.5767
-48.0536
-45.5649
-43.1086
-40.6836
-38.2888
-35.9233
-33.5857
-31.2748
-28.9892
-26.7273
-24.4876
-22.2677
-20.0647
-17.8756
-15.6971
-13.5255
-11.357
-9.18754
-7.01398
-4.83187
-2.63572
-0.426744
1.79864
4.04066
6.29837
8.56971
10.8516
13.1403
15.4318
17.7223
20.0078
22.2836
24.5488
26.7997
29.0331
31.2483
33.4432
35.6112
37.7548
39.8804
41.9842
44.0669
46.1287
48.1703
50.1925
52.195
54.1772
56.139
58.0804
60.0014
61.9006
63.7745
65.6216
67.44
69.231
70.998
72.7403
74.4515
76.1242
77.7528
79.3429
80.9129
82.4736
84.035
85.6097
87.2077
88.838
90.5471
92.394
94.4828
96.955
100.164
104.547
109.988
117.369
125.23
-87.7521
-84.5138
-81.3507
-78.2641
-75.2461
-72.2926
-69.397
-66.5596
-63.7767
-61.0437
-58.3593
-55.7213
-53.1228
-50.5628
-48.0395
-45.5506
-43.0942
-40.6691
-38.2741
-35.9084
-33.5706
-31.2596
-28.9738
-26.7118
-24.472
-22.252
-20.049
-17.86
-15.6816
-13.5102
-11.3419
-9.1728
-6.99986
-4.81819
-2.62221
-0.413742
1.81118
4.05281
6.31021
8.58123
10.8628
13.1512
15.4424
17.7327
20.0178
22.2926
24.5573
26.8082
29.0415
31.2562
33.4516
35.6201
37.7626
39.8873
41.9898
44.0713
46.132
48.1725
50.1933
52.1945
54.1758
56.1367
58.0774
59.9978
61.8967
63.7712
65.6223
67.4474
69.2465
71.024
72.7795
74.5092
76.2093
77.8787
79.5251
81.1647
82.8082
84.465
86.1486
87.8726
89.6562
91.5511
93.6179
95.9524
98.707
102.207
106.893
112.739
120.745
129.569
-87.7363
-84.4984
-81.3354
-78.249
-75.2312
-72.2778
-69.3822
-66.5449
-63.762
-61.029
-58.3445
-55.7065
-53.1079
-50.5478
-48.0244
-45.5354
-43.0789
-40.6536
-38.2584
-35.8925
-33.5546
-31.2434
-28.9574
-26.6953
-24.4554
-22.2352
-20.0322
-17.8432
-15.665
-13.4939
-11.3259
-9.15726
-6.98482
-4.80327
-2.60864
-0.400472
1.82395
4.0651
6.32197
8.59249
10.8736
13.1616
15.4524
17.7423
20.0275
22.3033
24.5673
26.8169
29.049
31.2637
33.4582
35.6221
37.7636
39.8894
41.9918
44.0723
46.1314
48.1698
50.1886
52.1882
54.1682
56.1285
58.0692
59.9899
61.8906
63.7687
65.6233
67.4542
69.2623
71.0526
72.8246
74.5768
76.3088
78.0242
79.7314
81.4436
83.1727
84.9285
86.7245
88.5785
90.5188
92.5981
94.8732
97.4411
100.465
104.237
109.196
115.352
123.766
132.935
-87.7191
-84.4806
-81.3181
-78.2321
-75.2146
-72.2615
-69.366
-66.5286
-63.7457
-61.0129
-58.3284
-55.6905
-53.0918
-50.5317
-48.0082
-45.5191
-43.0625
-40.637
-38.2417
-35.8756
-33.5375
-31.2261
-28.94
-26.6778
-24.4376
-22.2174
-20.0142
-17.8253
-15.6471
-13.4762
-11.3087
-9.14065
-6.96845
-4.7871
-2.59449
-0.386715
1.8371
4.07757
6.33382
8.60369
10.8841
13.1713
15.4615
17.7508
20.0358
22.3132
24.5765
26.8249
29.0555
31.268
33.4584
35.6209
37.7648
39.8876
41.9869
44.066
46.1244
48.1623
50.1807
52.18
54.1601
56.1206
58.0614
59.9829
61.8853
63.768
65.6268
67.4601
69.2761
71.0823
72.8755
74.6554
76.4245
78.1892
79.9596
81.7488
83.568
85.4277
87.3456
89.334
91.4281
93.6838
96.1552
98.9436
102.214
106.225
111.402
117.758
126.315
135.536
-87.7007
-84.4616
-81.2996
-78.2139
-75.1968
-72.243
-69.3474
-66.5106
-63.7283
-60.9957
-58.3109
-55.6729
-53.0743
-50.5141
-47.9906
-45.5014
-43.0447
-40.6191
-38.2237
-35.8574
-33.5191
-31.2075
-28.9212
-26.6588
-24.4185
-22.198
-19.9947
-17.8057
-15.6276
-13.4569
-11.2897
-9.12235
-6.95109
-4.77054
-2.57877
-0.37224
1.85041
4.08982
6.34502
8.61382
10.8932
13.1796
15.469
17.7576
20.0414
22.3168
24.5791
26.8268
29.0569
31.2685
33.4592
35.6235
37.7646
39.8829
41.9803
44.058
46.1156
48.1527
50.17
52.1676
54.1454
56.1034
58.0425
59.9632
61.8649
63.7478
65.6129
67.4611
69.2983
71.1254
72.9432
74.7552
76.5672
78.3877
80.2272
82.0971
84.0078
85.9727
88.0062
90.1203
92.3638
94.7867
97.4419
100.43
103.913
108.12
113.449
119.874
128.4
137.044
-87.679
-84.4406
-81.279
-78.1932
-75.1763
-72.222
-69.3271
-66.4908
-63.7089
-60.9761
-58.2917
-55.6536
-53.0549
-50.4947
-47.9712
-45.4819
-43.0251
-40.5994
-38.2038
-35.8374
-33.4989
-31.187
-28.9005
-26.6379
-24.3973
-22.1766
-19.9731
-17.784
-15.6058
-13.4352
-11.2685
-9.10181
-6.93139
-4.7523
-2.56225
-0.357591
1.86331
4.10106
6.35471
8.62208
10.9001
13.1852
15.4734
17.7608
20.0438
22.3185
24.5803
26.827
29.0558
31.2656
33.4532
35.6159
37.7569
39.8753
41.9716
44.0469
46.1011
48.1348
50.1485
52.143
54.1188
56.0763
58.0163
59.939
61.845
63.7352
65.6106
67.4722
69.3244
71.1718
73.0174
74.8664
76.7259
78.6045
80.5129
82.4622
84.4636
86.5298
88.6746
90.9181
93.3046
95.881
98.7046
101.869
105.525
109.874
115.269
121.645
129.868
137.697
-87.6534
-84.4155
-81.2545
-78.1691
-75.1525
-72.1989
-69.3045
-66.4681
-63.6859
-60.9531
-58.2699
-55.6315
-53.0327
-50.4725
-47.949
-45.4597
-43.0028
-40.577
-38.1812
-35.8146
-33.4758
-31.1638
-28.877
-26.6141
-24.3732
-22.1523
-19.9486
-17.7593
-15.5811
-13.4106
-11.2441
-9.0781
-6.90902
-4.73209
-2.54448
-0.34255
1.87572
4.111
6.36233
8.62749
10.9035
13.1868
15.4735
17.7596
20.0411
22.3143
24.5746
26.8199
29.0475
31.2559
33.4423
35.604
37.7426
39.8585
41.9523
44.0251
46.0769
48.1082
50.1198
52.1122
54.0863
56.0425
57.9816
59.9045
61.8131
63.7093
65.5951
67.473
69.347
71.2211
73.0992
74.9885
76.8977
78.8359
80.8144
82.8436
84.9337
87.0976
89.3469
91.707
94.2227
96.9432
99.9141
103.223
107.008
111.442
116.816
123.064
130.822
138.26
-87.6236
-84.3865
-81.2263
-78.1414
-75.125
-72.1716
-69.2775
-66.4415
-63.6596
-60.9272
-58.2439
-55.6055
-53.0069
-50.4468
-47.9232
-45.4338
-42.9768
-40.5508
-38.1548
-35.7879
-33.4489
-31.1365
-28.8495
-26.5863
-24.3452
-22.124
-19.9202
-17.7308
-15.5526
-13.3823
-11.2162
-9.0511
-6.88357
-4.70937
-2.52518
-0.327049
1.88748
4.1192
6.36717
8.62924