/*--------------------------------*- C++ -*----------------------------------*\
| =========                 |                                                 |
| \\      /  F ield         | OpenFOAM: The Open Source CFD Toolbox           |
|  \\    /   O peration     | Version:  2412                                  |
|   \\  /    A nd           | Website:  www.openfoam.com                      |
|    \\/     M anipulation  |                                                 |
\*---------------------------------------------------------------------------*/
FoamFile
{
    version     2.0;
    format      ascii;
    arch        "LSB;label=32;scalar=64";
    class       volVectorField;
    location    "260";
    object      U;
}
// * * * * * * * * * * * * * * * * * * * * * * * * * * * * * * * * * * * * * //

dimensions      [0 1 -1 0 0 0 0];

internalField   nonuniform List<vector> 
7387
(
(0.227733 -0.0654534 1.1138e-18)
(0.222974 -0.0643828 2.03562e-25)
(0.218267 -0.0633 -1.0117e-18)
(0.213603 -0.0622172 0)
(0.208975 -0.0611256 -9.07091e-19)
(0.204382 -0.0600261 -4.24971e-25)
(0.199819 -0.0589194 0)
(0.195288 -0.0578083 0)
(0.1908 -0.0566931 -1.37184e-18)
(0.186361 -0.0555784 -6.27273e-19)
(0.181974 -0.0544623 2.51772e-25)
(0.177639 -0.0533498 -2.59401e-25)
(0.173346 -0.0522427 -2.20502e-19)
(0.169107 -0.0511305 0)
(0.164932 -0.0500282 1.53224e-19)
(0.160822 -0.0489336 -1.1775e-19)
(0.156779 -0.0478486 0)
(0.152809 -0.0467746 4.2614e-20)
(0.148916 -0.0457133 3.89292e-26)
(0.145111 -0.0446665 -1.75596e-26)
(0.14139 -0.043639 0)
(0.137757 -0.0426271 0)
(0.134219 -0.0416357 0)
(0.130776 -0.0406664 -1.12709e-19)
(0.127432 -0.0397173 1.38975e-19)
(0.124191 -0.0387932 1.66625e-19)
(0.121049 -0.0378946 -1.95774e-19)
(0.118009 -0.0370193 4.05001e-26)
(0.115074 -0.0361697 -2.59111e-19)
(0.112242 -0.0353473 5.80416e-25)
(0.109515 -0.0345512 -1.65098e-19)
(0.106889 -0.0337817 1.84542e-19)
(0.104367 -0.0330384 4.10478e-19)
(0.101945 -0.032324 -8.87769e-25)
(0.0996223 -0.0316341 9.3628e-25)
(0.0973969 -0.0309731 -5.52092e-19)
(0.0952682 -0.0303368 -3.03007e-19)
(0.0932342 -0.029728 0)
(0.0912936 -0.0291441 -1.61189e-26)
(0.0894416 -0.0285873 -1.53268e-24)
(0.0876803 -0.0280545 1.62726e-24)
(0.0860169 -0.0275499 0)
(0.0844518 -0.0270748 0)
(0.0829714 -0.0266254 1.39241e-19)
(0.0815578 -0.0261976 -2.32998e-24)
(0.0802241 -0.0257908 1.64298e-19)
(0.0790236 -0.0254205 1.78302e-19)
(0.0780095 -0.0251032 -2.97191e-24)
(0.0771688 -0.0248451 -1.04784e-19)
(0.0763557 -0.0246104 -1.13492e-19)
(0.0754924 -0.0243714 0)
(0.0745466 -0.0241044 4.07569e-24)
(0.0738696 -0.0238843 -4.36049e-24)
(0.0738431 -0.0238334 7.74942e-20)
(0.0745863 -0.0239977 -2.30453e-26)
(0.0761949 -0.0244584 8.99021e-20)
(0.0778051 -0.0250331 9.65373e-20)
(0.0786728 -0.0254788 0)
(0.0790091 -0.0258435 0)
(0.0782948 -0.025911 -5.92645e-20)
(0.0776504 -0.0258044 7.73928e-24)
(0.0797436 -0.026309 6.73855e-20)
(0.0858133 -0.0278385 0)
(0.097004 -0.0306888 3.78223e-20)
(0.116319 -0.0356246 0)
(0.151854 -0.0472586 -1.04606e-23)
(0.167383 -0.063401 4.29531e-20)
(0.115903 -0.0600582 1.24647e-26)
(0.0330812 -0.0243798 -4.75951e-20)
(-0.0223048 0.0241287 0)
(-0.0115262 0.0176802 -1.38628e-23)
(-0.00050386 0.000674335 2.78621e-23)
(0.714902 -0.205473 -1.85186e-18)
(0.699991 -0.202108 3.53467e-18)
(0.685239 -0.198725 1.68197e-18)
(0.670624 -0.195329 -7.90497e-25)
(0.656129 -0.191909 0)
(0.641741 -0.188472 -6.46466e-25)
(0.627443 -0.185006 6.02776e-26)
(0.613253 -0.181524 6.06227e-26)
(0.599197 -0.178035 2.27981e-18)
(0.585295 -0.174544 1.04233e-18)
(0.571551 -0.171054 0)
(0.557962 -0.167571 0)
(0.544523 -0.164093 0)
(0.531254 -0.160621 0)
(0.518177 -0.15717 0)
(0.505305 -0.153743 1.54333e-25)
(0.492643 -0.150347 -2.55443e-25)
(0.480211 -0.146982 -7.03232e-20)
(0.468025 -0.143663 0)
(0.456108 -0.140386 9.4786e-26)
(0.444455 -0.13717 6.53846e-26)
(0.433078 -0.134002 -1.70396e-25)
(0.421998 -0.130899 -3.11758e-25)
(0.411216 -0.127863 -1.87658e-19)
(0.400744 -0.124894 -2.31316e-19)
(0.390589 -0.122002 2.77267e-19)
(0.380748 -0.119185 3.25708e-19)
(0.37123 -0.116445 6.85222e-25)
(0.362038 -0.113787 4.30952e-19)
(0.353172 -0.111211 -2.44125e-19)
(0.344632 -0.10872 2.74522e-19)
(0.336411 -0.106311 -3.06822e-19)
(0.328511 -0.103986 -3.41201e-19)
(0.320929 -0.101747 0)
(0.313656 -0.0995908 0)
(0.306689 -0.0975187 -1.88407e-25)
(0.300026 -0.0955295 2.51778e-19)
(0.293661 -0.0936236 -2.13869e-24)
(0.287585 -0.0917988 3.01522e-19)
(0.281789 -0.0900541 0)
(0.276279 -0.0883889 3.5893e-19)
(0.271071 -0.0868104 3.90941e-19)
(0.266172 -0.0853224 0)
(0.261539 -0.0839172 2.31269e-19)
(0.257118 -0.0825786 2.51276e-19)
(0.252946 -0.0813086 2.72842e-19)
(0.249184 -0.0801479 -2.96078e-19)
(0.245995 -0.0791516 1.60548e-19)
(0.243339 -0.0783362 -5.27438e-24)
(0.240781 -0.0775975 5.78463e-24)
(0.238081 -0.0768497 -2.03918e-19)
(0.235138 -0.0760213 6.69493e-24)
(0.233004 -0.0753326 -1.1916e-19)
(0.232833 -0.0751536 0)
(0.235 -0.0756277 1.38633e-19)
(0.239789 -0.0769984 -1.49163e-19)
(0.244632 -0.07873 0)
(0.247278 -0.0800946 8.58844e-20)
(0.248302 -0.0812159 -1.12495e-23)
(0.246183 -0.0814589 2.40041e-23)
(0.244234 -0.0811789 -1.27846e-23)
(0.250403 -0.0827095 0)
(0.268505 -0.0873119 0)
(0.301966 -0.0958949 -6.27279e-20)
(0.359496 -0.110798 1.01267e-25)
(0.464436 -0.145227 -6.88377e-20)
(0.51219 -0.193657 -7.1031e-20)
(0.363215 -0.186397 1.8098e-23)
(0.113329 -0.0807482 -3.86818e-23)
(-0.0610114 0.0672974 4.07923e-23)
(-0.0346039 0.0528425 -9.00341e-20)
(-0.00290516 0.0135423 4.62159e-23)
(1.26811 -0.364466 4.19239e-18)
(1.24168 -0.358497 -2.00053e-18)
(1.21554 -0.35251 0)
(1.18964 -0.34649 1.8061e-18)
(1.16396 -0.340433 -1.70688e-18)
(1.13847 -0.334342 -1.60598e-18)
(1.11314 -0.328209 7.50774e-25)
(1.08801 -0.322042 1.39801e-18)
(1.06311 -0.315861 -1.29035e-18)
(1.03849 -0.309679 5.278e-25)
(1.01414 -0.303503 -1.01678e-24)
(0.990059 -0.297334 4.87808e-25)
(0.966261 -0.291168 4.14533e-19)
(0.942763 -0.285027 -3.0028e-25)
(0.9196 -0.278915 -2.87848e-19)
(0.8968 -0.272847 1.74696e-25)
(0.874376 -0.266833 -1.51708e-19)
(0.852363 -0.260876 7.96017e-20)
(0.830787 -0.254998 -4.51404e-21)
(0.809674 -0.249203 -7.37944e-20)
(0.789036 -0.2435 0)
(0.768892 -0.237895 -2.67236e-25)
(0.749267 -0.232401 -7.46985e-26)
(0.730173 -0.227023 5.79448e-25)
(0.711626 -0.221769 -2.61819e-19)
(0.693636 -0.216647 -2.44195e-25)
(0.676209 -0.211656 7.41149e-25)
(0.659355 -0.206807 -7.75548e-25)
(0.643075 -0.202101 4.87752e-19)
(0.627373 -0.197539 -1.50968e-25)
(0.612248 -0.193128 -3.10693e-19)
(0.597691 -0.188863 1.36323e-24)
(0.583703 -0.184749 -3.86143e-19)
(0.570276 -0.180783 0)
(0.557398 -0.176968 0)
(0.545065 -0.173298 -2.2215e-24)
(0.53327 -0.169779 2.84917e-19)
(0.522002 -0.166405 0)
(0.511247 -0.163177 2.64245e-24)
(0.50099 -0.160088 7.89416e-26)
(0.491238 -0.157143 -4.06133e-19)
(0.48202 -0.154349 -4.42331e-19)
(0.473348 -0.151715 0)
(0.465146 -0.14923 -2.61651e-19)
(0.457326 -0.146861 -8.57232e-24)
(0.449945 -0.144616 -3.08662e-19)
(0.44328 -0.142561 -3.34932e-19)
(0.437608 -0.140791 -3.63217e-19)
(0.432864 -0.139335 1.58199e-25)
(0.428314 -0.138019 -1.29285e-23)
(0.423538 -0.136696 4.61258e-19)
(0.418361 -0.135241 -1.53028e-23)
(0.414562 -0.134024 1.63496e-23)
(0.414111 -0.133673 0)
(0.417681 -0.134445 -1.56778e-19)
(0.425746 -0.136752 1.02601e-23)
(0.433983 -0.139704 -2.21646e-23)
(0.438545 -0.142067 -9.70717e-20)
(0.440312 -0.144016 0)
(0.436759 -0.144498 2.71912e-23)
(0.433426 -0.144088 1.18151e-25)
(0.443719 -0.146711 -3.07853e-23)
(0.474275 -0.154561 0)
(0.530882 -0.169233 0)
(0.627884 -0.194738 0)
(0.803424 -0.252543 0)
(0.886697 -0.334656 3.88241e-23)
(0.643143 -0.326584 -4.07146e-23)
(0.216717 -0.149661 8.83856e-20)
(-0.0934955 0.10583 0)
(-0.0591588 0.0894033 0)
(-0.00745101 0.0415494 -5.30017e-20)
(1.89588 -0.544872 -2.37123e-18)
(1.85639 -0.535963 -2.26309e-18)
(1.81732 -0.52701 2.1298e-24)
(1.77863 -0.518018 -2.04325e-18)
(1.74026 -0.508973 1.93104e-18)
(1.70218 -0.49987 3.63387e-18)
(1.66435 -0.490711 0)
(1.62681 -0.481506 7.02181e-25)
(1.58962 -0.472274 -1.47017e-24)
(1.55284 -0.463044 1.19435e-24)
(1.51647 -0.453816 6.03288e-19)
(1.48051 -0.4446 -5.37205e-19)
(1.44497 -0.435402 -9.38086e-19)
(1.40988 -0.426228 -6.79538e-25)
(1.37528 -0.417104 5.46533e-25)
(1.34123 -0.408042 -2.50125e-19)
(1.30775 -0.399058 1.71662e-19)
(1.27488 -0.390172 -9.00729e-20)
(1.24266 -0.381391 3.21062e-25)
(1.21113 -0.372744 8.35022e-20)
(1.18031 -0.364222 0)
(1.15023 -0.355857 0)
(1.12092 -0.347652 0)
(1.09241 -0.339622 2.40347e-19)
(1.06471 -0.331778 5.92515e-19)
(1.03784 -0.324128 -3.55102e-19)
(1.01182 -0.316678 -4.17136e-19)
(0.986655 -0.30944 -4.82634e-19)
(0.962346 -0.302411 -1.10379e-18)
(0.938899 -0.295603 3.12627e-19)
(0.916313 -0.289015 3.51541e-19)
(0.894579 -0.282649 -3.08487e-24)
(0.873694 -0.276506 2.99901e-24)
(0.853648 -0.270587 0)
(0.834424 -0.26489 0)
(0.816013 -0.259416 5.8738e-19)
(0.798405 -0.254162 -6.44666e-19)
(0.781588 -0.249128 -3.53033e-19)
(0.76554 -0.24431 -3.85975e-19)
(0.750235 -0.239703 0)
(0.735684 -0.23531 0)
(0.72193 -0.231141 0)
(0.708987 -0.227211 2.72215e-19)
(0.696749 -0.223502 2.95952e-19)
(0.685087 -0.219972 1.40085e-25)
(0.67408 -0.216624 -1.07443e-23)
(0.664124 -0.213557 2.29717e-23)
(0.655615 -0.210904 2.05363e-19)
(0.648467 -0.208711 0)
(0.64164 -0.206734 0)
(0.63452 -0.20476 1.01122e-25)
(0.626851 -0.202609 1.73014e-23)
(0.621147 -0.200795 1.52338e-19)
(0.620234 -0.200219 0)
(0.625122 -0.20126 1.772e-19)
(0.636472 -0.204505 0)
(0.648207 -0.208723 0)
(0.65481 -0.212159 2.68477e-23)
(0.657371 -0.215008 1.23292e-25)
(0.652409 -0.215811 -1.256e-19)
(0.64765 -0.215345 -1.33977e-19)
(0.662006 -0.219129 0)
(0.705186 -0.230363 0)
(0.785382 -0.251393 7.99397e-20)
(0.922273 -0.288 0)
(1.16775 -0.369245 0)
(1.28977 -0.485938 4.36591e-23)
(0.958845 -0.481318 9.29523e-20)
(0.349139 -0.233998 -9.92293e-20)
(-0.115414 0.136723 1.03236e-22)
(-0.0847114 0.127053 0)
(-0.0147821 0.0888011 5.93385e-20)
(2.60753 -0.749375 -2.46863e-24)
(2.55325 -0.737125 2.55609e-18)
(2.49955 -0.724826 2.40577e-24)
(2.44636 -0.712464 2.11508e-24)
(2.39363 -0.700034 -2.18161e-18)
(2.34129 -0.68753 -2.05285e-18)
(2.28931 -0.674942 1.91953e-24)
(2.23772 -0.662292 -1.78734e-18)
(2.18662 -0.649611 0)
(2.13606 -0.636923 1.34979e-24)
(2.08607 -0.624246 -6.81853e-19)
(2.03666 -0.611581 6.07193e-19)
(1.98783 -0.598942 4.624e-25)
(1.93961 -0.586341 4.50588e-19)
(1.89207 -0.573803 3.68194e-19)
(1.84527 -0.561352 2.8277e-19)
(1.79926 -0.54901 0)
(1.7541 -0.536798 0)
(1.70983 -0.524739 5.77479e-21)
(1.6665 -0.512848 -2.74543e-25)
(1.62415 -0.501148 2.85226e-25)
(1.58281 -0.489652 0)
(1.54253 -0.478378 2.11614e-19)
(1.50335 -0.467343 2.71784e-19)
(1.46529 -0.456565 -3.35013e-19)
(1.42837 -0.446052 1.62876e-24)
(1.39262 -0.43582 4.71712e-19)
(1.35803 -0.42587 1.09157e-18)
(1.32463 -0.416215 1.24822e-18)
(1.29241 -0.40686 2.79546e-24)
(1.26137 -0.397808 -7.95083e-19)
(1.23151 -0.389061 0)
(1.20282 -0.380622 4.94062e-19)
(1.17527 -0.372493 -8.34824e-24)
(1.14886 -0.364666 6.03696e-19)
(1.12357 -0.357147 4.96783e-24)
(1.09939 -0.349929 -1.97418e-25)
(1.07629 -0.343017 3.99189e-19)
(1.05425 -0.336402 4.36425e-19)
(1.03324 -0.330078 -4.76423e-19)
(1.01326 -0.324046 -8.02725e-24)
(0.994377 -0.318324 -5.65689e-19)
(0.9766 -0.312927 -3.07752e-19)
(0.959798 -0.307834 -3.34571e-19)
(0.943795 -0.302992 -7.26937e-19)
(0.928694 -0.2984 0)
(0.91501 -0.294186 8.56308e-19)
(0.90326 -0.290528 1.40656e-23)
(0.893343 -0.287486 0)
(0.883911 -0.284752 -2.72306e-19)
(0.874143 -0.282041 -2.94682e-19)
(0.8637 -0.279119 -3.18616e-19)
(0.855819 -0.276631 0)
(0.854202 -0.275758 -2.2771e-23)
(0.860238 -0.277018 -2.00128e-19)
(0.874777 -0.281171 -2.6355e-23)
(0.890026 -0.286673 2.81344e-23)
(0.898762 -0.29125 -1.23894e-19)
(0.902166 -0.295069 3.22992e-23)
(0.895871 -0.2963 1.4169e-19)
(0.889688 -0.295879 1.5123e-19)
(0.907928 -0.300875 0)
(0.963578 -0.315562 1.70669e-19)
(1.06724 -0.343099 4.2891e-23)
(1.24342 -0.391096 9.42979e-20)
(1.55593 -0.495223 0)
(1.71938 -0.64681 0)
(1.31282 -0.651162 -1.03884e-19)
(0.517162 -0.336951 1.10736e-19)
(-0.121143 0.155886 1.1747e-22)
(-0.110431 0.165162 -2.4871e-22)
(-0.0253773 0.158898 -6.61009e-20)
(3.41254 -0.980688 0)
(3.34162 -0.964684 -2.64724e-24)
(3.27144 -0.948619 -2.73877e-18)
(3.20192 -0.932466 -2.59892e-18)
(3.13299 -0.916227 2.4569e-18)
(3.06459 -0.899886 2.10726e-24)
(2.99666 -0.883441 -2.16259e-24)
(2.92923 -0.866912 0)
(2.86242 -0.850341 0)
(2.79634 -0.833755 1.52152e-24)
(2.73099 -0.817185 -1.56663e-24)
(2.6664 -0.800638 0)
(2.60255 -0.784114 5.97917e-19)
(2.53951 -0.767645 -5.08228e-19)
(2.47736 -0.751254 4.15353e-19)
(2.41618 -0.734977 0)
(2.35603 -0.718846 2.18986e-19)
(2.29697 -0.70288 1.14921e-19)
(2.23908 -0.687113 0)
(2.18243 -0.671566 0)
(2.12705 -0.656268 0)
(2.07299 -0.641236 0)
(2.02032 -0.626494 -4.77849e-19)
(1.96908 -0.612066 -6.13769e-19)
(1.91929 -0.597969 -2.66902e-24)
(1.87101 -0.58422 0)
(1.82424 -0.570837 0)
(1.77901 -0.557825 6.07341e-25)
(1.73532 -0.5452 -7.04913e-19)
(1.69317 -0.532962 0)
(1.65258 -0.521124 4.49043e-19)
(1.61353 -0.509685 0)
(1.576 -0.498651 0)
(1.53998 -0.488018 0)
(1.50544 -0.477787 -6.81945e-19)
(1.47237 -0.467953 -1.12237e-23)
(1.44075 -0.458519 4.11722e-19)
(1.41056 -0.449482 -4.50933e-19)
(1.38175 -0.440836 -4.54843e-25)
(1.35429 -0.432572 5.38173e-19)
(1.32818 -0.42469 0)
(1.3035 -0.417213 -3.82261e-25)
(1.28026 -0.410159 0)
(1.2583 -0.403503 3.77844e-19)
(1.2374 -0.397179 2.45954e-23)
(1.21769 -0.391187 -2.74306e-23)
(1.19978 -0.385678 -4.83423e-19)
(1.18433 -0.380871 4.60414e-25)
(1.17122 -0.376851 4.56534e-25)
(1.1588 -0.373248 6.14779e-19)
(1.14605 -0.369704 4.03749e-23)
(1.13252 -0.365928 3.59608e-19)
(1.12216 -0.362684 -1.94309e-19)
(1.11953 -0.361424 -4.39377e-25)
(1.12645 -0.362821 4.5166e-19)
(1.14393 -0.367809 0)
(1.16258 -0.374578 0)
(1.17349 -0.380347 1.39641e-19)
(1.17777 -0.385207 0)
(1.17027 -0.386996 0)
(1.16272 -0.386754 0)
(1.18453 -0.392998 8.86065e-23)
(1.25211 -0.411123 -1.92018e-19)
(1.37842 -0.445153 -1.01373e-19)
(1.59206 -0.504551 -1.05725e-19)
(1.96609 -0.6303 2.13345e-22)
(2.17245 -0.816279 1.12543e-19)
(1.70659 -0.836143 1.15623e-19)
(0.727913 -0.461807 -2.45897e-19)
(-0.104521 0.158117 -1.31263e-22)
(-0.134817 0.202882 -1.4353e-19)
(-0.0393111 0.254548 7.35612e-20)
(4.3189 -1.2411 3.3646e-18)
(4.22949 -1.22095 -4.29707e-25)
(4.14099 -1.2007 3.06112e-18)
(4.05331 -1.18035 2.90622e-18)
(3.96635 -1.15988 -2.74869e-18)
(3.88005 -1.13928 -4.71721e-24)
(3.79434 -1.11854 2.42417e-18)
(3.70925 -1.0977 -2.25621e-18)
(3.62492 -1.07679 0)
(3.54148 -1.05587 0)
(3.45897 -1.03495 -3.06249e-24)
(3.37739 -1.01406 -7.68197e-19)
(3.29675 -0.993201 -2.33044e-24)
(3.21712 -0.972402 4.35215e-24)
(3.13861 -0.951701 -3.03702e-24)
(3.0613 -0.931145 0)
(2.98529 -0.910761 -1.03516e-24)
(2.91065 -0.890592 -1.29192e-19)
(2.83747 -0.870664 -2.65202e-25)
(2.76584 -0.851017 0)
(2.69582 -0.831676 -1.20554e-24)
(2.62747 -0.81267 2.99167e-24)
(2.56087 -0.794034 2.6892e-19)
(2.49605 -0.775788 3.45483e-19)
(2.43308 -0.75796 -4.25972e-19)
(2.372 -0.740573 -5.10711e-19)
(2.31283 -0.72364 -4.82556e-24)
(2.2556 -0.707182 -1.38883e-18)
(2.20033 -0.691208 0)
(2.147 -0.675727 7.11598e-24)
(2.09564 -0.660749 -7.47174e-24)
(2.04622 -0.646278 0)
(1.99874 -0.632316 0)
(1.95317 -0.618863 -1.0883e-23)
(1.90947 -0.60592 1.14776e-23)
(1.86763 -0.593481 8.45883e-19)
(1.82763 -0.581549 0)
(1.78944 -0.570118 5.08407e-19)
(1.753 -0.559183 5.5585e-19)
(1.71827 -0.548733 -3.70347e-23)
(1.68526 -0.538769 1.99301e-23)
(1.65405 -0.529313 7.2042e-19)
(1.62465 -0.520392 -2.36601e-23)
(1.59687 -0.511974 -8.52004e-19)
(1.57047 -0.503984 4.62747e-19)
(1.54556 -0.496418 0)
(1.52288 -0.489446 -5.44965e-19)
(1.50321 -0.483334 0)
(1.48642 -0.478186 -3.93204e-23)
(1.47059 -0.473587 4.2232e-23)
(1.45447 -0.469102 -3.74689e-19)
(1.43754 -0.464387 -4.91937e-23)
(1.42435 -0.460293 4.37606e-19)
(1.42032 -0.458536 -2.36114e-19)
(1.42771 -0.459953 -2.54082e-19)
(1.44771 -0.465648 -6.64892e-23)
(1.46949 -0.473614 -7.17583e-23)
(1.48252 -0.480602 -3.61225e-25)
(1.48766 -0.486563 1.68038e-19)
(1.47915 -0.489067 8.74577e-23)
(1.47037 -0.48918 0)
(1.4953 -0.49669 0)
(1.57381 -0.518132 0)
(1.7211 -0.558442 0)
(1.96896 -0.628904 1.17869e-19)
(2.39622 -0.774271 0)
(2.64496 -0.993096 -2.5078e-19)
(2.14006 -1.03555 -2.19121e-22)
(0.988709 -0.611716 1.35371e-19)
(-0.0579325 0.137547 -1.48349e-19)
(-0.155333 0.239114 3.22504e-19)
(-0.0556059 0.377209 1.57089e-22)
(5.32944 -1.53141 -3.70121e-18)
(5.22009 -1.50683 0)
(5.1118 -1.48212 0)
(5.00445 -1.45725 3.20675e-18)
(4.89794 -1.43222 3.03588e-18)
(4.79219 -1.40702 2.86127e-18)
(4.68712 -1.38164 -2.68241e-18)
(4.58277 -1.35612 4.99756e-18)
(4.47931 -1.3305 0)
(4.37689 -1.30484 -2.11531e-18)
(4.27556 -1.27919 7.30207e-24)
(4.17536 -1.25355 8.53594e-19)
(4.07627 -1.22795 -7.46272e-19)
(3.97839 -1.2024 -6.35009e-19)
(3.88184 -1.17697 -5.19498e-19)
(3.78675 -1.1517 3.99418e-19)
(3.69322 -1.12664 -2.74426e-19)
(3.60135 -1.10182 0)
(3.51125 -1.0773 8.17689e-21)
(3.42303 -1.05312 1.33902e-19)
(3.33676 -1.0293 0)
(3.25254 -1.00589 0)
(3.17043 -0.982926 -2.56769e-24)
(3.09052 -0.960438 2.67756e-24)
(3.01287 -0.93846 -1.0822e-24)
(2.93753 -0.917022 5.7207e-19)
(2.86454 -0.896138 4.85378e-24)
(2.79391 -0.875834 7.78413e-19)
(2.72569 -0.856123 0)
(2.65988 -0.837021 5.047e-19)
(2.59647 -0.818535 5.67773e-19)
(2.53546 -0.800672 9.9682e-24)
(2.47684 -0.783437 7.06092e-19)
(2.42057 -0.766832 1.22184e-23)
(2.36662 -0.750852 -1.28882e-23)
(2.31496 -0.735498 -9.49988e-19)
(2.26557 -0.720765 -5.21384e-19)
(2.21841 -0.706656 -1.71425e-23)
(2.17343 -0.693159 -1.2489e-18)
(2.13056 -0.680262 -2.05162e-23)
(2.08981 -0.667965 0)
(2.05127 -0.656293 8.09473e-19)
(2.01497 -0.645276 0)
(1.98067 -0.634886 9.57352e-19)
(1.9481 -0.625032 -5.19916e-19)
(1.91737 -0.615703 5.64367e-19)
(1.88934 -0.607091 1.22455e-18)
(1.86487 -0.599496 -4.02167e-23)
(1.84385 -0.593055 0)
(1.82412 -0.587317 -3.89093e-19)
(1.80422 -0.581775 4.20882e-19)
(1.78354 -0.576033 -5.52281e-23)
(1.76716 -0.570989 -2.4554e-19)
(1.76126 -0.5686 2.64849e-19)
(1.76859 -0.569877 0)
(1.79044 -0.576083 0)
(1.81485 -0.585112 -3.28558e-19)
(1.8298 -0.593305 -1.75939e-19)
(1.83573 -0.600413 3.8193e-25)
(1.82643 -0.603808 0)
(1.81664 -0.604494 0)
(1.84411 -0.613274 2.2748e-19)
(1.93206 -0.63779 -1.1711e-22)
(2.09772 -0.683918 1.22731e-22)
(2.37506 -0.764694 -1.30568e-19)
(2.84452 -0.926962 0)
(3.13208 -1.17585 1.38479e-19)
(2.61092 -1.24775 -1.38464e-19)
(1.30618 -0.789222 -1.46642e-19)
(0.0285805 0.0875425 1.63816e-19)
(-0.169508 0.271836 -3.61213e-19)
(-0.0737925 0.525196 0)
(6.43525 -1.84906 3.96518e-18)
(6.30558 -1.82006 1.49981e-23)
(6.17703 -1.79086 0)
(6.04947 -1.76143 -3.45484e-18)
(5.92279 -1.73178 -1.19792e-23)
(5.79691 -1.7019 -3.09351e-18)
(5.67173 -1.67176 0)
(5.54731 -1.64142 -2.71075e-18)
(5.42383 -1.61093 -9.03589e-24)
(5.30148 -1.58036 2.30213e-18)
(5.18034 -1.54976 1.04343e-18)
(5.06045 -1.51915 0)
(4.94182 -1.48855 8.15814e-19)
(4.82454 -1.458 6.95156e-19)
(4.70878 -1.42756 -3.77651e-24)
(4.59469 -1.39728 1.48127e-24)
(4.48239 -1.36723 -3.01593e-19)
(4.37201 -1.33746 1.58605e-19)
(4.26368 -1.30801 -1.80132e-20)
(4.15755 -1.27895 2.79008e-24)
(4.05371 -1.25031 0)
(3.95227 -1.22214 4.29437e-24)
(3.85333 -1.19449 -4.47807e-24)
(3.75698 -1.1674 0)
(3.66332 -1.1409 5.28532e-19)
(3.5724 -1.11505 -6.34436e-19)
(3.48426 -1.08985 0)
(3.39897 -1.06534 0)
(3.31654 -1.04154 0)
(3.23699 -1.01846 -5.61256e-19)
(3.16033 -0.996122 -1.26346e-18)
(3.08655 -0.974527 -2.09396e-23)
(3.01564 -0.953688 -7.86466e-19)
(2.94756 -0.933607 0)
(2.88228 -0.914277 -9.62302e-19)
(2.81976 -0.895701 -6.46622e-23)
(2.75999 -0.877877 1.16331e-18)
(2.70291 -0.860804 -6.37286e-19)
(2.64846 -0.844474 6.97017e-19)
(2.59657 -0.828868 -4.5807e-23)
(2.54726 -0.813989 0)
(2.50059 -0.799863 -9.03957e-19)
(2.45662 -0.786523 0)
(2.41509 -0.773943 -1.06928e-18)
(2.37567 -0.762023 1.16151e-18)
(2.3385 -0.750744 5.82112e-25)
(2.30449 -0.740307 -6.83841e-19)
(2.27462 -0.731047 -9.11336e-23)
(2.24878 -0.723133 -1.29071e-24)
(2.22463 -0.716103 4.34378e-19)
(2.20052 -0.709383 -4.69481e-19)
(2.17574 -0.702527 -2.47836e-22)
(2.15579 -0.696432 -1.28374e-24)
(2.14746 -0.693253 2.95811e-19)
(2.15401 -0.694179 3.17601e-19)
(2.17681 -0.700624 -1.0373e-24)
(2.20305 -0.710496 3.6621e-19)
(2.21954 -0.719824 1.95614e-19)
(2.22607 -0.7281 -2.09322e-19)
(2.21623 -0.73258 2.23272e-19)
(2.20571 -0.734096 0)
(2.23507 -0.744138 -2.52358e-19)
(2.33047 -0.771353 -2.65035e-19)
(2.51089 -0.822555 -4.55443e-25)
(2.81138 -0.912417 -2.79426e-22)
(3.30969 -1.08826 0)
(3.62874 -1.3631 -1.51596e-19)
(3.11425 -1.47012 1.48506e-19)
(1.68528 -0.995636 1.56909e-19)
(0.16653 0.000872523 -1.78302e-19)
(-0.173331 0.299612 4.01434e-19)
(-0.0917516 0.693029 -5.63809e-22)
(7.60664 -2.1855 -4.07265e-18)
(7.45826 -2.15263 3.91367e-18)
(7.31092 -2.11945 3.74984e-18)
(7.16445 -2.08594 0)
(7.01878 -2.05209 -3.40604e-18)
(6.87382 -2.01791 0)
(6.72945 -1.98337 -3.03716e-18)
(6.58573 -1.94852 0)
(6.44289 -1.91343 2.63848e-18)
(6.30114 -1.87819 2.42652e-18)
(6.16059 -1.84284 -2.2054e-18)
(6.0213 -1.80742 0)
(5.88329 -1.77196 -6.01778e-24)
(5.74669 -1.7365 6.24261e-24)
(5.61167 -1.7011 -6.07723e-19)
(5.47841 -1.66585 -4.68932e-19)
(5.34709 -1.6308 6.46589e-19)
(5.21787 -1.59603 -1.70378e-19)
(5.0909 -1.56159 9.69281e-21)
(4.96637 -1.52755 -3.18561e-19)
(4.84439 -1.49397 1.93205e-24)
(4.7251 -1.46091 0)
(4.60864 -1.42841 -6.16034e-24)
(4.49513 -1.39654 -4.65035e-19)
(4.38466 -1.36534 0)
(4.27735 -1.33486 1.38252e-18)
(4.17324 -1.30513 -1.17554e-23)
(4.0724 -1.27619 9.44543e-19)
(3.97488 -1.24806 -1.72e-23)
(3.88071 -1.22076 3.75197e-23)
(3.7899 -1.19433 6.92617e-19)
(3.70245 -1.16875 2.4359e-23)
(3.61836 -1.14406 -2.56754e-23)
(3.53759 -1.12025 0)
(3.46011 -1.09733 1.05891e-18)
(3.38588 -1.07529 3.4902e-23)
(3.31489 -1.05413 4.08347e-23)
(3.24708 -1.03386 7.02627e-19)
(3.18238 -1.01447 7.68893e-19)
(3.12072 -0.995933 -8.40037e-19)
(3.0621 -0.978256 -1.42919e-24)
(3.00661 -0.961468 9.98592e-19)
(2.95428 -0.945604 -1.32661e-22)
(2.90487 -0.930642 1.18169e-18)
(2.858 -0.916478 -6.41841e-19)
(2.81381 -0.903081 8.22228e-25)
(2.77327 -0.890651 0)
(2.73741 -0.879551 0)
(2.70617 -0.869989 -1.09044e-22)
(2.67708 -0.861516 -9.60218e-19)
(2.64832 -0.853503 1.25316e-22)
(2.61913 -0.845459 -1.37609e-22)
(2.59524 -0.838221 1.47068e-22)
(2.58389 -0.83408 -6.52827e-19)
(2.58879 -0.834395 -3.50797e-19)
(2.61136 -0.840723 -1.14384e-24)
(2.63832 -0.851124 1.96293e-22)
(2.65568 -0.861445 2.15385e-19)
(2.66248 -0.870872 2.24445e-22)
(2.65229 -0.876634 -2.38709e-22)
(2.64144 -0.87927 2.54587e-22)
(2.67197 -0.890556 2.76464e-19)
(2.77237 -0.919956 5.79641e-19)
(2.96293 -0.975185 2.93921e-22)
(3.27875 -1.0724 -1.89149e-24)
(3.791 -1.25808 -1.57398e-19)
(4.13022 -1.55361 1.64233e-19)
(3.64248 -1.69908 -2.12454e-22)
(2.12785 -1.23041 3.26641e-19)
(0.369333 -0.132844 -7.74803e-22)
(-0.160321 0.320147 -4.41799e-19)
(-0.105254 0.867581 0)
(8.78744 -2.52457 1.55622e-23)
(8.62452 -2.48904 -2.37965e-23)
(8.46236 -2.45306 -3.66513e-18)
(8.30082 -2.41659 -1.39289e-23)
(8.1398 -2.37964 3.35641e-18)
(7.97923 -2.34221 0)
(7.81899 -2.30428 3.01708e-18)
(7.65913 -2.26589 0)
(7.49989 -2.22712 -2.01788e-23)
(7.34152 -2.18807 -2.43906e-18)
(7.18417 -2.1488 1.11266e-18)
(7.0279 -2.10934 0)
(6.87277 -2.06974 -8.80874e-19)
(6.71891 -2.03003 -1.22002e-24)
(6.56652 -1.99031 6.22294e-19)
(6.41583 -1.95064 -4.81843e-19)
(6.26704 -1.91112 -3.33342e-19)
(6.12035 -1.87182 0)
(5.97596 -1.83281 -5.78798e-25)
(5.83407 -1.79418 1.65831e-19)
(5.69486 -1.75598 3.35719e-24)
(5.55849 -1.7183 -3.51423e-24)
(5.42513 -1.6812 0)
(5.29495 -1.64475 4.89735e-19)
(5.16807 -1.609 0)
(5.04462 -1.57402 4.04251e-24)
(4.92469 -1.53984 0)
(4.80839 -1.50653 -1.00433e-18)
(4.69577 -1.4741 0)
(4.58688 -1.4426 0)
(4.48177 -1.41205 -7.40908e-19)
(4.38044 -1.38246 0)
(4.28291 -1.35387 9.27347e-19)
(4.18915 -1.32627 -1.03016e-18)
(4.09914 -1.29967 6.95821e-23)
(4.01285 -1.27407 1.51147e-24)
(3.93025 -1.24949 -3.99552e-23)
(3.85131 -1.22592 4.71034e-23)
(3.77596 -1.20335 -1.66325e-18)
(3.70411 -1.18178 9.09312e-19)
(3.63578 -1.16119 9.92857e-19)
(3.57105 -1.14163 -1.08251e-18)
(3.50996 -1.12312 -1.43916e-22)
(3.45224 -1.10567 7.85879e-23)
(3.39754 -1.08915 0)
(3.34596 -1.07353 -7.5704e-19)
(3.29849 -1.059 -1.57209e-24)
(3.25622 -1.04593 1.07916e-22)
(3.21909 -1.03458 0)
(3.18462 -1.02455 1.04344e-18)
(3.15089 -1.01516 5.63917e-19)
(3.11709 -1.00589 -1.49468e-22)
(3.08898 -0.997443 1.59703e-22)
(3.07404 -0.992175 3.54317e-19)
(3.07631 -0.991587 0)
(3.09724 -0.997371 -4.07992e-19)
(3.12348 -1.0079 2.13772e-22)
(3.14077 -1.01899 2.41128e-24)
(3.14734 -1.02951 -2.42784e-22)
(3.13694 -1.03674 -2.65095e-19)
(3.12613 -1.04079 2.818e-19)
(3.1571 -1.05329 -2.96756e-19)
(3.25967 -1.08423 -6.09417e-22)
(3.45488 -1.14215 3.13819e-22)
(3.7769 -1.24447 -1.63394e-19)
(4.28769 -1.43611 1.65786e-19)
(4.63263 -1.74635 -6.78416e-22)
(4.18589 -1.93047 -1.61817e-19)
(2.63165 -1.49081 -6.61971e-19)
(0.652197 -0.323941 1.97045e-19)
(-0.122428 0.328724 2.38106e-19)
(-0.106867 1.03269 8.54068e-22)
(9.90446 -2.84524 0)
(9.73284 -2.80865 -3.47827e-18)
(9.56163 -2.77146 0)
(9.39069 -2.73363 3.23751e-18)
(9.21992 -2.69515 -3.10606e-18)
(9.04923 -2.65603 -2.36323e-23)
(8.8785 -2.61625 -2.04712e-23)
(8.70776 -2.57584 2.65925e-18)
(8.53727 -2.5349 -2.49019e-18)
(8.36729 -2.4935 -1.65314e-23)
(8.198 -2.45174 -1.05853e-18)
(8.02945 -2.40964 -9.55729e-19)
(7.86171 -2.36725 8.29012e-24)
(7.69494 -2.32462 9.9349e-24)
(7.52935 -2.28182 -6.03058e-19)
(7.36521 -2.23896 4.69066e-19)
(7.20273 -2.19612 3.72454e-24)
(7.04216 -2.15339 -2.5352e-24)
(6.88371 -2.11087 9.90143e-21)
(6.72764 -2.06862 0)
(6.57415 -2.02675 0)
(6.42345 -1.98532 9.72611e-24)
(6.27574 -1.94443 -2.32036e-23)
(6.13122 -1.90414 1.36536e-23)
(5.99008 -1.86454 -6.13358e-19)
(5.85246 -1.82569 -7.41787e-19)
(5.7185 -1.78766 -2.53767e-23)
(5.58833 -1.7505 0)
(5.46205 -1.71426 1.18132e-18)
(5.33974 -1.67898 -4.26379e-23)
(5.22147 -1.64469 7.63215e-19)
(5.10727 -1.61144 -5.08673e-23)
(4.99719 -1.57924 -9.60131e-19)
(4.89121 -1.54812 -1.34539e-22)
(4.78933 -1.51808 1.44766e-22)
(4.69155 -1.48913 -1.60031e-22)
(4.59784 -1.4613 1.7867e-22)
(4.50819 -1.43457 -9.53792e-23)
(4.42253 -1.40897 8.71709e-19)
(4.34078 -1.38446 9.54378e-19)
(4.26296 -1.36106 -2.08709e-18)
(4.18917 -1.33879 -1.13925e-18)
(4.11944 -1.3177 0)
(4.05353 -1.2978 -6.76454e-19)
(3.99106 -1.27897 -3.30955e-24)
(3.93214 -1.26116 1.9351e-22)
(3.87775 -1.24453 -2.13555e-22)
(3.82897 -1.22948 2.28173e-22)
(3.78579 -1.21631 0)
(3.74578 -1.20468 -5.51808e-19)
(3.70699 -1.19391 -2.92847e-22)
(3.66858 -1.18345 -6.43985e-19)
(3.6362 -1.1738 -3.4679e-19)
(3.61722 -1.16729 -3.64181e-22)
(3.61594 -1.16551 4.0181e-19)
(3.63375 -1.17031 4.3131e-19)
(3.65769 -1.18052 0)
(3.67375 -1.19209 -2.46223e-19)
(3.67946 -1.20362 -5.1407e-22)
(3.66888 -1.21247 -2.78977e-19)
(3.65843 -1.21822 -5.91438e-19)
(3.68908 -1.23187 0)
(3.79074 -1.26359 -3.2458e-19)
(3.98455 -1.32265 1.67436e-19)
(4.30279 -1.42748 3.36475e-19)
(4.79751 -1.62134 0)
(5.13276 -1.94034 1.82468e-19)
(4.73348 -2.15993 0)
(3.18964 -1.77119 6.5344e-19)
(1.02644 -0.574827 -3.93206e-19)
(-0.0473698 0.313609 -1.96059e-21)
(-0.0888446 1.16436 8.89126e-22)
(10.8962 -3.12984 0)
(10.7211 -3.09354 -2.2146e-23)
(10.5461 -3.05651 2.30798e-23)
(10.3712 -3.01872 -2.82037e-18)
(10.1961 -2.98017 3.91097e-23)
(10.0207 -2.94084 0)
(9.84506 -2.90072 0)
(9.66903 -2.85984 -2.35314e-18)
(9.4929 -2.81828 2.21273e-18)
(9.31693 -2.77614 1.47526e-23)
(9.1413 -2.73347 -5.09487e-24)
(8.96606 -2.69034 8.60397e-19)
(8.79128 -2.64677 1.5298e-18)
(8.6171 -2.6028 1.11633e-23)
(8.44376 -2.55853 5.50346e-19)
(8.27152 -2.51405 -2.2418e-24)
(8.10061 -2.46946 -5.72454e-24)
(7.93128 -2.42484 0)
(7.76378 -2.3803 -9.20734e-21)
(7.59838 -2.33591 3.56978e-24)
(7.4353 -2.29178 -3.76709e-24)
(7.27479 -2.24798 0)
(7.11707 -2.20462 0)
(6.96237 -2.16178 0)
(6.8109 -2.11955 5.86063e-19)
(6.66286 -2.07801 -2.03542e-23)
(6.51842 -2.03723 0)
(6.37773 -1.99727 0)
(6.24093 -1.9582 -1.1475e-18)
(6.10815 -1.92007 0)
(5.97947 -1.88293 -7.46903e-19)
(5.85496 -1.84682 1.02911e-22)
(5.7347 -1.81177 -5.62388e-23)
(5.61871 -1.77783 2.11398e-18)
(5.50701 -1.74501 -7.33257e-23)
(5.3996 -1.71332 7.80041e-23)
(5.29651 -1.68279 -7.20422e-19)
(5.19773 -1.65343 0)
(5.10322 -1.62526 8.73433e-19)
(5.0129 -1.59826 -9.58673e-19)
(4.92682 -1.57244 1.05007e-18)
(4.84507 -1.54783 1.14831e-18)
(4.7677 -1.52448 0)
(4.6945 -1.50243 1.68606e-22)
(4.62509 -1.48156 -1.80144e-22)
(4.55958 -1.46182 -1.99479e-22)
(4.49891 -1.44332 2.13263e-22)
(4.44415 -1.42647 0)
(4.39531 -1.4116 0)
(4.35009 -1.3985 0)
(4.3066 -1.3865 6.06351e-19)
(4.26398 -1.375 3.18881e-22)
(4.2276 -1.36425 3.53235e-19)
(4.20451 -1.35648 -3.70294e-22)
(4.19903 -1.35333 -6.07613e-25)
(4.21253 -1.3568 0)
(4.2328 -1.36631 -4.68949e-19)
(4.24653 -1.37809 -4.90279e-22)
(4.25079 -1.39055 -2.66458e-19)
(4.24002 -1.40117 2.83608e-19)
(4.23009 -1.40882 2.98528e-19)
(4.25956 -1.42349 -1.83791e-24)
(4.35726 -1.45523 6.35741e-22)
(4.54366 -1.51384 -3.34346e-24)
(4.84831 -1.61853 -1.68281e-19)
(5.31446 -1.81136 -6.58414e-22)
(5.62672 -2.13407 8.90005e-22)
(5.27394 -2.38336 1.27752e-21)
(3.78923 -2.06593 -6.28322e-19)
(1.49474 -0.885303 3.78032e-19)
(0.0834405 0.259046 0)
(-0.0463601 1.24844 -8.99654e-22)
(11.9142 -3.40596 -1.96225e-23)
(11.7386 -3.37144 -2.59319e-18)
(11.5628 -3.33604 1.85949e-23)
(11.3871 -3.29986 -1.94142e-23)
(11.2113 -3.26286 1.74255e-23)
(11.0352 -3.22503 2.29394e-18)
(10.8587 -3.18636 -2.20413e-18)
(10.6817 -3.14681 0)
(10.5041 -3.10642 0)
(10.3263 -3.06527 -1.88699e-18)
(10.1484 -3.02344 1.76258e-18)
(9.97064 -2.98101 8.13676e-19)
(9.79303 -2.93801 0)
(9.61564 -2.89448 -1.32006e-18)
(9.4386 -2.85044 0)
(9.26213 -2.806 0)
(9.08649 -2.76124 -4.73967e-24)
(8.91191 -2.71625 8.00871e-24)
(8.73863 -2.67114 -1.40624e-19)
(8.56692 -2.62598 0)
(8.39703 -2.58087 3.1587e-24)
(8.2292 -2.5359 -3.34636e-24)
(8.06367 -2.49117 0)
(7.90069 -2.44677 0)
(7.74049 -2.40278 -4.21567e-19)
(7.58331 -2.35931 -5.28971e-19)
(7.42935 -2.31644 6.45094e-19)
(7.27881 -2.27424 -7.70542e-19)
(7.13187 -2.23279 -2.6359e-23)