/*--------------------------------*- C++ -*----------------------------------*\
| =========                 |                                                 |
| \\      /  F ield         | OpenFOAM: The Open Source CFD Toolbox           |
|  \\    /   O peration     | Version:  2412                                  |
|   \\  /    A nd           | Website:  www.openfoam.com                      |
|    \\/     M anipulation  |                                                 |
\*---------------------------------------------------------------------------*/
FoamFile
{
    version     2.0;
    format      ascii;
    arch        "LSB;label=32;scalar=64";
    class       volVectorField;
    location    "260";
    object      U;
}
// * * * * * * * * * * * * * * * * * * * * * * * * * * * * * * * * * * * * * //

dimensions      [0 1 -1 0 0 0 0];

internalField   nonuniform List<vector> 
8702
(
(0.450089 -0.123228 3.54975e-19)
(0.44986 -0.123799 0)
(0.44967 -0.124364 -3.38757e-19)
(0.44953 -0.124927 -3.31018e-19)
(0.449389 -0.125476 0)
(0.449251 -0.12601 -3.16122e-19)
(0.449128 -0.126536 2.94652e-25)
(0.448989 -0.127045 -2.87942e-25)
(0.448834 -0.127537 -2.95007e-19)
(0.448681 -0.128018 0)
(0.44853 -0.128488 2.81498e-19)
(0.448372 -0.128945 -2.7485e-19)
(0.448208 -0.129391 1.2515e-25)
(0.448047 -0.129827 -5.52424e-27)
(0.447882 -0.130253 1.27544e-19)
(0.447722 -0.13067 0)
(0.447555 -0.131077 -1.12526e-25)
(0.447389 -0.131474 1.17571e-19)
(0.447233 -0.131866 6.58151e-27)
(0.447063 -0.132247 9.0457e-27)
(0.446888 -0.132616 0)
(0.446718 -0.132978 -1.03566e-19)
(0.44654 -0.133331 0)
(0.44636 -0.133673 9.60465e-20)
(0.446184 -0.13401 0)
(0.446003 -0.134337 0)
(0.445814 -0.134654 0)
(0.445628 -0.134963 -7.94423e-20)
(0.445439 -0.135263 -1.42732e-25)
(0.445242 -0.135553 3.50371e-20)
(0.445046 -0.135835 3.25213e-20)
(0.44485 -0.13611 5.34748e-26)
(0.444643 -0.136373 2.70646e-20)
(0.444437 -0.136628 4.2238e-26)
(0.444229 -0.136875 -4.35955e-26)
(0.444005 -0.137108 -3.5047e-20)
(0.443787 -0.137334 0)
(0.443567 -0.137553 -9.98054e-21)
(0.443345 -0.137762 0)
(0.443124 -0.137964 -2.33997e-27)
(0.4429 -0.138157 2.42528e-27)
(0.442673 -0.138341 -4.51921e-21)
(0.442442 -0.138516 -7.40297e-21)
(0.442208 -0.138682 1.05237e-20)
(0.441985 -0.138842 0)
(0.441762 -0.138996 1.75464e-20)
(0.441536 -0.139141 2.1485e-20)
(0.441304 -0.139276 -2.57346e-20)
(0.44107 -0.139403 3.03168e-20)
(0.440828 -0.13952 -1.76267e-20)
(0.440581 -0.139627 -1.47751e-25)
(0.440338 -0.139729 0)
(0.440089 -0.139821 0)
(0.439835 -0.139905 0)
(0.439576 -0.139981 2.61273e-25)
(0.439316 -0.140049 3.69925e-20)
(0.439045 -0.140108 0)
(0.438765 -0.140157 0)
(0.438483 -0.140199 -1.15037e-27)
(0.438211 -0.140237 2.7819e-20)
(0.437935 -0.14027 3.06248e-20)
(0.437647 -0.140294 -3.36498e-20)
(0.437371 -0.140315 -7.38285e-20)
(0.437125 -0.140337 -6.06864e-25)
(0.436933 -0.140369 2.21142e-20)
(0.436765 -0.14041 7.2463e-25)
(0.436596 -0.140454 2.63521e-20)
(0.436382 -0.140487 0)
(0.436195 -0.140509 -2.82731e-28)
(0.436244 -0.140575 0)
(0.436705 -0.140744 -1.84541e-20)
(0.437533 -0.14105 1.99972e-20)
(0.438219 -0.141391 4.32574e-20)
(0.438421 -0.141653 -2.33734e-20)
(0.437883 -0.141717 1.55961e-24)
(0.437476 -0.141658 -2.7256e-20)
(0.438959 -0.141955 -1.77357e-24)
(0.442918 -0.142832 -2.81238e-26)
(0.450573 -0.144753 -1.68544e-20)
(0.460078 -0.147705 0)
(0.466926 -0.150552 -1.88908e-20)
(0.469783 -0.152784 0)
(1.39749 -0.382612 -2.86529e-25)
(1.39678 -0.384387 5.76519e-19)
(1.39619 -0.38614 0)
(1.39577 -0.387891 0)
(1.39535 -0.389599 0)
(1.39492 -0.391262 -5.25525e-19)
(1.39453 -0.392892 -5.13553e-19)
(1.39412 -0.394476 2.43983e-25)
(1.39365 -0.396008 4.90365e-19)
(1.39318 -0.397504 -4.79054e-19)
(1.39271 -0.398963 2.27707e-25)
(1.39223 -0.400385 0)
(1.39173 -0.401771 0)
(1.39124 -0.403128 -2.02758e-25)
(1.39073 -0.404452 -2.11953e-19)
(1.39025 -0.405751 -2.01511e-25)
(1.38974 -0.40702 2.00945e-19)
(1.38924 -0.408256 1.81622e-25)
(1.38874 -0.409471 -1.89699e-19)
(1.38823 -0.410654 9.95908e-27)
(1.38771 -0.411808 0)
(1.38718 -0.412935 -1.59214e-25)
(1.38665 -0.414032 1.65892e-19)
(1.3861 -0.415102 -1.5955e-19)
(1.38556 -0.416149 0)
(1.38501 -0.417169 -1.46243e-19)
(1.38444 -0.418156 -2.65464e-25)
(1.38387 -0.419119 1.39001e-25)
(1.38329 -0.420054 0)
(1.38269 -0.420959 -5.81698e-20)
(1.3821 -0.421839 -9.73012e-26)
(1.38149 -0.422693 4.95758e-20)
(1.38087 -0.423516 0)
(1.38024 -0.42431 0)
(1.37961 -0.42508 -5.98116e-26)
(1.37895 -0.425817 7.47496e-26)
(1.37829 -0.426527 0)
(1.37764 -0.427213 3.30572e-20)
(1.37697 -0.427873 -9.5251e-21)
(1.37632 -0.428509 0)
(1.37565 -0.429117 -3.10254e-21)
(1.37498 -0.429698 3.7134e-26)
(1.3743 -0.430251 -3.85421e-26)
(1.37361 -0.43078 -1.74941e-20)
(1.37295 -0.431292 0)
(1.37229 -0.431777 0)
(1.37161 -0.432235 -3.56931e-20)
(1.37093 -0.432665 -1.52677e-25)
(1.37024 -0.433071 -5.03579e-20)
(1.36954 -0.433451 5.85554e-20)
(1.36883 -0.433803 0)
(1.36811 -0.434131 -3.84516e-20)
(1.36738 -0.434431 0)
(1.36664 -0.434708 3.88049e-25)
(1.36589 -0.434959 2.75098e-26)
(1.36512 -0.435184 -6.14251e-20)
(1.36433 -0.435382 5.36227e-25)
(1.36353 -0.435556 -3.78653e-20)
(1.36273 -0.435711 4.18653e-20)
(1.36194 -0.43585 4.42435e-27)
(1.36116 -0.435975 0)
(1.36035 -0.436077 5.58462e-20)
(1.35958 -0.43617 1.22516e-19)
(1.3589 -0.436267 6.70932e-20)
(1.35838 -0.436393 -3.66894e-20)
(1.35795 -0.43655 0)
(1.35753 -0.436719 1.35657e-24)
(1.35698 -0.436856 -2.90802e-24)
(1.35652 -0.436967 5.18452e-20)
(1.35676 -0.437202 0)
(1.35821 -0.437742 3.05928e-20)
(1.36076 -0.438687 0)
(1.36296 -0.439767 -1.07887e-26)
(1.36378 -0.440635 3.87317e-20)
(1.36244 -0.440937 0)
(1.36139 -0.440837 -2.76889e-24)
(1.36576 -0.441721 5.93761e-24)
(1.37744 -0.444298 -2.61214e-20)
(1.39998 -0.449922 2.79082e-20)
(1.42822 -0.458683 0)
(1.44921 -0.467381 3.12681e-20)
(1.45863 -0.474408 -3.30349e-20)
(2.44359 -0.669019 0)
(2.44239 -0.672132 -6.52373e-19)
(2.44138 -0.675204 -2.9839e-25)
(2.44065 -0.678272 6.22736e-19)
(2.43995 -0.681265 6.08524e-19)
(2.43922 -0.684179 5.94665e-19)
(2.43856 -0.687032 3.40647e-26)
(2.43787 -0.689811 -5.67874e-19)
(2.43709 -0.692502 5.54874e-19)
(2.43629 -0.695123 5.42073e-19)
(2.43548 -0.697679 -5.29413e-19)
(2.43466 -0.700172 0)
(2.43382 -0.702605 0)
(2.43297 -0.704982 0)
(2.4321 -0.707303 0)
(2.43126 -0.709578 -2.17561e-25)
(2.43041 -0.711803 -2.27366e-19)
(2.42954 -0.713972 2.21045e-19)
(2.42868 -0.716097 1.99347e-25)
(2.42781 -0.718172 2.08123e-19)
(2.42692 -0.720199 -1.86688e-25)
(2.42601 -0.722172 3.71243e-25)
(2.4251 -0.724097 -1.87692e-19)
(2.42416 -0.725975 3.44232e-25)
(2.42323 -0.72781 1.73111e-19)
(2.42228 -0.729596 1.65453e-19)
(2.42129 -0.731329 0)
(2.42031 -0.733016 1.49247e-19)
(2.4193 -0.734652 1.27978e-25)
(2.41829 -0.736243 -6.58062e-20)
(2.41725 -0.737786 -1.2275e-25)
(2.4162 -0.73928 -5.60811e-20)
(2.41513 -0.740726 5.08044e-20)
(2.41405 -0.742122 -4.52038e-20)
(2.41296 -0.743471 0)
(2.41185 -0.744771 3.28658e-20)
(2.41072 -0.746023 -9.90398e-26)
(2.40959 -0.747228 -1.86946e-20)
(2.40846 -0.748391 3.28276e-26)
(2.40735 -0.749512 0)
(2.40621 -0.750586 3.50877e-21)
(2.40507 -0.751612 -8.51025e-21)
(2.40391 -0.752591 4.35857e-26)
(2.40276 -0.75353 -9.82703e-26)
(2.40163 -0.754435 -2.12328e-26)
(2.4005 -0.755293 3.29651e-20)
(2.39935 -0.756105 4.03569e-20)
(2.39819 -0.75687 4.83329e-20)
(2.39702 -0.757591 -5.69323e-20)
(2.39585 -0.758269 -3.3098e-20)
(2.39466 -0.758903 3.04286e-25)
(2.39345 -0.75949 4.34637e-20)
(2.39221 -0.760031 3.61563e-25)
(2.39097 -0.760531 4.38583e-25)
(2.38971 -0.760988 -4.59233e-25)
(2.38842 -0.761398 -5.45984e-25)
(2.38709 -0.761763 7.71868e-20)
(2.38577 -0.762091 4.27837e-20)
(2.38445 -0.762387 4.72993e-20)
(2.38315 -0.762655 -5.21685e-20)
(2.38185 -0.762898 8.56962e-25)
(2.38054 -0.763108 0)
(2.37928 -0.763299 -6.91829e-20)
(2.37818 -0.763499 0)
(2.37736 -0.763749 4.14273e-20)
(2.37673 -0.76406 -4.524e-20)
(2.3761 -0.764394 0)
(2.37527 -0.764678 -5.37549e-20)
(2.37463 -0.764925 -5.85031e-20)
(2.37514 -0.765372 -3.82607e-24)
(2.37766 -0.766321 4.27105e-24)
(2.38206 -0.767956 -4.50597e-24)
(2.38598 -0.769864 -4.0426e-20)
(2.38769 -0.771456 0)
(2.38579 -0.772127 4.71443e-20)
(2.38427 -0.772076 5.08955e-20)
(2.39153 -0.773557 -6.76062e-24)
(2.41094 -0.777832 7.1165e-24)
(2.44837 -0.78713 -3.14289e-20)
(2.49572 -0.801814 -3.33196e-20)
(2.53201 -0.816797 3.51995e-20)
(2.54939 -0.829234 3.71607e-20)
(3.58099 -0.980426 -7.54962e-19)
(3.57934 -0.985013 -7.16064e-25)
(3.57792 -0.989534 -7.20395e-19)
(3.5769 -0.99404 -7.03902e-19)
(3.5759 -0.99844 -7.96307e-25)
(3.5749 -1.00272 0)
(3.57397 -1.00692 6.56848e-19)
(3.57302 -1.01101 6.41877e-19)
(3.57195 -1.01497 -1.15301e-25)
(3.57083 -1.01883 0)
(3.5697 -1.02259 5.98392e-19)
(3.56855 -1.02626 0)
(3.56736 -1.02984 0)
(3.56616 -1.03334 0)
(3.56494 -1.03675 0)
(3.56374 -1.0401 0)
(3.56252 -1.04337 0)
(3.56129 -1.04656 -4.99646e-19)
(3.56006 -1.04968 -2.4258e-19)
(3.55882 -1.05274 0)
(3.55754 -1.05572 2.27694e-19)
(3.55624 -1.05862 2.20001e-19)
(3.55492 -1.06145 0)
(3.5536 -1.06421 3.76314e-25)
(3.55225 -1.06691 -3.91251e-19)
(3.55087 -1.06953 1.86967e-19)
(3.54945 -1.07208 -3.2611e-25)
(3.54802 -1.07455 1.68646e-19)
(3.54656 -1.07696 0)
(3.5451 -1.0793 7.4355e-20)
(3.5436 -1.08156 6.90029e-20)
(3.54208 -1.08376 0)
(3.54053 -1.08589 -5.73992e-20)
(3.53896 -1.08794 5.10699e-20)
(3.53738 -1.08992 -1.52865e-25)
(3.53577 -1.09184 -3.7128e-20)
(3.53416 -1.09368 1.29002e-25)
(3.53253 -1.09546 0)
(3.5309 -1.09717 1.21688e-20)
(3.52929 -1.09882 -1.01404e-26)
(3.52766 -1.1004 1.05089e-26)
(3.52601 -1.10192 9.61148e-21)
(3.52435 -1.10337 0)
(3.5227 -1.10476 2.23403e-20)
(3.52108 -1.10609 0)
(3.51946 -1.10736 -3.72221e-20)
(3.51782 -1.10856 5.20543e-26)
(3.51615 -1.1097 -5.45685e-20)
(3.51448 -1.11077 6.42727e-20)
(3.51279 -1.11177 5.99889e-25)
(3.51109 -1.11272 6.0679e-26)
(3.50937 -1.11359 6.2954e-26)
(3.50762 -1.1144 -8.16102e-25)
(3.50585 -1.11515 9.89855e-25)
(3.50405 -1.11584 -1.03636e-24)
(3.50222 -1.11646 0)
(3.50035 -1.11702 -1.32079e-24)
(3.49848 -1.11752 -4.82579e-20)
(3.49662 -1.11798 -5.3347e-20)
(3.49479 -1.1184 0)
(3.49298 -1.11878 0)
(3.49117 -1.11913 0)
(3.48942 -1.11944 7.79858e-20)
(3.48791 -1.11977 2.65685e-24)
(3.48679 -1.12016 -5.68903e-24)
(3.48598 -1.12066 1.01944e-19)
(3.48519 -1.12119 -3.44995e-24)
(3.48415 -1.12166 6.05477e-20)
(3.48337 -1.12208 1.15704e-25)
(3.4842 -1.12277 -8.74149e-24)
(3.48783 -1.12415 4.67719e-24)
(3.49413 -1.12651 0)
(3.49994 -1.12932 4.54737e-20)
(3.50277 -1.13174 -6.06822e-24)
(3.50067 -1.13293 -5.29947e-20)
(3.49889 -1.13304 -7.06427e-24)
(3.5089 -1.1351 7.43858e-24)
(3.53576 -1.141 -8.13102e-24)
(3.58751 -1.15379 7.05518e-20)
(3.6537 -1.17431 3.73884e-20)
(3.70612 -1.1959 -3.9461e-20)
(3.73298 -1.21435 0)
(4.79932 -1.31399 8.51571e-19)
(4.79729 -1.32019 -7.78981e-25)
(4.79551 -1.32628 8.12566e-19)
(4.79423 -1.33234 -7.71226e-25)
(4.79299 -1.33827 -1.55166e-18)
(4.79175 -1.34404 7.09397e-25)
(4.7906 -1.34969 -7.40863e-19)
(4.78942 -1.3552 0)
(4.7881 -1.36054 -2.80399e-25)
(4.78671 -1.36575 6.45729e-25)
(4.7853 -1.37082 -6.56927e-25)
(4.78384 -1.37576 -6.15135e-25)
(4.78233 -1.38058 2.64855e-26)
(4.7808 -1.38529 6.11388e-25)
(4.77925 -1.3899 0)
(4.77771 -1.3944 5.54613e-25)
(4.77614 -1.3988 -1.10539e-24)
(4.77456 -1.4031 5.63453e-19)
(4.77298 -1.40731 2.73552e-19)
(4.77136 -1.41142 0)
(4.7697 -1.41543 -1.83039e-25)
(4.768 -1.41933 -2.48074e-19)
(4.76629 -1.42314 2.3917e-19)
(4.76456 -1.42686 -4.52934e-25)
(4.76278 -1.43049 2.20568e-19)
(4.76097 -1.43401 -2.10799e-19)
(4.7591 -1.43744 -3.97575e-25)
(4.75721 -1.44077 -1.9013e-19)
(4.75529 -1.444 -3.57025e-25)
(4.75335 -1.44715 3.03789e-25)
(4.75137 -1.45019 -1.55571e-19)
(4.74935 -1.45315 7.14247e-20)
(4.7473 -1.456 -6.46996e-20)
(4.74521 -1.45876 -2.0186e-25)
(4.74312 -1.46143 2.0832e-25)
(4.74099 -1.464 4.18445e-20)
(4.73884 -1.46648 3.31463e-20)
(4.73669 -1.46887 -2.37976e-20)
(4.73454 -1.47118 -1.37122e-20)
(4.7324 -1.4734 4.35316e-26)
(4.73024 -1.47553 -1.1841e-26)
(4.72806 -1.47757 0)
(4.72587 -1.47952 1.77154e-20)
(4.72369 -1.4814 2.51659e-20)
(4.72154 -1.48319 2.81033e-25)
(4.71939 -1.4849 4.19227e-20)
(4.71721 -1.48652 -5.86231e-26)
(4.71501 -1.48806 4.38923e-25)
(4.71281 -1.4895 -7.23694e-20)
(4.7106 -1.49087 -6.09596e-25)
(4.70835 -1.49214 0)
(4.70609 -1.49333 8.7866e-25)
(4.70379 -1.49443 -9.18507e-25)
(4.70146 -1.49546 0)
(4.6991 -1.49639 -7.89619e-20)
(4.69671 -1.49724 8.17756e-26)
(4.69427 -1.49801 -1.36131e-24)
(4.69183 -1.49871 1.08552e-19)
(4.68941 -1.49935 0)
(4.68704 -1.49994 0)
(4.6847 -1.50048 0)
(4.68237 -1.50097 0)
(4.68013 -1.50143 -8.76215e-20)
(4.67819 -1.5019 -2.87249e-24)
(4.67677 -1.50245 -5.24284e-20)
(4.67579 -1.50315 3.0543e-26)
(4.67486 -1.5039 -6.2388e-20)
(4.67364 -1.50459 -6.79393e-20)
(4.67277 -1.50522 7.39064e-20)
(4.67391 -1.50617 0)
(4.67861 -1.50799 0)
(4.68678 -1.51107 0)
(4.69457 -1.51484 -5.09441e-20)
(4.69878 -1.51819 5.50053e-20)
(4.69688 -1.52006 1.71883e-25)
(4.69511 -1.52046 -7.72162e-24)
(4.70763 -1.52305 0)
(4.74131 -1.53042 -3.69105e-20)
(4.80616 -1.54634 -7.87827e-20)
(4.89012 -1.57239 0)
(4.95902 -1.60072 -4.39991e-20)
(4.99683 -1.62574 0)
(6.08464 -1.66589 0)
(6.08235 -1.67383 0)
(6.08031 -1.68161 -9.13314e-19)
(6.07884 -1.68935 8.66833e-25)
(6.07743 -1.6969 8.7199e-19)
(6.07602 -1.70426 0)
(6.07472 -1.71148 1.66531e-18)
(6.0734 -1.71851 0)
(6.0719 -1.72534 -1.58997e-18)
(6.07031 -1.73198 7.5563e-25)
(6.06867 -1.73846 0)
(6.06697 -1.74477 0)
(6.0652 -1.75093 -7.22596e-19)
(6.0634 -1.75694 -3.52398e-19)
(6.06157 -1.76282 0)
(6.05973 -1.76857 -6.23193e-25)
(6.05785 -1.77418 6.3607e-25)
(6.05595 -1.77967 -6.33089e-19)
(6.05404 -1.78503 -6.01413e-25)
(6.05207 -1.79027 -2.97999e-19)
(6.05005 -1.79538 -2.88459e-19)
(6.04798 -1.80036 -5.15784e-25)
(6.04589 -1.80521 -3.48784e-25)
(6.04375 -1.80995 5.08809e-25)
(6.04156 -1.81456 -2.47768e-19)
(6.03932 -1.81906 -2.36785e-19)
(6.037 -1.82342 0)
(6.03465 -1.82765 2.1355e-19)
(6.03225 -1.83177 0)
(6.02983 -1.83577 0)
(6.02735 -1.83964 1.74709e-19)
(6.02482 -1.8434 -8.02079e-20)
(6.02225 -1.84703 7.2651e-20)
(6.01964 -1.85054 4.53307e-25)
(6.017 -1.85393 -4.67785e-25)
(6.01433 -1.8572 3.15885e-25)
(6.01163 -1.86036 -3.72109e-20)
(6.00892 -1.8634 2.67135e-20)
(6.00621 -1.86633 3.07818e-20)
(6.00351 -1.86915 2.5651e-26)
(6.00078 -1.87186 -2.65795e-26)
(5.99805 -1.87445 0)
(5.9953 -1.87694 -1.98776e-20)
(5.99255 -1.87932 -2.82351e-20)
(5.98985 -1.88161 3.72689e-20)
(5.98713 -1.88378 2.23539e-25)
(5.9844 -1.88585 -5.75557e-20)
(5.98165 -1.8878 0)
(5.97889 -1.88965 8.11486e-20)
(5.9761 -1.89139 -1.36687e-24)
(5.97329 -1.89301 0)
(5.97045 -1.89454 0)
(5.96757 -1.89595 7.0102e-20)
(5.96467 -1.89725 -7.89411e-20)
(5.96173 -1.89846 8.84574e-20)
(5.95874 -1.89956 9.86731e-20)
(5.95571 -1.90055 -1.09674e-19)
(5.95267 -1.90146 -1.21528e-19)
(5.94967 -1.90229 -6.71406e-20)
(5.94672 -1.90305 -7.40054e-20)
(5.94383 -1.90376 0)
(5.94096 -1.90442 0)
(5.93822 -1.90503 9.79644e-20)
(5.93583 -1.90565 -1.0721e-19)
(5.93409 -1.90638 0)
(5.9329 -1.90728 -1.27833e-19)
(5.93183 -1.90827 6.96521e-20)
(5.93046 -1.9092 7.58142e-20)
(5.92952 -1.91005 0)
(5.93093 -1.91127 8.95323e-20)
(5.93659 -1.91351 -1.16862e-23)
(5.94649 -1.91729 5.25182e-20)
(5.95626 -1.92202 -5.67176e-20)
(5.96205 -1.92639 -6.11978e-20)
(5.96079 -1.9291 1.59217e-23)
(5.95936 -1.92993 0)
(5.97405 -1.93301 -7.64994e-20)
(6.01357 -1.9416 8.19266e-20)
(6.08966 -1.96014 4.36432e-20)
(6.18944 -1.99114 -2.26028e-23)
(6.27441 -2.0261 9.73244e-20)
(6.3244 -2.05809 -5.12892e-20)
(7.41913 -2.03126 -1.07055e-18)
(7.41677 -2.04105 0)
(7.41462 -2.05064 2.04278e-18)
(7.41307 -2.06013 -1.86851e-24)
(7.41158 -2.06941 9.75117e-19)
(7.4101 -2.07846 0)
(7.40876 -2.08733 -9.31066e-19)
(7.40741 -2.09598 -1.70155e-24)
(7.40584 -2.10438 1.77775e-18)
(7.40416 -2.11256 1.68968e-24)
(7.4024 -2.12053 0)
(7.40055 -2.12829 0)
(7.39862 -2.13587 1.61564e-18)
(7.39663 -2.14326 7.8789e-19)
(7.39458 -2.15049 -6.668e-26)
(7.39251 -2.15755 -6.69113e-26)
(7.3904 -2.16445 3.63961e-19)
(7.38823 -2.17119 7.07611e-19)
(7.38605 -2.17778 -3.43512e-19)
(7.3838 -2.18421 6.66093e-19)
(7.38146 -2.19048 0)
(7.37906 -2.19659 0)
(7.37661 -2.20254 -3.00242e-19)
(7.3741 -2.20835 -1.06521e-24)
(7.37153 -2.21401 2.76843e-19)
(7.36887 -2.21952 7.87123e-25)
(7.36612 -2.22486 0)
(7.36332 -2.23005 -2.38567e-19)
(7.36046 -2.23509 -7.77231e-26)
(7.35754 -2.23999 -1.05153e-19)
(7.35458 -2.24473 -9.75697e-20)
(7.35154 -2.24933 8.95804e-20)
(7.34843 -2.25377 0)
(7.34528 -2.25806 0)
(7.34209 -2.26221 6.26372e-20)
(7.33885 -2.26621 0)
(7.33559 -2.27007 0)
(7.3323 -2.27378 0)
(7.32901 -2.27736 -3.43575e-20)
(7.32572 -2.28081 8.04252e-26)
(7.32241 -2.28412 0)
(7.3191 -2.28729 -1.35593e-20)
(7.31577 -2.29033 -2.77686e-25)
(7.31244 -2.29325 0)
(7.30915 -2.29604 -4.15685e-20)
(7.30586 -2.2987 -1.04888e-19)
(7.30255 -2.30123 6.41783e-20)
(7.29922 -2.30362 7.68257e-20)
(7.29587 -2.30588 9.04545e-20)
(7.29251 -2.30801 5.25598e-20)
(7.28911 -2.31001 -3.69295e-24)
(7.28568 -2.31188 2.01721e-24)
(7.28221 -2.31361 -7.80801e-20)
(7.2787 -2.31522 8.79044e-20)
(7.27516 -2.3167 -3.10526e-24)
(7.27155 -2.31805 3.57862e-24)
(7.2679 -2.31928 1.22031e-19)
(7.26425 -2.32041 6.75809e-20)
(7.26064 -2.32143 7.46606e-20)
(7.2571 -2.32238 -1.93155e-25)
(7.25363 -2.32327 9.0458e-20)
(7.25021 -2.3241 -9.92698e-20)
(7.24693 -2.32486 -2.17537e-19)
(7.24407 -2.32564 1.18968e-19)
(7.24196 -2.32654 1.58697e-23)
(7.24052 -2.32764 7.08592e-20)
(7.23929 -2.32888 -7.71867e-20)
(7.23778 -2.33007 8.39691e-20)
(7.23676 -2.33116 9.12522e-20)
(7.23838 -2.33264 -1.98058e-19)
(7.24481 -2.33526 0)
(7.2562 -2.33967 1.43768e-23)
(7.26783 -2.34534 1.25165e-19)
(7.27533 -2.35077 0)
(7.27513 -2.35448 -1.79682e-23)
(7.27441 -2.35589 7.83346e-20)
(7.2909 -2.35939 8.41005e-20)
(7.33501 -2.3689 -4.49867e-20)
(7.41991 -2.3894 0)
(7.53265 -2.42453 0)
(7.63234 -2.4657 2.72707e-23)
(7.69513 -2.50483 5.60638e-20)
(8.78132 -2.4042 1.83102e-24)
(8.77912 -2.41596 0)
(8.77705 -2.42744 -1.13502e-18)
(8.77558 -2.43879 -2.15434e-24)
(8.77416 -2.44986 -1.83778e-24)
(8.77274 -2.46067 -1.05868e-18)
(8.77151 -2.47126 -2.01107e-24)
(8.77026 -2.48161 1.01071e-18)
(8.76878 -2.49166 -9.87436e-19)
(8.76714 -2.50145 0)
(8.76539 -2.51098 0)
(8.76353 -2.52026 0)
(8.76155 -2.52932 -8.9718e-19)
(8.75949 -2.53817 -4.37495e-19)
(8.75734 -2.5468 -4.26413e-19)
(8.75515 -2.55524 0)
(8.75288 -2.56348 -4.04129e-19)
(8.75055 -2.57153 -3.92827e-19)
(8.74818 -2.5794 3.81378e-19)
(8.7457 -2.58708 -7.39466e-19)
(8.74313 -2.59456 0)
(8.74046 -2.60185 0)
(8.73772 -2.60895 0)
(8.7349 -2.61587 0)
(8.73198 -2.62262 0)
(8.72895 -2.62918 1.3878e-24)
(8.7258 -2.63554 0)
(8.72258 -2.64172 2.647e-19)
(8.71928 -2.64771 9.07684e-25)
(8.71591 -2.65353 1.16652e-19)
(8.71246 -2.65918 1.08228e-19)
(8.70892 -2.66464 -9.9358e-20)
(8.7053 -2.66992 0)
(8.7016 -2.67502 5.61347e-25)
(8.69785 -2.67994 -6.9456e-20)
(8.69406 -2.68469 4.94539e-25)
(8.69022 -2.68927 4.60512e-20)
(8.68636 -2.69368 1.9533e-25)
(8.68248 -2.69792 1.9039e-20)
(8.6786 -2.70201 3.929e-21)
(8.67471 -2.70594 1.58996e-25)
(8.6708 -2.70971 1.50221e-20)
(8.66688 -2.71332 -2.45659e-20)
(8.66296 -2.71678 -4.62057e-25)
(8.65909 -2.72009 7.78759e-25)
(8.65523 -2.72326 5.8059e-20)
(8.65133 -2.72626 0)
(8.64741 -2.7291 -8.50178e-20)
(8.64348 -2.73179 -1.00074e-19)
(8.63954 -2.73433 4.32286e-25)
(8.63556 -2.7367 -6.68506e-20)
(8.63153 -2.73893 0)
(8.62747 -2.741 8.62977e-20)
(8.62336 -2.74292 -2.86085e-24)
(8.6192 -2.74469 0)
(8.61498 -2.7463 -1.21263e-19)
(8.61071 -2.74778 -2.69368e-19)
(8.60644 -2.74912 -7.45662e-20)
(8.60221 -2.75036 2.51426e-25)
(8.59806 -2.7515 -5.75068e-24)
(8.594 -2.75257 -1.99337e-19)
(8.59 -2.75356 1.09329e-19)
(8.58618 -2.75449 1.19719e-19)
(8.58282 -2.75542 0)
(8.5803 -2.75648 -7.14375e-20)
(8.57856 -2.75778 -9.67291e-24)
(8.57713 -2.75926 8.47556e-20)
(8.57547 -2.76071 -9.21133e-20)
(8.57437 -2.76205 -1.00051e-19)
(8.57611 -2.76378 2.16959e-19)
(8.58309 -2.76672 5.86762e-20)
(8.59561 -2.77167 -3.02894e-25)
(8.60886 -2.77822 1.68141e-23)
(8.61809 -2.78472 0)
(8.61933 -2.78954 0)
(8.61971 -2.79169 -1.70486e-19)
(8.63763 -2.79556 0)
(8.68491 -2.80567 -2.40312e-23)
(8.7758 -2.82738 2.51357e-23)
(8.89795 -2.86561 0)
(9.00997 -2.91225 -5.75363e-20)
(9.08529 -2.95835 2.94587e-23)
(10.1471 -2.77814 1.31315e-18)
(10.1453 -2.79194 -1.28228e-18)
(10.1436 -2.80539 -2.34549e-24)
(10.1424 -2.81863 4.66777e-24)
(10.1412 -2.83157 -2.39069e-18)
(10.14 -2.84419 1.16788e-18)
(10.1391 -2.85656 0)
(10.1381 -2.86865 -2.22953e-18)
(10.1369 -2.88041 -1.08899e-18)
(10.1354 -2.89185 -8.11507e-24)
(10.1339 -2.903 4.04362e-24)
(10.1322 -2.91386 3.78562e-24)
(10.1303 -2.92446 -3.85462e-24)
(10.1283 -2.9348 0)
(10.1262 -2.94489 4.70031e-19)
(10.124 -2.95475 0)
(10.1217 -2.96438 4.45394e-19)
(10.1193 -2.97378 -1.65623e-25)
(10.1169 -2.98296 -4.20246e-19)
(10.1143 -2.99192 4.0738e-19)
(10.1116 -3.00065 0)
(10.1087 -3.00915 0)
(10.1058 -3.01743 2.71333e-24)
(10.1027 -3.0255 -2.78004e-24)
(10.0995 -3.03336 0)
(10.0962 -3.04099 3.23298e-19)
(10.0927 -3.0484 2.43837e-24)
(10.0891 -3.05559 -2.45774e-24)
(10.0854 -3.06256 -2.74515e-19)
(10.0816 -3.06933 0)
(10.0778 -3.07589 -3.07859e-24)
(10.0738 -3.08223 1.09349e-19)
(10.0696 -3.08836 0)
(10.0654 -3.09428 8.80629e-20)
(10.0612 -3.09999 1.05393e-24)
(10.0568 -3.1055 -1.08796e-24)
(10.0524 -3.11081 -5.06487e-20)
(10.048 -3.11592 4.29573e-25)
(10.0436 -3.12085 -4.44329e-25)
(10.0391 -3.12559 -4.31909e-21)
(10.0346 -3.13014 -7.22952e-26)
(10.0302 -3.13452 -6.51695e-25)
(10.0257 -3.1387 2.69907e-20)
(10.0212 -3.14271 3.83183e-20)
(10.0167 -3.14656 1.71048e-24)
(10.0123 -3.15024 -3.89783e-24)
(10.0079 -3.15373 2.20498e-24)
(10.0034 -3.15703 0)
(9.9989 -3.16016 -1.09787e-19)
(9.9944 -3.16311 -6.37584e-20)
(9.98985 -3.16588 7.32909e-20)
(9.98526 -3.16848 0)
(9.98063 -3.17089 -9.45474e-20)
(9.97595 -3.17314 1.29922e-23)
(9.9712 -3.1752 -1.4542e-23)
(9.9664 -3.1771 1.32699e-19)
(9.96153 -3.17883 1.47306e-19)
(9.95666 -3.1804 8.15013e-20)
(9.95183 -3.18185 -1.12607e-23)
(9.94709 -3.18319 1.98059e-19)
(9.94245 -3.18444 1.08752e-19)
(9.93789 -3.18561 2.91223e-23)
(9.93352 -3.18671 -1.56133e-23)
(9.92966 -3.18779 1.77398e-23)
(9.9267 -3.18901 7.77197e-20)
(9.92462 -3.1905 0)
(9.92295 -3.19221 0)
(9.92113 -3.19392 1.00013e-19)
(9.91992 -3.19551 -2.6085e-23)
(9.92169 -3.19747 2.93183e-23)
(9.92896 -3.20066 -6.35111e-20)
(9.9422 -3.20605 -1.37042e-19)
(9.95672 -3.21337 -7.38185e-20)
(9.96758 -3.22089 7.93343e-20)
(9.9705 -3.22691 4.11804e-23)
(9.97235 -3.22992 9.16232e-20)
(9.9914 -3.23415 0)
(10.0405 -3.24454 -5.23318e-20)
(10.1344 -3.26671 -6.4221e-25)
(10.262 -3.30694 -3.9533e-25)
(10.3831 -3.35801 5.96233e-23)
(10.4696 -3.41053 0)
(11.4915 -3.14623 -5.39357e-24)
(11.4905 -3.16213 2.81089e-18)
(11.4893 -3.17758 5.14074e-24)
(11.4886 -3.19277 -1.02293e-23)
(11.4879 -3.20758 2.61925e-18)
(11.4871 -3.22204 0)
(11.4866 -3.23622 -1.2498e-18)
(11.4861 -3.25009 1.22089e-18)
(11.4853 -3.26358 1.19251e-18)
(11.4843 -3.27672 -1.16458e-18)
(11.4831 -3.28951 0)
(11.4817 -3.30198 -4.14391e-24)
(11.4802 -3.31415 1.78366e-25)
(11.4784 -3.32601 5.27811e-19)
(11.4765 -3.33759 -7.84792e-24)
(11.4745 -3.3489 7.64187e-24)
(11.4723 -3.35994 -9.74531e-19)
(11.47 -3.37071 7.22506e-24)
(11.4676 -3.38124 9.1929e-19)
(11.4651 -3.3915 -3.30666e-24)
(11.4623 -3.4015 1.85745e-25)
(11.4594 -3.41123 4.16411e-19)
(11.4564 -3.4207 -4.0132e-19)
(11.4532 -3.42993 -3.85816e-19)
(11.4498 -3.43892 0)
(11.4463 -3.44765 -2.59622e-24)
(11.4426 -3.45611 2.00452e-25)
(11.4387 -3.46432 -3.18433e-19)
(11.4347 -3.47228 2.99905e-19)
(11.4306 -3.48 0)
(11.4263 -3.48748 -2.15939e-24)
(11.4219 -3.49471 -1.1941e-19)
(11.4173 -3.50169 1.0811e-19)
(11.4127 -3.50843 -9.61386e-20)
(11.4079 -3.51494 -8.33987e-20)
(11.4031 -3.52121 -9.38761e-25)
(11.3982 -3.52725 2.57394e-25)
(11.3932 -3.53307 7.3597e-25)
(11.3882 -3.53867 -2.06412e-25)
(11.3832 -3.54407 2.136e-25)
(11.3783 -3.54925 -3.81107e-25)
(11.3732 -3.55423 3.94905e-25)
(11.3682 -3.55901 0)
(11.3632 -3.56357 -4.1744e-20)
(11.3582 -3.56797 0)
(11.3533 -3.57216 6.94074e-20)
(11.3484 -3.57615 0)
(11.3434 -3.57993 -3.3033e-24)
(11.3384 -3.58351 2.38825e-19)
(11.3334 -3.58689 0)
(11.3284 -3.59006 -5.09067e-24)
(11.3233 -3.59304 5.31019e-24)
(11.3182 -3.59582 1.0265e-19)
(11.313 -3.5984 1.15443e-19)
(11.3077 -3.60078 8.14531e-24)
(11.3024 -3.60296 -1.43843e-19)
(11.297 -3.60496 -1.94936e-23)
(11.2916 -3.60678 1.04928e-23)
(11.2862 -3.60846 1.2185e-23)
(11.2809 -3.61 -1.07087e-19)
(11.2757 -3.61146 -1.46724e-23)
(11.2707 -3.61281 1.28757e-19)
(11.2658 -3.61408 -1.68421e-23)
(11.2614 -3.61533 0)
(11.258 -3.6167 -8.37212e-20)
(11.2556 -3.61837 -9.10376e-20)
(11.2537 -3.62029 9.89409e-20)
(11.2517 -3.62227 -5.16913e-23)
(11.2504 -3.6241 2.79603e-23)
(11.252 -3.62626 -2.51543e-19)
(11.2594 -3.62966 -6.78916e-20)
(11.2729 -3.63536 7.31381e-20)
(11.2883 -3.64332 7.8676e-20)
(11.3005 -3.65179 -1.68971e-19)
(11.3052 -3.659 4.4803e-23)
(11.3088 -3.66297 -4.68973e-23)
(11.3288 -3.66757 0)
(11.3784 -3.67798 5.51896e-20)
(11.4727 -3.69997 5.82803e-20)
(11.6019 -3.74113 -6.11983e-20)
(11.7281 -3.79543 6.2871e-23)
(11.8233 -3.85345 -1.3156e-22)
(11.871 -3.90707 -7.06963e-20)
(12.7909 -3.50199 -1.56933e-18)
(12.7909 -3.52001 -1.53185e-18)
(12.7907 -3.53749 1.49562e-18)
(12.7907 -3.55462 0)
(12.7906 -3.57132 -1.42662e-18)
(12.7905 -3.58762 1.39343e-18)
(12.7906 -3.60361 1.36099e-18)
(12.7908 -3.61925 -4.97227e-24)
(12.7906 -3.63449 5.05052e-24)
(12.7902 -3.64933 3.06577e-24)
(12.7896 -3.66378 4.81743e-24)
(12.7887 -3.67787 1.20739e-18)
(12.7877 -3.69161 -4.58966e-24)
(12.7864 -3.70501 -1.14818e-18)
(12.7849 -3.71809 -8.53488e-24)
(12.7832 -3.73086 8.30952e-24)
(12.7814 -3.74333 5.29745e-19)
(12.7793 -3.75548 -5.14751e-19)
(12.7771 -3.76735 -4.99586e-19)
(12.7748 -3.77892 -4.84155e-19)
(12.7722 -3.79019 0)
(12.7693 -3.80116 -4.52387e-19)
(12.7663 -3.81184 4.35929e-19)
(12.7632 -3.82223 8.55538e-24)
(12.7598 -3.83235 0)
(12.7561 -3.84217 0)
(12.7523 -3.85169 0)
(12.7482 -3.86093 -2.5254e-24)
(12.744 -3.86987 2.2511e-25)
(12.7396 -3.87853 2.43588e-24)
(12.7351 -3.88693 -1.41151e-19)
(12.7303 -3.89504 2.09482e-24)
(12.7254 -3.90288 -1.17248e-19)
(12.7204 -3.91043 0)
(12.7152 -3.91772 1.80816e-19)
(12.7099 -3.92475 1.01741e-24)
(12.7046 -3.93152 -1.05053e-24)
(12.6991 -3.93804 0)
(12.6937 -3.94432 -2.47175e-20)
(12.6883 -3.95036 -2.31221e-25)
(12.6828 -3.95618 0)
(12.6773 -3.96176 0)
(12.6719 -3.96712 -1.15309e-24)
(12.6664 -3.97225 -4.51469e-20)
(12.661 -3.97719 0)
(12.6557 -3.98191 -7.5007e-20)
(12.6503 -3.9864 -4.18892e-25)
(12.6449 -3.99067 -1.09608e-19)
(12.6395 -3.99471 -1.28876e-19)
(12.6341 -3.99853 7.4787e-20)
(12.6287 -4.00213 -5.004e-24)
(12.6232 -4.00551 0)
(12.6177 -4.00867 -1.1056e-19)
(12.6121 -4.0116 -1.24248e-19)
(12.6064 -4.01432 0)
(12.6007 -4.01681 0)
(12.5949 -4.0191 0)
(12.589 -4.02119 9.47402e-20)
(12.5832 -4.02311 -1.04396e-19)
(12.5775 -4.02489 0)
(12.5719 -4.02655 0)
(12.5663 -4.02811 -2.75292e-19)
(12.561 -4.02957 -1.50347e-19)
(12.5563 -4.03099 -4.00352e-23)
(12.5525 -4.03252 8.92278e-20)
(12.5496 -4.03436 1.93858e-19)
(12.5474 -4.03649 -1.05152e-19)
(12.5453 -4.03872 -2.27851e-19)
(12.5438 -4.0408 6.01975e-23)
(12.5454 -4.04315 2.66216e-19)
(12.5525 -4.04669 7.16936e-20)
(12.566 -4.0526 7.71731e-20)
(12.5818 -4.06106 -8.28238e-20)
(12.595 -4.07035 1.77517e-19)
(12.6014 -4.07871 -4.69909e-23)
(12.6068 -4.08367 4.90796e-23)
(12.6275 -4.08865 0)
(12.6767 -4.09893 5.65495e-23)
(12.7693 -4.12025 -6.06664e-20)
(12.8966 -4.1614 -2.23756e-24)
(13.024 -4.21772 6.62882e-20)
(13.1247 -4.28006 -6.93346e-20)
(13.1813 -4.33983 -9.2207e-23)
(14.0247 -3.83981 2.42655e-23)
(14.0262 -3.85995 1.66373e-18)
(14.027 -3.87943 -1.10118e-23)
(14.028 -3.89849 0)
(14.0288 -3.91707 1.54833e-18)
(14.0296 -3.93519 -3.024e-18)
(14.0306 -3.95296 -1.4765e-18)
(14.0316 -3.97037 1.12149e-23)
(14.0323 -3.98733 1.4077e-18)
(14.0327 -4.00385 1.37421e-18)
(14.0329 -4.01995 0)
(14.0328 -4.03565 -1.30843e-18)
(14.0324 -4.05097 0)
(14.0318 -4.0659 1.24376e-18)
(14.0309 -4.08048 9.03306e-24)
(14.0298 -4.0947 -9.2086e-24)
(14.0285 -4.10858 5.73502e-19)
(14.0269 -4.12211 5.57179e-19)
(14.0251 -4.13533 -4.29237e-25)
(14.0231 -4.14821 5.23849e-19)
(14.0208 -4.16075 5.06745e-19)
(14.0183 -4.17295 7.68531e-24)
(14.0155 -4.18482 0)
(14.0125 -4.19638 9.06092e-19)
(14.0092 -4.20761 4.34122e-19)
(14.0056 -4.21852 4.14603e-19)
(14.0018 -4.2291 5.78084e-24)
(13.9977 -4.23934 -3.73397e-19)
(13.9934 -4.24926 0)
(13.9889 -4.25886 1.64348e-19)
(13.9841 -4.26816 4.90079e-24)
(13.9792 -4.27715 0)
(13.974 -4.28582 0)
(13.9687 -4.29418 3.15495e-24)
(13.9632 -4.30224 -9.7518e-20)
(13.9576 -4.31001 -8.15818e-20)
(13.9518 -4.31749 6.45462e-20)
(13.9461 -4.3247 0)
(13.9403 -4.33164 2.66309e-20)
(13.9344 -4.33833 0)
(13.9286 -4.34476 0)
(13.9227 -4.35095 2.09657e-20)
(13.9169 -4.35689 -3.4239e-20)
(13.9111 -4.36258 4.85511e-20)
(13.9054 -4.36806 0)
(13.8997 -4.37332 0)
(13.8941 -4.37833 -9.84537e-20)
(13.8884 -4.38309 1.17642e-19)
(13.8828 -4.38761 8.93126e-24)
(13.8771 -4.39189 -8.01774e-20)
(13.8714 -4.39593 -1.17611e-23)
(13.8657 -4.39973 -1.04676e-19)
(13.8599 -4.40329 -2.88988e-23)
(13.8541 -4.40661 -1.14911e-24)
(13.8481 -4.40969 -1.18677e-24)
(13.8421 -4.41252 1.95424e-23)
(13.836 -4.41512 -1.82776e-19)
(13.8298 -4.4175 -1.00907e-19)
(13.8237 -4.41969 1.11053e-19)
(13.8177 -4.42172 -1.21954e-19)
(13.8117 -4.42362 1.33571e-19)
(13.8059 -4.42541 -2.12366e-24)
(13.8003 -4.42708 1.59194e-19)
(13.7952 -4.42868 1.73417e-19)
(13.791 -4.43039 -4.68583e-23)
(13.7878 -4.4324 -4.41565e-25)
(13.7854 -4.43473 5.31809e-23)
(13.7831 -4.4372 1.1979e-19)
(13.7815 -4.43951 -1.26324e-22)
(13.7829 -4.44204 -1.39263e-19)
(13.7896 -4.44569 -7.50386e-20)
(13.8027 -4.45171 8.28462e-25)
(13.8184 -4.46053 8.51851e-23)
(13.8323 -4.47047 -8.60484e-23)
(13.8401 -4.47987 0)
(13.8471 -4.48579 -1.05098e-19)
(13.8685 -4.49116 0)
(13.9165 -4.50123 1.16191e-22)
(14.0056 -4.52158 -2.41811e-22)
(14.1283 -4.56202 6.47278e-20)
(14.2534 -4.61925 1.43118e-22)
(14.3561 -4.68462 7.05044e-20)
(14.4188 -4.74935 1.17529e-22)
(15.1767 -4.15523 1.85053e-18)
(15.1799 -4.17746 -1.80512e-18)
(15.1821 -4.19892 -1.76141e-18)
(15.1844 -4.21987 0)