/*--------------------------------*- C++ -*----------------------------------*\
| =========                 |                                                 |
| \\      /  F ield         | OpenFOAM: The Open Source CFD Toolbox           |
|  \\    /   O peration     | Version:  2412                                  |
|   \\  /    A nd           | Website:  www.openfoam.com                      |
|    \\/     M anipulation  |                                                 |
\*---------------------------------------------------------------------------*/
FoamFile
{
    version     2.0;
    format      ascii;
    arch        "LSB;label=32;scalar=64";
    class       volScalarField;
    location    "380";
    object      nuTilda;
}
// * * * * * * * * * * * * * * * * * * * * * * * * * * * * * * * * * * * * * //

dimensions      [0 2 -1 0 0 0 0];

internalField   nonuniform List<scalar> 
8637
(
1.55587e-06
1.55815e-06
1.56052e-06
1.56307e-06
1.5657e-06
1.56843e-06
1.57123e-06
1.57415e-06
1.57713e-06
1.58021e-06
1.58341e-06
1.58673e-06
1.59012e-06
1.59355e-06
1.5971e-06
1.60075e-06
1.60447e-06
1.60825e-06
1.6121e-06
1.61602e-06
1.62001e-06
1.62404e-06
1.62809e-06
1.63217e-06
1.6363e-06
1.64044e-06
1.64458e-06
1.6487e-06
1.65279e-06
1.65685e-06
1.66086e-06
1.6648e-06
1.66869e-06
1.67246e-06
1.67612e-06
1.67964e-06
1.68301e-06
1.68623e-06
1.68926e-06
1.69208e-06
1.69467e-06
1.697e-06
1.69909e-06
1.70096e-06
1.70255e-06
1.70377e-06
1.70465e-06
1.70529e-06
1.70566e-06
1.70566e-06
1.70526e-06
1.7045e-06
1.70354e-06
1.70232e-06
1.70064e-06
1.69857e-06
1.69626e-06
1.69377e-06
1.6909e-06
1.68762e-06
1.68409e-06
1.6804e-06
1.67633e-06
1.67186e-06
1.66713e-06
1.66225e-06
1.65693e-06
1.65121e-06
1.64527e-06
1.63901e-06
1.63225e-06
1.6251e-06
1.61761e-06
1.60954e-06
1.60088e-06
1.59169e-06
1.58168e-06
1.57068e-06
1.55863e-06
1.54509e-06
1.52971e-06
1.51179e-06
1.4904e-06
1.46427e-06
1.43117e-06
1.38801e-06
1.32959e-06
1.24766e-06
4.85488e-06
4.86279e-06
4.87097e-06
4.87978e-06
4.88873e-06
4.89801e-06
4.90757e-06
4.91745e-06
4.92756e-06
4.938e-06
4.94879e-06
4.95988e-06
4.9712e-06
4.98271e-06
4.99453e-06
5.00661e-06
5.0189e-06
5.0314e-06
5.04406e-06
5.0569e-06
5.0699e-06
5.08301e-06
5.09619e-06
5.1094e-06
5.12266e-06
5.13594e-06
5.14918e-06
5.1623e-06
5.1753e-06
5.18814e-06
5.20078e-06
5.21315e-06
5.22526e-06
5.23692e-06
5.24821e-06
5.25901e-06
5.26931e-06
5.27907e-06
5.28813e-06
5.2965e-06
5.30405e-06
5.31076e-06
5.31672e-06
5.32192e-06
5.32615e-06
5.32917e-06
5.33111e-06
5.33223e-06
5.33253e-06
5.33164e-06
5.32939e-06
5.32604e-06
5.32201e-06
5.31716e-06
5.3109e-06
5.30334e-06
5.29502e-06
5.28617e-06
5.27609e-06
5.26466e-06
5.25246e-06
5.23975e-06
5.22586e-06
5.21067e-06
5.19464e-06
5.17809e-06
5.16016e-06
5.14097e-06
5.12102e-06
5.10006e-06
5.07753e-06
5.05369e-06
5.02876e-06
5.00198e-06
4.97329e-06
4.94285e-06
4.90969e-06
4.87335e-06
4.83363e-06
4.78906e-06
4.7385e-06
4.67975e-06
4.6098e-06
4.52459e-06
4.41708e-06
4.2775e-06
4.08968e-06
3.82835e-06
8.5418e-06
8.55792e-06
8.57449e-06
8.59241e-06
8.61035e-06
8.62888e-06
8.64793e-06
8.66752e-06
8.68759e-06
8.70821e-06
8.72938e-06
8.75104e-06
8.77309e-06
8.79554e-06
8.81845e-06
8.84172e-06
8.86531e-06
8.88921e-06
8.91336e-06
8.9377e-06
8.96222e-06
8.98683e-06
9.01147e-06
9.03607e-06
9.06063e-06
9.08507e-06
9.10925e-06
9.13314e-06
9.1567e-06
9.1798e-06
9.20238e-06
9.22436e-06
9.24563e-06
9.26604e-06
9.28558e-06
9.30404e-06
9.32149e-06
9.33781e-06
9.35283e-06
9.36637e-06
9.37825e-06
9.38853e-06
9.39735e-06
9.4047e-06
9.41017e-06
9.41335e-06
9.41448e-06
9.41407e-06
9.41217e-06
9.40807e-06
9.40139e-06
9.39273e-06
9.38276e-06
9.37135e-06
9.35736e-06
9.34099e-06
9.32328e-06
9.30453e-06
9.28355e-06
9.26018e-06
9.23536e-06
9.20959e-06
9.18166e-06
9.15135e-06
9.11953e-06
9.08659e-06
9.05123e-06
9.01355e-06
8.97439e-06
8.93332e-06
8.88935e-06
8.84298e-06
8.79444e-06
8.74246e-06
8.68697e-06
8.62803e-06
8.56402e-06
8.4941e-06
8.41772e-06
8.33222e-06
8.23547e-06
8.12347e-06
7.99073e-06
7.8298e-06
7.62825e-06
7.36868e-06
7.02339e-06
6.54986e-06
1.26417e-05
1.267e-05
1.26991e-05
1.27308e-05
1.27619e-05
1.27939e-05
1.28267e-05
1.28602e-05
1.28945e-05
1.29296e-05
1.29655e-05
1.3002e-05
1.3039e-05
1.30765e-05
1.31146e-05
1.31532e-05
1.31921e-05
1.32312e-05
1.32706e-05
1.33101e-05
1.33496e-05
1.3389e-05
1.34282e-05
1.34672e-05
1.35059e-05
1.3544e-05
1.35815e-05
1.36183e-05
1.36544e-05
1.36893e-05
1.37232e-05
1.3756e-05
1.37873e-05
1.3817e-05
1.3845e-05
1.3871e-05
1.38952e-05
1.39175e-05
1.39376e-05
1.3955e-05
1.39695e-05
1.39815e-05
1.3991e-05
1.3998e-05
1.4002e-05
1.40022e-05
1.39992e-05
1.39937e-05
1.39858e-05
1.39745e-05
1.39591e-05
1.39406e-05
1.39201e-05
1.38974e-05
1.38706e-05
1.38402e-05
1.38077e-05
1.37735e-05
1.3736e-05
1.36947e-05
1.36513e-05
1.36062e-05
1.35579e-05
1.35058e-05
1.34514e-05
1.33951e-05
1.33351e-05
1.32714e-05
1.32053e-05
1.31361e-05
1.30624e-05
1.29848e-05
1.29036e-05
1.28169e-05
1.27247e-05
1.26268e-05
1.25208e-05
1.24053e-05
1.22793e-05
1.21389e-05
1.19805e-05
1.17979e-05
1.15828e-05
1.13239e-05
1.10026e-05
1.05934e-05
1.00571e-05
9.33485e-06
1.71858e-05
1.72321e-05
1.72796e-05
1.73321e-05
1.73822e-05
1.74336e-05
1.7486e-05
1.75396e-05
1.75941e-05
1.76495e-05
1.77059e-05
1.77631e-05
1.78208e-05
1.7879e-05
1.79378e-05
1.7997e-05
1.80563e-05
1.81157e-05
1.8175e-05
1.82342e-05
1.82931e-05
1.83514e-05
1.8409e-05
1.8466e-05
1.85219e-05
1.85767e-05
1.86301e-05
1.8682e-05
1.87323e-05
1.87807e-05
1.8827e-05
1.88712e-05
1.89129e-05
1.89518e-05
1.89877e-05
1.90205e-05
1.90502e-05
1.90767e-05
1.90997e-05
1.91183e-05
1.91326e-05
1.91428e-05
1.91492e-05
1.9152e-05
1.915e-05
1.91424e-05
1.91299e-05
1.91138e-05
1.90943e-05
1.90698e-05
1.90393e-05
1.90043e-05
1.89666e-05
1.89256e-05
1.88789e-05
1.88269e-05
1.87721e-05
1.87149e-05
1.86527e-05
1.85855e-05
1.85149e-05
1.84421e-05
1.83644e-05
1.82816e-05
1.81953e-05
1.81061e-05
1.80115e-05
1.79117e-05
1.78081e-05
1.76999e-05
1.75852e-05
1.74647e-05
1.73387e-05
1.72048e-05
1.70625e-05
1.69116e-05
1.67489e-05
1.65723e-05
1.638e-05
1.61665e-05
1.59266e-05
1.56518e-05
1.53303e-05
1.49466e-05
1.44758e-05
1.38839e-05
1.3121e-05
1.21136e-05
2.22089e-05
2.2281e-05
2.23549e-05
2.24377e-05
2.25147e-05
2.25932e-05
2.26732e-05
2.27545e-05
2.28369e-05
2.29204e-05
2.30048e-05
2.30899e-05
2.31755e-05
2.32615e-05
2.33478e-05
2.3434e-05
2.352e-05
2.36057e-05
2.36907e-05
2.37749e-05
2.3858e-05
2.39398e-05
2.40201e-05
2.40987e-05
2.41753e-05
2.42496e-05
2.43214e-05
2.43904e-05
2.44563e-05
2.45191e-05
2.45784e-05
2.4634e-05
2.46855e-05
2.47325e-05
2.47746e-05
2.48118e-05
2.48443e-05
2.48719e-05
2.48941e-05
2.49097e-05
2.49188e-05
2.49218e-05
2.49194e-05
2.49118e-05
2.48973e-05
2.48747e-05
2.48452e-05
2.48109e-05
2.47718e-05
2.47257e-05
2.46713e-05
2.46108e-05
2.45467e-05
2.44781e-05
2.44017e-05
2.43184e-05
2.42312e-05
2.41406e-05
2.40434e-05
2.39394e-05
2.38309e-05
2.3719e-05
2.36007e-05
2.34754e-05
2.33452e-05
2.32107e-05
2.3069e-05
2.292e-05
2.27656e-05
2.26045e-05
2.24345e-05
2.22565e-05
2.20704e-05
2.18734e-05
2.16646e-05
2.14435e-05
2.1206e-05
2.09492e-05
2.06703e-05
2.03622e-05
2.00177e-05
1.96256e-05
1.91705e-05
1.86327e-05
1.79803e-05
1.71716e-05
1.61468e-05
1.48199e-05
2.77428e-05
2.78504e-05
2.79607e-05
2.80865e-05
2.81999e-05
2.83153e-05
2.84323e-05
2.85508e-05
2.86704e-05
2.87909e-05
2.89123e-05
2.90341e-05
2.9156e-05
2.92778e-05
2.93993e-05
2.95201e-05
2.96399e-05
2.97585e-05
2.98754e-05
2.99903e-05
3.0103e-05
3.0213e-05
3.03202e-05
3.04241e-05
3.05245e-05
3.06209e-05
3.07129e-05
3.08003e-05
3.08827e-05
3.09598e-05
3.10315e-05
3.10973e-05
3.11568e-05
3.12093e-05
3.12543e-05
3.1292e-05
3.13226e-05
3.13462e-05
3.13619e-05
3.1368e-05
3.13647e-05
3.13528e-05
3.13335e-05
3.13071e-05
3.12709e-05
3.12235e-05
3.11671e-05
3.1104e-05
3.10346e-05
3.0956e-05
3.08663e-05
3.07687e-05
3.06664e-05
3.05582e-05
3.044e-05
3.03128e-05
3.01805e-05
3.00437e-05
2.98985e-05
2.97444e-05
2.95845e-05
2.94199e-05
2.92469e-05
2.90649e-05
2.88762e-05
2.86816e-05
2.84775e-05
2.82639e-05
2.80426e-05
2.78123e-05
2.75703e-05
2.73173e-05
2.70533e-05
2.67747e-05
2.64803e-05
2.61691e-05
2.58361e-05
2.54775e-05
2.50893e-05
2.46627e-05
2.4188e-05
2.36516e-05
2.30341e-05
2.23115e-05
2.1445e-05
2.03857e-05
1.90653e-05
1.73882e-05
3.38057e-05
3.39602e-05
3.4118e-05
3.43023e-05
3.44631e-05
3.4626e-05
3.47906e-05
3.49564e-05
3.51233e-05
3.52907e-05
3.54585e-05
3.56262e-05
3.57932e-05
3.59593e-05
3.61241e-05
3.62871e-05
3.64478e-05
3.66059e-05
3.67607e-05
3.6912e-05
3.70591e-05
3.72018e-05
3.73395e-05
3.74719e-05
3.75985e-05
3.77187e-05
3.78321e-05
3.7938e-05
3.80364e-05
3.81268e-05
3.82088e-05
3.82822e-05
3.83462e-05
3.83999e-05
3.84427e-05
3.84749e-05
3.84971e-05
3.85094e-05
3.85106e-05
3.84985e-05
3.84732e-05
3.84363e-05
3.83896e-05
3.83331e-05
3.82637e-05
3.81793e-05
3.80831e-05
3.79783e-05
3.78656e-05
3.77409e-05
3.76021e-05
3.74533e-05
3.72986e-05
3.71366e-05
3.6962e-05
3.67763e-05
3.65841e-05
3.63863e-05
3.61781e-05
3.59588e-05
3.5732e-05
3.54991e-05
3.52558e-05
3.50011e-05
3.47377e-05
3.44664e-05
3.41831e-05
3.38877e-05
3.35819e-05
3.32644e-05
3.29322e-05
3.25853e-05
3.22239e-05
3.18438e-05
3.14433e-05
3.10206e-05
3.05703e-05
3.0087e-05
2.95655e-05
2.89953e-05
2.8364e-05
2.76554e-05
2.68458e-05
2.59075e-05
2.47945e-05
2.3452e-05
2.18046e-05
1.97506e-05
4.03913e-05
4.06038e-05
4.08204e-05
4.10807e-05
4.12992e-05
4.15198e-05
4.17418e-05
4.19647e-05
4.2188e-05
4.24113e-05
4.26341e-05
4.28557e-05
4.30755e-05
4.3293e-05
4.35078e-05
4.37192e-05
4.39265e-05
4.41291e-05
4.43266e-05
4.45181e-05
4.47031e-05
4.48811e-05
4.50517e-05
4.5214e-05
4.53676e-05
4.55117e-05
4.56457e-05
4.57689e-05
4.58811e-05
4.59818e-05
4.60706e-05
4.61471e-05
4.62105e-05
4.62592e-05
4.62928e-05
4.63119e-05
4.63172e-05
4.63092e-05
4.62863e-05
4.62453e-05
4.61867e-05
4.61128e-05
4.6026e-05
4.59268e-05
4.58109e-05
4.56757e-05
4.55254e-05
4.53646e-05
4.5194e-05
4.50086e-05
4.48055e-05
4.45904e-05
4.43682e-05
4.41372e-05
4.38911e-05
4.36314e-05
4.33639e-05
4.30897e-05
4.2803e-05
4.2503e-05
4.21937e-05
4.18767e-05
4.15472e-05
4.12038e-05
4.08492e-05
4.04846e-05
4.01054e-05
3.9711e-05
3.93032e-05
3.88806e-05
3.84397e-05
3.79802e-05
3.7502e-05
3.70007e-05
3.64733e-05
3.59179e-05
3.53279e-05
3.46968e-05
3.40179e-05
3.32788e-05
3.2464e-05
3.1555e-05
3.05238e-05
2.93391e-05
2.79476e-05
2.62909e-05
2.42883e-05
2.18374e-05
4.7465e-05
4.77452e-05
4.803e-05
4.83834e-05
4.86679e-05
4.89541e-05
4.9241e-05
4.95279e-05
4.98142e-05
5.00992e-05
5.03823e-05
5.06627e-05
5.09397e-05
5.12125e-05
5.14805e-05
5.1743e-05
5.19991e-05
5.2248e-05
5.2489e-05
5.27213e-05
5.29442e-05
5.3157e-05
5.33592e-05
5.35498e-05
5.3728e-05
5.38932e-05
5.40443e-05
5.41807e-05
5.43019e-05
5.44077e-05
5.44973e-05
5.45705e-05
5.46262e-05
5.46621e-05
5.46781e-05
5.46749e-05
5.46538e-05
5.46154e-05
5.45577e-05
5.44766e-05
5.43729e-05
5.42497e-05
5.41106e-05
5.39559e-05
5.37805e-05
5.35811e-05
5.33632e-05
5.31326e-05
5.28904e-05
5.26303e-05
5.23493e-05
5.20539e-05
5.17501e-05
5.14365e-05
5.11051e-05
5.07577e-05
5.04011e-05
5.00366e-05
4.96578e-05
4.92632e-05
4.88574e-05
4.84423e-05
4.80124e-05
4.75659e-05
4.71055e-05
4.66328e-05
4.61425e-05
4.56336e-05
4.51077e-05
4.45637e-05
4.39972e-05
4.34075e-05
4.27943e-05
4.21527e-05
4.14788e-05
4.077e-05
4.0019e-05
3.92174e-05
3.8357e-05
3.74238e-05
3.63987e-05
3.5261e-05
3.39786e-05
3.25171e-05
3.08161e-05
2.88173e-05
2.64364e-05
2.3578e-05
5.61494e-05
5.65051e-05
5.68613e-05
5.72169e-05
5.75709e-05
5.79227e-05
5.82713e-05
5.86161e-05
5.8956e-05
5.92902e-05
5.96177e-05
5.99379e-05
6.02498e-05
6.05525e-05
6.08449e-05
6.11263e-05
6.13956e-05
6.1652e-05
6.18949e-05
6.21236e-05
6.23369e-05
6.25339e-05
6.27136e-05
6.28751e-05
6.30173e-05
6.314e-05
6.32427e-05
6.33248e-05
6.3386e-05
6.34248e-05
6.34386e-05
6.34271e-05
6.33915e-05
6.33335e-05
6.32542e-05
6.31509e-05
6.30186e-05
6.28585e-05
6.26747e-05
6.24716e-05
6.225e-05
6.20034e-05
6.17282e-05
6.14309e-05
6.11189e-05
6.07934e-05
6.04474e-05
6.00771e-05
5.969e-05
5.92934e-05
5.88858e-05
5.84582e-05
5.80121e-05
5.75552e-05
5.70895e-05
5.66075e-05
5.61074e-05
5.55937e-05
5.5069e-05
5.45273e-05
5.39659e-05
5.33876e-05
5.27943e-05
5.21801e-05
5.15434e-05
5.08857e-05
5.02057e-05
4.94987e-05
4.87629e-05
4.79981e-05
4.71987e-05
4.63598e-05
4.54779e-05
4.45448e-05
4.35507e-05
4.24851e-05
4.13324e-05
4.00704e-05
3.86756e-05
3.71127e-05
3.53448e-05
3.33056e-05
3.09415e-05
2.81674e-05
2.4905e-05
6.43113e-05
6.47399e-05
6.51675e-05
6.55922e-05
6.60133e-05
6.64297e-05
6.68404e-05
6.72446e-05
6.76412e-05
6.80291e-05
6.84074e-05
6.87752e-05
6.91315e-05
6.9475e-05
6.98048e-05
7.01198e-05
7.0419e-05
7.07015e-05
7.09667e-05
7.12138e-05
7.14412e-05
7.16479e-05
7.18331e-05
7.19953e-05
7.21335e-05
7.22475e-05
7.23369e-05
7.2401e-05
7.24396e-05
7.24507e-05
7.24313e-05
7.23811e-05
7.23017e-05
7.21956e-05
7.2064e-05
7.19038e-05
7.1709e-05
7.14813e-05
7.12256e-05
7.09475e-05
7.06478e-05
7.03193e-05
6.99577e-05
6.95708e-05
6.91671e-05
6.87484e-05
6.83067e-05
6.78375e-05
6.73493e-05
6.68507e-05
6.63401e-05
6.58072e-05
6.52537e-05
6.46877e-05
6.41118e-05
6.35179e-05
6.29034e-05
6.22727e-05
6.16292e-05
6.09663e-05
6.02804e-05
5.95741e-05
5.88498e-05
5.81008e-05
5.73249e-05
5.65231e-05
5.56945e-05
5.48332e-05
5.39369e-05
5.30051e-05
5.20312e-05
5.10095e-05
4.99354e-05
4.87997e-05
4.75911e-05
4.62966e-05
4.48991e-05
4.33732e-05
4.16928e-05
3.98213e-05
3.77191e-05
3.53173e-05
3.25728e-05
2.94031e-05
2.57611e-05
7.28095e-05
7.33108e-05
7.38085e-05
7.43006e-05
7.47861e-05
7.52639e-05
7.57328e-05
7.61918e-05
7.66399e-05
7.70758e-05
7.74985e-05
7.79071e-05
7.83003e-05
7.86769e-05
7.90357e-05
7.93756e-05
7.96954e-05
7.99944e-05
8.0272e-05
8.05272e-05
8.0758e-05
8.09636e-05
8.11429e-05
8.12944e-05
8.1417e-05
8.15103e-05
8.15742e-05
8.1608e-05
8.16114e-05
8.15825e-05
8.15171e-05
8.14154e-05
8.12796e-05
8.11126e-05
8.09163e-05
8.06867e-05
8.04172e-05
8.01097e-05
7.97705e-05
7.94058e-05
7.90168e-05
7.85955e-05
7.8137e-05
7.76503e-05
7.71451e-05
7.66234e-05
7.60767e-05
7.54999e-05
7.49022e-05
7.4293e-05
7.36711e-05
7.30252e-05
7.23564e-05
7.16735e-05
7.09797e-05
7.02661e-05
6.95293e-05
6.87738e-05
6.80033e-05
6.72108e-05
6.63918e-05
6.55485e-05
6.46836e-05
6.37899e-05
6.28641e-05
6.1907e-05
6.09176e-05
5.98891e-05
5.88183e-05
5.77042e-05
5.65395e-05
5.53172e-05
5.40318e-05
5.26725e-05
5.12271e-05
4.96794e-05
4.80111e-05
4.61945e-05
4.42002e-05
4.19942e-05
3.95331e-05
3.67524e-05
3.36248e-05
3.00762e-05
2.61092e-05
8.16012e-05
8.2173e-05
8.27379e-05
8.32937e-05
8.38393e-05
8.43734e-05
8.48948e-05
8.54024e-05
8.58949e-05
8.63712e-05
8.68304e-05
8.72713e-05
8.76923e-05
8.80922e-05
8.84698e-05
8.8824e-05
8.91535e-05
8.94576e-05
8.9736e-05
8.99872e-05
9.02091e-05
9.04007e-05
9.05612e-05
9.06886e-05
9.07818e-05
9.08407e-05
9.08651e-05
9.08543e-05
9.08084e-05
9.07249e-05
9.05992e-05
9.04316e-05
9.02249e-05
8.9983e-05
8.97077e-05
8.93951e-05
8.90372e-05
8.86368e-05
8.82012e-05
8.77374e-05
8.72472e-05
8.67215e-05
8.61551e-05
8.55581e-05
8.49412e-05
8.43068e-05
8.36459e-05
8.29526e-05
8.2237e-05
8.1509e-05
8.07677e-05
8.00009e-05
7.92092e-05
7.84019e-05
7.75826e-05
7.67419e-05
7.58752e-05
7.49871e-05
7.40817e-05
7.31513e-05
7.21906e-05
7.12012e-05
7.01863e-05
6.91377e-05
6.80511e-05
6.69273e-05
6.57646e-05
6.45554e-05
6.32954e-05
6.19834e-05
6.06105e-05
5.9169e-05
5.7652e-05
5.60471e-05
5.43414e-05
5.25155e-05
5.05494e-05
4.8416e-05
4.60806e-05
4.35191e-05
4.06805e-05
3.75186e-05
3.4025e-05
3.01427e-05
2.5947e-05
9.06601e-05
9.12984e-05
9.19258e-05
9.25399e-05
9.31393e-05
9.37228e-05
9.4289e-05
9.48368e-05
9.53649e-05
9.58722e-05
9.63579e-05
9.68205e-05
9.72582e-05
9.76697e-05
9.80541e-05
9.84099e-05
9.8736e-05
9.90319e-05
9.92973e-05
9.95304e-05
9.97288e-05
9.98915e-05
0.000100018
0.000100106
0.000100154
0.000100162
0.000100131
0.000100059
9.99478e-05
9.97934e-05
9.9591e-05
9.93412e-05
9.90476e-05
9.87147e-05
9.8345e-05
9.79338e-05
9.74729e-05
9.69653e-05
9.64195e-05
9.58435e-05
9.5239e-05
9.45967e-05
9.39111e-05
9.3193e-05
9.2454e-05
9.1697e-05
9.09124e-05
9.00939e-05
8.92517e-05
8.83967e-05
8.75281e-05
8.66328e-05
8.57106e-05
8.47713e-05
8.3819e-05
8.28434e-05
8.18391e-05
8.08102e-05
7.97616e-05
7.86847e-05
7.7573e-05
7.6428e-05
7.52527e-05
7.40382e-05
7.27791e-05
7.14759e-05
7.01262e-05
6.87212e-05
6.72561e-05
6.57287e-05
6.41285e-05
6.24471e-05
6.06768e-05
5.88024e-05
5.68114e-05
5.46814e-05
5.23902e-05
4.99156e-05
4.72149e-05
4.4286e-05
4.1063e-05
3.75416e-05
3.37287e-05
2.95981e-05
2.53259e-05
9.99694e-05
0.000100668
0.000101351
0.000102015
0.00010266
0.000103283
0.000103884
0.000104461
0.000105013
0.00010554
0.000106039
0.000106511
0.000106951
0.00010736
0.000107737
0.000108079
0.000108386
0.000108658
0.000108894
0.000109092
0.00010925
0.000109366
0.000109441
0.000109472
0.000109456
0.000109396
0.00010929
0.000109139
0.000108944
0.0001087
0.000108403
0.000108052
0.000107654
0.000107213
0.000106732
0.000106206
0.000105626
0.000104996
0.000104325
0.000103623
0.000102892
0.00010212
0.000101304
0.000100454
9.95826e-05
9.86932e-05
9.77758e-05
9.68235e-05
9.58467e-05
9.48567e-05
9.38529e-05
9.28214e-05
9.17614e-05
9.06827e-05
8.95896e-05
8.84712e-05
8.7321e-05
8.61432e-05
8.49424e-05
8.37094e-05
8.24367e-05
8.11254e-05
7.97783e-05
7.83853e-05
7.69402e-05
7.54432e-05
7.38909e-05
7.22729e-05
7.05843e-05
6.88219e-05
6.69725e-05
6.50281e-05
6.29807e-05
6.08108e-05
5.8508e-05
5.60484e-05
5.34057e-05
5.05708e-05
4.74889e-05
4.41976e-05
4.0603e-05
3.67826e-05
3.274e-05
2.8501e-05
2.43768e-05
0.000109512
0.000110261
0.000110989
0.000111693
0.000112371
0.000113021
0.000113643
0.000114236
0.000114797
0.000115328
0.000115826
0.00011629
0.000116717
0.000117106
0.000117456
0.000117766
0.000118036
0.000118265
0.000118452
0.000118596
0.000118693
0.000118744
0.000118746
0.000118699
0.000118599
0.000118449
0.000118249
0.000117997
0.000117697
0.000117344
0.000116931
0.000116461
0.000115939
0.000115371
0.000114761
0.000114102
0.000113387
0.00011262
0.00011181
0.000110968
0.000110096
0.000109184
0.000108226
0.000107234
0.00010622
0.00010519
0.000104131
0.000103037
0.000101918
0.000100786
9.96395e-05
9.84646e-05
9.72595e-05
9.60341e-05
9.47926e-05
9.35233e-05
9.22189e-05
9.08831e-05
8.95206e-05
8.8121e-05
8.66759e-05
8.51864e-05
8.36544e-05
8.20684e-05
8.04217e-05
7.87141e-05
7.6941e-05
7.50901e-05
7.31565e-05
7.11365e-05
6.90135e-05
6.67801e-05
6.44299e-05
6.19377e-05
5.92959e-05
5.64848e-05
5.34701e-05
5.02672e-05
4.68048e-05
4.31852e-05
3.92642e-05
3.52652e-05
3.11397e-05
2.70018e-05
2.33654e-05
0.000119261
0.000120048
0.000120806
0.000121534
0.000122229
0.00012289
0.000123516
0.000124105
0.000124658
0.000125174
0.000125652
0.000126088
0.00012648
0.000126828
0.000127132
0.000127389
0.000127599
0.000127762
0.00012788
0.000127947
0.00012796
0.000127921
0.000127828
0.00012768
0.000127473
0.000127211
0.000126892
0.000126518
0.00012609
0.000125606
0.000125057
0.000124446
0.000123781
0.000123067
0.000122309
0.000121501
0.000120634
0.000119714
0.000118752
0.000117757
0.000116733
0.000115668
0.000114558
0.000113415
0.000112252
0.000111072
0.000109864
0.000108622
0.000107354
0.000106074
0.000104778
0.000103453
0.000102096
0.000100718
9.932e-05
9.78914e-05
9.64236e-05
9.49205e-05
9.33856e-05
9.18076e-05
9.01773e-05
8.84957e-05
8.67635e-05
8.49679e-05
8.31013e-05
8.11635e-05
7.91484e-05
7.70414e-05
7.48382e-05
7.2535e-05
7.01114e-05
6.7561e-05
6.48818e-05
6.20422e-05
5.90375e-05
5.58635e-05
5.24709e-05
4.8915e-05
4.51059e-05
4.12374e-05
3.70842e-05
3.31103e-05
2.91216e-05
2.54011e-05
2.3428e-05
0.000129169
0.000129975
0.000130745
0.000131477
0.000132168
0.000132819
0.000133427
0.000133991
0.000134513
0.000134991
0.000135426
0.000135811
0.000136145
0.000136427
0.000136658
0.000136837
0.000136962
0.000137036
0.000137058
0.000137022
0.000136926
0.000136772
0.000136559
0.000136284
0.000135945
0.000135545
0.000135083
0.000134562
0.000133984
0.000133345
0.000132638
0.000131866
0.000131037
0.000130158
0.000129235
0.000128261
0.000127227
0.000126141
0.000125014
0.000123855
0.000122668
0.000121442
0.000120173
0.000118871
0.000117551
0.000116216
0.000114854
0.000113457
0.000112036
0.000110602
0.000109152
0.000107671
0.000106156
0.000104616
0.000103055
0.000101458
9.98171e-05
9.81359e-05
9.64167e-05
9.46467e-05
9.28163e-05
9.09263e-05
8.89761e-05
8.69511e-05
8.48432e-05
8.2652e-05
8.03704e-05
7.79812e-05
7.54805e-05
7.28659e-05
7.01144e-05
6.72195e-05
6.41885e-05
6.09849e-05
5.76044e-05
5.40802e-05
5.03355e-05
4.64809e-05
4.24156e-05
3.84415e-05
3.42193e-05
3.05828e-05
2.70735e-05
2.49769e-05
2.45257e-05
0.000139161
0.000139964
0.000140721
0.000141432
0.000142095
0.000142708
0.000143272
0.000143785
0.000144248
0.000144663
0.000145027
0.000145334
0.000145581
0.000145769
0.0001459
0.000145973
0.000145986
0.000145942
0.000145839
0.000145673
0.000145439
0.000145142
0.000144781
0.000144352
0.000143855
0.00014329
0.000142661
0.000141968
0.000141215
0.000140398
0.000139511
0.000138558
0.000137546
0.000136486
0.00013538
0.000134225
0.000133013
0.000131749
0.000130446
0.000129114
0.000127757
0.000126363
0.000124928
0.000123464
0.000121983
0.000120488
0.000118967
0.000117413
0.000115835
0.000114242
0.000112633
0.000110989
0.00010931
0.000107603
0.000105869
0.000104094
0.000102269
0.000100397
9.84796e-05
9.65017e-05
9.44536e-05
9.23358e-05
9.01462e-05
8.7869e-05
8.54947e-05
8.30232e-05
8.04472e-05
7.77477e-05
7.49199e-05
7.19651e-05
6.88635e-05
6.56042e-05
6.22092e-05
5.86479e-05
5.49062e-05
5.109e-05
4.70779e-05
4.30377e-05
3.88961e-05
3.50371e-05
3.10147e-05
2.82538e-05
2.63278e-05
2.56922e-05
2.57216e-05
0.00014913
0.000149899
0.000150614
0.000151274
0.000151877
0.000152423
0.000152911
0.000153342
0.000153717
0.000154038
0.000154301
0.000154499
0.000154626
0.000154689
0.00015469
0.000154625
0.000154496
0.000154303
0.000154046
0.000153719
0.000153317
0.000152847
0.000152309
0.000151699
0.000151015
0.00015026
0.000149437
0.000148548
0.000147597
0.000146581
0.000145493
0.00014434
0.000143129
0.000141871
0.000140571
0.000139223
0.000137821
0.000136371
0.000134886
0.000133376
0.000131844
0.000130278
0.000128675
0.000127046
0.000125402
0.000123746
0.000122065
0.00012035
0.000118612
0.000116858
0.000115083
0.000113272
0.000111421
0.000109538
0.000107622
0.000105657
0.000103634
0.000101557
9.94236e-05
9.72187e-05
9.49318e-05
9.25629e-05
9.01085e-05
8.75526e-05
8.48838e-05
8.2102e-05
7.92018e-05
7.61659e-05
7.29845e-05
6.96661e-05
6.62094e-05
6.2588e-05
5.88415e-05
5.498e-05
5.09468e-05
4.69684e-05
4.2869e-05
3.88274e-05
3.49223e-05
3.15108e-05
2.87691e-05
2.73532e-05
2.68123e-05
2.66473e-05
2.67131e-05
0.000158923
0.000159625
0.000160263
0.000160836
0.000161344
0.000161788
0.000162166
0.000162479
0.000162732
0.000162926
0.000163055
0.000163108
0.000163083
0.000162987
0.000162823
0.000162588
0.000162284
0.000161911
0.000161468
0.000160947
0.000160347
0.000159674
0.00015893
0.00015811
0.000157212
0.000156241
0.0001552
0.000154091
0.000152921
0.000151686
0.000150381
0.000149012
0.000147589
0.000146123
0.000144618
0.00014307
0.000141472
0.000139833
0.000138163
0.000136473
0.000134765
0.000133028
0.000131256
0.000129463
0.000127657
0.000125839
0.000123996
0.00012212
0.000120219
0.0001183
0.000116355
0.000114369
0.000112338
0.000110269
0.000108157
0.000105987
0.000103751
0.000101449
9.90781e-05
9.66231e-05
9.40727e-05
9.1425e-05
8.86767e-05
8.58131e-05
8.28217e-05
7.96998e-05
7.64478e-05
7.30612e-05
6.95151e-05
6.58287e-05
6.20535e-05
5.81225e-05
5.40816e-05
5.00757e-05
4.59147e-05
4.19887e-05
3.81286e-05
3.4343e-05
3.1547e-05
2.95397e-05
2.80194e-05
2.77417e-05
2.75363e-05
2.74657e-05
2.74817e-05
0.000168342
0.000168938
0.000169459
0.000169906
0.00017028
0.000170583
0.000170812
0.000170971
0.000171065
0.000171096
0.000171054
0.000170927
0.000170712
0.000170422
0.000170059
0.000169621
0.000169109
0.000168524
0.000167862
0.000167116
0.000166287
0.000165382
0.000164402
0.000163345
0.000162209
0.000160998
0.000159716
0.000158368
0.000156961
0.000155491
0.000153956
0.000152361
0.000150718
0.000149037
0.000147323
0.000145572
0.000143779
0.00014195
0.000140098
0.000138232
0.000136351
0.000134445
0.000132509
0.000130554
0.000128588
0.00012661
0.000124604
0.000122565
0.000120498
0.000118409
0.000116286
0.000114114
0.000111892
0.000109623
0.0001073
0.000104906
0.000102434
9.9884e-05
9.72501e-05
9.45177e-05
9.16765e-05
8.87205e-05
8.56473e-05
8.24479e-05
7.91146e-05
7.56338e-05
7.20178e-05
6.82984e-05
6.44198e-05
6.04111e-05
5.6431e-05
5.2339e-05
4.81125e-05
4.42858e-05
4.03044e-05
3.67156e-05
3.3885e-05
3.15343e-05
2.99007e-05
2.91227e-05
2.84639e-05
2.83052e-05
2.8182e-05
2.81369e-05
2.81353e-05
0.000177139
0.000177586
0.000177946
0.000178223
0.000178422
0.000178542
0.000178582
0.000178548
0.000178446
0.000178276
0.000178026
0.000177681
0.000177241
0.00017672
0.000176124
0.00017545
0.000174697
0.000173867
0.000172955
0.000171954
0.000170866
0.000169701
0.000168461
0.000167142
0.000165745
0.000164274
0.000162735
0.000161134
0.000159477
0.000157763
0.00015599
0.000154165
0.000152299
0.000150405
0.000148485
0.000146535
0.00014455
0.000142539
0.000140512
0.000138476
0.000136429
0.000134359
0.000132264
0.000130152
0.000128029
0.00012589
0.00012372
0.000121514
0.000119276
0.000117008
0.000114696
0.000112326
0.000109896
0.000107407
0.00010485
0.00010221
9.9479e-05
9.66525e-05
9.37253e-05
9.06862e-05
8.75292e-05
8.42409e-05
8.08197e-05
7.7268e-05
7.36041e-05
6.97841e-05
6.58392e-05
6.18712e-05
5.77935e-05
5.36066e-05
4.96358e-05
4.56991e-05
4.13984e-05
3.83671e-05
3.54895e-05
3.32706e-05
3.15582e-05
3.04533e-05
2.9767e-05
2.93434e-05
2.89679e-05
2.8844e-05
2.87581e-05
2.87852e-05
2.89375e-05
0.000185012
0.000185264
0.000185416
0.000185479
0.000185459
0.000185355
0.000185167
0.000184902
0.000184566
0.000184157
0.000183661
0.000183061
0.00018236
0.000181575
0.000180713
0.00017977
0.000178746
0.000177641
0.000176449
0.000175166
0.000173795
0.000172346
0.000170824
0.000169224
0.000167549
0.000165805
0.000163997
0.000162134
0.000160223
0.000158262
0.000156252
0.0001542
0.000152119
0.000150018
0.000147901
0.000145762
0.000143597
0.000141415
0.000139223
0.000137028
0.000134823
0.000132598
0.00013035
0.000128084
0.000125805
0.000123502
0.000121164
0.000118783
0.000116364
0.000113902
0.000111385
0.000108799
0.00010614
0.000103407
0.00010059
9.76764e-05
9.46603e-05
9.15316e-05
8.82838e-05
8.49153e-05
8.14324e-05
7.7817e-05
7.40575e-05
7.01769e-05
6.6269e-05
6.22305e-05
5.80958e-05
5.40562e-05
5.01086e-05
4.60475e-05
4.23442e-05
3.93302e-05
3.64601e-05
3.45204e-05
3.27857e-05
3.17344e-05
3.09627e-05
3.03718e-05
2.99439e-05
2.96786e-05
2.94641e-05
2.94113e-05
2.94209e-05
2.97968e-05
3.0395e-05
0.000191608
0.00019162
0.000191519
0.000191324
0.000191043
0.000190675
0.000190221
0.000189686
0.00018908
0.000188396
0.000187619
0.00018673
0.000185735
0.000184655
0.000183496
0.000182256
0.000180933
0.000179527
0.000178031
0.000176443
0.000174769
0.00017302
0.0001712
0.000169307
0.000167345
0.00016532
0.000163242
0.000161118
0.000158956
0.000156755
0.000154518
0.000152252
0.000149969
0.000147678
0.000145378
0.000143066
0.000140737
0.000138398
0.000136056
0.000133712
0.000131357
0.000128983
0.000126584
0.000124166
0.000121726
0.000119254
0.000116737
0.000114169
0.000111552
0.000108877
0.000106133
0.000103308
0.000100397
9.73935e-05
9.42889e-05
9.10779e-05
8.77618e-05
8.43259e-05
8.07566e-05
7.70687e-05
7.32917e-05
6.94412e-05
6.54486e-05
6.13606e-05
5.74167e-05
5.34893e-05
4.94834e-05
4.55564e-05
4.24696e-05
3.95615e-05
3.72368e-05
3.53084e-05
3.36835e-05
3.28131e-05
3.19412e-05
3.13465e-05
3.08644e-05
3.05158e-05
3.0261e-05
3.01309e-05
3.00753e-05
3.02759e-05
3.07199e-05
3.13973e-05
3.22404e-05
0.000196535
0.000196264
0.000195868
0.000195373
0.000194793
0.000194126
0.000193371
0.000192535
0.000191626
0.000190634
0.000189542
0.000188334
0.000187019
0.000185618
0.000184137
0.000182575
0.000180931
0.000179203
0.000177386
0.000175478
0.000173489
0.000171429
0.000169304
0.000167115
0.000164866
0.000162565
0.000160224
0.00015785
0.000155451
0.000153027
0.000150581
0.000148122
0.000145659
0.000143198
0.000140737
0.00013827
0.000135795
0.000133316
0.000130835
0.00012835
0.000125852
0.000123329
0.000120778
0.0001182
0.000115591
0.000112937
0.000110227
0.000107454
0.000104616
0.000101705
9.871e-05
9.56266e-05
9.24513e-05
8.91659e-05
8.57654e-05
8.22579e-05
7.86608e-05
7.49885e-05
7.11863e-05
6.7281e-05
6.331e-05
5.95181e-05
5.56166e-05
5.16207e-05
4.78774e-05
4.48035e-05
4.19116e-05
3.94393e-05
3.74238e-05
3.56895e-05
3.45116e-05
3.35896e-05
3.27388e-05
3.2181e-05
3.16708e-05
3.13166e-05
3.10395e-05
3.08751e-05
3.07961e-05
3.09191e-05
3.12673e-05
3.17908e-05
3.24765e-05
3.32955e-05
3.42159e-05
0.000199373
0.000198784
0.000198059
0.000197233
0.000196322
0.000195326
0.000194243
0.000193081
0.000191842
0.000190516
0.000189083
0.000187532
0.000185876
0.000184134
0.000182313
0.000180413
0.000178432
0.000176368
0.000174218
0.000171984
0.000169676
0.000167306
0.00016488
0.000162401
0.000159876
0.000157315
0.000154729
0.000152127
0.000149514
0.000146892
0.000144265
0.000141639
0.000139022
0.000136416
0.000133815
0.000131213
0.000128608
0.000126
0.000123389
0.000120767
0.000118123
0.000115447
0.000112735
0.000109984
0.000107188
0.000104337
0.000101421
9.84306e-05
9.53572e-05
9.21944e-05
8.89394e-05
8.55996e-05
8.21951e-05
7.86852e-05
7.50602e-05
7.13381e-05
6.75453e-05
6.38979e-05
6.0169e-05
5.63399e-05
5.22345e-05
4.91459e-05
4.61502e-05
4.33529e-05
4.10182e-05
3.90069e-05
3.72789e-05
3.5998e-05
3.50244e-05
3.41071e-05
3.34299e-05
3.28577e-05
3.23832e-05
3.20467e-05
3.17781e-05
3.16209e-05
3.15428e-05
3.16556e-05
3.19534e-05
3.23912e-05
3.29654e-05
3.36424e-05
3.44097e-05
3.52461e-05
3.61325e-05
0.00019971
0.000198781
0.00019771
0.000196535
0.000195273
0.000193928
0.000192499
0.000190991
0.000189404
0.000187725
0.000185935
0.000184028
0.000182019
0.000179926
0.000177755
0.000175507
0.000173181
0.000170776
0.000168292
0.000165732
0.000163111
0.000160441
0.000157728
0.000154977
0.000152199
0.000149402
0.000146599
0.000143798
0.000141003
0.000138215
0.000135436
0.000132673
0.000129927
0.000127196
0.000124473
0.00012175
0.000119025
0.000116294
0.000113554