/*--------------------------------*- C++ -*----------------------------------*\
| =========                 |                                                 |
| \\      /  F ield         | OpenFOAM: The Open Source CFD Toolbox           |
|  \\    /   O peration     | Version:  2412                                  |
|   \\  /    A nd           | Website:  www.openfoam.com                      |
|    \\/     M anipulation  |                                                 |
\*---------------------------------------------------------------------------*/
FoamFile
{
    version     2.0;
    format      ascii;
    arch        "LSB;label=32;scalar=64";
    class       surfaceScalarField;
    location    "380";
    object      phi;
}
// * * * * * * * * * * * * * * * * * * * * * * * * * * * * * * * * * * * * * //

dimensions      [0 3 -1 0 0 0 0];

oriented        oriented;

internalField   nonuniform List<scalar> 
17078
(
-2.0437e-06
3.5655e-09
-2.04704e-06
3.3e-09
-2.05062e-06
3.69806e-09
-2.05442e-06
3.73479e-09
-2.05865e-06
4.25089e-09
-2.06298e-06
4.34229e-09
-2.06757e-06
4.60781e-09
-2.07235e-06
4.79387e-09
-2.07726e-06
4.92311e-09
-2.0825e-06
5.26e-09
-2.08803e-06
5.54025e-09
-2.09383e-06
5.83084e-09
-2.09974e-06
5.92291e-09
-2.10586e-06
6.13241e-09
-2.1124e-06
6.55706e-09
-2.11913e-06
6.74568e-09
-2.12614e-06
7.02544e-09
-2.13332e-06
7.28459e-09
-2.14086e-06
7.47867e-09
-2.14862e-06
7.8646e-09
-2.15668e-06
7.99176e-09
-2.16493e-06
8.33195e-09
-2.17335e-06
8.3795e-09
-2.18206e-06
8.80748e-09
-2.191e-06
8.8677e-09
-2.20013e-06
9.2349e-09
-2.20942e-06
9.23676e-09
-2.21882e-06
9.49808e-09
-2.22835e-06
9.45341e-09
-2.23797e-06
9.70924e-09
-2.24767e-06
9.64795e-09
-2.25737e-06
9.80074e-09
-2.26718e-06
9.73894e-09
-2.2768e-06
9.71413e-09
-2.28642e-06
9.54687e-09
-2.29582e-06
9.46704e-09
-2.30506e-06
9.19747e-09
-2.3141e-06
9.13105e-09
-2.32282e-06
8.66743e-09
-2.33121e-06
8.46079e-09
-2.33921e-06
7.9333e-09
-2.34669e-06
7.58417e-09
-2.35378e-06
7.01991e-09
-2.36034e-06
6.63992e-09
-2.36633e-06
5.91629e-09
-2.37153e-06
5.25361e-09
-2.37614e-06
4.55834e-09
-2.38023e-06
4.14553e-09
-2.38353e-06
3.25953e-09
-2.386e-06
2.50586e-09
-2.38767e-06
1.6352e-09
-2.38862e-06
9.95316e-10
-2.38913e-06
4.79371e-10
-2.38874e-06
-3.65376e-10
-2.38739e-06
-1.36765e-09
-2.38533e-06
-2.02666e-09
-2.38278e-06
-2.57224e-09
-2.37965e-06
-3.10855e-09
-2.37557e-06
-4.08902e-09
-2.37082e-06
-4.72764e-09
-2.36563e-06
-5.2004e-09
-2.35992e-06
-5.69083e-09
-2.35335e-06
-6.58832e-09
-2.34616e-06
-7.16314e-09
-2.33862e-06
-7.55735e-09
-2.33061e-06
-7.99465e-09
-2.32171e-06
-8.91474e-09
-2.31239e-06
-9.29566e-09
-2.30274e-06
-9.66518e-09
-2.29237e-06
-1.03547e-08
-2.28136e-06
-1.10221e-08
-2.26993e-06
-1.14233e-08
-2.25789e-06
-1.20437e-08
-2.24513e-06
-1.27591e-08
-2.23164e-06
-1.34871e-08
-2.21751e-06
-1.41211e-08
-2.20223e-06
-1.52739e-08
-2.18576e-06
-1.64739e-08
-2.1679e-06
-1.78543e-08
-2.14807e-06
-1.98343e-08
-2.12562e-06
-2.24448e-08
-2.09939e-06
-2.62286e-08
-2.06787e-06
-3.15167e-08
-2.02859e-06
-3.92852e-08
-1.97768e-06
-5.09001e-08
-1.90899e-06
-6.86999e-08
-1.81179e-06
-9.71922e-08
-1.43061e-07
-7.22474e-06
1.67923e-08
-7.23745e-06
1.597e-08
-7.25073e-06
1.71352e-08
-7.26496e-06
1.78763e-08
-7.28047e-06
1.97953e-08
-7.2967e-06
2.05894e-08
-7.31381e-06
2.17477e-08
-7.33137e-06
2.23705e-08
-7.35e-06
2.35761e-08
-7.36941e-06
2.46947e-08
-7.38971e-06
2.58674e-08
-7.41073e-06
2.68807e-08
-7.43266e-06
2.7882e-08
-7.45559e-06
2.90847e-08
-7.47914e-06
3.01271e-08
-7.50384e-06
3.14733e-08
-7.52934e-06
3.25424e-08
-7.55603e-06
3.41184e-08
-7.58323e-06
3.45972e-08
-7.61148e-06
3.62446e-08
-7.64058e-06
3.70087e-08
-7.67048e-06
3.8352e-08
-7.7013e-06
3.91441e-08
-7.73251e-06
4.01417e-08
-7.76472e-06
4.09873e-08
-7.79744e-06
4.21043e-08
-7.8307e-06
4.2418e-08
-7.86446e-06
4.33973e-08
-7.8986e-06
4.34919e-08
-7.93304e-06
4.42624e-08
-7.96754e-06
4.40777e-08
-8.00221e-06
4.46112e-08
-8.03629e-06
4.3739e-08
-8.07068e-06
4.42222e-08
-8.10445e-06
4.32138e-08
-8.13751e-06
4.26198e-08
-8.17035e-06
4.19821e-08
-8.20158e-06
4.04908e-08
-8.23208e-06
3.90893e-08
-8.26116e-06
3.76442e-08
-8.28853e-06
3.52164e-08
-8.3145e-06
3.36811e-08
-8.33879e-06
3.12298e-08
-8.36123e-06
2.91815e-08
-8.38107e-06
2.56521e-08
-8.39853e-06
2.27878e-08
-8.41344e-06
1.9411e-08
-8.42654e-06
1.73176e-08
-8.43709e-06
1.37621e-08
-8.44449e-06
9.9471e-09
-8.44873e-06
5.82863e-09
-8.45076e-06
3.07424e-09
-8.45047e-06
1.63058e-10
-8.44776e-06
-3.04936e-09
-8.44144e-06
-7.71116e-09
-8.43227e-06
-1.11538e-08
-8.42165e-06
-1.32178e-08
-8.40887e-06
-1.58593e-08
-8.39258e-06
-2.03917e-08
-8.37366e-06
-2.36086e-08
-8.35339e-06
-2.54964e-08
-8.33127e-06
-2.77824e-08
-8.3062e-06
-3.16812e-08
-8.27848e-06
-3.48486e-08
-8.24978e-06
-3.62718e-08
-8.21902e-06
-3.87362e-08
-8.18565e-06
-4.23038e-08
-8.1502e-06
-4.47117e-08
-8.11361e-06
-4.62743e-08
-8.07486e-06
-4.90875e-08
-8.03326e-06
-5.26368e-08
-7.99032e-06
-5.43559e-08
-7.94533e-06
-5.7034e-08
-7.89734e-06
-6.07515e-08
-7.84726e-06
-6.35665e-08
-7.79399e-06
-6.73823e-08
-7.73654e-06
-7.27173e-08
-7.67519e-06
-7.78268e-08
-7.60859e-06
-8.44482e-08
-7.53467e-06
-9.37513e-08
-7.45135e-06
-1.05759e-07
-7.35442e-06
-1.23162e-07
-7.23888e-06
-1.4705e-07
-7.09541e-06
-1.82759e-07
-6.91106e-06
-2.35244e-07
-6.66371e-06
-3.16053e-07
-6.31646e-06
-4.44436e-07
-6.50009e-07
-1.44207e-05
4.50058e-08
-1.44486e-05
4.3783e-08
-1.44768e-05
4.54931e-08
-1.45078e-05
4.87841e-08
-1.45412e-05
5.32373e-08
-1.4576e-05
5.54207e-08
-1.46119e-05
5.76524e-08
-1.46498e-05
6.03633e-08
-1.46891e-05
6.28756e-08
-1.47302e-05
6.57968e-08
-1.47731e-05
6.8842e-08
-1.48177e-05
7.14416e-08
-1.48636e-05
7.38613e-08
-1.49117e-05
7.71873e-08
-1.49619e-05
8.03223e-08
-1.50134e-05
8.305e-08
-1.50667e-05
8.58721e-08
-1.51218e-05
8.93741e-08
-1.5179e-05
9.16567e-08
-1.52376e-05
9.50348e-08
-1.52979e-05
9.71999e-08
-1.53597e-05
1.00301e-07
-1.54226e-05
1.01935e-07
-1.54875e-05
1.0526e-07
-1.55534e-05
1.06738e-07
-1.56204e-05
1.09215e-07
-1.56878e-05
1.09779e-07
-1.57568e-05
1.12513e-07
-1.58259e-05
1.12539e-07
-1.58952e-05
1.13692e-07
-1.59649e-05
1.13709e-07
-1.60343e-05
1.14139e-07
-1.61035e-05
1.12889e-07
-1.61717e-05
1.12498e-07
-1.62388e-05
1.10258e-07
-1.63046e-05
1.08507e-07
-1.63683e-05
1.0557e-07
-1.64307e-05
1.03057e-07
-1.64903e-05
9.85786e-08
-1.65467e-05
9.41508e-08
-1.65999e-05
8.83186e-08
-1.66495e-05
8.34297e-08
-1.66955e-05
7.71531e-08
-1.67375e-05
7.13222e-08
-1.67749e-05
6.2959e-08
-1.68066e-05
5.44999e-08
-1.68336e-05
4.63884e-08
-1.68561e-05
3.99224e-08
-1.68739e-05
3.14291e-08
-1.68848e-05
2.0879e-08
-1.68898e-05
1.08246e-08
-1.68894e-05
2.69069e-09
-1.68855e-05
-3.72197e-09
-1.68752e-05
-1.32759e-08
-1.68582e-05
-2.47564e-08
-1.6836e-05
-3.33796e-08
-1.681e-05
-3.91634e-08
-1.67793e-05
-4.65316e-08
-1.67427e-05
-5.70505e-08
-1.67005e-05
-6.57868e-08
-1.66553e-05
-7.07009e-08
-1.66061e-05
-7.69409e-08
-1.65509e-05
-8.69053e-08
-1.64911e-05
-9.46398e-08
-1.64282e-05
-9.91506e-08
-1.63618e-05
-1.05122e-07
-1.62897e-05
-1.14431e-07
-1.62141e-05
-1.20294e-07
-1.61356e-05
-1.24785e-07
-1.60521e-05
-1.32544e-07
-1.59639e-05
-1.40901e-07
-1.58723e-05
-1.4593e-07
-1.5776e-05
-1.53282e-07
-1.56743e-05
-1.6247e-07
-1.55676e-05
-1.70267e-07
-1.54555e-05
-1.79515e-07
-1.53345e-05
-1.93733e-07
-1.5205e-05
-2.07314e-07
-1.50648e-05
-2.24634e-07
-1.49098e-05
-2.48745e-07
-1.47359e-05
-2.79675e-07
-1.45346e-05
-3.24464e-07
-1.42949e-05
-3.86752e-07
-1.4e-05
-4.77571e-07
-1.36227e-05
-6.12606e-07
-1.31203e-05
-8.18471e-07
-1.24199e-05
-1.14479e-06
-1.66608e-06
-2.422e-05
9.73562e-08
-2.42711e-05
9.48568e-08
-2.43249e-05
9.94493e-08
-2.43829e-05
1.06674e-07
-2.44441e-05
1.14419e-07
-2.45085e-05
1.19863e-07
-2.45748e-05
1.2402e-07
-2.46437e-05
1.29336e-07
-2.4716e-05
1.35148e-07
-2.47913e-05
1.41146e-07
-2.48692e-05
1.46768e-07
-2.49499e-05
1.52167e-07
-2.50336e-05
1.57576e-07
-2.51203e-05
1.63931e-07
-2.52098e-05
1.6982e-07
-2.53025e-05
1.75852e-07
-2.53982e-05
1.81566e-07
-2.54962e-05
1.87492e-07
-2.55973e-05
1.92735e-07
-2.57016e-05
1.99411e-07
-2.58073e-05
2.02863e-07
-2.59157e-05
2.08864e-07
-2.60272e-05
2.13336e-07
-2.61401e-05
2.18298e-07
-2.62545e-05
2.21087e-07
-2.63704e-05
2.25232e-07
-2.64879e-05
2.27217e-07
-2.66058e-05
2.30535e-07
-2.6725e-05
2.31676e-07
-2.68433e-05
2.32098e-07
-2.69622e-05
2.32513e-07
-2.70794e-05
2.31474e-07
-2.71958e-05
2.29211e-07
-2.73105e-05
2.27351e-07
-2.74222e-05
2.21895e-07
-2.75312e-05
2.17612e-07
-2.76371e-05
2.11423e-07
-2.77388e-05
2.04854e-07
-2.78358e-05
1.95464e-07
-2.79267e-05
1.85233e-07
-2.80119e-05
1.73349e-07
-2.80907e-05
1.62442e-07
-2.8163e-05
1.49308e-07
-2.82282e-05
1.36641e-07
-2.82836e-05
1.18289e-07
-2.833e-05
1.00913e-07
-2.83678e-05
8.4177e-08
-2.83983e-05
7.04822e-08
-2.84196e-05
5.2637e-08
-2.84301e-05
3.14395e-08
-2.8429e-05
9.69778e-09
-2.84201e-05
-6.15625e-09
-2.84042e-05
-1.96739e-08
-2.83782e-05
-3.92171e-08
-2.83397e-05
-6.32221e-08
-2.82922e-05
-8.09052e-08
-2.82389e-05
-9.24229e-08
-2.81779e-05
-1.07523e-07
-2.81055e-05
-1.29474e-07
-2.80238e-05
-1.47479e-07
-2.79372e-05
-1.57256e-07
-2.78444e-05
-1.69709e-07
-2.77409e-05
-1.9048e-07
-2.76291e-05
-2.06397e-07
-2.75134e-05
-2.14912e-07
-2.73907e-05
-2.27741e-07
-2.72583e-05
-2.46907e-07
-2.71193e-05
-2.59262e-07
-2.69755e-05
-2.68545e-07
-2.68242e-05
-2.83853e-07
-2.6664e-05
-3.01091e-07
-2.64981e-05
-3.11789e-07
-2.6325e-05
-3.26431e-07
-2.61412e-05
-3.4622e-07
-2.59505e-05
-3.61054e-07
-2.57487e-05
-3.81294e-07
-2.55321e-05
-4.10321e-07
-2.53015e-05
-4.37865e-07
-2.50519e-05
-4.74244e-07
-2.47782e-05
-5.22437e-07
-2.4471e-05
-5.86908e-07
-2.4117e-05
-6.78425e-07
-2.36992e-05
-8.04587e-07
-2.3187e-05
-9.89764e-07
-2.25361e-05
-1.26351e-06
-2.16751e-05
-1.67946e-06
-2.04833e-05
-2.33655e-06
-3.38269e-06
-3.73605e-05
1.87854e-07
-3.74511e-05
1.85475e-07
-3.75456e-05
1.94142e-07
-3.76466e-05
2.07601e-07
-3.7753e-05
2.2085e-07
-3.78621e-05
2.28992e-07
-3.79774e-05
2.39351e-07
-3.80968e-05
2.48721e-07
-3.822e-05
2.58367e-07
-3.83471e-05
2.6826e-07
-3.84797e-05
2.79443e-07
-3.86168e-05
2.89323e-07
-3.87573e-05
2.98043e-07
-3.89032e-05
3.09948e-07
-3.90532e-05
3.19751e-07
-3.92077e-05
3.30479e-07
-3.93657e-05
3.39548e-07
-3.95288e-05
3.50765e-07
-3.96957e-05
3.5955e-07
-3.98658e-05
3.69602e-07
-4.00397e-05
3.76728e-07
-4.02164e-05
3.85696e-07
-4.03957e-05
3.92536e-07
-4.05777e-05
4.00442e-07
-4.07617e-05
4.05056e-07
-4.09479e-05
4.11589e-07
-4.11348e-05
4.14036e-07
-4.13215e-05
4.17303e-07
-4.15077e-05
4.17817e-07
-4.16948e-05
4.19291e-07
-4.18788e-05
4.16445e-07
-4.20617e-05
4.14524e-07
-4.22409e-05
4.08336e-07
-4.24163e-05
4.02883e-07
-4.25866e-05
3.9214e-07
-4.27515e-05
3.82615e-07
-4.29104e-05
3.70288e-07
-4.30622e-05
3.56704e-07
-4.32049e-05
3.3809e-07
-4.33369e-05
3.17383e-07
-4.34587e-05
2.95098e-07
-4.35699e-05
2.7373e-07
-4.36709e-05
2.50187e-07
-4.37587e-05
2.24538e-07
-4.38322e-05
1.91752e-07
-4.38896e-05
1.5834e-07
-4.3933e-05
1.27569e-07
-4.39644e-05
1.01965e-07
-4.39821e-05
7.02541e-08
-4.39812e-05
3.06193e-08
-4.39623e-05
-9.24602e-09
-4.39309e-05
-3.74944e-08
-4.38881e-05
-6.25625e-08
-4.383e-05
-9.72789e-08
-4.3752e-05
-1.41257e-07
-4.36599e-05
-1.72884e-07
-4.35586e-05
-1.93815e-07
-4.34449e-05
-2.21149e-07
-4.33142e-05
-2.60173e-07
-4.31688e-05
-2.92878e-07
-4.30159e-05
-3.10179e-07
-4.28521e-05
-3.33496e-07
-4.26729e-05
-3.69697e-07
-4.24809e-05
-3.98331e-07
-4.22809e-05
-4.14937e-07
-4.2071e-05
-4.3758e-07
-4.18465e-05
-4.71473e-07
-4.16114e-05
-4.94307e-07
-4.13691e-05
-5.10846e-07
-4.1114e-05
-5.38933e-07
-4.08447e-05
-5.70389e-07
-4.05675e-05
-5.89051e-07
-4.02794e-05
-6.14492e-07
-3.99744e-05
-6.51201e-07
-3.96565e-05
-6.79007e-07
-3.93224e-05
-7.15363e-07
-3.89662e-05
-7.66502e-07
-3.85869e-05
-8.17134e-07
-3.81789e-05
-8.82257e-07
-3.77313e-05
-9.70041e-07
-3.72328e-05
-1.08536e-06
-3.66612e-05
-1.25004e-06
-3.59887e-05
-1.47714e-06
-3.51707e-05
-1.80771e-06
-3.41379e-05
-2.2963e-06
-3.27801e-05
-3.0373e-06
-3.09139e-05
-4.20273e-06
-6.05131e-06
-5.47572e-05
3.38409e-07
-5.49103e-05
3.38517e-07
-5.50704e-05
3.54402e-07
-5.52392e-05
3.76379e-07
-5.54159e-05
3.97563e-07
-5.55984e-05
4.11505e-07
-5.57869e-05
4.2791e-07
-5.59823e-05
4.4421e-07
-5.61841e-05
4.60167e-07
-5.63931e-05
4.77277e-07
-5.66078e-05
4.94148e-07
-5.68286e-05
5.10232e-07
-5.7057e-05
5.26483e-07
-5.72901e-05
5.43063e-07
-5.753e-05
5.59675e-07
-5.77747e-05
5.75281e-07
-5.80276e-05
5.92471e-07
-5.82837e-05
6.06968e-07
-5.85448e-05
6.20598e-07
-5.88108e-05
6.35733e-07
-5.90801e-05
6.45977e-07
-5.93543e-05
6.60027e-07
-5.96307e-05
6.68821e-07
-5.9909e-05
6.78889e-07
-6.01898e-05
6.85829e-07
-6.04704e-05
6.9234e-07
-6.07512e-05
6.94729e-07
-6.1032e-05
6.98249e-07
-6.13101e-05
6.95847e-07
-6.15857e-05
6.95036e-07
-6.18572e-05
6.87861e-07
-6.21241e-05
6.81535e-07
-6.23842e-05
6.68461e-07
-6.26364e-05
6.55208e-07
-6.28792e-05
6.34835e-07
-6.31125e-05
6.16002e-07
-6.33343e-05
5.92054e-07
-6.35446e-05
5.67146e-07
-6.37395e-05
5.3291e-07
-6.39177e-05
4.95659e-07
-6.40781e-05
4.55422e-07
-6.42209e-05
4.16676e-07
-6.43475e-05
3.76671e-07
-6.44553e-05
3.32477e-07
-6.45381e-05
2.74474e-07
-6.45964e-05
2.16637e-07
-6.46336e-05
1.64721e-07
-6.46527e-05
1.21179e-07
-6.46504e-05
6.78824e-08
-6.462e-05
3.13587e-10
-6.4562e-05
-6.73006e-08
-6.44854e-05
-1.14008e-07
-6.4392e-05
-1.56014e-07
-6.42748e-05
-2.14458e-07
-6.41301e-05
-2.85975e-07
-6.39626e-05
-3.40355e-07
-6.3783e-05
-3.73477e-07
-6.35844e-05
-4.19661e-07
-6.33594e-05
-4.85216e-07
-6.31139e-05
-5.38342e-07
-6.28574e-05
-5.66659e-07
-6.25843e-05
-6.06628e-07
-6.22884e-05
-6.65564e-07
-6.19727e-05
-7.14035e-07
-6.16472e-05
-7.40422e-07
-6.13062e-05
-7.78524e-07
-6.09427e-05
-8.35011e-07
-6.05647e-05
-8.72329e-07
-6.01748e-05
-9.00695e-07
-5.97661e-05
-9.47589e-07
-5.93382e-05
-9.98367e-07
-5.8897e-05
-1.03022e-06
-5.84377e-05
-1.07382e-06
-5.79556e-05
-1.13325e-06
-5.74547e-05
-1.17989e-06
-5.693e-05
-1.24006e-06
-5.63717e-05
-1.32484e-06
-5.57802e-05
-1.40864e-06
-5.51445e-05
-1.51789e-06
-5.44514e-05
-1.66319e-06
-5.36808e-05
-1.85596e-06
-5.28035e-05
-2.12736e-06
-5.17766e-05
-2.50402e-06
-5.05339e-05
-3.05043e-06
-4.89742e-05
-3.85598e-06
-4.69379e-05
-5.07363e-06
-4.41582e-05
-6.9824e-06
-9.99873e-06
-7.75081e-05
5.82684e-07
-7.77573e-05
5.87677e-07
-7.80185e-05
6.15799e-07
-7.82918e-05
6.49574e-07
-7.85736e-05
6.7944e-07
-7.88658e-05
7.03723e-07
-7.91671e-05
7.29246e-07
-7.94748e-05
7.51923e-07
-7.97938e-05
7.79229e-07
-8.01199e-05
8.03431e-07
-8.04565e-05
8.30755e-07
-8.08002e-05
8.53953e-07
-8.11519e-05
8.78286e-07
-8.15119e-05
9.03105e-07
-8.18809e-05
9.2867e-07
-8.22563e-05
9.50729e-07
-8.26371e-05
9.7326e-07
-8.3025e-05
9.94994e-07
-8.34178e-05
1.01342e-06
-8.38147e-05
1.03271e-06
-8.42173e-05
1.04853e-06
-8.46201e-05
1.06294e-06
-8.50261e-05
1.07478e-06
-8.54345e-05
1.08741e-06
-8.58425e-05
1.09382e-06
-8.6248e-05
1.09796e-06
-8.6652e-05
1.09867e-06
-8.70504e-05
1.09672e-06
-8.74463e-05
1.09171e-06
-8.7833e-05
1.08178e-06
-8.82135e-05
1.0684e-06
-8.85817e-05
1.04985e-06
-8.894e-05
1.02669e-06
-8.92825e-05
9.9776e-07
-8.96103e-05
9.62639e-07
-8.99197e-05
9.2547e-07
-9.02124e-05
8.84721e-07
-9.04857e-05
8.4051e-07
-9.07343e-05
7.8145e-07
-9.09566e-05
7.18036e-07
-9.11502e-05
6.49018e-07
-9.13191e-05
5.85717e-07
-9.14624e-05
5.1987e-07
-9.15761e-05
4.46261e-07
-9.16532e-05
3.5153e-07
-9.16939e-05
2.5738e-07
-9.17047e-05
1.75474e-07
-9.16873e-05
1.03822e-07
-9.16389e-05
1.9469e-08
-9.15504e-05
-8.8154e-08
-9.14233e-05
-1.94453e-07
-9.1267e-05
-2.70226e-07
-9.10895e-05
-3.33609e-07
-9.08768e-05
-4.27135e-07
-9.06227e-05
-5.40083e-07
-9.03399e-05
-6.23101e-07
-9.00375e-05
-6.75828e-07
-8.97087e-05
-7.48488e-07
-8.93437e-05
-8.50236e-07
-8.8949e-05
-9.32985e-07
-8.85377e-05
-9.77911e-07
-8.81049e-05
-1.03948e-06
-8.76374e-05
-1.13309e-06
-8.71438e-05
-1.20754e-06
-8.66337e-05
-1.25054e-06
-8.6102e-05
-1.31025e-06
-8.55388e-05
-1.3982e-06
-8.49545e-05
-1.45659e-06
-8.43539e-05
-1.50132e-06
-8.37273e-05
-1.57418e-06
-8.30713e-05
-1.65438e-06
-8.23972e-05
-1.70427e-06
-8.16962e-05
-1.7749e-06
-8.0965e-05
-1.86443e-06
-8.02054e-05
-1.9395e-06
-7.94111e-05
-2.03436e-06
-7.85702e-05
-2.16571e-06
-7.76803e-05
-2.29855e-06
-7.6729e-05
-2.46913e-06
-7.5693e-05
-2.69919e-06
-7.45487e-05
-3.00028e-06
-7.32488e-05
-3.42724e-06
-7.17358e-05
-4.017e-06
-6.99139e-05
-4.8724e-06
-6.76414e-05
-6.12847e-06
-6.46901e-05
-8.02488e-06
-6.06879e-05
-1.09846e-05
-1.56432e-05
-0.000106854
9.62486e-07
-0.000107244
9.77314e-07
-0.000107651
1.023e-06
-0.000108077
1.07621e-06
-0.000108511
1.1129e-06
-0.000108956
1.14888e-06
-0.000109412
1.18586e-06
-0.000109882
1.22196e-06
-0.000110361
1.25816e-06
-0.000110853
1.29508e-06
-0.000111356
1.33359e-06
-0.000111868
1.36673e-06
-0.000112389
1.39856e-06
-0.000112919
1.43315e-06
-0.000113457
1.46743e-06
-0.000114002
1.49564e-06
-0.000114555
1.52585e-06
-0.000115113
1.55308e-06
-0.000115676
1.57636e-06
-0.000116243
1.59961e-06
-0.00011681
1.61573e-06
-0.000117379
1.63255e-06
-0.000117947
1.6428e-06
-0.000118514
1.65446e-06
-0.000119076
1.65563e-06
-0.000119635
1.65695e-06
-0.000120183
1.64682e-06
-0.000120726
1.63952e-06
-0.000121254
1.61967e-06
-0.000121773
1.60066e-06
-0.000122273
1.5692e-06
-0.00012276
1.53636e-06
-0.000123224
1.49089e-06
-0.000123666
1.43958e-06
-0.000124081
1.37805e-06
-0.000124471
1.3156e-06
-0.000124834
1.2472e-06
-0.000125166
1.17279e-06
-0.000125462
1.07755e-06
-0.000125718
9.73498e-07
-0.000125934
8.65323e-07
-0.000126112
7.64225e-07
-0.000126254
6.61586e-07
-0.000126353
5.45009e-07
-0.000126402
4.00484e-07
-0.000126398
2.53317e-07
-0.000126351
1.28729e-07
-0.000126268
2.08136e-08
-0.000126141
-1.0703e-07
-0.000125957
-2.72875e-07
-0.000125719
-4.3217e-07
-0.000125446
-5.42958e-07
-0.000125138
-6.41422e-07
-0.000124785
-7.80209e-07
-0.000124376
-9.49749e-07
-0.000123927
-1.07207e-06
-0.000123451
-1.15108e-06
-0.000122938
-1.26197e-06
-0.000122375
-1.41311e-06
-0.000121775
-1.53281e-06
-0.00012115
-1.6033e-06
-0.000120493
-1.69656e-06
-0.00011979
-1.8354e-06
-0.000119052
-1.94623e-06
-0.00011829
-2.01212e-06
-0.000117497
-2.10345e-06
-0.000116663
-2.23214e-06
-0.000115798
-2.32187e-06
-0.000114908
-2.39107e-06
-0.000113982
-2.50021e-06
-0.000113019
-2.6173e-06
-0.000112026
-2.69738e-06
-0.000110999
-2.80132e-06
-0.000109927
-2.93633e-06
-0.000108817
-3.05029e-06
-0.000107657
-3.19417e-06
-0.000106434
-3.3887e-06
-0.000105143
-3.58966e-06
-0.000103764
-3.84815e-06
-0.000102269
-4.19365e-06
-0.000100619
-4.65042e-06
-9.87549e-05
-5.2914e-06
-9.65903e-05
-6.18164e-06
-9.39954e-05
-7.46732e-06
-9.07706e-05
-9.35321e-06
-8.66034e-05
-1.21921e-05
-8.0985e-05
-1.6603e-05
-2.35167e-05
-0.000144065
1.52693e-06
-0.000144644
1.55694e-06
-0.000145249
1.62834e-06
-0.000145871
1.69791e-06
-0.000146504
1.74549e-06
-0.000147151
1.79625e-06
-0.000147811
1.84621e-06
-0.000148484
1.89458e-06
-0.000149171
1.9455e-06
-0.00014987
1.99397e-06
-0.000150579
2.04241e-06
-0.000151298
2.08567e-06
-0.000152027
2.12806e-06
-0.000152762
2.16826e-06
-0.000153507
2.21179e-06
-0.000154256
2.24527e-06
-0.00015501
2.27988e-06
-0.000155768
2.31116e-06
-0.000156529
2.33683e-06
-0.000157288
2.35863e-06
-0.000158044
2.37213e-06
-0.000158798
2.38659e-06
-0.000159548
2.39269e-06
-0.000160289
2.39606e-06
-0.000161021
2.38757e-06
-0.000161743
2.37903e-06
-0.00016245
2.35314e-06
-0.000163139
2.32845e-06
-0.000163812
2.29316e-06
-0.00016446
2.24871e-06
-0.000165089
2.19822e-06
-0.000165689
2.13677e-06
-0.000166258
2.0594e-06
-0.000166792
1.97369e-06
-0.000167289
1.87522e-06
-0.000167749
1.7756e-06
-0.000168171
1.66889e-06
-0.00016855
1.55209e-06
-0.000168881
1.40816e-06
-0.000169152
1.24444e-06
-0.000169369
1.08312e-06
-0.000169538
9.32969e-07
-0.000169656
7.79781e-07
-0.000169719
6.08051e-07
-0.000169712
3.93419e-07
-0.000169636
1.76572e-07
-0.000169503
-3.46371e-09
-0.000169324
-1.58902e-07
-0.000169084
-3.46704e-07
-0.000168769
-5.87728e-07
-0.000168388
-8.13567e-07
-0.000167954
-9.76551e-07
-0.00016748
-1.11512e-06
-0.000166943
-1.31802e-06
-0.000166334
-1.55868e-06
-0.000165671
-1.73483e-06
-0.000164972
-1.84964e-06
-0.000164227
-2.00736e-06
-0.000163414
-2.22565e-06
-0.000162551
-2.39647e-06
-0.000161654
-2.50012e-06
-0.000160713
-2.6372e-06
-0.000159713
-2.83595e-06
-0.000158663
-2.99546e-06
-0.000157582
-3.09306e-06
-0.000156457
-3.22926e-06
-0.000155275
-3.41398e-06
-0.000154052
-3.54502e-06
-0.000152794
-3.64867e-06
-0.000151485
-3.80952e-06
-0.000150124
-3.97792e-06
-0.000148725
-4.09627e-06
-0.000147276
-4.25079e-06
-0.000145766
-4.44605e-06
-0.000144202
-4.61398e-06
-0.000142573
-4.82343e-06
-0.000140854
-5.10784e-06
-0.000139041
-5.4022e-06
-0.000137109
-5.78083e-06
-0.000135015
-6.28762e-06
-0.000132708
-6.95684e-06
-0.000130104
-7.89572e-06
-0.000127088
-9.19736e-06
-0.00012348
-1.10757e-05
-0.000119007
-1.38255e-05
-0.000113247
-1.7953e-05
-0.000105514
-2.43356e-05
-3.42862e-05
-0.00019027
-0.000191078
-0.000191911
-0.00019277
2.55673e-06
-0.000193637
2.61233e-06
-0.000194516
2.67566e-06
-0.000195411
2.74151e-06
-0.000196317
2.8003e-06
-0.000197234
2.86214e-06
-0.000198161
2.92131e-06
-0.0001991
2.98097e-06
-0.000200045
3.03145e-06
-0.000200996
3.07885e-06
-0.000201952
3.12449e-06
-0.00020291
3.17014e-06
-0.000203876
3.21037e-06
-0.000204837
3.24124e-06
-0.000205798
3.27196e-06
-0.000206754
3.29292e-06
-0.000207706
3.3115e-06
-0.000208653
3.31817e-06
-0.000209587
3.32071e-06
-0.000210511
3.31663e-06
-0.000211421
3.30639e-06
-0.000212315
3.2823e-06
-0.000213187
3.25032e-06
-0.000214039
3.20583e-06
-0.000214868
3.15674e-06
-0.000215666
3.09178e-06
-0.000216436
3.01865e-06
-0.000217171
2.93322e-06
-0.00021787
2.83592e-06
-0.00021853
2.71938e-06
-0.00021914
2.5841e-06
-0.000219704
2.43855e-06
-0.000220216
2.28822e-06
-0.00022068
2.1321e-06
-0.00022109
1.96284e-06
-0.000221433
1.75092e-06
-0.000221707
1.51865e-06
-0.000221911
1.28707e-06
-0.000222051
1.07243e-06
-0.000222131
8.59972e-07
-0.000222139
6.16323e-07
-0.000222058
3.11968e-07
-0.000221892
1.10804e-08
-0.000221658
-2.37762e-07
-0.00022136
-4.56817e-07
-0.000220987
-7.19792e-07
-0.000220524
-1.05098e-06
-0.000219974
-1.36348e-06
-0.000219361
-1.58911e-06
-0.000218693
-1.78272e-06
-0.000217948
-2.06304e-06
-0.000217111
-2.39562e-06
-0.000216209
-2.63775e-06
-0.000215259
-2.79955e-06
-0.000214243
-3.02336e-06
-0.000213146
-3.32224e-06
-0.000211982
-3.56024e-06
-0.000210773
-3.70894e-06
-0.000209505
-3.90567e-06
-0.00020816
-4.18119e-06
-0.00020675
-4.40552e-06
-0.000205294
-4.54903e-06
-0.000203776
-4.74646e-06
-0.000202188
-5.0025e-06
-0.000200542
-5.19059e-06
-0.000198844
-5.34671e-06
-0.000197078
-5.57577e-06
-0.000195244
-5.81227e-06
-0.000193353
-5.98688e-06
-0.00019139
-6.21347e-06
-0.00018935
-6.48625e-06
-0.000187233
-6.73136e-06
-0.000185022
-7.03465e-06
-0.000182693
-7.43623e-06
-0.000180235
-7.86068e-06
-0.000177611
-8.40423e-06
-0.000174768
-9.13118e-06
-0.00017163
-1.00944e-05
-0.000168089
-1.14364e-05
-0.000163985
-1.33014e-05
-0.000159074
-1.59871e-05
-0.00015299
-1.99095e-05
-0.000145165
-2.57784e-05
-0.000134696
-3.48038e-05
-4.8786e-05
-0.000249553
3.64961e-06
-0.00025066
3.71902e-06
-0.000251778
3.79376e-06
-0.000252907
3.8711e-06
-0.000254045
3.9379e-06
-0.000255191
4.00862e-06
-0.000256344
4.07446e-06
-0.000257502
4.13866e-06
-0.000258661
4.1904e-06
-0.000259819
4.23693e-06
-0.00026098
4.28526e-06
-0.000262137
4.32764e-06
-0.000263291
4.36419e-06
-0.000264439
4.38979e-06
-0.000265578
4.41052e-06
-0.000266709
4.42437e-06
-0.000267829
4.43102e-06
-0.000268933
4.42189e-06
-0.000270022
4.40983e-06
-0.000271091
4.38636e-06
-0.000272141
4.35578e-06
-0.000273166
4.30782e-06
-0.000274166
4.25051e-06
-0.000275132
4.17158e-06
-0.000276067
4.0921e-06
-0.000276967
3.99096e-06
-0.00027783
3.88219e-06
-0.000278652
3.7547e-06
-0.000279427
3.61152e-06
-0.000280149
3.44153e-06
-0.000280817
3.25175e-06
-0.000281425
3.04683e-06
-0.000281973
2.83638e-06
-0.000282463
2.62172e-06
-0.000282888
2.38813e-06
-0.000283235
2.0976e-06
-0.000283495
1.77909e-06
-0.000283676
1.46751e-06
-0.000283782
1.1787e-06
-0.000283814
8.91779e-07
-0.000283759
5.61378e-07
-0.000283603
1.55735e-07
-0.000283346
-2.45706e-07
-0.000283002
-5.81176e-07
-0.000282589
-8.69734e-07
-0.000282084
-1.22486e-06
-0.00028147
-1.6655e-06
-0.00028075
-2.08337e-06
-0.00027996
-2.37919e-06
-0.0002791
-2.64262e-06
-0.000278142
-3.02096e-06
-0.000277077
-3.46026e-06
-0.00027593
-3.78499e-06
-0.00027472
-4.00998e-06
-0.000273431
-4.31184e-06
-0.000272038
-4.71536e-06
-0.000270562
-5.0362e-06
-0.000269025
-5.24563e-06
-0.000267412
-5.51854e-06
-0.0002657
-5.89321e-06
-0.000263905
-6.20054e-06
-0.000262047
-6.40729e-06
-0.000260107
-6.68696e-06
-0.000258072
-7.03665e-06
-0.00025596
-7.30303e-06
-0.000253775
-7.53162e-06
-0.000251499
-7.85224e-06
-0.000249132
-8.17854e-06
-0.00024668
-8.4392e-06
-0.000244139
-8.75482e-06
-0.000241486
-9.13928e-06
-0.000238725
-9.49233e-06
-0.000235836
-9.92362e-06
-0.00023279
-1.04819e-05
-0.000229565
-1.10861e-05
-0.00022611
-1.18584e-05
-0.000222358
-1.28839e-05
-0.000218205
-1.42474e-05
-0.000213502
-1.61395e-05
-0.000208033
-1.87698e-05
-0.000201469
-2.25514e-05
-0.000193325
-2.80534e-05
-0.000182846
-3.62574e-05
-0.000168865
-4.8785e-05
-6.80425e-05
-0.000316788
4.95773e-06
-0.000318121
5.05211e-06
-0.000319463
5.1353e-06
-0.000320804
5.21167e-06
-0.00032215
5.28486e-06
-0.000323495
5.3532e-06
-0.000324843
5.42278e-06
-0.000326188
5.48329e-06
-0.000327528
5.53061e-06
-0.000328864
5.57264e-06
-0.000330191
5.61257e-06
-0.000331512
5.6491e-06
-0.000332818
5.66956e-06
-0.000334115
5.68707e-06
-0.0003354
5.69516e-06
-0.000336665
5.6898e-06
-0.000337912
5.67845e-06
-0.000339138
5.64727e-06
-0.000340342
5.61397e-06
-0.000341524
5.56855e-06
-0.00034268
5.51157e-06
-0.000343803
5.43085e-06
-0.000344891
5.3392e-06
-0.000345946
5.2258e-06
-0.000346959
5.10515e-06
-0.000347933
4.96526e-06
-0.000348859
4.80828e-06
-0.000349739
4.63452e-06
-0.000350568
4.44075e-06
-0.000351336
4.20927e-06
-0.000352038
3.95438e-06
-0.000352673
3.68126e-06
-0.000353243
3.40637e-06
-0.000353747
3.12655e-06
-0.000354175
2.8162e-06
-0.000354515
2.43756e-06
-0.000354763
2.0263e-06
-0.000354912
1.61726e-06
-0.000354981
1.24749e-06
-0.000354966
8.77e-07
-0.000354855
4.49901e-07
-0.000354623
-7.61211e-08
-0.000354275
-5.93523e-07
-0.000353839
-1.01711e-06
-0.000353314
-1.39466e-06
-0.000352687
-1.85261e-06
-0.000351931
-2.42127e-06
-0.00035106
-2.9539e-06
-0.000350101
-3.33806e-06
-0.00034906
-3.6836e-06
-0.000347903
-4.17797e-06
-0.000346619
-4.74414e-06
-0.000345242
-5.162e-06
-0.000343788
-5.46451e-06
-0.00034223
-5.86971e-06
-0.000340554
-6.3917e-06
-0.000338774
-6.81541e-06
-0.000336917
-7.10271e-06
-0.00033496
-7.47548e-06
-0.000332882
-7.97179e-06
-0.000330701
-8.3812e-06
-0.000328432
-8.67612e-06
-0.000326062
-9.05747e-06
-0.000323567
-9.53099e-06
-0.000320971
-9.89899e-06
-0.000318276
-1.02274e-05
-0.00031546
-1.06683e-05
-0.000312521
-1.11174e-05
-0.000309473
-1.14873e-05
-0.000306294
-1.1934e-05
-0.000302968
-1.2465e-05
-0.000299496
-1.29646e-05
-0.000295847
-1.35718e-05
-0.000291985
-1.43446e-05
-0.000287877
-1.51937e-05
-0.000283458
-1.6277e-05
-0.000278628
-1.77139e-05
-0.000273253
-1.96231e-05
-0.00026713
-2.22625e-05
-0.000259966
-2.59333e-05
-0.000251326
-3.11911e-05
-0.000240561
-3.88188e-05
-0.00022669
-5.01283e-05
-0.000208224
-6.72508e-05
-9.3307e-05
-0.00039515
6.4624e-06
-0.000396679
6.58162e-06
-0.000398207
6.66362e-06
-0.000399733
6.73758e-06
-0.000401254
6.80566e-06
-0.00040277
6.86879e-06
-0.000404276
6.9296e-06
-0.000405772
6.97855e-06
-0.000407261
7.01952e-06
-0.000408733
7.0456e-06
-0.000410192
7.0712e-06
-0.000411637
7.09424e-06
-0.000413067
7.09975e-06
-0.000414478
7.09768e-06
-0.000415868
7.08499e-06
-0.000417238
7.06042e-06
-0.00041858
7.02039e-06
-0.000419899
6.9658e-06
-0.000421193
6.90837e-06
-0.000422454
6.82974e-06
-0.000423681
6.73828e-06
-0.000424877
6.62686e-06
-0.000426034
6.49602e-06
-0.000427148
6.34028e-06
-0.000428219
6.17553e-06
-0.000429241
5.98728e-06
-0.000430215
5.78235e-06
-0.000431135
5.55462e-06
-0.000431997
5.30328e-06
-0.000432796
5.00767e-06
-0.000433518
4.67629e-06
-0.000434167
4.33039e-06
-0.000434743
3.98316e-06
-0.000435246
3.62925e-06
-0.000435673
3.24303e-06
-0.000435999
2.76347e-06
-0.000436215
2.24217e-06
-0.000436335
1.73769e-06
-0.000436365
1.27691e-06
-0.0004363
8.12528e-07
-0.000436127
2.76826e-07
-0.000435821
-3.81628e-07
-0.000435397
-1.01811e-06
-0.000434866
-1.54811e-06
-0.000434239
-2.02118e-06
-0.000433492
-2.60026e-06
-0.000432603
-3.30981e-06
-0.000431591
-3.96628e-06
-0.000430479
-4.45008e-06
-0.000429266
-4.89643e-06
-0.000427922
-5.52178e-06
-0.000426438
-6.22805e-06
-0.000424843
-6.75686e-06
-0.000423154
-7.15418e-06
-0.000421343
-7.6802e-06
-0.000419395
-8.33959e-06
-0.000417328
-8.8826e-06
-0.00041516
-9.27066e-06
-0.000412871
-9.7647e-06
-0.000410437
-1.04051e-05
-0.000407879
-1.09396e-05
-0.000405208
-1.13472e-05
-0.000402402
-1.18637e-05
-0.00039945
-1.24828e-05
-0.000396364
-1.29844e-05
-0.000393149
-1.34425e-05
-0.000389777
-1.40405e-05
-0.00038625
-1.46445e-05
-0.000382574
-1.51637e-05
-0.000378722
-1.57856e-05
-0.000374681
-1.65062e-05
-0.00037044
-1.72059e-05
-0.000365956
-1.80549e-05
-0.000361189
-1.91121e-05
-0.000356085
-2.02978e-05
-0.000350556
-2.18057e-05
-0.000344466
-2.38041e-05
-0.000337631
-2.64585e-05
-0.000329778
-3.0115e-05
-0.000320513
-3.51981e-05
-0.000309252
-4.24529e-05
-0.000295151
-5.29192e-05
-0.000276953
-6.83267e-05
-0.000252801
-9.14024e-05
-0.000126072
-0.000485649
8.14439e-06
-0.000487352
8.2844e-06
-0.000489044
8.35566e-06
-0.000490723
8.41749e-06
-0.000492391
8.47357e-06
-0.000494048
8.52506e-06
-0.000495692
8.57383e-06
-0.000497318
8.60458e-06
-0.000498921
8.62287e-06
-0.000500508
8.63246e-06
-0.000502079
8.64258e-06
-0.000503627
8.64228e-06
-0.000505154
8.627e-06
-0.000506653
8.59583e-06
-0.000508131
8.56376e-06
-0.000509579
8.50785e-06
-0.000511003
8.44441e-06
-0.000512394
8.35732e-06
-0.00051375
8.26423e-06
-0.000515076
8.15566e-06
-0.000516367
8.0293e-06
-0.000517613
7.87284e-06
-0.000518819
7.70195e-06
-0.000519978
7.4997e-06
-0.000521086
7.28312e-06
-0.000522145
7.04613e-06
-0.000523148
6.78583e-06