# Force       
# CofR        : (0.000000e+00 0.000000e+00 0.000000e+00)
#
# Time        	total_x total_y total_z	pressure_x pressure_y pressure_z	viscous_x viscous_y viscous_z
221            1.340331e+01 5.000113e+02 5.159501e-19 9.831407e+00 4.999303e+02 1.820581e-19 3.571899e+00 8.095289e-02 3.338920e-19
222            1.340916e+01 5.003731e+02 5.162973e-19 9.835777e+00 5.002935e+02 1.817787e-19 3.573378e+00 7.956595e-02 3.345186e-19
223            1.340054e+01 5.006396e+02 5.169579e-19 9.822256e+00 5.005597e+02 1.813514e-19 3.578284e+00 7.996051e-02 3.356066e-19
224            1.339909e+01 5.009383e+02 5.172611e-19 9.819224e+00 5.008597e+02 1.810771e-19 3.579865e+00 7.854965e-02 3.361840e-19
225            1.340206e+01 5.012262e+02 5.174754e-19 9.817206e+00 5.011474e+02 1.808171e-19 3.584858e+00 7.888658e-02 3.366583e-19
226            1.339710e+01 5.015054e+02 5.179859e-19 9.810741e+00 5.014279e+02 1.804745e-19 3.586355e+00 7.751092e-02 3.375114e-19
227            1.340022e+01 5.017845e+02 5.181923e-19 9.808937e+00 5.017066e+02 1.802120e-19 3.591287e+00 7.783453e-02 3.379803e-19
228            1.339827e+01 5.020660e+02 5.187137e-19 9.805531e+00 5.019895e+02 1.799072e-19 3.592734e+00 7.645779e-02 3.388065e-19
229            1.340128e+01 5.023397e+02 5.189052e-19 9.803650e+00 5.022629e+02 1.796552e-19 3.597634e+00 7.675487e-02 3.392500e-19
230            1.340059e+01 5.026258e+02 5.194523e-19 9.801624e+00 5.025504e+02 1.793726e-19 3.598967e+00 7.542857e-02 3.400798e-19
231            1.340641e+01 5.029127e+02 5.196704e-19 9.802554e+00 5.028370e+02 1.791617e-19 3.603853e+00 7.572773e-02 3.405086e-19
232            1.340248e+01 5.031924e+02 5.202095e-19 9.797513e+00 5.031180e+02 1.788454e-19 3.604966e+00 7.438545e-02 3.413640e-19
233            1.340781e+01 5.034812e+02 5.204158e-19 9.797972e+00 5.034064e+02 1.786327e-19 3.609834e+00 7.473995e-02 3.417832e-19
234            1.340519e+01 5.037712e+02 5.209727e-19 9.794491e+00 5.036978e+02 1.783435e-19 3.610695e+00 7.339746e-02 3.426293e-19
235            1.341052e+01 5.040651e+02 5.211806e-19 9.794858e+00 5.039914e+02 1.781345e-19 3.615666e+00 7.377494e-02 3.430460e-19
236            1.340747e+01 5.043608e+02 5.217624e-19 9.791087e+00 5.042884e+02 1.778282e-19 3.616384e+00 7.247397e-02 3.439342e-19
237            1.341145e+01 5.046514e+02 5.219117e-19 9.790143e+00 5.045786e+02 1.776220e-19 3.621307e+00 7.280204e-02 3.442896e-19
238            1.340790e+01 5.049488e+02 5.224986e-19 9.785945e+00 5.048773e+02 1.773173e-19 3.621960e+00 7.153061e-02 3.451814e-19
239            1.341146e+01 5.052431e+02 5.226693e-19 9.784648e+00 5.051712e+02 1.770969e-19 3.626810e+00 7.189523e-02 3.455724e-19
240            1.340668e+01 5.055354e+02 5.231994e-19 9.779310e+00 5.054648e+02 1.767923e-19 3.627370e+00 7.058964e-02 3.464071e-19
241            1.340986e+01 5.058301e+02 5.233729e-19 9.777791e+00 5.057591e+02 1.765732e-19 3.632072e+00 7.098381e-02 3.467997e-19
242            1.340476e+01 5.061224e+02 5.238934e-19 9.772097e+00 5.060527e+02 1.762661e-19 3.632666e+00 6.970390e-02 3.476273e-19
243            1.340736e+01 5.064161e+02 5.240591e-19 9.770140e+00 5.063460e+02 1.760418e-19 3.637220e+00 7.010817e-02 3.480172e-19
244            1.340220e+01 5.067094e+02 5.246030e-19 9.764349e+00 5.066405e+02 1.757143e-19 3.637853e+00 6.890776e-02 3.488887e-19
245            1.340383e+01 5.069978e+02 5.247433e-19 9.761556e+00 5.069286e+02 1.754805e-19 3.642272e+00 6.923440e-02 3.492629e-19
246            1.339801e+01 5.072834e+02 5.252383e-19 9.755106e+00 5.072153e+02 1.751581e-19 3.642907e+00 6.805998e-02 3.500803e-19
247            1.339972e+01 5.075703e+02 5.253855e-19 9.752558e+00 5.075019e+02 1.749302e-19 3.647161e+00 6.841554e-02 3.504553e-19
248            1.339401e+01 5.078544e+02 5.258797e-19 9.746182e+00 5.077871e+02 1.746081e-19 3.647826e+00 6.726105e-02 3.512716e-19
249            1.339560e+01 5.081393e+02 5.260225e-19 9.743629e+00 5.080716e+02 1.743797e-19 3.651967e+00 6.763458e-02 3.516428e-19
250            1.338984e+01 5.084211e+02 5.265139e-19 9.737243e+00 5.083547e+02 1.740564e-19 3.652592e+00 6.648984e-02 3.524575e-19
251            1.339140e+01 5.087037e+02 5.266525e-19 9.734706e+00 5.086368e+02 1.738277e-19 3.656698e+00 6.688411e-02 3.528248e-19
252            1.338560e+01 5.089830e+02 5.271411e-19 9.728351e+00 5.089173e+02 1.735045e-19 3.657248e+00 6.575039e-02 3.536366e-19
253            1.338724e+01 5.092631e+02 5.272764e-19 9.725891e+00 5.091969e+02 1.732767e-19 3.661346e+00 6.616301e-02 3.539997e-19
254            1.338174e+01 5.095413e+02 5.277951e-19 9.720008e+00 5.094762e+02 1.729421e-19 3.661730e+00 6.511411e-02 3.548530e-19
255            1.338294e+01 5.098141e+02 5.279102e-19 9.717070e+00 5.097487e+02 1.727108e-19 3.665873e+00 6.540354e-02 3.551994e-19
256            1.337672e+01 5.100837e+02 5.283829e-19 9.710751e+00 5.100194e+02 1.723852e-19 3.665973e+00 6.438619e-02 3.559977e-19
257            1.337877e+01 5.103548e+02 5.285081e-19 9.708461e+00 5.102901e+02 1.721658e-19 3.670312e+00 6.472170e-02 3.563423e-19
258            1.337258e+01 5.106226e+02 5.289802e-19 9.702514e+00 5.105589e+02 1.718471e-19 3.670064e+00 6.370479e-02 3.571331e-19
259            1.337496e+01 5.108916e+02 5.291062e-19 9.700442e+00 5.108276e+02 1.716320e-19 3.674519e+00 6.404120e-02 3.574743e-19
260            1.336878e+01 5.111573e+02 5.295724e-19 9.694645e+00 5.110943e+02 1.713171e-19 3.674137e+00 6.306198e-02 3.582553e-19
261            1.337130e+01 5.114241e+02 5.296976e-19 9.692697e+00 5.113607e+02 1.711055e-19 3.678600e+00 6.339202e-02 3.585922e-19
262            1.336513e+01 5.116874e+02 5.301580e-19 9.687025e+00 5.116250e+02 1.707947e-19 3.678100e+00 6.243644e-02 3.593632e-19
263            1.336782e+01 5.119518e+02 5.302813e-19 9.685202e+00 5.118890e+02 1.705870e-19 3.682615e+00 6.277575e-02 3.596944e-19
264            1.336163e+01 5.122127e+02 5.307359e-19 9.679626e+00 5.121509e+02 1.702803e-19 3.682003e+00 6.183893e-02 3.604556e-19
265            1.336438e+01 5.124745e+02 5.308563e-19 9.677887e+00 5.124124e+02 1.700759e-19 3.686490e+00 6.217690e-02 3.607804e-19
266            1.335825e+01 5.127329e+02 5.313052e-19 9.672381e+00 5.126716e+02 1.697728e-19 3.685865e+00 6.126604e-02 3.615324e-19
267            1.336234e+01 5.129971e+02 5.314303e-19 9.672047e+00 5.129355e+02 1.695916e-19 3.690288e+00 6.160347e-02 3.618387e-19
268            1.335517e+01 5.132498e+02 5.318738e-19 9.665481e+00 5.131891e+02 1.692737e-19 3.689690e+00 6.069849e-02 3.626001e-19
269            1.335880e+01 5.135104e+02 5.319877e-19 9.664916e+00 5.134494e+02 1.690913e-19 3.693887e+00 6.103892e-02 3.628964e-19
270            1.335181e+01 5.137603e+02 5.324248e-19 9.658363e+00 5.137001e+02 1.687757e-19 3.693442e+00 6.015835e-02 3.636491e-19
271            1.335517e+01 5.140180e+02 5.325339e-19 9.657789e+00 5.139575e+02 1.685960e-19 3.697385e+00 6.050015e-02 3.639379e-19
272            1.334833e+01 5.142649e+02 5.329642e-19 9.651232e+00 5.142052e+02 1.682825e-19 3.697101e+00 5.964128e-02 3.646817e-19
273            1.335140e+01 5.145194e+02 5.330691e-19 9.650616e+00 5.144594e+02 1.681052e-19 3.700786e+00 5.997847e-02 3.649639e-19
274            1.334474e+01 5.147631e+02 5.334942e-19 9.644046e+00 5.147040e+02 1.677932e-19 3.700691e+00 5.914378e-02 3.657010e-19
275            1.334753e+01 5.150143e+02 5.335914e-19 9.643394e+00 5.149548e+02 1.676191e-19 3.704140e+00 5.949118e-02 3.659723e-19
276            1.334088e+01 5.152547e+02 5.340141e-19 9.636807e+00 5.151961e+02 1.673086e-19 3.704075e+00 5.863861e-02 3.667055e-19
277            1.334350e+01 5.155025e+02 5.341021e-19 9.636125e+00 5.154435e+02 1.671373e-19 3.707378e+00 5.901101e-02 3.669648e-19
278            1.333694e+01 5.157396e+02 5.345225e-19 9.629557e+00 5.156815e+02 1.668291e-19 3.707380e+00 5.816278e-02 3.676933e-19
279            1.333934e+01 5.159840e+02 5.346034e-19 9.628884e+00 5.159255e+02 1.666611e-19 3.710455e+00 5.853301e-02 3.679423e-19
280            1.333299e+01 5.162179e+02 5.350218e-19 9.622378e+00 5.161602e+02 1.663559e-19 3.710614e+00 5.770511e-02 3.686659e-19
281            1.333397e+01 5.164541e+02 5.350903e-19 9.620531e+00 5.163960e+02 1.661738e-19 3.713442e+00 5.808057e-02 3.689165e-19
282            1.332871e+01 5.166877e+02 5.355066e-19 9.615106e+00 5.166305e+02 1.658877e-19 3.713607e+00 5.725646e-02 3.696189e-19
283            1.333005e+01 5.169215e+02 5.355745e-19 9.613564e+00 5.168638e+02 1.657123e-19 3.716486e+00 5.766750e-02 3.698622e-19
284            1.332462e+01 5.171517e+02 5.359902e-19 9.608194e+00 5.170949e+02 1.654297e-19 3.716421e+00 5.682092e-02 3.705604e-19
285            1.332617e+01 5.173822e+02 5.360535e-19 9.606706e+00 5.173250e+02 1.652572e-19 3.719464e+00 5.725653e-02 3.707963e-19
286            1.332064e+01 5.176094e+02 5.364663e-19 9.601427e+00 5.175529e+02 1.649780e-19 3.719214e+00 5.641752e-02 3.714884e-19
287            1.332235e+01 5.178367e+02 5.365258e-19 9.600026e+00 5.177798e+02 1.648086e-19 3.722322e+00 5.685587e-02 3.717172e-19
288            1.331683e+01 5.180607e+02 5.369357e-19 9.594842e+00 5.180046e+02 1.645331e-19 3.721985e+00 5.603264e-02 3.724026e-19
289            1.331867e+01 5.182849e+02 5.369915e-19 9.593544e+00 5.182284e+02 1.643671e-19 3.725122e+00 5.647642e-02 3.726243e-19
290            1.331313e+01 5.185059e+02 5.373985e-19 9.588457e+00 5.184502e+02 1.640955e-19 3.724676e+00 5.566029e-02 3.733030e-19
291            1.331518e+01 5.187273e+02 5.374507e-19 9.587295e+00 5.186712e+02 1.639332e-19 3.727888e+00 5.611609e-02 3.735175e-19
292            1.330962e+01 5.189453e+02 5.378550e-19 9.582304e+00 5.188900e+02 1.636652e-19 3.727314e+00 5.530487e-02 3.741897e-19
293            1.331187e+01 5.191639e+02 5.379030e-19 9.581238e+00 5.191081e+02 1.635065e-19 3.730631e+00 5.577305e-02 3.743965e-19
294            1.330618e+01 5.193789e+02 5.383047e-19 9.576332e+00 5.193240e+02 1.632420e-19 3.729851e+00 5.496302e-02 3.750627e-19
295            1.330865e+01 5.195947e+02 5.383486e-19 9.575360e+00 5.195393e+02 1.630867e-19 3.733293e+00 5.543809e-02 3.752619e-19
296            1.330286e+01 5.198069e+02 5.387477e-19 9.570550e+00 5.197523e+02 1.628260e-19 3.732314e+00 5.464044e-02 3.759218e-19
297            1.330531e+01 5.200198e+02 5.387876e-19 9.569666e+00 5.199647e+02 1.626735e-19 3.735645e+00 5.508914e-02 3.761141e-19
298            1.329976e+01 5.202293e+02 5.391837e-19 9.564934e+00 5.201750e+02 1.624163e-19 3.734828e+00 5.433496e-02 3.767674e-19
299            1.330196e+01 5.204393e+02 5.392186e-19 9.564106e+00 5.203845e+02 1.622664e-19 3.737856e+00 5.476321e-02 3.769522e-19
300            1.329664e+01 5.206459e+02 5.396124e-19 9.559424e+00 5.205919e+02 1.620120e-19 3.737212e+00 5.401700e-02 3.776003e-19
301            1.329876e+01 5.208530e+02 5.396417e-19 9.558643e+00 5.207985e+02 1.618648e-19 3.740118e+00 5.447082e-02 3.777769e-19
302            1.329348e+01 5.210568e+02 5.400333e-19 9.554012e+00 5.210031e+02 1.616130e-19 3.739467e+00 5.370867e-02 3.784203e-19
303            1.329564e+01 5.212611e+02 5.400567e-19 9.553268e+00 5.212069e+02 1.614685e-19 3.742377e+00 5.419067e-02 3.785882e-19
304            1.329059e+01 5.214628e+02 5.404627e-19 9.548949e+00 5.214093e+02 1.612051e-19 3.741636e+00 5.351867e-02 3.792576e-19
305            1.329218e+01 5.216594e+02 5.404484e-19 9.547519e+00 5.216055e+02 1.610684e-19 3.744657e+00 5.388717e-02 3.793799e-19
306            1.328727e+01 5.218587e+02 5.408584e-19 9.543504e+00 5.218054e+02 1.608138e-19 3.743770e+00 5.324506e-02 3.800445e-19
307            1.328908e+01 5.220530e+02 5.408444e-19 9.542283e+00 5.219994e+02 1.606827e-19 3.746795e+00 5.360236e-02 3.801616e-19
308            1.328428e+01 5.222498e+02 5.412486e-19 9.538335e+00 5.221968e+02 1.604308e-19 3.745947e+00 5.299395e-02 3.808178e-19
309            1.328620e+01 5.224422e+02 5.412507e-19 9.537366e+00 5.223889e+02 1.602938e-19 3.748832e+00 5.326355e-02 3.809569e-19
310            1.328083e+01 5.226318e+02 5.416193e-19 9.532821e+00 5.225790e+02 1.600448e-19 3.748011e+00 5.274361e-02 3.815745e-19
311            1.328293e+01 5.228219e+02 5.416240e-19 9.532165e+00 5.227689e+02 1.599159e-19 3.750763e+00 5.302691e-02 3.817081e-19
312            1.327776e+01 5.230093e+02 5.419917e-19 9.527802e+00 5.229569e+02 1.596718e-19 3.749961e+00 5.249360e-02 3.823199e-19
313            1.327983e+01 5.231968e+02 5.419772e-19 9.527137e+00 5.231439e+02 1.595566e-19 3.752691e+00 5.287867e-02 3.824207e-19
314            1.327520e+01 5.233861e+02 5.423724e-19 9.523366e+00 5.233339e+02 1.593137e-19 3.751834e+00 5.225405e-02 3.830587e-19
315            1.327725e+01 5.235713e+02 5.423640e-19 9.522579e+00 5.235187e+02 1.591860e-19 3.754676e+00 5.260342e-02 3.831780e-19
316            1.327159e+01 5.237532e+02 5.427255e-19 9.518134e+00 5.237012e+02 1.589448e-19 3.753454e+00 5.201870e-02 3.837807e-19
317            1.327427e+01 5.239358e+02 5.427174e-19 9.517583e+00 5.238834e+02 1.588237e-19 3.756684e+00 5.239734e-02 3.838937e-19
318            1.326835e+01 5.241152e+02 5.430776e-19 9.513311e+00 5.240634e+02 1.585885e-19 3.755044e+00 5.182412e-02 3.844891e-19
319            1.327130e+01 5.242951e+02 5.430548e-19 9.512815e+00 5.242428e+02 1.584798e-19 3.758486e+00 5.225134e-02 3.845750e-19
320            1.326580e+01 5.244760e+02 5.434347e-19 9.509067e+00 5.244243e+02 1.582460e-19 3.756731e+00 5.163763e-02 3.851886e-19
321            1.326859e+01 5.246531e+02 5.434202e-19 9.508375e+00 5.246012e+02 1.581244e-19 3.760218e+00 5.193715e-02 3.852958e-19
322            1.326243e+01 5.248270e+02 5.437649e-19 9.504043e+00 5.247755e+02 1.578920e-19 3.758385e+00 5.146884e-02 3.858730e-19
323            1.326548e+01 5.250014e+02 5.437537e-19 9.503599e+00 5.249497e+02 1.577773e-19 3.761882e+00 5.174515e-02 3.859765e-19
324            1.325944e+01 5.251729e+02 5.440958e-19 9.499430e+00 5.251216e+02 1.575491e-19 3.760010e+00 5.129754e-02 3.865467e-19
325            1.326258e+01 5.253447e+02 5.440823e-19 9.499069e+00 5.252931e+02 1.574374e-19 3.763512e+00 5.157086e-02 3.866449e-19
326            1.325652e+01 5.255136e+02 5.444209e-19 9.494945e+00 5.254625e+02 1.572116e-19 3.761572e+00 5.113637e-02 3.872093e-19
327            1.325969e+01 5.256828e+02 5.444041e-19 9.494614e+00 5.256314e+02 1.571021e-19 3.765075e+00 5.140080e-02 3.873020e-19
328            1.325364e+01 5.258491e+02 5.447400e-19 9.490515e+00 5.257981e+02 1.568786e-19 3.763120e+00 5.098830e-02 3.878615e-19
329            1.325673e+01 5.260156e+02 5.447195e-19 9.490198e+00 5.259644e+02 1.567709e-19 3.766527e+00 5.123386e-02 3.879486e-19
330            1.325083e+01 5.261793e+02 5.450525e-19 9.486125e+00 5.261285e+02 1.565497e-19 3.764709e+00 5.084978e-02 3.885027e-19
331            1.325373e+01 5.263432e+02 5.450282e-19 9.485848e+00 5.262921e+02 1.564445e-19 3.767881e+00 5.108275e-02 3.885837e-19
332            1.324804e+01 5.265042e+02 5.453593e-19 9.481787e+00 5.264535e+02 1.562254e-19 3.766253e+00 5.070509e-02 3.891339e-19
333            1.325075e+01 5.266655e+02 5.453294e-19 9.481528e+00 5.266145e+02 1.561224e-19 3.769221e+00 5.095464e-02 3.892070e-19
334            1.324512e+01 5.268238e+02 5.456594e-19 9.477483e+00 5.267733e+02 1.559056e-19 3.767633e+00 5.054740e-02 3.897538e-19
335            1.324778e+01 5.269824e+02 5.456244e-19 9.477245e+00 5.269316e+02 1.558047e-19 3.770535e+00 5.082297e-02 3.898197e-19
336            1.324223e+01 5.271381e+02 5.459518e-19 9.473219e+00 5.270877e+02 1.555900e-19 3.769008e+00 5.041330e-02 3.903618e-19
337            1.324484e+01 5.272942e+02 5.459136e-19 9.473024e+00 5.272435e+02 1.554915e-19 3.771820e+00 5.069897e-02 3.904221e-19
338            1.323857e+01 5.274441e+02 5.462353e-19 9.468188e+00 5.273938e+02 1.552691e-19 3.770381e+00 5.029393e-02 3.909662e-19
339            1.324169e+01 5.275992e+02 5.461918e-19 9.468673e+00 5.275486e+02 1.551817e-19 3.773020e+00 5.059046e-02 3.910101e-19
340            1.323576e+01 5.277471e+02 5.465143e-19 9.464038e+00 5.276969e+02 1.549640e-19 3.771727e+00 5.017901e-02 3.915503e-19
341            1.323874e+01 5.278996e+02 5.464687e-19 9.464547e+00 5.278491e+02 1.548785e-19 3.774191e+00 5.049644e-02 3.915902e-19
342            1.323288e+01 5.280450e+02 5.467874e-19 9.459940e+00 5.279949e+02 1.546633e-19 3.772941e+00 5.005328e-02 3.921241e-19
343            1.323582e+01 5.281948e+02 5.467400e-19 9.460459e+00 5.281444e+02 1.545796e-19 3.775361e+00 5.040453e-02 3.921604e-19
344            1.322999e+01 5.283376e+02 5.470542e-19 9.455889e+00 5.282877e+02 1.543667e-19 3.774101e+00 4.994355e-02 3.926874e-19
345            1.323297e+01 5.284849e+02 5.470052e-19 9.456427e+00 5.284346e+02 1.542854e-19 3.776539e+00 5.031587e-02 3.927199e-19
346            1.322707e+01 5.286252e+02 5.473149e-19 9.451889e+00 5.285754e+02 1.540744e-19 3.775182e+00 4.984315e-02 3.932404e-19
347            1.323015e+01 5.287700e+02 5.472640e-19 9.452430e+00 5.287198e+02 1.539950e-19 3.777723e+00 5.022923e-02 3.932690e-19
348            1.322420e+01 5.289078e+02 5.475691e-19 9.447922e+00 5.288581e+02 1.537861e-19 3.776276e+00 4.976259e-02 3.937830e-19
349            1.322732e+01 5.290500e+02 5.475168e-19 9.448463e+00 5.289999e+02 1.537084e-19 3.778852e+00 5.014310e-02 3.938083e-19
350            1.322140e+01 5.291856e+02 5.478172e-19 9.444002e+00 5.291359e+02 1.535016e-19 3.777402e+00 4.969440e-02 3.943156e-19
351            1.322440e+01 5.293252e+02 5.477637e-19 9.444544e+00 5.292752e+02 1.534256e-19 3.779860e+00 5.006169e-02 3.943381e-19
352            1.321856e+01 5.294583e+02 5.480593e-19 9.440094e+00 5.294087e+02 1.532205e-19 3.778466e+00 4.961907e-02 3.948389e-19
353            1.322152e+01 5.295955e+02 5.480038e-19 9.440648e+00 5.295455e+02 1.531464e-19 3.780869e+00 4.999512e-02 3.948575e-19
354            1.321581e+01 5.297260e+02 5.483041e-19 9.436329e+00 5.296763e+02 1.529308e-19 3.779481e+00 4.970496e-02 3.953733e-19
355            1.321835e+01 5.298568e+02 5.482355e-19 9.436477e+00 5.298071e+02 1.528575e-19 3.781868e+00 4.973916e-02 3.953780e-19
356            1.321240e+01 5.299821e+02 5.485206e-19 9.431933e+00 5.299325e+02 1.526488e-19 3.780471e+00 4.964779e-02 3.958718e-19
357            1.321527e+01 5.301112e+02 5.484521e-19 9.432408e+00 5.300615e+02 1.525841e-19 3.782859e+00 4.969555e-02 3.958680e-19
358            1.320938e+01 5.302348e+02 5.487409e-19 9.428066e+00 5.301853e+02 1.523792e-19 3.781314e+00 4.956094e-02 3.963618e-19
359            1.321247e+01 5.303625e+02 5.486552e-19 9.428561e+00 5.303127e+02 1.523254e-19 3.783905e+00 4.978175e-02 3.963297e-19
360            1.320676e+01 5.304873e+02 5.489660e-19 9.424653e+00 5.304378e+02 1.521218e-19 3.782111e+00 4.949090e-02 3.968442e-19
361            1.320997e+01 5.306123e+02 5.488812e-19 9.424977e+00 5.305628e+02 1.520582e-19 3.784991e+00 4.954751e-02 3.968230e-19
362            1.320345e+01 5.307316e+02 5.491681e-19 9.420548e+00 5.306821e+02 1.518552e-19 3.782902e+00 4.950647e-02 3.973128e-19
363            1.320670e+01 5.308547e+02 5.490747e-19 9.420975e+00 5.308051e+02 1.518047e-19 3.785730e+00 4.960510e-02 3.972700e-19
364            1.320087e+01 5.309750e+02 5.493787e-19 9.417024e+00 5.309256e+02 1.516047e-19 3.783844e+00 4.943929e-02 3.977740e-19
365            1.320381e+01 5.310953e+02 5.492880e-19 9.417301e+00 5.310459e+02 1.515448e-19 3.786508e+00 4.938755e-02 3.977432e-19
366            1.319750e+01 5.312102e+02 5.495699e-19 9.412900e+00 5.311608e+02 1.513461e-19 3.784596e+00 4.940597e-02 3.982238e-19
367            1.320064e+01 5.313282e+02 5.494790e-19 9.413339e+00 5.312788e+02 1.512914e-19 3.787305e+00 4.935951e-02 3.981876e-19
368            1.319440e+01 5.314411e+02 5.497612e-19 9.409067e+00 5.313917e+02 1.510965e-19 3.785336e+00 4.936631e-02 3.986647e-19
369            1.319769e+01 5.315577e+02 5.496603e-19 9.409608e+00 5.315082e+02 1.510525e-19 3.788084e+00 4.948561e-02 3.986078e-19
370            1.319183e+01 5.316711e+02 5.499572e-19 9.405704e+00 5.316218e+02 1.508589e-19 3.786127e+00 4.930447e-02 3.990983e-19
371            1.319486e+01 5.317847e+02 5.498601e-19 9.406012e+00 5.317354e+02 1.508047e-19 3.788845e+00 4.927237e-02 3.990553e-19
372            1.318850e+01 5.318930e+02 5.501334e-19 9.401692e+00 5.318437e+02 1.506124e-19 3.786813e+00 4.929915e-02 3.995210e-19
373            1.319173e+01 5.320042e+02 5.500389e-19 9.402159e+00 5.319550e+02 1.505630e-19 3.789572e+00 4.924605e-02 3.994760e-19
374            1.318554e+01 5.321107e+02 5.503099e-19 9.397981e+00 5.320614e+02 1.503746e-19 3.787558e+00 4.927750e-02 3.999352e-19
375            1.318879e+01 5.322198e+02 5.502145e-19 9.398492e+00 5.321706e+02 1.503276e-19 3.790296e+00 4.922757e-02 3.998870e-19
376            1.318270e+01 5.323241e+02 5.504824e-19 9.394350e+00 5.322749e+02 1.501414e-19 3.788348e+00 4.925974e-02 4.003409e-19
377            1.318593e+01 5.324319e+02 5.503788e-19 9.394954e+00 5.323825e+02 1.501037e-19 3.790975e+00 4.937560e-02 4.002751e-19
378            1.318023e+01 5.325364e+02 5.506591e-19 9.391086e+00 5.324872e+02 1.499183e-19 3.789148e+00 4.920477e-02 4.007408e-19
379            1.318312e+01 5.326411e+02 5.505577e-19 9.391425e+00 5.325919e+02 1.498720e-19 3.791692e+00 4.920220e-02 4.006857e-19
380            1.317697e+01 5.327409e+02 5.508178e-19 9.387195e+00 5.326917e+02 1.496874e-19 3.789773e+00 4.921110e-02 4.011304e-19
381            1.317996e+01 5.328433e+02 5.507176e-19 9.387675e+00 5.327941e+02 1.496457e-19 3.792288e+00 4.918773e-02 4.010719e-19
382            1.317401e+01 5.329413e+02 5.509763e-19 9.383580e+00 5.328921e+02 1.494651e-19 3.790432e+00 4.919968e-02 4.015112e-19
383            1.317697e+01 5.330416e+02 5.508748e-19 9.384105e+00 5.329924e+02 1.494255e-19 3.792865e+00 4.918301e-02 4.014493e-19
384            1.317110e+01 5.331376e+02 5.511318e-19 9.380053e+00 5.330884e+02 1.492474e-19 3.791047e+00 4.917694e-02 4.018844e-19
385            1.317398e+01 5.332358e+02 5.510285e-19 9.380595e+00 5.331867e+02 1.492096e-19 3.793381e+00 4.917135e-02 4.018189e-19
386            1.316831e+01 5.333298e+02 5.512844e-19 9.376567e+00 5.332807e+02 1.490335e-19 3.791742e+00 4.916526e-02 4.022510e-19
387            1.317098e+01 5.334262e+02 5.511790e-19 9.377136e+00 5.333770e+02 1.489977e-19 3.793846e+00 4.917165e-02 4.021813e-19
388            1.316555e+01 5.335182e+02 5.514337e-19 9.373130e+00 5.334691e+02 1.488234e-19 3.792417e+00 4.914075e-02 4.026103e-19
389            1.316806e+01 5.336126e+02 5.513249e-19 9.373708e+00 5.335634e+02 1.487895e-19 3.794353e+00 4.918758e-02 4.025353e-19
390            1.316223e+01 5.337006e+02 5.515786e-19 9.369194e+00 5.336515e+02 1.486119e-19 3.793032e+00 4.911284e-02 4.029667e-19
391            1.316512e+01 5.337940e+02 5.514628e-19 9.370196e+00 5.337448e+02 1.485849e-19 3.794920e+00 4.921298e-02 4.028779e-19
392            1.315936e+01 5.338805e+02 5.517202e-19 9.365823e+00 5.338314e+02 1.484109e-19 3.793532e+00 4.908764e-02 4.033093e-19
393            1.316235e+01 5.339721e+02 5.516002e-19 9.366857e+00 5.339229e+02 1.483858e-19 3.795495e+00 4.921699e-02 4.032144e-19
394            1.315668e+01 5.340564e+02 5.518633e-19 9.362681e+00 5.340071e+02 1.482052e-19 3.793998e+00 4.930922e-02 4.036580e-19
395            1.315939e+01 5.341432e+02 5.517248e-19 9.363299e+00 5.340940e+02 1.481860e-19 3.796088e+00 4.915043e-02 4.035389e-19
396            1.315384e+01 5.342258e+02 5.519928e-19 9.359286e+00 5.341765e+02 1.480122e-19 3.794555e+00 4.930146e-02 4.039806e-19
397            1.315672e+01 5.343103e+02 5.518595e-19 9.360170e+00 5.342614e+02 1.479914e-19 3.796552e+00 4.891183e-02 4.038681e-19
398            1.315081e+01 5.343892e+02 5.521139e-19 9.355873e+00 5.343399e+02 1.478195e-19 3.794936e+00 4.931938e-02 4.042943e-19
399            1.315381e+01 5.344729e+02 5.519744e-19 9.356783e+00 5.344237e+02 1.478078e-19 3.797032e+00 4.914978e-02 4.041667e-19
400            1.314836e+01 5.345529e+02 5.522435e-19 9.352994e+00 5.345036e+02 1.476402e-19 3.795362e+00 4.928018e-02 4.046033e-19
401            1.315163e+01 5.346344e+02 5.521068e-19 9.353954e+00 5.345855e+02 1.476233e-19 3.797672e+00 4.891335e-02 4.044835e-19
402            1.314540e+01 5.347106e+02 5.523602e-19 9.349760e+00 5.346612e+02 1.474558e-19 3.795644e+00 4.934271e-02 4.049044e-19
403            1.314900e+01 5.347911e+02 5.522162e-19 9.350690e+00 5.347420e+02 1.474473e-19 3.798305e+00 4.914463e-02 4.047689e-19
404            1.314298e+01 5.348681e+02 5.524848e-19 9.346936e+00 5.348187e+02 1.472834e-19 3.796047e+00 4.935325e-02 4.052014e-19
405            1.314641e+01 5.349447e+02 5.523403e-19 9.347474e+00 5.348959e+02 1.472626e-19 3.798934e+00 4.884707e-02 4.050777e-19
406            1.313993e+01 5.350187e+02 5.525926e-19 9.343614e+00 5.349692e+02 1.471047e-19 3.796314e+00 4.946022e-02 4.054879e-19
407            1.314367e+01 5.350947e+02 5.524445e-19 9.344263e+00 5.350456e+02 1.470941e-19 3.799406e+00 4.908537e-02 4.053503e-19
408            1.313756e+01 5.351692e+02 5.527088e-19 9.340798e+00 5.351197e+02 1.469406e-19 3.796765e+00 4.946455e-02 4.057682e-19
409            1.314127e+01 5.352426e+02 5.525635e-19 9.341429e+00 5.351939e+02 1.469236e-19 3.799836e+00 4.876653e-02 4.056399e-19
410            1.313471e+01 5.353136e+02 5.528100e-19 9.337608e+00 5.352640e+02 1.467707e-19 3.797103e+00 4.954447e-02 4.060393e-19
411            1.313856e+01 5.353851e+02 5.526673e-19 9.338330e+00 5.353364e+02 1.467569e-19 3.800228e+00 4.878069e-02 4.059104e-19
412            1.313197e+01 5.354549e+02 5.529064e-19 9.334514e+00 5.354056e+02 1.466160e-19 3.797457e+00 4.930114e-02 4.062903e-19
413            1.313609e+01 5.355274e+02 5.527770e-19 9.335575e+00 5.354785e+02 1.465997e-19 3.800519e+00 4.886782e-02 4.061773e-19
414            1.312950e+01 5.355953e+02 5.530164e-19 9.331778e+00 5.355456e+02 1.464467e-19 3.797723e+00 4.961212e-02 4.065697e-19
415            1.313341e+01 5.356635e+02 5.528691e-19 9.332458e+00 5.356147e+02 1.464351e-19 3.800951e+00 4.880880e-02 4.064340e-19
416            1.312679e+01 5.357298e+02 5.531117e-19 9.328741e+00 5.356802e+02 1.462871e-19 3.798047e+00 4.963581e-02 4.068246e-19
417            1.313080e+01 5.357965e+02 5.529650e-19 9.329496e+00 5.357478e+02 1.462784e-19 3.801306e+00 4.877923e-02 4.066866e-19
418            1.312432e+01 5.358615e+02 5.532046e-19 9.325842e+00 5.358118e+02 1.461323e-19 3.798477e+00 4.966442e-02 4.070723e-19
419            1.312818e+01 5.359278e+02 5.530548e-19 9.326598e+00 5.358787e+02 1.461297e-19 3.801586e+00 4.906686e-02 4.069251e-19
420            1.312223e+01 5.359929e+02 5.533013e-19 9.323225e+00 5.359433e+02 1.459858e-19 3.799008e+00 4.959202e-02 4.073155e-19
421            1.312582e+01 5.360567e+02 5.531534e-19 9.323902e+00 5.360079e+02 1.459782e-19 3.801921e+00 4.879589e-02 4.071752e-19
422            1.311961e+01 5.361190e+02 5.533822e-19 9.320181e+00 5.360696e+02 1.458425e-19 3.799426e+00 4.938360e-02 4.075397e-19
423            1.312326e+01 5.361833e+02 5.532476e-19 9.321195e+00 5.361343e+02 1.458331e-19 3.802070e+00 4.892726e-02 4.074144e-19
424            1.311735e+01 5.362437e+02 5.534766e-19 9.317517e+00 5.361940e+02 1.456882e-19 3.799837e+00 4.966307e-02 4.077884e-19
425            1.312058e+01 5.363053e+02 5.533227e-19 9.318227e+00 5.362561e+02 1.456878e-19 3.802357e+00 4.919369e-02 4.076349e-19
426            1.311478e+01 5.363641e+02 5.535625e-19 9.314451e+00 5.363145e+02 1.455459e-19 3.800331e+00 4.957020e-02 4.080166e-19
427            1.311815e+01 5.364242e+02 5.534095e-19 9.315449e+00 5.363752e+02 1.455459e-19 3.802702e+00 4.896173e-02 4.078635e-19
428            1.311199e+01 5.364803e+02 5.536402e-19 9.311528e+00 5.364307e+02 1.454054e-19 3.800459e+00 4.959481e-02 4.082348e-19
429            1.311564e+01 5.365400e+02 5.534862e-19 9.312664e+00 5.364908e+02 1.454117e-19 3.802977e+00 4.923565e-02 4.080746e-19
430            1.311001e+01 5.365960e+02 5.537273e-19 9.309312e+00 5.365462e+02 1.452707e-19 3.800703e+00 4.988378e-02 4.084567e-19
431            1.311340e+01 5.366508e+02 5.535644e-19 9.309976e+00 5.366019e+02 1.452758e-19 3.803423e+00 4.885570e-02 4.082886e-19
432            1.310740e+01 5.367043e+02 5.537995e-19 9.306470e+00 5.366544e+02 1.451379e-19 3.800934e+00 4.992240e-02 4.086615e-19
433            1.311103e+01 5.367579e+02 5.536384e-19 9.307303e+00 5.367091e+02 1.451463e-19 3.803730e+00 4.884372e-02 4.084921e-19
434            1.310513e+01 5.368106e+02 5.538728e-19 9.303926e+00 5.367607e+02 1.450109e-19 3.801207e+00 4.993692e-02 4.088618e-19
435            1.310887e+01 5.368632e+02 5.537120e-19 9.304827e+00 5.368143e+02 1.450211e-19 3.804040e+00 4.884952e-02 4.086909e-19
436            1.310300e+01 5.369150e+02 5.539446e-19 9.301504e+00 5.368650e+02 1.448872e-19 3.801498e+00 4.995806e-02 4.090575e-19
437            1.310680e+01 5.369665e+02 5.537842e-19 9.302430e+00 5.369176e+02 1.448987e-19 3.804375e+00 4.886196e-02 4.088855e-19
438            1.310092e+01 5.370174e+02 5.540143e-19 9.299123e+00 5.369674e+02 1.447659e-19 3.801799e+00 4.998513e-02 4.092484e-19
439            1.310511e+01 5.370669e+02 5.538576e-19 9.300349e+00 5.370183e+02 1.447763e-19 3.804764e+00 4.856733e-02 4.090813e-19
440            1.309842e+01 5.371151e+02 5.540733e-19 9.296420e+00 5.370654e+02 1.446479e-19 3.802000e+00 4.978485e-02 4.094253e-19
441            1.310365e+01 5.371651e+02 5.539306e-19 9.298758e+00 5.371166e+02 1.446583e-19 3.804890e+00 4.847787e-02 4.092723e-19
442            1.309743e+01 5.372108e+02 5.541546e-19 9.295347e+00 5.371603e+02 1.445230e-19 3.802080e+00 5.042665e-02 4.096316e-19
443            1.310102e+01 5.372543e+02 5.539794e-19 9.295843e+00 5.372057e+02 1.445367e-19 3.805175e+00 4.861031e-02 4.094427e-19
444            1.309472e+01 5.373006e+02 5.542008e-19 9.292242e+00 5.372504e+02 1.444112e-19 3.802477e+00 5.014567e-02 4.097896e-19
445            1.309891e+01 5.373472e+02 5.540459e-19 9.293592e+00 5.372985e+02 1.444284e-19 3.805322e+00 4.866130e-02 4.096174e-19