# Moment      
# CofR        : (0.000000e+00 0.000000e+00 0.000000e+00)
#
# Time        	total_x total_y total_z	pressure_x pressure_y pressure_z	viscous_x viscous_y viscous_z
221            -2.500056e+02 6.701653e+00 1.148740e+02 -2.499652e+02 4.915704e+00 1.148180e+02 -4.047644e-02 1.785949e+00 5.595879e-02
222            -2.501865e+02 6.704578e+00 1.150133e+02 -2.501468e+02 4.917888e+00 1.149576e+02 -3.978298e-02 1.786689e+00 5.562314e-02
223            -2.503198e+02 6.700270e+00 1.151033e+02 -2.502798e+02 4.911128e+00 1.150480e+02 -3.998025e-02 1.789142e+00 5.531282e-02
224            -2.504691e+02 6.699544e+00 1.152130e+02 -2.504299e+02 4.909612e+00 1.151581e+02 -3.927482e-02 1.789932e+00 5.496200e-02
225            -2.506131e+02 6.701032e+00 1.153186e+02 -2.505737e+02 4.908603e+00 1.152640e+02 -3.944329e-02 1.792429e+00 5.461418e-02
226            -2.507527e+02 6.698548e+00 1.154218e+02 -2.507140e+02 4.905370e+00 1.153676e+02 -3.875546e-02 1.793178e+00 5.428445e-02
227            -2.508922e+02 6.700112e+00 1.155258e+02 -2.508533e+02 4.904468e+00 1.154719e+02 -3.891726e-02 1.795643e+00 5.393465e-02
228            -2.510330e+02 6.699133e+00 1.156309e+02 -2.509948e+02 4.902766e+00 1.155773e+02 -3.822890e-02 1.796367e+00 5.359607e-02
229            -2.511698e+02 6.700642e+00 1.157297e+02 -2.511315e+02 4.901825e+00 1.156764e+02 -3.837744e-02 1.798817e+00 5.322724e-02
230            -2.513129e+02 6.700296e+00 1.158361e+02 -2.512752e+02 4.900812e+00 1.157832e+02 -3.771428e-02 1.799484e+00 5.291712e-02
231            -2.514564e+02 6.703203e+00 1.159413e+02 -2.514185e+02 4.901277e+00 1.158888e+02 -3.786387e-02 1.801926e+00 5.255667e-02
232            -2.515962e+02 6.701239e+00 1.160421e+02 -2.515590e+02 4.898756e+00 1.159899e+02 -3.719273e-02 1.802483e+00 5.223504e-02
233            -2.517406e+02 6.703903e+00 1.161475e+02 -2.517032e+02 4.898986e+00 1.160956e+02 -3.736998e-02 1.804917e+00 5.189890e-02
234            -2.518856e+02 6.702593e+00 1.162536e+02 -2.518489e+02 4.897245e+00 1.162020e+02 -3.669873e-02 1.805347e+00 5.159439e-02
235            -2.520326e+02 6.705262e+00 1.163609e+02 -2.519957e+02 4.897429e+00 1.163096e+02 -3.688747e-02 1.807833e+00 5.125221e-02
236            -2.521804e+02 6.703736e+00 1.164714e+02 -2.521442e+02 4.895544e+00 1.164204e+02 -3.623698e-02 1.808192e+00 5.097362e-02
237            -2.523257e+02 6.705725e+00 1.165751e+02 -2.522893e+02 4.895071e+00 1.165245e+02 -3.640102e-02 1.810654e+00 5.059923e-02
238            -2.524744e+02 6.703952e+00 1.166859e+02 -2.524386e+02 4.892972e+00 1.166356e+02 -3.576530e-02 1.810980e+00 5.034074e-02
239            -2.526215e+02 6.705729e+00 1.167933e+02 -2.525856e+02 4.892324e+00 1.167433e+02 -3.594761e-02 1.813405e+00 4.999160e-02
240            -2.527677e+02 6.703340e+00 1.169000e+02 -2.527324e+02 4.889655e+00 1.168503e+02 -3.529482e-02 1.813685e+00 4.970211e-02
241            -2.529150e+02 6.704931e+00 1.170072e+02 -2.528795e+02 4.888896e+00 1.169578e+02 -3.549191e-02 1.816036e+00 4.937536e-02
242            -2.530612e+02 6.702381e+00 1.171137e+02 -2.530263e+02 4.886048e+00 1.170646e+02 -3.485195e-02 1.816333e+00 4.908815e-02
243            -2.532081e+02 6.703680e+00 1.172206e+02 -2.531730e+02 4.885070e+00 1.171718e+02 -3.505408e-02 1.818610e+00 4.876885e-02
244            -2.533547e+02 6.701101e+00 1.173306e+02 -2.533202e+02 4.882175e+00 1.172821e+02 -3.445388e-02 1.818927e+00 4.850727e-02
245            -2.534989e+02 6.701914e+00 1.174359e+02 -2.534643e+02 4.880778e+00 1.173878e+02 -3.461720e-02 1.821136e+00 4.817638e-02
246            -2.536417e+02 6.699006e+00 1.175401e+02 -2.536077e+02 4.877553e+00 1.174922e+02 -3.402999e-02 1.821454e+00 4.789437e-02
247            -2.537851e+02 6.699859e+00 1.176444e+02 -2.537509e+02 4.876279e+00 1.175968e+02 -3.420777e-02 1.823581e+00 4.758765e-02
248            -2.539272e+02 6.697004e+00 1.177480e+02 -2.538936e+02 4.873091e+00 1.177007e+02 -3.363053e-02 1.823913e+00 4.730890e-02
249            -2.540696e+02 6.697798e+00 1.178516e+02 -2.540358e+02 4.871814e+00 1.178046e+02 -3.381729e-02 1.825984e+00 4.700939e-02
250            -2.542106e+02 6.694918e+00 1.179544e+02 -2.541773e+02 4.868622e+00 1.179077e+02 -3.324492e-02 1.826296e+00 4.673454e-02
251            -2.543518e+02 6.695702e+00 1.180573e+02 -2.543184e+02 4.867353e+00 1.180108e+02 -3.344205e-02 1.828349e+00 4.643960e-02
252            -2.544915e+02 6.692800e+00 1.181592e+02 -2.544586e+02 4.864176e+00 1.181131e+02 -3.287519e-02 1.828624e+00 4.616961e-02
253            -2.546315e+02 6.693618e+00 1.182612e+02 -2.545985e+02 4.862945e+00 1.182154e+02 -3.308151e-02 1.830673e+00 4.587833e-02
254            -2.547707e+02 6.690869e+00 1.183664e+02 -2.547381e+02 4.860004e+00 1.183208e+02 -3.255705e-02 1.830865e+00 4.564216e-02
255            -2.549071e+02 6.691472e+00 1.184663e+02 -2.548744e+02 4.858535e+00 1.184210e+02 -3.270177e-02 1.832937e+00 4.533305e-02
256            -2.550419e+02 6.688362e+00 1.185649e+02 -2.550097e+02 4.855376e+00 1.185199e+02 -3.219310e-02 1.832986e+00 4.507940e-02
257            -2.551774e+02 6.689386e+00 1.186637e+02 -2.551450e+02 4.854231e+00 1.186189e+02 -3.236085e-02 1.835156e+00 4.478761e-02
258            -2.553113e+02 6.686289e+00 1.187617e+02 -2.552794e+02 4.851257e+00 1.187171e+02 -3.185239e-02 1.835032e+00 4.454699e-02
259            -2.554458e+02 6.687480e+00 1.188599e+02 -2.554138e+02 4.850221e+00 1.188156e+02 -3.202060e-02 1.837260e+00 4.425595e-02
260            -2.555787e+02 6.684391e+00 1.189572e+02 -2.555471e+02 4.847323e+00 1.189132e+02 -3.153099e-02 1.837069e+00 4.402360e-02
261            -2.557120e+02 6.685648e+00 1.190548e+02 -2.556803e+02 4.846349e+00 1.190110e+02 -3.169601e-02 1.839300e+00 4.373478e-02
262            -2.558437e+02 6.682563e+00 1.191515e+02 -2.558125e+02 4.843513e+00 1.191080e+02 -3.121822e-02 1.839050e+00 4.350943e-02
263            -2.559759e+02 6.683909e+00 1.192485e+02 -2.559445e+02 4.842601e+00 1.192052e+02 -3.138787e-02 1.841308e+00 4.322229e-02
264            -2.561063e+02 6.680815e+00 1.193446e+02 -2.560754e+02 4.839813e+00 1.193015e+02 -3.091946e-02 1.841002e+00 4.300352e-02
265            -2.562373e+02 6.682189e+00 1.194408e+02 -2.562062e+02 4.838943e+00 1.193981e+02 -3.108845e-02 1.843245e+00 4.271963e-02
266            -2.563664e+02 6.679123e+00 1.195362e+02 -2.563358e+02 4.836191e+00 1.194937e+02 -3.063302e-02 1.842932e+00 4.250522e-02
267            -2.564986e+02 6.681168e+00 1.196348e+02 -2.564678e+02 4.836024e+00 1.195926e+02 -3.080174e-02 1.845144e+00 4.222905e-02
268            -2.566249e+02 6.677586e+00 1.197274e+02 -2.565945e+02 4.832741e+00 1.196854e+02 -3.034925e-02 1.844845e+00 4.200563e-02
269            -2.567552e+02 6.679402e+00 1.198247e+02 -2.567247e+02 4.832458e+00 1.197830e+02 -3.051946e-02 1.846944e+00 4.174286e-02
270            -2.568801e+02 6.675903e+00 1.199164e+02 -2.568500e+02 4.829182e+00 1.198749e+02 -3.007917e-02 1.846721e+00 4.151974e-02
271            -2.570090e+02 6.677587e+00 1.200128e+02 -2.569787e+02 4.828894e+00 1.199715e+02 -3.025008e-02 1.848692e+00 4.126674e-02
272            -2.571324e+02 6.674166e+00 1.201036e+02 -2.571026e+02 4.825616e+00 1.200625e+02 -2.982064e-02 1.848550e+00 4.104328e-02
273            -2.572597e+02 6.675701e+00 1.201989e+02 -2.572297e+02 4.825308e+00 1.201581e+02 -2.998924e-02 1.850393e+00 4.079944e-02
274            -2.573816e+02 6.672368e+00 1.202886e+02 -2.573520e+02 4.822023e+00 1.202481e+02 -2.957189e-02 1.850346e+00 4.057517e-02
275            -2.575071e+02 6.673767e+00 1.203829e+02 -2.574774e+02 4.821697e+00 1.203425e+02 -2.974559e-02 1.852070e+00 4.034038e-02
276            -2.576274e+02 6.670441e+00 1.204714e+02 -2.575981e+02 4.818404e+00 1.204313e+02 -2.931931e-02 1.852038e+00 4.011743e-02
277            -2.577513e+02 6.671752e+00 1.205645e+02 -2.577217e+02 4.818063e+00 1.205246e+02 -2.950550e-02 1.853689e+00 3.989016e-02
278            -2.578698e+02 6.668468e+00 1.206519e+02 -2.578407e+02 4.814778e+00 1.206123e+02 -2.908139e-02 1.853690e+00 3.966838e-02
279            -2.579920e+02 6.669669e+00 1.207438e+02 -2.579627e+02 4.814442e+00 1.207044e+02 -2.926650e-02 1.855227e+00 3.944954e-02
280            -2.581090e+02 6.666496e+00 1.208302e+02 -2.580801e+02 4.811189e+00 1.207910e+02 -2.885255e-02 1.855307e+00 3.922737e-02
281            -2.582271e+02 6.666986e+00 1.209180e+02 -2.581980e+02 4.810265e+00 1.208790e+02 -2.904028e-02 1.856721e+00 3.901473e-02
282            -2.583439e+02 6.664356e+00 1.210053e+02 -2.583152e+02 4.807553e+00 1.209665e+02 -2.862823e-02 1.856803e+00 3.880532e-02
283            -2.584607e+02 6.665025e+00 1.210925e+02 -2.584319e+02 4.806782e+00 1.210539e+02 -2.883375e-02 1.858243e+00 3.859146e-02
284            -2.585759e+02 6.662308e+00 1.211787e+02 -2.585475e+02 4.804097e+00 1.211403e+02 -2.841046e-02 1.858211e+00 3.838929e-02
285            -2.586911e+02 6.663085e+00 1.212648e+02 -2.586625e+02 4.803353e+00 1.212266e+02 -2.862826e-02 1.859732e+00 3.817455e-02
286            -2.588047e+02 6.660321e+00 1.213499e+02 -2.587765e+02 4.800714e+00 1.213119e+02 -2.820876e-02 1.859607e+00 3.798024e-02
287            -2.589183e+02 6.661174e+00 1.214349e+02 -2.588899e+02 4.800013e+00 1.213972e+02 -2.842793e-02 1.861161e+00 3.776627e-02
288            -2.590303e+02 6.658413e+00 1.215190e+02 -2.590023e+02 4.797421e+00 1.214814e+02 -2.801632e-02 1.860992e+00 3.757763e-02
289            -2.591425e+02 6.659333e+00 1.216030e+02 -2.591142e+02 4.796772e+00 1.215657e+02 -2.823821e-02 1.862561e+00 3.736562e-02
290            -2.592529e+02 6.656567e+00 1.216861e+02 -2.592251e+02 4.794229e+00 1.216489e+02 -2.783015e-02 1.862338e+00 3.718271e-02
291            -2.593637e+02 6.657591e+00 1.217692e+02 -2.593356e+02 4.793648e+00 1.217323e+02 -2.805804e-02 1.863944e+00 3.697190e-02
292            -2.594726e+02 6.654809e+00 1.218514e+02 -2.594450e+02 4.791152e+00 1.218146e+02 -2.765244e-02 1.863657e+00 3.679506e-02
293            -2.595819e+02 6.655934e+00 1.219335e+02 -2.595541e+02 4.790619e+00 1.218970e+02 -2.788652e-02 1.865315e+00 3.658466e-02
294            -2.596895e+02 6.653091e+00 1.220147e+02 -2.596620e+02 4.788166e+00 1.219783e+02 -2.748151e-02 1.864926e+00 3.641572e-02
295            -2.597973e+02 6.654326e+00 1.220959e+02 -2.597696e+02 4.787680e+00 1.220597e+02 -2.771905e-02 1.866646e+00 3.620495e-02
296            -2.599035e+02 6.651432e+00 1.221762e+02 -2.598761e+02 4.785275e+00 1.221401e+02 -2.732022e-02 1.866157e+00 3.604430e-02
297            -2.600099e+02 6.652655e+00 1.222565e+02 -2.599824e+02 4.784833e+00 1.222207e+02 -2.754457e-02 1.867823e+00 3.583754e-02
298            -2.601146e+02 6.649881e+00 1.223358e+02 -2.600875e+02 4.782467e+00 1.223001e+02 -2.716748e-02 1.867414e+00 3.567737e-02
299            -2.602196e+02 6.650981e+00 1.224152e+02 -2.601923e+02 4.782053e+00 1.223797e+02 -2.738161e-02 1.868928e+00 3.547996e-02
300            -2.603230e+02 6.648318e+00 1.224935e+02 -2.602959e+02 4.779712e+00 1.224582e+02 -2.700850e-02 1.868606e+00 3.531800e-02
301            -2.604265e+02 6.649380e+00 1.225718e+02 -2.603993e+02 4.779321e+00 1.225367e+02 -2.723541e-02 1.870059e+00 3.512773e-02
302            -2.605284e+02 6.646739e+00 1.226492e+02 -2.605016e+02 4.777006e+00 1.226142e+02 -2.685434e-02 1.869734e+00 3.496731e-02
303            -2.606305e+02 6.647822e+00 1.227265e+02 -2.606034e+02 4.776634e+00 1.226918e+02 -2.709533e-02 1.871188e+00 3.478108e-02
304            -2.607314e+02 6.645293e+00 1.228061e+02 -2.607046e+02 4.774475e+00 1.227714e+02 -2.675934e-02 1.870818e+00 3.464565e-02
305            -2.608297e+02 6.646088e+00 1.228782e+02 -2.608028e+02 4.773760e+00 1.228437e+02 -2.694358e-02 1.872328e+00 3.442506e-02
306            -2.609293e+02 6.643637e+00 1.229565e+02 -2.609027e+02 4.771752e+00 1.229222e+02 -2.662253e-02 1.871885e+00 3.430884e-02
307            -2.610265e+02 6.644539e+00 1.230277e+02 -2.609997e+02 4.771142e+00 1.229936e+02 -2.680118e-02 1.873397e+00 3.409108e-02
308            -2.611249e+02 6.642141e+00 1.231051e+02 -2.610984e+02 4.769167e+00 1.230711e+02 -2.649697e-02 1.872973e+00 3.397770e-02
309            -2.612211e+02 6.643099e+00 1.231786e+02 -2.611945e+02 4.768683e+00 1.231448e+02 -2.663177e-02 1.874416e+00 3.378543e-02
310            -2.613159e+02 6.640416e+00 1.232509e+02 -2.612895e+02 4.766410e+00 1.232173e+02 -2.637180e-02 1.874006e+00 3.364075e-02
311            -2.614110e+02 6.641464e+00 1.233233e+02 -2.613844e+02 4.766082e+00 1.232898e+02 -2.651346e-02 1.875382e+00 3.346769e-02
312            -2.615047e+02 6.638882e+00 1.233948e+02 -2.614784e+02 4.763901e+00 1.233615e+02 -2.624680e-02 1.874981e+00 3.332469e-02
313            -2.615984e+02 6.639914e+00 1.234634e+02 -2.615719e+02 4.763569e+00 1.234303e+02 -2.643933e-02 1.876346e+00 3.313815e-02
314            -2.616931e+02 6.637600e+00 1.235380e+02 -2.616669e+02 4.761683e+00 1.235049e+02 -2.612702e-02 1.875917e+00 3.303016e-02
315            -2.617857e+02 6.638627e+00 1.236090e+02 -2.617594e+02 4.761289e+00 1.235761e+02 -2.630171e-02 1.877338e+00 3.285179e-02
316            -2.618766e+02 6.635794e+00 1.236787e+02 -2.618506e+02 4.759067e+00 1.236459e+02 -2.600935e-02 1.876727e+00 3.272103e-02
317            -2.619679e+02 6.637134e+00 1.237483e+02 -2.619417e+02 4.758792e+00 1.237158e+02 -2.619867e-02 1.878342e+00 3.254775e-02
318            -2.620576e+02 6.634177e+00 1.238171e+02 -2.620317e+02 4.756655e+00 1.237847e+02 -2.591206e-02 1.877522e+00 3.243072e-02
319            -2.621475e+02 6.635650e+00 1.238832e+02 -2.621214e+02 4.756407e+00 1.238509e+02 -2.612567e-02 1.879243e+00 3.223644e-02
320            -2.622380e+02 6.632899e+00 1.239547e+02 -2.622122e+02 4.754534e+00 1.239225e+02 -2.581881e-02 1.878365e+00 3.215621e-02
321            -2.623266e+02 6.634297e+00 1.240227e+02 -2.623006e+02 4.754187e+00 1.239908e+02 -2.596858e-02 1.880109e+00 3.196687e-02
322            -2.624135e+02 6.631214e+00 1.240896e+02 -2.623878e+02 4.752021e+00 1.240577e+02 -2.573442e-02 1.879193e+00 3.186365e-02
323            -2.625007e+02 6.632741e+00 1.241563e+02 -2.624748e+02 4.751799e+00 1.241246e+02 -2.587258e-02 1.880941e+00 3.168562e-02
324            -2.625864e+02 6.629720e+00 1.242222e+02 -2.625608e+02 4.749715e+00 1.241906e+02 -2.564877e-02 1.880005e+00 3.158705e-02
325            -2.626724e+02 6.631290e+00 1.242879e+02 -2.626466e+02 4.749535e+00 1.242565e+02 -2.578543e-02 1.881756e+00 3.141155e-02
326            -2.627568e+02 6.628259e+00 1.243528e+02 -2.627312e+02 4.747473e+00 1.243215e+02 -2.556819e-02 1.880786e+00 3.131775e-02
327            -2.628414e+02 6.629845e+00 1.244176e+02 -2.628157e+02 4.747307e+00 1.243865e+02 -2.570040e-02 1.882537e+00 3.114395e-02
328            -2.629245e+02 6.626818e+00 1.244815e+02 -2.628991e+02 4.745257e+00 1.244505e+02 -2.549415e-02 1.881560e+00 3.105385e-02
329            -2.630078e+02 6.628363e+00 1.245453e+02 -2.629822e+02 4.745099e+00 1.245144e+02 -2.561693e-02 1.883264e+00 3.088364e-02
330            -2.630897e+02 6.625417e+00 1.246082e+02 -2.630642e+02 4.743063e+00 1.245775e+02 -2.542489e-02 1.882354e+00 3.079360e-02
331            -2.631716e+02 6.626865e+00 1.246711e+02 -2.631461e+02 4.742924e+00 1.246405e+02 -2.554138e-02 1.883940e+00 3.063092e-02
332            -2.632521e+02 6.624020e+00 1.247330e+02 -2.632268e+02 4.740894e+00 1.247025e+02 -2.535255e-02 1.883127e+00 3.053833e-02
333            -2.633327e+02 6.625374e+00 1.247948e+02 -2.633073e+02 4.740764e+00 1.247644e+02 -2.547732e-02 1.884610e+00 3.038380e-02
334            -2.634119e+02 6.622558e+00 1.248557e+02 -2.633866e+02 4.738742e+00 1.248254e+02 -2.527370e-02 1.883816e+00 3.029076e-02
335            -2.634912e+02 6.623890e+00 1.249165e+02 -2.634658e+02 4.738623e+00 1.248864e+02 -2.541148e-02 1.885267e+00 3.014127e-02
336            -2.635691e+02 6.621114e+00 1.249764e+02 -2.635438e+02 4.736610e+00 1.249464e+02 -2.520665e-02 1.884504e+00 3.004849e-02
337            -2.636471e+02 6.622422e+00 1.250363e+02 -2.636217e+02 4.736512e+00 1.250064e+02 -2.534949e-02 1.885910e+00 2.990389e-02
338            -2.637220e+02 6.619284e+00 1.250932e+02 -2.636969e+02 4.734094e+00 1.250634e+02 -2.514697e-02 1.885190e+00 2.980948e-02
339            -2.637996e+02 6.620847e+00 1.251533e+02 -2.637743e+02 4.734337e+00 1.251237e+02 -2.529523e-02 1.886510e+00 2.967788e-02
340            -2.638736e+02 6.617882e+00 1.252096e+02 -2.638485e+02 4.732019e+00 1.251800e+02 -2.508950e-02 1.885864e+00 2.957899e-02
341            -2.639498e+02 6.619369e+00 1.252688e+02 -2.639246e+02 4.732273e+00 1.252393e+02 -2.524822e-02 1.887096e+00 2.945446e-02
342            -2.640225e+02 6.616440e+00 1.253241e+02 -2.639975e+02 4.729970e+00 1.252947e+02 -2.502664e-02 1.886471e+00 2.935470e-02
343            -2.640974e+02 6.617910e+00 1.253822e+02 -2.640722e+02 4.730229e+00 1.253530e+02 -2.520227e-02 1.887680e+00 2.923471e-02
344            -2.641688e+02 6.614995e+00 1.254366e+02 -2.641438e+02 4.727945e+00 1.254075e+02 -2.497177e-02 1.887050e+00 2.913623e-02
345            -2.642425e+02 6.616483e+00 1.254938e+02 -2.642173e+02 4.728213e+00 1.254647e+02 -2.515793e-02 1.888270e+00 2.901854e-02
346            -2.643126e+02 6.613535e+00 1.255473e+02 -2.642877e+02 4.725944e+00 1.255183e+02 -2.492157e-02 1.887591e+00 2.892397e-02
347            -2.643850e+02 6.615077e+00 1.256034e+02 -2.643599e+02 4.726215e+00 1.255746e+02 -2.511461e-02 1.888862e+00 2.880594e-02
348            -2.644539e+02 6.612099e+00 1.256560e+02 -2.644290e+02 4.723961e+00 1.256273e+02 -2.488130e-02 1.888138e+00 2.871606e-02
349            -2.645250e+02 6.613658e+00 1.257111e+02 -2.644999e+02 4.724232e+00 1.256825e+02 -2.507155e-02 1.889426e+00 2.859838e-02
350            -2.645928e+02 6.610702e+00 1.257629e+02 -2.645679e+02 4.722001e+00 1.257343e+02 -2.484720e-02 1.888701e+00 2.851158e-02
351            -2.646626e+02 6.612202e+00 1.258170e+02 -2.646376e+02 4.722272e+00 1.257886e+02 -2.503084e-02 1.889930e+00 2.839782e-02
352            -2.647291e+02 6.609280e+00 1.258678e+02 -2.647043e+02 4.720047e+00 1.258395e+02 -2.480953e-02 1.889233e+00 2.831188e-02
353            -2.647978e+02 6.610759e+00 1.259210e+02 -2.647728e+02 4.720324e+00 1.258928e+02 -2.499756e-02 1.890435e+00 2.820158e-02
354            -2.648630e+02 6.607905e+00 1.259729e+02 -2.648381e+02 4.718164e+00 1.259448e+02 -2.485248e-02 1.889740e+00 2.813240e-02
355            -2.649284e+02 6.609173e+00 1.260242e+02 -2.649035e+02 4.718239e+00 1.259962e+02 -2.486958e-02 1.890934e+00 2.801257e-02
356            -2.649911e+02 6.606202e+00 1.260720e+02 -2.649662e+02 4.715967e+00 1.260441e+02 -2.482389e-02 1.890236e+00 2.793255e-02
357            -2.650556e+02 6.607634e+00 1.261222e+02 -2.650307e+02 4.716204e+00 1.260943e+02 -2.484778e-02 1.891429e+00 2.782309e-02
358            -2.651174e+02 6.604690e+00 1.261692e+02 -2.650926e+02 4.714033e+00 1.261415e+02 -2.478047e-02 1.890657e+00 2.774819e-02
359            -2.651813e+02 6.606233e+00 1.262166e+02 -2.651564e+02 4.714281e+00 1.261890e+02 -2.489088e-02 1.891953e+00 2.762517e-02
360            -2.652436e+02 6.603382e+00 1.262658e+02 -2.652189e+02 4.712327e+00 1.262382e+02 -2.474545e-02 1.891055e+00 2.757957e-02
361            -2.653062e+02 6.604984e+00 1.263147e+02 -2.652814e+02 4.712489e+00 1.262872e+02 -2.477376e-02 1.892495e+00 2.745405e-02
362            -2.653658e+02 6.601725e+00 1.263602e+02 -2.653411e+02 4.710274e+00 1.263328e+02 -2.475323e-02 1.891451e+00 2.739993e-02
363            -2.654274e+02 6.603352e+00 1.264059e+02 -2.654026e+02 4.710487e+00 1.263786e+02 -2.480255e-02 1.892865e+00 2.726904e-02
364            -2.654875e+02 6.600434e+00 1.264533e+02 -2.654628e+02 4.708512e+00 1.264261e+02 -2.471964e-02 1.891922e+00 2.723303e-02
365            -2.655476e+02 6.601905e+00 1.265003e+02 -2.655230e+02 4.708651e+00 1.264732e+02 -2.469378e-02 1.893254e+00 2.711191e-02
366            -2.656051e+02 6.598748e+00 1.265442e+02 -2.655804e+02 4.706450e+00 1.265171e+02 -2.470299e-02 1.892298e+00 2.705867e-02
367            -2.656641e+02 6.600322e+00 1.265900e+02 -2.656394e+02 4.706669e+00 1.265631e+02 -2.467976e-02 1.893653e+00 2.694572e-02
368            -2.657205e+02 6.597201e+00 1.266330e+02 -2.656958e+02 4.704534e+00 1.266061e+02 -2.468315e-02 1.892668e+00 2.689520e-02
369            -2.657788e+02 6.598846e+00 1.266763e+02 -2.657541e+02 4.704804e+00 1.266495e+02 -2.474280e-02 1.894042e+00 2.677390e-02
370            -2.658356e+02 6.595915e+00 1.267210e+02 -2.658109e+02 4.702852e+00 1.266942e+02 -2.465224e-02 1.893063e+00 2.674194e-02
371            -2.658923e+02 6.597428e+00 1.267653e+02 -2.658677e+02 4.703006e+00 1.267387e+02 -2.463618e-02 1.894422e+00 2.662568e-02
372            -2.659465e+02 6.594252e+00 1.268066e+02 -2.659219e+02 4.700846e+00 1.267800e+02 -2.464957e-02 1.893406e+00 2.658042e-02
373            -2.660021e+02 6.595865e+00 1.268498e+02 -2.659775e+02 4.701080e+00 1.268233e+02 -2.462303e-02 1.894786e+00 2.647024e-02
374            -2.660553e+02 6.592770e+00 1.268903e+02 -2.660307e+02 4.698991e+00 1.268638e+02 -2.463875e-02 1.893779e+00 2.642675e-02
375            -2.661099e+02 6.594394e+00 1.269326e+02 -2.660853e+02 4.699246e+00 1.269063e+02 -2.461379e-02 1.895148e+00 2.631904e-02
376            -2.661621e+02 6.591349e+00 1.269722e+02 -2.661374e+02 4.697175e+00 1.269459e+02 -2.462987e-02 1.894174e+00 2.627568e-02
377            -2.662159e+02 6.592965e+00 1.270122e+02 -2.661913e+02 4.697477e+00 1.269860e+02 -2.468780e-02 1.895488e+00 2.616397e-02
378            -2.662682e+02 6.590117e+00 1.270532e+02 -2.662436e+02 4.695543e+00 1.270271e+02 -2.460239e-02 1.894574e+00 2.613353e-02
379            -2.663206e+02 6.591558e+00 1.270940e+02 -2.662960e+02 4.695712e+00 1.270680e+02 -2.460110e-02 1.895846e+00 2.602904e-02
380            -2.663705e+02 6.588484e+00 1.271320e+02 -2.663459e+02 4.693598e+00 1.271060e+02 -2.460555e-02 1.894886e+00 2.598638e-02
381            -2.664216e+02 6.589981e+00 1.271716e+02 -2.663970e+02 4.693837e+00 1.271457e+02 -2.459387e-02 1.896144e+00 2.588882e-02
382            -2.664706e+02 6.587006e+00 1.272087e+02 -2.664460e+02 4.691790e+00 1.271829e+02 -2.459984e-02 1.895216e+00 2.584686e-02
383            -2.665208e+02 6.588485e+00 1.272475e+02 -2.664962e+02 4.692053e+00 1.272218e+02 -2.459150e-02 1.896433e+00 2.575302e-02
384            -2.665688e+02 6.585550e+00 1.272839e+02 -2.665442e+02 4.690027e+00 1.272582e+02 -2.458847e-02 1.895524e+00 2.571115e-02
385            -2.666179e+02 6.586988e+00 1.273218e+02 -2.665933e+02 4.690297e+00 1.272962e+02 -2.458567e-02 1.896691e+00 2.562151e-02
386            -2.666649e+02 6.584154e+00 1.273574e+02 -2.666403e+02 4.688283e+00 1.273318e+02 -2.458263e-02 1.895871e+00 2.557657e-02
387            -2.667131e+02 6.585491e+00 1.273946e+02 -2.666885e+02 4.688568e+00 1.273691e+02 -2.458583e-02 1.896923e+00 2.549474e-02
388            -2.667591e+02 6.582773e+00 1.274294e+02 -2.667345e+02 4.686565e+00 1.274040e+02 -2.457037e-02 1.896209e+00 2.544443e-02
389            -2.668063e+02 6.584030e+00 1.274658e+02 -2.667817e+02 4.686854e+00 1.274404e+02 -2.459379e-02 1.897176e+00 2.537016e-02
390            -2.668503e+02 6.581113e+00 1.274986e+02 -2.668258e+02 4.684597e+00 1.274733e+02 -2.455642e-02 1.896516e+00 2.531574e-02
391            -2.668970e+02 6.582558e+00 1.275350e+02 -2.668724e+02 4.685098e+00 1.275097e+02 -2.460649e-02 1.897460e+00 2.524957e-02
392            -2.669403e+02 6.579678e+00 1.275673e+02 -2.669157e+02 4.682912e+00 1.275421e+02 -2.454382e-02 1.896766e+00 2.519469e-02
393            -2.669861e+02 6.581176e+00 1.276029e+02 -2.669614e+02 4.683428e+00 1.275778e+02 -2.460850e-02 1.897747e+00 2.512889e-02
394            -2.670282e+02 6.578340e+00 1.276361e+02 -2.670035e+02 4.681341e+00 1.276110e+02 -2.465461e-02 1.896999e+00 2.508952e-02
395            -2.670716e+02 6.579693e+00 1.276686e+02 -2.670470e+02 4.681649e+00 1.276436e+02 -2.457521e-02 1.898044e+00 2.500416e-02
396            -2.671129e+02 6.576920e+00 1.277008e+02 -2.670883e+02 4.679643e+00 1.276759e+02 -2.465073e-02 1.897277e+00 2.497222e-02
397            -2.671551e+02 6.578361e+00 1.277342e+02 -2.671307e+02 4.680085e+00 1.277093e+02 -2.445592e-02 1.898276e+00 2.489849e-02
398            -2.671946e+02 6.575404e+00 1.277636e+02 -2.671700e+02 4.677936e+00 1.277387e+02 -2.465969e-02 1.897468e+00 2.485492e-02
399            -2.672364e+02 6.576907e+00 1.277945e+02 -2.672119e+02 4.678391e+00 1.277697e+02 -2.457489e-02 1.898516e+00 2.477874e-02
400            -2.672764e+02 6.574178e+00 1.278256e+02 -2.672518e+02 4.676497e+00 1.278008e+02 -2.464009e-02 1.897681e+00 2.475148e-02
401            -2.673172e+02 6.575813e+00 1.278577e+02 -2.672927e+02 4.676977e+00 1.278330e+02 -2.445668e-02 1.898836e+00 2.467430e-02
402            -2.673553e+02 6.572702e+00 1.278861e+02 -2.673306e+02 4.674880e+00 1.278614e+02 -2.467135e-02 1.897822e+00 2.464464e-02
403            -2.673956e+02 6.574498e+00 1.279158e+02 -2.673710e+02 4.675345e+00 1.278912e+02 -2.457231e-02 1.899153e+00 2.455537e-02
404            -2.674341e+02 6.571491e+00 1.279457e+02 -2.674094e+02 4.673468e+00 1.279212e+02 -2.467663e-02 1.898023e+00 2.454846e-02
405            -2.674724e+02 6.573204e+00 1.279757e+02 -2.674479e+02 4.673737e+00 1.279512e+02 -2.442353e-02 1.899467e+00 2.445177e-02
406            -2.675093e+02 6.569964e+00 1.280034e+02 -2.674846e+02 4.671807e+00 1.279790e+02 -2.473011e-02 1.898157e+00 2.445009e-02
407            -2.675473e+02 6.571834e+00 1.280313e+02 -2.675228e+02 4.672131e+00 1.280069e+02 -2.454269e-02 1.899703e+00 2.434326e-02
408            -2.675846e+02 6.568781e+00 1.280604e+02 -2.675599e+02 4.670399e+00 1.280360e+02 -2.473227e-02 1.898382e+00 2.435669e-02
409            -2.676213e+02 6.570633e+00 1.280892e+02 -2.675969e+02 4.670715e+00 1.280649e+02 -2.438326e-02 1.899918e+00 2.424879e-02
410            -2.676568e+02 6.567356e+00 1.281157e+02 -2.676320e+02 4.668804e+00 1.280914e+02 -2.477223e-02 1.898551e+00 2.425855e-02
411            -2.676926e+02 6.569279e+00 1.281436e+02 -2.676682e+02 4.669165e+00 1.281194e+02 -2.439034e-02 1.900114e+00 2.415245e-02
412            -2.677274e+02 6.565985e+00 1.281681e+02 -2.677028e+02 4.667257e+00 1.281439e+02 -2.465057e-02 1.898728e+00 2.415282e-02
413            -2.677637e+02 6.568047e+00 1.281973e+02 -2.677393e+02 4.667788e+00 1.281732e+02 -2.443391e-02 1.900259e+00 2.406615e-02
414            -2.677976e+02 6.564750e+00 1.282228e+02 -2.677728e+02 4.665889e+00 1.281987e+02 -2.480606e-02 1.898861e+00 2.407744e-02
415            -2.678318e+02 6.566705e+00 1.282494e+02 -2.678073e+02 4.666229e+00 1.282254e+02 -2.440440e-02 1.900475e+00 2.396893e-02
416            -2.678649e+02 6.563394e+00 1.282740e+02 -2.678401e+02 4.664370e+00 1.282500e+02 -2.481791e-02 1.899023e+00 2.398883e-02
417            -2.678983e+02 6.565401e+00 1.282999e+02 -2.678739e+02 4.664748e+00 1.282761e+02 -2.438962e-02 1.900653e+00 2.387883e-02
418            -2.679308e+02 6.562159e+00 1.283240e+02 -2.679059e+02 4.662921e+00 1.283001e+02 -2.483221e-02 1.899238e+00 2.390019e-02
419            -2.679639e+02 6.564092e+00 1.283482e+02 -2.679393e+02 4.663299e+00 1.283244e+02 -2.453343e-02 1.900793e+00 2.379115e-02
420            -2.679964e+02 6.561117e+00 1.283735e+02 -2.679716e+02 4.661613e+00 1.283496e+02 -2.479601e-02 1.899504e+00 2.381315e-02
421            -2.680283e+02 6.562912e+00 1.283984e+02 -2.680039e+02 4.661951e+00 1.283747e+02 -2.439795e-02 1.900961e+00 2.371164e-02
422            -2.680595e+02 6.559804e+00 1.284203e+02 -2.680348e+02 4.660091e+00 1.283966e+02 -2.469180e-02 1.899713e+00 2.371276e-02
423            -2.680916e+02 6.561632e+00 1.284461e+02 -2.680672e+02 4.660598e+00 1.284224e+02 -2.446363e-02 1.901035e+00 2.363909e-02
424            -2.681218e+02 6.558677e+00 1.284686e+02 -2.680970e+02 4.658758e+00 1.284450e+02 -2.483153e-02 1.899918e+00 2.363899e-02
425            -2.681526e+02 6.560292e+00 1.284912e+02 -2.681280e+02 4.659114e+00 1.284676e+02 -2.459684e-02 1.901178e+00 2.355449e-02
426            -2.681820e+02 6.557391e+00 1.285136e+02 -2.681573e+02 4.657226e+00 1.284900e+02 -2.478510e-02 1.900166e+00 2.355579e-02
427            -2.682121e+02 6.559075e+00 1.285372e+02 -2.681876e+02 4.657724e+00 1.285137e+02 -2.448086e-02 1.901351e+00 2.348267e-02
428            -2.682401e+02 6.555994e+00 1.285577e+02 -2.682153e+02 4.655764e+00 1.285342e+02 -2.479741e-02 1.900230e+00 2.347873e-02
429            -2.682700e+02 6.557820e+00 1.285797e+02 -2.682454e+02 4.656332e+00 1.285563e+02 -2.461782e-02 1.901488e+00 2.340366e-02
430            -2.682980e+02 6.555007e+00 1.286024e+02 -2.682731e+02 4.654656e+00 1.285790e+02 -2.494189e-02 1.900351e+00 2.342022e-02
431            -2.683254e+02 6.556700e+00 1.286230e+02 -2.683010e+02 4.654988e+00 1.285997e+02 -2.442785e-02 1.901712e+00 2.332469e-02
432            -2.683522e+02 6.553702e+00 1.286436e+02 -2.683272e+02 4.653235e+00 1.286203e+02 -2.496120e-02 1.900467e+00 2.334586e-02
433            -2.683790e+02 6.555516e+00 1.286635e+02 -2.683545e+02 4.653652e+00 1.286402e+02 -2.442186e-02 1.901865e+00 2.325021e-02
434            -2.684053e+02 6.552567e+00 1.286837e+02 -2.683803e+02 4.651963e+00 1.286604e+02 -2.496846e-02 1.900604e+00 2.327488e-02
435            -2.684316e+02 6.554434e+00 1.287031e+02 -2.684072e+02 4.652414e+00 1.286799e+02 -2.442476e-02 1.902020e+00 2.317872e-02
436            -2.684575e+02 6.551501e+00 1.287229e+02 -2.684325e+02 4.650752e+00 1.286997e+02 -2.497903e-02 1.900749e+00 2.320559e-02
437            -2.684833e+02 6.553402e+00 1.287419e+02 -2.684588e+02 4.651215e+00 1.287188e+02 -2.443098e-02 1.902187e+00 2.310853e-02
438            -2.685087e+02 6.550461e+00 1.287614e+02 -2.684837e+02 4.649561e+00 1.287382e+02 -2.499256e-02 1.900900e+00 2.313785e-02
439            -2.685334e+02 6.552556e+00 1.287813e+02 -2.685091e+02 4.650174e+00 1.287583e+02 -2.428366e-02 1.902382e+00 2.304090e-02
440            -2.685576e+02 6.549210e+00 1.287972e+02 -2.685327e+02 4.648210e+00 1.287741e+02 -2.489243e-02 1.901000e+00 2.305939e-02