/*--------------------------------*- C++ -*----------------------------------*\
| =========                 |                                                 |
| \\      /  F ield         | OpenFOAM: The Open Source CFD Toolbox           |
|  \\    /   O peration     | Version:  2412                                  |
|   \\  /    A nd           | Website:  www.openfoam.com                      |
|    \\/     M anipulation  |                                                 |
\*---------------------------------------------------------------------------*/
FoamFile
{
    version     2.0;
    format      ascii;
    arch        "LSB;label=32;scalar=64";
    class       volScalarField;
    location    "60";
    object      nut;
}
// * * * * * * * * * * * * * * * * * * * * * * * * * * * * * * * * * * * * * //

dimensions      [0 2 -1 0 0 0 0];

internalField   nonuniform List<scalar> 
7400
(
2.56516e-11
2.59643e-11
2.62808e-11
2.65976e-11
2.69162e-11
2.72343e-11
2.75505e-11
2.78668e-11
2.81813e-11
2.84916e-11
2.87934e-11
2.90855e-11
2.93656e-11
2.96303e-11
2.9879e-11
3.0109e-11
3.03162e-11
3.0498e-11
3.06538e-11
3.07812e-11
3.08795e-11
3.09445e-11
3.09702e-11
3.09582e-11
3.09091e-11
3.08176e-11
3.06769e-11
3.04963e-11
3.02665e-11
2.99796e-11
2.96207e-11
2.91867e-11
2.87758e-11
2.88095e-11
3.02114e-11
3.29759e-11
3.53241e-11
3.64883e-11
3.68177e-11
3.69953e-11
3.75387e-11
3.66367e-11
3.17515e-11
1.70206e-11
2.92856e-12
3.10359e-15
3.28855e-12
1.80392e-11
3.26747e-11
3.73005e-11
3.79866e-11
3.70731e-11
3.62874e-11
3.46657e-11
3.07077e-11
2.56434e-11
2.43942e-11
2.50175e-11
2.56831e-11
2.62596e-11
2.67611e-11
2.71973e-11
2.7588e-11
2.79386e-11
2.82487e-11
2.85187e-11
2.87452e-11
2.89212e-11
2.90564e-11
2.91484e-11
2.91987e-11
2.92116e-11
2.45382e-09
2.483e-09
2.51261e-09
2.54237e-09
2.57243e-09
2.60253e-09
2.63254e-09
2.66263e-09
2.69265e-09
2.72233e-09
2.75128e-09
2.7794e-09
2.80639e-09
2.832e-09
2.8561e-09
2.87841e-09
2.89854e-09
2.91632e-09
2.93163e-09
2.94423e-09
2.95396e-09
2.96041e-09
2.96308e-09
2.96208e-09
2.95732e-09
2.94833e-09
2.93409e-09
2.91545e-09
2.891e-09
2.85937e-09
2.81811e-09
2.76501e-09
2.70804e-09
2.6935e-09
2.83404e-09
3.13201e-09
3.37069e-09
3.46925e-09
3.47762e-09
3.46128e-09
3.45607e-09
3.29499e-09
2.74973e-09
1.384e-09
2.36427e-10
2.96314e-13
2.64662e-10
1.46789e-09
2.83289e-09
3.35907e-09
3.50286e-09
3.47691e-09
3.43987e-09
3.31039e-09
2.89838e-09
2.33913e-09
2.24667e-09
2.358e-09
2.44602e-09
2.50942e-09
2.56007e-09
2.60242e-09
2.63967e-09
2.67272e-09
2.70164e-09
2.72682e-09
2.74786e-09
2.7641e-09
2.77648e-09
2.78479e-09
2.78927e-09
2.79017e-09
2.39749e-08
2.42535e-08
2.45359e-08
2.48212e-08
2.51093e-08
2.53978e-08
2.56866e-08
2.59759e-08
2.62645e-08
2.655e-08
2.68294e-08
2.71002e-08
2.73602e-08
2.76073e-08
2.784e-08
2.80553e-08
2.82506e-08
2.84233e-08
2.85726e-08
2.86956e-08
2.87907e-08
2.8855e-08
2.88828e-08
2.88765e-08
2.88325e-08
2.87493e-08
2.86149e-08
2.84346e-08
2.8194e-08
2.7877e-08
2.74523e-08
2.68897e-08
2.62595e-08
2.60435e-08
2.74532e-08
3.04572e-08
3.2686e-08
3.33686e-08
3.30766e-08
3.23829e-08
3.14461e-08
2.87763e-08
2.25483e-08
1.04095e-08
1.78909e-09
2.87459e-12
1.99414e-09
1.10468e-08
2.32672e-08
2.93995e-08
3.19575e-08
3.26597e-08
3.29158e-08
3.21085e-08
2.81742e-08
2.23382e-08
2.15386e-08
2.28925e-08
2.3861e-08
2.45024e-08
2.4994e-08
2.53969e-08
2.57479e-08
2.60594e-08
2.63321e-08
2.65689e-08
2.67681e-08
2.69231e-08
2.70404e-08
2.71201e-08
2.7163e-08
2.71721e-08
1.18036e-07
1.19374e-07
1.2073e-07
1.221e-07
1.23481e-07
1.24866e-07
1.2625e-07
1.27635e-07
1.29015e-07
1.30379e-07
1.31712e-07
1.33003e-07
1.34242e-07
1.35419e-07
1.36529e-07
1.37554e-07
1.38487e-07
1.39314e-07
1.40031e-07
1.40626e-07
1.41096e-07
1.41415e-07
1.41574e-07
1.41575e-07
1.41402e-07
1.41055e-07
1.40468e-07
1.39668e-07
1.38586e-07
1.3713e-07
1.35146e-07
1.32476e-07
1.29455e-07
1.28468e-07
1.3543e-07
1.49585e-07
1.58986e-07
1.60343e-07
1.56507e-07
1.49749e-07
1.40008e-07
1.21405e-07
8.82731e-08
3.71375e-08
6.4685e-09
1.40145e-11
7.17421e-09
3.94194e-08
9.12326e-08
1.24365e-07
1.42786e-07
1.51831e-07
1.57018e-07
1.56142e-07
1.39099e-07
1.10318e-07
1.06169e-07
1.13053e-07
1.17765e-07
1.20758e-07
1.23016e-07
1.24856e-07
1.26459e-07
1.27888e-07
1.29149e-07
1.30256e-07
1.31188e-07
1.31923e-07
1.32482e-07
1.32864e-07
1.33079e-07
1.33127e-07
4.14452e-07
4.19023e-07
4.23643e-07
4.28297e-07
4.32976e-07
4.37654e-07
4.42324e-07
4.46983e-07
4.51611e-07
4.56169e-07
4.6062e-07
4.64921e-07
4.69042e-07
4.72962e-07
4.7665e-07
4.80067e-07
4.83176e-07
4.85946e-07
4.88368e-07
4.90411e-07
4.92045e-07
4.93219e-07
4.93896e-07
4.94089e-07
4.93755e-07
4.92903e-07
4.91337e-07
4.89143e-07
4.86099e-07
4.81925e-07
4.76146e-07
4.68353e-07
4.5981e-07
4.58247e-07
4.81614e-07
5.24344e-07
5.4793e-07
5.43521e-07
5.19852e-07
4.82663e-07
4.30323e-07
3.50394e-07
2.35418e-07
9.01349e-08
1.60295e-08
4.87972e-11
1.76796e-08
9.56537e-08
2.43628e-07
3.59937e-07
4.40637e-07
4.92469e-07
5.26788e-07
5.37463e-07
4.92989e-07
4.00933e-07
3.83162e-07
4.03098e-07
4.16856e-07
4.2564e-07
4.32419e-07
4.38007e-07
4.42932e-07
4.47393e-07
4.51382e-07
4.54932e-07
4.57954e-07
4.60371e-07
4.62226e-07
4.6351e-07
4.64251e-07
4.64451e-07
1.18326e-06
1.19585e-06
1.20852e-06
1.22124e-06
1.23395e-06
1.24662e-06
1.25923e-06
1.27176e-06
1.28416e-06
1.29632e-06
1.30815e-06
1.31958e-06
1.33052e-06
1.34092e-06
1.35072e-06
1.35983e-06
1.36815e-06
1.37564e-06
1.38228e-06
1.388e-06
1.39273e-06
1.39638e-06
1.39887e-06
1.40028e-06
1.40052e-06
1.39963e-06
1.39723e-06
1.39353e-06
1.38808e-06
1.38026e-06
1.36922e-06
1.35458e-06
1.34028e-06
1.34428e-06
1.40247e-06
1.49108e-06
1.52145e-06
1.47664e-06
1.37595e-06
1.23068e-06
1.03885e-06
7.90924e-07
4.90933e-07
1.70573e-07
3.12817e-08
1.39337e-10
3.42855e-08
1.80901e-07
5.08526e-07
8.14608e-07
1.06813e-06
1.26429e-06
1.41055e-06
1.48785e-06
1.42303e-06
1.21638e-06
1.15406e-06
1.1848e-06
1.20869e-06
1.22552e-06
1.23979e-06
1.25212e-06
1.26329e-06
1.27371e-06
1.28326e-06
1.29194e-06
1.29942e-06
1.30551e-06
1.31021e-06
1.31352e-06
1.31543e-06
1.31596e-06
2.91426e-06
2.9438e-06
2.97335e-06
3.00282e-06
3.03216e-06
3.0613e-06
3.0902e-06
3.1188e-06
3.14695e-06
3.17445e-06
3.20115e-06
3.22693e-06
3.25164e-06
3.27519e-06
3.29747e-06
3.3183e-06
3.33753e-06
3.35516e-06
3.37114e-06
3.38538e-06
3.39777e-06
3.40819e-06
3.41657e-06
3.42317e-06
3.42788e-06
3.43085e-06
3.43162e-06
3.43068e-06
3.42726e-06
3.42055e-06
3.40976e-06
3.39603e-06
3.38866e-06
3.41647e-06
3.52116e-06
3.6327e-06
3.59804e-06
3.39688e-06
3.06683e-06
2.62976e-06
2.09632e-06
1.49139e-06
8.55614e-07
2.6788e-07
5.14091e-08
3.50479e-10
5.59418e-08
2.83765e-07
8.8675e-07
1.53971e-06
2.16354e-06
2.71937e-06
3.1829e-06
3.49832e-06
3.51992e-06
3.20728e-06
3.04531e-06
3.04201e-06
3.05168e-06
3.06644e-06
3.08487e-06
3.1031e-06
3.12084e-06
3.13845e-06
3.15529e-06
3.17119e-06
3.18519e-06
3.19676e-06
3.20565e-06
3.21185e-06
3.21517e-06
3.21562e-06
6.34816e-06
6.40818e-06
6.46787e-06
6.52711e-06
6.58586e-06
6.64404e-06
6.70155e-06
6.75823e-06
6.81376e-06
6.86782e-06
6.9203e-06
6.97106e-06
7.01993e-06
7.06675e-06
7.11145e-06
7.15372e-06
7.19345e-06
7.23084e-06
7.26586e-06
7.29848e-06
7.32857e-06
7.35618e-06
7.38141e-06
7.40502e-06
7.42699e-06
7.44781e-06
7.46732e-06
7.48641e-06
7.50399e-06
7.51927e-06
7.53261e-06
7.54834e-06
7.57929e-06
7.64625e-06
7.74812e-06
7.73255e-06
7.40502e-06
6.7754e-06
5.91544e-06
4.86223e-06
3.66506e-06
2.43737e-06
1.29158e-06
3.59599e-07
7.38669e-08
8.14235e-10
7.9716e-08
3.80203e-07
1.33877e-06
2.52174e-06
3.79483e-06
5.05611e-06
6.20962e-06
7.13736e-06
7.58235e-06
7.37543e-06
7.10551e-06
6.97091e-06
6.88924e-06
6.85576e-06
6.8506e-06
6.85569e-06
6.86549e-06
6.87937e-06
6.89521e-06
6.91221e-06
6.92805e-06
6.94141e-06
6.95112e-06
6.95708e-06
6.95848e-06
6.95522e-06
1.22992e-05
1.24055e-05
1.25108e-05
1.26148e-05
1.27176e-05
1.28192e-05
1.29193e-05
1.30175e-05
1.31133e-05
1.32064e-05
1.32968e-05
1.33847e-05
1.34699e-05
1.35522e-05
1.36318e-05
1.37082e-05
1.37817e-05
1.3853e-05
1.39222e-05
1.39895e-05
1.40551e-05
1.41195e-05
1.41835e-05
1.4249e-05
1.43162e-05
1.43865e-05
1.44607e-05
1.45402e-05
1.46232e-05
1.47087e-05
1.47984e-05
1.48966e-05
1.49988e-05
1.5061e-05
1.49596e-05
1.44529e-05
1.33948e-05
1.18942e-05
1.00664e-05
7.95467e-06
5.68218e-06
3.5288e-06
1.72326e-06
4.17387e-07
9.50836e-08
1.82148e-09
1.01635e-07
4.3995e-07
1.78575e-06
3.65842e-06
5.8997e-06
8.3083e-06
1.06645e-05
1.27785e-05
1.42734e-05
1.47222e-05
1.45619e-05
1.42402e-05
1.39426e-05
1.37527e-05
1.36431e-05
1.35727e-05
1.35235e-05
1.34914e-05
1.34712e-05
1.34608e-05
1.34549e-05
1.34506e-05
1.34445e-05
1.3436e-05
1.34227e-05
1.34041e-05
2.12724e-05
2.14399e-05
2.16049e-05
2.17674e-05
2.19276e-05
2.20854e-05
2.22405e-05
2.23921e-05
2.25392e-05
2.26819e-05
2.2821e-05
2.29569e-05
2.30896e-05
2.32192e-05
2.33462e-05
2.34702e-05
2.3592e-05
2.37136e-05
2.38354e-05
2.3958e-05
2.40822e-05
2.42099e-05
2.43432e-05
2.44854e-05
2.46379e-05
2.48037e-05
2.49849e-05
2.51835e-05
2.53958e-05
2.56192e-05
2.58542e-05
2.6091e-05
2.62613e-05
2.61675e-05
2.54935e-05
2.39593e-05
2.15991e-05
1.8692e-05
1.53898e-05
1.17232e-05
7.93833e-06
4.58449e-06
2.05513e-06
4.34737e-07
1.11814e-07
3.99551e-09
1.18214e-07
4.51827e-07
2.1286e-06
4.76312e-06
8.26304e-06
1.22867e-05
1.64181e-05
2.03888e-05
2.37262e-05
2.56459e-05
2.61278e-05
2.5749e-05
2.51375e-05
2.46414e-05
2.42945e-05
2.40396e-05
2.38396e-05
2.36833e-05
2.35603e-05
2.34663e-05
2.33919e-05
2.33307e-05
2.32754e-05
2.32239e-05
2.31713e-05
2.31157e-05
3.32526e-05
3.34932e-05
3.37294e-05
3.39614e-05
3.41895e-05
3.44137e-05
3.46334e-05
3.48473e-05
3.50541e-05
3.52544e-05
3.54504e-05
3.5643e-05
3.58326e-05
3.60196e-05
3.6205e-05
3.63887e-05
3.65728e-05
3.67606e-05
3.6953e-05
3.71515e-05
3.73581e-05
3.75763e-05
3.78103e-05
3.80654e-05
3.83444e-05
3.86524e-05
3.89927e-05
3.93676e-05
3.97693e-05
4.01903e-05
4.06229e-05
4.10198e-05
4.11884e-05
4.06929e-05
3.89957e-05
3.5863e-05
3.16232e-05
2.67763e-05
2.14964e-05
1.57906e-05
1.01028e-05
5.37693e-06
2.19908e-06
4.26343e-07
1.22535e-07
8.50638e-09
1.27964e-07
4.35779e-07
2.27702e-06
5.60044e-06
1.0543e-05
1.65981e-05
2.30558e-05
2.95381e-05
3.54956e-05
3.97333e-05
4.15633e-05
4.14732e-05
4.05733e-05
3.96596e-05
3.89454e-05
3.83892e-05
3.79351e-05
3.75625e-05
3.72558e-05
3.70084e-05
3.68053e-05
3.66357e-05
3.64874e-05
3.63549e-05
3.623e-05
3.6109e-05
4.779e-05
4.81129e-05
4.8429e-05
4.8739e-05
4.90431e-05
4.93414e-05
4.9633e-05
4.99158e-05
5.01885e-05
5.04526e-05
5.07121e-05
5.09685e-05
5.12226e-05
5.14756e-05
5.17289e-05
5.19829e-05
5.22414e-05
5.25095e-05
5.27884e-05
5.30806e-05
5.33898e-05
5.37216e-05
5.40825e-05
5.44798e-05
5.49176e-05
5.54029e-05
5.59396e-05
5.65281e-05
5.71535e-05
5.77982e-05
5.84356e-05
5.89522e-05
5.8976e-05
5.7783e-05
5.46314e-05
4.9408e-05
4.27951e-05
3.55362e-05
2.78215e-05
1.96508e-05
1.17829e-05
5.69131e-06
2.10683e-06
3.88745e-07
1.28137e-07
1.74473e-08
1.32045e-07
3.92926e-07
2.18158e-06
5.9463e-06
1.23322e-05
2.07148e-05
2.99744e-05
3.95389e-05
4.87635e-05
5.6018e-05
5.98773e-05
6.05568e-05
5.95578e-05
5.82267e-05
5.70793e-05
5.61433e-05
5.53562e-05
5.46907e-05
5.41284e-05
5.36617e-05
5.32714e-05
5.29416e-05
5.26548e-05
5.24013e-05
5.21691e-05
5.19519e-05
6.42238e-05
6.46363e-05
6.50394e-05
6.54341e-05
6.58209e-05
6.61996e-05
6.6569e-05
6.69265e-05
6.72706e-05
6.76043e-05
6.79334e-05
6.82603e-05
6.85863e-05
6.89133e-05
6.92432e-05
6.95774e-05
6.99212e-05
7.02816e-05
7.06604e-05
7.1061e-05
7.14888e-05
7.19516e-05
7.24581e-05
7.30168e-05
7.36328e-05
7.43138e-05
7.50623e-05
7.58739e-05
7.67223e-05
7.75728e-05
7.83659e-05
7.88937e-05
7.85679e-05
7.63699e-05
7.13991e-05
6.37068e-05
5.43339e-05
4.42662e-05
3.3717e-05
2.27437e-05
1.26013e-05
5.3997e-06
1.7983e-06
3.30588e-07
1.31644e-07
3.43189e-08
1.33832e-07
3.31635e-07
1.8624e-06
5.66342e-06
1.3236e-05
2.40523e-05
3.64843e-05
4.96015e-05
6.25864e-05
7.33631e-05
7.98071e-05
8.17722e-05
8.10011e-05
7.93859e-05
7.78326e-05
7.65016e-05
7.53481e-05
7.43457e-05
7.34792e-05
7.27437e-05
7.21186e-05
7.15842e-05
7.11183e-05
7.07069e-05
7.03339e-05
6.99909e-05
8.18981e-05
8.24066e-05
8.29033e-05
8.33894e-05
8.38653e-05
8.43308e-05
8.47843e-05
8.52224e-05
8.56442e-05
8.60542e-05
8.64602e-05
8.68652e-05
8.72712e-05
8.76809e-05
8.80968e-05
8.85213e-05
8.89615e-05
8.94259e-05
8.99167e-05
9.04382e-05
9.09975e-05
9.1604e-05
9.22684e-05
9.29989e-05
9.38007e-05
9.46801e-05
9.56352e-05
9.66529e-05
9.76897e-05
9.86858e-05
9.95331e-05
9.99046e-05
9.89779e-05
9.54661e-05
8.83658e-05
7.79102e-05
6.54675e-05
5.22475e-05
3.85146e-05
2.45229e-05
1.22892e-05
4.5354e-06
1.36044e-06
2.69057e-07
1.37661e-07
6.45103e-08
1.38216e-07
2.6824e-07
1.40992e-06
4.7787e-06
1.29663e-05
2.60375e-05
4.18792e-05
5.89362e-05
7.60641e-05
9.07341e-05
0.000100208
0.000103959
0.000103829
0.000102174
0.000100332
9.86547e-05
9.71482e-05
9.58e-05
9.46068e-05
9.35718e-05
9.26776e-05
9.19035e-05
9.12245e-05
9.06227e-05
9.00785e-05
8.9582e-05
0.000100293
0.000100905
0.000101503
0.000102088
0.00010266
0.00010322
0.000103765
0.000104292
0.000104799
0.000105294
0.000105786
0.000106279
0.000106775
0.000107278
0.000107791
0.000108318
0.000108866
0.000109447
0.000110062
0.000110717
0.000111419
0.00011218
0.00011301
0.000113916
0.000114902
0.00011597
0.000117109
0.000118293
0.000119454
0.000120498
0.000121252
0.000121249
0.00011943
0.000114283
0.000104757
9.12713e-05
7.54761e-05
5.87798e-05
4.15618e-05
2.45281e-05
1.07947e-05
3.32463e-06
9.37081e-07
2.23024e-07
1.59493e-07
1.15392e-07
1.59694e-07
2.2205e-07
9.64488e-07
3.5219e-06
1.14521e-05
2.61773e-05
4.54707e-05
6.67912e-05
8.83987e-05
0.000107288
0.000120195
0.000126225
0.0001272
0.000125833
0.000123891
0.000121972
0.000120167
0.000118495
0.000116975
0.000115626
0.00011444
0.000113399
0.000112477
0.000111656
0.000110912
0.000110234
0.000119067
0.000119792
0.0001205
0.000121193
0.000121872
0.000122536
0.000123182
0.000123806
0.00012441
0.000125001
0.000125591
0.000126183
0.000126782
0.000127392
0.000128015
0.000128658
0.000129329
0.00013004
0.000130793
0.000131593
0.000132449
0.000133372
0.000134372
0.000135453
0.000136614
0.000137847
0.000139132
0.00014042
0.000141613
0.000142571
0.00014304
0.000142394
0.000139347
0.00013221
0.000119935
0.000103132
8.36828e-05
6.31778e-05
4.22495e-05
2.24954e-05
8.39006e-06
2.15269e-06
6.3264e-07
2.27874e-07
2.12429e-07
1.95736e-07
2.12471e-07
2.27067e-07
6.43983e-07
2.29708e-06
8.95741e-06
2.4164e-05
4.66108e-05
7.24441e-05
9.8873e-05
0.000122332
0.000139103
0.000147926
0.000150516
0.000149831
0.000148047
0.000146042
0.000144031
0.000142085
0.000140259
0.000138596
0.000137104
0.000135774
0.000134585
0.000133515
0.000132543
0.000131657
0.000138043
0.000138891
0.000139721
0.000140534
0.00014133
0.00014211
0.000142869
0.000143604
0.000144317
0.000145018
0.00014572
0.000146427
0.000147144
0.000147875
0.000148625
0.000149399
0.000150209
0.000151066
0.000151971
0.000152928
0.000153948
0.00015504
0.00015621
0.000157456
0.00015877
0.000160133
0.000161503
0.000162805
0.000163903
0.000164599
0.000164539
0.000162926
0.000158263
0.000148731
0.000133334
0.000112871
8.94164e-05
6.47573e-05
4.0075e-05
1.85349e-05
5.67205e-06
1.27308e-06
4.66219e-07
2.77536e-07
3.03497e-07
3.1426e-07
3.03473e-07
2.76909e-07
4.72102e-07
1.3652e-06
6.09181e-06
2.00511e-05
4.47442e-05
7.51772e-05
0.000106797
0.00013524
0.000156366
0.000168554
0.000173327
0.000173789
0.00017249
0.000170612
0.000168533
0.000166399
0.000164311
0.000162351
0.000160552
0.000158918
0.000157438
0.000156094
0.000154864
0.000153739
0.000157167
0.000158153
0.000159118
0.000160065
0.000160994
0.000161903
0.000162789
0.00016365
0.000164488
0.000165315
0.000166145
0.000166984
0.000167836
0.000168706
0.0001696
0.000170523
0.000171489
0.000172506
0.000173576
0.000174701
0.000175891
0.000177151
0.000178482
0.000179872
0.000181302
0.000182734
0.000184101
0.000185293
0.000186124
0.000186328
0.000185434
0.000182465
0.000175733
0.000163338
0.00014438
0.000119846
9.19693e-05
6.2843e-05
3.48023e-05
1.33316e-05
3.32634e-06
7.98735e-07
4.3153e-07
3.7396e-07
4.39804e-07
4.77155e-07
4.39819e-07
3.73213e-07
4.35339e-07
8.44042e-07
3.582e-06
1.44715e-05
3.95599e-05
7.42666e-05
0.000111447
0.000145369
0.000171419
0.000187616
0.000195214
0.00019737
0.000196964
0.000195501
0.00019355
0.000191358
0.000189091
0.000186876
0.000184785
0.000182845
0.000181059
0.000179418
0.000177902
0.000176509
0.000176482
0.000177621
0.000178737
0.000179833
0.00018091
0.000181965
0.000182995
0.000183997
0.000184977
0.000185949
0.000186925
0.000187914
0.000188919
0.000189947
0.000191002
0.000192091
0.000193227
0.000194418
0.000195662
0.000196959
0.000198316
0.000199732
0.000201199
0.000202691
0.000204172
0.00020558
0.000206815
0.000207722
0.00020806
0.000207477
0.000205372
0.000200581
0.000191257
0.000175466
0.000152438
0.000123342
9.0571e-05
5.68598e-05
2.67902e-05
8.1353e-06
1.74406e-06
6.18958e-07
4.85731e-07
5.21269e-07
6.24414e-07
6.85225e-07
6.24459e-07
5.20007e-07
4.89378e-07
6.43384e-07
1.86852e-06
8.92577e-06
3.1291e-05
6.90286e-05
0.000112027
0.000151994
0.000183615
0.000204543
0.000215695
0.00022019
0.000221182
0.000220506
0.000218956
0.000216901
0.000214587
0.000212203
0.000209866
0.000207639
0.000205547
0.000203595
0.000201771
0.000200084
0.000196093
0.000197401
0.000198686
0.000199949
0.00020119
0.000202407
0.000203598
0.00020476
0.0002059
0.000207033
0.000208175
0.000209331
0.000210507
0.000211709
0.000212941
0.000214209
0.000215525
0.000216895
0.000218312
0.000219774
0.000221279
0.000222819
0.000224371
0.000225891
0.00022732
0.000228566
0.000229485
0.000229873
0.000229419
0.000227677
0.000223899
0.000216739
0.000204225
0.000184436
0.00015676
0.000122531
8.44105e-05
4.66299e-05
1.74077e-05
4.22092e-06
1.06186e-06
6.03575e-07
6.13053e-07
7.19409e-07
8.53233e-07
9.31872e-07
8.53297e-07
7.17617e-07
6.18303e-07
6.20006e-07
1.12362e-06
4.65146e-06
2.11944e-05
5.90366e-05
0.000107652
0.000154267
0.000192172
0.000218628
0.000234157
0.000241744
0.000244745
0.000245333
0.000244548
0.000242907
0.00024075
0.000238338
0.00023585
0.000233391
0.000231021
0.000228765
0.000226627
0.000224627
0.000216154
0.000217649
0.000219119
0.000220565
0.000221988
0.000223384
0.000224752
0.00022609
0.000227407
0.000228719
0.000230042
0.000231381
0.000232741
0.000234128
0.000235545
0.000236996
0.000238493
0.000240034
0.000241607
0.000243203
0.000244813
0.000246413
0.000247961
0.000249392
0.000250615
0.000251498
0.000251852
0.00025141
0.000249786
0.000246425
0.000240418
0.000230256
0.000213877
0.000189425
0.000156449
0.000116464
7.27994e-05
3.2966e-05
9.37785e-06
2.10353e-06
8.29642e-07
6.95937e-07
8.04106e-07
9.60632e-07
1.11436e-06
1.2033e-06
1.11442e-06
9.58714e-07
8.13241e-07
7.11295e-07
8.65463e-07
2.2947e-06
1.17194e-05
4.47036e-05
9.74247e-05
0.000151188
0.000196146
0.00022899
0.000249804
0.000261347
0.000267094
0.000269538
0.000269989
0.000269134
0.000267425
0.000265208
0.000262728
0.00026015
0.000257573
0.000255056
0.000252622
0.000250312
0.000236853
0.000238552
0.000240223
0.000241868
0.000243486
0.000245076
0.000246634
0.000248161
0.000249668
0.000251172
0.000252686
0.000254215
0.000255764
0.000257337
0.000258935
0.000260559
0.000262217
0.000263898
0.000265584
0.000267254
0.000268886
0.000270437
0.000271843
0.000273007
0.000273803
0.000274053
0.000273512
0.000271845
0.00026858
0.000263038
0.000254149
0.000240261
0.000219275
0.000189433
0.000150444
0.000104142
5.58079e-05
1.83593e-05
4.22096e-06
1.28338e-06
8.263e-07
8.69671e-07
1.04618e-06
1.22963e-06
1.39018e-06
1.4814e-06
1.39021e-06
1.22796e-06
1.06181e-06
8.89001e-07
8.53927e-07
1.37275e-06
5.25315e-06
2.82217e-05
8.07353e-05
0.000141624
0.000194405
0.000234541
0.000261623
0.000278094
0.000287457
0.000292479
0.000294756
0.00029517
0.000294302
0.000292594
0.000290369
0.000287856
0.000285209
0.000282526
0.00027986
0.000277278
0.000258407
0.000260321
0.000262205
0.000264059
0.000265883
0.000267674
0.00026943
0.000271153
0.000272855
0.000274552
0.000276256
0.000277971
0.0002797
0.000281442
0.000283194
0.000284957
0.000286727
0.000288485
0.000290199
0.000291838
0.000293358
0.000294695
0.000295754
0.000296402
0.000296471
0.000295732
0.000293875
0.000290492
0.000285012
0.000276621
0.000264097
0.000245676
0.000219277
0.000183271
0.000137535
8.48174e-05
3.55617e-05
8.02109e-06
2.09848e-06
1.04925e-06
9.55833e-07
1.10364e-06
1.32152e-06
1.50687e-06
1.66169e-06
1.74829e-06
1.66163e-06
1.50555e-06
1.34683e-06
1.13225e-06
9.84622e-07
1.10007e-06
2.51613e-06
1.37468e-05
5.82814e-05
0.00012442
0.000185635
0.000233978
0.00026836
0.000290826
0.00030481
0.00031327
0.000318095
0.000320384
0.000320866
0.00032009
0.000318466
0.000316297
0.000313798
0.000311116
0.000308343
0.000305579
0.000281043
0.000283179
0.000285279
0.000287344
0.000289374
0.000291364
0.000293315
0.000295228
0.000297115
0.000298992
0.000300867
0.000302742
0.000304614
0.000306481
0.000308332
0.000310161
0.000311954
0.000313677
0.000315285
0.000316727
0.000317938
0.000318822
0.000319251
0.000319051
0.000318005
0.000315824
0.000312132
0.000306433
0.000298051
0.000286037
0.000269027
0.000245189
0.000212517
0.000169553
0.000116555
5.92492e-05
1.71783e-05
3.48346e-06
1.39241e-06
1.08512e-06
1.16875e-06
1.3736e-06
1.60977e-06
1.77349e-06
1.91307e-06
1.99046e-06
1.91289e-06
1.7723e-06
1.65051e-06
1.41726e-06
1.20526e-06
1.12441e-06
1.56008e-06
5.65598e-06
3.38742e-05
9.8749e-05
0.00016838
0.000225794
0.000268503
0.000298107
0.000317832
0.000330746
0.000338985
0.000343888
0.000346353
0.000347049
0.000346485
0.000345044
0.00034301
0.000340587
0.000337915
0.000335131
0.000304986
0.000307337
0.000309644
0.000311909
0.000314129
0.000316301
0.000318423
0.0003205
0.000322541
0.000324559
0.000326558
0.000328534
0.000330481
0.000332388
0.000334237
0.000336011
0.000337682
0.0003392
0.000340499
0.000341508
0.000342132
0.000342242
0.000341668
0.000340193
0.000337543
0.000333365
0.000327204
0.000318477
0.000306396
0.000289878
0.000267439
0.000237236
0.000197407
0.000146778
8.70922e-05
3.2291e-05
6.65432e-06
1.90557e-06
1.2595e-06
1.25792e-06
1.42721e-06
1.65394e-06
1.89324e-06
2.01541e-06
2.13454e-06
2.20059e-06
2.13422e-06
2.0141e-06
1.96074e-06
1.71612e-06
1.47464e-06
1.29774e-06
1.3376e-06
2.66167e-06
1.42942e-05
6.56766e-05
0.000141267
0.000208317
0.000260296
0.0002982
0.000324889
0.000343406
0.000356083
0.000364487
0.000369707
0.000372548
0.000373624
0.000373412
0.00037227
0.000370469
0.000368201
0.000365648
0.000330424
0.000332964
0.00033545
0.000337881
0.000340254
0.000342564
0.00034481
0.000346994
0.000349126
0.00035121
0.000353245
0.000355223
0.000357127
0.000358937
0.000360626
0.000362161
0.000363498
0.000364564
0.000365274
0.000365529
0.0003652
0.000364119
0.000362072
0.000358789
0.000353936
0.00034709
0.000337715
0.000325131
0.000308443
0.00028644
0.000257558
0.000220006
0.000172163
0.000113759
5.21473e-05
1.28711e-05
2.90895e-06
1.48341e-06
1.36832e-06
1.49564e-06
1.69653e-06
1.9234e-06
2.16068e-06
2.22501e-06
2.32253e-06
2.37707e-06
2.32207e-06
2.22356e-06
2.26656e-06
1.9988e-06
1.75323e-06
1.53945e-06
1.41653e-06
1.75353e-06
5.43975e-06
3.17435e-05
0.000103825
0.000179852
0.000241786
0.000289082
0.000324006
0.000349394
0.000367682
0.000380635
0.000389532
0.000395331
0.000398765
0.000400409
0.000400709
0.000400006
0.000398554
0.000396586
0.000357469
0.000360147
0.000362754
0.000365288
0.000367743
0.000370114
0.000372397
0.000374594
0.000376707
0.000378736
0.00038067
0.000382491
0.000384174
0.000385686
0.000386986
0.000388024
0.000388734
0.000389019
0.000388769
0.000387853
0.000386103
0.000383309
0.000379207
0.000373471
0.000365702
0.000355401
0.000341949
0.000324569
0.000302259
0.000273716
0.000237343
0.000191468
0.000135052
7.16614e-05
2.20427e-05
4.69074e-06
1.84543e-06
1.49693e-06
1.57824e-06
1.74882e-06
1.94648e-06
2.15328e-06
2.37208e-06
2.40054e-06
2.47808e-06
2.52208e-06
2.47746e-06
2.39901e-06
2.47718e-06
2.23072e-06
2.00515e-06
1.79377e-06
1.61597e-06
1.59704e-06
2.63446e-06
1.13794e-05
6.01048e-05
0.000139072
0.000210943
0.000268505
0.000312882
0.000346476
0.000371672
0.000390376
0.000404036
0.000413762
0.000420419
0.000424689
0.000427111
0.000428108
0.000428005
0.000427088
0.000386098
0.000388827
0.00039146
0.000393993
0.000396418
0.000398727
0.000400915
0.000402976
0.000404908
0.0004067
0.000408331
0.000409772
0.000410985
0.00041192
0.000412521
0.000412718
0.000412416
0.000411495
0.000409813
0.000407204
0.000403457
0.000398315
0.00039146
0.000382507
0.000370989
0.00035633
0.000337826
0.000314609
0.000285593
0.000249423
0.000204538
0.000149597
8.59796e-05
2.91979e-05
7.16828e-06
2.37976e-06
1.66609e-06
1.67254e-06
1.81532e-06
1.98524e-06
2.15973e-06
2.3322e-06
2.50903e-06
2.54416e-06
2.60473e-06
2.6396e-06
2.60392e-06
2.5426e-06
2.60735e-06
2.40201e-06
2.21206e-06
2.02573e-06
1.84658e-06
1.71287e-06
1.91702e-06
4.28038e-06
2.3089e-05
8.70108e-05
0.000165982
0.000234141
0.000288965
0.000332059
0.000365534
0.000391315
0.000410977
0.000425768
0.000436671
0.000444489
0.000449862
0.000453301
0.000455209
0.000455934
0.000416086
0.000418733
0.000421251
0.000423631
0.000425863
0.000427934
0.000429834
0.000431551
0.000433074
0.000434378
0.000435431
0.00043619
0.000436599
0.000436593
0.000436094
0.000435007
0.00043321
0.000430551
0.000426855
0.000421915
0.000415477
0.00040723
0.000396803
0.00038375
0.000367535
0.00034751
0.000322894
0.000292739
0.000255913
0.000211078
0.000156891
9.3917e-05
3.46451e-05
8.94648e-06
3.00128e-06
1.87923e-06
1.78025e-06
1.89352e-06
2.04098e-06
2.19132e-06
2.33624e-06
2.47167e-06
2.59493e-06
2.66e-06
2.70686e-06
2.73405e-06
2.70584e-06
2.65836e-06
2.68653e-06
2.52561e-06
2.3746e-06
2.22112e-06
2.06373e-06
1.91239e-06
1.85451e-06
2.40962e-06
7.37023e-06
3.44739e-05
0.000106533
0.000183871
0.000249638
0.00030329
0.000346364
0.00038061
0.000407632
0.00042877
0.000445113
0.000457568
0.00046688
0.000473656
0.000478385
0.000481481
0.000446935
0.000449317
0.000451524
0.000453542
0.000455357
0.00045695
0.000458304
0.000459398
0.000460206
0.000460693
0.00046081
0.000460496
0.000459677
0.000458267
0.000456163
0.000453243
0.000449354
0.000444311
0.0004379
0.000429871
0.000419923
0.000407692
0.000392754
0.000374607
0.000352652
0.000326186
0.000294366
0.000256196
0.000210546
0.00015632
9.41645e-05
3.58677e-05
9.76682e-06
3.38259e-06
2.09921e-06
1.90468e-06
1.98148e-06
2.10955e-06
2.2409e-06
2.36719e-06
2.48536e-06
2.59316e-06
2.68727e-06
2.75264e-06
2.78864e-06
2.80961e-06
2.78756e-06
2.75087e-06
2.73269e-06
2.61885e-06
2.50386e-06
2.38187e-06
2.25185e-06
2.11572e-06
1.99335e-06
2.04132e-06
3.12124e-06
9.77535e-06
4.25084e-05
0.000116876
0.000192575
0.000257317
0.000311025
0.000355037
0.000390813
0.000419683
0.000442793
0.000461133
0.000475541
0.000486718
0.000495239
0.000501591
0.000477811
0.000479685
0.000481323
0.000482707
0.000483813
0.000484616
0.000485089
0.0004852
0.000484906
0.000484156
0.000482883
0.000481006
0.000478431
0.000475045
0.00047072
0.000465301
0.000458603
0.000450404
0.000440452
0.000428451
0.000414053
0.000396847
0.000376361
0.000352047
0.000323267
0.000289287
0.00024925
0.000202173
0.00014726
8.61959e-05
3.2236e-05
9.18506e-06
3.47637e-06
2.25165e-06
2.0347e-06
2.07902e-06
2.18971e-06
2.30456e-06
2.41436e-06
2.51713e-06
2.6116e-06
2.69702e-06
2.77129e-06
2.82647e-06
2.85383e-06
2.86991e-06
2.85286e-06
2.82446e-06
2.77534e-06
2.70048e-06
2.61374e-06
2.5176e-06
2.41268e-06
2.29919e-06
2.17818e-06
2.09444e-06
2.26459e-06
3.57624e-06
1.09779e-05
4.44519e-05
0.000117257
0.00019182
0.000256509
0.000311204
0.000356971
0.000394945
0.000426221
0.000451814
0.000472623
0.000489426
0.000502879
0.00051354
0.000507481
0.000508539
0.000509282
0.000509684
0.000509713
0.000509333
0.000508504
0.000507179
0.000505298
0.00050279
0.000499568
0.00049553
0.000490554
0.000484502
0.000477215
0.000468507
0.000458156
0.000445906
0.000431463
0.000414492
0.000394606
0.000371356
0.000344237
0.000312684
0.000276044
0.0002336
0.000184613
0.000128813
7.02191e-05
2.61308e-05
7.53334e-06
3.29943e-06
2.33378e-06
2.15037e-06
2.18238e-06
2.27393e-06
2.37508e-06
2.47069e-06
2.56009e-06
2.64276e-06
2.71776e-06
2.78382e-06
2.84113e-06
2.88536e-06
2.90568e-06
2.91798e-06
2.90482e-06
2.88295e-06
2.83879e-06
2.78002e-06
2.71258e-06
2.63676e-06
2.55281e-06
2.46074e-06
2.36007e-06
2.25805e-06
2.2122e-06
2.41757e-06
3.69137e-06
1.03096e-05
3.97188e-05
0.000107544
0.00018069
0.000246068
0.000302537
0.000350708
0.000391453
0.00042569
0.000454296
0.000478086
0.000497767
0.000513956
0.00053425
0.000534108
0.00053355
0.00053254
0.000531034
0.000528984
0.000526333
0.000523016
0.000518955
0.000514056
0.000508209
0.000501287
0.000493142
0.000483608
0.000472492
0.000459577
0.00044461
0.000427302
0.000407325
0.000384311
0.000357856
0.000327496
0.000292711
0.000252964
0.000207632
0.000156281
0.000100234
4.73309e-05
1.68828e-05
5.76021e-06
2.9983e-06
2.36673e-06
2.25009e-06
2.28343e-06
2.3606e-06
2.44728e-06
2.5298e-06
2.60714e-06
2.67886e-06
2.74472e-06
2.80393e-06
2.85538e-06
2.89891e-06
2.93252e-06
2.94689e-06
2.95629e-06
2.94614e-06
2.92957e-06
2.8943e-06
2.84941e-06
2.79627e-06
2.73593e-06
2.66889e-06
2.59516e-06
2.51446e-06
2.4257e-06
2.34413e-06
2.31426e-06
2.49005e-06
3.4853e-06
8.2814e-06
3.06791e-05
8.67304e-05
0.000158006
0.000224625
0.000283341
0.000334418
0.000378472
0.000416209
0.000448382
0.000475686
0.000498763
0.000555879
0.000554067
0.000551711
0.000548761
0.000545161
0.000540847
0.000535743
0.000529763
0.000522808
0.00051476
0.000505486
0.000494833
0.000482627
0.000468672
0.000452747
0.000434604
0.000413968
0.000390533
0.000363951
0.000333834
0.000299789
0.000261384
0.00021808
0.000169567
0.000116353
6.31266e-05
2.52746e-05
9.08988e-06
4.15525e-06
2.74718e-06
2.39001e-06
2.34057e-06
2.38021e-06
2.44639e-06
2.51878e-06
2.58979e-06
2.65606e-06
2.71803e-06
2.77542e-06
2.82798e-06
2.87467e-06
2.91177e-06
2.94567e-06
2.97052e-06
2.97966e-06
2.98685e-06
2.979e-06
2.96692e-06
2.94038e-06
2.90553e-06
2.86338e-06
2.81572e-06
2.76259e-06
2.70407e-06
2.64001e-06
2.56898e-06
2.49533e-06
2.42883e-06
2.39956e-06
2.51011e-06
3.14487e-06
6.0427e-06
1.91636e-05
5.80132e-05
0.000123313
0.000190377
0.000251631
0.000306027
0.000353831
0.000395593
0.000431855
0.000463213