/*--------------------------------*- C++ -*----------------------------------*\
| =========                 |                                                 |
| \\      /  F ield         | OpenFOAM: The Open Source CFD Toolbox           |
|  \\    /   O peration     | Version:  2412                                  |
|   \\  /    A nd           | Website:  www.openfoam.com                      |
|    \\/     M anipulation  |                                                 |
\*---------------------------------------------------------------------------*/
FoamFile
{
    version     2.0;
    format      ascii;
    arch        "LSB;label=32;scalar=64";
    class       volScalarField;
    location    "60";
    object      nuTilda;
}
// * * * * * * * * * * * * * * * * * * * * * * * * * * * * * * * * * * * * * //

dimensions      [0 2 -1 0 0 0 0];

internalField   nonuniform List<scalar> 
7400
(
2.33572e-06
2.3428e-06
2.34991e-06
2.35696e-06
2.36398e-06
2.37094e-06
2.37779e-06
2.38459e-06
2.39129e-06
2.39784e-06
2.40417e-06
2.41024e-06
2.41602e-06
2.42145e-06
2.42651e-06
2.43117e-06
2.43534e-06
2.43899e-06
2.44209e-06
2.44463e-06
2.44658e-06
2.44786e-06
2.44837e-06
2.44813e-06
2.44716e-06
2.44535e-06
2.44256e-06
2.43895e-06
2.43434e-06
2.42855e-06
2.42125e-06
2.41233e-06
2.4038e-06
2.4045e-06
2.43323e-06
2.48709e-06
2.53023e-06
2.55082e-06
2.55656e-06
2.55964e-06
2.56898e-06
2.55341e-06
2.46367e-06
2.10807e-06
1.3577e-06
2.44966e-07
1.39763e-06
2.13892e-06
2.48139e-06
2.5649e-06
2.57661e-06
2.56098e-06
2.5473e-06
2.51835e-06
2.44317e-06
2.33553e-06
2.30655e-06
2.32115e-06
2.33643e-06
2.34943e-06
2.36057e-06
2.37013e-06
2.3786e-06
2.38612e-06
2.39271e-06
2.39841e-06
2.40316e-06
2.40683e-06
2.40964e-06
2.41154e-06
2.41258e-06
2.41285e-06
7.30528e-06
7.32691e-06
7.34866e-06
7.37033e-06
7.39203e-06
7.41357e-06
7.43485e-06
7.45601e-06
7.47694e-06
7.49747e-06
7.51733e-06
7.53647e-06
7.5547e-06
7.57188e-06
7.58795e-06
7.60272e-06
7.61599e-06
7.62765e-06
7.63764e-06
7.64583e-06
7.65214e-06
7.65632e-06
7.65805e-06
7.6574e-06
7.65432e-06
7.64849e-06
7.63924e-06
7.62707e-06
7.61103e-06
7.59012e-06
7.56258e-06
7.52669e-06
7.48761e-06
7.47754e-06
7.57325e-06
7.76496e-06
7.9089e-06
7.96611e-06
7.97091e-06
7.96153e-06
7.95853e-06
7.8641e-06
7.51627e-06
6.33065e-06
4.06978e-06
7.65734e-07
4.1862e-06
6.42449e-06
7.57248e-06
7.90207e-06
7.98534e-06
7.97051e-06
7.94918e-06
7.87328e-06
7.61588e-06
7.21837e-06
7.14593e-06
7.23288e-06
7.29947e-06
7.34633e-06
7.38314e-06
7.41349e-06
7.43988e-06
7.46307e-06
7.48318e-06
7.50056e-06
7.51499e-06
7.52607e-06
7.53449e-06
7.54012e-06
7.54315e-06
7.54376e-06
1.29206e-05
1.2958e-05
1.29956e-05
1.30332e-05
1.3071e-05
1.31084e-05
1.31456e-05
1.31825e-05
1.3219e-05
1.32548e-05
1.32896e-05
1.33231e-05
1.3355e-05
1.33851e-05
1.34132e-05
1.34391e-05
1.34625e-05
1.3483e-05
1.35007e-05
1.35153e-05
1.35265e-05
1.3534e-05
1.35373e-05
1.35366e-05
1.35314e-05
1.35216e-05
1.35057e-05
1.34844e-05
1.34557e-05
1.34177e-05
1.33662e-05
1.32971e-05
1.32184e-05
1.31911e-05
1.33663e-05
1.37184e-05
1.39632e-05
1.40357e-05
1.40048e-05
1.39307e-05
1.38286e-05
1.35248e-05
1.27236e-05
1.04859e-05
6.75036e-06
1.3514e-06
6.93602e-06
1.06429e-05
1.2824e-05
1.35975e-05
1.38846e-05
1.39604e-05
1.39877e-05
1.3901e-05
1.34534e-05
1.26939e-05
1.25785e-05
1.2772e-05
1.29051e-05
1.29911e-05
1.30559e-05
1.31083e-05
1.31534e-05
1.31931e-05
1.32275e-05
1.32572e-05
1.3282e-05
1.33012e-05
1.33157e-05
1.33255e-05
1.33308e-05
1.33319e-05
1.92669e-05
1.93215e-05
1.93764e-05
1.94314e-05
1.94863e-05
1.9541e-05
1.95952e-05
1.9649e-05
1.97021e-05
1.97542e-05
1.98048e-05
1.98534e-05
1.98997e-05
1.99434e-05
1.99844e-05
2.0022e-05
2.0056e-05
2.0086e-05
2.0112e-05
2.01334e-05
2.01503e-05
2.01618e-05
2.01675e-05
2.01675e-05
2.01613e-05
2.01488e-05
2.01277e-05
2.00988e-05
2.00596e-05
2.00065e-05
1.99333e-05
1.98336e-05
1.9719e-05
1.96811e-05
1.99438e-05
2.04484e-05
2.07641e-05
2.08086e-05
2.06823e-05
2.0454e-05
2.01111e-05
1.94035e-05
1.79116e-05
1.4417e-05
9.30929e-06
2.0081e-06
9.55356e-06
1.46339e-05
1.80604e-05
1.95213e-05
2.02107e-05
2.05252e-05
2.06992e-05
2.06701e-05
2.00782e-05
1.89424e-05
1.8761e-05
1.90593e-05
1.92557e-05
1.93775e-05
1.94679e-05
1.95406e-05
1.96033e-05
1.96588e-05
1.97073e-05
1.97496e-05
1.9785e-05
1.98128e-05
1.98338e-05
1.98482e-05
1.98563e-05
1.98581e-05
2.64377e-05
2.65112e-05
2.65848e-05
2.66584e-05
2.67319e-05
2.68047e-05
2.68768e-05
2.69481e-05
2.70185e-05
2.70873e-05
2.7154e-05
2.7218e-05
2.72789e-05
2.73364e-05
2.73903e-05
2.74399e-05
2.74848e-05
2.75246e-05
2.75593e-05
2.75885e-05
2.76117e-05
2.76284e-05
2.7638e-05
2.76407e-05
2.7636e-05
2.76239e-05
2.76016e-05
2.75704e-05
2.75268e-05
2.74667e-05
2.73829e-05
2.72687e-05
2.71419e-05
2.71185e-05
2.74622e-05
2.80603e-05
2.83752e-05
2.83171e-05
2.79991e-05
2.74774e-05
2.66903e-05
2.53391e-05
2.29203e-05
1.80056e-05
1.1682e-05
2.74309e-06
1.19721e-05
1.82762e-05
2.31192e-05
2.55117e-05
2.68508e-05
2.76178e-05
2.80934e-05
2.82367e-05
2.76251e-05
2.62169e-05
2.59181e-05
2.62526e-05
2.64764e-05
2.66165e-05
2.67231e-05
2.68101e-05
2.68861e-05
2.69544e-05
2.7015e-05
2.70687e-05
2.71141e-05
2.71503e-05
2.71779e-05
2.7197e-05
2.7208e-05
2.7211e-05
3.45299e-05
3.46239e-05
3.47177e-05
3.48111e-05
3.49038e-05
3.49955e-05
3.50861e-05
3.51755e-05
3.52632e-05
3.53488e-05
3.54315e-05
3.55108e-05
3.55863e-05
3.56576e-05
3.57245e-05
3.57863e-05
3.58425e-05
3.5893e-05
3.59375e-05
3.59757e-05
3.60072e-05
3.60315e-05
3.6048e-05
3.60574e-05
3.6059e-05
3.60531e-05
3.60372e-05
3.60126e-05
3.59762e-05
3.5924e-05
3.58498e-05
3.57507e-05
3.56532e-05
3.56806e-05
3.60719e-05
3.66459e-05
3.6837e-05
3.65541e-05
3.5895e-05
3.488e-05
3.33971e-05
3.11506e-05
2.75959e-05
2.11348e-05
1.38105e-05
3.56583e-06
1.41313e-05
2.14496e-05
2.78432e-05
3.13857e-05
3.36356e-05
3.51222e-05
3.61253e-05
3.66254e-05
3.62074e-05
3.47754e-05
3.43094e-05
3.45415e-05
3.47189e-05
3.48424e-05
3.49462e-05
3.5035e-05
3.51151e-05
3.51893e-05
3.52569e-05
3.5318e-05
3.53705e-05
3.54131e-05
3.54458e-05
3.54688e-05
3.5482e-05
3.54857e-05
4.36293e-05
4.37453e-05
4.38605e-05
4.39746e-05
4.40874e-05
4.41987e-05
4.43084e-05
4.44162e-05
4.45217e-05
4.46241e-05
4.47229e-05
4.48178e-05
4.49083e-05
4.4994e-05
4.50748e-05
4.51499e-05
4.5219e-05
4.52821e-05
4.53391e-05
4.53898e-05
4.54337e-05
4.54706e-05
4.55001e-05
4.55234e-05
4.554e-05
4.55504e-05
4.55532e-05
4.55498e-05
4.55378e-05
4.55142e-05
4.54761e-05
4.54275e-05
4.54014e-05
4.54998e-05
4.58653e-05
4.62466e-05
4.6129e-05
4.54305e-05
4.42198e-05
4.24678e-05
4.00263e-05
3.66478e-05
3.17814e-05
2.36788e-05
1.56407e-05
4.4907e-06
1.59755e-05
2.40254e-05
3.20726e-05
3.69505e-05
4.03565e-05
4.28427e-05
4.46554e-05
4.57862e-05
4.5861e-05
4.47455e-05
4.41377e-05
4.41251e-05
4.41621e-05
4.42183e-05
4.42882e-05
4.43571e-05
4.44239e-05
4.44899e-05
4.45528e-05
4.4612e-05
4.46639e-05
4.47067e-05
4.47395e-05
4.47624e-05
4.47746e-05
4.47763e-05
5.37583e-05
5.38973e-05
5.40347e-05
5.41702e-05
5.43038e-05
5.44354e-05
5.45647e-05
5.46914e-05
5.48149e-05
5.49345e-05
5.505e-05
5.51612e-05
5.52678e-05
5.53694e-05
5.5466e-05
5.5557e-05
5.56423e-05
5.57222e-05
5.57968e-05
5.58661e-05
5.59299e-05
5.59882e-05
5.60414e-05
5.60911e-05
5.61372e-05
5.61809e-05
5.62217e-05
5.62616e-05
5.62982e-05
5.633e-05
5.63578e-05
5.63905e-05
5.64546e-05
5.65929e-05
5.68018e-05
5.677e-05
5.60911e-05
5.47296e-05
5.27298e-05
4.99985e-05
4.63557e-05
4.16314e-05
3.53155e-05
2.55056e-05
1.71286e-05
5.54426e-06
1.74592e-05
2.58673e-05
3.56429e-05
4.20037e-05
4.67867e-05
5.0529e-05
5.34342e-05
5.55218e-05
5.6461e-05
5.60288e-05
5.54532e-05
5.51609e-05
5.49817e-05
5.49079e-05
5.48964e-05
5.49077e-05
5.49293e-05
5.496e-05
5.49948e-05
5.50322e-05
5.5067e-05
5.50963e-05
5.51176e-05
5.51306e-05
5.51337e-05
5.51266e-05
6.4784e-05
6.49469e-05
6.51072e-05
6.5265e-05
6.54202e-05
6.55727e-05
6.57224e-05
6.58686e-05
6.60106e-05
6.61479e-05
6.62808e-05
6.64095e-05
6.65337e-05
6.66534e-05
6.67686e-05
6.6879e-05
6.69847e-05
6.7087e-05
6.7186e-05
6.7282e-05
6.73753e-05
6.74667e-05
6.75573e-05
6.76497e-05
6.77442e-05
6.7843e-05
6.79468e-05
6.80578e-05
6.81733e-05
6.82918e-05
6.84159e-05
6.8551e-05
6.86912e-05
6.87762e-05
6.86375e-05
6.7936e-05
6.64243e-05
6.4156e-05
6.11487e-05
5.72199e-05
5.21547e-05
4.58917e-05
3.80418e-05
2.6485e-05
1.82488e-05
6.78071e-06
1.85565e-05
2.68402e-05
3.83943e-05
4.63334e-05
5.26915e-05
5.79201e-05
6.21667e-05
6.55116e-05
6.76841e-05
6.83105e-05
6.8088e-05
6.76374e-05
6.72151e-05
6.6943e-05
6.6785e-05
6.66831e-05
6.66117e-05
6.65651e-05
6.65357e-05
6.65204e-05
6.65119e-05
6.65057e-05
6.64968e-05
6.64844e-05
6.6465e-05
6.64379e-05
7.64693e-05
7.66591e-05
7.68454e-05
7.70282e-05
7.72077e-05
7.73839e-05
7.75565e-05
7.77245e-05
7.78872e-05
7.80443e-05
7.81971e-05
7.83459e-05
7.84908e-05
7.8632e-05
7.87699e-05
7.89042e-05
7.90358e-05
7.91669e-05
7.92978e-05
7.94293e-05
7.95622e-05
7.96984e-05
7.98403e-05
7.99913e-05
8.01528e-05
8.03277e-05
8.05183e-05
8.07264e-05
8.09481e-05
8.11804e-05
8.14238e-05
8.1668e-05
8.1843e-05
8.17467e-05
8.10498e-05
7.94307e-05
7.68389e-05
7.3442e-05
6.92227e-05
6.3887e-05
5.71871e-05
4.9213e-05
3.98202e-05
2.67593e-05
1.90066e-05
8.2525e-06
1.92742e-05
2.70218e-05
4.01858e-05
4.97217e-05
5.78315e-05
6.47648e-05
7.05854e-05
7.54551e-05
7.91804e-05
8.12081e-05
8.17059e-05
8.13149e-05
8.06783e-05
8.01564e-05
7.97885e-05
7.95167e-05
7.93024e-05
7.91342e-05
7.90016e-05
7.89e-05
7.88195e-05
7.8753e-05
7.86931e-05
7.86371e-05
7.85798e-05
7.85193e-05
8.86438e-05
8.88666e-05
8.90847e-05
8.92984e-05
8.95079e-05
8.97133e-05
8.9914e-05
9.0109e-05
9.02971e-05
9.04789e-05
9.06564e-05
9.08305e-05
9.10014e-05
9.11698e-05
9.13363e-05
9.1501e-05
9.16658e-05
9.18336e-05
9.20051e-05
9.21818e-05
9.23652e-05
9.25586e-05
9.27656e-05
9.29907e-05
9.32363e-05
9.35066e-05
9.38045e-05
9.41315e-05
9.44807e-05
9.48455e-05
9.5219e-05
9.55604e-05
9.57051e-05
9.52793e-05
9.3807e-05
9.10289e-05
8.71176e-05
8.2369e-05
7.6723e-05
6.97597e-05
6.12118e-05
5.13778e-05
4.05282e-05
2.66276e-05
1.94487e-05
9.9694e-06
1.96617e-05
2.67755e-05
4.08979e-05
5.19494e-05
6.19629e-05
7.08191e-05
7.8454e-05
8.51163e-05
9.06973e-05
9.44495e-05
9.60262e-05
9.59491e-05
9.51762e-05
9.43855e-05
9.37631e-05
9.32757e-05
9.28758e-05
9.25464e-05
9.22745e-05
9.20544e-05
9.18734e-05
9.1722e-05
9.15894e-05
9.14708e-05
9.13588e-05
9.12501e-05
0.000101235
0.000101499
0.000101758
0.000102011
0.000102259
0.000102501
0.000102738
0.000102967
0.000103188
0.000103402
0.000103611
0.000103818
0.000104023
0.000104226
0.00010443
0.000104634
0.000104841
0.000105056
0.000105279
0.000105512
0.000105759
0.000106023
0.00010631
0.000106625
0.000106972
0.000107356
0.00010778
0.000108243
0.000108735
0.000109241
0.000109739
0.000110143
0.000110161
0.000109229
0.000106745
0.000102555
9.70746e-05
9.0734e-05
8.34229e-05
7.45907e-05
6.39811e-05
5.21775e-05
4.00784e-05
2.6013e-05
1.96684e-05
1.19325e-05
1.98174e-05
2.60835e-05
4.04439e-05
5.28048e-05
6.48346e-05
7.58318e-05
8.55399e-05
9.42805e-05
0.000102031
0.000107842
0.000110864
0.000111392
0.000110615
0.000109576
0.000108677
0.00010794
0.000107319
0.000106792
0.000106346
0.000105975
0.000105664
0.000105401
0.000105172
0.000104969
0.000104783
0.000104609
0.000114225
0.000114542
0.000114851
0.000115154
0.00011545
0.00011574
0.000116023
0.000116296
0.000116559
0.000116814
0.000117065
0.000117314
0.000117563
0.000117812
0.000118063
0.000118317
0.000118579
0.000118853
0.00011914
0.000119444
0.000119769
0.00012012
0.000120503
0.000120926
0.000121392
0.000121907
0.000122472
0.000123085
0.000123724
0.000124365
0.000124962
0.000125359
0.000125114
0.000123459
0.000119701
0.000113827
0.000106509
9.83144e-05
8.90732e-05
7.81123e-05
6.52446e-05
5.14368e-05
3.8464e-05
2.49695e-05
1.98022e-05
1.41347e-05
1.98844e-05
2.49894e-05
3.88147e-05
5.21077e-05
6.61915e-05
7.95302e-05
9.15866e-05
0.000102712
0.000112963
0.000121188
0.000126046
0.000127523
0.000126944
0.00012573
0.000124561
0.000123558
0.000122688
0.000121931
0.000121276
0.00012072
0.000120246
0.000119841
0.000119488
0.000119176
0.000118892
0.000118632
0.000127618
0.000128
0.000128372
0.000128737
0.000129094
0.000129444
0.000129784
0.000130113
0.000130429
0.000130737
0.000131041
0.000131345
0.00013165
0.000131957
0.000132269
0.000132587
0.000132917
0.000133266
0.000133634
0.000134025
0.000134445
0.0001349
0.000135398
0.000135946
0.000136548
0.000137208
0.000137926
0.00013869
0.00013947
0.000140219
0.000140857
0.000141136
0.000140439
0.000137799
0.000132471
0.000124619
0.000115179
0.000104846
9.33858e-05
8.0031e-05
6.47687e-05
4.90708e-05
3.57905e-05
2.3705e-05
2.00259e-05
1.65566e-05
2.00461e-05
2.36869e-05
3.61212e-05
4.97655e-05
6.57924e-05
8.16129e-05
9.6296e-05
0.00011013
0.000123228
0.000134247
0.000141365
0.000144193
0.000144095
0.000142846
0.000141458
0.000140196
0.000139063
0.000138049
0.000137153
0.000136376
0.000135705
0.000135124
0.000134615
0.000134163
0.000133755
0.000133383
0.000141429
0.00014189
0.00014234
0.000142781
0.000143213
0.000143635
0.000144047
0.000144444
0.000144827
0.000145201
0.000145573
0.000145946
0.000146321
0.000146702
0.000147091
0.00014749
0.000147905
0.000148346
0.000148813
0.00014931
0.000149843
0.000150422
0.000151053
0.000151744
0.000152496
0.000153311
0.000154182
0.000155088
0.000155978
0.000156779
0.000157359
0.000157356
0.000155959
0.000152024
0.000144795
0.00013465
0.000122785
0.000110008
9.60249e-05
8.00366e-05
6.23837e-05
4.51727e-05
3.25281e-05
2.26102e-05
2.07808e-05
1.91575e-05
2.07874e-05
2.25853e-05
3.27686e-05
4.58679e-05
6.34556e-05
8.17567e-05
9.93201e-05
0.000116193
0.000132495
0.000146709
0.000156547
0.000161193
0.000161947
0.000160889
0.00015939
0.000157912
0.000156525
0.000155242
0.000154079
0.000153048
0.000152143
0.00015135
0.000150648
0.000150023
0.000149458
0.000148943
0.000155681
0.000156237
0.00015678
0.000157313
0.000157835
0.000158346
0.000158843
0.000159325
0.000159791
0.000160247
0.000160702
0.000161161
0.000161624
0.000162096
0.00016258
0.000163078
0.000163599
0.000164152
0.000164737
0.00016536
0.000166028
0.000166749
0.00016753
0.000168377
0.000169286
0.000170256
0.000171266
0.000172281
0.000173224
0.000173982
0.000174353
0.000173842
0.000171436
0.000165842
0.000156347
0.000143568
0.000128958
0.000113419
9.66115e-05
7.78388e-05
5.80793e-05
4.03037e-05
2.94299e-05
2.2733e-05
2.23347e-05
2.18793e-05
2.23359e-05
2.27127e-05
2.95631e-05
4.09916e-05
5.91578e-05
7.96495e-05
0.000100265
0.000120493
0.00014036
0.000158189
0.000171243
0.000178238
0.000180308
0.000179759
0.000178334
0.000176736
0.000175138
0.000173598
0.000172155
0.000170844
0.000169672
0.000168628
0.000167697
0.00016686
0.000166101
0.00016541
0.000170409
0.000171077
0.00017173
0.000172372
0.000173001
0.000173617
0.000174218
0.0001748
0.000175366
0.000175923
0.00017648
0.000177043
0.000177614
0.000178197
0.000178796
0.000179414
0.000180062
0.000180749
0.000181474
0.000182243
0.000183064
0.000183943
0.000184888
0.000185895
0.000186959
0.000188065
0.00018918
0.000190241
0.000191137
0.000191706
0.000191657
0.00019034
0.000186549
0.00017888
0.000166718
0.000150948
0.000133259
0.000114635
9.47457e-05
7.32508e-05
5.21293e-05
3.51848e-05
2.72372e-05
2.38912e-05
2.44363e-05
2.46522e-05
2.44358e-05
2.38776e-05
2.73238e-05
3.58227e-05
5.31548e-05
7.50616e-05
9.87144e-05
0.000122559
0.000146338
0.000168209
0.000185014
0.00019495
0.000198889
0.000199271
0.000198196
0.000196645
0.000194932
0.00019318
0.000191471
0.00018987
0.000188406
0.00018708
0.000185881
0.000184794
0.000183801
0.000182896
0.000185662
0.000186459
0.000187242
0.00018801
0.000188765
0.000189505
0.000190228
0.00019093
0.000191615
0.000192292
0.000192972
0.00019366
0.000194359
0.000195075
0.000195811
0.000196572
0.000197368
0.00019821
0.000199095
0.000200028
0.000201016
0.000202064
0.000203174
0.000204335
0.000205531
0.000206731
0.000207879
0.000208882
0.000209583
0.000209755
0.000209001
0.000206505
0.000200885
0.000190676
0.000175416
0.000156279
0.000135174
0.000113161
9.00681e-05
6.63318e-05
4.51789e-05
3.12287e-05
2.67092e-05
2.57593e-05
2.68379e-05
2.73976e-05
2.68381e-05
2.57463e-05
2.67687e-05
3.16711e-05
4.60743e-05
6.79619e-05
9.42989e-05
0.000121871
0.000149865
0.000176201
0.000197311
0.000210841
0.000217291
0.000219133
0.000218786
0.000217536
0.000215873
0.00021401
0.000212088
0.000210217
0.000208455
0.000206825
0.000205328
0.000203955
0.00020269
0.00020153
0.000201508
0.000202456
0.000203386
0.000204302
0.000205202
0.000206086
0.00020695
0.000207792
0.000208617
0.000209435
0.000210258
0.000211093
0.000211943
0.000212813
0.000213708
0.000214632
0.000215598
0.000216613
0.000217673
0.000218782
0.000219943
0.000221156
0.000222416
0.0002237
0.000224976
0.000226192
0.000227259
0.000228045
0.000228337
0.000227832
0.000226012
0.000221885
0.000213924
0.000200663
0.00018185
0.000158967
0.000134125
0.000108504
8.23832e-05
5.758e-05
3.81601e-05
2.92669e-05
2.75215e-05
2.80185e-05
2.93322e-05
3.00334e-05
2.93327e-05
2.80013e-05
2.75737e-05
2.95561e-05
3.88478e-05
5.90988e-05
8.68025e-05
0.0001179
0.000150305
0.000181493
0.000207471
0.000225296
0.000234983
0.000238922
0.000239794
0.0002392
0.000237839
0.000236038
0.000234015
0.000231936
0.000229904
0.000227973
0.000226163
0.000224478
0.000222908
0.000221458
0.000218042
0.00021916
0.000220259
0.000221342
0.000222408
0.000223455
0.000224481
0.000225483
0.000226468
0.000227449
0.000228437
0.00022944
0.000230461
0.000231506
0.000232579
0.000233685
0.000234835
0.000236033
0.000237274
0.000238557
0.00023988
0.000241235
0.000242603
0.000243946
0.00024521
0.000246312
0.000247128
0.000247471
0.000247069
0.000245525
0.000242187
0.000235897
0.000225022
0.000208161
0.000185332
0.000158342
0.000129504
0.000100281
7.18533e-05
4.81345e-05
3.3585e-05
2.90804e-05
2.91957e-05
3.04077e-05
3.17588e-05
3.24818e-05
3.17594e-05
3.03884e-05
2.9259e-05
2.92794e-05
3.4075e-05
4.94053e-05
7.63807e-05
0.000110209
0.000146985
0.00018332
0.000214702
0.000237551
0.000251281
0.000258064
0.000260761
0.00026129
0.000260584
0.000259108
0.000257173
0.000255013
0.00025279
0.000250599
0.000248491
0.000246489
0.000244596
0.000242829
0.000235384
0.000236693
0.000237982
0.000239252
0.000240503
0.000241733
0.000242939
0.000244121
0.000245286
0.000246449
0.000247621
0.00024881
0.00025002
0.000251255
0.000252518
0.000253813
0.000255151
0.000256531
0.000257942
0.000259375
0.000260822
0.000262262
0.000263658
0.00026495
0.000266055
0.000266854
0.000267174
0.000266774
0.000265306
0.000262274
0.000256875
0.000247811
0.000233396
0.000212371
0.000185081
0.000153688
0.000120762
8.83776e-05
5.99297e-05
4.00621e-05
3.15324e-05
3.01521e-05
3.12821e-05
3.27351e-05
3.40028e-05
3.46791e-05
3.40033e-05
3.27183e-05
3.13723e-05
3.032e-05
3.18743e-05
4.09805e-05
6.3881e-05
9.86805e-05
0.00013927
0.000180846
0.000218087
0.000246688
0.000265322
0.000275801
0.000281053
0.000283294
0.000283707
0.000282923
0.000281356
0.000279327
0.000277061
0.00027471
0.000272364
0.000270078
0.000267872
0.000265781
0.000253686
0.000255204
0.0002567
0.000258175
0.000259629
0.000261058
0.000262461
0.000263839
0.000265199
0.000266559
0.000267929
0.000269315
0.000270721
0.00027215
0.000273603
0.000275083
0.000276594
0.00027813
0.000279671
0.0002812
0.000282695
0.000284119
0.00028541
0.00028648
0.000287211
0.000287441
0.000286944
0.000285411
0.000282415
0.000277344
0.000269255
0.000256735
0.000238119
0.000212378
0.00018025
0.000144331
0.000107676
7.30361e-05
4.81346e-05
3.52578e-05
3.15e-05
3.19138e-05
3.34573e-05
3.48724e-05
3.59903e-05
3.65844e-05
3.59904e-05
3.48602e-05
3.35846e-05
3.20934e-05
3.17654e-05
3.58735e-05
5.10545e-05
8.38216e-05
0.000126744
0.000173233
0.000216602
0.000251622
0.000276053
0.000291165
0.000299831
0.000304499
0.000306619
0.000307005
0.000306197
0.000304606
0.000302536
0.000300202
0.000297746
0.000295261
0.000292796
0.000290413
0.000273123
0.000274866
0.000276583
0.000278277
0.000279944
0.000281584
0.000283194
0.000284776
0.00028634
0.000287901
0.000289471
0.000291053
0.000292648
0.000294258
0.00029588
0.000297512
0.000299153
0.000300785
0.000302378
0.000303902
0.000305317
0.000306563
0.00030755
0.000308155
0.000308219
0.000307529
0.000305799
0.00030265
0.000297563
0.000289807
0.000278311
0.000261599
0.00023812
0.000207182
0.00017001
0.000129809
9.0757e-05
5.73529e-05
4.0037e-05
3.34824e-05
3.26932e-05
3.39186e-05
3.55242e-05
3.67456e-05
3.76854e-05
3.81841e-05
3.76851e-05
3.67373e-05
3.5698e-05
3.41419e-05
3.29422e-05
3.38905e-05
4.19792e-05
6.69345e-05
0.000109619
0.000159798
0.00020917
0.000251121
0.000282213
0.000302961
0.000316016
0.000323961
0.000328506
0.000330666
0.000331121
0.000330388
0.000328855
0.000326811
0.000324457
0.000321935
0.00031933
0.000316737
0.00029389
0.000295865
0.000297811
0.000299726
0.000301611
0.000303462
0.000305277
0.000307059
0.00030882
0.000310573
0.000312326
0.000314079
0.000315833
0.000317583
0.00031932
0.000321037
0.000322722
0.000324344
0.000325858
0.000327216
0.000328358
0.000329192
0.000329596
0.000329408
0.000328421
0.000326365
0.00032289
0.000317538
0.000309694
0.000298514
0.000282824
0.00026116
0.00023221
0.000195772
0.000153758
0.000110374
7.1563e-05
4.57345e-05
3.60051e-05
3.37719e-05
3.44208e-05
3.58792e-05
3.73775e-05
3.83258e-05
3.9086e-05
3.94906e-05
3.90851e-05
3.83192e-05
3.76197e-05
3.61695e-05
3.46936e-05
3.40811e-05
3.70761e-05
5.20891e-05
8.92182e-05
0.000140266
0.000194806
0.000243859
0.000282344
0.000309746
0.000328258
0.000340469
0.000348294
0.000352962
0.000355312
0.000355976
0.000355438
0.000354063
0.000352125
0.000349818
0.000347276
0.000344631
0.000316182
0.000318385
0.000320552
0.00032268
0.000324769
0.000326814
0.000328815
0.000330775
0.000332703
0.000334611
0.000336502
0.000338373
0.000340218
0.000342027
0.000343782
0.000345467
0.000347055
0.000348498
0.000349735
0.000350695
0.000351289
0.000351394
0.000350847
0.000349443
0.000346923
0.000342954
0.000337114
0.000328866
0.000317503
0.00030208
0.000281369
0.000254028
0.000219165
0.000177322
0.000131515
8.77468e-05
5.44585e-05
3.90462e-05
3.5088e-05
3.50767e-05
3.62347e-05
3.76399e-05
3.89805e-05
3.96186e-05
4.0215e-05
4.05355e-05
4.02134e-05
3.96119e-05
3.93365e-05
3.80009e-05
3.65413e-05
3.53587e-05
3.56349e-05
4.26023e-05
6.77134e-05
0.00011534
0.000172951
0.00022856
0.000274843
0.000309833
0.000334923
0.000352503
0.000364607
0.000372659
0.00037767
0.0003804
0.000381436
0.000381231
0.000380134
0.000378402
0.000376223
0.000373773
0.000340165
0.000342574
0.000344934
0.000347244
0.000349501
0.0003517
0.00035384
0.000355923
0.000357957
0.000359948
0.000361893
0.000363784
0.000365606
0.000367339
0.000368957
0.000370428
0.00037171
0.000372733
0.000373414
0.000373659
0.000373343
0.000372306
0.000370342
0.000367197
0.000362553
0.000356014
0.000347086
0.000335152
0.000319423
0.000298887
0.000272351
0.00023876
0.000197926
0.000151624
0.000104766
6.56503e-05
4.36083e-05
3.65972e-05
3.58437e-05
3.66747e-05
3.78882e-05
3.91407e-05
4.03426e-05
4.06522e-05
4.11097e-05
4.13597e-05
4.11076e-05
4.06453e-05
4.08488e-05
3.95335e-05
3.8212e-05
3.69489e-05
3.61647e-05
3.82137e-05
5.15401e-05
8.72313e-05
0.000144092
0.000204317
0.000258102
0.00030134
0.000334087
0.000358214
0.000375725
0.000388185
0.000396768
0.000402372
0.000405694
0.000407286
0.000407576
0.000406895
0.00040549
0.000403586
0.000365934
0.000368498
0.000370997
0.000373427
0.000375783
0.000378061
0.000380255
0.000382368
0.000384402
0.000386355
0.000388218
0.000389974
0.000391597
0.000393055
0.00039431
0.000395312
0.000395997
0.000396273
0.000396031
0.000395146
0.000393458
0.000390763
0.000386809
0.000381289
0.000373825
0.000363955
0.000351115
0.00033462
0.000313628
0.000287132
0.000254124
0.000214103
0.000168062
0.0001199
7.73363e-05
4.95172e-05
3.87228e-05
3.6683e-05
3.7187e-05
3.81871e-05
3.92621e-05
4.03066e-05
4.1337e-05
4.1466e-05
4.18121e-05
4.20052e-05
4.18094e-05
4.14591e-05
4.18082e-05
4.06794e-05
3.95661e-05
3.84389e-05
3.74147e-05
3.7301e-05
4.24877e-05
6.33391e-05
0.000111041
0.000171219
0.00023084
0.000282346
0.000323596
0.000355429
0.000379559
0.000397584
0.000410799
0.000420231
0.000426698
0.00043085
0.000433207
0.000434177
0.000434077
0.000433184
0.000393453
0.000396087
0.00039863
0.000401078
0.000403423
0.000405658
0.000407775
0.000409772
0.000411643
0.00041338
0.000414962
0.000416359
0.000417536
0.000418444
0.000419027
0.000419217
0.000418925
0.000418031
0.000416399
0.000413868
0.000410238
0.000405258
0.00039863
0.00038999
0.000378902
0.000364844
0.000347192
0.000325221
0.000298102
0.000264978
0.000225292
0.000179572
0.000130681
8.47841e-05
5.55883e-05
4.13719e-05
3.77112e-05
3.77489e-05
3.8558e-05
3.94637e-05
4.0338e-05
4.11544e-05
4.19482e-05
4.21012e-05
4.23614e-05
4.25094e-05
4.2358e-05
4.20944e-05
4.23726e-05
4.14726e-05
4.05904e-05
3.96713e-05
3.8729e-05
3.79823e-05
3.91069e-05
4.83151e-05
7.84902e-05
0.000131454
0.000192838
0.000251266
0.000301231
0.000341715
0.000373663
0.00039849
0.000417528
0.000431899
0.000442518
0.000450143
0.000455389
0.000458749
0.000460614
0.000461322
0.000422488
0.000425059
0.000427507
0.000429821
0.000431992
0.000434007
0.000435857
0.00043753
0.000439012
0.000440283
0.000441309
0.000442049
0.000442448
0.000442442
0.000441955
0.000440896
0.000439145
0.000436555
0.000432957
0.000428153
0.000421897
0.000413894
0.000403795
0.000391188
0.000375583
0.000356416
0.000333036
0.000304741
0.000270856
0.000230957
0.000185438
0.000136635
8.99247e-05
5.91374e-05
4.39686e-05
3.89055e-05
3.83636e-05
3.8982e-05
3.97487e-05
4.04909e-05
4.11729e-05
4.17838e-05
4.23196e-05
4.25953e-05
4.27909e-05
4.29033e-05
4.27867e-05
4.25884e-05
4.27064e-05
4.20206e-05
4.13484e-05
4.06337e-05
3.98634e-05
3.90824e-05
3.8772e-05
4.15069e-05
5.60179e-05
8.97683e-05
0.000146138
0.000207686
0.000265172
0.000314593
0.000355322
0.000388161
0.000414284
0.000434821
0.000450752
0.00046292
0.000472031
0.000478667
0.000483302
0.000486338
0.000452531
0.000454856
0.000457012
0.000458985
0.000460758
0.000462315
0.000463639
0.000464709
0.0004655
0.000465976
0.00046609
0.000465783
0.000464982
0.000463603
0.000461546
0.000458693
0.000454893
0.000449969
0.000443716
0.000435894
0.000426216
0.000414342
0.000399881
0.000382381
0.000361326
0.00033615
0.000306256
0.000271113
0.000230495
0.000184976
0.000136821
9.10331e-05
6.06249e-05
4.53798e-05
4.00406e-05
3.90414e-05
3.94442e-05
4.00918e-05
4.07277e-05
4.13147e-05
4.18442e-05
4.2312e-05
4.27094e-05
4.29797e-05
4.31267e-05
4.32117e-05
4.31223e-05
4.29725e-05
4.28977e-05
4.24215e-05
4.19255e-05
4.13815e-05
4.07795e-05
4.01224e-05
3.95055e-05
3.97504e-05
4.44254e-05
6.064e-05
9.68315e-05
0.000154004
0.000215044
0.000272132
0.000321849
0.000363606
0.000398005
0.000425982
0.000448488
0.000466406
0.000480514
0.000491475
0.000499841
0.000506081
0.000482739
0.000484576
0.000486183
0.00048754
0.000488625
0.000489413
0.000489877
0.000489985
0.000489697
0.000488961
0.000487712
0.000485872
0.000483347
0.000480028
0.00047579
0.000470485
0.000463932
0.000455919
0.000446204
0.000434511
0.000420513
0.000403839
0.000384069
0.000360748
0.000333389
0.00030153
0.000264821
0.000223253
0.000177706
0.000130843
8.76952e-05
5.95785e-05
4.57098e-05
4.07786e-05
3.97169e-05
3.99401e-05
4.04831e-05
4.10265e-05
4.15282e-05
4.19836e-05
4.23907e-05
4.275e-05
4.3056e-05
4.32797e-05
4.33894e-05
4.34536e-05
4.33855e-05
4.32716e-05
4.30726e-05
4.27644e-05
4.23998e-05
4.19856e-05
4.15207e-05
4.10015e-05
4.04275e-05
4.00169e-05
4.08396e-05
4.60546e-05
6.26863e-05
9.847e-05
0.000154295
0.000214402
0.000271397
0.000322018
0.000365456
0.000401998
0.00043234
0.000457296
0.000477655
0.000494133
0.000507347
0.000517831
0.000511872
0.000512912
0.000513643
0.000514038
0.000514066
0.000513693
0.000512877
0.000511574
0.000509725
0.00050726
0.000504093
0.000500126
0.00049524
0.000489301
0.000482155
0.000473623
0.000463495
0.000451526
0.000437443
0.00042094
0.000401671
0.000379255
0.000353294
0.000323409
0.000289275
0.000250784
0.00020831
0.000163198
0.000118805
8.1709e-05
5.63593e-05
4.50818e-05
4.11616e-05
4.02924e-05
4.04478e-05
4.08835e-05
4.13506e-05
4.17795e-05
4.217e-05
4.25227e-05
4.2836e-05
4.31071e-05
4.33386e-05
4.3515e-05
4.35954e-05
4.36439e-05
4.3592e-05
4.35055e-05
4.33292e-05
4.30916e-05
4.28146e-05
4.24974e-05
4.21386e-05
4.17354e-05
4.12822e-05
4.08088e-05
4.05911e-05
4.15427e-05
4.64439e-05
6.15671e-05
9.44369e-05
0.000146903
0.000205019
0.000261952
0.000313887
0.000359469
0.000398624
0.000431824
0.000459722
0.000483008
0.000502323
0.000518241
0.000538225
0.000538085
0.000537536
0.00053654
0.000535056
0.000533036
0.000530425
0.000527159
0.00052316
0.000518338
0.000512587
0.000505782
0.000497781
0.000488424
0.000477527
0.000464884
0.000450261
0.000433393
0.000413986
0.000391729
0.000366304
0.00033739
0.000304715
0.000268181
0.000227967
0.000184945
0.000141384
0.000100858
7.11858e-05
5.23488e-05
4.39571e-05
4.13126e-05
4.07712e-05
4.0928e-05
4.12846e-05
4.16756e-05
4.20388e-05
4.23717e-05
4.26743e-05
4.29472e-05
4.31887e-05
4.33956e-05
4.35687e-05
4.37011e-05
4.37573e-05
4.3794e-05
4.37544e-05
4.36895e-05
4.35504e-05
4.33717e-05
4.31577e-05
4.29111e-05
4.26326e-05
4.23206e-05
4.19719e-05
4.15791e-05
4.12092e-05
4.10714e-05
4.18649e-05
4.57409e-05
5.78675e-05
8.62185e-05
0.000131244
0.00018634
0.000242827
0.000296016
0.000343953
0.000386101
0.000422607
0.000453944
0.000480656
0.000503302
0.00055956
0.000557772
0.000555446
0.000552536
0.000548984
0.000544729
0.000539697
0.000533804
0.000526953
0.000519031
0.00050991
0.000499442
0.000487462
0.000473785
0.000458207
0.000440503
0.000420431
0.000397735
0.000372145
0.000343399
0.000311317
0.000275835
0.000237071
0.000195783
0.000153604
0.00011338
8.08217e-05
5.94034e-05
4.7933e-05
4.29573e-05
4.14184e-05
4.11929e-05
4.13739e-05
4.16716e-05
4.19908e-05
4.22976e-05
4.25788e-05
4.28372e-05
4.30729e-05
4.32857e-05
4.34726e-05
4.36195e-05
4.37526e-05
4.38495e-05
4.3885e-05
4.39128e-05
4.38824e-05
4.38355e-05
4.37319e-05
4.35949e-05
4.34276e-05
4.32364e-05
4.30205e-05
4.27793e-05
4.25111e-05
4.22083e-05
4.18881e-05
4.15932e-05
4.14616e-05
4.19529e-05
4.45139e-05
5.30373e-05
7.40107e-05
0.000109409
0.000158944
0.000213178
0.000266975
0.000317157
0.000362453
0.000402625
0.000437825
0.000468442
0.000573007
0.000569003