/*--------------------------------*- C++ -*----------------------------------*\
| =========                 |                                                 |
| \\      /  F ield         | OpenFOAM: The Open Source CFD Toolbox           |
|  \\    /   O peration     | Version:  2412                                  |
|   \\  /    A nd           | Website:  www.openfoam.com                      |
|    \\/     M anipulation  |                                                 |
\*---------------------------------------------------------------------------*/
FoamFile
{
    version     2.0;
    format      ascii;
    arch        "LSB;label=32;scalar=64";
    class       volScalarField;
    location    "220";
    object      p;
}
// * * * * * * * * * * * * * * * * * * * * * * * * * * * * * * * * * * * * * //

dimensions      [0 2 -2 0 0 0 0];

internalField   nonuniform List<scalar> 
8637
(
26.665
25.2692
23.9338
22.6729
21.4964
20.4063
19.4036
18.4783
17.6287
16.861
16.1847
15.5496
14.9384
14.3963
13.862
13.3387
12.8723
12.4191
11.9912
11.5881
11.1936
10.8357
10.4888
10.1686
9.87657
9.59803
9.35831
9.14496
8.95117
8.80337
8.68935
8.60266
8.56671
8.57457
8.62062
8.72615
8.88821
9.09967
9.3783
9.72864
10.1475
10.6436
11.2264
11.8973
12.6628
13.5336
14.5123
15.6061
16.8282
18.185
19.6796
21.3221
23.1299
25.1141
27.2743
29.6205
32.178
34.9569
37.9613
41.2055
44.712
48.4981
52.5709
56.9492
61.6635
66.7253
72.1553
77.9846
84.2361
90.9434
98.126
105.834
114.101
122.962
132.485
142.703
153.693
165.514
178.249
191.991
206.824
222.866
240.24
259.064
279.454
301.523
325.318
350.702
26.665
25.2692
23.9338
22.6729
21.4964
20.4063
19.4036
18.4783
17.6287
16.861
16.1847
15.5496
14.9384
14.3963
13.862
13.3387
12.8723
12.4191
11.9912
11.5881
11.1936
10.8357
10.4888
10.1686
9.87657
9.59803
9.35831
9.14496
8.95117
8.80338
8.68935
8.60266
8.56671
8.57457
8.62062
8.72616
8.88821
9.09967
9.3783
9.72864
10.1475
10.6436
11.2264
11.8973
12.6628
13.5337
14.5123
15.6062
16.8282
18.185
19.6796
21.3222
23.1298
25.1141
27.2743
29.6205
32.178
34.9569
37.9613
41.2055
44.712
48.4981
52.5709
56.9492
61.6636
66.7253
72.1553
77.9846
84.2361
90.9435
98.126
105.834
114.101
122.962
132.485
142.703
153.693
165.514
178.249
191.991
206.824
222.866
240.24
259.064
279.454
301.523
325.318
350.702
26.665
25.2692
23.9338
22.6729
21.4964
20.4063
19.4036
18.4783
17.6287
16.861
16.1847
15.5496
14.9384
14.3963
13.862
13.3387
12.8723
12.4191
11.9912
11.5881
11.1936
10.8357
10.4888
10.1686
9.87658
9.59803
9.35831
9.14497
8.95118
8.80338
8.68935
8.60267
8.56672
8.57457
8.62063
8.72616
8.88822
9.09968
9.37831
9.72865
10.1475
10.6436
11.2264
11.8974
12.6629
13.5337
14.5123
15.6062
16.8282
18.185
19.6796
21.3222
23.1299
25.1141
27.2743
29.6205
32.178
34.9569
37.9613
41.2055
44.712
48.4981
52.5709
56.9492
61.6636
66.7253
72.1553
77.9846
84.2361
90.9435
98.126
105.834
114.101
122.962
132.485
142.703
153.693
165.514
178.249
191.991
206.824
222.866
240.24
259.064
279.454
301.523
325.318
350.702
26.665
25.2692
23.9338
22.6729
21.4964
20.4063
19.4036
18.4783
17.6287
16.861
16.1847
15.5497
14.9385
14.3963
13.862
13.3387
12.8723
12.4191
11.9912
11.5882
11.1937
10.8357
10.4888
10.1686
9.8766
9.59805
9.35833
9.14499
8.9512
8.8034
8.68938
8.60269
8.56674
8.5746
8.62065
8.72619
8.88824
9.09971
9.37834
9.72868
10.1475
10.6436
11.2265
11.8974
12.6629
13.5337
14.5123
15.6062
16.8283
18.1851
19.6797
21.3222
23.1299
25.1142
27.2744
29.6206
32.1781
34.957
37.9614
41.2056
44.7121
48.4982
52.571
56.9493
61.6637
66.7254
72.1554
77.9847
84.2362
90.9436
98.1261
105.834
114.101
122.962
132.485
142.704
153.693
165.514
178.25
191.991
206.824
222.866
240.24
259.065
279.454
301.523
325.318
350.703
26.665
25.2693
23.9338
22.6729
21.4965
20.4063
19.4037
18.4783
17.6287
16.8611
16.1847
15.5497
14.9385
14.3963
13.862
13.3387
12.8723
12.4192
11.9912
11.5882
11.1937
10.8358
10.4888
10.1687
9.87663
9.59809
9.35837
9.14503
8.95124
8.80345
8.68942
8.60273
8.56679
8.57465
8.62071
8.72624
8.8883
9.09976
9.3784
9.72874
10.1476
10.6437
11.2265
11.8975
12.663
13.5338
14.5124
15.6063
16.8284
18.1852
19.6797
21.3223
23.13
25.1143
27.2745
29.6207
32.1782
34.9571
37.9615
41.2057
44.7122
48.4983
52.5712
56.9495
61.6639
66.7256
72.1556
77.9849
84.2365
90.9439
98.1264
105.834
114.101
122.963
132.485
142.704
153.694
165.515
178.25
191.992
206.825
222.867
240.241
259.065
279.455
301.524
325.32
350.704
26.6651
25.2693
23.9339
22.673
21.4965
20.4064
19.4037
18.4784
17.6288
16.8611
16.1848
15.5497
14.9386
14.3964
13.8621
13.3388
12.8724
12.4192
11.9913
11.5883
11.1938
10.8358
10.4889
10.1687
9.87671
9.59817
9.35845
9.14511
8.95132
8.80353
8.68951
8.60283
8.56688
8.57474
8.62081
8.72635
8.88841
9.09987
9.37851
9.72886
10.1477
10.6438
11.2267
11.8976
12.6631
13.5339
14.5125
15.6065
16.8285
18.1853
19.6799
21.3225
23.1302
25.1145
27.2747
29.6209
32.1785
34.9574
37.9618
41.206
44.7125
48.4987
52.5715
56.9498
61.6642
66.726
72.156
77.9854
84.2369
90.9444
98.127
105.835
114.102
122.963
132.486
142.705
153.695
165.516
178.251
191.993
206.826
222.868
240.243
259.067
279.457
301.527
325.322
350.707
26.6652
25.2694
23.934
22.6731
21.4966
20.4065
19.4038
18.4785
17.6289
16.8612
16.1849
15.5499
14.9387
14.3965
13.8622
13.3389
12.8725
12.4193
11.9914
11.5884
11.1939
10.836
10.489
10.1689
9.87684
9.5983
9.35859
9.14525
8.95147
8.80368
8.68966
8.60298
8.56704
8.57491
8.62098
8.72652
8.88859
9.10007
9.37871
9.72907
10.1479
10.6441
11.2269
11.8978
12.6634
13.5342
14.5128
15.6067
16.8288
18.1857
19.6803
21.3228
23.1306
25.1149
27.2751
29.6213
32.1789
34.9578
37.9622
41.2065
44.713
48.4992
52.5721
56.9504
61.6649
66.7267
72.1568
77.9862
84.2378
90.9452
98.1279
105.836
114.103
122.964
132.487
142.706
153.696
165.517
178.253
191.995
206.828
222.87
240.245
259.07
279.461
301.53
325.327
350.712
26.6654
25.2696
23.9342
22.6732
21.4968
20.4066
19.404
18.4786
17.6291
16.8614
16.1851
15.55
14.9388
14.3967
13.8624
13.3391
12.8727
12.4195
11.9916
11.5886
11.1941
10.8362
10.4892
10.1691
9.87706
9.59852
9.35882
9.14548
8.95171
8.80393
8.68991
8.60324
8.56731
8.57519
8.62126
8.72682
8.8889
9.10038
9.37904
9.72941
10.1483
10.6444
11.2273
11.8982
12.6638
13.5346
14.5133
15.6072
16.8293
18.1862
19.6808
21.3234
23.1312
25.1155
27.2757
29.622
32.1796
34.9585
37.963
41.2073
44.7139
48.5001
52.573
56.9514
61.6659
66.7278
72.158
77.9874
84.2391
90.9467
98.1294
105.837
114.105
122.966
132.489
142.708
153.698
165.52
178.256
191.998
206.832
222.874
240.25
259.075
279.466
301.536
325.333
350.719
26.6656
25.2699
23.9344
22.6735
21.4971
20.4069
19.4043
18.4789
17.6293
16.8617
16.1853
15.5503
14.9391
14.397
13.8627
13.3394
12.873
12.4198
11.9919
11.5889
11.1944
10.8365
10.4895
10.1694
9.87739
9.59886
9.35916
9.14584
8.95207
8.8043
8.6903
8.60364
8.56772
8.57561
8.6217
8.72727
8.88936
9.10087
9.37954
9.72993
10.1488
10.645
11.2279
11.8988
12.6644
13.5353
14.5139
15.6079
16.8301
18.1869
19.6816
21.3242
23.132
25.1164
27.2767
29.623
32.1807
34.9597
37.9642
41.2086
44.7152
48.5015
52.5745
56.953
61.6676
66.7296
72.1598
77.9894
84.2412
90.9489
98.1318
105.84
114.108
122.969
132.493
142.712
153.702
165.524
178.26
192.003
206.837
222.88
240.256
259.082
279.474
301.546
325.344
350.731
26.666
25.2703
23.9348
22.6739
21.4975
20.4073
19.4047
18.4793
17.6297
16.8621
16.1857
15.5507
14.9395
14.3974
13.8631
13.3398
12.8734
12.4203
11.9923
11.5893
11.1948
10.8369
10.49
10.1699
9.87788
9.59936
9.35967
9.14636
8.95261
8.80485
8.69087
8.60423
8.56832
8.57623
8.62235
8.72794
8.89005
9.10158
9.38028
9.73069
10.1496
10.6458
11.2287
11.8997
12.6653
13.5362
14.515
15.609
16.8312
18.1881
19.6828
21.3255
23.1334
25.1178
27.2781
29.6245
32.1823
34.9613
37.966
41.2104
44.7172
48.5036
52.5767
56.9553
61.67
66.7322
72.1626
77.9923
84.2443
90.9522
98.1353
105.844
114.112
122.974
132.497
142.717
153.708
165.53
178.267
192.01
206.845
222.889
240.266
259.093
279.486
301.559
325.358
350.747
22.6745
21.498
20.4079
19.4052
18.4799
17.6303
16.8626
16.1863
15.5513
14.9401
14.3979
13.8637
13.3404
12.874
12.4209
11.9929
11.5899
11.1955
10.8376
10.4907
10.1705
9.87857
9.60007
9.3604
9.14711
8.95337
8.80564
8.69168
8.60506
8.56918
8.57712
8.62326
8.72888
8.89103
9.10259
9.38133
9.73178
10.1507
10.647
11.2299
11.901
12.6667
13.5376
14.5164
15.6105
16.8328
18.1897
19.6845
21.3273
23.1353
25.1198
27.2802
29.6267
32.1846
34.9638
37.9685
41.2131
44.72
48.5066
52.5798
56.9586
61.6735
66.7359
72.1665
77.9965
84.2488
90.9569
98.1404
105.849
114.117
122.98
132.504
142.724
153.715
165.539
178.276
192.02
206.856
222.901
240.279
259.108
279.503
301.577
325.379
350.769
22.6752
21.4988
20.4086
19.406
18.4807
17.6311
16.8634
16.1871
15.5521
14.9409
14.3988
13.8645
13.3412
12.8749
12.4217
11.9938
11.5908
11.1964
10.8385
10.4916
10.1715
9.87952
9.60104
9.3614
9.14813
8.95443
8.80672
8.69279
8.6062
8.57036
8.57834
8.62452
8.73019
8.89238
9.10399
9.38278
9.73329
10.1523
10.6486
11.2316
11.9028
12.6685
13.5395
14.5184
15.6126
16.8349
18.192
19.6869
21.3298
23.1379
25.1226
27.2831
29.6298
32.1878
34.9671
37.9721
41.2168
44.7239
48.5107
52.5842
56.9632
61.6784
66.741
72.172
78.0023
84.2549
90.9635
98.1474
105.856
114.125
122.988
132.513
142.734
153.726
165.55
178.289
192.034
206.871
222.918
240.298
259.128
279.525
301.602
325.405
350.798
22.6763
21.4998
20.4097
19.407
18.4817
17.6321
16.8645
16.1881
15.5531
14.942
14.3998
13.8656
13.3423
12.876
12.4228
11.9949
11.592
11.1975
10.8397
10.4928
10.1727
9.8808
9.60235
9.36273
9.1495
8.95584
8.80817
8.69428
8.60774
8.57195
8.57998
8.62621
8.73194
8.89419
9.10587
9.38473
9.73531
10.1544
10.6508
11.2339
11.9051
12.671
13.5421
14.5211
15.6154
16.8379
18.1951
19.6902
21.3332
23.1414
25.1263
27.287
29.6339
32.1921
34.9717
37.9768
41.2219
44.7292
48.5163
52.5901
56.9695
61.685
66.748
72.1794
78.0101
84.2632
90.9723
98.1568
105.867
114.136
123
132.526
142.747
153.741
165.566
178.306
192.052
206.891
222.94
240.322
259.155
279.554
301.633
325.44
350.834
22.6776
21.5012
20.411
19.4084
18.483
17.6335
16.8658
16.1895
15.5545
14.9434
14.4012
13.867
13.3437
12.8774
12.4243
11.9964
11.5935
11.1991
10.8412
10.4944
10.1744
9.88247
9.60406
9.36449
9.1513
8.95768
8.81007
8.69623
8.60975
8.57403
8.58212
8.62844
8.73423
8.89657
9.10834
9.38729
9.73797
10.1572
10.6537
11.2369
11.9083
12.6742
13.5455
14.5247
15.6191
16.8418
18.1992
19.6944
21.3377
23.1462
25.1312
27.2922
29.6393
32.1978
34.9777
37.9832
41.2285
44.7362
48.5237
52.5979
56.9777
61.6937
66.7572
72.1891
78.0204
84.2742
90.9839
98.1692
105.88
114.15
123.015
132.542
142.765
153.759
165.586
178.327
192.076
206.917
222.968
240.352
259.188
279.591
301.673
325.482
350.878
22.6794
21.5029
20.4128
19.4101
18.4848
17.6352
16.8676
16.1913
15.5563
14.9451
14.403
13.8688
13.3456
12.8793
12.4262
11.9983
11.5954
11.2011
10.8433
10.4965
10.1765
9.88461
9.60625
9.36673
9.15361
8.96006
8.81251
8.69875
8.61234
8.5767
8.58489
8.6313
8.73719
8.89964
9.11153
9.3906
9.74141
10.1608
10.6574
11.2408
11.9123
12.6785
13.55
14.5293
15.6239
16.8468
18.2045
19.7
21.3435
23.1523
25.1376
27.299
29.6464
32.2052
34.9855
37.9914
41.2372
44.7453
48.5333
52.608
56.9884
61.7049
66.7691
72.2016
78.0337
84.2882
90.9989
98.185
105.897
114.168
123.034
132.562
142.787
153.783
165.612
178.355
192.106
206.95
223.003
240.391
259.23
279.636
301.721
325.533
350.93
22.6816
21.5051
20.4149
19.4123
18.487
17.6374
16.8698
16.1935
15.5585
14.9474
14.4053
13.8711
13.3479
12.8816
12.4286
12.0008
11.5979
11.2036
10.8458
10.499
10.1791
9.88732
9.60903
9.36958
9.15653
8.96306
8.8156
8.70193
8.61562
8.58009
8.58839
8.63492
8.74095
8.90353
9.11557
9.39481
9.74578
10.1653
10.6622
11.2457
11.9175
12.6839
13.5556
14.5352
15.6301
16.8533
18.2113
19.7071
21.351
23.1601
25.1458
27.3075
29.6554
32.2147
34.9955
38.0018
41.2482
44.7569
48.5454
52.6208
57.0019
61.7192
66.7841
72.2175
78.0505
84.306
91.0177
98.2051
105.918
114.191
123.059
132.588
142.815
153.813
165.644
178.39
192.143
206.99
223.047
240.438
259.281
279.687
301.777
325.592
350.989
22.6843
21.5078
20.4177
19.415
18.4897
17.6402
16.8725
16.1963
15.5613
14.9502
14.4081
13.874
13.3508
12.8846
12.4315
12.0038
11.6009
11.2067
10.849
10.5023
10.1824
9.8907
9.61249
9.37313
9.16017
8.96681
8.81945
8.7059
8.61973
8.58433
8.59278
8.63947
8.74566
8.90841
9.12065
9.40008
9.75127
10.171
10.6681
11.252
11.924
12.6907
13.5627
14.5426
15.6379
16.8615
18.2198
19.716
21.3603
23.1699
25.1561
27.3184
29.6668
32.2266
35.008
38.015
41.262
44.7714
48.5607
52.6368
57.0188
61.7369
66.8028
72.2373
78.0714
84.3282
91.0412
98.23
105.944
114.219
123.089
132.62
142.849
153.85
165.683
178.432
192.188
207.039
223.099
240.494
259.338
279.75
301.844
325.659
351.055
22.6876
21.5111
20.421
19.4184
18.493
17.6435
16.8759
16.1997
15.5647
14.9536
14.4116
13.8775
13.3543
12.8881
12.4352
12.0075
11.6047
11.2105
10.8529
10.5063
10.1865
9.89487
9.61676
9.3775
9.16467
8.97144
8.82422
8.71082
8.6248
8.58957
8.59821
8.64509
8.75149
8.91447
9.12695
9.40664
9.7581
10.1782
10.6756
11.2597
11.9321
12.6991
13.5716
14.5519
15.6476
16.8716
18.2304
19.7272
21.372
23.1821
25.169
27.3318
29.6809
32.2414
35.0235
38.0312
41.279
44.7893
48.5795
52.6566
57.0396
61.7588
66.8259
72.2617
78.0971
84.3553
91.0699
98.2604
105.977
114.253
123.125
132.659
142.89
153.894
165.73
178.482
192.242
207.096
223.16
240.558
259.405
279.825
301.919
325.733
351.127
22.6917
21.5152
20.425
19.4224
18.4971
17.6476
16.88
16.2038
15.5689
14.9578
14.4158
13.8818
13.3587
12.8925
12.4396
12.012
11.6093
11.2152
10.8576
10.5111
10.1915
9.89995
9.62197
9.38285
9.17017
8.9771
8.83006
8.71684
8.63102
8.59601
8.60488
8.65201
8.75867
8.92193
9.13471
9.41472
9.76651
10.1869
10.6847
11.2693
11.9421
12.7096
13.5825
14.5633
15.6595
16.8841
18.2435
19.7409
21.3864
23.1972
25.1847
27.3483
29.6981
32.2595
35.0424
38.0511
41.2999
44.8112
48.6024
52.6807
57.0649
61.7855
66.8539
72.2912
78.1282
84.3882
91.1045
98.2971
106.015
114.294
123.169
132.705
142.939
153.946
165.786
178.541
192.305
207.162
223.231
240.632
259.483
279.906
302
325.815
351.205
22.6965
21.52
20.4299
19.4273
18.502
17.6525
16.8849
16.2088
15.5739
14.9629
14.4209
13.8869
13.3639
12.8978
12.445
12.0174
11.6148
11.2208
10.8634
10.517
10.1975
9.90612
9.62829
9.38934
9.17685
8.98398
8.83715
8.72416
8.63859
8.60384
8.613
8.66044
8.76742
8.93102
9.14418
9.42459
9.77679
10.1977
10.6959
11.281
11.9543
12.7223
13.5958
14.5773
15.6741
16.8994
18.2595
19.7576
21.4038
23.2154
25.2038
27.3683
29.7191
32.2814
35.0654
38.0751
41.325
44.8376
48.6301
52.7097
57.0954
61.8174
66.8875
72.3266
78.1654
84.4273
91.1458
98.3406
106.061
114.343
123.22
132.759
142.997
154.006
165.85
178.609
192.376
207.237
223.31
240.713
259.569
279.994
302.09
325.903
351.29
22.7023
21.5258
20.4357
19.4331
18.5078
17.6583
16.8908
16.2147
15.5799
14.9689
14.427
13.8931
13.3701
12.9041
12.4514
12.024
11.6215
11.2276
10.8703
10.5241
10.2047
9.91353
9.6359
9.39716
9.1849
8.99228
8.84571
8.733
8.64774
8.61333
8.62284
8.67066
8.77803
8.94206
9.15568
9.43656
9.78927
10.2107
10.7095
11.2951
11.9691
12.7378
13.612
14.5941
15.6918
16.9178
18.2788
19.7777
21.4249
23.2374
25.2268
27.3923
29.7442
32.3077
35.0928
38.1039
41.3551
44.8691
48.6631
52.7443
57.1316
61.8554
66.9274
72.3684
78.2094
84.4735
91.1943
98.3917
106.115
114.399
123.279
132.822
143.062
154.076
165.922
178.685
192.456
207.321
223.398
240.804
259.664
280.091
302.188
326
351.382
22.7092
21.5327
20.4426
19.44
18.5147
17.6653
16.8978
16.2218
15.587
14.9761
14.4343
13.9004
13.3775
12.9117
12.459
12.0317
11.6294
11.2356
10.8785
10.5325
10.2133
9.9224
9.64501
9.40653
9.19455
9.00224
8.856
8.74364
8.65875
8.62474
8.63469
8.68296
8.79082
8.95536
9.16953
9.45099
9.8043
10.2263
10.7258
11.3122
11.9869
12.7564
13.6314
14.6144
15.7129
16.9399
18.3018
19.8018
21.45
23.2637
25.2542
27.4209
29.7741
32.3389
35.1255
38.138
41.3908
44.9063
48.702
52.785
57.1743
61.9
66.974
72.4173
78.2605
84.5271
91.2504
98.4505
106.177
114.464
123.347
132.893
143.137
154.153
166.004
178.771
192.545
207.415
223.495
240.905
259.768
280.198
302.295
326.106
351.482
22.7173
21.5407
20.4506
19.4481
18.5229
17.6735
16.9061
16.2301
15.5953
14.9845
14.4428
13.9091
13.3863
12.9206
12.4681
12.041
11.6388
11.2452
10.8883
10.5425
10.2236
9.93298
9.65588
9.41771
9.20609
9.01415
8.8683
8.75637
8.67193
8.63841
8.64888
8.6977
8.80614
8.97129
9.18612
9.46826
9.82229
10.2451
10.7454
11.3326
12.0082
12.7786
13.6545
14.6385
15.7381
16.9661
18.3292
19.8303
21.4798
23.2948
25.2866
27.4547
29.8093
32.3757
35.1638
38.1779
41.4325
44.9499
48.7474
52.8324
57.2238
61.9516
67.0279
72.4735
78.3192
84.5884
91.3143
98.5173
106.246
114.537
123.423
132.972
143.22
154.24
166.094
178.865
192.644
207.517
223.602
241.016
259.882
280.315
302.413
326.223
351.592
22.7267
21.5502
20.4601
19.4576
18.5324
17.683
16.9157
16.2398
15.6052
14.9945
14.4529
13.9193
13.3967
12.9311
12.4788
12.0519
11.6499
11.2566
10.9
10.5544
10.2359
9.94553
9.66879
9.43101
9.21981
9.02832
8.88295
8.77153
8.68764
8.6547
8.66579
8.71527
8.82438
8.99025
9.20587
9.48882
9.84368
10.2674
10.7686
11.3568
12.0333
12.8048
13.6819
14.667
15.7678
16.997
18.3614
19.8639
21.5147
23.3312
25.3245
27.4941
29.8505
32.4185
35.2083
38.2243
41.4808
45.0002
48.7996
52.8868
57.2804
62.0106
67.0892
72.5373
78.3857
84.6576
91.3862
98.5922
106.325
114.618
123.508
133.061
143.312
154.336
166.195
178.97
192.753
207.631
223.72
241.138
260.008
280.444
302.544
326.351
351.713
22.7376
21.5611
20.4711
19.4686
18.5435
17.6942
16.927
16.2513
15.6167
15.0061
14.4647
13.9313
13.4088
12.9435
12.4914
12.0647
11.663
11.27
10.9137
10.5685
10.2503
9.9604
9.68408
9.44677
9.23608
9.04513
8.90033
8.78951
8.70626
8.67402
8.68584
8.73609
8.846
9.01271
9.22923
9.51311
9.86894
10.2937
10.796
11.3852
12.063
12.8357
13.7139
14.7004
15.8025
17.0332
18.399
19.903
21.5554
23.3735
25.3684
27.5398
29.8979
32.4678
35.2594
38.2774
41.536
45.0574
48.859
52.9484
57.3445
62.077
67.1581
72.6089
78.46
84.7348
91.4665
98.6757
106.411
114.708
123.602
133.158
143.414
154.443
166.306
179.086
192.874
207.757
223.851
241.274
260.149
280.587
302.688
326.493
351.847
22.7503
21.5738
20.4838
19.4815
18.5564
17.7072
16.9402
16.2646
15.6302
15.0197
14.4786
13.9453
13.4231
12.958
12.5062
12.0798
11.6785
11.2858
10.9299
10.5851
10.2674
9.97793
9.70214
9.46538
9.25529
9.06498
8.92086
8.81075
8.72825
8.69682
8.70949
8.76063
8.87147
9.03915
9.25671
9.54166
9.8986
10.3245
10.828
11.4185
12.0976
12.8716
13.7513
14.7393
15.8429
17.0751
18.4425
19.9481
21.6023
23.4221
25.4187
27.5919
29.952
32.5238
35.3174
38.3375
41.5982
45.1219
48.9257
53.0175
57.4161
62.1512
67.235
72.6887
78.5428
84.8208
91.5556
98.7684
106.508
114.808
123.706
133.267
143.527
154.561
166.429
179.215
193.008
207.897
223.997
241.425
260.305
280.747
302.849
326.65
351.993
22.765
21.5885
20.4986
19.4963
18.5714
17.7224
16.9554
16.2801
15.6459
15.0356
14.4947
13.9617
13.4398
12.975
12.5235
12.0976
11.6966
11.3043
10.9489
10.6046
10.2874
9.99857
9.72339
9.48729
9.2779
9.08834
8.945
8.83572
8.7541
8.72359
8.73724
8.78941
8.9013
9.07009
9.28884
9.57501
9.93319
10.3604
10.8653
11.4572
12.1378
12.9133
13.7945
14.784
15.8893
17.1231
18.4922
19.9995
21.6555
23.4771
25.4757
27.6507
30.0129
32.5868
35.3824
38.4047
41.6678
45.1938
49.0001
53.0945
57.4959
62.2338
67.3205
72.7774
78.6348
84.9162
91.6547
98.8714
106.615
114.92
123.822
133.388
143.653
154.692
166.566
179.358
193.158
208.053
224.16
241.594
260.478
280.924
303.026
326.823
352.153
22.7818
21.6054
20.5156
19.5135
18.5888
17.7399
16.9732
16.2981
15.6641
15.0541
14.5136
13.9809
13.4592
12.9949
12.5438
12.1183
11.7178
11.3261
10.9712
10.6275
10.311
10.0228
9.74831
9.51298
9.30442
9.11572
8.97329
8.86496
8.78434
8.75489
8.76966
8.82299
8.93606
9.1061
9.32615
9.61369
9.97334
10.402
10.9083
11.5019
12.1839
12.961
13.8439
14.8349
15.9419
17.1775
18.5483
20.0575
21.7154
23.539
25.5395
27.7166
30.0809
32.657
35.455
38.4796
41.7453
45.274
49.083
53.1801
57.5846
62.3256
67.4156
72.876
78.737
85.0223
91.7648
98.9859
106.734
115.044
123.952
133.523
143.794
154.839
166.72
179.518
193.325
208.228
224.341
241.782
260.672
281.121
303.224
327.014
352.329
22.8013
21.625
20.5353
19.5334
18.6089
17.7602
16.9938
16.319
15.6853
15.0756
14.5355
14.0032
13.482
13.0181
12.5675
12.1426
11.7426
11.3515
10.9973
10.6542
10.3385
10.0511
9.77747
9.54302
9.33541
9.1477
9.0063
8.89906
8.81956
8.7913
8.8073
8.86191
8.97633
9.14796
9.36933
9.65847
10.0194
10.4496
10.9575
11.5527
12.236
13.015
13.8996
14.8923
16.0012
17.2386
18.6113
20.1224
21.7823
23.608
25.6106
27.7899
30.1567
32.7352
35.5356
38.563
41.8314
45.363
49.175
53.2753
57.6832
62.4277
67.5213
72.9857
78.8507
85.1404
91.8874
99.1135
106.867
115.182
124.096
133.673
143.951
155.004
166.892
179.698
193.512
208.423
224.544
241.992
260.888
281.34
303.442
327.224
352.519
22.8237
21.6476
20.5581
19.5564
18.6322
17.7837
17.0176
16.3434
15.71
15.1007
14.5611
14.0293
13.5085
13.0452
12.5952
12.1709
11.7716
11.3812
11.0277
10.6855
10.3707
10.0842
9.81148
9.57804
9.37151
9.18491
9.04466
8.93859
8.86032
8.8334
8.85106
8.90693
9.02314
9.1957
9.41858
9.70945
10.0715
10.5034
11.013
11.6098
12.2949
13.0757
13.962
14.9565
16.0673
17.3067
18.6813
20.1946
21.8568
23.6847
25.6896
27.8714
30.2409
32.8221
35.6253
38.6555
41.9271
45.462
49.2773
53.3812
57.7929
62.5413
67.6391
73.1079
78.9777
85.2724
92.0246
99.2565
107.016
115.337
124.258
133.842
144.128
155.188
167.084
179.899
193.722
208.641
224.771
242.226
261.127
281.582
303.682
327.454
352.725
22.8496
21.6736
20.5843
19.583
18.6591
17.811
17.0453
16.3716
15.7387
15.1298
14.5909
14.0596
13.5394
13.0768
12.6274
12.2039
11.8054
11.4158
11.0632
10.7219
10.4081
10.1227
9.85102
9.61871
9.41333
9.22792
9.08898
8.98452
8.9075
8.88244
8.90084
8.95821
9.07624
9.24929
9.47427
9.76673
10.1303
10.564
11.0753
11.6738
12.3606
13.1432
14.0315
15.028
16.1408
17.3823
18.7592
20.2748
21.9394
23.7699
25.7773
27.9619
30.3344
32.9186
35.7248
38.7584
42.0336
45.5721
49.3911
53.4991
57.9153
62.6681
67.7707
73.2448
79.1199
85.4204
92.1785
99.4168
107.183
115.511
124.44
134.032
144.326
155.394
167.3
180.124
193.956
208.885
225.023
242.486
261.393
281.85
303.946
327.705
352.946
22.8793
21.7035
20.6146
19.6137
18.6902
17.8425
17.0773
16.4043
15.772
15.1636
14.6255
14.0949
13.5753
13.1135
12.6649
12.2424
11.8448
11.4561
11.1045
10.7643
10.4516
10.1673
9.8967
9.66567
9.46189
9.2778
9.14064
9.0367
8.96116
8.9379
8.95654
9.01611
9.13554
9.30995
9.53696
9.83088
10.196
10.6315
11.1446
11.7448
12.4336
13.2182
14.1085
15.1071
16.2223
17.4661
18.8454
20.3636
22.031
23.8644
25.8746
28.0623
30.4382
33.0258
35.8355
38.8729
42.1522
45.695
49.5184
53.6311
58.0524
62.8104
67.9185
73.3984
79.2796
85.5866
92.3514
99.597
107.37
115.707
124.644
134.244
144.548
155.626
167.541
180.376
194.218
209.157
225.304
242.775
261.688
282.146
304.235
327.976
353.181
22.9135
21.738
20.6495
19.6491
18.7262
17.8789
17.1144
16.4423
15.8106
15.2028
14.6657
14.1359
13.617
13.1563
12.7085
12.2871
11.8906
11.5029
11.1524
10.8132
10.5018
10.219
9.94978
9.7205
9.51712
9.33442
9.1989
9.09503
9.02167
8.9997
9.01974
9.08125
9.2019
9.37779
9.60654
9.90208
10.2689
10.7062
11.2212
11.8234
12.5143
13.3011
14.1936
15.1947
16.3124
17.5588
18.9408
20.462
22.1326
23.9692
25.9827
28.1739
30.5537
33.1454
35.9592
39.0009
42.285
45.8328
49.6612
53.7793
58.2063
62.9702
68.0845
73.5711
79.4592
85.7734
92.5457
99.7995
107.581
115.926
124.873
134.483
144.797
155.885
167.812
180.657
194.51
209.46
225.617
243.096
262.013
282.47
304.55
328.268
353.428
22.9528
21.7777
20.6897
19.69
18.7677
17.921
17.1572
16.4863
15.8554
15.2483
14.7124
14.1835
13.6655
13.2059
12.7592
12.339
11.9435
11.5568
11.2079
10.8702
10.5604
10.278
10.01
9.78222
9.57876
9.39817
9.2638
9.16125
9.08973
9.06878
9.09023
9.15339
9.27539
9.45284
9.68347
9.98075
10.3494
10.7887
11.3059
11.9102
12.6034
13.3927
14.2877
15.2916
16.4122
17.6616
19.0467
20.5712
22.2455
24.0859
26.1032
28.2986
30.683
33.2793
36.0978
39.1446
42.4342
45.9876
49.8217
53.9459
58.3795
63.1501
68.2713
73.7653
79.6611
85.9835
92.7641
100.027
107.818
116.173
125.13
134.75
145.075
156.175
168.113
180.971
194.836
209.796
225.963
243.45
262.37
282.824
304.891
328.579
353.682
22.9979
21.8233
20.736
19.7371
18.8156
17.9696
17.2068
16.5372
15.9073
15.3011
14.7666
14.2388
13.7218
13.2634
12.8177
12.3989
12.005
11.62
11.2719
10.9346
10.6264
10.3438
10.0776
9.85096
9.64872
9.46994
9.33626
9.23492
9.16492
9.14512
9.16802
9.23298
9.35644
9.53554
9.7682
10.0674
10.438
10.8796
11.3992
12.006
12.7017
13.4939
14.3918
15.3988
16.5229
17.7758
19.1646
20.6931
22.3717
24.2165
26.2383
28.4385
30.8282
33.4298
36.2537
39.3064
42.602
46.1618
50.0024
54.1335
58.5745
63.3524
68.4815
73.9838
79.8882
86.2196
93.0095
100.282
108.084
116.449
125.418
135.05
145.387
156.5
168.45
181.32
195.197
210.169
226.346
243.839
262.761
283.21
305.258
328.906
353.94
23.0497
21.8757
20.7892
19.7914
18.8709
18.0258
17.2641
16.5962
15.9673
15.362
14.8294
14.3028
13.7868
13.33
12.886
12.4691
12.0746
11.691
11.343
11.0068
10.7
10.4184
10.1539
9.92762
9.72638
9.54898
9.41614
9.31605
9.24772
9.22912
9.25354
9.32043
9.4455
9.62645
9.86135
10.1627
10.5357
10.9798
11.5021
12.1117
12.8106
13.6061
14.5075
15.5183
16.6463
17.9034
19.2965
20.8297
22.5133
24.3632
26.3902
28.5959
30.9916
33.5993
36.4293
39.4885
42.7911
46.358
50.2059
54.3447
58.7938
63.5801
68.7179
74.2294
80.1434
86.4848
93.2851
100.569
108.382
116.759
125.74
135.385
145.735
156.861
168.826
181.709
195.599
210.582
226.768
244.267
263.188
283.626
305.649
329.247
354.195
23.1089
21.9358
20.8503
19.8538
18.9346
18.0903
17.3298
16.6642
16.0372
15.4331
14.902
14.3764
13.8623
13.4067
12.9632
12.5472
12.1518
11.7706
11.4233
11.0886
10.7821
10.501
10.2377
10.0119
9.81173
9.63586
9.50386
9.40505
9.33851
9.32125
9.34737
9.41641
9.54335
9.7264
9.96387
10.2678
10.6435
11.0906
11.6162
12.2293
12.9319
13.7314
14.6369
15.6521
16.7849
18.0468
19.4449
20.9834
22.6728
24.5285
26.5612
28.7732
31.1757
33.7901
36.6271
39.6935
43.0039
46.5789
50.4349
54.5822
59.0406
63.8361
68.9836
74.5054
80.43
86.7825
93.5942
100.89
108.716
117.106
126.101
135.759
146.124
157.264
169.243
182.141
196.043
211.038
227.232
244.734
263.651
284.072
306.06
329.594
354.435
23.1767
22.0045
20.9202
19.9254
19.0077
18.1649
17.4068
16.7434
16.1161
15.5129
14.9855
14.4618
13.9481
13.4917
13.049
12.6344
12.24
11.8596
11.5121
11.1781
10.872
10.5917
10.3296
10.1043
9.9052
9.73094
9.59992
9.50255
9.43801
9.42235
9.45042
9.52196
9.65117
9.83677
10.0773
10.3845
10.7634
11.2142
11.7438
12.3609
13.0679
13.872
14.7823
15.8026
16.9408
18.2082
19.612
21.1566
22.8524
24.7147
26.754
28.9729
31.383
34.0051
36.8498
39.9244
43.2435
46.8274
50.6925
54.8494
59.318
64.1238
69.2821
74.8153
80.7516
87.1164
93.9406
101.25
109.09
117.494
126.504
136.176
146.557
157.712
169.706
182.618
196.533
211.538
227.739
245.241
264.149
284.546
306.488
329.941
354.65
22.0829
21.0002
20.0075
19.0921
18.2502
17.4914
16.8304
16.2079
15.6102
15.0822
14.5535
14.0414
13.5876
13.1463
12.731
12.3364
11.9568
11.6094
11.2763
10.9706
10.6909
10.4301
10.2055
10.0075
9.8351
9.70531
9.60966
9.54747
9.53385
9.56436
9.63892
9.77099
9.95972
10.204
10.5149
10.8978
11.3529
11.887
12.5089
13.2209
14.0304
14.9462
15.9722
17.1165
18.3902
19.8004
21.3518
23.0548
24.9244
26.9711
29.1979
31.6165
34.2471
37.1004
40.1842
43.5131
47.1069
50.9821
55.1498
59.6296
64.4468
69.6171
75.163
81.1122
87.4905
94.3285
101.653
109.507
117.926
126.952
136.641
147.037
158.209
170.218
183.144
197.071
212.086
228.29
245.789
264.681
285.044
306.924
330.274
354.82
22.1718
21.091
20.1006
19.1862
18.3426
17.5916
16.9391
16.3139
15.7121
15.182
14.6567
14.1496
13.6936
13.252
12.8365
12.4422
12.0634
11.7159
11.3836
11.0784
10.7996
10.5403
10.3165
10.1201
9.94984
9.82172
9.72825
9.66894
9.65789
9.69137
9.76953
9.90505
10.0975
10.3461
10.6614
11.0489
11.5089
12.0484
12.6756
13.3933
14.2088
15.1308
16.1633
17.3145
18.5952
20.0126
21.5717
23.2828
25.1606
27.2156
29.4513
31.8793
34.5194
37.3824
40.4765
43.8161
47.421
51.3075
55.487
59.9794
64.8093
69.9928
75.5525
81.516
87.9091
94.7622
102.103
109.973
118.409
127.452
137.157
147.57
158.758
170.783
183.723
197.66
212.682
228.886
246.375
265.242
285.558
307.358
330.579
354.924
22.2717
21.193
20.2047
19.2897
18.4534
17.7097
17.0503
16.4231
15.8284
15.2984
14.773
14.2658
13.809
13.3682
12.9524
12.5581
12.1801
11.8328
11.5016
11.1971
10.9193
10.6619
10.4394
10.2449
10.0773
9.95133
9.86054
9.80464
9.79673
9.83377
9.91613
10.0557
10.2525
10.506
10.8265
11.2191
11.6847
12.2302
12.8635
13.5876
14.4099
15.3388
16.3787
17.5376
18.8261
20.2516
21.8193
23.5395
25.4265
27.4908
29.7363
32.1749
34.8257
37.6995
40.8049
44.1566
47.7738
51.6728
55.8655
60.3717
65.2156
70.4136
75.9886
81.9677
88.3769
95.2464
102.604
110.492
118.945
128.006
137.729
148.159
159.363
171.403
184.356
198.302
213.326
229.526
246.996
265.827
286.08
307.777
330.835
354.933
22.382
21.3054
20.3191
19.4082
18.5779
17.8336
17.1749
16.5512
15.957
15.4235
14.8996
14.3947
13.9368
13.4958
13.0798
12.6858
12.3089
11.9618
11.6319
11.3286
11.0522
10.797
10.5763
10.3842
10.2197
10.0964
10.0089
9.95694
9.95275
9.9939
10.0811
10.2253
10.427
10.6861
11.0124
11.4109
11.8828
12.435
13.0752
13.8066
14.6365
15.5732
16.6213
17.7888
19.0862
20.5207
22.098
23.8283
25.7257
27.8003
30.0569
32.5072
35.1698
38.0557
41.1738
44.5388
48.1696
52.0824
56.2897
60.8112
65.6704
70.8844
76.476
82.4721
88.8988
95.7859
103.162
111.068
119.54
128.62
138.36
148.808
160.028
172.082
185.045
198.996
214.019
230.205
247.647
266.427
286.596
308.16
331.016
354.813
22.5032
21.4297
20.4459
19.5395
18.7139
17.9733
17.3137
16.6905
16.0987
15.5638
15.0404
14.5363
14.0773
13.637
13.2209
12.8273
12.4517
12.1052
11.7769
11.4751
11.2005
10.948
10.7296
10.5402
10.3794
10.2594
10.1756
10.1282
10.1283
10.1741
10.2667
10.4163
10.6236
10.8891
11.2218
11.6269
12.106
12.6657
13.3136
14.0532
14.8916
15.8371
16.8944
18.0716
19.3788
20.8235
22.4116
24.1532
26.0621
28.1483
30.4171
32.8805
35.5562
38.4555
41.5876
44.9674
48.6133
52.5414
56.7647
61.3028
66.1789
71.4104
77.02
83.0344
89.4799
96.3859
103.782
111.707
120.198
129.297
139.055
149.521
160.755
172.821
185.79
199.742
214.756
230.919
248.319
267.029
287.087
308.483
331.088
354.519
22.6363
21.5654
20.5857
19.6854
18.8658
18.1282
17.4682
16.8464
16.256
15.7184
15.1956
14.6934